ITEM: TIMESTEP
2616500
ITEM: NUMBER OF ATOMS
4590
ITEM: BOX BOUNDS xy xz yz pp pp pp
-9.9985700000000008e+00 1.6597626200000008e+01 6.5990562000000068e+00
-9.9985700000000008e+00 9.9985700000000008e+00 0.0000000000000000e+00
-9.9985700000000008e+00 9.9985700000000008e+00 0.0000000000000000e+00
ITEM: ATOMS id type xs ys zs
3048 4 0.321713 0.0840985 0.0519317
392 4 0.445583 0.079621 0.0769687
357 4 0.46607 0.0730015 0.0707766
355 2 0.487555 0.0784043 0.078166
1827 4 0.450882 0.998976 0.0331604
2889 4 0.0484507 0.101099 0.0368104
2887 2 0.0557026 0.120678 0.0294721
2888 4 0.0629544 0.140256 0.0221337
2783 4 0.0796744 0.138901 0.034326
2782 2 0.103114 0.142652 0.0357868
2784 4 0.126554 0.146403 0.0372476
2844 4 0.123062 0.163054 0.0282284
3284 4 0.27153 0.0893276 0.00549042
1823 4 0.264324 0.0957366 0.0248137
1822 2 0.283559 0.091321 0.0418331
1824 4 0.302793 0.0869055 0.0588524
3046 2 0.340796 0.0873631 0.0375064
3047 4 0.359879 0.0906278 0.0230811
1761 4 0.360783 0.108699 0.0144478
3243 4 0.371464 0.139417 0.0796011
1759 2 0.382922 0.113636 0.0204357
1760 4 0.405062 0.118573 0.0264237
393 4 0.414699 0.102763 0.0392239
391 2 0.430141 0.0911922 0.0580963
1249 2 0.0102722 0.222626 0.0188702
1250 4 0.0337572 0.219829 0.00846362
1247 4 0.0393771 0.231294 0.0208148
2441 4 0.0750918 0.221196 0.0793475
1246 2 0.0538339 0.246832 0.0202976
2440 2 0.0515804 0.217583 0.0807101
4304 4 0.0922503 0.222524 0.0706114
4303 2 0.104247 0.235557 0.056837
2842 2 0.143831 0.17036 0.022354
4305 4 0.116244 0.24859 0.0430626
2843 4 0.164599 0.177666 0.0164795
2838 4 0.217562 0.242272 0.0754013
3141 4 0.238663 0.175245 0.0710318
2836 2 0.231885 0.244185 0.0554539
2837 4 0.246207 0.246098 0.0355064
3139 2 0.262441 0.17836 0.0706544
3140 4 0.286219 0.181475 0.070277
278 4 0.360744 0.212967 0.0377891
277 2 0.378974 0.222191 0.0284323
279 4 0.397204 0.231414 0.0190756
4470 4 0.409384 0.231293 0.00276539
4468 2 0.429795 0.235901 0.013853
4469 4 0.450207 0.24051 0.0249405
3197 4 0.46788 0.243811 0.0175108
2771 4 0.0149864 0.251263 0.0730427
2522 4 0.00219302 0.267866 0.0654837
1248 4 0.0682906 0.262369 0.0197805
670 2 0.0779541 0.326827 0.0672556
672 4 0.103637 0.316302 0.06266
460 2 0.102592 0.308708 0.0198034
462 4 0.100843 0.306607 0.0445984
3196 2 0.485022 0.256386 0.0138014
2727 4 0.0302299 0.347045 0.00457242
2725 2 0.0365918 0.343436 0.0287676
671 4 0.052271 0.337352 0.0718512
2726 4 0.0429537 0.339828 0.0529629
3542 4 0.0820053 0.413978 0.0563497
1551 4 0.0805853 0.404949 0.0390562
3541 2 0.101936 0.404256 0.0721936
1466 4 0.139561 0.393692 0.0778923
1465 2 0.158621 0.402324 0.0694841
1467 4 0.177681 0.410956 0.0610759
596 4 0.192725 0.420268 0.0655167
1549 2 0.087761 0.417731 0.0208368
1870 2 0.0779817 0.481065 0.0211914
1872 4 0.0888407 0.471131 0.999534
1871 4 0.0671228 0.490999 0.0428489
1550 4 0.0949367 0.430514 0.00261746
3635 4 0.12197 0.437359 0.998098
3634 2 0.13885 0.446419 0.0102747
3636 4 0.15573 0.455479 0.0224514
4187 4 0.1778 0.450908 0.0197646
4186 2 0.199929 0.456679 0.0235382
595 2 0.216808 0.422701 0.0654872
4188 4 0.222059 0.462451 0.0273117
597 4 0.240891 0.425134 0.0654578
135 3 0.23836 0.468141 0.0208135
3389 4 0.253566 0.436649 0.0702495
131 1 0.247953 0.484428 0.0262351
132 3 0.247633 0.497507 0.00773916
134 3 0.234938 0.49778 0.0431467
3388 2 0.27557 0.443043 0.0719373
133 3 0.271099 0.474845 0.0331053
2112 4 0.280319 0.488646 0.0358001
3390 4 0.297574 0.449436 0.073625
3000 4 0.318948 0.448774 0.0739039
2110 2 0.303444 0.49311 0.036228
72 3 0.338584 0.453244 0.0717541
73 3 0.335892 0.483259 0.0503128
71 1 0.351242 0.463733 0.059134
75 3 0.362353 0.44987 0.042289
3195 4 0.365107 0.469796 0.0161043
2111 4 0.326569 0.497574 0.036656
74 3 0.367703 0.468733 0.0727505
648 4 0.381721 0.448274 0.0380064
3671 4 0.380996 0.480834 0.0746895
646 2 0.406765 0.446679 0.0426425
1710 4 0.403569 0.481604 0.0769374
647 4 0.43181 0.445084 0.0472787
1708 2 0.427051 0.485339 0.0762778
1572 4 0.434867 0.462368 0.0425244
1570 2 0.460093 0.455631 0.0354062
1571 4 0.485319 0.448893 0.0282881
3711 4 0.496879 0.460924 0.0286184
1709 4 0.450533 0.489074 0.0756181
1743 4 0.47007 0.489751 0.0801439
1542 4 0.0153406 0.0159368 0.151504
580 2 0.0252744 0.0656942 0.115334
581 4 0.050089 0.0657059 0.112299
1540 2 0.00730766 0.00398494 0.133095
582 4 0.000459701 0.0656825 0.118369
3810 4 0.18924 0.0222981 0.168443
255 4 0.315995 0.0487084 0.164917
2744 4 0.485544 0.0585147 0.146842
1273 2 0.0235608 0.150389 0.120946
2701 2 0.0330209 0.105812 0.155139
1275 4 0.0112167 0.159874 0.0997258
2702 4 0.0416303 0.121722 0.141723
1274 4 0.035905 0.140904 0.142167
3241 2 0.375777 0.159209 0.0903654
2615 4 0.463326 0.160777 0.120262
2614 2 0.483898 0.155298 0.135852
2616 4 0.50447 0.149819 0.151443
492 4 0.0102559 0.2083 0.0890012
654 4 0.0137749 0.230533 0.147166
2442 4 0.028069 0.213969 0.0820727
558 4 0.0338718 0.229056 0.150583
556 2 0.0559762 0.23536 0.149839
557 4 0.0780806 0.241664 0.149095
3210 4 0.0955278 0.243777 0.138715
3208 2 0.118329 0.248232 0.134688
621 4 0.281196 0.193633 0.0861355
619 2 0.299764 0.196522 0.10149
620 4 0.318332 0.199411 0.116844
2966 4 0.324059 0.213938 0.125337
2965 2 0.349355 0.204985 0.118563
2967 4 0.374651 0.196032 0.111789
3242 4 0.38009 0.179001 0.10113
386 4 0.482943 0.213501 0.15827
743 4 0.484748 0.220167 0.140293
385 2 0.462967 0.20448 0.162386
525 4 0.00313227 0.271579 0.131117
252 4 0.0163607 0.327383 0.112917
2770 2 0.00299919 0.261737 0.094083
3209 4 0.141131 0.252688 0.130661
756 4 0.161237 0.251357 0.125375
754 2 0.1855 0.251803 0.119973
755 4 0.209762 0.252248 0.114571
729 4 0.227541 0.256545 0.108007
727 2 0.248599 0.264405 0.110006
728 4 0.269657 0.272265 0.112006
2538 4 0.289453 0.273872 0.110325
2536 2 0.314541 0.272185 0.114862
2537 4 0.339628 0.270498 0.119399
2445 4 0.355918 0.277039 0.119114
2443 2 0.381503 0.271635 0.124545
2444 4 0.407087 0.266231 0.129977
767 4 0.427575 0.257866 0.124421
766 2 0.442557 0.272885 0.125856
768 4 0.457539 0.287905 0.12729
2094 4 0.477809 0.287778 0.124549
250 2 0.0328274 0.337032 0.124997
251 4 0.0492942 0.346681 0.137077
287 4 0.0698184 0.336445 0.130151
4005 4 0.0597999 0.402681 0.162872
286 2 0.0819344 0.346951 0.146643
288 4 0.0940504 0.357458 0.163134
3543 4 0.121866 0.394534 0.0880375
714 4 0.145646 0.369877 0.166337
610 2 0.171602 0.363044 0.137619
611 4 0.14911 0.362616 0.148236
612 4 0.194095 0.363473 0.127002
2799 4 0.211584 0.368026 0.12286
2860 2 0.247126 0.336192 0.159839
2797 2 0.226012 0.350685 0.107091
2798 4 0.240441 0.333344 0.0913223
2862 4 0.252864 0.356222 0.151383
2592 4 0.272164 0.358371 0.153956
313 2 0.0250789 0.483794 0.16285
314 4 0.0438167 0.490119 0.150542
1632 4 0.121397 0.463222 0.0831744
1630 2 0.127397 0.481219 0.0957757
1631 4 0.133396 0.499215 0.108377
752 4 0.16625 0.446229 0.159025
3102 4 0.179766 0.44292 0.141679
3100 2 0.181327 0.458474 0.123282
3101 4 0.182888 0.474028 0.104884
2917 2 0.321263 0.49129 0.134907
2998 2 0.324549 0.437715 0.0962441
2999 4 0.33015 0.426656 0.118584
2913 4 0.325656 0.423593 0.136939
2911 2 0.345298 0.427022 0.150427
2918 4 0.345117 0.478386 0.14355
2912 4 0.364939 0.43045 0.163914
229 2 0.406599 0.426062 0.155779
231 4 0.4285 0.421965 0.142136
777 4 0.402498 0.501729 0.144897
735 4 0.437901 0.435768 0.138031
775 2 0.422346 0.49439 0.161256
733 2 0.462607 0.436128 0.135069
734 4 0.487313 0.436489 0.132107
3808 2 0.202628 0.0387232 0.167163
3809 4 0.216017 0.0551483 0.165884
606 4 0.210614 0.0668596 0.181185
253 2 0.337836 0.0473587 0.177785
254 4 0.359677 0.046009 0.190653
632 4 0.3764 0.0550158 0.189069
631 2 0.392378 0.0567673 0.207724
633 4 0.408356 0.0585189 0.22638
2755 2 0.434618 0.00300993 0.221098
3926 4 0.423726 0.0604315 0.238957
2757 4 0.450897 0.0162083 0.216076
2738 4 0.469807 0.0118501 0.225611
2737 2 0.4892 0.0219583 0.223077
498 4 0.00610127 0.159362 0.177046
2781 4 0.00721742 0.0893199 0.17913
2703 4 0.0244115 0.0899028 0.168556
604 2 0.211653 0.0872022 0.193484
2880 4 0.208669 0.116475 0.223882
2878 2 0.21819 0.103559 0.244636
605 4 0.212692 0.107545 0.205783
4352 4 0.425125 0.101593 0.234598
4351 2 0.445343 0.105009 0.222032
4353 4 0.46556 0.108425 0.209466
749 4 0.478214 0.118557 0.206609
496 2 0.0166413 0.175633 0.187406
497 4 0.0271813 0.191904 0.197766
390 4 0.0465995 0.193136 0.203433
388 2 0.0593836 0.21007 0.20249
389 4 0.0721678 0.227004 0.201547
629 4 0.0896932 0.224596 0.211012
2768 4 0.148508 0.177525 0.22158
628 2 0.102839 0.238163 0.199585
2767 2 0.167273 0.187427 0.215119
2769 4 0.186037 0.197329 0.208658
512 4 0.198187 0.199924 0.224953
511 2 0.210139 0.201121 0.246663
650 4 0.276841 0.238988 0.182812
649 2 0.296431 0.228203 0.198682
651 4 0.31602 0.217419 0.214553
3159 4 0.333151 0.224328 0.214745
3157 2 0.353257 0.228223 0.22709
3158 4 0.373363 0.232119 0.239435
236 4 0.382091 0.243498 0.189246
579 4 0.390528 0.224442 0.183908
577 2 0.412072 0.204618 0.181239
578 4 0.433616 0.184795 0.178571
717 4 0.383666 0.240221 0.252511
387 4 0.44299 0.195458 0.166502
630 4 0.115984 0.25173 0.188158
2861 4 0.241389 0.316161 0.168295
235 2 0.398794 0.256282 0.194151
237 4 0.415496 0.269066 0.199057
2969 4 0.433688 0.270564 0.192649
2968 2 0.450058 0.278911 0.206424
2970 4 0.466428 0.287259 0.2202
2853 4 0.478038 0.298443 0.226593
2851 2 0.47925 0.320284 0.235386
4003 2 0.0684143 0.412946 0.182258
713 4 0.0960546 0.371016 0.175131
1855 2 0.101219 0.403405 0.22872
712 2 0.12085 0.370446 0.170734
1856 4 0.095257 0.409657 0.204826
2590 2 0.292273 0.356572 0.169483
2591 4 0.312383 0.354773 0.185011
2471 4 0.457506 0.340508 0.170741
2470 2 0.462674 0.36005 0.181152
2852 4 0.480461 0.342124 0.244178
2472 4 0.467841 0.379592 0.191563
4008 4 0.481487 0.380218 0.204961
4004 4 0.0770286 0.42321 0.201643
315 4 0.00634108 0.477468 0.175158
753 4 0.158541 0.462243 0.206338
751 2 0.162395 0.454236 0.182682
644 4 0.164598 0.478584 0.206821
643 2 0.180058 0.489622 0.218586
3449 4 0.333603 0.421556 0.20423
3448 2 0.348729 0.434182 0.213903
3450 4 0.363854 0.446808 0.223577
230 4 0.384697 0.430158 0.169422
2874 4 0.376137 0.454585 0.234414
2872 2 0.399063 0.453456 0.245149
4368 4 0.48841 0.417032 0.231471
776 4 0.442195 0.487052 0.177616
4 3 0.479457 0.422097 0.250452
4366 2 0.496115 0.431552 0.215402
162 3 0.0165208 0.0538609 0.333797
1609 2 0.00492737 0.00502875 0.26103
1127 4 0.37956 0.000973966 0.329172
1126 2 0.404481 0.000678877 0.332152
1128 4 0.429402 0.000383787 0.335131
3925 2 0.445061 0.0604307 0.251995
3927 4 0.466397 0.0604298 0.265034
3698 4 0.481407 0.0561574 0.279636
3697 2 0.498382 0.0518852 0.298732
721 2 0.0523925 0.0862967 0.319323
723 4 0.0529978 0.0986905 0.298121
2879 4 0.227712 0.0906437 0.26539
1497 4 0.325278 0.0805977 0.321326
590 4 0.420985 0.132332 0.27728
589 2 0.420219 0.155569 0.271147
2849 4 0.428664 0.124051 0.294452
2848 2 0.435416 0.109994 0.315022
2535 4 0.00823131 0.202268 0.291827
2533 2 0.0248551 0.215722 0.292541
2534 4 0.041479 0.229176 0.293255
2766 4 0.0504467 0.242102 0.286022
2642 4 0.182281 0.219403 0.321935
2641 2 0.196275 0.218306 0.301002
513 4 0.222091 0.202319 0.268373
2643 4 0.210268 0.217209 0.28007
591 4 0.419454 0.178805 0.265015
404 4 0.434029 0.189237 0.270482
403 2 0.453961 0.198167 0.265788
405 4 0.473892 0.207096 0.261094
30 3 0.494221 0.205883 0.263618
299 4 0.00295058 0.288496 0.312053
2765 4 0.0250076 0.283947 0.310808
2764 2 0.0377272 0.263025 0.298415
480 4 0.331375 0.276223 0.310131
478 2 0.328047 0.257144 0.323115
715 2 0.386968 0.26231 0.257525
716 4 0.390269 0.284398 0.26254
337 2 0.442484 0.31352 0.316784
339 4 0.466509 0.303171 0.326445
338 4 0.41846 0.323869 0.307124
2556 4 0.476217 0.315309 0.331615
1803 4 0.0543546 0.415253 0.317515
3318 4 0.0903631 0.399668 0.313371
1857 4 0.107182 0.397152 0.252613
375 4 0.110627 0.35141 0.296121
374 4 0.113198 0.376803 0.254456
373 2 0.111912 0.364106 0.275288
3316 2 0.112641 0.395096 0.32652
291 4 0.417418 0.331308 0.288165
289 2 0.418673 0.351305 0.275373
290 4 0.419928 0.371301 0.262581
2568 4 0.435608 0.378749 0.259851
2566 2 0.446738 0.392798 0.27324
2499 4 0.448142 0.40094 0.302374
2567 4 0.457868 0.406847 0.286628
2497 2 0.447233 0.396256 0.326812
1188 4 0.0172739 0.426847 0.274344
1802 4 0.0349239 0.430684 0.272161
1801 2 0.0446393 0.422968 0.294838
4030 2 0.0754101 0.492681 0.302234
4031 4 0.1004 0.479565 0.307359
3959 4 0.115045 0.488729 0.300873
3958 2 0.138048 0.493435 0.301079
4573 2 0.196338 0.496846 0.316996
4574 4 0.171908 0.495292 0.317777
4575 4 0.220768 0.498401 0.316215
4000 2 0.261512 0.491283 0.330803
4002 4 0.236002 0.493364 0.328645
681 4 0.281521 0.419153 0.332713
679 2 0.303341 0.4256 0.33589
2873 4 0.421989 0.452327 0.255884
245 4 0.385657 0.450969 0.334873
2621 4 0.405549 0.451037 0.326384
2620 2 0.427429 0.457731 0.326117
2 3 0.4431 0.445675 0.256784
541 2 0.494248 0.464295 0.324194
3 3 0.463093 0.424608 0.285047
1 1 0.465105 0.436416 0.265966
2622 4 0.449309 0.464425 0.32585
5 3 0.474247 0.45303 0.271328
1575 4 0.49013 0.46081 0.268687
542 4 0.469923 0.462576 0.325808
164 3 0.00744567 0.0626028 0.369824
161 1 0.0136406 0.0702582 0.34973
2664 4 0.037006 0.0638828 0.389944
165 3 0.0342208 0.0749922 0.35217
1967 4 0.0525847 0.0461982 0.388581
2662 2 0.0303197 0.0539092 0.410588
722 4 0.0517873 0.0739029 0.340526
1966 2 0.0762913 0.0404592 0.377789
1968 4 0.099998 0.0347201 0.366998
1350 4 0.114629 0.038332 0.379494
1348 2 0.122597 0.0584853 0.377184
1349 4 0.130564 0.0786387 0.374875
1059 4 0.285273 0.00948353 0.40472
1057 2 0.263693 0.00232405 0.405532
1495 2 0.34094 0.0789892 0.341166
706 2 0.358485 0.00846735 0.365089
617 4 0.342626 0.00902893 0.406754
708 4 0.349956 0.00395414 0.387549
616 2 0.322155 0.000241952 0.408091
1496 4 0.356603 0.0773807 0.361006
707 4 0.367015 0.0129806 0.342629
2115 4 0.442804 0.0131087 0.334473
2113 2 0.458897 0.0186164 0.351028
2114 4 0.474991 0.0241241 0.367582
472 2 0.301018 0.134371 0.40454
473 4 0.319146 0.125595 0.38676
369 4 0.330295 0.137431 0.392121
686 4 0.361509 0.0915023 0.352025
367 2 0.354598 0.137548 0.39784
368 4 0.3789 0.137664 0.403558
685 2 0.382 0.0927463 0.365691
2492 4 0.389745 0.142554 0.387855
687 4 0.402492 0.0939902 0.379358
3573 4 0.41824 0.100356 0.389312
2491 2 0.409598 0.150465 0.395471
2493 4 0.42945 0.158377 0.403087
3571 2 0.43335 0.102286 0.369986
2850 4 0.442168 0.0959376 0.335592
3572 4 0.448459 0.104216 0.35066
2542 2 0.0435286 0.243675 0.408474
2544 4 0.0646207 0.223443 0.411308
471 4 0.0823342 0.221372 0.401627
469 2 0.104452 0.218498 0.388635
470 4 0.12657 0.215625 0.375644
3633 4 0.139817 0.20585 0.361794
3631 2 0.161379 0.213027 0.36078
2451 4 0.203078 0.22182 0.360592
3632 4 0.18294 0.220204 0.359766
2450 4 0.245677 0.235844 0.369174
2449 2 0.224378 0.228832 0.364883
2700 4 0.266348 0.234355 0.364685
2698 2 0.287711 0.239966 0.357284
2699 4 0.309075 0.245577 0.349882
479 4 0.32472 0.238065 0.336098
2821 2 0.999013 0.281446 0.380232
2823 4 0.022412 0.277237 0.391324
2543 4 0.0224364 0.263907 0.405641
3462 4 0.156602 0.299352 0.397322
3460 2 0.179937 0.302801 0.401107
3461 4 0.203273 0.306249 0.404891
409 2 0.238288 0.311035 0.40537
410 4 0.25499 0.321063 0.394225
1034 4 0.26461 0.314204 0.37767
1033 2 0.289499 0.312816 0.382806
1035 4 0.314388 0.311428 0.387941
585 4 0.332641 0.315643 0.389787
583 2 0.357211 0.315651 0.385164
584 4 0.381781 0.315658 0.380541
893 4 0.390462 0.325073 0.366137
2529 4 0.436973 0.253685 0.355907
2527 2 0.456766 0.258705 0.367735
569 4 0.434975 0.328873 0.393143
2528 4 0.476558 0.263725 0.379564
568 2 0.452033 0.327508 0.411785
2496 4 0.487883 0.256572 0.396131
594 4 0.0144019 0.381696 0.341358
592 2 0.0402717 0.378375 0.340737
593 4 0.0661415 0.375054 0.340115
669 4 0.155989 0.389812 0.338524
3317 4 0.134919 0.390524 0.33967
667 2 0.174966 0.400386 0.341463
668 4 0.193944 0.410959 0.344403
1436 4 0.216908 0.410128 0.344367
1435 2 0.239518 0.414055 0.33818
266 4 0.250371 0.407505 0.416978
811 2 0.293602 0.403633 0.414771
549 4 0.331929 0.404419 0.394256
812 4 0.317747 0.402141 0.406802
547 2 0.343603 0.411861 0.375017
892 2 0.409797 0.334257 0.372512
894 4 0.429131 0.343441 0.378887
2832 4 0.440595 0.379022 0.363355
2498 4 0.446324 0.391572 0.351249
2830 2 0.458272 0.370122 0.381485
452 4 0.484054 0.373782 0.408915
2831 4 0.475949 0.361221 0.399616
4323 4 0.0215745 0.442962 0.410267
447 4 0.0309215 0.424369 0.402916
445 2 0.053923 0.42079 0.391243
446 4 0.0769244 0.417211 0.379571
1437 4 0.262128 0.417982 0.331994
1338 4 0.251119 0.430017 0.389677
1336 2 0.252222 0.453406 0.390252
1337 4 0.253326 0.476795 0.390826
602 4 0.270931 0.48113 0.390411
601 2 0.274758 0.48833 0.413538
680 4 0.325162 0.432048 0.339068
4001 4 0.287022 0.489203 0.332962
246 4 0.34574 0.432524 0.341527
3618 4 0.300447 0.491963 0.344802
548 4 0.355278 0.419303 0.355778
244 2 0.365698 0.441746 0.3382
415 2 0.422029 0.422219 0.410912
417 4 0.440562 0.432359 0.404302
1433 4 0.498943 0.432301 0.366818
1434 4 0.454578 0.433269 0.39048
1432 2 0.47676 0.432785 0.378649
1061 4 0.0121602 0.0799258 0.461754
2900 4 0.0316351 0.999076 0.423628
2663 4 0.0236334 0.0439356 0.431233
2559 4 0.0275083 0.0654002 0.470769
2557 2 0.0537906 0.0563028 0.470094
3796 2 0.0697685 0.00319639 0.445884
3797 4 0.0478607 0.0013371 0.435184
219 3 0.129688 0.0122816 0.482286
2558 4 0.0800729 0.0472053 0.469418
220 3 0.103303 0.0175157 0.454317
217 3 0.096585 0.0416921 0.48272
216 1 0.113619 0.0279887 0.469126
218 3 0.124897 0.0409029 0.457718
3798 4 0.0916763 0.00505569 0.456585
2500 2 0.133757 0.0692607 0.454168
2501 4 0.144014 0.0465053 0.46416
4341 4 0.166745 0.0403786 0.468488
4339 2 0.185761 0.0452462 0.481763
4340 4 0.204778 0.0501137 0.495037
1181 4 0.215558 0.0103729 0.438353
4551 4 0.222353 0.0558703 0.497725
1180 2 0.234518 0.0128826 0.453429
4549 2 0.23661 0.0715646 0.498785
1182 4 0.253478 0.0153922 0.468505
3395 4 0.264113 0.0242073 0.479514
3394 2 0.284825 0.0316929 0.47388
3396 4 0.305537 0.0391785 0.468246
90 3 0.3191 0.0423734 0.482464
576 4 0.395214 0.0726286 0.497405
3621 4 0.40982 0.0809836 0.489619
1060 2 0.00834569 0.103581 0.454704
1062 4 0.00453116 0.127235 0.447653
683 4 0.0195302 0.129214 0.459229
682 2 0.0415693 0.131025 0.469693
684 4 0.0636084 0.132837 0.480157
2715 4 0.077148 0.139493 0.467805
2713 2 0.098929 0.119926 0.465064
2502 4 0.1235 0.0920161 0.444176
2714 4 0.12071 0.10036 0.462323
2504 4 0.258083 0.103057 0.496269
474 4 0.28289 0.143147 0.422321
3619 2 0.432247 0.0858956 0.484851
3620 4 0.454674 0.0908077 0.480083
2684 4 0.497449 0.153593 0.466011
695 4 0.237149 0.170867 0.480706
825 4 0.222698 0.187438 0.485716
694 2 0.245487 0.180709 0.460854
696 4 0.253825 0.19055 0.441002
311 4 0.113333 0.289286 0.469948
310 2 0.119992 0.310178 0.472197
312 4 0.126652 0.331069 0.474445
411 4 0.221586 0.301008 0.416515
3594 4 0.266031 0.313729 0.450478
3592 2 0.264069 0.329591 0.469526
570 4 0.469091 0.326143 0.430426
3456 4 0.0419025 0.34492 0.449412
3454 2 0.054943 0.361525 0.451957
3455 4 0.0679834 0.378131 0.454501
2561 4 0.0804991 0.388471 0.446996
2560 2 0.10298 0.392906 0.441325
662 4 0.143493 0.338899 0.47123
2562 4 0.125462 0.397341 0.435654
348 4 0.146597 0.388288 0.437433
661 2 0.155286 0.356581 0.46989
346 2 0.167866 0.395927 0.436492
663 4 0.167079 0.374263 0.468549
1238 4 0.185073 0.377138 0.473117
347 4 0.189136 0.403565 0.435551
1237 2 0.199458 0.371625 0.494019
267 4 0.209199 0.394654 0.433507
265 2 0.229785 0.401079 0.425243
3593 4 0.262107 0.345454 0.488575
813 4 0.269457 0.405126 0.42274
4044 4 0.266961 0.370436 0.469162
4042 2 0.267638 0.391132 0.481017
4251 4 0.287786 0.412461 0.487963
4043 4 0.268315 0.411827 0.492872
3885 4 0.354956 0.388471 0.444248
3883 2 0.368725 0.402492 0.434748
416 4 0.403496 0.41208 0.417522
3539 4 0.0181388 0.479581 0.479524
3538 2 0.0323407 0.495053 0.475921
603 4 0.278584 0.49553 0.436665
4249 2 0.286749 0.436411 0.490076
4250 4 0.285711 0.46036 0.492189
2740 2 0.29605 0.48221 0.470558
2741 4 0.303704 0.465491 0.489026
3884 4 0.382493 0.416512 0.425248
2488 2 0.283668 0.0124066 0.531083
2489 4 0.262827 0.00552382 0.537688
2490 4 0.30451 0.0192894 0.524479
87 3 0.316961 0.0306754 0.517393
86 1 0.325513 0.0441724 0.504058
88 3 0.316146 0.0661254 0.511268
89 3 0.349873 0.0373661 0.505799
575 4 0.36934 0.0395726 0.50483
574 2 0.382277 0.0561006 0.501117
3020 4 0.00617366 0.110316 0.575342
1107 4 0.0170089 0.120507 0.58462
1105 2 0.0411281 0.117483 0.575596
1106 4 0.0652472 0.114459 0.566572
3387 4 0.0862267 0.110673 0.562266
3385 2 0.109604 0.114232 0.559145
3386 4 0.132981 0.117792 0.556024
2243 4 0.152215 0.120502 0.559541
2242 2 0.173921 0.127482 0.559737
2244 4 0.195627 0.134462 0.559932
806 4 0.213701 0.127966 0.568502
805 2 0.237015 0.126139 0.578801
951 4 0.235605 0.159051 0.543745
4550 4 0.250867 0.0872589 0.499844
2505 4 0.308104 0.086918 0.511846
2503 2 0.283094 0.0949873 0.504058
977 4 0.313171 0.0963391 0.5627
976 2 0.296184 0.112508 0.577799
824 4 0.222877 0.176388 0.534364
823 2 0.222787 0.181913 0.51004
949 2 0.246927 0.171535 0.558941
950 4 0.258249 0.184019 0.574136
2809 2 0.301946 0.168552 0.579541
2810 4 0.277792 0.172096 0.570359
3110 4 0.32961 0.178717 0.577702
3109 2 0.354434 0.177379 0.583075
900 4 0.449796 0.170984 0.566967
898 2 0.441632 0.189982 0.583113
85 3 0.141121 0.317113 0.563685
81 1 0.162743 0.318705 0.568749
890 4 0.18525 0.325918 0.551027
83 3 0.180153 0.299375 0.562187
3420 4 0.1956 0.307142 0.553072
3418 2 0.214564 0.285071 0.554346
3419 4 0.233528 0.263 0.555619
1641 4 0.0131941 0.36316 0.515637
3045 4 0.00238541 0.351507 0.522527
1639 2 0.0346532 0.368213 0.507585
1911 4 0.0766624 0.363133 0.502808
1909 2 0.0928419 0.37251 0.515685
1640 4 0.0561123 0.373266 0.499533
3453 4 0.101022 0.401196 0.528457
1910 4 0.109021 0.381886 0.528562
82 3 0.165901 0.336618 0.557525
889 2 0.194223 0.341376 0.53731
891 4 0.203196 0.356833 0.523592
1239 4 0.213843 0.366111 0.514922
3451 2 0.110675 0.418262 0.518441
3452 4 0.120328 0.435328 0.508424
1698 4 0.131504 0.444025 0.522698
1696 2 0.15291 0.447764 0.53263
1697 4 0.174317 0.451503 0.542561
3975 4 0.188123 0.461197 0.541288
3973 2 0.204362 0.474541 0.5367
3974 4 0.220601 0.487884 0.532112
2130 4 0.238968 0.491518 0.529282
797 4 0.256162 0.480081 0.573969
796 2 0.282003 0.47089 0.569448
798 4 0.307845 0.461699 0.564926
1136 4 0.31619 0.459587 0.546802
1135 2 0.340514 0.454926 0.555982
1137 4 0.364837 0.450265 0.565162
790 2 0.401639 0.443692 0.579635
792 4 0.427022 0.442155 0.577629
791 4 0.376255 0.445229 0.581641
269 4 0.0664139 0.0794538 0.648331
268 2 0.0709562 0.0711168 0.624827
270 4 0.0754986 0.0627799 0.601323
3084 4 0.0872285 0.0683726 0.654169
3050 4 0.0920651 0.0487103 0.59617
3049 2 0.116808 0.0489058 0.59305
3082 2 0.106504 0.0753707 0.664671
3051 4 0.141552 0.0491013 0.589929
2507 4 0.150816 0.0577801 0.601076
2506 2 0.168181 0.054855 0.619722
3024 4 0.188199 0.0501931 0.658261
2508 4 0.185546 0.0519298 0.638369
3308 4 0.219789 0.0115228 0.63091
1143 4 0.219422 0.0297301 0.624891
1141 2 0.230077 0.0398381 0.606801
1142 4 0.240733 0.0499461 0.588711
2978 4 0.253489 0.0900363 0.666531
2977 2 0.227979 0.0917634 0.666134
807 4 0.260328 0.124312 0.5891
978 4 0.279196 0.128677 0.592899
1086 4 0.271084 0.0879809 0.65629
1084 2 0.291294 0.0963464 0.661538
2811 4 0.326101 0.165009 0.588723
3267 4 0.387693 0.165112 0.60505
145 3 0.404538 0.148862 0.663104
3265 2 0.400724 0.154006 0.625401
3266 4 0.413755 0.142901 0.645751
2240 4 0.0218119 0.249065 0.594185
3180 4 0.0030274 0.251838 0.585513
1154 4 0.087761 0.243575 0.602747
1153 2 0.112843 0.236347 0.610348
1155 4 0.137925 0.229119 0.617949
1257 4 0.15815 0.228744 0.616541
1255 2 0.181895 0.231777 0.618451
1256 4 0.20564 0.234809 0.62036
1129 2 0.263214 0.179397 0.654907
958 2 0.241454 0.246077 0.628646
959 4 0.216242 0.246753 0.628121
1130 4 0.272952 0.189939 0.636486
935 4 0.281282 0.199588 0.651159
3239 4 0.285627 0.247019 0.636446
960 4 0.266666 0.245401 0.62917
934 2 0.303844 0.204192 0.646251
936 4 0.326406 0.208796 0.641344
1259 4 0.346308 0.201935 0.650328
3111 4 0.379258 0.176041 0.588448
1258 2 0.365297 0.212317 0.64646
1260 4 0.384286 0.2227 0.642592
3207 4 0.39271 0.235303 0.633398
3205 2 0.41716 0.225387 0.624548
3206 4 0.441611 0.215472 0.615698
899 4 0.433468 0.20898 0.599258
2239 2 0.0453935 0.252533 0.595515
2241 4 0.0689752 0.256001 0.596844
905 4 0.134323 0.316861 0.647892
904 2 0.147694 0.312802 0.626353
906 4 0.161066 0.308743 0.604815
84 3 0.164343 0.322003 0.59156
3380 4 0.262118 0.319856 0.646106
3379 2 0.288077 0.315383 0.643704
3238 2 0.297969 0.259125 0.650999
3381 4 0.314035 0.31091 0.641302
1040 4 0.317732 0.31852 0.623179
1039 2 0.333243 0.332695 0.627262
2720 4 0.000658141 0.34939 0.592095
3221 4 0.0201965 0.337596 0.586962
3220 2 0.0370528 0.350768 0.588422
3222 4 0.0539092 0.36394 0.589883
3491 4 0.0703498 0.366205 0.598331
3490 2 0.0951065 0.366687 0.59629
3492 4 0.119863 0.367168 0.594248
1041 4 0.348755 0.34687 0.631344
998 4 0.362217 0.344569 0.646384
3465 4 0.240654 0.475861 0.583038
3463 2 0.236052 0.454337 0.588031
3464 4 0.23145 0.432813 0.593024
2138 4 0.249268 0.49393 0.654904
2137 2 0.274414 0.487615 0.662216
2139 4 0.299559 0.4813 0.669528
2369 4 0.313352 0.486784 0.65733
2368 2 0.332362 0.494846 0.647813
4558 2 0.458372 0.463462 0.661324
4559 4 0.45998 0.475298 0.640001
773 4 0.479589 0.476165 0.638419
772 2 0.492351 0.467125 0.617257
1036 2 0.148887 0.0144085 0.705865
1037 4 0.145337 0.0389577 0.704519
3022 2 0.176096 0.0431987 0.67746
3023 4 0.163992 0.0362042 0.696659
4384 2 0.211814 0.0153329 0.743534
2133 4 0.247881 0.00228287 0.719653
4386 4 0.236632 0.011892 0.736291
2131 2 0.252798 0.0188314 0.704045
2132 4 0.257716 0.03538 0.688437
3083 4 0.12578 0.0823688 0.675172
2282 4 0.134911 0.0961869 0.676454
2281 2 0.15823 0.100106 0.674443
2283 4 0.18155 0.104025 0.672431
2979 4 0.202469 0.0934905 0.665738
897 4 0.332577 0.102262 0.663001
1085 4 0.311505 0.104712 0.666786
1131 4 0.253476 0.168855 0.673329
895 2 0.350561 0.109586 0.675467
896 4 0.368544 0.116909 0.687933
1014 4 0.400023 0.0832487 0.726365
1013 4 0.391144 0.116433 0.689012
1012 2 0.395583 0.0998406 0.707688
143 3 0.409945 0.122501 0.689786
141 1 0.407688 0.14472 0.685427
142 3 0.427896 0.148886 0.692207
144 3 0.388732 0.158591 0.697226
3106 2 0.307798 0.176152 0.747316
3108 4 0.324268 0.183126 0.732343
3165 4 0.344835 0.171592 0.729742
3163 2 0.367204 0.172915 0.719577
3164 4 0.389573 0.174238 0.709411
3434 4 0.426818 0.251425 0.683121
383 4 0.447122 0.240878 0.686564
1208 4 0.473229 0.204704 0.727012
1207 2 0.491013 0.189483 0.7422
382 2 0.466401 0.251041 0.689673
1133 4 0.0900534 0.315366 0.73692
1299 4 0.196246 0.326478 0.683104
3240 4 0.310311 0.27123 0.665551
3093 4 0.32134 0.261638 0.682308
3091 2 0.341002 0.271464 0.680308
3435 4 0.37502 0.270014 0.691482
3092 4 0.360665 0.28129 0.678308
3384 4 0.389015 0.288308 0.75001
3433 2 0.400919 0.26072 0.687302
921 4 0.40511 0.290823 0.739254
919 2 0.429127 0.293188 0.737097
920 4 0.453145 0.295552 0.734939
867 4 0.472452 0.296258 0.732172
384 4 0.48568 0.261204 0.692783
865 2 0.496163 0.298413 0.727259
1297 2 0.208929 0.336662 0.699355
1298 4 0.221612 0.346846 0.715605
1068 4 0.235092 0.354943 0.705463
1066 2 0.260118 0.354427 0.708131
1067 4 0.285144 0.35391 0.710799
3113 4 0.290462 0.369925 0.705005
3112 2 0.31639 0.366273 0.704212
3114 4 0.342319 0.362621 0.703419
999 4 0.361481 0.357859 0.694455
997 2 0.361849 0.351214 0.670419
1007 4 0.434129 0.351248 0.708739
1006 2 0.445522 0.357672 0.728771
1008 4 0.456916 0.364096 0.748803
801 4 0.468518 0.420867 0.724087
1089 4 0.0946335 0.467382 0.67972
1087 2 0.11578 0.460664 0.694611
1088 4 0.136926 0.453946 0.709503
2060 4 0.149557 0.436553 0.71644
2059 2 0.171929 0.442414 0.716403
2061 4 0.194302 0.448276 0.716367
4445 4 0.21199 0.450093 0.72546
4444 2 0.231491 0.45975 0.729604
4446 4 0.250993 0.469407 0.733747
4523 4 0.27205 0.469312 0.729396
4522 2 0.294698 0.474658 0.73022
4524 4 0.317346 0.480004 0.731045
885 4 0.33323 0.489319 0.731079
884 4 0.380129 0.496202 0.725113
883 2 0.35668 0.492761 0.728096
1170 4 0.375092 0.45096 0.687109
1168 2 0.394613 0.449465 0.703262
1169 4 0.414133 0.447969 0.719415
1904 4 0.401955 0.452934 0.737912
820 2 0.494024 0.495259 0.732353
1955 4 0.464777 0.422148 0.74472
800 4 0.4381 0.455114 0.693064
4560 4 0.456763 0.451626 0.682647
799 2 0.453309 0.437991 0.708576
2348 4 0.185068 0.00842735 0.768013
2347 2 0.182102 0.00404833 0.792232
4385 4 0.186995 0.0187739 0.750777
3675 4 0.191311 0.0534648 0.825084
3673 2 0.217389 0.0444087 0.821916
3674 4 0.243467 0.0353525 0.818749
2123 4 0.260709 0.027354 0.827625
2122 2 0.282839 0.0237334 0.814442
2124 4 0.304969 0.0201129 0.80126
4526 4 0.321021 0.027202 0.795612
4525 2 0.34638 0.0255096 0.792914
4527 4 0.371738 0.0238171 0.790216
818 4 0.388211 0.0116804 0.779144
817 2 0.41141 0.0158554 0.777207
819 4 0.434609 0.0200304 0.775269
2036 4 0.416413 0.0826094 0.816212
887 4 0.445238 0.0225918 0.791055
886 2 0.469894 0.022834 0.787417
4579 2 0.45213 0.0770803 0.790342
888 4 0.494551 0.0230762 0.783779
4580 4 0.475124 0.0759795 0.779766
4347 4 0.493865 0.0778225 0.783941
2626 2 0.0159817 0.164577 0.763507
2628 4 0.995872 0.15543 0.766077
923 4 0.0825019 0.125643 0.813535
3350 4 0.0655513 0.122339 0.823549
3349 2 0.0420463 0.122404 0.832133
922 2 0.102312 0.134368 0.807681
1026 4 0.141801 0.0946238 0.787238
924 4 0.122122 0.143093 0.801828
3039 4 0.138619 0.151984 0.800087
1024 2 0.156659 0.109744 0.785602
1025 4 0.171516 0.124864 0.783965
2306 4 0.188239 0.128003 0.776231
2305 2 0.204728 0.139674 0.784906
2307 4 0.221216 0.151346 0.793582
4442 4 0.239886 0.144831 0.784322
4441 2 0.258768 0.154998 0.77909
3107 4 0.291328 0.169178 0.762288
2037 4 0.364614 0.0909268 0.811177
2035 2 0.390514 0.0867681 0.813694
4581 4 0.429137 0.0781811 0.800917
3555 4 0.452271 0.135685 0.817922
3305 4 0.46328 0.147151 0.811517
3304 2 0.489546 0.138281 0.810173
2627 4 0.0360915 0.173725 0.760937
3356 4 0.0512657 0.180903 0.76539
3355 2 0.0717192 0.189759 0.764809
3153 4 0.0658962 0.248178 0.826925
3151 2 0.0418892 0.246421 0.831118
3357 4 0.0921727 0.198615 0.764228