ITEM: TIMESTEP
3028500
ITEM: NUMBER OF ATOMS
4590
ITEM: BOX BOUNDS xy xz yz pp pp pp
-9.9985700000000008e+00 9.9985700000000008e+00 0.0000000000000000e+00
-9.9985700000000008e+00 9.9985700000000008e+00 0.0000000000000000e+00
-9.9985700000000008e+00 9.9985700000000008e+00 0.0000000000000000e+00
ITEM: ATOMS id type xs ys zs
2335 2 0.068331 0.0471361 0.00340324
2336 4 0.043669 0.0446042 0.00665187
2337 4 0.0929929 0.049668 0.000154606
2701 2 0.2999 0.0201259 0.0661085
2702 4 0.300555 0.0395627 0.0818241
1274 4 0.297593 0.056975 0.0739376
2889 4 0.428125 0.0774633 0.0694665
353 4 0.245261 0.102814 0.0724448
693 4 0.224327 0.0996582 0.0723232
354 4 0.287375 0.127298 0.0611479
352 2 0.266318 0.115056 0.0667964
24 3 0.30192 0.127637 0.0729071
23 3 0.333175 0.147114 0.0822987
2894 4 0.372252 0.153777 0.0809929
2893 2 0.387686 0.143558 0.0641843
2895 4 0.403121 0.133339 0.0473757
3347 4 0.406965 0.132067 0.0270612
2887 2 0.445053 0.089184 0.0552795
2888 4 0.461981 0.100905 0.0410925
3346 2 0.429367 0.1356 0.016532
2783 4 0.478421 0.0992145 0.0542275
2782 2 0.487933 0.122337 0.0545132
2784 4 0.497444 0.145459 0.0547989
3348 4 0.451769 0.139132 0.00600279
278 4 0.0786273 0.20199 0.00318476
277 2 0.0979527 0.215857 0.0108926
279 4 0.117278 0.229724 0.0186005
4470 4 0.1297 0.224265 0.0335444
4468 2 0.148574 0.239533 0.03953
3216 4 0.183748 0.168334 0.999416
742 2 0.229965 0.19828 0.0718775
743 4 0.208866 0.203677 0.0841601
386 4 0.190723 0.195363 0.0820202
2403 4 0.17797 0.237071 0.00654491
3214 2 0.183989 0.193038 0.0032738
3215 4 0.184229 0.217741 0.00713163
744 4 0.251065 0.192883 0.0595949
2599 2 0.292001 0.202267 0.0526865
450 4 0.314595 0.231646 0.0462394
2601 4 0.313464 0.212685 0.0452033
2600 4 0.270538 0.191849 0.0601697
448 2 0.331744 0.239425 0.0626888
914 4 0.368353 0.24637 0.0771474
2881 2 0.491847 0.232047 0.00110051
103 3 0.49186 0.248378 0.0639544
102 3 0.461001 0.246168 0.0426129
2882 4 0.470592 0.21949 0.997133
1119 4 0.0972958 0.319466 0.0156206
1117 2 0.0987634 0.295667 0.00809324
770 4 0.1029 0.333705 0.0304577
4469 4 0.167449 0.254801 0.0455155
2876 4 0.241126 0.271884 0.0121065
3196 2 0.194163 0.312093 0.0353777
3198 4 0.186737 0.290032 0.0445074
2875 2 0.253875 0.262979 0.0316862
2877 4 0.266625 0.254074 0.051266
105 3 0.471492 0.279166 0.0565415
2759 4 0.452245 0.30438 0.0488574
101 1 0.479004 0.259398 0.0480889
2835 4 0.46672 0.293478 0.0401325
2833 2 0.463723 0.305532 0.0184316
2758 2 0.436058 0.310455 0.0669189
104 3 0.491585 0.263232 0.0289728
769 2 0.113655 0.348523 0.0134302
3231 4 0.0940639 0.414925 0.0776448
3197 4 0.201589 0.334155 0.026248
933 4 0.190632 0.346155 0.0138242
3541 2 0.45954 0.404656 0.0287951
3543 4 0.464462 0.410923 0.0524951
3542 4 0.454618 0.398389 0.00509508
4278 4 0.000108951 0.475295 0.0434869
1122 4 0.0935222 0.429148 0.0635439
1120 2 0.117978 0.432846 0.0672103
1121 4 0.142434 0.436544 0.0708767
242 4 0.27655 0.485218 0.0428231
241 2 0.298963 0.493393 0.0353403
1300 2 0.34223 0.492934 0.999728
1466 4 0.480642 0.422715 0.0528596
1373 4 0.0372829 0.0564671 0.106211
1372 2 0.0485299 0.0362518 0.0967213
1374 4 0.0597769 0.0160365 0.0872318
1873 2 0.0458396 0.0567019 0.151804
1875 4 0.0293643 0.0401689 0.142837
1542 4 0.0401029 0.0238896 0.145322
582 4 0.0759589 0.00533307 0.0944156
1874 4 0.062315 0.0732348 0.16077
1540 2 0.0410258 0.999505 0.139871
2615 4 0.0363583 0.0767676 0.106843
580 2 0.100859 0.00307608 0.0942461
333 4 0.137931 0.0502755 0.150791
331 2 0.15998 0.0594695 0.158174
3678 4 0.121206 0.0602036 0.156411
3676 2 0.0992337 0.0721229 0.155801
692 4 0.21447 0.0674868 0.109318
1273 2 0.305862 0.0773084 0.0859106
506 4 0.453441 0.0787261 0.143124
2465 4 0.00884099 0.094422 0.0851924
3677 4 0.0772618 0.0840421 0.15519
2614 2 0.0390304 0.101504 0.109322
2616 4 0.0417025 0.126241 0.111801
2517 4 0.150319 0.11789 0.121715
2515 2 0.145747 0.142146 0.117725
2516 4 0.141175 0.166402 0.113735
691 2 0.219398 0.0835725 0.0908208
22 3 0.327483 0.112572 0.095977
21 1 0.317111 0.132169 0.0898504
1275 4 0.314132 0.0976418 0.0978836
25 3 0.306267 0.140874 0.107886
1565 4 0.269155 0.129855 0.167328
2679 4 0.394852 0.0994195 0.145981
810 4 0.372575 0.14571 0.100115
808 2 0.38158 0.130849 0.118093
809 4 0.390586 0.115989 0.136072
624 4 0.377443 0.16553 0.143532
520 2 0.341689 0.153536 0.163739
521 4 0.364976 0.155562 0.154861
2678 4 0.443817 0.0950189 0.136823
507 4 0.491481 0.102904 0.164784
2677 2 0.419334 0.0972192 0.141402
505 2 0.472461 0.0908148 0.153954
649 2 0.015983 0.232483 0.141457
650 4 0.0139339 0.241211 0.118116
651 4 0.0180322 0.223755 0.164798
387 4 0.158047 0.178444 0.115884
2537 4 0.0903441 0.245072 0.0930903
385 2 0.174385 0.186904 0.0989519
1198 2 0.241757 0.198222 0.154823
1200 4 0.218896 0.188845 0.158651
2518 2 0.290433 0.177704 0.163635
1199 4 0.264617 0.207599 0.150995
2520 4 0.281233 0.198372 0.152986
449 4 0.348894 0.247204 0.0791382
913 2 0.39032 0.239398 0.0868431
622 2 0.392003 0.175208 0.161408
915 4 0.412288 0.232426 0.0965388
455 4 0.433374 0.173977 0.168067
491 4 0.477419 0.207607 0.128283
456 4 0.465922 0.19283 0.135113
454 2 0.449648 0.183404 0.15159
845 4 0.419425 0.236927 0.114992
728 4 0.0163528 0.249664 0.100582
2538 4 0.0526576 0.267276 0.117329
2536 2 0.0715008 0.256174 0.10521
250 2 0.0292366 0.324746 0.0990558
252 4 0.00580356 0.316115 0.100319
287 4 0.0703146 0.331753 0.105817
2445 4 0.106424 0.256418 0.0994166
2444 4 0.155886 0.258528 0.106477
2443 2 0.131155 0.257473 0.102947
611 4 0.159297 0.318812 0.138229
767 4 0.174332 0.251936 0.110625
610 2 0.182819 0.317863 0.129804
766 2 0.195736 0.264673 0.108436
768 4 0.217141 0.277411 0.106248
2094 4 0.235473 0.280299 0.11506
612 4 0.206342 0.316915 0.121379
2092 2 0.260394 0.282247 0.114525
2093 4 0.285316 0.284195 0.113991
528 4 0.297412 0.300683 0.112054
526 2 0.321978 0.300812 0.107396
527 4 0.346544 0.300941 0.102738
2651 4 0.36406 0.295422 0.111501
2650 2 0.385605 0.306782 0.105847
2652 4 0.407149 0.318142 0.100192
844 2 0.431537 0.256004 0.125695
2760 4 0.41987 0.316531 0.0849803
846 4 0.443649 0.275082 0.136397
2477 4 0.447886 0.290245 0.149581
2476 2 0.465978 0.304278 0.159626
251 4 0.0526696 0.333376 0.0977925
3229 2 0.0797803 0.408684 0.0971956
2906 4 0.051684 0.387997 0.118421
3230 4 0.0654967 0.402443 0.116746
2905 2 0.0318594 0.401691 0.125102
2907 4 0.0120348 0.415385 0.131782
286 2 0.0828392 0.344135 0.123566
713 4 0.111716 0.345997 0.145155
712 2 0.136352 0.34173 0.145422
288 4 0.0953637 0.356517 0.141314
714 4 0.160988 0.337462 0.145689
3598 2 0.109299 0.414067 0.153468
3600 4 0.124841 0.39635 0.16182
2799 4 0.208764 0.338231 0.116758
2798 4 0.24238 0.373409 0.105219
2797 2 0.225572 0.35582 0.110988
3551 4 0.188992 0.412677 0.1119
2592 4 0.32889 0.373898 0.144564
2590 2 0.325886 0.390303 0.125935
2591 4 0.322882 0.406708 0.107305
2862 4 0.333371 0.365415 0.161464
2728 2 0.491606 0.364016 0.142009
2730 4 0.471351 0.363479 0.127359
2162 4 0.0865704 0.437594 0.127451
3552 4 0.149796 0.421172 0.0820288
2163 4 0.0952427 0.483289 0.109082
2161 2 0.0909066 0.460441 0.118266
1673 4 0.0894977 0.495933 0.0956
3599 4 0.0937568 0.431784 0.145117
3818 4 0.243084 0.417661 0.132256
4512 4 0.235142 0.486546 0.158966
3550 2 0.169394 0.416925 0.0969642
3819 4 0.194226 0.426288 0.125999
3817 2 0.218655 0.421974 0.129128
678 4 0.297353 0.426194 0.148787
676 2 0.277428 0.423963 0.133845
677 4 0.257504 0.421732 0.118904
1611 4 0.020128 0.00457708 0.249541
1785 4 0.0117761 0.0215434 0.241221
332 4 0.182029 0.0686634 0.165556
2780 4 0.194138 0.0813935 0.173616
2779 2 0.218951 0.0801612 0.176436
2756 4 0.381216 0.0605524 0.204284
2755 2 0.381896 0.072075 0.226464
786 4 0.379834 0.0510261 0.18746
784 2 0.384987 0.027119 0.192663
785 4 0.390141 0.003212 0.197866
748 2 0.0174135 0.131419 0.176063
750 4 0.0408601 0.139589 0.17901
1479 4 0.0548809 0.141412 0.192781
1477 2 0.0784937 0.146362 0.199348
418 2 0.165447 0.129891 0.224688
420 4 0.155646 0.121743 0.246199
1478 4 0.102106 0.151313 0.205914
2778 4 0.115063 0.166328 0.207556
419 4 0.175248 0.138039 0.203177
2931 4 0.188336 0.152893 0.208938
2930 4 0.231156 0.139473 0.186866
2929 2 0.209746 0.146183 0.197902
2781 4 0.243764 0.0789289 0.179256
2519 4 0.299633 0.157036 0.174284
1566 4 0.261299 0.102934 0.208732
1564 2 0.265227 0.116395 0.18803
522 4 0.318402 0.151511 0.172616
459 4 0.337504 0.16653 0.239653
606 4 0.439313 0.0871865 0.239155
604 2 0.455207 0.0985245 0.223534
605 4 0.471102 0.109862 0.207914
2880 4 0.487375 0.117155 0.201127
3159 4 0.0342828 0.230607 0.17455
3157 2 0.0532207 0.235133 0.190236
3158 4 0.0721586 0.239659 0.205922
579 4 0.0867781 0.241804 0.22058
2777 4 0.153066 0.192961 0.22619
2776 2 0.134064 0.179644 0.216873
2453 4 0.196223 0.216092 0.213884
2454 4 0.210723 0.185475 0.1771
2452 2 0.203473 0.200784 0.195492
458 4 0.326981 0.187959 0.195712
457 2 0.332242 0.177245 0.217683
623 4 0.406563 0.184886 0.179283
732 4 0.403221 0.184372 0.19898
730 2 0.426387 0.19044 0.206169
731 4 0.449554 0.196508 0.213358
2672 4 0.459384 0.19442 0.196071
2671 2 0.475113 0.212669 0.202759
2673 4 0.490843 0.230918 0.209448
577 2 0.101426 0.257114 0.207306
578 4 0.116074 0.272424 0.194031
236 4 0.135231 0.282592 0.19361
235 2 0.157975 0.289441 0.20142
2968 2 0.212342 0.310208 0.220122
2969 4 0.187386 0.311447 0.221043
237 4 0.180719 0.296289 0.209231
2970 4 0.237299 0.308968 0.219201
2853 4 0.256596 0.302491 0.219748
2851 2 0.276904 0.313076 0.209713
2852 4 0.297213 0.323661 0.199678
337 2 0.387894 0.318786 0.231014
339 4 0.369473 0.320887 0.24779
338 4 0.406315 0.316684 0.214237
291 4 0.418429 0.328976 0.225894
2478 4 0.48407 0.318312 0.169671
3831 4 0.0244455 0.360206 0.173044
3829 2 0.0348748 0.368635 0.194148
3696 4 0.0285489 0.380433 0.226393
3830 4 0.0453042 0.377065 0.215251
3694 2 0.00859072 0.377637 0.241193
3921 4 0.136274 0.40038 0.179644
3919 2 0.144481 0.413951 0.198975
2861 4 0.306124 0.339918 0.194754
2860 2 0.319747 0.352667 0.178109
289 2 0.432986 0.347922 0.233263
290 4 0.447543 0.366869 0.240632
3988 2 0.00785861 0.439796 0.236647
3989 4 0.0326975 0.438308 0.234197
3935 4 0.0592528 0.451926 0.243578
3934 2 0.0677017 0.428764 0.247742
2826 4 0.0587324 0.483343 0.253128
1676 4 0.0776488 0.460029 0.241112
1677 4 0.120855 0.484839 0.24541
4025 4 0.138913 0.49002 0.238767
3920 4 0.152688 0.427521 0.218306
1675 2 0.0992519 0.472434 0.243261
1545 4 0.161426 0.444926 0.210463
4510 2 0.216231 0.489605 0.175033
4511 4 0.197319 0.492664 0.191101
1544 4 0.188187 0.487151 0.209163
1543 2 0.174806 0.466038 0.209813
4005 4 0.291048 0.424269 0.167226
4003 2 0.305366 0.428024 0.187377
4004 4 0.319685 0.431779 0.207529
1855 2 0.325372 0.431149 0.237549
1856 4 0.337252 0.427184 0.215907
3993 4 0.0223986 0.0103226 0.330352
1783 2 0.00746257 0.0377616 0.259756
1784 4 0.00314909 0.0539797 0.278291
425 4 0.053511 0.057992 0.307134
424 2 0.0605896 0.0526047 0.330502
721 2 0.218062 0.0647219 0.321461
722 4 0.194802 0.0704721 0.314311
165 3 0.17702 0.0782716 0.312137
723 4 0.241322 0.0589717 0.32861
2757 4 0.382576 0.0835976 0.248644
1127 4 0.448016 0.0285879 0.297747
3809 4 0.443556 0.0746851 0.254373
3808 2 0.438883 0.0582821 0.272657
3810 4 0.43421 0.041879 0.29094
1126 2 0.438266 0.00948464 0.310599
1702 2 0.100162 0.154611 0.286149
530 4 0.111215 0.150211 0.320839
1704 4 0.109368 0.140129 0.304334
257 4 0.150184 0.128517 0.264334
256 2 0.163024 0.124802 0.285465
258 4 0.175864 0.121088 0.306596
164 3 0.166742 0.113033 0.322321
515 4 0.223591 0.114301 0.299553
514 2 0.234375 0.125282 0.319258
510 4 0.219531 0.16672 0.28132
161 1 0.168486 0.0908977 0.32906
1190 4 0.308113 0.163115 0.317772
1749 4 0.348793 0.154043 0.250085
1747 2 0.371855 0.16032 0.25743
590 4 0.00720931 0.181848 0.314253
589 2 0.0262959 0.197999 0.31446
591 4 0.0453826 0.21415 0.314666
404 4 0.0449669 0.230736 0.32857
403 2 0.0610485 0.247482 0.319289
1703 4 0.0909552 0.169093 0.267964
536 4 0.132898 0.241132 0.282398
535 2 0.142169 0.222459 0.268594
537 4 0.15144 0.203785 0.25479
29 3 0.113228 0.244755 0.281518
509 4 0.206536 0.214495 0.274282
508 2 0.213033 0.190607 0.277801
1030 2 0.212506 0.229417 0.319162
1032 4 0.231645 0.216224 0.309952
1031 4 0.193367 0.24261 0.328371
1395 4 0.244203 0.224992 0.297192
2484 4 0.292165 0.1679 0.327501
1189 2 0.326113 0.179419 0.323721
1393 2 0.268651 0.230165 0.298033
1394 4 0.2931 0.235338 0.298875
2753 4 0.300429 0.252717 0.29447
2752 2 0.325087 0.248922 0.292798
1748 4 0.394917 0.166598 0.264775
180 3 0.406684 0.171493 0.279923
1191 4 0.344112 0.195722 0.32967
402 4 0.364244 0.19104 0.332148
400 2 0.389114 0.190442 0.329639
2789 4 0.412271 0.225373 0.272449
2788 2 0.390284 0.235827 0.278147
401 4 0.413985 0.189845 0.32713
2754 4 0.349744 0.245127 0.291126
2790 4 0.368297 0.24628 0.283845
177 3 0.419007 0.206375 0.274994
179 3 0.423634 0.189549 0.308283
176 1 0.423172 0.186246 0.285321
178 3 0.443687 0.178194 0.278062
285 4 0.461611 0.171748 0.284021
283 2 0.483065 0.177923 0.29528
405 4 0.0771301 0.264228 0.310007
716 4 0.0463939 0.306497 0.280077
715 2 0.0709124 0.30213 0.277848
30 3 0.0974506 0.26202 0.311024
726 4 0.143809 0.25181 0.29687
717 4 0.095431 0.297763 0.275618
27 3 0.133097 0.268903 0.302369
26 1 0.112213 0.264387 0.293845
28 3 0.105718 0.281987 0.280191
724 2 0.166616 0.255561 0.306408
725 4 0.189422 0.259311 0.315946
374 4 0.232413 0.319519 0.316127
373 2 0.21802 0.333191 0.331329
2556 4 0.367296 0.325594 0.267591
2554 2 0.36209 0.325128 0.292042
2555 4 0.356884 0.324661 0.316493
570 4 0.371613 0.330529 0.327632
3404 4 0.00242497 0.395305 0.320356
3936 4 0.0761506 0.405603 0.251905
261 4 0.0670268 0.401387 0.269202
259 2 0.078043 0.387699 0.286992
260 4 0.0890592 0.374012 0.304782
594 4 0.104674 0.381409 0.315227
2825 4 0.0162017 0.48329 0.279432
2824 2 0.037467 0.483317 0.26628
4024 2 0.151737 0.494347 0.259791
4026 4 0.164561 0.498674 0.280815
2532 4 0.185488 0.494673 0.327981
1857 4 0.313492 0.435114 0.25919
1187 4 0.306078 0.435718 0.278638
1186 2 0.322955 0.44003 0.296575
1188 4 0.339832 0.444341 0.314513
1802 4 0.355653 0.445058 0.327064
669 4 0.401461 0.481522 0.319734
1801 2 0.369638 0.465769 0.327878
1803 4 0.383624 0.486479 0.328693
1435 2 0.485253 0.457248 0.320108
667 2 0.423977 0.471942 0.324877
668 4 0.446493 0.462361 0.330019
1436 4 0.460725 0.457359 0.315259
426 4 0.0676681 0.0472174 0.35387
2901 4 0.0416978 0.0452267 0.39077
2899 2 0.049943 0.0386465 0.413439
2645 4 0.088714 0.0498813 0.354121
163 3 0.147622 0.0828246 0.335216
2644 2 0.0952575 0.0460474 0.377947
2646 4 0.101801 0.0422135 0.401773
2663 4 0.117466 0.0393916 0.413327
2662 2 0.14046 0.0478414 0.408316
2664 4 0.163454 0.0562912 0.403306
1967 4 0.180388 0.0557901 0.391567
1966 2 0.196905 0.0589396 0.410073
1349 4 0.300878 0.0523803 0.341759
1348 2 0.276455 0.0574066 0.343598
1350 4 0.252031 0.0624328 0.345436
618 4 0.385135 0.00521222 0.392586
708 4 0.406947 0.0569386 0.361816
617 4 0.393664 0.0408861 0.358596
616 2 0.3894 0.0230492 0.375591
706 2 0.415169 0.0722793 0.379768
2685 4 0.0553055 0.165618 0.402864
2683 2 0.075483 0.16479 0.38812
3031 2 0.013359 0.162463 0.396125
529 2 0.129239 0.140755 0.335362
635 4 0.135255 0.12686 0.366144
636 4 0.127501 0.100269 0.407779
531 4 0.147262 0.131299 0.349885
634 2 0.131378 0.113565 0.386962
2892 4 0.108304 0.099409 0.408882
516 4 0.245159 0.136264 0.338964
162 3 0.182561 0.0897386 0.347218
2483 4 0.248019 0.155455 0.347424
2482 2 0.270092 0.161677 0.337463
683 4 0.338877 0.110991 0.418712
2713 2 0.412099 0.130841 0.401094
684 4 0.382052 0.0970308 0.397691
682 2 0.360465 0.104011 0.408202
2715 4 0.394676 0.112984 0.399435
707 4 0.42339 0.08762 0.39772
2714 4 0.429521 0.148699 0.402752
2955 4 0.432513 0.163305 0.388047
3033 4 0.0377493 0.167121 0.393192
2684 4 0.0956605 0.163963 0.373377
765 4 0.110402 0.177813 0.370881
763 2 0.128915 0.178435 0.387676
764 4 0.147427 0.179056 0.404471
2802 4 0.163475 0.176027 0.416556
10 3 0.242117 0.223522 0.382125
8 3 0.271725 0.210511 0.362845
6 1 0.260968 0.229464 0.370813
2957 4 0.326306 0.184333 0.383819
9 3 0.275173 0.24135 0.384789
2956 2 0.334069 0.20687 0.376269
3080 4 0.327426 0.173818 0.400489
7 3 0.255213 0.242801 0.352976
2958 4 0.341832 0.229407 0.36872
2180 4 0.354118 0.241139 0.359864
2179 2 0.378992 0.2436 0.359195
2181 4 0.403865 0.24606 0.358527
2954 4 0.42624 0.178208 0.340725
1953 4 0.484363 0.191006 0.374178
1951 2 0.495503 0.192375 0.396522
2953 2 0.429376 0.170757 0.364386
2698 2 0.0153832 0.276987 0.354095
479 4 0.0435553 0.286513 0.343897
2699 4 0.0367982 0.285353 0.363923
478 2 0.0658307 0.295935 0.350241
2612 4 0.0224659 0.327477 0.352258
480 4 0.0881062 0.305356 0.356585
3462 4 0.100722 0.312231 0.370515
3460 2 0.0999846 0.319191 0.394519
410 4 0.162916 0.332154 0.38789
1035 4 0.201772 0.280886 0.414956
1034 4 0.176463 0.317122 0.391565
1033 2 0.189118 0.299004 0.403261
585 4 0.24595 0.285347 0.415671
3455 4 0.237844 0.301403 0.406661
365 4 0.456998 0.307807 0.407375
3056 4 0.47582 0.309708 0.411341
593 4 0.136953 0.373407 0.352571
592 2 0.120814 0.377408 0.333899
411 4 0.14825 0.375887 0.368572
409 2 0.155583 0.35402 0.378231
375 4 0.203628 0.346862 0.346532
3317 4 0.295162 0.362418 0.390892
3316 2 0.317735 0.352681 0.386331
569 4 0.355085 0.349929 0.370658
568 2 0.363349 0.340229 0.349145
894 4 0.384174 0.394812 0.381364
3318 4 0.340309 0.342944 0.38177
892 2 0.377356 0.393482 0.405383
549 4 0.489881 0.365519 0.379361
812 4 0.471586 0.364581 0.389932
811 2 0.464622 0.376078 0.411015
1418 4 0.168268 0.501586 0.338324
2689 2 0.268562 0.494313 0.356947
2691 4 0.285587 0.485748 0.373132
4322 4 0.286769 0.486774 0.392989
4321 2 0.296592 0.463846 0.394721
4323 4 0.306415 0.440917 0.396454
3797 4 0.078238 0.0301134 0.436095
2900 4 0.0581882 0.0320662 0.436108
2891 4 0.0748203 0.0761261 0.437822
2580 4 0.0669086 0.087633 0.452216
2578 2 0.0687281 0.0818463 0.476473
3796 2 0.0855315 0.0112786 0.450833
1968 4 0.213422 0.0620891 0.428578
220 3 0.215301 0.0587944 0.478618
218 3 0.201262 0.0661983 0.444475
219 3 0.238052 0.0576213 0.44864
216 1 0.219774 0.0681274 0.458332
2501 4 0.23137 0.0532472 0.428848
4125 4 0.281297 0.0123827 0.417398
2502 4 0.271431 0.0279507 0.412846
2500 2 0.2514 0.040599 0.420847
4339 2 0.269933 0.0315907 0.487107
4549 2 0.319161 0.0726067 0.479021
4551 4 0.295455 0.065302 0.475884
4340 4 0.279558 0.053584 0.480118
4341 4 0.260308 0.00959742 0.494097
3394 2 0.378444 0.00426575 0.429792
3396 4 0.379152 0.0155262 0.452106
88 3 0.358751 0.0174641 0.496055
4550 4 0.342868 0.0799113 0.482158
2504 4 0.357079 0.0685564 0.49134
2503 2 0.375557 0.0533187 0.498521
575 4 0.392914 0.0157239 0.498851
2890 2 0.0915622 0.0877676 0.423352
217 3 0.224652 0.0904283 0.461162
2558 4 0.232754 0.107956 0.464183
2801 4 0.205855 0.165206 0.440797
2557 2 0.255273 0.116281 0.471169
2559 4 0.277791 0.124606 0.478155
1061 4 0.284292 0.114569 0.460534
1060 2 0.30538 0.114805 0.447103
1062 4 0.326469 0.115041 0.433671
642 4 0.270331 0.163154 0.476827
2322 4 0.0934384 0.227333 0.494211
2320 2 0.105833 0.206127 0.498887
2800 2 0.184665 0.170617 0.428677
937 2 0.235077 0.174491 0.47092
938 4 0.213294 0.1722 0.458862
939 4 0.25686 0.176783 0.482979
641 4 0.310495 0.18371 0.455261
3081 4 0.327852 0.189336 0.448026
640 2 0.290413 0.173432 0.466044
3079 2 0.327639 0.181577 0.424257
3498 4 0.27676 0.208679 0.496302
2528 4 0.35462 0.244562 0.441352
1237 2 0.152652 0.316645 0.497373
3461 4 0.0992476 0.326151 0.418522
3454 2 0.234463 0.322173 0.420165
1238 4 0.170333 0.323496 0.481074
2529 4 0.310855 0.264714 0.427961
583 2 0.26773 0.274395 0.421226
584 4 0.289511 0.263444 0.426781
2527 2 0.332738 0.254638 0.434657
2494 2 0.393108 0.262962 0.445767
2496 4 0.368543 0.258298 0.445943
2495 4 0.417672 0.267627 0.44559
366 4 0.422934 0.279496 0.430589
364 2 0.439966 0.293652 0.418982
3593 4 0.44796 0.326439 0.497132
4044 4 0.468537 0.321667 0.491938
311 4 0.05895 0.356347 0.456526
310 2 0.0783762 0.350098 0.442077
3446 4 0.00985931 0.376595 0.495524
312 4 0.0978023 0.343849 0.427627
662 4 0.216774 0.334853 0.442902
661 2 0.201117 0.335558 0.462385
3456 4 0.231082 0.342944 0.433668
663 4 0.18546 0.336263 0.481867
2560 2 0.279508 0.405679 0.479145
446 4 0.298863 0.397216 0.443318
2561 4 0.282699 0.39733 0.455793
893 4 0.370538 0.392152 0.429403
346 2 0.384502 0.387218 0.486811
347 4 0.398545 0.402783 0.473182
348 4 0.37046 0.371654 0.50044
265 2 0.440671 0.400172 0.459603
267 4 0.418554 0.405926 0.46975
4042 2 0.486565 0.337461 0.484814
266 4 0.462787 0.394418 0.449457
813 4 0.457658 0.387575 0.432098
1172 4 0.0226304 0.457855 0.481228
1173 4 0.0638725 0.461172 0.453141
1171 2 0.0432515 0.459513 0.467184
560 4 0.067597 0.47964 0.46313
559 2 0.0887652 0.490959 0.470128
1452 4 0.126428 0.429073 0.462532
1450 2 0.148953 0.43617 0.454323
3422 4 0.127358 0.49429 0.485465
2549 4 0.123145 0.443253 0.475826
1451 4 0.171479 0.443267 0.446113
2926 2 0.202065 0.455775 0.470167
2928 4 0.215466 0.471851 0.483848
2648 4 0.234045 0.471096 0.491697
2927 4 0.188664 0.439699 0.456486
2649 4 0.283195 0.461892 0.492304
2647 2 0.25862 0.466494 0.492
445 2 0.301338 0.417817 0.429365
447 4 0.303813 0.438418 0.415413
4058 4 0.362726 0.490862 0.428118
4059 4 0.361568 0.480968 0.477124
4057 2 0.362147 0.485915 0.452621
2961 4 0.370083 0.473698 0.493802
2314 2 0.0522087 0.0477073 0.545061
2316 4 0.0296539 0.0514183 0.534928
2315 4 0.0747635 0.0439964 0.555194
1901 4 0.0484807 0.00414202 0.554185
2579 4 0.0705475 0.0760597 0.50073
2196 4 0.0925698 0.0416642 0.547374
2553 4 0.151066 0.0749205 0.559107
2194 2 0.112406 0.056512 0.550731
2195 4 0.132242 0.0713598 0.554088
2551 2 0.175083 0.0685672 0.556269
2552 4 0.199099 0.0622139 0.55343
762 4 0.217829 0.0704744 0.55249
1143 4 0.315516 0.0416806 0.527806
1141 2 0.328747 0.0248203 0.514927
2505 4 0.394035 0.0380811 0.505703
574 2 0.413091 0.0133922 0.513434
1142 4 0.341977 0.00795994 0.502047
3621 4 0.444424 0.0270421 0.532283
3619 2 0.457459 0.0329315 0.552791
576 4 0.433268 0.0110604 0.528017
3620 4 0.470495 0.0388209 0.573299
982 2 0.075214 0.112998 0.523686
984 4 0.0819011 0.135681 0.531805
3326 4 0.0366298 0.14011 0.534289
983 4 0.0685269 0.0903146 0.515568
966 4 0.074595 0.149033 0.545075
3325 2 0.0232062 0.153653 0.518114
3327 4 0.00978262 0.167196 0.50194
2175 4 0.0881898 0.146906 0.559821
2173 2 0.108096 0.14215 0.574185
760 2 0.235866 0.0877172 0.55409
319 2 0.20249 0.125774 0.513857
320 4 0.214425 0.103861 0.512262
3062 4 0.207645 0.157449 0.575893
321 4 0.190555 0.147688 0.515452
3236 4 0.174129 0.15777 0.523966
761 4 0.253902 0.10496 0.555689
3021 4 0.274448 0.108287 0.555611
3019 2 0.285148 0.124341 0.571516
2317 2 0.335536 0.164135 0.525674
2319 4 0.358421 0.154244 0.523771
2244 4 0.466172 0.0991063 0.54187
2242 2 0.454249 0.114031 0.558004
806 4 0.482006 0.087397 0.545286
3386 4 0.423504 0.133802 0.574578
2243 4 0.442326 0.128955 0.574139
964 2 0.0742755 0.173987 0.543532
965 4 0.0739561 0.198941 0.541988
3419 4 0.0753564 0.216576 0.533442
3418 2 0.0776337 0.241262 0.536699
3235 2 0.150908 0.166503 0.520846
3237 4 0.127688 0.175237 0.517727
2321 4 0.118227 0.184921 0.503563
1283 4 0.181645 0.176383 0.530211
1282 2 0.205587 0.176058 0.537414
1284 4 0.229529 0.175733 0.544617
2318 4 0.312651 0.174026 0.527578
2604 4 0.297325 0.172522 0.542395
2603 4 0.248569 0.182503 0.547293
2602 2 0.272947 0.177513 0.544844
3496 2 0.296477 0.221033 0.505457
3497 4 0.316193 0.233387 0.514613
3420 4 0.0799111 0.265948 0.539957
890 4 0.087632 0.277146 0.526876
889 2 0.10236 0.296945 0.522847
891 4 0.117088 0.316745 0.518817
1239 4 0.134972 0.309795 0.513672
2847 4 0.225576 0.330709 0.54035
3445 2 0.0202124 0.381814 0.517677
3447 4 0.0305654 0.387033 0.539831
2721 4 0.0418958 0.403802 0.541644
2719 2 0.0543754 0.404625 0.563296
905 4 0.0530677 0.346089 0.577118
82 3 0.150276 0.343799 0.576215
3221 4 0.0858938 0.404473 0.588149
2845 2 0.241805 0.349662 0.541971
1444 2 0.194907 0.413059 0.571422
2846 4 0.258033 0.368614 0.543592
215 3 0.257016 0.41438 0.537749
3044 4 0.258597 0.3829 0.557222
3043 2 0.279074 0.397045 0.559627
3045 4 0.299551 0.411191 0.562032
1641 4 0.312563 0.402559 0.549271
2562 4 0.276317 0.414027 0.502497
1639 2 0.335273 0.408819 0.540888
1911 4 0.375868 0.415758 0.540767
3594 4 0.426242 0.350925 0.534941
3592 2 0.437101 0.338682 0.516037
2550 4 0.105805 0.44594 0.522654
4177 2 0.102769 0.443548 0.56047
4178 4 0.103099 0.435099 0.53694
4179 4 0.102439 0.451997 0.584001
3962 4 0.0933432 0.470466 0.584205
2548 2 0.114475 0.444596 0.49924
1445 4 0.207784 0.41831 0.550643
212 3 0.250937 0.44896 0.550405
211 1 0.243784 0.4328 0.535681
213 3 0.221784 0.427341 0.540641
214 3 0.245192 0.441176 0.514087
1488 4 0.289642 0.472996 0.50627
1486 2 0.297873 0.474816 0.52981
1487 4 0.306104 0.476636 0.55335
327 4 0.309828 0.465928 0.569625
1640 4 0.357983 0.41508 0.532505
325 2 0.33112 0.478109 0.57447
1909 2 0.397657 0.420038 0.529273
2960 4 0.393245 0.492223 0.534064
2959 2 0.381664 0.48296 0.513933
326 4 0.352411 0.49029 0.579315
1910 4 0.419447 0.424317 0.51778
3453 4 0.43935 0.427584 0.520263
3451 2 0.458547 0.437078 0.533168
3452 4 0.477744 0.446571 0.546073
1698 4 0.491715 0.46083 0.545781
3309 4 0.228004 0.0565222 0.637936
3307 2 0.224047 0.0458761 0.615661
4284 4 0.223563 0.0429069 0.652704
3308 4 0.22009 0.03523 0.593385
1817 4 0.277258 0.996986 0.594351
3051 4 0.276172 0.00475589 0.612934
3049 2 0.277874 0.015285 0.635549
3050 4 0.279577 0.0258141 0.658164
268 2 0.307789 0.0589254 0.651411
270 4 0.295556 0.0383296 0.658576
269 4 0.320021 0.0795213 0.644245
3083 4 0.38196 0.0766741 0.622801
2282 4 0.399508 0.0691504 0.614931
3082 2 0.360174 0.0813236 0.634154
3299 4 0.00264148 0.101729 0.656996
3298 2 0.0241391 0.103908 0.644415
3300 4 0.0456368 0.106087 0.631834
3360 4 0.057555 0.119083 0.641831
3358 2 0.0817884 0.116612 0.636191
4371 4 0.15684 0.104077 0.652332
2174 4 0.128001 0.137393 0.588549
4369 2 0.135345 0.100318 0.640125
3003 4 0.142625 0.150988 0.592618
3359 4 0.106022 0.11414 0.630552
4370 4 0.113849 0.0965581 0.627917
3001 2 0.167003 0.155836 0.589898
3002 4 0.191381 0.160684 0.587179
3061 2 0.225083 0.154155 0.593508
3063 4 0.242521 0.150862 0.611122
1107 4 0.312777 0.145561 0.600226
3124 2 0.254518 0.148682 0.644039
3020 4 0.295847 0.140395 0.587421
3125 4 0.260445 0.143848 0.620234
3126 4 0.24859 0.153517 0.667845
1105 2 0.337577 0.144248 0.597331
1106 4 0.362378 0.142935 0.594435
3084 4 0.338388 0.085973 0.645507
3385 2 0.402707 0.141581 0.586075
3387 4 0.38191 0.14936 0.597571
2281 2 0.413402 0.0844609 0.628993
2978 4 0.492306 0.0897895 0.6424
2977 2 0.46799 0.0919927 0.637008
2283 4 0.427297 0.0997714 0.643054
2979 4 0.443675 0.0941958 0.631616
3239 4 0.0231324 0.299301 0.639503
3238 2 0.0465172 0.299101 0.630654
3240 4 0.0699019 0.298901 0.621805
960 4 0.00481022 0.290077 0.63775
3093 4 0.0887539 0.301538 0.625398
3091 2 0.11361 0.301855 0.622709
3092 4 0.138467 0.302172 0.620019
3435 4 0.149895 0.318694 0.624295
3433 2 0.16911 0.304806 0.632237
383 4 0.190218 0.277377 0.65491
3434 4 0.188325 0.290918 0.64018
382 2 0.212705 0.27221 0.664545
999 4 0.340732 0.332492 0.665314
2720 4 0.066855 0.405448 0.584947
904 2 0.0769193 0.349897 0.583579
85 3 0.146205 0.332516 0.611555
84 3 0.115895 0.341899 0.591282
906 4 0.100771 0.353704 0.590041
83 3 0.140402 0.368634 0.602641
81 1 0.138198 0.34664 0.595585
3220 2 0.108456 0.395689 0.594391
3222 4 0.131019 0.386905 0.600633
1298 4 0.211101 0.352766 0.664159
1446 4 0.182029 0.407808 0.592201
3380 4 0.2279 0.345031 0.65738
3379 2 0.238462 0.359247 0.63973
3491 4 0.184591 0.416232 0.610532
3381 4 0.249025 0.373462 0.622081
1040 4 0.266665 0.3823 0.621366
1039 2 0.289817 0.373461 0.618043
1041 4 0.312968 0.364621 0.61472
998 4 0.310385 0.354173 0.632
997 2 0.325558 0.343333 0.648657
3961 2 0.0767919 0.488546 0.589139
4301 4 0.162377 0.49907 0.651477
4492 2 0.11794 0.499763 0.653704
4494 4 0.093443 0.49667 0.657644
3490 2 0.195439 0.420139 0.632718
3492 4 0.206287 0.424047 0.654905
3120 4 0.228151 0.502426 0.651234
3118 2 0.250891 0.492033 0.651465
3119 4 0.273631 0.481639 0.651696
1204 2 0.308627 0.466131 0.664395
1205 4 0.332464 0.459002 0.661906
879 4 0.416906 0.478081 0.621306
4562 4 0.401543 0.488862 0.619652
878 4 0.421981 0.428433 0.624481
877 2 0.419443 0.453257 0.622894
1081 2 0.0035996 0.0637471 0.728669
1082 4 0.0239296 0.0754907 0.73727
1023 4 0.0439813 0.079079 0.732761
4283 4 0.222968 0.0132572 0.692969
4282 2 0.223266 0.0280821 0.672837
1021 2 0.0676476 0.0870583 0.731561
1022 4 0.0913138 0.0950375 0.730362
2255 4 0.154569 0.103148 0.739817
2254 2 0.129609 0.103793 0.741134
2256 4 0.104648 0.104437 0.742452
1004 4 0.164534 0.120729 0.739014
1003 2 0.188185 0.118556 0.731198
1005 4 0.211836 0.116384 0.723382
3007 2 0.226091 0.146233 0.696369
3009 4 0.220141 0.133759 0.717206
3008 4 0.23204 0.158707 0.675533
3441 4 0.401042 0.15269 0.74164
3355 2 0.482508 0.101008 0.736415
3294 4 0.115765 0.171717 0.681488
954 4 0.151171 0.209325 0.724692
3293 4 0.148143 0.192658 0.71333
3292 2 0.131954 0.182188 0.697409
952 2 0.173157 0.219104 0.731483
1075 2 0.232969 0.210729 0.736515
953 4 0.195144 0.228884 0.738275
1077 4 0.211878 0.22029 0.745946
1076 4 0.25406 0.201168 0.727083
3146 4 0.258638 0.183318 0.733162
3363 4 0.383054 0.204139 0.749584
3162 4 0.369149 0.21778 0.747589
384 4 0.235192 0.267043 0.674179
3383 4 0.307642 0.302864 0.687386
3382 2 0.319932 0.291394 0.705895
3384 4 0.332222 0.279924 0.724404
921 4 0.350457 0.280911 0.732792
919 2 0.372462 0.291993 0.737058
920 4 0.394466 0.303074 0.741324
3114 4 0.352228 0.326069 0.680155
4360 2 0.00188082 0.39972 0.70353
4362 4 0.0235186 0.405843 0.714463
4437 4 0.0815272 0.409499 0.726823
4435 2 0.10639 0.411495 0.72857
4436 4 0.131253 0.41349 0.730318
1297 2 0.191726 0.352679 0.679964
1299 4 0.172352 0.352592 0.695769
3112 2 0.355997 0.342258 0.698833
1068 4 0.364176 0.4146 0.698507
1066 2 0.36637 0.393956 0.712443
3113 4 0.359766 0.358447 0.717512
1067 4 0.368565 0.373313 0.726379
4208 4 0.0303077 0.423515 0.719335
4207 2 0.0522291 0.421106 0.731117
4209 4 0.0741505 0.418698 0.7429
273 4 0.0533355 0.461067 0.678599