ITEM: TIMESTEP
755000
ITEM: NUMBER OF ATOMS
4590
ITEM: BOX BOUNDS xy xz yz pp pp pp
-9.9985700000000008e+00 1.1998283999999998e+01 1.9997139999999973e+00
-9.9985700000000008e+00 9.9985700000000008e+00 0.0000000000000000e+00
-9.9985700000000008e+00 9.9985700000000008e+00 0.0000000000000000e+00
ITEM: ATOMS id type xs ys zs
4504 2 0.219981 0.00208229 0.0340115
4506 4 0.232512 0.0204167 0.0431067
2947 2 0.263009 0.0041229 0.0782438
2949 4 0.27194 0.00726953 0.0552267
2466 4 0.319006 0.00292759 0.0281779
2468 4 0.338477 0.000870039 0.0265441
1760 4 0.427262 0.0265465 0.0252216
1759 2 0.431315 0.0486367 0.0153223
2884 2 0.422857 0.0294535 0.0754911
1761 4 0.435367 0.0707268 0.005423
2885 4 0.44124 0.0250809 0.0586391
3903 4 0.460829 0.0286086 0.0574478
3901 2 0.479749 0.023683 0.0412816
3902 4 0.498669 0.0187575 0.0251155
2709 4 0.0188224 0.113074 0.0377431
2670 4 0.0745588 0.0895193 0.0653738
2669 4 0.0992479 0.0908912 0.0219864
1253 4 0.0913338 0.0998287 0.00544864
2668 2 0.0869033 0.0902052 0.0436801
3209 4 0.345501 0.0864325 0.0495885
3208 2 0.369206 0.0906068 0.0546721
3412 2 0.404323 0.158825 0.0142184
3210 4 0.392912 0.094781 0.0597558
557 4 0.411687 0.0964749 0.0662713
3414 4 0.418014 0.159008 0.0351282
556 2 0.434932 0.0963283 0.0755185
3344 4 0.437387 0.157944 0.0381785
3343 2 0.454359 0.157489 0.0565762
3345 4 0.471331 0.157034 0.074974
654 4 0.476418 0.101882 0.0831356
3243 4 0.0446776 0.206842 0.0416153
3284 4 0.0562847 0.217557 0.0328111
3241 2 0.0198674 0.213053 0.0428368
3283 2 0.0739564 0.228583 0.045105
3285 4 0.091628 0.23961 0.0573989
1275 4 0.156956 0.20211 0.0116763
465 4 0.388103 0.230075 0.0325246
463 2 0.383341 0.240438 0.0100771
360 4 0.406761 0.21896 0.0278482
358 2 0.423284 0.212865 0.0461452
359 4 0.439807 0.206771 0.0644422
2882 4 0.487358 0.167607 0.0755846
282 4 0.459316 0.205732 0.0713783
280 2 0.480337 0.212363 0.0819153
2842 2 0.100706 0.275188 0.0778401
2843 4 0.101032 0.25139 0.0704476
2747 4 0.103239 0.331348 0.0193311
2487 4 0.082715 0.332617 0.0163633
2746 2 0.126701 0.333526 0.0270585
1069 2 0.196931 0.323202 0.0204983
1070 4 0.202974 0.298662 0.0173249
1149 4 0.215817 0.285355 0.00696496
2829 4 0.292146 0.302364 0.0153715
2827 2 0.31432 0.29209 0.00685969
1293 4 0.389507 0.332681 0.00980557
525 4 0.47626 0.274902 0.0744197
294 4 0.49068 0.326518 0.0470929
2840 4 0.485616 0.26648 0.0581051
2839 2 0.49893 0.257521 0.0383386
2486 4 0.0642801 0.374509 0.0396606
2485 2 0.0734975 0.353563 0.028012
2727 4 0.0761133 0.386808 0.0503272
2725 2 0.0975593 0.392312 0.0608646
2748 4 0.150163 0.335704 0.0347858
2726 4 0.119005 0.397817 0.0714021
1121 4 0.16738 0.344126 0.0410226
1071 4 0.190888 0.347742 0.0236718
1120 2 0.175502 0.365713 0.0483344
1122 4 0.183624 0.387301 0.0556462
4548 4 0.20527 0.35472 0.0123912
3728 4 0.244042 0.398546 0.0566411
3727 2 0.26845 0.398491 0.0620886
3729 4 0.292859 0.398435 0.067536
3543 4 0.313573 0.396146 0.0683013
3541 2 0.333138 0.406111 0.0784562
2988 4 0.295445 0.41609 0.0295416
2986 2 0.308838 0.414312 0.00839017
1292 4 0.380625 0.360445 0.0509471
1291 2 0.385066 0.346563 0.0303763
1549 2 0.430543 0.341767 0.0816598
1550 4 0.446989 0.352539 0.0674429
596 4 0.463788 0.361649 0.0746171
595 2 0.488515 0.360465 0.0703485
3899 4 0.10182 0.457177 0.00872359
4511 4 0.0355393 0.491442 0.0834043
2932 2 0.13926 0.449778 0.00671888
2933 4 0.161684 0.446249 0.017925
3444 4 0.179407 0.453313 0.0180824
3442 2 0.199787 0.464808 0.012649
3443 4 0.220167 0.476303 0.00721554
4188 4 0.233417 0.489786 0.00681641
4186 2 0.257876 0.492708 0.00881735
4187 4 0.282336 0.49563 0.0108183
2582 4 0.30355 0.495102 0.00899225
3755 4 0.420103 0.480907 0.00274302
2701 2 0.00979514 0.0189259 0.122921
743 4 0.0222942 0.078074 0.151288
2703 4 0.0249372 0.0368987 0.119018
2781 4 0.038401 0.0289452 0.106159
2779 2 0.0610118 0.0372007 0.103371
3810 4 0.0424146 0.0819653 0.148853
2780 4 0.0836226 0.0454562 0.100583
2679 4 0.101396 0.0480753 0.107853
2677 2 0.126468 0.047184 0.107376
2678 4 0.15154 0.0462926 0.106898
1373 4 0.225708 0.00228544 0.121185
2948 4 0.254077 0.000976268 0.101261
1475 4 0.343735 0.00666394 0.114777
1661 4 0.361835 0.012019 0.110645
1660 2 0.376099 0.0300271 0.1041
1662 4 0.390363 0.0480351 0.0975553
2886 4 0.404473 0.033826 0.0923431
3808 2 0.0643569 0.0919176 0.148775
2768 4 0.00553719 0.161732 0.153163
3809 4 0.0862992 0.10187 0.148697
2519 4 0.105364 0.107428 0.141782
2518 2 0.129896 0.108105 0.137353
354 4 0.097863 0.165204 0.0958038
2520 4 0.154427 0.108781 0.132925
723 4 0.172376 0.110694 0.12389
721 2 0.195858 0.11675 0.121008
722 4 0.21934 0.122805 0.118125
759 4 0.239175 0.121154 0.109492
757 2 0.262044 0.128619 0.106063
758 4 0.284914 0.136084 0.102634
356 4 0.301565 0.143194 0.111352
2790 4 0.310141 0.146471 0.162413
355 2 0.326365 0.144747 0.111315
357 4 0.351166 0.1463 0.111278
623 4 0.366455 0.153429 0.101954
558 4 0.458177 0.0961818 0.0847657
622 2 0.390624 0.157133 0.0989078
624 4 0.414793 0.160838 0.0958615
692 4 0.0214989 0.171649 0.154506
691 2 0.0435495 0.178241 0.146382
693 4 0.0656001 0.184833 0.138258
353 4 0.0730167 0.198394 0.126392
352 2 0.0854398 0.181799 0.111098
2454 4 0.160721 0.169587 0.160204
2951 4 0.168876 0.168524 0.14164
2950 2 0.18983 0.179073 0.136207
2952 4 0.210784 0.189623 0.130773
2672 4 0.222728 0.183073 0.146318
2671 2 0.245007 0.18527 0.157003
582 4 0.413983 0.167566 0.168403
2783 4 0.0395911 0.324663 0.0848852
2782 2 0.062133 0.314095 0.0920887
2784 4 0.084675 0.303527 0.0992923
2844 4 0.10038 0.298985 0.0852327
734 4 0.363423 0.326597 0.146389
517 2 0.403388 0.329861 0.152871
1551 4 0.414098 0.330996 0.0958766
519 4 0.425478 0.325738 0.164629
523 2 0.493132 0.286311 0.0874794
2704 2 0.0395417 0.392102 0.157806
2706 4 0.0464337 0.40858 0.14105
671 4 0.127764 0.390247 0.0886688
670 2 0.149155 0.400806 0.091805
672 4 0.170545 0.411366 0.0949411
1466 4 0.187002 0.415848 0.0850736
518 4 0.381297 0.333984 0.141113
3542 4 0.352702 0.416076 0.088611
607 2 0.458001 0.337041 0.156662
608 4 0.472213 0.348143 0.140317
2471 4 0.492845 0.342676 0.136309
4510 2 0.0139508 0.482797 0.0902093
1589 4 0.0552541 0.488471 0.0883812
303 4 0.104467 0.460409 0.153992
1863 4 0.115092 0.475281 0.148442
1861 2 0.133449 0.485115 0.136017
1862 4 0.151807 0.49495 0.123591
1465 2 0.192824 0.438621 0.0914749
1786 2 0.187269 0.49087 0.117711
1788 4 0.206305 0.477378 0.106295
1467 4 0.198646 0.461394 0.0978763
503 4 0.367397 0.496616 0.122901
1742 4 0.371677 0.422671 0.0840513
1440 4 0.357166 0.443446 0.103075
1438 2 0.356814 0.468321 0.104441
1439 4 0.356462 0.493195 0.105807
1741 2 0.395765 0.427152 0.08581
1743 4 0.419853 0.431633 0.0875687
2919 4 0.417623 0.478545 0.154927
2917 2 0.395051 0.479772 0.165868
2094 4 0.430255 0.472313 0.139045
2092 2 0.430505 0.454958 0.121107
2093 4 0.430755 0.437603 0.10317
177 3 0.0247541 0.0318686 0.176585
179 3 0.0153155 0.0290735 0.212784
176 1 0.0323987 0.0245121 0.197256
180 3 0.0384753 0.00208195 0.196339
178 3 0.0508006 0.0356501 0.203044
2573 4 0.0708152 0.0316539 0.199683
2572 2 0.0953348 0.0340872 0.202145
2574 4 0.119854 0.0365206 0.204606
1506 4 0.133351 0.0501957 0.198696
2732 4 0.152217 0.0177405 0.221433
1504 2 0.154568 0.0539168 0.186644
2547 4 0.169549 0.020904 0.229123
1505 4 0.175786 0.0576379 0.174593
2545 2 0.192738 0.0277495 0.232018
255 4 0.191716 0.0640315 0.182623
253 2 0.211929 0.076097 0.178061
2546 4 0.215927 0.034595 0.234913
3722 4 0.237101 0.032648 0.232241
3721 2 0.260552 0.0390956 0.233983
3723 4 0.284002 0.0455432 0.235725
123 3 0.295983 0.057576 0.246177
3698 4 0.306218 0.0111519 0.244475
121 1 0.313447 0.040796 0.248939
125 3 0.312539 0.0250403 0.232683
124 3 0.333915 0.049797 0.248043
2855 4 0.35247 0.0562609 0.243955
690 4 0.349869 0.0319107 0.176895
2854 2 0.364251 0.0691265 0.226959
688 2 0.372152 0.0410985 0.175325
2856 4 0.376033 0.081992 0.209962
689 4 0.394435 0.0502863 0.173756
2453 4 0.143272 0.150342 0.202097
591 4 0.160875 0.148146 0.214688
589 2 0.154153 0.158619 0.236672
2452 2 0.151997 0.159964 0.18115
254 4 0.232142 0.0881626 0.173499
2788 2 0.295996 0.166355 0.17147
732 4 0.347123 0.163514 0.190666
730 2 0.353566 0.163797 0.214816
731 4 0.360009 0.164081 0.238966
2693 4 0.389255 0.0944109 0.20516
2692 2 0.406464 0.104302 0.219166
2694 4 0.423673 0.114193 0.233173
459 4 0.490973 0.155452 0.185007
749 4 0.47537 0.157662 0.170204
2476 2 0.000694291 0.209716 0.216476
2478 4 0.023636 0.211499 0.225828
2778 4 0.0438256 0.204278 0.229903
2591 4 0.0172327 0.242296 0.247677
2776 2 0.0651402 0.198338 0.242573
2789 4 0.28185 0.186238 0.180527
2673 4 0.267286 0.187466 0.167687
581 4 0.365759 0.166548 0.181217
387 4 0.34768 0.221391 0.195392
385 2 0.365678 0.224982 0.211984
750 4 0.42839 0.179882 0.172128
580 2 0.389871 0.167057 0.17481
606 4 0.377374 0.172522 0.24143
386 4 0.383677 0.228572 0.228576
276 4 0.402996 0.233597 0.228507
274 2 0.426668 0.229369 0.236678
748 2 0.45188 0.168772 0.171166
275 4 0.45034 0.22514 0.24485
496 2 0.481773 0.249229 0.241215
1055 4 0.0564035 0.324646 0.213577
2540 4 0.0748387 0.32229 0.214
2539 2 0.0994145 0.323876 0.217297
2541 4 0.12399 0.325462 0.220594
3989 4 0.230671 0.329987 0.188995
733 2 0.352224 0.324164 0.168487
735 4 0.341025 0.321731 0.190586
290 4 0.421853 0.298333 0.240109
609 4 0.44379 0.325939 0.173007
289 2 0.445211 0.304978 0.242094
291 4 0.468569 0.311622 0.24408
2556 4 0.0252044 0.412659 0.231187
1056 4 0.0337374 0.357229 0.180981
2705 4 0.0326496 0.375625 0.174562
1054 2 0.0450704 0.340938 0.197279
2554 2 0.0471208 0.398496 0.233259
2555 4 0.0690371 0.384332 0.235331
4212 4 0.183839 0.40756 0.173571
2861 4 0.200947 0.391786 0.211562
2860 2 0.208263 0.392517 0.235437
3990 4 0.211175 0.375334 0.203843
3988 2 0.220923 0.352661 0.196419
3695 4 0.345858 0.338121 0.200039
3694 2 0.358525 0.348117 0.218437
1423 2 0.379617 0.412613 0.209105
3696 4 0.371193 0.358114 0.236834
1424 4 0.402866 0.407761 0.21824
1437 4 0.420256 0.395803 0.222744
3602 4 0.386497 0.362931 0.246329
1425 4 0.356368 0.417465 0.19997
1435 2 0.434763 0.41264 0.231664
338 4 0.0185778 0.425966 0.217357
3704 4 0.0116369 0.486067 0.195764
1157 4 0.0282645 0.493029 0.186672
302 4 0.0878868 0.483495 0.195992
301 2 0.0961768 0.471952 0.174992
361 2 0.109414 0.456752 0.239644
362 4 0.115344 0.454773 0.215387
315 4 0.133895 0.459337 0.208101
313 2 0.144383 0.480452 0.203562
4210 2 0.204818 0.418039 0.179066
4211 4 0.225797 0.428518 0.184562
1665 4 0.238997 0.43984 0.178582
1664 4 0.242487 0.489105 0.180275
1663 2 0.240742 0.464473 0.179428
681 4 0.349227 0.4663 0.224999
678 4 0.341665 0.430767 0.189671
676 2 0.347162 0.453921 0.184377
677 4 0.352659 0.477075 0.179082
2918 4 0.37248 0.481 0.17681
679 2 0.357283 0.454903 0.246152
1436 4 0.449269 0.429477 0.240585
645 4 0.463623 0.435109 0.228537
643 2 0.481278 0.441463 0.244357
2867 4 0.00234277 0.000377094 0.282073
127 3 0.0138706 0.0151877 0.287896
126 1 0.0342473 0.0103579 0.277405
128 3 0.038775 0.0286312 0.264594
129 3 0.0507963 0.00599483 0.293521
3876 4 0.26481 0.00678894 0.296555
3874 2 0.282945 0.0106019 0.28019
3875 4 0.30108 0.0144149 0.263826
122 3 0.311341 0.0309983 0.269521
2579 4 0.368811 0.0533189 0.256966
2580 4 0.411985 0.0399622 0.280879
2578 2 0.390398 0.0466405 0.268922
2891 4 0.429678 0.0395664 0.290067
2890 2 0.447655 0.0536447 0.297224
401 4 0.482333 0.0775161 0.310001
2892 4 0.465632 0.0677229 0.304381
2940 4 0.130294 0.160968 0.264269
2945 4 0.247344 0.124988 0.306651
2944 2 0.253767 0.109494 0.287641
1032 4 0.26044 0.137445 0.314447
2946 4 0.260189 0.0940012 0.26863
2850 4 0.278625 0.0856422 0.26529
1030 2 0.280948 0.149339 0.310853
2848 2 0.301997 0.0907662 0.270622
1031 4 0.301457 0.161234 0.307259
1272 4 0.328251 0.112036 0.286654
2849 4 0.32537 0.0958903 0.275953
1270 2 0.351754 0.11835 0.284974
1271 4 0.375258 0.124665 0.283295
511 2 0.405338 0.127846 0.27019
513 4 0.389179 0.136733 0.287883
512 4 0.421496 0.118959 0.252497
2777 4 0.0864548 0.192399 0.255244
2939 4 0.0907785 0.193639 0.275194
2938 2 0.110536 0.177304 0.269731
612 4 0.116293 0.24717 0.278368
413 4 0.135499 0.240532 0.281802
590 4 0.147431 0.169093 0.258655
604 2 0.388953 0.189814 0.253641
28 3 0.393189 0.227394 0.300016
605 4 0.400532 0.207105 0.265851
29 3 0.416701 0.203803 0.279029
30 3 0.415975 0.200116 0.316484
26 1 0.414046 0.21503 0.299278
546 4 0.436245 0.19981 0.318115
27 3 0.430508 0.229355 0.301212
497 4 0.464484 0.237537 0.253372
545 4 0.483539 0.182334 0.329109
531 4 0.488587 0.195875 0.315933
544 2 0.459892 0.191072 0.323612
2590 2 0.0353104 0.253059 0.259614
2592 4 0.0533881 0.263821 0.27155
611 4 0.0700969 0.271291 0.277005
610 2 0.093195 0.25923 0.277687
412 2 0.150139 0.25797 0.274546
414 4 0.164779 0.275409 0.267289
3632 4 0.175364 0.325615 0.305262
2494 2 0.0184085 0.35041 0.320253
2495 4 0.0429696 0.352862 0.322208
366 4 0.0579136 0.357706 0.309733
364 2 0.0828814 0.355022 0.306921
2873 4 0.11268 0.405526 0.312171
365 4 0.107849 0.352337 0.304108
2872 2 0.0965805 0.410481 0.331069
3633 4 0.129116 0.349597 0.303622
2597 4 0.132551 0.397235 0.315089
2596 2 0.156862 0.394128 0.308801
3631 2 0.15224 0.337606 0.304442
2598 4 0.181172 0.39102 0.302514
1802 4 0.200917 0.390058 0.30843
2862 4 0.215578 0.393249 0.259313
1801 2 0.216526 0.390867 0.288978
1803 4 0.232136 0.391676 0.269527
3601 2 0.402923 0.376596 0.257369
3603 4 0.41935 0.390261 0.268408
753 4 0.436616 0.396607 0.276744
751 2 0.456965 0.407283 0.283992
263 4 0.111921 0.464724 0.281388
363 4 0.103484 0.45873 0.263901
262 2 0.131177 0.478574 0.284096
1386 4 0.172353 0.464053 0.276339
264 4 0.150433 0.492423 0.286805
1384 2 0.196152 0.456998 0.28283
1385 4 0.21995 0.449942 0.289321
500 4 0.24003 0.44742 0.291477
499 2 0.26399 0.452543 0.291243
2532 4 0.329152 0.425703 0.333356
501 4 0.28795 0.457665 0.291009
231 4 0.305461 0.465476 0.290027
229 2 0.322222 0.481084 0.296803
230 4 0.338983 0.496691 0.30358
3885 4 0.34796 0.428708 0.328618
3883 2 0.356342 0.438454 0.307579
680 4 0.365339 0.443506 0.267305
3884 4 0.364724 0.4482 0.286539
1659 4 0.358952 0.498088 0.303133
752 4 0.477314 0.417959 0.29124
4 3 0.486916 0.431329 0.301416
644 4 0.498933 0.447816 0.260178
1057 2 0.137957 0.0819694 0.400099
1058 4 0.114177 0.0811539 0.392673
2641 2 0.201234 0.0857141 0.407293
2643 4 0.179665 0.077241 0.400156
1059 4 0.161737 0.0827848 0.407525
708 4 0.357034 0.0703692 0.416154
617 4 0.376592 0.0750234 0.414331
616 2 0.399283 0.0820171 0.408932
2869 2 0.0139521 0.103531 0.378253
2871 4 0.0347542 0.0990908 0.392074
1524 4 0.0536273 0.0922649 0.390695
1522 2 0.0780428 0.0949323 0.393671
1523 4 0.102458 0.0975998 0.396647
2821 2 0.0877177 0.164667 0.412089
2642 4 0.222802 0.0941873 0.41443
480 4 0.24144 0.0971526 0.408774
478 2 0.262672 0.105439 0.417134
618 4 0.421975 0.0890108 0.403532
1395 4 0.441071 0.0962043 0.399677
1190 4 0.496896 0.13427 0.404129
1394 4 0.480736 0.122602 0.403454
1393 2 0.460903 0.109403 0.401565
763 2 0.0189749 0.229806 0.391252
764 4 0.0414111 0.237282 0.385612
2802 4 0.0609746 0.227446 0.386259
2800 2 0.078557 0.218435 0.402559
2823 4 0.109108 0.169156 0.400771
2543 4 0.126766 0.178058 0.40476
2542 2 0.149514 0.186065 0.402204
2544 4 0.172262 0.194072 0.399649
2765 4 0.120132 0.251373 0.377693
2766 4 0.0822055 0.271472 0.349289
2764 2 0.101169 0.261423 0.363491
510 4 0.186146 0.28357 0.396155
508 2 0.20849 0.292696 0.397177
717 4 0.243942 0.314231 0.398406
509 4 0.230834 0.301822 0.398199
715 2 0.258631 0.329058 0.410399
305 4 0.464569 0.309975 0.402988
304 2 0.448667 0.296969 0.415642
2700 4 0.0197534 0.362531 0.380885
2904 4 0.0327949 0.372599 0.369568
2902 2 0.0495896 0.388204 0.362875
2903 4 0.0663842 0.403808 0.356181
2874 4 0.080481 0.415436 0.349967
1433 4 0.263835 0.406184 0.340213
1434 4 0.219804 0.386555 0.340245
1432 2 0.241819 0.396369 0.340229
2531 4 0.283127 0.410354 0.335153
1758 4 0.00887899 0.454673 0.333995
1756 2 0.0281673 0.467453 0.340234
1757 4 0.0474557 0.480232 0.346472
1452 4 0.0600237 0.492884 0.342524
2587 2 0.196849 0.438228 0.413624
2588 4 0.211765 0.42811 0.395473
3582 4 0.231855 0.427559 0.391368
3580 2 0.238089 0.448053 0.379682
549 4 0.262422 0.467077 0.374804
3581 4 0.244324 0.468548 0.367997
2530 2 0.30614 0.418029 0.334254
547 2 0.285384 0.473272 0.380344
548 4 0.308346 0.479468 0.385884
1183 2 0.136443 0.00530854 0.421571
1184 4 0.160132 0.0111592 0.420256
2114 4 0.180571 0.0117733 0.422343
2113 2 0.202864 0.0209747 0.421044
2115 4 0.225157 0.0301761 0.419745
1127 4 0.292361 0.0431307 0.417921
1126 2 0.268079 0.0391751 0.418654
1128 4 0.243797 0.0352194 0.419388
2315 4 0.291296 0.0760315 0.470506
706 2 0.334607 0.0614193 0.417242
707 4 0.31218 0.0524694 0.41833
2505 4 0.0505922 0.149015 0.423818
2503 2 0.0269293 0.142989 0.424084
2504 4 0.00326653 0.136963 0.42435
762 4 0.0122965 0.0871404 0.458223
760 2 0.0342069 0.0913032 0.468681
761 4 0.0561173 0.095466 0.479139
2822 4 0.0663275 0.160179 0.423407
3173 4 0.0749078 0.0992702 0.47448
3172 2 0.0940428 0.111586 0.466817
3174 4 0.113178 0.123902 0.459155
2901 4 0.13394 0.127264 0.458834
2899 2 0.154847 0.124109 0.472662
2900 4 0.175753 0.120954 0.486491
1152 4 0.196299 0.122207 0.486481
1150 2 0.221128 0.117091 0.483714
1151 4 0.245957 0.111975 0.480947
2316 4 0.255745 0.103493 0.496397
2314 2 0.273521 0.089762 0.483452
479 4 0.283903 0.113725 0.425495
470 4 0.286904 0.127481 0.44029
469 2 0.310699 0.127126 0.432509
471 4 0.334494 0.12677 0.424727
2801 4 0.0961393 0.209424 0.41886
3080 4 0.0899696 0.216487 0.488777
2484 4 0.0877894 0.196828 0.484555
2483 4 0.0852268 0.20465 0.435196
2482 2 0.0865081 0.200739 0.459876
2241 4 0.158119 0.189123 0.452502
2239 2 0.161903 0.193984 0.476654
2811 4 0.237223 0.240529 0.496915
2603 4 0.407607 0.238441 0.486655
2602 2 0.388132 0.231731 0.499856
890 4 0.0242621 0.328489 0.496046
267 4 0.00701187 0.321818 0.498836
813 4 0.0754592 0.308594 0.415679
811 2 0.0961301 0.313107 0.428275
812 4 0.116801 0.31762 0.440871
443 4 0.314114 0.290218 0.489833
442 2 0.313916 0.31464 0.484967
312 4 0.326361 0.276042 0.480509
310 2 0.349911 0.269188 0.473067
311 4 0.373461 0.262333 0.465624
3059 4 0.386858 0.268525 0.454187
3058 2 0.409827 0.266078 0.444049
3060 4 0.432797 0.263631 0.433911
306 4 0.432766 0.283963 0.428295
2511 4 0.0053639 0.356526 0.428545
889 2 0.0459187 0.338956 0.496477
1239 4 0.0860765 0.340036 0.487467
1237 2 0.111014 0.336909 0.484465
891 4 0.0675753 0.349423 0.496908
1029 4 0.121162 0.413913 0.476919
804 4 0.156655 0.336908 0.484874
1238 4 0.135952 0.333783 0.481462
802 2 0.180604 0.340811 0.489066
1027 2 0.143017 0.399539 0.478209
1028 4 0.164872 0.385165 0.479499
1172 4 0.171885 0.390322 0.497427
1171 2 0.196099 0.394566 0.497027
803 4 0.204553 0.344714 0.493259
716 4 0.273321 0.343884 0.422392
1173 4 0.220312 0.398811 0.496627
444 4 0.313718 0.339063 0.480101
3045 4 0.330755 0.343951 0.488991
3043 2 0.348264 0.359708 0.492549
3044 4 0.365773 0.375466 0.496107
2561 4 0.393259 0.352158 0.448196
2562 4 0.407326 0.39747 0.438113
2560 2 0.400292 0.374814 0.443154
594 4 0.415197 0.413134 0.432683
892 2 0.107312 0.493931 0.449282
570 4 0.0477587 0.434116 0.444125
568 2 0.0639129 0.451573 0.444204
569 4 0.0800671 0.469031 0.444284
894 4 0.0996624 0.471517 0.444285
2648 4 0.188692 0.467512 0.429073
2589 4 0.181933 0.448346 0.431775
2647 2 0.200179 0.484016 0.442497
601 2 0.226025 0.44147 0.484271
602 4 0.241189 0.431118 0.466427
3318 4 0.261202 0.425507 0.463857
3316 2 0.276759 0.439202 0.451563
3317 4 0.292316 0.452896 0.439269
3962 4 0.310849 0.459092 0.438543
3961 2 0.335457 0.460297 0.442037
1698 4 0.386144 0.490713 0.451759
1696 2 0.408541 0.48824 0.463093
3963 4 0.360066 0.461502 0.445531
592 2 0.426611 0.418869 0.453862
4178 4 0.469928 0.466025 0.477811
4177 2 0.484121 0.455278 0.459437
593 4 0.438025 0.424605 0.475042
1697 4 0.430938 0.485768 0.474427
4179 4 0.498313 0.444531 0.441063
3325 2 0.0239306 0.0635614 0.525782
3180 4 0.0381843 0.0290368 0.574747
3327 4 0.0477898 0.066758 0.520273
3178 2 0.0443679 0.0175515 0.553116
3179 4 0.0505516 0.0060663 0.531485
2460 4 0.0658486 0.00925342 0.518069
944 4 0.069061 0.0704922 0.524223
3395 4 0.0521275 0.0375816 0.583063
3326 4 7.13514e-05 0.0603648 0.531291
2458 2 0.0885949 0.0128397 0.50921
943 2 0.0932017 0.074802 0.52591
1181 4 0.125172 0.026915 0.507118
1180 2 0.145769 0.0375691 0.513632
945 4 0.117342 0.0791118 0.527596
3033 4 0.137946 0.0784298 0.529151
2459 4 0.111341 0.016426 0.500351
1182 4 0.166365 0.0482232 0.520147
3022 2 0.21572 0.00820165 0.57246
3024 4 0.235822 0.0071683 0.557487
2996 4 0.252136 0.0155034 0.551865
2995 2 0.273445 0.0264397 0.549941
2997 4 0.294754 0.037376 0.548017
3309 4 0.309793 0.0505828 0.549883
3307 2 0.331904 0.042986 0.560446
3308 4 0.354015 0.0353892 0.57101
1262 4 0.359146 0.0166606 0.56407
3031 2 0.161125 0.0853785 0.531782
3032 4 0.184305 0.0923272 0.534413
2501 4 0.202789 0.0980718 0.539238
2500 2 0.22673 0.0985916 0.546254
2502 4 0.250672 0.0991115 0.553269
1142 4 0.268969 0.10297 0.561433
1141 2 0.293022 0.103903 0.567857
1143 4 0.317075 0.104835 0.574281
917 4 0.3368 0.107903 0.577162
916 2 0.361565 0.109075 0.579333
918 4 0.386329 0.110247 0.581504
3079 2 0.107582 0.219105 0.506064
3081 4 0.125194 0.221724 0.523352
3498 4 0.135446 0.235935 0.514389
3496 2 0.160051 0.237819 0.511766
1075 2 0.169789 0.227875 0.583121
2240 4 0.165687 0.198846 0.500806
3497 4 0.184657 0.239703 0.509142
1076 4 0.145962 0.222661 0.580851
2809 2 0.214532 0.249141 0.505546
2812 2 0.307279 0.197252 0.556746
2814 4 0.302236 0.199202 0.532295
2963 4 0.30694 0.20351 0.513778
2962 2 0.328705 0.212956 0.509279
2964 4 0.35047 0.222403 0.504781
2604 4 0.368656 0.225021 0.513057
2813 4 0.312322 0.195303 0.581198
1211 4 0.487506 0.213037 0.563863
2810 4 0.191842 0.257752 0.514177
142 3 0.269841 0.271221 0.580979
3266 4 0.249783 0.268515 0.585387
145 3 0.300362 0.282806 0.565006
3236 4 0.319027 0.282424 0.557653
3235 2 0.340569 0.292988 0.555954
3237 4 0.362112 0.303552 0.554255
935 4 0.477154 0.2888 0.581004
934 2 0.486068 0.279958 0.559038
936 4 0.494983 0.271116 0.537072
406 2 0.238827 0.359185 0.511165
2108 4 0.256557 0.396826 0.519591
407 4 0.262088 0.362175 0.518989
2549 4 0.279266 0.370813 0.523447
408 4 0.215567 0.356196 0.503342
2107 2 0.273411 0.411085 0.510224
2548 2 0.290887 0.360051 0.543401
2550 4 0.302507 0.349289 0.563356
3454 2 0.378108 0.406732 0.519545
3456 4 0.377777 0.388754 0.502299
1161 4 0.00632683 0.437275 0.511645
1160 4 0.0226527 0.475357 0.537045
1159 2 0.0144898 0.456316 0.524345
2172 4 0.0416553 0.482081 0.537423
603 4 0.210862 0.451822 0.502115
4538 4 0.32425 0.49749 0.55665
879 4 0.323802 0.426964 0.572931
2109 4 0.290264 0.425344 0.500856
4537 2 0.307118 0.488405 0.571387
877 2 0.341308 0.428442 0.555286
878 4 0.358814 0.42992 0.537641
3455 4 0.37844 0.42471 0.536792
4130 4 0.444962 0.472759 0.550081
3072 4 0.488008 0.431102 0.528591
4129 2 0.450324 0.492624 0.536793
3394 2 0.0577725 0.0580228 0.595238
3396 4 0.0634174 0.078464 0.607413
3023 4 0.195618 0.009235 0.587432
3028 2 0.0572485 0.0953929 0.639172
3029 4 0.0443422 0.0971707 0.66062
3030 4 0.0701547 0.0936151 0.617725
1130 4 0.403221 0.117541 0.588123
1129 2 0.426343 0.123776 0.592863
1131 4 0.449464 0.130012 0.597603
858 4 0.464762 0.137694 0.608448
856 2 0.488038 0.144731 0.607628
1283 4 0.010664 0.205029 0.59174
1282 2 0.034649 0.209618 0.594314
1107 4 0.127219 0.219984 0.588521
1284 4 0.058634 0.214208 0.596887
1106 4 0.0781211 0.214352 0.590194
1105 2 0.10267 0.217168 0.589358
1077 4 0.193616 0.233089 0.585391
3267 4 0.207003 0.246677 0.586833
3110 4 0.315771 0.20984 0.595835
3109 2 0.319369 0.233968 0.598468
3439 2 0.357643 0.247322 0.664044
3440 4 0.382318 0.24074 0.666284
3265 2 0.228393 0.257596 0.58611
905 4 0.211134 0.298875 0.663149
3355 2 0.242791 0.29676 0.660416
3356 4 0.261769 0.280409 0.652864
141 1 0.289333 0.281012 0.58475
143 3 0.283897 0.302072 0.593905
2626 2 0.297418 0.269521 0.657873
144 3 0.302699 0.26777 0.599515
2628 4 0.320149 0.263463 0.647925
3111 4 0.322967 0.258095 0.6011
3441 4 0.332968 0.253904 0.661805
3383 4 0.345142 0.259873 0.605645
3382 2 0.365289 0.271462 0.611724
3384 4 0.385436 0.283052 0.617803
3107 4 0.399706 0.282141 0.631152
3106 2 0.424141 0.274035 0.629976
3163 2 0.489012 0.271879 0.647122
3108 4 0.448575 0.265928 0.628801
3165 4 0.465881 0.269119 0.638776
1041 4 0.325623 0.413517 0.586383
1039 2 0.312769 0.396073 0.596764
1040 4 0.299915 0.378629 0.607146
2721 4 0.369196 0.350178 0.613911
2719 2 0.387882 0.36388 0.60798
2720 4 0.406569 0.377582 0.602048
3447 4 0.425657 0.381242 0.602241
3445 2 0.449877 0.374819 0.607532
3446 4 0.474097 0.368397 0.612823
3353 4 0.473352 0.364007 0.632065
3352 2 0.497102 0.353533 0.63177
3491 4 0.272529 0.429399 0.617632
3490 2 0.285355 0.446754 0.607051
4539 4 0.289985 0.47932 0.586124
3492 4 0.29818 0.464109 0.596469
3113 4 0.463971 0.457533 0.654613
3112 2 0.483424 0.461488 0.63993
998 4 0.458873 0.438812 0.656154
1024 2 0.0133107 0.0785173 0.680261
1025 4 0.034076 0.0821725 0.667404
269 4 0.158336 0.0361166 0.675882
268 2 0.18246 0.0405899 0.674687
270 4 0.206584 0.0450632 0.673492
4074 4 0.222074 0.0548546 0.681182
2282 4 0.210879 0.0039356 0.742633
4072 2 0.239224 0.0350277 0.682604
4073 4 0.256374 0.0152007 0.684027
1023 4 0.446545 0.0509034 0.730202
1021 2 0.461986 0.0521326 0.710671
1022 4 0.477426 0.0533618 0.69114
2256 4 0.492289 0.0613934 0.702036
3009 4 0.0427118 0.132159 0.737273
3007 2 0.0642424 0.136655 0.726236
3008 4 0.0857731 0.141151 0.715198
3126 4 0.100855 0.131121 0.726164
3124 2 0.124383 0.137215 0.723832
3125 4 0.147911 0.14331 0.7215
4371 4 0.160057 0.145213 0.704761
4369 2 0.184902 0.142427 0.708492
4370 4 0.209747 0.13964 0.712223
3062 4 0.216494 0.125697 0.699083
3061 2 0.240293 0.131326 0.69911
3063 4 0.264092 0.136955 0.699137
3168 4 0.359027 0.157493 0.726349
3002 4 0.366732 0.167239 0.711428
1971 4 0.400318 0.0877004 0.715896
2321 4 0.404185 0.0904554 0.735357
1970 4 0.39028 0.100604 0.66838
1969 2 0.395299 0.0941523 0.692138
2320 2 0.426782 0.097729 0.74067
2322 4 0.44938 0.105003 0.745983
965 4 0.454681 0.11523 0.728867
964 2 0.470339 0.128746 0.71649
966 4 0.485997 0.142262 0.704112
737 4 0.0331458 0.223737 0.746727
2981 4 0.0462718 0.228506 0.73216
2980 2 0.0687568 0.218921 0.74052
2982 4 0.0912418 0.209335 0.748881
1011 4 0.248929 0.208357 0.7461
3402 4 0.261726 0.205458 0.731501
3400 2 0.286014 0.197059 0.729307
3166 2 0.338254 0.169827 0.735904
3167 4 0.317482 0.182161 0.745458
3401 4 0.310302 0.18866 0.727112
3001 2 0.389192 0.175474 0.707524
896 4 0.396412 0.241162 0.681088
3003 4 0.411653 0.183708 0.70362
2174 4 0.425866 0.17016 0.696005
2173 2 0.445837 0.179113 0.685534
2175 4 0.465808 0.188067 0.675064
3240 4 0.483364 0.179837 0.681458
1307 4 0.0190824 0.28886 0.736999
3221 4 0.00803668 0.263693 0.667025
1299 4 0.000173787 0.288023 0.744079
906 4 0.162403 0.2933 0.669493
904 2 0.186769 0.296088 0.666321
3357 4 0.223813 0.313112 0.667968
2627 4 0.274688 0.275579 0.667822
895 2 0.414717 0.256306 0.682841
897 4 0.433021 0.271451 0.684593
1085 4 0.439218 0.281161 0.699839
923 4 0.395722 0.336355 0.746146
1084 2 0.455078 0.297346 0.692241
1086 4 0.470938 0.313531 0.684643
3093 4 0.487117 0.320788 0.693156
4092 4 0.0190494 0.484428 0.69624
2141 4 0.00309003 0.482678 0.684943
4090 2 0.0424827 0.490726 0.693694
4091 4 0.065916 0.497025 0.691147
1100 4 0.0868394 0.495597 0.688471
4209 4 0.185912 0.443535 0.748601
993 4 0.369702 0.488121 0.679997
991 2 0.388089 0.484263 0.696916
992 4 0.406475 0.480406 0.713836
1017 4 0.434619 0.432344 0.723617
942 4 0.422879 0.486766 0.725405
1015 2 0.439348 0.424428 0.747006
999 4 0.440626 0.435815 0.702498
940 2 0.445875 0.480103 0.734471
997 2 0.44975 0.437314 0.679326
1098 4 0.482624 0.483039 0.73406
941 4 0.46887 0.47344 0.743537
4443 4 0.0412116 0.0645044 0.799427
4441 2 0.0397768 0.0804301 0.780152
2281 2 0.231047 0.00965881 0.755373
2283 4 0.251214 0.015382 0.768112
4580 4 0.265046 0.0282696 0.77173
4579 2 0.288713 0.0340638 0.773663
4581 4 0.31238 0.0398581 0.775596
2036 4 0.331499 0.0350876 0.767639
2035 2 0.353207 0.0204309 0.768412
2037 4 0.374915 0.00577418 0.769186
2348 4 0.387703 0.0118692 0.781665
3042 4 0.0220789 0.150796 0.801941
3282 4 0.00764118 0.138311 0.803343
3040 2 0.0291589 0.144762 0.778557
3280 2 0.00133911 0.140763 0.827478
3041 4 0.0362388 0.138728 0.755172
4442 4 0.0383419 0.0963558 0.760877
3147 4 0.0717923 0.128305 0.773377
3145 2 0.0844546 0.106883 0.780836
3146 4 0.0971169 0.0854623 0.788295
2979 4 0.214333 0.160942 0.813436
3078 4 0.341809 0.157083 0.810811
736 2 0.0139915 0.214872 0.758768
839 4 0.101383 0.191713 0.756606
1092 4 0.102012 0.195641 0.802647
1090 2 0.120233 0.193354 0.819857
838 2 0.121046 0.20434 0.761885
840 4 0.140709 0.216967 0.767163
57 3 0.161584 0.214239 0.768429
56 1 0.177741 0.225045 0.779166
58 3 0.186311 0.211878 0.796841
59 3 0.19475 0.228329 0.764098
2978 4 0.199904 0.201261 0.785742
2977 2 0.207119 0.181101 0.799589
1010 4 0.207358 0.215968 0.77398
60 3 0.168309 0.245113 0.786961
1009 2 0.228143 0.212163 0.76004
3076 2 0.35556 0.174807 0.819183
3077 4 0.369311 0.19253 0.827556
1167 4 0.381415 0.193337 0.811023
1165 2 0.405543 0.191501 0.804058
1166 4 0.42967 0.189665 0.797094
3482 4 0.437306 0.192853 0.778898
1692 4 0.374279 0.250023 0.81313
1690 2 0.395821 0.250667 0.800563
1619 4 0.490495 0.239036 0.806831
3481 2 0.459386 0.200704 0.78528
3483 4 0.481466 0.208555 0.791662
1618 2 0.490123 0.230906 0.830446
3287 4 0.500643 0.209693 0.782414
1042 2 0.00761289 0.258933 0.832225
1043 4 0.00969915 0.283457 0.830444
46 1 0.0138364 0.307866 0.809255
1306 2 0.0312933 0.291972 0.758416
47 3 0.0140229 0.330317 0.813636
48 3 0.0267352 0.302528 0.79036
49 3 0.022811 0.295783 0.827478
1308 4 0.0435041 0.295085 0.779833
3227 4 0.0615718 0.299064 0.784729
3226 2 0.0850584 0.303023 0.778472
3228 4 0.108545 0.306981 0.772215
3036 4 0.125373 0.317073 0.774106
3034 2 0.150042 0.312609 0.769806
3035 4 0.174711 0.308145 0.765505
1073 4 0.193068 0.315471 0.765867
1072 2 0.21212 0.328221 0.772898
3244 2 0.237621 0.329236 0.823619
863 4 0.312657 0.256323 0.820205