ITEM: TIMESTEP
1565500
ITEM: NUMBER OF ATOMS
4590
ITEM: BOX BOUNDS xy xz yz pp pp pp
-9.9985700000000008e+00 1.6197683400000003e+01 6.1991134000000017e+00
-9.9985700000000008e+00 9.9985700000000008e+00 0.0000000000000000e+00
-9.9985700000000008e+00 9.9985700000000008e+00 0.0000000000000000e+00
ITEM: ATOMS id type xs ys zs
3046 2 0.0390392 0.0296205 0.0704357
3047 4 0.0550913 0.0379173 0.0559621
1761 4 0.0646708 0.0519705 0.0605462
1759 2 0.0889191 0.0500402 0.0526639
1760 4 0.113167 0.0481099 0.0447816
2678 4 0.476419 0.0207483 0.0811538
1874 4 0.492126 0.0223972 0.069525
3344 4 0.0101587 0.167153 0.00756139
3343 2 0.035653 0.16501 0.00957923
744 4 0.0933572 0.122362 0.0417826
742 2 0.106739 0.109902 0.0612585
743 4 0.12012 0.0974411 0.0807345
2882 4 0.0780761 0.169708 0.0151787
3259 2 0.297555 0.118727 0.00107172
3261 4 0.315815 0.122613 0.0162774
657 4 0.336539 0.117721 0.0166345
655 2 0.359605 0.121835 0.0126646
656 4 0.382671 0.125948 0.00869466
757 2 0.402066 0.123107 0.0795419
759 4 0.408809 0.144076 0.076362
3233 4 0.386746 0.142772 0.0129082
24 3 0.422245 0.155778 0.0721039
23 3 0.461118 0.137768 0.0755462
2894 4 0.471229 0.118907 0.0699459
2893 2 0.496217 0.118927 0.0706346
3345 4 0.0611472 0.162867 0.0115971
3139 2 0.014344 0.219184 0.0487724
3140 4 0.038074 0.222491 0.0499594
621 4 0.057563 0.224858 0.0523653
619 2 0.0822418 0.223547 0.0465073
2881 2 0.101819 0.172427 0.0115246
620 4 0.106921 0.222237 0.0406494
2883 4 0.125561 0.175146 0.00787041
2966 4 0.125483 0.225766 0.0455119
2965 2 0.150131 0.226464 0.0480541
630 4 0.138541 0.168103 0.0642342
628 2 0.146289 0.184545 0.078014
770 4 0.144688 0.174782 0.0119486
769 2 0.169124 0.175551 0.00798087
2967 4 0.174779 0.227163 0.0505962
3242 4 0.194661 0.2293 0.0502112
3241 2 0.22027 0.226942 0.0510495
3243 4 0.245879 0.224584 0.0518877
3284 4 0.263285 0.231239 0.0521732
3283 2 0.28332 0.238125 0.0614623
3285 4 0.303354 0.245011 0.0707515
2843 4 0.320949 0.23159 0.0631555
2842 2 0.347029 0.225829 0.0644903
2844 4 0.373109 0.220068 0.0658251
359 4 0.38257 0.217698 0.00663847
2784 4 0.392998 0.221292 0.0606622
282 4 0.404148 0.217649 0.011117
2782 2 0.417158 0.21654 0.0700386
280 2 0.424923 0.226278 0.0102003
2783 4 0.441318 0.211788 0.0794149
281 4 0.445697 0.234908 0.00928362
2876 4 0.465668 0.238339 0.0115874
1251 4 0.489101 0.194678 0.0318152
2875 2 0.491148 0.235316 0.00788532
2270 4 0.151835 0.330944 0.00747611
4304 4 0.046416 0.393896 0.0111987
4303 2 0.0615127 0.408232 0.0173491
595 2 0.116893 0.412161 0.0301051
596 4 0.14221 0.403776 0.0238788
1550 4 0.15719 0.413032 0.0242735
597 4 0.0915757 0.420546 0.0363314
902 4 0.0353222 0.464377 0.00262626
901 2 0.0576007 0.46668 0.0121777
4305 4 0.0766094 0.422568 0.0234994
903 4 0.0798793 0.468982 0.0217292
2514 4 0.0944111 0.468513 0.0362553
2512 2 0.114325 0.467182 0.0518469
1549 2 0.170123 0.422002 0.0415303
2513 4 0.13424 0.465852 0.0674385
1551 4 0.183056 0.430972 0.058787
1871 4 0.153027 0.466485 0.0755892
3542 4 0.192025 0.417773 0.0735867
3541 2 0.213144 0.4257 0.076134
3543 4 0.234263 0.433627 0.0786813
1466 4 0.250696 0.418327 0.0688201
3101 4 0.264413 0.450641 0.0259124
3100 2 0.288103 0.450074 0.0174309
3102 4 0.311793 0.449507 0.00894952
2582 4 0.362499 0.490533 0.0832589
2999 4 0.468491 0.482552 0.0661118
2998 2 0.49379 0.481353 0.0645537
3048 4 0.022987 0.0213238 0.0849093
2743 2 0.0686042 0.0101736 0.150315
723 4 0.04416 0.0491697 0.165837
2518 2 0.0774442 0.0607769 0.16149
2519 4 0.0902773 0.0754939 0.151193
3809 4 0.105715 0.0707108 0.136734
2745 4 0.0863628 0.0221689 0.145838
3808 2 0.105307 0.0819437 0.114608
2702 4 0.312677 0.00977178 0.15446
2701 2 0.335059 0.0131234 0.14637
690 4 0.349702 0.0751586 0.141041
2703 4 0.35744 0.016475 0.13828
699 4 0.363086 0.0614951 0.153318
2781 4 0.375666 0.00508008 0.129899
2779 2 0.393758 0.0127725 0.117786
697 2 0.387253 0.0613239 0.146709
698 4 0.411421 0.0611526 0.140101
355 2 0.416581 0.0711616 0.0963619
2780 4 0.41185 0.020465 0.105674
2679 4 0.428867 0.0170257 0.0918585
357 4 0.437976 0.0587611 0.109144
2677 2 0.452643 0.018887 0.0865061
623 4 0.444972 0.0746642 0.118424
356 4 0.395186 0.0835621 0.0835796
622 2 0.466847 0.0811244 0.122077
2515 2 0.0691954 0.116497 0.155769
3810 4 0.1049 0.0931766 0.0924824
2516 4 0.0928749 0.118704 0.150601
333 4 0.0935698 0.13622 0.139546
331 2 0.112904 0.145677 0.133221
2517 4 0.0455159 0.11429 0.160937
332 4 0.132238 0.155134 0.126897
1478 4 0.153087 0.150307 0.13108
1477 2 0.178651 0.144547 0.125925
1479 4 0.204215 0.138786 0.12077
688 2 0.331032 0.0943711 0.150759
3208 2 0.323844 0.162965 0.145211
3210 4 0.335599 0.153794 0.166697
689 4 0.312363 0.113584 0.160476
758 4 0.395323 0.102139 0.0827218
652 2 0.428343 0.165738 0.136742
21 1 0.442242 0.154033 0.084627
22 3 0.438616 0.147957 0.106118
653 4 0.442641 0.163613 0.115894
624 4 0.488721 0.0875846 0.125731
629 4 0.154036 0.200986 0.0917938
3209 4 0.312089 0.172136 0.123725
654 4 0.414046 0.167863 0.157591
25 3 0.44683 0.174078 0.0850344
2975 4 0.451274 0.174411 0.103681
835 2 0.454057 0.226941 0.157357
2974 2 0.463597 0.190948 0.110553
837 4 0.474617 0.234833 0.151563
2976 4 0.475919 0.207486 0.117426
2615 4 0.488064 0.228556 0.136156
836 4 0.433496 0.219048 0.163152
251 4 0.305792 0.3202 0.157883
288 4 0.40756 0.320964 0.158175
295 2 0.439228 0.335747 0.147943
297 4 0.463131 0.335724 0.140582
296 4 0.415325 0.335771 0.155303
2571 4 0.470517 0.348921 0.131792
2569 2 0.493088 0.344391 0.144306
1870 2 0.172096 0.475552 0.083604
1872 4 0.191166 0.484619 0.0916189
314 4 0.209546 0.417377 0.13337
1465 2 0.269482 0.417963 0.0854439
313 2 0.222047 0.434785 0.132035
73 3 0.204346 0.49644 0.0951568
72 3 0.24108 0.47658 0.10428
315 4 0.234548 0.452194 0.130701
4211 4 0.25597 0.44994 0.128543
71 1 0.224677 0.497236 0.105849
4210 2 0.277546 0.45629 0.12302
1467 4 0.288269 0.417599 0.102068
4212 4 0.299122 0.462641 0.117497
3671 4 0.305019 0.469828 0.100024
3670 2 0.324808 0.478932 0.0944576
3672 4 0.344598 0.488036 0.0888912
2581 2 0.382612 0.498767 0.0898702
2913 4 0.464984 0.470582 0.0822589
2911 2 0.44316 0.484081 0.0937395
721 2 0.0193833 0.0491941 0.169255
2520 4 0.0646112 0.0460599 0.171786
1506 4 0.134805 0.0605403 0.213039
2694 4 0.124314 0.0550195 0.226904
2692 2 0.121255 0.0460672 0.249509
1504 2 0.158732 0.0598627 0.205148
1505 4 0.182658 0.0591851 0.197257
255 4 0.202003 0.0532394 0.201853
253 2 0.227622 0.0495271 0.205418
254 4 0.253241 0.0458147 0.208984
632 4 0.271192 0.0500868 0.213504
631 2 0.290166 0.0611739 0.213395
633 4 0.30914 0.072261 0.213287
2879 4 0.326647 0.0692011 0.203319
2878 2 0.350668 0.0713634 0.206613
2880 4 0.374689 0.0735258 0.209907
420 4 0.394433 0.0744683 0.209434
418 2 0.414769 0.0837241 0.210461
2477 4 0.0275356 0.125072 0.17095
2476 2 0.00785444 0.119287 0.182376
687 4 0.103802 0.146136 0.213723
685 2 0.129447 0.13587 0.217621
686 4 0.155093 0.125603 0.22152
3678 4 0.165461 0.131704 0.206665
3676 2 0.185237 0.141545 0.209359
2572 2 0.192724 0.0902152 0.24095
2573 4 0.211009 0.0966756 0.227841
1190 4 0.187545 0.172086 0.248233
3677 4 0.205014 0.151386 0.212054
178 3 0.228193 0.102632 0.227489
179 3 0.223858 0.138362 0.216429
176 1 0.239761 0.117433 0.219852
180 3 0.251205 0.109714 0.200432
177 3 0.255748 0.119228 0.235734
1748 4 0.271706 0.100165 0.205118
405 4 0.270061 0.147191 0.24619
1747 2 0.288838 0.108401 0.192085
1749 4 0.30597 0.116636 0.179051
403 2 0.281956 0.165033 0.244418
557 4 0.356054 0.146745 0.167358
419 4 0.435104 0.0929798 0.211489
556 2 0.377848 0.15381 0.167492
29 3 0.380772 0.117212 0.246287
605 4 0.396604 0.123082 0.236997
2180 4 0.433602 0.143676 0.205334
604 2 0.414206 0.131819 0.248673
2837 4 0.454561 0.090731 0.210525
558 4 0.399642 0.160876 0.167626
2179 2 0.451558 0.1559 0.203634
2836 2 0.466703 0.100999 0.227404
2838 4 0.478845 0.111266 0.244283
457 2 0.00547935 0.193492 0.196612
458 4 0.0293249 0.190994 0.205921
237 4 0.0489106 0.190823 0.200518
235 2 0.0702398 0.19106 0.213444
236 4 0.091569 0.191297 0.226369
579 4 0.111999 0.189779 0.224472
577 2 0.137644 0.187206 0.223378
578 4 0.163288 0.184633 0.222283
387 4 0.182318 0.182371 0.214264
385 2 0.2053 0.185525 0.207849
386 4 0.228283 0.18868 0.201435
276 4 0.248213 0.18956 0.203098
274 2 0.269953 0.194374 0.195205
275 4 0.291692 0.199188 0.187312
404 4 0.293852 0.182876 0.242647
497 4 0.298328 0.214201 0.179938
496 2 0.323026 0.21408 0.175814
591 4 0.315703 0.179612 0.243378
589 2 0.335946 0.185178 0.253942
498 4 0.347725 0.213958 0.17169
507 4 0.369146 0.21115 0.171084
505 2 0.390948 0.218013 0.168752
506 4 0.41275 0.224877 0.166419
2788 2 0.504204 0.183047 0.210643
2790 4 0.483052 0.178692 0.200651
2181 4 0.469514 0.168125 0.201934
2904 4 0.221177 0.270238 0.248276
2541 4 0.274515 0.292465 0.245234
250 2 0.32816 0.315116 0.170807
252 4 0.350528 0.310031 0.183731
287 4 0.362059 0.322118 0.179656
286 2 0.384809 0.321541 0.168915
755 4 0.400982 0.265326 0.227103
476 4 0.41094 0.255451 0.243609
754 2 0.410416 0.273619 0.206799
756 4 0.419851 0.281913 0.186494
2799 4 0.43699 0.281682 0.197594
2797 2 0.457006 0.290441 0.203233
2754 4 0.49384 0.286555 0.219449
2798 4 0.477021 0.2992 0.208871
3404 4 0.276341 0.405139 0.195436
3403 2 0.296858 0.39413 0.180895
734 4 0.331837 0.3734 0.179285
3405 4 0.317375 0.383121 0.166355
733 2 0.355951 0.375731 0.177584
1436 4 0.318096 0.417833 0.207915
735 4 0.380065 0.378062 0.175883
3450 4 0.464567 0.352997 0.223164
3448 2 0.477091 0.365984 0.236676
1803 4 0.0094341 0.448406 0.243556
1158 4 0.0249289 0.455026 0.238431
1156 2 0.0436892 0.464526 0.24642
231 4 0.197895 0.472924 0.232293
4368 4 0.202218 0.489018 0.225348
4366 2 0.219386 0.48533 0.206512
4367 4 0.236553 0.481643 0.187676
1382 4 0.257672 0.475068 0.192596
1381 2 0.276663 0.474804 0.208953
645 4 0.304977 0.419482 0.223964
1383 4 0.295655 0.47454 0.22531
2805 4 0.314247 0.478868 0.222979
1435 2 0.337822 0.427539 0.204158
643 2 0.299701 0.427398 0.247513
2803 2 0.326212 0.495085 0.214409
1437 4 0.357548 0.437245 0.200401
681 4 0.372244 0.444461 0.210053
679 2 0.390187 0.440911 0.228188
680 4 0.408131 0.437362 0.246323
363 4 0.416443 0.452216 0.251232
361 2 0.436329 0.462094 0.250231
362 4 0.456215 0.471972 0.24923
1185 4 0.0248492 0.00524338 0.317686
2693 4 0.118195 0.0371148 0.272114
2574 4 0.174439 0.0837548 0.25406
512 4 0.163308 0.0722986 0.261378
511 2 0.178478 0.0580662 0.278896
513 4 0.193648 0.0438337 0.296414
3927 4 0.178803 0.00231042 0.280702
1271 4 0.208099 0.0522099 0.292762
3699 4 0.195781 0.00940648 0.277419
1270 2 0.232966 0.048111 0.299945
1272 4 0.257833 0.044012 0.307129
4307 4 0.274272 0.0497085 0.308078
4306 2 0.28135 0.0685575 0.297932
28 3 0.393183 0.0804693 0.255949
258 4 0.410065 0.0140922 0.284463
1376 4 0.0844166 0.0978181 0.327539
2870 4 0.10432 0.0905017 0.330745
2869 2 0.129878 0.0884299 0.331009
1524 4 0.174991 0.0830131 0.323619
1189 2 0.196471 0.152771 0.263837
2871 4 0.155436 0.0863582 0.331273
1522 2 0.193671 0.0919034 0.332927
4308 4 0.288428 0.0874065 0.287787
249 4 0.261267 0.131374 0.249535
1191 4 0.205398 0.133457 0.279441
650 4 0.216994 0.13979 0.294024
649 2 0.236157 0.142834 0.308572
651 4 0.25532 0.145878 0.32312
247 2 0.277406 0.118186 0.267028
3159 4 0.273038 0.147768 0.31654
248 4 0.293546 0.104998 0.284522
27 3 0.354796 0.0980913 0.251697
30 3 0.373969 0.10637 0.280882
26 1 0.375744 0.100578 0.258857
544 2 0.371761 0.126371 0.311254
546 4 0.374096 0.125919 0.286351
606 4 0.431808 0.140555 0.26035
731 4 0.451731 0.137899 0.254155
730 2 0.469611 0.147791 0.263567
732 4 0.487491 0.157684 0.272979
1393 2 0.183883 0.178358 0.316598
1395 4 0.181413 0.195549 0.298668
2786 4 0.192952 0.20858 0.295433
2785 2 0.210139 0.221308 0.29951
2787 4 0.227325 0.234036 0.303587
1032 4 0.234519 0.24908 0.30979
1198 2 0.322067 0.245635 0.298237
1199 4 0.314069 0.226693 0.289634
590 4 0.356188 0.190745 0.264506
3572 4 0.368668 0.195917 0.328535
2849 4 0.367594 0.201088 0.271752
2848 2 0.37569 0.201715 0.295332
2850 4 0.383786 0.202342 0.318913
1221 4 0.475216 0.250792 0.26572
477 4 0.454575 0.258568 0.266007
2903 4 0.186964 0.312108 0.265502
2902 2 0.20407 0.291173 0.256889
2539 2 0.295595 0.296858 0.255347
1030 2 0.248445 0.262897 0.319924
2540 4 0.316674 0.301251 0.26546
1031 4 0.26237 0.276715 0.330057
1200 4 0.330065 0.264577 0.306839
1054 2 0.355214 0.311022 0.25569
1055 4 0.330719 0.310588 0.259976
1056 4 0.379709 0.311455 0.251403
2682 4 0.39773 0.297241 0.25628
2499 4 0.384392 0.322453 0.311346
510 4 0.342981 0.265934 0.323092
2680 2 0.410309 0.313912 0.250599
2497 2 0.410388 0.317055 0.313452
475 2 0.432758 0.25701 0.254808
2498 4 0.436383 0.311656 0.315558
2681 4 0.422888 0.330584 0.244919
2655 4 0.45601 0.297828 0.313495
2653 2 0.478768 0.290177 0.301207
1219 2 0.498766 0.253667 0.261295
4 3 0.242067 0.368469 0.315478
2 3 0.250696 0.380092 0.281893
1 1 0.250742 0.383892 0.304548
3 3 0.236627 0.405424 0.308955
5 3 0.273058 0.381583 0.311385
1575 4 0.28195 0.387626 0.295717
1573 2 0.30734 0.374682 0.296521
1574 4 0.33273 0.361738 0.297324
543 4 0.349328 0.365084 0.288999
541 2 0.369028 0.374923 0.285703
542 4 0.388727 0.384761 0.282408
245 4 0.403573 0.391361 0.276091
244 2 0.422283 0.40257 0.27338
246 4 0.440994 0.41378 0.270669
3449 4 0.489616 0.378971 0.250189
669 4 0.459622 0.412254 0.277885
1157 4 0.0624495 0.474026 0.25441
501 4 0.0786554 0.478006 0.264416
499 2 0.0988015 0.486235 0.27092
229 2 0.185813 0.471134 0.253794
500 4 0.118948 0.494465 0.277425
230 4 0.173732 0.469343 0.275295
4032 4 0.13518 0.500736 0.284332
1311 4 0.214635 0.45451 0.308907
1309 2 0.221055 0.472662 0.296637
1310 4 0.227476 0.490815 0.284368
644 4 0.294425 0.435313 0.271062
753 4 0.311192 0.428069 0.280557
751 2 0.318443 0.431059 0.303996
752 4 0.325693 0.434049 0.327435
415 2 0.415736 0.459891 0.329578
3999 4 0.470583 0.48051 0.25012
416 4 0.42478 0.469314 0.309747
667 2 0.480722 0.420191 0.275216
3997 2 0.488832 0.49028 0.258895
1184 4 0.0638469 0.0109992 0.346049
1183 2 0.0443481 0.00812127 0.331867
2665 2 0.00476315 0.0701608 0.337468
2114 4 0.0715087 0.0255144 0.353723
2666 4 0.026551 0.0769148 0.34051
2113 2 0.0925339 0.0337883 0.353224
2115 4 0.113559 0.0420622 0.352724
1128 4 0.125754 0.0235472 0.357133
1126 2 0.150283 0.0241797 0.360805
1127 4 0.174811 0.0248122 0.364477
707 4 0.183529 0.0182346 0.383447
706 2 0.204138 0.0237279 0.373589
708 4 0.224747 0.0292212 0.363731
617 4 0.240668 0.0254102 0.349457
616 2 0.259003 0.0272675 0.365709
618 4 0.277338 0.0291249 0.38196
1062 4 0.288481 0.0184989 0.3976
1059 4 0.276886 0.0772814 0.364672
1377 4 0.0410086 0.0872028 0.341938
2579 4 0.00376642 0.164817 0.332996
1375 2 0.0627126 0.0925104 0.334739
480 4 0.200795 0.146077 0.342983
1394 4 0.186353 0.161168 0.334529
1057 2 0.25407 0.0904488 0.35463
1523 4 0.212351 0.100794 0.342236
478 2 0.21645 0.147282 0.362135
479 4 0.232106 0.148487 0.381287
1058 4 0.231254 0.103616 0.344588
470 4 0.23751 0.145882 0.400228
469 2 0.259289 0.151011 0.40749
471 4 0.281069 0.156141 0.414753
3157 2 0.285227 0.151152 0.33748
3158 4 0.297417 0.154535 0.35842
530 4 0.316848 0.155657 0.361914
3852 4 0.321481 0.126663 0.407317
529 2 0.340559 0.139359 0.358538
3850 2 0.308945 0.110937 0.415962
545 4 0.369427 0.126822 0.336157
531 4 0.36427 0.123062 0.355161
2643 4 0.464135 0.158868 0.368229
2641 2 0.488906 0.155694 0.375249
983 4 0.00979066 0.176935 0.344741
982 2 0.0311191 0.184605 0.34265
984 4 0.0524476 0.192275 0.340559
2657 4 0.0722167 0.190826 0.343364
2656 2 0.0951184 0.19078 0.353432
2658 4 0.11802 0.190734 0.363499
635 4 0.135547 0.180433 0.371441
634 2 0.156208 0.1892 0.370105
636 4 0.176869 0.197966 0.368768
711 4 0.194441 0.2027 0.36679
709 2 0.217414 0.20681 0.371307
710 4 0.240386 0.21092 0.375825
536 4 0.258989 0.210224 0.368169
535 2 0.284351 0.206015 0.362813
537 4 0.309714 0.201805 0.357456
3573 4 0.328797 0.202615 0.360588
3571 2 0.348732 0.199266 0.344562
472 2 0.39508 0.195329 0.374151
474 4 0.407096 0.20481 0.391804
473 4 0.383064 0.185847 0.356498
726 4 0.40818 0.219173 0.403709
2612 4 0.221948 0.278584 0.380201
2611 2 0.235368 0.293246 0.389554
118 3 0.319844 0.281589 0.335193
2613 4 0.248788 0.307908 0.398906
371 4 0.259038 0.321831 0.401906
117 3 0.284635 0.275612 0.337043
370 2 0.279937 0.317118 0.386902
116 1 0.301946 0.28037 0.349438
120 3 0.310276 0.26388 0.364812
119 3 0.29259 0.300715 0.36017
372 4 0.300837 0.312405 0.371899
508 2 0.36375 0.269134 0.334984
509 4 0.384519 0.272333 0.346876
717 4 0.404063 0.269597 0.354893
715 2 0.424965 0.277838 0.357547
716 4 0.445868 0.286079 0.360202
2529 4 0.46656 0.289113 0.360114
2527 2 0.486868 0.29723 0.353922
260 4 0.0128458 0.340735 0.403222
1028 4 0.0648196 0.400382 0.404387
1172 4 0.0768507 0.41243 0.399138
2928 4 0.172046 0.33903 0.402916
2926 2 0.17941 0.359712 0.40569
2927 4 0.186774 0.380394 0.408463
1451 4 0.202937 0.388537 0.410398
1450 2 0.21631 0.404831 0.405901
1452 4 0.229683 0.421126 0.401404
892 2 0.414728 0.409112 0.407417
569 4 0.389907 0.415677 0.379865
1171 2 0.0795051 0.435363 0.397151
1173 4 0.0821596 0.458296 0.395163
2961 4 0.198086 0.465035 0.353343
2959 2 0.187854 0.481435 0.371501
2960 4 0.177623 0.497836 0.389658
3884 4 0.243006 0.430886 0.409764
3883 2 0.262256 0.441445 0.40723
2532 4 0.290174 0.420351 0.353131
3885 4 0.281506 0.452004 0.404695
2649 4 0.297359 0.460699 0.406643
2530 2 0.303261 0.436806 0.357987
2531 4 0.316349 0.453261 0.362843
2647 2 0.31853 0.468588 0.404353
1433 4 0.333566 0.459291 0.354636
2648 4 0.3397 0.476477 0.402064
1432 2 0.344952 0.476085 0.346398
894 4 0.399069 0.425812 0.392041
1434 4 0.356338 0.492879 0.33816
4322 4 0.355461 0.486266 0.408088
568 2 0.388766 0.432355 0.361677
570 4 0.387625 0.449033 0.343489
417 4 0.406693 0.450469 0.349409
4321 2 0.373957 0.497579 0.404476
2505 4 0.198728 0.0715564 0.479708
2503 2 0.219356 0.064292 0.464387
1060 2 0.274888 0.0223065 0.418968
2504 4 0.239985 0.0570275 0.449066
682 2 0.264316 0.00151338 0.466313
4239 4 0.254187 0.0689182 0.444722
4237 2 0.269013 0.0781828 0.429685
684 4 0.252051 0.0132782 0.446002
1061 4 0.261294 0.0261141 0.440336
3747 4 0.350485 0.00289211 0.477907
3745 2 0.365642 0.0175378 0.482671
3746 4 0.3808 0.0321835 0.487436
2315 4 0.451529 0.0720361 0.499721
4238 4 0.283839 0.0874475 0.414648
3851 4 0.29641 0.0952116 0.424608
2544 4 0.29768 0.162821 0.421357
2542 2 0.322377 0.163555 0.423201
3326 4 0.420752 0.124044 0.498971
320 4 0.432316 0.130852 0.485408
319 2 0.456592 0.131381 0.480154
321 4 0.480867 0.13191 0.4749
900 4 0.162609 0.221265 0.49688
898 2 0.187147 0.209718 0.489628
899 4 0.211685 0.198172 0.482376
824 4 0.223038 0.21016 0.477929
823 2 0.246502 0.210265 0.469378
825 4 0.269965 0.210369 0.460827
695 4 0.283948 0.216716 0.450502
2543 4 0.347074 0.164289 0.425045
694 2 0.30413 0.221785 0.439263
696 4 0.324311 0.226854 0.428024
724 2 0.387216 0.230355 0.417636
2823 4 0.361199 0.171345 0.434826
2821 2 0.382239 0.179213 0.438289
725 4 0.366252 0.241538 0.431563
2822 4 0.40328 0.187081 0.441752
410 4 0.422685 0.189947 0.439382
312 4 0.348677 0.23883 0.484679
409 2 0.444393 0.196578 0.443444
411 4 0.466102 0.203209 0.447506
3461 4 0.485017 0.199917 0.454878
305 4 0.197034 0.2924 0.428634
304 2 0.206079 0.28203 0.450626
306 4 0.215123 0.27166 0.472619
3060 4 0.232129 0.280106 0.474727
2847 4 0.18876 0.324225 0.455668
3058 2 0.25729 0.276938 0.480254
3059 4 0.28245 0.27377 0.485782
311 4 0.298227 0.261425 0.474547
310 2 0.323452 0.250127 0.479613
443 4 0.355059 0.255272 0.483344
442 2 0.373989 0.266374 0.482127
444 4 0.392918 0.277475 0.48091
2550 4 0.399524 0.293869 0.479057
2548 2 0.412217 0.307272 0.466341
2549 4 0.42491 0.320676 0.453624
261 4 0.0123819 0.36429 0.446801
259 2 0.0126139 0.352513 0.425012
2635 2 0.0607485 0.375118 0.486967
2637 4 0.0734842 0.374058 0.465285
1029 4 0.0757562 0.388044 0.452324
1027 2 0.0702879 0.394213 0.428356
2845 2 0.187765 0.331066 0.479692
893 4 0.430387 0.392412 0.422792
813 4 0.264927 0.42831 0.478497
811 2 0.247242 0.422877 0.493347
3963 4 0.285621 0.425952 0.474623
3962 4 0.33249 0.433602 0.470421
3961 2 0.309055 0.429777 0.472522
4179 4 0.34999 0.43769 0.464903
4178 4 0.397467 0.444396 0.464761
662 4 0.415255 0.447354 0.459034
4177 2 0.373729 0.441043 0.464832
663 4 0.457472 0.454423 0.480912
4043 4 0.471445 0.458909 0.492674
4042 2 0.486738 0.472682 0.49994
2824 2 0.468392 0.484576 0.429033
661 2 0.436363 0.450889 0.469973
3593 4 0.499525 0.467495 0.437331
2825 4 0.483533 0.460879 0.430732
576 4 0.00985276 0.0744379 0.534428
574 2 0.030444 0.083054 0.537562
2502 4 0.200421 0.0644939 0.543648
2500 2 0.21968 0.0751097 0.54164
3032 4 0.254302 0.0797946 0.525455
3031 2 0.278199 0.0826062 0.523511
2314 2 0.432571 0.0628511 0.507804
2316 4 0.413612 0.0536662 0.515887
2196 4 0.470276 0.0742542 0.498083
575 4 0.0510353 0.0916701 0.540697
89 3 0.0678256 0.0971624 0.540369
90 3 0.0730906 0.130545 0.532656
88 3 0.0806892 0.103883 0.506078
86 1 0.081289 0.108134 0.528809
87 3 0.104064 0.100312 0.536146
2490 4 0.122041 0.106303 0.532482
2488 2 0.140629 0.115527 0.541432
2489 4 0.159218 0.124751 0.550381
2810 4 0.173914 0.134596 0.549916
2809 2 0.194155 0.138561 0.562102
2501 4 0.238938 0.0857254 0.539632
2811 4 0.214396 0.142526 0.574287
3109 2 0.245272 0.158268 0.578216
3110 4 0.228466 0.15003 0.564707
3033 4 0.302096 0.0854179 0.521566
945 4 0.31638 0.0967487 0.517988
943 2 0.340622 0.0985458 0.515351
944 4 0.364865 0.100343 0.512713
3327 4 0.376971 0.113213 0.511679
3325 2 0.398862 0.118628 0.505325
2194 2 0.489891 0.083437 0.504111
1210 2 0.0209429 0.179874 0.531632
1212 4 0.0460698 0.174842 0.538299
2963 4 0.0535717 0.189214 0.549028
2962 2 0.0754747 0.193294 0.540555
2964 4 0.0973776 0.197375 0.532082
2604 4 0.106362 0.19947 0.515069
2602 2 0.124626 0.209699 0.507254
2603 4 0.14289 0.219928 0.49944
238 2 0.00710233 0.381642 0.515663
240 4 0.0307327 0.384517 0.519613
2636 4 0.0480128 0.376179 0.508649
3369 4 0.0551235 0.391007 0.57401
3367 2 0.0727801 0.402895 0.568679
1281 4 0.110777 0.410501 0.571021
3368 4 0.0904368 0.414783 0.563349
3044 4 0.184004 0.327654 0.520835
1641 4 0.144945 0.366605 0.565464
3045 4 0.149803 0.348741 0.556762
1279 2 0.129946 0.410494 0.554964
3043 2 0.166904 0.338198 0.538798
2846 4 0.18677 0.337907 0.503715
1280 4 0.149116 0.410487 0.538908
877 2 0.188841 0.412653 0.521717
878 4 0.169204 0.406025 0.53224
1909 2 0.489722 0.396224 0.58178
1910 4 0.467034 0.392815 0.574729
1982 4 0.170271 0.501197 0.50094
879 4 0.208479 0.419281 0.511194
2171 4 0.18943 0.486795 0.505933
812 4 0.229558 0.417444 0.508197
1137 4 0.306146 0.420012 0.541019
1135 2 0.308682 0.440778 0.530369
1136 4 0.311218 0.461544 0.519719
1487 4 0.327193 0.491916 0.511383
798 4 0.345625 0.427923 0.572853
3490 2 0.417818 0.449147 0.564534
796 2 0.36913 0.428918 0.580411
3491 4 0.399329 0.44623 0.580044
4537 2 0.379152 0.499547 0.518367
4538 4 0.404215 0.492711 0.511155
3492 4 0.436307 0.452064 0.549024
774 4 0.483557 0.460294 0.565005
772 2 0.490009 0.481431 0.568057
773 4 0.496461 0.502568 0.571108
3612 4 0.0468553 0.00571326 0.653033
3610 2 0.0710264 0.00557832 0.64648
951 4 0.0746552 0.070604 0.607279
3611 4 0.0951976 0.00544339 0.639928
4503 4 0.113523 0.0104042 0.633405
4501 2 0.13339 0.0203142 0.634284
4502 4 0.153258 0.0302243 0.635163
3104 4 0.165079 0.0410758 0.628758
3103 2 0.188773 0.0423549 0.63533
3105 4 0.212467 0.043634 0.641903
3082 2 0.28381 0.0108489 0.648092
3121 2 0.273469 0.00315317 0.585525
3122 4 0.295501 0.00974806 0.586954
3084 4 0.306201 0.0166077 0.645348
3083 4 0.26142 0.00509021 0.650835
269 4 0.313433 0.0305646 0.654122
268 2 0.330851 0.0343391 0.637831
270 4 0.348269 0.0381135 0.621539
3050 4 0.3532 0.0355234 0.60213
3049 2 0.375894 0.0409715 0.601135
3051 4 0.398588 0.0464196 0.60014
2507 4 0.412988 0.0557432 0.596038
2506 2 0.437707 0.0566109 0.596228
2508 4 0.462426 0.0574787 0.596417
1142 4 0.4801 0.041451 0.60015
1141 2 0.495578 0.0562951 0.598857
2317 2 0.0120685 0.130453 0.603706
2319 4 0.0378001 0.127523 0.604337
950 4 0.0579224 0.12054 0.60964
949 2 0.0662888 0.095572 0.60846
953 4 0.212377 0.0978742 0.630391
952 2 0.222199 0.0916142 0.607502
954 4 0.232021 0.0853543 0.584614
3003 4 0.418038 0.131086 0.630082
3001 2 0.416944 0.121929 0.653013
2174 4 0.421307 0.147905 0.623527
2173 2 0.440511 0.158191 0.619289
2175 4 0.459714 0.168477 0.615051
966 4 0.479364 0.165704 0.610885
3206 4 0.00368355 0.179655 0.59574
3386 4 0.143715 0.205583 0.608467
3385 2 0.150469 0.220996 0.624425
3387 4 0.157223 0.236409 0.640382
3111 4 0.262078 0.166506 0.591726
384 4 0.172192 0.240661 0.650294
382 2 0.195945 0.235011 0.660744
539 4 0.0411473 0.387186 0.586969
538 2 0.0485306 0.375541 0.608772
540 4 0.0559139 0.363897 0.630574
4214 4 0.0670691 0.376634 0.636597
4213 2 0.0686915 0.38775 0.658413
1639 2 0.142856 0.358902 0.588827
1640 4 0.140767 0.3512 0.61219
997 2 0.154797 0.369388 0.656531
1041 4 0.162167 0.406225 0.64584
998 4 0.162136 0.387507 0.645171
1039 2 0.173003 0.424875 0.646947
1040 4 0.18384 0.443524 0.648055
797 4 0.392635 0.429914 0.587968
1007 4 0.432238 0.424559 0.667566
2217 4 0.471456 0.501663 0.643381
3488 4 0.245566 0.0169109 0.742479
1216 2 0.288965 0.018586 0.73767
1217 4 0.265456 0.0149271 0.739802
1218 4 0.312473 0.0222449 0.735539
2001 4 0.319957 0.0291294 0.752097
1999 2 0.341648 0.0327975 0.74258
2000 4 0.36334 0.0364656 0.733062
1146 4 0.381089 0.0422823 0.733522
1144 2 0.405564 0.0436031 0.731473
1145 4 0.430039 0.044924 0.729425
3132 4 0.448594 0.0491493 0.728517
3130 2 0.471352 0.0544719 0.729578
3131 4 0.494109 0.0597946 0.73064
3002 4 0.41585 0.112771 0.675945
3147 4 0.472666 0.128447 0.73922
3145 2 0.483619 0.144721 0.729002
3146 4 0.494571 0.160995 0.718783
3037 2 0.00407769 0.22375 0.671012
3039 4 0.0203278 0.229971 0.687012
383 4 0.219698 0.229362 0.671193
2972 4 0.225693 0.230504 0.691384
2971 2 0.250161 0.232073 0.691271
2973 4 0.274629 0.233641 0.691159
3252 4 0.292055 0.238151 0.699799
1299 4 0.18424 0.278024 0.739287
1297 2 0.177876 0.302951 0.737891
1298 4 0.171513 0.327878 0.736495
3250 2 0.31075 0.248903 0.704735
3251 4 0.329445 0.259654 0.709671
738 4 0.345208 0.268109 0.715315
736 2 0.358994 0.266086 0.736479
4207 2 0.0185179 0.385809 0.741282
4215 4 0.0703139 0.398865 0.68023
3114 4 0.0895573 0.3984 0.683602
3112 2 0.110806 0.396906 0.697419
1067 4 0.13519 0.381181 0.725124
3113 4 0.132055 0.395413 0.711236
1066 2 0.150633 0.361436 0.737307
999 4 0.147459 0.35127 0.667892
4196 4 0.378723 0.414827 0.693616
4492 2 0.154089 0.475377 0.748088
4493 4 0.160678 0.487125 0.72853
1098 4 0.173995 0.472709 0.716969
1096 2 0.194566 0.467196 0.70151
1097 4 0.215137 0.461684 0.68605
1278 4 0.232916 0.458559 0.698434
1276 2 0.254687 0.461844 0.688687
4361 4 0.277175 0.415325 0.740745
2030 4 0.257799 0.423994 0.749284
4195 2 0.354276 0.41872 0.701978
4197 4 0.329829 0.422613 0.710339
4362 4 0.310315 0.422025 0.705878
1277 4 0.276459 0.465129 0.678939
821 4 0.2882 0.473045 0.691173
4360 2 0.293745 0.418675 0.723312
820 2 0.314213 0.468173 0.690158
822 4 0.340227 0.463302 0.689142
1008 4 0.383247 0.426967 0.680504
1006 2 0.407742 0.425763 0.674035
1235 4 0.359209 0.46487 0.695067
1234 2 0.379653 0.471694 0.703415
1236 4 0.400097 0.478518 0.711763
2289 4 0.416373 0.473148 0.72344
2287 2 0.412154 0.471153 0.74789
1111 2 0.0116447 0.0806062 0.826175
1112 4 0.0342099 0.0860646 0.823532
3288 4 0.0486794 0.0803374 0.808844
2063 4 0.080953 0.030818 0.76215
3286 2 0.0717421 0.0834265 0.802628
2062 2 0.102551 0.0376081 0.757995
2064 4 0.124149 0.0443981 0.75384
3437 4 0.140385 0.0288388 0.75905
3487 2 0.224115 0.0210628 0.75667
3438 4 0.189842 0.029762 0.753998
3489 4 0.202665 0.0252147 0.770861
3436 2 0.165114 0.0293004 0.756524
3254 4 0.15929 0.0450102 0.830286
3299 4 0.284784 0.0781519 0.830967
2303 4 0.346821 0.00108193 0.815411
3282 4 0.414448 0.0517466 0.792682
3280 2 0.433235 0.0574855 0.805695
3281 4 0.452021 0.0632244 0.818707
4128 4 0.471632 0.0651213 0.813525
3287 4 0.0948047 0.0865156 0.796411
3402 4 0.108823 0.0940219 0.789343
3400 2 0.13321 0.0935892 0.783277
3401 4 0.157597 0.0931565 0.777211
3167 4 0.174082 0.0895947 0.764249
3166 2 0.199251 0.0890243 0.76474
1013 4 0.187126 0.136965 0.780383
1012 2 0.201831 0.140016 0.799642
3168 4 0.22442 0.0884539 0.765232
1014 4 0.216537 0.143068 0.8189
1607 4 0.222766 0.151831 0.834581
779 4 0.304744 0.151027 0.804564
3481 2 0.351987 0.101632 0.826836
778 2 0.324878 0.158084 0.813345
3298 2 0.298008 0.0949924 0.82979
3300 4 0.311232 0.111833 0.828614
1166 4 0.382921 0.114129 0.813202
1165 2 0.404565 0.114688 0.801
1167 4 0.426209 0.115247 0.788797
192 3 0.429149 0.115459 0.768427
3482 4 0.374226 0.0983244 0.81402
191 1 0.447606 0.123892 0.77217
3764 4 0.432203 0.166484 0.776431
193 3 0.460315 0.122441 0.752523
194 3 0.438878 0.146072 0.778731
195 3 0.461499 0.11176 0.788565
4126 2 0.481468 0.0843409 0.811003
4127 4 0.491303 0.10356 0.808481
1628 4 0.0904616 0.248544 0.759306
838 2 0.306075 0.241776 0.82246
780 4 0.345012 0.165142 0.822125
1619 4 0.356509 0.177143 0.814878
1618 2 0.375285 0.188351 0.812767
1620 4 0.394061 0.19956 0.810655
58 3 0.410148 0.206519 0.815471
60 3 0.436671 0.224962 0.809303
56 1 0.422296 0.220055 0.824855
3763 2 0.448527 0.17797 0.786322
747 4 0.453944 0.231832 0.809643
3765 4 0.464852 0.189456 0.796214
745 2 0.478483 0.232733 0.812542
1994 4 0.482901 0.190447 0.789094
1627 2 0.101889 0.263341 0.771544
1629 4 0.113316 0.278138 0.783782
1307 4 0.115019 0.317238 0.81889
1306 2 0.123273 0.295251 0.807072
1308 4 0.131527 0.273264 0.795254
1047 4 0.0999993 0.310081 0.826756
839 4 0.309141 0.252844 0.801001
2982 4 0.329503 0.251735 0.803107
2980 2 0.348463 0.256642 0.789631
2981 4 0.367424 0.261549 0.776155
737 4 0.372781 0.264063 0.757643
4209 4 0.0391355 0.378754 0.756635
2409 4 0.045201 0.380803 0.775035
2407 2 0.0616649 0.394474 0.77815
1950 4 0.0970597 0.411239 0.782555
2408 4 0.0781288 0.408146 0.781265
1948 2 0.123223 0.404429 0.783104
1068 4 0.166076 0.341691 0.74949
1949 4 0.149386 0.39762 0.783652
1242 4 0.164598 0.397883 0.797867
1240 2 0.187623 0.40233 0.794729
1241 4 0.210649 0.406778 0.791591