ITEM: TIMESTEP
693500
ITEM: NUMBER OF ATOMS
4590
ITEM: BOX BOUNDS xy xz yz pp pp pp
-1.2598198200000002e+01 9.9985700000000008e+00 -2.5996282000000015e+00
-9.9985700000000008e+00 9.9985700000000008e+00 0.0000000000000000e+00
-9.9985700000000008e+00 9.9985700000000008e+00 0.0000000000000000e+00
ITEM: ATOMS id type xs ys zs
4506 4 0.244354 0.031211 0.013526
557 4 0.245835 0.0778662 0.0673586
4504 2 0.233562 0.00967406 0.00365344
2948 4 0.26635 0.0139765 0.0544413
1760 4 0.337693 0.0589215 0.0435661
556 2 0.270933 0.0791102 0.0687054
1759 2 0.353124 0.0556573 0.0245099
1761 4 0.368554 0.0523931 0.00545367
2885 4 0.427101 0.0251568 0.0652666
3903 4 0.444509 0.0357001 0.0598035
3901 2 0.459022 0.0439519 0.0404015
3902 4 0.473536 0.0522036 0.0209995
3479 4 0.478975 0.0685087 0.0110954
2669 4 0.998512 0.0923014 0.0245283
2678 4 0.0959499 0.0873086 0.077967
3209 4 0.185478 0.083489 0.047283
3208 2 0.210136 0.0817471 0.0489937
3210 4 0.234793 0.0800053 0.0507044
3413 4 0.233281 0.149867 0.0202723
828 4 0.24272 0.141721 0.00504641
3412 2 0.252473 0.1481 0.0359208
3414 4 0.271664 0.146334 0.0515694
3344 4 0.285497 0.138661 0.0394539
558 4 0.296031 0.0803542 0.0700521
3343 2 0.305492 0.139475 0.0545843
654 4 0.3173 0.0816046 0.0703383
3345 4 0.325488 0.140289 0.0697148
2882 4 0.3399 0.155132 0.0617574
652 2 0.341713 0.090283 0.0731152
2881 2 0.360446 0.145479 0.0692894
653 4 0.366126 0.0989614 0.0758921
2883 4 0.380992 0.135827 0.0768215
22 3 0.386084 0.0999421 0.0785321
21 1 0.403169 0.117535 0.0777093
2974 2 0.421824 0.154125 0.0298597
2975 4 0.415881 0.140625 0.0504845
24 3 0.408361 0.122478 0.0554995
2660 4 0.478919 0.0847383 0.0449629
2659 2 0.500666 0.0979173 0.0378794
360 4 0.155881 0.215556 0.0350525
358 2 0.173633 0.222025 0.052296
359 4 0.191385 0.228495 0.0695396
282 4 0.211089 0.235543 0.0736845
2841 4 0.272807 0.240664 0.0123286
309 4 0.290202 0.233353 0.0141166
307 2 0.305872 0.218746 0.0242721
308 4 0.321541 0.204139 0.0344276
2652 4 0.330108 0.199467 0.0515701
2650 2 0.347403 0.218023 0.0592772
2651 4 0.364697 0.236579 0.0669844
2976 4 0.427767 0.167626 0.00923489
105 3 0.449044 0.240204 0.0336574
103 3 0.485218 0.249095 0.0230574
455 4 0.474813 0.228472 0.00304275
2828 4 0.0105394 0.303184 0.0107174
2639 4 0.0288832 0.296929 0.00779354
465 4 0.123845 0.254029 0.0254568
463 2 0.131647 0.260325 0.00228856
292 2 0.211991 0.309708 0.0153033
525 4 0.226522 0.295291 0.0533406
294 4 0.216219 0.301071 0.0381498
523 2 0.228394 0.314117 0.0697849
2839 2 0.266028 0.258132 0.0277608
2840 4 0.259249 0.275599 0.0431929
968 4 0.307331 0.305003 0.0201363
527 4 0.378583 0.252293 0.0617934
526 2 0.387782 0.261304 0.0398952
528 4 0.396982 0.270316 0.0179969
914 4 0.389337 0.275023 0.0012665
101 1 0.462847 0.249583 0.0171546
104 3 0.458934 0.271481 0.0135206
1551 4 0.026629 0.330718 0.0724894
1549 2 0.0516959 0.331937 0.070684
1550 4 0.0767627 0.333155 0.0688786
596 4 0.0951385 0.337395 0.0584538
595 2 0.118922 0.347996 0.0551647
597 4 0.142705 0.358597 0.0518756
1104 4 0.16166 0.366961 0.0545376
1102 2 0.186733 0.372796 0.0545367
4053 4 0.203382 0.396485 0.00759657
1103 4 0.211805 0.37863 0.0545359
2772 4 0.218034 0.385398 0.0719161
2770 2 0.242292 0.381994 0.0737714
2771 4 0.266551 0.37859 0.0756266
2522 4 0.285848 0.387685 0.0774895
2521 2 0.310944 0.39209 0.0753963
133 3 0.292519 0.409606 0.998961
1301 4 0.310703 0.416982 0.00593523
2523 4 0.33604 0.396494 0.0733032
3339 4 0.342531 0.387496 0.0561452
3337 2 0.366637 0.385033 0.0514049
3338 4 0.390743 0.382569 0.0466646
3449 4 0.362363 0.463618 0.0738047
2779 2 0.0176747 0.0615932 0.12175
2781 4 0.00043297 0.0463965 0.134446
2780 4 0.0349164 0.0767899 0.109054
2679 4 0.056716 0.079142 0.109222
253 2 0.18702 0.0593408 0.162424
254 4 0.204799 0.0536834 0.146601
1661 4 0.331772 0.00342916 0.111316
1662 4 0.381095 0.00253191 0.103855
1660 2 0.356434 0.00298053 0.107585
2884 2 0.406457 0.0225624 0.0796231
2886 4 0.385814 0.019968 0.0939797
3809 4 0.00162071 0.10746 0.12543
2519 4 0.0221704 0.115279 0.125582
2677 2 0.0763329 0.0832253 0.0935947
2518 2 0.047226 0.119672 0.128111
2520 4 0.0722817 0.124065 0.13064
723 4 0.0924208 0.125758 0.13433
2673 4 0.0953363 0.167329 0.145074
721 2 0.117576 0.13038 0.133374
722 4 0.142731 0.135002 0.132419
759 4 0.162139 0.138857 0.13627
757 2 0.187002 0.14285 0.132193
758 4 0.211865 0.146843 0.128116
356 4 0.231542 0.149068 0.125312
355 2 0.255033 0.16098 0.126659
582 4 0.252884 0.147881 0.163009
23 3 0.421914 0.111418 0.0886258
25 3 0.396238 0.135632 0.0879533
2894 4 0.443104 0.114779 0.0906822
2893 2 0.467923 0.11781 0.0950863
2895 4 0.492743 0.120842 0.0994905
2950 2 0.00847223 0.174713 0.165524
2952 4 0.0301358 0.178836 0.152803
2672 4 0.0505945 0.182722 0.153956
2671 2 0.0729654 0.175025 0.149515
2789 4 0.105985 0.173988 0.160415
2788 2 0.130204 0.173871 0.166571
280 2 0.232473 0.235317 0.0865914
357 4 0.278525 0.172891 0.128006
281 4 0.253857 0.235091 0.0994984
2876 4 0.271833 0.245386 0.101591
623 4 0.29797 0.182435 0.126299
622 2 0.322966 0.188884 0.126477
624 4 0.347961 0.195333 0.126655
2875 2 0.296854 0.248524 0.104684
506 4 0.455265 0.229484 0.1315
836 4 0.463824 0.23801 0.14847
505 2 0.45928 0.205523 0.13106
578 4 0.467838 0.178092 0.150086
507 4 0.463295 0.181562 0.130619
735 4 0.0117171 0.333817 0.163397
733 2 0.034153 0.326037 0.167252
518 4 0.072898 0.316594 0.156715
517 2 0.0972939 0.314674 0.16047
519 4 0.12169 0.312754 0.164225
607 2 0.154527 0.319125 0.16284
2471 4 0.182987 0.324513 0.134193
608 4 0.1749 0.313737 0.150511
524 4 0.230267 0.332944 0.0862291
2567 4 0.269149 0.314718 0.151734
2877 4 0.321874 0.251663 0.107777
110 3 0.312702 0.304716 0.144552
106 1 0.325233 0.287435 0.145826
109 3 0.327484 0.278379 0.124739
107 3 0.314544 0.271138 0.159614
2718 4 0.334886 0.269044 0.109842
108 3 0.346342 0.294874 0.154622
2534 4 0.365026 0.306427 0.15121
2716 2 0.359272 0.266407 0.107253
349 2 0.378991 0.321445 0.118483
351 4 0.380432 0.305513 0.13743
2717 4 0.383658 0.26377 0.104663
2616 4 0.392449 0.280462 0.114585
2614 2 0.417566 0.285785 0.115101
2615 4 0.442683 0.291109 0.115617
837 4 0.444861 0.277615 0.129742
835 2 0.454343 0.257812 0.139106
3215 4 0.48449 0.282204 0.0918392
902 4 0.0910879 0.402492 0.129202
901 2 0.110822 0.396029 0.11655
903 4 0.130557 0.389566 0.103897
2513 4 0.146288 0.400448 0.114158
2470 2 0.206266 0.332425 0.125977
288 4 0.26058 0.361138 0.0865642
2472 4 0.229545 0.340338 0.11776
286 2 0.278948 0.348091 0.093801
287 4 0.297316 0.335043 0.101038
2569 2 0.310439 0.357817 0.155262
252 4 0.312382 0.348883 0.106039
2570 4 0.330586 0.347888 0.147074
250 2 0.337204 0.347799 0.105096
2969 4 0.341248 0.361932 0.157744
2968 2 0.365025 0.368655 0.165189
251 4 0.362025 0.346716 0.104153
350 4 0.37755 0.337377 0.0995355
729 4 0.406347 0.366619 0.170173
296 4 0.0986359 0.419648 0.137437
295 2 0.111325 0.437018 0.152088
2512 2 0.167797 0.41533 0.109623
2514 4 0.189306 0.430211 0.105088
2445 4 0.205751 0.43845 0.114393
2443 2 0.229305 0.440913 0.123298
2444 4 0.252859 0.443376 0.132203
767 4 0.273716 0.446271 0.131292
766 2 0.292562 0.441319 0.116433
768 4 0.311409 0.436367 0.101573
3450 4 0.330765 0.433077 0.102171
3448 2 0.346564 0.448348 0.087988
3550 2 0.454688 0.433651 0.15973
1568 4 0.47642 0.420689 0.126066
3552 4 0.470736 0.424123 0.144382
1567 2 0.493636 0.42816 0.108588
177 3 0.00110806 0.0427749 0.183877
176 1 0.000950676 0.0323263 0.204335
178 3 0.0230115 0.0306724 0.210617
2573 4 0.0409991 0.035309 0.204284
130 3 0.0370883 0.00271484 0.235824
128 3 0.0460231 0.03985 0.240493
2572 2 0.0645288 0.0454323 0.198875
2574 4 0.0880585 0.0555556 0.193465
1506 4 0.102618 0.0501063 0.18032
2732 4 0.116794 0.00631326 0.208571
1504 2 0.127647 0.0505798 0.179055
2547 4 0.134002 0.0119762 0.21874
1505 4 0.152676 0.0510533 0.177791
2545 2 0.15203 0.0207768 0.234947
255 4 0.16924 0.0649982 0.178247
2546 4 0.170058 0.0295774 0.251154
123 3 0.252622 0.0478007 0.237876
121 1 0.271614 0.0370947 0.240754
125 3 0.271391 0.0200334 0.225801
124 3 0.290944 0.0522144 0.237878
690 4 0.290948 0.0157462 0.191226
2855 4 0.311804 0.0586031 0.23813
2579 4 0.328848 0.0500574 0.241485
688 2 0.308071 0.00291167 0.180867
2578 2 0.350236 0.0425588 0.249782
730 2 0.186862 0.161403 0.197232
732 4 0.187409 0.146076 0.177641
581 4 0.205543 0.139611 0.180091
580 2 0.229213 0.143746 0.17155
750 4 0.271396 0.146969 0.170733
749 4 0.321723 0.150593 0.172157
748 2 0.29656 0.148781 0.171445
2854 2 0.320406 0.0824237 0.232891
459 4 0.336153 0.152044 0.186711
2856 4 0.329009 0.106244 0.227652
2693 4 0.345454 0.117542 0.234498
457 2 0.358015 0.14693 0.19628
458 4 0.379876 0.141815 0.20585
237 4 0.391469 0.134118 0.21991
235 2 0.413831 0.143259 0.21025
236 4 0.436193 0.1524 0.20059
579 4 0.452976 0.165116 0.196548
577 2 0.460407 0.171604 0.173317
387 4 0.104494 0.225092 0.218626
385 2 0.128268 0.229816 0.226779
386 4 0.152043 0.234539 0.234933
2790 4 0.154422 0.173755 0.172727
731 4 0.186315 0.17673 0.216823
606 4 0.195277 0.192799 0.22653
604 2 0.204795 0.184428 0.247569
300 4 0.353312 0.221689 0.22214
298 2 0.344718 0.242807 0.229253
1220 4 0.373901 0.224511 0.2233
1219 2 0.397355 0.235966 0.219904
1221 4 0.420808 0.247421 0.216507
477 4 0.440214 0.25079 0.214156
734 4 0.0565889 0.318256 0.171107
609 4 0.134153 0.324513 0.175169
345 4 0.177821 0.30831 0.233944
274 2 0.182021 0.262636 0.241787
275 4 0.19816 0.281802 0.233325
497 4 0.218289 0.284655 0.238038
496 2 0.230503 0.303527 0.224856
498 4 0.242718 0.322399 0.211675
2568 4 0.259238 0.32159 0.200074
2566 2 0.264194 0.318154 0.175904
299 4 0.336123 0.263925 0.236366
2533 2 0.368737 0.314705 0.174656
2493 4 0.346707 0.281686 0.240729
2491 2 0.362585 0.298847 0.228712
2535 4 0.372448 0.322983 0.198102
2492 4 0.378464 0.316009 0.216695
475 2 0.457804 0.258458 0.197096
476 4 0.475394 0.266126 0.180036
755 4 0.494757 0.26018 0.182503
291 4 0.127187 0.34413 0.203408
289 2 0.132427 0.33943 0.227258
3818 4 0.198068 0.393337 0.176751
2571 4 0.290293 0.367746 0.16345
2970 4 0.388803 0.375378 0.172634
727 2 0.431289 0.369327 0.173807
728 4 0.45623 0.372035 0.177441
2538 4 0.473332 0.378161 0.186756
2536 2 0.493555 0.381171 0.201683
1435 2 0.0107451 0.423365 0.193392
1436 4 0.0338559 0.424812 0.203273
645 4 0.0326734 0.441294 0.215243
643 2 0.0433802 0.436933 0.237131
297 4 0.124014 0.454389 0.166739
741 4 0.115905 0.468564 0.175905
739 2 0.136635 0.472737 0.190056
3817 2 0.198914 0.417902 0.18078
740 4 0.157364 0.47691 0.204207
587 4 0.177967 0.482401 0.205039
586 2 0.196395 0.468435 0.200534
3819 4 0.19976 0.442466 0.184808
588 4 0.214823 0.454469 0.196029
3920 4 0.279441 0.493778 0.19623
3919 2 0.30176 0.49693 0.20786
4007 4 0.422417 0.433642 0.184689
4006 2 0.43028 0.440857 0.207605
3551 4 0.43864 0.443179 0.175078
3703 2 0.452695 0.488571 0.177119
4008 4 0.438142 0.448073 0.230522
3704 4 0.472061 0.477102 0.184777
1157 4 0.486764 0.491907 0.186679
2867 4 0.00579002 0.00616695 0.262852
127 3 0.0221605 0.019869 0.264183
126 1 0.041094 0.0193988 0.251217
129 3 0.0589294 0.0155559 0.264908
2850 4 0.168984 0.0790082 0.250674
3721 2 0.21416 0.038787 0.25182
3722 4 0.189 0.0340753 0.251189
3723 4 0.239321 0.0434987 0.252452
3874 2 0.241857 0.00639308 0.288107
3875 4 0.255025 0.0153419 0.268083
3876 4 0.228688 0.997444 0.308132
122 3 0.271501 0.0286067 0.262111
2580 4 0.371624 0.0350603 0.258079
2892 4 0.417562 0.0732757 0.292568
2890 2 0.402659 0.0612174 0.27519
2891 4 0.387757 0.0491592 0.257813
401 4 0.422198 0.0741206 0.312023
1032 4 0.135117 0.142975 0.293546
1030 2 0.145245 0.146569 0.316326
2945 4 0.137692 0.126434 0.283968
2944 2 0.147977 0.108345 0.272209
2946 4 0.158263 0.0902561 0.260451
2848 2 0.192218 0.0884265 0.257888
2849 4 0.215452 0.0978449 0.265102
546 4 0.231715 0.162683 0.327374
1272 4 0.229052 0.0970269 0.280493
544 2 0.255007 0.158482 0.333636
1270 2 0.251238 0.0956858 0.291601
513 4 0.288101 0.108238 0.30667
1271 4 0.273424 0.0943446 0.30271
511 2 0.311773 0.117357 0.300638
512 4 0.335445 0.126477 0.294606
2692 2 0.347645 0.125771 0.258082
2694 4 0.349835 0.134 0.281666
276 4 0.165882 0.24347 0.250248
28 3 0.20588 0.18704 0.312205
27 3 0.23574 0.213197 0.306876
29 3 0.228105 0.18575 0.281524
26 1 0.227785 0.190927 0.30412
605 4 0.214313 0.176057 0.268607
30 3 0.241216 0.17833 0.315648
285 4 0.406908 0.216971 0.303416
283 2 0.430235 0.212484 0.297639
284 4 0.453561 0.207997 0.291861
390 4 0.470135 0.218671 0.285685
388 2 0.488583 0.224968 0.269109
343 2 0.173882 0.315842 0.257273
344 4 0.169944 0.323374 0.280603
2654 4 0.186293 0.326462 0.292171
2653 2 0.19587 0.311268 0.308322
2655 4 0.205448 0.296075 0.324473
2621 4 0.468583 0.326231 0.334094
2620 2 0.490301 0.324467 0.322246
2831 4 0.485696 0.256702 0.316867
751 2 0.00945144 0.41428 0.283357
2 3 0.0763945 0.408131 0.289756
290 4 0.137667 0.33473 0.251109
417 4 0.463887 0.371518 0.291314
415 2 0.485559 0.385676 0.296921
752 4 0.0330128 0.42498 0.287736
4 3 0.0504208 0.43122 0.296077
644 4 0.0540871 0.432573 0.259018
1575 4 0.104677 0.444447 0.311341
5 3 0.0874363 0.443651 0.299243
3 3 0.0726283 0.43557 0.265139
1 1 0.0717946 0.4298 0.287614
1573 2 0.129857 0.448917 0.311644
1574 4 0.155037 0.453386 0.311947
543 4 0.175433 0.457661 0.314408
541 2 0.200425 0.458138 0.316264
542 4 0.225417 0.458615 0.31812
244 2 0.266978 0.476406 0.33201
245 4 0.243492 0.467911 0.324793
375 4 0.465295 0.436101 0.317381
1128 4 0.19949 0.0514146 0.417647
1126 2 0.223412 0.0618707 0.415042
1127 4 0.247334 0.0723268 0.412438
707 4 0.267647 0.0815682 0.411159
4354 2 0.497398 0.0353828 0.36516
4355 4 0.474063 0.0351854 0.374205
1522 2 0.99873 0.11672 0.393582
1058 4 0.0163484 0.0914701 0.41484
1523 4 0.0177834 0.103866 0.399098
2641 2 0.0977129 0.0911635 0.413461
1031 4 0.155372 0.150164 0.339107
2642 4 0.12196 0.0925445 0.406825
480 4 0.132295 0.110114 0.40177
478 2 0.152655 0.124273 0.410809
469 2 0.210719 0.132573 0.40627
545 4 0.2783 0.154281 0.339899
471 4 0.229002 0.130223 0.389713
706 2 0.291809 0.091734 0.411506
531 4 0.294622 0.159913 0.327641
708 4 0.315972 0.1019 0.411853
617 4 0.338759 0.103738 0.40961
529 2 0.319257 0.164399 0.332794
400 2 0.42488 0.0856158 0.334195
616 2 0.363352 0.112058 0.411405
618 4 0.387944 0.120378 0.4132
342 4 0.436045 0.0940138 0.372749
340 2 0.432952 0.0839214 0.395556
1394 4 0.442178 0.165812 0.413045
402 4 0.427562 0.0971111 0.356368
1190 4 0.463205 0.165664 0.41371
530 4 0.343892 0.168884 0.337947
3158 4 0.360273 0.18401 0.339865
2612 4 0.358074 0.213926 0.39952
3157 2 0.383914 0.178437 0.340529
2611 2 0.381286 0.208518 0.394621
3159 4 0.407555 0.172864 0.341194
2613 4 0.404498 0.203109 0.389723
651 4 0.421952 0.187317 0.33464
371 4 0.410805 0.197499 0.407588
370 2 0.434362 0.206703 0.413951
649 2 0.44484 0.184007 0.343035
650 4 0.467728 0.180697 0.351429
1189 2 0.471377 0.171336 0.390521
1191 4 0.479549 0.177009 0.367332
2498 4 0.207856 0.280258 0.335051
2497 2 0.229122 0.290331 0.34625
2499 4 0.250388 0.300405 0.35745
2930 4 0.267332 0.298563 0.348377
2929 2 0.292499 0.301295 0.34693
488 4 0.281098 0.330546 0.4007
452 4 0.266668 0.315834 0.402301
487 2 0.303245 0.321809 0.398098
116 1 0.323847 0.272191 0.403678
118 3 0.321525 0.29386 0.397166
2931 4 0.317667 0.304027 0.345483
489 4 0.325392 0.313073 0.395495
117 3 0.304004 0.262711 0.413318
1953 4 0.336795 0.312375 0.348787
120 3 0.328393 0.259875 0.385534
1951 2 0.361986 0.315809 0.349831
2681 4 0.452336 0.313387 0.335499
1952 4 0.387177 0.319243 0.350876
2682 4 0.406338 0.321515 0.350348
2680 2 0.429337 0.317451 0.342924
585 4 0.459774 0.287419 0.407876
583 2 0.454055 0.283205 0.383779
584 4 0.448337 0.278991 0.359681
2830 2 0.470664 0.259446 0.336382
2832 4 0.455631 0.262189 0.355897
2560 2 0.00891018 0.369995 0.40946
3422 4 0.0458996 0.448696 0.400351
3421 2 0.0677615 0.460509 0.391837
3640 2 0.133427 0.474464 0.37512
3642 4 0.108319 0.473118 0.376424
3423 4 0.0896235 0.472322 0.383323
3641 4 0.158536 0.475809 0.373816
2710 2 0.196389 0.463114 0.38585
2712 4 0.17259 0.466865 0.381238
2711 4 0.220188 0.459363 0.390462
669 4 0.306917 0.500057 0.341711
246 4 0.290465 0.4849 0.339226
2824 2 0.259846 0.46988 0.395789
2826 4 0.237596 0.455374 0.39553
2825 4 0.282097 0.484385 0.396048
3593 4 0.298241 0.478986 0.389665
3592 2 0.322875 0.48739 0.389051
3594 4 0.347508 0.495793 0.388436
373 2 0.470163 0.438102 0.341874
374 4 0.475032 0.440103 0.366368
1059 4 0.0603665 0.0823072 0.43415
1183 2 0.0837285 0.00789572 0.419834
2115 4 0.176944 0.046599 0.415881
2113 2 0.152936 0.0361703 0.417701
1184 4 0.107742 0.0184168 0.41854
2114 4 0.128928 0.0257417 0.419522
1181 4 0.113231 0.0161592 0.497911
2315 4 0.148404 0.0581452 0.475339
165 3 0.423505 0.0829602 0.435549
341 4 0.429858 0.0738289 0.418363
3172 2 0.00143947 0.100046 0.461212
2643 4 0.0734659 0.0897825 0.420097
1057 2 0.0383575 0.0868886 0.424495
3174 4 0.025581 0.110157 0.459839
2901 4 0.0411515 0.126497 0.460432
2899 2 0.0661208 0.131253 0.457336
2900 4 0.0910901 0.136009 0.454241
1152 4 0.102913 0.141228 0.469947
1150 2 0.123603 0.131154 0.476249
1151 4 0.144292 0.12108 0.48255
479 4 0.173016 0.138433 0.419848
2316 4 0.155344 0.106503 0.488057
2314 2 0.151874 0.0823243 0.481698
470 4 0.192436 0.134923 0.422826
900 4 0.360918 0.112614 0.472254
1393 2 0.422439 0.148539 0.417606
898 2 0.383675 0.126115 0.473613
899 4 0.406432 0.139616 0.474971
641 4 0.413741 0.143717 0.492905
162 3 0.41277 0.100254 0.465967
640 2 0.436751 0.156758 0.493799
161 1 0.423366 0.103223 0.445568
163 3 0.411723 0.116808 0.432376
1395 4 0.402699 0.131266 0.422166
319 2 0.502054 0.163502 0.486237
164 3 0.44531 0.113297 0.448903
426 4 0.467052 0.116245 0.446503
424 2 0.491262 0.115299 0.440832
321 4 0.477461 0.163938 0.490405
2811 4 0.00488541 0.244029 0.473266
2543 4 0.0129736 0.211731 0.417134
2542 2 0.0152914 0.226312 0.437441
2544 4 0.0176091 0.240893 0.457749
2602 2 0.180863 0.241059 0.493021
1035 4 0.353549 0.215349 0.418352
1033 2 0.339445 0.202147 0.435598
1034 4 0.325341 0.188945 0.452845
642 4 0.459762 0.169798 0.494693
372 4 0.457918 0.215907 0.420314
472 2 0.493512 0.226819 0.444733
473 4 0.475256 0.218195 0.428695
444 4 0.00332844 0.313253 0.471791
442 2 0.0157201 0.293291 0.47323
3045 4 0.0152041 0.330717 0.475469
443 4 0.0281118 0.273329 0.474669
312 4 0.043131 0.260662 0.474317
310 2 0.0653904 0.273974 0.469164
311 4 0.0876499 0.287286 0.464011
3059 4 0.102573 0.28799 0.450269
3058 2 0.125857 0.294323 0.441293
2603 4 0.201214 0.254962 0.483639
306 4 0.166386 0.295137 0.439921
3060 4 0.149141 0.300656 0.432316
304 2 0.187809 0.289821 0.429535
305 4 0.209233 0.284505 0.41915
453 4 0.244352 0.312416 0.447142
451 2 0.25551 0.314125 0.424721
696 4 0.242698 0.306122 0.467011
694 2 0.24698 0.293548 0.487798
119 3 0.341081 0.272469 0.419253
2925 4 0.463234 0.30138 0.421616
2923 2 0.481091 0.310882 0.437698
2924 4 0.498948 0.320385 0.453779
594 4 0.0339445 0.40125 0.430673
3043 2 0.00372855 0.350284 0.468705
2562 4 0.0264302 0.388059 0.417748
592 2 0.0178302 0.409505 0.446847
790 2 0.147201 0.4141 0.48987
3453 4 0.189846 0.413463 0.477971
3451 2 0.200896 0.408127 0.456552
792 4 0.169548 0.410346 0.480402
2928 4 0.231277 0.404924 0.428544
3452 4 0.211946 0.402792 0.435132
2926 2 0.255768 0.413459 0.430929
2958 4 0.290674 0.407638 0.431801
2847 4 0.461736 0.3602 0.452978
2845 2 0.475676 0.370427 0.471993
2846 4 0.489615 0.380654 0.491007
593 4 0.00171583 0.41776 0.463021
1697 4 0.00657416 0.46505 0.465986
4177 2 0.0369471 0.452 0.493361
4179 4 0.021127 0.457684 0.475509
3071 4 0.112623 0.431803 0.500618
2927 4 0.280258 0.421993 0.433314
2956 2 0.31336 0.419442 0.438004
2957 4 0.336046 0.431245 0.444206
945 4 0.0149355 0.0833724 0.547926
2460 4 0.0213257 0.00815769 0.530801
2458 2 0.0462525 0.0089692 0.527898
2459 4 0.0711793 0.0097807 0.524994
3033 4 0.0358408 0.0871098 0.545352
1182 4 0.112734 0.0613858 0.518272
1180 2 0.112982 0.0387725 0.508091
3122 4 0.111825 0.00584937 0.575798
3065 4 0.125753 0.0232657 0.577163
3064 2 0.14978 0.0225365 0.583702
3023 4 0.187164 0.0274255 0.576391
3022 2 0.209998 0.0211892 0.571173
3024 4 0.232831 0.0149528 0.565955
2996 4 0.249569 0.0140129 0.577065
2995 2 0.273687 0.0124185 0.571508
2997 4 0.297806 0.0108241 0.565952
3309 4 0.31722 0.0111223 0.562684
3307 2 0.341692 0.0202104 0.562283
3308 4 0.366164 0.0292984 0.561881
1262 4 0.385565 0.0360163 0.556259
1261 2 0.399509 0.0171644 0.555257
1263 4 0.413452 0.998312 0.554255
2508 4 0.48243 0.030423 0.524818
1967 4 0.486858 0.00397544 0.584092
3031 2 0.0608131 0.0875094 0.547352
3032 4 0.0857855 0.087909 0.549352
2501 4 0.106319 0.0903341 0.552595
1142 4 0.169083 0.0837445 0.545607
2500 2 0.129866 0.089501 0.544537
2502 4 0.153413 0.0886679 0.536479
1141 2 0.192861 0.0917226 0.55227
1143 4 0.216639 0.0997007 0.558933
917 4 0.236558 0.0988721 0.564101
916 2 0.260979 0.104793 0.569645
918 4 0.285401 0.110714 0.575189
1130 4 0.305543 0.114941 0.574332
2813 4 0.0858293 0.187883 0.57788
2812 2 0.0934077 0.178944 0.556227
2814 4 0.100986 0.170005 0.534573
2963 4 0.108927 0.174887 0.517073
2962 2 0.126416 0.193897 0.510887
2964 4 0.143905 0.212907 0.5047
2604 4 0.160512 0.227156 0.502402
1211 4 0.228516 0.224957 0.582718
1210 2 0.252023 0.228717 0.573706
1212 4 0.27553 0.232477 0.564694
1259 4 0.29219 0.23404 0.551333
1258 2 0.317076 0.24112 0.552178
3039 4 0.404634 0.251581 0.552103
142 3 0.025682 0.262704 0.583359
3235 2 0.0928248 0.283411 0.561163
3236 4 0.0702535 0.273913 0.570091
3237 4 0.115396 0.29291 0.552234
145 3 0.0587069 0.284665 0.582698
935 4 0.179286 0.256307 0.543673
934 2 0.1984 0.274637 0.546712
936 4 0.217515 0.292968 0.54975
695 4 0.251261 0.280974 0.508585
1641 4 0.270522 0.276192 0.531542
1639 2 0.291059 0.292199 0.536866
1260 4 0.341962 0.248199 0.553023
1640 4 0.311597 0.308205 0.542189
1280 4 0.325063 0.316792 0.553523
1279 2 0.348112 0.329524 0.55584
3038 4 0.35773 0.263588 0.554876
3037 2 0.381182 0.257584 0.553489
3386 4 0.418006 0.262919 0.563537
3385 2 0.442151 0.263917 0.570426
3387 4 0.466295 0.264915 0.577315
2721 4 0.00905247 0.359993 0.579842
774 4 0.115068 0.406784 0.540342
772 2 0.13472 0.395842 0.548173
773 4 0.154372 0.384901 0.556004
1205 4 0.169005 0.387342 0.571644
1281 4 0.371161 0.342257 0.558158
2243 4 0.369482 0.397577 0.568968
539 4 0.386646 0.405385 0.579188
348 4 0.386193 0.337518 0.56846
346 2 0.409124 0.348819 0.574531
538 2 0.408005 0.411705 0.566404
347 4 0.432056 0.360119 0.580602
4130 4 0.00170407 0.467607 0.571845
3118 2 0.0699596 0.499829 0.51989
4178 4 0.0527672 0.446316 0.511212
3072 4 0.0682933 0.439648 0.520177
3119 4 0.0917362 0.490638 0.516283
3070 2 0.0904583 0.435726 0.510397
791 4 0.124854 0.417854 0.499338
1813 2 0.251265 0.4948 0.521634
1814 4 0.274379 0.488982 0.526275
3368 4 0.275837 0.443478 0.574064
240 4 0.293764 0.447747 0.56488
238 2 0.302716 0.448808 0.541506
239 4 0.311669 0.449869 0.518131
336 4 0.328726 0.461451 0.522888
334 2 0.350871 0.465857 0.511038
2129 4 0.339657 0.486464 0.550793
2128 2 0.361445 0.491662 0.563139
2130 4 0.383233 0.49686 0.575485
327 4 0.386401 0.483704 0.509119
335 4 0.373016 0.470262 0.499188
540 4 0.429365 0.418026 0.553619
1137 4 0.446212 0.421875 0.563034
1135 2 0.468884 0.423735 0.573925
325 2 0.409515 0.49463 0.503184
3066 4 0.173808 0.0218073 0.590242
4073 4 0.214692 0.029608 0.662243
1129 2 0.328272 0.114334 0.584559
1131 4 0.351002 0.113727 0.594787
858 4 0.369609 0.119687 0.604076
856 2 0.393738 0.128062 0.608993
857 4 0.417868 0.136436 0.613909
2318 4 0.437298 0.142435 0.616272
2317 2 0.460538 0.15428 0.62001
2626 2 0.0140721 0.244559 0.668967
3110 4 0.0725659 0.197966 0.586091
144 3 0.0577755 0.247692 0.58867
3109 2 0.0755553 0.222915 0.587728
3111 4 0.0785448 0.247863 0.589365
3383 4 0.0972659 0.247077 0.602325
2319 4 0.483778 0.166125 0.623747
3266 4 0.00541542 0.260158 0.586245
143 3 0.0450861 0.269894 0.615295
141 1 0.0469562 0.266358 0.592481
3382 2 0.119099 0.257673 0.612045
3384 4 0.140933 0.26827 0.621765
3107 4 0.159636 0.265442 0.630061
3106 2 0.182656 0.264737 0.620547
3108 4 0.205677 0.264032 0.611034
1085 4 0.171271 0.277011 0.664522
3165 4 0.224456 0.268884 0.620901
3163 2 0.247361 0.271067 0.631329
3164 4 0.270265 0.273249 0.641756
1083 4 0.272702 0.254927 0.649892
1081 2 0.293018 0.257189 0.664697
384 4 0.481915 0.271986 0.590272
2719 2 0.0287271 0.368206 0.594386
2720 4 0.0484018 0.376419 0.608929
3447 4 0.0649585 0.389874 0.613145
3445 2 0.0885124 0.390664 0.621781
3446 4 0.112066 0.391453 0.630418
3353 4 0.13091 0.390923 0.63195
3352 2 0.141657 0.370808 0.638433
1204 2 0.179297 0.382778 0.593686
1206 4 0.189589 0.378214 0.615728
1139 4 0.193843 0.364986 0.630246
3354 4 0.152404 0.350693 0.644915
1138 2 0.210996 0.380552 0.642655
1140 4 0.228149 0.396118 0.655064
796 2 0.266567 0.390925 0.651929
798 4 0.248198 0.404985 0.656355
797 4 0.284935 0.376865 0.647504
82 3 0.283835 0.375109 0.626576
83 3 0.299956 0.348663 0.608391
81 1 0.303708 0.366323 0.623372
84 3 0.319679 0.382869 0.614791
85 3 0.310915 0.358945 0.64331
806 4 0.327123 0.373014 0.648209
2244 4 0.331988 0.37985 0.599761
805 2 0.340938 0.366782 0.667508
2242 2 0.350735 0.388713 0.584364
3419 4 0.439141 0.356407 0.599622
3418 2 0.464172 0.359549 0.602626
3420 4 0.489204 0.362692 0.60563
3113 4 0.00425741 0.453843 0.645293
3112 2 0.0203835 0.454771 0.626105
3114 4 0.0365095 0.455699 0.606918
4215 4 0.0555507 0.463045 0.605371
998 4 0.0159761 0.44807 0.659427
4213 2 0.0738954 0.44838 0.605214
1909 2 0.128632 0.453421 0.589916
1911 4 0.104065 0.449011 0.595398
4214 4 0.0922402 0.433716 0.605058
1910 4 0.153199 0.45783 0.584433
4197 4 0.227464 0.465395 0.665087
4362 4 0.235693 0.480114 0.653271
3369 4 0.23849 0.441754 0.607525
4360 2 0.259494 0.48387 0.645047
3367 2 0.257163 0.442616 0.590795
4361 4 0.283294 0.487626 0.636823
3464 4 0.377329 0.488191 0.59327
3463 2 0.377396 0.484516 0.617996
3465 4 0.377463 0.480841 0.642722
2216 4 0.398272 0.482257 0.643011
2215 2 0.411334 0.485392 0.664347
1136 4 0.491556 0.425595 0.584816
269 4 0.102011 0.0397547 0.670186
268 2 0.126176 0.0372632 0.674572
270 4 0.150341 0.0347717 0.678959
4074 4 0.167611 0.0268393 0.679855
4072 2 0.191152 0.0282237 0.671049
2321 4 0.306338 0.0732678 0.742304
2320 2 0.331529 0.0775166 0.742084
2322 4 0.35672 0.0817653 0.741864
1023 4 0.372312 0.0341269 0.72556
1021 2 0.392622 0.0479883 0.716046
1022 4 0.412931 0.0618498 0.706531
2256 4 0.428634 0.0600468 0.693821
3125 4 0.012824 0.146471 0.698712
4371 4 0.025266 0.145559 0.683283
4369 2 0.0478232 0.157896 0.677456
1970 4 0.265163 0.0965973 0.695089
1969 2 0.281569 0.0910249 0.712429
1971 4 0.297975 0.0854524 0.729769
965 4 0.361719 0.0956076 0.728028
964 2 0.369582 0.116633 0.715505
966 4 0.377445 0.137658 0.702982
1005 4 0.393366 0.14087 0.690716
1003 2 0.415868 0.133356 0.686539
2254 2 0.436513 0.0843186 0.690114
1004 4 0.43837 0.125842 0.682362
2255 4 0.444393 0.10859 0.686408
2628 4 0.0318066 0.241101 0.685777
1011 4 0.0351027 0.19649 0.736963
4370 4 0.0703805 0.170233 0.671629
3062 4 0.0881691 0.174701 0.682159
3061 2 0.10984 0.171064 0.693185
3402 4 0.0466225 0.20007 0.721079
3400 2 0.0718252 0.20254 0.721033
3439 2 0.0696925 0.242859 0.677542
3440 4 0.0925454 0.236437 0.682318
3401 4 0.0970278 0.205011 0.720986
896 4 0.110729 0.246937 0.679662
3441 4 0.0468397 0.249282 0.672766
3063 4 0.131511 0.167427 0.704212
3167 4 0.150694 0.171856 0.707356
3166 2 0.171943 0.177134 0.720566
3168 4 0.193192 0.182413 0.733776
3001 2 0.225304 0.167269 0.724896
3003 4 0.250311 0.167349 0.724295
3002 4 0.200297 0.167189 0.725498
2174 4 0.261383 0.183446 0.732753
3239 4 0.345735 0.173704 0.676691
2173 2 0.281868 0.184093 0.718311
2175 4 0.302353 0.18474 0.703869
3240 4 0.297472 0.169071 0.691104
3238 2 0.321603 0.171388 0.683898
3351 4 0.363743 0.182447 0.681638
3349 2 0.384513 0.175335 0.691832
3350 4 0.405284 0.168222 0.702025
779 4 0.425661 0.17461 0.698007
778 2 0.436512 0.188919 0.716436
780 4 0.447362 0.203227 0.734865
923 4 0.0792589 0.323695 0.744311
897 4 0.157209 0.272102 0.678906
895 2 0.133969 0.25952 0.679284
1084 2 0.187193 0.296608 0.672413
1086 4 0.203116 0.316205 0.680303
3074 4 0.222586 0.294061 0.745898
3093 4 0.223221 0.320584 0.676662
3073 2 0.246296 0.305051 0.743072
3075 4 0.270005 0.316041 0.740246
1082 4 0.313334 0.259451 0.679503
3374 4 0.321826 0.313111 0.71092
3373 2 0.346861 0.314459 0.713244
3375 4 0.371895 0.315807 0.715568
3091 2 0.220926 0.339862 0.691844
3092 4 0.218631 0.359141 0.707025
3431 4 0.308326 0.414343 0.744087
807 4 0.354752 0.360551 0.686807
978 4 0.368738 0.36085 0.673012
977 4 0.410432 0.343523 0.68942
976 2 0.389585 0.352187 0.681216
885 4 0.431028 0.40165 0.721033
4559 4 0.42847 0.339602 0.696056
4558 2 0.453549 0.341792 0.693685
883 2 0.442106 0.39106 0.739952
4560 4 0.478628 0.343982 0.691315
3381 4 0.496148 0.348055 0.702304
1276 2 0.0689545 0.493993 0.738633
1096 2 0.00968961 0.488007 0.723166
997 2 0.00948586 0.448749 0.68354
1015 2 0.0162594 0.429718 0.735521
1278 4 0.0450547 0.498773 0.737607
999 4 0.00299558 0.449429 0.707653
820 2 0.136763 0.495581 0.739423
1007 4 0.131705 0.497179 0.695291
821 4 0.112677 0.485627 0.742
1277 4 0.0928543 0.489214 0.739658
1006 2 0.146758 0.485533 0.680625
4195 2 0.203677 0.46928 0.669561
4196 4 0.179891 0.473165 0.674036
1008 4 0.16181 0.473887 0.665959
2288 4 0.284538 0.496258 0.722123
3275 4 0.327107 0.425103 0.745536
3274 2 0.347372 0.426129 0.730743
3276 4 0.367638 0.427155 0.715951
4494 4 0.386444 0.431578 0.720336
4493 4 0.431816 0.417746 0.71115
2217 4 0.424396 0.488528 0.685682
4492 2 0.40913 0.424662 0.715743
2142 4 0.442832 0.49843 0.692738
2140 2 0.463858 0.487458 0.691905
1954 2 0.500277 0.436404 0.737532
1956 4 0.48366 0.417755 0.746248
2141 4 0.484884 0.476486 0.691072
4581 4 0.318392 0.0142276 0.78853
4579 2 0.29582 0.00345793 0.780722
2036 4 0.333748 0.00994408 0.775793
1167 4 0.198698 0.162059 0.826398
192 3 0.491938 0.102018 0.793227
193 3 0.486762 0.0910711 0.828986
1009 2 0.0154546 0.200198 0.751323
2979 4 0.00339812 0.190517 0.833169
3486 4 0.0186378 0.179863 0.828773
863 4 0.0876231 0.236731 0.835993
1690 2 0.171425 0.250098 0.822927
1691 4 0.191834 0.248295 0.808933