ITEM: TIMESTEP
2198500
ITEM: NUMBER OF ATOMS
4590
ITEM: BOX BOUNDS xy xz yz pp pp pp
-1.0598484200000001e+01 9.9985700000000008e+00 -5.9991420000000062e-01
-9.9985700000000008e+00 9.9985700000000008e+00 0.0000000000000000e+00
-9.9985700000000008e+00 9.9985700000000008e+00 0.0000000000000000e+00
ITEM: ATOMS id type xs ys zs
809 4 0.0291334 0.0520836 0.0320892
808 2 0.0407154 0.0732786 0.0395809
123 3 0.0676075 0.0324255 0.0725757
1875 4 0.180851 0.0689122 0.0691582
1653 4 0.192879 0.0795452 0.0568631
2469 4 0.255203 0.0689996 0.0609547
1651 2 0.217793 0.0805657 0.0546379
1652 4 0.242707 0.0815863 0.0524127
3068 4 0.403838 0.0283189 0.0262887
3269 4 0.4179 0.0266892 0.0121933
3067 2 0.387038 0.0152738 0.0126587
3069 4 0.370238 0.00222877 0.999029
3268 2 0.441892 0.0324798 0.00725903
3270 4 0.465883 0.0382705 0.00232477
1823 4 0.479064 0.0535345 0.00230566
2844 4 0.0244921 0.141575 0.038744
2784 4 0.00499651 0.133612 0.0334292
2842 2 0.0223833 0.163974 0.0495001
810 4 0.0522974 0.0944737 0.0470727
1275 4 0.060948 0.106041 0.0329847
1274 4 0.0640458 0.152201 0.0521418
1273 2 0.0624969 0.129121 0.0425632
2467 2 0.269835 0.0836905 0.075376
3285 4 0.0191097 0.202526 0.073539
2843 4 0.0202744 0.186373 0.0602563
2702 4 0.0690403 0.17053 0.0553518
2701 2 0.0844484 0.181881 0.0717627
1250 4 0.316848 0.193263 0.0815474
1247 4 0.318769 0.193265 0.0612017
1246 2 0.339611 0.193452 0.0473819
1248 4 0.360454 0.193639 0.0335621
2441 4 0.375254 0.207339 0.0394141
2440 2 0.396712 0.214456 0.0505143
2442 4 0.418169 0.221574 0.0616146
492 4 0.437672 0.225224 0.0622552
490 2 0.443955 0.211 0.0816933
1293 4 0.114513 0.331294 0.0319966
2640 4 0.0952122 0.332134 0.0303179
3216 4 0.405722 0.330386 0.0143545
462 4 0.435916 0.328528 0.0346848
460 2 0.456866 0.326599 0.0212649
461 4 0.477817 0.324669 0.00784507
766 2 0.0146576 0.377783 0.0800774
2639 4 0.071425 0.373583 0.0178173
2638 2 0.0833186 0.352858 0.0240676
1291 2 0.138306 0.337138 0.0377623
1292 4 0.162098 0.342982 0.043528
563 4 0.171787 0.349789 0.026912
562 2 0.186058 0.365727 0.0134613
3191 4 0.289574 0.403927 0.029127
2748 4 0.279326 0.362293 0.0747775
3190 2 0.2943 0.397789 0.005391
1120 2 0.302866 0.415084 0.060813
1121 4 0.324973 0.405229 0.0659294
3552 4 0.340595 0.41774 0.068739
671 4 0.408924 0.364972 0.082291
670 2 0.417611 0.355364 0.061024
672 4 0.426298 0.345755 0.0397569
2726 4 0.390144 0.370614 0.0820532
2934 4 0.415515 0.418103 0.0114041
1559 4 0.137446 0.500625 0.0323454
1558 2 0.14801 0.480166 0.0413834
1560 4 0.158574 0.459707 0.0504213
3576 4 0.17543 0.467271 0.0576733
3574 2 0.196165 0.475023 0.069704
2907 4 0.175403 0.437862 0.00439797
2905 2 0.192313 0.436255 0.0227005
2906 4 0.209224 0.434648 0.041003
3575 4 0.216901 0.482775 0.0817347
3230 4 0.222579 0.448411 0.0355587
1122 4 0.280758 0.424938 0.0556967
3229 2 0.246392 0.443928 0.0411794
3231 4 0.270206 0.439445 0.0468
3550 2 0.353763 0.435016 0.0816512
2514 4 0.367098 0.475836 0.0095572
903 4 0.383042 0.464166 0.0165842
901 2 0.403094 0.476029 0.0264096
902 4 0.423145 0.487892 0.0362351
133 3 0.438427 0.49724 0.0270003
2932 2 0.439317 0.424269 0.00597936
2933 4 0.463119 0.430434 0.000554622
3100 2 0.465345 0.456104 0.0672375
134 3 0.463133 0.494168 0.055636
3101 4 0.465748 0.474648 0.0504657
1871 4 0.479404 0.429696 0.0127001
3102 4 0.464942 0.43756 0.0840094
132 3 0.475421 0.497949 0.0202787
3918 4 0.0396471 0.0032604 0.0946011
125 3 0.0335439 0.0214351 0.0851807
122 3 0.0557522 0.0432609 0.106441
121 1 0.0551585 0.0260237 0.0912085
124 3 0.0642414 0.00732408 0.100992
3766 2 0.329618 0.03722 0.160317
3768 4 0.351971 0.0445724 0.151301
3767 4 0.307265 0.0298676 0.169334
2949 4 0.370615 0.0389649 0.150359
2947 2 0.389591 0.0500246 0.137898
2948 4 0.408567 0.0610842 0.125438
377 4 0.425231 0.0670695 0.115108
376 2 0.449785 0.0724033 0.113811
378 4 0.474339 0.077737 0.112514
2679 4 0.0331595 0.104692 0.115434
2677 2 0.0565308 0.108473 0.123799
2678 4 0.079902 0.112255 0.132164
332 4 0.146079 0.160143 0.0826559
2516 4 0.17954 0.0980172 0.125882
331 2 0.152057 0.139714 0.0954765
1873 2 0.168637 0.0848989 0.0835964
333 4 0.158036 0.119284 0.108297
1874 4 0.156423 0.100886 0.0980345
2515 2 0.188936 0.113039 0.143757
2517 4 0.198331 0.12806 0.161632
2616 4 0.216119 0.125576 0.152203
2614 2 0.233662 0.143501 0.156038
2615 4 0.251204 0.161426 0.159874
2478 4 0.27888 0.110735 0.14056
2465 4 0.347 0.0877679 0.111745
2464 2 0.325278 0.0933848 0.101047
2466 4 0.303556 0.0990018 0.09035
2468 4 0.284468 0.0983814 0.0897973
2476 2 0.301433 0.113753 0.15112
2477 4 0.323986 0.116771 0.161679
1373 4 0.364983 0.0908753 0.120233
1372 2 0.383163 0.103861 0.132067
1374 4 0.401343 0.116847 0.143902
582 4 0.416688 0.118919 0.156524
1477 2 0.448184 0.159171 0.114817
1479 4 0.44538 0.140713 0.131533
2717 4 0.485004 0.0941749 0.109883
748 2 0.474019 0.107666 0.15444
750 4 0.475056 0.12882 0.141117
557 4 0.103742 0.225053 0.13968
3210 4 0.0882033 0.219387 0.151597
556 2 0.122322 0.231129 0.123875
2703 4 0.0998565 0.193233 0.0881736
2781 4 0.117429 0.205503 0.0925464
654 4 0.156386 0.238752 0.0945239
558 4 0.140903 0.237204 0.108071
2779 2 0.137079 0.191022 0.0890658
2780 4 0.156728 0.176541 0.0855852
652 2 0.174027 0.242159 0.112016
653 4 0.191669 0.245566 0.129507
2975 4 0.19865 0.226913 0.134728
2974 2 0.222835 0.223268 0.130073
1251 4 0.275466 0.20824 0.104493
2976 4 0.247021 0.219624 0.125419
836 4 0.257414 0.213803 0.140733
835 2 0.257847 0.194481 0.15657
1249 2 0.296157 0.200751 0.0930203
2453 4 0.379119 0.199429 0.165084
2776 2 0.406031 0.194459 0.143768
2778 4 0.419784 0.202143 0.12419
2777 4 0.392279 0.186775 0.163346
491 4 0.450237 0.196776 0.101131
1478 4 0.450988 0.17763 0.0981015
2729 4 0.0299297 0.331423 0.154089
251 4 0.278977 0.321927 0.111702
287 4 0.269491 0.323743 0.0936279
250 2 0.285383 0.298331 0.115922
252 4 0.291788 0.274735 0.120141
768 4 0.0354776 0.374688 0.093429
2094 4 0.0397648 0.381506 0.111299
2092 2 0.040891 0.36384 0.128916
2093 4 0.0420173 0.346174 0.146533
2798 4 0.229648 0.404693 0.139817
2799 4 0.222925 0.358259 0.122036
2797 2 0.226287 0.381476 0.130927
286 2 0.251876 0.34025 0.0986008
2861 4 0.248322 0.405886 0.148033
288 4 0.234261 0.356756 0.103574
2725 2 0.365286 0.367523 0.0835568
2746 2 0.301807 0.361712 0.0856712
2727 4 0.340427 0.364432 0.0850604
2747 4 0.324288 0.361131 0.0965649
2860 2 0.268853 0.420765 0.147425
2862 4 0.289385 0.435645 0.146818
1863 4 0.307438 0.478039 0.117974
1861 2 0.322663 0.498318 0.117398
3948 4 0.327975 0.49405 0.151544
3819 4 0.338346 0.421875 0.161632
3551 4 0.366931 0.452292 0.0945633
678 4 0.429209 0.437879 0.150804
315 4 0.447985 0.438087 0.1439
313 2 0.452468 0.430783 0.120453
314 4 0.456951 0.423479 0.0970073
688 2 0.0139889 0.077518 0.222027
2573 4 0.0572112 0.0732732 0.226868
689 4 0.0381964 0.078259 0.22833
2572 2 0.0811948 0.0748962 0.21982
2574 4 0.105178 0.0765191 0.212772
1271 4 0.125525 0.0803843 0.214122
2545 2 0.198179 0.0408326 0.246958
2546 4 0.175964 0.028879 0.244808
398 4 0.141817 0.0040067 0.186465
2547 4 0.220393 0.0527862 0.249108
2737 2 0.259878 0.0644467 0.247851
2743 2 0.273874 0.00886993 0.190347
2738 4 0.283149 0.0669001 0.238849
2757 4 0.29883 0.0762266 0.232344
2745 4 0.291763 0.0237162 0.180321
2756 4 0.33873 0.0477943 0.23796
429 4 0.331332 0.02947 0.232787
427 2 0.321571 0.00630972 0.23535
2755 2 0.31878 0.0620105 0.235152
4352 4 0.420793 0.0438125 0.188819
4351 2 0.43878 0.0604059 0.182186
723 4 0.467216 0.0743838 0.227321
1505 4 0.490752 0.00277626 0.197992
4353 4 0.456766 0.0769994 0.175554
1270 2 0.145188 0.0963185 0.215926
1272 4 0.16485 0.112253 0.21773
3677 4 0.172935 0.114649 0.236202
3676 2 0.197363 0.111031 0.239376
3678 4 0.221791 0.107413 0.24255
2879 4 0.239289 0.11706 0.246626
606 4 0.349204 0.112466 0.244308
731 4 0.352678 0.108903 0.224789
730 2 0.37731 0.113944 0.224091
732 4 0.401941 0.118985 0.223393
580 2 0.410297 0.11483 0.180382
581 4 0.403907 0.11074 0.204239
749 4 0.472982 0.086512 0.167763
721 2 0.458194 0.0943237 0.238942
2929 2 0.492094 0.15174 0.187935
2930 4 0.467551 0.153226 0.183642
3208 2 0.100354 0.216192 0.173161
630 4 0.107117 0.229879 0.20288
628 2 0.118808 0.243222 0.22076
3209 4 0.112504 0.212998 0.194725
2180 4 0.130907 0.192363 0.249143
2179 2 0.155902 0.192375 0.249796
2788 2 0.217839 0.19527 0.233811
2789 4 0.23541 0.192788 0.216271
837 4 0.25828 0.175159 0.172408
2673 4 0.256052 0.19599 0.210244
2671 2 0.279375 0.204092 0.215426
2672 4 0.302698 0.212195 0.220609
2952 4 0.310809 0.197219 0.231601
2950 2 0.334224 0.198784 0.222843
2951 4 0.357638 0.200348 0.214086
2454 4 0.377197 0.206583 0.21453
2452 2 0.378158 0.203006 0.189807
2728 2 0.0460095 0.327388 0.172701
2753 4 0.0624592 0.310842 0.206349
2730 4 0.0620892 0.323353 0.191314
2752 2 0.0776432 0.327747 0.217484
629 4 0.130499 0.256565 0.23864
389 4 0.118364 0.271992 0.246072
388 2 0.11644 0.296735 0.248487
712 2 0.0143018 0.384268 0.213419
713 4 0.0332745 0.399178 0.205693
612 4 0.0474378 0.394534 0.192292
610 2 0.0722581 0.396407 0.189389
2754 4 0.0928272 0.344653 0.228619
611 4 0.0970783 0.39828 0.186487
2592 4 0.114704 0.408146 0.186396
2903 4 0.303914 0.390079 0.185695
2902 2 0.320897 0.380406 0.200968
2904 4 0.337879 0.370732 0.216241
2541 4 0.326093 0.358644 0.226979
587 4 0.325968 0.41139 0.247492
2539 2 0.344983 0.348039 0.238969
2590 2 0.13004 0.423346 0.19954
1746 4 0.138855 0.47814 0.230449
1744 2 0.149013 0.497824 0.242542
2591 4 0.145376 0.438547 0.212683
500 4 0.25488 0.419547 0.224765
645 4 0.271263 0.431752 0.226694
643 2 0.294609 0.441046 0.224104
499 2 0.244929 0.419779 0.247699
3947 4 0.298343 0.493653 0.191834
644 4 0.317955 0.45034 0.221514
3946 2 0.313159 0.493851 0.171689
753 4 0.33481 0.456277 0.21073
751 2 0.348913 0.474264 0.221578
3817 2 0.359495 0.427194 0.174136
752 4 0.363017 0.492252 0.232427
676 2 0.410173 0.442737 0.166089
3818 4 0.380644 0.432512 0.186639
677 4 0.391136 0.447595 0.181374
3699 4 0.0672631 0.0301939 0.309773
3697 2 0.072508 0.0106209 0.295349
546 4 0.116738 0.0739193 0.328207
249 4 0.136276 0.0733186 0.325379
3723 4 0.142309 0.0164801 0.304744
3721 2 0.155209 0.018965 0.283424
3722 4 0.168109 0.0214499 0.262104
2739 4 0.236607 0.0619933 0.256853
28 3 0.252269 0.0804642 0.318398
2115 4 0.267675 0.0607497 0.322901
1126 2 0.231655 0.046159 0.332589
1128 4 0.248624 0.0647455 0.329361
2113 2 0.283314 0.0491457 0.307574
1183 2 0.337318 0.039006 0.294459
1184 4 0.315099 0.04861 0.299592
2114 4 0.298953 0.0375417 0.292246
1185 4 0.359538 0.0294019 0.289326
342 4 0.379505 0.0333849 0.283234
340 2 0.400112 0.0407065 0.295723
341 4 0.420719 0.0480281 0.308212
2869 2 0.450885 0.999418 0.324713
2910 4 0.480262 0.0025302 0.306158
3477 4 0.439042 0.051246 0.310882
2908 2 0.490869 0.0170369 0.288515
3476 4 0.484479 0.0729628 0.306039
2909 4 0.501477 0.0315435 0.270872
3475 2 0.461761 0.0621044 0.30846
1244 4 0.489687 0.0795367 0.288324
1704 4 0.0193734 0.0823966 0.311063
530 4 0.0386455 0.0896698 0.317264
529 2 0.052379 0.100271 0.29902
531 4 0.0661125 0.110873 0.280776
4307 4 0.0832213 0.118504 0.273161
4306 2 0.107635 0.121615 0.278059
4308 4 0.132049 0.124727 0.282957
247 2 0.138957 0.091158 0.307991
248 4 0.141637 0.108998 0.290604
29 3 0.249303 0.117569 0.311253
26 1 0.257406 0.101899 0.326064
2878 2 0.263782 0.120462 0.250953
30 3 0.27997 0.1048 0.328295
405 4 0.290889 0.089888 0.324503
2880 4 0.288275 0.123863 0.255281
403 2 0.310942 0.103932 0.31798
605 4 0.305473 0.127392 0.262369
404 4 0.330995 0.117975 0.311456
604 2 0.327338 0.119929 0.253339
591 4 0.342805 0.127277 0.324892
589 2 0.366465 0.120356 0.327645
2849 4 0.407098 0.107877 0.321403
590 4 0.390126 0.113435 0.330398
2848 2 0.43176 0.107271 0.325369
722 4 0.449173 0.114264 0.250563
3571 2 0.496747 0.126811 0.33187
2850 4 0.456421 0.106665 0.329335
3572 4 0.474251 0.115548 0.32916
2955 4 0.0430914 0.243248 0.274148
1953 4 0.0617445 0.250759 0.274524
2790 4 0.200268 0.197752 0.251352
2181 4 0.180898 0.192387 0.25045
2946 4 0.234131 0.221685 0.30983
2944 2 0.220815 0.241192 0.316998
2953 2 0.0207792 0.252693 0.279187
390 4 0.114516 0.321479 0.250902
1951 2 0.0795431 0.255612 0.291554
2765 4 0.0974641 0.268182 0.327726
1952 4 0.0973417 0.260466 0.308584
717 4 0.0781527 0.31461 0.259132
715 2 0.0742302 0.326619 0.280641
2945 4 0.2075 0.2607 0.324166
345 4 0.287249 0.313407 0.329715
343 2 0.310022 0.31906 0.320642
344 4 0.332795 0.324713 0.311569
2681 4 0.35236 0.329491 0.311365
244 2 0.0201986 0.385289 0.328488
246 4 0.0422528 0.378754 0.319139
716 4 0.0703077 0.338628 0.302151
3989 4 0.209577 0.335093 0.252663
1436 4 0.167298 0.38928 0.325032
1435 2 0.188746 0.40114 0.318737
1437 4 0.210195 0.413001 0.312443
262 2 0.290504 0.385587 0.253253
3988 2 0.231255 0.348209 0.253024
264 4 0.270116 0.370583 0.251654
3990 4 0.252933 0.361326 0.253385
263 4 0.310891 0.400592 0.254853
2540 4 0.363872 0.337434 0.250959
1432 2 0.325861 0.381891 0.332964
1433 4 0.347867 0.388276 0.322544
3603 4 0.365588 0.386942 0.313093
2680 2 0.364245 0.333785 0.28972
3601 2 0.385381 0.400612 0.321007
2682 4 0.37613 0.33808 0.268075
1757 4 0.423657 0.412379 0.318801
3602 4 0.405175 0.414282 0.32892
1576 2 0.213927 0.484311 0.320121
1578 4 0.209182 0.499049 0.300599
681 4 0.225811 0.421408 0.324019
501 4 0.234978 0.420011 0.270634
586 2 0.345663 0.426843 0.251561
1156 2 0.299086 0.470276 0.278325
1157 4 0.298334 0.484115 0.299118
1158 4 0.299839 0.456437 0.257533
1802 4 0.366833 0.496161 0.251598
1801 2 0.356123 0.491226 0.273717
1803 4 0.345413 0.48629 0.295836
588 4 0.365358 0.442296 0.25563
1756 2 0.441522 0.420845 0.3032
1386 4 0.381881 0.454686 0.257778
1384 2 0.405984 0.461415 0.260724
1385 4 0.430086 0.468144 0.26367
1187 4 0.441738 0.481753 0.276681
1758 4 0.459386 0.429312 0.287599
1186 2 0.464981 0.490735 0.280772
544 2 0.105907 0.0531875 0.337755
545 4 0.0950755 0.0324558 0.347302
707 4 0.203732 0.0132964 0.344409
1127 4 0.214687 0.0275726 0.335817
1059 4 0.305044 0.00144284 0.358898
1057 2 0.328954 0.00280417 0.351576
1058 4 0.352864 0.0041655 0.344255
1524 4 0.423869 0.00391182 0.350782
1062 4 0.408474 0.0306637 0.401707
683 4 0.427363 0.0347617 0.397029
1522 2 0.39901 0.00196354 0.348271
2871 4 0.432234 0.0125254 0.334237
682 2 0.443243 0.0545261 0.39797
162 3 0.487472 0.0677451 0.375957
684 4 0.459124 0.0742905 0.39891
161 1 0.499124 0.0751511 0.35742
165 3 0.485642 0.0733529 0.339114
6 1 0.010349 0.157694 0.396195
8 3 0.0249954 0.142992 0.405922
27 3 0.247415 0.104735 0.346548
2715 4 0.46852 0.0915039 0.397473
2713 2 0.480485 0.104349 0.415531
2957 4 0.0276245 0.188007 0.369497
10 3 0.0213981 0.17077 0.380895
2956 2 0.0434453 0.205361 0.360013
2958 4 0.0592661 0.222715 0.35053
2654 4 0.067246 0.242398 0.347435
2822 4 0.103786 0.181364 0.390483
2821 2 0.123663 0.183928 0.375431
2823 4 0.143541 0.186492 0.360379
2543 4 0.156755 0.20222 0.359697
2542 2 0.180643 0.20675 0.366059
2544 4 0.204532 0.211281 0.372421
471 4 0.22309 0.21622 0.380032
469 2 0.246801 0.223128 0.375026
470 4 0.270512 0.230035 0.370021
3633 4 0.289395 0.238035 0.369535
3631 2 0.313684 0.243257 0.365591
2451 4 0.356048 0.248967 0.355485
3632 4 0.337973 0.248479 0.361646
2450 4 0.404726 0.247376 0.36662
2449 2 0.380387 0.248171 0.361053
479 4 0.482515 0.245322 0.336831
2698 2 0.445862 0.248695 0.360549
2699 4 0.467874 0.24485 0.34956
2655 4 0.0418241 0.284015 0.339861
2524 2 0.0110846 0.295962 0.352305
2526 4 0.0347114 0.29038 0.357583
2653 2 0.0545351 0.263206 0.343648
2764 2 0.119322 0.267729 0.339835
2766 4 0.141179 0.267277 0.351943
2534 4 0.156375 0.253505 0.349588
2533 2 0.178943 0.26324 0.343742
2535 4 0.201512 0.272976 0.337895
2529 4 0.2691 0.308551 0.33509
2494 2 0.250957 0.270495 0.404018
2496 4 0.243002 0.262145 0.381744
2528 4 0.253703 0.274737 0.369009
2527 2 0.261401 0.291644 0.35205
2712 4 0.360164 0.299287 0.383742
2710 2 0.357942 0.323478 0.378148
2700 4 0.423849 0.25254 0.371538
592 2 0.0254003 0.348922 0.392572
593 4 0.0499859 0.354055 0.393957
3318 4 0.0658457 0.354847 0.382228
3316 2 0.089338 0.362428 0.377082
3317 4 0.11283 0.370008 0.371937
669 4 0.118705 0.35601 0.358812
667 2 0.139829 0.365365 0.34865
668 4 0.160952 0.37472 0.338489
2598 4 0.19298 0.339379 0.35
2596 2 0.199382 0.363421 0.353855
2597 4 0.205785 0.387464 0.357711
415 2 0.289512 0.385719 0.379013
417 4 0.28834 0.377033 0.355584
1452 4 0.272351 0.400516 0.41104
416 4 0.290684 0.394405 0.402442
1434 4 0.303856 0.375506 0.343384
3884 4 0.312425 0.397909 0.404731
3593 4 0.360531 0.385572 0.410522
3592 2 0.362668 0.375339 0.38784
2711 4 0.355719 0.347668 0.372554
3594 4 0.364804 0.365105 0.365158
3641 4 0.435499 0.36007 0.406181
452 4 0.448405 0.359631 0.344531
451 2 0.462777 0.35985 0.364996
447 4 0.479465 0.402077 0.391254
453 4 0.477149 0.360069 0.38546
2831 4 0.494256 0.350693 0.388023
4323 4 0.461426 0.40417 0.383428
2691 4 0.0664328 0.439577 0.370577
2689 2 0.061491 0.463316 0.376025
2690 4 0.0565492 0.487055 0.381472
3935 4 0.0743187 0.494762 0.374888
4002 4 0.214486 0.477 0.357096
1577 4 0.218671 0.469573 0.339642
4000 2 0.225487 0.480607 0.379312
4001 4 0.236488 0.484214 0.401527
3618 4 0.250382 0.497628 0.402532
679 2 0.245928 0.43035 0.336318
680 4 0.266045 0.439292 0.348616
614 4 0.283504 0.448085 0.356281
1450 2 0.278241 0.42442 0.416238
613 2 0.30064 0.466786 0.35714
615 4 0.317775 0.485487 0.357998
2648 4 0.390889 0.476967 0.408249
2649 4 0.41495 0.4363 0.393835
2647 2 0.40292 0.456633 0.401042
4322 4 0.419623 0.42908 0.375077
4321 2 0.440524 0.416625 0.379252
445 2 0.495853 0.420311 0.397718
2455 2 0.0176 0.0357582 0.439384
2456 4 0.0378681 0.0450936 0.451153
2196 4 0.0126837 0.00457014 0.495485
1182 4 0.0547327 0.0553461 0.457676
1180 2 0.0736501 0.0720223 0.460484
2901 4 0.0897891 0.0162642 0.450524
3174 4 0.10247 0.0313727 0.456994
3172 2 0.12348 0.045328 0.459534
3173 4 0.144489 0.0592833 0.462073
1061 4 0.378962 0.00805069 0.435737
1060 2 0.393718 0.0193572 0.418722
2484 4 0.0320906 0.151844 0.42282
2482 2 0.0526631 0.163883 0.43129
1181 4 0.0925676 0.0886986 0.463292
764 4 0.149466 0.163636 0.470424
763 2 0.173976 0.159488 0.469379
765 4 0.198486 0.155339 0.468334
2684 4 0.208434 0.163135 0.451928
2685 4 0.253747 0.151063 0.468322
2586 4 0.255538 0.158473 0.48696
2683 2 0.23109 0.157099 0.460125
2584 2 0.278615 0.152202 0.493638
939 4 0.319354 0.153818 0.496862
2714 4 0.49245 0.117194 0.43359
2815 2 0.447521 0.150443 0.463408
2817 4 0.452622 0.127036 0.456804
2483 4 0.0732355 0.175923 0.43976
2800 2 0.109059 0.177792 0.461618
2801 4 0.0865345 0.183012 0.452478
2802 4 0.131583 0.172573 0.470757
937 2 0.339574 0.167836 0.490805
938 4 0.359793 0.181855 0.484749
365 4 0.293909 0.244204 0.457165
2816 4 0.44242 0.173851 0.470011
2560 2 0.100077 0.327038 0.439879
2561 4 0.115157 0.311938 0.452364
3455 4 0.119753 0.317418 0.47068
3454 2 0.14102 0.318607 0.483833
238 2 0.201246 0.313124 0.498081
3456 4 0.162288 0.319795 0.496987
1029 4 0.265716 0.327282 0.418461
240 4 0.224319 0.310395 0.489048
2636 4 0.236743 0.323037 0.477995
2635 2 0.243198 0.324174 0.453857
2637 4 0.249653 0.325311 0.429719
2495 4 0.258912 0.278845 0.426291
364 2 0.279993 0.263574 0.450855
366 4 0.266077 0.282943 0.444546
1027 2 0.290387 0.329348 0.422375
1028 4 0.315058 0.331413 0.426288
407 4 0.428714 0.279663 0.49692
3333 4 0.00854374 0.381872 0.466599
266 4 0.0260732 0.391919 0.467687
265 2 0.0471665 0.400525 0.456869
813 4 0.00994292 0.401781 0.493285
267 4 0.0682598 0.409131 0.446051
2562 4 0.0849978 0.342138 0.427393
347 4 0.0845456 0.39855 0.446286
346 2 0.0902553 0.378875 0.432201
348 4 0.0959649 0.3592 0.418115
3883 2 0.326476 0.40023 0.42533
3885 4 0.340528 0.402552 0.445929
560 4 0.356809 0.396893 0.451985
3422 4 0.40352 0.413116 0.470881
559 2 0.372999 0.412057 0.464137
3421 2 0.426623 0.406713 0.464436
3640 2 0.443215 0.377442 0.422662
3642 4 0.450931 0.394814 0.439143
3423 4 0.449726 0.400309 0.457992
811 2 0.0038545 0.422711 0.48137
1171 2 0.0337233 0.468535 0.466476
1173 4 0.0107191 0.458032 0.466184
1172 4 0.0567276 0.479039 0.466768
1451 4 0.284131 0.448324 0.421436
4044 4 0.344014 0.440844 0.483478
2741 4 0.35671 0.491275 0.425785
4042 2 0.320766 0.431558 0.486851
2926 2 0.318948 0.47419 0.422672
2927 4 0.298941 0.459309 0.427273
4043 4 0.297518 0.422271 0.490224
2928 4 0.338955 0.48907 0.418071
561 4 0.38919 0.42722 0.476289
2194 2 0.0298596 0.00412962 0.513638
2195 4 0.0470355 0.0036891 0.531791
2553 4 0.0660824 0.0104479 0.529126
2551 2 0.0800904 0.029357 0.538453
2552 4 0.0940985 0.0482661 0.54778
762 4 0.106899 0.052742 0.563676
760 2 0.123409 0.055219 0.582355
2809 2 0.0440444 0.0926706 0.523405
2810 4 0.0254497 0.0989357 0.508136
3110 4 0.0589481 0.0905644 0.557767
2811 4 0.0626391 0.0864055 0.538674
3109 2 0.0740745 0.099596 0.575737
1283 4 0.16204 0.165326 0.584054
2585 4 0.301692 0.14593 0.500315
2322 4 0.00991354 0.182827 0.55485
2320 2 0.0341082 0.18123 0.54894
2321 4 0.0583028 0.179633 0.543029
965 4 0.00345545 0.193844 0.569822
3237 4 0.0717099 0.167862 0.553067
3235 2 0.0962075 0.170936 0.548582
3236 4 0.120705 0.174009 0.544096
1284 4 0.133646 0.187315 0.549804
1282 2 0.147843 0.17632 0.566929
2846 4 0.0464221 0.3024 0.532197
2845 2 0.0224108 0.305175 0.52612
3044 4 0.0632021 0.311037 0.539095
3043 2 0.0839465 0.325288 0.536042
239 4 0.178173 0.315852 0.507114
406 2 0.412053 0.297175 0.50173
408 4 0.395393 0.314687 0.50654
803 4 0.444096 0.27706 0.509472
802 2 0.466106 0.272542 0.520165
804 4 0.488116 0.268023 0.530858
1238 4 0.497523 0.278723 0.546203
3963 4 0.0197128 0.388858 0.503649
3961 2 0.0416892 0.38857 0.515555
3962 4 0.0636656 0.388282 0.527461
3045 4 0.104691 0.339539 0.532989
4179 4 0.0761083 0.403712 0.532613
4177 2 0.0991454 0.401287 0.541845
1641 4 0.118339 0.353471 0.537158
4178 4 0.122182 0.398863 0.551077
1639 2 0.136456 0.363747 0.522929
1446 4 0.135443 0.41209 0.544605
1640 4 0.154573 0.374023 0.5087
1911 4 0.17527 0.373766 0.508255
1909 2 0.195916 0.388463 0.509217
3492 4 0.215895 0.391982 0.570855
1910 4 0.216563 0.403161 0.510179
3490 2 0.19652 0.402088 0.58251
662 4 0.235778 0.405434 0.506018
661 2 0.260115 0.411938 0.505774
3452 4 0.479464 0.411191 0.54053
3451 2 0.477468 0.388259 0.550409
3453 4 0.475473 0.365328 0.560288
1698 4 0.492529 0.417593 0.527782
1444 2 0.156675 0.422036 0.535223
1445 4 0.177908 0.431982 0.525841
663 4 0.284452 0.418443 0.50553
3071 4 0.382979 0.47448 0.550066
3070 2 0.407224 0.481321 0.550763
3072 4 0.431469 0.488163 0.55146
3360 4 0.0103222 0.00770155 0.593219
4326 4 0.0160192 0.0277742 0.591168
4324 2 0.0387758 0.0381392 0.594903
4325 4 0.0615325 0.0485042 0.598638
3294 4 0.0830068 0.0627287 0.661855
761 4 0.139919 0.0576961 0.601035
3021 4 0.155246 0.0702184 0.608726
4227 4 0.276672 0.00918561 0.609326
3082 2 0.499406 0.0575847 0.605951
2283 4 0.43612 0.0614601 0.650908
2281 2 0.452606 0.069539 0.633701
2282 4 0.469092 0.0776178 0.616495
3083 4 0.476017 0.0594893 0.614425
3111 4 0.089201 0.108628 0.593707
3267 4 0.10417 0.120298 0.599826
3265 2 0.111461 0.132418 0.62057
3266 4 0.118752 0.144538 0.641314
145 3 0.136695 0.139112 0.644546
141 1 0.149608 0.1535 0.65703
3019 2 0.167747 0.0921084 0.606332
1105 2 0.188423 0.149037 0.617388
3020 4 0.180247 0.113998 0.603937
1107 4 0.194624 0.128192 0.605386
142 3 0.165323 0.163896 0.643472
1076 4 0.260933 0.116334 0.664091
966 4 0.0109755 0.205709 0.617869
964 2 0.0072155 0.199777 0.593845
2175 4 0.0271887 0.21177 0.630054
2173 2 0.0486613 0.214281 0.642744
2174 4 0.0701339 0.216791 0.655434
3003 4 0.0798966 0.232452 0.664286
1106 4 0.182222 0.169882 0.62939
3387 4 0.201493 0.179171 0.623948
3385 2 0.223801 0.190893 0.621553
2243 4 0.257053 0.218343 0.611474
3386 4 0.246108 0.202614 0.619159
2242 2 0.279598 0.229849 0.611348
2244 4 0.302143 0.241354 0.611223
806 4 0.323011 0.244214 0.60896
1154 4 0.00722447 0.258138 0.646016
1153 2 0.0310123 0.265594 0.649802
1155 4 0.0548001 0.273049 0.653587
1257 4 0.0736259 0.269696 0.657653
1255 2 0.0982806 0.271017 0.661841
1256 4 0.122935 0.272338 0.666028
959 4 0.135891 0.278441 0.649971
958 2 0.160299 0.277321 0.655118
960 4 0.184708 0.276202 0.660265
3239 4 0.204205 0.281584 0.666788
3093 4 0.262793 0.273693 0.658716
3238 2 0.228847 0.286541 0.665942
3240 4 0.253489 0.291497 0.665096
805 2 0.343296 0.258489 0.60375
977 4 0.423002 0.298133 0.590047
807 4 0.363581 0.272763 0.598541
978 4 0.379038 0.280975 0.607897
976 2 0.40102 0.289554 0.598972
3446 4 0.0213587 0.36233 0.638037
3445 2 0.0412129 0.37753 0.633809
3447 4 0.0610672 0.392729 0.629581
3353 4 0.00433438 0.357358 0.646831
3352 2 0.012347 0.341487 0.664188
2721 4 0.0815247 0.39468 0.626317
2719 2 0.0943411 0.405691 0.60766
3221 4 0.123574 0.413533 0.599383
2720 4 0.107158 0.416701 0.589003
3491 4 0.177145 0.412193 0.594164
3113 4 0.479658 0.360314 0.647186
1067 4 0.469504 0.365906 0.664433
3119 4 0.0197769 0.473078 0.629717
3118 2 0.0444411 0.477452 0.631765
1206 4 0.0195037 0.474603 0.608875
3120 4 0.0691052 0.481826 0.633814
4302 4 0.0804532 0.46686 0.639521
4300 2 0.097123 0.464606 0.657959
4131 4 0.132278 0.495489 0.615843
4092 4 0.148801 0.48742 0.612016
3220 2 0.146927 0.422279 0.595447
3222 4 0.170281 0.431026 0.591512
4090 2 0.172432 0.495112 0.616312
3308 4 0.0126798 0.0279744 0.680868
4115 4 0.0327763 0.0241225 0.682343
4114 2 0.0492504 0.0429432 0.678117
4116 4 0.0657246 0.0617639 0.673891
3292 2 0.106728 0.0687214 0.667777
3293 4 0.13045 0.0747141 0.673699
3487 2 0.269835 0.00589085 0.748675
3612 4 0.208973 0.0346375 0.679124
3610 2 0.233608 0.0359099 0.683433
3611 4 0.258244 0.0371822 0.687741
4503 4 0.26097 0.0167878 0.68737
3438 4 0.228891 0.00591396 0.736232
4501 2 0.285523 0.0153571 0.691639
3104 4 0.314401 0.013944 0.677066
4502 4 0.310075 0.0139265 0.695909
3103 2 0.339384 0.0134326 0.677044
3105 4 0.364367 0.0129212 0.677021
1021 2 0.00861348 0.146593 0.682391
1023 4 0.0335556 0.148737 0.681089
1082 4 0.0531353 0.150725 0.684936
1081 2 0.0775394 0.156439 0.682631
1083 4 0.101943 0.162152 0.680326
954 4 0.148099 0.0830289 0.66845
143 3 0.160531 0.141849 0.67363
2978 4 0.176397 0.147243 0.682436
952 2 0.171941 0.0893738 0.673503
2977 2 0.195402 0.154023 0.697459
953 4 0.195783 0.0957186 0.678555
1075 2 0.238132 0.108098 0.671069
2979 4 0.214408 0.160803 0.712482
1077 4 0.215331 0.0998624 0.678047
1084 2 0.249351 0.165919 0.730373
1085 4 0.274172 0.164067 0.732066
897 4 0.293507 0.163009 0.72823
1013 4 0.356311 0.159096 0.735133
1012 2 0.377514 0.146557 0.733632
1014 4 0.398718 0.134018 0.732131
144 3 0.136405 0.169626 0.66657
3001 2 0.0898701 0.217182 0.681114
3002 4 0.0998436 0.201911 0.697942
3382 2 0.1164 0.229017 0.739539
3164 4 0.121736 0.169953 0.682102
3163 2 0.12812 0.172697 0.706142
3384 4 0.131141 0.230961 0.719394
3165 4 0.134503 0.17544 0.730183
3108 4 0.14946 0.168444 0.740077
921 4 0.144364 0.246375 0.716566
1086 4 0.224529 0.167771 0.72868
896 4 0.342923 0.171897 0.730695
384 4 0.305041 0.223703 0.741652
895 2 0.318215 0.167453 0.729463
382 2 0.312384 0.247793 0.742683
2972 4 0.449604 0.219916 0.693523
2971 2 0.469746 0.229963 0.704953
2973 4 0.489887 0.24001 0.716383
3354 4 0.0203596 0.325617 0.681545
3375 4 0.0385878 0.331113 0.685754
3373 2 0.0619896 0.332338 0.694572
919 2 0.168724 0.25275 0.715892
920 4 0.193083 0.259124 0.715218
867 4 0.205525 0.274373 0.721376
3091 2 0.28589 0.279689 0.66672
865 2 0.221441 0.28203 0.739279
3092 4 0.308986 0.285684 0.674724
3435 4 0.330063 0.286381 0.677835
383 4 0.319728 0.271882 0.743714
3433 2 0.32809 0.282944 0.70253
3434 4 0.326117 0.279507 0.727226
801 4 0.0471798 0.417921 0.699645
3374 4 0.0853914 0.333562 0.703391
1017 4 0.0941609 0.352727 0.704786
1015 2 0.117204 0.362515 0.701342
1016 4 0.140247 0.372303 0.697898
1007 4 0.148745 0.417274 0.746463
4493 4 0.334676 0.401508 0.700798
1098 4 0.34755 0.414542 0.70938
4492 2 0.315526 0.41611 0.706114
1299 4 0.383887 0.355715 0.723897
1297 2 0.408462 0.357775 0.719423
1298 4 0.433038 0.359836 0.71495
1068 4 0.433244 0.352684 0.69668
1066 2 0.451374 0.359295 0.680557
800 4 0.00979266 0.421244 0.666715
799 2 0.0284862 0.419583 0.68318
1955 4 0.0655424 0.424097 0.692355
4301 4 0.113793 0.462352 0.676397
1954 2 0.0838077 0.42768 0.709167
1956 4 0.102073 0.431264 0.725979
1008 4 0.0998467 0.426346 0.745694
1006 2 0.124296 0.42181 0.746078
273 4 0.271427 0.483621 0.738768
271 2 0.282462 0.467026 0.724044
4494 4 0.296376 0.430712 0.71143
272 4 0.293496 0.450432 0.709321
4436 4 0.349463 0.501041 0.720197
4435 2 0.357813 0.499113 0.696729
4437 4 0.366164 0.497184 0.67326
1096 2 0.369538 0.421666 0.719398
1097 4 0.391525 0.428789 0.729417
2120 4 0.435989 0.493375 0.747683
1024 2 0.0186178 0.0634153 0.757135
209 3 0.0288954 0.0721345 0.82446
210 3 0.0360018 0.04752 0.79707
206 1 0.0382817 0.0518331 0.819328
1025 4 0.0421308 0.0720041 0.760393
208 3 0.0279453 0.0348206 0.831674
2063 4 0.128518 0.0145244 0.753208
207 3 0.0606539 0.0529737 0.824701
2306 4 0.0618102 0.0702471 0.762001
2305 2 0.0850376 0.0785083 0.767375
4525 2 0.158156 0.00133432 0.813008
4527 4 0.169706 0.012622 0.793719
818 4 0.180059 0.0256851 0.782066
817 2 0.200189 0.0410412 0.783647
887 4 0.23816 0.067368 0.785748
819 4 0.220319 0.0563973 0.785228
3488 4 0.294165 0.0108213 0.75269
1217 4 0.315249 0.0104636 0.755462
1216 2 0.340196 0.0130268 0.755166
1218 4 0.365143 0.01559 0.75487
2001 4 0.384831 0.0229724 0.757132
1999 2 0.405203 0.0362167 0.764256
2000 4 0.425576 0.0494609 0.77138
3282 4 0.444515 0.0581192 0.768432
3554 4 0.477028 0.01009 0.776822
3553 2 0.496159 0.0266611 0.778656
3280 2 0.465134 0.0716473 0.774232
1266 4 0.0028705 0.152345 0.757227
2307 4 0.108265 0.0867695 0.77275
4442 4 0.128399 0.0906309 0.773692
4441 2 0.147458 0.107228 0.775979
4443 4 0.166517 0.123824 0.778265
1208 4 0.186732 0.129122 0.779669
1207 2 0.198425 0.151024 0.784535
886 2 0.23831 0.0908424 0.794341
888 4 0.23846 0.114317 0.802934
3281 4 0.485752 0.0851753 0.780032
533 4 0.434077 0.122455 0.785948
532 2 0.448064 0.133683 0.803634
534 4 0.462051 0.144911 0.821321
1607 4 0.477882 0.157265 0.825384
3228 4 0.105937 0.244106 0.769365
3226 2 0.104896 0.239856 0.793988
3383 4 0.101659 0.227072 0.759684