ITEM: TIMESTEP
1836000
ITEM: NUMBER OF ATOMS
4590
ITEM: BOX BOUNDS xy xz yz pp pp pp
-1.5597769199999988e+01 9.9985700000000008e+00 -5.5991991999999868e+00
-9.9985700000000008e+00 9.9985700000000008e+00 0.0000000000000000e+00
-9.9985700000000008e+00 9.9985700000000008e+00 0.0000000000000000e+00
ITEM: ATOMS id type xs ys zs
3909 4 0.0020737 0.00760719 0.073849
1761 4 0.351422 0.0446498 0.0818083
1759 2 0.353864 0.023909 0.0705412
1760 4 0.356305 0.0031682 0.0592741
2465 4 0.11364 0.0809379 0.0864635
109 3 0.0128942 0.24499 0.0048953
456 4 0.0154008 0.194874 0.0719992
107 3 0.0137827 0.24424 0.042457
454 2 0.0410906 0.204747 0.0705362
455 4 0.0667804 0.21462 0.0690732
101 1 0.10885 0.215863 0.0698088
102 3 0.0881338 0.221187 0.0725725
104 3 0.115605 0.219229 0.0475989
103 3 0.105758 0.193597 0.0755325
279 4 0.111642 0.178103 0.0675517
277 2 0.131516 0.173493 0.0550628
105 3 0.125228 0.229202 0.0832575
3140 4 0.216963 0.169132 0.0251879
278 4 0.15139 0.168884 0.042574
3141 4 0.171926 0.173935 0.0432547
3139 2 0.194445 0.171534 0.0342213
621 4 0.235688 0.172491 0.035543
619 2 0.261196 0.174634 0.0359595
620 4 0.286704 0.176777 0.036376
2966 4 0.305817 0.175236 0.0383636
2965 2 0.330514 0.17602 0.0434063
2967 4 0.355211 0.176804 0.0484491
3242 4 0.36597 0.194697 0.0395225
3241 2 0.390751 0.205192 0.0456838
3243 4 0.415532 0.215687 0.0518451
2843 4 0.45957 0.170398 0.0724266
3284 4 0.437358 0.21943 0.0523805
3283 2 0.442565 0.200841 0.0654655
3285 4 0.447772 0.182252 0.0785505
2842 2 0.481531 0.170715 0.0603165
2640 4 0.00895085 0.314413 0.028506
106 1 0.00417147 0.251976 0.0242749
108 3 0.0100334 0.275158 0.0250559
1293 4 0.0301719 0.324745 0.0306257
1291 2 0.0490603 0.332192 0.0136735
3214 2 0.269487 0.329889 0.0243069
3215 4 0.290788 0.321675 0.0234744
2403 4 0.312146 0.328838 0.0202853
967 2 0.399391 0.297589 0.00576997
969 4 0.410016 0.292688 0.0271531
462 4 0.431001 0.295688 0.0240192
460 2 0.456345 0.30652 0.0208456
1841 4 0.475265 0.262011 0.0151117
461 4 0.481689 0.317351 0.0176721
1079 4 0.496365 0.32218 0.00241757
789 4 0.0961165 0.403118 0.00931873
3191 4 0.116951 0.412353 0.015137
3190 2 0.135781 0.406344 0.0281101
3192 4 0.154611 0.400335 0.0410832
1122 4 0.175928 0.408391 0.0420159
1120 2 0.193324 0.405515 0.058917
1121 4 0.210719 0.402638 0.075818
3216 4 0.248186 0.338104 0.0251394
2726 4 0.310425 0.400931 0.0596401
671 4 0.297815 0.382794 0.0591949
670 2 0.312061 0.368724 0.049374
2725 2 0.302365 0.410904 0.079838
672 4 0.326307 0.354653 0.0395531
4304 4 0.405871 0.392475 0.0561142
4303 2 0.424094 0.405284 0.0404016
597 4 0.454052 0.405081 0.0302311
595 2 0.478591 0.404596 0.0342399
3102 4 0.0257669 0.460019 0.0470886
3256 2 0.0171404 0.426964 0.00648831
3100 2 0.0511337 0.468034 0.0522172
3900 4 0.0582267 0.450817 0.0028978
3101 4 0.0765005 0.476049 0.0573458
1871 4 0.0944716 0.485157 0.049286
1870 2 0.119134 0.484729 0.0525806
1872 4 0.143796 0.484301 0.0558752
3670 2 0.154451 0.452899 0.0840045
3672 4 0.164169 0.440714 0.0665598
2582 4 0.181595 0.451547 0.0566406
2581 2 0.207084 0.461353 0.0532137
2583 4 0.232574 0.47116 0.0497868
3636 4 0.246995 0.474171 0.0632283
3634 2 0.270967 0.475872 0.0716078
3635 4 0.294939 0.477573 0.0799872
2998 2 0.373713 0.497659 0.0689599
3000 4 0.379465 0.488 0.0475034
3390 4 0.379534 0.469496 0.0425363
3388 2 0.380325 0.445755 0.0400408
3389 4 0.381115 0.422014 0.0375452
4305 4 0.442317 0.418093 0.0246891
2467 2 0.017209 0.0577048 0.0942934
3907 2 0.000593895 0.999803 0.097593
2468 4 0.0430284 0.0668345 0.0934704
2466 4 0.0618055 0.0677085 0.0834256
2464 2 0.0877227 0.0743232 0.0849445
1372 2 0.102899 0.0598176 0.13579
1374 4 0.0844365 0.0678408 0.147277
2947 2 0.157951 0.0818815 0.0908762
1373 4 0.121361 0.0517944 0.124303
2948 4 0.181709 0.0789775 0.0944791
2745 4 0.170739 0.042584 0.156522
377 4 0.198842 0.0741161 0.101296
376 2 0.22408 0.0756084 0.103927
378 4 0.249318 0.0771006 0.106557
3048 4 0.283959 0.0343214 0.0998987
4352 4 0.293777 0.0404552 0.167832
3046 2 0.309219 0.0412181 0.094124
722 4 0.302509 0.0291868 0.154847
3047 4 0.33448 0.0481147 0.0883494
721 2 0.328159 0.0371958 0.151224
723 4 0.353809 0.0452047 0.1476
2520 4 0.372617 0.0571101 0.14121
2693 4 0.394185 0.0108619 0.123773
2518 2 0.395616 0.0608153 0.129846
2519 4 0.418615 0.0645206 0.118482
3809 4 0.438 0.0636951 0.111698
2692 2 0.415643 0.0168143 0.137847
2694 4 0.437101 0.0227667 0.15192
3808 2 0.463704 0.0672485 0.113127
1506 4 0.455863 0.022279 0.158542
3810 4 0.489407 0.0708018 0.114556
1504 2 0.480057 0.0372869 0.159095
1749 4 0.0260529 0.145262 0.164177
1478 4 0.0147147 0.145535 0.148925
1747 2 0.0519934 0.151261 0.16497
522 4 0.0894437 0.10758 0.143155
520 2 0.100385 0.120711 0.123156
521 4 0.111326 0.133843 0.103156
624 4 0.130205 0.133975 0.110228
2949 4 0.134192 0.0847856 0.0872732
622 2 0.156032 0.143168 0.110248
623 4 0.181859 0.15236 0.110268
357 4 0.196217 0.152312 0.0971401
355 2 0.221071 0.15229 0.0998184
2717 4 0.266745 0.0902593 0.113501
356 4 0.245924 0.152267 0.102497
758 4 0.260544 0.1585 0.116741
757 2 0.281133 0.151063 0.109265
759 4 0.301721 0.143626 0.101789
2716 2 0.291244 0.0930571 0.120914
2718 4 0.315742 0.0958549 0.128326
2599 2 0.337663 0.151204 0.156827
2600 4 0.351532 0.138751 0.143833
2895 4 0.364829 0.148604 0.128675
392 4 0.328809 0.101725 0.143021
391 2 0.350225 0.103717 0.156663
2893 2 0.387535 0.143053 0.126267
2894 4 0.410242 0.137502 0.123859
23 3 0.423181 0.14678 0.109199
1566 4 0.427673 0.114925 0.127603
24 3 0.451892 0.15299 0.0831535
1564 2 0.453134 0.116896 0.128519
21 1 0.443655 0.161559 0.101911
25 3 0.459849 0.165148 0.118496
1565 4 0.478595 0.118867 0.129435
354 4 0.487918 0.133304 0.117287
914 4 0.145014 0.236287 0.0928996
913 2 0.17086 0.245233 0.0923325
2729 4 0.246737 0.242637 0.14095
629 4 0.424264 0.240096 0.0939079
3209 4 0.43477 0.226561 0.149452
628 2 0.435294 0.240694 0.116421
3208 2 0.442775 0.20649 0.15551
3210 4 0.450779 0.186419 0.161569
22 3 0.43926 0.181518 0.0963314
557 4 0.467481 0.191043 0.149312
630 4 0.446324 0.241292 0.138933
556 2 0.489958 0.194344 0.137075
915 4 0.196707 0.254178 0.0917655
2728 2 0.230033 0.254835 0.149412
2753 4 0.197423 0.253425 0.165565
449 4 0.217429 0.258846 0.0905593
448 2 0.243241 0.262953 0.0908897
2730 4 0.21333 0.267033 0.157874
450 4 0.269053 0.26706 0.0912201
768 4 0.0156554 0.37585 0.126804
2094 4 0.0299353 0.383156 0.139827
2092 2 0.0494075 0.374349 0.14797
2093 4 0.0688798 0.365542 0.156113
2917 2 0.181952 0.403704 0.144218
2918 4 0.170235 0.382266 0.155749
2746 2 0.248541 0.411036 0.0960423
251 4 0.218597 0.35335 0.115618
250 2 0.239634 0.35712 0.130169
287 4 0.252538 0.353102 0.162269
2748 4 0.222985 0.407188 0.0927006
252 4 0.26067 0.360891 0.14472
2747 4 0.274097 0.414884 0.0993841
314 4 0.0159932 0.444272 0.101449
313 2 0.0399601 0.445063 0.109241
315 4 0.0639271 0.445854 0.117032
4211 4 0.0752728 0.441859 0.100881
4210 2 0.100311 0.453853 0.0975163
4212 4 0.125349 0.465846 0.0941513
3671 4 0.144734 0.465084 0.101449
72 3 0.163827 0.479222 0.106742
71 1 0.181956 0.494603 0.116817
74 3 0.180487 0.491264 0.139773
75 3 0.202409 0.491828 0.109053
2919 4 0.19367 0.425141 0.132687
647 4 0.217076 0.479356 0.113456
646 2 0.215156 0.455615 0.119717
648 4 0.213237 0.431874 0.125977
1572 4 0.227958 0.49519 0.10399
2912 4 0.312886 0.466563 0.127496
2727 4 0.294304 0.420876 0.100036
2911 2 0.332654 0.481188 0.114624
2913 4 0.352421 0.495812 0.101752
3721 2 0.00713723 0.0233065 0.243115
2838 4 0.0571975 0.0768342 0.185146
605 4 0.069832 0.0814466 0.201236
125 3 0.0368417 0.0237338 0.19337
121 1 0.0572846 0.0184738 0.190102
123 3 0.0567726 0.00748083 0.16983
122 3 0.0751537 0.0378097 0.189705
2854 2 0.0807075 0.00249072 0.232697
124 3 0.0610989 0.0050225 0.207423
2856 4 0.100118 0.0160161 0.246774
3767 4 0.175897 0.0296765 0.168511
2744 4 0.132901 0.0552887 0.181536
2940 4 0.115981 0.00983946 0.239384
2743 2 0.15182 0.0489363 0.169029
2938 2 0.135766 0.00325645 0.228705
3766 2 0.200964 0.0299405 0.167837
2756 4 0.210868 0.0378923 0.242692
3768 4 0.226032 0.0302045 0.167163
4353 4 0.242966 0.0320999 0.176858
429 4 0.223088 0.05653 0.235899
427 2 0.246853 0.0640349 0.225921
428 4 0.270618 0.0715398 0.215944
4351 2 0.268372 0.0362776 0.172345
112 3 0.464669 0.00336432 0.202649
113 3 0.497799 0.0140514 0.222401
414 4 0.00560929 0.166437 0.220321
420 4 0.032008 0.128713 0.247692
418 2 0.0297271 0.121702 0.223693
2837 4 0.0232098 0.104247 0.181495
419 4 0.0274462 0.114691 0.199695
2836 2 0.0402036 0.0905408 0.18332
2880 4 0.00941498 0.120402 0.249113
177 3 0.054724 0.136273 0.248878
1748 4 0.077934 0.15726 0.165763
459 4 0.0931739 0.149741 0.172799
604 2 0.0724852 0.0871151 0.225565
749 4 0.0842298 0.0888158 0.170135
457 2 0.118333 0.150697 0.174964
748 2 0.107166 0.0914731 0.181343
750 4 0.130103 0.0941303 0.192551
458 4 0.143492 0.151653 0.17713
582 4 0.14801 0.0888408 0.19801
580 2 0.149846 0.0956303 0.222074
581 4 0.151682 0.10242 0.246138
237 4 0.163483 0.161791 0.184589
2601 4 0.323793 0.163657 0.169821
393 4 0.371642 0.105709 0.170305
283 2 0.0250184 0.219948 0.236619
412 2 0.0153285 0.176506 0.198499
413 4 0.0250476 0.186575 0.176677
284 4 0.0416183 0.218801 0.218247
180 3 0.0799204 0.167137 0.235984
235 2 0.188978 0.172945 0.185138
236 4 0.214472 0.1841 0.185686
579 4 0.234399 0.183212 0.189733
577 2 0.25854 0.181182 0.192972
578 4 0.282681 0.179152 0.196211
387 4 0.301227 0.179104 0.19816
385 2 0.327075 0.187345 0.196388
386 4 0.352923 0.195585 0.194616
276 4 0.372803 0.204413 0.20052
274 2 0.396076 0.200906 0.205479
275 4 0.419348 0.197399 0.210439
497 4 0.438737 0.210292 0.212777
496 2 0.463527 0.209573 0.212453
498 4 0.488317 0.208853 0.212128
756 4 0.0282949 0.26186 0.184626
754 2 0.0472198 0.262283 0.201098
476 4 0.0617183 0.270936 0.234483
755 4 0.0661448 0.262706 0.21757
2798 4 0.176468 0.286029 0.204321
2754 4 0.165511 0.268097 0.196998
2799 4 0.209711 0.330549 0.213653
2797 2 0.193089 0.308289 0.208987
2752 2 0.181467 0.260761 0.181281
2590 2 0.0259483 0.376446 0.221126
2591 4 0.0516096 0.385185 0.224276
2862 4 0.0730456 0.386497 0.221801
2860 2 0.0982284 0.389473 0.216962
2861 4 0.123411 0.392448 0.212122
3988 2 0.168678 0.396046 0.216152
3990 4 0.144105 0.397289 0.21454
3989 4 0.193251 0.394803 0.217765
677 4 0.214448 0.400716 0.219159
288 4 0.22946 0.337987 0.206053
676 2 0.235446 0.392607 0.21492
286 2 0.240999 0.345545 0.184161
678 4 0.256445 0.384499 0.210681
740 4 0.267969 0.382719 0.195009
739 2 0.293235 0.389385 0.200773
3705 4 0.339296 0.403777 0.204571
741 4 0.318501 0.396051 0.206537
3703 2 0.364341 0.409507 0.198023
229 2 0.204527 0.471624 0.223917
230 4 0.179691 0.45997 0.219019
231 4 0.229363 0.483279 0.228814
4368 4 0.240121 0.496633 0.241295
775 2 0.250925 0.448176 0.213305
3818 4 0.231949 0.433146 0.244606
777 4 0.240642 0.428118 0.227486
776 4 0.261209 0.468233 0.199124
1857 4 0.309706 0.494246 0.170298
3831 4 0.319985 0.49046 0.185913
3704 4 0.389387 0.415237 0.191476
303 4 0.407305 0.418922 0.204153
301 2 0.431043 0.421337 0.194798
302 4 0.454781 0.423752 0.185443
1664 4 0.475243 0.435846 0.189123
1663 2 0.49982 0.438701 0.196312
28 3 0.00592482 0.0469634 0.27012
26 1 0.00090868 0.0670791 0.274633
30 3 0.00741551 0.0737272 0.295913
29 3 0.0124299 0.0832911 0.259571
3722 4 0.0274231 0.0223274 0.257311
2546 4 0.0468475 0.0328964 0.26047
2545 2 0.0699241 0.0419922 0.271469
2547 4 0.0930007 0.0510881 0.282468
2739 4 0.102958 0.0480299 0.264901
2737 2 0.127759 0.0477103 0.262547
2114 4 0.118781 0.00631979 0.327989
1184 4 0.138404 0.0168585 0.327747
2757 4 0.172091 0.056591 0.257318
2738 4 0.15256 0.0473907 0.260193
1183 2 0.162195 0.0324207 0.325435
1185 4 0.185987 0.0479828 0.323124
2755 2 0.191479 0.0472416 0.250005
342 4 0.206964 0.0485544 0.32426
3927 4 0.202858 0.017148 0.27232
3925 2 0.228359 0.0246603 0.276941
3926 4 0.253859 0.0321727 0.281562
340 2 0.23253 0.0557687 0.328591
3699 4 0.186445 0.001977 0.274074
1244 4 0.320398 0.0578951 0.305539
3476 4 0.309905 0.0467519 0.319596
1243 2 0.34302 0.0522896 0.30846
3475 2 0.293432 0.0562155 0.332632
1245 4 0.365642 0.0466841 0.311381
2667 4 0.385602 0.0490071 0.308065
2665 2 0.410027 0.0569356 0.316387
2666 4 0.434453 0.0648641 0.324709
1523 4 0.414992 0.00979832 0.330156
1375 2 0.47116 0.0795312 0.323882
1376 4 0.494378 0.078549 0.332384
1377 4 0.447942 0.0805133 0.31538
403 2 0.0226664 0.104143 0.316349
686 4 0.0468738 0.166043 0.261631
404 4 0.0484736 0.109362 0.318634
606 4 0.0751384 0.0927836 0.249895
176 1 0.0728755 0.154332 0.254496
591 4 0.0693578 0.113105 0.324325
179 3 0.0910088 0.146623 0.262695
1190 4 0.110251 0.148331 0.270353
730 2 0.112543 0.101466 0.263652
731 4 0.0876744 0.1015 0.266154
589 2 0.0949825 0.116634 0.326724
1189 2 0.134785 0.156833 0.278235
590 4 0.120607 0.120163 0.329123
178 3 0.0654281 0.16674 0.270779
732 4 0.137412 0.101432 0.26115
2849 4 0.137753 0.113683 0.333405
1191 4 0.159319 0.165335 0.286117
650 4 0.176896 0.162041 0.294643
2848 2 0.163057 0.114866 0.333067
649 2 0.201958 0.165475 0.300346
3571 2 0.23189 0.136019 0.327917
3573 4 0.255574 0.1465 0.318708
2641 2 0.374627 0.154851 0.324416
2642 4 0.399578 0.157459 0.318784
285 4 0.00841858 0.221096 0.254991
400 2 0.00911896 0.176831 0.329728
1221 4 0.0266461 0.220235 0.32103
687 4 0.00766337 0.1822 0.279714
401 4 0.0344242 0.18005 0.32534
685 2 0.0272686 0.174121 0.270673
1219 2 0.0506232 0.223357 0.311991
1220 4 0.0746003 0.226478 0.302952
2892 4 0.0545744 0.184187 0.327332
2492 4 0.0792879 0.214358 0.287661
2491 2 0.103855 0.225816 0.28152
2493 4 0.128421 0.237274 0.275378
2578 2 0.150217 0.203101 0.329961
298 2 0.158284 0.235028 0.258749
299 4 0.133933 0.236818 0.256663
2580 4 0.124335 0.195938 0.331903
2890 2 0.0793586 0.184583 0.331364
2579 4 0.1761 0.210264 0.32802
300 4 0.182635 0.233238 0.260835
983 4 0.197156 0.210881 0.331483
2954 4 0.195496 0.225019 0.271499
982 2 0.222139 0.220609 0.325562
2953 2 0.214276 0.246028 0.26732
651 4 0.227021 0.168908 0.306048
1953 4 0.267275 0.236199 0.318228
3159 4 0.246189 0.177735 0.314207
984 4 0.247123 0.230336 0.31964
1951 2 0.291496 0.244722 0.30952
3157 2 0.272132 0.184002 0.315112
3158 4 0.298075 0.190268 0.316017
635 4 0.319075 0.192449 0.322448
634 2 0.344488 0.198752 0.327572
509 4 0.0235645 0.27453 0.304075
475 2 0.0498512 0.274635 0.255578
717 4 0.0416057 0.283215 0.29685
477 4 0.0379842 0.278334 0.276673
715 2 0.0630311 0.285459 0.310549
716 4 0.0844565 0.287704 0.324247
1056 4 0.147781 0.282267 0.307597
1054 2 0.123966 0.280625 0.316373
1055 4 0.100151 0.278982 0.32515
390 4 0.214526 0.326501 0.26038
388 2 0.222646 0.305739 0.260246
389 4 0.230765 0.284977 0.260112
2955 4 0.233056 0.267037 0.26314
2653 2 0.257805 0.278704 0.325857
2654 4 0.279558 0.278658 0.313552
2681 4 0.317549 0.323651 0.302386
1952 4 0.315716 0.253245 0.300813
343 2 0.325694 0.304549 0.324339
344 4 0.311079 0.304605 0.304062
2764 2 0.359196 0.259983 0.285231
2765 4 0.334847 0.256355 0.293452
2766 4 0.383545 0.26361 0.27701
2534 4 0.403003 0.261704 0.283319
2533 2 0.428297 0.26492 0.278871
2567 4 0.482224 0.31865 0.310833
2945 4 0.474495 0.277205 0.271838
2535 4 0.453591 0.268136 0.274423
2499 4 0.471345 0.328845 0.32092
2944 2 0.497509 0.273088 0.266919
2596 2 0.0264394 0.378724 0.331249
2598 4 0.0281515 0.397525 0.315152
262 2 0.0911139 0.391136 0.272003
264 4 0.0701475 0.398292 0.265195
263 4 0.11208 0.383981 0.278811
587 4 0.13026 0.381116 0.273898
586 2 0.149852 0.401809 0.271329
2903 4 0.1759 0.346915 0.275111
2904 4 0.227643 0.364125 0.273487
2902 2 0.201771 0.35552 0.274299
2541 4 0.24498 0.376696 0.280759
2539 2 0.262339 0.366504 0.291377
2540 4 0.279699 0.356313 0.301995
2682 4 0.290131 0.353815 0.284935
2680 2 0.30384 0.338733 0.29366
751 2 0.00877738 0.466351 0.250661
668 4 0.0243826 0.424881 0.284524
752 4 0.0320875 0.479752 0.258606
1436 4 0.0447464 0.435276 0.285651
681 4 0.114855 0.463318 0.27041
1437 4 0.0958074 0.450205 0.276703
1435 2 0.0702769 0.442741 0.281177
679 2 0.138933 0.463603 0.263397
588 4 0.169445 0.422502 0.26876
3819 4 0.187635 0.415798 0.269964
3603 4 0.192625 0.452972 0.321636
680 4 0.163011 0.463888 0.256383
1433 4 0.172818 0.451648 0.318642
1432 2 0.150101 0.451674 0.329073
3601 2 0.208928 0.43865 0.324365
3817 2 0.209792 0.424472 0.257285
3602 4 0.22523 0.424327 0.327094
1383 4 0.336536 0.496743 0.264334
1311 4 0.350741 0.496132 0.277072
374 4 0.385103 0.457466 0.31637
373 2 0.395292 0.43978 0.307255
375 4 0.405481 0.422093 0.29814
362 4 0.47049 0.489922 0.287621
3999 4 0.490894 0.496404 0.290304
3796 2 0.0138192 0.0492596 0.411015
3797 4 0.0393633 0.0516097 0.410436
2900 4 0.0577096 0.0474964 0.407536
2899 2 0.0820184 0.0482524 0.414163
2817 4 0.141984 0.0439932 0.405911
2816 4 0.193741 0.0564294 0.409874
2815 2 0.167862 0.0502113 0.407892
341 4 0.258095 0.0629831 0.332921
2714 4 0.209254 0.0544358 0.39683
2713 2 0.2335 0.0669096 0.403069
3477 4 0.276959 0.0656791 0.345668
2715 4 0.257745 0.0793835 0.409308
162 3 0.276095 0.0812756 0.399866
165 3 0.282807 0.0671747 0.366997
161 1 0.29302 0.0791479 0.385114
164 3 0.30739 0.0681421 0.395731
682 2 0.33367 0.0122395 0.412696
684 4 0.340812 0.011477 0.38881
2645 4 0.32258 0.0691506 0.412009
1061 4 0.347059 0.0233662 0.372761
1062 4 0.388794 0.0616381 0.364165
1060 2 0.367927 0.0425022 0.368463
1058 4 0.395854 0.00165578 0.338234
2871 4 0.483509 0.0131625 0.336601
1522 2 0.438785 0.0064908 0.331947
1524 4 0.462578 0.00318327 0.333738
2869 2 0.493397 0.0379736 0.33563
4238 4 0.486731 0.0138371 0.385952
4237 2 0.47075 0.0153143 0.404772
3572 4 0.208206 0.125537 0.337127
2850 4 0.188361 0.116048 0.33273
2643 4 0.349676 0.152244 0.330049
163 3 0.305786 0.100308 0.378491
2822 4 0.49864 0.159195 0.413256
2821 2 0.48961 0.168349 0.393082
3079 2 0.028216 0.226856 0.407914
3081 4 0.00346032 0.219731 0.415423
3080 4 0.0529718 0.233981 0.400406
872 4 0.0669641 0.247845 0.411029
2891 4 0.104143 0.184979 0.335395
2525 4 0.169946 0.24859 0.360351
2657 4 0.270605 0.182437 0.401848
2656 2 0.293508 0.180478 0.393398
2958 4 0.257524 0.242964 0.407613
636 4 0.3699 0.205056 0.332695
711 4 0.390236 0.207668 0.333692
2658 4 0.31641 0.178519 0.384948
709 2 0.415031 0.219016 0.339086
710 4 0.439826 0.230365 0.34448
535 2 0.484156 0.235937 0.362878
536 4 0.459955 0.233351 0.354673
2823 4 0.480579 0.177503 0.372909
2543 4 0.498964 0.186329 0.361449
371 4 0.0123602 0.297 0.381569
2613 4 0.0323411 0.302302 0.374541
2611 2 0.0581091 0.307593 0.377253
261 4 0.101663 0.324377 0.373282
2612 4 0.083877 0.312883 0.379966
2655 4 0.236052 0.278751 0.338163
2524 2 0.19529 0.253454 0.365487
2526 4 0.220634 0.258318 0.370622
345 4 0.340308 0.304494 0.344616
2528 4 0.359112 0.312254 0.40154
2527 2 0.364238 0.330923 0.384907
2494 2 0.361512 0.274403 0.392176
2496 4 0.353617 0.295269 0.391147
2831 4 0.403762 0.31095 0.41081
2495 4 0.369407 0.253537 0.393205
2830 2 0.416413 0.324051 0.3915
366 4 0.389614 0.266979 0.396077
364 2 0.414857 0.268976 0.392634
365 4 0.440101 0.270973 0.38919
3633 4 0.460972 0.276144 0.394045
3631 2 0.486453 0.28735 0.394655
2497 2 0.452654 0.329901 0.337155
3317 4 0.00408756 0.355268 0.353512
2597 4 0.0247273 0.359924 0.347346
3594 4 0.113409 0.390962 0.396932
259 2 0.126629 0.333352 0.366919
260 4 0.151596 0.342327 0.360556
2711 4 0.31612 0.371512 0.410575
2710 2 0.308374 0.392183 0.406744
2712 4 0.300628 0.412855 0.402913
2832 4 0.429064 0.337151 0.37219
2529 4 0.369363 0.349592 0.368274
2498 4 0.433964 0.330957 0.35339
2647 2 0.0523838 0.462609 0.395688
2649 4 0.0266363 0.454025 0.393125
3885 4 0.00724898 0.455627 0.399509
1434 4 0.127383 0.451699 0.339503
417 4 0.110638 0.435652 0.340614
4321 2 0.11464 0.460808 0.394305
415 2 0.0865228 0.433796 0.348675
4322 4 0.095393 0.467808 0.405549
2648 4 0.0781314 0.471193 0.39825
416 4 0.0624074 0.431939 0.356737
4323 4 0.133887 0.453807 0.383061
447 4 0.14823 0.464939 0.394672
445 2 0.167853 0.456814 0.403597
446 4 0.187476 0.448689 0.412521
2826 4 0.207837 0.452499 0.405774
2824 2 0.232753 0.463961 0.410533
2825 4 0.257669 0.475424 0.415292
1756 2 0.252039 0.422387 0.361218
1757 4 0.240141 0.421888 0.339157
1758 4 0.263937 0.422886 0.383279
3174 4 0.109606 0.0616966 0.436409
2901 4 0.106327 0.0490084 0.42079
3172 2 0.132896 0.0637463 0.446656
3173 4 0.156185 0.065796 0.456902
2646 4 0.293707 0.0433948 0.448998
426 4 0.342389 0.0766109 0.419753
842 4 0.341306 0.0160734 0.451691
2644 2 0.308143 0.0562727 0.430504
683 4 0.326529 0.0130021 0.436581
424 2 0.367313 0.077181 0.423153
841 2 0.36251 0.0108812 0.460904
3745 2 0.421845 0.0208536 0.450487
2914 2 0.435912 0.0794878 0.442047
3747 4 0.399919 0.0208445 0.46251
843 4 0.383713 0.00568888 0.470116
425 4 0.392238 0.077751 0.426554
2916 4 0.412826 0.0815988 0.434294
4239 4 0.454769 0.0167915 0.423592
2915 4 0.458998 0.0773767 0.4498
1968 4 0.477418 0.0749961 0.456812
3746 4 0.443771 0.0208628 0.438464
2502 4 0.0645723 0.11459 0.437916
2500 2 0.0874833 0.12515 0.448664
2501 4 0.110394 0.135711 0.459412
3032 4 0.124161 0.126491 0.462417
3031 2 0.150102 0.132245 0.46209
945 4 0.195496 0.142484 0.470365
3033 4 0.176044 0.138 0.461763
943 2 0.219649 0.140428 0.467284
944 4 0.243801 0.138373 0.464203
3327 4 0.259095 0.132382 0.467864
3325 2 0.284909 0.137674 0.465592
3326 4 0.310722 0.142966 0.463319
320 4 0.333258 0.145475 0.463469
319 2 0.358934 0.150684 0.466866
321 4 0.384611 0.155892 0.470264
642 4 0.406401 0.157926 0.469706
640 2 0.431481 0.158308 0.470885
641 4 0.456561 0.15869 0.472065
6 1 0.492914 0.151143 0.460732
9 3 0.481163 0.129249 0.455491
7 3 0.47703 0.162383 0.467105
871 2 0.0860354 0.240448 0.422139
873 4 0.105107 0.233051 0.43325
1212 4 0.096932 0.18223 0.479726
2510 4 0.121254 0.236675 0.419308
2963 4 0.114853 0.177671 0.484344
2962 2 0.139548 0.179104 0.490083
2509 2 0.145677 0.236072 0.423783
2964 4 0.164243 0.180536 0.495821
2511 4 0.170101 0.235469 0.428259
2604 4 0.184267 0.182577 0.495826
2602 2 0.210113 0.188147 0.493751
2603 4 0.23596 0.193716 0.491676
899 4 0.294101 0.201627 0.478072
898 2 0.271762 0.194108 0.490693
824 4 0.351594 0.249136 0.489521
444 4 0.000700168 0.28283 0.49612
2562 4 0.0214066 0.323861 0.447998
2550 4 0.0212298 0.284189 0.491331
2548 2 0.0460238 0.283937 0.488708
2560 2 0.0468176 0.325844 0.449855
2561 4 0.0722286 0.327827 0.451712
2549 4 0.0708178 0.283685 0.486085
2847 4 0.0924327 0.28784 0.489961
2956 2 0.275441 0.26095 0.419265
2957 4 0.293358 0.278937 0.430917
451 2 0.4171 0.313816 0.449869
453 4 0.414285 0.32014 0.426117
452 4 0.419915 0.307492 0.473621
594 4 0.0148509 0.339729 0.445622
346 2 0.0145855 0.37711 0.471643
348 4 0.0316832 0.38748 0.453861
3455 4 0.088387 0.343666 0.454264
3454 2 0.112118 0.349251 0.444134
3592 2 0.121915 0.40377 0.417835
1698 4 0.164306 0.399894 0.494192
1696 2 0.1664 0.401471 0.469293
1697 4 0.168495 0.403048 0.444394
3456 4 0.13585 0.354836 0.434005
239 4 0.157327 0.362765 0.432489
238 2 0.177209 0.356597 0.443451
3421 2 0.209477 0.414005 0.435487
240 4 0.197091 0.350428 0.454412
3423 4 0.23327 0.410681 0.433784
2636 4 0.216699 0.352532 0.44894
2635 2 0.240755 0.358228 0.458333
1029 4 0.282005 0.372293 0.479018
2637 4 0.264811 0.363924 0.467725
1027 2 0.298834 0.371258 0.460822
1028 4 0.315662 0.370223 0.442627
663 4 0.0342869 0.440937 0.476928
661 2 0.0127164 0.44325 0.488162
4043 4 0.0510276 0.448345 0.487669
3593 4 0.130421 0.416577 0.438739
560 4 0.108364 0.451232 0.471251
4044 4 0.0959297 0.460679 0.462556
4042 2 0.0734787 0.454512 0.475113
559 2 0.122887 0.436122 0.464534
561 4 0.13741 0.421011 0.457817
3422 4 0.185685 0.417329 0.437191
1982 4 0.201806 0.48463 0.492821
1487 4 0.182142 0.475512 0.489091
1981 2 0.219459 0.48304 0.475641
3642 4 0.248124 0.42731 0.431721
1983 4 0.237111 0.481449 0.458461
3640 2 0.270709 0.422922 0.42549
3641 4 0.293293 0.418534 0.419259
2551 2 0.0228028 0.0490985 0.51141
2552 4 0.0471717 0.0500281 0.517974
760 2 0.046418 0.0383156 0.561437
762 4 0.0463144 0.0402218 0.536514
964 2 0.491847 0.154967 0.570355
2814 4 0.0750801 0.192903 0.528027
2812 2 0.0840647 0.199971 0.550965
1211 4 0.07407 0.173556 0.524536
2813 4 0.0930492 0.207039 0.573903
3179 4 0.107575 0.223039 0.566636
1210 2 0.085501 0.177893 0.502131
1131 4 0.146243 0.18337 0.537614
1129 2 0.162455 0.186449 0.557111
1130 4 0.178666 0.189527 0.576607
900 4 0.249424 0.18659 0.503314
3205 2 0.302069 0.198076 0.567592
3206 4 0.319974 0.203407 0.549497
823 2 0.351009 0.229291 0.503897
825 4 0.350424 0.209446 0.518272
695 4 0.362148 0.197659 0.510205
694 2 0.37868 0.183428 0.511516
696 4 0.395212 0.169198 0.512827
2846 4 0.135456 0.314313 0.513021
3044 4 0.138293 0.33289 0.521089
2845 2 0.113944 0.301077 0.501491
408 4 0.399084 0.283956 0.51944
406 2 0.423636 0.285322 0.525697
407 4 0.448188 0.286688 0.531954
803 4 0.468314 0.29566 0.527377
802 2 0.492242 0.297724 0.536078
3071 4 0.0553875 0.407704 0.534018
791 4 0.0721999 0.415291 0.52238
3043 2 0.149395 0.343859 0.542073
3045 4 0.160497 0.354829 0.563058
3452 4 0.180819 0.415793 0.498716
1641 4 0.163264 0.353118 0.583214
4215 4 0.457734 0.40331 0.537291
4213 2 0.471561 0.395282 0.554679
4214 4 0.485387 0.387253 0.572067
3070 2 0.0380533 0.42111 0.534887
3072 4 0.0207192 0.434516 0.535756
790 2 0.0949775 0.432764 0.522305
792 4 0.117755 0.450237 0.522229
1136 4 0.143019 0.496174 0.568337
1135 2 0.123226 0.497108 0.553433
1488 4 0.13595 0.458563 0.511355
798 4 0.156851 0.492051 0.58116
1137 4 0.103432 0.498041 0.53853
1486 2 0.159046 0.467037 0.500223
3451 2 0.197548 0.435579 0.509134
796 2 0.180794 0.501516 0.572092
3453 4 0.214276 0.455364 0.519551
3463 2 0.224527 0.490804 0.540948
3464 4 0.227633 0.47066 0.528995
1205 4 0.498812 0.475745 0.584206
4324 2 0.0153607 0.0509408 0.610565
1261 2 0.00322592 0.0112488 0.65331
761 4 0.0465217 0.0364095 0.58636
1263 4 0.0284941 0.0178178 0.647554
4325 4 0.0325054 0.0434959 0.596423
3103 2 0.256524 0.00540442 0.662228
2281 2 0.317833 0.000676025 0.650007
3082 2 0.385321 0.00746683 0.643376
3084 4 0.41101 0.0164561 0.640651
2282 4 0.343034 0.00308634 0.654231
3050 4 0.497184 0.0150892 0.630965
269 4 0.429194 0.0127782 0.643812
268 2 0.454598 0.015253 0.640907
270 4 0.480001 0.0177279 0.638002
3009 4 0.427453 0.12193 0.658145
1005 4 0.448129 0.126381 0.65498
2175 4 0.461416 0.151437 0.594084
3007 2 0.403304 0.119494 0.666423
1003 2 0.473066 0.128623 0.649575
1004 4 0.498003 0.130865 0.64417
966 4 0.475217 0.164186 0.583435
3178 2 0.128582 0.227295 0.581279
3180 4 0.14959 0.231551 0.595921
2240 4 0.170903 0.239682 0.596925
2239 2 0.195071 0.244186 0.605878
935 4 0.185898 0.180962 0.592355
934 2 0.206057 0.186745 0.608103
2241 4 0.21924 0.248689 0.614831
936 4 0.226217 0.192527 0.62385
1259 4 0.238683 0.180808 0.622351
1258 2 0.262618 0.190878 0.613522
3207 4 0.284165 0.192744 0.585686
1260 4 0.286553 0.200947 0.604694
2174 4 0.461157 0.185871 0.62897
2173 2 0.461286 0.168654 0.611527
3001 2 0.472843 0.221584 0.638707
3003 4 0.458423 0.20293 0.624827
3002 4 0.487264 0.240238 0.652586
1154 4 0.238877 0.250741 0.60661
1153 2 0.264295 0.253504 0.609803
1155 4 0.289713 0.256268 0.612997
1257 4 0.309805 0.257738 0.619518
1255 2 0.334749 0.26025 0.625111
2243 4 0.381358 0.313398 0.638595
1256 4 0.359692 0.262761 0.630704
2242 2 0.406944 0.324054 0.637695
959 4 0.381018 0.264696 0.631193
958 2 0.406055 0.268635 0.637259
960 4 0.431092 0.272574 0.643326
3239 4 0.452584 0.280598 0.643441
3238 2 0.476336 0.286784 0.653543
806 4 0.443766 0.326255 0.624942
3240 4 0.500088 0.29297 0.663645
805 2 0.46963 0.331462 0.626485
1640 4 0.154944 0.359552 0.631762
1639 2 0.159104 0.356335 0.607488
2244 4 0.432529 0.33471 0.636794
807 4 0.495495 0.336668 0.628028
997 2 0.479727 0.395611 0.664125
998 4 0.497868 0.400845 0.646244
2214 4 0.377889 0.481848 0.612027
2212 2 0.401401 0.497977 0.609979
774 4 0.430853 0.468499 0.594934
772 2 0.455921 0.475386 0.588431
773 4 0.48099 0.482272 0.581927
888 4 0.0859935 0.0669482 0.74507
3612 4 0.120077 0.0190427 0.690922
3610 2 0.13512 0.00333427 0.690232
4501 2 0.195675 0.00314051 0.682723
4502 4 0.220192 0.0163902 0.678634
3061 2 0.238956 0.03719 0.72593
3063 4 0.230848 0.0122428 0.724682
3062 4 0.247064 0.0621372 0.727179
4370 4 0.254823 0.0719056 0.712024
3104 4 0.240143 0.0139902 0.676321
1217 4 0.319695 0.00228289 0.744166
3488 4 0.302968 0.010645 0.747654
1999 2 0.406181 0.0219262 0.747206
2000 4 0.428776 0.0246763 0.73532
1013 4 7.8801e-05 0.119086 0.736739
4369 2 0.272295 0.0899256 0.699937
4371 4 0.289766 0.107945 0.687851
3125 4 0.308507 0.111696 0.679849
3124 2 0.334335 0.115939 0.679564
3126 4 0.360163 0.120182 0.679279
192 3 0.370993 0.164619 0.742527
3008 4 0.379154 0.117058 0.6747
195 3 0.382626 0.138065 0.724523
191 1 0.386873 0.152196 0.74238
3147 4 0.428038 0.16321 0.739567
2627 4 0.0669382 0.212207 0.752048
3356 4 0.0808615 0.222324 0.737837
3355 2 0.10114 0.214869 0.729508
3357 4 0.121419 0.207415 0.72118
3039 4 0.140455 0.206831 0.724917
3037 2 0.149795 0.188437 0.716149
3038 4 0.159136 0.170044 0.707381
1167 4 0.353411 0.165851 0.750149
193 3 0.409037 0.166584 0.740795
3145 2 0.453181 0.166527 0.734291
3146 4 0.478325 0.169844 0.729016
3351 4 0.0672847 0.276324 0.735797
1299 4 0.268166 0.31737 0.72053
1297 2 0.292648 0.331543 0.72241
3354 4 0.00969342 0.359487 0.687188
1017 4 0.0269368 0.371171 0.745515
3373 2 0.0368195 0.365077 0.713011
3375 4 0.0309664 0.362905 0.68866
3374 4 0.0426725 0.367249 0.737362
884 4 0.221076 0.383466 0.713699
883 2 0.23716 0.400817 0.699623
4524 4 0.266379 0.407707 0.679438
1298 4 0.317129 0.345716 0.72429
1068 4 0.330249 0.352161 0.708619
1066 2 0.356092 0.357504 0.706643
1067 4 0.381934 0.362847 0.704667
3113 4 0.402667 0.36724 0.69938
3112 2 0.423543 0.375538 0.684814
3114 4 0.444418 0.383835 0.670248
999 4 0.461587 0.390377 0.682006
1098 4 0.00327698 0.464404 0.72515
1096 2 0.0242443 0.461465 0.713245
1097 4 0.0452117 0.458526 0.70134
1278 4 0.0644769 0.457553 0.703502
1276 2 0.0861689 0.461043 0.689941
1277 4 0.107861 0.464533 0.67638
821 4 0.128748 0.472159 0.671762
820 2 0.153224 0.485965 0.674896
822 4 0.177699 0.499771 0.678031
2289 4 0.208797 0.476722 0.720034
1234 2 0.208624 0.490755 0.685618