ITEM: TIMESTEP
3023000
ITEM: NUMBER OF ATOMS
4590
ITEM: BOX BOUNDS xy xz yz pp pp pp
-9.9985700000000008e+00 9.9985700000000008e+00 0.0000000000000000e+00
-9.9985700000000008e+00 9.9985700000000008e+00 0.0000000000000000e+00
-9.9985700000000008e+00 9.9985700000000008e+00 0.0000000000000000e+00
ITEM: ATOMS id type xs ys zs
2465 4 0.015188 0.0873059 0.068405
3417 4 0.0960788 0.0674834 0.985972
2703 4 0.288693 0.00552749 0.057025
2701 2 0.286793 0.0245322 0.0731622
353 4 0.235046 0.12005 0.0805358
354 4 0.282075 0.123956 0.0639929
352 2 0.25856 0.122003 0.0722644
24 3 0.300624 0.126304 0.070985
23 3 0.330185 0.145253 0.0855305
2894 4 0.376391 0.147888 0.0838223
2893 2 0.389261 0.141409 0.0633876
2895 4 0.402131 0.13493 0.0429528
3347 4 0.403722 0.125465 0.0246074
2889 4 0.422787 0.0853719 0.0651971
2887 2 0.446243 0.0840908 0.0566339
2888 4 0.4697 0.0828097 0.0480707
3346 2 0.426627 0.128494 0.015048
2783 4 0.477563 0.0988927 0.0395768
2782 2 0.491906 0.118763 0.0445414
2784 4 0.506249 0.138634 0.0495059
278 4 0.091838 0.184097 0.0107556
277 2 0.107963 0.203099 0.0127746
279 4 0.124089 0.222101 0.0147936
4470 4 0.142905 0.22201 0.0225662
4468 2 0.154208 0.235413 0.0403932
4469 4 0.165511 0.248816 0.0582201
3216 4 0.178371 0.169636 0.00742294
742 2 0.22822 0.199246 0.07314
743 4 0.203318 0.197063 0.0725924
744 4 0.253122 0.201429 0.0736876
2599 2 0.284423 0.200838 0.0546627
450 4 0.312587 0.231382 0.0502383
2601 4 0.303093 0.213585 0.0439804
2600 4 0.265752 0.188091 0.0653451
448 2 0.331455 0.239112 0.0647107
449 4 0.350324 0.246842 0.0791832
914 4 0.366621 0.239788 0.0711108
913 2 0.388039 0.24414 0.0832566
2881 2 0.49642 0.233421 0.998659
1119 4 0.105195 0.3149 0.0357876
1117 2 0.104362 0.2968 0.0185566
1118 4 0.103529 0.278701 0.00132554
2875 2 0.248903 0.257675 0.0354622
2876 4 0.240346 0.263809 0.0127826
3196 2 0.188178 0.309323 0.0425538
3198 4 0.185902 0.288574 0.056318
2877 4 0.257461 0.251542 0.0581417
103 3 0.499049 0.262758 0.0693042
105 3 0.476601 0.285937 0.0499002
2759 4 0.448723 0.30415 0.050085
101 1 0.489506 0.267216 0.0486285
2835 4 0.463608 0.297496 0.0405191
2833 2 0.465104 0.305797 0.0169809
102 3 0.476366 0.249358 0.0424977
2758 2 0.435668 0.311989 0.0699169
770 4 0.109944 0.33362 0.0333604
769 2 0.112697 0.353427 0.0183512
1122 4 0.1029 0.419979 0.0594636
3231 4 0.0913188 0.414269 0.0750638
771 4 0.11545 0.373234 0.00334206
3197 4 0.190454 0.330073 0.0287895
933 4 0.187997 0.34806 0.0221251
1466 4 0.480465 0.422041 0.0663695
3541 2 0.462817 0.398844 0.0320902
3543 4 0.475952 0.4102 0.0500819
3542 4 0.449683 0.387487 0.0140986
4278 4 0.0113072 0.472814 0.0570609
1120 2 0.127505 0.416523 0.0622627
1121 4 0.15211 0.413067 0.0650618
3552 4 0.150324 0.42478 0.0821111
242 4 0.27397 0.477278 0.0471402
243 4 0.3176 0.49736 0.0332161
241 2 0.295785 0.487319 0.0401782
1300 2 0.349766 0.498279 0.00306754
1373 4 0.0410817 0.0643152 0.090574
1372 2 0.0485361 0.0405576 0.0928573
1374 4 0.0559906 0.0168001 0.0951406
1873 2 0.0411309 0.0593411 0.151248
1875 4 0.0249395 0.0421656 0.143
1542 4 0.0239994 0.023824 0.15058
582 4 0.0695157 0.00253059 0.0932778
1874 4 0.0573222 0.0765166 0.159495
3677 4 0.0748423 0.0799997 0.151444
1540 2 0.0267024 0.00232101 0.13811
580 2 0.0941854 0.00140835 0.0971902
333 4 0.139779 0.0626739 0.151354
331 2 0.163725 0.0594883 0.157806
3678 4 0.12322 0.0704859 0.143081
3676 2 0.0990309 0.0752428 0.147263
692 4 0.210651 0.0643907 0.112211
332 4 0.187671 0.0563026 0.164259
2780 4 0.187207 0.0772779 0.167189
691 2 0.220058 0.0823861 0.097621
2702 4 0.284893 0.043537 0.0892994
1273 2 0.316547 0.0743247 0.0928496
1274 4 0.302244 0.0545564 0.0873898
2678 4 0.438205 0.0816176 0.138625
2615 4 0.0503702 0.0726461 0.10698
2614 2 0.048175 0.0974165 0.109585
2616 4 0.0459798 0.122187 0.11219
749 4 0.994355 0.144228 0.172568
2517 4 0.126235 0.121313 0.111315
2515 2 0.131476 0.145742 0.112272
693 4 0.229465 0.100382 0.0830307
2779 2 0.20917 0.0892282 0.167135
22 3 0.321028 0.11128 0.0987453
21 1 0.312561 0.130945 0.0903344
1275 4 0.330851 0.094093 0.0983095
25 3 0.298844 0.140444 0.105835
2519 4 0.29792 0.150024 0.168107
2679 4 0.39354 0.103758 0.142572
810 4 0.362699 0.136335 0.0939642
808 2 0.370099 0.125736 0.115367
809 4 0.3775 0.115138 0.13677
624 4 0.374497 0.159547 0.141106
520 2 0.338128 0.151091 0.164268
521 4 0.360312 0.156555 0.154108
2677 2 0.415872 0.0926879 0.140599
505 2 0.482375 0.0828667 0.147882
506 4 0.459811 0.0789013 0.137865
649 2 0.0197348 0.231012 0.144735
650 4 0.0151285 0.244305 0.124064
728 4 0.0117259 0.246312 0.105021
651 4 0.024341 0.217719 0.165405
2516 4 0.136717 0.170172 0.113229
387 4 0.14929 0.17435 0.0988288
385 2 0.172402 0.182943 0.094682
386 4 0.195513 0.191537 0.0905352
2518 2 0.286146 0.171811 0.164657
1199 4 0.259496 0.198459 0.149048
622 2 0.393911 0.164479 0.156072
915 4 0.409457 0.248493 0.0954024
455 4 0.425054 0.172684 0.15578
491 4 0.479699 0.205988 0.126483
456 4 0.461238 0.202195 0.137877
454 2 0.443146 0.187439 0.146829
845 4 0.425503 0.248438 0.107333
2538 4 0.0433011 0.265279 0.115918
2536 2 0.0681069 0.263629 0.113247
250 2 0.036191 0.3249 0.101906
252 4 0.0129853 0.317121 0.107021
518 4 0.993109 0.308775 0.108947
517 2 0.993689 0.291882 0.127371
2537 4 0.0929128 0.261978 0.110575
2445 4 0.106774 0.255964 0.0972799
2444 4 0.15107 0.258768 0.120319
2443 2 0.128922 0.257366 0.1088
611 4 0.167612 0.321151 0.145115
767 4 0.169357 0.262867 0.111827
610 2 0.191672 0.319795 0.138445
766 2 0.192866 0.270475 0.108004
768 4 0.216376 0.278082 0.104182
2094 4 0.232177 0.289778 0.111
612 4 0.215732 0.318439 0.131775
2799 4 0.216147 0.334449 0.119611
2092 2 0.256927 0.28655 0.112483
2093 4 0.281676 0.283322 0.113967
528 4 0.299407 0.2918 0.112951
526 2 0.324146 0.293899 0.115912
527 4 0.348885 0.295998 0.118873
2651 4 0.365586 0.287356 0.110083
2650 2 0.38825 0.29677 0.105298
2652 4 0.410914 0.306185 0.100514
844 2 0.433624 0.253801 0.130366
2760 4 0.422613 0.319827 0.0897487
846 4 0.441745 0.259163 0.153398
2477 4 0.447958 0.27683 0.145972
2476 2 0.462067 0.290501 0.161438
251 4 0.0593967 0.33268 0.0967911
286 2 0.0839735 0.344421 0.12853
287 4 0.0697818 0.345235 0.10796
3229 2 0.0772617 0.406026 0.0940286
2906 4 0.0533562 0.395848 0.129681
3230 4 0.0632046 0.397784 0.112993
2905 2 0.0298592 0.402653 0.124508
2907 4 0.00636225 0.409458 0.119336
3831 4 0.0334484 0.357833 0.170076
713 4 0.11332 0.343765 0.135982
712 2 0.134282 0.336383 0.147441
288 4 0.0981652 0.343606 0.1491
714 4 0.155244 0.329001 0.1589
3598 2 0.108054 0.412784 0.150694
3600 4 0.123172 0.400311 0.166221
2798 4 0.241756 0.376911 0.113143
2797 2 0.228951 0.35568 0.116377
3818 4 0.237712 0.411407 0.124919
4005 4 0.311466 0.420229 0.160424
2592 4 0.335661 0.374789 0.150333
2590 2 0.334551 0.394603 0.135122
2591 4 0.333441 0.414417 0.119911
2862 4 0.329444 0.362051 0.166022
2730 4 0.486649 0.356253 0.130421
2162 4 0.0846808 0.442861 0.143115
2163 4 0.086811 0.469803 0.101041
2161 2 0.0857459 0.456332 0.122078
1673 4 0.0769622 0.481546 0.0898716
3599 4 0.0929357 0.425257 0.135168
4512 4 0.229516 0.49061 0.150589
3550 2 0.168882 0.422626 0.0987292
3551 4 0.18744 0.420472 0.115347
3819 4 0.189363 0.419138 0.135079
3817 2 0.213537 0.415273 0.129999
4510 2 0.210321 0.489692 0.166586
678 4 0.295619 0.419083 0.147317
676 2 0.274309 0.421123 0.134397
677 4 0.252999 0.423162 0.121478
1611 4 0.0177687 0.00797969 0.239058
1785 4 0.0235894 0.0261281 0.233076
1783 2 0.0208645 0.0402804 0.253508
2756 4 0.387015 0.0552188 0.211516
2755 2 0.386192 0.0720312 0.230006
786 4 0.38708 0.0461922 0.193176
784 2 0.382789 0.0223991 0.186801
785 4 0.378498 0.998606 0.180425
2757 4 0.385369 0.0888435 0.248495
606 4 0.436228 0.0899511 0.245596
748 2 0.0192837 0.143628 0.174404
750 4 0.0442126 0.143028 0.17624
1479 4 0.0572238 0.153054 0.187729
1477 2 0.0813931 0.159306 0.189125
418 2 0.159454 0.132718 0.224406
420 4 0.149823 0.114389 0.238424
419 4 0.169084 0.151047 0.210389
2931 4 0.185567 0.160886 0.206719
2930 4 0.221775 0.134537 0.184459
2929 2 0.203671 0.147712 0.195589
2781 4 0.231132 0.101179 0.167081
1566 4 0.247751 0.108705 0.192504
1564 2 0.263943 0.124296 0.181552
1565 4 0.280134 0.139887 0.1706
522 4 0.315944 0.145628 0.174427
604 2 0.452744 0.105768 0.235486
605 4 0.469261 0.121585 0.225377
2880 4 0.479604 0.121733 0.20708
3159 4 0.028173 0.232035 0.179418
579 4 0.0808337 0.251129 0.207909
1478 4 0.105562 0.165558 0.190521
2777 4 0.145627 0.193312 0.22285
2778 4 0.10767 0.163202 0.210465
2776 2 0.126648 0.178257 0.216658
2453 4 0.18599 0.223752 0.215335
1198 2 0.237655 0.196679 0.16109
1200 4 0.215814 0.194899 0.173132
2454 4 0.194912 0.194423 0.175827
2452 2 0.190451 0.209087 0.195581
458 4 0.324698 0.185594 0.203476
2520 4 0.274372 0.193598 0.161207
457 2 0.332443 0.177882 0.225965
623 4 0.413324 0.169411 0.171038
732 4 0.409977 0.184409 0.183689
730 2 0.425112 0.195279 0.200362
731 4 0.440247 0.206148 0.217034
2672 4 0.453531 0.208291 0.203399
2671 2 0.469565 0.226819 0.208379
3157 2 0.0447081 0.245495 0.192479
3158 4 0.0612431 0.258956 0.20554
577 2 0.0980511 0.267909 0.20104
578 4 0.115269 0.284689 0.194171
236 4 0.134372 0.286562 0.198727
235 2 0.159235 0.289023 0.197761
2968 2 0.207954 0.310103 0.2172
2969 4 0.184024 0.303399 0.214434
237 4 0.184099 0.291485 0.196794
2970 4 0.231883 0.316807 0.219967
2853 4 0.248958 0.305984 0.220966
2851 2 0.269779 0.316624 0.212107
2852 4 0.2906 0.327264 0.203249
2861 4 0.309769 0.33148 0.200359
337 2 0.394895 0.315469 0.234379
339 4 0.371985 0.314953 0.244382
2951 4 0.490971 0.30734 0.189601
2478 4 0.476176 0.304173 0.176903
338 4 0.417805 0.315985 0.224375
291 4 0.42889 0.326259 0.237039
2673 4 0.485599 0.245347 0.21336
3829 2 0.034075 0.363005 0.194531
3696 4 0.0349792 0.386467 0.230764
3830 4 0.0347017 0.368177 0.218986
3694 2 0.0139881 0.381867 0.243547
3921 4 0.132861 0.39605 0.182273
3919 2 0.143503 0.413591 0.196564
2860 2 0.319606 0.346766 0.18319
289 2 0.441685 0.34732 0.232807
290 4 0.45448 0.368381 0.228574
3988 2 0.0144277 0.438096 0.235855
3989 4 0.0357225 0.450553 0.231786
3935 4 0.0520744 0.4431 0.241247
3934 2 0.0665376 0.42707 0.253857
2826 4 0.0535259 0.46778 0.246808
1677 4 0.121755 0.476839 0.243263
4025 4 0.134537 0.492414 0.246791
3920 4 0.154146 0.431133 0.210854
1675 2 0.0967632 0.476406 0.243927
1545 4 0.169901 0.443123 0.207499
4511 4 0.191126 0.488775 0.182583
1544 4 0.188515 0.489229 0.202156
1543 2 0.179208 0.466176 0.204828
1856 4 0.328193 0.41909 0.216305
4003 2 0.31071 0.421195 0.185398
4004 4 0.309954 0.422161 0.210372
1855 2 0.324213 0.430657 0.238112
1784 4 0.0181397 0.0544327 0.27394
425 4 0.0463316 0.0709486 0.308276
424 2 0.0555715 0.0542953 0.324478
163 3 0.143412 0.0706074 0.32952
721 2 0.219162 0.0696299 0.323679
722 4 0.195233 0.0738672 0.317792
165 3 0.176222 0.0773205 0.312314
723 4 0.243091 0.0653926 0.329565
1058 4 0.285224 0.0109157 0.329291
1127 4 0.43588 0.0325151 0.306525
3809 4 0.441434 0.0750002 0.256152
3808 2 0.439288 0.0554248 0.271559
3810 4 0.437143 0.0358493 0.286966
1126 2 0.432978 0.00980464 0.316574
1702 2 0.100695 0.15285 0.283453
530 4 0.127013 0.139 0.313756
1704 4 0.109597 0.139394 0.302555
257 4 0.155922 0.121342 0.257036
256 2 0.153687 0.120861 0.281934
258 4 0.151452 0.120381 0.306833
164 3 0.153903 0.106234 0.321455
515 4 0.21263 0.109611 0.305886
514 2 0.225941 0.12694 0.318039
510 4 0.216317 0.164349 0.263053
516 4 0.239251 0.144269 0.330193
161 1 0.16138 0.0851744 0.327699
2484 4 0.28623 0.171718 0.324406
1749 4 0.351576 0.155199 0.254395
1748 4 0.400462 0.159688 0.263924
1747 2 0.376019 0.157444 0.25916
180 3 0.407689 0.165501 0.282458
590 4 0.00552428 0.178119 0.310123
589 2 0.0241332 0.194694 0.312164
591 4 0.0427421 0.211269 0.314205
404 4 0.0396469 0.229481 0.323303
403 2 0.0586809 0.244766 0.317893
1703 4 0.0917944 0.166306 0.264351
536 4 0.136444 0.237164 0.290257
535 2 0.146683 0.22369 0.27185
537 4 0.156922 0.210217 0.253443
29 3 0.117183 0.244651 0.285111
509 4 0.18973 0.205858 0.271472
508 2 0.203024 0.185104 0.267262
1030 2 0.218977 0.235199 0.310748
1032 4 0.237459 0.219525 0.30459
1031 4 0.200496 0.250873 0.316906
1190 4 0.302346 0.181106 0.329103
1189 2 0.327129 0.182088 0.325937
1395 4 0.254738 0.219036 0.31273
1393 2 0.275816 0.222672 0.299781
1394 4 0.296895 0.226307 0.286832
2753 4 0.305074 0.243517 0.294549
2752 2 0.329977 0.245758 0.294759
459 4 0.340187 0.170171 0.248454
1191 4 0.351912 0.18307 0.322771
402 4 0.362531 0.197861 0.330248
400 2 0.387065 0.193775 0.32769
2789 4 0.407618 0.221323 0.270583
177 3 0.41488 0.200862 0.27293
179 3 0.422852 0.18898 0.307685
2788 2 0.387742 0.235874 0.27487
401 4 0.411599 0.189689 0.325133
176 1 0.422128 0.18288 0.28531
178 3 0.443324 0.176834 0.278059
285 4 0.456092 0.176247 0.293788
283 2 0.480304 0.174808 0.287716
405 4 0.0777149 0.26005 0.312483
716 4 0.0500096 0.307517 0.271355
715 2 0.0732556 0.298327 0.270747
30 3 0.0966214 0.265745 0.308561
726 4 0.145504 0.251216 0.301748
717 4 0.0965016 0.289137 0.270139
27 3 0.133813 0.268854 0.308571
26 1 0.115244 0.265329 0.295459
28 3 0.114054 0.282106 0.279474
724 2 0.167685 0.259379 0.309905
725 4 0.189866 0.267543 0.318062
374 4 0.226053 0.324335 0.309297
2754 4 0.354879 0.247998 0.29497
2790 4 0.367866 0.250426 0.279158
2556 4 0.374362 0.321544 0.263272
2554 2 0.36795 0.323172 0.287385
2555 4 0.361539 0.324801 0.311497
3695 4 0.992997 0.377268 0.25633
3405 4 0.999521 0.376538 0.275102
3936 4 0.0810008 0.411039 0.266467
261 4 0.0700761 0.398167 0.276887
259 2 0.0811213 0.38391 0.294205
3403 2 0.998656 0.389447 0.296498
260 4 0.0921664 0.369652 0.311523
594 4 0.109596 0.379365 0.312236
373 2 0.213498 0.333417 0.32892
570 4 0.37105 0.326285 0.328521
2825 4 0.0273026 0.49347 0.280766
1391 4 0.0113841 0.49696 0.268819
1676 4 0.0717717 0.475973 0.244591
2824 2 0.0404143 0.480625 0.263787
4024 2 0.149211 0.492557 0.267035
4026 4 0.163885 0.4927 0.28728
1857 4 0.320233 0.442224 0.25992
1187 4 0.309808 0.447642 0.277069
1186 2 0.328184 0.441341 0.29281
1188 4 0.346561 0.435041 0.308552
1802 4 0.35316 0.4427 0.326187
669 4 0.399533 0.470402 0.313709
1801 2 0.369582 0.461553 0.326451
1803 4 0.386005 0.480405 0.326715
1435 2 0.484597 0.451807 0.323862
667 2 0.423373 0.470603 0.321245
668 4 0.447214 0.470805 0.328781
1437 4 0.501618 0.433545 0.322464
1869 4 0.996186 0.0435927 0.381602
426 4 0.0648114 0.0376419 0.340679
2901 4 0.0429191 0.0435464 0.391101
2899 2 0.0505385 0.0373695 0.4141
2645 4 0.0797437 0.0386832 0.352878
2644 2 0.0944978 0.0355012 0.372812
2646 4 0.109252 0.0323193 0.392746
2663 4 0.118516 0.0406446 0.410874
2662 2 0.142199 0.047269 0.406348
2871 4 0.174814 0.99839 0.348611
2664 4 0.165881 0.0538933 0.401823
1967 4 0.181159 0.0623083 0.392584
1966 2 0.200828 0.0627566 0.408014
4123 2 0.283962 0.99956 0.398727
1349 4 0.305274 0.0637706 0.360356
1348 2 0.282563 0.0631314 0.349916
1350 4 0.259852 0.0624922 0.339476
618 4 0.38443 0.996304 0.377195
708 4 0.399655 0.0621167 0.368942
617 4 0.392299 0.0439343 0.364148
616 2 0.388365 0.0201194 0.370671
706 2 0.415477 0.075437 0.382993
2685 4 0.0521164 0.153757 0.389733
2683 2 0.0758232 0.160471 0.385477
3031 2 0.0235466 0.163585 0.399993
2684 4 0.09953 0.167184 0.381221
529 2 0.126133 0.132043 0.337756
635 4 0.133815 0.130094 0.379257
636 4 0.128169 0.0875423 0.404912
531 4 0.125253 0.125085 0.361757
634 2 0.130992 0.108818 0.392084
162 3 0.171787 0.0867401 0.348154
2483 4 0.247234 0.150546 0.347466
2482 2 0.266732 0.161132 0.335936
683 4 0.339964 0.10992 0.408473
2713 2 0.41764 0.126262 0.40855
684 4 0.388118 0.0969496 0.412191
682 2 0.364041 0.103435 0.410332
707 4 0.431299 0.0887573 0.397044
2714 4 0.429733 0.146393 0.399967
2955 4 0.426809 0.153264 0.380904
3033 4 0.0457576 0.173174 0.393676
765 4 0.111439 0.182913 0.376311
763 2 0.130079 0.178267 0.392316
764 4 0.148719 0.173621 0.40832
10 3 0.236237 0.231043 0.382613
8 3 0.258301 0.208378 0.36219
6 1 0.257262 0.228099 0.374372
2957 4 0.316506 0.191837 0.382292
9 3 0.272577 0.227466 0.391792
2956 2 0.326952 0.213683 0.37606
2958 4 0.337398 0.235529 0.369829
3080 4 0.325088 0.178854 0.394997
2180 4 0.35106 0.241119 0.355637
2179 2 0.37488 0.24734 0.360014
2954 4 0.416808 0.18598 0.34443
2181 4 0.398699 0.253561 0.364391
1953 4 0.482208 0.181144 0.372279
1951 2 0.494569 0.190644 0.391827
2953 2 0.421809 0.169622 0.362667
2698 2 0.0160722 0.273465 0.355988
479 4 0.0539467 0.280841 0.349581
2699 4 0.0399887 0.276228 0.362736
478 2 0.0764209 0.291262 0.352972
2612 4 0.00985391 0.327358 0.356328
480 4 0.0988951 0.301684 0.356362
3462 4 0.0950709 0.308548 0.374189
3460 2 0.0990148 0.3216 0.395148
7 3 0.262497 0.245691 0.360506
410 4 0.160083 0.32143 0.390824
1035 4 0.199156 0.282983 0.419019
1034 4 0.178611 0.313989 0.385593
1033 2 0.188883 0.298486 0.402306
585 4 0.256445 0.282875 0.408821
569 4 0.34226 0.348325 0.362962
365 4 0.457939 0.312092 0.407989
593 4 0.136131 0.374677 0.354361
592 2 0.122864 0.377021 0.333299
411 4 0.140083 0.35993 0.365952
409 2 0.150083 0.34068 0.378388
375 4 0.200942 0.342499 0.348542
3317 4 0.291492 0.356766 0.389785
3316 2 0.314265 0.347485 0.385261
568 2 0.356655 0.337305 0.345741
894 4 0.37516 0.394832 0.388631
3318 4 0.337037 0.338204 0.380736
892 2 0.379969 0.384666 0.410964
549 4 0.49615 0.36721 0.388711
812 4 0.477167 0.367627 0.395307
1419 4 0.138597 0.510363 0.374112
2532 4 0.18476 0.495509 0.334553
2690 4 0.238351 0.502068 0.344479
2689 2 0.257727 0.495935 0.359045
2691 4 0.277102 0.489801 0.37361
4322 4 0.293488 0.484202 0.381451
4321 2 0.299423 0.461112 0.388989
447 4 0.302972 0.440477 0.416083
4323 4 0.305358 0.438021 0.396526
1436 4 0.467576 0.470069 0.32526
3174 4 0.0156512 0.99757 0.418368
3797 4 0.0732487 0.0189503 0.432032
2900 4 0.0581579 0.0311926 0.437099
3796 2 0.0933685 0.0164138 0.446659
1490 4 0.119001 0.995479 0.458761
3798 4 0.113488 0.0138772 0.461285
1968 4 0.220498 0.0632048 0.423444
220 3 0.217987 0.057443 0.473383
218 3 0.208809 0.0693491 0.438862
219 3 0.245303 0.0662513 0.449012
216 1 0.223902 0.0713784 0.456369
2501 4 0.238725 0.0585388 0.432077
4125 4 0.290401 0.0195139 0.412349
2502 4 0.270008 0.0222992 0.417624
2500 2 0.254366 0.040419 0.424851
4339 2 0.274731 0.0295318 0.491935
4549 2 0.325854 0.064603 0.479805
4551 4 0.301607 0.0591056 0.482467
4340 4 0.289564 0.0431676 0.477129
4341 4 0.259897 0.0158961 0.506741
3396 4 0.37071 0.00733305 0.442844
88 3 0.357009 0.0184379 0.490264
90 3 0.37746 0.00547753 0.46143
4550 4 0.3501 0.0701005 0.477144
86 1 0.372294 0.00238842 0.483393
89 3 0.391523 0.00371744 0.496312
2504 4 0.36462 0.0727268 0.492038
1142 4 0.349199 0.00241837 0.502672
2891 4 0.0738858 0.0793972 0.443681
2580 4 0.0566872 0.0767705 0.456142
2578 2 0.0634864 0.0830432 0.479371
2892 4 0.118072 0.0844726 0.420821
2890 2 0.095979 0.0819349 0.432251
217 3 0.223643 0.0931017 0.46393
2558 4 0.238871 0.105364 0.460883
2557 2 0.260891 0.11622 0.465624
2559 4 0.28291 0.127076 0.470366
1061 4 0.302693 0.122154 0.466435
1060 2 0.312416 0.119052 0.443609
1062 4 0.322139 0.11595 0.420783
642 4 0.272074 0.162427 0.481969
2715 4 0.405546 0.106131 0.417133
3327 4 0.0191436 0.153613 0.491914
2802 4 0.160272 0.1624 0.420327
2322 4 0.0973874 0.217343 0.502029
2801 4 0.203443 0.163539 0.445541
2800 2 0.181858 0.162969 0.432934
939 4 0.256147 0.172177 0.476861
937 2 0.233086 0.174837 0.467573
938 4 0.210025 0.177497 0.458285
641 4 0.309604 0.177262 0.452436
3081 4 0.326859 0.181518 0.444902
640 2 0.290839 0.169844 0.467203
3079 2 0.325974 0.180186 0.419949
3498 4 0.300629 0.216453 0.494609
2529 4 0.31147 0.253484 0.430205
1237 2 0.155425 0.321948 0.493418
3461 4 0.102959 0.334653 0.416106
312 4 0.0948823 0.349427 0.427695
3454 2 0.247196 0.321964 0.427054
1238 4 0.173057 0.329742 0.477494
3455 4 0.251868 0.29883 0.418797
583 2 0.273716 0.270519 0.42202
584 4 0.290987 0.258163 0.435219
2527 2 0.335659 0.254083 0.436508
2528 4 0.359847 0.254681 0.442812
2494 2 0.400337 0.269184 0.444433
2496 4 0.379487 0.257768 0.436678
3055 2 0.49743 0.319755 0.419562
2495 4 0.421186 0.2806 0.452189
3056 4 0.475022 0.321747 0.408648
366 4 0.437009 0.293119 0.449252
364 2 0.447474 0.302605 0.428621
3593 4 0.442802 0.328381 0.493593
4044 4 0.460755 0.33184 0.487476
311 4 0.0560632 0.351598 0.459146
310 2 0.0754727 0.350512 0.443421
662 4 0.222335 0.348301 0.436339
661 2 0.204306 0.345757 0.453476
3456 4 0.242524 0.345098 0.435311
663 4 0.186277 0.343214 0.470613
2560 2 0.279108 0.413005 0.483248
446 4 0.289485 0.404322 0.44789
2561 4 0.273019 0.405357 0.460235
893 4 0.384777 0.3745 0.433296
346 2 0.382996 0.381059 0.481211
347 4 0.39694 0.400401 0.473686
348 4 0.369051 0.361716 0.488735
267 4 0.41491 0.403444 0.478345
4042 2 0.484643 0.338443 0.490792
811 2 0.470852 0.376707 0.417731
266 4 0.458106 0.398638 0.453611
813 4 0.464537 0.385788 0.440155
265 2 0.436508 0.401041 0.465978
560 4 0.0719358 0.471855 0.457223
1172 4 0.0281579 0.447933 0.486181
1171 2 0.0427569 0.454795 0.467076
1173 4 0.057356 0.461657 0.447971
561 4 0.104323 0.503601 0.478296
2549 4 0.120683 0.436522 0.474934
2548 2 0.109147 0.440352 0.496785
3422 4 0.123492 0.500067 0.483705
1450 2 0.14837 0.443841 0.454709
1452 4 0.124956 0.43514 0.455831
559 2 0.0881294 0.487728 0.467759
2648 4 0.234302 0.470468 0.480206
2928 4 0.216911 0.465391 0.490324
1451 4 0.171784 0.452542 0.453588
2927 4 0.190639 0.443951 0.453569
2926 2 0.203775 0.454671 0.471946
445 2 0.296229 0.4224 0.431987
2647 2 0.257376 0.46939 0.489779
2649 4 0.280449 0.468312 0.499353
2961 4 0.371319 0.467201 0.496056
4057 2 0.361003 0.480007 0.456395
4059 4 0.360527 0.469941 0.479278
4058 4 0.36148 0.490074 0.433512
1644 4 0.367277 0.500794 0.416727
2314 2 0.0414724 0.0451184 0.541729
2316 4 0.0177808 0.0391887 0.536371
2315 4 0.0651641 0.0510481 0.547088
1901 4 0.0388354 0.997765 0.570737
1900 2 0.0631325 0.992279 0.572908
2196 4 0.0843878 0.0599916 0.545453
2553 4 0.152059 0.0746145 0.551637
2194 2 0.108244 0.06631 0.549474
2195 4 0.132099 0.0726283 0.553495
2551 2 0.176768 0.070811 0.551215
916 2 0.227999 0.00204719 0.511678
2552 4 0.201477 0.0670075 0.550793
762 4 0.220385 0.0726373 0.55326
760 2 0.241079 0.0861725 0.549553
917 4 0.205158 0.00606333 0.521024
4326 4 0.192956 0.992648 0.512893
1143 4 0.317637 0.0269222 0.53274
1141 2 0.333418 0.0146703 0.517706
2505 4 0.386251 0.0382647 0.521111
2503 2 0.375435 0.0554957 0.506574
575 4 0.389624 0.0170114 0.51287
574 2 0.414518 0.0153787 0.514547
3621 4 0.434142 0.0287292 0.530855
3619 2 0.451687 0.037885 0.546137
576 4 0.439413 0.013746 0.516225
3620 4 0.469232 0.0470409 0.561419
982 2 0.0708747 0.116675 0.526273
984 4 0.0759818 0.140807 0.530363
3326 4 0.046135 0.15524 0.533982
2579 4 0.0702856 0.089316 0.502601
983 4 0.0657677 0.0925432 0.522183
966 4 0.0912789 0.149466 0.541632
3325 2 0.0326393 0.154427 0.512948
2175 4 0.101943 0.144305 0.556948
2173 2 0.117598 0.144018 0.576442
319 2 0.212304 0.132095 0.519394
320 4 0.23279 0.118038 0.516583
3062 4 0.206546 0.149072 0.578093
321 4 0.191819 0.146152 0.522205
3236 4 0.174107 0.154786 0.526245
3002 4 0.190532 0.162371 0.576095
761 4 0.261773 0.0997078 0.545847
3021 4 0.273021 0.105022 0.562627
3019 2 0.288902 0.118948 0.576006
1107 4 0.318153 0.147888 0.584867
2317 2 0.337672 0.16807 0.529199
1105 2 0.341907 0.148493 0.592651
2319 4 0.360487 0.158064 0.531333
1106 4 0.36566 0.149098 0.600436
2244 4 0.467973 0.0949234 0.552938
2242 2 0.456137 0.115808 0.559934
806 4 0.484648 0.0978534 0.542868
3386 4 0.428757 0.134364 0.581019
2243 4 0.4443 0.136693 0.56693
964 2 0.0806039 0.171915 0.538935
965 4 0.0699289 0.194364 0.536239
3419 4 0.0746981 0.210781 0.525754
2320 2 0.115817 0.200545 0.503851
3235 2 0.151385 0.165148 0.525
3237 4 0.128663 0.175509 0.523755
3418 2 0.0805671 0.234437 0.531334
2321 4 0.134247 0.183746 0.505673
1283 4 0.194386 0.188504 0.530957
1282 2 0.217549 0.192624 0.539423
1284 4 0.240713 0.196744 0.547888
2318 4 0.314858 0.178075 0.527065
2604 4 0.299088 0.183176 0.538103
2603 4 0.249367 0.179689 0.542146
2602 2 0.274227 0.181432 0.540124
3496 2 0.302528 0.230337 0.515316
3497 4 0.304428 0.244222 0.536024
3420 4 0.0864361 0.258094 0.536914
890 4 0.0902057 0.276671 0.529957
889 2 0.10508 0.295825 0.52387
891 4 0.119954 0.314979 0.517783
1239 4 0.137793 0.314153 0.509342
3445 2 0.0235585 0.377088 0.526261
3447 4 0.0364695 0.382774 0.546905
2721 4 0.0440817 0.400904 0.549563
2719 2 0.0576282 0.40627 0.569883
3446 4 0.0106475 0.371401 0.505618
2720 4 0.0711747 0.411635 0.590204
82 3 0.153689 0.343967 0.576945
3221 4 0.0890781 0.404051 0.58772
2847 4 0.21457 0.346103 0.543511
2845 2 0.231391 0.364378 0.540637
2846 4 0.248212 0.382653 0.537763
215 3 0.260307 0.421169 0.546581
1444 2 0.188877 0.418694 0.568817
3044 4 0.254025 0.385715 0.558942
3043 2 0.277645 0.39204 0.55372
3045 4 0.301265 0.398365 0.548499
1641 4 0.307907 0.409873 0.533501
3594 4 0.424873 0.348972 0.535489
1910 4 0.424159 0.415762 0.51631
3592 2 0.433837 0.338676 0.514541
2550 4 0.0976116 0.444181 0.518635
4177 2 0.0949975 0.440267 0.552356
4178 4 0.102125 0.429329 0.531031
4179 4 0.08787 0.451205 0.57368
3962 4 0.0900863 0.467683 0.585137
1445 4 0.206155 0.425031 0.551891
212 3 0.236322 0.449422 0.550986
211 1 0.240038 0.429411 0.540266
213 3 0.22325 0.414516 0.546156
214 3 0.239749 0.433013 0.517345
2562 4 0.285197 0.420653 0.506262
1488 4 0.297887 0.470341 0.50903
1486 2 0.304271 0.476332 0.532451
1487 4 0.310655 0.482322 0.555873
327 4 0.314152 0.474463 0.574765
1983 4 0.276737 0.511062 0.522977
1639 2 0.332504 0.413754 0.535764
1640 4 0.357101 0.417636 0.538027
325 2 0.336971 0.483131 0.580182
1911 4 0.377068 0.413962 0.533045
1909 2 0.400614 0.414862 0.524677
2960 4 0.397793 0.490434 0.531553
2959 2 0.384556 0.478818 0.513804
3453 4 0.435551 0.426005 0.5269
3451 2 0.457508 0.435865 0.53367
3452 4 0.479466 0.445725 0.54044
1698 4 0.494005 0.449672 0.554157
4371 4 0.151435 0.088214 0.66157
3309 4 0.213574 0.047601 0.641616
3307 2 0.221859 0.0487783 0.618054
4284 4 0.229252 0.0389953 0.650672
3308 4 0.230143 0.0499556 0.594492
3049 2 0.27525 0.0213425 0.63082
3050 4 0.280527 0.0358517 0.650488
268 2 0.307826 0.0620882 0.649263
270 4 0.298234 0.0409144 0.658473
3083 4 0.373463 0.0854904 0.62518
2282 4 0.389024 0.0728515 0.622815
3082 2 0.352481 0.0882552 0.638494
2978 4 0.490074 0.0795855 0.644396
3298 2 0.0197507 0.101427 0.649937
3300 4 0.0440232 0.107405 0.649399
3360 4 0.0598107 0.118588 0.640452
2174 4 0.133253 0.143731 0.595936
3358 2 0.0835345 0.117108 0.632696
4369 2 0.138896 0.0995921 0.64317
3003 4 0.150088 0.151214 0.603308
3359 4 0.107258 0.115627 0.624939
4370 4 0.126358 0.11097 0.624771
3001 2 0.17031 0.156792 0.589701
3061 2 0.226759 0.155013 0.591559
3063 4 0.246971 0.160955 0.605025
3124 2 0.248546 0.152401 0.6422
3020 4 0.304784 0.132874 0.589385
269 4 0.317418 0.0832621 0.640052
3125 4 0.244676 0.146136 0.618305
3084 4 0.331499 0.09102 0.651809
3385 2 0.407473 0.141739 0.591873
3387 4 0.38619 0.149115 0.602726
2281 2 0.407875 0.0862046 0.632382
2977 2 0.467213 0.0876408 0.638257
2283 4 0.426726 0.0995577 0.641948
2979 4 0.444353 0.0956962 0.632118
3239 4 0.0170962 0.289567 0.648569
3238 2 0.0392746 0.29459 0.638173
3240 4 0.0614531 0.299614 0.627776
960 4 0.00120551 0.289871 0.636342
3093 4 0.0810505 0.303753 0.624109
3091 2 0.104836 0.31099 0.621448
3092 4 0.128621 0.318227 0.618788
3435 4 0.148137 0.31548 0.621244
3433 2 0.165248 0.299692 0.630361
85 3 0.144766 0.332331 0.611265
84 3 0.117529 0.340308 0.586522
383 4 0.192924 0.272723 0.650476
3434 4 0.182359 0.283903 0.639478
382 2 0.21127 0.27834 0.666509
1298 4 0.217044 0.343441 0.674674
905 4 0.0576301 0.360014 0.585968
904 2 0.0787872 0.347111 0.589292
906 4 0.0999444 0.334209 0.592617
83 3 0.138638 0.368163 0.601454
81 1 0.138638 0.34612 0.594207
3220 2 0.111025 0.39532 0.595923
3222 4 0.132972 0.386589 0.604126
1446 4 0.1716 0.412356 0.585744
3380 4 0.219023 0.347787 0.653975
3379 2 0.240205 0.354773 0.642675
3491 4 0.176679 0.420103 0.603498
1040 4 0.264742 0.376588 0.618345
3381 4 0.261387 0.361759 0.631374
1039 2 0.28892 0.370214 0.618408
1041 4 0.313097 0.363839 0.618472
998 4 0.319457 0.357073 0.636409
997 2 0.332916 0.34375 0.652735
999 4 0.346376 0.330427 0.669061
3963 4 0.0622069 0.508676 0.591696
3961 2 0.0761466 0.488179 0.588416
4301 4 0.162043 0.503451 0.646202
4492 2 0.119342 0.497727 0.653012
4494 4 0.0956354 0.49392 0.659989
3490 2 0.186979 0.431157 0.623421
3492 4 0.197278 0.442212 0.643344
3118 2 0.251808 0.486397 0.647611
3120 4 0.22726 0.491068 0.648484
3119 4 0.276356 0.481725 0.646739
1206 4 0.290481 0.472952 0.657914
1204 2 0.315467 0.472942 0.65884
1205 4 0.340454 0.472933 0.659766
326 4 0.35979 0.491799 0.585598
878 4 0.413678 0.434257 0.645456
877 2 0.409726 0.455372 0.632661
879 4 0.405773 0.476488 0.619867
1081 2 0.0102695 0.0664324 0.732621
1082 4 0.0343821 0.0688252 0.73879
1023 4 0.0516505 0.0633379 0.728633
1021 2 0.0708385 0.0791916 0.72625
4283 4 0.211809 0.0204904 0.693731
4282 2 0.22053 0.0297428 0.672202
3357 4 0.49326 0.0866957 0.713108
1022 4 0.0900264 0.0950454 0.723866
2255 4 0.150524 0.112581 0.749718
2254 2 0.12885 0.109288 0.737694
2256 4 0.107177 0.105996 0.725669
3126 4 0.252416 0.158666 0.666095
1004 4 0.169358 0.112928 0.742881
1003 2 0.188208 0.117197 0.727018
1005 4 0.207058 0.121466 0.711155
3007 2 0.236468 0.153452 0.696896
3009 4 0.220704 0.138731 0.709543
3008 4 0.252232 0.168174 0.684249
3441 4 0.399951 0.147072 0.742097
3439 2 0.375466 0.149389 0.746604
2628 4 0.418795 0.155021 0.740053
3355 2 0.476522 0.0943855 0.730015
2626 2 0.435698 0.137367 0.745328
3356 4 0.459783 0.102075 0.746923
3294 4 0.10514 0.172265 0.705225
954 4 0.149648 0.212232 0.718597
3293 4 0.141916 0.205933 0.701392
3292 2 0.123528 0.189099 0.703308
952 2 0.170304 0.219074 0.730914
1075 2 0.2293 0.208648 0.731356
953 4 0.190959 0.225916 0.743232
1076 4 0.253215 0.204191 0.725578
1077 4 0.205384 0.213105 0.737133
3146 4 0.261146 0.186396 0.727026
3145 2 0.273402 0.174369 0.745202
3363 4 0.381517 0.207423 0.75219
3162 4 0.36399 0.214533 0.746291
384 4 0.229616 0.283957 0.682541
3383 4 0.311002 0.311413 0.703726
3382 2 0.322755 0.294705 0.718144