ITEM: TIMESTEP
1811500
ITEM: NUMBER OF ATOMS
4590
ITEM: BOX BOUNDS xy xz yz pp pp pp
-9.9985700000000008e+00 1.4597912199999996e+01 4.5993421999999953e+00
-9.9985700000000008e+00 9.9985700000000008e+00 0.0000000000000000e+00
-9.9985700000000008e+00 9.9985700000000008e+00 0.0000000000000000e+00
ITEM: ATOMS id type xs ys zs
2464 2 0.0125999 0.0704022 0.0780495
2949 4 0.0517161 0.0842698 0.0767516
2465 4 0.0330723 0.0803497 0.0751847
3047 4 0.284648 0.0553454 0.0718012
1761 4 0.288725 0.0487326 0.0528135
1759 2 0.311142 0.0381605 0.042138
1760 4 0.33356 0.0275884 0.0314625
1822 2 0.402926 0.0432394 0.00134921
1824 4 0.419211 0.0584116 0.00333494
3140 4 0.0390503 0.152453 0.045503
3139 2 0.015083 0.162257 0.0379125
621 4 0.0505238 0.164565 0.0361755
619 2 0.0740185 0.167829 0.0310096
620 4 0.0975131 0.171094 0.0258437
2966 4 0.117612 0.171306 0.027567
2965 2 0.138012 0.177471 0.0381094
2967 4 0.158412 0.183636 0.0486517
3242 4 0.172263 0.192122 0.0398882
3241 2 0.195072 0.197727 0.0434971
629 4 0.190544 0.245716 0.0732058
1841 4 0.189417 0.235252 0.0144405
3243 4 0.217881 0.203333 0.047106
3284 4 0.237241 0.203577 0.0445542
3283 2 0.25626 0.198597 0.061315
2844 4 0.333422 0.179441 0.0543553
3285 4 0.275278 0.193618 0.0780758
2843 4 0.289082 0.176213 0.0757508
2842 2 0.311252 0.177827 0.0650531
2784 4 0.353641 0.170755 0.0584278
2782 2 0.366158 0.186714 0.0480129
2783 4 0.378675 0.202673 0.0375979
359 4 0.345703 0.194849 0.0063743
1251 4 0.49545 0.172863 0.0658961
967 2 0.0960376 0.287493 0.0163708
969 4 0.112779 0.289539 0.0343915
462 4 0.127816 0.299304 0.0367703
460 2 0.150269 0.302102 0.0276113
461 4 0.172723 0.304899 0.0184522
1079 4 0.190045 0.304769 0.00762961
1078 2 0.214392 0.30459 0.00176334
2771 4 0.403198 0.316995 0.0797683
4304 4 0.0300211 0.365839 0.0617081
4303 2 0.0424111 0.381221 0.0500944
4305 4 0.0548011 0.396603 0.0384808
597 4 0.0730588 0.390953 0.0322428
595 2 0.0979498 0.39135 0.0312852
596 4 0.122841 0.391747 0.0303276
1550 4 0.129016 0.38812 0.0491385
1549 2 0.149842 0.396808 0.0545038
1551 4 0.170667 0.405495 0.0598692
3541 2 0.201411 0.412753 0.0654687
1466 4 0.239196 0.388982 0.0607957
3543 4 0.226591 0.404705 0.0614526
1465 2 0.259751 0.398413 0.0652541
1467 4 0.280305 0.407845 0.0697125
2834 4 0.373234 0.377369 0.0164888
2521 2 0.414441 0.344822 0.0556678
2523 4 0.429809 0.35365 0.0400298
2522 4 0.399074 0.335993 0.0713059
3339 4 0.444491 0.349487 0.0250381
3337 2 0.461969 0.352431 0.0080994
3542 4 0.17623 0.4208 0.0694847
4053 4 0.331533 0.443849 0.0036088
3551 4 0.415827 0.496843 0.0695272
902 4 0.460106 0.481882 0.0174974
901 2 0.472901 0.469252 0.0366765
903 4 0.485697 0.456622 0.0558555
133 3 0.469929 0.496435 0.0137212
1374 4 0.0270069 0.0693382 0.145819
1372 2 0.0438531 0.0491746 0.137478
1373 4 0.0606993 0.029011 0.129138
2745 4 0.118537 0.027419 0.162566
3767 4 0.134139 0.0185056 0.148559
2948 4 0.0976349 0.0750029 0.0990564
2947 2 0.0746755 0.0796364 0.087904
3766 2 0.154619 0.0267654 0.15605
3768 4 0.1751 0.0350252 0.163541
4351 2 0.215377 0.0402318 0.155481
4353 4 0.192298 0.0437114 0.166286
3046 2 0.27105 0.0398592 0.0813349
4352 4 0.238455 0.0367523 0.144676
3048 4 0.257451 0.0243729 0.0908687
722 4 0.256108 0.0409061 0.149688
721 2 0.278149 0.0464696 0.142586
723 4 0.300189 0.052033 0.135485
2520 4 0.320931 0.0492881 0.135177
2518 2 0.346019 0.0481705 0.132465
2519 4 0.371107 0.0470529 0.129753
2693 4 0.393316 0.00204198 0.136275
3809 4 0.382496 0.0555948 0.117041
2692 2 0.407467 0.0164054 0.146964
3808 2 0.39948 0.070148 0.117289
2694 4 0.421617 0.0307688 0.157652
1506 4 0.440479 0.0307757 0.162789
743 4 0.435719 0.0770906 0.111856
742 2 0.458349 0.063278 0.119336
744 4 0.48098 0.0494654 0.126816
623 4 0.0412714 0.150416 0.10049
622 2 0.0223331 0.138115 0.100213
624 4 0.00339484 0.125815 0.0999357
377 4 0.105151 0.0897212 0.106338
357 4 0.0564907 0.159459 0.0992839
355 2 0.0814418 0.159367 0.0973637
356 4 0.106393 0.159275 0.0954434
376 2 0.129606 0.0884372 0.112646
758 4 0.123961 0.160622 0.104096
2717 4 0.17404 0.0900028 0.121167
378 4 0.154062 0.0871532 0.118955
757 2 0.14716 0.163345 0.0970145
759 4 0.170358 0.166067 0.0899331
2716 2 0.194375 0.0935711 0.134008
2600 4 0.209718 0.130757 0.155387
2895 4 0.209637 0.137824 0.13644
2893 2 0.225198 0.151864 0.127782
2718 4 0.21471 0.0971394 0.146849
392 4 0.23432 0.0957623 0.150817
391 2 0.248654 0.11053 0.160444
24 3 0.292882 0.161575 0.093175
1566 4 0.32402 0.0966174 0.0910167
1564 2 0.336556 0.107201 0.108018
1565 4 0.349093 0.117785 0.125019
354 4 0.352945 0.132737 0.136981
352 2 0.376152 0.136986 0.141694
3810 4 0.416463 0.0847011 0.117538
353 4 0.39936 0.141235 0.146408
693 4 0.419473 0.136101 0.145203
691 2 0.427589 0.12162 0.165017
3209 4 0.193585 0.214334 0.132927
628 2 0.191443 0.238203 0.0970396
630 4 0.192341 0.23069 0.120873
3208 2 0.215979 0.205773 0.144532
2894 4 0.24076 0.165905 0.119124
23 3 0.257119 0.165792 0.107875
3210 4 0.238374 0.197211 0.156138
22 3 0.270456 0.19589 0.0980577
556 2 0.273172 0.194438 0.161854
21 1 0.276489 0.174676 0.106876
25 3 0.285209 0.175722 0.127787
558 4 0.296017 0.192087 0.150801
654 4 0.295745 0.208664 0.131943
652 2 0.320296 0.209204 0.127938
653 4 0.344847 0.209745 0.123933
2975 4 0.359037 0.219445 0.11875
2974 2 0.383673 0.209979 0.124334
2976 4 0.408309 0.200513 0.129919
836 4 0.426306 0.197416 0.139783
835 2 0.440886 0.21176 0.129794
837 4 0.455465 0.226104 0.119804
2615 4 0.472974 0.211602 0.117802
2614 2 0.497435 0.206642 0.11027
448 2 0.0209477 0.261672 0.0864954
450 4 0.0402362 0.271878 0.0937705
296 4 0.232862 0.287067 0.133843
295 2 0.24711 0.302955 0.141074
297 4 0.261358 0.318843 0.148305
2571 4 0.279953 0.321872 0.151045
2569 2 0.301757 0.327015 0.142655
524 4 0.320702 0.280618 0.110811
523 2 0.343471 0.284405 0.103603
525 4 0.366241 0.288193 0.0963953
2772 4 0.366197 0.305511 0.108005
2770 2 0.384698 0.311253 0.0938868
2570 4 0.32356 0.332157 0.134266
350 4 0.401534 0.258365 0.123727
349 2 0.423282 0.26638 0.121644
351 4 0.445031 0.274396 0.11956
518 4 0.46056 0.271922 0.104368
517 2 0.48175 0.278194 0.112951
519 4 0.502939 0.284466 0.121533
734 4 0.248041 0.384485 0.152554
735 4 0.255962 0.362659 0.107655
733 2 0.252001 0.373572 0.130105
2969 4 0.340633 0.339092 0.13192
2968 2 0.361728 0.348274 0.133439
2970 4 0.382824 0.357456 0.134957
729 4 0.403119 0.355041 0.135871
727 2 0.425775 0.360403 0.14094
728 4 0.448432 0.365765 0.14601
2538 4 0.46244 0.373326 0.135197
2536 2 0.486701 0.374386 0.130339
1743 4 0.233572 0.495046 0.129368
1861 2 0.313367 0.490301 0.109786
1863 4 0.337728 0.479717 0.104094
125 3 0.0183999 0.0204613 0.204301
123 3 0.0344346 0.01662 0.170047
121 1 0.037625 0.0212104 0.192392
122 3 0.0418864 0.0422695 0.194058
124 3 0.0562866 0.00580639 0.200909
2855 4 0.059738 0.00687049 0.221224
2744 4 0.0726102 0.0358991 0.184813
2854 2 0.0753088 0.0174349 0.234992
2743 2 0.0955736 0.031659 0.173689
2940 4 0.107466 0.0199571 0.236507
2938 2 0.130953 0.0199331 0.227916
2755 2 0.129032 0.0771184 0.239258
2856 4 0.0908795 0.0279993 0.24876
2939 4 0.154441 0.0199092 0.219326
429 4 0.170172 0.0685911 0.222389
427 2 0.180688 0.0755618 0.20166
428 4 0.191203 0.0825326 0.18093
2756 4 0.149327 0.0726964 0.223962
2769 4 0.430101 0.0754069 0.241358
115 3 0.494924 0.0118556 0.199034
1504 2 0.451107 0.0492521 0.170693
1505 4 0.461735 0.0677286 0.178596
112 3 0.474144 0.00888544 0.229422
111 1 0.495058 0.00145775 0.21917
582 4 0.0394688 0.085565 0.184901
750 4 0.0198697 0.0879541 0.193436
732 4 0.0340196 0.112132 0.238209
580 2 0.0439838 0.0910934 0.208589
581 4 0.0484989 0.0966217 0.232277
2601 4 0.178208 0.134232 0.1947
2599 2 0.193963 0.132494 0.175043
393 4 0.262989 0.125298 0.170071
506 4 0.343153 0.156956 0.20631
2181 4 0.403025 0.160299 0.24963
2768 4 0.423415 0.103419 0.199933
2767 2 0.426758 0.0894132 0.220645
692 4 0.435704 0.107138 0.18483
235 2 0.00623135 0.180941 0.186294
236 4 0.0281143 0.188634 0.188855
579 4 0.0478399 0.189256 0.186979
577 2 0.0724694 0.190556 0.188412
578 4 0.097099 0.191856 0.189846
387 4 0.114414 0.196182 0.196074
385 2 0.136958 0.202592 0.198762
386 4 0.159502 0.209001 0.20145
276 4 0.177402 0.216026 0.201668
557 4 0.250327 0.196789 0.172908
274 2 0.201793 0.218079 0.203351
275 4 0.226183 0.220132 0.205034
497 4 0.241737 0.227716 0.209846
496 2 0.267214 0.219278 0.210004
498 4 0.292691 0.210841 0.210162
507 4 0.29891 0.189244 0.216446
505 2 0.321032 0.1731 0.211378
2790 4 0.4163 0.172771 0.245969
2705 4 0.359918 0.326365 0.23047
2704 2 0.378354 0.312568 0.216261
2706 4 0.396789 0.298772 0.202051
4007 4 0.4162 0.297583 0.206526
4006 2 0.434321 0.307986 0.19672
4008 4 0.452441 0.31839 0.186915
2472 4 0.462464 0.329654 0.197205
2470 2 0.482758 0.330131 0.18276
3405 4 0.251916 0.392805 0.169795
3403 2 0.264076 0.388019 0.191703
3404 4 0.276237 0.383233 0.213611
500 4 0.342365 0.402374 0.243927
3450 4 0.417931 0.387912 0.239107
3448 2 0.44204 0.390548 0.241824
3449 4 0.466149 0.393185 0.24454
714 4 0.48455 0.389438 0.232435
303 4 0.0118606 0.417581 0.190053
301 2 0.0363056 0.4174 0.184609
302 4 0.0607506 0.417218 0.179165
1664 4 0.0688049 0.432232 0.18642
1663 2 0.0935942 0.432201 0.183099
1665 4 0.118384 0.43217 0.179779
3694 2 0.128539 0.471708 0.245827
3695 4 0.137572 0.4866 0.230072
643 2 0.498575 0.438943 0.23757
2546 4 0.00830453 0.0238702 0.272781
2545 2 0.0326493 0.026098 0.274311
2547 4 0.056994 0.0283259 0.275841
2739 4 0.064908 0.0446336 0.272385
2737 2 0.0781145 0.0621002 0.267542
2738 4 0.0913211 0.0795669 0.262699
1183 2 0.124128 0.0351477 0.322778
1185 4 0.137614 0.0528526 0.324633
1184 4 0.110641 0.0174428 0.320922
2757 4 0.108736 0.0815405 0.254555
342 4 0.15334 0.0426364 0.335782
3699 4 0.203359 0.00859259 0.26463
3927 4 0.209335 0.0243032 0.256579
3925 2 0.212207 0.0474565 0.26126
3926 4 0.215079 0.0706098 0.265942
1244 4 0.275069 0.0440057 0.322729
3476 4 0.257184 0.038861 0.328232
1243 2 0.300212 0.0427434 0.325168
2667 4 0.346364 0.0314638 0.325393
1245 4 0.325355 0.0414811 0.327607
2665 2 0.358695 0.0500204 0.327699
1522 2 0.432518 0.00895422 0.324991
2666 4 0.371026 0.068577 0.330004
1524 4 0.451638 0.0208454 0.322508
1375 2 0.401644 0.0850738 0.316814
1376 4 0.42455 0.0851291 0.306819
2870 4 0.445592 0.0770404 0.306734
2869 2 0.457006 0.0534615 0.312505
2871 4 0.468421 0.0298825 0.318276
730 2 0.0114081 0.113956 0.249584
590 4 0.0212117 0.119495 0.315432
2849 4 0.0407607 0.121959 0.313099
2848 2 0.0645595 0.125618 0.310946
2850 4 0.0883584 0.129277 0.308793
3572 4 0.108155 0.12698 0.315964
3571 2 0.131558 0.130788 0.311355
3573 4 0.154961 0.134596 0.306746
2643 4 0.227716 0.134077 0.32196
2641 2 0.231683 0.156147 0.314455
2179 2 0.380375 0.154094 0.252277
2180 4 0.357726 0.147888 0.254925
1377 4 0.378738 0.0850186 0.326809
2673 4 0.487073 0.158127 0.252503
2789 4 0.466426 0.165314 0.256041
650 4 0.0158903 0.171753 0.285936
984 4 0.0187295 0.22476 0.327831
982 2 0.000488853 0.211628 0.328682
649 2 0.0385294 0.17541 0.293714
1953 4 0.0344018 0.230154 0.317123
651 4 0.0611684 0.179067 0.301491
1951 2 0.0588046 0.232345 0.316902
3159 4 0.0806934 0.183471 0.304182
1952 4 0.0832074 0.234535 0.31668
3157 2 0.104431 0.186429 0.308674
2765 4 0.0999075 0.239634 0.307795
3158 4 0.128169 0.189387 0.313166
635 4 0.143503 0.199696 0.319042
634 2 0.1639 0.205811 0.329644
2642 4 0.235651 0.178217 0.306949
2788 2 0.441363 0.169042 0.251005
344 4 0.00698441 0.303861 0.327089
343 2 0.0326313 0.298613 0.326518
345 4 0.0582781 0.293366 0.325948
2764 2 0.118143 0.249821 0.297897
2766 4 0.136378 0.260007 0.287999
2534 4 0.150138 0.271022 0.290306
2566 2 0.166231 0.325108 0.316464
2568 4 0.188725 0.310573 0.309596
2533 2 0.174977 0.271629 0.289363
290 4 0.203738 0.321139 0.305634
2535 4 0.199815 0.272237 0.28842
2945 4 0.211524 0.286949 0.292976
2944 2 0.236506 0.276134 0.291495
289 2 0.226894 0.326572 0.305662
2946 4 0.261488 0.26532 0.290014
291 4 0.250051 0.332006 0.30569
1395 4 0.492685 0.264087 0.332504
375 4 0.00244532 0.413765 0.307604
2567 4 0.143737 0.339642 0.323331
2499 4 0.126345 0.352903 0.329412
1574 4 0.127663 0.371884 0.325904
1573 2 0.14715 0.381643 0.318309
5 3 0.178133 0.386325 0.295948
2 3 0.172081 0.401914 0.262127
1575 4 0.166637 0.391403 0.310715
1 1 0.187348 0.387212 0.275232
3 3 0.191599 0.366217 0.265368
4 3 0.207576 0.394619 0.276817
338 4 0.263071 0.344475 0.306414
337 2 0.287918 0.344184 0.303092
499 2 0.362604 0.410966 0.251533
2556 4 0.333253 0.340623 0.303638
339 4 0.312765 0.343892 0.29977
2554 2 0.356003 0.344694 0.310533
2555 4 0.378754 0.348764 0.317429
2851 2 0.42227 0.35667 0.320451
2852 4 0.398666 0.354598 0.314048
2853 4 0.445874 0.358743 0.326855
2620 2 0.482364 0.376897 0.319997
2622 4 0.462918 0.365766 0.324125
3997 2 0.0017334 0.499848 0.276259
1746 4 0.0418272 0.49716 0.267764
2873 4 0.0777296 0.421566 0.255816
2872 2 0.0886926 0.440426 0.261764
1658 4 0.0858592 0.492937 0.306822
2874 4 0.0996555 0.459286 0.267711
3696 4 0.119507 0.456815 0.261581
1657 2 0.11147 0.485903 0.306712
1576 2 0.172872 0.497132 0.315554
1659 4 0.137081 0.478869 0.306603
1578 4 0.154292 0.486319 0.307522
1338 4 0.328134 0.491243 0.3308
615 4 0.339995 0.479548 0.319125
501 4 0.382842 0.419559 0.259138
1937 4 0.392092 0.497124 0.315818
613 2 0.356663 0.494429 0.31872
1157 4 0.396424 0.425481 0.27178
1156 2 0.409947 0.442992 0.268528
1158 4 0.423469 0.460502 0.265276
542 4 0.429231 0.429336 0.331789
644 4 0.497234 0.461002 0.248734
1803 4 0.441745 0.461939 0.272164
1802 4 0.475474 0.491296 0.272658
1801 2 0.458609 0.476617 0.272411
2900 4 0.00733971 0.057344 0.402536
2817 4 0.0709412 0.0550553 0.386588
2815 2 0.0949269 0.0535707 0.394584
2816 4 0.118913 0.0520862 0.40258
2714 4 0.130511 0.0652531 0.401817
2713 2 0.15522 0.0623967 0.395606
340 2 0.175493 0.0487645 0.34148
2715 4 0.179928 0.0595403 0.389396
341 4 0.197646 0.0548927 0.347179
162 3 0.198918 0.0603998 0.395409
3477 4 0.215006 0.0568442 0.355253
161 1 0.214184 0.0735891 0.390904
165 3 0.220509 0.0711836 0.369005
3475 2 0.236095 0.0478526 0.341743
164 3 0.233298 0.0669246 0.404503
684 4 0.291401 0.0381643 0.400925
2645 4 0.249419 0.0699181 0.416439
1061 4 0.306847 0.040731 0.39122
1062 4 0.340172 0.0682643 0.378181
1060 2 0.323509 0.0544976 0.384701
4239 4 0.433881 0.015454 0.406946
3746 4 0.418776 0.00638271 0.41165
3851 4 0.497322 0.0346833 0.394636
4237 2 0.456695 0.0208671 0.402817
4238 4 0.479509 0.0262801 0.398689
163 3 0.20365 0.0957175 0.395272
2821 2 0.311111 0.161098 0.409077
368 4 0.349101 0.154871 0.404788
367 2 0.36331 0.164376 0.388476
2657 4 0.0972423 0.170852 0.409381
2656 2 0.104598 0.179114 0.387672
2658 4 0.111953 0.187377 0.365963
2495 4 0.106535 0.249859 0.404431
636 4 0.184298 0.211925 0.340245
711 4 0.203308 0.216437 0.340025
709 2 0.223416 0.221761 0.351932
710 4 0.243524 0.227085 0.363838
2823 4 0.288911 0.168977 0.396936
536 4 0.257923 0.238777 0.369602
535 2 0.275707 0.244438 0.384731
2543 4 0.292703 0.182741 0.383643
2542 2 0.304661 0.193771 0.366513
2544 4 0.31662 0.2048 0.349384
471 4 0.329695 0.219095 0.349343
537 4 0.293491 0.250099 0.399859
469 2 0.350732 0.224339 0.359489
369 4 0.377518 0.173881 0.372165
470 4 0.371768 0.229582 0.369636
473 4 0.369326 0.183885 0.355184
472 2 0.392953 0.179183 0.345449
479 4 0.391573 0.230513 0.367051
474 4 0.416581 0.17448 0.335714
478 2 0.413518 0.233593 0.356926
1394 4 0.452756 0.242714 0.338241
480 4 0.435463 0.236673 0.3468
2654 4 0.000927468 0.292429 0.339667
2529 4 0.0140528 0.329138 0.369627
2527 2 0.0349998 0.314984 0.380203
2496 4 0.0627232 0.281019 0.39076
2528 4 0.0559468 0.30083 0.390779
2494 2 0.0846292 0.265439 0.397596
366 4 0.125075 0.247718 0.396138
2830 2 0.0946651 0.317899 0.394957
2831 4 0.101026 0.300776 0.413015
364 2 0.146683 0.255903 0.398655
365 4 0.168292 0.264089 0.401172
1034 4 0.19882 0.305614 0.357259
3633 4 0.186688 0.267899 0.398684
3631 2 0.20757 0.277069 0.395151
3632 4 0.228452 0.28624 0.391618
1033 2 0.202459 0.327655 0.365231
2451 4 0.244195 0.293357 0.402328
2449 2 0.264519 0.299312 0.391414
2450 4 0.284843 0.305268 0.380501
2700 4 0.29916 0.303404 0.395267
2698 2 0.316054 0.309592 0.379413
2699 4 0.332949 0.31578 0.363558
1393 2 0.47272 0.2534 0.335373
2832 4 0.0883042 0.335022 0.376898
2497 2 0.108164 0.347589 0.344258
2498 4 0.0899829 0.342274 0.359105
1035 4 0.206097 0.349696 0.373202
585 4 0.218999 0.361929 0.364846
583 2 0.240764 0.367074 0.373336
584 4 0.262529 0.372218 0.381826
893 4 0.282659 0.37154 0.383794
1173 4 0.279701 0.412384 0.40482
892 2 0.307206 0.372815 0.381243
894 4 0.331753 0.374091 0.378693
569 4 0.343996 0.381109 0.363857
568 2 0.367439 0.382689 0.356377
541 2 0.417873 0.410367 0.336056
570 4 0.390882 0.384269 0.348898
543 4 0.406514 0.391397 0.340322
2927 4 0.445525 0.407122 0.407281
548 4 0.153814 0.453147 0.366925
547 2 0.175904 0.456687 0.357541
549 4 0.197994 0.460227 0.348157
1336 2 0.308766 0.500753 0.346278
2926 2 0.422574 0.421562 0.412881
1451 4 0.457025 0.418791 0.39966
1450 2 0.472073 0.431186 0.387365
1452 4 0.487121 0.443581 0.375069
2899 2 0.0258321 0.0565795 0.419538
2901 4 0.0443245 0.055815 0.43654
3174 4 0.0515809 0.0622383 0.452343
3172 2 0.0758008 0.0618742 0.445824
3173 4 0.100021 0.06151 0.439305
426 4 0.269011 0.0719862 0.423291
2646 4 0.23472 0.0654586 0.4637
2644 2 0.24207 0.0676884 0.44007
682 2 0.303042 0.01823 0.414268
424 2 0.291612 0.0777932 0.427593
843 4 0.367828 0.00832942 0.457184
841 2 0.346689 0.000713261 0.450611
3747 4 0.386232 0.011949 0.450281
3745 2 0.402504 0.00916585 0.430965
3031 2 0.00862925 0.121674 0.465443
3033 4 0.029065 0.129689 0.473478
945 4 0.0467087 0.131522 0.463221
943 2 0.0690592 0.138257 0.466164
944 4 0.0914097 0.144991 0.469106
3327 4 0.112515 0.136462 0.463167
3325 2 0.137117 0.137391 0.466083
3326 4 0.161719 0.138321 0.469
320 4 0.181574 0.13979 0.474413
319 2 0.206018 0.14185 0.474316
321 4 0.230463 0.14391 0.474218
642 4 0.248667 0.140926 0.481753
640 2 0.271232 0.147468 0.480006
425 4 0.314213 0.0836001 0.431895
641 4 0.293797 0.15401 0.478258
2916 4 0.333983 0.0859603 0.433629
7 3 0.312304 0.157665 0.475521
2822 4 0.333312 0.153219 0.421218
9 3 0.330209 0.155889 0.442304
6 1 0.328204 0.165727 0.463317
2914 2 0.358395 0.08781 0.435827
8 3 0.349147 0.160382 0.474327
2915 4 0.382808 0.0896596 0.438026
1968 4 0.398698 0.097807 0.440467
1966 2 0.421209 0.101332 0.448766
1967 4 0.443719 0.104857 0.457064
3620 4 0.45878 0.109422 0.467956
3619 2 0.481767 0.111809 0.47605
2602 2 0.0159185 0.188448 0.488324
2603 4 0.0384484 0.195163 0.487617
900 4 0.049998 0.209111 0.490238
10 3 0.321096 0.188334 0.461337
2484 4 0.368513 0.164584 0.473156
2482 2 0.392634 0.167261 0.470691
2483 4 0.416756 0.169937 0.468226
2801 4 0.433806 0.175425 0.467471
2800 2 0.457862 0.175492 0.46071
2802 4 0.481919 0.175559 0.453948
764 4 0.497435 0.178489 0.464978
2956 2 0.0122795 0.258112 0.430935
2957 4 0.029644 0.258995 0.448705
453 4 0.10741 0.314364 0.424174
451 2 0.120722 0.31219 0.445536
452 4 0.134035 0.310016 0.466897
488 4 0.226487 0.31704 0.444151
487 2 0.249908 0.318085 0.452162
489 4 0.27333 0.31913 0.460174
2924 4 0.285905 0.328476 0.449947
2923 2 0.30343 0.335508 0.435479
2925 4 0.320954 0.342541 0.421011
1644 4 0.114017 0.49792 0.472672
1642 2 0.0975512 0.496286 0.491081
1171 2 0.258996 0.423789 0.417788
1172 4 0.238291 0.435193 0.430756
2928 4 0.399624 0.436002 0.418481
2741 4 0.408513 0.450266 0.422391
2740 2 0.408864 0.474471 0.420324
4179 4 0.48097 0.427007 0.480814
3961 2 0.443579 0.417451 0.49464
3962 4 0.466672 0.418291 0.485573
761 4 0.0099229 0.0618495 0.571683
760 2 0.999589 0.063132 0.548819
964 2 0.320481 0.150181 0.57461
966 4 0.295306 0.158489 0.578472
965 4 0.345656 0.141873 0.570748
2322 4 0.35739 0.143936 0.556291
2320 2 0.376594 0.155346 0.560596
918 4 0.428048 0.108464 0.572119
916 2 0.439841 0.125834 0.563506
917 4 0.451635 0.143204 0.554893
3237 4 0.472168 0.133055 0.555733
3235 2 0.494795 0.139093 0.559194
3207 4 0.0908649 0.224723 0.577039
3205 2 0.09268 0.216773 0.553333
3206 4 0.0944952 0.208823 0.529627
899 4 0.0907583 0.21954 0.513244
898 2 0.0703782 0.214325 0.501741
824 4 0.108293 0.226492 0.511864
823 2 0.133478 0.22299 0.507558
825 4 0.158664 0.219487 0.503252
695 4 0.17329 0.21092 0.515761
694 2 0.189741 0.18873 0.513749
696 4 0.206192 0.166541 0.511737
2175 4 0.287017 0.177952 0.58291
2321 4 0.395798 0.166755 0.5649
406 2 0.140184 0.276856 0.501615
407 4 0.147004 0.298854 0.501233
803 4 0.158582 0.296793 0.517353
408 4 0.133364 0.254858 0.501998
802 2 0.182262 0.296813 0.525367
804 4 0.205943 0.296832 0.533382
1238 4 0.225789 0.294054 0.539701
1237 2 0.248264 0.298996 0.546274
1239 4 0.27074 0.303939 0.552847
891 4 0.287626 0.311036 0.557472
889 2 0.306276 0.316913 0.571278
4215 4 0.0471908 0.399053 0.546721
4213 2 0.061802 0.399086 0.567006
538 2 0.117393 0.39856 0.571811
539 4 0.14015 0.402483 0.564738
3369 4 0.155437 0.408904 0.555024
3367 2 0.180018 0.41001 0.5577
3368 4 0.204599 0.411116 0.560376
1281 4 0.224249 0.406151 0.55639
1279 2 0.248599 0.40261 0.548726
1280 4 0.272948 0.399069 0.541062
878 4 0.29125 0.397476 0.533197
877 2 0.313708 0.40352 0.528733
879 4 0.336166 0.409564 0.524268
812 4 0.352787 0.410798 0.514138
3418 2 0.405176 0.355395 0.576024
3419 4 0.424736 0.359844 0.562544
811 2 0.375961 0.415041 0.509239
1205 4 0.0274342 0.470976 0.58379
4538 4 0.0843795 0.495007 0.528479
1643 4 0.0810856 0.494652 0.509489
1445 4 0.26949 0.472786 0.526501
1444 2 0.277657 0.491847 0.516286
3963 4 0.420485 0.416612 0.503707
813 4 0.399134 0.419283 0.50434
1261 2 0.0197654 0.00597749 0.666827
1263 4 0.0416062 0.0117665 0.659429
2283 4 0.287327 0.00251809 0.661945
2281 2 0.311389 0.00358533 0.656184
2282 4 0.335451 0.00465258 0.650423
3083 4 0.353792 0.00678471 0.6418
3082 2 0.3713 0.0200952 0.636807
3084 4 0.388807 0.0334058 0.631814
269 4 0.40875 0.0330691 0.628564
268 2 0.433064 0.034097 0.633188
270 4 0.457378 0.035125 0.637813
3050 4 0.479432 0.0308237 0.63687
1003 2 0.325648 0.121895 0.66732
1005 4 0.302431 0.116989 0.664413
1004 4 0.348864 0.126801 0.670226
2255 4 0.366949 0.131242 0.661736
2254 2 0.390753 0.132733 0.655421
2256 4 0.414556 0.134224 0.649105
1022 4 0.430801 0.142214 0.650812
1021 2 0.455937 0.141171 0.65288
1023 4 0.481073 0.140128 0.654947
936 4 0.0243054 0.202929 0.61637
934 2 0.0039064 0.195684 0.607106
1259 4 0.0435732 0.206953 0.618297
1258 2 0.0633716 0.212877 0.606368
1260 4 0.08317 0.218801 0.594439
3001 2 0.273796 0.223987 0.643625
2174 4 0.269166 0.184056 0.629739
3002 4 0.275642 0.246149 0.652891
3003 4 0.271951 0.201826 0.634358
2173 2 0.278091 0.181004 0.606325
3385 2 0.329572 0.235037 0.648567
3386 4 0.321613 0.24601 0.626767
1155 4 0.0205714 0.275399 0.614189
1257 4 0.0400026 0.273494 0.623142
1255 2 0.0638526 0.271547 0.631729
1256 4 0.0877025 0.2696 0.640316
2244 4 0.0964435 0.327618 0.642546
959 4 0.106809 0.270477 0.642837
958 2 0.129082 0.27767 0.641899
960 4 0.151356 0.284864 0.640961
806 4 0.113067 0.329649 0.653008
3239 4 0.165923 0.288728 0.653927
3238 2 0.188178 0.291565 0.66354
890 4 0.324925 0.32279 0.585084
82 3 0.34513 0.32476 0.588061
85 3 0.368523 0.305886 0.614017
81 1 0.359604 0.326592 0.605494
2242 2 0.070883 0.332259 0.640611
2243 4 0.0453225 0.336901 0.638676
540 4 0.0946361 0.394637 0.578884
4214 4 0.0764133 0.399118 0.587291
999 4 0.0787044 0.392745 0.670311
997 2 0.0987067 0.396544 0.657085
805 2 0.133083 0.33661 0.642546
998 4 0.118709 0.400343 0.643858
1041 4 0.133749 0.407954 0.652469
807 4 0.153098 0.343572 0.632085
1039 2 0.156055 0.398062 0.641241
978 4 0.173307 0.335631 0.634721
1040 4 0.178362 0.388171 0.630013
976 2 0.196533 0.340907 0.634491
977 4 0.21976 0.346182 0.634261
3381 4 0.235273 0.352533 0.622339
3379 2 0.254104 0.358941 0.635447
3380 4 0.272935 0.365349 0.648555
905 4 0.292687 0.367326 0.645978
84 3 0.347227 0.340183 0.621869
906 4 0.342985 0.34855 0.640154
904 2 0.317836 0.357938 0.643066
83 3 0.377124 0.335996 0.597585
3420 4 0.385616 0.350947 0.589505
773 4 0.00920511 0.467806 0.588883
1204 2 0.0448981 0.483722 0.590626
1206 4 0.062362 0.496469 0.597461
4092 4 0.199097 0.483761 0.666328
3612 4 0.104655 0.0297477 0.697097
3610 2 0.126011 0.0139033 0.689323
4502 4 0.209687 0.0086225 0.674878
3062 4 0.165495 0.054906 0.732435
4370 4 0.181511 0.0595689 0.724287
3061 2 0.17575 0.0303352 0.732942
3063 4 0.186006 0.00576446 0.733448
4369 2 0.174392 0.0819515 0.713317
4501 2 0.187841 0.00193531 0.680678
3103 2 0.249399 0.00252957 0.671442
3105 4 0.2719 0.00918797 0.67326
1999 2 0.403306 0.00687199 0.73719
2000 4 0.415309 0.0199381 0.72205
4371 4 0.167274 0.104334 0.702348
3125 4 0.182084 0.112989 0.696561
3124 2 0.202348 0.116249 0.683409
3126 4 0.222612 0.119509 0.670257
3008 4 0.235483 0.127102 0.681453
195 3 0.237791 0.139442 0.725007
3007 2 0.25935 0.126635 0.673678
193 3 0.254266 0.163784 0.743389
191 1 0.237904 0.150963 0.744456
192 3 0.216679 0.164907 0.747627
3009 4 0.283216 0.126169 0.665903
3147 4 0.273596 0.169062 0.744055
3145 2 0.297971 0.171199 0.742551
3146 4 0.322347 0.173336 0.741047
1970 4 0.340561 0.175536 0.734583
3387 4 0.337531 0.224063 0.670367
384 4 0.352985 0.231767 0.670357
382 2 0.373013 0.219641 0.683809
1969 2 0.365665 0.174927 0.735845
383 4 0.393041 0.207515 0.697261
1971 4 0.39077 0.174318 0.737108
3383 4 0.409454 0.174891 0.733967
2972 4 0.412789 0.200749 0.693134
3252 4 0.461283 0.237905 0.676594
2971 2 0.429228 0.214342 0.685545
3382 2 0.432407 0.179713 0.729175
2973 4 0.445667 0.227936 0.677955
3384 4 0.45536 0.184536 0.724383
3107 4 0.472164 0.191035 0.71446
3106 2 0.497068 0.190859 0.711826
3250 2 0.485824 0.237997 0.681273
3240 4 0.210433 0.294402 0.673153
3093 4 0.230187 0.286215 0.672987
3091 2 0.251637 0.293429 0.679239
3092 4 0.273088 0.300643 0.685491
3435 4 0.277615 0.314793 0.698862
3433 2 0.30083 0.316875 0.70657
3434 4 0.324046 0.318957 0.714277
1067 4 0.00550048 0.372919 0.708122
3113 4 0.0235203 0.370392 0.696674
3114 4 0.0662847 0.381557 0.678754
3112 2 0.0449025 0.375975 0.687714
854 4 0.365063 0.37658 0.743479
4559 4 0.439744 0.339017 0.72115
4558 2 0.456633 0.349604 0.70933
4560 4 0.473521 0.360191 0.69751
800 4 0.487158 0.369046 0.704637
2059 2 0.000946494 0.42766 0.683686
2060 4 0.0259015 0.419764 0.68892
1170 4 0.0454968 0.421768 0.692648
1168 2 0.0497208 0.42248 0.717253
1169 4 0.0539449 0.423191 0.741858
1904 4 0.0655638 0.435131 0.750639
4302 4 0.182556 0.476314 0.670573
4301 4 0.206316 0.430487 0.685601
4300 2 0.194436 0.4534 0.678087
4494 4 0.476849 0.457154 0.734526
888 4 0.0454326 0.0751789 0.753795
886 2 0.0265711 0.0628435 0.75528
3553 2 0.0202043 0.0624271 0.829555
3555 4 0.0414337 0.0713603 0.827753
887 4 0.00770961 0.0505082 0.756765
3202 2 0.199064 0.0136284 0.81809
3203 4 0.188189 0.00478071 0.798591
3487 2 0.287145 0.00245648 0.765786
1216 2 0.349461 0.0132615 0.755774
3488 4 0.309208 0.00704525 0.75744
1217 4 0.323919 0.0180061 0.753572
1218 4 0.375002 0.008517 0.757976
3041 4 0.348177 0.0736911 0.781071
3299 4 0.0266879 0.114718 0.785779
4127 4 0.00964105 0.109151 0.792885
3298 2 0.048744 0.121977 0.782686
3305 4 0.0536937 0.0847097 0.832996
3300 4 0.0708002 0.129237 0.779592
3304 2 0.0757286 0.0916745 0.828756
3483 4 0.0881367 0.136879 0.774726
3306 4 0.0977636 0.0986394 0.824516
3481 2 0.110543 0.143763 0.773207
3077 4 0.115379 0.106951 0.820027
3482 4 0.132949 0.150647 0.771688
3076 2 0.139306 0.107583 0.813294
1166 4 0.149664 0.158124 0.761487
3078 4 0.163232 0.108216 0.806561
1165 2 0.173215 0.160386 0.755113
1010 4 0.180075 0.113908 0.79603
1167 4 0.196766 0.162648 0.748738
1009 2 0.203082 0.117868 0.789911
194 3 0.242583 0.136185 0.762299
1011 4 0.226089 0.121828 0.783791
3764 4 0.244364 0.128189 0.780703
3763 2 0.266956 0.132006 0.788433
3765 4 0.289548 0.135824 0.796163
1994 4 0.307995 0.137856 0.790795
1050 4 0.310422 0.109149 0.824089
1993 2 0.331027 0.141479 0.784275
3040 2 0.339064 0.0895522 0.799611
3042 4 0.329952 0.105413 0.818151
1995 4 0.354059 0.145102 0.777755
1232 4 0.37603 0.145175 0.775809
1231 2 0.401492 0.140252 0.772807
1233 4 0.426954 0.13533 0.769806
1266 4 0.444302 0.142142 0.769097
1264 2 0.466676 0.148574 0.765241
3402 4 0.489233 0.124031 0.793876
1265 4 0.489049 0.155006 0.761385
919 2 0.162939 0.220802 0.784762
921 4 0.173416 0.196828 0.779682
920 4 0.152462 0.244776 0.789842
3227 4 0.205364 0.220629 0.827783
864 4 0.184793 0.228091 0.825135
3226 2 0.220583 0.19965 0.819007
3228 4 0.235802 0.17867 0.810231
3272 4 0.00637132 0.254814 0.763362
3271 2 0.0260101 0.263638 0.772183
3273 4 0.0456489 0.272463 0.781003
3186 4 0.0584875 0.273608 0.795536
3184 2 0.0807727 0.276827 0.786336
3185 4 0.103058 0.280046 0.777136
866 4 0.11524 0.288892 0.788395
865 2 0.138612 0.274356 0.791969
867 4 0.161983 0.25982 0.795542
155 3 0.353368 0.302627 0.826452
1133 4 0.411346 0.291192 0.804356
1132 2 0.402569 0.284024 0.825922
50 3 0.470758 0.27837 0.827778
2407 2 0.0186571 0.375344 0.781961
3026 4 0.0135607 0.406337 0.805404
2408 4 0.0406863 0.358358 0.784825
3025 2 0.0327655 0.410831 0.819382
1950 4 0.0585856 0.354424 0.775912
3027 4 0.0519703 0.415324 0.83336
1948 2 0.0736678 0.370571 0.779255
1949 4 0.0887501 0.386718 0.782598
1242 4 0.10238 0.377905 0.796123
1240 2 0.12705 0.378354 0.799479
1241 4 0.15172 0.378802 0.802836
2031 4 0.165033 0.389441 0.802061
2029 2 0.186532 0.392666 0.791101
2030 4 0.208032 0.395891 0.780141
4361 4 0.227854 0.393045 0.784123
4360 2 0.250247 0.393143 0.773043
4362 4 0.272639 0.39324 0.761963
4197 4 0.290204 0.387522 0.752054
1008 4 0.34711 0.408874 0.761691
4196 4 0.33488 0.396365 0.767573
4195 2 0.312542 0.391943 0.759814
853 2 0.381155 0.365047 0.76113
793 2 0.391953 0.340457 0.817618
794 4 0.389136 0.353118 0.796057
855 4 0.397247 0.353513 0.77878
1116 4 0.015304 0.485573 0.813666
1989 4 0.0352307 0.485672 0.814955
1114 2 0.00169569 0.474066 0.828784
39 3 0.0570183 0.432773 0.833431
1987 2 0.0588098 0.485602 0.823318
1903 2 0.0784078 0.432265 0.772284
37 3 0.0892732 0.427854 0.812942
1905 4 0.0912518 0.429399 0.793929
1988 4 0.082389 0.485533 0.831682
4132 2 0.123836 0.489035 0.828644
4134 4 0.144845 0.496023 0.820589
3177 4 0.161704 0.500983 0.813168