ITEM: TIMESTEP
1495000
ITEM: NUMBER OF ATOMS
4590
ITEM: BOX BOUNDS xy xz yz pp pp pp
-1.1998283999999998e+01 9.9985700000000008e+00 -1.9997139999999973e+00
-9.9985700000000008e+00 9.9985700000000008e+00 0.0000000000000000e+00
-9.9985700000000008e+00 9.9985700000000008e+00 0.0000000000000000e+00
ITEM: ATOMS id type xs ys zs
3047 4 0.0135676 0.0261725 0.0672006
1761 4 0.0327349 0.0337084 0.0677131
1759 2 0.0424936 0.0447161 0.0469995
1760 4 0.0522523 0.0557238 0.026286
2675 4 0.0768003 0.000816494 0.0758447
3260 4 0.177792 0.0823739 0.0226626
1874 4 0.421713 0.0426058 0.0591869
2678 4 0.411704 0.0295411 0.0745973
2677 2 0.38809 0.0274074 0.0831447
1873 2 0.44467 0.0541444 0.0551047
1875 4 0.467628 0.065683 0.0510224
1653 4 0.483702 0.0615396 0.0423122
3259 2 0.195631 0.0975412 0.0113162
1251 4 0.267151 0.157459 0.0382098
3261 4 0.21347 0.112709 0.99997
1249 2 0.291905 0.161367 0.0341698
25 3 0.30199 0.161433 0.0782179
2894 4 0.331515 0.120454 0.0798568
23 3 0.317679 0.130056 0.0693506
1250 4 0.31666 0.165274 0.0301299
2893 2 0.356085 0.123402 0.0850774
2599 2 0.410141 0.118704 0.0630853
2601 4 0.43246 0.115233 0.053114
2600 4 0.387823 0.122175 0.0730565
378 4 0.442391 0.124758 0.0672455
376 2 0.465271 0.13019 0.0770825
3242 4 0.00259854 0.232337 0.0456836
572 4 0.0102064 0.192721 0.0115008
3241 2 0.0253224 0.23483 0.0563545
571 2 0.034959 0.192812 0.0150984
573 4 0.0597116 0.192904 0.0186959
3284 4 0.0667947 0.241165 0.0694022
464 4 0.079402 0.197926 0.016628
3243 4 0.0480463 0.237324 0.0670254
463 2 0.104512 0.199484 0.016821
2843 4 0.119959 0.239045 0.0517629
3283 2 0.0915949 0.247162 0.067517
465 4 0.129622 0.201042 0.0170141
2842 2 0.144084 0.234803 0.0496436
360 4 0.149221 0.199994 0.0166498
2844 4 0.16821 0.230561 0.0475244
358 2 0.174348 0.202562 0.0164818
2784 4 0.185833 0.239385 0.0530363
359 4 0.199476 0.205131 0.0163138
2782 2 0.207315 0.23442 0.0638766
282 4 0.219543 0.207581 0.0226858
2783 4 0.228796 0.229455 0.0747169
280 2 0.244571 0.210301 0.0249051
281 4 0.269599 0.21302 0.0271244
2876 4 0.288842 0.214839 0.0321517
2875 2 0.313624 0.218688 0.0360425
1247 4 0.33545 0.169058 0.0244765
2877 4 0.338407 0.222538 0.0399332
1246 2 0.359851 0.172368 0.0303829
2652 4 0.358356 0.222714 0.0407705
2650 2 0.380053 0.22992 0.052315
1248 4 0.384252 0.175678 0.0362892
2441 4 0.403777 0.174768 0.0336756
2651 4 0.401749 0.237126 0.0638594
527 4 0.419659 0.233846 0.056106
2440 2 0.428725 0.176396 0.0365427
526 2 0.441446 0.238025 0.0438136
2442 4 0.453673 0.178025 0.0394098
528 4 0.463232 0.242204 0.0315212
492 4 0.473456 0.184675 0.0423567
490 2 0.497623 0.187769 0.0491681
3285 4 0.116395 0.253159 0.0656319
967 2 0.250057 0.266965 0.00868605
969 4 0.274652 0.264362 0.0094623
968 4 0.225461 0.269567 0.0079098
462 4 0.288759 0.279009 0.0118998
460 2 0.306919 0.297665 0.00848883
461 4 0.325079 0.316321 0.00507782
3339 4 0.379288 0.303103 0.0257671
1079 4 0.343138 0.325963 0.00313732
2521 2 0.384868 0.322286 0.0640989
2523 4 0.383432 0.30688 0.0444057
3337 2 0.399811 0.306835 0.0114406
3338 4 0.420334 0.310567 0.997114
294 4 0.485971 0.333829 0.0022366
2748 4 0.265522 0.414961 0.0485533
2746 2 0.28829 0.406779 0.0499389
2747 4 0.311058 0.398596 0.0513244
562 2 0.325528 0.404528 0.00208966
1078 2 0.343583 0.349876 0.0101781
1080 4 0.344029 0.373789 0.0172189
564 4 0.344212 0.41626 0.0155399
2485 2 0.380972 0.411275 0.0228243
2486 4 0.399475 0.397221 0.028418
2998 2 0.00343288 0.491961 0.0583225
3000 4 0.0259362 0.484382 0.0531582
3390 4 0.0414116 0.490858 0.0637152
3444 4 0.0672714 0.451268 0.0233813
3442 2 0.0876744 0.452509 0.00880755
3552 4 0.228296 0.492736 0.06662
1568 4 0.247021 0.499936 0.0669095
1121 4 0.257058 0.42751 0.0365038
1567 2 0.270008 0.492437 0.0645621
1120 2 0.252636 0.428811 0.0119521
1569 4 0.292995 0.484938 0.0622148
4512 4 0.312701 0.489422 0.0671394
4510 2 0.336462 0.499802 0.0681973
2487 4 0.362469 0.42533 0.0172306
3808 2 0.00374788 0.0699797 0.112681
3809 4 0.0197843 0.0625025 0.129639
233 4 0.0912999 0.0142721 0.082678
2519 4 0.0359537 0.0758051 0.133382
2518 2 0.0371907 0.0628538 0.15462
2745 4 0.103673 0.0110813 0.14623
232 2 0.109323 0.00404715 0.0952424
689 4 0.229787 0.0586735 0.152611
688 2 0.250299 0.0748882 0.15027
758 4 0.266667 0.0746414 0.0975872
356 4 0.285763 0.0746338 0.105022
2701 2 0.279996 0.028564 0.153969
2703 4 0.292536 0.0150246 0.138195
355 2 0.310544 0.0745974 0.108331
2781 4 0.302773 0.0211664 0.121477
2779 2 0.326482 0.0233424 0.113195
357 4 0.335324 0.074561 0.11164
2780 4 0.350191 0.0255184 0.104912
2679 4 0.364476 0.0252736 0.0916921
623 4 0.355667 0.0829111 0.114891
1373 4 0.485253 0.0805806 0.0848235
744 4 0.0075262 0.141792 0.0900318
1478 4 0.0147526 0.145996 0.108527
1477 2 0.0361183 0.148457 0.121683
1479 4 0.057484 0.150919 0.134839
757 2 0.266085 0.0994442 0.0968066
759 4 0.265503 0.124247 0.0960261
690 4 0.27081 0.0911029 0.14793
24 3 0.283467 0.12791 0.0862026
699 4 0.289723 0.08742 0.150129
21 1 0.304389 0.140062 0.0846485
652 2 0.298008 0.15633 0.135505
653 4 0.306224 0.157954 0.11189
654 4 0.289792 0.154705 0.159121
22 3 0.314619 0.140356 0.105264
697 2 0.309982 0.0962609 0.163229
2895 4 0.380654 0.126349 0.090298
622 2 0.375941 0.0871838 0.129487
624 4 0.396215 0.0914565 0.144083
521 4 0.408847 0.106001 0.151869
520 2 0.431438 0.117193 0.158102
377 4 0.48815 0.135622 0.0869196
522 4 0.45403 0.128386 0.164335
1372 2 0.499737 0.0966611 0.0989951
505 2 0.193006 0.200864 0.165421
507 4 0.168522 0.192843 0.165426
506 4 0.217491 0.208886 0.165416
836 4 0.23531 0.212512 0.156218
835 2 0.258079 0.215211 0.145649
837 4 0.280848 0.217909 0.13508
2615 4 0.300356 0.218503 0.13822
2975 4 0.309648 0.169801 0.095044
2614 2 0.3248 0.223799 0.143247
2974 2 0.321168 0.19305 0.0953978
2616 4 0.349243 0.229094 0.148274
2976 4 0.332689 0.216298 0.0957516
2717 4 0.36413 0.222769 0.138501
2716 2 0.375359 0.204888 0.126839
2718 4 0.386588 0.187006 0.115178
287 4 0.0284212 0.313433 0.162952
286 2 0.0520305 0.323882 0.160335
252 4 0.0219016 0.33282 0.159954
110 3 0.366256 0.287326 0.0923525
2537 4 0.373334 0.329029 0.155261
728 4 0.319779 0.327574 0.165641
108 3 0.376984 0.272555 0.124764
106 1 0.383887 0.285689 0.10647
109 3 0.392448 0.30682 0.113564
107 3 0.400505 0.27588 0.0953718
2704 2 0.455798 0.325021 0.146508
2522 4 0.386304 0.337692 0.083792
1104 4 0.497962 0.320144 0.0882301
2705 4 0.466926 0.305985 0.156151
288 4 0.0756398 0.334331 0.157718
296 4 0.0951471 0.338281 0.154946
295 2 0.117722 0.348514 0.16243
2571 4 0.151826 0.358748 0.153261
2569 2 0.173752 0.34878 0.152668
2570 4 0.195677 0.338811 0.152075
2969 4 0.215362 0.345792 0.153246
2970 4 0.260075 0.333683 0.137591
2968 2 0.237718 0.339737 0.145418
729 4 0.280953 0.337545 0.137086
727 2 0.300366 0.332559 0.151364
2917 2 0.300226 0.411155 0.150617
2919 4 0.29118 0.414752 0.12773
768 4 0.317712 0.412376 0.114723
766 2 0.341371 0.406374 0.113919
767 4 0.36503 0.400373 0.113115
2444 4 0.379015 0.386139 0.116262
2443 2 0.373991 0.36566 0.130295
2445 4 0.368967 0.345181 0.144328
2771 4 0.395325 0.34833 0.0991516
2727 4 0.45899 0.401253 0.0958772
4007 4 0.431545 0.349409 0.150501
2770 2 0.418403 0.345826 0.107793
2772 4 0.441481 0.343322 0.116435
1103 4 0.45795 0.342213 0.103437
2706 4 0.44467 0.344057 0.136865
2725 2 0.479266 0.391333 0.0872493
1102 2 0.477956 0.331179 0.0958334
329 4 0.115076 0.496738 0.165511
2094 4 0.295946 0.42817 0.11295
2092 2 0.310807 0.449128 0.108154
2093 4 0.325668 0.470086 0.103359
1743 4 0.344774 0.481696 0.103458
1741 2 0.3571 0.490343 0.123929
1742 4 0.369426 0.498989 0.1444
1425 4 0.483599 0.476046 0.148937
723 4 0.0199999 0.0414052 0.182027
2520 4 0.0384278 0.0499025 0.175858
1506 4 0.0853862 0.0547622 0.240954
2574 4 0.0684721 0.0594322 0.249809
1504 2 0.109082 0.0516041 0.234737
1505 4 0.132778 0.048446 0.228519
255 4 0.141107 0.0647497 0.218123
253 2 0.164285 0.0600226 0.224717
254 4 0.187463 0.0552955 0.23131
632 4 0.197009 0.0517143 0.2143
631 2 0.221643 0.0576615 0.217754
633 4 0.246277 0.0636087 0.221208
2879 4 0.26235 0.0668089 0.233669
2702 4 0.267456 0.0421033 0.169743
2878 2 0.286698 0.0675188 0.227724
2880 4 0.311046 0.0682287 0.22178
420 4 0.329255 0.0606388 0.221973
418 2 0.353812 0.0682735 0.222852
2837 4 0.398213 0.0773484 0.217645
419 4 0.378369 0.0759083 0.223731
3678 4 0.00952047 0.110448 0.205211
3676 2 0.0335137 0.119976 0.203322
2572 2 0.0683447 0.0836225 0.244019
3677 4 0.057507 0.129503 0.201432
2573 4 0.0682174 0.107813 0.23823
179 3 0.0769589 0.137089 0.204656
178 3 0.084495 0.107443 0.225992
176 1 0.0930681 0.122931 0.210206
180 3 0.0994988 0.112186 0.191582
177 3 0.11143 0.135431 0.219155
1748 4 0.117441 0.123119 0.183882
405 4 0.131603 0.133866 0.22592
1747 2 0.142512 0.127123 0.183136
403 2 0.140772 0.156995 0.232493
249 4 0.14807 0.123051 0.23523
1749 4 0.167582 0.131127 0.182391
247 2 0.169626 0.114231 0.241856
3209 4 0.185218 0.141346 0.178635
248 4 0.191182 0.10541 0.248481
3208 2 0.2082 0.152543 0.18331
2180 4 0.239035 0.0993396 0.198472
2179 2 0.25771 0.117704 0.200582
2181 4 0.276384 0.136068 0.202691
29 3 0.240123 0.137903 0.248507
2790 4 0.294093 0.143927 0.198536
698 4 0.330241 0.105102 0.17633
2788 2 0.318649 0.14703 0.193273
2789 4 0.343205 0.150133 0.188011
2673 4 0.361726 0.147713 0.197642
2836 2 0.407152 0.0968917 0.231589
2838 4 0.416092 0.116435 0.245534
2671 2 0.3833 0.158847 0.206728
582 4 0.438683 0.147861 0.248181
750 4 0.449904 0.143612 0.231493
748 2 0.448568 0.138139 0.207109
749 4 0.447232 0.132667 0.182724
385 2 0.00594598 0.193528 0.201427
386 4 0.0279667 0.188793 0.211264
276 4 0.0485659 0.198761 0.206729
274 2 0.0722691 0.196632 0.199751
275 4 0.0959722 0.194504 0.192774
497 4 0.10755 0.197001 0.176649
498 4 0.157518 0.205873 0.173028
496 2 0.132534 0.201437 0.174839
404 4 0.149941 0.180124 0.239066
591 4 0.169008 0.181211 0.248764
3210 4 0.231182 0.16374 0.187986
2754 4 0.228968 0.250113 0.186499
557 4 0.249114 0.174946 0.190173
556 2 0.271638 0.172631 0.180072
558 4 0.294162 0.170316 0.169972
2672 4 0.404875 0.169981 0.215815
2952 4 0.418333 0.185031 0.222327
2950 2 0.441928 0.195746 0.220571
2951 4 0.465522 0.206461 0.218816
2945 4 0.492948 0.248529 0.234425
2454 4 0.486366 0.201077 0.220764
2540 4 0.00900419 0.291193 0.245858
476 4 0.132307 0.259441 0.234949
755 4 0.139425 0.268778 0.218798
756 4 0.16195 0.256324 0.176601
754 2 0.150687 0.262551 0.197699
2799 4 0.178204 0.268401 0.17474
2797 2 0.202819 0.266069 0.17322
2798 4 0.227434 0.263736 0.1717
2752 2 0.249885 0.262199 0.196024
612 4 0.270584 0.313824 0.226873
2753 4 0.270801 0.274285 0.205549
610 2 0.286228 0.329982 0.239809
2536 2 0.352037 0.330201 0.168116
2730 4 0.289068 0.278105 0.210533
2728 2 0.310871 0.277438 0.222633
2538 4 0.33074 0.331373 0.180971
2729 4 0.332675 0.276771 0.234733
524 4 0.458015 0.287111 0.219933
300 4 0.448512 0.296045 0.247473
525 4 0.459957 0.292238 0.17021
523 2 0.458986 0.289674 0.195072
3450 4 0.0428738 0.369271 0.217061
735 4 0.00187545 0.408201 0.187673
3448 2 0.0657155 0.373208 0.227345
3449 4 0.0885572 0.377145 0.237629
714 4 0.10278 0.38113 0.252336
297 4 0.140298 0.358746 0.169915
588 4 0.21316 0.418398 0.228501
264 4 0.300539 0.391645 0.2469
262 2 0.290476 0.406368 0.230307
2918 4 0.309272 0.407559 0.173503
2590 2 0.341341 0.353752 0.245461
2591 4 0.362527 0.367412 0.238697
676 2 0.354486 0.417534 0.178008
677 4 0.329404 0.415429 0.176537
2862 4 0.382262 0.37186 0.23406
4006 2 0.414303 0.350725 0.168435
4008 4 0.397062 0.352041 0.186369
2860 2 0.404984 0.379008 0.224587
2861 4 0.427707 0.386157 0.215113
3990 4 0.446362 0.392475 0.208385
3988 2 0.467207 0.386309 0.197134
3989 4 0.488051 0.380143 0.185884
669 4 0.0693624 0.42455 0.241618
667 2 0.0935482 0.425386 0.248218
3817 2 0.192396 0.443234 0.242416
3818 4 0.176866 0.460818 0.238284
3819 4 0.207926 0.42565 0.246548
587 4 0.262468 0.426842 0.219516
586 2 0.237814 0.42262 0.224008
263 4 0.280413 0.421092 0.213714
3599 4 0.257434 0.499176 0.169018
678 4 0.379568 0.419639 0.179479
740 4 0.399826 0.422138 0.183975
739 2 0.423524 0.432701 0.184957
741 4 0.447223 0.443264 0.185939
3705 4 0.459529 0.44853 0.201678
3703 2 0.4711 0.470513 0.194322
3695 4 0.455058 0.424361 0.240826
2874 4 0.395248 0.440634 0.249438
3694 2 0.431743 0.426891 0.248786
1802 4 0.474818 0.430984 0.243557
3704 4 0.482672 0.492495 0.186967
1801 2 0.498764 0.438917 0.238436
2693 4 0.0153475 0.0518365 0.288419
2692 2 0.0402858 0.0513303 0.289107
2694 4 0.0652242 0.050824 0.289796
512 4 0.0817846 0.064114 0.285294
511 2 0.105634 0.0613892 0.291287
513 4 0.129483 0.0586645 0.297279
1271 4 0.148692 0.0652958 0.293393
1270 2 0.173463 0.0692521 0.289468
1272 4 0.198233 0.0732083 0.285543
4307 4 0.217686 0.0714461 0.282315
4306 2 0.237592 0.0806111 0.295753
3697 2 0.219802 5.80617e-05 0.281733
3698 4 0.244785 0.00124968 0.28409
3741 4 0.261065 0.00598704 0.272966
3739 2 0.275557 0.000140682 0.253897
480 4 0.0106915 0.144106 0.31748
1394 4 0.0107385 0.148907 0.297898
1189 2 0.0596935 0.161824 0.278626
650 4 0.0625362 0.139481 0.305705
1191 4 0.0730577 0.15687 0.298838
649 2 0.0718121 0.141839 0.328897
2871 4 0.0930447 0.0905331 0.335687
27 3 0.204613 0.122182 0.252224
605 4 0.25924 0.141501 0.252484
30 3 0.227048 0.125725 0.282104
544 2 0.230877 0.141733 0.319645
26 1 0.226306 0.12164 0.259702
546 4 0.238486 0.129966 0.299409
28 3 0.233118 0.100662 0.255347
4308 4 0.257497 0.0897761 0.309192
604 2 0.283272 0.143966 0.25979
606 4 0.307303 0.146432 0.267096
731 4 0.326667 0.143568 0.268364
730 2 0.351738 0.144768 0.269452
732 4 0.376809 0.145969 0.27054
581 4 0.397005 0.154022 0.274142
580 2 0.417844 0.150941 0.261161
1198 2 0.0638037 0.239958 0.321776
1199 4 0.0500365 0.23317 0.301582
1190 4 0.0463292 0.166778 0.258414
589 2 0.19218 0.18263 0.258396
477 4 0.163495 0.245847 0.270397
590 4 0.215352 0.184049 0.268029
2850 4 0.226981 0.223261 0.316882
2848 2 0.228672 0.208926 0.296636
2849 4 0.230364 0.194591 0.27639
285 4 0.246079 0.247078 0.259103
3572 4 0.212012 0.22495 0.32981
1220 4 0.232634 0.255593 0.269591
1030 2 0.00708017 0.260456 0.311247
1055 4 0.0195968 0.28427 0.260332
1031 4 0.02789 0.273878 0.319374
1054 2 0.0444875 0.289689 0.262053
117 3 0.0394732 0.286234 0.330952
1056 4 0.0693782 0.295107 0.263773
2682 4 0.0861277 0.307354 0.26209
2680 2 0.109353 0.306517 0.271101
2497 2 0.10899 0.294309 0.324301
2498 4 0.128139 0.289857 0.309421
2681 4 0.132578 0.30568 0.280111
475 2 0.147901 0.252644 0.252673
1219 2 0.20774 0.252793 0.272985
1221 4 0.182847 0.249993 0.276379
2655 4 0.145487 0.300067 0.302864
2653 2 0.170156 0.30347 0.298208
2654 4 0.194826 0.306874 0.293551
344 4 0.210585 0.296668 0.297695
283 2 0.270856 0.249714 0.263264
343 2 0.235239 0.299676 0.292898
345 4 0.259894 0.302684 0.288101
2567 4 0.277734 0.297783 0.295638
390 4 0.315888 0.257969 0.269692
284 4 0.295633 0.25235 0.267426
2566 2 0.301499 0.296796 0.288239
2568 4 0.325263 0.295809 0.280839
290 4 0.339717 0.309813 0.289905
289 2 0.363597 0.309636 0.297258
388 2 0.340943 0.262282 0.269177
389 4 0.365998 0.266595 0.268661
291 4 0.387477 0.30946 0.30461
2955 4 0.385106 0.275043 0.270842
2953 2 0.408497 0.280608 0.262308
2954 4 0.431887 0.286174 0.253775
365 4 0.414099 0.317295 0.333004
2524 2 0.467909 0.263407 0.326496
298 2 0.470124 0.308991 0.254166
2525 4 0.475375 0.261851 0.302734
299 4 0.491736 0.321937 0.260859
246 4 0.0561744 0.414112 0.252707
245 4 0.008153 0.397019 0.260695
244 2 0.0321637 0.405565 0.256701
712 2 0.12776 0.380906 0.252409
713 4 0.152741 0.380682 0.252483
338 4 0.171925 0.385945 0.257737
337 2 0.187121 0.384852 0.277478
339 4 0.202318 0.383759 0.29722
2556 4 0.219261 0.391173 0.308033
2554 2 0.242759 0.398376 0.315413
2853 4 0.29234 0.340372 0.301635
2622 4 0.284591 0.357281 0.295411
2620 2 0.297102 0.374161 0.280472
2555 4 0.266257 0.40558 0.322794
2851 2 0.303575 0.340697 0.323986
611 4 0.301872 0.346139 0.252746
2621 4 0.309612 0.39104 0.265534
2592 4 0.320155 0.340092 0.252225
2873 4 0.350153 0.414261 0.247811
3603 4 0.0313708 0.426666 0.322945
3999 4 0.0332329 0.462306 0.267669
3601 2 0.0517859 0.432304 0.308826
3997 2 0.045322 0.483767 0.25956
362 4 0.0208703 0.445529 0.265889
3602 4 0.072201 0.437943 0.294708
1758 4 0.128238 0.485848 0.299776
1756 2 0.108098 0.469002 0.298883
1757 4 0.087957 0.452156 0.297989
668 4 0.117734 0.426222 0.254819
777 4 0.181685 0.473325 0.253584
775 2 0.169955 0.492616 0.261738
374 4 0.281416 0.465586 0.272039
373 2 0.283523 0.455185 0.294557
375 4 0.28563 0.444784 0.317076
548 4 0.256523 0.431093 0.338101
2872 2 0.372701 0.427447 0.248624
1187 4 0.405894 0.480003 0.308872
1186 2 0.409054 0.494096 0.329452
3696 4 0.408429 0.42942 0.256746
1386 4 0.441329 0.497778 0.255083
1384 2 0.442136 0.48265 0.274856
1385 4 0.442943 0.467522 0.294628
1184 4 0.0120795 0.0173392 0.346788
2114 4 0.0134161 0.0199838 0.367158
1376 4 0.0246228 0.0809177 0.337769
2113 2 0.0378756 0.0169864 0.365374
2870 4 0.04344 0.0782822 0.332515
2115 4 0.0623351 0.0139891 0.36359
1128 4 0.0777677 0.0154765 0.350784
1126 2 0.102566 0.0194733 0.354515
2869 2 0.0682424 0.0844076 0.334101
1127 4 0.127365 0.0234701 0.358246
707 4 0.138175 0.0275541 0.373943
706 2 0.156627 0.0370346 0.358813
708 4 0.17508 0.0465152 0.343683
617 4 0.194907 0.0424515 0.342992
616 2 0.216529 0.0401768 0.354933
1062 4 0.229058 0.0364369 0.385616
618 4 0.238151 0.037902 0.366874
1060 2 0.224129 0.0330825 0.409965
2643 4 0.305191 0.0843766 0.387997
258 4 0.381137 0.00241895 0.362302
478 2 0.00746664 0.139009 0.341807
479 4 0.00424176 0.133912 0.366135
470 4 0.0224807 0.138421 0.376889
469 2 0.0440493 0.133971 0.387879
471 4 0.065618 0.129522 0.398869
2544 4 0.0808118 0.144376 0.400574
651 4 0.081088 0.144197 0.35209
2542 2 0.101907 0.153433 0.412216
3159 4 0.100443 0.147158 0.357953
1524 4 0.112839 0.0906587 0.333784
3157 2 0.125446 0.150549 0.36027
3158 4 0.15045 0.153939 0.362586
1522 2 0.136209 0.0969936 0.342039
530 4 0.165888 0.146082 0.35624
529 2 0.187618 0.155821 0.346263
1523 4 0.159578 0.103329 0.350293
1058 4 0.178876 0.100447 0.354609
545 4 0.223269 0.1535 0.339882
1057 2 0.202857 0.100015 0.361526
473 4 0.206472 0.16371 0.390552
1059 4 0.226838 0.0995838 0.368443
531 4 0.209348 0.165559 0.336287
3851 4 0.199407 0.0950828 0.410034
2641 2 0.327084 0.0968259 0.394621
2642 4 0.348976 0.109275 0.401246
369 4 0.359379 0.123074 0.414032
367 2 0.384269 0.127087 0.417101
636 4 0.00946042 0.189222 0.346266
711 4 0.0290748 0.19109 0.341534
709 2 0.0534054 0.19036 0.346931
710 4 0.0777359 0.18963 0.352327
1200 4 0.0775709 0.246745 0.34197
536 4 0.0986926 0.19922 0.348511
535 2 0.123194 0.207127 0.349195
537 4 0.147696 0.215035 0.349879
3573 4 0.165148 0.226272 0.346851
725 4 0.17056 0.245202 0.414607
3571 2 0.18858 0.225611 0.338331
724 2 0.192484 0.236432 0.409283
474 4 0.211313 0.213711 0.389784
726 4 0.214409 0.227661 0.403958
472 2 0.208893 0.18871 0.390168
370 2 0.0134878 0.310298 0.38028
372 4 0.0374147 0.308617 0.373817
119 3 0.0398332 0.290611 0.368282
116 1 0.0524927 0.285551 0.349857
510 4 0.0763074 0.256623 0.359293
120 3 0.0592391 0.264682 0.352115
2499 4 0.0898413 0.298761 0.339181
118 3 0.0710841 0.301172 0.34776
508 2 0.0996966 0.261689 0.368006
509 4 0.123086 0.266755 0.376718
717 4 0.13009 0.278545 0.392322
715 2 0.154238 0.283852 0.386057
716 4 0.178386 0.28916 0.379793
2529 4 0.198938 0.284125 0.377529
2527 2 0.219133 0.275765 0.366899
2831 4 0.250127 0.266409 0.37267
2528 4 0.239327 0.267405 0.356269
2830 2 0.27378 0.276437 0.376075
2832 4 0.297433 0.286465 0.379481
584 4 0.306983 0.295506 0.364218
583 2 0.326695 0.289169 0.351139
585 4 0.346407 0.282832 0.33806
1034 4 0.405829 0.259098 0.371503
364 2 0.436933 0.309184 0.332468
1033 2 0.430951 0.261616 0.370949
2495 4 0.46916 0.319952 0.336045
2526 4 0.460442 0.264963 0.350259
366 4 0.459767 0.301073 0.331932
1035 4 0.456073 0.264135 0.370396
2923 2 0.47057 0.305953 0.405092
2925 4 0.483716 0.312675 0.384491
2494 2 0.493634 0.323641 0.341572
2699 4 0.274301 0.402093 0.340022
2698 2 0.297766 0.397938 0.346155
2700 4 0.321231 0.393782 0.352289
2852 4 0.314811 0.341022 0.346337
2450 4 0.332089 0.353824 0.348722
2451 4 0.378296 0.365347 0.330336
2449 2 0.355193 0.359585 0.339529
3632 4 0.39651 0.37478 0.339429
2598 4 0.405833 0.398788 0.384862
2596 2 0.418025 0.379916 0.393275
3631 2 0.410061 0.355173 0.339071
2711 4 0.406299 0.408961 0.366958
3633 4 0.423612 0.335567 0.338714
2597 4 0.430217 0.361043 0.401687
3317 4 0.448223 0.356043 0.396853
3316 2 0.469441 0.371439 0.397808
3318 4 0.490659 0.386836 0.398763
2825 4 0.0419707 0.490039 0.403485
2824 2 0.0173138 0.492226 0.402215
1338 4 0.158277 0.499589 0.33948
614 4 0.21722 0.498248 0.333588
1937 4 0.233956 0.495656 0.345518
549 4 0.277136 0.463713 0.3718
547 2 0.266829 0.447403 0.354951
3581 4 0.293977 0.473643 0.381752
3580 2 0.318643 0.480338 0.379623
3642 4 0.318407 0.419143 0.41696
3582 4 0.343309 0.487033 0.377493
2588 4 0.353696 0.473685 0.387123
3640 2 0.339079 0.431369 0.407089
2587 2 0.377697 0.474589 0.394383
3641 4 0.359751 0.443595 0.397218
2712 4 0.37357 0.438219 0.386281
2710 2 0.389935 0.42359 0.37662
2589 4 0.401697 0.475493 0.401642
602 4 0.407426 0.466605 0.419767
2505 4 0.0979565 0.0373397 0.474292
2503 2 0.117647 0.0495348 0.46266
2504 4 0.137337 0.0617299 0.451027
4239 4 0.153338 0.0549042 0.442958
4237 2 0.166989 0.0739074 0.431734
684 4 0.234281 0.0201015 0.442512
1061 4 0.2192 0.029728 0.434313
682 2 0.256353 0.0153673 0.452234
2316 4 0.289553 0.0718288 0.482706
683 4 0.278424 0.010633 0.461956
2314 2 0.314187 0.0785306 0.480256
841 2 0.316301 0.00646307 0.453454
842 4 0.291642 0.999527 0.455114
2315 4 0.338821 0.0852324 0.477806
843 4 0.34096 0.0133992 0.451795
2196 4 0.353912 0.079643 0.487181
3747 4 0.349549 0.0312743 0.458057
3746 4 0.394386 0.0337495 0.435553
3745 2 0.371967 0.0325119 0.446805
2543 4 0.123002 0.162489 0.423858
2823 4 0.141773 0.156493 0.431469
2821 2 0.164544 0.166672 0.438426
4238 4 0.18064 0.0929106 0.420509
3852 4 0.241905 0.0898202 0.434971
3850 2 0.220656 0.0924515 0.422503
368 4 0.409158 0.1311 0.42017
2194 2 0.371891 0.0973428 0.494195
642 4 0.375783 0.148436 0.48053
10 3 0.429214 0.133093 0.422608
640 2 0.397762 0.152781 0.468608
641 4 0.419742 0.157126 0.456686
321 4 0.363922 0.155639 0.494795
9 3 0.449699 0.1181 0.449246
6 1 0.44528 0.137677 0.438547
7 3 0.437687 0.152039 0.454083
8 3 0.464785 0.147787 0.428843
2484 4 0.485211 0.15035 0.429645
899 4 0.0168945 0.175496 0.483955
824 4 0.0357058 0.179749 0.480297
311 4 0.00993493 0.246193 0.480634
823 2 0.0538692 0.188781 0.464621
825 4 0.0720326 0.197812 0.448946
695 4 0.0923024 0.205504 0.448305
694 2 0.114895 0.204506 0.458757
696 4 0.137488 0.203508 0.469208
2822 4 0.187315 0.176851 0.445382
410 4 0.204931 0.184054 0.450217
409 2 0.229075 0.184353 0.456821
411 4 0.253219 0.184651 0.463426
3461 4 0.273395 0.183868 0.4651
3460 2 0.295731 0.1883 0.476336
3462 4 0.318068 0.192731 0.487571
3497 4 0.331975 0.206925 0.483467
3496 2 0.355824 0.21712 0.483776
3498 4 0.379672 0.227314 0.484085
3081 4 0.399114 0.236553 0.483176
3079 2 0.421989 0.248914 0.485212
310 2 0.0343234 0.25458 0.481145
312 4 0.058712 0.262967 0.481656
443 4 0.0776682 0.272399 0.481669
442 2 0.10077 0.274101 0.47185
444 4 0.123872 0.275804 0.46203
2550 4 0.143027 0.27235 0.462728
2548 2 0.167404 0.271989 0.457341
2549 4 0.191782 0.271627 0.451954
406 2 0.284333 0.310048 0.493524
408 4 0.300996 0.320983 0.477301
451 2 0.368234 0.269631 0.437545
453 4 0.349351 0.282266 0.445269
452 4 0.387116 0.256996 0.429821
488 4 0.403342 0.269407 0.424726
489 4 0.450981 0.284166 0.437051
487 2 0.427161 0.276787 0.430888
3080 4 0.444864 0.261275 0.487248
2924 4 0.457425 0.299232 0.425694
872 4 0.463302 0.265085 0.476993
871 2 0.485385 0.271458 0.465827
1698 4 0.215406 0.411185 0.474165
3451 2 0.181069 0.404239 0.481249
3452 4 0.198706 0.403659 0.463593
3453 4 0.163432 0.404818 0.498905
3421 2 0.29224 0.408176 0.443431
1697 4 0.264269 0.405125 0.470069
1696 2 0.239837 0.408155 0.472117
3422 4 0.268083 0.40412 0.45011
3423 4 0.316397 0.412232 0.436751
3333 4 0.412678 0.352106 0.495151
3332 4 0.4291 0.336462 0.451192
3331 2 0.420889 0.344284 0.473171
3056 4 0.448995 0.336834 0.446083
3057 4 0.498785 0.348442 0.447183
3055 2 0.47389 0.342638 0.446633
3593 4 0.056725 0.495253 0.418292
4043 4 0.0209639 0.49564 0.494545
663 4 0.0107408 0.477706 0.486327
3592 2 0.081222 0.494861 0.413498
3594 4 0.105719 0.494468 0.408703
1445 4 0.364232 0.452872 0.494094
2741 4 0.471858 0.483309 0.434662
601 2 0.432212 0.473136 0.420157
603 4 0.456997 0.479667 0.420547
2740 2 0.49207 0.47056 0.433685
88 3 0.00309116 0.0652451 0.518493
2502 4 0.0572925 0.0355994 0.538265
2500 2 0.0814614 0.0441379 0.535315
2501 4 0.10563 0.0526764 0.532364
3032 4 0.123872 0.0638402 0.530968
3031 2 0.148747 0.0695224 0.532409
3033 4 0.173622 0.0752046 0.53385
945 4 0.191788 0.085601 0.533128
3051 4 0.345071 0.0476607 0.570282
2507 4 0.361356 0.0370717 0.571085
2506 2 0.385257 0.035254 0.577559
90 3 0.00676978 0.100853 0.506258
87 3 0.0102246 0.0937165 0.542652
2490 4 0.0284828 0.102935 0.551251
2488 2 0.0520255 0.113448 0.554218
2489 4 0.0755682 0.123961 0.557185
2810 4 0.0910995 0.134015 0.565347
2809 2 0.111286 0.144887 0.577271
943 2 0.216505 0.0922491 0.534701
944 4 0.241222 0.0988972 0.536274
3327 4 0.258788 0.10503 0.528842
3325 2 0.282239 0.112249 0.521326
3326 4 0.30569 0.119468 0.51381
320 4 0.319493 0.128642 0.50032
319 2 0.341707 0.14214 0.497558
2551 2 0.43197 0.1125 0.512789
2553 4 0.408987 0.119143 0.508115
2195 4 0.389869 0.115043 0.50121
2552 4 0.454953 0.105857 0.517462
762 4 0.474193 0.110039 0.522878
760 2 0.498506 0.116989 0.518506
1155 4 0.371667 0.237704 0.584296
1153 2 0.396086 0.2349 0.581611
1154 4 0.420506 0.232095 0.578927
1283 4 0.440036 0.236161 0.572598
407 4 0.267669 0.299112 0.509746
1238 4 0.418095 0.287509 0.567661
802 2 0.426116 0.297494 0.526872
804 4 0.427909 0.290844 0.55085
803 4 0.424322 0.304144 0.502895
1237 2 0.414405 0.305552 0.584076
1282 2 0.458986 0.254369 0.573066
1284 4 0.477937 0.272578 0.573534
1106 4 0.497468 0.271126 0.571979
1910 4 0.022483 0.400456 0.560047
1909 2 0.0475223 0.401447 0.558565
1911 4 0.0725617 0.402439 0.557083
3418 2 0.334296 0.350566 0.579507
3419 4 0.354917 0.353609 0.565254
890 4 0.406932 0.382492 0.56538
889 2 0.407088 0.361422 0.57865
266 4 0.429906 0.356029 0.505597
265 2 0.448358 0.371352 0.515802
267 4 0.466809 0.386675 0.526006
347 4 0.486859 0.393922 0.527197
774 4 0.0210372 0.420366 0.56448
772 2 0.0179079 0.444409 0.568536
773 4 0.0147787 0.468453 0.572593
4044 4 0.0603804 0.475952 0.514554
1205 4 0.0308681 0.478261 0.581525
4042 2 0.0406721 0.485796 0.50455
560 4 0.0769303 0.474376 0.504727
3072 4 0.0853084 0.416484 0.54687
559 2 0.0959255 0.489196 0.51467
3070 2 0.108291 0.428604 0.544792
3071 4 0.131274 0.440724 0.542714
791 4 0.150186 0.450155 0.537964
792 4 0.173767 0.417952 0.510662
790 2 0.161976 0.434053 0.524313
2108 4 0.264409 0.503855 0.570347
336 4 0.276196 0.489654 0.564735
334 2 0.291591 0.484941 0.583476
325 2 0.393859 0.498259 0.553705
1444 2 0.383419 0.449308 0.509278
326 4 0.395789 0.489896 0.577106
1446 4 0.402606 0.445745 0.524461
1261 2 0.0172303 0.00758482 0.640789
1263 4 0.0404759 0.0138605 0.632173
3610 2 0.082931 0.0243042 0.62478
3612 4 0.0600066 0.0197217 0.634752
3611 4 0.105855 0.0288866 0.614807
4503 4 0.123972 0.028207 0.622202
4501 2 0.14761 0.0221446 0.622992
4502 4 0.171249 0.0160823 0.623782
3104 4 0.18605 0.0311178 0.622017
3105 4 0.234772 0.0420963 0.611423
3103 2 0.210411 0.0366071 0.61672
3084 4 0.26749 0.00585589 0.646103
269 4 0.28382 0.01932 0.643037
270 4 0.314754 0.0595897 0.630581
3050 4 0.329692 0.0603462 0.615699
268 2 0.299287 0.0394548 0.636809
3049 2 0.337381 0.0540034 0.592991
2508 4 0.409158 0.0334363 0.584033
1142 4 0.418415 0.051824 0.587692
1141 2 0.443022 0.058246 0.590795
1143 4 0.467629 0.064668 0.593898
953 4 0.132148 0.0923934 0.626362
952 2 0.149612 0.0908314 0.608691
2811 4 0.131473 0.155759 0.589195
3110 4 0.149665 0.150968 0.596261
954 4 0.167075 0.0892694 0.59102
2173 2 0.27132 0.128433 0.63144
2174 4 0.261751 0.115483 0.651163
966 4 0.296847 0.147252 0.60133
2175 4 0.28089 0.141383 0.611716
3003 4 0.282252 0.116337 0.655827
964 2 0.321301 0.150017 0.595586
965 4 0.345755 0.152782 0.589843
2322 4 0.366056 0.156466 0.584807
1023 4 0.484096 0.157607 0.633802
3109 2 0.171106 0.166055 0.595778
3111 4 0.192548 0.181143 0.595296
1257 4 0.356961 0.244817 0.595293
2320 2 0.384308 0.175014 0.588313
2321 4 0.402559 0.193562 0.59182
1082 4 0.419589 0.206534 0.592812
1081 2 0.443476 0.208015 0.600524
1083 4 0.467362 0.209495 0.608236
3163 2 0.470209 0.217512 0.646865
3164 4 0.481609 0.216383 0.624698
3379 2 0.190691 0.329727 0.658764
905 4 0.21157 0.315901 0.628242
3380 4 0.202707 0.331013 0.636805
904 2 0.234573 0.326921 0.623334
2243 4 0.229152 0.275819 0.614653
2242 2 0.233279 0.274182 0.639232
2244 4 0.237407 0.272546 0.66381
959 4 0.311756 0.277325 0.619243
958 2 0.322102 0.289236 0.63923
1256 4 0.313132 0.262068 0.6066
1255 2 0.335046 0.253442 0.600946
960 4 0.332448 0.301147 0.659217
1239 4 0.410716 0.323595 0.600491
3238 2 0.40277 0.277658 0.665411
3240 4 0.41996 0.289222 0.650102
3093 4 0.436858 0.297521 0.657599
3091 2 0.461413 0.305217 0.657143
3092 4 0.485968 0.312913 0.656686
1954 2 0.187786 0.411955 0.66766
906 4 0.257576 0.337941 0.618425
84 3 0.272387 0.339214 0.631164
85 3 0.278786 0.369457 0.60899
81 1 0.28845 0.352547 0.619176
82 3 0.304798 0.361466 0.633692
83 3 0.298285 0.339783 0.603301
3222 4 0.321989 0.408783 0.658214
3220 2 0.324255 0.385954 0.649084
3221 4 0.32652 0.363126 0.639954
3420 4 0.313675 0.347523 0.593761
2720 4 0.347714 0.361314 0.638863
2719 2 0.371615 0.367913 0.632422
891 4 0.407243 0.340352 0.59192
2721 4 0.395517 0.374512 0.625981
3447 4 0.41503 0.379839 0.631763
3445 2 0.439657 0.387203 0.631313
3446 4 0.464284 0.394567 0.630864
3353 4 0.482471 0.393283 0.639155
3352 2 0.49588 0.407075 0.656191
1204 2 0.0475013 0.496293 0.590474
1956 4 0.202583 0.427531 0.653262
884 4 0.220934 0.420147 0.656963
885 4 0.271026 0.421343 0.658404