ITEM: TIMESTEP
135000
ITEM: NUMBER OF ATOMS
4590
ITEM: BOX BOUNDS xy xz yz pp pp pp
-1.5997712000000000e+01 9.9985700000000008e+00 -5.9991419999999991e+00
-9.9985700000000008e+00 9.9985700000000008e+00 0.0000000000000000e+00
-9.9985700000000008e+00 9.9985700000000008e+00 0.0000000000000000e+00
ITEM: ATOMS id type xs ys zs
1661 4 0.168232 0.999436 0.0522683
1475 4 0.183415 0.0171361 0.0501797
1474 2 0.20332 0.00865913 0.0572069
1476 4 0.223226 0.000182157 0.0642342
1651 2 0.435303 0.0127159 0.0506698
1652 4 0.457573 0.0312074 0.0525699
2469 4 0.478755 0.0384121 0.0501704
2467 2 0.488345 0.0273964 0.0317979
2466 4 0.481845 0.00125072 0.00344867
2468 4 0.497936 0.0163808 0.0134255
744 4 0.472631 0.0460707 0.0817984
2670 4 0.00488046 0.112884 0.0286069
2668 2 0.0282526 0.115718 0.0181231
2669 4 0.0516247 0.118552 0.00763926
2883 4 0.0726198 0.123802 0.00585743
3243 4 0.159199 0.131953 0.045416
3241 2 0.177493 0.121133 0.0520586
3242 4 0.195787 0.110313 0.0587011
3392 4 0.208077 0.121641 0.0444262
3391 2 0.23396 0.125851 0.0432847
3393 4 0.259843 0.13006 0.0421432
2661 4 0.278808 0.132919 0.0344161
2659 2 0.29252 0.116731 0.0386957
2660 4 0.306233 0.100543 0.0429753
3153 4 0.323578 0.115305 0.0437471
3151 2 0.349513 0.121986 0.0465525
3152 4 0.375448 0.128666 0.0493579
1667 4 0.383663 0.114647 0.0563354
1666 2 0.403127 0.10421 0.0539528
1668 4 0.422592 0.0937735 0.0515702
2876 4 0.0377436 0.234081 0.0658828
281 4 0.0456952 0.217651 0.0697761
2875 2 0.0144943 0.235098 0.0742095
280 2 0.0511821 0.20605 0.0495234
359 4 0.044997 0.191164 0.0119871
282 4 0.056669 0.194449 0.0292707
769 2 0.114613 0.218731 0.00152718
771 4 0.117821 0.230669 0.0234938
666 4 0.247466 0.232867 0.0159003
4305 4 0.253294 0.19037 0.0373245
4303 2 0.252766 0.183396 0.0612847
3216 4 0.272523 0.189754 0.0335648
3214 2 0.295621 0.199865 0.022593
3215 4 0.318719 0.209975 0.0116211
2828 4 0.334372 0.203432 0.00548735
2827 2 0.355102 0.201032 0.0181085
2829 4 0.375833 0.198632 0.0307297
3284 4 0.393081 0.212798 0.0245947
3283 2 0.411154 0.200628 0.0223339
3285 4 0.429227 0.188458 0.020073
2729 4 0.443703 0.190342 0.033031
2728 2 0.467719 0.200275 0.0421967
2730 4 0.491735 0.210208 0.0513624
2839 2 0.456767 0.333011 0.0203749
2840 4 0.453712 0.319468 0.999381
309 4 0.474636 0.337628 0.047419
293 4 0.0254599 0.354356 0.0565185
2564 4 0.0391015 0.394761 0.0158629
292 2 0.0256199 0.336454 0.0730748
461 4 0.0430394 0.35305 0.0475287
460 2 0.054436 0.347621 0.0268876
462 4 0.0658325 0.342193 0.00624653
3404 4 0.149971 0.401629 0.0377051
3403 2 0.159977 0.393865 0.0580209
3405 4 0.169984 0.386102 0.0783367
1466 4 0.189885 0.394015 0.0829217
2445 4 0.331249 0.378912 0.0821933
1122 4 0.372521 0.349521 0.0801735
1069 2 0.416659 0.358782 0.0711164
1070 4 0.440192 0.367594 0.060573
1551 4 0.459487 0.379143 0.0518498
1071 4 0.393125 0.34997 0.0816597
1079 4 0.415341 0.413013 0.019919
2841 4 0.459822 0.346554 0.0413688
1549 2 0.484726 0.389847 0.0468118
307 2 0.493681 0.336976 0.0633733
4053 4 0.0817943 0.471222 0.0225592
4186 2 0.103065 0.49183 0.0451154
4187 4 0.100388 0.484002 0.021371
4051 2 0.0701327 0.458084 0.002736
4188 4 0.105741 0.499658 0.0688599
2583 4 0.251388 0.464102 0.0238625
2912 4 0.23913 0.468544 0.0102261
2581 2 0.274689 0.481266 0.0228047
2582 4 0.297989 0.49843 0.0217469
494 4 0.401537 0.417435 0.00812365
1078 2 0.440316 0.426455 0.0223464
2521 2 0.475324 0.487857 0.015709
1080 4 0.465292 0.439897 0.0247738
3448 2 0.48018 0.442766 0.0751866
3449 4 0.48997 0.460215 0.0578673
1374 4 0.232699 0.000810569 0.082418
404 4 0.284832 0.0108833 0.161402
2181 4 0.30484 0.016633 0.154092
2179 2 0.330473 0.0233598 0.149373
2180 4 0.356107 0.0300865 0.144655
1749 4 0.369351 0.0405562 0.129682
1747 2 0.393986 0.0490727 0.121614
1748 4 0.418622 0.0575892 0.113546
743 4 0.429767 0.0457772 0.107699
742 2 0.451199 0.045924 0.0947485
3810 4 0.0813484 0.0976276 0.14674
3808 2 0.101107 0.105957 0.162799
589 2 0.272748 0.161934 0.157126
590 4 0.252795 0.141326 0.160424
2893 2 0.00172019 0.183547 0.0915593
2895 4 0.0181334 0.196345 0.108975
2600 4 0.0363135 0.208463 0.12022
2599 2 0.0359837 0.19065 0.137034
2601 4 0.0356539 0.172836 0.153848
4304 4 0.252239 0.176422 0.0852449
2747 4 0.293548 0.240398 0.125687
2487 4 0.292316 0.221524 0.125012
2485 2 0.281187 0.205125 0.107188
2486 4 0.270058 0.188726 0.0893635
591 4 0.292701 0.182542 0.153828
2453 4 0.312493 0.186617 0.158912
2452 2 0.338272 0.197275 0.157618
2454 4 0.364051 0.207932 0.156324
2951 4 0.384702 0.21345 0.152665
2950 2 0.40973 0.217228 0.146345
2952 4 0.434759 0.221005 0.140026
2672 4 0.451061 0.215437 0.148781
2671 2 0.476845 0.219168 0.150494
104 3 0.0161724 0.314863 0.106318
294 4 0.0257799 0.318552 0.0896311
101 1 0.0160459 0.292625 0.105303
525 4 0.0434841 0.311994 0.0954681
102 3 0.0342824 0.290983 0.0920483
279 4 0.0329664 0.301858 0.133968
103 3 0.0188907 0.284908 0.126568
523 2 0.0690356 0.323387 0.09781
277 2 0.0529254 0.307553 0.150083
278 4 0.0728843 0.313248 0.166197
351 4 0.112869 0.288408 0.156056
297 4 0.132711 0.297522 0.148556
295 2 0.152376 0.304623 0.132208
296 4 0.172042 0.311724 0.115859
902 4 0.191212 0.314971 0.106623
901 2 0.216934 0.32585 0.10506
1121 4 0.342106 0.311657 0.106705
2746 2 0.314671 0.26028 0.126045
2748 4 0.335794 0.280161 0.126402
2567 4 0.342793 0.299601 0.123671
2566 2 0.359547 0.306111 0.142743
1120 2 0.357314 0.330589 0.0934393
2568 4 0.376301 0.312621 0.161814
2540 4 0.0117449 0.340695 0.136079
2539 2 0.0353138 0.349832 0.125691
2541 4 0.0588826 0.358968 0.115303
524 4 0.0945871 0.334781 0.100152
288 4 0.11552 0.343388 0.0989397
286 2 0.138949 0.351363 0.10985
287 4 0.162379 0.359337 0.120761
2534 4 0.120641 0.395238 0.160994
1465 2 0.213019 0.411277 0.0851166
903 4 0.242657 0.336728 0.103497
2513 4 0.258201 0.349619 0.0932589
2512 2 0.284108 0.358616 0.0908893
2514 4 0.310016 0.367613 0.0885197
729 4 0.344888 0.409767 0.15687
2443 2 0.356268 0.386365 0.0893051
2444 4 0.381287 0.393818 0.0964169
767 4 0.401865 0.400146 0.103924
766 2 0.427882 0.406084 0.102328
768 4 0.453899 0.412022 0.100731
608 4 0.500327 0.374083 0.121882
1743 4 0.0071896 0.461513 0.084961
1569 4 0.0928946 0.492801 0.085012
1568 4 0.0702489 0.446549 0.101881
1567 2 0.0815718 0.469675 0.0934465
3552 4 0.0565472 0.439518 0.157069
1467 4 0.236153 0.428539 0.0873114
4211 4 0.25499 0.433169 0.0963628
4210 2 0.272967 0.439256 0.114454
4212 4 0.290944 0.445344 0.132545
3636 4 0.309017 0.44841 0.143782
3634 2 0.33387 0.456549 0.151309
727 2 0.359798 0.416776 0.136572
3635 4 0.358724 0.464687 0.158836
648 4 0.374685 0.473001 0.147004
728 4 0.374709 0.423785 0.116274
2093 4 0.390568 0.440912 0.11389
2092 2 0.414919 0.455443 0.110098
646 2 0.39498 0.492793 0.141775
2917 2 0.457466 0.498571 0.0837892
3450 4 0.47039 0.425317 0.0925059
2094 4 0.439269 0.469974 0.106306
2919 4 0.449926 0.474193 0.0893426
247 2 0.196923 0.00543562 0.1941
403 2 0.261038 0.0103494 0.169547
249 4 0.222604 0.0124299 0.189615
405 4 0.237244 0.00981558 0.177691
378 4 0.0203402 0.170781 0.167251
3809 4 0.120865 0.114286 0.178859
2779 2 0.125493 0.0966642 0.215643
2780 4 0.13537 0.0895926 0.236409
2781 4 0.115616 0.103736 0.194878
2940 4 0.2449 0.127042 0.173423
2938 2 0.246799 0.114218 0.194104
2939 4 0.248699 0.101393 0.214784
2777 4 0.266097 0.109475 0.225038
2776 2 0.278799 0.124955 0.242944
513 4 0.306889 0.0883595 0.248431
511 2 0.327373 0.1059 0.239167
512 4 0.347857 0.12344 0.229904
2694 4 0.367501 0.134986 0.222837
2692 2 0.389378 0.150689 0.213675
2693 4 0.411254 0.166392 0.204513
252 4 0.00270205 0.245817 0.205274
611 4 0.0782967 0.235379 0.221245
2856 4 0.432139 0.174879 0.201713
2854 2 0.456971 0.189077 0.202293
2855 4 0.481804 0.203276 0.202874
2579 4 0.496194 0.210582 0.216652
250 2 0.0265002 0.250036 0.195291
251 4 0.0502983 0.254254 0.185307
350 4 0.0686258 0.268642 0.181397
349 2 0.0907472 0.278525 0.168727
610 2 0.0925387 0.254057 0.235446
519 4 0.276445 0.332216 0.184171
275 4 0.370907 0.308665 0.236096
498 4 0.377293 0.322992 0.178413
496 2 0.382646 0.321798 0.202726
497 4 0.387999 0.320604 0.227039
2493 4 0.0203218 0.377004 0.214506
2706 4 0.00109609 0.371513 0.222639
2491 2 0.0437892 0.383429 0.203554
2492 4 0.0672567 0.389853 0.192603
2535 4 0.0798559 0.404629 0.183607
2533 2 0.100248 0.399934 0.172301
396 4 0.192903 0.40508 0.243993
394 2 0.170528 0.387215 0.248055
395 4 0.148153 0.36935 0.252118
362 4 0.207131 0.384977 0.174504
361 2 0.23232 0.387279 0.17894
363 4 0.25751 0.389581 0.183377
417 4 0.32794 0.408274 0.167886
416 4 0.278922 0.39965 0.184335
517 2 0.299382 0.34972 0.186627
415 2 0.303431 0.403962 0.176111
518 4 0.322319 0.367223 0.189082
734 4 0.341851 0.369768 0.180529
733 2 0.366398 0.370993 0.186776
735 4 0.390945 0.372218 0.193024
290 4 0.40911 0.380808 0.202138
289 2 0.433788 0.395183 0.204091
291 4 0.458465 0.409558 0.206045
339 4 0.47919 0.415568 0.204902
3550 2 0.0773478 0.445782 0.172166
3551 4 0.0981484 0.452045 0.187263
4007 4 0.117499 0.452001 0.181772
4006 2 0.130651 0.446803 0.20131
4008 4 0.143802 0.441605 0.220849
3920 4 0.200799 0.423618 0.249785
2818 2 0.279824 0.460022 0.245733
3567 4 0.323557 0.493681 0.182241
2819 4 0.302635 0.459629 0.235769
3566 4 0.305224 0.477914 0.227706
3565 2 0.314391 0.485797 0.204974
679 2 0.412864 0.438746 0.250281
3671 4 0.419124 0.426021 0.178533
681 4 0.420106 0.424234 0.233544
3670 2 0.441766 0.443603 0.174737
3672 4 0.464409 0.461186 0.170941
315 4 0.484791 0.472036 0.170609
4356 4 0.0221889 0.0605977 0.331613
1868 4 0.104968 0.00284438 0.307326
1867 2 0.130121 0.0161284 0.306511
2848 2 0.201002 0.0485407 0.299273
2850 4 0.177133 0.0353266 0.306648
1869 4 0.155274 0.0294125 0.305695
2849 4 0.22487 0.0617548 0.291897
1272 4 0.242771 0.0682758 0.28028
1270 2 0.264538 0.0754579 0.266533
599 4 0.489285 0.0309361 0.293601
2945 4 0.0214339 0.0998376 0.326634
2944 2 0.04457 0.107116 0.315093
2946 4 0.067706 0.114395 0.303551
2678 4 0.081047 0.105274 0.313839
2836 2 0.156501 0.149022 0.329692
2838 4 0.17873 0.154185 0.316622
2677 2 0.102563 0.114929 0.327452
1271 4 0.286304 0.0826399 0.252786
2477 4 0.259503 0.117975 0.31877
2478 4 0.29059 0.139462 0.28093
2476 2 0.275046 0.128719 0.29985
2778 4 0.291501 0.140436 0.260849
2592 4 0.219831 0.197508 0.262906
2590 2 0.208961 0.211431 0.277221
2591 4 0.198091 0.225354 0.291536
612 4 0.106781 0.272736 0.249647
345 4 0.0989471 0.28382 0.262549
343 2 0.11234 0.288969 0.283957
2654 4 0.13624 0.314121 0.309873
344 4 0.125733 0.294118 0.305365
387 4 0.299605 0.26795 0.310019
276 4 0.339247 0.307491 0.275072
386 4 0.32032 0.30772 0.281003
385 2 0.309962 0.287835 0.295511
274 2 0.355077 0.308078 0.255584
2621 4 0.444013 0.304811 0.335891
2620 2 0.459601 0.305005 0.316296
2622 4 0.47519 0.305199 0.296701
2853 4 0.494122 0.311797 0.287114
2653 2 0.146793 0.338347 0.315115
2655 4 0.157346 0.362573 0.320356
366 4 0.243794 0.368317 0.3267
364 2 0.253469 0.358668 0.307359
365 4 0.263144 0.34902 0.288017
2561 4 0.0339221 0.476262 0.322277
2560 2 0.00814566 0.471867 0.325049
3919 2 0.225999 0.43285 0.255853
2820 4 0.257013 0.460416 0.255697
3921 4 0.2512 0.442081 0.261922
3885 4 0.381979 0.470258 0.310938
2532 4 0.364155 0.458575 0.321031
3884 4 0.41938 0.46589 0.279585
680 4 0.405621 0.453257 0.267017
3883 2 0.400679 0.468074 0.295261
4354 2 0.00211924 0.0485665 0.346087
478 2 0.266867 0.0226243 0.356104
480 4 0.241927 0.00868776 0.356114
479 4 0.291808 0.0365609 0.356095
471 4 0.362133 0.0717701 0.349081
469 2 0.336771 0.0591285 0.349447
470 4 0.311409 0.0464868 0.349812
707 4 0.382563 0.0790775 0.354283
1060 2 0.497805 0.0127804 0.379717
1062 4 0.48865 0.0209602 0.359138
684 4 0.493011 0.000798723 0.415243
2663 4 0.000467751 0.159612 0.337233
2662 2 0.016328 0.156714 0.355587
2664 4 0.0321883 0.153815 0.373942
2937 4 0.050825 0.150139 0.36971
1243 2 0.0236182 0.0893556 0.387451
1245 4 0.0490443 0.094708 0.392848
2935 2 0.0727621 0.145545 0.377487
2936 4 0.0946993 0.140952 0.385263
2667 4 0.0701432 0.0995901 0.397966
2837 4 0.134271 0.143859 0.342762
2665 2 0.0939393 0.0963128 0.397321
426 4 0.11452 0.142131 0.39162
1377 4 0.140777 0.094774 0.392523
2666 4 0.117736 0.0930354 0.396675
2679 4 0.124078 0.124584 0.341064
1375 2 0.165049 0.101999 0.383338
2869 2 0.227444 0.118459 0.347273
2870 4 0.205686 0.113263 0.361063
1376 4 0.189322 0.109224 0.374153
2871 4 0.249202 0.123655 0.333483
617 4 0.452128 0.095499 0.375272
708 4 0.432346 0.0908624 0.369216
706 2 0.407455 0.08497 0.36175
618 4 0.500979 0.12129 0.387322
616 2 0.476553 0.108395 0.381297
764 4 0.116301 0.229705 0.33467
424 2 0.127452 0.166456 0.392937
425 4 0.140384 0.190781 0.394254
1035 4 0.398635 0.181294 0.402324
1199 4 0.418242 0.189162 0.394014
1198 2 0.441343 0.195948 0.382379
2766 4 0.481272 0.195223 0.374263
1200 4 0.464445 0.202733 0.370744
763 2 0.133554 0.249441 0.345026
510 4 0.169242 0.272366 0.363698
765 4 0.150807 0.269178 0.355383
508 2 0.19465 0.281818 0.36883
509 4 0.220058 0.291269 0.373963
715 2 0.244382 0.272584 0.393008
717 4 0.223984 0.274265 0.379391
716 4 0.26478 0.270902 0.406625
487 2 0.341601 0.299465 0.413203
489 4 0.365375 0.310139 0.403817
118 3 0.385967 0.320152 0.401977
2682 4 0.429126 0.258733 0.380784
2680 2 0.435217 0.280322 0.368177
2681 4 0.441308 0.301911 0.35557
116 1 0.408447 0.327318 0.410564
2872 2 0.00725097 0.404741 0.345171
2874 4 0.0333499 0.411704 0.344703
2698 2 0.0219659 0.338011 0.369074
2904 4 0.0623314 0.369214 0.365272
2700 4 0.0444623 0.353567 0.360992
2902 2 0.0568736 0.390376 0.359114
2903 4 0.0514157 0.411539 0.352956
2924 4 0.303714 0.346156 0.403037
873 4 0.287476 0.348398 0.413384
2923 2 0.325209 0.353335 0.38891
583 2 0.388912 0.379605 0.365863
585 4 0.363819 0.366762 0.362845
2925 4 0.346704 0.360514 0.374784
584 4 0.414005 0.392448 0.368882
1953 4 0.444373 0.337174 0.38776
119 3 0.424498 0.333131 0.393246
1952 4 0.495263 0.341697 0.39293
1951 2 0.469818 0.339436 0.390345
2648 4 0.0459229 0.452869 0.402638
2647 2 0.0204428 0.442532 0.406824
3582 4 0.13834 0.489226 0.410217
2588 4 0.116851 0.485199 0.410356
2587 2 0.0913602 0.473463 0.40817
2589 4 0.0658696 0.461727 0.405983
3580 2 0.162481 0.486958 0.412196
3581 4 0.186622 0.48469 0.414176
2531 4 0.338834 0.453615 0.364713
1433 4 0.326686 0.43812 0.374712
1432 2 0.326675 0.445436 0.398519
2530 2 0.351495 0.456095 0.342872
2137 2 0.49055 0.455561 0.39162
569 4 0.49151 0.474654 0.353013
2138 4 0.48545 0.463553 0.369146
2139 4 0.49565 0.447569 0.414094
3852 4 0.00506493 0.0835148 0.4816
984 4 0.0128182 0.045687 0.450134
982 2 0.0386638 0.0555593 0.452146
983 4 0.0645095 0.0654317 0.454159
2238 4 0.296604 0.0717079 0.426589
1182 4 0.361621 0.049537 0.460388
1180 2 0.348892 0.0629031 0.447491
1181 4 0.336163 0.0762692 0.434594
2314 2 0.350011 0.0162233 0.476698
2315 4 0.358513 0.0410119 0.479792
682 2 0.476687 0.000764283 0.434192
683 4 0.460363 0.000729843 0.45314
842 4 0.457059 2.51862e-05 0.472588
841 2 0.450863 0.00443587 0.496023
3850 2 0.0271994 0.088142 0.494767
2915 4 0.320396 0.16263 0.44219
2236 2 0.317001 0.0922657 0.426313
163 3 0.37587 0.117581 0.467704
161 1 0.366718 0.130383 0.453361
162 3 0.384787 0.14698 0.444286
164 3 0.352198 0.140174 0.4651
165 3 0.354555 0.117336 0.436616
2237 4 0.337398 0.112824 0.426038
1034 4 0.406916 0.159895 0.445064
2900 4 0.0101489 0.173198 0.463066
320 4 0.0351616 0.204827 0.492657
312 4 0.0313509 0.181728 0.472018
319 2 0.0108598 0.204846 0.498515
310 2 0.0573785 0.18898 0.4701
3059 4 0.105197 0.202755 0.467138
311 4 0.083406 0.196232 0.468183
3058 2 0.130863 0.211655 0.463
306 4 0.178382 0.2308 0.458191
3060 4 0.15653 0.220556 0.458861
304 2 0.204288 0.237095 0.455239
305 4 0.230195 0.24339 0.452287
2914 2 0.318663 0.168142 0.466342
2916 4 0.316931 0.173655 0.490494
3057 4 0.346895 0.243328 0.434475
1033 2 0.402776 0.170594 0.423694
2498 4 0.417712 0.229884 0.473526
2612 4 0.428176 0.168071 0.453839
2497 2 0.442737 0.229982 0.472914
2499 4 0.467763 0.230079 0.472301
2929 2 0.487241 0.239436 0.439804
2613 4 0.479852 0.189122 0.453857
2930 4 0.469827 0.222937 0.453861
2611 2 0.454014 0.178596 0.453848
938 4 0.498628 0.190513 0.444788
2635 2 0.0582753 0.338187 0.481422
812 4 0.22093 0.326 0.432257
453 4 0.250736 0.253701 0.448369
872 4 0.236973 0.324821 0.421049
451 2 0.274503 0.264904 0.439244
694 2 0.273447 0.328613 0.486776
696 4 0.296013 0.326321 0.477878
488 4 0.317828 0.288791 0.422588
452 4 0.29827 0.276107 0.430119
3056 4 0.370144 0.287831 0.455023
3055 2 0.35852 0.26558 0.444749
265 2 0.369829 0.32141 0.467298
266 4 0.359218 0.301372 0.453067
120 3 0.412857 0.31082 0.423169
2926 2 0.00779521 0.399227 0.471819
2927 4 0.0300516 0.392889 0.47064
3332 4 0.0889918 0.395707 0.420033
2511 4 0.0952928 0.412051 0.432048
3333 4 0.077053 0.353394 0.446674
2636 4 0.0719996 0.337839 0.460593
3331 2 0.0830224 0.37455 0.433353
813 4 0.194658 0.359091 0.422496
811 2 0.207794 0.342546 0.427376
871 2 0.262224 0.33661 0.417216
267 4 0.38044 0.341448 0.481528
890 4 0.397582 0.335823 0.490137
601 2 0.434539 0.386937 0.491798
117 3 0.410391 0.345813 0.423759
1029 4 0.472418 0.410237 0.489719
602 4 0.456219 0.397865 0.47887
1027 2 0.49672 0.408552 0.48708
4042 2 0.00459471 0.498963 0.460541
2509 2 0.111648 0.427137 0.4481
3318 4 0.205564 0.495605 0.413353
2510 4 0.128003 0.442222 0.464152
406 2 0.170406 0.444186 0.469512
408 4 0.144533 0.435823 0.466445
407 4 0.196278 0.452549 0.472578
2549 4 0.216365 0.464281 0.474831
2550 4 0.247465 0.439941 0.45401
2548 2 0.231915 0.452111 0.46442
4129 2 0.288735 0.480992 0.48487
549 4 0.265963 0.437836 0.44925
1434 4 0.326664 0.452752 0.422327
548 4 0.317456 0.444269 0.450946
4131 4 0.310222 0.483449 0.471138
547 2 0.29171 0.441052 0.450098
945 4 0.220723 0.04773 0.514679
3033 4 0.225261 0.068193 0.516704
944 4 0.222355 0.0174628 0.553018
943 2 0.221539 0.0325964 0.533849
843 4 0.444667 0.00884656 0.519457
1155 4 0.470552 0.0792062 0.567269
1966 2 0.46004 0.0277746 0.555261
1967 4 0.460301 0.0207582 0.531379
1968 4 0.459779 0.034791 0.579143
1257 4 0.487036 0.078554 0.557244
2456 4 0.000293529 0.129541 0.515611
3851 4 0.0493339 0.0927692 0.507934
3326 4 0.0689466 0.0925705 0.516789
3325 2 0.0901855 0.0991299 0.531307
3327 4 0.111424 0.105689 0.545825
3031 2 0.238202 0.0919389 0.521944
3032 4 0.251144 0.115685 0.527185
143 3 0.415225 0.234056 0.565104
259 2 0.0012673 0.324488 0.507408
3043 2 0.0126641 0.280614 0.544103
3045 4 0.0357153 0.298169 0.544945
443 4 0.0559824 0.309105 0.536564
442 2 0.080182 0.32281 0.530748
2637 4 0.0445509 0.338535 0.50225
82 3 0.202381 0.290081 0.578188
695 4 0.250881 0.330906 0.495674
141 1 0.424565 0.25422 0.576104
142 3 0.43619 0.269982 0.560834
891 4 0.432973 0.328722 0.522423
145 3 0.407159 0.261099 0.58571
3080 4 0.447012 0.274069 0.541523
3079 2 0.465323 0.2718 0.525419
3081 4 0.483634 0.269531 0.509315
3382 2 0.485862 0.262157 0.580391
878 4 0.0134596 0.406092 0.558795
3354 4 0.0339936 0.408688 0.556082
260 4 0.0259373 0.338785 0.505081
3352 2 0.0596648 0.411928 0.558235
3353 4 0.0853361 0.415168 0.560387
444 4 0.104382 0.336515 0.524932
1136 4 0.178274 0.378396 0.533418
935 4 0.17919 0.346111 0.572022
1135 2 0.20354 0.388359 0.527971
1137 4 0.228805 0.398322 0.522523
540 4 0.237902 0.40007 0.540353
538 2 0.263494 0.411526 0.542107
774 4 0.295169 0.348879 0.556343
772 2 0.303383 0.357567 0.579108
2244 4 0.347281 0.414046 0.541665
889 2 0.415277 0.332272 0.50628
603 4 0.41286 0.376009 0.504727
1239 4 0.451439 0.339738 0.53119
1237 2 0.47546 0.345498 0.540938
3446 4 0.105923 0.424439 0.56658
3445 2 0.129566 0.434903 0.576343
3447 4 0.153208 0.445366 0.586106
2720 4 0.162528 0.465253 0.581455
2630 4 0.255317 0.490341 0.502461
4130 4 0.267247 0.478534 0.498602
2629 2 0.23408 0.497904 0.506389
539 4 0.289087 0.422982 0.543861
2242 2 0.325426 0.419742 0.535544
2243 4 0.303571 0.425438 0.529424
1162 2 0.438647 0.00752596 0.608636
1163 4 0.442885 0.0229213 0.588938
3207 4 0.0239438 0.107259 0.613639
3205 2 0.0455348 0.116815 0.627177
3206 4 0.0671257 0.12637 0.640716
3020 4 0.0805993 0.123119 0.654552
3019 2 0.104218 0.13079 0.665131
1153 2 0.468754 0.0850313 0.591325
1154 4 0.466957 0.0908563 0.615381
1106 4 0.487764 0.16438 0.634726
1283 4 0.468335 0.0991838 0.63341
1282 2 0.489382 0.118195 0.638732
3400 2 0.122618 0.246127 0.657366
2626 2 0.328232 0.240388 0.65996
2628 4 0.347079 0.242405 0.64298
3441 4 0.36332 0.23909 0.634424
3439 2 0.384621 0.248379 0.62042
347 4 0.00404798 0.269807 0.604028
348 4 0.0497927 0.30426 0.596284
346 2 0.0269203 0.287034 0.600156
1281 4 0.0707642 0.314485 0.594743
977 4 0.137246 0.328462 0.633087
3401 4 0.116344 0.254975 0.635751
976 2 0.15647 0.3244 0.646899
1279 2 0.0951022 0.328014 0.600302
805 2 0.21455 0.277409 0.651178
806 4 0.208082 0.280051 0.627398
84 3 0.217653 0.317718 0.602685
936 4 0.220248 0.333434 0.590118
81 1 0.220024 0.298102 0.593441
85 3 0.218521 0.282547 0.609772
978 4 0.175693 0.320337 0.660711
83 3 0.241324 0.302309 0.582526
3440 4 0.405922 0.257667 0.606415
3383 4 0.460577 0.253752 0.586422
144 3 0.440254 0.251808 0.592327
3264 4 0.0524609 0.391824 0.641797
3262 2 0.0700504 0.384119 0.654827
1280 4 0.11944 0.341543 0.605861
1640 4 0.138125 0.356418 0.608734
1639 2 0.16261 0.371147 0.611089
1641 4 0.187096 0.385877 0.613443
934 2 0.199719 0.339773 0.58107
1041 4 0.2056 0.399035 0.617969
896 4 0.234458 0.348543 0.595443
895 2 0.240689 0.353883 0.619427
897 4 0.24692 0.359223 0.643411
1085 4 0.238145 0.358949 0.661617
993 4 0.310735 0.415087 0.617563
773 4 0.311598 0.366256 0.601873
991 2 0.313436 0.413896 0.64235
992 4 0.316138 0.412704 0.667137
1205 4 0.329295 0.36661 0.611748
1206 4 0.374783 0.36827 0.633516
1204 2 0.352039 0.36744 0.622632
1139 4 0.39506 0.373187 0.641383
1138 2 0.418424 0.372435 0.649639
1140 4 0.441788 0.371684 0.657895
3491 4 0.0514284 0.473407 0.636768
3490 2 0.0688465 0.491265 0.624087
4539 4 0.0995812 0.504297 0.600065
4362 4 0.190324 0.497847 0.631927
2719 2 0.183271 0.463594 0.594541
2721 4 0.204015 0.461934 0.607626
1040 4 0.20455 0.443201 0.59938
1039 2 0.205075 0.421118 0.608674
2129 4 0.468459 0.415889 0.605664
2128 2 0.480536 0.427472 0.626085
2130 4 0.492612 0.439056 0.646506
2459 4 0.0101462 0.0258259 0.676637
3083 4 0.140687 0.0659798 0.741824
3082 2 0.165021 0.078014 0.734692
818 4 0.416853 0.0183799 0.687197
2320 2 0.408068 0.0462158 0.747672
2322 4 0.433512 0.0516547 0.742327
965 4 0.45307 0.0558241 0.735694
817 2 0.442773 0.0281874 0.686181
964 2 0.478874 0.0665437 0.735477
819 4 0.468693 0.037995 0.685165
887 4 0.488178 0.0384353 0.679674
2979 4 0.106232 0.14003 0.747111
3021 4 0.127836 0.138461 0.67571
3293 4 0.148113 0.141268 0.68464
3292 2 0.172958 0.145106 0.691646
3084 4 0.189356 0.0900482 0.727561
3294 4 0.197802 0.148943 0.698652
4371 4 0.21803 0.153636 0.702483
4369 2 0.24336 0.156856 0.70709
4370 4 0.268689 0.160075 0.711697
3077 4 0.359052 0.125708 0.72544
3076 2 0.385104 0.131393 0.725049
3078 4 0.411155 0.137077 0.724658
1179 4 0.43049 0.140132 0.733038
1177 2 0.455017 0.152766 0.739
1178 4 0.479545 0.165399 0.744962
2977 2 0.11522 0.164859 0.744597
3402 4 0.128891 0.237278 0.67898
1011 4 0.132004 0.242653 0.698909
2978 4 0.124208 0.189688 0.742083
1009 2 0.132376 0.224233 0.714755
1010 4 0.132747 0.205813 0.730601
906 4 0.18402 0.211714 0.713304
3357 4 0.236399 0.209788 0.678523
905 4 0.226572 0.201107 0.696081
904 2 0.205296 0.20641 0.704693
3355 2 0.262176 0.220661 0.67876
3062 4 0.289803 0.168664 0.714626
3356 4 0.287953 0.231533 0.678997
2627 4 0.309384 0.23837 0.67694
3061 2 0.315383 0.172983 0.710527
3063 4 0.340963 0.177303 0.706428
3167 4 0.362088 0.187838 0.705037
3166 2 0.387299 0.189774 0.708881
3168 4 0.412511 0.19171 0.712725
3002 4 0.434175 0.196756 0.717405
3001 2 0.459992 0.204497 0.713767
3003 4 0.48581 0.212239 0.710128
1086 4 0.191581 0.32757 0.673277
807 4 0.221017 0.274766 0.674957
3273 4 0.417879 0.282167 0.750355
3252 4 0.434423 0.284926 0.737139
3250 2 0.45765 0.281243 0.732716
3251 4 0.480877 0.27756 0.728294
3432 4 0.108736 0.385767 0.67021
3263 4 0.08764 0.376414 0.667856
3430 2 0.133649 0.389643 0.676997
3431 4 0.158563 0.393519 0.683784
3275 4 0.175372 0.402708 0.69549
1084 2 0.214863 0.34326 0.667447
3274 2 0.20034 0.40571 0.701565
3276 4 0.225309 0.408712 0.707639
942 4 0.334609 0.41412 0.677425
940 2 0.359692 0.417836 0.683502
798 4 0.458324 0.373039 0.669019
796 2 0.465603 0.384519 0.690898
797 4 0.472881 0.395999 0.712776
4494 4 0.245502 0.416834 0.716811
4492 2 0.263545 0.433896 0.729735
4493 4 0.281589 0.450958 0.742659
941 4 0.384774 0.421552 0.689579
1098 4 0.4039 0.433424 0.691175
1096 2 0.425447 0.428182 0.699123
1097 4 0.446995 0.422941 0.70707
1278 4 0.460792 0.419178 0.719282
1276 2 0.483991 0.427568 0.730555
4442 4 0.026762 0.0397039 0.788779
4346 4 0.0390949 0.0593777 0.791889
4345 2 0.055548 0.076223 0.806431
4441 2 0.0436267 0.029091 0.778263
4443 4 0.0604914 0.018478 0.767747
3132 4 0.0792213 0.0232164 0.761049
3130 2 0.102551 0.0399808 0.758007
3129 4 0.101239 0.0573769 0.82842
3127 2 0.127188 0.0619604 0.828974
3131 4 0.12588 0.0567452 0.754964
3128 4 0.153137 0.066544 0.829527
1125 4 0.172176 0.0732479 0.819657
1969 2 0.33683 0.0295486 0.758783
1970 4 0.31199 0.0260542 0.765635
1971 4 0.361669 0.0330429 0.75193
2321 4 0.382624 0.0407768 0.753018
4347 4 0.072001 0.0930684 0.820974
3486 4 0.0488823 0.121417 0.821863
3484 2 0.0746877 0.131513 0.82398
3485 4 0.100493 0.141609 0.826096
3361 2 0.14677 0.14968 0.82325
3363 4 0.172518 0.157998 0.819338
3362 4 0.121022 0.141361 0.827163
3162 4 0.191767 0.160819 0.824893
3041 4 0.274494 0.13932 0.796411
3040 2 0.293236 0.154026 0.810678
3282 4 0.331149 0.165748 0.828355
3042 4 0.311979 0.168731 0.824945
59 3 0.0200568 0.247176 0.797607
3160 2 0.21713 0.173461 0.825182
3017 4 0.263659 0.191284 0.824222
3161 4 0.242493 0.186104 0.825471
1047 4 0.254454 0.243295 0.824813
1045 2 0.275424 0.248337 0.809941
3016 2 0.288485 0.204492 0.828151
49 3 0.341709 0.240712 0.809913
1046 4 0.296394 0.253379 0.795069
3280 2 0.356446 0.17655 0.823661
3134 4 0.394754 0.176536 0.820207
3281 4 0.381743 0.187351 0.818968
833 4 0.496456 0.175814 0.754663
60 3 0.00671402 0.272088 0.778536
56 1 0.00709512 0.262346 0.798855
58 3 0.016669 0.278583 0.814749
1265 4 0.106701 0.298874 0.831318
799 2 0.146187 0.299145 0.819655
800 4 0.121955 0.301157 0.817578
3329 4 0.190747 0.29959 0.819178
801 4 0.170419 0.297133 0.821732
3328 2 0.2165 0.303103 0.820854
1043 4 0.2624 0.314744 0.822356
3330 4 0.242253 0.306617 0.82253
1042 2 0.286727 0.321695 0.81329
1044 4 0.311054 0.328646 0.804225
50 3 0.31457 0.2517 0.790663
48 3 0.351963 0.262607 0.779068
46 1 0.337253 0.257804 0.797487
47 3 0.341357 0.276606 0.810651
3272 4 0.373457 0.268767 0.7766
3271 2 0.395668 0.275467 0.763477
190 3 0.472534 0.334799 0.784368
883 2 0.0185489 0.363911 0.764794
814 2 0.0784008 0.373951 0.782687
815 4 0.0545785 0.372244 0.773804
884 4 0.0425148 0.378722 0.759824
816 4 0.102223 0.375658 0.79157
4207 2 0.140112 0.376816 0.802759
4209 4 0.115915 0.365554 0.794698
4208 4 0.164308 0.388079 0.810819
1170 4 0.174248 0.378353 0.820693
1168 2 0.198691 0.37759 0.82468
1169 4 0.223134 0.376828 0.828666
187 3 0.477039 0.363382 0.80802
186 1 0.488192 0.353317 0.792954
188 3 0.497459 0.368351 0.775931
1956 4 0.297424 0.453634 0.755967
1955 4 0.346085 0.476238 0.771328
1954 2 0.321755 0.464936 0.763648
2277 4 0.0196168 0.0274503 0.838536
4586 4 0.0387737 0.0261412 0.843275
4585 2 0.0647601 0.0353824 0.842329
4587 4 0.0907466 0.0446236 0.841383
2311 2 0.101551 0.0108788 0.864193
2312 4 0.118554 0.0245227 0.880696
1296 4 0.133964 0.0319615 0.894605
1294 2 0.150172 0.0428417 0.913024
1036 2 0.294788 0.00145911 0.861592
1963 2 0.360401 0.0384858 0.880075
1965 4 0.334587 0.0322252 0.876463
1037 4 0.318106 0.0149001 0.870113
2101 2 0.432873 0.0609503 0.883061
2102 4 0.407023 0.0504977 0.883226
1964 4 0.386216 0.0447465 0.883686
2103 4 0.458722 0.0714028 0.882896
2000 4 0.478997 0.0710572 0.885371
3412 2 0.0217683 0.131922 0.912796
1993 2 0.00886785 0.0853826 0.862533
3414 4 0.0473983 0.134794 0.914657
1995 4 0.0322283 0.0856389 0.871643
3344 4 0.0596635 0.129617 0.901034
3254 4 0.0792874 0.100587 0.838734
3253 2 0.100287 0.10071 0.852362
4127 4 0.130397 0.106952 0.882869
3255 4 0.121286 0.100833 0.865991
4126 2 0.154895 0.107842 0.876769
4128 4 0.179394 0.108732 0.870669
1123 2 0.181913 0.0899644 0.837641
1124 4 0.19165 0.106681 0.855626
3088 2 0.388637 0.154405 0.891226
3090 4 0.373541 0.138244 0.907319
3186 4 0.357758 0.142886 0.917405
3135 4 0.417883 0.168037 0.862268
3089 4 0.403733 0.170566 0.875132
3347 4 0.0300841 0.232622 0.864024
3346 2 0.0530902 0.239283 0.875834
1094 4 0.00765416 0.224133 0.861217
1607 4 0.0373868 0.196456 0.906895
745 2 0.082809 0.206592 0.900484
746 4 0.0581019 0.198308 0.908405
747 4 0.107516 0.214875 0.892562
3348 4 0.0760963 0.245944 0.887645
1052 4 0.0964568 0.253667 0.893581
921 4 0.124751 0.21423 0.881662
919 2 0.150256 0.217288 0.878306
867 4 0.190221 0.229089 0.860316
920 4 0.175762 0.220347 0.874949
866 4 0.235835 0.237999 0.836286
865 2 0.213028 0.233544 0.848301
3018 4 0.313311 0.217699 0.83208
1167 4 0.333279 0.224114 0.839087
1165 2 0.357566 0.238372 0.843725
1166 4 0.381853 0.252631 0.848363
3148 2 0.389478 0.21377 0.897499
3150 4 0.363771 0.208346 0.901488
3133 2 0.406318 0.172286 0.841237
3149 4 0.415185 0.219193 0.89351
3014 4 0.433234 0.216279 0.894803
3013 2 0.459102 0.220849 0.896849
3288 4 0.492781 0.226203 0.880818
3015 4 0.48497 0.225419 0.898896
3286 2 0.499595 0.205931 0.873897
1208 4 0.00108468 0.291998 0.860396
481 2 0.051101 0.285938 0.901412
483 4 0.0605786 0.275443 0.882555
1266 4 0.0676333 0.279279 0.863181
1264 2 0.0871672 0.289076 0.84725
1051 2 0.120667 0.256283 0.88524
1053 4 0.144878 0.258899 0.876899
1249 2 0.182456 0.274116 0.899732
1251 4 0.158569 0.262006 0.891467
1250 4 0.206343 0.286227 0.907996
1119 4 0.226438 0.288445 0.908185
3482 4 0.402257 0.252921 0.849428
3481 2 0.428328 0.259662 0.85062
3483 4 0.454399 0.266403 0.851811
4470 4 0.474575 0.270695 0.859364
4468 2 0.479494 0.277959 0.883132
4469 4 0.484413 0.285222 0.9069
2337 4 0.229358 0.363209 0.900528