ITEM: TIMESTEP
2696500
ITEM: NUMBER OF ATOMS
4590
ITEM: BOX BOUNDS xy xz yz pp pp pp
-1.1398369799999983e+01 9.9985700000000008e+00 -1.3997997999999825e+00
-9.9985700000000008e+00 9.9985700000000008e+00 0.0000000000000000e+00
-9.9985700000000008e+00 9.9985700000000008e+00 0.0000000000000000e+00
ITEM: ATOMS id type xs ys zs
4159 2 0.0132576 0.019461 0.0048001
2337 4 0.0434716 0.0326825 0.00376456
2335 2 0.0678212 0.0323253 0.998204
1476 4 0.321131 0.00458606 0.0429794
1823 4 0.498643 0.0811224 0.0122899
23 3 0.188384 0.137845 0.0712022
2894 4 0.200537 0.141784 0.05471
2893 2 0.215087 0.149857 0.0356197
2895 4 0.229638 0.15793 0.0165295
3347 4 0.241271 0.154921 0.00131268
810 4 0.251705 0.1112 0.0727765
1275 4 0.243592 0.0946271 0.0828605
2889 4 0.297629 0.099033 0.0495882
2887 2 0.320538 0.103693 0.0399183
2888 4 0.343447 0.108352 0.0302484
2783 4 0.363323 0.108326 0.0354332
2782 2 0.387836 0.113446 0.0314915
2784 4 0.412349 0.118567 0.0275499
2844 4 0.432742 0.125697 0.0315187
2842 2 0.445895 0.146467 0.0390618
1822 2 0.49936 0.0921401 0.0347353
2843 4 0.459048 0.167237 0.046605
104 3 0.217442 0.248435 0.0504498
1251 4 0.418481 0.201058 0.0340859
1249 2 0.437515 0.215625 0.0246799
1250 4 0.456549 0.230191 0.015274
4303 2 0.451654 0.196159 0.074493
1247 4 0.468973 0.220668 0.0272409
4305 4 0.461845 0.184081 0.0555856
1246 2 0.492583 0.227323 0.0339709
2875 2 0.00407526 0.261921 0.0196426
2877 4 0.0242923 0.277809 0.0168474
2650 2 0.1278 0.286437 0.0805089
2652 4 0.151492 0.289118 0.0724115
2760 4 0.159362 0.303471 0.0608572
2758 2 0.1767 0.308656 0.0432469
2759 4 0.194039 0.313841 0.0256367
2835 4 0.208575 0.318562 0.0129048
103 3 0.194131 0.273562 0.036865
101 1 0.214422 0.264076 0.0338119
102 3 0.214154 0.253506 0.0133869
105 3 0.231557 0.280275 0.0342466
107 3 0.293479 0.300654 0.0384146
109 3 0.289594 0.273878 0.012115
108 3 0.305117 0.266572 0.0457889
106 1 0.303149 0.282591 0.0292882
110 3 0.323789 0.289357 0.0211528
1104 4 0.333437 0.272895 0.0257065
1102 2 0.357976 0.276306 0.0209043
1103 4 0.382515 0.279716 0.0161021
294 4 0.401537 0.279243 0.00698557
3338 4 0.461397 0.280241 0.0303307
3337 2 0.484639 0.28475 0.0214273
595 2 0.0973131 0.40541 0.0718787
597 4 0.120426 0.408789 0.0623686
3389 4 0.140161 0.408663 0.0626756
1572 4 0.333121 0.409927 0.0330913
1550 4 0.0495588 0.435087 0.0219045
3635 4 0.0680372 0.428107 0.0198041
1549 2 0.0263797 0.431367 0.0311811
1551 4 0.00320054 0.427648 0.0404577
3634 2 0.0908847 0.439772 0.0217366
3636 4 0.113732 0.451437 0.023669
4187 4 0.132256 0.446569 0.0291613
3388 2 0.163878 0.416046 0.06837
4186 2 0.156425 0.450057 0.0227891
4188 4 0.180595 0.453544 0.0164169
135 3 0.198871 0.447075 0.0128877
134 3 0.201357 0.48275 0.0249266
131 1 0.212341 0.466328 0.0139038
3390 4 0.187595 0.42343 0.0740643
3000 4 0.209467 0.42844 0.078548
2583 4 0.200448 0.50146 0.0175086
133 3 0.2321 0.4625 0.0249782
72 3 0.229813 0.437009 0.0725324
2112 4 0.252611 0.463906 0.028859
2110 2 0.276024 0.473025 0.0240242
73 3 0.249911 0.455233 0.0455831
71 1 0.250661 0.439776 0.0627908
75 3 0.256406 0.419784 0.0545494
74 3 0.266085 0.447503 0.0788279
648 4 0.269626 0.425418 0.0412966
2111 4 0.299436 0.482145 0.0191894
646 2 0.293104 0.42152 0.0345243
1710 4 0.297832 0.450277 0.0837927
647 4 0.316583 0.417622 0.0277521
3702 4 0.318675 0.489712 0.0228131
1708 2 0.321192 0.453055 0.074801
3700 2 0.343029 0.496805 0.0252059
1709 4 0.344551 0.455833 0.0658094
1570 2 0.354304 0.424565 0.0309519
1743 4 0.359957 0.469494 0.0689371
1571 4 0.375487 0.439203 0.0288124
1741 2 0.383473 0.479564 0.0707962
3711 4 0.394621 0.437871 0.0343507
1742 4 0.406989 0.489633 0.0726552
3709 2 0.417724 0.445099 0.042247
3710 4 0.440826 0.452328 0.0501433
2465 4 0.0036058 0.0434084 0.0855447
1540 2 0.0222346 0.0132496 0.148856
1373 4 0.02012 0.0556085 0.0903827
1542 4 0.0404041 0.0316908 0.148385
1372 2 0.0439984 0.0639088 0.0940633
1374 4 0.0678767 0.0722092 0.0977439
582 4 0.0874701 0.0682732 0.0952276
580 2 0.102328 0.0492762 0.0967185
2780 4 0.113443 0.0780418 0.161149
581 4 0.117186 0.0302792 0.0982093
2779 2 0.134761 0.0803392 0.148023
2702 4 0.216879 0.076106 0.137838
1274 4 0.230645 0.06728 0.123248
1273 2 0.237118 0.0809535 0.103054
2929 2 0.0088387 0.143099 0.162468
2930 4 0.0279892 0.149442 0.147137
1566 4 0.0453183 0.11043 0.155288
2520 4 0.0456391 0.15663 0.142408
692 4 0.0507517 0.112824 0.135877
2518 2 0.0702181 0.16317 0.141628
691 2 0.0612416 0.116013 0.113302
693 4 0.0717314 0.119202 0.0907268
353 4 0.0914291 0.123018 0.0877855
352 2 0.114893 0.131625 0.0931197
354 4 0.138357 0.140231 0.0984538
24 3 0.15623 0.145163 0.0891958
2781 4 0.156078 0.0826366 0.134897
22 3 0.175022 0.115487 0.0990152
21 1 0.177356 0.137258 0.0916308
25 3 0.189471 0.149932 0.10686
2703 4 0.172088 0.0943623 0.144552
2701 2 0.194483 0.0852342 0.141195
808 2 0.246031 0.13204 0.0846093
2679 4 0.238515 0.1596 0.114355
809 4 0.240358 0.152879 0.096442
2677 2 0.252605 0.154734 0.134186
2678 4 0.266694 0.149867 0.154017
505 2 0.310795 0.15124 0.157815
506 4 0.285849 0.147592 0.156315
507 4 0.335741 0.154887 0.159315
2600 4 0.014088 0.229017 0.116817
2599 2 0.0387745 0.228402 0.113177
2601 4 0.063461 0.227786 0.109537
450 4 0.0825544 0.224586 0.104535
522 4 0.114397 0.174632 0.142102
2519 4 0.0947972 0.169709 0.140848
448 2 0.104703 0.233275 0.0952777
449 4 0.126852 0.241964 0.0860202
520 2 0.139426 0.175134 0.142597
521 4 0.164454 0.175635 0.143092
624 4 0.183772 0.179806 0.145288
732 4 0.2011 0.222346 0.162601
622 2 0.207813 0.188113 0.142871
2476 2 0.237948 0.248563 0.149892
623 4 0.231854 0.19642 0.140453
455 4 0.248694 0.207383 0.133275
454 2 0.272305 0.211785 0.12535
2478 4 0.216683 0.236712 0.158084
456 4 0.295915 0.216186 0.117425
491 4 0.314749 0.210498 0.117042
490 2 0.339526 0.208869 0.115324
492 4 0.364303 0.20724 0.113605
2442 4 0.377542 0.192903 0.114875
2974 2 0.409266 0.228374 0.159592
2975 4 0.431991 0.225595 0.149992
2440 2 0.401351 0.201226 0.110822
2441 4 0.425161 0.209548 0.106768
4304 4 0.441462 0.208237 0.0934005
653 4 0.447532 0.215125 0.145878
652 2 0.471323 0.22073 0.139076
654 4 0.495114 0.226336 0.132275
2092 2 0.0164065 0.278129 0.121647
2093 4 0.0401838 0.280625 0.113782
528 4 0.0588349 0.278467 0.121719
526 2 0.0829181 0.278562 0.114974
527 4 0.107001 0.278656 0.108229
2651 4 0.104109 0.283757 0.0886064
914 4 0.144493 0.251659 0.088
913 2 0.169492 0.254161 0.0863472
915 4 0.19449 0.256663 0.0846944
845 4 0.213971 0.258206 0.0917802
844 2 0.239018 0.260906 0.0918663
2477 4 0.259213 0.260415 0.141699
846 4 0.264064 0.263606 0.0919523
412 2 0.427969 0.281254 0.156731
413 4 0.404613 0.279898 0.1658
414 4 0.451326 0.282611 0.147661
351 4 0.471913 0.28379 0.145863
349 2 0.493175 0.298262 0.148257
1467 4 0.0552604 0.392966 0.086788
1465 2 0.0303337 0.393802 0.087269
1466 4 0.0054069 0.394638 0.0877501
596 4 0.0741997 0.402032 0.0813888
609 4 0.225219 0.344648 0.149395
229 2 0.26474 0.412264 0.153056
607 2 0.24928 0.34546 0.142441
230 4 0.239806 0.408011 0.153434
608 4 0.27334 0.346272 0.135486
2570 4 0.286056 0.355873 0.149789
231 4 0.289675 0.416517 0.152678
2569 2 0.308167 0.36748 0.143719
2571 4 0.330278 0.379087 0.137649
297 4 0.347993 0.370295 0.136958
295 2 0.368375 0.37953 0.124692
296 4 0.388756 0.388764 0.112426
740 4 0.404711 0.383727 0.121581
739 2 0.429221 0.382604 0.12598
741 4 0.453731 0.381481 0.130378
3705 4 0.463622 0.393734 0.141767
3703 2 0.487397 0.388891 0.14627
315 4 0.0390241 0.49942 0.151241
3101 4 0.093879 0.432832 0.143472
1632 4 0.150361 0.494905 0.164738
1630 2 0.170911 0.498625 0.150607
2913 4 0.206601 0.451353 0.137198
2998 2 0.20809 0.443359 0.098466
2999 4 0.206713 0.458279 0.118384
2911 2 0.218259 0.435143 0.151295
2912 4 0.229918 0.418933 0.165392
3671 4 0.278711 0.452965 0.0929144
3670 2 0.287078 0.460611 0.115395
3672 4 0.295446 0.468258 0.137875
735 4 0.298028 0.43353 0.162552
1440 4 0.313875 0.475195 0.143392
1438 2 0.335643 0.487705 0.137716
733 2 0.322812 0.437305 0.159432
734 4 0.347595 0.441079 0.156312
1439 4 0.35741 0.500215 0.132041
776 4 0.364956 0.433644 0.147775
775 2 0.380711 0.454096 0.149091
777 4 0.396467 0.474548 0.150407
1609 2 0.000335395 0.0409344 0.242501
3676 2 0.0119138 0.0528617 0.193191
3678 4 0.0317278 0.0558105 0.177958
332 4 0.0967006 0.0790812 0.170708
333 4 0.0514716 0.0544705 0.172237
331 2 0.0740861 0.0667758 0.171472
3810 4 0.326115 0.0252707 0.18131
3808 2 0.339984 0.0425361 0.194226
3809 4 0.353852 0.0598015 0.207141
786 4 0.395872 0.00265376 0.192832
606 4 0.363309 0.0777303 0.204247
255 4 0.437616 0.047537 0.224534
253 2 0.45824 0.0595521 0.215075
254 4 0.478864 0.0715671 0.205616
632 4 0.494396 0.0616871 0.197297
1564 2 0.0576172 0.119527 0.175449
1565 4 0.0699162 0.128624 0.195609
458 4 0.088812 0.12223 0.194172
457 2 0.104668 0.135984 0.208808
459 4 0.120523 0.149739 0.223444
1749 4 0.138242 0.159196 0.229967
498 4 0.347374 0.164087 0.173578
604 2 0.382166 0.0947614 0.20905
605 4 0.401023 0.111793 0.213853
2880 4 0.409793 0.128563 0.222296
2878 2 0.410262 0.137172 0.245771
389 4 0.460419 0.161358 0.184687
509 4 0.0148703 0.212873 0.223732
2452 2 0.0122808 0.188999 0.193615
508 2 0.0344478 0.228248 0.230553
2454 4 0.0361687 0.192795 0.200878
510 4 0.0540253 0.243623 0.237374
537 4 0.998848 0.20321 0.232067
1200 4 0.0547265 0.187096 0.199571
1198 2 0.0783966 0.193405 0.206341
1199 4 0.102067 0.199715 0.213111
1747 2 0.1622 0.165205 0.235891
731 4 0.164922 0.220259 0.197214
1748 4 0.186158 0.171214 0.241815
2789 4 0.19581 0.222213 0.245962
730 2 0.183011 0.221302 0.179907
180 3 0.20573 0.174121 0.244402
2951 4 0.207329 0.215221 0.231953
2950 2 0.225681 0.20838 0.216994
2952 4 0.244033 0.201539 0.202034
477 4 0.260684 0.20729 0.213092
475 2 0.2855 0.212259 0.211735
476 4 0.310315 0.217228 0.210378
837 4 0.325632 0.220235 0.196235
835 2 0.346518 0.222538 0.182437
2976 4 0.386541 0.231153 0.169193
836 4 0.367403 0.224842 0.16864
496 2 0.372211 0.16902 0.174582
497 4 0.397049 0.173953 0.175586
390 4 0.416196 0.177766 0.171537
388 2 0.438308 0.169562 0.178112
629 4 0.469417 0.17811 0.19358
628 2 0.492392 0.188397 0.198493
2968 2 0.00417662 0.27043 0.208927
2970 4 0.0214717 0.288419 0.215593
2853 4 0.0347905 0.30314 0.212709
2851 2 0.0545789 0.305762 0.228005
2852 4 0.0743672 0.308385 0.243301
2729 4 0.20044 0.304631 0.168924
2728 2 0.187438 0.323384 0.177205
2463 4 0.366587 0.298135 0.215806
2461 2 0.384507 0.295209 0.198832
2462 4 0.402428 0.292284 0.181859
2591 4 0.0265633 0.361117 0.191949
2590 2 0.00899053 0.357281 0.174312
2730 4 0.174435 0.342136 0.185485
2471 4 0.199699 0.403824 0.187772
2470 2 0.213839 0.398849 0.207534
2472 4 0.227978 0.393875 0.227297
4008 4 0.239052 0.378196 0.223503
4006 2 0.251297 0.360076 0.212816
4007 4 0.263543 0.341957 0.202129
2704 2 0.379891 0.40341 0.230988
2705 4 0.385934 0.380196 0.236234
1385 4 0.40358 0.381052 0.249692
1384 2 0.427012 0.391402 0.25126
586 2 0.495289 0.406505 0.247876
3100 2 0.0909712 0.437628 0.167796
753 4 0.147156 0.466047 0.2253
751 2 0.126803 0.45647 0.213214
752 4 0.10645 0.446893 0.201128
3102 4 0.0880633 0.442424 0.192121
644 4 0.160545 0.477464 0.236646
643 2 0.181258 0.492652 0.233745
3449 4 0.241563 0.452874 0.230361
3448 2 0.264737 0.444986 0.230491
3450 4 0.287911 0.437098 0.23062
2874 4 0.307432 0.443904 0.236612
2706 4 0.373849 0.426624 0.225743
4368 4 0.381561 0.431269 0.207355
2872 2 0.330507 0.451655 0.244188
4 3 0.381548 0.435648 0.243719
4366 2 0.39769 0.45086 0.202502
4367 4 0.41382 0.470452 0.197649
1382 4 0.432358 0.473449 0.190307
1381 2 0.457051 0.476035 0.194516
1383 4 0.481743 0.47862 0.198724
1611 4 0.00450881 0.0582592 0.260284
1785 4 0.00321426 0.0615166 0.280337
530 4 0.0217255 0.0813458 0.309297
3522 4 0.0551844 0.00400649 0.287265
162 3 0.121928 0.055012 0.324958
2115 4 0.446488 0.00977956 0.317746
1704 4 0.00760913 0.0918211 0.301917
529 2 0.0387577 0.0905026 0.32581
1191 4 0.148907 0.140588 0.316714
1189 2 0.132102 0.157829 0.318588
402 4 0.165786 0.129083 0.316606
400 2 0.187406 0.14298 0.319007
2954 4 0.226907 0.166387 0.328076
401 4 0.209026 0.156877 0.321408
285 4 0.252582 0.156827 0.269382
283 2 0.276974 0.163902 0.271393
178 3 0.234931 0.163535 0.264628
2879 4 0.41073 0.145781 0.269245
515 4 0.0163675 0.18796 0.304713
725 4 0.0220483 0.246653 0.270194
514 2 0.0397801 0.198015 0.30761
1031 4 0.0409555 0.24395 0.276179
516 4 0.0631928 0.20807 0.310508
1190 4 0.115296 0.175069 0.320462
2788 2 0.192056 0.23197 0.268552
2179 2 0.18918 0.242966 0.323827
2790 4 0.188302 0.241728 0.291142
179 3 0.20608 0.179534 0.281662
176 1 0.219039 0.179188 0.262434
177 3 0.229878 0.199973 0.259422
2672 4 0.241309 0.217162 0.26025
2953 2 0.24933 0.179093 0.327889
2671 2 0.265459 0.222285 0.265991
2955 4 0.271754 0.191799 0.327702
1221 4 0.300622 0.228122 0.255637
284 4 0.301367 0.170978 0.273403
2673 4 0.289608 0.227407 0.271732
1953 4 0.291165 0.196762 0.324125
2654 4 0.301805 0.242421 0.330228
2946 4 0.316111 0.185802 0.277463
2944 2 0.340947 0.185037 0.275202
1219 2 0.321242 0.243309 0.25912
2945 4 0.365783 0.184272 0.272941
2535 4 0.385284 0.179241 0.272096
2533 2 0.403072 0.196834 0.278543
2534 4 0.42086 0.214426 0.28499
2766 4 0.441274 0.213723 0.28976
2764 2 0.462121 0.228261 0.294304
2765 4 0.482967 0.242799 0.298848
299 4 0.491494 0.247468 0.316107
339 4 0.0961197 0.32392 0.308036
1030 2 0.06553 0.249994 0.273863
2556 4 0.0867977 0.312512 0.322641
1032 4 0.0901045 0.256038 0.271547
1395 4 0.110402 0.261023 0.268514
1393 2 0.133289 0.27257 0.266418
1394 4 0.156177 0.284117 0.264322
2181 4 0.18994 0.257666 0.303603
2752 2 0.191864 0.301781 0.257809
2753 4 0.172599 0.285113 0.253353
2754 4 0.21113 0.318448 0.262264
2787 4 0.257724 0.312195 0.303789
2785 2 0.280196 0.314889 0.292772
2786 4 0.302669 0.317582 0.281755
275 4 0.32085 0.314031 0.290383
274 2 0.332685 0.296301 0.278559
276 4 0.34452 0.27857 0.266735
1220 4 0.341861 0.258497 0.262602
344 4 0.499597 0.311752 0.297181
668 4 0.00543252 0.418171 0.318657
1437 4 0.0570766 0.399648 0.325172
1435 2 0.0391218 0.415525 0.322079
337 2 0.11235 0.339245 0.295363
680 4 0.109154 0.387749 0.326558
338 4 0.12858 0.354571 0.282691
291 4 0.144946 0.361699 0.27633
289 2 0.16774 0.369714 0.268167
290 4 0.190534 0.37773 0.260003
2568 4 0.208455 0.386611 0.264928
2566 2 0.233225 0.388855 0.26872
2567 4 0.257994 0.391098 0.272512
2497 2 0.256931 0.377131 0.316383
2499 4 0.253738 0.382097 0.292134
1386 4 0.450443 0.401752 0.252828
588 4 0.471189 0.402503 0.254341
2598 4 0.470216 0.354413 0.323732
345 4 0.490402 0.354398 0.320283
343 2 0.494999 0.333075 0.308732
1436 4 0.021167 0.431402 0.318987
4032 4 0.056353 0.496865 0.269391
4030 2 0.0759705 0.485894 0.278838
3958 2 0.134155 0.469705 0.283008
3959 4 0.109623 0.46373 0.280171
4031 4 0.095588 0.474922 0.288285
3960 4 0.158686 0.47568 0.285845
4574 4 0.163085 0.479076 0.304564
4573 2 0.184598 0.470089 0.311922
4575 4 0.206111 0.461102 0.319279
4002 4 0.225531 0.462473 0.325909
245 4 0.301587 0.456193 0.330966
2621 4 0.321099 0.459983 0.328605
2873 4 0.353583 0.459405 0.251764
2 3 0.36997 0.46481 0.263129
2620 2 0.345345 0.467896 0.329722
2622 4 0.369591 0.47581 0.33084
3 3 0.377992 0.433659 0.281519
1 1 0.383933 0.447526 0.263592
542 4 0.385644 0.464035 0.327078
5 3 0.405522 0.456035 0.265937
541 2 0.40716 0.478202 0.328876
1575 4 0.424535 0.463428 0.269457
1573 2 0.448911 0.47063 0.267606
543 4 0.428677 0.492369 0.330675
1574 4 0.473288 0.477832 0.265755
1392 4 0.492893 0.483527 0.266099
426 4 0.0188689 0.0332884 0.354835
2645 4 0.0395231 0.033037 0.354481
636 4 0.0500164 0.0840522 0.398887
2644 2 0.0633431 0.0402884 0.359879
2646 4 0.0871631 0.0475398 0.365276
2663 4 0.0916867 0.0447923 0.384741
164 3 0.104626 0.0569971 0.358194
2662 2 0.106664 0.0312691 0.398479
2892 4 0.0502844 0.0721485 0.414543
161 1 0.123334 0.0645175 0.345893
165 3 0.1423 0.05847 0.356195
722 4 0.155962 0.0725295 0.359024
1966 2 0.161291 0.0200498 0.397172
1967 4 0.13814 0.0107959 0.40293
721 2 0.180019 0.0757168 0.365882
1968 4 0.184443 0.0293036 0.391414
2664 4 0.121642 0.0177459 0.412217
723 4 0.204075 0.0789041 0.37274
1348 2 0.249076 0.058975 0.375603
1349 4 0.22737 0.0613578 0.38748
2714 4 0.26606 0.068774 0.406459
1350 4 0.270782 0.0565923 0.363726
1058 4 0.269363 0.0194472 0.371146
618 4 0.319677 0.00910488 0.403828
1059 4 0.304698 0.0216717 0.406618
1057 2 0.28703 0.0205594 0.388882
616 2 0.34256 0.019567 0.39882
706 2 0.376833 0.00874813 0.357192
708 4 0.369409 0.0229831 0.375944
617 4 0.365443 0.0300291 0.393812
2113 2 0.460281 0.00494859 0.3378
634 2 0.0572651 0.096742 0.378303
635 4 0.0645138 0.109432 0.357719
531 4 0.0557899 0.0996595 0.342323
163 3 0.124021 0.0875972 0.343688
2529 4 0.0200817 0.23919 0.384598
2483 4 0.0162081 0.197505 0.398213
2482 2 0.0366189 0.200334 0.383769
2484 4 0.0570298 0.203164 0.369325
8 3 0.0753837 0.20892 0.37611
9 3 0.0835386 0.242279 0.358855
6 1 0.0923646 0.224894 0.370486
7 3 0.10225 0.233258 0.389792
10 3 0.108061 0.215456 0.357758
3080 4 0.122777 0.229989 0.386943
2957 4 0.123408 0.229043 0.366136
3079 2 0.128878 0.224797 0.410532
2956 2 0.147726 0.229762 0.360157
2958 4 0.172044 0.230481 0.354178
2180 4 0.188421 0.228265 0.344051
872 4 0.258769 0.238923 0.3844
871 2 0.278945 0.246044 0.398084
1951 2 0.302486 0.200255 0.346268
1952 4 0.313808 0.203748 0.368411
2510 4 0.310646 0.238235 0.415696
584 4 0.0025844 0.318964 0.390469
893 4 0.0124182 0.329759 0.404707
892 2 0.0324742 0.316482 0.401793
2527 2 0.03715 0.253997 0.396801
894 4 0.0525302 0.303204 0.39888
2528 4 0.0542183 0.268805 0.409004
2496 4 0.066301 0.25409 0.410782
2555 4 0.0771322 0.313652 0.371676
2554 2 0.0819649 0.313082 0.347159
569 4 0.0785431 0.325792 0.388202
568 2 0.0933078 0.31876 0.406721
2494 2 0.0896574 0.263294 0.415746
873 4 0.299122 0.253165 0.411767
2655 4 0.342847 0.266588 0.349418
2653 2 0.322326 0.254504 0.339823
2526 4 0.363647 0.264014 0.345314
2524 2 0.387298 0.273026 0.349063
2525 4 0.410948 0.282039 0.352811
1056 4 0.426048 0.297711 0.355908
298 2 0.491865 0.265055 0.333858
1054 2 0.450304 0.293476 0.358015
1055 4 0.47456 0.289242 0.360122
300 4 0.492236 0.282643 0.351609
681 4 0.0683869 0.411797 0.337533
679 2 0.0887702 0.399773 0.332046
812 4 0.106368 0.37794 0.409579
549 4 0.109439 0.363916 0.395458
547 2 0.111593 0.361481 0.370682
548 4 0.113747 0.359045 0.345906
3885 4 0.19578 0.389992 0.417326
2498 4 0.260123 0.372166 0.340631
2832 4 0.252913 0.361028 0.355842
2831 4 0.241902 0.360862 0.404625
2830 2 0.247408 0.360945 0.380234
1757 4 0.365968 0.402594 0.377745
1756 2 0.384489 0.389066 0.369798
2596 2 0.447527 0.345317 0.331225
2597 4 0.424838 0.336222 0.338719
1758 4 0.403011 0.375538 0.361851
3641 4 0.418184 0.390714 0.358121
3640 2 0.442419 0.398012 0.361131
3642 4 0.466655 0.405309 0.364141
487 2 0.489614 0.405848 0.40375
488 4 0.478737 0.408363 0.381463
1338 4 0.146109 0.446281 0.380062
602 4 0.198497 0.480034 0.406391
1337 4 0.180973 0.480814 0.396048
1336 2 0.163541 0.463547 0.388055
246 4 0.268343 0.416823 0.335581
244 2 0.284965 0.436508 0.333274
4000 2 0.243668 0.472312 0.340873
4001 4 0.261806 0.482151 0.355837
3618 4 0.277994 0.482949 0.369267
3616 2 0.301288 0.48414 0.378487
1432 2 0.310096 0.429389 0.402265
3617 4 0.324583 0.485332 0.387707
1980 4 0.341563 0.473761 0.390244
1978 2 0.357276 0.491103 0.400932
1433 4 0.326047 0.440383 0.385716
3603 4 0.343952 0.452907 0.386578
3601 2 0.360023 0.436444 0.378993
3602 4 0.376094 0.419981 0.371409
3998 4 0.436974 0.476263 0.338853
3997 2 0.459575 0.470696 0.346953
3999 4 0.482175 0.465129 0.355054
2891 4 0.00891344 0.0769013 0.441726
2890 2 0.0295989 0.0745249 0.428135
217 3 0.177841 0.0447279 0.473733
220 3 0.168396 0.0219489 0.445231
3798 4 0.149436 0.0184505 0.438171
216 1 0.181764 0.0247767 0.463594
219 3 0.176941 0.0075068 0.478664
2557 2 0.19753 0.0771007 0.477505
2558 4 0.196183 0.0531354 0.470381
218 3 0.204132 0.0252714 0.45732
4339 2 0.260029 0.052115 0.487831
4341 4 0.240264 0.0394575 0.47741
2502 4 0.236105 0.0583933 0.417954
2500 2 0.230649 0.0465074 0.439461
2501 4 0.225193 0.0346216 0.460968
1523 4 0.237489 0.00296869 0.421816
1180 2 0.267084 0.0052135 0.451732
3394 2 0.329673 0.0118188 0.464421
3395 4 0.307035 0.0175317 0.456557
1182 4 0.28885 0.00908605 0.463905
4549 2 0.321517 0.0663738 0.500719
4550 4 0.345365 0.0695022 0.493164
4340 4 0.279793 0.0647726 0.498253
2504 4 0.362343 0.077047 0.485197
3396 4 0.35231 0.00610589 0.472285
4123 2 0.39091 0.00496517 0.428804
4125 4 0.409756 0.0196476 0.438402
2503 2 0.37513 0.0583744 0.494024
3621 4 0.455002 0.0314085 0.499044
3619 2 0.478003 0.0428992 0.499717
321 4 0.0104967 0.153289 0.484745
938 4 0.0168711 0.155166 0.440836
2559 4 0.198877 0.101066 0.484629
1061 4 0.208668 0.118676 0.483691
1060 2 0.231035 0.127142 0.474782
1062 4 0.253403 0.135608 0.465873
683 4 0.271275 0.138783 0.474962
2713 2 0.276497 0.0869232 0.421011
2715 4 0.286934 0.105072 0.435564
682 2 0.281832 0.132245 0.453489
684 4 0.292389 0.125707 0.432015
937 2 0.0398399 0.165825 0.445044
939 4 0.0628087 0.176485 0.449252
642 4 0.0751589 0.188869 0.460038
640 2 0.0962984 0.200743 0.451567
641 4 0.117438 0.212618 0.443096
3081 4 0.134979 0.219604 0.434121
2817 4 0.268728 0.175669 0.465366
2815 2 0.290195 0.18824 0.458781
2816 4 0.311661 0.200811 0.452197
2509 2 0.32742 0.242183 0.434065
2511 4 0.344193 0.246131 0.452434
2495 4 0.113014 0.272498 0.42071
3498 4 0.0816922 0.254193 0.461706
3496 2 0.104048 0.255761 0.473012
570 4 0.108073 0.311729 0.425241
3497 4 0.126404 0.257328 0.484318
366 4 0.128263 0.276244 0.432568
364 2 0.138199 0.297402 0.442864
3056 4 0.165299 0.323032 0.463489
365 4 0.148135 0.318561 0.45316
3055 2 0.18873 0.315979 0.461757
3057 4 0.212162 0.308926 0.460024
306 4 0.285687 0.258923 0.482836
2586 4 0.265125 0.298107 0.440291
444 4 0.278002 0.314055 0.441024
2584 2 0.271657 0.277848 0.452602
2585 4 0.278189 0.257589 0.464912
442 2 0.287641 0.334734 0.452445
3059 4 0.362764 0.254702 0.453707
304 2 0.299632 0.26787 0.502012
3058 2 0.387582 0.255579 0.457103
239 4 0.394163 0.32725 0.444969
238 2 0.416347 0.317555 0.44206
3060 4 0.4124 0.256455 0.460499
240 4 0.438532 0.30786 0.439151
408 4 0.426109 0.270883 0.453515
2636 4 0.45537 0.316383 0.430131
406 2 0.450022 0.279755 0.455509
2635 2 0.477652 0.329271 0.43154
407 4 0.473935 0.288626 0.457503
802 2 0.491803 0.274126 0.49563
803 4 0.478919 0.280531 0.47547
3592 2 0.00683527 0.34383 0.469913
265 2 0.0286544 0.413967 0.42007
3593 4 0.0203891 0.36308 0.480189
4044 4 0.0389139 0.373537 0.478884
266 4 0.0531753 0.410571 0.420878
4042 2 0.0557255 0.393045 0.481342
267 4 0.00413347 0.417363 0.419261
813 4 0.0680234 0.400204 0.429895
811 2 0.0871955 0.389072 0.419737
4043 4 0.0725372 0.412554 0.483799
3883 2 0.208124 0.407861 0.430847
1434 4 0.294145 0.418396 0.418814
452 4 0.243036 0.367386 0.424254
451 2 0.261079 0.377684 0.439055
453 4 0.279123 0.387981 0.453856
443 4 0.297281 0.355413 0.463866
3331 2 0.429514 0.365171 0.489629
3333 4 0.442934 0.371958 0.469343
2925 4 0.454655 0.387177 0.475847
489 4 0.500491 0.403332 0.426036
2923 2 0.471826 0.391159 0.457846
2924 4 0.488996 0.39514 0.439846
3538 2 0.0686942 0.477756 0.48875
4251 4 0.0913335 0.412045 0.487975
4249 2 0.115783 0.417778 0.484232
4250 4 0.140233 0.423511 0.48049
2593 2 0.13492 0.490527 0.479077
2594 4 0.110578 0.486752 0.484665
3540 4 0.0902355 0.489123 0.48065
3665 4 0.177507 0.491876 0.464714
2742 4 0.200201 0.450258 0.456892
2595 4 0.159262 0.494302 0.47349
2740 2 0.179564 0.438343 0.466435
3884 4 0.220468 0.425731 0.444368
603 4 0.216083 0.459227 0.447684
2741 4 0.158927 0.426428 0.475977
601 2 0.20729 0.469631 0.427038
417 4 0.281757 0.430592 0.42462
416 4 0.236212 0.439088 0.441931
415 2 0.258984 0.43484 0.433276
2195 4 0.0091056 0.0773248 0.568887
2553 4 0.0291382 0.0795569 0.570744
2551 2 0.0540779 0.0835812 0.569754
2552 4 0.0790176 0.0876054 0.568764
762 4 0.0979462 0.0816434 0.566103
1142 4 0.317649 0.0504052 0.550021
1141 2 0.325563 0.0299454 0.56094
1143 4 0.333477 0.00948571 0.571858
4551 4 0.297669 0.0632454 0.508274
2505 4 0.387916 0.0397018 0.50285
574 2 0.423214 0.0176749 0.509031
88 3 0.371456 0.0278089 0.500848
86 1 0.367266 0.00485313 0.503036
87 3 0.348045 0.000645059 0.515413
576 4 0.441567 0.0353835 0.513361
1283 4 0.0197299 0.159264 0.501338
1282 2 0.0343567 0.164238 0.521252
2318 4 0.121138 0.142418 0.569504
760 2 0.121594 0.0915564 0.565939
2317 2 0.144614 0.146207 0.561014
761 4 0.145242 0.101469 0.565776
2319 4 0.168091 0.149995 0.552525
3021 4 0.165107 0.105864 0.566221
3019 2 0.189984 0.110591 0.566771
3020 4 0.214862 0.115319 0.567321
1107 4 0.23215 0.11303 0.556341
1105 2 0.25696 0.113089 0.559484
1106 4 0.281769 0.113147 0.562628
3387 4 0.298523 0.108232 0.573228
3385 2 0.32306 0.105082 0.571705
3386 4 0.347597 0.101933 0.570183
806 4 0.428474 0.132641 0.580002
2244 4 0.413279 0.118273 0.585706
805 2 0.451298 0.125204 0.575012
807 4 0.474122 0.117767 0.570021
978 4 0.493088 0.121722 0.571517
1284 4 0.0489836 0.169213 0.541166
2604 4 0.041999 0.225796 0.569473
2602 2 0.0429358 0.201547 0.563976
2603 4 0.0438727 0.177298 0.55848
2964 4 0.267646 0.239207 0.566958
2962 2 0.291825 0.247457 0.566645
1212 4 0.324591 0.238721 0.562237
1210 2 0.349525 0.241382 0.564612
1211 4 0.37446 0.244042 0.566986
3179 4 0.449395 0.2422 0.577021
3178 2 0.474374 0.244592 0.578983
2963 4 0.316004 0.255706 0.566332
305 4 0.313577 0.276817 0.521188
2814 4 0.386721 0.253935 0.578981
3332 4 0.416093 0.358383 0.509915
3539 4 0.0471529 0.466389 0.496849
3452 4 0.0272775 0.435832 0.522167
1698 4 0.0464254 0.431814 0.52652
3451 2 0.00241209 0.431301 0.520741
1696 2 0.0711751 0.437468 0.526844
1697 4 0.0959248 0.443123 0.527168
3975 4 0.114937 0.451714 0.530059
3973 2 0.138996 0.459972 0.532435
3974 4 0.163055 0.468229 0.534812
2130 4 0.182761 0.472171 0.530921
2128 2 0.205249 0.483367 0.525555
798 4 0.219121 0.465296 0.580368
2129 4 0.227736 0.494562 0.520188
1136 4 0.232735 0.452528 0.580065
1135 2 0.256982 0.459844 0.577178
1137 4 0.281229 0.46716 0.574291
791 4 0.296078 0.455934 0.57642
2213 4 0.247856 0.494916 0.516979
3309 4 0.153116 0.00916684 0.623695
4282 2 0.150538 0.000478275 0.659955
4284 4 0.141152 0.0106649 0.639476
3307 2 0.173966 0.00778957 0.61011
3050 4 0.204596 0.0774731 0.616304
3308 4 0.194815 0.00641229 0.596524
3049 2 0.218818 0.0601147 0.607053
3051 4 0.23304 0.0427563 0.597802
2507 4 0.253058 0.039906 0.594695
2506 2 0.264083 0.0302067 0.614548
3024 4 0.273078 0.0309449 0.65079
2508 4 0.275108 0.0205075 0.6344
2281 2 0.335586 0.0696054 0.665682
3083 4 0.298112 0.0862126 0.660542
2283 4 0.358138 0.0616497 0.660405
2979 4 0.370315 0.077002 0.651058
2977 2 0.393252 0.083305 0.659968
3002 4 0.0263481 0.156599 0.598373
3062 4 0.0334356 0.146255 0.611339
3061 2 0.0507067 0.142728 0.628828
3063 4 0.0679777 0.139201 0.646317
3125 4 0.0812475 0.138841 0.632466
3124 2 0.105304 0.14534 0.627374
3126 4 0.129361 0.151839 0.622283
3008 4 0.136452 0.154057 0.604638
3007 2 0.160169 0.156201 0.612711
3009 4 0.183886 0.158345 0.620785
1003 2 0.186367 0.138706 0.656759
1005 4 0.189904 0.156838 0.639692
270 4 0.214346 0.0957697 0.620911
268 2 0.223918 0.101226 0.643515
269 4 0.23349 0.106683 0.666119
3084 4 0.250177 0.0974425 0.661399
3082 2 0.274144 0.0918276 0.660971
2242 2 0.389509 0.109336 0.582601
2243 4 0.365738 0.100398 0.579495
1086 4 0.43445 0.0909461 0.660664
3001 2 0.0100912 0.173593 0.604029
2812 2 0.409645 0.246842 0.584113
2813 4 0.432569 0.239748 0.589245
1041 4 0.0237645 0.341538 0.651537
998 4 0.0433302 0.347637 0.654654
796 2 0.194638 0.459422 0.583724
797 4 0.170156 0.453549 0.58708
3463 2 0.158422 0.496648 0.593217
3465 4 0.162541 0.472356 0.59211
2137 2 0.280115 0.48637 0.665132
2139 4 0.289693 0.464844 0.658895
2369 4 0.306016 0.469478 0.647546
790 2 0.317462 0.455112 0.589255
2368 2 0.32896 0.477959 0.640214
792 4 0.338847 0.454289 0.602091
2370 4 0.351903 0.48644 0.632883
4485 4 0.369167 0.495868 0.638892
4483 2 0.392412 0.499202 0.629699
773 4 0.4276 0.487179 0.617725
772 2 0.450025 0.481712 0.626391
774 4 0.47245 0.476245 0.635056
1081 2 0.00994337 0.0578061 0.715388
1082 4 0.0341139 0.0644994 0.711075
1023 4 0.0526344 0.070822 0.703081
1038 4 0.172965 0.00447889 0.686564
1036 2 0.195726 0.0160932 0.689494
1037 4 0.218487 0.0277076 0.692424
3023 4 0.238467 0.0260903 0.686884
3022 2 0.255772 0.0285176 0.668837
4386 4 0.255539 0.0145267 0.728478
4384 2 0.242982 0.0207129 0.748927
2282 4 0.313034 0.0775612 0.670959
2133 4 0.272293 0.00759022 0.737907
953 4 0.000976852 0.112221 0.712362
1077 4 0.0177513 0.110342 0.722313
1075 2 0.0411864 0.114419 0.730837
1076 4 0.0646215 0.118496 0.739361
3146 4 0.0840942 0.113327 0.738146
1021 2 0.0747334 0.0836299 0.699672
1022 4 0.0968324 0.0964378 0.696264
3145 2 0.107077 0.118692 0.747383
2256 4 0.117464 0.103409 0.696657
2254 2 0.140577 0.109246 0.687961
2255 4 0.16369 0.115083 0.679264
1004 4 0.182831 0.120575 0.673826
3441 4 0.260441 0.143533 0.742484
2628 4 0.280089 0.144176 0.738874
2626 2 0.304793 0.148558 0.742151
3356 4 0.347182 0.157453 0.739794
2627 4 0.329498 0.152941 0.745429
2978 4 0.41619 0.089608 0.668877
1084 2 0.452616 0.102048 0.67479
1085 4 0.470783 0.11315 0.688916
384 4 0.00102589 0.247546 0.693974
867 4 0.0920897 0.307957 0.739754
865 2 0.117115 0.309255 0.741091
866 4 0.142141 0.310553 0.742427
3185 4 0.16221 0.310925 0.745075
3184 2 0.186398 0.308022 0.740402
3186 4 0.210585 0.305119 0.73573
3273 4 0.230782 0.308777 0.740053
3271 2 0.253364 0.320592 0.743562
3252 4 0.42111 0.282767 0.730153
3250 2 0.444081 0.28291 0.740051
2973 4 0.401218 0.274858 0.735953
738 4 0.487347 0.283975 0.747741
3112 2 0.0168791 0.360294 0.725252
3114 4 0.0382465 0.353826 0.714896
997 2 0.0459804 0.344989 0.679355
999 4 0.0486305 0.342341 0.704056
1007 4 0.182244 0.379969 0.730687
1006 2 0.203861 0.388457 0.741229
1008 4 0.225479 0.396946 0.751771
1954 2 0.267172 0.39234 0.740087
1956 4 0.243666 0.392576 0.748562
1955 4 0.290678 0.392103 0.731612
801 4 0.309168 0.399688 0.732501
799 2 0.3288 0.414734 0.725177
1089 4 0.0488268 0.471103 0.693788
1087 2 0.0734854 0.468459 0.694786