ITEM: TIMESTEP
1168000
ITEM: NUMBER OF ATOMS
4590
ITEM: BOX BOUNDS xy xz yz pp pp pp
-9.9985700000000008e+00 1.7197540399999980e+01 7.1989703999999790e+00
-9.9985700000000008e+00 9.9985700000000008e+00 0.0000000000000000e+00
-9.9985700000000008e+00 9.9985700000000008e+00 0.0000000000000000e+00
ITEM: ATOMS id type xs ys zs
1824 4 0.0617612 0.0287165 0.0154388
1822 2 0.0441622 0.0209865 0.00319018
4505 4 0.0773962 0.0375459 0.0173065
2668 2 0.162726 0.0793376 0.00297092
1875 4 0.235202 0.00969244 0.0548408
1651 2 0.278132 0.0139574 0.0492691
1653 4 0.255208 0.0129964 0.0583689
2678 4 0.271991 0.0584767 0.0833488
1652 4 0.301055 0.0149184 0.0401694
1374 4 0.285094 0.0669146 0.0759883
2469 4 0.321749 0.0145555 0.0403587
1372 2 0.307261 0.063085 0.0626323
2467 2 0.347044 0.0123415 0.035871
1373 4 0.329427 0.0592554 0.0492764
2468 4 0.372339 0.0101275 0.0313832
2466 4 0.387478 0.0179365 0.0386857
2464 2 0.411629 0.0199594 0.0372272
2465 4 0.435779 0.0219823 0.0357686
2949 4 0.443202 0.0353352 0.0285456
2947 2 0.468414 0.0347081 0.0292101
2948 4 0.493627 0.034081 0.0298746
2669 4 0.182693 0.0831443 0.0154369
1253 4 0.192054 0.097208 0.0180829
1252 2 0.215883 0.100005 0.0173883
1254 4 0.239713 0.102803 0.0166938
1053 4 0.243097 0.159272 0.000394187
704 4 0.282945 0.123033 0.00581266
2889 4 0.299633 0.129024 0.00630699
703 2 0.263861 0.113062 0.00238962
2887 2 0.322097 0.13427 0.00415406
1273 2 0.381145 0.119036 0.0184349
1275 4 0.399705 0.114517 0.0362686
1274 4 0.362586 0.123555 0.00060119
2888 4 0.344562 0.139515 0.00200113
771 4 0.0126986 0.206332 0.00812942
572 4 0.0275692 0.215543 0.0119281
571 2 0.0520443 0.213305 0.0196692
573 4 0.0765195 0.211067 0.0274103
464 4 0.0962009 0.211794 0.0317736
463 2 0.119693 0.213581 0.0380542
465 4 0.143186 0.215368 0.0443348
2844 4 0.0970255 0.249075 0.0753465
2784 4 0.117089 0.247939 0.0724366
360 4 0.159229 0.21846 0.0334883
358 2 0.181413 0.224335 0.0330162
359 4 0.203598 0.23021 0.0325441
282 4 0.219174 0.237534 0.0306214
280 2 0.244034 0.237784 0.0290134
1247 4 0.293881 0.174976 0.055145
281 4 0.268895 0.238034 0.0274054
1246 2 0.311218 0.178555 0.0388519
2876 4 0.283926 0.247579 0.027512
1248 4 0.328555 0.182134 0.0225588
2875 2 0.308435 0.24638 0.034144
2441 4 0.335297 0.19505 0.0114514
2877 4 0.332945 0.245182 0.0407761
2440 2 0.359899 0.189069 0.0206968
2652 4 0.351221 0.248112 0.0383663
2442 4 0.3845 0.183088 0.0299422
2650 2 0.377682 0.240943 0.040241
492 4 0.402959 0.187913 0.0288834
2651 4 0.404143 0.233774 0.0421158
490 2 0.424979 0.193817 0.0315846
491 4 0.446999 0.199722 0.0342857
527 4 0.415413 0.240761 0.0303021
845 4 0.464362 0.202403 0.0396194
844 2 0.48783 0.205565 0.036508
3285 4 0.0265997 0.256851 0.0666906
3283 2 0.0025497 0.254868 0.0638613
2843 4 0.0452478 0.257493 0.0680314
2842 2 0.0711366 0.253284 0.071689
1291 2 0.0404853 0.324284 0.0350429
1292 4 0.0644901 0.307781 0.0401931
2782 2 0.130464 0.263388 0.0777246
2783 4 0.143838 0.278837 0.0830126
526 2 0.436091 0.248699 0.0331743
528 4 0.456769 0.256637 0.0360464
1293 4 0.0164804 0.340787 0.0298927
1122 4 0.212504 0.376876 0.0242057
1120 2 0.22549 0.389648 0.0118418
2746 2 0.278038 0.396033 0.0209008
2748 4 0.254325 0.395353 0.0137741
2747 4 0.30175 0.396713 0.0280275
2487 4 0.301343 0.415612 0.0313455
2727 4 0.355083 0.411693 0.0558599
2486 4 0.353655 0.405434 0.0368639
2485 2 0.327499 0.410523 0.0341047
2725 2 0.37986 0.412219 0.0571153
2726 4 0.404637 0.412745 0.0583706
2093 4 0.00200604 0.450078 0.0805473
1870 2 0.152117 0.477358 0.0640857
1871 4 0.153525 0.468248 0.0408762
902 4 0.191541 0.478511 0.0349503
901 2 0.215858 0.471604 0.0449948
903 4 0.240174 0.464698 0.0550393
2513 4 0.262853 0.477168 0.0298318
2512 2 0.277447 0.467331 0.049988
2514 4 0.29204 0.457494 0.0701441
671 4 0.421179 0.417774 0.0551786
670 2 0.438638 0.427174 0.0450584
672 4 0.456097 0.436573 0.0349383
3955 2 0.00220188 0.0176578 0.144763
3956 4 0.027706 0.0156912 0.147304
2744 4 0.0461021 0.0205278 0.150165
2743 2 0.0681213 0.0261411 0.146195
2745 4 0.0901406 0.0317543 0.142225
2702 4 0.105356 0.0399956 0.137932
2701 2 0.130441 0.0350997 0.130363
2703 4 0.155526 0.0302038 0.122794
2781 4 0.172084 0.0351762 0.126822
2779 2 0.194313 0.0372125 0.11714
2780 4 0.216543 0.0392488 0.107458
2679 4 0.234819 0.0428358 0.103941
2677 2 0.253405 0.0506563 0.0936451
1564 2 0.459762 0.0713299 0.116891
1565 4 0.437578 0.0759186 0.103381
1566 4 0.481947 0.0667411 0.130401
1476 4 0.492911 0.00993152 0.0999609
332 4 0.10507 0.153155 0.119257
2768 4 0.181635 0.109367 0.151876
331 2 0.118326 0.159679 0.137673
2767 2 0.156837 0.109477 0.155365
333 4 0.131582 0.166202 0.156088
2769 4 0.132038 0.109586 0.158854
692 4 0.189698 0.119891 0.139511
691 2 0.204785 0.133556 0.14569
693 4 0.219872 0.147222 0.151868
353 4 0.240322 0.145772 0.14404
352 2 0.255907 0.159512 0.140187
3209 4 0.467253 0.129429 0.11647
3208 2 0.492833 0.118464 0.12255
630 4 0.0864048 0.168413 0.123441
629 4 0.0533879 0.192001 0.0867963
628 2 0.0698964 0.180207 0.105119
275 4 0.142228 0.226957 0.164664
497 4 0.160334 0.234447 0.165843
354 4 0.271492 0.173253 0.136333
837 4 0.347503 0.218402 0.163326
2614 2 0.380948 0.230984 0.155795
2616 4 0.401254 0.233073 0.142478
2717 4 0.399633 0.228705 0.122801
2716 2 0.420421 0.215366 0.108956
2718 4 0.441209 0.202028 0.09511
519 4 0.00589793 0.348853 0.151709
517 2 0.0272546 0.35441 0.158692
3450 4 0.146467 0.350082 0.161219
2092 2 0.0250104 0.447451 0.092023
2094 4 0.0480147 0.444823 0.103499
2919 4 0.056797 0.460037 0.106759
2917 2 0.0633362 0.455892 0.130895
2918 4 0.0698753 0.451746 0.15503
677 4 0.0661442 0.471342 0.160261
1872 4 0.150709 0.486468 0.0872953
768 4 0.208848 0.425043 0.121326
766 2 0.23403 0.423488 0.125387
2445 4 0.284212 0.462285 0.0899521
767 4 0.259213 0.421932 0.129448
2444 4 0.259347 0.436774 0.116231
2443 2 0.27178 0.449529 0.103092
3768 4 0.0657087 0.0162218 0.221167
391 2 0.188388 0.0643568 0.203561
392 4 0.166363 0.0729681 0.217448
428 4 0.162267 0.0801236 0.236257
393 4 0.210413 0.0557455 0.189673
2756 4 0.223855 0.0637265 0.180121
2755 2 0.249437 0.0594718 0.185472
2757 4 0.27502 0.0552172 0.190822
2738 4 0.2959 0.0533278 0.193482
2737 2 0.320904 0.0531879 0.195055
2739 4 0.345908 0.0530479 0.196628
3740 4 0.313156 0.0230574 0.247323
687 4 0.365991 0.0499431 0.197881
685 2 0.388863 0.0542748 0.200972
686 4 0.411734 0.0586065 0.204063
3678 4 0.433377 0.0537238 0.207416
3676 2 0.459732 0.0483259 0.207738
3677 4 0.486087 0.0429279 0.208059
4308 4 0.0463035 0.0990231 0.247259
2516 4 0.144697 0.153241 0.169537
2478 4 0.23858 0.159942 0.196911
2476 2 0.212576 0.164738 0.193341
2778 4 0.259096 0.151761 0.199544
2776 2 0.269423 0.146135 0.222448
2777 4 0.27975 0.14051 0.245353
589 2 0.414355 0.163 0.247464
404 4 0.460441 0.14729 0.207207
403 2 0.480424 0.126777 0.213966
578 4 0.0141172 0.20795 0.193496
387 4 0.0337142 0.209732 0.191984
385 2 0.056912 0.213505 0.189166
386 4 0.0801098 0.217279 0.186348
276 4 0.0965605 0.220488 0.177124
274 2 0.119394 0.223723 0.170894
2515 2 0.156165 0.169117 0.178362
2517 4 0.167632 0.184993 0.187186
496 2 0.184635 0.236078 0.167605
2477 4 0.186571 0.169534 0.189771
498 4 0.208936 0.237709 0.169366
507 4 0.230587 0.23112 0.170559
505 2 0.256425 0.226855 0.174608
506 4 0.282263 0.22259 0.178656
835 2 0.324196 0.21521 0.167435
836 4 0.300889 0.212018 0.171544
2615 4 0.360641 0.228895 0.169113
2849 4 0.319738 0.171859 0.240626
591 4 0.426644 0.17119 0.22941
2453 4 0.436406 0.176089 0.244164
2452 2 0.459604 0.180156 0.244823
2454 4 0.482802 0.184223 0.245483
2729 4 0.99934 0.262216 0.210086
300 4 0.0351028 0.29202 0.249046
2954 4 0.0152296 0.293302 0.246952
298 2 0.0545049 0.299669 0.24034
299 4 0.073907 0.307318 0.231634
2493 4 0.0892393 0.31505 0.22967
2491 2 0.11269 0.316799 0.223168
2492 4 0.13614 0.318548 0.216666
2535 4 0.15373 0.322928 0.212884
2533 2 0.178428 0.323621 0.214409
2534 4 0.203126 0.324315 0.215934
351 4 0.223954 0.324517 0.211562
349 2 0.247455 0.32798 0.210695
350 4 0.270955 0.331443 0.209829
250 2 0.31643 0.329758 0.209316
251 4 0.291091 0.33079 0.208468
252 4 0.34177 0.328725 0.210164
287 4 0.359749 0.326816 0.200357
286 2 0.384087 0.327047 0.194997
288 4 0.408425 0.327279 0.189637
296 4 0.427351 0.327695 0.196111
295 2 0.449109 0.332618 0.189233
3404 4 0.0192273 0.359641 0.225541
518 4 0.0486113 0.359967 0.165675
734 4 0.0622873 0.366552 0.173917
733 2 0.0829699 0.37271 0.181847
668 4 0.0436089 0.415131 0.24385
735 4 0.103652 0.378868 0.189777
3448 2 0.16252 0.360378 0.172567
3449 4 0.178572 0.370674 0.183914
714 4 0.18936 0.379532 0.195724
712 2 0.193393 0.38556 0.219184
713 4 0.197427 0.391588 0.242644
2903 4 0.257295 0.335719 0.246934
2904 4 0.289799 0.36255 0.248702
2902 2 0.273547 0.349134 0.247818
3695 4 0.390074 0.386803 0.237802
1802 4 0.394047 0.382097 0.218236
1801 2 0.414021 0.389143 0.209942
1803 4 0.433996 0.396189 0.201648
297 4 0.470866 0.337542 0.182356
611 4 0.475276 0.34054 0.247352
2590 2 0.47933 0.37226 0.238419
2591 4 0.47123 0.392476 0.223729
2571 4 0.49029 0.339842 0.187769
2862 4 0.465909 0.410848 0.217207
1787 4 0.0133687 0.475558 0.172769
1424 4 0.00236733 0.463433 0.170423
3818 4 0.0600172 0.420057 0.236338
1786 2 0.0136238 0.498302 0.166715
3817 2 0.077157 0.426158 0.221706
3819 4 0.0942968 0.432258 0.207075
676 2 0.0843147 0.473642 0.176353
588 4 0.114114 0.419086 0.205816
678 4 0.102485 0.475941 0.192445
586 2 0.131323 0.430071 0.198291
587 4 0.148531 0.441056 0.190766
740 4 0.16969 0.434879 0.190634
739 2 0.179256 0.453625 0.187874
741 4 0.188822 0.472371 0.185115
3705 4 0.187979 0.490994 0.183343
3703 2 0.210944 0.493425 0.190477
3704 4 0.233909 0.495856 0.197612
2861 4 0.478954 0.449107 0.199382
2860 2 0.472432 0.429978 0.208294
3990 4 0.492341 0.458355 0.197866
2578 2 0.0938883 0.0647114 0.294334
2580 4 0.106812 0.0716558 0.312748
2579 4 0.0809649 0.0577669 0.275921
2891 4 0.126535 0.0712359 0.316489
2890 2 0.145884 0.0802762 0.322196
3698 4 0.257245 0.00997865 0.25391
3741 4 0.275859 0.0058109 0.264946
3739 2 0.294507 0.0144342 0.256134
2816 4 0.323132 0.0303942 0.330148
2714 4 0.34479 0.0294888 0.327529
2815 2 0.302317 0.0225959 0.332666
2713 2 0.365419 0.0377213 0.328416
2715 4 0.386049 0.0459539 0.329303
3475 2 0.428225 0.0513814 0.330988
3476 4 0.45161 0.0545108 0.327165
1244 4 0.463353 0.0653628 0.331476
4307 4 0.00446867 0.0866158 0.261504
4306 2 0.0253861 0.0928195 0.254382
2892 4 0.165233 0.0893165 0.327903
1395 4 0.135943 0.133929 0.32716
429 4 0.128981 0.104447 0.272414
427 2 0.145624 0.0922854 0.254335
2940 4 0.285304 0.117663 0.307773
2938 2 0.278194 0.126788 0.284811
2939 4 0.271083 0.135914 0.261848
530 4 0.395732 0.138701 0.316043
3158 4 0.376122 0.145151 0.325343
590 4 0.402065 0.154811 0.265517
529 2 0.42094 0.137706 0.318624
531 4 0.446148 0.136711 0.321204
545 4 0.465346 0.139333 0.317661
544 2 0.489787 0.14016 0.314125
414 4 0.0227611 0.18617 0.284438
2526 4 0.135177 0.245532 0.25073
3572 4 0.114397 0.246017 0.253224
2848 2 0.33491 0.173224 0.260068
2850 4 0.350082 0.174588 0.279509
2946 4 0.392434 0.187231 0.314668
2944 2 0.403459 0.201087 0.301372
2945 4 0.414484 0.214943 0.288076
536 4 0.0150004 0.25563 0.319693
535 2 0.0322997 0.257476 0.302399
537 4 0.0495991 0.259321 0.285105
3573 4 0.069369 0.259314 0.279767
3571 2 0.0918831 0.252666 0.266496
2524 2 0.156639 0.252563 0.251023
2462 4 0.19176 0.269476 0.257579
2525 4 0.178101 0.259594 0.251317
2461 2 0.209771 0.280971 0.256016
2463 4 0.227783 0.292466 0.254454
2930 4 0.24903 0.281906 0.256801
2929 2 0.263263 0.285879 0.275881
2931 4 0.277497 0.289853 0.294961
1953 4 0.295981 0.289431 0.304879
1951 2 0.308736 0.287387 0.326708
610 2 0.484516 0.323289 0.265196
2682 4 0.455279 0.33269 0.297779
612 4 0.493756 0.306038 0.28304
338 4 0.209764 0.392171 0.257086
337 2 0.230143 0.394993 0.269714
339 4 0.250523 0.397815 0.282342
2556 4 0.265178 0.40557 0.288558
2554 2 0.280531 0.409719 0.306562
2874 4 0.36627 0.400021 0.302118
3696 4 0.378968 0.390138 0.286704
3694 2 0.384521 0.388471 0.262253
2872 2 0.378179 0.401402 0.323783
2680 2 0.467274 0.343716 0.313551
2592 4 0.487431 0.352043 0.253109
2681 4 0.47927 0.354741 0.329324
667 2 0.0198347 0.419089 0.254339
264 4 0.0319962 0.459894 0.284542
262 2 0.042173 0.474014 0.270651
263 4 0.0523499 0.488134 0.25676
3958 2 0.231515 0.47744 0.29548
3960 4 0.248117 0.467485 0.276597
500 4 0.268083 0.455551 0.275596
3959 4 0.214912 0.487395 0.314364
2555 4 0.295884 0.413868 0.324566
499 2 0.289865 0.461774 0.272535
501 4 0.311647 0.467998 0.269474
231 4 0.376759 0.435368 0.267227
1383 4 0.357865 0.499236 0.276207
1578 4 0.35957 0.489063 0.292644
1576 2 0.367428 0.495229 0.314681
229 2 0.385912 0.454085 0.271953
230 4 0.395065 0.472802 0.276679
1659 4 0.41178 0.477888 0.279784
1657 2 0.431434 0.487 0.283805
1658 4 0.451088 0.496113 0.287826
600 4 0.0108903 0.0210996 0.360363
598 2 0.035288 0.0209063 0.366133
599 4 0.0596857 0.0207129 0.371904
1518 4 0.0688888 0.0279124 0.38712
1516 2 0.091383 0.0283817 0.397671
1517 4 0.113877 0.0288511 0.408223
1062 4 0.134241 0.0245751 0.416199
4355 4 0.213259 0.022455 0.35174
401 4 0.175286 0.0821747 0.345736
400 2 0.20148 0.0773988 0.343911
4354 2 0.238897 0.0156854 0.345333
4356 4 0.264536 0.00891586 0.338926
2817 4 0.281502 0.0147975 0.335184
342 4 0.243648 0.0794708 0.340757
402 4 0.227675 0.0726228 0.342086
162 3 0.324933 0.0566441 0.354492
2645 4 0.333519 0.0683005 0.391979
161 1 0.321529 0.0789026 0.358024
164 3 0.340309 0.0838992 0.34854
3477 4 0.404841 0.048252 0.334811
2644 2 0.352025 0.0733116 0.405676
3797 4 0.387797 0.06806 0.407832
426 4 0.360377 0.0821025 0.352438
1243 2 0.486303 0.0661377 0.340696
618 4 0.00161305 0.0945927 0.347015
480 4 0.127412 0.135114 0.391117
1393 2 0.154575 0.140414 0.33914
478 2 0.148701 0.141718 0.395754
479 4 0.16999 0.148321 0.400392
1394 4 0.173207 0.1469 0.35112
1190 4 0.194626 0.142357 0.354137
340 2 0.264656 0.0842032 0.350081
469 2 0.192842 0.158498 0.404248
1189 2 0.220504 0.139452 0.353859
1191 4 0.246383 0.136547 0.35358
2544 4 0.239752 0.144833 0.409083
471 4 0.218399 0.148887 0.41092
650 4 0.261409 0.145175 0.356012
341 4 0.285665 0.0889357 0.359406
163 3 0.320718 0.0828993 0.380872
649 2 0.286587 0.144169 0.353124
165 3 0.300688 0.0915586 0.348366
651 4 0.311765 0.143162 0.350235
2542 2 0.263393 0.147709 0.411909
2823 4 0.309502 0.148459 0.414656
2543 4 0.287034 0.150584 0.414735
3159 4 0.328006 0.14971 0.34323
3157 2 0.352064 0.14743 0.334287
424 2 0.382929 0.0859834 0.358483
425 4 0.405482 0.0898643 0.364528
2916 4 0.427002 0.0877525 0.36412
2914 2 0.441444 0.102199 0.369657
2915 4 0.455886 0.116645 0.375193
2936 4 0.470741 0.125041 0.370694
2935 2 0.497085 0.116501 0.373978
1035 4 0.0507993 0.228918 0.374325
724 2 0.0684775 0.20115 0.4043
725 4 0.0450599 0.204363 0.415223
1033 2 0.0668543 0.241435 0.367558
726 4 0.091895 0.197937 0.393377
474 4 0.104677 0.209964 0.394222
472 2 0.130473 0.204399 0.38892
470 4 0.167285 0.16811 0.397575
473 4 0.156269 0.198835 0.383618
2821 2 0.315175 0.169585 0.416264
410 4 0.338404 0.196467 0.411733
2822 4 0.320848 0.190711 0.417871
1034 4 0.0829093 0.253951 0.360792
2766 4 0.313827 0.249738 0.396455
2765 4 0.305233 0.281249 0.357723
2764 2 0.30953 0.265494 0.377089
1952 4 0.321492 0.285343 0.348538
375 4 0.12551 0.395195 0.33997
373 2 0.10478 0.415066 0.346751
2873 4 0.390088 0.402783 0.345448
2597 4 0.409317 0.391586 0.338946
2596 2 0.424517 0.389514 0.359242
2598 4 0.439718 0.387442 0.379539
2621 4 0.490021 0.344354 0.345711
374 4 0.0840496 0.434938 0.353531
3642 4 0.174944 0.439634 0.411606
3640 2 0.195249 0.444487 0.400865
3641 4 0.215553 0.449341 0.390124
2961 4 0.24243 0.500763 0.39315
2712 4 0.235197 0.439345 0.382041
2710 2 0.256663 0.440128 0.394354
2711 4 0.278129 0.440911 0.406667
2699 4 0.307076 0.420085 0.339941
2698 2 0.314697 0.425394 0.362438
2700 4 0.322319 0.430704 0.384935
2826 4 0.469044 0.489841 0.367803
2824 2 0.489006 0.492395 0.381317
1060 2 0.154174 0.0323125 0.423212
1061 4 0.174107 0.0400499 0.430226
684 4 0.195007 0.0398544 0.428905
682 2 0.215507 0.0458474 0.437619
683 4 0.236006 0.0518403 0.446333
842 4 0.257614 0.0470054 0.448403
841 2 0.276133 0.0576031 0.452155
843 4 0.294652 0.0682007 0.455907
3747 4 0.30961 0.0736203 0.463753
3745 2 0.333215 0.0744827 0.470997
2646 4 0.37053 0.0783228 0.419373
2455 2 0.411827 0.03366 0.478043
3796 2 0.405171 0.057326 0.425927
3798 4 0.422545 0.046592 0.444023
2456 4 0.395643 0.0278013 0.494049
2457 4 0.428011 0.0395187 0.462036
3746 4 0.35682 0.0753451 0.478241
1182 4 0.37982 0.0221498 0.499967
219 3 0.448623 0.0302832 0.467419
220 3 0.440293 0.0395012 0.431259
216 1 0.457573 0.0278388 0.445802
218 3 0.465936 0.00538871 0.439943
217 3 0.476104 0.0360267 0.444912
2558 4 0.491383 0.0463977 0.44217
2900 4 0.00324511 0.145386 0.42235
3498 4 0.213984 0.242195 0.47991
3081 4 0.213029 0.235491 0.461255
872 4 0.150464 0.248133 0.4451
3079 2 0.189818 0.243445 0.449094
409 2 0.359855 0.195666 0.425024
411 4 0.381306 0.194866 0.438316
3461 4 0.394921 0.201796 0.447692
3460 2 0.407464 0.201511 0.46938
3462 4 0.420007 0.201225 0.491067
585 4 0.00923758 0.270975 0.431355
2925 4 0.0306217 0.261897 0.429411
451 2 0.00614353 0.306544 0.472787
452 4 0.0257323 0.316013 0.470214
2923 2 0.0543704 0.264535 0.432276
488 4 0.0466654 0.312267 0.467014
2924 4 0.0781191 0.267174 0.435142
487 2 0.0709433 0.310918 0.474583
873 4 0.097724 0.267467 0.439527
871 2 0.124094 0.2578 0.442314
489 4 0.0952212 0.309569 0.482152
3080 4 0.166606 0.251399 0.436933
2846 4 0.0772727 0.393493 0.499357
2845 2 0.0860955 0.386059 0.476289
2847 4 0.0949182 0.378626 0.453221
1698 4 0.0550521 0.474615 0.484527
601 2 0.0105152 0.49862 0.454402
3452 4 0.0559131 0.465286 0.502502
1697 4 0.0754305 0.439899 0.449408
3422 4 0.130664 0.429511 0.456664
1696 2 0.0652413 0.457257 0.466968
3423 4 0.167882 0.439582 0.429623
3421 2 0.149273 0.434547 0.443144
3104 4 0.062231 0.0205648 0.580527
4502 4 0.0499003 0.0110506 0.572651
3103 2 0.0842349 0.0256684 0.574982
3105 4 0.106239 0.030772 0.569438
3050 4 0.124674 0.0350073 0.569663
3049 2 0.141343 0.0433929 0.556729
3051 4 0.158012 0.0517786 0.543796
2507 4 0.178267 0.0453734 0.536786
2506 2 0.192525 0.0605989 0.534846
2508 4 0.206783 0.0758245 0.532906
1180 2 0.380634 0.0172363 0.524464
1181 4 0.381447 0.0123228 0.548961
1142 4 0.18356 0.0914707 0.558856
1141 2 0.195206 0.101404 0.576027
1129 2 0.307513 0.110012 0.581543
1131 4 0.33066 0.114049 0.579612
1130 4 0.284367 0.105974 0.583475
858 4 0.34121 0.123034 0.567295
856 2 0.36266 0.12946 0.571674
857 4 0.384111 0.135886 0.576053
2318 4 0.404984 0.136787 0.574473
2317 2 0.424884 0.145709 0.577847
3497 4 0.211189 0.233898 0.528884
2811 4 0.198452 0.203676 0.566969
2809 2 0.211882 0.216588 0.555494
3496 2 0.212587 0.238046 0.504397
2810 4 0.225311 0.2295 0.54402
3045 4 0.0629274 0.327569 0.566877
3043 2 0.0773112 0.326752 0.546238
3044 4 0.0916949 0.325935 0.525598
1284 4 0.116467 0.277798 0.576756
3236 4 0.347827 0.282619 0.57929
3235 2 0.356305 0.285924 0.556469
3237 4 0.364783 0.289228 0.533648
3357 4 0.426989 0.270605 0.577624
1281 4 0.48798 0.340668 0.561292
1280 4 0.472503 0.388425 0.546559
1279 2 0.480241 0.364546 0.553926
878 4 0.488079 0.395103 0.553927
3453 4 0.014584 0.458017 0.525232
3451 2 0.0352485 0.461652 0.513867
1161 4 0.0780529 0.472464 0.522478
1159 2 0.0938113 0.478516 0.538813
1160 4 0.10957 0.484568 0.555147
2172 4 0.12713 0.481499 0.56706
2170 2 0.151238 0.477417 0.576857
1137 4 0.307509 0.464935 0.525658
1135 2 0.327338 0.469942 0.537156
1136 4 0.347167 0.474949 0.548653
1023 4 0.064391 0.0804029 0.633194
1003 2 0.191802 0.0610536 0.63438
1005 4 0.206626 0.0378339 0.62773
3123 4 0.254485 0.021879 0.609864
3121 2 0.271015 0.0301558 0.623133
3122 4 0.287545 0.0384327 0.636402
3065 4 0.302998 0.0419435 0.646642
3064 2 0.322818 0.0498148 0.653716
3066 4 0.342637 0.0576862 0.660791
4073 4 0.333983 0.0233874 0.598896
4072 2 0.329956 0.00388971 0.609987
3023 4 0.359493 0.0543815 0.648707
3022 2 0.381167 0.0608548 0.651365
3024 4 0.402841 0.0673281 0.654023
3030 4 0.423468 0.0613566 0.660726
3028 2 0.449311 0.0478174 0.662204
4325 4 0.457338 0.00334964 0.604492
3360 4 0.493752 0.0384277 0.597719
4324 2 0.476805 0.0117357 0.597473
3029 4 0.475153 0.0342782 0.663683
1025 4 0.493799 0.0387466 0.663679
4326 4 0.496272 0.0201217 0.590454
1021 2 0.0867608 0.0856312 0.636308
1211 4 0.0283403 0.142509 0.601184
1210 2 0.0270157 0.165948 0.606204
1022 4 0.109131 0.0908595 0.639421
2256 4 0.115427 0.101259 0.653874
1004 4 0.176978 0.0842732 0.64103
2254 2 0.139167 0.101369 0.646146
2255 4 0.162906 0.101479 0.638419
1143 4 0.206852 0.111337 0.593197
917 4 0.226832 0.10829 0.598859
916 2 0.251471 0.109169 0.600133
918 4 0.276111 0.110048 0.601408
2319 4 0.444785 0.154631 0.58122
950 4 0.465264 0.147625 0.585374
949 2 0.489567 0.149291 0.583861
1212 4 0.025691 0.189387 0.611224
3110 4 0.180887 0.241981 0.60675
3109 2 0.199094 0.235208 0.624934
3111 4 0.217302 0.228435 0.643117
3383 4 0.237017 0.218405 0.636879
3382 2 0.262103 0.215422 0.630579
3384 4 0.287189 0.21244 0.624279
3107 4 0.306689 0.204088 0.618225
3106 2 0.326404 0.211523 0.626503
3108 4 0.346119 0.218957 0.634782
3165 4 0.366962 0.211566 0.641938
3163 2 0.388245 0.21848 0.645441
3164 4 0.409529 0.225393 0.648944
1083 4 0.419654 0.213078 0.66418
143 3 0.368088 0.250307 0.612771
1153 2 0.0350818 0.26942 0.588672
1155 4 0.014732 0.260899 0.590727
1154 4 0.0554316 0.277941 0.586618
1283 4 0.0715339 0.278655 0.59931
1641 4 0.0536993 0.331949 0.586136
1282 2 0.0940003 0.278226 0.588033
1076 4 0.205048 0.26411 0.586442
1106 4 0.132325 0.279113 0.587792
1105 2 0.158071 0.276723 0.588232
1107 4 0.183816 0.274333 0.588672
1077 4 0.251617 0.269307 0.597724
1075 2 0.228332 0.266709 0.592083
3267 4 0.256304 0.272152 0.616265
144 3 0.34294 0.252771 0.583621
3266 4 0.307521 0.268375 0.615466
3265 2 0.281913 0.270264 0.615866
145 3 0.34573 0.283967 0.599364
142 3 0.328551 0.263175 0.618133
141 1 0.346387 0.262677 0.603397
2627 4 0.382418 0.271648 0.62192
2626 2 0.393915 0.272124 0.644029
3356 4 0.391672 0.259255 0.606248
3355 2 0.40933 0.26493 0.591936
3222 4 0.487185 0.29451 0.652963
3220 2 0.486287 0.318308 0.652925
1640 4 0.0011243 0.343215 0.590572
1639 2 0.0274118 0.337582 0.588354
2719 2 0.497282 0.373898 0.654373
2720 4 0.479583 0.36201 0.653479
3221 4 0.485389 0.342107 0.652888
2171 4 0.175346 0.473336 0.586653
1982 4 0.186464 0.480261 0.599049
1981 2 0.207102 0.488384 0.597035
1983 4 0.227739 0.496507 0.595022
993 4 0.279972 0.45043 0.668979
991 2 0.295207 0.464845 0.669453
3487 2 0.0717703 0.00787319 0.74576
3293 4 0.00519123 0.145164 0.674073
3292 2 0.026987 0.131241 0.686305
3294 4 0.0487829 0.117318 0.698537
3009 4 0.0415291 0.117866 0.718044
3007 2 0.0640629 0.113263 0.731011
4371 4 0.151468 0.111463 0.72468
4369 2 0.172178 0.114996 0.7133
3125 4 0.15349 0.10191 0.743994
3124 2 0.127789 0.107563 0.749749
4370 4 0.192889 0.118528 0.70192
3062 4 0.206201 0.12671 0.693381
3061 2 0.217843 0.144085 0.691656
3063 4 0.229486 0.16146 0.68993
1970 4 0.449834 0.132032 0.676175
3764 4 0.477237 0.107792 0.729511
1969 2 0.465695 0.14585 0.67583
3763 2 0.458466 0.113094 0.747195
1971 4 0.481556 0.159669 0.675486
3402 4 0.498097 0.101682 0.723255
2321 4 0.500878 0.145308 0.678224
3240 4 0.127285 0.226813 0.732255
3239 4 0.180186 0.214333 0.730997
3238 2 0.153736 0.220573 0.731626
3351 4 0.19915 0.203173 0.724634
3349 2 0.209774 0.189341 0.744683
896 4 0.387525 0.200046 0.716119
895 2 0.404577 0.212655 0.716371
897 4 0.421628 0.225263 0.716623
1081 2 0.443892 0.203513 0.674244
1085 4 0.442331 0.218668 0.720772
1208 4 0.408049 0.246718 0.739508
1082 4 0.46813 0.193948 0.684307
1084 2 0.465595 0.211108 0.732857
1086 4 0.488859 0.203548 0.744941
1308 4 0.296034 0.307731 0.741745
2628 4 0.405413 0.272599 0.666137
3441 4 0.412327 0.271276 0.685656
3440 4 0.405346 0.265294 0.734457
3439 2 0.408836 0.268285 0.710056
4559 4 0.473094 0.277077 0.747675
4558 2 0.469334 0.290324 0.726493
4560 4 0.465573 0.30357 0.705311
3091 2 0.0038234 0.336773 0.691584
3092 4 0.0187575 0.349785 0.683157
885 4 0.162011 0.380772 0.685241
883 2 0.158777 0.385006 0.709824
884 4 0.155542 0.38924 0.734407
1956 4 0.138346 0.39504 0.747268
3276 4 0.19828 0.427941 0.737999
3274 2 0.207236 0.446675 0.743267
3275 4 0.216193 0.465409 0.748535
3432 4 0.268002 0.491336 0.752187
940 2 0.326562 0.497439 0.699453
992 4 0.310442 0.47926 0.669927
942 4 0.322644 0.489991 0.676515
4492 2 0.317371 0.446939 0.738491
4493 4 0.335577 0.453925 0.726366
4494 4 0.299165 0.439952 0.750615
1098 4 0.35446 0.453552 0.733131
1096 2 0.372594 0.464855 0.731013
1097 4 0.390727 0.476157 0.728894
1278 4 0.406446 0.481974 0.729966
1276 2 0.431231 0.481364 0.725345
1277 4 0.456016 0.480754 0.720724
821 4 0.467429 0.494257 0.722794
820 2 0.493493 0.482022 0.720279
3488 4 0.0915578 0.0171029 0.748194
1217 4 0.111012 0.0202966 0.754889
1216 2 0.131832 0.0281372 0.752713
4530 4 0.0999725 0.0544157 0.829247
4528 2 0.119154 0.0645788 0.828746
3041 4 0.0579457 0.0817902 0.782357
3129 4 0.0800121 0.0559928 0.83409
1218 4 0.152652 0.0359777 0.750537
2001 4 0.172718 0.0326511 0.753928
1999 2 0.196993 0.0338283 0.757641
4529 4 0.138335 0.074742 0.828246
1125 4 0.159487 0.0743589 0.832792
2000 4 0.221267 0.0350054 0.761353
1146 4 0.240519 0.0377192 0.764039
1144 2 0.26218 0.0430169 0.770494
1145 4 0.283841 0.0483145 0.776949
3132 4 0.304316 0.0452655 0.782554
3130 2 0.32962 0.0442035 0.78083
3131 4 0.354924 0.0431416 0.779107
1193 4 0.370809 0.0495468 0.774986
1192 2 0.395532 0.0493046 0.779249
1194 4 0.420256 0.0490625 0.783511
2307 4 0.440788 0.042045 0.778972
2305 2 0.463722 0.0462208 0.775725
2306 4 0.486657 0.0503966 0.772479
45 3 0.434293 0.0779551 0.829037
3008 4 0.0865967 0.108659 0.743978
3126 4 0.102087 0.113216 0.755504
3040 2 0.0643198 0.0997799 0.794037
3042 4 0.0706938 0.11777 0.805718
1050 4 0.0708747 0.133634 0.8166
1048 2 0.0944405 0.136996 0.816552
1049 4 0.118006 0.140359 0.816505
3089 4 0.130994 0.150716 0.814532
3088 2 0.153812 0.141101 0.827104
534 4 0.270602 0.0933012 0.833278
1608 4 0.292552 0.161533 0.821387
3555 4 0.345853 0.118427 0.830562
1995 4 0.397794 0.127285 0.812597
3554 4 0.391115 0.128663 0.831026
3553 2 0.368484 0.123545 0.830794
1994 4 0.425461 0.110224 0.770808
1993 2 0.411627 0.118754 0.791703
3765 4 0.439695 0.118395 0.764878
3018 4 0.077151 0.180577 0.832983
779 4 0.226927 0.187244 0.777698
3350 4 0.220398 0.175508 0.764733
778 2 0.229544 0.18911 0.802414
780 4 0.232161 0.190976 0.82713
1619 4 0.243132 0.213258 0.826931
3185 4 0.26087 0.201489 0.818484
3184 2 0.269606 0.213016 0.800421
3186 4 0.278341 0.224543 0.782357
1265 4 0.350057 0.23787 0.822728
1692 4 0.368382 0.224393 0.827793
1690 2 0.382076 0.224269 0.806844
1691 4 0.39577 0.224146 0.785895
1207 2 0.407151 0.242035 0.763933
1209 4 0.406253 0.237352 0.788358
867 4 0.0822797 0.311728 0.803805
865 2 0.107172 0.300099 0.795981
920 4 0.0823433 0.321987 0.819862
866 4 0.132065 0.288471 0.788158
1067 4 0.140869 0.280569 0.771522
1066 2 0.164902 0.27675 0.781381
1068 4 0.188935 0.272931 0.79124
3328 2 0.169247 0.331232 0.832317
3329 4 0.19019 0.320581 0.817518
1298 4 0.208687 0.274806 0.787686
1297 2 0.226825 0.285676 0.783121
1299 4 0.244962 0.296545 0.778556
3073 2 0.243339 0.317178 0.820701
1307 4 0.26558 0.290635 0.771212
1306 2 0.280807 0.299183 0.756478
3310 2 0.304067 0.299025 0.824747
3312 4 0.281234 0.295464 0.830312
3311 4 0.326899 0.302587 0.819181
1046 4 0.342088 0.308828 0.811599
1045 2 0.364852 0.313457 0.808969
1047 4 0.387616 0.318086 0.806338
1629 4 0.395059 0.327325 0.792565
3226 2 0.447295 0.299071 0.827411
3228 4 0.467062 0.303756 0.815455
3036 4 0.480203 0.303977 0.801543
1954 2 0.150652 0.381303 0.76682
1955 4 0.162959 0.367565 0.786372
801 4 0.181341 0.371665 0.787137
799 2 0.207222 0.358306 0.788763
800 4 0.233104 0.344947 0.79039
3074 4 0.228649 0.336393 0.806716
1627 2 0.404589 0.336269 0.773004
1628 4 0.414119 0.345212 0.753442
1168 2 0.451236 0.413447 0.805619
1170 4 0.473323 0.406273 0.791717
4208 4 0.493586 0.403423 0.795709
3431 4 0.225194 0.477598 0.757814
3430 2 0.246598 0.484467 0.755
272 4 0.274595 0.484519 0.808066
4457 4 0.341842 0.452555 0.827089
861 4 0.339917 0.471172 0.83381
1169 4 0.429148 0.420621 0.819521
1904 4 0.408335 0.427693 0.825989
4190 4 0.45884 0.48485 0.790054
816 4 0.453979 0.471833 0.802605
814 2 0.479991 0.460102 0.799026
3127 2 0.0569064 0.052529 0.838576
4487 4 0.014634 0.0488741 0.840831
3128 4 0.0338007 0.0490652 0.843062
3416 4 0.00884414 0.0605727 0.887325
3415 2 0.034284 0.0462668 0.890298
3417 4 0.0597239 0.0319609 0.893271
831 4 0.0580103 0.0149897 0.892267
1123 2 0.182208 0.0791985 0.834613
4122 4 0.180003 0.00846402 0.911137
3942 4 0.201549 0.00666304 0.916075
3940 2 0.215295 0.0168569 0.901311
3941 4 0.22904 0.0270508 0.886547
1124 4 0.204929 0.084038 0.836435
3134 4 0.375977 0.00257401 0.843441
44 3 0.435984 0.0816976 0.866379
3090 4 0.17663 0.131485 0.839675
532 2 0.247614 0.0893199 0.836875
533 4 0.224626 0.0853386 0.840471
3306 4 0.289094 0.0976322 0.834396
3304 2 0.308123 0.107807 0.836994
1013 4 0.306511 0.161927 0.906028
3305 4 0.327152 0.117982 0.839592
1606 2 0.305766 0.168733 0.839373
553 2 0.350497 0.163719 0.908586
555 4 0.374878 0.164875 0.91158
554 4 0.326117 0.162563 0.905592
1232 4 0.407503 0.131015 0.84227
42 3 0.41743 0.111446 0.84479
41 1 0.436295 0.0917014 0.845811
1231 2 0.41342 0.151913 0.839468
43 3 0.457253 0.0963059 0.843415
1113 4 0.477804 0.0939916 0.844668
3153 4 0.41932 0.120999 0.912999
1668 4 0.500221 0.160187 0.910231
1666 2 0.482886 0.148329 0.914452
1111 2 0.498921 0.101534 0.844076
3161 4 0.017617 0.172243 0.865947
58 3 0.00570317 0.237226 0.842021
2793 4 0.0202559 0.171416 0.846852
1092 4 0.0231307 0.241189 0.84801
1090 2 0.0486768 0.235778 0.854257
2791 2 0.0457416 0.169951 0.846512
2792 4 0.0712273 0.168486 0.846172
1091 4 0.0742228 0.230368 0.860504
153 3 0.0912652 0.234789 0.868615
3016 2 0.0958639 0.190799 0.837374
3017 4 0.114577 0.201021 0.841765
52 3 0.189077 0.181107 0.887058
54 3 0.19785 0.20979 0.872053