ITEM: TIMESTEP
125500
ITEM: NUMBER OF ATOMS
4590
ITEM: BOX BOUNDS xy xz yz pp pp pp
-1.9797168599999999e+01 9.9985700000000008e+00 -9.7985985999999983e+00
-9.9985700000000008e+00 9.9985700000000008e+00 0.0000000000000000e+00
-9.9985700000000008e+00 9.9985700000000008e+00 0.0000000000000000e+00
ITEM: ATOMS id type xs ys zs
1475 4 0.186025 0.99822 0.0428853
1474 2 0.207928 0.997387 0.05414
1653 4 0.41166 0.0144651 0.0656308
1651 2 0.437107 0.0189278 0.0576165
744 4 0.474318 0.0578813 0.0835739
1652 4 0.462554 0.0233905 0.0496022
2469 4 0.483973 0.0369529 0.0549211
2467 2 0.491346 0.0261043 0.0363069
2468 4 0.498718 0.0152556 0.0176927
2466 4 0.488932 0.00286322 0.00092183
2668 2 0.0198989 0.110785 0.020875
2669 4 0.0454814 0.123144 0.0113275
2883 4 0.0678458 0.129152 0.00975889
3243 4 0.149394 0.126254 0.0536577
3241 2 0.171023 0.12069 0.0546878
3242 4 0.192652 0.115127 0.0557178
3392 4 0.212706 0.128596 0.0614148
3391 2 0.236877 0.135554 0.0493419
3393 4 0.261047 0.142512 0.037269
2661 4 0.2661 0.12705 0.0360988
2659 2 0.281439 0.115183 0.0421667
2660 4 0.296779 0.103315 0.0482347
3153 4 0.316539 0.112822 0.0389125
3151 2 0.344085 0.120553 0.0399014
3152 4 0.371631 0.128284 0.0408903
555 4 0.350697 0.100479 0.0104745
1667 4 0.393344 0.131085 0.0396254
1666 2 0.40125 0.112768 0.0417925
1668 4 0.409155 0.0944514 0.0439597
2875 2 0.0122014 0.232245 0.076605
281 4 0.0356924 0.212809 0.0585067
2876 4 0.0329139 0.226776 0.0696735
280 2 0.0407287 0.20374 0.0372216
282 4 0.045765 0.194671 0.0159366
769 2 0.109739 0.213031 0.00708731
771 4 0.111354 0.213733 0.0320487
666 4 0.250881 0.228242 0.0196523
3216 4 0.265497 0.187629 0.0375506
4305 4 0.249496 0.186227 0.0498388
4303 2 0.262373 0.185932 0.0711824
3214 2 0.283714 0.192141 0.0188794
2827 2 0.345335 0.201746 0.0102684
2829 4 0.36739 0.202037 0.0223076
2828 4 0.32328 0.201456 0.998229
3284 4 0.388091 0.208407 0.0203153
3283 2 0.40846 0.201167 0.0194615
3285 4 0.42883 0.193927 0.0186078
2729 4 0.445681 0.204453 0.0307306
2728 2 0.468542 0.211868 0.0448911
2730 4 0.491402 0.219283 0.0590516
2839 2 0.454726 0.332946 0.0115129
2564 4 0.0307613 0.378814 0.010087
293 4 0.0280376 0.353664 0.0670751
461 4 0.0422835 0.350961 0.054099
2563 2 0.0571532 0.39582 0.00694705
2565 4 0.0835451 0.412826 0.00380713
460 2 0.0554924 0.352759 0.03242
462 4 0.0687012 0.354558 0.0107411
3404 4 0.136203 0.382477 0.0252538
3403 2 0.154739 0.388644 0.0438675
3405 4 0.173274 0.394812 0.0624811
1466 4 0.184975 0.405403 0.0775499
495 4 0.350995 0.371999 0.998856
493 2 0.372998 0.390146 0.00999102
494 4 0.395 0.408293 0.0211263
2514 4 0.320454 0.363706 0.0816519
1079 4 0.41329 0.407172 0.0152413
1071 4 0.385419 0.345545 0.0796447
1078 2 0.440433 0.412901 0.014878
1069 2 0.411898 0.356393 0.0719216
1080 4 0.467576 0.418631 0.0145146
1070 4 0.438376 0.367241 0.0641985
1551 4 0.457847 0.370755 0.0581256
1549 2 0.482096 0.388577 0.0499504
2841 4 0.467877 0.345557 0.0319467
309 4 0.486437 0.346069 0.0393171
4053 4 0.0931298 0.466522 0.0166839
4186 2 0.103468 0.493926 0.0488831
4187 4 0.100488 0.484356 0.0258467
1569 4 0.0962202 0.485426 0.0829059
2583 4 0.247824 0.454245 0.0199551
2912 4 0.234797 0.457858 0.00719937
2581 2 0.272766 0.472938 0.0251188
2582 4 0.297708 0.491632 0.0302826
3450 4 0.448434 0.436354 0.0585002
3448 2 0.476146 0.445363 0.0596086
2521 2 0.474249 0.494975 0.0121846
381 4 0.0153662 0.0376342 0.143364
404 4 0.280949 0.0115958 0.15302
2181 4 0.301886 0.0159743 0.153783
2179 2 0.328153 0.0251784 0.14559
2180 4 0.35442 0.0343825 0.137398
1749 4 0.373579 0.0340036 0.133769
1747 2 0.396264 0.0512881 0.122618
1748 4 0.418949 0.0685727 0.111467
743 4 0.440175 0.0712995 0.109317
742 2 0.457247 0.0645904 0.0964454
3810 4 0.0920225 0.100302 0.14098
3808 2 0.103227 0.103989 0.163855
589 2 0.272317 0.157854 0.153434
590 4 0.247839 0.138004 0.157118
2940 4 0.231979 0.121069 0.162828
2895 4 0.0224557 0.177488 0.105827
2600 4 0.0415127 0.191579 0.113382
2599 2 0.0451637 0.19449 0.138115
2601 4 0.0488148 0.1974 0.162849
2747 4 0.277978 0.240418 0.14672
2487 4 0.264203 0.223362 0.137249
2485 2 0.270955 0.207308 0.124851
2486 4 0.277707 0.191253 0.112454
4304 4 0.275249 0.185638 0.0925261
591 4 0.296795 0.177704 0.149751
2453 4 0.316058 0.188895 0.1593
2452 2 0.3434 0.198074 0.154936
2454 4 0.370742 0.207252 0.150571
2951 4 0.389248 0.207549 0.140183
2950 2 0.414699 0.211826 0.148022
2952 4 0.440149 0.216102 0.155861
2672 4 0.455516 0.220829 0.141079
2671 2 0.480794 0.224719 0.149067
294 4 0.0289095 0.31823 0.0972838
104 3 0.0135027 0.310837 0.111619
101 1 0.017214 0.291914 0.115047
525 4 0.0472961 0.31344 0.102416
102 3 0.0366209 0.293258 0.101786
279 4 0.0446067 0.301188 0.138861
103 3 0.0232366 0.290749 0.137263
523 2 0.0741679 0.322836 0.0960093
277 2 0.0685206 0.315538 0.150447
349 2 0.0787872 0.268001 0.162654
351 4 0.101568 0.27643 0.14829
297 4 0.119933 0.285039 0.135312
295 2 0.145941 0.296602 0.126499
296 4 0.17195 0.308165 0.117686
902 4 0.193607 0.314383 0.10867
901 2 0.220097 0.326999 0.101351
1121 4 0.315548 0.314571 0.107232
2746 2 0.302511 0.259895 0.14212
1120 2 0.341741 0.327785 0.0993715
2748 4 0.327044 0.279372 0.137521
2567 4 0.346259 0.296154 0.130133
2566 2 0.367372 0.309784 0.145334
2568 4 0.388484 0.323415 0.160535
109 3 0.498898 0.272325 0.0867632
292 2 0.0284735 0.335947 0.0821795
1055 4 0.00714073 0.333929 0.154304
2540 4 0.0272525 0.34751 0.14991
2539 2 0.0478284 0.361011 0.134161
2541 4 0.0684042 0.374512 0.118412
524 4 0.10104 0.332232 0.0896025
288 4 0.119019 0.33376 0.0984697
286 2 0.138752 0.342954 0.116042
287 4 0.158484 0.352147 0.133614
1465 2 0.210032 0.415145 0.0884532
903 4 0.246588 0.339615 0.0940312
2513 4 0.266245 0.340789 0.0929794
2512 2 0.293349 0.352248 0.0873157
1122 4 0.367933 0.341 0.0915106
2445 4 0.342305 0.370603 0.0837455
727 2 0.3657 0.413064 0.136155
729 4 0.345556 0.412501 0.151323
728 4 0.385845 0.413626 0.120986
2443 2 0.369752 0.381203 0.0879441
2444 4 0.397199 0.391803 0.0921427
767 4 0.41877 0.394844 0.090311
766 2 0.444106 0.405802 0.100629
768 4 0.469441 0.41676 0.110947
608 4 0.48358 0.370798 0.127416
607 2 0.49543 0.375288 0.104791
1743 4 0.00664224 0.46733 0.100659
1568 4 0.0541148 0.451953 0.109733
1567 2 0.0751675 0.468689 0.0963192
3552 4 0.061571 0.442491 0.159981
2534 4 0.129613 0.420178 0.157994
1467 4 0.235088 0.424887 0.0993566
4211 4 0.258846 0.433944 0.102277
4210 2 0.282931 0.43979 0.114139
4031 4 0.326884 0.496131 0.167026
4212 4 0.307016 0.445636 0.126001
3636 4 0.320581 0.449456 0.142239
3634 2 0.347656 0.462017 0.147693
3635 4 0.374732 0.474579 0.153148
648 4 0.390649 0.491882 0.148516
2093 4 0.401288 0.430479 0.120311
2092 2 0.4208 0.449319 0.107484
2919 4 0.445373 0.488292 0.091082
2094 4 0.440311 0.46816 0.0946556
247 2 0.197078 0.00359074 0.196947
249 4 0.223346 0.00899983 0.190771
403 2 0.261972 0.0103905 0.169922
405 4 0.242996 0.00918529 0.186824
3809 4 0.114432 0.107676 0.18673
2779 2 0.120103 0.0927945 0.215668
2780 4 0.110504 0.0834728 0.238316
2781 4 0.129702 0.102116 0.193019
2938 2 0.235919 0.110895 0.183852
2939 4 0.239859 0.10072 0.204876
2777 4 0.262161 0.109501 0.210112
2776 2 0.267645 0.115608 0.23423
511 2 0.326167 0.109683 0.238303
512 4 0.347119 0.124858 0.223736
2694 4 0.364533 0.13755 0.213777
2692 2 0.390331 0.150453 0.204865
2693 4 0.416128 0.163355 0.195953
250 2 0.0148961 0.243854 0.20257
378 4 0.0266584 0.183884 0.167882
376 2 0.00221759 0.170346 0.179054
611 4 0.0945925 0.24052 0.213436
2856 4 0.438023 0.177644 0.192698
2854 2 0.464612 0.193065 0.197713
2855 4 0.4912 0.208486 0.202728
2579 4 0.491337 0.202382 0.220848
278 4 0.0924346 0.329888 0.162034
251 4 0.0381966 0.25038 0.18921
350 4 0.0560069 0.259571 0.177017
610 2 0.102138 0.249993 0.236392
519 4 0.245837 0.32365 0.176768
275 4 0.38017 0.327013 0.239206
497 4 0.38431 0.318441 0.223112
496 2 0.37946 0.319654 0.198738
498 4 0.37461 0.320866 0.174365
2493 4 0.0108764 0.371714 0.201291
2491 2 0.0386992 0.383518 0.200908
2492 4 0.0665219 0.395321 0.200525
2535 4 0.0840766 0.403014 0.186766
2533 2 0.106845 0.411596 0.17238
396 4 0.173375 0.405287 0.230872
394 2 0.154698 0.387778 0.245591
3920 4 0.185886 0.414319 0.248235
362 4 0.215455 0.369852 0.183273
361 2 0.242348 0.38296 0.189133
363 4 0.269241 0.396068 0.194993
416 4 0.287675 0.41095 0.187572
517 2 0.272915 0.339389 0.178334
518 4 0.299992 0.355127 0.1799
415 2 0.311497 0.413288 0.177301
734 4 0.320946 0.359558 0.183355
733 2 0.346377 0.36319 0.190607
735 4 0.371808 0.366822 0.197859
290 4 0.393928 0.378089 0.203428
289 2 0.421206 0.391148 0.207755
291 4 0.448484 0.404207 0.212082
339 4 0.471717 0.412952 0.214264
3818 4 0.00111666 0.49198 0.21042
3550 2 0.0816217 0.446511 0.176777
3551 4 0.101672 0.45053 0.193572
4007 4 0.123029 0.463633 0.197781
4006 2 0.124302 0.447364 0.214365
4008 4 0.125576 0.431095 0.230948
2818 2 0.278089 0.455117 0.248988
2819 4 0.300153 0.457961 0.23521
3567 4 0.31857 0.478275 0.174109
3566 4 0.310874 0.474027 0.223618
3565 2 0.314722 0.476151 0.198863
417 4 0.335319 0.415627 0.16703
3671 4 0.404893 0.428767 0.182227
679 2 0.424146 0.458676 0.239972
315 4 0.478542 0.467042 0.178581
3672 4 0.460544 0.449278 0.181423
3670 2 0.432719 0.439023 0.181825
681 4 0.425706 0.450622 0.216951
337 2 0.499077 0.42513 0.218649
1867 2 0.122782 0.00460603 0.316709
2849 4 0.221474 0.05568 0.297605
2848 2 0.195543 0.044886 0.306692
2850 4 0.169611 0.0340921 0.315778
1869 4 0.1492 0.0211127 0.312618
1271 4 0.284738 0.0849199 0.261594
1270 2 0.259481 0.0750624 0.272118
1272 4 0.234224 0.065205 0.282642
1518 4 0.493135 0.0435462 0.310891
598 2 0.493939 0.0405004 0.273856
599 4 0.48449 0.0473914 0.294183
2945 4 0.0183234 0.0923499 0.327396
2946 4 0.0725143 0.11305 0.315905
2944 2 0.0454188 0.1027 0.321651
2838 4 0.189317 0.145389 0.317179
2836 2 0.164423 0.138208 0.327981
2871 4 0.234609 0.105587 0.324029
2477 4 0.251809 0.123298 0.323236
513 4 0.305214 0.0945075 0.25287
2478 4 0.273241 0.124601 0.277775
2476 2 0.262525 0.12395 0.300505
2778 4 0.273129 0.121715 0.258348
2592 4 0.213193 0.186143 0.26351
2590 2 0.220451 0.203819 0.281139
2591 4 0.227709 0.221494 0.298768
345 4 0.111395 0.27773 0.265523
343 2 0.125092 0.287069 0.286848
2654 4 0.141551 0.315418 0.308838
344 4 0.138789 0.296407 0.308174
612 4 0.109684 0.259466 0.259349
274 2 0.36248 0.326694 0.257028
276 4 0.34479 0.326374 0.274851
386 4 0.331185 0.308364 0.283584
387 4 0.288656 0.264101 0.293937
385 2 0.30992 0.286233 0.28876
2853 4 0.486141 0.314802 0.291461
2622 4 0.465969 0.311426 0.287097
2620 2 0.456989 0.30872 0.310746
395 4 0.13602 0.370269 0.26031
366 4 0.228419 0.367657 0.325003
2655 4 0.162929 0.365296 0.306967
2653 2 0.15224 0.340357 0.307903
365 4 0.265132 0.35318 0.305712
364 2 0.246775 0.360419 0.315358
2561 4 0.0466623 0.490172 0.320167
2560 2 0.0222387 0.477147 0.33157
2820 4 0.256025 0.452273 0.262765
3921 4 0.235123 0.451357 0.260982
3919 2 0.210504 0.432838 0.254609
3884 4 0.417518 0.475943 0.278136
680 4 0.422586 0.466731 0.262993
3883 2 0.39548 0.474044 0.291404
3885 4 0.373441 0.472144 0.304671
2532 4 0.368347 0.45719 0.318393
4354 2 0.015287 0.0456616 0.344072
4356 4 0.0357641 0.0671629 0.336069
2238 4 0.286445 0.0584702 0.415679
479 4 0.286568 0.022991 0.355886
478 2 0.258801 0.0133816 0.354799
480 4 0.231035 0.00377223 0.353712
707 4 0.38715 0.0749281 0.349516
471 4 0.364762 0.0659684 0.35093
469 2 0.337971 0.0495216 0.352878
470 4 0.311179 0.0330749 0.354826
1060 2 0.482005 0.004423 0.383055
1062 4 0.482143 0.0143683 0.360608
1516 2 0.497413 0.0361767 0.333444
2937 4 0.0428532 0.143314 0.358517
2664 4 0.0216496 0.136358 0.362551
2662 2 0.00358216 0.143693 0.352444
2665 2 0.100585 0.109472 0.398025
2677 2 0.10203 0.123472 0.345238
2667 4 0.0736264 0.104097 0.400166
426 4 0.106769 0.149182 0.384406
2678 4 0.0763373 0.113427 0.335601
1245 4 0.0514391 0.0963788 0.393924
2936 4 0.0844127 0.140241 0.383749
2935 2 0.063633 0.141777 0.371133
1243 2 0.0245272 0.0910873 0.391522
1375 2 0.16992 0.115681 0.379574
1377 4 0.144903 0.112949 0.387127
2666 4 0.127544 0.114848 0.395883
2837 4 0.139528 0.131027 0.338784
2679 4 0.127722 0.133518 0.354876
2869 2 0.223381 0.112915 0.342788
2870 4 0.212153 0.120242 0.361547
1376 4 0.194937 0.118412 0.372021
617 4 0.461952 0.108501 0.367336
708 4 0.44036 0.102417 0.362391
706 2 0.413755 0.0886725 0.355954
616 2 0.486301 0.11884 0.379438
424 2 0.128805 0.169452 0.392643
763 2 0.126481 0.249211 0.350992
764 4 0.106003 0.241502 0.334054
425 4 0.15084 0.189721 0.40088
1198 2 0.4441 0.192219 0.391962
1035 4 0.403527 0.18707 0.416019
1199 4 0.421981 0.192041 0.403783
2766 4 0.477638 0.182401 0.387958
1200 4 0.466219 0.192398 0.380141
510 4 0.163814 0.265472 0.379395
765 4 0.146958 0.256921 0.367929
715 2 0.254567 0.280529 0.394855
717 4 0.235792 0.278081 0.377239
509 4 0.219184 0.28278 0.380978
508 2 0.191499 0.274126 0.380187
487 2 0.352195 0.308591 0.40609
488 4 0.326146 0.292737 0.412387
716 4 0.273341 0.282978 0.412471
118 3 0.396265 0.324421 0.394522
489 4 0.378245 0.324445 0.399793
2682 4 0.444136 0.289263 0.391087
2680 2 0.440508 0.299185 0.369765
2681 4 0.436881 0.309107 0.348442
2621 4 0.448009 0.306015 0.334395
2872 2 0.0146316 0.403905 0.352851
2904 4 0.0652553 0.370378 0.38364
2700 4 0.044306 0.356812 0.382643
2902 2 0.0620654 0.39064 0.377115
2698 2 0.0177957 0.339476 0.382938
2903 4 0.0588755 0.410901 0.370591
2874 4 0.0390142 0.405158 0.360511
583 2 0.383511 0.378749 0.374091
585 4 0.362046 0.356112 0.371822
2925 4 0.341168 0.346461 0.365513
2923 2 0.324246 0.339802 0.38537
2924 4 0.307325 0.333143 0.405227
119 3 0.4385 0.340723 0.396926
116 1 0.416442 0.332023 0.409011
584 4 0.404975 0.401387 0.376359
1951 2 0.483505 0.352718 0.398083
1953 4 0.460661 0.356366 0.39582
2648 4 0.0400125 0.448874 0.40419
2647 2 0.0123374 0.437879 0.406941
3582 4 0.137789 0.472723 0.404927
2588 4 0.118957 0.476481 0.408146
2587 2 0.0912153 0.466906 0.406665
2589 4 0.0634733 0.457332 0.405183
3580 2 0.165442 0.485978 0.406271
3581 4 0.193096 0.499232 0.407614
2531 4 0.335205 0.450277 0.357986
2530 2 0.351776 0.453733 0.338189
1433 4 0.330028 0.449403 0.377517
1432 2 0.331185 0.442544 0.401134
2137 2 0.490124 0.462312 0.396739
569 4 0.487743 0.472535 0.360239
2138 4 0.476737 0.467518 0.37819
3852 4 0.00464955 0.0745049 0.483659
983 4 0.0553655 0.0560618 0.456334
982 2 0.0277827 0.0482292 0.456475
984 4 0.000199874 0.0403966 0.456615
2236 2 0.310463 0.0786173 0.420058
2314 2 0.353835 0.0242476 0.480813
2315 4 0.36015 0.0485271 0.48294
1182 4 0.348603 0.0484053 0.467748
1180 2 0.34392 0.0585401 0.447027
1181 4 0.339237 0.0686749 0.426307
842 4 0.456754 0.0119449 0.46565
841 2 0.452779 0.0138419 0.490094
3850 2 0.0283153 0.0833041 0.496819
2914 2 0.318251 0.165489 0.457422
2915 4 0.323109 0.160002 0.434225
2612 4 0.423883 0.157315 0.452209
163 3 0.376013 0.0995287 0.453116
1034 4 0.403071 0.154987 0.451209
161 1 0.365828 0.11465 0.453557
162 3 0.384755 0.135973 0.451942
164 3 0.353244 0.112694 0.473542
165 3 0.349939 0.110795 0.436013
2237 4 0.334481 0.0987643 0.424437
310 2 0.061495 0.192505 0.469227
312 4 0.0339451 0.184836 0.468669
2900 4 0.0106664 0.176531 0.469893
3058 2 0.137972 0.210186 0.463098
3059 4 0.110349 0.202022 0.46237
311 4 0.089045 0.200175 0.469785
304 2 0.215611 0.234263 0.463718
305 4 0.243199 0.242454 0.462178
306 4 0.188024 0.226071 0.465257
3060 4 0.165594 0.218349 0.463826
3057 4 0.318699 0.232642 0.435205
2916 4 0.313394 0.170977 0.48062
2499 4 0.451309 0.224255 0.44483
2497 2 0.431411 0.223194 0.460595
1033 2 0.403299 0.171029 0.433614
2498 4 0.411513 0.222133 0.47636
938 4 0.499744 0.183904 0.454061
2929 2 0.494284 0.240177 0.440985
2613 4 0.478803 0.18029 0.460364
2930 4 0.470647 0.232892 0.454002
2611 2 0.451343 0.168803 0.456287
696 4 0.278834 0.324401 0.493074
871 2 0.266325 0.323224 0.430219
873 4 0.290338 0.329289 0.418149
812 4 0.227637 0.324548 0.445057
872 4 0.242312 0.31716 0.442289
451 2 0.283855 0.267447 0.435573
452 4 0.307605 0.280322 0.423114
453 4 0.260104 0.254572 0.448032
120 3 0.415274 0.314942 0.422239
890 4 0.396312 0.330116 0.487073
267 4 0.378199 0.332349 0.483133
3056 4 0.354026 0.278725 0.449855
3055 2 0.336363 0.255683 0.44253
265 2 0.36901 0.315374 0.464796
266 4 0.35982 0.298399 0.446458
2926 2 0.0127247 0.407277 0.471596
2637 4 0.0451306 0.337096 0.498825
2635 2 0.0645582 0.341355 0.481322
3332 4 0.0837357 0.395948 0.432954
2511 4 0.0907448 0.414901 0.429526
2927 4 0.0317483 0.398405 0.472107
3333 4 0.0908825 0.356125 0.447239
2636 4 0.0839858 0.345614 0.46382
3331 2 0.0873091 0.376037 0.440096
813 4 0.227005 0.36623 0.427169
811 2 0.227321 0.345389 0.436113
117 3 0.415747 0.348641 0.422237
1029 4 0.460156 0.396932 0.485093
602 4 0.438591 0.392962 0.481571
1027 2 0.486701 0.400807 0.486737
4042 2 0.0125292 0.498333 0.454968
2509 2 0.107981 0.429624 0.447076
407 4 0.194852 0.453172 0.47778
406 2 0.16772 0.447087 0.475561
408 4 0.140588 0.441002 0.473342
2510 4 0.125218 0.444347 0.464625
549 4 0.25488 0.433359 0.466118
2550 4 0.24755 0.44492 0.474048
2549 4 0.212537 0.465579 0.467998
2548 2 0.230044 0.45525 0.471023
1434 4 0.332342 0.435685 0.42475
4129 2 0.293589 0.491271 0.49364
548 4 0.310263 0.452287 0.470176
547 2 0.282572 0.442823 0.468147
4131 4 0.31883 0.493167 0.488116
2139 4 0.503511 0.457105 0.415287
3326 4 0.0605294 0.0787592 0.515348
944 4 0.184775 0.00786981 0.541015
3033 4 0.221069 0.0689479 0.515302
943 2 0.195807 0.0288786 0.527477
945 4 0.206839 0.0498874 0.51394
843 4 0.448804 0.015739 0.514539
1155 4 0.469401 0.0703462 0.577549
1257 4 0.485793 0.0684487 0.567495
1966 2 0.457809 0.0150458 0.553734
1967 4 0.454346 0.00663673 0.530196
1968 4 0.461273 0.0234549 0.577272
2456 4 0.0095823 0.134522 0.505367
3851 4 0.0519811 0.0921033 0.509978
3325 2 0.0789563 0.0924055 0.532701
3327 4 0.0973832 0.106052 0.550055
3032 4 0.249853 0.118655 0.518517
3031 2 0.235461 0.0938014 0.51691
320 4 0.0505466 0.222649 0.506451
319 2 0.0231877 0.212897 0.501955
143 3 0.422799 0.229815 0.568003
3043 2 0.011431 0.277066 0.551137
3045 4 0.0353417 0.296045 0.543962
443 4 0.0554089 0.311803 0.544061
442 2 0.0829577 0.325048 0.541554
935 4 0.17559 0.323447 0.573925
934 2 0.199037 0.323259 0.582357
82 3 0.205509 0.278857 0.576493
83 3 0.246741 0.289953 0.573609
889 2 0.414596 0.330314 0.504229
891 4 0.432881 0.330511 0.521385
1239 4 0.450041 0.327468 0.528004
141 1 0.432787 0.251653 0.575814
142 3 0.4359 0.265778 0.558062
3080 4 0.446757 0.256974 0.546104
3079 2 0.464248 0.262157 0.526745
3081 4 0.481739 0.26734 0.507386
3498 4 0.499624 0.262423 0.505813
878 4 0.021117 0.40303 0.548648
260 4 0.0256092 0.335416 0.504918
3354 4 0.0433129 0.406588 0.55257
3352 2 0.0702744 0.412531 0.55596
3446 4 0.114263 0.413976 0.564312
444 4 0.110507 0.338294 0.539048
1136 4 0.177456 0.379587 0.528039
1135 2 0.203509 0.389034 0.53681
1137 4 0.229563 0.398482 0.545582
540 4 0.24409 0.409358 0.559956
538 2 0.264725 0.410202 0.545274
539 4 0.28536 0.411047 0.530591
695 4 0.272974 0.361389 0.51668
774 4 0.300655 0.361129 0.560296
694 2 0.275904 0.342895 0.504877
603 4 0.408339 0.384406 0.523385
601 2 0.423465 0.388684 0.502478
1237 2 0.476711 0.339025 0.535095
3353 4 0.0972358 0.418473 0.559349
3445 2 0.138591 0.429868 0.574263
3447 4 0.162918 0.445761 0.584214
2631 4 0.207876 0.47835 0.516585
2629 2 0.235672 0.488249 0.515748
2630 4 0.263468 0.498149 0.51491
4130 4 0.268349 0.489376 0.499163
2243 4 0.306538 0.420402 0.52544
2242 2 0.330959 0.422898 0.534429
2244 4 0.35538 0.425395 0.543418
2307 4 0.346618 0.00115562 0.650648
2305 2 0.371512 0.00813595 0.661389
1153 2 0.465286 0.0794344 0.599209
1162 2 0.445892 0.0059139 0.619783
1163 4 0.454245 0.0139214 0.596514
3024 4 0.999622 0.161403 0.596584
3207 4 0.0128708 0.10139 0.602754
3205 2 0.0353172 0.109303 0.61751
3206 4 0.0577637 0.117216 0.632267
3020 4 0.0740996 0.122387 0.645324
3019 2 0.0994249 0.128196 0.654604
3021 4 0.12475 0.134004 0.663885
1106 4 0.463118 0.154858 0.626345
1154 4 0.46117 0.0885227 0.620869
1282 2 0.496893 0.123303 0.637765
1283 4 0.480743 0.099965 0.630132
3400 2 0.123111 0.237773 0.660152
2626 2 0.321226 0.23165 0.664322
2628 4 0.34526 0.236513 0.6528
3441 4 0.364865 0.24398 0.641802
1105 2 0.487221 0.174674 0.62131
347 4 0.999175 0.268923 0.596546
348 4 0.0498067 0.298267 0.614585
346 2 0.0244909 0.283595 0.605565
1281 4 0.0684614 0.316161 0.615202
3401 4 0.112888 0.250074 0.645669
977 4 0.134687 0.310848 0.645776
976 2 0.156561 0.30887 0.655748
805 2 0.209357 0.277479 0.645131
806 4 0.225607 0.284082 0.624829
84 3 0.231887 0.310722 0.593268
936 4 0.222483 0.323072 0.590788
85 3 0.227039 0.277365 0.606412
81 1 0.227868 0.289192 0.587594
807 4 0.193107 0.270876 0.665434
3439 2 0.382733 0.247925 0.622942
3440 4 0.400602 0.25187 0.604083
145 3 0.417061 0.253939 0.590968
144 3 0.455796 0.257225 0.585618
3383 4 0.475397 0.272847 0.583498
3264 4 0.0534294 0.383218 0.64462
3262 2 0.0768536 0.380387 0.645862
3263 4 0.100278 0.377555 0.647104
1279 2 0.0945501 0.334023 0.612839
3432 4 0.11461 0.371179 0.651395
1280 4 0.120639 0.351886 0.610477
1640 4 0.142125 0.363563 0.61138
1639 2 0.168729 0.380536 0.609746
1641 4 0.195333 0.39751 0.608112
1041 4 0.21778 0.410465 0.606651
1085 4 0.238703 0.34214 0.66193
896 4 0.23277 0.342044 0.599226
895 2 0.237124 0.348477 0.623358
897 4 0.241479 0.35491 0.64749
991 2 0.322054 0.40996 0.623921
993 4 0.312437 0.406655 0.600463
1206 4 0.372334 0.359815 0.626808
772 2 0.303772 0.356226 0.584185
773 4 0.30689 0.351323 0.608073
992 4 0.331671 0.413266 0.647379
1205 4 0.329166 0.366778 0.609998
1204 2 0.35075 0.363296 0.618403
1139 4 0.391719 0.368876 0.637355
1138 2 0.41581 0.374726 0.649206
1140 4 0.439902 0.380577 0.661057
3491 4 0.0359143 0.476235 0.611973
3490 2 0.0636585 0.487484 0.60988
3492 4 0.0914026 0.498733 0.607788
4539 4 0.110708 0.497264 0.604599
2720 4 0.16863 0.462672 0.59323
2719 2 0.195122 0.466844 0.596405
2721 4 0.221614 0.471016 0.59958
1040 4 0.23113 0.459317 0.605192
1039 2 0.224455 0.434891 0.605922
942 4 0.353877 0.418365 0.647139
2129 4 0.465044 0.416835 0.604518
2128 2 0.481689 0.431541 0.622402
2130 4 0.498333 0.446247 0.640286
2458 2 0.00952991 0.0365658 0.669886
2459 4 0.0344633 0.0489017 0.680667
3084 4 0.190167 0.0749346 0.737053
2306 4 0.396405 0.0151163 0.67213
818 4 0.411224 0.0145503 0.684816
2320 2 0.401573 0.0409077 0.738631
2322 4 0.426717 0.0469093 0.728821
965 4 0.448764 0.0509114 0.730609
817 2 0.438438 0.0219696 0.688582
964 2 0.476283 0.0585427 0.731815
819 4 0.465652 0.0293888 0.692349
887 4 0.485677 0.0361419 0.685827
3292 2 0.16601 0.141617 0.68415
3294 4 0.185235 0.141764 0.700222
3293 4 0.146785 0.141471 0.668078
4371 4 0.207131 0.148415 0.698676
4369 2 0.233908 0.155468 0.704294
4370 4 0.260685 0.162522 0.709911
3062 4 0.279961 0.15969 0.714511
3061 2 0.306806 0.164822 0.711891
3077 4 0.343746 0.118786 0.726003
3076 2 0.371174 0.132117 0.729297
3078 4 0.398602 0.145448 0.732591
1179 4 0.420618 0.154318 0.734957
1177 2 0.447897 0.162517 0.739059
3402 4 0.133334 0.225472 0.674636
1011 4 0.129619 0.225298 0.695539
1009 2 0.127932 0.212624 0.716613
2977 2 0.111594 0.166446 0.748496
1010 4 0.126245 0.19995 0.737686
2978 4 0.135161 0.187325 0.745119
3357 4 0.229776 0.214155 0.703058
905 4 0.212725 0.208847 0.689904
906 4 0.16899 0.203081 0.718079
904 2 0.190857 0.205964 0.703992
3355 2 0.256233 0.221665 0.695989
3356 4 0.282691 0.229175 0.688921
2627 4 0.297191 0.226788 0.675844
3063 4 0.333651 0.169953 0.709271
3167 4 0.356966 0.177571 0.707958
3166 2 0.384728 0.188571 0.706041
3168 4 0.41249 0.199571 0.704124
3002 4 0.436825 0.206065 0.706143
3001 2 0.463837 0.211498 0.707799
3003 4 0.49085 0.216931 0.709454
1178 4 0.475177 0.170717 0.743161
833 4 0.49628 0.180478 0.748755
978 4 0.178435 0.306892 0.665721
1086 4 0.191305 0.306138 0.679795
1084 2 0.215004 0.324139 0.670863
3273 4 0.424892 0.280171 0.745542
3252 4 0.444896 0.281279 0.736611
3250 2 0.468175 0.284321 0.724729
3251 4 0.491454 0.287363 0.712848
3430 2 0.134054 0.381505 0.669049
3431 4 0.153497 0.39183 0.686703
3275 4 0.175241 0.398838 0.690821
3274 2 0.198443 0.411956 0.703927
1097 4 0.438514 0.413007 0.71486
798 4 0.455382 0.379967 0.674838
796 2 0.472056 0.394911 0.69257
797 4 0.488729 0.409855 0.710302
3276 4 0.221644 0.425074 0.717032
4494 4 0.243946 0.437034 0.718814
4492 2 0.263318 0.445882 0.736725
4493 4 0.28269 0.454729 0.754636
940 2 0.369496 0.423048 0.667771
941 4 0.385115 0.42773 0.688404
1098 4 0.403028 0.431177 0.700717
1278 4 0.458799 0.428277 0.721871
1276 2 0.480762 0.429647 0.734908
1096 2 0.420771 0.422092 0.707788
4585 2 0.0625449 0.0352795 0.831853
4441 2 0.040009 0.0276829 0.773154
4443 4 0.0538329 0.0139102 0.769654
2277 4 0.0193929 0.0273245 0.825517
4442 4 0.0261851 0.0414556 0.776654
4346 4 0.0337528 0.0593926 0.786066
4345 2 0.051683 0.0719832 0.804187
3127 2 0.13482 0.0662061 0.820267
3083 4 0.141493 0.052251 0.761043
3131 4 0.123734 0.0389993 0.751032
3130 2 0.0974915 0.0344689 0.756284
3129 4 0.107374 0.0588982 0.818776
4587 4 0.0901852 0.0478092 0.829421
3132 4 0.0712492 0.0299385 0.761536
1125 4 0.18359 0.0834251 0.819593
3128 4 0.162266 0.073514 0.821757
3082 2 0.16583 0.0635928 0.749048
1971 4 0.356996 0.0277589 0.757338
1969 2 0.331533 0.0181704 0.767442
1970 4 0.30607 0.00858199 0.777545
2321 4 0.37643 0.0349061 0.74844
3486 4 0.0298845 0.115897 0.811849
3484 2 0.0572121 0.127894 0.816453
2979 4 0.0880277 0.145567 0.751872
3485 4 0.0845396 0.139891 0.821057
4347 4 0.0696132 0.0845738 0.822307
3362 4 0.103545 0.137944 0.82689
3162 4 0.1777 0.159764 0.815018
3363 4 0.159023 0.162027 0.823284
3361 2 0.131284 0.149986 0.825087
3041 4 0.26417 0.144478 0.804092
3042 4 0.316525 0.159528 0.819935
3040 2 0.290348 0.152003 0.812014
3160 2 0.205507 0.170696 0.813724
1047 4 0.256642 0.244593 0.833693
3016 2 0.279751 0.198446 0.824646
3017 4 0.252232 0.185145 0.821968
1045 2 0.279647 0.250192 0.820153
3161 4 0.233313 0.181627 0.812431
3280 2 0.354696 0.181576 0.817999
3282 4 0.329267 0.177235 0.825958
49 3 0.347345 0.240757 0.805889
3018 4 0.307271 0.211747 0.827325
3134 4 0.391656 0.181206 0.82415
3281 4 0.380125 0.185917 0.810039
1207 2 0.0117472 0.305206 0.832618
60 3 0.0227505 0.272557 0.775982
56 1 0.022991 0.270126 0.798581
58 3 0.0306465 0.290748 0.808933
1265 4 0.106784 0.295228 0.827813
59 3 0.0388897 0.260794 0.804258
3329 4 0.194162 0.299121 0.818918
801 4 0.174179 0.294204 0.811423
799 2 0.14994 0.294855 0.816076
800 4 0.125701 0.295506 0.820728
1043 4 0.262195 0.319421 0.811504
3330 4 0.247747 0.309651 0.825615
3328 2 0.220955 0.304386 0.822266
50 3 0.32247 0.257329 0.798523
1046 4 0.302651 0.255791 0.806613
1044 4 0.312814 0.324991 0.824781
1042 2 0.287504 0.322206 0.818143
3271 2 0.400102 0.274839 0.755785
3272 4 0.375313 0.269508 0.766028
48 3 0.35591 0.264879 0.776701
46 1 0.346411 0.260047 0.798247
47 3 0.360678 0.277534 0.812063
190 3 0.466688 0.332378 0.79516
814 2 0.0833361 0.371369 0.778259
815 4 0.0619462 0.372184 0.766022
884 4 0.0399619 0.364666 0.763426
883 2 0.013284 0.355605 0.770394
4207 2 0.149542 0.378382 0.794786
4209 4 0.125386 0.376886 0.786167
816 4 0.104726 0.370554 0.790496
1168 2 0.211027 0.382093 0.830583
1170 4 0.190967 0.379825 0.814427
4208 4 0.173698 0.379877 0.803405
186 1 0.488797 0.350833 0.797871
188 3 0.496365 0.362124 0.777703
187 3 0.485886 0.364839 0.813281
4118 4 0.259152 0.450762 0.830823
1955 4 0.354424 0.485589 0.779399
1954 2 0.32844 0.474947 0.770422
1956 4 0.302457 0.464306 0.761444
4586 4 0.0349046 0.0227499 0.834285
2313 4 0.0897223 0.00195519 0.850624
2312 4 0.125953 0.0160624 0.8886
1296 4 0.130357 0.0359561 0.893391
2311 2 0.107838 0.00900881 0.869612
1963 2 0.350767 0.0305208 0.872819
1965 4 0.323914 0.0173112 0.866874
1037 4 0.300887 0.00868923 0.866046
2103 4 0.454521 0.0693574 0.88214
2101 2 0.426794 0.0580653 0.879878
2102 4 0.399067 0.0467731 0.877616
1964 4 0.37762 0.0437303 0.878764
808 2 0.499512 0.0143504 0.902882
2000 4 0.476494 0.0751734 0.885934
1993 2 0.0158874 0.0909501 0.871188
3412 2 0.025337 0.138057 0.908587
3253 2 0.0935343 0.0937564 0.855653
3254 4 0.0693702 0.0868447 0.843582
1995 4 0.0434942 0.102305 0.874408
3414 4 0.0530483 0.15102 0.909548
4128 4 0.17134 0.102817 0.864853
4126 2 0.147875 0.100885 0.875547
4127 4 0.12441 0.0989541 0.886241
3255 4 0.117698 0.100668 0.867724
1123 2 0.187694 0.0928363 0.842753
1124 4 0.191798 0.102247 0.865912
3090 4 0.380946 0.144837 0.917139
3135 4 0.413516 0.163509 0.859581
3088 2 0.392292 0.15674 0.895853
3347 4 0.0113491 0.23308 0.867773
3348 4 0.0661342 0.249654 0.874739
1052 4 0.0846258 0.250456 0.884116
745 2 0.0707521 0.199154 0.902243
746 4 0.0463048 0.194426 0.912877
3346 2 0.0387416 0.241367 0.871256
919 2 0.144401 0.216955 0.882398
921 4 0.118065 0.20993 0.889588
747 4 0.0951993 0.203883 0.89161
866 4 0.23701 0.234494 0.842614
865 2 0.212843 0.229163 0.854111
867 4 0.188677 0.223833 0.865608
920 4 0.170737 0.223981 0.875207
1166 4 0.382226 0.238293 0.847327
3148 2 0.379126 0.216372 0.89452
1165 2 0.355364 0.227242 0.840763
3150 4 0.357111 0.217987 0.90464
1167 4 0.328502 0.216192 0.834198
3482 4 0.40485 0.246879 0.850074
3133 2 0.402586 0.172358 0.841866
3013 2 0.446821 0.220846 0.897563
3014 4 0.421021 0.218658 0.894576
3149 4 0.401141 0.214756 0.8844
3089 4 0.403638 0.168643 0.874566
3288 4 0.497778 0.223263 0.864579
2859 4 0.49565 0.231805 0.902385
3015 4 0.472621 0.223034 0.90055
482 4 0.0340402 0.297504 0.908304
1208 4 0.0240417 0.305792 0.854542
1619 4 0.010969 0.302395 0.872755
1264 2 0.0890946 0.285971 0.846957
1266 4 0.0714052 0.276714 0.866101
483 4 0.0582004 0.285618 0.870089
481 2 0.0461203 0.291561 0.889197
1249 2 0.182198 0.265982 0.904003
1251 4 0.155845 0.259691 0.897362
1053 4 0.134096 0.255521 0.900462
1051 2 0.109361 0.252988 0.892289
1119 4 0.229914 0.27691 0.907256
1250 4 0.208551 0.272273 0.910643
4470 4 0.476483 0.269038 0.875862
3483 4 0.455357 0.267011 0.871137
3481 2 0.430103 0.256945 0.860606
4468 2 0.488559 0.275509 0.898312
1169 4 0.231086 0.384361 0.846738
2337 4 0.228 0.368444 0.90519
2335 2 0.202833 0.364589 0.913465
4161 4 0.239706 0.370996 0.850589