ITEM: TIMESTEP
3084000
ITEM: NUMBER OF ATOMS
4590
ITEM: BOX BOUNDS xy xz yz pp pp pp
-9.9985700000000008e+00 9.9985700000000008e+00 0.0000000000000000e+00
-9.9985700000000008e+00 9.9985700000000008e+00 0.0000000000000000e+00
-9.9985700000000008e+00 9.9985700000000008e+00 0.0000000000000000e+00
ITEM: ATOMS id type xs ys zs
2335 2 0.075565 0.052619 0.995739
2336 4 0.0555909 0.0413766 0.00572984
2703 4 0.308825 0.009675 0.0618289
2701 2 0.302143 0.0299774 0.0748047
2889 4 0.447125 0.0497329 0.0607265
2887 2 0.445434 0.0744062 0.064409
2616 4 0.0544696 0.116959 0.0775655
353 4 0.244683 0.107926 0.0774193
693 4 0.228378 0.119988 0.0794019
354 4 0.29073 0.126802 0.0725149
352 2 0.267707 0.117364 0.0749671
24 3 0.307576 0.137849 0.0768499
21 1 0.329544 0.143553 0.0816746
23 3 0.337225 0.159173 0.0663314
2893 2 0.393838 0.119226 0.0685509
2895 4 0.40736 0.124058 0.0480815
3347 4 0.423936 0.122636 0.0370531
2888 4 0.443742 0.0990796 0.0680915
3346 2 0.43072 0.134616 0.0161811
2783 4 0.461378 0.105988 0.0592503
2782 2 0.483885 0.115233 0.0534926
3348 4 0.437504 0.146597 0.995309
1052 4 0.457848 0.147316 0.995414
278 4 0.0869894 0.200717 0.0250255
277 2 0.109895 0.206684 0.0169695
279 4 0.132801 0.212651 0.00891346
4470 4 0.154107 0.242541 0.0337028
3216 4 0.165515 0.228349 0.0430359
742 2 0.237898 0.199086 0.0649053
743 4 0.216247 0.189547 0.0729929
3214 2 0.181027 0.224808 0.0237472
386 4 0.207379 0.205885 0.0816177
3215 4 0.196539 0.221267 0.00445858
744 4 0.25955 0.208625 0.0568178
2599 2 0.29482 0.203653 0.0455938
2601 4 0.31706 0.214355 0.0415921
2600 4 0.27258 0.192951 0.0495955
450 4 0.334675 0.222755 0.0344066
448 2 0.347807 0.221142 0.0556239
449 4 0.360938 0.21953 0.0768412
914 4 0.370104 0.218877 0.0947086
2881 2 0.483503 0.224215 0.0106624
4468 2 0.144246 0.265334 0.0365999
1119 4 0.113565 0.33734 0.0255804
1117 2 0.11687 0.312573 0.0246277
4469 4 0.134384 0.288128 0.039497
1118 4 0.120174 0.287807 0.023675
3196 2 0.20381 0.314018 0.0503323
3198 4 0.21255 0.293008 0.0606937
2875 2 0.231155 0.262337 0.0383835
2877 4 0.217653 0.273314 0.0563391
3197 4 0.195071 0.335029 0.0399709
2876 4 0.244657 0.251359 0.0204278
527 4 0.320162 0.296829 0.0643302
2651 4 0.336313 0.298155 0.0759589
2650 2 0.358015 0.308572 0.0827168
2652 4 0.379718 0.318989 0.0894746
102 3 0.470933 0.308391 0.0170021
105 3 0.50104 0.323345 0.0332141
2759 4 0.430331 0.300132 0.0538703
101 1 0.491868 0.303996 0.0254601
2835 4 0.439216 0.31446 0.0432798
2833 2 0.435209 0.322406 0.0199133
2758 2 0.414517 0.30805 0.0715449
104 3 0.505092 0.295186 0.00855093
3231 4 0.075812 0.409536 0.0744461
770 4 0.117025 0.354719 0.0356486
769 2 0.109725 0.365561 0.0143329
771 4 0.102426 0.376402 0.993017
933 4 0.195802 0.342019 0.0210038
931 2 0.198786 0.356882 0.00111985
1290 4 0.370788 0.379594 0.00230374
3541 2 0.469567 0.416542 0.0151665
3543 4 0.472999 0.404755 0.0369492
1466 4 0.48042 0.395864 0.0532865
1122 4 0.0921199 0.408465 0.062007
1120 2 0.109772 0.423645 0.0711272
1121 4 0.127424 0.438825 0.0802474
1672 2 0.112717 0.491078 0.0685322
3552 4 0.146718 0.442425 0.0877677
1674 4 0.115091 0.498507 0.0447755
1302 4 0.321765 0.503756 0.0142679
582 4 0.0704128 0.0264191 0.0851613
1373 4 0.0238843 0.0565858 0.0953397
1372 2 0.039996 0.0374855 0.0962325
1374 4 0.0561076 0.0183852 0.0971252
1873 2 0.0673019 0.0414017 0.165397
2615 4 0.0377431 0.0706765 0.0864472
1875 4 0.0517355 0.0251834 0.176344
1542 4 0.0480072 0.00915358 0.163935
1874 4 0.0828682 0.05762 0.15445
581 4 0.110168 0.00160018 0.102602
580 2 0.0902904 0.0140096 0.0938815
3677 4 0.0946574 0.0639623 0.139603
333 4 0.158077 0.0438985 0.12339
3678 4 0.140763 0.0523693 0.124088
3676 2 0.11771 0.0581658 0.131846
331 2 0.172543 0.0505345 0.142674
692 4 0.206892 0.0796958 0.099791
332 4 0.18701 0.0571705 0.161959
2780 4 0.203363 0.0647055 0.151131
2779 2 0.225697 0.0558339 0.158034
2781 4 0.248031 0.0469624 0.164937
2702 4 0.295462 0.0502798 0.0877805
1274 4 0.310615 0.0642073 0.0918932
2679 4 0.40267 0.0854869 0.161687
2614 2 0.0461063 0.0938176 0.0820064
2517 4 0.145887 0.126671 0.110168
2515 2 0.16165 0.146021 0.111678
691 2 0.217635 0.0998417 0.0895965
1273 2 0.323995 0.0847223 0.0868645
22 3 0.342613 0.124677 0.0802462
25 3 0.330914 0.152048 0.10276
1275 4 0.337375 0.105237 0.0818358
2894 4 0.380316 0.114393 0.0890203
810 4 0.386444 0.095738 0.0975852
808 2 0.387355 0.0900931 0.121926
809 4 0.388266 0.0844482 0.146267
521 4 0.348676 0.129745 0.181741
2678 4 0.452518 0.0888203 0.163895
2677 2 0.427594 0.0871536 0.162791
454 2 0.440992 0.155322 0.136312
455 4 0.430289 0.140253 0.119472
649 2 0.0127636 0.257536 0.146862
2538 4 0.0570675 0.240249 0.119637
650 4 0.00445662 0.252296 0.123868
728 4 0.995251 0.247781 0.107129
2516 4 0.177414 0.165371 0.113188
387 4 0.169802 0.182154 0.104543
385 2 0.18859 0.19402 0.0930803
1198 2 0.230312 0.210285 0.16451
1199 4 0.250162 0.210895 0.149319
2520 4 0.260821 0.22888 0.147244
2518 2 0.282491 0.216567 0.149251
913 2 0.39132 0.231586 0.0983903
732 4 0.411619 0.178298 0.176263
491 4 0.470327 0.164564 0.154877
456 4 0.451695 0.170391 0.153151
490 2 0.494162 0.170187 0.149833
2536 2 0.0746127 0.25596 0.111239
252 4 0.015326 0.327102 0.113641
651 4 0.0210706 0.262775 0.169856
2445 4 0.104398 0.284829 0.0939705
2537 4 0.0921578 0.271671 0.102841
2444 4 0.152855 0.27251 0.092974
2443 2 0.128627 0.27867 0.0934722
712 2 0.134685 0.329013 0.145413
714 4 0.150327 0.317801 0.129449
611 4 0.169033 0.315578 0.135567
767 4 0.164602 0.286003 0.100504
610 2 0.193245 0.32131 0.138036
766 2 0.186572 0.274077 0.0999716
768 4 0.208541 0.26215 0.0994387
2094 4 0.227108 0.261278 0.107491
612 4 0.217458 0.327041 0.140505
2093 4 0.265535 0.254116 0.0763028
2092 2 0.246321 0.257697 0.0918968
528 4 0.282325 0.266043 0.0753459
526 2 0.301244 0.281436 0.0698381
915 4 0.412536 0.244295 0.102072
2760 4 0.398703 0.315968 0.0892195
845 4 0.424812 0.2584 0.0950725
844 2 0.43438 0.273935 0.112169
846 4 0.443949 0.289471 0.129266
2477 4 0.454827 0.285755 0.14573
2476 2 0.471614 0.298683 0.159004
2730 4 0.495736 0.324791 0.127612
250 2 0.0378761 0.337884 0.112995
287 4 0.0634948 0.359175 0.128081
251 4 0.0604262 0.348667 0.112348
3229 2 0.064635 0.39704 0.0929968
2906 4 0.0497795 0.374207 0.12819
3230 4 0.053458 0.384543 0.111547
286 2 0.081675 0.350684 0.143
2905 2 0.0391613 0.38907 0.145264
2907 4 0.0285432 0.403933 0.162338
713 4 0.119044 0.340225 0.161377
288 4 0.0998551 0.342193 0.157918
3598 2 0.106735 0.405395 0.142226
2799 4 0.222667 0.346612 0.14101
2798 4 0.232844 0.380063 0.105259
2797 2 0.227755 0.363338 0.123134
2591 4 0.314133 0.381864 0.104305
2862 4 0.318395 0.361569 0.165303
2592 4 0.324875 0.375655 0.15275
2590 2 0.319504 0.37876 0.128527
2162 4 0.100962 0.435016 0.131753
3550 2 0.164164 0.425435 0.0934382
2163 4 0.115547 0.478025 0.110821
2161 2 0.108255 0.45652 0.121287
1673 4 0.110343 0.483649 0.092289
3599 4 0.0993595 0.416831 0.121249
3551 4 0.181611 0.408445 0.0991088
3818 4 0.235876 0.444774 0.119862
4512 4 0.254432 0.49422 0.160869
3819 4 0.192234 0.425342 0.105081
3817 2 0.214055 0.435058 0.112472
677 4 0.252697 0.456385 0.124588
4005 4 0.302852 0.415597 0.152684
1569 4 0.250905 0.489251 0.139726
678 4 0.285559 0.424585 0.144828
676 2 0.269128 0.440485 0.134708
785 4 0.397789 0.0139018 0.204568
2756 4 0.357632 0.0711347 0.211426
786 4 0.368274 0.0541217 0.20802
784 2 0.383031 0.0340118 0.206294
1826 4 0.409146 0.997205 0.207672
606 4 0.451802 0.0692539 0.240321
3809 4 0.461746 0.0534137 0.24545
748 2 0.0278358 0.110181 0.190135
750 4 0.0498538 0.121197 0.185772
1479 4 0.0550962 0.130133 0.203448
749 4 0.00581778 0.0991653 0.194498
1477 2 0.0760333 0.143796 0.203818
1478 4 0.0969703 0.15746 0.204188
2778 4 0.0996438 0.1688 0.220292
420 4 0.165242 0.121728 0.244323
418 2 0.173586 0.134089 0.224254
419 4 0.18193 0.146451 0.204185
2931 4 0.200656 0.149414 0.19781
2930 4 0.245542 0.129636 0.188074
2929 2 0.223099 0.139525 0.192942
1565 4 0.258321 0.114113 0.193048
520 2 0.324307 0.125922 0.177653
1566 4 0.28174 0.109083 0.236946
1564 2 0.27003 0.111598 0.214997
522 4 0.299937 0.1221 0.173566
458 4 0.301451 0.135777 0.224314
457 2 0.315303 0.147446 0.241552
459 4 0.329154 0.159115 0.258791
624 4 0.355688 0.145892 0.173587
622 2 0.379082 0.154417 0.171302
623 4 0.402477 0.162943 0.169018
2755 2 0.37105 0.0897756 0.201544
2757 4 0.384469 0.108416 0.191662
1749 4 0.347136 0.149731 0.258327
506 4 0.468555 0.096358 0.17078
505 2 0.484867 0.102658 0.188652
604 2 0.442727 0.0884625 0.227135
605 4 0.433652 0.107671 0.21395
2776 2 0.121691 0.180359 0.222638
2777 4 0.143738 0.191917 0.224985
537 4 0.145472 0.209471 0.236085
1200 4 0.210461 0.209675 0.179701
2453 4 0.184046 0.22593 0.238054
2454 4 0.199839 0.224553 0.190627
2452 2 0.191942 0.225241 0.21434
2519 4 0.30416 0.204253 0.151258
730 2 0.42991 0.195316 0.177286
731 4 0.448201 0.212333 0.178308
2672 4 0.464981 0.21663 0.189967
2671 2 0.475228 0.207524 0.210879
3157 2 0.0450248 0.272159 0.199833
3158 4 0.057559 0.266879 0.220814
579 4 0.0739139 0.268764 0.211184
3159 4 0.0324905 0.27744 0.178853
577 2 0.0983429 0.263453 0.210735
578 4 0.122772 0.258142 0.210286
236 4 0.136547 0.271071 0.202751
235 2 0.159559 0.276707 0.21074
2968 2 0.224743 0.294127 0.224986
2969 4 0.201113 0.285952 0.224873
237 4 0.182572 0.282344 0.21873
2970 4 0.248372 0.302303 0.225099
2853 4 0.262944 0.290325 0.221342
2851 2 0.28042 0.303379 0.209121
2852 4 0.297897 0.316433 0.1969
2861 4 0.300907 0.316424 0.177829
339 4 0.370516 0.338486 0.230332
2478 4 0.488402 0.311611 0.172279
3831 4 0.0337165 0.390383 0.177174
3829 2 0.0418809 0.388921 0.200762
3696 4 0.0515774 0.376867 0.239987
3830 4 0.0500453 0.387459 0.22435
3936 4 0.0770711 0.403503 0.249763
3600 4 0.11411 0.393959 0.163203
3921 4 0.125626 0.401986 0.178557
2860 2 0.309651 0.338996 0.171566
4004 4 0.315467 0.411571 0.200907
4003 2 0.309159 0.413584 0.176795
1856 4 0.315584 0.407235 0.219888
337 2 0.39477 0.344103 0.228008
338 4 0.419024 0.34972 0.225685
291 4 0.435549 0.349164 0.240252
3989 4 0.0194089 0.443045 0.208714
3935 4 0.070296 0.448627 0.229303
3934 2 0.0736836 0.426065 0.239533
1676 4 0.0873953 0.460007 0.229851
3919 2 0.146 0.412138 0.188901
1677 4 0.127167 0.488371 0.240552
3920 4 0.166374 0.42229 0.199246
1675 2 0.107281 0.474189 0.235202
1545 4 0.158949 0.440488 0.202594
4510 2 0.237439 0.483078 0.175439
4511 4 0.220447 0.471936 0.190009
1544 4 0.203048 0.463676 0.198312
1543 2 0.180999 0.452082 0.200453
1855 2 0.319979 0.419016 0.2415
1611 4 4.41041e-06 0.00413687 0.260593
1785 4 0.995175 0.0233999 0.264209
3993 4 0.0861604 0.0120123 0.323032
425 4 0.0473144 0.080659 0.320452
163 3 0.157924 0.0853091 0.327351
721 2 0.209141 0.0467742 0.329962
722 4 0.186658 0.057527 0.331979
165 3 0.194452 0.0762041 0.327959
161 1 0.178584 0.0899013 0.336861
1127 4 0.441003 0.0233324 0.290352
3808 2 0.446194 0.0458283 0.263499
3810 4 0.430641 0.0382429 0.281548
1126 2 0.433879 0.0148092 0.312753
1702 2 0.101555 0.126564 0.306497
530 4 0.130147 0.136913 0.33811
1704 4 0.113954 0.129704 0.327981
1703 4 0.0891566 0.123423 0.285012
257 4 0.176105 0.122084 0.260736
256 2 0.189831 0.119142 0.281427
258 4 0.203557 0.1162 0.302118
164 3 0.184271 0.112085 0.33312
515 4 0.20247 0.126391 0.319807
514 2 0.22345 0.13207 0.332168
510 4 0.187395 0.166096 0.252808
516 4 0.244429 0.13775 0.344529
1191 4 0.34561 0.17908 0.312648
1747 2 0.369755 0.153146 0.268421
1748 4 0.392375 0.156561 0.278516
400 2 0.380909 0.159001 0.329963
589 2 0.025097 0.191126 0.335212
403 2 0.0671654 0.236099 0.321667
405 4 0.0848056 0.248271 0.30879
591 4 0.0465124 0.204005 0.334376
536 4 0.130405 0.243003 0.269987
535 2 0.137938 0.226237 0.253036
509 4 0.213185 0.196746 0.282745
508 2 0.20029 0.181421 0.267777
1030 2 0.219 0.241806 0.305642
1032 4 0.240613 0.231041 0.299148
1395 4 0.249088 0.24068 0.284388
725 4 0.178406 0.253925 0.318269
1190 4 0.301839 0.173761 0.33624
1393 2 0.271832 0.235046 0.293114
1394 4 0.294577 0.229413 0.301841
2753 4 0.305116 0.245415 0.292729
1189 2 0.323725 0.176421 0.324444
2752 2 0.32789 0.235987 0.288526
179 3 0.404415 0.175026 0.305632
180 3 0.409563 0.164542 0.269837
402 4 0.360511 0.1666 0.317662
2789 4 0.407539 0.21485 0.291131
2788 2 0.384256 0.222359 0.296301
2790 4 0.360973 0.229868 0.30147
2754 4 0.350664 0.22656 0.284323
177 3 0.41638 0.199795 0.28002
284 4 0.495746 0.187114 0.295651
176 1 0.417424 0.177783 0.286617
178 3 0.439505 0.172387 0.291276
285 4 0.445922 0.190984 0.297469
283 2 0.470834 0.189049 0.29656
716 4 0.0928979 0.336335 0.298816
724 2 0.158704 0.250416 0.303279
715 2 0.0975431 0.317237 0.28336
726 4 0.139003 0.246906 0.288288
29 3 0.11636 0.254165 0.263311
30 3 0.0901835 0.255582 0.290337
717 4 0.102188 0.298138 0.267905
27 3 0.126312 0.25817 0.299334
26 1 0.110406 0.263636 0.28364
28 3 0.109462 0.286734 0.281645
1031 4 0.197387 0.252571 0.312136
374 4 0.218478 0.318759 0.305466
2556 4 0.367114 0.336989 0.249728
2554 2 0.357326 0.337933 0.272717
3405 4 0.0239936 0.371509 0.299217
3694 2 0.0452132 0.37797 0.264142
3695 4 0.0388489 0.379074 0.288297
259 2 0.103175 0.40992 0.285289
260 4 0.121387 0.412203 0.302268
594 4 0.129466 0.415106 0.320072
261 4 0.0849636 0.407637 0.268309
373 2 0.217474 0.342386 0.297344
375 4 0.21647 0.366012 0.289222
570 4 0.357964 0.342885 0.311345
2555 4 0.347538 0.338877 0.295706
568 2 0.346117 0.340066 0.333183
289 2 0.440387 0.373447 0.243735
290 4 0.445225 0.397729 0.247219
1391 4 0.0202455 0.494724 0.277493
2826 4 0.0542658 0.449596 0.308513
2825 4 0.0388556 0.488624 0.281309
2824 2 0.0465607 0.46911 0.294911
4025 4 0.145753 0.481378 0.247301
1857 4 0.324374 0.430797 0.263112
1187 4 0.318537 0.418173 0.277598
1186 2 0.334216 0.431249 0.292035
1188 4 0.349894 0.444324 0.306471
1802 4 0.363099 0.447323 0.319748
1435 2 0.487382 0.467405 0.321576
1436 4 0.466736 0.475544 0.333095
667 2 0.435544 0.462998 0.333056
668 4 0.459397 0.45663 0.3291
424 2 0.0673344 0.0789173 0.33533
1869 4 0.0132101 0.0366281 0.377077
2901 4 0.0301697 0.0435594 0.385607
2899 2 0.0469877 0.0406077 0.403872
426 4 0.0873543 0.0771755 0.350208
2645 4 0.088294 0.0627932 0.362933
2644 2 0.0984666 0.0416678 0.371617
2646 4 0.108639 0.0205424 0.380301
2663 4 0.12453 0.00994889 0.389865
2662 2 0.146076 0.0226017 0.388915
2664 4 0.167622 0.0352545 0.387965
723 4 0.231624 0.0360214 0.327945
1967 4 0.168089 0.054115 0.392098
1966 2 0.184087 0.0583677 0.410838
162 3 0.177303 0.0862748 0.35954
1350 4 0.24495 0.0498691 0.332839
1349 4 0.271443 0.0626559 0.373278
1348 2 0.258196 0.0562625 0.353058
4125 4 0.273318 0.0280206 0.418717
708 4 0.391574 0.03714 0.364527
617 4 0.379937 0.0224793 0.357377
616 2 0.374167 0.0045941 0.37387
706 2 0.403147 0.0551528 0.377443
707 4 0.41472 0.0731656 0.390358
2685 4 0.0567393 0.151154 0.397722
3033 4 0.0522788 0.156722 0.378431
3031 2 0.0278115 0.155341 0.383393
2683 2 0.0803602 0.158716 0.394549
529 2 0.141 0.135295 0.360578
635 4 0.137858 0.124051 0.394534
531 4 0.151853 0.133677 0.383045
634 2 0.13326 0.106956 0.412191
2684 4 0.103981 0.166277 0.391376
2483 4 0.256044 0.146918 0.330945
401 4 0.401308 0.151403 0.342265
2954 4 0.420488 0.144719 0.34383
2714 4 0.425477 0.153862 0.400466
2955 4 0.432164 0.166309 0.387399
2953 2 0.426326 0.155514 0.365615
590 4 0.00368163 0.178247 0.336049
404 4 0.0495252 0.223926 0.334545
765 4 0.121413 0.176393 0.391638
763 2 0.139905 0.190677 0.400536
764 4 0.158398 0.204961 0.409434
10 3 0.243842 0.235148 0.396268
7 3 0.247353 0.252639 0.363487
6 1 0.258778 0.243076 0.381013
8 3 0.271784 0.225665 0.372881
2484 4 0.29442 0.167512 0.355518
2482 2 0.275232 0.157215 0.343231
2957 4 0.336203 0.179873 0.38089
3080 4 0.33741 0.165299 0.393621
2956 2 0.351342 0.197117 0.370958
2958 4 0.366482 0.214361 0.361027
2180 4 0.355292 0.231052 0.358966
2698 2 0.00552198 0.279336 0.3426
479 4 0.0318207 0.291661 0.373272
2699 4 0.0200532 0.277687 0.362881
478 2 0.0553765 0.285221 0.367902
480 4 0.0789324 0.278781 0.362531
3462 4 0.0921744 0.285807 0.375364
3460 2 0.102831 0.305663 0.386197
3461 4 0.113488 0.325519 0.39703
9 3 0.272317 0.259171 0.390814
584 4 0.309283 0.280904 0.411767
583 2 0.285582 0.288667 0.413553
585 4 0.261881 0.29643 0.415338
2529 4 0.313581 0.26178 0.416941
2179 2 0.363184 0.254698 0.360917
2181 4 0.371075 0.278344 0.362869
569 4 0.33427 0.337247 0.355022
3055 2 0.493524 0.316524 0.418055
276 4 0.507325 0.277978 0.33878
365 4 0.456941 0.313276 0.403362
3056 4 0.474011 0.322036 0.403424
364 2 0.44342 0.295783 0.415038
2612 4 0.0137478 0.354539 0.364428
593 4 0.140544 0.390824 0.36236
592 2 0.135005 0.402965 0.341216
411 4 0.140951 0.396488 0.381401
409 2 0.154154 0.377869 0.39161
410 4 0.167356 0.35925 0.401819
312 4 0.112084 0.343734 0.403799
1035 4 0.227763 0.34751 0.400355
1034 4 0.178285 0.343535 0.394277
1033 2 0.203024 0.345523 0.397316
3318 4 0.31946 0.348561 0.34765
3317 4 0.281393 0.351161 0.379974
3316 2 0.300427 0.349861 0.363812
892 2 0.355687 0.403684 0.390166
893 4 0.34198 0.394598 0.409001
894 4 0.369393 0.41277 0.37133
549 4 0.509091 0.378398 0.392653
812 4 0.489809 0.375226 0.394948
811 2 0.468817 0.375054 0.408531
447 4 0.295513 0.420583 0.414578
2689 2 0.260647 0.485944 0.375598
2691 4 0.266929 0.467835 0.391653
4322 4 0.282584 0.475012 0.401604
4321 2 0.294952 0.455419 0.411002
1801 2 0.379488 0.465 0.326389
669 4 0.41169 0.469367 0.337011
1803 4 0.395877 0.482678 0.333029
2900 4 0.0638057 0.0376561 0.422137
3797 4 0.0696745 0.048614 0.43858
3796 2 0.0787152 0.0281109 0.449674
3798 4 0.087756 0.00760778 0.460767
1968 4 0.200084 0.0626204 0.429577
220 3 0.191783 0.0674787 0.475239
218 3 0.191703 0.0780942 0.439115
219 3 0.223746 0.0657653 0.455413
216 1 0.203983 0.0774439 0.458792
2501 4 0.216409 0.0539929 0.439474
2500 2 0.234962 0.0419504 0.427814
2502 4 0.253515 0.029908 0.416153
4339 2 0.272507 0.0412078 0.482413
918 4 0.258334 0.0103668 0.497296
4340 4 0.287637 0.0609384 0.485057
4341 4 0.257377 0.0214772 0.479769
90 3 0.375572 0.00722139 0.47268
3396 4 0.382039 0.998566 0.456273
1062 4 0.33816 0.0785687 0.458139
2504 4 0.365236 0.0636302 0.487881
2578 2 0.0745621 0.106392 0.492367
2580 4 0.0675488 0.108733 0.468481
2891 4 0.0718309 0.0914337 0.458502
2892 4 0.110722 0.0853708 0.427657
636 4 0.128662 0.0898607 0.429849
2890 2 0.0912766 0.0884023 0.443079
3235 2 0.137586 0.168741 0.501972
217 3 0.209054 0.0989737 0.465107
2558 4 0.232246 0.0972146 0.446512
2557 2 0.256118 0.104561 0.447698
2801 4 0.214432 0.177116 0.427398
938 4 0.232765 0.169917 0.427739
937 2 0.24844 0.169256 0.447208
319 2 0.177456 0.126036 0.476055
320 4 0.190796 0.108512 0.464217
2559 4 0.279989 0.111907 0.448883
1061 4 0.299645 0.108797 0.447958
1060 2 0.318902 0.0936827 0.453048
684 4 0.390175 0.107617 0.42558
682 2 0.37357 0.0967464 0.440788
2715 4 0.402019 0.122854 0.431914
683 4 0.356965 0.0858755 0.455996
2713 2 0.413748 0.138358 0.41619
2322 4 0.0957261 0.240409 0.461769
2320 2 0.106024 0.222828 0.476261
2321 4 0.116322 0.205246 0.490753
3237 4 0.123204 0.189111 0.500129
2802 4 0.17197 0.203433 0.425131
2800 2 0.193201 0.190274 0.426265
1283 4 0.21507 0.197799 0.484785
641 4 0.327864 0.182464 0.459327
640 2 0.303489 0.182407 0.464902
939 4 0.264115 0.168595 0.466676
642 4 0.279115 0.182351 0.470478
3081 4 0.335657 0.179678 0.441485
3079 2 0.336534 0.172489 0.417553
3496 2 0.333495 0.209051 0.504417
3497 4 0.35817 0.210114 0.500519
1239 4 0.12231 0.347835 0.510452
3454 2 0.230859 0.310269 0.429998
662 4 0.207273 0.333787 0.456878
3456 4 0.219866 0.329586 0.441452
3455 4 0.241851 0.290951 0.418544
2496 4 0.377296 0.273549 0.436561
2528 4 0.358116 0.280303 0.430144
2527 2 0.335849 0.271041 0.423542
2494 2 0.401095 0.266276 0.434125
2495 4 0.424893 0.259004 0.431689
366 4 0.429898 0.27829 0.426714
1172 4 0.0808873 0.411429 0.422598
1238 4 0.157372 0.362981 0.478171
311 4 0.0933705 0.371866 0.440667
310 2 0.102727 0.3578 0.422233
1237 2 0.139841 0.355408 0.494311
661 2 0.184037 0.342663 0.459432
663 4 0.160801 0.351538 0.461987
445 2 0.294933 0.405563 0.43456
2560 2 0.290238 0.372219 0.486936
446 4 0.294354 0.390544 0.454542
2561 4 0.288487 0.393221 0.473481
2562 4 0.29199 0.351218 0.500391
346 2 0.376085 0.369977 0.490033
347 4 0.395256 0.381679 0.501022
348 4 0.356914 0.358276 0.479044
4044 4 0.4613 0.352534 0.488507
267 4 0.412314 0.379123 0.465294
813 4 0.447826 0.374882 0.422114
265 2 0.430632 0.38505 0.449341
4042 2 0.485994 0.351339 0.484767
266 4 0.448951 0.390978 0.433389
1171 2 0.0785072 0.432301 0.436158
560 4 0.0759453 0.46403 0.43291
1173 4 0.0761272 0.453174 0.449718
559 2 0.0801274 0.48447 0.446692
3422 4 0.0944667 0.505303 0.477424
2549 4 0.112806 0.422818 0.492207
1450 2 0.153622 0.431049 0.474481
1452 4 0.133434 0.424854 0.487868
2928 4 0.23265 0.418991 0.484812
1451 4 0.173811 0.437244 0.461094
2927 4 0.192036 0.44271 0.46782
2926 2 0.212343 0.430851 0.476316
1983 4 0.295745 0.480025 0.47194
2647 2 0.269829 0.435356 0.496179
4323 4 0.307321 0.435825 0.4204
2648 4 0.252197 0.418168 0.491838
2961 4 0.360757 0.495564 0.486144
4057 2 0.354782 0.488712 0.445074
4059 4 0.352824 0.484698 0.469676
2314 2 0.0758724 0.0496227 0.552857
2316 4 0.0561921 0.0399582 0.564876
2315 4 0.0955527 0.0592872 0.540838
2196 4 0.113196 0.0497588 0.539963
2553 4 0.17114 0.0586549 0.55298
2194 2 0.137667 0.0543788 0.537725
2195 4 0.162138 0.0589989 0.535486
2551 2 0.194606 0.067093 0.554801
2552 4 0.218073 0.075531 0.556621
1143 4 0.316676 0.0318482 0.53016
1141 2 0.330177 0.0131367 0.520528
4549 2 0.324476 0.0631389 0.497353
4551 4 0.301275 0.053951 0.498923
575 4 0.39374 0.012859 0.517431
574 2 0.415698 0.016923 0.528678
4550 4 0.347678 0.0723269 0.495784
2505 4 0.391914 0.0354465 0.51942
2503 2 0.378575 0.0495383 0.50365
1142 4 0.343678 0.994425 0.510896
88 3 0.357204 0.00978335 0.505447
3621 4 0.446279 0.00693776 0.55214
3619 2 0.463258 0.0234795 0.560093
576 4 0.437657 0.0209871 0.539926
3620 4 0.480237 0.0400212 0.568047
805 2 0.471804 0.0794898 0.563284
807 4 0.491815 0.0673177 0.554531
2579 4 0.0815754 0.104051 0.516252
982 2 0.0856966 0.118339 0.548053
3326 4 0.047268 0.140554 0.504732
983 4 0.0854725 0.0967073 0.535515
984 4 0.0859207 0.13997 0.56059
3325 2 0.0473499 0.165556 0.505022
2173 2 0.114134 0.162224 0.572508
3236 4 0.151969 0.148371 0.503815
321 4 0.164115 0.143559 0.487893
762 4 0.217796 0.088266 0.539894
760 2 0.238038 0.102944 0.539762
761 4 0.258279 0.117621 0.539631
3021 4 0.271016 0.112864 0.555309
3019 2 0.295685 0.115135 0.558697
1107 4 0.33604 0.105899 0.558702
3020 4 0.320353 0.117406 0.562084
2318 4 0.300252 0.156442 0.547842
1105 2 0.349711 0.122295 0.57172
1106 4 0.363382 0.13869 0.584738
2244 4 0.457083 0.110018 0.576304
2242 2 0.443787 0.130823 0.580255
806 4 0.451793 0.0916618 0.572036
966 4 0.0578713 0.195229 0.521633
964 2 0.0676821 0.205642 0.54214
965 4 0.0774928 0.216054 0.562646
3327 4 0.0474317 0.190559 0.505312
2175 4 0.0975578 0.155354 0.555095
3419 4 0.082943 0.234945 0.556916
1282 2 0.229119 0.201654 0.505107
1284 4 0.243168 0.205509 0.525428
2603 4 0.245183 0.195928 0.542372
3062 4 0.20112 0.175855 0.586194
2604 4 0.281543 0.163259 0.552928
2317 2 0.321697 0.169143 0.545846
2602 2 0.263363 0.179593 0.54765
3498 4 0.30882 0.207989 0.508315
2319 4 0.343141 0.181843 0.54385
3420 4 0.092338 0.28404 0.555395
890 4 0.108491 0.290528 0.546756
3418 2 0.0876405 0.259492 0.556156
889 2 0.110752 0.310292 0.531607
891 4 0.113013 0.330055 0.516458
3593 4 0.454296 0.334468 0.487064
3445 2 0.016385 0.400176 0.513777
3447 4 0.01372 0.406358 0.537857
2721 4 0.0234188 0.409063 0.554334
905 4 0.0361176 0.37026 0.568478
904 2 0.0520362 0.351612 0.573376
906 4 0.0679547 0.332963 0.578274
3446 4 0.0190501 0.393994 0.489697
84 3 0.0876628 0.336863 0.569942
83 3 0.114011 0.356523 0.589012
2847 4 0.233094 0.32357 0.539943
2845 2 0.240268 0.34667 0.546275
215 3 0.232424 0.398671 0.539749
1444 2 0.170747 0.414383 0.559742
1445 4 0.183497 0.408972 0.538925
2846 4 0.247443 0.36977 0.552608
3044 4 0.258866 0.384261 0.561719
3043 2 0.2814 0.394998 0.56027
1641 4 0.314022 0.421264 0.552777
3594 4 0.408403 0.35221 0.495994
1911 4 0.378587 0.417227 0.54925
1909 2 0.400982 0.425053 0.54135
3592 2 0.431349 0.343339 0.491529
2719 2 0.0432644 0.420086 0.564814
2720 4 0.06311 0.43111 0.575294
2550 4 0.102584 0.409597 0.53934
4177 2 0.104246 0.442699 0.569838
4178 4 0.107372 0.422258 0.555781
2548 2 0.107695 0.416208 0.515773
4179 4 0.101119 0.463139 0.583894
213 3 0.198451 0.406362 0.525456
212 3 0.214486 0.429694 0.550176
211 1 0.218593 0.415329 0.532686
214 3 0.228632 0.427179 0.515446
1639 2 0.337807 0.420048 0.545161
3045 4 0.303935 0.405735 0.55882
1488 4 0.292176 0.462671 0.515831
1486 2 0.292978 0.465901 0.540612
1487 4 0.29378 0.469131 0.565394
327 4 0.313481 0.464208 0.564024
2649 4 0.287462 0.452545 0.500519
1640 4 0.361592 0.418833 0.537546
1443 4 0.397972 0.490543 0.539178
1441 2 0.397353 0.476132 0.559601
1442 4 0.396733 0.46172 0.580025
2959 2 0.379551 0.495354 0.502634
2960 4 0.398346 0.495144 0.519123
1698 4 0.49533 0.452231 0.50802
1910 4 0.423377 0.432878 0.53345
3453 4 0.441056 0.440972 0.526288
3451 2 0.459795 0.450677 0.512878
3452 4 0.478535 0.460382 0.499468
3611 4 0.158994 0.00822657 0.624452
4503 4 0.14482 0.0128525 0.638136
4369 2 0.144526 0.0774015 0.64086
4371 4 0.167848 0.0684121 0.64157
3309 4 0.223692 0.0407805 0.630351
3307 2 0.218518 0.0208474 0.61617
4284 4 0.230837 0.0362183 0.648699
3308 4 0.213343 0.000914408 0.60199
1817 4 0.291484 0.993131 0.601533
3049 2 0.29163 0.0208771 0.633127
3050 4 0.297832 0.0395553 0.648549
268 2 0.329347 0.0643384 0.639407
270 4 0.310193 0.0554271 0.652782
269 4 0.348501 0.0732496 0.626033
3083 4 0.400613 0.0643536 0.615184
3082 2 0.376317 0.0686399 0.611124
3084 4 0.352021 0.0729263 0.607064
3298 2 0.0242688 0.114032 0.651885
3300 4 0.0483136 0.110959 0.645755
3360 4 0.0623342 0.109321 0.659728
3299 4 0.000223951 0.117105 0.658016
3358 2 0.0833562 0.103053 0.647729
2174 4 0.13071 0.169093 0.589922
3359 4 0.104378 0.0967854 0.635731
4370 4 0.121205 0.0863909 0.640151
3003 4 0.144249 0.17902 0.579233
3001 2 0.166329 0.176297 0.590645
3002 4 0.188409 0.173574 0.602058
3126 4 0.249992 0.143598 0.662527
3124 2 0.246682 0.158874 0.64301
3385 2 0.396237 0.158467 0.59674
3387 4 0.371506 0.156087 0.593931
2282 4 0.401573 0.0844748 0.617853
2243 4 0.430492 0.151628 0.584205
2281 2 0.420518 0.100233 0.622093
3386 4 0.420968 0.160847 0.599549
2978 4 0.480692 0.110565 0.663742
2977 2 0.469061 0.116228 0.642345
2283 4 0.439462 0.115991 0.626333
2979 4 0.457431 0.12189 0.620948
1086 4 0.476757 0.0908771 0.661347
3063 4 0.244502 0.186619 0.608621
3061 2 0.222811 0.181237 0.597407
3125 4 0.243372 0.174149 0.623493
3239 4 0.023985 0.294267 0.648568
3238 2 0.0484011 0.299607 0.647837
3240 4 0.0728171 0.304947 0.647107
960 4 0.0108158 0.284999 0.638033
82 3 0.118634 0.319772 0.582642
3093 4 0.089843 0.296071 0.655121
3091 2 0.107871 0.297421 0.637849
3092 4 0.125899 0.29877 0.620576
3435 4 0.142259 0.292976 0.610348
3433 2 0.16517 0.300467 0.616993
383 4 0.197152 0.292177 0.632119
3434 4 0.18808 0.307958 0.623638
382 2 0.217966 0.280745 0.639947
384 4 0.23878 0.269314 0.647775
81 1 0.103113 0.336115 0.587238
3220 2 0.108864 0.389661 0.601198
3221 4 0.0923541 0.408433 0.600764
85 3 0.0926087 0.331186 0.606834
3222 4 0.125374 0.370888 0.601633
1298 4 0.202582 0.352673 0.640659
1446 4 0.157997 0.419794 0.580558
3380 4 0.222749 0.353579 0.642361
3379 2 0.243658 0.367044 0.639778
1297 2 0.197138 0.353237 0.665057
3491 4 0.168586 0.423958 0.597146
3381 4 0.264567 0.38051 0.637195
1040 4 0.27121 0.369513 0.621822
1039 2 0.295638 0.364713 0.619496
1041 4 0.320066 0.359912 0.617171
998 4 0.335541 0.368706 0.627359
997 2 0.346477 0.372699 0.649487
3962 4 0.0591133 0.448759 0.582269
3961 2 0.0577407 0.470357 0.594792
3963 4 0.0563681 0.491955 0.607314
3490 2 0.188275 0.435223 0.607664
3492 4 0.207963 0.446488 0.618182
3120 4 0.231343 0.467841 0.657346
3118 2 0.255539 0.472999 0.65372
3119 4 0.279734 0.478158 0.650093
1204 2 0.321588 0.481552 0.654904
1206 4 0.299476 0.483084 0.643333
325 2 0.333977 0.466667 0.578134
326 4 0.354472 0.469126 0.592243
879 4 0.391125 0.458317 0.599686
4562 4 0.400062 0.504262 0.604917
4561 2 0.39117 0.506949 0.628131
878 4 0.423318 0.420058 0.598865
877 2 0.407222 0.439187 0.599276
1081 2 0.0146492 0.0722609 0.729279
3105 4 0.147757 0.038897 0.730309
3103 2 0.144828 0.0183965 0.716296
3104 4 0.1419 0.997896 0.702284
4283 4 0.221226 0.0159407 0.69339
4282 2 0.226031 0.0260795 0.671045
1082 4 0.0368702 0.0835339 0.731362
1023 4 0.0518238 0.0973197 0.731771
1021 2 0.0760221 0.0915372 0.734263
1022 4 0.10022 0.0857548 0.736755
2255 4 0.156455 0.0966193 0.728604
2254 2 0.131867 0.10026 0.731309
2256 4 0.107278 0.1039 0.734013
1003 2 0.185469 0.118062 0.732315
1005 4 0.197567 0.138413 0.724274
3007 2 0.226177 0.137446 0.698194
3009 4 0.214233 0.127807 0.717932
1004 4 0.173372 0.0977108 0.740356
3008 4 0.23812 0.147086 0.678456
2628 4 0.414362 0.154885 0.773482
3357 4 0.492105 0.0953894 0.719411
1084 2 0.48343 0.0851341 0.684749
1085 4 0.490103 0.0793911 0.708152
3355 2 0.479945 0.113121 0.732174
2627 4 0.454329 0.146127 0.744729
2626 2 0.434345 0.150506 0.759105
1208 4 0.0727565 0.207769 0.72971
3294 4 0.107888 0.176637 0.676385
1207 2 0.0927444 0.221044 0.736741
954 4 0.149733 0.207781 0.718705
3293 4 0.13524 0.195962 0.713522
3292 2 0.121564 0.1863 0.694953
1209 4 0.112732 0.234319 0.743771
4406 4 0.128364 0.223471 0.745613
952 2 0.172928 0.217096 0.719341
1075 2 0.235264 0.218189 0.735821
953 4 0.196123 0.226411 0.719977
1077 4 0.216001 0.228788 0.723913
3383 4 0.312652 0.318203 0.702425
3382 2 0.316709 0.29883 0.717702
3384 4 0.320766 0.279456 0.732979
3114 4 0.324566 0.331845 0.70827
921 4 0.339218 0.274513 0.728616
919 2 0.364047 0.27676 0.730535
920 4 0.388876 0.279007 0.732453
865 2 0.406228 0.315487 0.749371
4360 2 0.00369463 0.404856 0.700409
4362 4 0.0122422 0.395558 0.721989
4207 2 0.0453646 0.404193 0.737098
4209 4 0.0690005 0.396961 0.740869
4208 4 0.0217287 0.411425 0.733328
4437 4 0.0854796 0.388197 0.741766
4435 2 0.103701 0.405033 0.738645