ITEM: TIMESTEP
2486000
ITEM: NUMBER OF ATOMS
4590
ITEM: BOX BOUNDS xy xz yz pp pp pp
-1.5597769199999988e+01 9.9985700000000008e+00 -5.5991991999999868e+00
-9.9985700000000008e+00 9.9985700000000008e+00 0.0000000000000000e+00
-9.9985700000000008e+00 9.9985700000000008e+00 0.0000000000000000e+00
ITEM: ATOMS id type xs ys zs
3468 4 0.136309 0.0117947 0.0462556
3466 2 0.162027 0.0216842 0.0454228
3467 4 0.187746 0.0315737 0.0445899
2144 4 0.207206 0.0300183 0.047187
2143 2 0.213601 0.00987406 0.0385539
3068 4 0.502402 0.0266958 0.0279913
3284 4 0.00198263 0.140273 0.0569552
3243 4 0.00482236 0.128336 0.0717057
1823 4 0.0452034 0.121836 0.0469021
1822 2 0.062166 0.111171 0.0362494
1824 4 0.0791285 0.100506 0.0255967
572 4 0.0936346 0.155369 0.0213286
3048 4 0.0913361 0.0943332 0.0115872
3046 2 0.113694 0.103647 0.0237681
3047 4 0.136052 0.112961 0.0359489
1761 4 0.14406 0.10007 0.0484305
1759 2 0.167859 0.100101 0.056121
1760 4 0.191659 0.100132 0.0638116
393 4 0.211315 0.106377 0.068163
391 2 0.23633 0.107436 0.0717701
392 4 0.261346 0.108496 0.0753772
357 4 0.272344 0.107322 0.059197
355 2 0.296952 0.117368 0.066214
356 4 0.321561 0.127415 0.073231
758 4 0.32198 0.107235 0.0731336
757 2 0.342076 0.0972799 0.0746833
759 4 0.362171 0.0873244 0.076233
4121 4 0.487658 0.0996576 0.0444437
52 3 0.0225665 0.189922 0.0033789
102 3 0.117102 0.234744 0.00867867
104 3 0.102515 0.248422 0.0384505
1104 4 0.258303 0.243403 0.0553815
3338 4 0.375559 0.241832 0.0174561
3337 2 0.401448 0.248617 0.0155319
3339 4 0.427336 0.255402 0.0136078
3198 4 0.00670676 0.251056 0.0085309
2876 4 0.0248678 0.254895 0.0168521
2875 2 0.0416892 0.264255 0.0351811
2877 4 0.0585107 0.273614 0.0535101
2652 4 0.0770087 0.278052 0.0614838
101 1 0.120737 0.252465 0.0232847
103 3 0.121649 0.271786 0.0112475
105 3 0.141155 0.254608 0.0342991
914 4 0.15699 0.249625 0.0254503
915 4 0.194351 0.25921 0.0601833
913 2 0.17567 0.254417 0.0428168
108 3 0.213396 0.258677 0.0661566
449 4 0.184868 0.25655 0.077968
110 3 0.250576 0.257365 0.0636658
109 3 0.234767 0.271972 0.0352344
106 1 0.235395 0.269413 0.0582573
4547 4 0.237464 0.258056 0.0242353
107 3 0.242591 0.290213 0.0679842
4546 2 0.224765 0.263407 0.00436119
1102 2 0.279366 0.25179 0.0410777
1103 4 0.30043 0.260177 0.0267739
294 4 0.319178 0.258703 0.0313144
292 2 0.343574 0.258118 0.0266618
2725 2 0.367119 0.311633 0.0548861
2726 4 0.373214 0.295229 0.0704381
2727 4 0.361025 0.328036 0.039334
293 4 0.36797 0.257533 0.0220091
671 4 0.393172 0.300058 0.0751631
670 2 0.419004 0.305148 0.0732708
672 4 0.444836 0.310238 0.0713785
462 4 0.44798 0.315365 0.0523612
460 2 0.452191 0.321825 0.0283265
461 4 0.456402 0.328285 0.00429181
2523 4 0.447009 0.266914 0.0136098
2521 2 0.471664 0.276802 0.0205696
2522 4 0.496318 0.28669 0.0275294
1551 4 0.157352 0.389854 0.0181791
3542 4 0.159693 0.39003 0.0380688
1549 2 0.177248 0.400227 0.00305206
3541 2 0.176539 0.388944 0.0562317
3543 4 0.193385 0.387859 0.0743945
1466 4 0.211368 0.382035 0.0706917
3634 2 0.233214 0.40819 0.0114061
4187 4 0.264578 0.412448 0.0387354
3636 4 0.249157 0.401053 0.0272918
1465 2 0.235286 0.381164 0.0770675
252 4 0.312099 0.359265 0.083501
2747 4 0.379023 0.343374 0.0415791
2746 2 0.401718 0.360618 0.0445181
2748 4 0.424413 0.377862 0.0474572
1871 4 0.122071 0.444936 0.0140101
1870 2 0.138398 0.467877 0.014919
1872 4 0.154726 0.490818 0.0158279
2582 4 0.1847 0.428417 0.0342561
2581 2 0.205384 0.448263 0.035837
2583 4 0.226069 0.468109 0.0374179
902 4 0.232842 0.489849 0.0348368
1559 4 0.188423 0.490562 0.0799955
1632 4 0.153547 0.436276 0.0839267
134 3 0.2432 0.46305 0.0327412
131 1 0.259686 0.481077 0.0418297
135 3 0.270283 0.474193 0.0595607
132 3 0.276029 0.489959 0.0257592
4188 4 0.274935 0.456206 0.0628681
4186 2 0.269757 0.434327 0.0508017
133 3 0.249217 0.497392 0.0486181
4211 4 0.28831 0.467411 0.075008
3341 4 0.292341 0.482316 0.0205565
3340 2 0.313082 0.489526 0.00563362
73 3 0.448606 0.467567 0.0693693
71 1 0.458979 0.451035 0.0756962
75 3 0.469702 0.444631 0.0577805
72 3 0.442121 0.432917 0.0835708
648 4 0.483657 0.439535 0.0459742
3810 4 0.0901557 0.00559618 0.135314
3808 2 0.111615 0.0164499 0.148278
3809 4 0.133075 0.0273036 0.161242
3731 4 0.205061 0.00443055 0.128384
2743 2 0.451421 0.0638681 0.149423
2744 4 0.46149 0.0655984 0.126394
3241 2 0.00932132 0.14726 0.0880278
2615 4 0.144577 0.131623 0.145827
2614 2 0.162071 0.152787 0.152418
2518 2 0.394421 0.113708 0.162924
2519 4 0.415561 0.115485 0.148926
522 4 0.433538 0.130451 0.144822
520 2 0.457167 0.138741 0.1347
521 4 0.480796 0.14703 0.124579
3242 4 0.0138203 0.166184 0.10435
743 4 0.0130194 0.217469 0.148683
742 2 0.0364802 0.225848 0.138235
744 4 0.059941 0.234226 0.127787
2967 4 0.00687323 0.181541 0.0965373
2600 4 0.0814606 0.241805 0.125724
2599 2 0.107157 0.247074 0.122439
450 4 0.152095 0.249728 0.11672
2616 4 0.179565 0.173951 0.15901
836 4 0.385449 0.201095 0.161815
2976 4 0.401186 0.199742 0.149803
2974 2 0.426785 0.202627 0.151323
2975 4 0.452383 0.205512 0.152844
653 4 0.468182 0.198244 0.151131
652 2 0.493917 0.207666 0.14941
2092 2 0.0213711 0.31829 0.135882
528 4 0.00146434 0.25368 0.116242
2650 2 0.0722339 0.284591 0.0846958
526 2 0.0248337 0.270223 0.115592
527 4 0.048203 0.286767 0.114943
2651 4 0.0674591 0.291129 0.107908
2093 4 0.0449944 0.328505 0.145354
2601 4 0.132852 0.252343 0.119155
448 2 0.168481 0.253139 0.097344
845 4 0.202633 0.300818 0.0894051
844 2 0.201236 0.322693 0.0988964
518 4 0.249138 0.294329 0.142805
517 2 0.269681 0.307719 0.155606
519 4 0.290225 0.321109 0.168406
251 4 0.33701 0.328064 0.103375
412 2 0.353066 0.287475 0.159177
287 4 0.356482 0.332954 0.108299
414 4 0.376182 0.298234 0.148916
351 4 0.395143 0.299352 0.141183
349 2 0.419652 0.302921 0.133455
350 4 0.444161 0.30649 0.125726
524 4 0.459022 0.298615 0.11897
523 2 0.478586 0.302671 0.102565
3704 4 0.0178597 0.389432 0.161905
303 4 0.039526 0.395499 0.162147
301 2 0.0654171 0.40105 0.163598
302 4 0.0913082 0.406601 0.165049
1664 4 0.102787 0.394483 0.169333
846 4 0.19984 0.344569 0.108388
596 4 0.279742 0.382307 0.0891737
1467 4 0.259204 0.380294 0.0834433
595 2 0.305706 0.38928 0.0894283
597 4 0.331669 0.396254 0.089683
3389 4 0.352121 0.397382 0.0923768
250 2 0.324554 0.343665 0.0934379
3388 2 0.377683 0.408231 0.0927551
286 2 0.375905 0.337298 0.124878
288 4 0.395327 0.341641 0.141456
713 4 0.410778 0.355032 0.150938
2798 4 0.465859 0.377743 0.0906136
2797 2 0.469845 0.38346 0.114837
2799 4 0.473832 0.389178 0.139061
612 4 0.485547 0.401528 0.15233
3819 4 0.012109 0.425454 0.117031
3817 2 0.0377225 0.434518 0.120278
3818 4 0.063336 0.443583 0.123525
677 4 0.0807041 0.451229 0.132522
676 2 0.10639 0.459683 0.135681
678 4 0.132075 0.468136 0.138841
315 4 0.151339 0.468514 0.147936
1631 4 0.172888 0.484751 0.0947743
1630 2 0.163218 0.460514 0.0893505
313 2 0.173804 0.483386 0.139624
314 4 0.196268 0.498258 0.131311
4210 2 0.303998 0.481496 0.0920039
4212 4 0.319686 0.495581 0.109
2919 4 0.333812 0.486291 0.112657
2917 2 0.347891 0.489325 0.133656
2918 4 0.36197 0.49236 0.154656
1710 4 0.423281 0.493785 0.088454
3390 4 0.403246 0.419079 0.0931334
3671 4 0.410236 0.489128 0.103456
3670 2 0.407641 0.490278 0.128262
3672 4 0.405046 0.491429 0.153068
777 4 0.423147 0.498403 0.162051
3000 4 0.424969 0.425234 0.0977839
74 3 0.474999 0.458918 0.0925923
2998 2 0.437692 0.419664 0.117537
2999 4 0.450416 0.414095 0.13729
2913 4 0.46417 0.432325 0.133174
2911 2 0.490036 0.437881 0.135003
255 4 0.216336 0.042846 0.163696
253 2 0.227856 0.0550944 0.183937
254 4 0.239377 0.0673428 0.204178
632 4 0.240171 0.0521714 0.218236
631 2 0.251175 0.0486304 0.239887
429 4 0.343817 0.00514166 0.239863
2756 4 0.359629 0.0193457 0.231263
2755 2 0.380406 0.0149972 0.220193
2757 4 0.401182 0.0106487 0.209123
2738 4 0.420986 0.0145483 0.20396
2745 4 0.441353 0.0621378 0.172453
698 4 0.487774 0.0824012 0.222892
2737 2 0.444536 0.0105323 0.203493
2739 4 0.468086 0.00651625 0.203025
1347 4 0.488415 0.0172066 0.203698
2880 4 0.0166465 0.0930453 0.240807
4352 4 0.106895 0.115157 0.200769
4351 2 0.127604 0.106227 0.198171
4353 4 0.148313 0.0972967 0.195574
749 4 0.167076 0.0966179 0.200513
731 4 0.211252 0.134454 0.21667
748 2 0.192947 0.102346 0.198642
730 2 0.234171 0.151194 0.213127
750 4 0.218818 0.108074 0.196772
1479 4 0.239956 0.114534 0.192236
1477 2 0.264261 0.118778 0.183706
1478 4 0.288567 0.123022 0.175177
2778 4 0.307134 0.133507 0.182454
2776 2 0.331802 0.142762 0.189676
2777 4 0.35647 0.152017 0.196898
2929 2 0.368891 0.118777 0.211675
2931 4 0.369586 0.136173 0.229144
2453 4 0.377831 0.160133 0.196551
2930 4 0.368195 0.101382 0.194206
2520 4 0.373281 0.111931 0.176922
419 4 0.382322 0.137109 0.245569
1747 2 0.496518 0.136399 0.223101
1748 4 0.483665 0.142106 0.242693
578 4 0.00498681 0.174433 0.170036
387 4 0.025009 0.180834 0.170912
385 2 0.0496653 0.192876 0.176124
386 4 0.0743217 0.204917 0.181336
537 4 0.112201 0.196348 0.244138
1394 4 0.0962758 0.234037 0.230973
509 4 0.128501 0.196577 0.230784
508 2 0.153562 0.208025 0.226721
510 4 0.178622 0.219473 0.222658
1200 4 0.198802 0.230261 0.222046
2516 4 0.192104 0.224006 0.186327
2517 4 0.194706 0.178476 0.172467
2515 2 0.193405 0.201241 0.179397
1198 2 0.22383 0.242399 0.218876
732 4 0.257091 0.167934 0.209583
275 4 0.251835 0.248578 0.234114
2478 4 0.277494 0.167803 0.211371
2476 2 0.300975 0.178796 0.201988
2477 4 0.324457 0.189789 0.192605
837 4 0.335886 0.191476 0.176357
835 2 0.360667 0.196285 0.169086
2452 2 0.403276 0.171344 0.197937
2671 2 0.451851 0.2213 0.246324
2454 4 0.428721 0.182556 0.199324
2672 4 0.466467 0.212568 0.230266
2951 4 0.449297 0.193507 0.203423
2950 2 0.472831 0.209261 0.200058
2952 4 0.496366 0.225014 0.196692
1393 2 0.113163 0.256244 0.226704
1395 4 0.130049 0.278451 0.222435
3404 4 0.166331 0.309846 0.22389
3403 2 0.181988 0.330734 0.214263
1199 4 0.248857 0.254538 0.215705
2461 2 0.288454 0.263985 0.189901
274 2 0.276395 0.256136 0.242135
2463 4 0.26594 0.258892 0.202333
2903 4 0.302742 0.323511 0.183358
2902 2 0.305872 0.324521 0.208179
2904 4 0.309003 0.325531 0.233
2541 4 0.316604 0.321489 0.249646
413 4 0.32995 0.276715 0.169438
2462 4 0.310968 0.269078 0.177469
1219 2 0.334593 0.286937 0.235901
1221 4 0.346151 0.307618 0.223085
1663 2 0.128487 0.398198 0.167519
1665 4 0.154187 0.401913 0.165705
3830 4 0.173816 0.405754 0.171904
3829 2 0.19788 0.415159 0.180705
3695 4 0.212757 0.363941 0.19351
3405 4 0.197645 0.351622 0.204636
3694 2 0.238379 0.367285 0.191351
3696 4 0.264 0.370628 0.189191
3449 4 0.394106 0.377034 0.211802
714 4 0.398161 0.378756 0.190523
712 2 0.40447 0.366894 0.17073
3448 2 0.414824 0.394998 0.21931
3450 4 0.435542 0.412962 0.226819
1187 4 0.0975592 0.42442 0.236987
500 4 0.144525 0.482775 0.228586
645 4 0.139959 0.483086 0.209152
499 2 0.157963 0.492724 0.248902
753 4 0.186008 0.460584 0.193426
644 4 0.167423 0.45618 0.18566
643 2 0.153691 0.469633 0.197406
751 2 0.211715 0.470481 0.192328
752 4 0.237422 0.480378 0.191229
3831 4 0.221944 0.424563 0.189507
4005 4 0.241507 0.423347 0.192877
4003 2 0.264216 0.425755 0.204446
4004 4 0.286926 0.428163 0.216015
1855 2 0.319459 0.430943 0.238752
1856 4 0.306951 0.429851 0.216956
2874 4 0.454288 0.416788 0.234745
2872 2 0.477754 0.423155 0.245445
633 4 0.262178 0.0450893 0.261538
3926 4 0.264094 0.0544317 0.279442
1497 4 0.242333 0.0375719 0.326008
3925 2 0.28823 0.0518816 0.280518
3927 4 0.312366 0.0493314 0.281594
3698 4 0.312811 0.0567102 0.299438
3697 2 0.334683 0.0537704 0.309511
3521 4 0.278286 0.998508 0.265522
3699 4 0.356554 0.0508306 0.319584
546 4 0.42086 0.0653741 0.330991
3723 4 0.485877 0.0698266 0.291801
2113 2 0.462885 0.0112281 0.32729
2114 4 0.486457 0.0235204 0.335588
2878 2 0.00111216 0.104495 0.252762
605 4 0.0330933 0.0937951 0.252905
30 3 0.0415491 0.146946 0.307028
405 4 0.0404783 0.128342 0.309486
604 2 0.0547746 0.110092 0.261063
403 2 0.0630073 0.125423 0.317948
606 4 0.0764559 0.12639 0.269221
404 4 0.0855363 0.122504 0.32641
591 4 0.0990675 0.13403 0.313808
589 2 0.119581 0.125544 0.319213
590 4 0.140095 0.117059 0.324619
2849 4 0.158705 0.13109 0.323101
2848 2 0.182692 0.137844 0.332658
418 2 0.403788 0.133677 0.256077
258 4 0.446064 0.106978 0.311441
256 2 0.429056 0.111704 0.295107
257 4 0.412049 0.11643 0.278772
420 4 0.425254 0.130245 0.266586
1190 4 0.501541 0.131702 0.320127
176 1 0.493999 0.163738 0.279148
179 3 0.485321 0.148471 0.296056
180 3 0.488191 0.153924 0.258826
514 2 0.488205 0.110567 0.294926
515 4 0.487891 0.0888935 0.283866
516 4 0.48852 0.132241 0.305985
28 3 0.0198892 0.170459 0.29884
26 1 0.042271 0.168387 0.301463
29 3 0.0547294 0.174351 0.281804
726 4 0.0683628 0.199056 0.318679
27 3 0.053086 0.182493 0.318287
536 4 0.0696488 0.190422 0.272306
724 2 0.0931253 0.212725 0.318949
535 2 0.0909249 0.193385 0.258222
725 4 0.117888 0.226393 0.319219
1031 4 0.139744 0.227984 0.318983
1030 2 0.16052 0.24772 0.317218
2493 4 0.129888 0.178094 0.334168
2180 4 0.313902 0.218678 0.274997
2179 2 0.33185 0.208552 0.284522
2181 4 0.349798 0.198427 0.294047
2790 4 0.370074 0.205623 0.289866
2788 2 0.395228 0.206723 0.287288
2789 4 0.420383 0.207823 0.28471
2673 4 0.437235 0.230032 0.262382
2954 4 0.421537 0.190234 0.290568
2953 2 0.445855 0.196919 0.299325
2955 4 0.470172 0.203605 0.308081
1056 4 0.44447 0.247045 0.327661
1953 4 0.48866 0.21511 0.315033
177 3 0.484526 0.181514 0.28123
2752 2 0.0219501 0.302238 0.252013
2754 4 0.0469985 0.305403 0.257614
2786 4 0.185604 0.292177 0.251758
343 2 0.188787 0.314723 0.32965
2787 4 0.176775 0.276951 0.299172
2785 2 0.18119 0.284564 0.275465
1032 4 0.181297 0.267456 0.315453
2681 4 0.230913 0.326619 0.323148
344 4 0.211016 0.326863 0.318549
2680 2 0.252026 0.328051 0.309215
2682 4 0.273139 0.329484 0.295281
2540 4 0.2939 0.330775 0.291766
2539 2 0.305252 0.326132 0.270706
276 4 0.300955 0.263694 0.250157
1220 4 0.323036 0.266256 0.248717
1054 2 0.468322 0.260828 0.321703
1055 4 0.492174 0.274612 0.315746
375 4 0.304675 0.408452 0.317772
4032 4 0.0413092 0.463343 0.295692
4030 2 0.0655754 0.462133 0.299972
3958 2 0.129132 0.483041 0.319496
3959 4 0.103959 0.475753 0.313418
4031 4 0.0898417 0.460923 0.304252
1186 2 0.115265 0.42448 0.254658
1188 4 0.132972 0.42454 0.272329
3960 4 0.154305 0.490328 0.325575
1803 4 0.188283 0.45289 0.312764
4574 4 0.174849 0.499071 0.320512
1801 2 0.168246 0.438543 0.300008
1802 4 0.148209 0.424197 0.287252
1578 4 0.22724 0.486568 0.299076
501 4 0.171402 0.502672 0.269218
1576 2 0.252163 0.499585 0.300808
1857 4 0.331968 0.432036 0.260549
374 4 0.31358 0.427836 0.271806
373 2 0.309128 0.418144 0.294789
2456 4 0.10287 0.00446169 0.409377
686 4 0.21647 0.0661837 0.376895
1496 4 0.214541 0.0563353 0.358513
1495 2 0.228437 0.0469536 0.34226
1059 4 0.270791 0.00506755 0.395876
618 4 0.283885 0.0214728 0.389633
708 4 0.337254 0.00984884 0.360062
617 4 0.329537 0.0235641 0.36806
616 2 0.306711 0.0225184 0.378846
1126 2 0.407469 0.00497891 0.339991
544 2 0.395054 0.0592793 0.333689
545 4 0.369248 0.0531846 0.336387
706 2 0.359167 0.00326971 0.364258
1127 4 0.395462 0.0123674 0.35929
600 4 0.499714 0.00692873 0.400371
249 4 0.442779 0.0722458 0.333747
248 4 0.493643 0.0771058 0.338895
247 2 0.468211 0.0746758 0.336321
473 4 0.0249589 0.159872 0.36755
369 4 0.0261446 0.141692 0.366601
367 2 0.0507738 0.153006 0.36055
368 4 0.0754029 0.16432 0.354499
2492 4 0.0900611 0.156565 0.364083
2850 4 0.206679 0.144598 0.342214
3572 4 0.224832 0.159008 0.343646
3571 2 0.236557 0.142916 0.353784
687 4 0.22844 0.115573 0.369277
685 2 0.222455 0.0908783 0.373086
3573 4 0.248282 0.126824 0.363921
472 2 0.00873732 0.174125 0.371222
2491 2 0.109975 0.16733 0.349125
2483 4 0.136693 0.184078 0.412758
2482 2 0.155524 0.189343 0.395547
8 3 0.18276 0.199626 0.360471
2484 4 0.174355 0.194608 0.378336
10 3 0.220137 0.213597 0.350345
641 4 0.214869 0.196141 0.39967
7 3 0.210878 0.208568 0.386482
9 3 0.201428 0.236026 0.367378
6 1 0.203871 0.21447 0.366005
2957 4 0.238344 0.210618 0.356292
2956 2 0.262142 0.207398 0.354111
2654 4 0.30741 0.210271 0.349571
2958 4 0.285939 0.204177 0.351931
2653 2 0.333031 0.220576 0.35102
2655 4 0.358652 0.230881 0.352469
2526 4 0.373182 0.22547 0.342536
2524 2 0.398659 0.233653 0.337994
2525 4 0.424136 0.241836 0.333451
2822 4 0.46203 0.215228 0.393302
2821 2 0.484507 0.210503 0.399336
3081 4 0.117271 0.256565 0.409078
2597 4 0.129074 0.331209 0.385199
3496 2 0.101006 0.280375 0.40464
2596 2 0.142816 0.320075 0.37047
3498 4 0.113102 0.265776 0.392387
2598 4 0.156559 0.308941 0.355741
345 4 0.166558 0.302582 0.340752
871 2 0.203355 0.259541 0.405958
873 4 0.220921 0.260687 0.38789
2510 4 0.239565 0.25967 0.393452
1027 2 0.24688 0.323402 0.415365
1028 4 0.271761 0.327223 0.408762
2509 2 0.258374 0.2528 0.405623
2712 4 0.322623 0.322618 0.378651
371 4 0.0196018 0.341935 0.371188
2611 2 0.0656299 0.354623 0.364177
2613 4 0.0398971 0.348736 0.367413
2612 4 0.0913628 0.360509 0.360941
261 4 0.112243 0.368353 0.359409
259 2 0.138111 0.37301 0.359085
260 4 0.163979 0.377667 0.358761
594 4 0.186284 0.378221 0.35845
593 4 0.236373 0.378695 0.356257
592 2 0.211329 0.378458 0.357354
3318 4 0.25496 0.377266 0.349264
3316 2 0.279653 0.376615 0.346818
2710 2 0.303895 0.331875 0.387866
2711 4 0.285166 0.341132 0.397081
3317 4 0.304345 0.375963 0.344371
669 4 0.32595 0.374227 0.343094
667 2 0.351867 0.381062 0.341571
668 4 0.377784 0.387897 0.340047
1436 4 0.398868 0.390587 0.335333
1435 2 0.424716 0.397903 0.337622
1437 4 0.450564 0.405219 0.339911
265 2 0.439013 0.383307 0.411239
679 2 0.498759 0.414589 0.33118
681 4 0.473427 0.408954 0.336578
266 4 0.461765 0.388287 0.399228
813 4 0.479233 0.38091 0.396819
4322 4 0.112027 0.438359 0.4164
4321 2 0.132564 0.442653 0.401139
445 2 0.187704 0.451208 0.363947
447 4 0.163086 0.450838 0.368857
4323 4 0.153102 0.446948 0.385877
446 4 0.212322 0.451579 0.359038
602 4 0.322551 0.442726 0.394133
601 2 0.326581 0.454422 0.416219
1337 4 0.333816 0.431054 0.385171
1336 2 0.353719 0.425243 0.373863
1338 4 0.373623 0.419433 0.362555
2558 4 0.0207603 0.0348907 0.481069
217 3 0.0408546 0.0401807 0.477935
220 3 0.0453765 0.016862 0.450973
216 1 0.055567 0.036448 0.461598
218 3 0.059892 0.0540146 0.44645
219 3 0.0761736 0.035243 0.471513
2455 2 0.123772 0.0226451 0.416053
2457 4 0.144674 0.0408286 0.422729
3395 4 0.143963 0.0197458 0.499939
3394 2 0.168656 0.0325369 0.495949
3396 4 0.193348 0.0453279 0.491959
1182 4 0.202936 0.0171247 0.446867
90 3 0.215338 0.0507728 0.49286
575 4 0.274012 0.0585606 0.48834
89 3 0.252855 0.0514522 0.48797
574 2 0.299442 0.0637817 0.483494
3621 4 0.344624 0.069947 0.477983
576 4 0.324871 0.0690027 0.478648
3619 2 0.369556 0.0746303 0.471253
3620 4 0.394489 0.0793135 0.464523
2657 4 0.41373 0.0802791 0.466303
2502 4 0.999962 0.0818501 0.463322
2500 2 0.0233303 0.0905712 0.473869
2501 4 0.0466985 0.0992923 0.484417
4341 4 0.0647969 0.098321 0.492856
4339 2 0.085785 0.0897671 0.495145
764 4 0.110811 0.153828 0.486002
763 2 0.13453 0.151615 0.491284
4551 4 0.126829 0.081646 0.495719
2684 4 0.168562 0.153431 0.477738
765 4 0.158249 0.149401 0.496566
3031 2 0.294867 0.13485 0.47749
938 4 0.298865 0.161651 0.458915
3032 4 0.281159 0.148935 0.466755
3033 4 0.308574 0.120765 0.488224
945 4 0.319578 0.121525 0.47114
943 2 0.341512 0.124767 0.458003
3327 4 0.380996 0.137611 0.453877
944 4 0.363445 0.128008 0.444866
3325 2 0.397928 0.130429 0.468533
3326 4 0.414859 0.123248 0.483189
2656 2 0.439226 0.0892975 0.462278
2658 4 0.464722 0.0983158 0.458252
984 4 0.484983 0.108022 0.458252
2802 4 0.1147 0.167957 0.471357
2800 2 0.116901 0.173057 0.446891
2801 4 0.119103 0.178158 0.422425
2683 2 0.19217 0.168584 0.473202
642 4 0.210464 0.222458 0.440529
640 2 0.212666 0.209299 0.420099
2586 4 0.223861 0.204204 0.465575
2685 4 0.215778 0.183738 0.468667
2584 2 0.248763 0.205957 0.460455
2511 4 0.277183 0.245931 0.417794
939 4 0.279245 0.197426 0.440409
2585 4 0.273665 0.20771 0.455335
937 2 0.289055 0.179538 0.449662
2816 4 0.479654 0.201363 0.480724
2815 2 0.487595 0.185039 0.494943
3497 4 0.0889097 0.294973 0.416892
3079 2 0.140786 0.255134 0.416231
238 2 0.130621 0.284616 0.46868
239 4 0.111479 0.290208 0.481528
240 4 0.149764 0.279023 0.455832
3080 4 0.164301 0.253703 0.423384
2636 4 0.16005 0.296028 0.44838
872 4 0.185788 0.258395 0.424026
2635 2 0.185355 0.304505 0.44314
1029 4 0.221999 0.319582 0.421969
2637 4 0.21066 0.312982 0.4379
3059 4 0.288105 0.258024 0.432837
3058 2 0.292747 0.26966 0.454925
408 4 0.304862 0.294205 0.493605
406 2 0.330741 0.302616 0.494657
3060 4 0.297389 0.281296 0.477013
407 4 0.356619 0.311027 0.495709
311 4 0.422204 0.330094 0.481609
310 2 0.443624 0.32392 0.488763
312 4 0.465045 0.317745 0.495917
3331 2 0.0239259 0.362787 0.492043
3333 4 0.00543404 0.374134 0.486861
3332 4 0.0424178 0.35144 0.497226
3456 4 0.226551 0.36194 0.476466
3454 2 0.244568 0.353263 0.464983
2561 4 0.279596 0.355961 0.44556
3455 4 0.262585 0.344586 0.453501
2560 2 0.30355 0.366974 0.437293
1911 4 0.324435 0.372223 0.499575
2562 4 0.327503 0.377987 0.429027
1909 2 0.349175 0.371344 0.499967
348 4 0.348047 0.378587 0.428483
346 2 0.370972 0.373337 0.426902
1910 4 0.373915 0.370466 0.500359
347 4 0.393897 0.368087 0.42532
662 4 0.392901 0.372024 0.493686
267 4 0.416261 0.378328 0.423249
661 2 0.417695 0.372217 0.490069
663 4 0.442489 0.37241 0.486452
4043 4 0.461343 0.371347 0.480209
4042 2 0.48461 0.375525 0.46928
2928 4 0.036632 0.452719 0.4295
2926 2 0.0127458 0.44711 0.439285
2648 4 0.0500951 0.44188 0.424993
2649 4 0.100672 0.445608 0.430771
2647 2 0.0753833 0.443744 0.427882
3453 4 0.108862 0.420271 0.486923
3451 2 0.131625 0.419842 0.49699
2740 2 0.358069 0.461176 0.466067
2742 4 0.341901 0.471943 0.454182
603 4 0.330612 0.466118 0.438305
4250 4 0.394011 0.457045 0.484708
2741 4 0.374238 0.450409 0.477952
4340 4 0.106773 0.0812132 0.497434
4550 4 0.175823 0.0844432 0.508707
2489 4 0.198178 0.0338974 0.56914
2488 2 0.208947 0.0308328 0.547217
2490 4 0.219715 0.0277682 0.525294
88 3 0.2432 0.0776021 0.509705
87 3 0.235449 0.0418886 0.521201
86 1 0.236591 0.0554497 0.502811
2244 4 0.0234367 0.132274 0.556408
806 4 0.0353805 0.1231 0.568436
2242 2 0.997744 0.123032 0.553965
805 2 0.0599468 0.126717 0.576008
807 4 0.0845131 0.130334 0.583581
978 4 0.102893 0.129405 0.573358
4549 2 0.151326 0.0830446 0.502213
2504 4 0.186128 0.095527 0.523889
2503 2 0.210476 0.0936595 0.522116
2505 4 0.234825 0.091792 0.520344
321 4 0.438392 0.156363 0.529693
319 2 0.429925 0.136341 0.514993
320 4 0.421457 0.116318 0.500293
898 2 0.0622605 0.224786 0.578758
900 4 0.0878198 0.233846 0.575141
2603 4 0.177313 0.225776 0.562321
2602 2 0.201129 0.23147 0.552373
965 4 0.172795 0.171313 0.575053
2322 4 0.175394 0.166321 0.556084
2320 2 0.1958 0.177767 0.542001
2604 4 0.224945 0.237164 0.542425
2321 4 0.216205 0.189213 0.527919
3237 4 0.231517 0.204606 0.521491
2964 4 0.235809 0.249434 0.556597
3235 2 0.256633 0.205154 0.522828
3236 4 0.281748 0.205701 0.524165
1284 4 0.285704 0.194223 0.510781
1282 2 0.308014 0.194792 0.522365
1210 2 0.324532 0.246165 0.573465
1283 4 0.330324 0.195362 0.53395
1211 4 0.343553 0.238519 0.584368
305 4 0.18637 0.279622 0.523007
304 2 0.21147 0.282354 0.528056
306 4 0.236571 0.285086 0.533105
2962 2 0.260392 0.248851 0.560121
2963 4 0.284976 0.248267 0.563645
1212 4 0.305511 0.25381 0.562561
803 4 0.372251 0.316492 0.508711
802 2 0.377661 0.310923 0.532069
804 4 0.383071 0.305355 0.555428
1238 4 0.432099 0.320159 0.531748
2550 4 0.088927 0.385823 0.569232
2548 2 0.101748 0.368424 0.566162
2549 4 0.11457 0.351026 0.563091
2847 4 0.124733 0.338443 0.558372
2845 2 0.149152 0.345077 0.54988
2846 4 0.173572 0.351711 0.541387
3044 4 0.190162 0.362604 0.53194
3043 2 0.215839 0.36742 0.528762
3045 4 0.241516 0.372235 0.525585
1641 4 0.256303 0.367779 0.514655
1639 2 0.280152 0.366751 0.50821
1640 4 0.304002 0.365723 0.501765
1237 2 0.454299 0.333179 0.542302
1239 4 0.4765 0.346199 0.552856
891 4 0.493938 0.357635 0.557766
1698 4 0.175144 0.427426 0.50556
3452 4 0.154389 0.419413 0.507056
1696 2 0.199517 0.434013 0.514179
1697 4 0.223889 0.4406 0.522798
3975 4 0.243797 0.441878 0.522279
3973 2 0.26613 0.457058 0.514047
3464 4 0.284763 0.481141 0.562576
2130 4 0.305585 0.485065 0.498562
3463 2 0.30531 0.475429 0.572679
3974 4 0.288462 0.472238 0.505814
3465 4 0.325858 0.469718 0.582782
796 2 0.368264 0.467932 0.574972
798 4 0.390973 0.463667 0.569005
1136 4 0.408193 0.470475 0.557531
1135 2 0.430969 0.465379 0.561198
4251 4 0.434507 0.455293 0.513306
1137 4 0.453744 0.460282 0.564866
791 4 0.472714 0.466218 0.555907
4249 2 0.414259 0.456169 0.499007
790 2 0.49833 0.476691 0.55492
3051 4 0.0179265 0.0629321 0.625892
2507 4 0.0237647 0.0452892 0.624759
2506 2 0.0475309 0.0564145 0.616101
2508 4 0.0712972 0.0675399 0.607443
1142 4 0.0870869 0.0761087 0.594862
3024 4 0.107785 0.0677092 0.641451
3022 2 0.104629 0.0627028 0.665886
1141 2 0.104695 0.0784016 0.613086
918 4 0.189778 0.0320091 0.588794
3307 2 0.201379 0.0118147 0.660747
916 2 0.194072 0.0118611 0.599773
3109 2 0.0110809 0.164853 0.606265
976 2 0.124199 0.13527 0.587645
1085 4 0.0873051 0.105341 0.659665
1143 4 0.122303 0.0806946 0.631309
977 4 0.145505 0.141136 0.601933
4370 4 0.404637 0.142494 0.60276
3359 4 0.395069 0.109058 0.655393
4369 2 0.414411 0.125073 0.613104
4371 4 0.424185 0.107652 0.623449
3062 4 0.439333 0.112895 0.637261
3061 2 0.461643 0.124618 0.648474
3063 4 0.483953 0.13634 0.659687
3205 2 0.000132014 0.219948 0.603604
3206 4 0.0202803 0.212702 0.594613
899 4 0.0367012 0.215726 0.582374
3111 4 0.0360298 0.177206 0.609546
3267 4 0.0541667 0.188288 0.615036
3265 2 0.0716633 0.188025 0.632824
3266 4 0.0891599 0.187761 0.650612
145 3 0.112023 0.191081 0.654254
964 2 0.182561 0.176375 0.598072
2175 4 0.209636 0.178505 0.626635
966 4 0.192327 0.181438 0.62109
2173 2 0.2354 0.18585 0.623608
2174 4 0.261165 0.193194 0.620581
3003 4 0.269931 0.212415 0.618862
3001 2 0.291512 0.229775 0.625514
3002 4 0.313093 0.247135 0.632167
2240 4 0.500586 0.253172 0.597857
3447 4 0.252287 0.331301 0.591641
2814 4 0.363924 0.247552 0.586308
2812 2 0.389716 0.256422 0.584502
2813 4 0.415507 0.265292 0.582696
3180 4 0.480095 0.254011 0.600782
3179 4 0.43823 0.267604 0.585619
3178 2 0.459162 0.260807 0.5932
3354 4 0.180426 0.35857 0.649566
3375 4 0.186207 0.370793 0.664995
3352 2 0.199255 0.364176 0.632365
3353 4 0.218084 0.369782 0.615164
3446 4 0.216497 0.350314 0.612829
3445 2 0.234392 0.340808 0.602235
2721 4 0.26857 0.344552 0.600486
2719 2 0.294504 0.350427 0.601348
2720 4 0.320438 0.356301 0.60221
3221 4 0.337083 0.355201 0.592531
3220 2 0.358212 0.346765 0.594009
3222 4 0.379342 0.33833 0.595487
3491 4 0.395548 0.354291 0.595181
3490 2 0.413332 0.374542 0.603449
3492 4 0.431116 0.394793 0.611717
4091 4 0.222188 0.494289 0.632519
2138 4 0.231262 0.490552 0.614993
2137 2 0.255868 0.493513 0.622139
2139 4 0.280474 0.496474 0.629285
2369 4 0.277251 0.496959 0.650342
4445 4 0.247323 0.432583 0.663922
2368 2 0.302579 0.499599 0.65403
797 4 0.345555 0.472198 0.580938
1819 2 0.349066 0.495887 0.625782
1820 4 0.367308 0.487843 0.613931
4484 4 0.36938 0.468593 0.618882
4483 2 0.390687 0.469627 0.632386
4485 4 0.411994 0.470662 0.64589
1037 4 0.0924046 0.0379155 0.693983
3023 4 0.101473 0.0576965 0.690321
1036 2 0.0983327 0.0160148 0.694271
4282 2 0.149372 0.000209234 0.685046
4284 4 0.173238 0.00588602 0.67521
3309 4 0.1831 0.0226585 0.668045
4386 4 0.228184 0.0230481 0.740626
2133 4 0.244516 0.0383058 0.740432
3612 4 0.24392 0.00774198 0.687596
2131 2 0.25041 0.0314664 0.717685
2132 4 0.256304 0.0246269 0.694939
4115 4 0.344169 0.054873 0.674019
4114 2 0.369338 0.0570682 0.678195
3103 2 0.35665 0.00429967 0.691577
4116 4 0.394507 0.0592633 0.682371
3105 4 0.377243 0.0210716 0.682027
3294 4 0.409453 0.0720776 0.693499
3292 2 0.433586 0.0696487 0.695391
3293 4 0.45772 0.0672199 0.697283
954 4 0.477871 0.0656994 0.69635
2977 2 0.00146094 0.112421 0.668578
3108 4 0.0424399 0.149698 0.735705
3165 4 0.0415068 0.13306 0.723672
2978 4 0.0220787 0.103911 0.673446
1086 4 0.0395361 0.0987762 0.678321
3163 2 0.0592086 0.143451 0.706398
1084 2 0.0634206 0.102059 0.668993
3164 4 0.0769103 0.153842 0.689123
897 4 0.0994123 0.112617 0.676244
895 2 0.123829 0.118124 0.684706
896 4 0.148246 0.12363 0.693168
1013 4 0.167259 0.139017 0.693469
1012 2 0.19278 0.149614 0.695521
1014 4 0.218301 0.160211 0.697573
4128 4 0.280619 0.112607 0.748958
3298 2 0.368492 0.144211 0.747365
4127 4 0.332037 0.131555 0.745036
4126 2 0.306328 0.122081 0.746997
3300 4 0.388657 0.164453 0.745067
3360 4 0.400988 0.133721 0.698885
3358 2 0.398028 0.121389 0.677139
3481 2 0.420991 0.15836 0.726662
3482 4 0.433961 0.143853 0.715495
1165 2 0.439481 0.113671 0.739193
1166 4 0.437307 0.125551 0.717891
142 3 0.111815 0.205159 0.688569
144 3 0.0933034 0.1691 0.682122
141 1 0.11247 0.186486 0.676492
143 3 0.132739 0.180761 0.681712
3483 4 0.408022 0.172866 0.737828
3272 4 0.0239637 0.31849 0.746254
1015 2 0.127588 0.319941 0.719128
1016 4 0.118111 0.299473 0.732992
2972 4 0.122927 0.283408 0.73715
2971 2 0.141906 0.272601 0.742065
2973 4 0.160885 0.261794 0.74698
3252 4 0.176479 0.278468 0.751345
3250 2 0.200606 0.283398 0.742209
3251 4 0.224733 0.288329 0.733072
738 4 0.241961 0.302025 0.739059
1299 4 0.477445 0.31469 0.702568
1297 2 0.495946 0.324578 0.685837
4360 2 0.0214434 0.375812 0.722089
4362 4 0.0444877 0.375913 0.712319
4208 4 0.0591075 0.390893 0.703975
4207 2 0.0831013 0.403677 0.697265
4209 4 0.107095 0.41646 0.690555
3374 4 0.157151 0.342622 0.70048
1017 4 0.137066 0.340408 0.705263
1087 2 0.179616 0.391017 0.736495
3373 2 0.171679 0.356707 0.682738
1089 4 0.155422 0.379765 0.743965
2060 4 0.208431 0.414409 0.711669
1088 4 0.203809 0.402269 0.729025
3534 4 0.0650757 0.495682 0.714015
3532 2 0.0778785 0.489525 0.733412
4141 2 0.132471 0.485395 0.738904
4142 4 0.111673 0.490114 0.749564
139 3 0.071503 0.440997 0.746468
4143 4 0.153269 0.480676 0.728245
4435 2 0.141162 0.444853 0.709079
4437 4 0.125895 0.426052 0.695978
4436 4 0.15643 0.463655 0.72218
2059 2 0.217962 0.417978 0.688438