ITEM: TIMESTEP
963000
ITEM: NUMBER OF ATOMS
4590
ITEM: BOX BOUNDS xy xz yz pp pp pp
-9.9985700000000008e+00 1.5197826399999983e+01 5.1992563999999817e+00
-9.9985700000000008e+00 9.9985700000000008e+00 0.0000000000000000e+00
-9.9985700000000008e+00 9.9985700000000008e+00 0.0000000000000000e+00
ITEM: ATOMS id type xs ys zs
2678 4 0.197408 0.0449106 0.0645675
1374 4 0.214982 0.0417712 0.073228
2677 2 0.180926 0.0407041 0.0818472
1372 2 0.23665 0.0484272 0.0674508
1373 4 0.258319 0.0550831 0.0616736
2948 4 0.267449 0.0686601 0.0539657
2947 2 0.290379 0.0572194 0.0441657
2949 4 0.31331 0.0457786 0.0343656
2465 4 0.326266 0.0294138 0.0221006
2464 2 0.331626 0.0113709 0.0393976
1660 2 0.448978 0.02115 0.0708802
1662 4 0.454646 0.0345649 0.0518695
2886 4 0.467622 0.0389979 0.0382968
2884 2 0.490808 0.0259646 0.0303358
828 4 0.0289926 0.145425 0.0168296
3413 4 0.0380503 0.161419 0.0179125
2976 4 0.114325 0.113279 0.0245433
2974 2 0.126867 0.111845 0.0463389
2975 4 0.139409 0.11041 0.0681344
2660 4 0.227332 0.0884551 0.0488228
2659 2 0.23599 0.109042 0.0510701
2661 4 0.244649 0.12963 0.0533175
3393 4 0.263616 0.128622 0.045907
3391 2 0.274487 0.147504 0.0414747
3392 4 0.285359 0.166385 0.0370425
2709 4 0.439263 0.0898322 0.0824725
3412 2 0.0494927 0.174725 0.0329488
3414 4 0.060935 0.18803 0.047985
3344 4 0.0811984 0.179273 0.0409966
3343 2 0.104536 0.182429 0.0353758
3345 4 0.127874 0.185586 0.0297549
2882 4 0.143446 0.179601 0.0422117
2881 2 0.165633 0.185997 0.038276
770 4 0.191899 0.18851 0.0147767
2883 4 0.187819 0.192392 0.0343404
465 4 0.330339 0.229758 0.0100814
463 2 0.311816 0.22052 0.999982
360 4 0.340228 0.211452 0.0152113
358 2 0.361018 0.21334 0.0282002
282 4 0.378045 0.210462 0.0589744
359 4 0.381809 0.215227 0.0411892
280 2 0.399558 0.203268 0.0726714
2875 2 0.457801 0.208138 0.0762185
2877 4 0.473482 0.221525 0.0673421
2718 4 0.477956 0.239385 0.0633716
2652 4 0.490088 0.212165 0.0394943
3242 4 0.0157241 0.259528 0.048235
3241 2 0.0393792 0.263235 0.0505499
3243 4 0.0630342 0.266942 0.0528647
3284 4 0.083372 0.261682 0.056308
3283 2 0.108206 0.260839 0.0606208
3214 2 0.115767 0.315517 0.0308528
3215 4 0.140903 0.304895 0.0342825
3285 4 0.133039 0.259996 0.0649336
2843 4 0.150026 0.266725 0.0642864
2403 4 0.143336 0.312492 0.00117254
3216 4 0.0906318 0.32614 0.027423
2842 2 0.173363 0.270712 0.0603877
2844 4 0.196701 0.274699 0.0564891
2784 4 0.215875 0.276879 0.0649241
2782 2 0.240373 0.278593 0.0646131
2783 4 0.26487 0.280307 0.0643021
596 4 0.012102 0.403407 0.0174298
595 2 0.027425 0.392295 0.0360607
597 4 0.042748 0.381183 0.0546915
1104 4 0.0586092 0.368733 0.0478449
1102 2 0.08262 0.371592 0.0499083
1103 4 0.106631 0.374451 0.0519717
2772 4 0.11745 0.364668 0.0671111
2770 2 0.133483 0.37972 0.0679816
2771 4 0.149515 0.394773 0.0688521
2522 4 0.170783 0.385854 0.0663824
4305 4 0.214232 0.337744 0.00485525
2521 2 0.193162 0.39179 0.070586
4303 2 0.226643 0.354796 0.0119762
2523 4 0.215541 0.397725 0.0747896
3337 2 0.243109 0.390193 0.0480861
4304 4 0.239053 0.371848 0.0190972
3338 4 0.25103 0.384719 0.02457
3339 4 0.235189 0.395667 0.0716022
1590 4 0.000916003 0.478085 0.0628833
3442 2 0.101115 0.471518 0.0090985
3443 4 0.123957 0.470101 0.0199658
4188 4 0.133429 0.467243 0.0385287
4186 2 0.158543 0.466143 0.0412713
4187 4 0.183657 0.465043 0.0440139
2582 4 0.194128 0.480239 0.0473827
2581 2 0.211906 0.485101 0.0319247
2583 4 0.229683 0.489964 0.0164668
2912 4 0.246887 0.479337 0.00808698
2911 2 0.269621 0.485031 0.00555304
902 4 0.354442 0.431547 0.0608234
2913 4 0.292355 0.490725 0.0030191
901 2 0.35839 0.447206 0.0785909
2514 4 0.420314 0.48331 0.0822496
2445 4 0.434671 0.474434 0.0680003
2443 2 0.453973 0.454922 0.0744812
2444 4 0.473275 0.43541 0.080962
2745 4 0.0236192 0.0161784 0.137301
2702 4 0.0407175 0.0181198 0.126156
2701 2 0.0659287 0.0128564 0.12077
2743 2 0.00248336 0.012059 0.126573
2781 4 0.108335 0.0127343 0.110139
2703 4 0.0911399 0.00759308 0.115385
2779 2 0.126138 0.0252792 0.10523
2780 4 0.143941 0.0378242 0.100322
2679 4 0.164445 0.0364975 0.0991269
1565 4 0.173749 0.0675272 0.141252
1564 2 0.199448 0.0589222 0.142067
1566 4 0.225147 0.0503171 0.142882
1479 4 0.237433 0.0325525 0.144356
1477 2 0.258398 0.041347 0.141667
1478 4 0.279363 0.0501415 0.138978
744 4 0.300041 0.0417062 0.138716
742 2 0.319111 0.053185 0.13606
743 4 0.33818 0.0646639 0.133405
3810 4 0.359454 0.0642115 0.129408
1476 4 0.386784 0.0127951 0.115656
3808 2 0.384256 0.0649156 0.130053
1474 2 0.411263 0.00362799 0.108379
3809 4 0.409058 0.0656197 0.130698
2519 4 0.429894 0.0591731 0.133656
1661 4 0.44331 0.00773507 0.0898908
2518 2 0.449536 0.0684395 0.140941
2520 4 0.469178 0.077706 0.148226
723 4 0.490647 0.0699937 0.143989
558 4 0.042091 0.124757 0.0922414
556 2 0.0202391 0.117419 0.0896339
654 4 0.0627255 0.116842 0.0926979
652 2 0.0827432 0.126976 0.0957617
653 4 0.102761 0.137109 0.0988255
22 3 0.117125 0.147342 0.0938305
25 3 0.145669 0.117148 0.0865519
24 3 0.136128 0.126889 0.12224
21 1 0.138319 0.134694 0.1008
23 3 0.153885 0.147984 0.100809
2894 4 0.171895 0.152821 0.105459
1749 4 0.20491 0.114154 0.164465
2893 2 0.197563 0.148988 0.106798
2895 4 0.223232 0.145155 0.108138
2600 4 0.241897 0.14455 0.113823
2599 2 0.266835 0.144465 0.115918
2601 4 0.291772 0.14438 0.118013
378 4 0.309762 0.15072 0.123259
376 2 0.331969 0.156582 0.128521
377 4 0.354175 0.162444 0.133783
629 4 0.374782 0.158727 0.133137
628 2 0.398599 0.160277 0.139152
2707 2 0.435839 0.108644 0.0988772
2708 4 0.432415 0.127457 0.115282
630 4 0.422415 0.161826 0.145168
332 4 0.441146 0.160319 0.151845
331 2 0.462127 0.163279 0.163818
2876 4 0.442119 0.194751 0.0850949
281 4 0.42107 0.196075 0.0863683
835 2 0.484336 0.211482 0.158401
836 4 0.459677 0.212604 0.163891
252 4 0.0675629 0.366219 0.164441
287 4 0.0806248 0.377464 0.156064
286 2 0.101312 0.386841 0.157638
288 4 0.121999 0.396218 0.159212
296 4 0.141806 0.393168 0.160615
295 2 0.167581 0.386731 0.162301
297 4 0.193356 0.380294 0.163987
4007 4 0.449791 0.384107 0.165387
303 4 0.00179359 0.491423 0.160513
1861 2 0.00940494 0.468769 0.130719
1862 4 0.0195577 0.446662 0.1199
1742 4 0.0823211 0.425605 0.112038
1786 2 0.0657516 0.485421 0.147042
1787 4 0.0605229 0.463829 0.140607
1741 2 0.103524 0.430841 0.102624
1424 4 0.125733 0.435727 0.160308
1743 4 0.124728 0.436077 0.0932105
2093 4 0.14176 0.423201 0.100861
74 3 0.16669 0.48442 0.0870146
2092 2 0.159581 0.433615 0.110623
72 3 0.172402 0.463321 0.118118
71 1 0.169406 0.484709 0.110048
2094 4 0.177402 0.44403 0.120384
2919 4 0.193702 0.443069 0.132431
73 3 0.188756 0.492223 0.115352
2917 2 0.189188 0.455121 0.154295
903 4 0.362337 0.462864 0.0963583
739 2 0.385049 0.472764 0.141224
2513 4 0.377349 0.469544 0.0942914
740 4 0.381743 0.44977 0.144426
2512 2 0.398831 0.476427 0.0882705
587 4 0.38228 0.445805 0.164447
741 4 0.388356 0.495758 0.138021
767 4 0.480278 0.427649 0.0974258
766 2 0.484966 0.43639 0.119794
768 4 0.489654 0.445131 0.142162
2757 4 0.00234805 0.0438842 0.212719
2738 4 0.0226892 0.0352462 0.210216
2737 2 0.0481695 0.0328576 0.211437
248 4 0.0587713 0.0756089 0.230348
2739 4 0.0736498 0.030469 0.212658
687 4 0.0923443 0.0307737 0.219855
685 2 0.117832 0.0270184 0.216648
686 4 0.143319 0.0232631 0.21344
3678 4 0.160612 0.0296841 0.215902
3676 2 0.180363 0.0402503 0.218618
3677 4 0.200114 0.0508165 0.221334
179 3 0.218333 0.0547925 0.216584
176 1 0.239055 0.0596711 0.211014
180 3 0.23519 0.0768656 0.196093
177 3 0.248786 0.0657854 0.230082
178 3 0.254139 0.0409278 0.201913
2573 4 0.270033 0.044824 0.191713
2572 2 0.294464 0.0455276 0.187373
2574 4 0.318896 0.0462312 0.183032
1506 4 0.330379 0.0370087 0.197404
1504 2 0.35237 0.0438698 0.20099
1505 4 0.374361 0.0507309 0.204577
255 4 0.394906 0.0433666 0.202003
253 2 0.41387 0.0534505 0.209588
254 4 0.432835 0.0635344 0.217174
125 3 0.480985 0.0378478 0.226882
121 1 0.488688 0.0265237 0.246059
122 3 0.493919 0.00391491 0.241867
731 4 0.031818 0.133977 0.22619
730 2 0.041089 0.131616 0.202852
606 4 0.0457559 0.133776 0.241464
732 4 0.0503601 0.129255 0.179515
247 2 0.0807006 0.0830615 0.23043
581 4 0.0703411 0.122304 0.173932
249 4 0.10263 0.0905141 0.230511
580 2 0.0901098 0.13296 0.175833
582 4 0.109878 0.143616 0.177734
405 4 0.121794 0.0842394 0.238887
750 4 0.12968 0.146517 0.180576
403 2 0.135843 0.0906698 0.220538
2181 4 0.151572 0.0859418 0.18595
404 4 0.149893 0.0971003 0.20219
748 2 0.149339 0.156729 0.185375
2179 2 0.171004 0.0954999 0.178638
459 4 0.187442 0.161449 0.182341
2180 4 0.190437 0.105058 0.171327
457 2 0.21242 0.158204 0.188014
1747 2 0.22651 0.101498 0.175858
1748 4 0.248109 0.088843 0.187251
458 4 0.237398 0.154959 0.193686
237 4 0.252336 0.163491 0.187575
2837 4 0.297077 0.155538 0.2322
235 2 0.276156 0.166635 0.184689
631 2 0.39227 0.123997 0.221921
633 4 0.381644 0.136525 0.242267
632 4 0.402895 0.111469 0.201576
522 4 0.425074 0.106727 0.203825
520 2 0.446635 0.111701 0.194986
521 4 0.468197 0.116674 0.186146
698 4 0.487387 0.118112 0.182577
749 4 0.168997 0.166941 0.190173
387 4 0.225924 0.213757 0.200204
385 2 0.247733 0.219986 0.206326
386 4 0.269542 0.226216 0.212448
276 4 0.284684 0.218586 0.19951
236 4 0.299975 0.169779 0.181804
274 2 0.305004 0.228512 0.201015
579 4 0.310061 0.184165 0.187412
275 4 0.325323 0.238438 0.20252
577 2 0.33455 0.17695 0.179553
497 4 0.342918 0.24078 0.211
496 2 0.365581 0.233677 0.199108
578 4 0.359039 0.169736 0.171695
507 4 0.398986 0.210854 0.175834
498 4 0.388244 0.226574 0.187217
506 4 0.446973 0.216583 0.180302
505 2 0.422979 0.213719 0.178068
333 4 0.483107 0.166238 0.175792
3572 4 0.0134563 0.281266 0.235579
2526 4 0.0333896 0.277959 0.233775
2524 2 0.0530013 0.280089 0.219147
2525 4 0.072613 0.282219 0.204518
2462 4 0.0889621 0.28885 0.210474
2461 2 0.113029 0.290245 0.205334
2463 4 0.137096 0.29164 0.200193
2592 4 0.222851 0.302916 0.240866
2590 2 0.19819 0.307895 0.248238
611 4 0.24078 0.289481 0.244844
2541 4 0.294493 0.317583 0.250562
1056 4 0.397157 0.323069 0.24131
250 2 0.0507054 0.352581 0.169226
251 4 0.033848 0.338943 0.174011
313 2 0.00450151 0.408561 0.187111
350 4 0.0155228 0.335732 0.169679
1437 4 0.0471873 0.384739 0.224431
681 4 0.0493798 0.402948 0.226466
1435 2 0.0718515 0.374517 0.218397
1436 4 0.0965157 0.364295 0.212364
645 4 0.108655 0.370471 0.226319
643 2 0.119674 0.37977 0.245245
2571 4 0.191888 0.396156 0.175805
2569 2 0.211082 0.396217 0.191811
2969 4 0.241793 0.379995 0.215803
2570 4 0.230275 0.396278 0.207817
2968 2 0.264517 0.363863 0.211158
2970 4 0.287242 0.347732 0.206512
729 4 0.29745 0.360731 0.198874
727 2 0.323073 0.352549 0.196387
728 4 0.348696 0.344368 0.1939
2538 4 0.365055 0.34994 0.201918
2536 2 0.387017 0.353649 0.192655
2537 4 0.408979 0.357358 0.183392
4008 4 0.408616 0.376284 0.189315
4006 2 0.429204 0.380196 0.177351
3817 2 0.400772 0.408834 0.246254
3819 4 0.409625 0.416216 0.224932
314 4 0.0223008 0.420926 0.192652
361 2 0.00869269 0.473068 0.238215
363 4 0.0272119 0.454455 0.247786
679 2 0.048147 0.426431 0.233536
680 4 0.0469141 0.449914 0.240606
1423 2 0.112201 0.446306 0.180233
1425 4 0.0986689 0.456885 0.200159
1665 4 0.111883 0.462674 0.212796
1663 2 0.132729 0.461462 0.227015
1664 4 0.153575 0.460251 0.241235
2918 4 0.184675 0.467174 0.176158
677 4 0.197494 0.475589 0.183847
676 2 0.198628 0.499468 0.182796
586 2 0.392378 0.434746 0.185677
588 4 0.402476 0.423686 0.206906
2733 4 0.280529 0.0451661 0.284318
2731 2 0.304425 0.04548 0.277238
2732 4 0.328322 0.0457939 0.270158
2547 4 0.340887 0.0372985 0.255792
2545 2 0.366318 0.0329501 0.259765
2546 4 0.391749 0.0286017 0.263737
3722 4 0.405646 0.0304043 0.277384
3721 2 0.428955 0.0296647 0.267885
3723 4 0.452265 0.0289251 0.258386
123 3 0.471645 0.0315845 0.262351
604 2 0.0616645 0.136292 0.260025
605 4 0.0775731 0.138807 0.278587
546 4 0.0761584 0.158183 0.326527
29 3 0.0868216 0.154007 0.278966
2836 2 0.302013 0.160863 0.255798
2838 4 0.306948 0.166188 0.279396
2879 4 0.386812 0.142701 0.258922
2878 2 0.41024 0.139863 0.269035
2880 4 0.433669 0.137025 0.279148
420 4 0.45418 0.133912 0.277174
418 2 0.467346 0.15152 0.276635
30 3 0.0789795 0.171342 0.312223
26 1 0.0901178 0.171287 0.292351
28 3 0.0818704 0.191615 0.281564
27 3 0.113388 0.168136 0.296245
414 4 0.165622 0.239706 0.296552
412 2 0.190319 0.240773 0.295958
413 4 0.215015 0.241841 0.295364
419 4 0.480512 0.169129 0.276096
3571 2 0.000952637 0.26889 0.250574
1952 4 0.0367956 0.32765 0.320116
2591 4 0.173528 0.312874 0.255611
610 2 0.260193 0.299427 0.251348
612 4 0.279606 0.309373 0.257852
1054 2 0.374689 0.322152 0.251739
1055 4 0.352221 0.321234 0.262167
2539 2 0.320188 0.310924 0.253122
2540 4 0.345883 0.304266 0.255682
3632 4 0.388113 0.284705 0.310273
3631 2 0.393354 0.306085 0.303102
3633 4 0.398594 0.327466 0.295931
1951 2 0.0113795 0.33786 0.318428
3602 4 0.0155053 0.404546 0.308358
3601 2 0.0384716 0.410029 0.308773
753 4 0.0794476 0.411019 0.301032
751 2 0.102735 0.407449 0.290424
752 4 0.126022 0.403878 0.279817
644 4 0.130693 0.389068 0.264171
2621 4 0.0976814 0.339744 0.335262
4 3 0.142246 0.401143 0.294379
3 3 0.151547 0.382093 0.261781
2 3 0.16226 0.365098 0.294708
1 1 0.158915 0.385001 0.283321
2851 2 0.185666 0.347287 0.332936
5 3 0.179181 0.391243 0.282593
1575 4 0.1984 0.391456 0.280415
2852 4 0.210436 0.342704 0.325989
2450 4 0.230946 0.342417 0.322085
1573 2 0.219983 0.399409 0.282028
1574 4 0.241565 0.407362 0.283642
543 4 0.262873 0.402997 0.282564
541 2 0.285293 0.409252 0.285369
2495 4 0.330815 0.36955 0.319341
366 4 0.346797 0.376279 0.315002
364 2 0.36954 0.362497 0.306748
365 4 0.392283 0.348714 0.298494
3818 4 0.391918 0.401452 0.267576
246 4 0.372064 0.414084 0.310084
3603 4 0.0614379 0.415512 0.309187
1386 4 0.0848036 0.438056 0.278638
1384 2 0.0804031 0.462415 0.283939
1385 4 0.0760026 0.486774 0.28924
549 4 0.105569 0.456212 0.331829
3959 4 0.162227 0.47063 0.256055
547 2 0.120095 0.471761 0.325614
264 4 0.132963 0.486531 0.282534
548 4 0.134621 0.48731 0.319398
3958 2 0.1859 0.468341 0.265402
3960 4 0.209572 0.466053 0.274749
500 4 0.22233 0.477737 0.270224
499 2 0.246464 0.479926 0.267043
501 4 0.270598 0.482116 0.263862
230 4 0.337261 0.492675 0.265092
245 4 0.321671 0.420257 0.301009
542 4 0.307713 0.415506 0.288174
231 4 0.289978 0.484725 0.266546
229 2 0.313619 0.4887 0.265819
244 2 0.346868 0.417171 0.305547
669 4 0.388727 0.417831 0.318377
667 2 0.406304 0.427992 0.30774
668 4 0.42388 0.438153 0.297104
1659 4 0.352023 0.497245 0.277423
2713 2 0.0210948 0.0566939 0.33988
2715 4 0.0449135 0.060138 0.338289
598 2 0.00397404 0.00786802 0.361528
3477 4 0.0639528 0.0646623 0.341207
3475 2 0.0883287 0.0666496 0.339943
3476 4 0.112705 0.0686368 0.33868
2645 4 0.108477 0.0637855 0.397113
2644 2 0.127105 0.0711763 0.409289
1244 4 0.131202 0.0717458 0.341924
1243 2 0.153968 0.0771444 0.345371
1245 4 0.176734 0.0825429 0.348817
4123 2 0.27324 0.010111 0.36428
4125 4 0.249826 0.00738923 0.358287
4124 4 0.296654 0.0128328 0.370273
1496 4 0.315261 0.0181592 0.372476
1495 2 0.336205 0.0271212 0.370685
1497 4 0.357148 0.0360833 0.368895
1185 4 0.378072 0.0347536 0.373909
1183 2 0.40113 0.0395239 0.377378
3876 4 0.413011 0.00410774 0.360322
1184 4 0.424188 0.0442942 0.380847
2114 4 0.441437 0.0499086 0.379064
2113 2 0.464423 0.0549105 0.38228
2115 4 0.487409 0.0599124 0.385496
424 2 0.0154341 0.0956735 0.381521
531 4 0.0151261 0.141605 0.348465
425 4 0.0389271 0.0996298 0.384389
545 4 0.0342366 0.145767 0.34408
2916 4 0.0554247 0.105724 0.391953
544 2 0.0551975 0.151975 0.335304
2914 2 0.0783298 0.111247 0.390474
2915 4 0.101235 0.116771 0.388996
2936 4 0.118742 0.123145 0.393012
2667 4 0.196174 0.0849439 0.344749
2935 2 0.14333 0.124545 0.393815
2937 4 0.167918 0.125944 0.394618
2664 4 0.187889 0.122539 0.387132
2665 2 0.218831 0.0908186 0.347163
2662 2 0.21158 0.125917 0.390311
2666 4 0.241487 0.0966933 0.349576
2663 4 0.235272 0.129294 0.393491
1377 4 0.261895 0.0967752 0.355883
2658 4 0.252317 0.135272 0.399795
2656 2 0.2671 0.15119 0.403506
1375 2 0.286033 0.0984415 0.360199
2657 4 0.281882 0.167109 0.407217
1376 4 0.310172 0.100108 0.364516
2870 4 0.330963 0.0987039 0.36603
2869 2 0.356514 0.0960217 0.366578
984 4 0.334821 0.103276 0.412868
2871 4 0.382064 0.0933396 0.367126
1524 4 0.399856 0.0994206 0.370034
1522 2 0.422319 0.104936 0.374899
1523 4 0.444783 0.110451 0.379763
1058 4 0.463834 0.113558 0.37979
1057 2 0.486046 0.119902 0.383733
635 4 0.0442028 0.245103 0.3735
1035 4 0.299969 0.170598 0.407436
1033 2 0.320692 0.179289 0.412066
2612 4 0.460557 0.203492 0.385521
2611 2 0.48527 0.202619 0.380534
634 2 0.0200325 0.257084 0.367312
2764 2 0.199067 0.274121 0.389682
2766 4 0.188597 0.275555 0.412511
2765 4 0.209538 0.272686 0.366853
508 2 0.494125 0.3257 0.378969
510 4 0.469348 0.325553 0.38203
306 4 0.4862 0.281317 0.409604
2682 4 0.045635 0.336533 0.33409
2680 2 0.065915 0.34563 0.339534
2681 4 0.086195 0.354726 0.344978
2620 2 0.119124 0.347489 0.339135
2622 4 0.140566 0.355235 0.343008
2853 4 0.160897 0.351871 0.339883
2449 2 0.250406 0.338119 0.338524
2451 4 0.269867 0.33382 0.354963
2496 4 0.299856 0.352999 0.350701
2957 4 0.306224 0.358937 0.368446
2494 2 0.315335 0.361275 0.335021
2958 4 0.301368 0.393517 0.404332
2956 2 0.303796 0.376227 0.386389
2927 4 0.305225 0.412703 0.40507
3422 4 0.353371 0.409345 0.368424
3423 4 0.404302 0.404131 0.372402
3421 2 0.378837 0.406738 0.370413
3642 4 0.419697 0.407089 0.360899
3582 4 0.0861609 0.442187 0.390116
2588 4 0.0834795 0.457356 0.403158
3580 2 0.0940729 0.442345 0.366412
3581 4 0.101985 0.442503 0.342707
2648 4 0.154987 0.476449 0.408772
3640 2 0.438002 0.418972 0.36602
3641 4 0.456308 0.430854 0.371142
2712 4 0.459251 0.447246 0.380808
2710 2 0.485068 0.441356 0.381646
841 2 0.0132534 0.0747964 0.48558
843 4 0.0369551 0.0773539 0.480588
3747 4 0.0568367 0.0768824 0.478132
3745 2 0.0797737 0.081879 0.481713
2646 4 0.145734 0.078567 0.421466
3797 4 0.159013 0.0702592 0.43651
3796 2 0.180712 0.0776688 0.439986
2455 2 0.227184 0.0515204 0.492148
2457 4 0.237414 0.0643658 0.475534
218 3 0.247172 0.0553706 0.426697
219 3 0.24913 0.0695027 0.461525
216 1 0.243424 0.0747784 0.439349
4238 4 0.333132 0.053963 0.433531
4237 2 0.354193 0.0622248 0.42926
4239 4 0.375255 0.0704867 0.424989
2504 4 0.390566 0.0769067 0.430884
762 4 0.413511 0.0835326 0.485222
2489 4 0.121262 0.0922316 0.481427
3746 4 0.102711 0.0868756 0.485295
2488 2 0.143099 0.0997072 0.48337
3798 4 0.202412 0.0850784 0.443463
2490 4 0.164936 0.107183 0.485313
87 3 0.17863 0.116571 0.492702
899 4 0.212257 0.149934 0.429078
90 3 0.211754 0.126693 0.489239
641 4 0.219508 0.132761 0.438388
220 3 0.220875 0.0863863 0.437797
640 2 0.225393 0.132158 0.462719
642 4 0.231278 0.131554 0.48705
321 4 0.247325 0.142038 0.487463
217 3 0.25724 0.087768 0.431298
2558 4 0.274145 0.0959457 0.428075
319 2 0.269464 0.148828 0.484689
2559 4 0.324144 0.0902651 0.417396
2557 2 0.299144 0.0931054 0.422736
320 4 0.291602 0.155617 0.481915
9 3 0.307925 0.164101 0.476174
982 2 0.346461 0.121257 0.418844
10 3 0.346021 0.155753 0.468607
2195 4 0.329759 0.112802 0.495052
983 4 0.358102 0.139237 0.42482
368 4 0.364888 0.14735 0.474219
367 2 0.384391 0.151555 0.487758
2503 2 0.401319 0.0962505 0.432273
2505 4 0.412072 0.115594 0.433662
2552 4 0.396952 0.0942852 0.493451
725 4 0.423142 0.12991 0.432567
760 2 0.437997 0.0846593 0.482069
2551 2 0.371858 0.0988933 0.499187
3173 4 0.47776 0.090528 0.468164
724 2 0.436778 0.146968 0.429796
761 4 0.462482 0.085786 0.478917
726 4 0.450413 0.164026 0.427025
898 2 0.191137 0.168871 0.431138
2602 2 0.171861 0.197538 0.473612
2604 4 0.166363 0.199047 0.498042
900 4 0.170017 0.187808 0.433198
2603 4 0.177359 0.196029 0.449182
1034 4 0.341416 0.18798 0.416697
6 1 0.326158 0.172404 0.46885
7 3 0.321441 0.180686 0.447543
8 3 0.328715 0.189581 0.482779
474 4 0.468428 0.169632 0.42835
472 2 0.48465 0.182496 0.437118
2923 2 0.017768 0.300406 0.475821
2924 4 0.0379349 0.306777 0.465413
873 4 0.0551202 0.303749 0.477113
871 2 0.0796718 0.30041 0.469825
3080 4 0.112069 0.249039 0.488464
3079 2 0.132912 0.254187 0.478136
872 4 0.104223 0.297071 0.462536
3081 4 0.153755 0.259336 0.467807
3498 4 0.172152 0.259714 0.463002
3496 2 0.187994 0.258526 0.48256
266 4 0.324175 0.327307 0.477178
265 2 0.349664 0.322304 0.473299
267 4 0.375154 0.317301 0.469421
890 4 0.393218 0.312436 0.479076
889 2 0.413402 0.317309 0.490963
811 2 0.460017 0.312746 0.455777
812 4 0.469523 0.289341 0.447673
3060 4 0.498443 0.274876 0.425949
592 2 0.0081691 0.400778 0.442709
593 4 0.0308796 0.401726 0.432847
3318 4 0.0513769 0.402658 0.431842
3316 2 0.0704052 0.414242 0.434132
773 4 0.148723 0.391129 0.485416
2928 4 0.278855 0.413401 0.447666
3056 4 0.257415 0.372724 0.421474
3055 2 0.26194 0.360332 0.443152
3332 4 0.266513 0.345333 0.484354
3057 4 0.266464 0.347941 0.46483
3331 2 0.286645 0.345115 0.499258
2926 2 0.29204 0.413052 0.426368
3451 2 0.302518 0.414096 0.487883
3452 4 0.293329 0.4026 0.469316
259 2 0.384244 0.377664 0.483451
261 4 0.398214 0.387747 0.467695
2846 4 0.41823 0.387482 0.469898
2845 2 0.427634 0.404732 0.458292
813 4 0.450511 0.336151 0.463881
2511 4 0.458992 0.352154 0.463072
2510 4 0.496547 0.376087 0.459682
2509 2 0.47777 0.364121 0.461377
3961 2 0.123227 0.429567 0.45863
2587 2 0.0863026 0.470665 0.423372
3317 4 0.0894336 0.425826 0.436422
2589 4 0.0891258 0.483974 0.443585
601 2 0.0826856 0.476812 0.481411
602 4 0.0914988 0.469421 0.458541
3962 4 0.101727 0.422605 0.452858
2647 2 0.160321 0.497391 0.417163
4179 4 0.162393 0.442663 0.463407
3963 4 0.144727 0.43653 0.464401
4177 2 0.182581 0.452769 0.464993
4178 4 0.202769 0.462875 0.46658
1696 2 0.246015 0.440523 0.454995
1697 4 0.222742 0.4476 0.465753
1698 4 0.269288 0.433446 0.444238
2847 4 0.437037 0.421982 0.446685
561 4 0.490481 0.495718 0.492879
3049 2 0.0237813 0.0743041 0.541717
3050 4 0.0404593 0.0731027 0.560583
3051 4 0.00710336 0.0755056 0.522852
3105 4 0.0576172 0.0569582 0.56459
1180 2 0.189322 0.0171841 0.519613
1181 4 0.176961 0.00480931 0.534757
1182 4 0.201684 0.029559 0.504469
2456 4 0.216953 0.038675 0.508762
3394 2 0.274578 0.0485719 0.555959
3395 4 0.265336 0.0672028 0.572044
3396 4 0.283819 0.0299411 0.539874
3852 4 0.336687 0.0434975 0.510343
3850 2 0.357584 0.0483865 0.520824
3851 4 0.378481 0.0532754 0.531305
3358 2 0.386655 0.00627339 0.579079
3326 4 0.393088 0.0524666 0.517176
3325 2 0.417302 0.0539668 0.521363
3327 4 0.441517 0.0554671 0.525551
944 4 0.46091 0.0532366 0.532991
943 2 0.481096 0.0632597 0.530705
945 4 0.501283 0.0732829 0.528418
88 3 0.186537 0.141962 0.516314
86 1 0.196019 0.122728 0.504132
89 3 0.206542 0.105506 0.51846
575 4 0.22455 0.100269 0.512063
574 2 0.248496 0.0991183 0.520108
576 4 0.272441 0.0979673 0.528153
2196 4 0.289232 0.101458 0.517006
2194 2 0.309496 0.10713 0.506029
1211 4 0.303955 0.15644 0.560345
1210 2 0.318682 0.161392 0.578898
2553 4 0.346763 0.103501 0.504924
369 4 0.403893 0.15576 0.501298
1154 4 0.00191803 0.24152 0.579431
1283 4 0.0221913 0.238377 0.577483
1282 2 0.0474859 0.237058 0.57655
1284 4 0.0727805 0.235738 0.575617
1106 4 0.0857603 0.246486 0.566202
1105 2 0.109849 0.248643 0.569793
2962 2 0.149088 0.192205 0.527176
2963 4 0.149407 0.191856 0.552177
2814 4 0.161035 0.190289 0.570016
2812 2 0.18325 0.177193 0.580008
1076 4 0.153713 0.24521 0.578101
2964 4 0.148768 0.192554 0.502176
2811 4 0.248885 0.217935 0.537661
2809 2 0.231057 0.238107 0.529922
1280 4 0.0192738 0.310103 0.557035
1279 2 0.03718 0.320309 0.566951
1281 4 0.0550862 0.330516 0.576866
1107 4 0.133938 0.250801 0.573385
2810 4 0.213228 0.25828 0.522182
3497 4 0.203836 0.257337 0.502117
1075 2 0.176638 0.249703 0.583055
3237 4 0.351996 0.261388 0.550657
3235 2 0.345445 0.256626 0.573935
891 4 0.433586 0.322182 0.50285
1239 4 0.449367 0.32873 0.508442
935 4 0.498163 0.25741 0.571988
348 4 0.0706771 0.338655 0.571664
346 2 0.0946425 0.341821 0.572498
347 4 0.118608 0.344987 0.573332
3418 2 0.152091 0.341533 0.583458
772 2 0.167932 0.394067 0.500168
774 4 0.187141 0.397006 0.51492
3420 4 0.176377 0.33746 0.575145
1910 4 0.201276 0.406557 0.522462
84 3 0.221435 0.360683 0.578292
83 3 0.187366 0.350743 0.579751
2244 4 0.241843 0.357793 0.578136
2242 2 0.264848 0.361999 0.583311
3333 4 0.306777 0.344898 0.514162
2636 4 0.317576 0.354449 0.52525
2635 2 0.334226 0.3654 0.514067
2637 4 0.350877 0.376352 0.502884
260 4 0.370274 0.367581 0.499206
1237 2 0.46833 0.340497 0.50974
1238 4 0.487294 0.352265 0.511037
603 4 0.0738724 0.484203 0.504282
2171 4 0.166487 0.499797 0.560325
1909 2 0.207667 0.426291 0.532612
1911 4 0.214057 0.446026 0.542761
3072 4 0.231553 0.447695 0.551229
3070 2 0.251763 0.454905 0.560473
3071 4 0.271974 0.462115 0.569716
791 4 0.2848 0.459951 0.552956
790 2 0.302385 0.444949 0.538368
3453 4 0.311707 0.425592 0.50645
792 4 0.319971 0.429946 0.523779
3120 4 0.421247 0.465279 0.541414
3118 2 0.414097 0.460361 0.564434
4130 4 0.364259 0.492881 0.515739
1136 4 0.450852 0.440502 0.577553
1135 2 0.472481 0.422423 0.580985
3104 4 0.0566671 0.057418 0.614588
3103 2 0.0571422 0.0571881 0.589589
3121 2 0.129514 0.00673907 0.599763
3123 4 0.10388 0.0114977 0.597055
3122 4 0.155148 0.00198048 0.602472
3022 2 0.23583 0.00040528 0.63826
3024 4 0.260244 0.998847 0.631454
3030 4 0.264457 0.0277478 0.610552
3028 2 0.262324 0.0494157 0.622528
3029 4 0.260191 0.0710836 0.634504
1025 4 0.273764 0.0793641 0.644303
3180 4 0.268111 0.0700378 0.591361
4072 2 0.344804 0.00476518 0.651844
3359 4 0.375542 0.0166001 0.600233
4074 4 0.322782 0.0204322 0.659432
949 2 0.018321 0.148003 0.594805
951 4 0.0397621 0.156268 0.595448
3179 4 0.23294 0.11394 0.588378
3178 2 0.250525 0.0919887 0.589869
2813 4 0.205466 0.164097 0.589999
3267 4 0.219889 0.248802 0.586631
1212 4 0.333408 0.166343 0.597451
3110 4 0.295593 0.191954 0.636369
3109 2 0.31756 0.199005 0.633366
144 3 0.304084 0.236222 0.633713
3111 4 0.339527 0.206056 0.630363
3383 4 0.360236 0.199009 0.630791
3382 2 0.376339 0.213985 0.631813
3384 4 0.392443 0.228961 0.632836
3107 4 0.39996 0.24475 0.630229
2628 4 0.364787 0.249359 0.662252
3165 4 0.452925 0.2449 0.641855
3106 2 0.423645 0.248039 0.626741
3163 2 0.475496 0.24709 0.65107
3108 4 0.447329 0.251329 0.623254
3164 4 0.498067 0.24928 0.660285
1077 4 0.199562 0.254196 0.588009
3221 4 0.192937 0.306438 0.622064
3220 2 0.218197 0.299506 0.627247
3265 2 0.240441 0.252457 0.598855
3222 4 0.243457 0.292575 0.63243
3266 4 0.260994 0.256112 0.61108
142 3 0.280649 0.260164 0.610406
141 1 0.302368 0.254497 0.61974
145 3 0.318432 0.249243 0.603157
143 3 0.305627 0.272561 0.63194
3236 4 0.338894 0.251864 0.597212
2627 4 0.325934 0.278868 0.636606
3356 4 0.329503 0.29803 0.641192
3355 2 0.338262 0.318566 0.643362
2626 2 0.345361 0.264114 0.649429
1205 4 0.0110671 0.392478 0.622786
1204 2 0.0338923 0.39496 0.61453
1206 4 0.0567175 0.397442 0.606275
3419 4 0.127805 0.345606 0.591771
1139 4 0.0753665 0.394244 0.599043
1138 2 0.095718 0.402548 0.60608
1140 4 0.11607 0.410851 0.613116
82 3 0.188188 0.386635 0.584363
796 2 0.154133 0.404391 0.607136
797 4 0.177143 0.38886 0.602239
806 4 0.194094 0.380109 0.613995
81 1 0.199931 0.364837 0.58849
805 2 0.202325 0.386835 0.635911
85 3 0.202509 0.361668 0.610974
807 4 0.210557 0.393561 0.657828
2243 4 0.287852 0.366205 0.588486
3380 4 0.301404 0.349234 0.664102
540 4 0.31938 0.412461 0.585375
538 2 0.312806 0.39094 0.589113
539 4 0.306232 0.36942 0.592852
3357 4 0.347021 0.339102 0.645532
905 4 0.358509 0.353179 0.647051
904 2 0.374144 0.366046 0.657019
1137 4 0.494109 0.404345 0.584416
2216 4 0.0175789 0.484678 0.651086
2215 2 0.0364961 0.496294 0.654091
798 4 0.131122 0.419923 0.612033
4213 2 0.25876 0.434995 0.63537
4215 4 0.240648 0.437866 0.653129
4214 4 0.276872 0.432124 0.617611
993 4 0.343677 0.473199 0.665088
3119 4 0.406947 0.455444 0.587455
1216 2 0.0219876 0.0192712 0.736781
1217 4 0.00546629 0.0063182 0.728918
1218 4 0.038509 0.0322241 0.744644
819 4 0.171325 0.0773089 0.687672
269 4 0.262406 0.0277679 0.694734
3084 4 0.255585 0.0259833 0.714346
3082 2 0.271167 0.0219462 0.734288
268 2 0.284091 0.022737 0.681145
1024 2 0.26352 0.0797804 0.667156
1026 4 0.253275 0.0801968 0.690009
270 4 0.305776 0.0177061 0.667557
966 4 0.0159078 0.125388 0.673681
3400 2 0.0238245 0.130728 0.744754
2175 4 0.0256533 0.139512 0.667699
3401 4 0.0385814 0.146977 0.743838
3402 4 0.00906761 0.114478 0.745669
2173 2 0.04632 0.146072 0.676734
2174 4 0.0669868 0.152632 0.685769
3003 4 0.0869997 0.153128 0.679762
3001 2 0.0914954 0.163465 0.701366
3166 2 0.0641913 0.161484 0.747802
817 2 0.158507 0.0827829 0.709245
818 4 0.145688 0.0882568 0.730817
2306 4 0.160228 0.0866309 0.744459
887 4 0.188149 0.0853733 0.691759
886 2 0.211583 0.0898418 0.691235
888 4 0.235017 0.0943104 0.69071
3207 4 0.370117 0.0899183 0.691576
3205 2 0.386225 0.103943 0.697761
3206 4 0.402333 0.117968 0.703945
3020 4 0.41462 0.107891 0.687416
3019 2 0.433392 0.119874 0.685822
3293 4 0.46511 0.127911 0.668155
3292 2 0.48598 0.137089 0.668371
3021 4 0.452163 0.131858 0.684227
3002 4 0.0959912 0.173802 0.72297
3168 4 0.079271 0.173464 0.735529
3240 4 0.314636 0.209899 0.734582
3238 2 0.330559 0.208901 0.715118
3239 4 0.346483 0.207903 0.695655
3351 4 0.358929 0.191228 0.687494
3349 2 0.382154 0.196078 0.686039
3350 4 0.405378 0.200928 0.684584
779 4 0.412652 0.209008 0.700423
778 2 0.422981 0.199632 0.722217
780 4 0.43331 0.190256 0.744012
4559 4 0.22053 0.319412 0.686456
4558 2 0.246069 0.310051 0.688376
4560 4 0.271608 0.300689 0.690295
3381 4 0.276931 0.31537 0.679807
3379 2 0.289167 0.332302 0.671955
3441 4 0.378539 0.254087 0.676385
3439 2 0.401498 0.259429 0.678338
3440 4 0.424457 0.264771 0.680292
896 4 0.428028 0.260794 0.700197
895 2 0.450741 0.266236 0.703858
897 4 0.473454 0.271678 0.707519
1085 4 0.489956 0.280228 0.706671
3375 4 0.151446 0.341967 0.740516
3373 2 0.161567 0.360509 0.732894
3374 4 0.171689 0.379052 0.725272
978 4 0.210123 0.383321 0.673706
976 2 0.215154 0.360565 0.684029
977 4 0.220185 0.337809 0.694352
906 4 0.38978 0.378913 0.666987
3274 2 0.428615 0.401215 0.737464
3276 4 0.445119 0.40914 0.722708