ITEM: TIMESTEP
2352500
ITEM: NUMBER OF ATOMS
4590
ITEM: BOX BOUNDS xy xz yz pp pp pp
-9.9985700000000008e+00 1.0998427000000007e+01 9.9985700000000577e-01
-9.9985700000000008e+00 9.9985700000000008e+00 0.0000000000000000e+00
-9.9985700000000008e+00 9.9985700000000008e+00 0.0000000000000000e+00
ITEM: ATOMS id type xs ys zs
3069 4 0.416658 0.00344139 0.0158067
1651 2 0.432134 0.0535859 0.0720415
3067 2 0.437523 0.01058 0.0269368
1653 4 0.410276 0.0646469 0.0790372
1652 4 0.453992 0.0425249 0.0650458
3269 4 0.475241 0.0224506 0.0271811
2469 4 0.468344 0.0499427 0.0767355
2467 2 0.492991 0.0530368 0.0774236
3268 2 0.498574 0.0297956 0.0240963
3068 4 0.458388 0.0177186 0.0380668
356 4 0.0222677 0.0988659 0.063497
758 4 0.0437756 0.0944549 0.0666924
757 2 0.0673834 0.0981735 0.0734156
355 2 0.99803 0.101745 0.0695292
3260 4 0.137788 0.134564 0.0339463
759 4 0.0909911 0.101892 0.0801389
3259 2 0.161775 0.13697 0.0277621
3261 4 0.185762 0.139377 0.0215779
278 4 0.197471 0.152605 0.0300992
277 2 0.217904 0.165995 0.0308518
2895 4 0.240725 0.135319 0.0386999
2893 2 0.259001 0.129582 0.0550899
2894 4 0.277278 0.123845 0.0714799
22 3 0.301238 0.0999626 0.0705418
2889 4 0.343196 0.100874 0.012735
2887 2 0.362619 0.1142 0.0193721
2888 4 0.382042 0.127526 0.0260091
2783 4 0.401996 0.131431 0.0292035
2782 2 0.42643 0.134984 0.0265884
2784 4 0.450864 0.138536 0.0239734
2702 4 0.478803 0.137557 0.0725536
2844 4 0.465309 0.151471 0.0192833
2842 2 0.484945 0.165875 0.0174605
2441 4 0.00586458 0.227991 0.0375142
2440 2 0.0303607 0.22373 0.0333485
2442 4 0.0548568 0.219469 0.0291828
492 4 0.0715514 0.211895 0.0375215
490 2 0.0849445 0.201866 0.0564527
491 4 0.0983376 0.191837 0.0753839
4470 4 0.159058 0.208812 0.00359805
279 4 0.238338 0.179386 0.0316044
3141 4 0.258779 0.177355 0.0335066
528 4 0.253558 0.220945 0.0768136
3139 2 0.283206 0.178142 0.0385984
3198 4 0.261828 0.243408 0.000343899
526 2 0.278564 0.218517 0.0765873
2651 4 0.323067 0.216578 0.0704248
3140 4 0.307634 0.178929 0.0436901
2650 2 0.329474 0.231822 0.0519483
621 4 0.327318 0.171862 0.0436987
619 2 0.351637 0.173381 0.0489663
2652 4 0.335881 0.247067 0.0334717
104 3 0.354862 0.245223 0.0292722
620 4 0.375957 0.1749 0.054234
102 3 0.374706 0.22357 0.00494564
101 1 0.374069 0.243609 0.0162347
2966 4 0.392882 0.185518 0.0534769
2965 2 0.41184 0.186049 0.0697398
105 3 0.392544 0.244428 0.0294683
449 4 0.443461 0.240659 0.077121
915 4 0.448126 0.247575 0.0594733
3243 4 0.498204 0.200135 0.075023
3241 2 0.474327 0.195956 0.0802723
3216 4 0.202389 0.281864 0.0128179
3214 2 0.178976 0.281796 0.00404947
2875 2 0.303438 0.248413 0.0078136
2877 4 0.325818 0.252698 0.0176306
914 4 0.409277 0.255838 0.0285688
913 2 0.428702 0.251706 0.0440211
103 3 0.373743 0.260913 0.000785142
670 2 0.434231 0.306616 0.0673141
108 3 0.468583 0.249164 0.0609503
672 4 0.449907 0.309014 0.0480809
107 3 0.488255 0.274257 0.0795261
109 3 0.487954 0.274791 0.0419455
106 1 0.487873 0.261116 0.0606753
4547 4 0.490635 0.275716 0.022219
462 4 0.447404 0.328644 0.0448212
597 4 0.0581949 0.406504 0.0790638
595 2 0.0351862 0.397879 0.0802457
596 4 0.0121775 0.389254 0.0814276
3389 4 0.0768372 0.409717 0.0716306
1292 4 0.201952 0.393894 0.00292125
2748 4 0.338521 0.352198 0.0602073
2746 2 0.352306 0.339096 0.0769749
461 4 0.485748 0.344024 0.0177218
460 2 0.466576 0.336334 0.0312715
1079 4 0.502641 0.3428 0.00570006
3671 4 0.0328356 0.476485 0.0709563
1710 4 0.026597 0.498046 0.0705565
3388 2 0.0981659 0.419152 0.0794348
648 4 0.0857164 0.471967 0.0679656
646 2 0.0977203 0.472122 0.0460363
647 4 0.109724 0.472277 0.024107
1572 4 0.130283 0.470531 0.0184938
75 3 0.102881 0.477573 0.0773287
1570 2 0.155262 0.47089 0.0189239
1571 4 0.180242 0.471249 0.0193541
3711 4 0.20028 0.463613 0.0201282
3709 2 0.223038 0.471997 0.0243385
3710 4 0.245796 0.480381 0.0285488
1787 4 0.258728 0.488564 0.0394878
1786 2 0.281946 0.49605 0.03594
2618 4 0.370374 0.501884 0.0526561
2906 4 0.49425 0.425094 0.0594407
2907 4 0.479938 0.446364 0.0161653
2905 2 0.487094 0.435729 0.037803
1302 4 0.48675 0.460734 0.00375721
3809 4 0.0161207 0.0532475 0.134392
3808 2 0.0398002 0.047985 0.141402
3810 4 0.0634796 0.0427226 0.148413
2744 4 0.350357 0.0317891 0.133229
2743 2 0.367825 0.0381719 0.149603
3767 4 0.410809 0.0233686 0.166021
3766 2 0.422361 0.0407044 0.152965
3768 4 0.433913 0.0580401 0.139909
1875 4 0.449013 0.0688366 0.136894
520 2 0.0100631 0.138638 0.146344
521 4 0.0316145 0.146109 0.136927
624 4 0.0437866 0.156852 0.125216
622 2 0.0676108 0.151275 0.118915
623 4 0.0914349 0.145698 0.112614
455 4 0.107428 0.153752 0.104755
454 2 0.124855 0.165735 0.0922376
1564 2 0.164717 0.122793 0.15944
1566 4 0.179618 0.107427 0.145681
692 4 0.179929 0.0976882 0.127545
691 2 0.204803 0.0949532 0.129951
23 3 0.288 0.131569 0.0872072
693 4 0.229677 0.0922183 0.132357
353 4 0.237904 0.0959114 0.150555
352 2 0.258956 0.0951417 0.137028
354 4 0.280008 0.0943721 0.123501
24 3 0.284617 0.0979234 0.10414
2678 4 0.338415 0.0837079 0.151172
21 1 0.29818 0.110543 0.0908101
25 3 0.318435 0.112522 0.100831
2677 2 0.337592 0.093957 0.128367
2679 4 0.336768 0.104206 0.105563
506 4 0.344623 0.102041 0.157796
809 4 0.359886 0.10227 0.105066
743 4 0.291538 0.169117 0.0977339
808 2 0.382212 0.112256 0.102949
810 4 0.404537 0.122243 0.100833
1275 4 0.423123 0.128856 0.0977886
1274 4 0.471747 0.136249 0.0910339
1273 2 0.447435 0.132553 0.0944113
1873 2 0.46367 0.0883446 0.137388
1874 4 0.478328 0.107853 0.137882
333 4 0.498183 0.111364 0.135839
2837 4 0.0958866 0.20626 0.0891186
2836 2 0.0975894 0.219268 0.110342
2838 4 0.0992922 0.232276 0.131566
846 4 0.208724 0.249389 0.0949352
456 4 0.142282 0.177717 0.0797204
527 4 0.30357 0.216088 0.0763609
742 2 0.315015 0.174163 0.103787
744 4 0.338492 0.179209 0.10984
2600 4 0.354967 0.188863 0.114064
2599 2 0.374905 0.202893 0.112529
2601 4 0.394843 0.216923 0.110994
450 4 0.413004 0.225617 0.113184
448 2 0.428232 0.233138 0.0951524
2967 4 0.430798 0.186579 0.0860027
3242 4 0.450449 0.191776 0.0855216
252 4 0.237716 0.314368 0.104311
844 2 0.233394 0.251158 0.0979487
250 2 0.260068 0.323755 0.108347
845 4 0.258064 0.252928 0.100962
2727 4 0.371261 0.324113 0.11268
517 2 0.379996 0.293762 0.157289
518 4 0.37892 0.277038 0.1388
2725 2 0.395558 0.318999 0.108093
2747 4 0.366091 0.325995 0.0937424
671 4 0.418555 0.304218 0.0865473
2726 4 0.419855 0.313885 0.103506
412 2 0.463784 0.280305 0.136664
414 4 0.476592 0.281027 0.115224
351 4 0.480226 0.298807 0.104357
413 4 0.450975 0.279582 0.158103
766 2 0.0152344 0.337441 0.114028
768 4 0.0282337 0.357992 0.116498
2094 4 0.0450837 0.362933 0.106042
2092 2 0.0685504 0.353247 0.107811
3696 4 0.0943524 0.365707 0.152363
2093 4 0.0920172 0.34356 0.10958
3694 2 0.109222 0.380755 0.164802
251 4 0.282419 0.333141 0.112383
287 4 0.294448 0.33903 0.126266
286 2 0.314557 0.352467 0.129837
288 4 0.334667 0.365905 0.133408
2799 4 0.342706 0.382681 0.141846
2797 2 0.36578 0.384725 0.132689
2798 4 0.388854 0.386769 0.123532
2861 4 0.399214 0.403519 0.129955
2860 2 0.419874 0.391831 0.139204
2862 4 0.440534 0.380143 0.148453
3670 2 0.034698 0.461421 0.0908818
3672 4 0.0365605 0.446358 0.110807
3390 4 0.119495 0.428588 0.087239
71 1 0.111961 0.480937 0.0978669
72 3 0.12271 0.461397 0.105067
73 3 0.095218 0.487136 0.11303
2161 2 0.0908622 0.497492 0.149281
74 3 0.127398 0.497441 0.096621
3000 4 0.134362 0.42848 0.100466
2998 2 0.157683 0.435719 0.103921
2999 4 0.181004 0.442957 0.107375
2913 4 0.198012 0.448942 0.116627
2911 2 0.216364 0.451807 0.133207
1569 4 0.220358 0.494549 0.0936756
2912 4 0.234716 0.454671 0.149787
230 4 0.247073 0.467123 0.15869
2592 4 0.335145 0.420875 0.156464
2590 2 0.356635 0.430136 0.164049
255 4 0.0497629 0.0236811 0.243077
253 2 0.0716507 0.0275387 0.231998
254 4 0.0935384 0.0313964 0.220919
632 4 0.106928 0.0302926 0.206687
631 2 0.125046 0.0357439 0.222727
633 4 0.143163 0.0411951 0.238767
698 4 0.181799 0.0434584 0.235827
697 2 0.205151 0.0492327 0.241574
3731 4 0.192255 0.0060455 0.189889
689 4 0.281051 0.0914675 0.252731
699 4 0.228502 0.055007 0.24732
427 2 0.359157 0.00592159 0.238857
2693 4 0.39989 0.0078078 0.17052
2745 4 0.385292 0.0445547 0.165976
429 4 0.377626 0.0125155 0.223748
2756 4 0.396466 0.00993003 0.218497
2755 2 0.410257 0.0291058 0.212178
2757 4 0.424049 0.0482816 0.20586
2738 4 0.433334 0.0662439 0.20736
2737 2 0.42021 0.0796202 0.224421
1748 4 0.0646567 0.140938 0.233742
1747 2 0.0731714 0.149428 0.211988
1749 4 0.0816861 0.157919 0.190235
459 4 0.101032 0.162815 0.192525
457 2 0.125561 0.158856 0.188342
458 4 0.150091 0.154898 0.184159
1565 4 0.149816 0.138159 0.1732
2768 4 0.229527 0.132253 0.178911
2767 2 0.240178 0.14684 0.195731
711 4 0.265767 0.120382 0.236489
709 2 0.283062 0.1362 0.229569
2769 4 0.250828 0.161427 0.212551
2573 4 0.313521 0.0893092 0.236823
710 4 0.300358 0.152017 0.222649
496 2 0.33504 0.155294 0.217094
2572 2 0.332625 0.104114 0.23333
505 2 0.343663 0.11723 0.177656
507 4 0.342703 0.132419 0.197517
498 4 0.355401 0.144385 0.20644
2574 4 0.351729 0.11892 0.229836
2547 4 0.389232 0.0893127 0.246751
2739 4 0.407085 0.0929966 0.241483
1271 4 0.368236 0.115217 0.240398
285 4 0.0786751 0.172881 0.246855
651 4 0.24238 0.210574 0.241639
649 2 0.247717 0.194973 0.222638
3159 4 0.225657 0.201263 0.243196
650 4 0.253055 0.179372 0.203638
497 4 0.314679 0.166203 0.227749
237 4 0.329288 0.22312 0.228863
235 2 0.34916 0.209136 0.220989
236 4 0.369032 0.195151 0.213115
579 4 0.379523 0.178994 0.204872
577 2 0.401418 0.189881 0.206643
578 4 0.423313 0.200768 0.208413
387 4 0.43386 0.201666 0.191587
385 2 0.446287 0.218555 0.178788
386 4 0.458714 0.235445 0.16599
2730 4 0.0544582 0.323278 0.209399
716 4 0.0219455 0.306245 0.234226
2753 4 0.0707986 0.312332 0.212933
2752 2 0.0942549 0.319509 0.210379
2754 4 0.117711 0.326687 0.207826
2904 4 0.359197 0.31688 0.235368
2902 2 0.362638 0.311387 0.211182
519 4 0.381073 0.310485 0.175779
2903 4 0.366079 0.305894 0.186995
2462 4 0.434694 0.276365 0.170124
2461 2 0.449304 0.272695 0.190214
2463 4 0.463914 0.269026 0.210304
1199 4 0.479981 0.269528 0.221575
1198 2 0.48204 0.266095 0.24627
2729 4 0.0345822 0.342747 0.167396
2728 2 0.0445202 0.333012 0.188398
3404 4 0.0610676 0.412951 0.216113
3403 2 0.0802268 0.397988 0.20822
3405 4 0.0993861 0.383024 0.200327
3695 4 0.124091 0.395802 0.177241
3448 2 0.198817 0.38572 0.23631
3450 4 0.178472 0.38713 0.250875
3449 4 0.219162 0.38431 0.221745
714 4 0.23523 0.372592 0.216458
712 2 0.248231 0.390805 0.206461
612 4 0.27955 0.412891 0.192886
713 4 0.261231 0.409019 0.196464
610 2 0.301975 0.413722 0.181943
611 4 0.3244 0.414552 0.171
3988 2 0.486429 0.403939 0.248443
3829 2 0.0192832 0.431747 0.186895
3831 4 0.0421692 0.433437 0.196626
4005 4 0.054967 0.442646 0.208143
4003 2 0.0677108 0.451433 0.227487
2162 4 0.0780241 0.4852 0.166401
4004 4 0.0804546 0.460219 0.246831
3599 4 0.0782426 0.495439 0.18322
734 4 0.199096 0.467857 0.24281
733 2 0.222075 0.471753 0.234267
735 4 0.245053 0.47565 0.225723
231 4 0.251208 0.480359 0.206676
229 2 0.249141 0.473741 0.182683
1383 4 0.333827 0.487031 0.250674
2591 4 0.378124 0.439396 0.171633
3990 4 0.503802 0.416227 0.23617
258 4 0.0881432 0.0746312 0.299974
256 2 0.110549 0.0689919 0.310166
257 4 0.132956 0.0633527 0.320359
3926 4 0.134085 0.0394273 0.255935
516 4 0.150736 0.0734015 0.320547
3925 2 0.149218 0.0356499 0.275622
514 2 0.175072 0.0779852 0.319716
3927 4 0.164352 0.0318725 0.295309
3698 4 0.174856 0.0237452 0.310596
3697 2 0.199421 0.027285 0.311292
688 2 0.264218 0.0738218 0.2526
690 4 0.247385 0.0561761 0.252469
3699 4 0.223986 0.0308249 0.311987
545 4 0.242752 0.0301984 0.318006
544 2 0.265518 0.0376678 0.323832
546 4 0.288285 0.0451373 0.329658
3723 4 0.29981 0.0594655 0.255944
3721 2 0.323045 0.0499048 0.259933
707 4 0.331406 0.0175654 0.334203
3722 4 0.34628 0.0403441 0.263922
1127 4 0.34493 0.0314534 0.326515
2546 4 0.35976 0.0522982 0.258981
1126 2 0.355699 0.0453612 0.309185
1128 4 0.366468 0.059269 0.291854
2545 2 0.374496 0.0708055 0.252866
2113 2 0.405756 0.0728304 0.299045
2115 4 0.380797 0.0730096 0.297413
1806 4 0.438585 0.00582663 0.27727
1184 4 0.439413 0.024765 0.282882
2114 4 0.430714 0.0726512 0.300676
342 4 0.485761 0.0504772 0.296988
1185 4 0.468858 0.0604664 0.298724
1183 2 0.454136 0.0426157 0.290803
420 4 0.0221496 0.155129 0.250345
179 3 0.0580793 0.148277 0.289221
176 1 0.053744 0.155828 0.267641
1190 4 0.0549799 0.133784 0.304029
177 3 0.0315134 0.162738 0.266077
180 3 0.0582222 0.139001 0.252731
1189 2 0.0750176 0.13757 0.318232
1191 4 0.0950554 0.141356 0.332435
402 4 0.113743 0.144471 0.326834
515 4 0.199409 0.0825688 0.318886
1703 4 0.2176 0.0898942 0.316687
634 2 0.19084 0.155967 0.299012
636 4 0.205106 0.143235 0.28236
2643 4 0.22468 0.147205 0.284052
2641 2 0.242988 0.138069 0.269117
1702 2 0.23934 0.100767 0.313459
2642 4 0.261297 0.128933 0.254183
530 4 0.269392 0.106079 0.292243
1704 4 0.26108 0.11164 0.310231
529 2 0.293975 0.107427 0.288275
531 4 0.318557 0.108776 0.284306
4306 2 0.344253 0.107028 0.310899
4307 4 0.337596 0.115789 0.288322
4308 4 0.350911 0.098267 0.333476
1272 4 0.409867 0.132313 0.260484
1270 2 0.389051 0.123765 0.250441
3677 4 0.424908 0.122025 0.270909
3676 2 0.444313 0.123521 0.286512
3678 4 0.463719 0.125017 0.302116
178 3 0.0667424 0.173784 0.262859
283 2 0.0983284 0.184614 0.255681
284 4 0.117982 0.196346 0.264506
2698 2 0.111303 0.237163 0.332352
513 4 0.144012 0.209688 0.306577
511 2 0.155707 0.199064 0.286888
512 4 0.167403 0.188441 0.267199
3157 2 0.202514 0.202201 0.252728
3158 4 0.179371 0.203139 0.26226
635 4 0.176573 0.1687 0.315663
480 4 0.184652 0.245697 0.296099
1394 4 0.318578 0.240132 0.272993
724 2 0.41094 0.207485 0.320163
725 4 0.425241 0.220076 0.304552
1031 4 0.431489 0.237768 0.302287
509 4 0.459473 0.1977 0.271281
508 2 0.466095 0.22142 0.272543
510 4 0.472718 0.24514 0.273805
715 2 0.0131528 0.295664 0.254874
717 4 0.00436016 0.285083 0.275523
2699 4 0.122137 0.252354 0.316227
479 4 0.138141 0.26159 0.308673
478 2 0.161396 0.253644 0.302386
343 2 0.219389 0.309802 0.320418
2681 4 0.250534 0.314768 0.295226
344 4 0.231737 0.311132 0.298755
2680 2 0.26967 0.314814 0.279136
2682 4 0.288806 0.314861 0.263046
2539 2 0.32696 0.321024 0.259789
2540 4 0.303426 0.326857 0.266924
1393 2 0.33119 0.260789 0.276503
2541 4 0.350494 0.31519 0.252654
2786 4 0.357551 0.291306 0.274017
1395 4 0.343802 0.281446 0.280014
2785 2 0.380833 0.291721 0.283073
2787 4 0.404115 0.292136 0.292129
1030 2 0.426756 0.261496 0.295243
1032 4 0.422024 0.285223 0.288199
1200 4 0.484099 0.262662 0.270965
373 2 0.0131323 0.413984 0.315046
2874 4 0.170894 0.383504 0.26968
2872 2 0.168974 0.40679 0.278755
246 4 0.219359 0.411078 0.306171
1433 4 0.496342 0.398821 0.320341
3989 4 0.469055 0.391651 0.260716
1432 2 0.476967 0.388266 0.331191
1338 4 0.998247 0.475966 0.325994
374 4 0.034631 0.421344 0.30541
1857 4 0.0445902 0.438921 0.302099
1855 2 0.0600102 0.444232 0.283365
1856 4 0.0754301 0.449542 0.264631
1573 2 0.164601 0.500291 0.284648
2873 4 0.167054 0.430077 0.28783
1 1 0.196017 0.45598 0.301037
5 3 0.186332 0.473916 0.290096
1575 4 0.174224 0.479116 0.274477
2 3 0.182464 0.43817 0.299213
3 3 0.198637 0.461039 0.323499
244 2 0.24182 0.420728 0.308556
4 3 0.216669 0.450128 0.291568
4368 4 0.231022 0.463209 0.290921
4366 2 0.251695 0.472845 0.281712
245 4 0.264281 0.430378 0.310941
4367 4 0.272368 0.482481 0.272503
2621 4 0.280787 0.433009 0.300284
1382 4 0.286455 0.495045 0.265851
2620 2 0.301732 0.44555 0.301889
1381 2 0.310141 0.491038 0.258262
2622 4 0.322677 0.458091 0.303494
542 4 0.336395 0.471044 0.30056
541 2 0.358803 0.480824 0.298267
543 4 0.381212 0.490604 0.295973
3998 4 0.401204 0.490292 0.29979
1496 4 0.0467498 0.0535097 0.384499
1495 2 0.0670477 0.0431752 0.373226
1497 4 0.0873456 0.0328407 0.361954
3173 4 0.129339 0.0123193 0.412775
617 4 0.272028 0.00573038 0.368136
708 4 0.290697 0.0068183 0.360356
249 4 0.294243 0.0587156 0.341089
706 2 0.311052 0.0121918 0.34728
247 2 0.314698 0.0719458 0.339029
248 4 0.335153 0.085176 0.336969
400 2 0.117822 0.157525 0.347627
2891 4 0.187075 0.16196 0.385759
2580 4 0.194842 0.155263 0.367608
2578 2 0.218687 0.155739 0.375041
2579 4 0.242532 0.156216 0.382473
983 4 0.252224 0.148152 0.398433
474 4 0.406229 0.151425 0.377638
472 2 0.429845 0.158273 0.375564
473 4 0.453461 0.165121 0.373491
369 4 0.470271 0.155797 0.370195
3632 4 0.0163002 0.225831 0.379617
2451 4 0.0326729 0.221017 0.367045
2449 2 0.0569342 0.223764 0.362319
401 4 0.121902 0.170579 0.368421
2450 4 0.0811955 0.226511 0.357593
2892 4 0.13997 0.177352 0.374954
2700 4 0.100469 0.221973 0.348477
2890 2 0.163522 0.169656 0.380356
2529 4 0.170452 0.252051 0.369378
3079 2 0.359645 0.233404 0.410555
726 4 0.396638 0.194894 0.335775
3080 4 0.382035 0.2342 0.399534
871 2 0.42107 0.247754 0.406113
872 4 0.397331 0.245858 0.398797
367 2 0.490902 0.168573 0.367098
2528 4 0.134873 0.253926 0.404564
2527 2 0.152663 0.252988 0.386971
2597 4 0.153513 0.310379 0.358662
345 4 0.20704 0.308472 0.342081
2596 2 0.17822 0.312903 0.360132
2598 4 0.202926 0.315427 0.361601
2712 4 0.318044 0.303405 0.408488
2710 2 0.328183 0.32128 0.394926
873 4 0.444809 0.249651 0.41343
2510 4 0.450458 0.26868 0.414253
259 2 0.0253244 0.345575 0.38051
260 4 0.0483158 0.353714 0.377123
261 4 0.00233295 0.337436 0.383897
594 4 0.0658773 0.359461 0.383347
592 2 0.0896851 0.364586 0.378895
593 4 0.113493 0.369712 0.374443
3318 4 0.133282 0.365106 0.373532
3316 2 0.15663 0.372309 0.370182
3317 4 0.179978 0.379512 0.366832
669 4 0.200574 0.379672 0.367157
667 2 0.225496 0.379496 0.365036
668 4 0.250418 0.37932 0.362914
1436 4 0.269466 0.385255 0.359524
1027 2 0.273422 0.353555 0.408149
1029 4 0.256555 0.336262 0.411575
1435 2 0.289005 0.399818 0.361068
1028 4 0.290289 0.370848 0.404723
1437 4 0.308543 0.41438 0.362612
681 4 0.328638 0.40773 0.357122
2711 4 0.338323 0.339156 0.381363
679 2 0.352167 0.398047 0.357703
680 4 0.375697 0.388363 0.358284
416 4 0.42622 0.381885 0.401374
415 2 0.435339 0.385124 0.378383
417 4 0.444458 0.388363 0.355393
1434 4 0.457593 0.377711 0.34204
549 4 0.312097 0.458967 0.380155
548 4 0.351204 0.443652 0.351939
547 2 0.33165 0.451309 0.366047
2532 4 0.441624 0.467418 0.415041
2530 2 0.429873 0.48967 0.419142
2691 4 0.456157 0.458686 0.403513
2689 2 0.472126 0.462714 0.384872
2690 4 0.488094 0.466743 0.366231
220 3 0.0316972 0.00459902 0.423744
218 3 0.0224563 0.0396128 0.435389
217 3 0.010269 0.00996644 0.454014
216 1 0.0278773 0.0178047 0.442027
219 3 0.0467486 0.0172368 0.455556
89 3 0.0479973 0.0538854 0.498725
575 4 0.066249 0.0496665 0.490121
2457 4 0.0601201 0.00753781 0.443522
574 2 0.0864021 0.0589126 0.47941
2455 2 0.0842387 0.0130292 0.443509
576 4 0.106555 0.0681587 0.4687
2456 4 0.108357 0.0185207 0.443496
3621 4 0.126225 0.0743446 0.470734
1182 4 0.138216 0.00439378 0.458576
1180 2 0.14728 0.0271068 0.456281
1181 4 0.156343 0.0498199 0.453985
3746 4 0.500959 0.001358 0.453086
3327 4 0.00424278 0.108838 0.48378
3325 2 0.0273899 0.117198 0.483712
3326 4 0.0505369 0.125558 0.483643
320 4 0.0699412 0.125028 0.476269
319 2 0.0947425 0.124821 0.479516
321 4 0.119544 0.124613 0.482763
3619 2 0.143779 0.0860762 0.458145
3620 4 0.161332 0.0978077 0.445556
2657 4 0.176246 0.105215 0.435221
2656 2 0.199727 0.112597 0.436586
982 2 0.248205 0.13329 0.417968
2658 4 0.223209 0.119978 0.437951
984 4 0.244186 0.118428 0.437503
694 2 0.487712 0.163898 0.497745
3497 4 0.280884 0.22404 0.428518
3081 4 0.337255 0.232608 0.421577
3496 2 0.30578 0.221676 0.430896
3498 4 0.330675 0.219313 0.433275
696 4 0.495603 0.185746 0.48955
365 4 0.0332893 0.274326 0.433812
364 2 0.0533724 0.28097 0.446627
2550 4 0.0133875 0.32207 0.493429
366 4 0.0734554 0.287614 0.459443
2496 4 0.128624 0.262696 0.4245
3454 2 0.1276 0.316642 0.491358
2495 4 0.0855082 0.274079 0.448184
2494 2 0.107066 0.268388 0.436342
3455 4 0.145939 0.328464 0.480084
238 2 0.209772 0.294562 0.487949
239 4 0.191126 0.278873 0.489165
240 4 0.228418 0.310252 0.486732
2635 2 0.24391 0.321154 0.448767
2637 4 0.244591 0.325922 0.42424
2636 4 0.243229 0.316385 0.473295
304 2 0.42117 0.262553 0.49883
3059 4 0.498713 0.274684 0.479232
2509 2 0.470178 0.264731 0.429368
306 4 0.445791 0.265806 0.499432
2511 4 0.489897 0.260781 0.444483
3058 2 0.478245 0.276418 0.493613
3333 4 0.00106593 0.377703 0.458593
2561 4 0.156618 0.342573 0.469722
2560 2 0.17775 0.34622 0.45717
2562 4 0.198883 0.349866 0.444618
348 4 0.213536 0.362944 0.445658
346 2 0.233784 0.37573 0.440614
347 4 0.254031 0.388516 0.435569
267 4 0.273311 0.392533 0.435261
265 2 0.295165 0.403049 0.431552
266 4 0.317019 0.413565 0.427842
3884 4 0.427306 0.372349 0.419297
4042 2 0.385838 0.39982 0.488162
4044 4 0.403936 0.400561 0.470965
3883 2 0.42412 0.381593 0.44237
3885 4 0.420934 0.390836 0.465442
3593 4 0.485141 0.378179 0.441244
3592 2 0.490684 0.368997 0.41855
1982 4 0.276511 0.495538 0.432709
1419 4 0.283246 0.478149 0.437888
1417 2 0.307574 0.47612 0.432042
1418 4 0.331901 0.474092 0.426197
4058 4 0.341928 0.484425 0.438953
813 4 0.331522 0.423839 0.437982
4057 2 0.349675 0.491561 0.461506
811 2 0.354424 0.432779 0.437679
3963 4 0.286426 0.42543 0.495581
3961 2 0.309219 0.431905 0.502572
3540 4 0.422009 0.500039 0.478897
3539 4 0.375323 0.494202 0.495016
1171 2 0.416002 0.438904 0.456142
812 4 0.377326 0.441719 0.437375
1173 4 0.392956 0.445519 0.448052
3538 2 0.398666 0.497121 0.486957
1172 4 0.439048 0.432288 0.464231
90 3 0.019271 0.0362243 0.513858
88 3 0.0150393 0.0729986 0.506139
86 1 0.029844 0.0558374 0.513168
87 3 0.0374215 0.0607674 0.53423
3396 4 0.998413 0.0400229 0.509687
2490 4 0.0574804 0.0633415 0.532189
2488 2 0.0821075 0.0637207 0.536386
2489 4 0.106735 0.0641 0.540583
918 4 0.112663 0.0494005 0.553934
916 2 0.136107 0.041217 0.55919
917 4 0.15955 0.0330334 0.564447
4326 4 0.173885 0.0254362 0.57715
2316 4 0.207301 0.0537247 0.523177
2314 2 0.228851 0.0432474 0.531738
2315 4 0.250401 0.0327701 0.540299
2196 4 0.267868 0.040304 0.543909
2194 2 0.291069 0.0481269 0.546629
2195 4 0.314271 0.0559497 0.549348
2553 4 0.334768 0.0586134 0.54687
2551 2 0.358221 0.0607975 0.554947
2552 4 0.381674 0.0629817 0.563023
762 4 0.398771 0.0705235 0.567894
760 2 0.421715 0.0789157 0.570884
761 4 0.444658 0.0873079 0.573874
2505 4 0.00257567 0.0876379 0.514524
949 2 0.390326 0.156433 0.532124
951 4 0.404494 0.144593 0.514784
824 4 0.414392 0.128905 0.507778
950 4 0.376157 0.168274 0.549464
2810 4 0.418402 0.147791 0.564188
823 2 0.4376 0.136416 0.511327
2809 2 0.43747 0.140672 0.579167
825 4 0.460809 0.143926 0.514875
3021 4 0.465125 0.0896339 0.572831
3019 2 0.488229 0.0979665 0.574418
695 4 0.479821 0.14205 0.50594
2603 4 0.43992 0.197142 0.536626
2602 2 0.458283 0.213103 0.538433
2604 4 0.476647 0.229064 0.54024
2964 4 0.494987 0.235171 0.539098
898 2 0.483222 0.181564 0.580486
3206 4 0.450669 0.205591 0.586768
899 4 0.463679 0.196206 0.572939
2548 2 0.0268149 0.326402 0.51393
2549 4 0.0402422 0.330733 0.534431
2847 4 0.0590543 0.322488 0.528115
2845 2 0.0820465 0.323253 0.53782
2846 4 0.105039 0.324019 0.547525
3456 4 0.109261 0.30482 0.502633
408 4 0.310538 0.299044 0.514933
406 2 0.33462 0.291367 0.51709
407 4 0.358701 0.283689 0.519247
803 4 0.370797 0.292114 0.532212
802 2 0.394354 0.299391 0.532097
804 4 0.417911 0.306668 0.531982
305 4 0.396549 0.2593 0.498227
1238 4 0.433407 0.316919 0.528693
1237 2 0.455029 0.323585 0.538628
1239 4 0.476651 0.330251 0.548563
891 4 0.494862 0.330945 0.542659
3060 4 0.457778 0.278152 0.507993
3044 4 0.120152 0.335892 0.540505
3043 2 0.144783 0.339086 0.539859
3045 4 0.169414 0.342281 0.539214
1641 4 0.187474 0.334329 0.533877
1639 2 0.209531 0.340181 0.524315
1640 4 0.231589 0.346032 0.514753
1911 4 0.250632 0.350327 0.518944
1909 2 0.275334 0.352202 0.521556
1910 4 0.300037 0.354077 0.524168
662 4 0.316177 0.365882 0.527992
661 2 0.336423 0.378935 0.523743
663 4 0.356669 0.391989 0.519495
4043 4 0.367739 0.399079 0.505359
791 4 0.0865441 0.484706 0.574038
790 2 0.110993 0.478851 0.571323
1137 4 0.0705807 0.47816 0.584402
792 4 0.135443 0.472997 0.568608
4215 4 0.197653 0.479948 0.509027
4213 2 0.218862 0.492158 0.50909
1281 4 0.28656 0.440548 0.558617
539 4 0.294889 0.495879 0.524359
3368 4 0.301488 0.452235 0.555829
1279 2 0.296597 0.432549 0.580258
3367 2 0.308626 0.471195 0.541676
3369 4 0.315763 0.490156 0.527522
4179 4 0.34992 0.434247 0.517983
3962 4 0.332013 0.43838 0.509562
213 3 0.368916 0.485406 0.512315
4177 2 0.373117 0.441849 0.521378
4178 4 0.396314 0.449451 0.524773
1446 4 0.407038 0.455847 0.540585
1444 2 0.431239 0.46063 0.538346
1445 4 0.455439 0.465414 0.536107
3360 4 0.119076 0.0453085 0.619119
3358 2 0.125885 0.059871 0.637996
3359 4 0.132693 0.0744335 0.656872
4324 2 0.192061 0.0353884 0.59047
4325 4 0.210238 0.0453406 0.60379
4369 2 0.0148637 0.120968 0.609864
4371 4 0.0385781 0.126265 0.614571
3062 4 0.0475696 0.137503 0.62749
3061 2 0.0639107 0.143179 0.645283
3063 4 0.0802518 0.148855 0.663076
3125 4 0.0970132 0.135109 0.66292
2318 4 0.164446 0.103312 0.614389
2317 2 0.178929 0.116575 0.599561
2319 4 0.193413 0.129838 0.584734
1131 4 0.271538 0.146194 0.587114
1129 2 0.279483 0.162698 0.603724
2811 4 0.456539 0.133554 0.594145
3110 4 0.4601 0.133877 0.613037
3109 2 0.482804 0.131706 0.623521
1130 4 0.287427 0.179202 0.620334
935 4 0.307782 0.179262 0.613364
934 2 0.323868 0.188839 0.629461
936 4 0.339953 0.198416 0.645557
1259 4 0.35562 0.20766 0.636084
1258 2 0.373625 0.203953 0.618941
1260 4 0.39163 0.200247 0.601797
3207 4 0.407102 0.187656 0.60098
3205 2 0.428886 0.196623 0.593874
3238 2 0.00938265 0.286697 0.657509
3093 4 0.051765 0.287089 0.65788
3354 4 0.0925281 0.341016 0.655739
3352 2 0.107347 0.341898 0.635652
3353 4 0.122166 0.34278 0.615565
3446 4 0.142809 0.34513 0.616397
3445 2 0.166438 0.351882 0.618682
3447 4 0.190066 0.358634 0.620966
2721 4 0.208641 0.358613 0.612399
2719 2 0.232463 0.35662 0.604754
2720 4 0.256286 0.354627 0.597109
3221 4 0.275859 0.354884 0.603554
3220 2 0.300072 0.360005 0.604053
3222 4 0.324284 0.365125 0.604552
3491 4 0.340995 0.37285 0.598545
3492 4 0.373811 0.406887 0.586266
3490 2 0.357403 0.389868 0.592406
1136 4 0.0228931 0.46909 0.59445
1135 2 0.0467369 0.473625 0.589426
1170 4 0.0481051 0.475694 0.657031
798 4 0.00478009 0.463923 0.601919
4559 4 0.269928 0.429631 0.663332
772 2 0.288379 0.460627 0.649756
773 4 0.286274 0.441957 0.666108
774 4 0.290484 0.479298 0.633405
1280 4 0.306635 0.424551 0.601899
878 4 0.324635 0.429595 0.596887
877 2 0.345105 0.442859 0.598526
879 4 0.365575 0.456122 0.600165
1205 4 0.383855 0.462449 0.601842
1204 2 0.398293 0.478023 0.614133
1206 4 0.412731 0.493598 0.626425
3119 4 0.431623 0.496493 0.628522
3118 2 0.442937 0.491641 0.65041
1036 2 0.0107979 0.0075832 0.682291
4283 4 0.0549905 0.00240549 0.686199
4282 2 0.0790479 0.00808777 0.686829
4284 4 0.103105 0.01377 0.68746
4385 4 0.0942254 0.00817395 0.746646
4384 2 0.118201 0.0130746 0.742834
3309 4 0.117125 0.0266829 0.691208
3307 2 0.140269 0.0349719 0.692429
4386 4 0.142177 0.0179753 0.739022
2133 4 0.162341 0.0219251 0.744092
3308 4 0.163413 0.0432608 0.693649
4115 4 0.180095 0.0449132 0.682234
4114 2 0.202619 0.0471865 0.692605
4116 4 0.225142 0.0494599 0.702976
3294 4 0.241984 0.0423821 0.709845
3292 2 0.266384 0.0466194 0.708612
3293 4 0.290783 0.0508567 0.70738
954 4 0.308293 0.0454795 0.698005
952 2 0.331251 0.0530929 0.693257
953 4 0.354209 0.0607063 0.688509
1077 4 0.376123 0.0604107 0.686083
1075 2 0.397964 0.0715159 0.68665
4502 4 0.370851 0.00726453 0.692303
3300 4 0.00534845 0.117863 0.748638
3481 2 0.0469936 0.118682 0.746345
3483 4 0.0234971 0.116439 0.73842
3124 2 0.120518 0.137905 0.670556
1166 4 0.0887862 0.120411 0.748579
3126 4 0.144023 0.140702 0.678192
3008 4 0.155586 0.123666 0.682622
3007 2 0.18018 0.123088 0.678001
3009 4 0.204775 0.12251 0.673381
1005 4 0.221323 0.130201 0.680371
1003 2 0.246299 0.129878 0.678931
1004 4 0.271276 0.129556 0.677492
1264 2 0.273806 0.116772 0.747946
2255 4 0.287723 0.118947 0.680115
2254 2 0.311576 0.110389 0.678326
1266 4 0.294634 0.125793 0.738404
2256 4 0.335428 0.101831 0.676536
1022 4 0.34293 0.120789 0.680425
1021 2 0.367931 0.120824 0.680652
1076 4 0.419804 0.0826212 0.687216
1023 4 0.392932 0.12086 0.68088
1082 4 0.4029 0.134375 0.692932
1081 2 0.425022 0.127285 0.702987
1083 4 0.447144 0.120195 0.713042
3355 2 0.208019 0.21837 0.736506
3357 4 0.213735 0.227443 0.714038
3038 4 0.260929 0.185442 0.687831
3037 2 0.263795 0.181649 0.7124
3039 4 0.266661 0.177855 0.736969
3240 4 0.0329266 0.29027 0.664557
3091 2 0.0694802 0.277906 0.673471
3092 4 0.0871953 0.268723 0.689062
3435 4 0.0959483 0.286002 0.690358
3433 2 0.112905 0.279392 0.707824
3434 4 0.129861 0.272783 0.72529
383 4 0.133821 0.254264 0.732303
2972 4 0.292551 0.285257 0.727297
2971 2 0.311517 0.27541 0.713624
2973 4 0.330482 0.265562 0.699951
3252 4 0.342445 0.250507 0.710716
3250 2 0.363711 0.262412 0.708365
3251 4 0.384978 0.274317 0.706013
738 4 0.393274 0.270831 0.725909
736 2 0.417295 0.267751 0.732695
737 4 0.441316 0.264671 0.73948
1068 4 0.464536 0.322415 0.689989
1066 2 0.48584 0.324145 0.677158
3375 4 0.109691 0.349535 0.665836
3373 2 0.116817 0.359047 0.687674
3374 4 0.123944 0.368558 0.709513
1017 4 0.138639 0.357199 0.717088
1015 2 0.16141 0.35439 0.727342
1016 4 0.184182 0.351581 0.737596
4558 2 0.285293 0.409724 0.668065
4560 4 0.300658 0.389818 0.672799
800 4 0.32066 0.389716 0.674206
799 2 0.337301 0.402848 0.686597
801 4 0.353942 0.41598 0.698989
1298 4 0.457647 0.332569 0.705614
1299 4 0.430682 0.367152 0.731458
1297 2 0.444165 0.34986 0.718536
1168 2 0.0707657 0.472842 0.667519
1169 4 0.0934263 0.46999 0.678006
1904 4 0.105532 0.4674 0.693996
1903 2 0.110717 0.466554 0.718451
1905 4 0.115902 0.465707 0.742905
1955 4 0.364415 0.43201 0.694506
1954 2 0.381007 0.436491 0.71246
1956 4 0.397599 0.440972 0.730413
1008 4 0.389937 0.429946 0.745408
4302 4 0.444016 0.473807 0.68211
3120 4 0.454251 0.486789 0.672298
4301 4 0.470989 0.431381 0.691226
4300 2 0.457502 0.452594 0.686668