ITEM: TIMESTEP
1367500
ITEM: NUMBER OF ATOMS
4590
ITEM: BOX BOUNDS xy xz yz pp pp pp
-9.9985700000000008e+00 1.6997569000000002e+01 6.9989990000000013e+00
-9.9985700000000008e+00 9.9985700000000008e+00 0.0000000000000000e+00
-9.9985700000000008e+00 9.9985700000000008e+00 0.0000000000000000e+00
ITEM: ATOMS id type xs ys zs
758 4 0.0233386 0.0748744 0.0825634
1808 4 0.0645559 0.998859 0.0126647
757 2 0.0318867 0.05012 0.079045
759 4 0.0404348 0.0253657 0.0755266
1824 4 0.0652931 0.0697003 0.998682
1874 4 0.27412 0.0409226 0.0576311
1873 2 0.296712 0.0434211 0.0493683
1875 4 0.319304 0.0459196 0.0411056
1653 4 0.334333 0.046366 0.0550538
1651 2 0.359654 0.0438164 0.0503737
1652 4 0.384975 0.0412669 0.0456935
2469 4 0.401298 0.0390324 0.0577336
2467 2 0.427281 0.0352192 0.0594947
2468 4 0.453264 0.031406 0.0612558
2466 4 0.467969 0.0399698 0.0565447
2464 2 0.485305 0.0520505 0.0527694
356 4 0.03808 0.0837092 0.0804555
2601 4 0.041485 0.132943 0.0813736
1823 4 0.0708574 0.110908 0.0187629
1822 2 0.0680753 0.090304 0.00872258
376 2 0.0572878 0.160815 0.076867
3414 4 0.228371 0.169229 0.0199999
454 2 0.00582325 0.217648 0.0324
455 4 0.0309199 0.216929 0.0296834
102 3 0.0503457 0.211384 0.0217952
101 1 0.0664402 0.220864 0.0138929
377 4 0.05634 0.183697 0.0696735
105 3 0.0547126 0.239925 0.00250175
103 3 0.0785018 0.225815 0.0318824
104 3 0.0822455 0.205754 0.999769
279 4 0.0949355 0.222541 0.0450085
277 2 0.118048 0.226866 0.0448376
278 4 0.141159 0.231192 0.0446666
3412 2 0.20621 0.166748 0.0105821
3413 4 0.184049 0.164268 0.00116424
3141 4 0.163205 0.228886 0.0426258
3139 2 0.186326 0.230576 0.0348779
3140 4 0.209447 0.232267 0.02713
3344 4 0.248164 0.168447 0.0251162
621 4 0.220666 0.241546 0.0395335
3343 2 0.271065 0.173097 0.0237364
619 2 0.245072 0.242112 0.0439476
620 4 0.269479 0.242679 0.0483618
3345 4 0.293967 0.177747 0.0223566
2966 4 0.289839 0.24111 0.0526639
2965 2 0.309797 0.246813 0.0631843
2882 4 0.315613 0.174547 0.0212656
2881 2 0.34029 0.175275 0.0195123
2883 4 0.364966 0.176002 0.0177591
770 4 0.382558 0.179187 0.0187638
3242 4 0.339828 0.251263 0.0559433
769 2 0.405342 0.184124 0.0186546
771 4 0.428126 0.18906 0.0185454
3243 4 0.388254 0.246835 0.0727883
572 4 0.447089 0.193367 0.0171211
3241 2 0.364041 0.249049 0.0643658
571 2 0.469156 0.199181 0.0203569
573 4 0.491224 0.204996 0.0235926
914 4 0.0444487 0.258972 0.996171
3214 2 0.0487594 0.328072 0.00378958
2967 4 0.329755 0.252516 0.0737047
3284 4 0.395231 0.262069 0.080308
462 4 0.415968 0.283078 0.998057
460 2 0.424777 0.300097 0.00889747
2523 4 0.467793 0.29459 0.0628933
461 4 0.433586 0.317116 0.0197381
3339 4 0.487515 0.289187 0.0510606
3337 2 0.481978 0.303379 0.0304825
3338 4 0.47644 0.317571 0.00990444
3216 4 0.0273638 0.340257 0.0173262
2747 4 0.1023 0.415171 0.0290224
2485 2 0.151805 0.410395 0.0345438
2487 4 0.155995 0.414564 0.0105462
2486 4 0.147615 0.406226 0.0585414
2727 4 0.208774 0.39722 0.0495769
2725 2 0.223871 0.410297 0.0577682
1079 4 0.272222 0.369902 0.00517246
4303 2 0.381112 0.398602 0.0590335
4305 4 0.389241 0.396637 0.0352437
597 4 0.440747 0.382397 0.0807859
595 2 0.459319 0.389239 0.0690053
596 4 0.47789 0.396082 0.0572246
1550 4 0.488001 0.398272 0.0408065
2746 2 0.0771083 0.416977 0.0246919
1121 4 0.0318815 0.41693 0.0181147
2748 4 0.0519165 0.418783 0.0203615
903 4 0.123183 0.474011 0.0173253
2445 4 0.143532 0.423204 0.0686164
2514 4 0.137884 0.473845 0.030094
2512 2 0.14705 0.461545 0.0513138
2513 4 0.156216 0.449246 0.0725337
4051 2 0.211047 0.485805 0.00505418
2726 4 0.238968 0.423375 0.0659595
2564 4 0.253601 0.488824 0.0104352
4052 4 0.234992 0.485126 0.0129717
671 4 0.253458 0.432817 0.0670437
670 2 0.279321 0.428913 0.0701822
2563 2 0.270383 0.466527 0.00354829
672 4 0.305184 0.42501 0.0733207
3543 4 0.480562 0.477463 0.0810185
3541 2 0.499042 0.462389 0.0660656
688 2 0.00266824 0.0625677 0.147437
2743 2 0.119556 0.0230018 0.156018
2745 4 0.120321 0.0378822 0.136832
2701 2 0.167277 0.0599013 0.125972
2703 4 0.18825 0.0395102 0.121739
2781 4 0.196788 0.0196105 0.127355
2702 4 0.146303 0.0802924 0.130205
2779 2 0.218931 0.0211974 0.116989
2780 4 0.241074 0.0227844 0.106622
2679 4 0.262421 0.0156048 0.111524
2677 2 0.272261 0.0344353 0.112323
2678 4 0.282101 0.0532658 0.113122
1374 4 0.274981 0.0726189 0.117841
2769 4 0.420765 0.0611347 0.122211
2767 2 0.4256 0.0823532 0.127174
690 4 0.00486159 0.0852019 0.150689
699 4 0.0232482 0.087817 0.155504
2599 2 0.0162104 0.137375 0.0879109
378 4 0.0582357 0.137933 0.0840606
623 4 0.0849423 0.0882648 0.124804
357 4 0.0796024 0.0872766 0.106121
355 2 0.0588412 0.0854929 0.0932881
622 2 0.0798821 0.103344 0.144748
624 4 0.0748219 0.118422 0.164692
521 4 0.085405 0.130294 0.157894
1372 2 0.282701 0.0910242 0.108574
1373 4 0.290422 0.10943 0.0993072
2768 4 0.430435 0.103572 0.132138
692 4 0.44734 0.102697 0.142514
691 2 0.467398 0.111856 0.142133
693 4 0.487456 0.121014 0.141752
353 4 0.492893 0.136605 0.134011
629 4 0.331975 0.214381 0.120382
628 2 0.356074 0.209059 0.110262
333 4 0.425327 0.166839 0.149336
630 4 0.380172 0.203737 0.100141
332 4 0.393622 0.197407 0.115793
331 2 0.409475 0.182123 0.132565
2516 4 0.435532 0.179083 0.154082
3283 2 0.414678 0.24289 0.0900625
3285 4 0.434125 0.223711 0.099817
2515 2 0.459826 0.175572 0.163073
2843 4 0.451034 0.221751 0.111486
2842 2 0.47495 0.204829 0.115365
2844 4 0.498865 0.187906 0.119243
756 4 0.335273 0.275532 0.150061
2799 4 0.356403 0.271898 0.145693
2797 2 0.381226 0.272137 0.147886
2798 4 0.406048 0.272376 0.150078
2770 2 0.421012 0.31799 0.118922
2771 4 0.443217 0.298358 0.121071
2522 4 0.463753 0.296758 0.112746
2521 2 0.465773 0.295674 0.0878194
109 3 0.482035 0.28504 0.119566
2705 4 0.481707 0.319397 0.165256
297 4 0.138984 0.358523 0.154542
2969 4 0.217646 0.350847 0.147759
2968 2 0.241557 0.34973 0.156172
2570 4 0.201227 0.354967 0.159384
2970 4 0.265467 0.348613 0.164584
4304 4 0.372984 0.400567 0.0828233
2772 4 0.398807 0.337622 0.116774
1103 4 0.405427 0.353456 0.113874
1102 2 0.415052 0.370366 0.10399
1104 4 0.424676 0.387275 0.0941069
768 4 0.0422419 0.421543 0.0846781
677 4 0.0114473 0.415638 0.151292
2918 4 0.00851961 0.43216 0.138977
1788 4 0.025435 0.482558 0.145289
2619 4 0.0354659 0.480751 0.128023
2617 2 0.0492769 0.491349 0.113673
766 2 0.0649195 0.424851 0.0914693
767 4 0.0875971 0.428159 0.0982606
2444 4 0.107844 0.426072 0.104526
2443 2 0.125688 0.424638 0.0865714
1871 4 0.127593 0.476483 0.105843
1870 2 0.133484 0.497354 0.109775
4212 4 0.433027 0.446768 0.119579
4210 2 0.424844 0.442672 0.142293
3801 4 0.387643 0.496145 0.156728
3799 2 0.363722 0.497911 0.147837
1467 4 0.428742 0.464118 0.110949
4211 4 0.416661 0.438575 0.165007
1466 4 0.473299 0.461818 0.08684
1465 2 0.45102 0.462968 0.0988943
2744 4 0.11879 0.00812134 0.175203
3956 4 0.104766 0.998391 0.172091
393 4 0.443998 0.0819535 0.224275
2755 2 0.480528 0.074678 0.217712
391 2 0.420922 0.0836626 0.235092
2878 2 0.00995907 0.117981 0.23403
697 2 0.0295639 0.104984 0.168869
2880 4 0.0313365 0.123913 0.240349
698 4 0.0358795 0.122151 0.182234
420 4 0.0508334 0.124326 0.241817
520 2 0.084735 0.152164 0.167798
418 2 0.0752261 0.12591 0.241255
419 4 0.0996187 0.127494 0.240692
459 4 0.238305 0.15283 0.234571
414 4 0.220888 0.154285 0.24659
457 2 0.260405 0.158946 0.234143
429 4 0.338864 0.0939939 0.227864
427 2 0.363491 0.0949889 0.228505
428 4 0.388119 0.0959838 0.229146
392 4 0.397847 0.0853717 0.245908
2756 4 0.45731 0.0931813 0.219301
580 2 0.0129987 0.177882 0.238118
522 4 0.0840649 0.174035 0.177703
582 4 0.0343879 0.184997 0.23604
750 4 0.0529863 0.185162 0.240964
748 2 0.0638536 0.181522 0.218163
749 4 0.0747209 0.177883 0.195362
458 4 0.282504 0.165062 0.233715
237 4 0.301615 0.166271 0.231456
235 2 0.320187 0.177242 0.229858
236 4 0.338759 0.188213 0.22826
579 4 0.353837 0.19662 0.232062
577 2 0.376173 0.200939 0.225912
578 4 0.398509 0.205257 0.219762
387 4 0.417323 0.209945 0.219889
385 2 0.437234 0.211636 0.205677
2477 4 0.498475 0.164334 0.186324
386 4 0.457145 0.213326 0.191466
2517 4 0.48412 0.172061 0.172064
276 4 0.472815 0.22126 0.189017
274 2 0.49442 0.222298 0.200911
251 4 0.015845 0.280173 0.178524
250 2 0.0240445 0.299439 0.172981
252 4 0.032244 0.318705 0.167438
287 4 0.0523682 0.319677 0.168393
286 2 0.0699148 0.331464 0.172461
610 2 0.238251 0.323138 0.242077
612 4 0.213756 0.32223 0.245031
611 4 0.262745 0.324045 0.239124
727 2 0.299436 0.322943 0.176633
755 4 0.333161 0.253505 0.193869
728 4 0.325055 0.30948 0.174023
754 2 0.334217 0.264519 0.171965
476 4 0.349771 0.252009 0.205193
2538 4 0.344118 0.310764 0.172501
475 2 0.362437 0.262844 0.220586
2536 2 0.354282 0.326134 0.184641
477 4 0.375103 0.273678 0.235978
4008 4 0.383686 0.327931 0.200423
2754 4 0.415571 0.2688 0.167712
2752 2 0.435767 0.269945 0.181841
2753 4 0.455963 0.27109 0.195971
2730 4 0.465422 0.27286 0.214866
2704 2 0.455675 0.327654 0.169887
2728 2 0.479017 0.288854 0.215861
2729 4 0.492613 0.304848 0.216856
288 4 0.0874614 0.343252 0.176529
296 4 0.106338 0.343649 0.183641
295 2 0.122661 0.351086 0.169092
2571 4 0.150795 0.361165 0.170918
3695 4 0.159888 0.397143 0.22684
1802 4 0.153853 0.414624 0.233312
3694 2 0.153855 0.387695 0.248021
2569 2 0.176011 0.358066 0.165151
2592 4 0.275401 0.336661 0.237277
729 4 0.273817 0.336406 0.179244
2590 2 0.292149 0.346864 0.226873
2591 4 0.308897 0.357067 0.21647
2862 4 0.324325 0.365169 0.220113
2860 2 0.32625 0.388092 0.220971
2861 4 0.328174 0.411016 0.221828
2537 4 0.364445 0.341504 0.196781
4006 2 0.404949 0.334931 0.196699
2706 4 0.429643 0.33591 0.174518
4007 4 0.426213 0.341931 0.192976
314 4 0.424936 0.385387 0.204809
313 2 0.425616 0.405442 0.192015
587 4 0.00403148 0.432336 0.244566
676 2 0.0174401 0.430516 0.167978
678 4 0.0234329 0.445393 0.184664
740 4 0.0319127 0.459921 0.178923
264 4 0.0435787 0.463643 0.235567
739 2 0.0571068 0.453283 0.186541
262 2 0.0277187 0.452903 0.246744
741 4 0.0823009 0.446646 0.19416
3705 4 0.0969986 0.454319 0.199575
3703 2 0.101754 0.462395 0.221991
3704 4 0.10651 0.470471 0.244407
1801 2 0.171336 0.425377 0.225684
1803 4 0.188818 0.43613 0.218055
1158 4 0.18262 0.449264 0.202848
1156 2 0.205666 0.452048 0.196487
1157 4 0.228712 0.454832 0.190126
4368 4 0.248654 0.454228 0.191013
4366 2 0.263759 0.464723 0.203758
4367 4 0.278865 0.475218 0.216502
3990 4 0.342075 0.417021 0.210887
1382 4 0.297516 0.478238 0.220273
3988 2 0.345601 0.427809 0.189544
3989 4 0.349127 0.438596 0.168202
1381 2 0.312569 0.492946 0.221197
315 4 0.426296 0.425498 0.179221
513 4 0.00501926 0.0598219 0.270331
1271 4 0.0224149 0.048083 0.258528
1270 2 0.0425267 0.0537879 0.268719
3926 4 0.1366 0.00547382 0.29704
1272 4 0.0626386 0.0594928 0.278911
4307 4 0.0828537 0.0538799 0.277756
4306 2 0.0833182 0.0744822 0.289664
3925 2 0.16181 0.0016853 0.290686
3699 4 0.189971 0.015016 0.27889
3697 2 0.211613 0.0140107 0.265816
3698 4 0.233254 0.0130055 0.252743
3741 4 0.252057 0.0153887 0.250688
3739 2 0.277245 0.00876814 0.258321
3740 4 0.302433 0.00214757 0.265953
2817 4 0.475133 0.0161507 0.263448
2815 2 0.484167 0.00908724 0.286518
2816 4 0.493201 0.00202372 0.309588
162 3 0.501566 0.0718133 0.322646
4308 4 0.0837827 0.0950845 0.301572
2837 4 0.115635 0.131177 0.251396
2836 2 0.134786 0.141313 0.254083
2838 4 0.153937 0.151449 0.256769
413 4 0.172753 0.152944 0.258275
412 2 0.196821 0.153615 0.252432
2890 2 0.319609 0.107338 0.333346
2892 4 0.343921 0.108514 0.3298
165 3 0.46959 0.102497 0.323245
341 4 0.451123 0.102329 0.330665
1393 2 0.486075 0.152388 0.303141
1395 4 0.483936 0.135693 0.286324
1030 2 0.239152 0.237213 0.331285
1032 4 0.263645 0.226832 0.322213
711 4 0.43476 0.222719 0.330088
1394 4 0.488213 0.169082 0.319957
285 4 0.45674 0.247047 0.267642
709 2 0.460219 0.220289 0.326389
710 4 0.485679 0.217859 0.322691
2541 4 0.0822479 0.287485 0.248886
2539 2 0.100406 0.292703 0.262977
2540 4 0.118565 0.297921 0.277069
1055 4 0.124626 0.30996 0.288694
1054 2 0.150016 0.308243 0.285915
1056 4 0.175407 0.306526 0.283135
2682 4 0.189543 0.315767 0.283534
2499 4 0.236658 0.287314 0.330013
2680 2 0.202105 0.332181 0.288072
2497 2 0.261432 0.280397 0.321203
2498 4 0.286207 0.27348 0.312393
2655 4 0.30674 0.261915 0.314112
2653 2 0.325682 0.269745 0.30443
2654 4 0.344624 0.277574 0.294747
1221 4 0.3864 0.262116 0.25199
344 4 0.353492 0.284201 0.309418
343 2 0.376712 0.287073 0.303933
345 4 0.399932 0.289944 0.298448
1219 2 0.412112 0.25813 0.256232
2567 4 0.397606 0.30782 0.290331
1220 4 0.437824 0.254144 0.260474
290 4 0.454091 0.315015 0.255966
2566 2 0.418715 0.308863 0.277566
2568 4 0.439825 0.309906 0.264801
283 2 0.467386 0.26518 0.26488
364 2 0.461503 0.324165 0.325702
284 4 0.478032 0.283313 0.262118
365 4 0.437488 0.330272 0.31525
289 2 0.467814 0.330899 0.256995
390 4 0.495645 0.284669 0.256138
338 4 0.00541535 0.368227 0.262163
337 2 0.0281448 0.372295 0.267188
339 4 0.0508743 0.376364 0.272212
2556 4 0.0589124 0.389765 0.278825
2554 2 0.0641106 0.407386 0.292446
2874 4 0.160269 0.381244 0.282298
3696 4 0.147821 0.378246 0.269203
2872 2 0.165397 0.384474 0.306289
2873 4 0.170524 0.387705 0.330281
2681 4 0.214667 0.348596 0.292611
3631 2 0.397555 0.352007 0.333082
2451 4 0.353299 0.366315 0.330693
3633 4 0.423074 0.339031 0.328992
291 4 0.481537 0.346784 0.258023
263 4 0.0118587 0.442163 0.257921
2555 4 0.0693088 0.425006 0.306066
2699 4 0.0741338 0.426895 0.325312
501 4 0.202055 0.456355 0.271924
499 2 0.226346 0.458194 0.272202
500 4 0.250637 0.460033 0.27248
4032 4 0.248053 0.474629 0.287937
4030 2 0.266079 0.48435 0.296394
230 4 0.319418 0.421049 0.270824
229 2 0.322998 0.442782 0.265558
231 4 0.326578 0.464515 0.260291
1310 4 0.303393 0.492203 0.311907
4031 4 0.284105 0.494071 0.304851
1658 4 0.468487 0.483142 0.295805
1745 4 0.482782 0.492027 0.293826
707 4 0.0207174 0.0417224 0.364693
1127 4 0.012741 0.0289451 0.357177
706 2 0.0441623 0.0433484 0.35792
369 4 0.0118323 0.0817903 0.377414
367 2 0.00590059 0.0818297 0.401708
708 4 0.0676073 0.0449745 0.351147
617 4 0.0841348 0.0481735 0.338693
616 2 0.102204 0.0473821 0.356242
618 4 0.120273 0.0465907 0.373792
1517 4 0.152256 0.00822069 0.376271
1062 4 0.156878 0.0224694 0.385917
1060 2 0.171857 0.0264367 0.404399
4355 4 0.261132 0.00691119 0.358729
2642 4 0.00785293 0.096207 0.362456
2891 4 0.295298 0.106162 0.336893
2580 4 0.274185 0.115369 0.339671
2578 2 0.266829 0.135315 0.354744
2579 4 0.259473 0.155262 0.369817
983 4 0.275404 0.161298 0.375812
401 4 0.356465 0.0998322 0.345513
400 2 0.380515 0.0988687 0.353385
402 4 0.404564 0.0979052 0.361256
342 4 0.42005 0.104509 0.37038
340 2 0.435587 0.103419 0.350523
163 3 0.487856 0.0882895 0.35548
161 1 0.490967 0.0920438 0.333014
2645 4 0.497981 0.0997867 0.364005
2644 2 0.500088 0.102288 0.388704
2646 4 0.502196 0.104789 0.413403
2787 4 0.277907 0.221708 0.336409
1031 4 0.21466 0.247594 0.340357
982 2 0.292968 0.173363 0.378043
2785 2 0.291035 0.230706 0.353121
2786 4 0.304163 0.239703 0.369833
984 4 0.310532 0.185428 0.380274
2657 4 0.32861 0.18512 0.370175
2656 2 0.346001 0.194354 0.359468
2658 4 0.363392 0.203588 0.348761
635 4 0.377331 0.207573 0.335878
636 4 0.42492 0.21277 0.341587
634 2 0.401126 0.210172 0.338732
480 4 0.487247 0.176467 0.339011
2612 4 0.0763047 0.294821 0.384566
2611 2 0.101035 0.282176 0.391845
2613 4 0.125766 0.269531 0.399124
371 4 0.144269 0.264677 0.388557
370 2 0.158154 0.277631 0.377689
372 4 0.172039 0.290585 0.36682
119 3 0.183573 0.300366 0.357277
118 3 0.214099 0.2955 0.33299
117 3 0.208226 0.265837 0.349376
116 1 0.206855 0.287746 0.35246
120 3 0.221209 0.288943 0.369752
510 4 0.239985 0.292156 0.370745
508 2 0.257811 0.29963 0.383053
509 4 0.275636 0.307104 0.395362
717 4 0.290894 0.309124 0.384236
1199 4 0.312906 0.253975 0.373048
715 2 0.307262 0.315334 0.399819
1198 2 0.334135 0.257769 0.362948
2853 4 0.268465 0.322523 0.334876
2851 2 0.291222 0.325014 0.342665
716 4 0.32363 0.321544 0.415403
1200 4 0.355363 0.261562 0.352847
2852 4 0.313978 0.327506 0.350455
2529 4 0.362744 0.276816 0.355638
2527 2 0.387963 0.274532 0.360502
3316 2 0.383272 0.333191 0.41093
2528 4 0.413181 0.272249 0.365367
2831 4 0.43059 0.254555 0.361308
2830 2 0.45227 0.260564 0.366146
2832 4 0.473951 0.266574 0.370984
584 4 0.483423 0.281343 0.37257
366 4 0.485518 0.318058 0.336154
583 2 0.486915 0.292883 0.393433
585 4 0.490408 0.304423 0.414296
2495 4 0.489462 0.322503 0.355402
2596 2 0.174037 0.390073 0.362014
2597 4 0.19113 0.366827 0.359877
2621 4 0.205614 0.364797 0.322488
2598 4 0.156945 0.413319 0.364151
2622 4 0.254206 0.339081 0.338977
2620 2 0.22991 0.351939 0.330732
2450 4 0.319235 0.34183 0.339835
3632 4 0.372036 0.364983 0.337172
2449 2 0.336267 0.354072 0.335264
3318 4 0.376 0.353137 0.395855
593 4 0.386932 0.363945 0.406149
2530 2 0.493709 0.405319 0.376075
3642 4 0.070522 0.419706 0.401406
3641 4 0.110794 0.435531 0.413722
3640 2 0.090658 0.427618 0.407564
2698 2 0.0938382 0.432801 0.336097
2700 4 0.113543 0.438706 0.346882
2710 2 0.147168 0.428041 0.399569
2711 4 0.16384 0.423102 0.38014
2959 2 0.261112 0.485401 0.400401
2960 4 0.252636 0.466523 0.406826
2826 4 0.489951 0.490039 0.400058
2531 4 0.475863 0.425523 0.366031
1433 4 0.466181 0.447052 0.363648
1432 2 0.476312 0.463316 0.374152
1434 4 0.486442 0.47958 0.384656
2505 4 0.0193685 0.0570497 0.450136
2314 2 0.0474876 0.0438358 0.486866
2316 4 0.0585406 0.0198439 0.480346
2315 4 0.0364346 0.0678277 0.493387
368 4 0.999969 0.0818692 0.426001
1151 4 0.0797484 0.00801223 0.47808
1150 2 0.0896174 0.0113029 0.455879
1152 4 0.0994864 0.0145935 0.433678
1061 4 0.186835 0.030404 0.422881
684 4 0.197347 0.0426523 0.428413
682 2 0.219547 0.0459876 0.436662
683 4 0.241747 0.0493228 0.44491
842 4 0.256185 0.0447537 0.460131
841 2 0.273027 0.0569745 0.45467
843 4 0.28987 0.0691953 0.44921
3747 4 0.305264 0.0773505 0.446104
1182 4 0.482174 0.0232176 0.491698
8 3 0.0170727 0.12556 0.440723
2484 4 0.0252076 0.141911 0.440945
2482 2 0.0423036 0.154516 0.442865
761 4 0.157002 0.151756 0.486373
760 2 0.14169 0.139934 0.496722
3173 4 0.172466 0.15977 0.489698
3172 2 0.196681 0.153542 0.479656
2901 4 0.233421 0.154877 0.483625
3174 4 0.220896 0.147313 0.469615
2899 2 0.258818 0.145485 0.476687
2900 4 0.284214 0.136093 0.46975
3746 4 0.314051 0.115166 0.421902
3745 2 0.309658 0.0962584 0.434003
3797 4 0.499397 0.0940304 0.427447
2483 4 0.0593996 0.167122 0.444785
2801 4 0.0692893 0.18039 0.438572
2800 2 0.0899317 0.188009 0.433688
2802 4 0.110574 0.195627 0.428804
764 4 0.12918 0.200302 0.427711
763 2 0.148744 0.209998 0.425681
304 2 0.135234 0.244405 0.476499
305 4 0.115837 0.239355 0.46418
765 4 0.168308 0.219694 0.423651
2684 4 0.185874 0.221898 0.417752
2683 2 0.20651 0.229076 0.423901
306 4 0.154631 0.249454 0.488817
2685 4 0.227145 0.236254 0.430051
2586 4 0.243463 0.242523 0.426572
3059 4 0.219105 0.24265 0.485633
2584 2 0.268013 0.242921 0.422639
937 2 0.31896 0.243235 0.442387
938 4 0.339864 0.22901 0.455396
900 4 0.358502 0.225711 0.497348
2585 4 0.292563 0.243318 0.418705
898 2 0.374561 0.23128 0.48092
899 4 0.390621 0.236848 0.464492
824 4 0.404391 0.245358 0.454496
3060 4 0.166971 0.25948 0.494519
3058 2 0.193038 0.251065 0.490076
311 4 0.236262 0.248535 0.486045
310 2 0.251507 0.262852 0.482894
312 4 0.266751 0.277169 0.479743
939 4 0.298056 0.257459 0.429379
443 4 0.286602 0.275908 0.485141
442 2 0.310258 0.276362 0.492746
2550 4 0.343807 0.287187 0.490222
2548 2 0.354891 0.286122 0.467654
2549 4 0.365975 0.285058 0.445086
3317 4 0.390543 0.313244 0.426004
823 2 0.424168 0.253378 0.447364
3333 4 0.40691 0.317018 0.473085
825 4 0.443944 0.261398 0.440232
695 4 0.455061 0.27359 0.439021
694 2 0.472257 0.275978 0.456177
696 4 0.489454 0.278366 0.473333
453 4 0.499938 0.288092 0.461935
1697 4 0.0148565 0.402111 0.450528
3422 4 0.0142963 0.418146 0.439132
592 2 0.386224 0.385833 0.416036
1029 4 0.355967 0.409882 0.475368
3331 2 0.411513 0.338811 0.472302
594 4 0.385515 0.407721 0.425922
2562 4 0.399523 0.404391 0.440699
2560 2 0.406825 0.396078 0.463868
3332 4 0.416116 0.360605 0.47152
3056 4 0.437751 0.353789 0.469933
2561 4 0.414127 0.387765 0.487036
3055 2 0.463513 0.348397 0.464828
3057 4 0.489276 0.343006 0.459722
601 2 0.00959772 0.487658 0.434234
3421 2 0.0344836 0.422469 0.427488
603 4 0.0329963 0.485346 0.4447
3423 4 0.0546709 0.426792 0.415844
2741 4 0.0526458 0.471964 0.447094
2712 4 0.130496 0.43298 0.418997
2740 2 0.0771669 0.472694 0.443814
2742 4 0.101688 0.473424 0.440534
1488 4 0.250793 0.499175 0.499692
1418 4 0.256654 0.449448 0.418829
1417 2 0.269348 0.447504 0.440671
1486 2 0.265983 0.481457 0.484511
1419 4 0.282042 0.44556 0.462513
1487 4 0.281174 0.46374 0.46933
1172 4 0.350717 0.468371 0.447933
1028 4 0.353278 0.456475 0.463352
1027 2 0.354622 0.433178 0.46936
1173 4 0.394678 0.463201 0.421527
1171 2 0.372698 0.465786 0.43473
1642 2 0.368237 0.499024 0.495659
662 4 0.500579 0.472883 0.496243
2196 4 0.0390026 0.0834449 0.503691
2502 4 0.0189488 0.0342582 0.525545
4502 4 0.116492 0.0382675 0.57
4501 2 0.0952513 0.0331396 0.578264
4503 4 0.0740109 0.0280117 0.586527
3104 4 0.139301 0.0312791 0.570214
3103 2 0.161429 0.0357964 0.576748
1143 4 0.370179 0.0738434 0.581312
1180 2 0.473638 0.0128642 0.510936
2456 4 0.497623 0.0289225 0.501487
2194 2 0.0551758 0.0924253 0.516784
2195 4 0.071349 0.101406 0.529876
2553 4 0.0913754 0.100808 0.530888
2551 2 0.10261 0.118383 0.527134
2552 4 0.113844 0.135957 0.52338
762 4 0.126377 0.128111 0.507071
2963 4 0.270938 0.160713 0.529771
1210 2 0.325315 0.122585 0.552837
1211 4 0.324317 0.1037 0.567352
1212 4 0.326313 0.141469 0.538323
2241 4 0.0749746 0.166154 0.516417
2240 4 0.0999768 0.199859 0.513165
2239 2 0.0874757 0.183006 0.514791
3180 4 0.11385 0.201717 0.526175
3178 2 0.134159 0.210033 0.530283
3207 4 0.222714 0.17188 0.573576
3179 4 0.154468 0.218349 0.534391
2813 4 0.169257 0.204734 0.545243
2814 4 0.220105 0.184182 0.558381
2812 2 0.194681 0.194458 0.551812
2962 2 0.285255 0.175858 0.533082
2964 4 0.299572 0.191004 0.536392
2604 4 0.31402 0.197372 0.527046
2602 2 0.332412 0.203671 0.514346
2603 4 0.350803 0.209971 0.501646
444 4 0.333913 0.276817 0.500351
406 2 0.418348 0.284268 0.50543
407 4 0.393412 0.299941 0.504336
408 4 0.443284 0.268595 0.506525
803 4 0.460706 0.267739 0.515101
1237 2 0.464654 0.315547 0.569236
802 2 0.472883 0.283161 0.523961
1238 4 0.481824 0.302497 0.552029
804 4 0.485061 0.298582 0.532821
3420 4 0.297963 0.347551 0.579447
3418 2 0.296527 0.370819 0.573218
3419 4 0.295091 0.394087 0.56699
347 4 0.303834 0.399389 0.550555
267 4 0.398099 0.331726 0.553043
265 2 0.393843 0.33752 0.528822
346 2 0.31777 0.405788 0.532595
266 4 0.389588 0.343313 0.504601
890 4 0.388441 0.341536 0.570468
348 4 0.331707 0.412187 0.514635
3455 4 0.419179 0.395165 0.503069
3454 2 0.441452 0.400262 0.507593
3456 4 0.463726 0.405358 0.512118
3368 4 0.499226 0.389724 0.572969
239 4 0.48263 0.397132 0.503404
238 2 0.494458 0.39907 0.524968
2171 4 0.143307 0.484498 0.533611
1982 4 0.159199 0.471868 0.522843
1981 2 0.180976 0.476506 0.515352
2214 4 0.165134 0.489612 0.575514
1983 4 0.202753 0.481144 0.507861
1281 4 0.379493 0.41723 0.541973
1135 2 0.286316 0.483275 0.559042
4539 4 0.308941 0.468155 0.526302
4537 2 0.33324 0.46607 0.518218
1136 4 0.29287 0.481533 0.534818
4538 4 0.357538 0.463985 0.510135
1279 2 0.397535 0.428863 0.542893
1643 4 0.365887 0.476446 0.498872
1280 4 0.415578 0.440496 0.543812
878 4 0.427288 0.441753 0.528057
3490 2 0.440235 0.498901 0.567173
3492 4 0.443723 0.474641 0.563767
877 2 0.445924 0.450707 0.536489
879 4 0.46456 0.459661 0.54492
3610 2 0.0383257 0.00916925 0.585488
3611 4 0.056049 0.0208568 0.589058
3105 4 0.183556 0.0403138 0.583281
3050 4 0.203554 0.0396398 0.588462
3051 4 0.246677 0.0531328 0.583022
3049 2 0.225116 0.0463863 0.585742
2507 4 0.261891 0.0600408 0.590187
270 4 0.256892 0.00131112 0.62531
3123 4 0.328962 0.000556068 0.626964
2506 2 0.287299 0.0574815 0.594407
1004 4 0.296091 0.0774684 0.649537
2508 4 0.312707 0.0549223 0.598627
1003 2 0.308241 0.0607504 0.66703
1142 4 0.328064 0.0593435 0.58929
3121 2 0.339177 0.0131273 0.642888
4073 4 0.332098 0.00368109 0.607853
3122 4 0.349392 0.0256985 0.658811
1141 2 0.349122 0.0665934 0.585301
917 4 0.3868 0.0825799 0.582776
1023 4 0.187662 0.0877201 0.66704
1021 2 0.203708 0.0899696 0.648688
1022 4 0.219754 0.0922191 0.630336
2256 4 0.232694 0.103089 0.63576
2254 2 0.258677 0.0987087 0.63862
3205 2 0.23786 0.163896 0.593796
2255 4 0.28466 0.0943282 0.641479
3206 4 0.253007 0.155913 0.614016
3019 2 0.279511 0.155163 0.634043
3020 4 0.268012 0.164908 0.612485
3021 4 0.29101 0.145418 0.655602
3293 4 0.311687 0.137969 0.648789
3292 2 0.329798 0.116236 0.655309
3294 4 0.347909 0.094504 0.661829
916 2 0.408032 0.0889449 0.588631
918 4 0.429265 0.0953099 0.594485
1130 4 0.446131 0.102252 0.594258
1129 2 0.464044 0.11382 0.59727
1131 4 0.481957 0.125388 0.600281
935 4 0.00977011 0.189348 0.594806
934 2 0.0255892 0.202926 0.599008
936 4 0.0414084 0.216504 0.603211
1259 4 0.063195 0.206206 0.604833
1258 2 0.088463 0.204896 0.607654
1260 4 0.113731 0.203585 0.610474
3038 4 0.129636 0.210538 0.608421
3037 2 0.147259 0.218968 0.596982
3039 4 0.164882 0.227399 0.585542
3386 4 0.177557 0.224101 0.603208
3385 2 0.203286 0.221381 0.605171
384 4 0.249174 0.218725 0.612527
3387 4 0.229016 0.218662 0.607135
382 2 0.269007 0.228053 0.610371
383 4 0.288841 0.237381 0.608215
2971 2 0.31734 0.242226 0.638255
2972 4 0.297673 0.23739 0.626189
2973 4 0.337006 0.247062 0.650321
3222 4 0.191512 0.320916 0.647593
3380 4 0.246405 0.29532 0.651187
905 4 0.261298 0.292305 0.638269
904 2 0.282645 0.291441 0.624795
906 4 0.303992 0.290576 0.611321
84 3 0.306745 0.307885 0.606684
81 1 0.311269 0.327714 0.610397
82 3 0.331061 0.323367 0.62368
805 2 0.334416 0.328349 0.660473
2244 4 0.354334 0.312604 0.621757
2242 2 0.366431 0.289024 0.629131
806 4 0.348904 0.319922 0.639954
2243 4 0.378528 0.265443 0.636506
1239 4 0.447485 0.328597 0.586442
891 4 0.432155 0.328761 0.598707
960 4 0.468503 0.288173 0.63076
3435 4 0.476097 0.301172 0.639551
958 2 0.487053 0.276112 0.614196
3433 2 0.486653 0.300392 0.662329
889 2 0.410298 0.335148 0.584587
3220 2 0.195448 0.341402 0.656657
3221 4 0.199384 0.361888 0.665722
2720 4 0.201245 0.380491 0.666378
83 3 0.315507 0.336527 0.59022
85 3 0.29248 0.342669 0.620946
3446 4 0.314156 0.391405 0.66345
3353 4 0.327776 0.383361 0.649425
3352 2 0.349723 0.376533 0.663428
1040 4 0.414582 0.393418 0.601943
1039 2 0.429102 0.406818 0.610696
3369 4 0.46314 0.381501 0.603218
539 4 0.464446 0.364593 0.614545
3367 2 0.481183 0.385613 0.588094
538 2 0.475363 0.361283 0.637326
540 4 0.48628 0.357973 0.660108
2212 2 0.17995 0.482363 0.596053
2213 4 0.194765 0.475114 0.616592
2129 4 0.20167 0.490639 0.623299
1137 4 0.279762 0.485016 0.583266
1041 4 0.443623 0.420217 0.619448
3488 4 0.133143 0.0220543 0.724516
3487 2 0.113624 0.0272526 0.741394
1217 4 0.147224 0.0279332 0.715322
1216 2 0.168103 0.032469 0.725316
1218 4 0.188981 0.0370048 0.735311
2001 4 0.208353 0.0244082 0.738352
1999 2 0.227508 0.0329739 0.746166
1005 4 0.320392 0.0440324 0.684523
3009 4 0.332233 0.0508805 0.697023
3007 2 0.34101 0.0683638 0.706903
3125 4 0.417529 0.0814082 0.734673
3064 2 0.450523 0.0194887 0.707495
3066 4 0.454352 0.0416177 0.70625
3023 4 0.469486 0.0496801 0.71024
3022 2 0.484544 0.0557841 0.693143
3024 4 0.499601 0.0618881 0.676046
3041 4 0.274415 0.105937 0.74485
3008 4 0.349787 0.0858472 0.716782
3126 4 0.366367 0.0871428 0.727486
3124 2 0.391948 0.0842755 0.731079
4371 4 0.415138 0.0993137 0.741576
4369 2 0.440753 0.0973437 0.741514
4370 4 0.466369 0.0953737 0.741451
3062 4 0.484329 0.101094 0.741097
3061 2 0.496755 0.117974 0.73907
3251 4 0.330717 0.242896 0.713167
738 4 0.332534 0.244856 0.732507
3379 2 0.250187 0.310321 0.669036
3381 4 0.253969 0.325321 0.686885
977 4 0.260154 0.329684 0.703964
3250 2 0.333032 0.251168 0.690154
3252 4 0.335347 0.25944 0.667141
3434 4 0.497209 0.299611 0.685107
3271 2 0.500972 0.318694 0.719717
3272 4 0.490682 0.316653 0.697358
4560 4 0.0365045 0.38127 0.708243
4558 2 0.0502588 0.371467 0.728798
4559 4 0.0640132 0.361665 0.749353
2719 2 0.224821 0.383589 0.669112
3445 2 0.291292 0.387575 0.668412
807 4 0.319929 0.336777 0.680992
2721 4 0.248397 0.386687 0.671846
976 2 0.282406 0.334629 0.698906
3447 4 0.268427 0.383745 0.673374
978 4 0.304657 0.339574 0.693847
3374 4 0.367248 0.35001 0.738929
3373 2 0.369833 0.352194 0.714247
3354 4 0.371669 0.369704 0.677432
3375 4 0.372418 0.354378 0.689565
4209 4 0.3753 0.41092 0.748603
1949 4 0.490589 0.416254 0.740303
4492 2 0.298437 0.419461 0.743519
941 4 0.264804 0.498864 0.720255
940 2 0.25763 0.499114 0.696278
942 4 0.250457 0.499365 0.672301
4493 4 0.302489 0.436755 0.728553
1098 4 0.302331 0.456782 0.728031
1096 2 0.323937 0.463698 0.72833
1097 4 0.345543 0.470614 0.728629
1278 4 0.359556 0.476646 0.738572
1276 2 0.383117 0.474217 0.728398
1277 4 0.406679 0.471788 0.718225
821 4 0.427204 0.469251 0.721238
2408 4 0.420649 0.433261 0.729488
1950 4 0.440877 0.429525 0.723168
2407 2 0.406663 0.422576 0.743518
4361 4 0.481628 0.443008 0.674627
820 2 0.443751 0.479258 0.710145
822 4 0.460299 0.489264 0.699052
1948 2 0.465733 0.42289 0.731735
4360 2 0.497377 0.456947 0.676945
3437 4 0.0300964 0.0270856 0.776509
3436 2 0.0515675 0.0315823 0.767912
2064 4 0.0172794 0.0203703 0.785742
3438 4 0.0730386 0.036079 0.759316
3489 4 0.094104 0.032451 0.758272
2000 4 0.246663 0.0415397 0.75398
1146 4 0.26277 0.0277073 0.763053
1144 2 0.275584 0.0341249 0.781952
1145 4 0.288399 0.0405426 0.800851
3132 4 0.305651 0.0238052 0.796258
3130 2 0.328897 0.0248866 0.804375
3131 4 0.352143 0.025968 0.812492
1193 4 0.36454 0.0251486 0.794502
1192 2 0.38754 0.0271296 0.786763
1194 4 0.41054 0.0291107 0.779024
2307 4 0.426403 0.0341314 0.772687
2305 2 0.444866 0.0442222 0.77898
2306 4 0.463329 0.0543131 0.785273
818 4 0.479274 0.0474545 0.77313
3555 4 0.477711 0.0762205 0.82871
3078 4 0.0183373 0.130486 0.806848
4128 4 0.0734782 0.124144 0.820537
4126 2 0.0941384 0.118755 0.804927
3281 4 0.0578997 0.117608 0.826609