ITEM: TIMESTEP
370000
ITEM: NUMBER OF ATOMS
4590
ITEM: BOX BOUNDS xy xz yz pp pp pp
-9.9985700000000008e+00 1.7997426000000019e+01 7.9988560000000177e+00
-9.9985700000000008e+00 9.9985700000000008e+00 0.0000000000000000e+00
-9.9985700000000008e+00 9.9985700000000008e+00 0.0000000000000000e+00
ITEM: ATOMS id type xs ys zs
3478 2 0.0202326 0.075361 0.030593
3479 4 0.0431843 0.0789162 0.0348899
1662 4 0.172843 0.0640518 0.0539555
1660 2 0.188132 0.0426067 0.064921
1661 4 0.203421 0.0211616 0.0758866
2886 4 0.165907 0.0725373 0.0370105
2884 2 0.139737 0.0833455 0.0425858
2465 4 0.347969 0.0275689 0.0304471
2949 4 0.345161 0.0105972 0.0271837
2464 2 0.373918 0.0172385 0.0239274
2466 4 0.399866 0.00690809 0.0174076
2468 4 0.420388 0.998866 0.0256435
3343 2 0.446897 0.0782202 0.999569
3903 4 0.0937159 0.0946436 0.0538406
3901 2 0.0759352 0.0892408 0.0397581
3902 4 0.0581544 0.083838 0.0256756
2885 4 0.113567 0.0941538 0.0481611
2708 4 0.273064 0.0809822 0.0235326
2687 4 0.256927 0.083155 0.0350175
2688 4 0.203607 0.0991924 0.0416085
2686 2 0.230267 0.0911737 0.038313
2709 4 0.322104 0.0821645 0.030447
2707 2 0.297584 0.0815734 0.0269898
2670 4 0.324136 0.0882613 0.0481557
2668 2 0.341831 0.0981042 0.0403864
1252 2 0.348601 0.140668 0.0106633
1253 4 0.366681 0.121683 0.0231043
2669 4 0.359526 0.107947 0.032617
1254 4 0.33052 0.159652 0.998222
3345 4 0.450448 0.0912069 0.0190634
2882 4 0.457804 0.107572 0.0189563
2881 2 0.467479 0.118102 0.0368854
2883 4 0.477153 0.128633 0.0548145
25 3 0.492581 0.135574 0.062774
278 4 0.0783559 0.238434 0.0658064
454 2 0.0948593 0.239413 0.00856255
456 4 0.121432 0.233255 0.0110114
455 4 0.0682868 0.245571 0.00611372
2729 4 0.281567 0.226204 0.0372801
2728 2 0.300155 0.202997 0.0371007
3285 4 0.293498 0.235242 0.0458466
2753 4 0.326543 0.177978 0.0558684
2730 4 0.318743 0.17979 0.0369212
2752 2 0.344454 0.180493 0.0720247
3283 2 0.30491 0.250426 0.0552756
2638 2 0.403283 0.247197 0.0108925
105 3 0.0105267 0.279415 0.00824256
101 1 0.0323062 0.280517 0.0131091
103 3 0.0344058 0.282739 0.036012
102 3 0.0503098 0.261152 0.00611504
104 3 0.034744 0.298515 0.00208106
279 4 0.0449063 0.284563 0.0536473
277 2 0.0616311 0.261499 0.0597268
2782 2 0.141869 0.32271 0.070375
2842 2 0.169417 0.319249 0.0124063
2844 4 0.169991 0.321759 0.0372334
2784 4 0.157731 0.328297 0.0540513
292 2 0.303479 0.325125 0.0651809
293 4 0.309594 0.330665 0.0422662
3284 4 0.316321 0.265609 0.0647047
2829 4 0.333915 0.268512 0.0691299
2827 2 0.356484 0.264892 0.0562468
2639 4 0.398717 0.256814 0.0339614
2828 4 0.379053 0.261272 0.0433636
967 2 0.395024 0.327678 0.0441964
969 4 0.37107 0.332318 0.0549349
3215 4 0.483322 0.282167 0.0784706
968 4 0.418978 0.323038 0.0334578
1102 2 0.00964642 0.393258 0.0575502
1103 4 0.0266182 0.405428 0.0572413
2772 4 0.0398564 0.413928 0.0475643
3338 4 0.223658 0.417957 0.0483772
461 4 0.310973 0.346448 0.0318486
670 2 0.284964 0.402005 0.0801132
671 4 0.31134 0.389333 0.076855
460 2 0.33558 0.346312 0.0365722
462 4 0.360187 0.346176 0.0412958
2727 4 0.374003 0.375092 0.0803283
3728 4 0.386959 0.383925 0.0726327
2725 2 0.349385 0.374508 0.0830205
3727 2 0.408979 0.389694 0.0728831
3729 4 0.430999 0.395464 0.0731335
3543 4 0.451147 0.382185 0.0739022
3541 2 0.472121 0.389415 0.0720666
3542 4 0.493094 0.396645 0.070231
2770 2 0.0623954 0.418843 0.0468307
2581 2 0.00659825 0.450829 0.0633042
2583 4 0.018629 0.466608 0.0696109
2912 4 0.0231842 0.483202 0.0710699
2911 2 0.0377376 0.481715 0.0503788
2913 4 0.0522911 0.480228 0.0296877
3258 4 0.045636 0.47502 0.0121592
2771 4 0.0849345 0.423758 0.046097
2522 4 0.10181 0.426246 0.0358977
2521 2 0.126829 0.426203 0.0361288
3339 4 0.17246 0.426644 0.036223
2523 4 0.151849 0.42616 0.0363598
3337 2 0.198059 0.4223 0.0423001
646 2 0.201827 0.461684 0.0803175
647 4 0.219839 0.449522 0.0628702
672 4 0.258589 0.414677 0.0833713
4512 4 0.399849 0.494849 0.0425758
2733 4 0.0320453 0.0173138 0.144074
2731 2 0.0158912 0.0190154 0.16364
2768 4 0.0552767 0.0742475 0.133571
2767 2 0.0746469 0.0825008 0.127008
1475 4 0.200951 0.00574101 0.0851496
1474 2 0.186745 0.00410744 0.105193
1476 4 0.17254 0.00247388 0.125235
1372 2 0.17266 0.00150905 0.158628
1651 2 0.453541 0.00613211 0.0985669
404 4 0.434298 0.0064587 0.163936
1653 4 0.471065 0.0169529 0.104099
2179 2 0.459915 0.0271814 0.161108
2180 4 0.468081 0.0461141 0.156747
1749 4 0.476699 0.0537389 0.142148
1747 2 0.503391 0.0455822 0.139029
2769 4 0.0940171 0.0907541 0.120445
697 2 0.103865 0.108928 0.156295
699 4 0.0964844 0.103087 0.134009
721 2 0.258967 0.102499 0.167386
722 4 0.283239 0.101163 0.159645
355 2 0.298842 0.158534 0.105823
356 4 0.317599 0.135736 0.109365
758 4 0.313084 0.135184 0.128933
757 2 0.307688 0.117912 0.142179
759 4 0.302291 0.100641 0.155425
623 4 0.265077 0.198725 0.110012
357 4 0.280084 0.181331 0.102281
622 2 0.269315 0.205651 0.132992
624 4 0.273553 0.212577 0.155972
2754 4 0.362364 0.183007 0.0881811
2786 4 0.367271 0.198925 0.0970627
2785 2 0.371681 0.214694 0.113239
2787 4 0.376091 0.230463 0.129414
3141 4 0.00477782 0.292468 0.111403
3139 2 0.0271004 0.297351 0.107933
2471 4 0.00716735 0.333614 0.151489
1055 4 0.0551017 0.276527 0.165946
3140 4 0.049423 0.302233 0.104463
2540 4 0.0617914 0.292271 0.161918
621 4 0.0660243 0.307839 0.103183
619 2 0.0909088 0.30752 0.0996939
620 4 0.115793 0.307201 0.0962048
2783 4 0.126006 0.317123 0.0866987
294 4 0.297365 0.319585 0.0880956
525 4 0.294387 0.320732 0.10802
523 2 0.315817 0.321506 0.120347
524 4 0.337247 0.32228 0.132674
288 4 0.358775 0.31645 0.129484
286 2 0.376533 0.325719 0.138344
350 4 0.46943 0.317903 0.119941
349 2 0.489685 0.325945 0.123033
2470 2 0.0266424 0.34288 0.152883
2571 4 0.0672759 0.339367 0.159477
2569 2 0.0832424 0.349809 0.148971
2472 4 0.0461175 0.352146 0.154277
2570 4 0.099209 0.360252 0.138465
2969 4 0.118431 0.352807 0.125247
2968 2 0.132522 0.367216 0.130082
2970 4 0.146614 0.381624 0.134916
252 4 0.401058 0.339491 0.128408
287 4 0.39429 0.334989 0.147205
2726 4 0.324767 0.373923 0.0857126
250 2 0.426516 0.337712 0.125302
251 4 0.451973 0.335934 0.122195
2705 4 0.459106 0.364136 0.155909
1465 2 0.0127394 0.47918 0.112837
1467 4 0.0249021 0.492942 0.123957
729 4 0.0611652 0.421715 0.159617
4211 4 0.0463041 0.484976 0.124902
4210 2 0.0608881 0.499464 0.124815
648 4 0.183815 0.473847 0.0977647
2093 4 0.160802 0.446812 0.141432
3635 4 0.178382 0.481133 0.115962
2092 2 0.183354 0.445435 0.129631
2094 4 0.205905 0.444057 0.11783
2919 4 0.225567 0.447256 0.116281
2917 2 0.246085 0.455117 0.118138
2918 4 0.266604 0.462978 0.119996
1673 4 0.289995 0.487877 0.141962
2545 2 0.0152591 0.0300631 0.217592
2546 4 0.0278998 0.0412207 0.23202
3722 4 0.0458915 0.0420698 0.242437
2732 4 0.999737 0.020717 0.183207
1373 4 0.164292 0.0157787 0.178987
2519 4 0.199215 0.0715659 0.187316
688 2 0.228311 0.0139694 0.244088
690 4 0.250969 0.00920593 0.230979
249 4 0.371673 0.0415441 0.190687
247 2 0.37474 0.0427039 0.215412
248 4 0.377808 0.0438637 0.240138
405 4 0.383224 0.0267817 0.179537
393 4 0.391671 0.053601 0.243112
403 2 0.408761 0.0166202 0.171737
2181 4 0.451749 0.00824863 0.165468
391 2 0.415401 0.0537296 0.250831
2454 4 0.000517762 0.148263 0.208529
2951 4 0.0195566 0.148521 0.20647
2950 2 0.0397205 0.155687 0.199878
522 4 0.0680302 0.107491 0.230614
632 4 0.056279 0.120193 0.245265
520 2 0.0837719 0.110278 0.212358
521 4 0.0995137 0.113065 0.194102
2952 4 0.0598844 0.162852 0.193285
698 4 0.111245 0.11477 0.17858
2671 2 0.102809 0.164765 0.1874
2789 4 0.146242 0.164821 0.173968
2673 4 0.126731 0.165264 0.180838
2518 2 0.216243 0.0835699 0.189448
2520 4 0.233272 0.0955739 0.191581
723 4 0.234695 0.103835 0.175127
606 4 0.265377 0.138567 0.232502
731 4 0.278489 0.134661 0.216158
730 2 0.304123 0.124349 0.223654
732 4 0.329757 0.114036 0.231151
581 4 0.351195 0.108279 0.228572
580 2 0.375876 0.108807 0.23087
582 4 0.400557 0.109335 0.233168
750 4 0.415853 0.117942 0.236393
748 2 0.433623 0.129209 0.234995
749 4 0.451394 0.140476 0.233598
459 4 0.455641 0.155227 0.224876
2672 4 0.0788871 0.164265 0.193962
390 4 0.0467989 0.233129 0.239428
285 4 0.0618244 0.234228 0.18724
284 4 0.068706 0.229634 0.236779
283 2 0.0652652 0.231931 0.212009
2788 2 0.168329 0.170446 0.175091
2790 4 0.190416 0.17607 0.176213
506 4 0.291133 0.212414 0.165787
505 2 0.309254 0.208211 0.184152
507 4 0.327374 0.204008 0.202516
578 4 0.342355 0.194977 0.217003
577 2 0.360884 0.202415 0.227368
579 4 0.379413 0.209852 0.237734
235 2 0.402079 0.221391 0.241405
236 4 0.375293 0.229042 0.239475
237 4 0.428865 0.21374 0.243334
458 4 0.449142 0.202246 0.236641
457 2 0.452391 0.178736 0.230758
1056 4 0.00819928 0.275793 0.182461
1054 2 0.0316505 0.27616 0.174204
2539 2 0.0860224 0.282253 0.17268
2541 4 0.110253 0.272234 0.183441
728 4 0.103229 0.40784 0.190841
2538 4 0.119103 0.392549 0.195363
2536 2 0.140306 0.398998 0.199606
2537 4 0.161508 0.405447 0.203849
714 4 0.176478 0.415008 0.206634
712 2 0.202886 0.409973 0.204466
713 4 0.229295 0.404939 0.202297
339 4 0.241833 0.415566 0.199657
2556 4 0.349544 0.364065 0.196454
2554 2 0.36997 0.372072 0.194782
2555 4 0.390395 0.380078 0.193109
2526 4 0.408304 0.380224 0.20129
2524 2 0.42468 0.391229 0.209797
2525 4 0.441055 0.402235 0.218304
2704 2 0.472281 0.363087 0.177389
2862 4 0.459808 0.404195 0.223706
2860 2 0.484533 0.404711 0.221867
2706 4 0.485456 0.362039 0.198869
2493 4 0.493015 0.368229 0.21816
727 2 0.0821972 0.414778 0.175229
395 4 0.0885052 0.45908 0.217472
394 2 0.109594 0.466151 0.2157
396 4 0.130684 0.473222 0.213928
3920 4 0.151322 0.460345 0.21803
3919 2 0.174062 0.464848 0.216419
3921 4 0.196803 0.469351 0.214809
2820 4 0.213263 0.469836 0.226241
337 2 0.265893 0.417698 0.199704
2818 2 0.239018 0.467474 0.228251
2819 4 0.264773 0.465112 0.23026
338 4 0.289952 0.419831 0.199751
3566 4 0.27721 0.474775 0.224781
677 4 0.308352 0.41838 0.207906
3565 2 0.29884 0.48113 0.22548
3567 4 0.320471 0.487485 0.226178
676 2 0.327133 0.427902 0.202982
4031 4 0.339362 0.490743 0.224813
678 4 0.345914 0.437423 0.198057
1425 4 0.364402 0.439595 0.200787
4030 2 0.360914 0.497022 0.222229
1423 2 0.38627 0.445478 0.198811
1424 4 0.408138 0.451361 0.196836
1437 4 0.426464 0.455111 0.193634
4032 4 0.382466 0.503302 0.219645
645 4 0.495588 0.454557 0.189716
1435 2 0.451475 0.454899 0.195588
1436 4 0.476486 0.454687 0.197542
122 3 0.010539 0.0347337 0.319531
121 1 0.0185879 0.0520799 0.32144
123 3 0.033635 0.0512762 0.303526
3723 4 0.0347907 0.0616078 0.288352
3721 2 0.0403411 0.0518388 0.265394
3875 4 0.991588 0.0311121 0.314081
689 4 0.205654 0.0187328 0.257196
392 4 0.439132 0.0538581 0.258551
428 4 0.455282 0.0574405 0.252552
427 2 0.481183 0.054679 0.254195
2892 4 0.00793153 0.14967 0.270931
633 4 0.0568399 0.108009 0.293573
631 2 0.0565595 0.114101 0.269419
2879 4 0.0544901 0.095936 0.308434
2878 2 0.0496994 0.0989038 0.332998
604 2 0.249201 0.143854 0.252489
27 3 0.229822 0.151556 0.326603
605 4 0.233024 0.14914 0.272477
26 1 0.244669 0.146697 0.30819
29 3 0.231461 0.157665 0.289742
28 3 0.253544 0.123765 0.304662
30 3 0.263209 0.153708 0.311926
1032 4 0.270609 0.118561 0.292117
546 4 0.274397 0.163953 0.319168
1030 2 0.296629 0.115237 0.289995
1031 4 0.322649 0.111913 0.287872
2870 4 0.488213 0.107553 0.331777
2945 4 0.480835 0.159967 0.283401
2944 2 0.498292 0.13752 0.276369
389 4 0.0131378 0.243985 0.278457
388 2 0.0299683 0.238557 0.258942
537 4 0.00953458 0.236972 0.295705
2591 4 0.141531 0.217636 0.250344
2590 2 0.144906 0.23753 0.260395
544 2 0.291391 0.174724 0.32661
387 4 0.504498 0.220517 0.274657
385 2 0.495947 0.244534 0.267783
710 4 0.00668729 0.284942 0.317587
2592 4 0.148281 0.257423 0.270446
611 4 0.149871 0.26771 0.28631
610 2 0.170001 0.274535 0.293793
612 4 0.190132 0.28136 0.301277
413 4 0.206065 0.284671 0.310639
412 2 0.222543 0.295636 0.318985
414 4 0.239021 0.3066 0.327331
345 4 0.297477 0.293426 0.259377
343 2 0.312194 0.306632 0.266505
344 4 0.326911 0.319838 0.273634
2654 4 0.347612 0.311652 0.278795
2653 2 0.357935 0.321489 0.296827
2655 4 0.368257 0.331325 0.314859
386 4 0.487396 0.26855 0.260908
681 4 0.200312 0.402201 0.265455
1802 4 0.393548 0.387343 0.267529
1801 2 0.411644 0.398292 0.267142
1803 4 0.429741 0.40924 0.266756
753 4 0.440654 0.418066 0.278703
679 2 0.200055 0.425456 0.267054
680 4 0.199798 0.448711 0.268654
3884 4 0.198642 0.468211 0.267894
3883 2 0.196391 0.478896 0.290409
2532 4 0.195062 0.479054 0.329152
3885 4 0.194139 0.489582 0.312924
1575 4 0.291351 0.448344 0.282962
1573 2 0.317642 0.443304 0.286201
1574 4 0.343933 0.438265 0.289439
543 4 0.360194 0.44375 0.291073
541 2 0.383303 0.444694 0.299598
542 4 0.406412 0.445638 0.308123
245 4 0.427616 0.445816 0.312469
244 2 0.443808 0.455269 0.32417
752 4 0.472007 0.440718 0.259877
4 3 0.49436 0.43218 0.262886
751 2 0.45633 0.429392 0.26929
5 3 0.498182 0.462527 0.278443
246 4 0.46 0.464722 0.33587
2115 4 0.00231168 0.00642475 0.411447
125 3 0.0308803 0.0499785 0.341013
2113 2 0.0248394 0.0112621 0.409613
2114 4 0.0473672 0.0160993 0.40778
4355 4 0.0702056 0.010212 0.339582
1184 4 0.0586263 0.0294261 0.40982
4354 2 0.0884539 0.0181071 0.34981
4356 4 0.106702 0.0260023 0.360038
2817 4 0.114681 0.039219 0.367789
2815 2 0.139367 0.0389638 0.363232
2816 4 0.164052 0.0387085 0.358674
2714 4 0.185033 0.0345451 0.35348
2713 2 0.205206 0.0429478 0.354346
2559 4 0.16753 0.0794576 0.399551
4238 4 0.150734 0.0798386 0.389369
2715 4 0.225378 0.0513505 0.355213
3477 4 0.241117 0.0550977 0.365805
3475 2 0.26361 0.0598663 0.363141
3476 4 0.286102 0.0646348 0.360476
1244 4 0.304939 0.0648314 0.353987
1243 2 0.32686 0.0707151 0.355132
1245 4 0.348781 0.0765988 0.356277
2667 4 0.368116 0.0799142 0.35404
2665 2 0.391544 0.081384 0.347238
2666 4 0.414971 0.0828538 0.340435
1523 4 0.475414 0.0603944 0.414522
1522 2 0.482825 0.0599948 0.390596
1524 4 0.490236 0.0595952 0.36667
2880 4 0.0449087 0.101872 0.357562
420 4 0.0508323 0.115951 0.368791
418 2 0.0681425 0.114551 0.387302
419 4 0.0854528 0.11315 0.405813
4239 4 0.104637 0.107732 0.411772
4237 2 0.127685 0.0937854 0.400571
1034 4 0.173001 0.142243 0.390131
2557 2 0.186071 0.0819547 0.414951
1033 2 0.18444 0.158946 0.394359
1376 4 0.469093 0.107718 0.333917
1377 4 0.431837 0.0870379 0.334423
2900 4 0.434718 0.116592 0.394653
1375 2 0.450465 0.097378 0.33417
1035 4 0.19588 0.175648 0.398586
545 4 0.308384 0.185495 0.334053
510 4 0.219209 0.245596 0.401528
939 4 0.309241 0.188874 0.413704
531 4 0.328839 0.180341 0.332463
1199 4 0.305906 0.237536 0.371131
1198 2 0.325904 0.234909 0.355029
1200 4 0.345902 0.232282 0.338927
529 2 0.353249 0.177926 0.340813
530 4 0.377659 0.17551 0.349164
651 4 0.455101 0.173022 0.38796
3158 4 0.395327 0.176578 0.358848
3157 2 0.416041 0.180907 0.368978
3159 4 0.436756 0.185236 0.379107
2484 4 0.434598 0.217679 0.407884
2482 2 0.436345 0.228377 0.386103
2483 4 0.438092 0.239075 0.364322
2684 4 0.415466 0.219528 0.413474
649 2 0.480514 0.171932 0.388365
764 4 0.153377 0.273756 0.370407
765 4 0.201702 0.252166 0.391839
763 2 0.177539 0.262961 0.381123
508 2 0.229547 0.263461 0.40096
509 4 0.239886 0.281326 0.400392
717 4 0.252321 0.290227 0.408101
2766 4 0.346563 0.249227 0.342617
715 2 0.277004 0.289416 0.413687
2764 2 0.362501 0.262318 0.344963
2765 4 0.378438 0.275408 0.347309
2802 4 0.387342 0.289734 0.345906
2800 2 0.411376 0.274306 0.354156
2699 4 0.403521 0.320956 0.349874
2801 4 0.43541 0.258878 0.362406
452 4 0.441772 0.328225 0.420081
488 4 0.460018 0.330431 0.410597
487 2 0.479504 0.339735 0.410742
2698 2 0.41188 0.340054 0.352006
2700 4 0.420238 0.359151 0.354137
2904 4 0.441898 0.358329 0.354889
3642 4 0.428998 0.408159 0.384551
3640 2 0.453657 0.408964 0.385248
2902 2 0.466072 0.359752 0.351588
3423 4 0.414311 0.405646 0.371399
3641 4 0.478316 0.40977 0.385944
2903 4 0.490247 0.361175 0.348287
3582 4 0.0116186 0.444808 0.401
3580 2 0.0245375 0.459281 0.409107
549 4 0.0617686 0.449281 0.371584
547 2 0.0835154 0.455256 0.374208
548 4 0.105262 0.461232 0.376832
1434 4 0.11395 0.472626 0.385924
1432 2 0.13794 0.464796 0.374575
1433 4 0.16193 0.456965 0.363226
2531 4 0.18236 0.446328 0.356801
2530 2 0.188711 0.462691 0.342977
3422 4 0.361842 0.427583 0.360902
3421 2 0.388076 0.416614 0.366151
2712 4 0.481154 0.426296 0.39055
669 4 0.478901 0.467242 0.342186
2139 4 0.436994 0.492482 0.37769
2137 2 0.428615 0.486069 0.399237
1183 2 0.0709741 0.0318935 0.430826
1185 4 0.083322 0.0343608 0.451833
983 4 0.156627 0.035695 0.450658
982 2 0.176082 0.0447367 0.453994
984 4 0.195537 0.0537784 0.45733
217 3 0.203679 0.0630577 0.472078
216 1 0.215566 0.077269 0.467784
220 3 0.239149 0.064995 0.463392
2457 4 0.259324 0.0617059 0.464751
2455 2 0.282509 0.0574256 0.476824
2456 4 0.305694 0.0531454 0.488896
843 4 0.49735 0.0106551 0.494401
1058 4 0.469603 0.0580686 0.432528
1057 2 0.484614 0.0670266 0.446641
3032 4 0.477563 0.0842992 0.496895
1967 4 0.484178 0.999734 0.491041
2558 4 0.204612 0.0844518 0.43035
218 3 0.204983 0.0904383 0.449434
219 3 0.213736 0.0906694 0.486395
2195 4 0.224799 0.104311 0.484962
2553 4 0.24679 0.102917 0.481894
2612 4 0.204009 0.170265 0.416527
2551 2 0.267188 0.111033 0.482393
371 4 0.257566 0.149232 0.494192
2552 4 0.287586 0.119149 0.482893
762 4 0.306682 0.116562 0.495411
760 2 0.331191 0.116496 0.49033
370 2 0.268841 0.166009 0.489695
761 4 0.355699 0.116429 0.48525
3173 4 0.369465 0.121634 0.474293
3172 2 0.391535 0.125203 0.466528
3174 4 0.413605 0.128773 0.458763
2901 4 0.415752 0.133994 0.439972
2899 2 0.425235 0.125293 0.417312
2611 2 0.227773 0.170794 0.423603
937 2 0.290307 0.180206 0.420655
2613 4 0.251537 0.171322 0.43068
938 4 0.271374 0.171539 0.427605
372 4 0.280116 0.182786 0.485197
473 4 0.301395 0.179105 0.489236
2585 4 0.312711 0.20012 0.428511
472 2 0.319969 0.189255 0.492379
2584 2 0.331443 0.210007 0.432079
2586 4 0.350175 0.219894 0.435648
725 4 0.373167 0.232865 0.495387
474 4 0.338542 0.199405 0.495522
2685 4 0.369634 0.221534 0.435132
2683 2 0.39255 0.220531 0.424303
10 3 0.433233 0.211283 0.484582
368 4 0.444283 0.223778 0.481927
8 3 0.394007 0.22797 0.493502
369 4 0.497743 0.200729 0.478443
367 2 0.471013 0.212254 0.480185
3044 4 0.101577 0.285545 0.484885
3043 2 0.126189 0.286409 0.486135
3045 4 0.150801 0.287272 0.487385
444 4 0.163569 0.264828 0.485074
442 2 0.187845 0.262387 0.476336
443 4 0.212121 0.259946 0.467597
310 2 0.253294 0.262336 0.461485
312 4 0.233138 0.253924 0.462583
311 4 0.27345 0.270748 0.460388
716 4 0.301687 0.288604 0.419272
3059 4 0.291552 0.273269 0.467707
3058 2 0.312978 0.278358 0.46072
3060 4 0.334404 0.283447 0.453732
306 4 0.349864 0.287817 0.443585
304 2 0.368544 0.297798 0.440191
305 4 0.387224 0.307779 0.436797
453 4 0.406334 0.3064 0.428659
2498 4 0.440506 0.254469 0.447353
451 2 0.424053 0.317312 0.42437
2497 2 0.45835 0.264004 0.43928
2499 4 0.476195 0.27354 0.431207
2930 4 0.49212 0.279989 0.431796
602 4 0.19084 0.391114 0.482408
1029 4 0.199361 0.39787 0.467826
601 2 0.168932 0.41105 0.488202
1027 2 0.217524 0.406824 0.459332
1172 4 0.257866 0.407632 0.448094
1171 2 0.278095 0.414018 0.456176
3456 4 0.379627 0.406776 0.489542
3454 2 0.39856 0.414984 0.497558
2635 2 0.458993 0.35212 0.491584
2637 4 0.436643 0.347796 0.496747
2636 4 0.481343 0.356444 0.48642
3581 4 0.0374564 0.473754 0.417214
3318 4 0.0505055 0.471632 0.433674
3316 2 0.0748934 0.470685 0.440591
3317 4 0.0992813 0.469738 0.447508
3962 4 0.118694 0.47102 0.450399
603 4 0.147023 0.430985 0.493995
3961 2 0.144687 0.464448 0.456406
3963 4 0.17068 0.457876 0.462414
1028 4 0.235688 0.415779 0.450838
1173 4 0.298324 0.420403 0.464259
2108 4 0.314527 0.41957 0.474892
2107 2 0.33024 0.432999 0.47543
2109 4 0.345954 0.446427 0.475968
1698 4 0.359684 0.444321 0.459946
1697 4 0.402807 0.432634 0.430183
1696 2 0.381246 0.438478 0.445065
593 4 0.423159 0.41964 0.42833
592 2 0.444748 0.423004 0.437704
2138 4 0.420235 0.479655 0.420783
326 4 0.475767 0.49764 0.466117
594 4 0.466337 0.426367 0.447078
1445 4 0.435804 0.476783 0.434072
3072 4 0.485672 0.447373 0.491879
1444 2 0.454143 0.478735 0.450067
1446 4 0.472481 0.480686 0.466062
4178 4 0.471616 0.436494 0.492377
3049 2 0.0135284 0.0804604 0.571863
3023 4 0.0226665 0.00907137 0.560305
3051 4 0.0380525 0.0800105 0.577549
3022 2 0.0422506 0.0177959 0.564388
3024 4 0.0618346 0.0265205 0.56847
88 3 0.0533482 0.0747526 0.56304
89 3 0.0864676 0.070767 0.54219
2507 4 0.0959144 0.0816647 0.530584
2506 2 0.121269 0.0651247 0.52991
2508 4 0.146624 0.0485847 0.529235
1263 4 0.167607 0.0444405 0.526136
1261 2 0.174073 0.0425637 0.550405
1262 4 0.18054 0.0406869 0.574675
3850 2 0.312473 0.0756963 0.519296
3326 4 0.346425 0.0766011 0.535754
3852 4 0.299582 0.0663529 0.50313
3325 2 0.372997 0.0646807 0.532984
944 4 0.411544 0.0605125 0.541319
3327 4 0.399569 0.0527603 0.530213
1162 2 0.443056 0.00184907 0.57222
943 2 0.437824 0.0565177 0.541219
945 4 0.464104 0.0525228 0.541119
1966 2 0.471999 0.00564882 0.513264
3033 4 0.483361 0.0491552 0.531499
3031 2 0.480462 0.0667272 0.514197
1968 4 0.459821 0.0115638 0.535488
86 1 0.0672121 0.0857714 0.553921
90 3 0.075451 0.0956212 0.570453
87 3 0.0531914 0.101945 0.539411
575 4 0.0987757 0.100606 0.522618
574 2 0.105796 0.120481 0.525081
576 4 0.112816 0.140356 0.527544
2241 4 0.125887 0.150218 0.524908
2239 2 0.141182 0.15744 0.540478
2196 4 0.194834 0.133234 0.521372
2194 2 0.209817 0.118773 0.503167
3851 4 0.325365 0.0850397 0.535463
1142 4 0.401255 0.14858 0.527601
2502 4 0.406126 0.12844 0.525872
2500 2 0.432752 0.11691 0.523111
2501 4 0.459378 0.10538 0.52035
900 4 0.478449 0.109084 0.522352
898 2 0.488733 0.125679 0.530317
1130 4 0.482817 0.155388 0.582635
899 4 0.499017 0.142274 0.538283
2240 4 0.156476 0.164661 0.556048
960 4 0.155739 0.17791 0.571175
726 4 0.343797 0.207491 0.512567
724 2 0.358482 0.220178 0.503977
1141 2 0.40261 0.16906 0.538305
1143 4 0.403966 0.18954 0.54901
7 3 0.416989 0.195763 0.510036
917 4 0.423745 0.188366 0.547851
6 1 0.41689 0.215633 0.501507
9 3 0.42295 0.227335 0.518421
916 2 0.448308 0.189155 0.54548
918 4 0.47287 0.189945 0.543108
1075 2 0.485408 0.2039 0.58255
1076 4 0.461253 0.202346 0.58553
3237 4 0.27496 0.310607 0.54262
3235 2 0.288138 0.32408 0.532674
83 3 0.370037 0.263204 0.574189
1639 2 0.479111 0.322786 0.563678
1640 4 0.454612 0.325948 0.57236
2847 4 0.315791 0.341446 0.535712
3236 4 0.301317 0.337552 0.522727
3420 4 0.296446 0.34176 0.56995
261 4 0.379723 0.337085 0.525844
2845 2 0.337692 0.34594 0.52913
2846 4 0.359594 0.350434 0.522548
259 2 0.401681 0.339735 0.516444
260 4 0.423638 0.342384 0.507045
4179 4 0.438616 0.414611 0.509063
559 2 0.00767708 0.49743 0.526285
4057 2 0.0626382 0.490958 0.543794
4059 4 0.0835646 0.480787 0.559205
4538 4 0.102119 0.48099 0.570209
4131 4 0.139915 0.440842 0.51142
4129 2 0.13799 0.462977 0.520758
4130 4 0.136065 0.485112 0.530097
2630 4 0.151036 0.492812 0.530462
2129 4 0.339252 0.46359 0.578893
3455 4 0.417493 0.423192 0.505574
791 4 0.403964 0.44342 0.526656
790 2 0.413478 0.458048 0.539891
792 4 0.422991 0.472675 0.553126
2214 4 0.442244 0.471268 0.547949
2212 2 0.469142 0.462756 0.547068
2213 4 0.49604 0.454245 0.546186
4177 2 0.455116 0.425553 0.50072
2996 4 0.0663585 0.0247337 0.588753
2995 2 0.0855654 0.0341903 0.591443
2997 4 0.104772 0.043647 0.594133
3309 4 0.115003 0.0554197 0.599957
3307 2 0.14092 0.0506688 0.594876
3308 4 0.166836 0.0459179 0.589794
1164 4 0.432692 0.000225479 0.594608
953 4 0.413672 0.047796 0.642182
952 2 0.423981 0.0276099 0.627598
954 4 0.43429 0.00742374 0.613014
958 2 0.164017 0.189033 0.589599
959 4 0.172296 0.200157 0.608023
1256 4 0.192789 0.199147 0.606188
1255 2 0.216766 0.201219 0.603829
1257 4 0.240743 0.203291 0.60147
1155 4 0.2585 0.205145 0.592768
1153 2 0.284881 0.200679 0.593335
906 4 0.256804 0.24895 0.632809
1154 4 0.311262 0.196214 0.593903
1283 4 0.327558 0.201612 0.59641
1282 2 0.35329 0.199448 0.597866
1284 4 0.379023 0.197284 0.599323
82 3 0.372449 0.248348 0.608533
1106 4 0.396735 0.200505 0.600622
1105 2 0.422601 0.197864 0.598976
1107 4 0.448466 0.195223 0.59733
3441 4 0.439623 0.246657 0.633041
2626 2 0.394543 0.248108 0.641153
2628 4 0.419686 0.247213 0.637977
2627 4 0.3694 0.249003 0.644328
904 2 0.271567 0.256832 0.648368
3356 4 0.356255 0.255554 0.66043
3357 4 0.302858 0.270616 0.665876
905 4 0.286329 0.264715 0.663928
3355 2 0.329557 0.263085 0.663153
84 3 0.336149 0.26458 0.592387
81 1 0.358807 0.265564 0.594854
85 3 0.356831 0.285418 0.604281
806 4 0.373473 0.291643 0.605734
805 2 0.397436 0.292141 0.612144
807 4 0.421399 0.292639 0.618555
978 4 0.429618 0.301476 0.631692
976 2 0.422011 0.322965 0.644436
3439 2 0.45258 0.26057 0.623629
3440 4 0.465537 0.274483 0.614218
896 4 0.478185 0.28179 0.623298
895 2 0.490322 0.295612 0.634347
1280 4 0.452588 0.327653 0.59361
3433 2 0.00455397 0.336702 0.625229
3434 4 0.0209457 0.349468 0.625393
3418 2 0.315487 0.340193 0.586791
3419 4 0.334528 0.338627 0.603633
347 4 0.34153 0.352406 0.59601
346 2 0.363723 0.356897 0.601444
4558 2 0.375043 0.362864 0.665638
348 4 0.385915 0.361389 0.606877
3112 2 0.378784 0.413183 0.657803
1281 4 0.400815 0.358303 0.593638
4559 4 0.399973 0.362441 0.662192
1279 2 0.426701 0.342978 0.593624
977 4 0.414404 0.344455 0.65718
3114 4 0.396278 0.410828 0.639211
4215 4 0.414002 0.412492 0.63098
797 4 0.0171167 0.415994 0.654514
3490 2 0.0561581 0.488112 0.629203
3492 4 0.0779209 0.471359 0.618356
4539 4 0.084379 0.45616 0.603652
4537 2 0.0932491 0.468575 0.586931
4362 4 0.321665 0.488717 0.63665
4360 2 0.342714 0.495456 0.640641
4213 2 0.432516 0.420849 0.622169
2128 2 0.35664 0.474264 0.58539
2130 4 0.374028 0.484938 0.591886
3465 4 0.396251 0.497016 0.652386
1983 4 0.394837 0.482888 0.600644
3463 2 0.405474 0.472307 0.656156
1981 2 0.420185 0.480514 0.605567
3464 4 0.414698 0.447599 0.659927
4214 4 0.45103 0.429205 0.613358
2170 2 0.47711 0.495866 0.592679
2171 4 0.45964 0.486465 0.601957
1982 4 0.445534 0.47814 0.61049
1911 4 0.469174 0.433168 0.612407
1909 2 0.49345 0.432606 0.605597
1023 4 0.0509127 0.0817751 0.717814
3084 4 0.253572 0.0142806 0.697688
3131 4 0.342865 0.0659418 0.743923
1021 2 0.0247458 0.0946397 0.713597
3009 4 0.151647 0.127336 0.748086
3126 4 0.256711 0.0847136 0.699326
3124 2 0.242177 0.106613 0.688732
3125 4 0.227642 0.128513 0.678139
3062 4 0.0102328 0.170382 0.69929
3061 2 0.0315598 0.176406 0.704336
3063 4 0.0528869 0.182431 0.709382
3167 4 0.0716184 0.180611 0.701208
3166 2 0.0906713 0.189972 0.696981
3168 4 0.109724 0.199332 0.692755
3002 4 0.128512 0.20193 0.691239
3001 2 0.153201 0.202216 0.694382
3003 4 0.17789 0.202503 0.697525
2174 4 0.19546 0.20452 0.706741
2173 2 0.222163 0.198313 0.706774
2175 4 0.248867 0.192107 0.706808
3240 4 0.264698 0.197867 0.702731
3238 2 0.290428 0.195834 0.703124
3239 4 0.316159 0.193802 0.703518
3351 4 0.329097 0.201842 0.695459
3349 2 0.351635 0.206158 0.691241
3350 4 0.374173 0.210474 0.687023
3273 4 0.371923 0.245347 0.724487
779 4 0.393737 0.207754 0.695227
3252 4 0.390268 0.234015 0.735931
778 2 0.409961 0.220572 0.692984
780 4 0.426185 0.23339 0.690741
3272 4 0.321158 0.262823 0.741191
3073 2 0.268983 0.334644 0.719174
3074 4 0.295379 0.329162 0.716119
3271 2 0.346541 0.254085 0.732839
3091 2 0.324578 0.324133 0.74412
3092 4 0.315108 0.329778 0.720854
3075 4 0.242587 0.340127 0.722228
3312 4 0.235074 0.354556 0.736065
3380 4 0.323113 0.342164 0.711698
4560 4 0.350112 0.363287 0.669083
3379 2 0.339226 0.343364 0.693032
3381 4 0.355339 0.344564 0.674366
998 4 0.368819 0.412958 0.696309
3113 4 0.361289 0.415539 0.676394
997 2 0.382401 0.409005 0.717885
999 4 0.395984 0.405053 0.739461
3374 4 0.473299 0.346599 0.690291
3375 4 0.458176 0.394108 0.675173
3373 2 0.465737 0.370353 0.682732
1007 4 0.442957 0.412011 0.70095
4196 4 0.495911 0.40035 0.717899
993 4 0.0676662 0.465012 0.704094
991 2 0.0917598 0.447789 0.7098
992 4 0.115853 0.430567 0.715506
942 4 0.133914 0.432755 0.706761
940 2 0.158456 0.432055 0.712766
941 4 0.182998 0.431355 0.718772
1098 4 0.203105 0.420924 0.722443
1096 2 0.219585 0.425203 0.739055
1276 2 0.268634 0.442645 0.740175
1277 4 0.285998 0.446929 0.72459
821 4 0.301239 0.453224 0.71883
820 2 0.325848 0.453886 0.721291
822 4 0.350457 0.454547 0.723752
1235 4 0.370213 0.454975 0.719118
1234 2 0.388028 0.462766 0.730361
1008 4 0.404361 0.437562 0.66866
1236 4 0.405842 0.470557 0.741603
2289 4 0.426879 0.470704 0.740899
1006 2 0.423659 0.424786 0.684805
2287 2 0.444779 0.481068 0.735264
4195 2 0.48683 0.421297 0.731534
2288 4 0.462679 0.491432 0.72963
4197 4 0.477749 0.442244 0.745169
3553 2 0.0145542 0.0333139 0.800232
3554 4 0.0315104 0.045069 0.804466
193 3 0.0480793 0.0505005 0.798162
3555 4 0.997598 0.0215589 0.795999
195 3 0.0704508 0.064893 0.777685
191 1 0.070753 0.0466531 0.789391
192 3 0.0770131 0.0285158 0.775277
194 3 0.0875644 0.0420221 0.806514
3764 4 0.107484 0.0339587 0.81134
1112 4 0.0742937 0.0819628 0.78372
3763 2 0.128671 0.0407297 0.814224
3410 4 0.0816694 0.00611046 0.832097
3409 2 0.108069 0.00107009 0.829816
3765 4 0.149859 0.0475006 0.817107
1994 4 0.170416 0.0460953 0.816275
1993 2 0.195841 0.0426785 0.822165
2283 4 0.220926 0.0102607 0.782449
1995 4 0.221266 0.0392616 0.828054
4580 4 0.234505 0.0178169 0.792294
4579 2 0.259109 0.0184943 0.789856
4581 4 0.283714 0.0191717 0.787419
2036 4 0.298819 0.00964677 0.800171
2035 2 0.319878 0.0168041 0.801482
2037 4 0.340937 0.0239614 0.802793
2348 4 0.360535 0.0227977 0.806434
3130 2 0.334819 0.0795633 0.764729
2347 2 0.383917 0.0249166 0.812229
2349 4 0.4073 0.0270356 0.818024
1038 4 0.42573 0.0315804 0.817825
1036 2 0.45038 0.0323008 0.816155
1037 4 0.475029 0.0330212 0.814485
1965 4 0.487419 0.0449348 0.813234
3133 2 0.0567766 0.147118 0.826684
1111 2 0.0809949 0.0994533 0.795194
1113 4 0.0876962 0.116944 0.806668
42 3 0.0954542 0.107717 0.824219
1050 4 0.0305357 0.129547 0.835635
3134 4 0.0634596 0.164815 0.815611
3007 2 0.175512 0.121634 0.759347
3077 4 0.19388 0.152592 0.826591
3008 4 0.199377 0.115932 0.770607
3146 4 0.206294 0.102933 0.784883
3076 2 0.216556 0.156791 0.822804
3145 2 0.227269 0.109338 0.790372
3147 4 0.248245 0.115743 0.795861