ITEM: TIMESTEP
1428000
ITEM: NUMBER OF ATOMS
4590
ITEM: BOX BOUNDS xy xz yz pp pp pp
-1.8797311600000000e+01 9.9985700000000008e+00 -8.7987415999999996e+00
-9.9985700000000008e+00 9.9985700000000008e+00 0.0000000000000000e+00
-9.9985700000000008e+00 9.9985700000000008e+00 0.0000000000000000e+00
ITEM: ATOMS id type xs ys zs
1760 4 0.0170083 0.0397274 0.0378009
356 4 0.201985 0.0717981 0.0775526
1822 2 0.227355 0.0687578 0.00616715
1823 4 0.246225 0.066205 0.0209635
1874 4 0.371099 0.0433299 0.0720368
1873 2 0.391845 0.04051 0.0604692
1875 4 0.412592 0.0376902 0.0489016
1653 4 0.433954 0.0479585 0.052187
1651 2 0.45925 0.0499186 0.0472505
1652 4 0.484546 0.0518787 0.0423139
1251 4 0.0526582 0.162523 0.0125946
3260 4 0.071676 0.104466 0.0455974
3259 2 0.0882951 0.117622 0.0272995
3261 4 0.104914 0.130778 0.00900155
2600 4 0.2539 0.147645 0.0675841
2599 2 0.279971 0.150429 0.0678996
2601 4 0.306042 0.153213 0.0682151
378 4 0.324669 0.163544 0.0796935
359 4 0.0249348 0.2329 0.0112154
282 4 0.044562 0.232924 0.0143735
280 2 0.0685239 0.231585 0.0189149
281 4 0.0924858 0.230246 0.0234563
1249 2 0.0782068 0.171 0.00380421
2876 4 0.11385 0.240639 0.0273351
2875 2 0.139973 0.245267 0.0224753
1246 2 0.145502 0.192203 0.00973533
1248 4 0.16697 0.191065 0.0216224
2650 2 0.206499 0.24595 0.0287921
2440 2 0.213813 0.196943 0.0217986
2976 4 0.206972 0.189931 0.0799841
527 4 0.245503 0.238058 0.0416989
2441 4 0.186827 0.188452 0.0182543
2651 4 0.225702 0.239152 0.038087
2442 4 0.240798 0.205434 0.0253429
526 2 0.261381 0.240508 0.0617022
492 4 0.262071 0.206468 0.0257008
528 4 0.27726 0.242957 0.0817056
490 2 0.284306 0.201398 0.0266499
491 4 0.306541 0.196328 0.0275991
845 4 0.328493 0.20555 0.0323777
844 2 0.352826 0.204239 0.0340991
846 4 0.37716 0.202929 0.0358205
456 4 0.396851 0.202295 0.0349729
454 2 0.423387 0.206644 0.0350983
455 4 0.449922 0.210993 0.0352236
102 3 0.470725 0.215954 0.0312734
104 3 0.473608 0.187742 0.0117099
101 1 0.486105 0.209742 0.0185267
460 2 0.0340236 0.317648 0.00725
2521 2 0.0444651 0.307354 0.0752355
2523 4 0.045146 0.289824 0.0595067
461 4 0.0575111 0.32562 0.019995
3339 4 0.0611926 0.291912 0.044862
3337 2 0.0838231 0.303054 0.0311954
3338 4 0.106454 0.314195 0.0175288
293 4 0.118412 0.320316 0.00140346
292 2 0.145686 0.331005 0.00261056
2877 4 0.166096 0.249895 0.0176155
2652 4 0.187296 0.252748 0.0194971
2829 4 0.186512 0.332599 0.00769693
2827 2 0.211628 0.332864 0.00812508
450 4 0.420666 0.268003 0.0129663
448 2 0.44471 0.267515 0.00692538
449 4 0.468753 0.267028 0.000884405
1078 2 0.00133688 0.378649 0.00941354
1079 4 0.0025898 0.364795 0.0288879
2727 4 0.0423837 0.407419 0.066024
2725 2 0.0672459 0.411222 0.0745674
671 4 0.103217 0.402767 0.0834865
2726 4 0.0921081 0.415024 0.0831109
670 2 0.125853 0.407389 0.070094
672 4 0.148489 0.412011 0.0567014
2828 4 0.236743 0.33313 0.00855324
4303 2 0.208669 0.415273 0.0460189
4305 4 0.225943 0.404191 0.0494499
597 4 0.235454 0.396454 0.0614319
294 4 0.172961 0.341694 0.00381766
595 2 0.261266 0.398652 0.0631982
1293 4 0.303779 0.337215 0.0125311
596 4 0.287077 0.400851 0.0649645
2639 4 0.254916 0.349372 0.0173085
2638 2 0.280646 0.351408 0.0193932
2640 4 0.306376 0.353445 0.0214779
1291 2 0.325355 0.336265 0.000677051
2514 4 0.0830439 0.466515 0.0224563
903 4 0.0887969 0.469679 0.00294897
2512 2 0.100171 0.472869 0.0419358
2513 4 0.117297 0.479223 0.0614153
1871 4 0.135466 0.486412 0.071681
4304 4 0.191395 0.426355 0.0425879
4052 4 0.219308 0.485998 0.0043643
1550 4 0.303314 0.41958 0.0659829
1549 2 0.326728 0.427855 0.0531095
1551 4 0.350142 0.436129 0.0402361
3542 4 0.37232 0.445821 0.0447717
3541 2 0.384304 0.452933 0.0670473
2913 4 0.456148 0.497703 0.0480134
759 4 0.141859 0.0783423 0.0918324
757 2 0.16181 0.0704585 0.0880228
2745 4 0.127643 0.0099415 0.156941
758 4 0.181761 0.0625746 0.0842132
690 4 0.191181 0.0766613 0.163009
2702 4 0.235055 0.0515315 0.149809
2701 2 0.244759 0.0381737 0.135527
2781 4 0.262219 0.0270447 0.102492
2703 4 0.254463 0.0248159 0.121246
2779 2 0.280511 0.0171263 0.0988174
2780 4 0.298802 0.0072079 0.095143
2679 4 0.314011 0.0262083 0.092592
2677 2 0.341289 0.0374501 0.0922607
2678 4 0.368567 0.0486918 0.0919295
1374 4 0.372935 0.0667329 0.0999798
654 4 0.120687 0.161199 0.13932
652 2 0.135733 0.153557 0.124222
653 4 0.150778 0.145915 0.109125
2975 4 0.162952 0.148913 0.0919772
22 3 0.138032 0.116167 0.118195
25 3 0.159151 0.129361 0.0868206
21 1 0.158376 0.118073 0.10615
24 3 0.156973 0.0968124 0.101337
23 3 0.179043 0.129661 0.118869
2894 4 0.199922 0.13617 0.111695
2893 2 0.222676 0.139071 0.0992253
699 4 0.209566 0.0927004 0.15969
697 2 0.222765 0.117584 0.158718
698 4 0.235964 0.142467 0.157746
355 2 0.224003 0.0837203 0.0917574
2895 4 0.24543 0.141972 0.0867557
357 4 0.24602 0.0956426 0.105962
623 4 0.267593 0.105109 0.106112
622 2 0.281501 0.110523 0.127631
624 4 0.295409 0.115937 0.149149
521 4 0.311144 0.11721 0.160275
1372 2 0.399069 0.0829996 0.100673
1373 4 0.425203 0.0992662 0.101366
505 2 0.0226069 0.208833 0.165839
2783 4 0.00316672 0.216726 0.0949313
506 4 0.0446715 0.209763 0.153374
836 4 0.0655857 0.216657 0.150619
835 2 0.0910584 0.225324 0.141621
837 4 0.116531 0.233991 0.132624
2615 4 0.138533 0.241369 0.136536
558 4 0.126635 0.170358 0.157002
2614 2 0.159336 0.23528 0.142591
2616 4 0.18014 0.229192 0.148646
2717 4 0.185041 0.213891 0.144409
2974 2 0.184962 0.169422 0.0859806
2718 4 0.196505 0.174521 0.155451
2716 2 0.190773 0.194206 0.14993
350 4 0.327331 0.245647 0.15355
376 2 0.348011 0.178004 0.090997
377 4 0.371354 0.192464 0.1023
110 3 0.0317638 0.250851 0.114071
2522 4 0.0437842 0.324885 0.0909643
106 1 0.0550662 0.260286 0.122001
2771 4 0.0608557 0.328405 0.104381
107 3 0.0690661 0.251076 0.111119
109 3 0.0648916 0.283158 0.118103
108 3 0.0552833 0.256147 0.144741
2705 4 0.120254 0.303808 0.158442
2704 2 0.114516 0.323956 0.160897
2471 4 0.228875 0.316234 0.162293
518 4 0.348926 0.305608 0.165984
349 2 0.342765 0.269441 0.159413
351 4 0.3582 0.293235 0.165276
517 2 0.335526 0.320415 0.169033
2770 2 0.0876578 0.337228 0.109073
4007 4 0.0923092 0.350921 0.163468
2772 4 0.11446 0.346052 0.113765
1103 4 0.134954 0.353856 0.108112
2706 4 0.108779 0.344103 0.163351
1102 2 0.16001 0.355503 0.102593
1104 4 0.185066 0.35715 0.0970748
1786 2 0.00899892 0.496133 0.133837
1788 4 0.0271765 0.495029 0.117234
1870 2 0.159508 0.497404 0.0833232
4211 4 0.293975 0.446194 0.158219
4210 2 0.317142 0.457876 0.145423
3671 4 0.345407 0.484746 0.120177
4212 4 0.34031 0.469558 0.132627
1467 4 0.364579 0.452966 0.136632
1465 2 0.386438 0.459018 0.121797
1466 4 0.408297 0.465069 0.106962
3543 4 0.396287 0.460045 0.0893228
1504 2 0.001971 0.0640943 0.22841
1505 4 0.0290566 0.0731003 0.225341
255 4 0.0464283 0.07468 0.214599
253 2 0.0725741 0.0780435 0.216936
688 2 0.169075 0.0805738 0.169498
633 4 0.16805 0.0823409 0.230751
689 4 0.146968 0.0844863 0.175987
2879 4 0.185158 0.082685 0.243342
249 4 0.99985 0.114352 0.24442
3209 4 0.0312552 0.137525 0.214165
1749 4 0.0215539 0.12119 0.202319
247 2 0.0247306 0.114988 0.248844
3208 2 0.0553624 0.155851 0.208511
2180 4 0.0377907 0.102005 0.168744
2179 2 0.0645971 0.114346 0.172738
557 4 0.0878905 0.16505 0.190869
254 4 0.0987199 0.081407 0.219274
632 4 0.120914 0.0851791 0.218442
2181 4 0.0914035 0.126688 0.176732
2790 4 0.105157 0.117277 0.178641
2788 2 0.130036 0.12106 0.187123
29 3 0.112066 0.130599 0.248415
605 4 0.134452 0.140527 0.247501
631 2 0.144482 0.08376 0.224596
2789 4 0.154915 0.124843 0.195606
2673 4 0.17712 0.132048 0.198701
2671 2 0.204396 0.142159 0.20007
2672 4 0.231672 0.15227 0.20144
2878 2 0.211584 0.0909 0.237227
2952 4 0.250032 0.160226 0.190724
2880 4 0.238009 0.099115 0.231111
420 4 0.259201 0.11137 0.234855
418 2 0.285407 0.114572 0.234982
520 2 0.335622 0.130547 0.170326
419 4 0.311614 0.117774 0.235108
2837 4 0.329685 0.11524 0.237925
522 4 0.360099 0.143884 0.180376
749 4 0.359789 0.157075 0.195065
404 4 0.000993846 0.173499 0.244885
3210 4 0.0794695 0.174177 0.202858
556 2 0.107263 0.167704 0.173935
2946 4 0.232988 0.237379 0.238213
2950 2 0.270387 0.179713 0.201051
2951 4 0.290743 0.199201 0.211378
2452 2 0.300821 0.223116 0.24281
2454 4 0.305702 0.210592 0.223828
582 4 0.329488 0.178738 0.242631
748 2 0.354108 0.1692 0.213955
750 4 0.348428 0.181324 0.232845
4008 4 0.0406337 0.3273 0.178913
2753 4 0.00856439 0.287027 0.209936
2730 4 0.0287108 0.287221 0.212634
2728 2 0.053737 0.299982 0.221882
2536 2 0.0168098 0.332761 0.197266
2729 4 0.0787633 0.312742 0.23113
525 4 0.120838 0.295481 0.175069
523 2 0.140928 0.287841 0.17917
2955 4 0.119214 0.274827 0.244904
389 4 0.0989856 0.263248 0.246655
300 4 0.1867 0.315411 0.237129
524 4 0.161018 0.280201 0.183271
2953 2 0.144911 0.28704 0.236967
2954 4 0.170608 0.299254 0.229031
2472 4 0.175483 0.294606 0.172682
2470 2 0.202179 0.30542 0.167488
298 2 0.205942 0.308342 0.245824
608 4 0.250436 0.323035 0.167324
2533 2 0.285671 0.279207 0.205541
2534 4 0.272459 0.263539 0.187109
2535 4 0.298884 0.294875 0.223974
607 2 0.277243 0.330473 0.171323
2591 4 0.015366 0.361787 0.241717
1802 4 0.0228915 0.41623 0.22303
2537 4 0.0433059 0.337233 0.195379
2862 4 0.0365144 0.367543 0.234126
2860 2 0.0589933 0.380013 0.220674
2861 4 0.0814722 0.392483 0.207221
3990 4 0.0963539 0.397498 0.191227
4006 2 0.0664714 0.33911 0.171191
3989 4 0.141146 0.39993 0.167078
3988 2 0.11875 0.398714 0.179153
609 4 0.30405 0.337911 0.175322
519 4 0.322125 0.335222 0.172082
3695 4 0.00623936 0.419662 0.231059
3705 4 0.0148594 0.479685 0.201496
3703 2 0.023348 0.469902 0.220623
3704 4 0.0318366 0.46012 0.239749
1801 2 0.0499861 0.427773 0.225727
1803 4 0.0770806 0.439315 0.228423
1158 4 0.0978985 0.441722 0.223537
1156 2 0.124893 0.451669 0.219701
501 4 0.159864 0.473377 0.231606
1157 4 0.151887 0.461617 0.215865
4368 4 0.171974 0.465783 0.208437
4366 2 0.19866 0.471245 0.210819
4367 4 0.225347 0.476708 0.213201
1382 4 0.247433 0.490508 0.21337
314 4 0.264435 0.457412 0.208447
1381 2 0.274374 0.496973 0.211719
313 2 0.27244 0.446262 0.190168
315 4 0.280446 0.435112 0.171888
1435 2 0.432748 0.42275 0.232536
1437 4 0.448946 0.427476 0.212447
681 4 0.471149 0.43559 0.21803
679 2 0.493816 0.435291 0.228292
2692 2 0.00586918 0.0456203 0.280668
2694 4 0.0290728 0.0422275 0.278731
511 2 0.0747114 0.0577853 0.267202
512 4 0.0481817 0.053273 0.268752
513 4 0.101241 0.0622975 0.265653
1271 4 0.110855 0.069223 0.282545
1270 2 0.136108 0.0699049 0.283975
1272 4 0.161362 0.0705868 0.285406
4307 4 0.180185 0.0696701 0.291279
3926 4 0.164463 0.0360363 0.293508
3925 2 0.1787 0.0221649 0.297869
4306 2 0.206817 0.0831059 0.295192
3927 4 0.192937 0.00829359 0.30223
3697 2 0.229078 0.00519638 0.295351
3698 4 0.256378 0.0144868 0.295073
3741 4 0.264365 0.0126757 0.277771
3740 4 0.308132 0.0116181 0.254465
3739 2 0.286248 0.0121469 0.266118
531 4 0.0436951 0.14132 0.331271
248 4 0.0496115 0.115624 0.253267
27 3 0.0720756 0.123487 0.250254
544 2 0.0720308 0.140399 0.309188
545 4 0.0607694 0.136483 0.331967
1058 4 0.0950413 0.094433 0.329503
26 1 0.0931397 0.129199 0.262599
28 3 0.0895962 0.11285 0.278656
546 4 0.0832923 0.144316 0.28641
30 3 0.0984007 0.14931 0.272664
1523 4 0.0742779 0.0901908 0.328067
1057 2 0.121918 0.100344 0.330469
604 2 0.161298 0.147281 0.250599
606 4 0.188143 0.154035 0.253697
731 4 0.203587 0.148651 0.256225
730 2 0.229601 0.15126 0.25599
4308 4 0.233449 0.0965416 0.299106
581 4 0.277684 0.157822 0.25839
732 4 0.255615 0.153868 0.255756
2838 4 0.374898 0.129774 0.2659
2836 2 0.352292 0.122507 0.251913
283 2 0.00323226 0.244515 0.27436
2850 4 0.0402376 0.235764 0.330539
2849 4 0.0597222 0.231916 0.285402
590 4 0.063302 0.216589 0.276872
589 2 0.0418376 0.199243 0.265341
2848 2 0.0499799 0.23384 0.307971
591 4 0.0203732 0.181898 0.253809
2945 4 0.275803 0.237669 0.264259
2944 2 0.254396 0.237524 0.251236
2930 4 0.310477 0.241955 0.286449
2453 4 0.295941 0.235641 0.261793
2931 4 0.348649 0.242029 0.318792
2929 2 0.329563 0.241992 0.302621
580 2 0.303586 0.16828 0.25051
284 4 0.0303711 0.253702 0.271653
290 4 0.0524701 0.324201 0.283018
2568 4 0.0339124 0.31211 0.292121
2566 2 0.00969644 0.313296 0.29556
390 4 0.052652 0.262925 0.265812
388 2 0.0758188 0.263087 0.256233
2526 4 0.182416 0.273181 0.326661
2493 4 0.220137 0.281941 0.258211
299 4 0.225183 0.301274 0.254519
2524 2 0.208906 0.285781 0.3214
2491 2 0.247014 0.288744 0.26113
2525 4 0.235397 0.298382 0.316138
2463 4 0.28275 0.264995 0.299522
2461 2 0.294047 0.278905 0.2794
2462 4 0.305345 0.292815 0.259278
2492 4 0.27389 0.295547 0.264049
1953 4 0.367124 0.254137 0.311426
1951 2 0.385117 0.269832 0.327424
2852 4 0.00841847 0.34479 0.320921
2451 4 0.0752156 0.377676 0.328225
2449 2 0.0480235 0.369347 0.329734
2450 4 0.0208313 0.361018 0.331243
289 2 0.0789877 0.338581 0.279739
291 4 0.105505 0.352962 0.276461
3 3 0.450193 0.408279 0.314533
1575 4 0.483749 0.393815 0.31294
5 3 0.472566 0.391468 0.330306
230 4 0.184661 0.432506 0.270376
500 4 0.185261 0.496754 0.273151
499 2 0.172562 0.485066 0.252379
229 2 0.209731 0.445959 0.261574
231 4 0.234801 0.459412 0.252772
1310 4 0.270072 0.473847 0.311835
1309 2 0.296534 0.485752 0.317582
645 4 0.432526 0.422278 0.266718
1436 4 0.416551 0.418024 0.252624
644 4 0.466918 0.418353 0.301079
643 2 0.449722 0.420316 0.283898
752 4 0.486566 0.436118 0.302205
2871 4 0.00308306 0.0833411 0.338813
2115 4 0.0240139 0.0448578 0.364781
1126 2 0.0635715 0.0398466 0.3499
1128 4 0.0420116 0.0451634 0.354974
707 4 0.10474 0.0350935 0.342231
1127 4 0.0851314 0.0345298 0.344827
1062 4 0.158664 0.00375933 0.412443
706 2 0.128867 0.0422549 0.353802
708 4 0.152995 0.0494163 0.365374
1152 4 0.127666 0.0218249 0.414138
616 2 0.18653 0.0474224 0.376559
617 4 0.173301 0.060885 0.367779
618 4 0.199759 0.0339598 0.38534
1524 4 0.0255256 0.0907012 0.338153
529 2 0.0191179 0.134365 0.341941
1522 2 0.0499017 0.090446 0.33311
1059 4 0.148795 0.106255 0.331435
2643 4 0.167022 0.104063 0.341187
369 4 0.211038 0.0972091 0.390344
2642 4 0.206371 0.101969 0.370761
2641 2 0.186697 0.103016 0.355974
367 2 0.234469 0.108267 0.402925
368 4 0.257899 0.119325 0.415505
3572 4 0.0226142 0.221562 0.342404
473 4 0.0632347 0.236915 0.418002
584 4 0.0491228 0.299698 0.38417
2832 4 0.0270788 0.291987 0.384647
2830 2 0.00982531 0.291123 0.366215
366 4 0.113345 0.296597 0.334237
364 2 0.0984231 0.310252 0.335046
365 4 0.0835013 0.323907 0.335856
585 4 0.101448 0.305838 0.384893
583 2 0.0752854 0.302768 0.384532
2494 2 0.158858 0.3245 0.339701
2923 2 0.153516 0.31885 0.394798
2925 4 0.13999 0.30642 0.374654
2495 4 0.131851 0.31238 0.336784
2924 4 0.167042 0.33128 0.414942
1035 4 0.168788 0.270332 0.341293
1033 2 0.162434 0.265834 0.365496
1034 4 0.156079 0.261336 0.3897
2510 4 0.257529 0.309216 0.414154
2509 2 0.2492 0.32447 0.40126
1952 4 0.40311 0.285528 0.343421
2766 4 0.451319 0.30315 0.380017
2764 2 0.431382 0.287914 0.365255
2765 4 0.411444 0.272678 0.350492
2928 4 0.435168 0.332351 0.374302
2596 2 0.0100762 0.394786 0.39262
2597 4 0.0231542 0.379523 0.393256
3317 4 0.0532178 0.343415 0.414341
3316 2 0.08047 0.354988 0.413911
3632 4 0.0901123 0.378544 0.341147
3631 2 0.0968039 0.358885 0.339323
592 2 0.151487 0.385179 0.409323
3318 4 0.107722 0.366561 0.413481
593 4 0.125542 0.376396 0.401546
3633 4 0.103495 0.339226 0.337499
2957 4 0.204674 0.334883 0.345052
2496 4 0.185866 0.33662 0.342618
2511 4 0.240872 0.339724 0.388366
2958 4 0.251169 0.349808 0.3712
2956 2 0.227922 0.342345 0.358126
3883 2 0.347113 0.385277 0.388365
3885 4 0.336558 0.401285 0.380667
1452 4 0.371406 0.376171 0.380554
3884 4 0.357668 0.36927 0.396062
1451 4 0.416543 0.376892 0.358387
261 4 0.393523 0.343036 0.406609
1450 2 0.393975 0.376532 0.36947
1 1 0.456773 0.401301 0.334448
2926 2 0.436891 0.355462 0.369858
2927 4 0.438614 0.378572 0.365414
2 3 0.436104 0.386046 0.344531
1418 4 0.228717 0.48595 0.404148
2960 4 0.239335 0.498521 0.390352
1173 4 0.26716 0.444679 0.397794
2961 4 0.277474 0.484895 0.371189
2959 2 0.258404 0.491708 0.380771
2649 4 0.296391 0.484295 0.367469
2647 2 0.320228 0.499015 0.37782
2530 2 0.369463 0.440355 0.36917
2532 4 0.349474 0.417552 0.371637
1433 4 0.410887 0.473367 0.368183
2531 4 0.389452 0.463158 0.366702
1432 2 0.436318 0.480913 0.377092
1434 4 0.461749 0.48846 0.386
416 4 0.455568 0.465594 0.372519
4 3 0.467569 0.419424 0.34866
415 2 0.466952 0.449395 0.36804
2826 4 0.482257 0.491211 0.388025
570 4 0.490517 0.428775 0.377435
417 4 0.478336 0.433195 0.363561
4239 4 0.0611847 0.0414929 0.427299
4237 2 0.0638177 0.065199 0.428841
2504 4 0.0788757 0.0404201 0.436597
2505 4 0.0985809 0.0282907 0.478149
2503 2 0.0887283 0.0343554 0.457373
1150 2 0.133221 0.0202353 0.438294
1151 4 0.138775 0.0186457 0.46245
2314 2 0.19673 0.064329 0.483473
2316 4 0.173201 0.0602257 0.495153
1060 2 0.184573 0.00773122 0.417511
2315 4 0.22026 0.0684323 0.471793
1061 4 0.210481 0.0117031 0.422579
682 2 0.254307 0.013305 0.431054
684 4 0.228038 0.00814172 0.426291
683 4 0.280576 0.0184682 0.435818
843 4 0.349862 0.042638 0.452436
841 2 0.32255 0.0325905 0.45193
842 4 0.295238 0.0225431 0.451424
3747 4 0.369128 0.0600472 0.448738
3746 4 0.423414 0.0759569 0.445326
3745 2 0.396271 0.068002 0.447032
411 4 0.0505906 0.165842 0.465005
3850 2 0.111937 0.119599 0.433633
3851 4 0.085162 0.105218 0.433124
4238 4 0.0664508 0.0889052 0.430384
3852 4 0.138712 0.133981 0.434141
2196 4 0.237317 0.0886208 0.475478
2195 4 0.286938 0.0955468 0.49232
8 3 0.316319 0.131695 0.426327
6 1 0.295984 0.12664 0.439923
9 3 0.29137 0.106952 0.451516
7 3 0.300566 0.143713 0.455059
10 3 0.276206 0.124491 0.4273
2194 2 0.262128 0.0920838 0.483899
2484 4 0.339745 0.139005 0.431119
2551 2 0.332182 0.111867 0.494575
762 4 0.375838 0.126176 0.498454
2483 4 0.391045 0.148174 0.444634
2552 4 0.358258 0.120568 0.487191
2482 2 0.365395 0.143589 0.437876
760 2 0.400641 0.128088 0.491572
2801 4 0.412832 0.15608 0.445809
3172 2 0.466677 0.124363 0.479986
3173 4 0.44418 0.12653 0.488386
761 4 0.425444 0.130001 0.484689
2901 4 0.49389 0.120362 0.4524
3174 4 0.489174 0.122196 0.471585
474 4 0.00957388 0.219501 0.42704
410 4 0.0131854 0.171556 0.435432
472 2 0.0364043 0.228208 0.422521
409 2 0.031888 0.168699 0.450219
3461 4 0.0699226 0.177676 0.473133
3497 4 0.11093 0.211249 0.478753
3460 2 0.0921959 0.173732 0.478896
3462 4 0.114469 0.169788 0.48466
3498 4 0.160892 0.246114 0.488058
3496 2 0.135911 0.228682 0.483405
321 4 0.27469 0.177291 0.490565
641 4 0.318415 0.162902 0.452257
640 2 0.306913 0.173132 0.468518
642 4 0.295411 0.183363 0.484779
764 4 0.490291 0.187298 0.438481
2802 4 0.467176 0.178836 0.441604
2800 2 0.440004 0.167458 0.443706
452 4 0.100066 0.278334 0.463488
3056 4 0.11984 0.330421 0.456374
451 2 0.0756515 0.263488 0.472709
453 4 0.0512372 0.248642 0.48193
803 4 0.0773495 0.306833 0.491172
487 2 0.137829 0.276028 0.456948
488 4 0.111508 0.270154 0.451726
489 4 0.164149 0.281902 0.462169
3079 2 0.19863 0.265254 0.49516
872 4 0.233383 0.284511 0.471876
871 2 0.247905 0.299086 0.453248
3080 4 0.224897 0.272514 0.488822
873 4 0.262427 0.31366 0.43462
2637 4 0.362574 0.32667 0.459294
260 4 0.364432 0.315419 0.444702
259 2 0.378977 0.329227 0.425655
3333 4 0.0630489 0.341433 0.476882
266 4 0.0648118 0.340515 0.496176
3331 2 0.0868182 0.34164 0.468853
594 4 0.177432 0.393962 0.4171
3055 2 0.143421 0.334549 0.44478
3332 4 0.110588 0.341847 0.460824
3057 4 0.167003 0.338678 0.433186
1029 4 0.236374 0.414419 0.492334
3455 4 0.203739 0.380675 0.483187
2561 4 0.21397 0.388847 0.466192
2560 2 0.204527 0.389623 0.443195
2562 4 0.195084 0.390399 0.420198
3454 2 0.222584 0.377537 0.49755
813 4 0.375114 0.410297 0.475924
2635 2 0.35471 0.342204 0.472247
3963 4 0.393958 0.410445 0.465392
2636 4 0.346846 0.357739 0.485201
2742 4 0.0448371 0.479047 0.436763
2740 2 0.0246272 0.486806 0.43414
2741 4 0.00441732 0.494565 0.431517
2170 2 0.130341 0.49152 0.492008
2171 4 0.143291 0.476296 0.489309
1487 4 0.211088 0.449033 0.497484
1983 4 0.188018 0.45772 0.463478
1981 2 0.172928 0.463811 0.47998
1417 2 0.222093 0.486474 0.428188
1419 4 0.215469 0.486997 0.452228
1982 4 0.157838 0.469902 0.496482
1028 4 0.262895 0.449395 0.458371
1171 2 0.258832 0.448995 0.420199
1027 2 0.249635 0.431907 0.475353
1172 4 0.250504 0.45331 0.442604
812 4 0.364757 0.445244 0.500765
3962 4 0.44481 0.44029 0.45171
811 2 0.369935 0.427771 0.488344
3961 2 0.419384 0.425367 0.458551
4179 4 0.460032 0.441275 0.465613
4177 2 0.480388 0.445402 0.481874
662 4 0.487759 0.495117 0.491115
2501 4 0.0289853 0.00583233 0.538703
3032 4 0.0426566 0.0248715 0.539356
3033 4 0.0595836 0.0746248 0.54017
3031 2 0.0511201 0.0497482 0.539763
3105 4 0.243694 0.041485 0.583944
1142 4 0.406452 0.0684311 0.579297
2810 4 0.000249784 0.163214 0.552888
945 4 0.079963 0.0839077 0.533309
943 2 0.105675 0.0975135 0.526168
944 4 0.131387 0.111119 0.519028
965 4 0.150726 0.147565 0.570034
2322 4 0.157526 0.166727 0.564857
3327 4 0.153457 0.114444 0.518375
3325 2 0.180172 0.129068 0.51858
3326 4 0.206887 0.143692 0.518786
320 4 0.229089 0.154571 0.517339
319 2 0.251889 0.165931 0.503952
2553 4 0.306106 0.103165 0.501959
2809 2 0.0177619 0.172066 0.571898
1082 4 0.229467 0.19596 0.58253
2321 4 0.208932 0.194959 0.578419
2320 2 0.183229 0.180843 0.571638
3237 4 0.368114 0.229392 0.565244
2241 4 0.472409 0.228021 0.523334
2239 2 0.470651 0.206926 0.53445
2240 4 0.468893 0.185831 0.545566
3180 4 0.48958 0.186354 0.550462
802 2 0.0880698 0.30248 0.512304
1237 2 0.0937581 0.30243 0.569814
804 4 0.0987901 0.298127 0.533437
1238 4 0.100317 0.290757 0.551048
1155 4 0.115941 0.258151 0.580834
3081 4 0.172364 0.257994 0.501498
1107 4 0.299277 0.303836 0.577669
1076 4 0.308201 0.302659 0.560912
1075 2 0.333386 0.303078 0.560975
1077 4 0.35857 0.303496 0.561038
3267 4 0.37806 0.303306 0.563582
3265 2 0.37568 0.28952 0.584113
3418 2 0.00873198 0.36001 0.564001
890 4 0.0452944 0.343225 0.577491
3419 4 0.0284627 0.368696 0.546777
265 2 0.0722342 0.355423 0.516231
267 4 0.0796566 0.37033 0.536286
347 4 0.0939481 0.378614 0.551069
346 2 0.106135 0.403331 0.547524
1281 4 0.2479 0.402576 0.577408
3456 4 0.24143 0.3744 0.511912
239 4 0.255392 0.366764 0.517983
3368 4 0.250715 0.386006 0.576116
1279 2 0.26657 0.416092 0.560655
238 2 0.279626 0.382152 0.527116
240 4 0.30386 0.397541 0.536249
3045 4 0.45055 0.368208 0.558461
1641 4 0.447802 0.360088 0.576474
3043 2 0.46772 0.376937 0.539191
3044 4 0.48489 0.385667 0.519922
2846 4 0.493579 0.371744 0.527183
348 4 0.118321 0.428048 0.54398
1486 2 0.231484 0.471334 0.501466
1488 4 0.25188 0.493635 0.505447
1136 4 0.260945 0.463549 0.555793
1135 2 0.248822 0.466705 0.576593
4539 4 0.279323 0.476535 0.546202
4537 2 0.301444 0.483577 0.531582
1280 4 0.28524 0.429607 0.543902
4538 4 0.323565 0.49062 0.516963
878 4 0.30594 0.442611 0.545066
877 2 0.332657 0.450228 0.540462
879 4 0.359375 0.457845 0.535858
796 2 0.488977 0.465003 0.56589
797 4 0.477908 0.477488 0.579853
798 4 0.500046 0.452517 0.551926
954 4 0.0281129 0.0820825 0.587484
3612 4 0.0459676 0.00698118 0.591121
1263 4 0.0258612 0.00309056 0.598732
3610 2 0.0729649 0.0134552 0.591455
3611 4 0.0999622 0.0199292 0.59179
4503 4 0.120476 0.0230605 0.598512
4501 2 0.146204 0.0248628 0.598948
4502 4 0.171932 0.0266651 0.599383
3104 4 0.191284 0.0333313 0.59106
3050 4 0.26571 0.0529615 0.580439
3103 2 0.217489 0.0374081 0.587502
270 4 0.260326 0.0372824 0.64423
268 2 0.262765 0.0156266 0.647831
3049 2 0.289636 0.0509762 0.582936
3051 4 0.313562 0.0489908 0.585433
2507 4 0.332442 0.0461186 0.584659
2506 2 0.359624 0.0555316 0.587053
4073 4 0.327096 0.0106039 0.589388
3123 4 0.34432 0.0126472 0.602048
1141 2 0.424076 0.0582221 0.58494
2508 4 0.386806 0.0649447 0.589447
3121 2 0.361129 0.00138053 0.606995
1004 4 0.447036 0.0739952 0.655541
1143 4 0.4417 0.0480132 0.590583
952 2 0.0431325 0.0939346 0.607197
953 4 0.058152 0.105787 0.626909
966 4 0.124259 0.10995 0.601458
964 2 0.137493 0.128758 0.585746
2175 4 0.136812 0.110427 0.617716
2173 2 0.151204 0.118291 0.638784
2174 4 0.165595 0.126156 0.659852
1023 4 0.370846 0.105219 0.640272
1021 2 0.396526 0.108912 0.634534
1022 4 0.422206 0.112605 0.628797
2256 4 0.433641 0.109827 0.614268
2254 2 0.445744 0.0971784 0.626638
2255 4 0.457847 0.0845301 0.639007
959 4 0.0259593 0.248228 0.602611
1256 4 0.0422036 0.244061 0.595082
3110 4 0.0363456 0.181475 0.610343
3111 4 0.0224697 0.187049 0.657279
3109 2 0.0294076 0.184262 0.633811
2811 4 0.0352741 0.180918 0.590909
1255 2 0.0687537 0.250559 0.590424
1971 4 0.0979961 0.180347 0.656769
3384 4 0.165717 0.214829 0.667274
3107 4 0.188692 0.223319 0.663649
3108 4 0.242669 0.247589 0.657568
3106 2 0.21568 0.235454 0.660609
1081 2 0.252337 0.210498 0.594467
3165 4 0.260882 0.244827 0.656467
1083 4 0.275206 0.225036 0.606403
3163 2 0.276276 0.241598 0.638244
3164 4 0.291669 0.23837 0.620022
144 3 0.316765 0.249951 0.619581
3235 2 0.355706 0.233431 0.585435
145 3 0.348567 0.240426 0.625187
3236 4 0.343298 0.23747 0.605625
935 4 0.425238 0.197545 0.603239
934 2 0.450202 0.197828 0.606089
936 4 0.475166 0.198112 0.608939
1259 4 0.495272 0.201793 0.61337
960 4 0.0380309 0.273121 0.645967
958 2 0.0319951 0.260675 0.624289
3435 4 0.0448806 0.293517 0.647522
3433 2 0.0652859 0.303117 0.66399
1257 4 0.0953038 0.257056 0.585767
1239 4 0.0871996 0.314104 0.588579
891 4 0.0850306 0.329961 0.593234
3240 4 0.124353 0.282019 0.667491
1153 2 0.138785 0.262629 0.59385
3092 4 0.185005 0.326343 0.662912
1154 4 0.16163 0.267106 0.606865
1283 4 0.179217 0.274454 0.593335
1282 2 0.203985 0.273989 0.594497
1284 4 0.228753 0.273524 0.59566
1106 4 0.247536 0.273866 0.588447
1105 2 0.273407 0.288851 0.583058
142 3 0.355285 0.275203 0.614709
141 1 0.340607 0.257148 0.627273
143 3 0.341832 0.263658 0.649484
3266 4 0.3733 0.275734 0.604645
3356 4 0.459624 0.284373 0.641435
2627 4 0.441825 0.270824 0.650089
3355 2 0.47749 0.276215 0.631522
3357 4 0.495357 0.268057 0.621609
2721 4 0.0132371 0.380709 0.659112
889 2 0.0651625 0.336593 0.585362
3447 4 0.032993 0.385421 0.651846
3445 2 0.0585959 0.387238 0.65443
3446 4 0.0841988 0.389056 0.657013
3353 4 0.106022 0.396859 0.658451
539 4 0.219467 0.354113 0.623178
538 2 0.225631 0.362557 0.646584
3369 4 0.219152 0.346862 0.603737
3367 2 0.234933 0.366434 0.589926
3114 4 0.323448 0.396862 0.657193
1639 2 0.44073 0.358838 0.60058
1640 4 0.433657 0.357588 0.624685
1137 4 0.236699 0.469861 0.597393
1040 4 0.281965 0.43699 0.646337
1039 2 0.287829 0.450449 0.625265
1041 4 0.293693 0.463908 0.604193
3492 4 0.393801 0.47892 0.612101
3490 2 0.416312 0.486216 0.597979
3491 4 0.438823 0.493511 0.583857
4196 4 0.492532 0.469135 0.656442
3487 2 0.160313 0.0341721 0.746207
3488 4 0.186231 0.0368988 0.743608
3438 4 0.118686 0.0378782 0.74791
3489 4 0.134394 0.0314454 0.748805
1217 4 0.208005 0.0409766 0.749351
1216 2 0.231294 0.0401113 0.741341
1218 4 0.254584 0.0392459 0.733331
2001 4 0.274748 0.0450103 0.742348
1003 2 0.445987 0.0720515 0.680468
1005 4 0.444939 0.0701079 0.705395
3009 4 0.458541 0.0648187 0.7178
3007 2 0.482263 0.0623121 0.716195
1194 4 0.472267 0.0232777 0.74601
3065 4 0.495649 0.00993029 0.699928
3765 4 0.0268264 0.145912 0.745686
3763 2 0.0393349 0.156719 0.724513
1970 4 0.0524263 0.163396 0.684355
3167 4 0.0734991 0.113715 0.745347
3166 2 0.0895006 0.111986 0.726875
3168 4 0.105502 0.110257 0.708403
3002 4 0.149367 0.135179 0.723594
3001 2 0.154348 0.127959 0.701088
3146 4 0.128848 0.147447 0.749462
3003 4 0.159328 0.120739 0.678582
4442 4 0.482067 0.155282 0.733959
4441 2 0.491725 0.155629 0.710835
3764 4 0.0518435 0.167525 0.703341
3351 4 0.0730953 0.238015 0.712187
3349 2 0.0801068 0.226996 0.731243
3350 4 0.0871183 0.215978 0.750299
1969 2 0.0752112 0.171871 0.670562
3382 2 0.139033 0.200447 0.669267
3383 4 0.112348 0.186065 0.67126
895 2 0.218994 0.218353 0.721777
897 4 0.225349 0.203458 0.706391
896 4 0.21264 0.233247 0.737162
1085 4 0.247243 0.21149 0.710782
1084 2 0.271528 0.212889 0.702845
1086 4 0.295813 0.214289 0.694907
2979 4 0.310817 0.212247 0.705943
2977 2 0.335025 0.212865 0.698741
2978 4 0.359232 0.213482 0.691538
3434 4 0.0856912 0.312716 0.680458
3272 4 0.0833958 0.298172 0.695696
3271 2 0.0949801 0.305298 0.718124
3273 4 0.106564 0.312425 0.740553
3239 4 0.0889545 0.252631 0.701141
3238 2 0.106654 0.267325 0.684316
3093 4 0.135791 0.296199 0.680222
3091 2 0.160398 0.311271 0.671567
922 2 0.187663 0.296727 0.748778
923 4 0.208304 0.305316 0.732435
3439 2 0.395802 0.253766 0.732211
3441 4 0.407173 0.255416 0.709647
2628 4 0.408566 0.256323 0.689687
2626 2 0.425195 0.263574 0.669888
1015 2 0.0589568 0.377175 0.738867
1016 4 0.046502 0.39295 0.738479
1017 4 0.0714116 0.361401 0.739255
3374 4 0.0893468 0.361217 0.746646
3352 2 0.11352 0.381688 0.672384
3373 2 0.101828 0.359309 0.725572
3354 4 0.121017 0.366516 0.686317
3375 4 0.114309 0.357401 0.704498
540 4 0.231794 0.371001 0.669991
4214 4 0.253427 0.378908 0.671678
3112 2 0.348425 0.401005 0.665673
4215 4 0.307997 0.397464 0.669942
4213 2 0.280712 0.388186 0.67081
998 4 0.392398 0.403446 0.670847
997 2 0.415703 0.40025 0.668768
3113 4 0.373402 0.405147 0.674153
4361 4 0.406691 0.416044 0.739226
999 4 0.439008 0.397054 0.666689
4494 4 0.156466 0.425281 0.733112
4492 2 0.182444 0.429387 0.738018
4493 4 0.208422 0.433493 0.742923
1096 2 0.256803 0.44892 0.736584
3262 2 0.238558 0.48936 0.746122
1098 4 0.229523 0.439241 0.737817
1097 4 0.284083 0.458599 0.735351
1278 4 0.305115 0.469775 0.733575
1276 2 0.328407 0.467001 0.729496
1240 2 0.360341 0.424082 0.74477
1277 4 0.351699 0.464228 0.725417
1242 4 0.335898 0.425285 0.744472
820 2 0.394333 0.494397 0.712556
821 4 0.3694 0.47741 0.718196
4197 4 0.454594 0.452055 0.692268
4362 4 0.439407 0.449973 0.707082
4360 2 0.423049 0.433008 0.723154
1241 4 0.384785 0.42288 0.745068
4195 2 0.473563 0.460595 0.674355
2062 2 0.0242736 0.00885985 0.760325
2064 4 0.0488923 0.0278321 0.761041
3437 4 0.0658062 0.0221565 0.759789
3436 2 0.0922459 0.0300174 0.753849
3282 4 0.209485 0.0831139 0.80817
3280 2 0.229412 0.0748948 0.806354
3281 4 0.24934 0.0666756 0.804538
4128 4 0.270479 0.0713384 0.80318
1999 2 0.292437 0.0394461 0.756085