LAMMPS data file via write_data, version 29 Aug 2024, timestep = 20000, units = lj

1305 atoms
4 atom types
890 bonds
1 bond types
565 angles
2 angle types

-5.665158 5.665158 xlo xhi
-5.665158 5.665158 ylo yhi
-5.665158 5.665158 zlo zhi
0 0 0 xy xz yz

Masses

1 1
2 1
3 1
4 1

Bond Coeffs # harmonic/omp

1 100 0.5

Angle Coeffs # harmonic/omp

1 100 180
2 100 109.471

Atoms # full

1093 345 2 0 -5.174156948768097 -4.24460346089517 -3.744864885431861 3 1 0
1094 345 4 0 -5.192794224168832 -3.9678908706153577 -3.872649472439945 3 1 0
149 30 3 0 -4.175153079653169 -3.856766607138733 -4.743037998060597 2 1 1
148 30 3 0 -4.109337893802497 -4.163417497807789 -5.525378809413023 2 1 1
146 30 1 0 -3.7961756746135036 -4.03682197121319 -5.087046464641847 2 1 1
1216 386 2 0 -4.6791932614052545 -5.266825132063511 -5.067767944423034 3 1 0
1218 386 4 0 -4.6514688939539575 -4.97225531583517 -5.552266686925589 3 1 0
147 30 3 0 -3.514045173705413 -4.399758772211499 -4.902216862302773 2 1 1
307 83 2 0 -4.849060684222112 -5.282078233478459 -3.911676576147697 0 0 1
1267 403 2 0 -0.005205013647007206 -1.3427646279944545 -1.1286383618834455 1 0 0
990 310 4 0 -3.229727995237638 -5.524596729972793 -4.1376764855327535 1 0 1
300 80 4 0 -5.253820507205277 -1.0395315059939705 -4.97609078803355 2 0 1
30 6 3 0 -5.529535194650668 -1.1353027964176947 -2.39900700162501 1 0 0
179 40 4 0 -2.831639216763222 -5.400408480832711 -3.992883376930073 0 0 0
263 68 4 0 -3.096118716663516 -5.567029360458351 -3.8344435154457734 0 0 0
784 242 2 0 -2.8619486342710934 -5.578391728843754 -4.8597839757445245 0 0 0
292 78 2 0 -5.154914186323307 -5.591756299296988 -2.958936230783575 0 0 0
178 40 2 0 -2.244331640623875 -5.291670682009535 -3.8751101522862488 0 0 0
786 242 4 0 -2.908936618232846 -5.494525673448623 -4.215403083473232 0 0 0
1268 403 4 0 -0.3345496346683028 -1.6602763020201436 -1.2786926831618182 1 0 0
360 100 4 0 -2.4823327551263086 -4.030549753873432 -5.598577038272891 2 1 0
704 215 4 0 -0.3365823170106683 -5.289376425394508 -3.816586442489064 2 1 0
391 111 2 0 -1.907752529693072 -5.1741099118124785 -5.384531410802494 -1 0 1
896 279 4 0 -3.211879982592149 -4.4400658179960475 -5.627511441940271 0 0 1
36 8 1 0 -1.0898567915850652 -1.810972857681075 -0.8625657741618848 1 0 1
703 215 2 0 -0.7209283378884246 -5.246350852519876 -4.233882176059794 2 1 0
802 248 2 0 -0.7679967615725545 -4.8142202714678985 -5.369024892746776 2 1 0
779 240 4 0 -1.0813590592807856 -5.198855663927122 -5.0246759200520845 0 0 0
705 215 4 0 -1.1557821808785746 -5.218592787531745 -4.739348357165441 2 1 0
531 157 4 0 -1.454385113782532 -5.053840464313102 -4.759762689763243 0 0 0
393 111 4 0 -1.412021120730313 -5.010160070240392 -5.104088600612005 -1 0 1
530 157 4 0 -1.6962646860733503 -4.320372658799273 -4.326149827885643 0 0 0
804 248 4 0 -1.0725098181020751 -4.910013275398513 -4.911382016348883 2 1 0
529 157 2 0 -1.6113683559680432 -4.677428172481282 -4.5606160152202495 0 0 0
54 11 3 0 -4.765757328098072 -3.004541086049673 -4.221499840823715 0 0 0
51 11 1 0 -4.778561067876346 -3.155117760509118 -3.7610523313699424 0 0 0
150 30 3 0 -3.5185076543095284 -3.701446797972425 -5.177177573726101 2 1 1
367 103 2 0 -3.485845357924672 -3.0388912596345388 -4.848967002891557 0 0 0
368 103 4 0 -3.2785240152550132 -2.7547443853280487 -4.4707991523403585 0 0 0
369 103 4 0 -3.687186244352785 -3.346186913629354 -5.219611041046215 0 0 0
359 100 4 0 -3.2758509472143302 -3.4868735481359945 -5.463531549135281 2 1 0
358 100 2 0 -2.8144343015336926 -3.795533374441543 -5.544599482111935 2 1 0
296 79 4 0 -1.8182175904340636 -2.3736319949858227 -4.424970344055142 0 0 1
32 7 3 0 -2.100851846670106 -2.6090200976401743 -4.308320833455615 1 0 1
33 7 3 0 -2.178831466281752 -3.396307525410473 -4.461537457700796 1 0 1
295 79 2 0 -1.4625070255999608 -2.0931779546542097 -4.642145789676127 0 0 1
31 7 1 0 -2.0297691303242438 -3.068967249470223 -4.1201079430258485 1 0 1
35 7 3 0 -1.5386473872590347 -3.1412764479953026 -4.015310420442808 1 0 1
297 79 4 0 -1.1340267839131126 -1.8189614126088323 -4.8472597295673365 0 0 1
169 37 2 0 -0.27031947972092407 -1.7907553071472977 -4.883570303265116 2 0 0
233 58 4 0 -5.244134441253278 -0.6719938111759625 -4.065357747944616 -1 -1 0
460 134 2 0 -4.9210080862705174 -0.15436543454699425 -4.527833841043491 2 0 0
39 8 3 0 -1.4378482415078437 -1.7984295068306726 -1.2273727185579517 1 0 1
461 134 4 0 -5.188613176204871 -0.2895985461298851 -4.123300151691629 2 0 0
24 5 3 0 -2.4472521250735535 -1.6399811521589625 -4.90087134288937 1 0 0
23 5 3 0 -1.827544756283058 -1.7213880670209947 -5.434322274082833 1 0 0
1113 351 4 0 -0.22847202842543357 -0.640370935826545 -0.03671106647681022 1 0 0
21 5 1 0 -2.2487737348136547 -1.469301664900267 -5.332144093902835 1 0 0
22 5 3 0 -2.156244353851622 -0.9691433467761463 -5.306425217507094 1 0 0
171 37 4 0 -0.7591884420275656 -1.5479719416500615 -4.855965012167128 2 0 0
1111 351 2 0 -0.6445798273443781 -0.8942672707792569 -0.16024509584511648 1 0 0
1248 396 4 0 -5.665135834275208 -1.9487203706499479 -5.34037037800721 3 1 1
259 67 2 0 -4.785828257459526 -4.740648032604213 -2.585999860852541 0 0 0
261 67 4 0 -4.936607702271833 -4.784637267560002 -3.17253809223549 0 0 0
695 212 4 0 -4.9425352283373485 -5.046407130538976 -3.326621132868913 2 1 0
309 83 4 0 -5.0573568468854795 -4.910760320355169 -3.540362825571228 0 0 1
327 89 4 0 -5.260599072608503 -4.953167866598348 -3.3775616453343233 0 0 0
1077 339 4 0 -5.230740114528625 -4.766106130654853 -3.136818718533699 1 0 0
294 78 4 0 -5.095128645425353 -4.987293853304845 -3.1561347790951313 0 0 0
1095 345 4 0 -5.13338718939189 -4.714156520646308 -3.3797237729579965 3 1 0
264 68 4 0 -3.4098395180205303 -4.474345094242896 -3.7888486060110975 0 0 0
694 212 2 0 -4.249012891893841 -4.885427560481063 -3.339505939334138 2 1 0
696 212 4 0 -3.7492655791645895 -4.720278969358404 -3.268547939228114 2 1 0
930 290 4 0 -4.44832605844506 -5.572429088754012 -2.691203877719978 1 0 0
1112 351 4 0 -1.051647572632918 -1.1305402006386318 -0.27429757648702857 1 0 0
260 67 4 0 -4.691829430804233 -4.6761089442258825 -2.08430599667049 0 0 0
1191 377 4 0 -4.525624157079985 -4.443805783245534 -1.9616883313089426 -2 -1 0
262 68 2 0 -3.232598046748123 -4.999079281197988 -3.828685228111553 0 0 0
180 40 4 0 -1.6983188224624763 -5.1703265609550755 -3.7082860598987897 0 0 0
191 44 4 0 -2.8198099497169387 -5.0956674454114 -2.0826961463352456 0 0 0
190 44 2 0 -3.0860880511741984 -5.538151470037121 -2.295318237157841 0 0 0
1245 395 4 0 -5.027777257012951 -0.46476224887233464 -1.9692133577558817 2 0 0
52 11 3 0 -5.098104145823156 -3.580603068209513 -3.7064259670536948 0 0 0
55 11 3 0 -4.941968835683167 -2.8032816221887384 -3.4794046820288402 0 0 0
53 11 3 0 -4.30119866348717 -3.2764814316902737 -3.6059753523813947 0 0 0
1206 382 4 0 -4.0508962770837496 -2.9763985513813913 -3.665242518339266 3 1 1
1205 382 4 0 -3.0294477106285815 -2.925625342438525 -3.516725769931749 3 1 1
1204 382 2 0 -3.523324728062525 -2.947163742427131 -3.589952126842846 3 1 1
68 14 3 0 -2.7013010291121557 -3.0256437072240407 -3.2958300109365335 1 0 -1
67 14 3 0 -2.5902802155461067 -2.5375474815958685 -2.5919096262147794 1 0 -1
66 14 1 0 -2.3493807208937056 -2.8666901833881884 -2.9327628476466265 1 0 -1
34 7 3 0 -2.2922376566021425 -3.1191777527044535 -3.702576746208643 1 0 1
69 14 3 0 -1.9618102999300322 -2.643074158877422 -3.154110115191114 1 0 -1
70 14 3 0 -2.194337583848878 -3.2470038179455867 -2.6879119671584415 1 0 -1
807 249 4 0 -5.150154733551754 -1.1608031313494642 -2.5478013422850685 4 1 0
805 249 2 0 -4.719846598081767 -1.0218184300564683 -2.5636046656763782 4 1 0
806 249 4 0 -4.1894963805401995 -0.8858078406361223 -2.5663411017373097 4 1 0
38 8 3 0 -1.1913356481659036 -1.466180047906363 -0.5144552864930088 1 0 1
88 18 3 0 -0.441395386440675 -1.3479920881261949 -2.538599239516924 1 0 0
404 115 4 0 -5.646310711352383 -3.707821138604436 -0.4882308569259548 1 0 1
1004 315 4 0 -5.4655872187407475 -4.5389360032246975 -1.0344408684432498 1 0 1
1079 340 4 0 -5.358595407180244 -4.147423635382306 -1.0431270265009616 0 0 1
1078 340 2 0 -4.977978218933783 -4.355917027977888 -1.3566027238763656 0 0 1
579 173 4 0 -4.545676815901877 -4.808120639223889 -1.7957895909459851 3 1 0
577 173 2 0 -4.494426519208049 -5.29812023792457 -1.5684934948376945 3 1 0
1080 340 4 0 -4.613929222392073 -4.534361572765772 -1.699038022196802 0 0 1
1189 377 2 0 -3.946145613751646 -4.3609751941346335 -1.9885549283956139 -2 -1 0
1190 377 4 0 -3.496218103826032 -4.273496787377246 -1.9849734425268002 -2 -1 0
139 28 3 0 -5.223093855196998 -2.154741194387042 -0.23645997470816127 2 0 0
206 49 4 0 -4.84549574885821 -2.0457470346137048 -0.20656191146355507 1 0 1
1027 323 2 0 -1.793766279669606 -2.753458406720255 -0.9441785075292861 1 0 0
1028 323 4 0 -2.2024892411709964 -3.062262608568429 -0.9983593560125295 1 0 0
1029 323 4 0 -1.3531740291523935 -2.444174661133575 -0.8869380844805459 1 0 0
40 8 3 0 -1.0930962640363893 -2.2663811082998957 -0.6568499021315981 1 0 1
576 172 4 0 -4.550658674049916 -0.9088853003864408 -1.8208814898097185 0 0 0
574 172 2 0 -4.4387390342009585 -0.9644048515552877 -1.2990823186538396 0 0 0
205 49 2 0 -4.533891183227957 -1.674222370598736 -0.4506466514706773 1 0 1
207 49 4 0 -4.232609231500977 -1.2948130323187392 -0.6396062240521392 1 0 1
37 8 3 0 -0.6466318475022543 -1.7218319144036558 -1.0578935398671074 1 0 1
575 172 4 0 -4.3091922372889195 -1.0006679342885745 -0.7871046099788357 0 0 0
700 214 2 0 -3.473792042032753 -0.9493974026685406 -0.6571950403352362 1 0 1
701 214 4 0 -3.9532479844434594 -1.1250125845625156 -0.7034347256002746 1 0 1
1172 371 4 0 -2.714639321363033 -0.5740541835677044 -0.9072616720086879 1 0 0
702 214 4 0 -2.983609527538338 -0.7760947740800894 -0.6629736810836651 1 0 1
1171 371 2 0 -2.389357101012553 -0.19190146904145244 -0.9597321715118863 1 0 0
232 58 2 0 -5.635413383346047 -0.5163083292078241 -3.7198468037532164 -1 -1 0
63 13 3 0 -5.624178364641064 -0.419215098948615 -0.0139722812708305 0 0 0
462 134 4 0 -4.6400586316287615 -0.017117351598152197 -4.932433781438384 2 0 0
1255 399 2 0 -5.542980804305848 -5.645511926578964 -4.561434789817117 3 1 0
1217 386 4 0 -4.5713328248954035 -5.590342116667257 -4.590863598543523 3 1 0
392 111 4 0 -2.4753945602142426 -5.401640938176897 -5.635408212908011 -1 0 1
271 71 2 0 -3.6211994050481002 -4.151240124889561 0.544290963422478 1 0 -1
273 71 4 0 -4.1238792528024675 -4.280306405196689 0.5673768500994685 1 0 -1
272 71 4 0 -3.144076297628094 -4.032279751091072 0.5132244149502787 1 0 -1
708 216 4 0 -2.7903078627403457 -4.086949724980581 0.33755296281629565 2 1 0
706 216 2 0 -2.349067985398229 -3.828471010180719 0.3550781696449379 2 1 0
1202 381 4 0 -2.3221211483113384 -5.322982730251594 1.0916820362618394 2 1 0
137 28 3 0 -5.63721209979719 -2.4889360982760778 0.4587145717390424 2 0 0
777 239 4 0 -1.1557849111707421 -5.495376976856201 0.32122164218018323 -1 0 0
714 218 4 0 -3.632421463125673 -2.5961204247896577 0.7262425345705061 2 1 0
712 218 2 0 -3.552202545742449 -2.294401944765227 1.1137325441355825 2 1 0
713 218 4 0 -3.46436817785724 -1.9958084656114945 1.4981337400737438 2 1 0
707 216 4 0 -1.9259610513908676 -3.5696936176673697 0.3860392640049559 2 1 0
926 289 4 0 -5.267311628353504 -0.3165048763808498 0.06417609300234783 2 0 0
925 289 2 0 -4.806993707842178 -0.3190478826794889 0.11267966922296857 2 0 0
927 289 4 0 -4.348442638556573 -0.3173927130397223 0.15936660750421439 2 0 0
663 201 4 0 -3.2601123900808044 -1.6658999959769583 1.5560846704761193 3 1 1
661 201 2 0 -2.8788856703513743 -1.3363928176805588 1.6058537681561402 3 1 1
482 141 4 0 -3.5752026892625897 -0.09811669789764732 1.9811770346407327 0 -1 1
662 201 4 0 -2.519323527145619 -1.0196695869208252 1.653398078623102 3 1 1
481 141 2 0 -3.486050953536099 -0.21485625421058874 1.4971820018665678 0 -1 1
483 141 4 0 -3.39716692420951 -0.3158557690045365 1.0418727397259335 0 -1 1
1038 326 4 0 -2.3831319736136845 -0.9910342189846748 2.0352828940600185 1 0 -1
512 151 4 0 -4.77813938869327 -5.5661206730866235 3.5491589000532358 2 1 0
535 159 2 0 -3.9375289557112376 -5.365346468102728 3.525665899623938 2 1 -1
537 159 4 0 -4.365886727900813 -5.634257831587519 3.4592034960983504 2 1 -1
536 159 4 0 -3.5019402837358 -5.080154008909335 3.5953727676514617 2 1 -1
651 197 4 0 -1.5404974622985623 -5.3271804075790055 2.6494221539810088 2 1 0
1014 318 4 0 -1.3867670758034434 -5.32506521998212 2.990912607673536 3 1 0
1013 318 4 0 -1.2900595953848715 -4.386208490485693 3.6626383622626495 3 1 0
1012 318 2 0 -1.3396130735782936 -4.8179826110911135 3.3654377964574653 3 1 0
586 176 2 0 -0.7548511368148967 -5.484502569495991 2.435439628891068 1 1 0
173 38 4 0 -1.2506953622038708 -5.634258513847963 2.9117024476715194 -1 0 0
588 176 4 0 -1.1088030836315257 -5.322588385670735 2.7390845038272698 1 1 0
1225 389 2 0 -4.980428872124524 -0.744231878493939 3.099125587613459 2 0 1
1227 389 4 0 -5.3141146912127 -0.7407347978020598 3.490145054217244 2 0 1
1226 389 4 0 -4.668310178031634 -0.7451052158780174 2.7273903792540235 2 0 1
602 181 4 0 -4.307280787855216 -0.8899208343288478 2.6611169985439282 1 0 0
897 279 4 0 -2.7136526873324947 -5.425370270846023 5.364150458183426 0 0 0
603 181 4 0 -3.5884770982460634 -0.253393691068724 2.3527340674386608 1 0 0
601 181 2 0 -3.933908697494324 -0.5570881952745523 2.5004686743785793 1 0 0
480 140 4 0 -3.0483395692124007 -1.3654072207841814 3.7027031552820997 3 1 0
92 19 3 0 -2.6830617537003048 -1.2588586174703025 3.7981206670080514 -1 -1 0
93 19 3 0 -1.94579544799503 -1.5448071362389424 3.606669515054497 -1 -1 0
1037 326 4 0 -1.451806083282987 -0.640887218899608 2.4673157697926538 1 0 -1
246 62 4 0 -1.4616345313378893 -0.7152946564173552 2.7639692428251497 3 1 0
244 62 2 0 -1.5068844946357043 -1.099244683451496 3.1358288640868093 3 1 0
1278 406 4 0 -1.1716840136388402 -0.5533528875981384 2.5574115427478006 3 1 0
245 62 4 0 -1.5654793981234008 -1.456666233172645 3.4616706704613893 3 1 0
1036 326 2 0 -1.934758377772749 -0.8267630193144155 2.232729694203403 1 0 -1
1276 406 2 0 -0.7093753887140828 -0.3116429292720717 2.579433227046742 3 1 0
1277 406 4 0 -0.2741361510297571 -0.1052089766659643 2.6128166129319492 3 1 0
220 54 2 0 -2.505884239899966 -5.514516934349374 4.878121082856293 0 0 -1
221 54 4 0 -2.2943072786639793 -5.37270625027913 4.458392300023119 0 0 -1
1154 365 4 0 -2.436573596138038 -5.64623976226829 5.609381035487026 0 0 -1
25 5 3 0 -2.57869603832605 -1.542642036020256 5.632741394954758 1 0 -1
803 248 4 0 -0.5492040526173927 -4.6270181218470645 5.541514468352689 2 1 -1
973 305 2 0 -0.9542339313708732 -5.260784016435428 4.9754080244072565 0 0 0
974 305 4 0 -1.0468253096514264 -4.894997632373633 4.969754027699823 0 0 0
1175 372 4 0 -3.3232358999825866 -0.07925779308895198 2.224859537160806 1 0 0
717 219 4 0 -1.2638274379120231 -3.5219406904906796 4.016407729927481 4 2 -1
715 219 2 0 -1.452950427609931 -3.3354935676492627 4.414777710492277 4 2 -1
95 19 3 0 -2.4852234901725683 -2.052404373720986 3.931307346186234 -1 -1 0
716 219 4 0 -1.6641327786203197 -3.1271490184033786 4.8170376530821315 4 2 -1
1254 398 4 0 -5.638164936865355 -0.8246468796828852 3.7088738823322576 5 1 0
478 140 2 0 -3.4052687998066427 -1.6534853065977044 3.919634262896908 3 1 0
479 140 4 0 -3.7425586580765513 -1.9386451008991168 4.1306632743528855 3 1 0
91 19 1 0 -2.313257469707347 -1.5843066208657026 3.9284206626553306 -1 -1 0
94 19 3 0 -2.1375599129241905 -1.4586694618890643 4.388186001265316 -1 -1 0
900 280 4 0 -0.18098066691544634 -5.498933389300476 1.969038737615067 -1 0 0
895 279 2 0 -2.991129520748795 -4.905740612026425 5.5919902002566 0 0 0
1174 372 2 0 -2.834730296935459 -0.026297768734690585 2.360682684390367 1 0 0
197 46 4 0 -2.7887709009960178 -5.429053036420668 5.638263005243122 -1 0 -1
60 12 3 0 -4.944419352401362 0.5364180794990565 -5.407472749912634 2 0 -1
1222 388 2 0 -4.934995778043681 1.1318584537272418 -4.397882655462781 2 0 0
1057 333 2 0 -5.409435815309401 1.830303563834784 -5.093064215764563 2 0 0
434 125 4 0 -5.641428600846828 1.0214749700608152 -2.737999541460235 2 0 0
1223 388 4 0 -4.319364440695855 1.1564221211470818 -4.206133833394934 2 0 0
809 250 4 0 -4.159331689725055 1.3973844703547318 -3.924658157448888 2 0 0
906 282 4 0 -4.016073260959756 1.0495305881572996 -4.1594331222554946 3 0 1
212 51 4 0 -4.010516847518021 1.3506088150949003 -4.177556740817081 0 -1 0
904 282 2 0 -4.002716137117124 0.7349135499356754 -4.731793114863833 3 0 1
1208 383 4 0 -4.089640064020637 1.0178512099140864 -3.896459428612098 2 0 0
1280 407 4 0 -3.9774060469442363 1.2386499648524492 -3.8656121209661745 2 0 1
1061 334 4 0 -4.332337872740208 1.1785996535068497 -3.961542667370097 2 0 0
905 282 4 0 -4.029782745318989 0.5636466660194612 -5.09888493502516 3 0 1
1207 383 2 0 -3.674497395690059 0.7187863467219788 -3.8259112014608654 2 0 0
211 51 2 0 -3.8086594915217225 1.8846096136368544 -4.5282637746031815 0 -1 0
832 258 2 0 -1.5196840714294026 1.8148021732182267 -3.9828157560868296 0 -1 0
1026 322 4 0 -5.005651307490581 3.3449347262891713 -4.661017002870593 2 0 0
1082 341 4 0 -5.240396388114768 3.496064860767543 -4.695208021554271 2 0 0
1212 384 4 0 -5.276749100883807 3.3019025775040536 -4.852785940056341 2 0 0
875 272 4 0 -4.795525750947792 3.6106932372207936 -4.8376739859145355 0 -1 0
1024 322 2 0 -5.049460046379439 2.937503386179504 -4.037658553768346 2 0 0
1178 373 4 0 -4.937030160962471 3.583136063083016 -4.683675767044818 2 0 1
816 252 4 0 -5.18736344064777 3.4754662585220863 -5.0655844872308915 0 -1 0
814 252 2 0 -5.04177742801565 2.887812394830851 -5.379768669431473 0 -1 0
168 36 4 0 -4.976818909670176 3.339548088465385 -4.929822987204366 -1 -1 0
507 149 4 0 -4.995001444557401 3.6093885609413903 -5.00367638548087 2 0 0
838 260 2 0 -5.509336088147639 1.945638692124124 -3.9583963879461677 2 0 1
166 36 2 0 -4.179462765035462 3.0997602492292327 -4.798271073836577 -1 -1 0
154 32 2 0 -3.9967046534940804 2.2999043200181424 -5.424062633493016 -1 -1 0
156 32 4 0 -3.311437633433422 2.520526293003476 -4.989522372332849 -1 -1 0
525 155 4 0 -3.379378506239065 2.6742641681135506 -4.515303154334133 1 0 0
167 36 4 0 -3.377559735756633 2.996511907163635 -4.773128901459226 -1 -1 0
523 155 2 0 -3.2727597695785473 2.584025454902095 -3.992320552069991 1 0 0
821 254 4 0 -3.1814404129951424 2.828413953423137 -4.9385271380260845 0 -1 0
213 51 4 0 -3.4940492271889747 2.6316660111279457 -4.785055553634072 0 -1 0
755 232 4 0 -3.419391104399343 2.766959460588952 -5.014265301670657 0 -1 0
1274 405 4 0 -3.18643248072619 2.5588108759308454 -4.780714268152736 2 0 1
820 254 2 0 -3.1693015025725852 3.2802874605121914 -4.659863142075283 0 -1 0
754 232 2 0 -3.0198293874771753 3.1118493032556582 -5.639308248509365 0 -1 0
1273 405 2 0 -2.5077773110780095 2.564340738960704 -4.545902853292825 2 0 1
1275 405 4 0 -1.6841998638217963 2.690050294732444 -4.053178251390537 2 0 1
236 59 4 0 -1.8131468487196694 2.9600765202183883 -4.174766054076926 2 0 0
243 61 4 0 -1.6584015998512482 2.8813184224248634 -4.536798940915926 -1 -1 0
1040 327 4 0 -1.3698786942285848 2.8189374839257617 -4.263558820278333 2 0 0
374 105 4 0 -1.5288425640295777 2.5428732067945496 -4.153004818653029 3 1 0
161 34 4 0 -1.7664988042157383 2.7523094923250966 -4.38470210697761 2 0 0
834 258 4 0 -1.7400794196434806 2.5381127011855025 -4.287161590610346 0 -1 0
837 259 4 0 -1.6185574143432682 2.83959851923208 -4.272304608521389 0 -1 0
235 59 2 0 -1.6907493905552924 2.8240894044912572 -4.275495788685694 2 0 0
237 59 4 0 -1.433471338356628 2.526294395448941 -4.418430856871771 2 0 0
241 61 2 0 -1.7361721239285242 3.5027185501039817 -4.788255319592556 -1 -1 0
835 259 2 0 -1.2120377395377036 3.5959083297646615 -3.9117286067232495 0 -1 0
1039 327 2 0 -0.8736664435176626 2.929211723106997 -4.824059799001821 2 0 0
373 105 2 0 -0.7151812446104859 2.6625625242009576 -3.7952124725484264 3 1 0
1241 394 4 0 -0.13262866246540828 3.2730250177065816 -5.457056346408421 2 0 1
1041 327 4 0 -0.3249728294487637 3.1383222997180518 -5.350246789368106 2 0 0
971 304 4 0 -3.170004549030278 5.537344680933186 -3.9781706790660136 1 -1 0
848 263 4 0 -0.24277260802134126 2.931474854883067 -5.421471295500753 0 -1 0
1158 366 4 0 -5.433728512678076 0.8980904519443031 -2.5258990522699687 2 0 0
115 23 3 0 -0.2266047908980937 5.240984823086242 -0.28225939520567067 0 -1 0
928 290 2 0 -3.9833951180759777 5.4887225387134215 -2.6085500344744323 1 -1 0
1043 328 4 0 -5.615629595004033 0.5613637724784235 -2.8674576104344807 2 0 0
188 43 4 0 -5.179578082886672 3.7460633553890545 -4.824335533832234 0 -1 -1
1177 373 2 0 -5.456796900019559 3.913804132422179 -5.175992362285799 2 0 1
505 149 2 0 -4.661740480725431 3.886028235901291 -4.155646799563247 2 0 0
435 125 4 0 -5.357018954912671 0.47332146671786024 -2.7431701533357633 2 0 0
1251 397 4 0 -0.32555224953549633 3.1336574032458824 -5.624202218501567 2 0 1
1256 399 4 0 -4.843430183280496 5.493873602645234 -4.544822756340894 3 0 0
240 60 4 0 -4.520189758970048 5.4582539662486536 -4.651499472837377 0 -1 0
187 43 2 0 -5.041599158030509 4.6342401346315025 -4.766094272640087 0 -1 -1
189 43 4 0 -4.72522093876506 5.255514630239242 -4.606092450340906 0 -1 -1
1288 410 2 0 -0.32262369630794563 4.98975140357485 -5.537650861135975 2 0 1
894 278 4 0 -4.53415048624955 5.2279975825225335 -4.417426992500248 0 -1 0
874 272 2 0 -4.445775824637201 3.942148103589359 -5.274081918735869 0 -1 0
892 278 2 0 -4.4063574163445685 4.795474529570649 -3.9629662170372866 0 -1 0
308 83 4 0 -4.646011418762263 5.599671138005915 -4.3747062062471835 0 -1 1
238 60 2 0 -4.241487897119388 5.019645531665493 -5.067399085129561 0 -1 0
841 261 2 0 -3.4014814480507014 4.254464844065991 -4.922410488156514 0 -1 0
319 87 2 0 -2.895998892920702 5.054955643889558 -4.203442275096072 0 -1 0
842 261 4 0 -3.050210978380453 4.153268769773735 -4.595904976375176 0 -1 0
1020 320 4 0 -3.231787337257821 4.27947565065546 -4.386535555107139 2 0 0
822 254 4 0 -3.0499561888484488 3.8702592281272157 -4.455508200427287 0 -1 0
321 87 4 0 -2.953908599365987 4.481152558073928 -4.289185026049782 0 -1 0
183 41 4 0 -2.673503741000977 4.323113122139743 -4.347555835595964 1 0 0
303 81 4 0 -2.931936448702822 4.114415232357214 -4.349007163814404 0 -1 0
1018 320 2 0 -3.5374949881871727 4.1548593958356435 -3.8874666745351227 2 0 0
823 255 2 0 -3.4699587112518127 4.852992359476234 -1.9587518042572283 1 -1 -1
110 22 3 0 -4.893317979680476 4.53571574528095 -1.499358737846796 1 -1 1
320 87 4 0 -2.8576411887913986 5.590895555131924 -4.075720732920907 0 -1 0
242 61 4 0 -1.781084962673126 4.330996134664176 -5.040934634714957 -1 -1 0
780 240 4 0 -1.675346399443419 4.708146771134727 -5.144590636239857 0 -1 0
857 266 4 0 -1.7171770624878815 4.566983437761378 -5.341793027678723 2 0 1
1153 365 2 0 -2.2170083489816874 5.227624388207309 -5.567675862514479 0 -1 0
301 81 2 0 -2.4878516482684323 4.194714098297414 -4.75195848975232 0 -1 0
797 246 4 0 -2.011336346749227 4.494506420818146 -5.049818876636792 0 -1 0
302 81 4 0 -1.8705008260351024 4.41512447256425 -5.277886951490639 0 -1 0
1165 369 2 0 -1.677261450877924 4.448763428732752 -5.192143760797356 0 -1 0
1167 369 4 0 -1.5695815671119222 4.314939664502527 -5.337670138330246 0 -1 0
1166 369 4 0 -1.845607436065317 4.602167819364768 -4.945949094217803 0 -1 0
1155 365 4 0 -1.898610873118069 4.699087886403985 -5.169513577173682 0 -1 0
1035 325 4 0 -1.5954957659567288 4.504746874811367 -4.9702853233945765 2 0 0
778 240 2 0 -1.2850299071121354 5.516647718858099 -5.055345355419931 0 -1 0
1033 325 2 0 -1.3643416976094773 4.542360456194537 -4.216981212943951 2 0 0
988 310 2 0 -3.831118506637512 5.660711538819715 -4.3197336976362815 1 -1 1
967 303 2 0 -0.3471936979565564 4.568463148272889 -4.3884374850135375 0 -1 0
509 150 4 0 -0.28784097864916447 3.363835759771211 -5.607734000822582 2 0 0
1240 394 2 0 -0.15257646058646657 3.9520461580992485 -5.17073757516203 2 0 1
418 120 2 0 -3.735566442782918 3.4778555475210595 -1.62531090235907 2 0 0
808 250 2 0 -4.5708279843556285 1.8716839608031437 -3.8306805934822794 2 0 0
419 120 4 0 -3.2647117138587847 3.759312733869262 -1.404133748132856 2 0 0
1062 334 4 0 -5.335372886838257 0.590138356764645 -2.9504785648171885 2 0 0
1090 344 2 0 -5.031194424139826 1.6793931918179812 -3.031064776657483 2 0 0
1060 334 2 0 -4.902836472865107 0.9416779198919238 -3.4153403837428318 2 0 0
1279 407 2 0 -3.5515984510844962 1.871421326930781 -3.502787402331092 2 0 1
1209 383 4 0 -3.1628873849458743 0.3229896940479495 -3.622579521415443 2 0 0
465 135 4 0 -3.298392759660634 1.1465500954365844 -2.229696058449398 1 0 0
833 258 4 0 -1.3115478851157807 1.36450297232276 -3.6856260766551747 0 -1 0
519 153 4 0 -2.1086957358863003 0.4433200180604322 -2.527789948553767 1 0 0
560 167 4 0 -1.7430810855881345 0.5807299142331086 -2.3891289092950596 1 0 0
517 153 2 0 -2.309541748042374 0.4783724634390829 -2.069612949310203 1 0 0
559 167 2 0 -1.2381749876393258 0.7244780862339608 -2.450022079782129 1 0 0
561 167 4 0 -0.7751939278020803 0.8625931912335911 -2.50714407484983 1 0 0
1145 362 4 0 -5.163892677413881 2.6186127036635813 -3.238485740996588 2 0 0
1025 322 4 0 -4.953555259406006 2.563591300818363 -3.3859267751669124 2 0 0
488 143 4 0 -5.195065586066527 2.773697460710064 -3.4979337386197074 2 0 0
1091 344 4 0 -4.968641805234197 2.2829601901141325 -3.376518166109542 2 0 0
810 250 4 0 -5.052401518572177 2.2795796781958755 -3.6246706390524515 2 0 0
487 143 2 0 -4.718168591977788 3.5749489179537264 -3.31881651168906 2 0 0
725 222 4 0 -5.03165131635231 2.3948274201811905 -3.1211933562611427 2 0 0
1144 362 2 0 -4.955659807274255 2.849238618136914 -2.609353077500561 2 0 0
593 178 4 0 -5.246585639977003 2.2695491284385065 -3.261943426367053 2 0 0
1181 374 4 0 -4.696743501578386 3.353716453676176 -1.8276069536323183 3 0 0
839 260 4 0 -5.187108986432773 2.4412421194883525 -3.4146193288852658 2 0 1
1180 374 2 0 -5.341341717004478 3.700794281391417 -1.8802387825718143 3 0 0
571 171 2 0 -4.355356857898572 3.854922665881899 -2.3305858969561957 1 0 0
1146 362 4 0 -4.764847432518891 3.0833646354672553 -1.9652169368408887 2 0 0
463 135 2 0 -3.253308282328186 1.829917318701253 -2.4073502570521805 1 0 0
524 155 4 0 -3.2149653890952097 2.498625872923043 -3.0540479453469707 1 0 0
1084 342 2 0 -3.8150165435150543 3.458187940495245 -3.149649088757285 2 0 0
682 208 2 0 -3.7170969178681705 2.8366684584518307 -2.379353214056714 4 1 0
724 222 2 0 -4.183577554367575 2.584056648010252 -3.2230697068720877 2 0 0
1302 414 4 0 -3.0034641383622502 2.466719405950368 -3.026516249374004 2 0 0
1086 342 4 0 -3.1371392896390917 2.799156266814453 -2.8150823628257062 2 0 0
1301 414 4 0 -3.4313849406657018 2.793222652066097 -2.7780096917555492 2 0 0
162 34 4 0 -3.1080195440920817 2.71114748183245 -3.0970890359405043 2 0 0
726 222 4 0 -3.348834399200278 2.6663380231386373 -3.1686645168004968 2 0 0
684 208 4 0 -3.3689070548066162 2.509546428081812 -2.806999133485524 4 1 0
1292 411 4 0 -3.24188137269746 2.890288748630253 -3.0156106325092695 2 0 0
1300 414 2 0 -3.1176649944110157 2.5664310317768564 -2.9743892253225663 2 0 0
1281 407 4 0 -3.468965918965154 2.6107719620857814 -3.004605915200483 2 0 1
464 135 4 0 -3.1829344504113872 2.6133802311014005 -2.6540025064320574 1 0 0
1001 314 4 0 -3.094805417064755 2.4903107810564205 -2.8526693536912995 2 0 0
1291 411 2 0 -2.7056492207448573 3.452396423869164 -2.915372054257196 2 0 0
683 208 4 0 -4.252678676874755 3.1371457445471886 -1.807070366628892 4 1 0
1000 314 2 0 -2.6263239057009833 2.6129142133040517 -2.1142016481863775 2 0 0
160 34 2 0 -2.4375278167197703 2.7531303182155664 -3.6214066167749603 2 0 0
1002 314 4 0 -2.172912101102523 2.6487789547894725 -1.6936750620965482 2 0 0
762 234 4 0 -0.35777236913415145 2.376996163061003 -2.879549988498733 2 0 0
416 119 4 0 -0.014499129720787707 3.0291854792944353 -5.656435072765445 1 0 1
825 255 4 0 -3.621175207328172 4.519507581507071 -1.4281655640594249 1 -1 -1
42 9 3 0 -5.3403774098496894 5.356069210481516 -0.9104306340065547 0 -1 0
108 22 3 0 -4.1515320610255815 4.658343790531221 -1.9320226418158568 1 -1 1
1066 336 2 0 -4.873834828003825 4.576022810094669 -2.9729515385605136 2 0 0
1067 336 4 0 -5.402180575853485 4.85133031241457 -2.6319913870981346 2 0 0
293 78 4 0 -5.094037189697736 5.1165515166107305 -2.847827188809412 0 -1 0
378 106 4 0 -5.189635382514069 5.064330614516118 -2.4463881474748064 2 0 1
1058 333 4 0 -5.06093368993169 2.1950716626145965 -5.589495286337141 2 0 0
489 143 4 0 -4.45257423351098 3.972830725227933 -3.2495958644928256 2 0 0
1049 330 4 0 -4.181667148947899 4.064923555907509 -3.4721702208138656 2 0 0
107 22 3 0 -4.78957639286784 4.952652062350589 -2.083873029635234 1 -1 1
1068 336 4 0 -4.306141423914096 4.123447980236307 -3.1937029719280075 2 0 0
970 304 2 0 -3.3684891631842317 5.433142169232582 -3.3614555145752196 1 -1 0
506 149 4 0 -4.448546028790348 4.079379044515425 -3.515413398392813 2 0 0
824 255 4 0 -3.292015822391703 5.09482403979599 -2.4068608034841223 1 -1 -1
972 304 4 0 -3.468246088755338 5.2915063421990585 -2.7683144889014595 1 -1 0
1050 330 4 0 -3.41876597030384 4.9532955725838566 -2.6713614389908935 2 0 0
1048 330 2 0 -3.823424702149261 4.507043490734562 -3.0454710932201254 2 0 0
1019 320 4 0 -4.056400908650861 4.084361096511737 -3.214707461211079 2 0 0
1085 342 4 0 -4.145824729690981 3.825758524563918 -3.3088697767055804 2 0 0
573 171 4 0 -4.356866776658023 4.16696443152278 -2.9682350036099066 1 0 0
893 278 4 0 -4.290233316645189 4.353225628914151 -3.4374645123762155 0 -1 0
192 44 4 0 -3.4208709831986384 5.328740143498349 -2.479581576560626 0 -1 0
929 290 4 0 -3.5519678987631336 5.09476851841038 -2.4026395092490165 1 -1 0
1121 354 4 0 -3.172326015111687 5.147983938624018 -2.6715435404872094 3 0 0
1120 354 2 0 -2.7415109728672533 4.560951959570442 -2.821022513572717 3 0 0
1293 411 4 0 -2.3231308795330565 3.8652107737641863 -2.9376313276921513 2 0 0
182 41 4 0 -2.3337908425203646 4.017981186922865 -3.221383814015308 1 0 0