LAMMPS data file via write_data, version 29 Aug 2024, timestep = 9000000, units = lj

1305 atoms
4 atom types
890 bonds
1 bond types
565 angles
2 angle types

-5.665158 5.665158 xlo xhi
-5.665158 5.665158 ylo yhi
-5.665158 5.665158 zlo zhi

Masses

1 1
2 1
3 1
4 1

Bond Coeffs # harmonic/omp

1 100 0.5

Angle Coeffs # harmonic/omp

1 100 180
2 100 109.471

Atoms # full

150 30 3 0 -5.052637316982691 -4.537118941442479 -4.769512453033713 0 1 1
146 30 1 0 -5.200082438248429 -4.9348217325484125 -5.063817807551587 0 1 1
147 30 3 0 -5.12928520680298 -4.833434741694659 -5.572995149278083 0 1 1
149 30 3 0 -4.947000427111246 -5.355211133000075 -4.942320989974455 0 1 1
308 83 4 0 -0.6559257159161364 -5.488234907101701 -4.100400583545507 0 0 1
369 103 4 0 -4.878532841395772 -4.434685492127288 -4.4295105878561 0 0 0
367 103 2 0 -5.251771565959306 -4.169610538353587 -4.1857032110333 0 0 0
368 103 4 0 -5.615064883178983 -3.9063352737815498 -3.958138118339403 0 0 0
581 174 4 0 -5.009669409173973 -5.451696763329676 -4.554904779341772 0 1 1
658 200 2 0 -2.0266227914842307 -5.385991336180215 -4.860304316733198 -1 0 1
659 200 4 0 -1.980628755670253 -4.999794854412337 -5.405459995799835 -1 0 1
1298 413 4 0 -3.27838984593468 -4.926559164897375 -4.180834480101392 0 1 1
1297 413 2 0 -2.9871860768744996 -5.2123987922978 -4.187939362674385 0 1 1
1216 386 2 0 -0.5056921216951517 -5.014921105411472 -4.557254159628773 1 1 0
1218 386 4 0 -0.8456851676857051 -4.465487282152007 -4.893200234187816 1 1 0
696 212 4 0 -1.7325692468818472 -3.8125621205727898 -3.9918081249851736 0 1 0
1217 386 4 0 -0.39593479019042327 -5.50317372105839 -4.2408442413825735 1 1 0
873 271 4 0 -1.3256730333197133 -3.6989180702012976 -3.982050906150063 1 1 2
1199 380 4 0 -1.6371472196643295 -3.838234162637521 -4.328258650950718 0 0 0
9 2 3 0 -2.023728206030212 -2.9500773317819733 -0.0658612549960899 0 0 -1
360 100 4 0 -5.290947608676358 -3.201980769377273 -4.995748993384597 0 1 0
358 100 2 0 -5.540941576464503 -3.5732512400710004 -5.226300099534633 0 1 0
334 92 2 0 -1.1839218616202247 -0.17559631534121872 -5.045107735428298 0 0 1
989 310 4 0 -0.4019474876906607 -5.609327118309078 -3.954799747141587 1 0 1
774 238 4 0 -5.424204425446456 -2.0554512365732367 -3.9791079467345485 1 -1 0
132 27 3 0 -4.570708503229224 -1.9711194608533833 -4.929220845001431 0 0 0
203 48 4 0 -3.6782464558264687 -2.0780671282202383 -4.658391405895519 0 1 -1
1015 319 2 0 -2.419622627057409 -2.591646907978365 -5.298387453831413 0 0 0
1017 319 4 0 -2.156418188352886 -3.0058898155545637 -5.229465312967309 0 0 0
1200 380 4 0 -2.1865589229936107 -3.3132882489680293 -4.996454960639619 0 0 0
425 122 4 0 -2.3374541385112835 -3.414924483309911 -5.326197949694244 1 0 0
1016 319 4 0 -2.784103450350318 -2.0433601484271846 -5.4029354891863655 0 0 0
1247 396 4 0 -2.6353836176628094 -1.6722446355885991 -5.2542082018956915 0 1 1
202 48 2 0 -3.289347946441518 -1.929383964141291 -4.936625150741999 0 1 -1
1198 380 2 0 -1.9066401238606268 -3.566684844126622 -4.647154333054927 0 0 0
871 271 2 0 -1.0569119001726188 -3.4028422024859544 -3.9434752048581276 1 1 2
872 271 4 0 -0.6580810661038075 -2.9834766430503747 -3.9083045486623322 1 1 2
698 213 4 0 -0.9444516003822861 -2.1528950259861412 -3.900763963412323 0 1 0
1097 346 4 0 -0.27483748972661515 -3.171276940904721 -3.8484182827480926 0 1 0
131 27 1 0 -4.884482489148832 -1.845544962388981 -5.289065856491973 0 0 0
134 27 3 0 -5.368862142324628 -1.895738513289641 -5.108109261446305 0 0 0
135 27 3 0 -4.795710428262995 -1.3584740734971958 -5.4387795801493715 0 0 0
700 214 2 0 -1.9339921696201658 -0.803878564196715 -0.7948363676229823 0 0 1
1246 396 2 0 -2.3186658294444507 -1.5263227859379958 -4.861041145604991 0 1 1
429 123 4 0 -2.895961768124751 -1.8248968263452496 -5.524198170462875 0 0 0
408 116 4 0 -2.528522916235345 -1.8849214499808011 -5.502495115874908 -1 0 2
204 48 4 0 -2.865317008235222 -1.8301560817792748 -5.225277160006017 0 1 -1
1248 396 4 0 -2.0247340413967447 -1.4037724395507605 -4.456285710601362 0 1 1
1011 317 4 0 -2.156589925469502 -0.8182228637719908 -4.079770071355883 0 0 0
575 172 4 0 -1.577833381388787 -1.276372475565664 -1.2544394730116282 -1 0 0
205 49 2 0 -1.4834620483668977 -1.85640771009994 -0.6532902445667802 0 0 1
522 154 4 0 -0.784872066119517 -1.2804307431279764 -5.5174284800530655 0 0 0
942 294 4 0 -0.524377979730968 -0.4469642548535619 -4.281323134834515 0 0 0
280 74 2 0 -0.6746680656107877 -0.5156979208080742 -4.314112197658298 0 0 0
520 154 2 0 -0.7663092511032359 -1.0824231031526035 -5.054032995615361 0 0 0
1118 353 4 0 -0.7293751019607715 -0.30141053386001365 -4.397036309432816 0 1 0
521 154 4 0 -0.7314464246762687 -0.6165121794445082 -4.411598007726989 0 0 0
335 92 4 0 -0.8849286010917491 -0.4901461644842944 -4.55592430655367 0 0 1
699 213 4 0 -0.8858470235425495 -0.6701792944030313 -4.287177538724832 0 1 0
281 74 4 0 -0.8735717266643376 -0.5143427446411833 -4.017293918250621 0 0 0
225 55 4 0 -0.6675157382982925 -0.5501562279264944 -4.068394205153711 0 0 0
254 65 4 0 -0.5890187233937024 -0.7134665271362122 -4.287439988403414 0 0 0
1010 317 4 0 -0.7262155360538066 -0.4767418032512267 -4.25523378538199 0 0 0
570 170 4 0 -0.9936277331857575 -0.449432244400117 -4.260285660516424 0 0 0
282 74 4 0 -0.5872819464983232 -0.5676696953122154 -4.5848373476456015 0 0 0
1044 328 4 0 -0.7810522964204409 -0.266904806574442 -4.097956485550379 0 0 0
1009 317 2 0 -1.6763067898318829 -0.6703993614500134 -4.127523607477345 0 0 0
697 213 2 0 -0.8739266904590012 -1.4114357292312003 -4.043924152049355 0 1 0
207 49 4 0 -1.608564148861253 -1.539343590519165 -1.0236965137837573 0 0 1
789 243 4 0 -3.936714063900349 -5.277931854986037 -3.1803118848551515 0 1 0
1190 377 4 0 -4.2632299825559965 -3.925141610052787 -2.047235589851753 0 -1 0
1191 377 4 0 -4.320696966172394 -4.9373668325790225 -2.0046909091760408 0 -1 0
1189 377 2 0 -4.303987336340833 -4.4290993414710575 -2.0293611290159563 0 -1 0
1093 345 2 0 -2.1508124963145083 -5.090819504473209 -2.603942457382687 1 1 0
1094 345 4 0 -2.6180289811986484 -5.267905269954366 -2.3524594094735676 1 1 0
325 89 2 0 -1.8869995235855377 -5.49489419509654 -3.529282607857383 0 0 0
259 67 2 0 -1.6425307708407988 -4.1332663081167516 -2.499216507018649 0 0 0
694 212 2 0 -1.6344336334639933 -4.2708345130308345 -3.5324912591438036 0 1 0
1095 345 4 0 -1.6343677195728559 -4.8785160866817865 -2.913782916970042 1 1 0
327 89 4 0 -1.451794242435965 -5.061422061309432 -2.9243320747423565 0 0 0
294 78 4 0 -1.221003238623545 -4.564497327275935 -2.875714197323848 0 0 0
261 67 4 0 -1.4032598804678245 -4.776812016369772 -2.7534790605383783 0 0 0
292 78 2 0 -0.7073320781774155 -4.406444807526355 -2.866599303084773 0 0 0
307 83 2 0 -0.9185223968014876 -5.163748003413251 -3.571316236579361 0 0 1
695 212 4 0 -1.4804761096063939 -4.82165246551119 -3.1734613615506366 0 1 0
1077 339 4 0 -1.2454423372869892 -4.986690151104533 -2.864144974753458 1 0 0
309 83 4 0 -1.2457649326930973 -4.83575351480746 -3.097110619802823 0 0 1
293 78 4 0 -0.2357688585645346 -4.254666242255914 -2.777366969437405 0 0 0
930 290 4 0 -0.4939350954370588 -4.8664657549253 -2.004581842062 1 0 0
1075 339 2 0 -1.1953954600594359 -5.420504544438565 -2.51591406172829 1 0 0
928 290 2 0 -0.08465502208494854 -5.19136817656501 -2.0082787870862586 1 0 0
687 209 4 0 -3.9101025430999634 -2.489390573732545 -1.8883185580619468 0 1 1
3 1 3 0 -4.160957926116185 -3.570555769082743 -1.8782112164590004 0 0 -1
685 209 2 0 -3.825284506547066 -2.1476100800843616 -2.2425998527149003 0 1 1
324 88 4 0 -2.1605384207094267 -2.2070987522022985 -2.027766978553442 1 0 1
322 88 2 0 -2.522682731770094 -1.9206766242542936 -1.867918734810615 1 0 1
5 1 3 0 -3.7599057103864877 -2.8407297564031806 -1.9987620801586217 0 0 -1
258 66 4 0 -1.849344198217926 -2.3963604687952995 -1.841061759419107 0 -1 1
1096 346 2 0 -0.07374366099591721 -2.984479705657392 -3.432575890846328 0 1 0
260 67 4 0 -1.8466685905873197 -3.8147795498528296 -2.2824680042626846 0 0 0
234 58 4 0 -5.628032496460729 -0.13161141259714254 -3.7154674154758704 0 -1 0
686 209 4 0 -3.724404677352562 -1.8026414937653972 -2.6084222791499307 0 1 1
29 6 3 0 -3.572602682890364 -1.4898208789918164 -2.4539378597404746 0 0 0
26 6 1 0 -3.413037725607931 -1.1326693299806518 -2.1025724530795586 0 0 0
30 6 3 0 -3.1779128451089553 -0.7871938969212166 -2.3306570421181205 0 0 0
805 249 2 0 -2.4230925301327413 -0.6723461200726498 -2.4076628749986777 1 1 0
807 249 4 0 -2.8590766251792292 -0.6363140246625294 -2.577995163031115 1 1 0
806 249 4 0 -1.9412991461004947 -0.7222192815739752 -2.2128743854062236 1 1 0
576 172 4 0 -0.8998954563923145 -1.525340550406558 -1.9741192471492528 -1 0 0
224 55 4 0 -0.9650564644648029 -0.908006778401247 -2.5478259065693947 0 0 0
223 55 2 0 -0.9287162806526553 -0.7532910385057169 -3.3221768217456824 0 0 0
701 214 4 0 -1.7373659271472304 -1.2147871924345648 -0.9369232703720561 0 0 1
1004 315 4 0 -5.584556744254547 -5.303409167729104 -1.4094315524882546 1 0 1
1079 340 4 0 -5.299299157101131 -5.173922980880593 -1.1486429816963517 0 0 1
1080 340 4 0 -4.519072637074031 -5.156094436501831 -1.8234404395675115 0 0 1
1078 340 2 0 -4.900285022974697 -5.171299657991615 -1.4938011649590461 0 0 1
579 173 4 0 -4.21570602976653 -5.304150076368326 -1.8904764212230212 1 1 0
577 173 2 0 -3.6992649766193026 -5.398523127398788 -1.9569101875620931 1 1 0
271 71 2 0 -5.622078930069169 -5.220169103534103 -0.0854940187186115 1 0 -1
42 9 3 0 -4.461641468716944 -5.608750443952075 -0.327095259037059 0 0 0
578 173 4 0 -3.207147238059163 -5.481217951509276 -2.019062816561643 1 1 0
545 162 4 0 -0.5696207879788344 -5.263497289699259 -0.72975577495881 0 -1 0
544 162 2 0 -0.9568269288529899 -5.02883404644933 -0.9215036545255109 0 -1 0
546 162 4 0 -1.3559692523347946 -4.800791421476378 -1.1142484763528606 0 -1 0
1143 361 4 0 -4.653266406805394 -2.800213430419146 -0.20406392809618687 0 0 0
1141 361 2 0 -4.497154241025465 -3.000387562202357 -0.6193452968017802 0 0 0
4 1 3 0 -4.0093319978861235 -3.10001291972885 -1.241063501935382 0 0 -1
1142 361 4 0 -4.318411135736579 -3.2142465118277643 -1.051512302913258 0 0 0
1 1 1 0 -3.831698032671213 -3.248187121475891 -1.6791993706695214 0 0 -1
903 281 4 0 -2.575865468190693 -3.0748951378167915 -0.721869599072433 0 0 1
901 281 2 0 -2.8711490639183412 -3.120015642066116 -1.1397689981184074 0 0 1
7 2 3 0 -2.2657718705539076 -3.346656300146278 -0.7088185247461922 0 0 -1
902 281 4 0 -3.152595671772378 -3.169959173652707 -1.5473653429359246 0 0 1
2 1 3 0 -3.4126779316210776 -3.4714597559412286 -1.6027764514370006 0 0 -1
362 101 4 0 -0.32655404260392856 -3.7228619811812385 -0.6498801236081346 0 0 0
361 101 2 0 -0.7971884082402723 -3.554017531256855 -0.7160386006076539 0 0 0
8 2 3 0 -1.779727111435885 -2.7237249162200046 -0.8335738077778897 0 0 -1
256 66 2 0 -1.6394919852483496 -2.5973586281499634 -1.4287205042641762 0 -1 1
257 66 4 0 -1.4491452122880046 -2.7978915902412935 -1.041503107041885 0 -1 1
363 101 4 0 -1.228412222745064 -3.3959823460878322 -0.7810247934987588 0 0 0
10 2 3 0 -1.5206594618006994 -3.4509851996349536 -0.49078401455916076 0 0 -1
6 2 1 0 -1.9057530777376694 -3.1207724361219498 -0.5198771243784859 0 0 -1
206 49 4 0 -1.367270664150746 -2.154686777976021 -0.277173803451674 0 0 1
951 297 4 0 -4.23337637885463 -0.8661919166636367 -1.8683468651175277 1 1 1
27 6 3 0 -3.8175082390370236 -0.9348082129752042 -1.871416718932826 0 0 0
949 297 2 0 -4.372911155416916 -1.1886718495166058 -1.5525534809640096 1 1 1
950 297 4 0 -4.5072775575803705 -1.5258478058578921 -1.2228338514206012 1 1 1
925 289 2 0 -3.840097029846426 -0.08532300868994588 -0.8662362300216015 1 0 0
926 289 4 0 -4.129854257955136 -0.13311299276507846 -0.4596155341602928 1 0 0
63 13 3 0 -4.071307725333293 -0.15495313806444808 -0.05034082165621031 -1 0 0
323 88 4 0 -2.8746362351540027 -1.6365508784104914 -1.7142915127168772 1 0 1
28 6 3 0 -3.1245838069916196 -1.3319552572672664 -1.7762327156518767 0 0 0
927 289 4 0 -3.544414803229829 -0.03115437565305385 -1.2657154209481902 1 0 0
574 172 2 0 -1.2354363975323712 -1.3957503323638432 -1.621781463378592 -1 0 0
702 214 4 0 -2.148574671267702 -0.37183012909387875 -0.6310111042345087 0 0 1
437 126 4 0 -1.8690646762541332 -0.015151759188655644 -2.595649533209658 0 0 0
708 216 4 0 -5.242330743021739 -4.525080058241634 0.29145831833059394 0 1 0
706 216 2 0 -5.114727513670154 -4.499315733873619 0.7663715122329267 0 1 0
707 216 4 0 -4.992269995327984 -4.472949231264832 1.2302093824011364 0 1 0
45 9 3 0 -4.190404352790347 -5.5024019242659525 0.43064175065090293 0 0 0
1147 363 2 0 -0.34877015593296334 -4.279684461633128 2.0255834338575918 1 0 0
1072 338 2 0 -0.0355158155178907 -5.160932664192183 1.4846748995286687 1 1 0
583 175 2 0 -2.000061798457827 -0.21550134598822543 5.504439728110027 0 0 1
1073 338 4 0 -0.24153716230832226 -5.5884594895450785 1.4389278158777457 1 1 0
1228 390 2 0 -4.808289519816874 -2.277809928749282 0.27053676381753894 0 1 0
1230 390 4 0 -5.1065788929670815 -1.9321496173641508 0.4335882926055666 0 1 0
1229 390 4 0 -4.4655476301399775 -2.6106763494321528 0.118646665508258 0 1 0
846 262 4 0 -5.434292182073219 -1.8457607958876976 0.3985992635617881 0 -2 0
765 235 4 0 -0.16113185664349253 -4.169010323598034 0.4205832612830318 1 -1 0
140 28 3 0 -0.829234657051067 -2.6568580420018453 0.6138320319015114 1 0 0
136 28 1 0 -1.289318723762934 -2.668651279183302 0.4297936377355983 1 0 0
137 28 3 0 -1.6078619546219304 -2.586068670784268 0.7842857530219576 1 0 0
405 115 4 0 -0.44591134164101104 -2.7558984197170533 0.609201266344162 0 0 1
138 28 3 0 -1.3715718218810131 -3.129636750938363 0.22908681557279886 1 0 0
403 115 2 0 -0.14119885258240197 -2.813812734772809 0.2086664725521749 0 0 1
139 28 3 0 -1.3366921250834867 -2.3279365736263586 0.09601039916941252 1 0 0
878 273 4 0 -5.2535298293934485 -1.5627918729658519 0.4857219160905383 0 0 0
672 204 4 0 -4.647654576532546 -0.22673294316720294 1.7665474867179956 1 0 1
670 204 2 0 -4.414842525098152 -0.466805442468735 1.386285864995154 1 0 1
877 273 2 0 -4.885109829951181 -1.2427025860657672 0.5160555347207056 0 0 0
64 13 3 0 -3.9473382377582875 -0.5176883973432878 0.7106233071054155 -1 0 0
671 204 4 0 -4.19198436394202 -0.6834505041557468 1.0160426662788153 1 0 1
61 13 1 0 -4.083852352889471 -0.6044871002181252 0.22126736599456287 -1 0 0
879 273 4 0 -4.503076990733496 -0.8803743507279227 0.5445646313647325 0 0 0
151 31 2 0 -5.411872187298656 -0.2086454053510608 1.8252840628459175 1 0 0
62 13 3 0 -4.540547610555935 -0.7876774547234224 0.19562906072421063 -1 0 0
152 31 4 0 -4.975305141483204 -0.07402048041138183 1.604795968684393 1 0 0
407 116 4 0 -1.940174123602233 -1.7622979590541656 4.9094726029411735 -1 0 1
272 71 4 0 -5.340951121550688 -4.814688301128385 0.04499678786424824 1 0 -1
512 151 4 0 -4.265630349974601 -4.715827703761302 3.407450452495234 0 1 0
511 151 2 0 -4.3215796903265815 -5.228486699571851 3.447761002859171 0 1 0
537 159 4 0 -4.171888571151916 -4.347821148334108 3.370969436830616 0 1 -1
535 159 2 0 -4.097923313599126 -3.84668620474746 3.4141352779288567 0 1 -1
1149 363 4 0 -0.7736114660629241 -4.156607576252719 2.29768609271141 1 0 0
536 159 4 0 -4.024021084602621 -3.3550520209932584 3.4572188195120903 0 1 -1
1124 355 4 0 -4.124310615559587 -2.0579487461606156 3.194834152262356 0 1 -1
12 3 3 0 -5.270895234509811 -1.8910447139009496 3.344916405737398 0 0 -1
1123 355 2 0 -3.786277832227115 -2.375745944468231 3.0175416100181778 0 1 -1
1125 355 4 0 -3.4624327463349096 -2.6796882378666136 2.8331204847214364 0 1 -1
14 3 3 0 -4.689931370726202 -1.8567705880381684 2.7561034563610884 0 0 -1
15 3 3 0 -5.304740777990187 -1.2471086372585092 2.773962595026531 0 0 -1
13 3 3 0 -4.692313249415243 -1.3088254768634873 3.3814602128475206 0 0 -1
1253 398 4 0 -4.572145877513369 -0.9351067174847653 3.468497609357689 2 1 0
11 3 1 0 -4.980179225814523 -1.5834035223411733 3.0694065093207765 0 0 -1
1252 398 2 0 -4.529855015400086 -0.48104859304695224 3.250534818291522 2 1 0
1254 398 4 0 -4.489474440666743 -0.007373646124688564 3.03343854901962 2 1 0
981 307 4 0 -5.365492842837516 -1.0913190854208228 3.1069232594493084 1 0 -1
601 181 2 0 -2.6615510255736843 -0.42856186373202787 2.099509404729639 0 0 0
1225 389 2 0 -2.220991918737685 -1.4515617776856666 2.7408100162302502 1 0 1
1227 389 4 0 -2.0193729029063463 -1.647240194960271 3.1858423504498807 1 0 1
1226 389 4 0 -2.4130494388336277 -1.2730203783699943 2.3303872975483997 1 0 1
602 181 4 0 -2.508870488632057 -0.8540138225277137 2.344484513453413 0 0 0
450 130 4 0 -1.283814057169074 -3.665408099585244 4.872514852522774 0 0 -1
618 186 4 0 -1.528161929687309 -5.587596649864393 4.89497284812126 0 1 0
1164 368 4 0 -3.704845119023536 -2.732151549314941 5.463557795210849 0 1 0
1162 368 2 0 -4.174309769927811 -2.622717192225766 5.518898105807872 0 1 0
426 122 4 0 -2.4669554550478123 -3.7595376057246837 5.036182668617271 1 0 -1
424 122 2 0 -2.3981521344153145 -3.585244550415512 5.554453634134564 1 0 -1
448 130 2 0 -0.8835049602771912 -3.5604952158616956 5.1177384111721755 0 0 -1
449 130 4 0 -0.4624924445778882 -3.4484604965039583 5.395122143969019 0 0 -1
470 137 4 0 -5.426856929476746 -1.7939572464342697 4.967099151304009 0 1 -1
427 123 2 0 -3.085666078530514 -1.3882825135628711 5.584034777839103 0 0 -1
585 175 4 0 -2.321362662413908 -0.6446947382455732 5.192334561320483 0 0 1
428 123 4 0 -3.2575370462787547 -0.9042989726404566 5.3667198078962395 0 0 -1
406 116 2 0 -2.2235917604864044 -1.828111243587604 5.345980401930135 -1 0 1
65 13 3 0 -3.7759113364020935 -0.9404857433189466 0.04181231824565658 -1 0 0
1163 368 4 0 -4.662654556273041 -2.5137228617284717 5.565864629186248 0 1 0
133 27 3 0 -4.833559950256453 -2.156556640187931 5.637784857625357 0 0 -1
564 168 4 0 -4.546576520671 1.0029159234634157 -4.413032369722952 0 0 0
562 168 2 0 -4.422801923312791 1.3714789560704685 -4.71215973344727 0 0 0
420 120 4 0 -0.03709457293270047 3.2596652607865253 -1.328338951058115 0 0 0
563 168 4 0 -4.225398023528875 1.8104284463427478 -5.06323476750943 0 0 0
556 166 2 0 -2.9500553227327395 1.0648779420317034 -5.270564352240683 0 0 0
557 166 4 0 -2.729365103550028 0.9078924558730203 -4.578706818217242 0 0 0
528 156 4 0 -2.242610863817533 1.2388310216952085 -4.446046718397346 0 0 0
539 160 4 0 -2.406148295445919 0.98619502980925 -4.622244214087553 0 0 0
492 144 4 0 -2.60517825430864 1.0694270064804061 -4.304627937096301 0 0 0
1071 337 4 0 -2.500936786086702 1.2638879252122623 -4.43594886742233 1 0 0
452 131 4 0 -2.352542478999605 1.009347884863352 -4.348384222978766 0 0 0
490 144 2 0 -3.0648188420946223 0.810797138716398 -4.3837151784613875 0 0 0
491 144 4 0 -3.5263310345752443 0.5523263871066794 -4.378254027679012 0 0 0
538 160 2 0 -2.145858216474181 0.6722733517582465 -5.046286829360637 0 0 0
451 131 2 0 -2.163755928437767 1.041382016962098 -3.8757022734873696 0 0 0
442 128 2 0 -3.7669808467676744 1.6547651031226547 -5.562473078992876 0 0 0
553 165 2 0 -0.951431298174923 1.0613875228597562 -5.25923850857735 0 0 0
554 165 4 0 -0.42556812653039905 1.5922055460566107 -4.670261852234163 0 0 0
984 308 4 0 -0.44189703908099104 1.3064216736252487 -4.907896124950965 0 0 1
1117 353 2 0 -0.4698419774293605 0.4350542034191329 -4.47479057047742 0 1 0
1139 360 4 0 -0.45997589193306776 1.3506143774984445 -4.591806996191647 0 0 0
388 110 2 0 -0.2213010500382516 1.462152789668845 -4.848580394359209 0 0 1
1138 360 2 0 -1.0389495694344522 1.398370732656973 -4.16446555061021 0 0 0
389 110 4 0 -0.5499525827053587 1.505572579864651 -4.8731629858048775 0 0 1
752 231 4 0 -0.23146775513914158 1.5640628254613236 -4.588953208580256 0 0 0
840 260 4 0 -0.22373609511049425 1.5489636190628198 -4.770324765445034 0 0 1
1119 353 4 0 -0.27721214866129945 1.3135807994441984 -4.603895209592352 0 1 0
885 275 4 0 -0.2377321585594305 1.5746170622559026 -4.968047692424552 0 0 1
540 160 4 0 -1.8133545943020852 0.37407785501074203 -5.526664477694394 0 0 0
1059 333 4 0 -0.19620445893393876 1.3297979180785269 -4.994001539451992 0 0 0
106 22 1 0 -1.7751623302329016 4.591432988459452 -1.5017365526874 1 -1 1
336 92 4 0 -1.4184875933617658 0.21954414444001075 -5.546718056002823 0 0 1
568 170 2 0 -1.4900365745874342 0.2826368472122925 -3.8717328086756684 0 0 0
751 231 2 0 -0.07431463487418345 1.0979584469645607 -3.87774988951223 0 0 0
486 142 4 0 -4.3658779321968435 1.9016292567801272 -5.298831843799491 0 0 0
444 128 4 0 -4.149172953577868 2.1361564872486976 -5.0994253367314215 0 0 0
1030 324 2 0 -4.6644690885831475 2.511430633714558 -4.956457169599088 1 0 0
1032 324 4 0 -4.977271685606057 3.253743332619984 -4.534495682632656 1 0 0
1031 324 4 0 -4.414356580244949 2.1339480375731776 -5.173827571534881 1 0 0
1021 321 2 0 -4.257857687923469 3.0144122132602993 -4.114721721909214 0 0 0
727 223 2 0 -5.087876761383297 3.176243145879093 -4.426988694156849 0 0 1
688 210 2 0 -5.30679397887381 3.2697593496551787 -5.469749196446371 0 0 1
497 146 4 0 -4.173105547361086 2.1748332604484903 -5.347708262061735 0 0 1
567 169 4 0 -4.092010985054108 1.8860180564716034 -5.2678929985196215 0 0 0
690 210 4 0 -5.166124888292138 3.4228463268904776 -4.631922036423176 0 0 1
830 257 4 0 -5.0778546423259385 3.4391448559170126 -4.456403553659506 1 0 0
728 223 4 0 -4.795076498946751 3.3259067360652144 -4.355967675864827 0 0 1
1022 321 4 0 -5.001406684443515 3.199347910737985 -4.3058352297321045 0 0 0
729 223 4 0 -5.307591717349133 3.2035313885317476 -4.519916605788847 0 0 1
914 285 4 0 -5.252571622027765 3.471729577211766 -4.348494919449018 1 -1 1
467 136 4 0 -4.957801596513333 3.6102050423898633 -4.35724608560781 0 0 0
1047 329 4 0 -4.92759857594819 3.4934103496665205 -4.596912557808415 0 1 0
526 156 2 0 -1.9059094313341198 1.727737655917909 -4.821752845530494 0 0 0
1069 337 2 0 -2.7509308434858055 1.7739231801764008 -4.283860493910357 1 0 0
565 169 2 0 -3.7687943340397805 2.2825133833179247 -4.760864260607266 0 0 0
541 161 2 0 -2.4319565472858855 2.8994942898649065 -4.695611811712961 0 0 0
566 169 4 0 -3.389085775521539 2.640654337928204 -4.22269638681019 0 0 0
543 161 4 0 -3.2361107979771995 3.0148627135694053 -4.330489377906818 0 0 0
457 133 2 0 -3.1499456698350308 2.756426932895551 -4.164528768643424 0 0 0
371 104 4 0 -3.2097954666030057 3.113067012982297 -3.9456372337452494 0 -1 1
1070 337 4 0 -3.2252710415812618 2.5787687902163237 -4.092893321400392 1 0 0
458 133 4 0 -3.4067251682311346 2.883330383270468 -4.142479003347215 0 0 0
1023 321 4 0 -3.2278563953022057 2.7729699308013545 -4.304188967059203 0 0 0
423 121 4 0 -3.060390451351641 2.898691384285585 -4.16677579709314 0 0 0
1284 408 4 0 -3.37065004546097 2.640887360004999 -3.9386370586636446 1 0 1
370 104 2 0 -3.274120328986314 3.500463622658668 -4.78474983829986 0 -1 1
722 221 4 0 -3.1694753287044795 2.834678631559069 -3.9043881007323478 1 -1 0
459 133 4 0 -3.001534798404377 2.652474079198634 -4.19394143654526 0 0 0
542 161 4 0 -1.5231905996811668 2.782716714965242 -5.071905368064132 0 0 0
401 114 4 0 -1.3760513507172174 2.43620538414423 -5.312339547195404 0 0 1
1083 341 4 0 -1.2951377508460122 2.5755516632462085 -5.085870121956531 0 0 0
943 295 2 0 -1.7674646816097104 3.3446886580373394 -5.38443396847116 0 -1 1
982 308 2 0 -0.9189158601781388 2.0081253220202555 -5.204648565451785 0 0 1
983 308 4 0 -1.2540421544348552 2.6925080803343198 -5.327740918972073 0 0 1
527 156 4 0 -1.5487313343672497 2.3341292899185997 -5.17663686645033 0 0 0
1184 375 4 0 -1.5288126198966117 2.620286687658442 -5.326919039624736 1 0 1
1134 358 4 0 -1.4909215861359404 2.580875174032398 -4.917295695419017 0 0 0
944 295 4 0 -1.718507473549212 2.551569704615231 -5.0640937039054075 0 -1 1
1081 341 2 0 -0.822847855986031 3.1559329805868277 -5.001335420544607 0 0 0
1132 358 2 0 -1.3868087422280833 2.419528546739269 -4.133820492610997 0 0 0
838 260 2 0 -0.16650227288659927 2.1546446167325435 -4.00151357567824 0 0 1
1024 322 2 0 -0.3017417621717115 3.243898076907392 -4.012007669536449 0 0 0
1026 322 4 0 -0.4006149000672146 4.149073721531695 -4.519748931962462 0 0 0
816 252 4 0 -0.2851143004698881 3.780889549479719 -4.753184063384465 0 -1 0
168 36 4 0 -0.1910602115450277 3.8602619503005053 -4.507833982819757 -1 -1 0
1178 373 4 0 -0.5882114205151681 4.0448749354725155 -4.634956641660901 0 0 1
1172 371 4 0 -2.0656978553303533 0.0069176550278130106 -0.6484118167995472 0 0 0
1045 329 2 0 -4.2782142709967514 3.7707685357533736 -4.936130283087693 0 1 0
580 174 2 0 -4.71750475991817 5.551944421620715 -4.272172568919274 0 0 1
613 185 2 0 -4.020600787844187 4.6541603215688445 -4.479822282580038 0 0 1
466 136 2 0 -4.739340039584902 4.11579164470001 -4.0823643081217575 0 0 0
290 77 4 0 -5.513104408303955 5.3733606775637845 -5.402570501361934 0 -1 1
582 174 4 0 -4.35942109395009 5.216644696152039 -3.8992916901928925 0 0 1
614 185 4 0 -4.437803248726506 4.902459974122986 -4.028161760089102 0 0 1
1046 329 4 0 -3.7032182586216704 4.201825357811775 -5.27047926480957 0 1 0
473 138 4 0 -3.515073940562189 4.167276334400253 -5.557130958314317 0 0 0
615 185 4 0 -3.590748855709381 4.29020817784368 -5.017792230989227 0 0 1
645 195 4 0 -3.843598772113807 4.353531118888632 -5.1429260520493125 0 0 1
454 132 2 0 -2.599794320668177 4.37710718162007 -5.490918104174212 0 0 0
660 200 4 0 -2.253089781338019 5.524028380047385 -4.42269938772421 -1 -1 1
365 102 4 0 -2.1056892831930303 5.224382605403394 -4.424238211123786 0 -1 1
1296 412 4 0 -2.4308965011773997 5.169158780022867 -4.250829473467122 0 0 1
383 108 4 0 -2.172190601856946 5.1662355195137355 -4.074220923326498 0 -1 1
474 138 4 0 -3.6238545827287303 4.517718812520025 -5.170843907371161 0 0 0
472 138 2 0 -3.598789126397906 4.363226653127261 -5.343813991011409 0 0 0
456 132 4 0 -3.3176012373678616 4.425813335197907 -5.200697791807764 0 0 0
288 76 4 0 -3.5068036616392053 4.552293459780472 -5.422078978551661 0 -1 1
372 104 4 0 -3.4779936579645825 4.162461191263257 -5.245031723183396 0 -1 1
286 76 2 0 -3.0692571503422643 4.895862927240444 -4.847516051858424 0 -1 1
1257 399 4 0 -2.0107084183269555 5.382881607718298 -4.1981262311296765 1 0 0
287 76 4 0 -2.4116000831371265 5.313826039632609 -4.461103206538798 0 -1 1
1294 412 2 0 -2.332627738169409 5.300834606878104 -4.219606613066309 0 0 1
1295 412 4 0 -2.1390624746188083 5.586655714204591 -4.212313445629883 0 0 1
326 89 4 0 -2.25212826374579 5.409776957835488 -4.096067938913778 0 -1 0
364 102 2 0 -1.8919116638054723 4.92092766880367 -5.109164444748307 0 -1 1
1299 413 4 0 -2.409470933681993 5.572469259437659 -4.249226365428208 0 0 1
894 278 4 0 -0.4976297035973393 5.418278968655651 -4.003523355317966 0 -1 0
1082 341 4 0 -0.5808107657317753 3.8268421528453676 -4.811490716917874 0 0 0
1212 384 4 0 -0.6308151717223555 3.923750213189733 -4.474936511452496 0 0 0
507 149 4 0 -0.3145978937940241 4.047899753018698 -4.737865845917718 0 0 0
477 139 4 0 -1.55460434348126 0.6234931348349738 -5.397862423146844 0 0 0
875 272 4 0 -0.448806548353484 3.8234039244961107 -4.561388017589131 0 -1 0
1255 399 2 0 -1.2328868315690167 5.432716929555822 -4.242898409141227 1 0 0
189 43 4 0 -0.6298422538480495 5.552478985057164 -4.211921094493688 0 -1 -1
188 43 4 0 -0.4108264005823115 3.9167024267446435 -4.361645933846557 0 -1 -1
187 43 2 0 -0.5813681189503755 4.801359734401795 -4.335416999368643 0 -1 -1
1177 373 2 0 -1.00410442491662 4.170986823421644 -5.154222703545796 0 0 1
1210 384 2 0 -1.06840916995427 3.9048708593916683 -4.063384467302674 0 0 0
366 102 4 0 -1.7079702136360286 4.568004861226132 -5.652862266446975 0 -1 1
1256 399 4 0 -0.34110420316765666 5.511161010507193 -4.271957235255969 1 0 0
108 22 3 0 -1.4787759138872794 4.261040213935663 -1.7118559969648113 1 -1 1
1245 395 4 0 -0.15860915047398433 0.9089470165857482 -1.4435130079641854 0 0 0
233 58 4 0 -5.0778786803074905 0.31903856646892453 -3.1365915609696646 0 -1 0
232 58 2 0 -5.347903614710956 0.09981653781769853 -3.4241990815931245 0 -1 0
560 167 4 0 -3.8874446292102123 1.0107287783956773 -2.378986514293932 0 0 0
519 153 4 0 -4.059327179758646 0.8794260861964043 -2.0536333375456284 0 0 0
561 167 4 0 -3.26278645907624 1.6553084392503574 -2.828633915857322 0 0 0
559 167 2 0 -3.5833130635482697 1.3099144990739593 -2.595471391462548 0 0 0
935 292 4 0 -2.79888263677484 1.276988450037091 -2.6874347571400166 1 0 0
934 292 2 0 -2.418571909108365 1.2556896121786079 -2.9523625861472937 1 0 0
869 270 4 0 -2.421006959773711 1.3171474869048279 -1.9584017805489933 0 -1 -1
110 22 3 0 -1.5157646542206344 4.840308541567412 -1.1239341780083203 1 -1 1
1042 328 2 0 -0.3496096491895036 0.15677984002567832 -3.6245727769279674 0 0 0
328 90 2 0 -0.7582614624298858 3.8904017736921945 -1.6614110176676367 -1 0 1
436 126 2 0 -1.907006271758114 0.36984605053571085 -2.966007612541424 0 0 0
936 292 4 0 -1.6780665326058442 1.2449695606625975 -3.4110679795258867 1 0 0
438 126 4 0 -1.9106399389022868 0.8206030381509885 -3.3712759302360107 0 0 0
453 131 4 0 -1.7946275109092893 1.0045890446281547 -3.22883679548254 0 0 0
1140 360 4 0 -1.519617464072871 1.239277686083793 -3.618993971414594 0 0 0
781 241 2 0 -0.8526674408231204 0.7672815878579374 -3.0660818194807336 0 -1 0
783 241 4 0 -1.5811807419292603 0.8861524709761337 -3.3471025137681845 0 -1 0
569 170 4 0 -1.65022956280353 0.840485639003194 -3.6186747919222073 0 0 0
431 124 4 0 -1.8761580835852154 1.1266878146964503 -3.507581043835528 0 0 0
430 124 2 0 -1.625670579996635 1.6889387145914114 -3.324067828096706 0 0 0
107 22 3 0 -2.168067976567577 4.368373611790089 -1.3251698294631356 1 -1 1
378 106 4 0 -3.084878979863721 4.642424468364785 -1.508191950207471 0 0 1
376 106 2 0 -3.072929839158049 4.287859173478338 -1.844233354857756 0 0 1
1283 408 4 0 -3.767288008721236 2.5242536049809994 -2.678066173816074 1 0 1
1282 408 2 0 -3.5304080775412086 2.623296022928837 -3.278914932074562 1 0 1
721 221 2 0 -2.394518773254551 2.5018411449853364 -3.699072989050881 1 -1 0
421 121 2 0 -3.203604161051573 3.53071299252345 -3.7054184702885276 0 0 0
1100 347 4 0 -2.1654217013290262 2.446793602125517 -2.1170038696949347 0 -1 0