LAMMPS data file via write_data, version 19 Nov 2024, timestep = 100000, units = lj

679 atoms
4 atom types
486 bonds
1 bond types
443 angles
2 angle types

-4.496439 4.496439 xlo xhi
-4.496439 4.496439 ylo yhi
-4.496439 4.496439 zlo zhi

Masses

1 1
2 1
3 0.1
4 0.1

Bond Coeffs # harmonic/omp

1 100 0.45

Angle Coeffs # harmonic/omp

1 100 180
2 100 109.471

Atoms # full

449 117 2 0 -4.292055228393689 -4.106203638470636 -3.431425485806346 0 1 1
450 117 4 0 -4.488056599032059 -3.796345475752318 -3.1673943231942854 0 1 1
451 117 4 0 -4.079053412917042 -4.423027825532811 -3.712733656084618 0 1 1
430 110 4 0 -1.7403627005890958 -4.0114971763270155 -4.0100434703295695 0 1 1
20 4 3 0 -2.054553176259777 -4.286885109936981 -3.888468007762043 0 0 0
428 110 2 0 -1.4616497934677084 -3.747063497419626 -4.2576931666566535 0 1 1
189 38 3 0 -0.44336813171800327 -3.5522387483752444 -3.9237418032639306 0 0 1
188 38 3 0 -0.6515654502025183 -3.0218553879770806 -4.38091979789108 0 0 1
186 38 1 0 -0.34888344795698845 -3.337225162756019 -4.315404011559191 0 0 1
627 176 4 0 -0.38779336319953067 -3.8015563236897747 -3.6216243623903903 0 1 1
262 54 4 0 -0.3276100998610082 -0.14444264688498706 -0.9663614046379075 0 0 0
267 56 4 0 -0.4785465861756772 -1.7903285652542364 -4.34506871812907 0 0 0
266 56 2 0 -0.490035198774624 -2.2571506582435967 -4.475993192528632 0 0 0
407 103 2 0 -2.0365950599514857 -4.467824838744926 -2.356619868288051 0 1 0
40 8 3 0 -0.6011390420195158 -1.4060394214729535 -4.339835405703989 0 0 1
282 61 4 0 -3.9235959386540675 -1.060589013320719 -4.229114581827405 0 0 0
144 29 3 0 -4.152676336655289 -1.3970449571621495 -4.147371871497772 1 0 0
281 61 2 0 -3.6691187752104075 -0.699881439361561 -4.21023051842669 0 0 0
283 61 4 0 -3.394709979375934 -0.30255380292881384 -4.17900464262252 0 0 0
261 54 4 0 -1.0172744379859688 -0.1705625433779728 -0.37876854439300534 0 0 0
350 84 2 0 -1.7294903831124764 -0.5105181521757535 -4.494417306341268 0 0 1
37 8 3 0 -1.1488482255048356 -0.9512556320028885 -4.291546793687407 0 0 1
39 8 3 0 -0.559483440677963 -0.8077638890218445 -3.9325090050084706 0 0 1
36 8 1 0 -0.7220685773185896 -0.9753403163418838 -4.304203443464493 0 0 1
352 84 4 0 -1.5263359497467064 -0.8030483907982644 -4.20751341615626 0 0 1
408 103 4 0 -1.9337467306090352 -4.179003316501685 -2.0264976165384807 0 1 0
88 18 3 0 -1.8492035529795896 -3.1081141479305754 -1.8091956790013606 0 1 0
90 18 3 0 -1.205608027676313 -3.4412479690072804 -1.9891028994329762 0 1 0
260 54 2 0 -0.674089180927357 -0.1594334536883575 -0.676899609636872 0 0 0
7 2 3 0 -3.141217562456437 -0.1242155641048981 -4.417933646535903 0 0 0
265 55 4 0 -4.106958440758226 -2.89874852054121 -1.7601532706386416 0 0 0
263 55 2 0 -4.346753382721904 -2.8493013163616334 -2.1227631785080208 0 0 0
295 65 4 0 -3.233752220009082 -2.5334315435929002 -2.9760354364685475 0 0 1
293 65 2 0 -3.060270218609739 -2.166193132940842 -2.763507800912853 0 0 1
294 65 4 0 -2.894699724433448 -1.8009244001949085 -2.564888893840047 0 0 1
270 57 4 0 -1.960090651095644 -2.7911160894474745 -1.5628236358176628 0 0 0
86 18 1 0 -1.3869013246058643 -3.046481280330942 -1.930585954395203 0 1 0
89 18 3 0 -1.3634096533106934 -2.7968192143071886 -2.3415765205815267 0 1 0
258 53 4 0 -2.60559998215329 -1.6290179260772975 -2.3089437274359685 0 0 0
257 53 2 0 -2.36943666838687 -1.425126036340868 -1.9676445936448035 0 0 0
259 53 4 0 -2.129553377986601 -1.2111597561910017 -1.621221103640732 0 0 0
253 51 4 0 -1.734998519990592 -1.1055790859813506 -1.603547010203362 0 0 0
476 126 2 0 -3.2998259100969567 -3.839960530255659 -0.8255792623034269 1 0 0
477 126 4 0 -3.4921433305868192 -3.4809788457254807 -1.0045371254296596 1 0 0
27 6 3 0 -3.5703704352094316 -3.1323960830778357 -0.8540764224116943 0 0 0
478 126 4 0 -3.1080184345284025 -4.201444677093209 -0.6508803386405307 1 0 0
338 80 2 0 -2.423445860303482 -4.439142401248772 -0.2895809663419516 0 0 0
339 80 4 0 -2.764939666810061 -4.361549750882959 -0.5332367269593727 0 0 0
15 3 3 0 -4.408779268476095 -3.3970010253664378 -3.2320562719998494 0 0 0
254 52 2 0 -0.16437686850183256 -4.172505967415053 -0.39823190124246766 0 0 0
255 52 4 0 -0.4698898689507187 -3.911767574437536 -0.1437787699177252 0 0 0
63 13 3 0 -0.9415948191987473 -2.9281483019756323 -0.06357974225237306 0 0 0
29 6 3 0 -3.752897663990178 -2.8605104876015703 -1.562422143290768 0 0 0
26 6 1 0 -3.546918571230526 -2.759175575920527 -1.1387432133453925 0 0 0
30 6 3 0 -3.7645457231861914 -2.4094714115251668 -0.9411717053780837 0 0 0
487 129 4 0 -3.8769608643076916 -2.139158584372899 -0.7218023876519882 1 0 0
28 6 3 0 -3.106211932601949 -2.6394796688144306 -1.2087566456351901 0 0 0
485 129 2 0 -4.22490349000608 -2.2275051922276212 -0.41314424545858763 1 0 0
271 57 4 0 -2.7637595777616024 -2.7997541593867363 -1.123796179080639 0 0 0
269 57 2 0 -2.352630220646129 -2.796341478848758 -1.345148069089391 0 0 0
87 18 3 0 -1.1512454809025099 -2.813635177291769 -1.578935720037964 0 1 0
462 121 4 0 -1.076334953407015 -2.5567860693251676 -1.2898871618091339 0 0 0
461 121 2 0 -1.0709375644550316 -2.692611023665746 -0.8529744760148434 0 0 0
463 121 4 0 -1.0843748933136454 -2.8374214135055196 -0.4190732981203013 0 0 0
583 161 4 0 -4.4263976973344965 -0.3631220843550227 -0.8187701896163977 1 0 0
581 161 2 0 -4.222635301518847 -0.17576409368697365 -1.155953927000214 1 0 0
35 7 3 0 -1.3642944513880773 -1.179530447096005 -0.33854708531310307 0 0 0
251 51 2 0 -1.5779388940713466 -1.142865548496569 -1.1622377437038303 0 0 0
252 51 4 0 -1.4219755012811175 -1.1835268304539621 -0.730751767173243 0 0 0
626 176 2 0 -0.09526899782127075 -4.00386780622121 -3.3176597799582175 0 1 1
65 13 3 0 -0.5513711019494942 -3.543409395583726 -0.3139429669551732 0 0 0
33 7 3 0 -1.7471997609433632 -0.5872929048165185 -0.1618202492545919 0 0 0
34 7 3 0 -1.0212291371067852 -0.5341722069318526 -0.17389061343039722 0 0 0
31 7 1 0 -1.3874976274126354 -0.8000460151278557 -0.07738999027670503 0 0 0
329 77 2 0 -3.4409555588081555 -4.109904542525835 1.6640455120961493 0 0 0
330 77 4 0 -3.154026775973338 -3.9147551446484443 1.3524041318382598 0 0 0
303 68 4 0 -3.108883682914378 -4.0247584475176845 0.9604353361384816 0 0 0
302 68 2 0 -2.8753911509289676 -3.655982741303185 0.817902582929198 0 0 0
443 115 2 0 -1.862808156133549 -3.3109945436482544 0.55780663681767 0 1 0
304 68 4 0 -2.643958660041412 -3.2924435167581376 0.6827265835762557 0 0 0
345 82 4 0 -1.99319969403278 -4.062281882497637 1.3068146648604282 0 0 0
444 115 4 0 -2.276401665278447 -3.143557908538317 0.7120581803294305 0 1 0
24 5 3 0 -1.8365966792102948 -4.06447084491727 0.9537441653874537 0 0 0
22 5 3 0 -2.0890094258091145 -4.422560918932044 0.3357683253654784 0 0 0
445 115 4 0 -1.4667622670113332 -3.482659203054453 0.4153724735468316 0 1 0
192 39 3 0 -0.2777118158165783 -4.354252821004577 0.8281408481600967 0 0 0
62 13 3 0 -1.1490838072038592 -3.6015729903997658 0.1555449486346302 0 0 0
61 13 1 0 -0.793378023513352 -3.339053874139132 0.05293925331400691 0 0 0
331 77 4 0 -3.7218823219736805 -4.303472447416489 1.981820962643986 0 0 0
332 78 2 0 -4.409356409836321 -2.0362028978334563 1.4101157665604798 0 0 0
38 8 3 0 -0.5658369641968636 -0.7311257845275296 4.332085286679204 0 0 0
349 83 4 0 -0.11618409952330482 -3.443695286578214 3.2542290230135653 0 0 0
64 13 3 0 -0.5020350129335909 -3.312964159621641 0.42668108334257226 0 0 0
287 63 2 0 -2.123396417095498 -0.026385193314157042 0.16894175621173038 0 0 0
21 5 1 0 -1.8365686569827737 -4.463379066647681 0.7177472102013899 0 0 0
32 7 3 0 -1.377178466598566 -0.9146523850359645 0.36383111220848185 0 0 0
273 58 4 0 -1.383850947862204 -1.0404532557496 0.7746887746999835 0 0 0
272 58 2 0 -1.3615367945597334 -1.2020528345849555 1.2156806888522276 0 0 0
500 134 2 0 -0.14825925875730744 -1.2397580381880706 1.3424505542649066 0 0 0
501 134 4 0 -0.22923429968917577 -1.0548881125580194 0.933589822305385 0 0 0
544 148 4 0 -0.33425913921921985 -0.7207623713602118 0.7374192867437457 0 0 0
542 148 2 0 -0.30125236448847864 -0.28966308843075467 0.7461927714606081 0 0 0
562 154 4 0 -4.4680867803095525 -0.5296071072154999 3.460893953201188 1 0 0
351 84 4 0 -1.9300646731323956 -0.22479814684422017 4.231064683390743 0 0 0
344 82 2 0 -1.9529800090685931 -3.898557984302586 1.72429112064152 0 0 0
346 82 4 0 -1.907941216151257 -3.7346657748646743 2.1484496569594875 0 0 0
128 26 3 0 -1.5528060926222278 -3.6923756326566397 2.3284712239816736 0 1 0
126 26 1 0 -1.2474201921802481 -3.496811091592367 2.6136872508556004 0 1 0
130 26 3 0 -1.3638545580000894 -3.5759175159943806 3.0411016008862872 0 1 0
127 26 3 0 -1.239015600036006 -3.01487720646556 2.5348454889934393 0 1 0
194 39 3 0 -0.08457618394364734 -4.43770848280225 1.5193022380182373 0 0 0
335 79 2 0 -0.35906008793381494 -3.9230276480058386 2.0841986446906864 0 0 0
129 26 3 0 -0.8295415151336543 -3.6649260888258306 2.538626797695342 0 1 0
336 79 4 0 -0.5144973210234907 -3.5576362611074415 2.3168255018388217 0 0 0
337 79 4 0 -0.21180254113328642 -4.270454254755913 1.8595374794328539 0 0 0
334 78 4 0 -4.312797062315048 -2.15240867783022 1.8430497033583941 0 0 0
436 112 4 0 -0.476384078375243 -0.2653650366824408 3.218552673435552 0 0 0
292 64 4 0 -4.460266314521533 -1.8814671557876488 2.979165052999348 0 0 0
343 81 4 0 -2.8510709817813407 -2.112354542473767 1.6074027959237724 0 0 0
341 81 2 0 -2.7485580765972917 -1.7341183529370168 1.8633890374983824 0 0 0
434 112 2 0 -0.6005385020296506 -0.6610824284743119 3.0118431969027752 0 0 0
328 76 4 0 -1.1693763146718197 -2.7074735630883433 2.2940613740140265 0 0 0
326 76 2 0 -1.323128590241415 -2.2952767968484795 2.4572857480186165 0 0 0
48 10 3 0 -1.5256731945442334 -1.6006081368864278 2.3591075995401756 0 0 0
502 134 4 0 -0.06633691214490588 -1.4226593112869654 1.7336948647198493 0 0 0
327 76 4 0 -1.4653068932474713 -1.9053869441889835 2.620428523750273 0 0 0
309 70 4 0 -0.300716598499532 -1.7567434904977264 1.7836225391974947 0 0 0
308 70 2 0 -0.1478949946966762 -2.1422415937405566 1.908852366193792 0 0 0
57 12 3 0 -3.1840293441237204 -0.7493279599548461 2.2019702417451 0 0 0
58 12 3 0 -2.98858823948206 -0.8683192016809731 2.891005657216568 0 0 0
354 85 4 0 -0.047675733113270946 -3.0910062815239505 3.0732520516797805 0 0 0
59 12 3 0 -2.506881754086156 -1.0734580671366336 2.3564611701380866 0 0 0
56 12 1 0 -2.838513693828353 -0.7601279183285605 2.4976105421075308 0 0 0
342 81 4 0 -2.65183128750843 -1.3648535032468452 2.110238712426557 0 0 0
652 184 4 0 -0.04554166477869333 -4.015764466050631 0.9692761271140832 0 1 0
60 12 3 0 -2.6526588969782514 -0.3461324260267908 2.509038191593621 0 0 0
454 118 4 0 -2.3620869397760473 -0.1565440302071232 2.3217411347083003 0 0 0
47 10 3 0 -1.8277762072990997 -0.9313870020082826 2.4762604478365633 0 0 0
274 58 4 0 -1.3415632771541526 -1.3504279780560067 1.6484905302735855 0 0 0
49 10 3 0 -1.3643785520172498 -1.0202938810175721 1.9124991670956637 0 0 0
46 10 1 0 -1.456536147606129 -1.1414735898738533 2.33995697977338 0 0 0
50 10 3 0 -1.070625519371628 -1.0171906393253256 2.6517790135197763 0 0 0
435 112 4 0 -0.6947344725294097 -1.0399128663403991 2.8287073627433355 0 0 0
535 145 4 0 -4.071212816632307 -4.380159486131013 3.298340711706605 1 0 0
534 145 4 0 -3.692092856399293 -3.6859001652623897 3.7371874398121543 1 0 0
533 145 2 0 -3.890169295301473 -4.029769842740554 3.5130244388403638 1 0 0
347 83 2 0 -0.18282982847041035 -3.651954193787657 3.630604283019526 0 0 0
348 83 4 0 -0.25526445969277656 -3.876405489599627 4.0079995423693395 0 0 0
187 38 3 0 -0.37570102269223804 -3.637599244471005 4.329118500532434 0 0 0
484 128 4 0 -4.4869706058622265 -2.0418769889961133 4.12048397456413 1 0 -1
482 128 2 0 -4.384915677276837 -2.0694548993782087 3.682520855959827 1 0 -1
483 128 4 0 -4.285259320227513 -2.0978894834097734 3.2552438169105766 1 0 -1
142 29 3 0 -4.470989298416874 -1.6787320764782376 4.2851268009289205 1 0 -1
314 72 2 0 -3.8965458047795893 -0.06147568148068509 3.064027787862126 0 0 0
306 69 4 0 -3.1485005858143897 -0.7690999947449798 3.238525662868169 0 0 0
315 72 4 0 -4.223549459740208 -0.2795468597037809 3.252790499122594 0 0 0
307 69 4 0 -3.1038384220769895 -1.1131678387352668 4.070119141453205 0 0 0
305 69 2 0 -3.1277467436976463 -0.9342933858524854 3.639420288415703 0 0 0
429 110 4 0 -1.1686524792157702 -3.468704325974026 4.476335683181258 0 1 0
268 56 4 0 -0.49175174974200114 -2.71253026142046 4.390481991713186 0 0 -1
288 63 4 0 -1.7362257611926721 -0.25808565421063423 0.06700929862666294 0 0 0
10 2 3 0 -3.5446819668449305 0.34158492734628326 -4.097178637118845 0 0 0
6 2 1 0 -3.1865905910693217 0.2881772523998125 -4.314415840952077 0 0 0
340 80 4 0 -2.054261971484042 4.474836538259377 -0.04277183529392241 0 -1 0
376 92 4 0 -0.0275475912405223 3.5414255768225265 -0.8930750038087333 0 0 0
277 59 4 0 -3.9296844963837207 0.3096987534268724 -4.044850146893772 0 0 0
8 2 3 0 -2.862238049520704 0.4176447792529517 -4.07652546745516 0 0 0
399 100 4 0 -2.474849364747642 0.5708998384260194 -3.9502576797666658 0 0 0
398 100 2 0 -2.4404369163186432 0.4714555390397173 -3.531714227525594 0 0 0
400 100 4 0 -2.408424817386302 0.37691690549898343 -3.106519792494103 0 0 0
301 67 4 0 -0.5635691021803022 0.25270848224574 -3.39837159129971 0 0 1
299 67 2 0 -0.6537911558804016 0.6464364145920977 -3.2173047428851875 0 0 1
137 28 3 0 -3.0380116038827913 2.584733427662455 -3.68840314639661 0 0 1
140 28 3 0 -3.7025463232876388 2.7258459142620928 -4.096199002233373 0 0 1
136 28 1 0 -3.228268120894591 2.8126073849582083 -4.068924319222499 0 0 1
139 28 3 0 -3.012917549343093 2.669436912408381 -4.454367150138831 0 0 1
275 59 2 0 -4.370119851930761 0.3166021254176259 -4.093925606040196 0 0 0
390 97 4 0 -2.9339115030441905 2.2602007042477803 -3.439231756681354 0 0 0
389 97 2 0 -2.606782104838114 2.5046782273681023 -3.2068348296932676 0 0 0
391 97 4 0 -2.29400719803761 2.733414947921138 -2.9892361061967736 0 0 0
417 106 4 0 -3.3647620203114244 3.629637547609387 -4.095129656124766 0 0 1
416 106 2 0 -3.675292649981841 3.9164054233490866 -3.9196939699519056 0 0 1
138 28 3 0 -3.1685134998575823 3.2589711302829127 -4.0153570486432715 0 0 1
418 106 4 0 -3.984862460535351 4.2015005299807315 -3.734546757273825 0 0 1
619 173 4 0 -4.084394430101293 3.1034367165141377 -3.435875386789522 1 0 0
234 47 3 0 -4.36578501257626 3.2549947759363786 -3.673262431662553 1 0 1
18 4 3 0 -2.2179669494748815 4.169978361225617 -3.3689656434314608 0 -1 0
16 4 1 0 -1.9608651689827605 4.264813905798238 -3.728655270032306 0 -1 0
19 4 3 0 -1.5051636534226696 4.234849033427174 -3.6117585381937505 0 -1 0
17 4 3 0 -2.0359939163274596 3.964955636856039 -4.062493443273941 0 -1 0
393 98 4 0 -1.6853146827380314 3.9866021191059664 -4.254699797778023 0 0 0
358 86 4 0 -1.1063191512555768 4.152559324699036 -3.638087184635141 0 0 0
356 86 2 0 -1.057366247966063 4.100157720318878 -3.205218053400858 0 0 0
92 19 3 0 -3.997515537218959 0.763671472991491 -1.6765122545364493 0 0 0
93 19 3 0 -3.351158435713629 0.7126648132002151 -2.097510017983935 0 0 0
91 19 1 0 -3.777194393629716 0.5028155635919827 -1.9785367160358027 0 0 0
95 19 3 0 -4.021694717383347 0.4583435541739142 -2.334894574345427 0 0 0
94 19 3 0 -3.7024285638519046 0.08145788417495513 -1.790448900529728 0 0 0
582 161 4 0 -4.003573661078902 0.03593049429917057 -1.5356968254887087 1 0 0
602 168 2 0 -4.3604644541993025 1.4485513945805655 -1.8100735583411462 1 0 0
378 93 4 0 -3.0267598785722476 0.9629656854639708 -2.179636872943395 0 0 0
377 93 2 0 -2.737245621844693 0.8223983369286452 -2.498524207148237 0 0 0
379 93 4 0 -2.4560597348167454 0.680618324193209 -2.8173308956787615 0 0 0
386 96 2 0 -1.8959196941480025 1.4611943050802048 -1.8750111501176876 0 0 0
387 96 4 0 -1.4866804948055337 1.3874575030083265 -1.9650539686822632 0 0 0
300 67 4 0 -0.7416625343299654 1.0488489691961647 -3.0378274392123923 0 0 1
97 20 3 0 -0.773037188420862 1.0237033145076049 -2.6407773327012234 0 0 0
96 20 1 0 -0.8363758028022575 1.1492301001865806 -2.2134087758473204 0 0 0
100 20 3 0 -0.544863198359542 0.9264308783344394 -1.9560837741782502 0 0 0
98 20 3 0 -0.7638287173223484 1.5793225875153347 -2.1756602867862394 0 0 0
99 20 3 0 -1.2603155275057898 1.0628744329490143 -2.082582948121609 0 0 0
624 175 4 0 -0.4196398803431836 0.8921015026358191 -1.5935788022997235 0 0 0
617 173 2 0 -3.883449962084326 2.8234990155207185 -3.1470067115477764 1 0 0
594 165 4 0 -3.6706491617482713 2.124192301867914 -1.807357020658949 1 0 0
618 173 4 0 -3.6694538021633147 2.5331838501380055 -2.8580448196667754 1 0 0
593 165 2 0 -3.628455672497158 2.1420706240161285 -2.2940001086098705 1 0 0
595 165 4 0 -3.588124880306086 2.1535630127931205 -2.7491420575703276 1 0 0
604 168 4 0 -4.297621356116319 1.0400883584847225 -1.842159942203329 1 0 0
372 91 4 0 -2.096030630519808 3.047668758461876 -3.1167404355039987 0 0 0
388 96 4 0 -2.3330351627221084 1.5372170793641586 -1.789030241561201 0 0 0
84 17 3 0 -3.017294007139287 2.514122858095714 -2.2501614993136174 0 0 0
83 17 3 0 -2.7513753831775487 2.3400026781232977 -1.5847963456644392 0 0 0
402 101 4 0 -2.9268862370407334 1.9993544765789246 -1.603553867231895 0 0 0
81 17 1 0 -2.724807539703287 2.632872579941024 -1.9272577833952766 0 0 0
85 17 3 0 -2.3061739167133917 2.6275265581789626 -2.0996128868726505 0 0 0
367 89 4 0 -0.5232071565672999 1.8708306046450254 -2.2765379470720877 0 0 0
366 89 4 0 -0.6221823094919735 2.7247633719126387 -2.547202843179122 0 0 0
365 89 2 0 -0.5749200102026364 2.2929838616098315 -2.415168877867638 0 0 0
371 91 2 0 -1.9868979456562719 3.506488237226623 -2.9519810305924623 0 0 0
373 91 4 0 -1.86784262055076 3.9823405329152153 -2.788664722390601 0 0 0
233 47 3 0 -4.411702262839562 2.7557068042955195 -4.215889619371679 1 0 1
409 103 4 0 -2.124673568623642 4.2814247398157415 -2.641399433541112 0 0 0
72 15 3 0 -0.4894508659223972 3.063449990042031 -2.4043308975186317 0 0 0
73 15 3 0 -0.0033485208285597232 3.6309410475326778 -2.340752182696654 0 0 0
71 15 1 0 -0.3443569169038553 3.450309395598479 -2.5945382070625547 0 0 0
357 86 4 0 -1.0010620256125289 4.039943002163172 -2.7686167580615226 0 0 0
75 15 3 0 -0.7179895696977183 3.7699241331569113 -2.6236480202352666 0 0 0
74 15 3 0 -0.18557893705076633 3.3559561468943073 -3.014222730380028 0 0 0
603 168 4 0 -4.425247799010165 1.9075181054453276 -1.7659459680434897 1 0 0
403 101 4 0 -3.3154309197155927 1.4064823827952708 -1.0125274640020188 0 0 0
599 167 2 0 -3.914320461161038 1.3177338204563827 -0.5697813654037639 1 0 0
601 167 4 0 -3.4640183850156987 1.3116088423349213 -0.6476779592517895 1 0 0
600 167 4 0 -4.342569072131209 1.3284496820341616 -0.49830751661575434 1 0 0
406 102 4 0 -2.087904973376992 1.591734982403755 -0.1287804136729465 0 0 0
404 102 2 0 -1.6241432504897055 1.4793860219548878 -0.07939170739444064 0 0 0
623 175 2 0 -0.4826919324489227 0.8766902178918226 -1.1559653998559951 0 0 0
625 175 4 0 -0.5397209527849719 0.8579414140189229 -0.7227353254755999 0 0 0
107 22 3 0 -0.4608291618780336 0.9044184718560064 -0.32747117229084144 0 0 0
106 22 1 0 -0.5174060751247447 1.2534709595445919 -0.09580881754727004 0 0 0
405 102 4 0 -1.204519450509046 1.38198228699428 -0.03684188008060922 0 0 0
232 47 3 0 -4.486972698943343 3.4822836122820444 -4.328329720858187 1 0 1
104 21 3 0 -1.003587469928513 3.3642465790587384 -0.5357231565715552 0 0 0
401 101 2 0 -3.1119336514178517 1.7207906116926543 -1.315106423384486 0 0 0
82 17 3 0 -2.8330453698835893 3.0336135655575154 -1.7740309698780856 0 0 0
105 21 3 0 -1.1014770426593496 3.4121779516957287 -1.2746968382154804 0 0 0
69 14 3 0 -2.381239447387528 1.841237838566107 -0.10042657797096088 0 0 0
382 94 4 0 -0.4639273735703943 2.5589599887772922 -0.9862089487842229 0 0 0
109 22 3 0 -0.553048324391598 1.5874061424656158 -0.3488343065548359 0 0 0
380 94 2 0 -0.3752117008492455 2.158592766504868 -0.7939809817655005 0 0 0
381 94 4 0 -0.2846707567936144 1.7445628127212114 -0.5923197307849714 0 0 0
103 21 3 0 -0.7907647320026965 2.786218811743696 -0.9792806279604827 0 0 0
648 183 4 0 -4.2023749373472485 3.1628082045139325 -0.9324923144942835 1 0 0
369 90 4 0 -3.093207069301626 3.027625518332922 -1.4592564187813546 0 0 0
368 90 2 0 -3.4624187865984104 3.166850893322852 -1.241351438561913 0 0 0
370 90 4 0 -3.8328703487328704 3.3073310878825035 -1.039866921501988 0 0 0
101 21 1 0 -0.8289324800845196 3.262957054727404 -0.942878635136822 0 0 0
102 21 3 0 -0.3925340001735275 3.448670512761077 -0.9874703443701163 0 0 0
421 107 4 0 -1.2337544479801958 3.509371441142715 -0.23905572172508605 0 0 0
433 111 4 0 -4.257188243922609 1.5814176726694453 0.6301453030055498 0 0 0
395 99 2 0 -2.6449712421425953 0.9191525277719426 0.42280089597088427 0 0 0
396 99 4 0 -2.7433324693727 1.3583858336956698 0.35090667814147725 0 0 0
397 99 4 0 -2.538419644937185 0.5061000993250723 0.497580179259157 0 0 0
289 63 4 0 -2.4838779123881802 0.19340064396467194 0.25866085380408843 0 0 0
313 71 4 0 -1.9384986322117814 0.17072314816607442 1.19338959274991 0 0 0
311 71 2 0 -1.5867778752485422 0.3828143968593246 1.0546522682264903 0 0 0
453 118 4 0 -2.1357356963213183 0.2531982448469503 1.5244279056559373 0 0 0
312 71 4 0 -1.2196385812486623 0.6081878292372079 0.9104768685739414 0 0 0
119 24 3 0 -1.2329027831218298 1.0193324347812494 0.9188310044717851 0 0 0
543 148 4 0 -0.2597332532959067 0.16938367157691686 0.7531439599764329 0 0 0
108 22 3 0 -0.14165100122501428 1.3175024767470254 0.19599710826021732 0 0 0
116 24 1 0 -0.8960088107428872 1.2699013406057271 1.132348493266908 0 0 0
441 114 4 0 -3.963737186515287 1.682729885949895 0.35313092670976703 0 0 0
440 114 2 0 -3.6461058479783106 2.005324279015761 0.28796887653581243 0 0 0
442 114 4 0 -3.3312952338923814 2.34500310065584 0.2190552347915468 0 0 0
67 14 3 0 -2.6977738719537343 1.700089179667003 0.5273996221477188 0 0 0
413 105 2 0 -1.5898892237793392 2.0751318565077894 0.8359716707395328 0 0 0
415 105 4 0 -1.9620549334863577 2.3404067618988034 0.7850076586538424 0 0 0
68 14 3 0 -2.2236468088682684 2.250517624702886 0.47964633264568435 0 0 0
66 14 1 0 -2.5473156958690124 2.014783605439725 0.2665114620062871 0 0 0
120 24 3 0 -0.5073348669548168 1.0477787505876837 1.1099384212797219 0 0 0
117 24 3 0 -0.844749533463231 1.6759211970214094 0.9153934897778374 0 0 0
414 105 4 0 -1.1974817265774458 1.8084501443462182 0.8975470520640253 0 0 0
224 45 3 0 -0.6863645408055705 2.1115292866570994 1.628709477399967 0 0 0
23 5 3 0 -1.3924403135090286 4.421221931954543 0.5987824480614752 0 -1 0
672 191 4 0 -4.426965642859111 2.0408566651603355 3.3428213293201363 1 0 0
25 5 3 0 -2.007799579631227 4.20801977955989 0.9586228579788072 0 -1 0
420 107 4 0 -1.2436239343603206 4.269971563857107 0.26372422076119 0 0 0
135 27 3 0 -1.0449268173997148 3.232580531622629 4.041467478776901 0 0 0
195 39 3 0 -0.7237609455286955 4.271242703676986 1.2908784365092698 0 -1 0
191 39 1 0 -0.2898508284639266 4.367961407481212 1.1748359443956167 0 -1 0
394 98 4 0 -1.1676134158762017 3.6354294853869766 4.076125132424166 0 0 -1
322 74 4 0 -0.780774492282201 3.980486257286147 1.5774145594752682 0 -1 0
643 181 4 0 -3.960157618323684 0.7468723852072072 2.9716441955076105 1 0 0
641 181 2 0 -4.284448375383892 0.903494109604435 2.6859028544571886 1 0 0
316 72 4 0 -3.577944568127985 0.1662251922856013 2.875531335321664 0 0 0
411 104 4 0 -1.1936059040278313 1.6509414827194253 1.7556199766410947 0 0 0
121 25 1 0 -0.751335426248898 0.4173608658872443 2.9409038325537447 0 0 0
125 25 3 0 -1.0129592165935417 0.2531996965861464 2.6541443018058883 0 0 0
124 25 3 0 -0.4354915815590353 0.6603667761455377 2.7465044269749836 0 0 0
438 113 4 0 -0.4576875078753551 1.0418506521346245 2.588508743831998 0 0 0
437 113 2 0 -0.3486912876615256 1.3482136905860689 2.276252268725238 0 0 0
118 24 3 0 -1.0202470812759594 1.3384623100450974 1.5659344203713406 0 0 0
296 66 2 0 -2.315195258334511 2.1868178353407246 2.658479421133595 0 0 0
298 66 4 0 -1.876333226230926 2.0841830416159013 2.7414656721834247 0 0 0
412 104 4 0 -1.7077907342776215 1.8484178656291623 2.4682454644620013 0 0 0
297 66 4 0 -2.730512707063463 2.2804757712491854 2.585223930924085 0 0 0
222 45 3 0 -0.11174084012765992 2.553592055165484 1.4271042698305958 0 0 0
410 104 2 0 -1.4597654761555623 1.7552893443104167 2.1158158728295646 0 0 0
221 45 1 0 -0.27046179293509554 2.27977880224542 1.7503662971510587 0 0 0
223 45 3 0 -0.30931891826285585 2.4922201325756435 2.1329661673131453 0 0 0
457 119 4 0 -0.6668228619554671 2.512446658862883 2.3557618364885435 0 0 0
455 119 2 0 -0.9347224243664242 2.668194899639524 2.6911393338978145 0 0 0
392 98 2 0 -1.4219187727276281 3.8095729594351 4.400098417742923 0 0 -1
439 113 4 0 -0.2245445675702775 1.6616472317434292 1.9705337355377186 0 0 0
193 39 3 0 -0.079048934106664 3.981858414504914 1.0721370899522422 0 -1 0
319 73 4 0 -3.8531393946214476 4.308637256839306 1.7898103283594482 0 -1 0
317 73 2 0 -4.24317382526025 4.124081308151715 1.9995445364921893 0 -1 0
426 109 4 0 -2.20704956361885 3.5539816946216405 2.5985196856421418 0 0 0
425 109 2 0 -1.7619090090721832 3.7128563470559843 2.6401275494028527 0 0 0
427 109 4 0 -1.3357098664674625 3.857497761676685 2.667906826131152 0 0 0
320 74 2 0 -0.9065855604047474 4.023685417892913 2.0229398549487385 0 -1 0
321 74 4 0 -1.0362147891568942 4.07219165077353 2.4870207429740887 0 -1 0
134 27 3 0 -1.176612239920169 2.852706229799469 3.4191812232533225 0 0 0
676 192 4 0 -4.318699733431762 1.1789993104976082 3.8372220323900788 1 0 0
77 16 3 0 -3.9471574208006825 1.3211945259141735 3.7600147499932524 0 0 -1
422 108 2 0 -2.823512036434414 0.40673852058157856 3.072845027514034 0 0 0
424 108 4 0 -2.404929333060297 0.46825402530455984 3.218996528204842 0 0 0
53 11 3 0 -2.3347291337345912 0.2952829637748738 3.59082060432683 0 0 0
51 11 1 0 -2.2303068089994125 0.39497814596942354 4.024217371593002 0 0 0
55 11 3 0 -1.7942912663434882 0.5826177739954429 4.039085358321128 0 0 0
54 11 3 0 -2.5302576452507157 0.6885955762202232 4.190066750681747 0 0 0
460 120 4 0 -1.5060189259722123 0.8105084839203385 4.220838000929873 0 0 0
122 25 3 0 -0.5736028323235915 0.1151960442084992 3.165565093909567 0 0 0
123 25 3 0 -0.9919200228053449 0.6781814442305967 3.212154635398564 0 0 0
458 120 2 0 -1.1813722189085178 0.7589688298208754 3.912268383256503 0 0 0
459 120 4 0 -0.8284992105944381 0.703755949574953 3.5949487231910013 0 0 0
78 16 3 0 -3.6661088348179156 1.2347571608771826 3.0891487338970394 0 0 -1
79 16 3 0 -4.127042527443023 1.8085172528729643 3.215032893926134 0 0 -1
76 16 1 0 -3.7916732207041357 1.5348030900116783 3.386085318132837 0 0 -1
446 116 2 0 -3.0965508068249745 2.366592518884832 3.7614779315555524 0 0 0
447 116 4 0 -3.232990868774557 2.1299474767860285 3.383177588468357 0 0 0
80 16 3 0 -3.4375009209194767 1.790144909080472 3.494751142658828 0 0 -1
132 27 3 0 -0.8026945441832427 2.547510680642302 3.9856976990096675 0 0 0
133 27 3 0 -0.47185321289475685 3.089672882869455 3.5890191089847496 0 0 0
131 27 1 0 -0.8765608586123109 2.9288232341818805 3.763777554667247 0 0 0
646 182 4 0 -0.16439111454689007 3.244800097812908 3.803701467913727 0 0 0
456 119 4 0 -1.211532025054819 2.8220536510773444 3.041695565353239 0 0 0
431 111 2 0 -4.428814955408806 1.2399903844510842 0.8919792469593196 0 0 0
639 180 4 0 -0.11087955402721734 2.915158678262829 1.232425715205336 0 0 0
325 75 4 0 -0.4322372462278151 0.02924082359428212 3.530433155183435 0 0 0
248 50 3 0 -4.274068946275342 4.30569282634292 3.113680136284534 1 0 0
423 108 4 0 -3.238548745190064 0.352852208344282 2.9205690211507562 0 0 0
452 118 2 0 -2.25444331906294 0.04512320227072827 1.9334083507456223 0 0 0
323 75 2 0 -0.06103362318302173 0.14635029988670206 3.762670993395712 0 0 0
52 11 3 0 -2.236861204415811 0.02724572901087513 4.261531698185881 0 0 0
9 2 3 0 -3.1880275911289857 0.5382696182324394 4.285739698418035 0 0 -1
448 116 4 0 -2.9696494158117988 2.6028076582520963 4.15243617403595 0 0 0
110 22 3 0 -0.8871579569652104 1.2118194471579895 0.14573643413205745 0 0 0
70 14 3 0 -2.911873482711814 2.3026721314702856 0.1507023067389695 0 0 0
419 107 2 0 -1.233471237779808 3.885875900440591 0.007851301462789124 0 0 0
190 38 3 0 0.07115339550023435 -3.14658236026468 -4.2933887632375844 0 0 1
559 153 4 0 0.3754156835508111 -3.224848255716341 -4.028127955301576 0 0 1
264 55 4 0 4.3808081453173235 -2.7886552009247647 -2.4976572407014124 -1 0 0
628 176 4 0 0.18108994882154242 -4.2011829767107045 -3.0464337161211175 0 1 1
468 123 4 0 2.31341071101254 -3.2659488013320193 -3.168276451775929 0 0 0
238 48 3 0 2.296123611385603 -3.9602134924381778 -4.442745231719452 0 1 1
467 123 2 0 2.3911242143571267 -3.7062742207388726 -3.2138031563770997 0 0 0
278 60 2 0 3.2637391892887346 -0.2964366452356866 -0.9590152030405883 -1 0 0
557 153 2 0 0.6052347469407015 -2.836664514424246 -3.9919764641513757 0 0 1
558 153 4 0 0.8246942943111379 -2.4598615857983854 -3.959789071039789 0 0 1
172 35 3 0 1.1384893789546509 -2.2193848405312155 -3.960002588675359 0 0 0
490 130 4 0 1.491124090181568 -1.7470093660642243 -3.169085823867429 0 0 0
505 135 4 0 2.530055431702481 -2.937079495100089 -3.2249350385651896 0 0 0
171 35 1 0 1.4320405164855883 -1.9103646407847608 -3.9160622544661483 0 0 0
173 35 3 0 1.424678672130529 -1.6364744640075295 -4.268664654635589 0 0 0
174 35 3 0 1.3428800820999847 -1.664646424792335 -3.5380479878224085 0 0 0
504 135 4 0 2.1482308842572064 -2.249475690270926 -3.668966591789843 0 0 0
175 35 3 0 1.8330738650220053 -2.0910251419708583 -3.883163718395062 0 0 0
503 135 2 0 2.337645020797494 -2.588800563354292 -3.451143713227438 0 0 0
12 3 3 0 3.8751853312008286 -3.1945871120951455 -3.273076749572856 -1 0 0
491 131 2 0 3.8146075752330693 -2.516635553530036 -4.135413037063843 0 0 0
492 131 4 0 4.178635095928891 -2.588646862789782 -3.8649806866257115 0 0 0
470 124 2 0 3.7901541276545876 -1.4557308112994465 -3.4568159528816835 0 0 0
143 29 3 0 4.189607765948876 -1.7015731438763146 -4.103670204030552 0 0 0