LAMMPS data file via write_data, version 4 Feb 2025, timestep = 8000000, units = lj

4000 atoms
4 atom types
3000 bonds
1 bond types
3500 angles
2 angle types

-10.515914 10.515914 xlo xhi
-10.515914 10.515914 ylo yhi
-10.515914 10.515914 zlo zhi
-7.105427357601002e-15 0 0 xy xz yz

Masses

1 1
2 1
3 0.1
4 0.1

Bond Coeffs # harmonic/omp

1 100 0.45

Angle Coeffs # harmonic/omp

1 100 180
2 100 109.471

Atoms # full

2629 543 4 0 -0.29805681244604365 -9.222020494301834 -10.139563082631913 3 0 1
1724 345 3 0 -0.4972469226172791 -9.074228694009992 -9.844250937628225 4 0 1
3358 786 4 0 -1.8393727877735966 -7.960749416046167 -9.77939498315499 -3 -1 0
1722 345 3 0 -1.0151991597542622 -8.614211110996315 -9.745916955565319 4 0 1
3357 786 4 0 -1.3801042052202277 -8.740737436769853 -9.691207379943943 -3 -1 0
3356 786 2 0 -1.6224897282241333 -8.327915137049711 -9.738847737105475 -3 -1 0
54 11 3 0 -4.395852999269899 -7.168475666377099 -9.705610931498875 -3 -1 0
52 11 3 0 -4.0393536987405385 -7.687137798798304 -10.080317040387351 -3 -1 0
55 11 3 0 -3.7304015546843488 -7.027592526853406 -9.976335773585562 -3 -1 0
51 11 1 0 -4.1166971472208065 -7.243372706844866 -10.053039093037919 -3 -1 0
53 11 3 0 -4.292547417029629 -7.102159656015299 -10.43088553955955 -3 -1 0
2501 501 2 0 -2.89233773711518 -7.054853025810621 -10.30659423301643 6 0 1
2502 501 4 0 -2.488628477720175 -7.1099436693390246 -10.459534315118486 6 0 1
2503 501 4 0 -3.359304889563874 -6.995395389581814 -10.13897416540632 6 0 1
707 142 3 0 -2.4756533907910026 -5.260558944576417 -9.749246861533699 12 1 2
2892 631 4 0 -2.8570593212369966 -5.162508529075024 -9.823558837479439 12 1 0
2893 631 4 0 -3.441203199816446 -4.863975160884404 -10.38232351842382 12 1 0
2891 631 2 0 -3.144565748507043 -5.011485257570592 -10.097074277184785 12 1 0
709 142 3 0 -1.7485939424651136 -5.076936868226616 -9.657413108400085 12 1 2
2704 568 4 0 -3.8790936394289632 -4.093523428334365 -10.1276967732532 6 0 0
2702 568 2 0 -3.7273258702763803 -4.029466257331695 -9.719443603129612 6 0 0
2475 495 3 0 -8.113340424184862 -2.133949565260181 -9.752298470445618 8 0 1
2474 495 3 0 -7.621564629161654 -2.5852381230091277 -10.027047853029183 8 0 1
2473 495 3 0 -7.8050155813374555 -2.003432587007625 -10.39435644981714 8 0 1
2471 495 1 0 -7.736080018092785 -2.1639753099170136 -9.996576899620035 8 0 1
2472 495 3 0 -7.404613537948666 -1.9362166808448809 -9.797210347088429 8 0 1
2133 427 3 0 -10.422740815621756 -1.212139087493922 -9.806520471151478 13 0 0
2811 604 4 0 -7.093019932818503 -1.6793150062885687 -9.738109474023009 12 1 1
2810 604 2 0 -7.039063568379586 -1.2473559573926636 -9.786660239661899 12 1 1
292 59 3 0 -5.2691474472127515 -1.1016214689166386 -9.809518816595325 8 0 -1
1596 320 1 0 -6.669457668151134 -0.05975006983347342 -9.870382585734736 -3 -1 1
1598 320 3 0 -6.693457707366747 -0.5164587887753935 -9.838208678867451 -3 -1 1
2812 604 4 0 -6.974929849985139 -0.8009451961472642 -9.822203870706419 12 1 1
3401 801 2 0 -4.281828190009645 -0.6363245757587244 -9.721521291296794 7 0 1
3403 801 4 0 -3.8596543752646406 -0.6693539347281021 -9.835515905692858 7 0 1
1223 245 3 0 -3.0183385308243453 -0.38023621095171833 -10.056007762800808 11 0 0
3246 749 4 0 -2.8570278169230843 -0.056451847471846506 -10.264954744481782 9 0 0
3800 934 2 0 -0.6543661638724938 -9.745655288780908 -8.90835028402544 5 0 1
3802 934 4 0 -0.500811825606478 -10.146862956071116 -8.853768297877522 5 0 1
1723 345 3 0 -0.7544834123052926 -8.995978982665267 -9.199248061792758 4 0 1
3801 934 4 0 -0.8093676844109812 -9.327671747431486 -8.955840677386599 5 0 1
1721 345 1 0 -0.648641131826361 -8.797913702411925 -9.57202053249901 4 0 1
2670 557 4 0 -2.0619257623557736 -8.162370888505059 -8.843445742968706 4 0 1
1725 345 3 0 -0.35032709964993103 -8.481489211076354 -9.482342536582628 4 0 1
1915 383 3 0 -2.026855848519185 -7.75212553392074 -9.486577259395753 11 1 1
1911 383 1 0 -1.9682287685229642 -7.505541636421379 -9.075592003169715 11 1 1
1914 383 3 0 -2.228078257645276 -7.154222961430537 -9.07294983709693 11 1 1
1912 383 3 0 -1.5430516350551642 -7.371450043720038 -9.043994767747376 11 1 1
746 150 1 0 -6.403095545706557 -6.4847861993540565 -8.831964749163896 12 1 1
747 150 3 0 -6.250954230376782 -6.563616637255189 -9.258798862024722 12 1 1
3968 990 2 0 -2.068857451354285 -6.445429520399318 -9.363823756211884 12 1 0
3970 990 4 0 -2.3168852504834074 -6.815590521019852 -9.255958882543231 12 1 0
3522 841 4 0 -7.47400792760903 -5.2724551684705725 -8.82745376070597 13 1 0
749 150 3 0 -6.630883961491348 -6.0805566166268985 -8.827731854027071 12 1 1
3969 990 4 0 -1.8346957437112543 -6.092151818915828 -9.464183235307711 12 1 0
708 142 3 0 -1.9854738429205536 -5.7207644353844564 -9.432230704669891 12 1 2
706 142 1 0 -2.0907056677091145 -5.297173844513092 -9.472857072355337 12 1 2
2295 459 3 0 -7.438520887066984 -4.886623974729155 -8.786406243828026 5 0 1
710 142 3 0 -2.192928069018219 -5.116268057553314 -9.034509268726875 12 1 2
3145 715 4 0 -2.0573514037001353 -4.818584082858976 -8.798918552568995 5 0 1
2703 568 4 0 -3.5672353948496918 -3.957020096148149 -9.288014414458699 6 0 0
2377 476 3 0 -3.277215217810414 -3.7733468464505924 -9.085834453029566 6 0 0
2131 427 1 0 -10.345647755390463 -1.3073738725721746 -9.374065395729497 13 0 0
2132 427 3 0 -9.905427150177978 -1.294912219167614 -9.296568212430241 13 0 0
2134 427 3 0 -10.503406246047035 -1.7145219063255173 -9.289837196254933 13 0 0
2661 554 4 0 -9.633488418339807 -1.019758526968289 -9.333270783733266 6 0 1
293 59 3 0 -5.6905489917169785 -0.8914535017544623 -9.249924078107611 8 0 -1
291 59 1 0 -5.2672696378868595 -1.0088316534948678 -9.381248074785441 8 0 -1
2625 542 4 0 -5.123967209569078 -1.7047663178452037 -8.9228775739444 10 0 0
294 59 3 0 -5.118872880416286 -1.3724608048745495 -9.137440588169122 8 0 -1
2660 554 2 0 -9.450028961667485 -0.6296791665629513 -9.393444799476324 6 0 1
2662 554 4 0 -9.263504858204461 -0.210005712834473 -9.455569091729997 6 0 1
2428 486 3 0 -9.097672558786932 -0.08195596141341 -9.13062499377147 15 1 -1
2427 486 3 0 -8.381556308150543 -0.1845903695236153 -9.1297187799784 15 1 -1
295 59 3 0 -5.0052098008372985 -0.661425818230347 -9.307225487586255 8 0 -1
3402 801 4 0 -4.737596204013557 -0.6119042766698293 -9.615975994082005 7 0 1
1225 245 3 0 -3.510406513023722 -0.7666459282698259 -9.637496659382162 11 0 0
1221 245 1 0 -3.1123330535249982 -0.5211647242475692 -9.632980527244928 11 0 0
1224 245 3 0 -2.784718984877201 -0.7798427746428782 -9.485625484800199 11 0 0
1222 245 3 0 -3.1684602578195733 -0.15560608894229588 -9.353255964228426 11 0 0
1392 279 3 0 -5.779842126478661 -10.154276433143298 -8.135053012682352 6 0 -1
1391 279 1 0 -5.458326046210931 -10.454492845363733 -8.176335766176054 6 0 -1
1395 279 3 0 -5.068626146792989 -10.249202103082824 -8.296879936685508 6 0 -1
1007 202 3 0 -2.804830537055449 -9.69412044210002 -7.942299303360804 4 0 0
3534 845 4 0 -1.7793999689027586 -9.989635165905943 -8.01241515089231 4 0 0
3533 845 2 0 -1.358199753778642 -10.112170189920283 -7.913510155301907 4 0 0
2348 470 3 0 -0.36468257971647944 -10.37493191166603 -8.568740266019304 6 0 1
1006 202 1 0 -2.4224522007034945 -9.463935064236377 -7.9797040056411435 4 0 0
2671 557 4 0 -2.4341397098634996 -8.93852915405882 -8.553799422480788 4 0 1
1009 202 3 0 -2.387797636696307 -9.308610541332792 -8.416255883932354 4 0 0
2669 557 2 0 -2.241954082097976 -8.54347945304696 -8.697893988698782 4 0 1
1913 383 3 0 -2.079319059983911 -7.786658650826565 -8.704521602920066 11 1 1
1034 207 3 0 -8.800413295047075 -6.532933512699977 -8.353088592356631 14 2 0
1031 207 1 0 -8.995141289713786 -6.452330865589847 -7.987009557379418 14 2 0
750 150 3 0 -6.699089759036927 -6.821609041859633 -8.717463664617824 12 1 1
748 150 3 0 -6.054761461436964 -6.4692816670095405 -8.524314050558932 12 1 1
1033 207 3 0 -9.264484095475675 -6.071841395287438 -8.036835741445701 14 2 0
3521 841 2 0 -7.218369323548877 -5.615280592661098 -8.713917200446218 13 1 0
3523 841 4 0 -6.958495265228606 -5.969803263565245 -8.609786700948078 13 1 0
2294 459 3 0 -7.827308119305957 -4.819516866850941 -8.159818653883825 5 0 1
2291 459 1 0 -7.613393379929071 -4.599768127965436 -8.474930073379161 5 0 1
3143 715 2 0 -2.24184249333881 -4.459029939044488 -8.649042032754696 5 0 1
3697 899 4 0 -8.086466587002555 -3.9626918741182324 -8.589009110397436 13 1 0
2292 459 3 0 -7.901087108961722 -4.30671931620071 -8.68021363957186 5 0 1
3695 899 2 0 -7.97621599747851 -3.5262008403337326 -8.492335713756972 13 1 0
2293 459 3 0 -7.2813483778526376 -4.36010600110507 -8.282160966814175 5 0 1
3754 918 4 0 -7.1021753597113895 -4.012706139531669 -8.279433352647073 13 1 0
3752 918 2 0 -6.756668903903567 -3.875793073110458 -8.030072428613762 13 1 0
2380 476 3 0 -2.6941389934747146 -3.792289733021451 -8.637104287624751 6 0 0
2376 476 1 0 -3.0987519030525776 -3.6031152229013426 -8.696442664483504 6 0 0
2379 476 3 0 -3.354515836386934 -3.685177529324192 -8.355017536016566 6 0 0
3144 715 4 0 -2.440787455470156 -4.09174254144477 -8.492773485071421 5 0 1
3696 899 4 0 -7.865167682965325 -3.099980932196214 -8.399004397889792 13 1 0
1928 386 3 0 -7.729726987550457 -3.040339945077271 -8.036815216870407 12 1 -1
1809 362 3 0 -3.8570926392789024 -2.818808693292347 -8.197335188222308 -4 -2 0
2378 476 3 0 -3.039471413829535 -3.1446006298359794 -8.736091360233472 6 0 0
1930 386 3 0 -7.903378468329601 -2.3411744108345243 -8.268695302634704 12 1 -1
1927 386 3 0 -7.295592590691951 -2.47256131129444 -7.890703870040038 12 1 -1
1926 386 1 0 -7.71197058237477 -2.590807985109792 -7.931762138411092 12 1 -1
1810 362 3 0 -4.44378699729258 -2.3584480139896105 -8.233729377223257 -4 -2 0
2626 542 4 0 -4.397701548854646 -2.060138057568759 -8.480903799797487 10 0 0
2624 542 2 0 -4.7627105414229804 -1.8779758732670189 -8.70029255587395 10 0 0
1806 362 1 0 -3.989249665341206 -2.410239035809104 -8.105336721389998 -4 -2 0
1808 362 3 0 -3.7230554272582594 -2.1153118996893294 -8.342084313908094 -4 -2 0
2114 423 3 0 -3.5839247730020753 -10.230472886791672 -7.812703485255926 4 0 0
1008 202 3 0 -2.0669348408644996 -9.7477667308297 -7.87580782279907 4 0 0
3535 845 4 0 -0.9119766576208104 -10.24054541370423 -7.809880816765409 4 0 0
2347 470 3 0 -0.583439523409865 -10.4387515928898 -7.8406196366984595 6 0 1
1010 202 3 0 -2.429912981490043 -9.112781228978951 -7.692009382109953 4 0 0
1035 207 3 0 -9.246916915306013 -6.804858300226258 -7.867952719089337 14 2 0
1032 207 3 0 -8.673806985277771 -6.382337620019546 -7.654888241503112 14 2 0
612 123 3 0 -2.25329919417808 -6.583437955504267 -7.465164482310612 5 0 2
3084 695 4 0 -10.409274652861315 -5.288109644018577 -7.587969348228431 13 1 0
1973 395 3 0 -2.8598387610106775 -5.7210982916087305 -7.699516039386536 11 0 0
1971 395 1 0 -2.771600371102422 -5.550294781770909 -7.297937124177287 11 0 0
1974 395 3 0 -2.335420992464135 -5.543027491010239 -7.233762412244505 11 0 0
3085 695 4 0 -10.21185275027429 -4.458656455022384 -7.156819909561152 13 1 0
3083 695 2 0 -10.304010650302168 -4.858100371783123 -7.367655894964125 13 1 0
1972 395 3 0 -2.929708270395074 -5.144623231482946 -7.2798972652740925 11 0 0
1656 332 1 0 -10.464400191808432 -3.724146790179354 -7.016440690894325 8 1 0
1657 332 3 0 -10.202511832840434 -4.069275122411554 -7.042129489239267 8 1 0
3753 918 4 0 -6.40908597906841 -3.7407571753970537 -7.779095034732913 13 1 0
1660 332 3 0 -10.454705829699979 -3.5051276647510603 -7.406202445218263 8 1 0
1304 261 3 0 -6.226613557697145 -3.3973893696966257 -7.634952970616768 -2 -1 0
1301 261 1 0 -6.283951514270711 -3.1047082099797727 -7.266023089126205 -2 -1 0
1305 261 3 0 -6.225740365186633 -2.6799466216281047 -7.412557141437632 -2 -1 0
1302 261 3 0 -6.688679649468368 -3.149447147787307 -7.103694464444221 -2 -1 0
1929 386 3 0 -7.936942501487298 -2.5126668487477826 -7.523415994535746 12 1 -1
3814 938 4 0 -5.956657122289869 -2.378317668099644 -7.371426591883569 6 0 0
3812 938 2 0 -5.81705659545591 -1.9329623512741492 -7.360712353016371 6 0 0
2997 666 4 0 -3.915564560748556 -2.3642066120355008 -7.218886607186727 10 0 0
1807 362 3 0 -3.9456059373141708 -2.322410623039726 -7.644398612618491 -4 -2 0
2996 666 2 0 -3.4719751112988204 -2.3624620328408437 -7.068188587199993 10 0 0
3813 938 4 0 -5.687778420817475 -1.5041288237934491 -7.345156070933356 6 0 0
1862 373 3 0 -5.601676214429003 -1.2380411793936776 -7.062169919871611 9 0 0
1863 373 3 0 -5.370163713280848 -0.555720625421019 -7.06722740757147 9 0 0
2805 602 4 0 -5.162662206487003 -0.22206713324792382 -7.126990481434294 6 0 0
1648 330 3 0 -5.7450049123213045 -9.059676223331198 -6.159854343527598 5 0 1
1329 266 3 0 -9.848278057982888 -8.346611677348028 -6.621389190783251 8 0 0
1326 266 1 0 -9.475238361516569 -8.265850751088934 -6.4527638546724475 8 0 0
1327 266 3 0 -9.169353504096057 -8.449840486896466 -6.699897867681836 8 0 0
3595 865 4 0 -10.47038337537251 -7.231780869103262 -6.754751150902837 19 2 0
1328 266 3 0 -9.394260742708958 -7.791951888522014 -6.432851305602586 8 0 0
2979 660 4 0 -9.070757533677284 -7.612344024687637 -6.337390775588198 3 0 0
2978 660 2 0 -9.117004699824138 -7.171923052178903 -6.218805143272684 3 0 0
2635 545 4 0 -2.5730696664761963 -7.41923139007036 -6.199758073557769 3 0 0
3593 865 2 0 -10.170974940372886 -6.920174720883831 -6.590197457736702 19 2 0
3594 865 4 0 -9.891356670525015 -6.628132330895025 -6.422209437968082 19 2 0
938 188 3 0 -2.6528653803163174 -6.37704066907276 -6.208608883909999 12 1 -1
614 123 3 0 -2.6385503888153075 -6.739074236471977 -6.83491351758504 5 0 2
615 123 3 0 -1.9319078248042718 -6.916316407704333 -6.901490730289122 5 0 2
611 123 1 0 -2.2232408598205247 -6.620891024807843 -7.001528448126336 5 0 2
613 123 3 0 -2.097537926155507 -6.208433134900372 -6.822682872229454 5 0 2
943 189 3 0 -9.465326690043455 -5.914939129276035 -6.429264799246057 13 1 -1
1975 395 3 0 -2.966161514327333 -5.80536973907579 -6.969650356729844 11 0 0
3392 798 2 0 -1.867212384742425 -5.65366200119675 -6.432407770178488 5 0 0
3394 798 4 0 -1.775709976022176 -5.9617820608992576 -6.765170954274336 5 0 0
1800 360 3 0 -4.918041353568232 -4.138472019293371 -6.211339709345226 1 -1 0
1799 360 3 0 -4.223238330168896 -4.178948881398178 -6.4692262032978105 1 -1 0
1659 332 3 0 -10.3308625200818 -3.4612463966150315 -6.697825339939929 8 1 0
1432 287 3 0 -8.505427726295615 -2.900661840008828 -6.218975701769112 13 1 0
1303 261 3 0 -5.986183002709955 -3.197173342762831 -6.958573632943413 -2 -1 0
1941 389 1 0 -2.7255642636953867 -2.780370219290896 -6.275338036246298 13 1 -1
1945 389 3 0 -2.4980261561532267 -3.126380986857897 -6.473077497884997 13 1 -1
2998 666 4 0 -3.0657424300141702 -2.3637585611564003 -6.929469336822033 10 0 0
1942 389 3 0 -2.867609126309625 -2.490912193616003 -6.591660924118031 13 1 -1
1861 373 1 0 -5.652387942113811 -0.8250914693862867 -6.880792826186887 9 0 0
1864 373 3 0 -6.096552391451202 -0.6731923841012417 -6.944484320529746 9 0 0
1865 373 3 0 -5.56883203258804 -0.8431950343171568 -6.43059291515072 9 0 0
3222 741 4 0 -1.8074313215428361 -0.18363272318654644 -6.939969354374195 11 0 1
2078 416 3 0 -1.3929661842559113 -0.20947380137690352 -6.883103202733309 15 1 -1
2076 416 1 0 -1.0158395496980184 -0.23649940476179943 -6.605946866492931 15 1 -1
2077 416 3 0 -1.1376100317615947 -0.33654014831824064 -6.2292762063811375 15 1 -1
2080 416 3 0 -0.7344264758044048 -0.5438339415249338 -6.7560622991904316 15 1 -1
1650 330 3 0 -6.046606989427344 -9.645711977634225 -5.826789851824696 5 0 1
1649 330 3 0 -5.411028749443754 -9.362886788139127 -5.586699041838531 5 0 1
1646 330 1 0 -5.802235652556872 -9.26567091625321 -5.764897666635598 5 0 1
1647 330 3 0 -6.040849785336828 -8.975007880217671 -5.474884648551997 5 0 1
1330 266 3 0 -9.467386818432878 -8.446529096092977 -6.048835155288906 8 0 0
3308 770 2 0 -0.24769423644105437 -8.138822049722076 -5.990492556548334 7 0 -1
3310 770 4 0 -0.5980486807273415 -8.212500972269112 -5.712701321108793 7 0 -1
937 188 3 0 -2.705743735424231 -7.0920322879174735 -6.015075491629358 12 1 -1
2633 545 2 0 -2.1846779103279967 -7.604126377287311 -6.133589967972314 3 0 0
2634 545 4 0 -1.7792687091948185 -7.789337946115393 -6.059134973490767 3 0 0
1105 221 3 0 -1.4349309680963902 -7.7520781117865445 -5.8477714436568 5 0 1
1101 221 1 0 -1.1734383067659948 -7.683197514452749 -5.486915337915073 5 0 1
1103 221 3 0 -1.1169859509108786 -7.240941897371996 -5.423704755702664 5 0 1
1104 221 3 0 -0.7934252212642576 -7.870317177998423 -5.5455732515071325 5 0 1
945 189 3 0 -9.859326231516928 -6.399984416315527 -6.08291503241965 13 1 -1
2980 660 4 0 -9.154662910486117 -6.722410779369267 -6.09313816702226 3 0 0
944 189 3 0 -9.13867319349288 -6.327522822359647 -5.963139750000465 13 1 -1
939 188 3 0 -3.1067153114748844 -6.588434143992181 -5.6827409637978405 12 1 -1
936 188 1 0 -2.726062071167303 -6.663200193904316 -5.862535160019982 12 1 -1
940 188 3 0 -2.4118312996324622 -6.609428130210822 -5.552099880309713 12 1 -1
942 189 3 0 -9.603209379830624 -5.808582231324335 -5.738963036568185 13 1 -1
941 189 1 0 -9.509803746459662 -6.1092844009485265 -6.059410358681724 13 1 -1
3393 798 4 0 -1.9484230355386014 -5.364676794203202 -6.119541553376392 5 0 0
2142 429 3 0 -0.20679413626134568 -5.987948003756893 -5.912940567286485 17 1 1
1797 360 3 0 -4.435776936189831 -4.6116851163512065 -5.948527088077426 1 -1 0
307 62 3 0 -1.8415847737922366 -5.0407574192780915 -5.889783738033944 5 0 1
306 62 1 0 -1.689305587910832 -4.714306177839111 -5.600174258036105 5 0 1
310 62 3 0 -1.253175533179494 -4.8109222602923 -5.480354863171771 5 0 1
1433 287 3 0 -8.625047574210138 -3.568735142849758 -6.021506373250108 13 1 0
1796 360 1 0 -4.482323959452372 -4.223797854276988 -6.1031387750833455 1 -1 0
1798 360 3 0 -4.344814528656797 -3.907567048675582 -5.781770942221348 1 -1 0
2689 563 4 0 -4.021972145841392 -3.7098908035391105 -5.738909127546453 5 0 0
308 62 3 0 -1.705756247614664 -4.32162668652563 -5.804136258647848 5 0 1
1435 287 3 0 -8.914732143267074 -3.0220670704469113 -5.637323094497618 13 1 0
1434 287 3 0 -8.193036041372181 -3.1465680398821494 -5.626418338847012 13 1 0
1431 287 1 0 -8.562124617777169 -3.1607083157738085 -5.88302825053812 13 1 0
2687 563 2 0 -3.72631704079496 -3.4181362126891806 -5.930971983523288 5 0 0
1944 389 3 0 -3.0860496533736255 -2.9505508280934354 -6.050245719550783 13 1 -1
2688 563 4 0 -3.4303983172128207 -3.1333456617523954 -6.106644309500878 5 0 0
2262 453 3 0 -10.273931509666134 -2.3300358355316053 -5.459670019516307 10 0 0
1943 389 3 0 -2.4661914641112332 -2.5748967371661884 -5.9885237214598925 13 1 -1
2922 641 4 0 -2.098974991009115 -2.431176374307535 -6.111055618241283 3 -1 0
2921 641 2 0 -1.758003367015407 -2.2772193984579925 -5.8211612970012085 3 -1 0
2923 641 4 0 -1.4096891160061809 -2.122379341501544 -5.524667748708311 3 -1 0
2958 653 4 0 -5.536977472749755 -0.7802392528965978 -6.035964919575568 6 0 0
2957 653 2 0 -5.32511195652031 -0.3960623358516564 -5.900558917208918 6 0 0
2959 653 4 0 -5.117949591515599 -0.03177451995891012 -5.775815225755618 6 0 0
3775 925 4 0 -5.072539594303618 -9.966571429540146 -4.655557478931235 12 1 -1
663 133 3 0 -5.020471460741226 -10.365682483222784 -4.648680880154998 13 1 0
3774 925 4 0 -5.3082890335987125 -9.295435391422577 -5.21185663984951 12 1 -1
3773 925 2 0 -5.191606355237153 -9.637253096922723 -4.926145115273896 12 1 -1
1102 221 3 0 -1.356836544484258 -7.857024185752299 -5.124874850479835 5 0 1
309 62 3 0 -1.9382722902067773 -4.7037301995583505 -5.256343133656237 5 0 1
2991 664 4 0 -1.0600703183942546 -4.9822059339241065 -5.181209928516843 3 0 0
2990 664 2 0 -0.877238985068475 -4.995489810126873 -4.787753827089645 3 0 0
2477 496 3 0 -1.3691966725215483 -1.9261086314575966 -5.164920401472425 5 0 1
2479 496 3 0 -0.9521919888026176 -2.401691246532465 -4.780152500773621 5 0 1
2476 496 1 0 -1.005754613920402 -1.9672335323655936 -4.900331278828573 5 0 1
2480 496 3 0 -0.6537722824188972 -1.830602129057059 -5.120045930188197 5 0 1
2478 496 3 0 -1.0619304316064557 -1.715432476714362 -4.5242701046011975 5 0 1
1805 361 3 0 -2.64427436026381 -8.756731361647873 -3.942170450283161 4 0 0
1804 361 3 0 -2.058730500877486 -8.441736188761556 -4.278566352739501 4 0 0
1801 361 1 0 -2.37045832925104 -8.38683916908383 -3.9634656141633666 4 0 0
1803 361 3 0 -2.622808438652412 -8.020854526150515 -4.065361914159421 4 0 0
1802 361 3 0 -2.1601701202651338 -8.315061249433963 -3.539137371498529 4 0 0
3151 717 4 0 -2.644041339952371 -7.637964441927748 -3.891618036401586 11 1 0
3149 717 2 0 -2.5194886389412456 -7.210645568816548 -3.781647126850304 11 1 0
3993 998 4 0 -3.4195514246510346 -6.38957383968931 -3.620428530233717 4 0 1
1159 232 3 0 -3.0644297867731254 -6.208782622719802 -3.663669290363032 13 1 1
3150 717 4 0 -2.400421929806864 -6.802913657563698 -3.6837051147818167 11 1 0
1160 232 3 0 -2.399446503806816 -6.472802007870815 -3.506803897742505 13 1 1
3478 826 4 0 -4.743324279702283 -5.286906387001764 -3.667155937311855 5 0 0
1156 232 1 0 -2.6486186439902513 -6.095032986599351 -3.5401785677347197 13 1 1
1157 232 3 0 -2.4762557650535673 -5.826557050395161 -3.85231451795271 13 1 1
1575 315 3 0 -0.14651153332270006 -5.498030433009655 -3.8642999233774082 7 0 0
1573 315 3 0 -0.3720113719991325 -4.9014599972964445 -4.1811538670376915 7 0 0
2992 664 4 0 -0.6946039611971706 -5.015480364356571 -4.376617414693983 3 0 0
1571 315 1 0 -0.22077064188968976 -5.091342254537912 -3.79621950481265 7 0 0
3193 731 4 0 -8.43336593039261 -3.9824752820692915 -3.5522441501843236 12 1 1
349 70 3 0 -8.350215007534235 -3.5779888555652466 -3.602089455850942 11 0 0
350 70 3 0 -7.751130753803125 -3.1371483546414147 -3.67971350057128 11 0 0
737 148 3 0 -0.021982479096211094 -2.9650301998806174 -4.1822999155751255 -2 -1 0
740 148 3 0 -0.4603456853077592 -3.0972028964038927 -3.6468699894771586 -2 -1 0
736 148 1 0 -0.22196644020387524 -2.786221932737986 -3.8645468559773635 -2 -1 0
739 148 3 0 -0.48697371434031034 -2.4747852495030696 -4.0112181243275025 -2 -1 0
3058 686 4 0 -8.663728461337561 -0.8943550590907936 -3.6123371445383974 3 -1 0
826 166 1 0 -7.875959798347617 -0.9342478306221 -3.9337025824670198 11 0 -1
828 166 3 0 -7.841415916773993 -1.3045704408700356 -4.206288274493236 11 0 -1
827 166 3 0 -7.665194141158571 -1.0198812767420833 -3.5563025513091286 11 0 -1
829 166 3 0 -8.31670802505698 -0.8565129285641468 -3.8390685055818086 11 0 -1
830 166 3 0 -7.693039425404246 -0.5732814441046354 -4.132488418463062 11 0 -1
2576 526 2 0 -5.635495702839532 -10.240137337701976 -2.7057724492181636 12 1 -1
2578 526 4 0 -5.382820260876069 -10.321759158308927 -3.0887016717319895 12 1 -1
1704 341 3 0 -5.049683323456674 -10.435598225832623 -3.265984825355331 7 0 1
1621 325 1 0 -2.9813204770396418 -9.852928388308877 -2.8984702774858526 4 0 0
1622 325 3 0 -3.052549768280728 -9.884767935966485 -3.347112330422977 4 0 0
1625 325 3 0 -2.654364194703767 -10.17243657657997 -2.778045984280036 4 0 0
1624 325 3 0 -3.345975464628454 -9.937348168624428 -2.692489543482713 4 0 0
1623 325 3 0 -2.8356339152275405 -9.44975062672698 -2.803375587102683 4 0 0
988 198 3 0 -10.488055792590695 -8.396931696382318 -3.1280948624919596 13 1 1
3288 763 4 0 -2.2573551300638606 -8.21289890133465 -3.1459732664775286 12 1 0
3287 763 2 0 -2.547466019027458 -8.270684654076577 -2.8063555902054933 12 1 0
1484 297 3 0 -4.744805202210583 -6.802492124281946 -3.2487866653250803 -4 -1 1
1481 297 1 0 -4.667122326617608 -6.64741628378605 -2.8536453918639797 -4 -1 1
1482 297 3 0 -4.755369651787714 -6.208317993162626 -2.847070525114079 -4 -1 1
1485 297 3 0 -4.2446140735801805 -6.715476391193703 -2.736632789514225 -4 -1 1
3994 998 4 0 -3.9670836469072874 -6.610099132851657 -3.009608996537474 4 0 1
3992 998 2 0 -3.69682804726248 -6.5048934759282995 -3.3057002763274497 4 0 1
3476 826 2 0 -4.841399325577497 -5.660295240057816 -3.4238762454389517 5 0 0
3477 826 4 0 -4.942734832628172 -6.03654307517231 -3.1759795601600027 5 0 0
1158 232 3 0 -2.6555719513485316 -5.886960453480157 -3.148699107598449 13 1 1
3192 731 4 0 -8.731851321929334 -4.506441838011571 -2.9094825344672355 12 1 1
1572 315 3 0 -0.5324098799342778 -5.043609813185022 -3.475907597202875 7 0 0
3191 731 2 0 -8.583578057997226 -4.247042870409494 -3.229292655443973 12 1 1
348 70 3 0 -7.857917991820427 -3.5342826473308815 -3.0637537923613714 11 0 0
346 70 1 0 -8.064386470180096 -3.3057601870658306 -3.3821827675382865 11 0 0
347 70 3 0 -8.289282362713223 -2.9636391483002784 -3.194432330967982 11 0 0
3640 880 4 0 -8.52987634196702 -3.051496902611933 -2.859915523590212 13 1 0
1639 328 3 0 -6.482212398974819 -1.8555605780732485 -2.679042351331237 7 0 0
3057 686 4 0 -8.995957060662082 -0.3725255778227403 -2.9502080177185563 3 -1 0
3056 686 2 0 -8.832982812603714 -0.6297032552340607 -3.282824773170474 3 -1 0
2170 434 3 0 -8.855583094036188 -0.02545869592917782 -3.1264399855126026 8 0 0
698 140 3 0 -5.0704673284884345 -0.2934276672080802 -2.7560239033480762 9 0 0
996 200 1 0 -8.727048567078365 -10.506707720038442 -1.7679635575148716 12 1 -1
998 200 3 0 -8.591644353336797 -10.352281948195694 -2.169758284720965 12 1 -1
1976 396 1 0 -6.522500902617839 -10.423472392700749 -2.0295528751856633 13 1 0
1977 396 3 0 -6.965787007590453 -10.43561785221123 -2.1917175056976514 13 1 0
1978 396 3 0 -6.279728158676457 -10.149523399863744 -2.285135921564235 13 1 0
2577 526 4 0 -5.880977597607718 -10.158488574113024 -2.3373159421621157 12 1 -1
2773 591 4 0 -1.0796473530043187 -10.299961517187658 -2.2515109064901626 7 0 1
1515 303 3 0 -1.450085348503789 -10.128000352707396 -2.1846981153623606 12 1 0
1511 303 1 0 -1.6834295429537178 -9.795162988517538 -2.0036641339064314 12 1 0
1512 303 3 0 -1.9235706090215974 -9.59075770272247 -2.311165465730758 12 1 0
1513 303 3 0 -1.4089631676573244 -9.49918510777783 -1.8146858810167377 12 1 0
3448 816 4 0 -1.2749638096830544 -9.178191384068212 -1.9541625264220528 13 1 0
3446 816 2 0 -0.8650741273941254 -9.00587723913961 -1.8895606817394537 13 1 0
3447 816 4 0 -0.48447442325966605 -8.841971275797707 -1.8283938436151441 13 1 0
3289 763 4 0 -2.8193010340857656 -8.32032938496136 -2.47244405035911 12 1 0
1254 251 3 0 -2.7467441556468604 -8.525185782713834 -2.1277437684569023 12 1 -1
1251 251 1 0 -3.022964978335792 -8.517010167476148 -1.780021601776557 12 1 -1
1252 251 3 0 -3.4523213326072097 -8.570045196004024 -1.9190933245039936 12 1 -1
2213 443 3 0 -0.6232121245920617 -7.93817155601737 -1.8131470388082285 12 1 1
966 194 1 0 -10.419884938334375 -7.1737633994247805 -1.8989440697068218 16 1 0
969 194 3 0 -10.186629942320678 -7.530595054057999 -2.0602985764482096 16 1 0
1483 297 3 0 -4.939540181788852 -6.8612150524452815 -2.5566441565022853 -4 -1 1
1518 304 3 0 -8.771282825814255 -4.5782215187694195 -2.5238082055767297 1 -1 0
1517 304 3 0 -8.617013233410196 -4.678495492407477 -1.8053642459843697 1 -1 0
1519 304 3 0 -8.990859056327484 -4.105832522298217 -2.0169804865438508 1 -1 0
1516 304 1 0 -8.668236080072768 -4.370440215924072 -2.130331681202245 1 -1 0
1520 304 3 0 -8.292075402009107 -4.149577303955827 -2.1761386898179786 1 -1 0
3638 880 2 0 -8.606253162048509 -2.7484385227341974 -2.5260831307733467 13 1 0
545 109 3 0 -8.786946978126316 -2.0775598811675913 -2.073625899952292 4 0 0
3639 880 4 0 -8.673927132422293 -2.431003059885821 -2.1787435560086106 13 1 0
1637 328 3 0 -6.361138532497918 -2.085557939015086 -2.024590099115855 7 0 0
542 109 3 0 -8.906925783216092 -1.3740458593874276 -1.9870126904280454 4 0 0
541 109 1 0 -8.601388043950907 -1.6730559948059582 -2.0021590490428505 4 0 0
2752 584 4 0 -8.042234107141327 -1.4752867832391878 -2.5714992090097457 0 -1 0
543 109 3 0 -8.320839833687332 -1.5791113245690749 -2.3174632899550716 4 0 0
2751 584 4 0 -7.156154228279201 -1.3803400796319014 -2.269565962430695 0 -1 0
2750 584 2 0 -7.600710294853172 -1.4293630558529262 -2.417666496472709 0 -1 0
1640 328 3 0 -6.801308812212453 -1.5410859994583657 -2.1346938670642714 7 0 0
1636 328 1 0 -6.43057802780146 -1.7386476472399988 -2.2731979936104363 7 0 0
3127 709 4 0 -5.758122330993951 -1.2505263773481907 -2.3169961354152147 4 0 0
1638 328 3 0 -6.090317944488963 -1.4597180205406417 -2.2359441465349565 7 0 0
3125 709 2 0 -5.45142877130346 -0.9176630132117349 -2.4519504808057295 4 0 0
3126 709 4 0 -5.186787762286782 -0.6183577957898816 -2.5661990063634725 4 0 0
645 129 3 0 -10.426783302759736 -10.066191188852635 -0.9982875714236012 3 -1 1
997 200 3 0 -8.922686469673861 -10.169208887430507 -1.5300996299355702 12 1 -1
1979 396 3 0 -6.523545734083974 -10.252749188694796 -1.5899898648099278 13 1 0
3042 681 4 0 -6.473630261953512 -10.209900541210382 -1.1882826361499497 7 0 0
1784 357 3 0 -5.572310590936546 -9.68769765381953 -1.1970403789802333 10 1 0
1514 303 3 0 -1.9498492244408627 -9.963198894706634 -1.7011665099998332 12 1 0
1781 357 1 0 -5.364149204140413 -9.337441915780722 -1.0451414779284924 10 1 0
1785 357 3 0 -5.539770519043122 -8.958653345328358 -1.2319967026127596 10 1 0
2913 638 4 0 -5.641212307213387 -8.851465368802522 -1.608745804222238 11 1 -1
1783 357 3 0 -4.940010076006844 -9.361861921914922 -1.1487900891057965 10 1 0
1253 251 3 0 -2.9164630178012114 -8.859530946140303 -1.5019528595482416 12 1 -1
2912 638 2 0 -5.578385071254091 -8.420520383033702 -1.6324308716193983 11 1 -1
2914 638 4 0 -5.524017627273596 -7.986977547468384 -1.646083351426645 11 1 -1
1255 251 3 0 -2.9807966920951205 -8.110563608433258 -1.5471657536865617 12 1 -1
3745 915 4 0 -2.949505327975536 -8.06522345367671 -1.1563991916080738 4 0 -1
2211 443 1 0 -0.2689177526446471 -8.115186258778735 -1.6349015683943904 12 1 1
2214 443 3 0 -0.33813457956215665 -8.550602090405826 -1.5903832530561761 12 1 1
2215 443 3 0 -0.20897860528692824 -7.937555853222941 -1.2536926223055804 12 1 1
932 187 3 0 -5.352700527363318 -7.692860434085252 -1.4071720665487284 6 0 0
931 187 1 0 -5.383768645568704 -7.39605100582164 -1.0856461971644524 6 0 0
933 187 3 0 -5.811837119897198 -7.357221238520279 -0.9545072942859552 6 0 0
970 194 3 0 -10.15366374220397 -6.945970689695506 -1.5945630129061765 16 1 0