LAMMPS data file via write_data, version 4 Feb 2025, timestep = 8500000, units = lj

3435 atoms
4 atom types
2576 bonds
1 bond types
3004 angles
2 angle types

-10 10 xlo xhi
-10 10 ylo yhi
-10 10 zlo zhi

Masses

1 1
2 1
3 0.1
4 0.1

Bond Coeffs # harmonic/omp

1 100 0.45

Angle Coeffs # harmonic/omp

1 100 180
2 100 109.471

Atoms # full

3306 816 4 0 -7.989208907416774 -9.784449655994782 -8.922849516604648 1 1 0
3304 816 2 0 -8.039353177982704 -9.485297639594933 -8.579419685636646 1 1 0
1884 377 3 0 -7.7104106209930805 -9.839435850753697 -9.186396582700354 1 0 0
1812 363 3 0 -2.2245038858783697 -9.757324377466462 -8.893354990387742 0 0 0
1811 363 1 0 -1.9635892811781719 -9.929410387894672 -9.204218770583038 0 0 0
1815 363 3 0 -1.6531372971582217 -9.64005746083386 -9.313081340630626 0 0 0
2367 503 4 0 7.411450641795312 -1.3883781586329498 -0.5410208003611376 -1 0 0
334 67 3 0 3.479629980130267 -9.003731400092994 -9.521725637456134 0 -1 -1
335 67 3 0 2.909146712416626 -9.040375060119125 -9.040800654767159 0 -1 -1
331 67 1 0 3.27171527857494 -8.79189486321417 -9.189841877595219 0 -1 -1
332 67 3 0 3.5614504581241966 -8.727940008241529 -8.8544710048614 0 -1 -1
333 67 3 0 3.120678642387414 -8.389244046063999 -9.346564153762186 0 -1 -1
2689 611 2 0 3.0678657328586825 -9.93048193221923 -8.464459873995912 0 1 0
2361 501 4 0 -5.6244933040032965 -7.427999704208742 -9.726144055439734 0 1 0
1113 223 3 0 -7.856118628606913 -5.488620869982366 -8.95101486897104 0 1 0
1112 223 3 0 -7.501272528668941 -5.486185851371543 -9.588018540885498 0 1 0
1115 223 3 0 -7.1553311050151684 -5.48512841478762 -8.964126154768337 0 1 0
1111 223 1 0 -7.492708004567684 -5.630270720416087 -9.15636403641375 0 1 0
1114 223 3 0 -7.490823428273653 -6.063799891530847 -9.157668454666815 0 1 0
2453 532 4 0 -6.863443685156979 -5.5925262414193035 -8.692811033432111 1 0 0
2283 475 4 0 -7.4257315657649965 -5.14614125089131 -9.784807410038356 1 0 1
2452 532 2 0 -6.744147353129519 -5.271112024666428 -8.42354015422644 1 0 0
1578 316 3 0 5.435563597139658 -6.412009319015227 -9.40251049510232 -1 1 1
2463 535 4 0 5.45097663429465 -5.526041461906832 -9.740300564873413 0 0 0
1580 316 3 0 5.723453835503693 -5.834997711918417 -9.646117706974454 -1 1 1
1579 316 3 0 5.698240614894619 -5.946408651957419 -8.942148058209426 -1 1 1
1576 316 1 0 5.744880234248948 -6.135847442584292 -9.343353522985048 -1 1 1
1577 316 3 0 6.140676079778361 -6.341721997598962 -9.369754999926215 -1 1 1
1824 365 3 0 6.824926672869473 -5.00869224480285 -8.69051409551039 -1 1 0
1825 365 3 0 6.770307830922728 -5.476317115238096 -9.270059427021131 -1 1 0
1821 365 1 0 6.588770385234427 -5.103123237974472 -9.068708465108747 -1 1 0
3288 810 4 0 6.457106477146963 -6.572328664080983 -9.329671913481873 1 1 1
3286 810 2 0 6.678501567830471 -6.551754469451415 -8.934109009496579 1 1 1
3287 810 4 0 6.903352286415318 -6.532897930382021 -8.512653102199224 1 1 1
1334 267 3 0 9.61014022383651 -4.910668684924142 -8.54688010466667 0 0 1
1379 276 3 0 -8.350262252961105 -4.058494676767401 -8.62355995260347 1 1 1
1376 276 1 0 -8.175289809755485 -3.6674599592311283 -8.493375455405776 1 1 1
1347 270 3 0 1.429992550242031 -9.970555150311908 -1.5530443754684007 0 0 0
1378 276 3 0 -7.7285589993271 -3.7444999857749317 -8.348359488045238 1 1 1
2285 476 4 0 -7.5730878252938245 -3.939377737252291 -8.639860710611195 1 0 -1
2284 476 2 0 -7.136147139488496 -4.067283745225358 -8.585819542006499 1 0 -1
2059 412 3 0 -5.880602341472545 -4.552660005145594 -8.743922042520946 0 0 1
3092 745 4 0 -6.392941601627338 -3.462864596037983 -9.986492235075055 -1 0 0
2057 412 3 0 -6.386378105796356 -4.014692222433424 -8.583871345490573 0 0 1
2286 476 4 0 -6.7403781380267995 -4.180394670383313 -8.535147666930564 1 0 -1
2872 672 2 0 0.5860349095835397 -3.737910421194702 -9.819622335895243 0 1 1
2873 672 4 0 0.9456563400725754 -3.683031937452034 -9.565366445998826 0 1 1
1875 375 3 0 1.2229978504320862 -3.6339279008151046 -9.822970687176126 0 1 1
1874 375 3 0 1.957811636420844 -3.7377257049801145 -9.676730823914895 0 1 1
1871 375 1 0 1.6624851821018853 -3.4697396985884974 -9.891471063416706 0 1 1
1823 365 3 0 6.615162672438048 -4.745910903031995 -9.364601496641601 -1 1 0
1822 365 3 0 6.121298946791279 -5.181418674836219 -8.951437464831075 -1 1 0
3062 735 4 0 6.8897461698102855 -4.482081963143106 -9.51247029864187 -1 0 0
3063 735 4 0 7.6812265464740905 -4.099517438966839 -9.505898863307591 -1 0 0
3061 735 2 0 7.272902931456295 -4.296586177361831 -9.510692371357772 -1 0 0
2073 415 3 0 8.03610370051062 -4.023381437854897 -9.397597761414012 -1 0 1
2071 415 1 0 8.249220360641175 -3.6733985439841663 -9.56757072952 -1 0 1
2072 415 3 0 8.62594577835373 -3.5749057550579546 -9.311779327150669 -1 0 1
1335 267 3 0 9.678304538325357 -4.4605598127613115 -9.131612584556466 0 0 1
2075 415 3 0 8.374088124752927 -3.763878746094156 -9.9841933468172 -1 0 1
1333 267 3 0 9.051311635346567 -4.788954915841467 -8.994815451568673 0 0 1
1331 267 1 0 9.485895977646365 -4.835372575987554 -8.98028463311304 0 0 1
1332 267 3 0 9.603108319087132 -5.179215582323079 -9.235617769814205 0 0 1
269 54 3 0 -9.689693969501215 -4.219014514831928 -8.102603909869284 1 0 -1
1380 276 3 0 -8.177513553085657 -3.3802094766140893 -8.84296705338763 1 1 1
3091 745 2 0 -6.2894008175727185 -3.0472076162693793 -9.750936801818536 -1 0 0
3093 745 4 0 -6.18805187212847 -2.6784412492480034 -9.543995096802199 -1 0 0
2927 690 4 0 -6.162302005897975 -2.403503858206615 -9.252089979410943 0 1 0
2926 690 2 0 -5.9545958836892305 -2.088706965246552 -8.995225274563472 0 1 0
2928 690 4 0 -5.757443076892994 -1.7698076567281877 -8.743611614847065 0 1 0
982 197 3 0 -5.377205024166106 -1.6943174211029346 -8.649638829077972 0 0 0
983 197 3 0 -4.899425893355862 -1.8620488836815419 -9.228456221359261 0 0 0
981 197 1 0 -4.963138711211717 -1.6090808896781872 -8.815413659141255 0 0 0
2343 495 4 0 -5.163805579922935 -1.7076828115559266 -9.524708077142348 0 1 0
2341 495 2 0 -5.233879773573161 -1.9636916899137296 -9.898764402866478 0 1 0
985 197 3 0 -4.661918580009261 -1.735195801896948 -8.522500910704942 0 0 0
2189 444 4 0 -4.6737203723095995 -2.0929401909616345 -8.344189426241316 0 0 0
1277 256 3 0 -1.50873898898272 -2.468724761654258 -8.740369740718403 0 0 0
1872 375 3 0 1.7021880084737258 -3.0667234367052347 -9.739868227614354 0 1 1
2204 449 4 0 7.066428614962508 -3.053309939452366 -8.974360716596584 0 0 0
243 49 3 0 6.266976600324778 -2.2487790505943988 -8.927128686621664 0 0 0
242 49 3 0 6.1472048162222315 -2.8973289565968283 -8.578171482502011 0 0 0
245 49 3 0 6.794649697829649 -2.753881463307375 -8.910898578763616 0 0 0
241 49 1 0 6.457626491086088 -2.572956872558939 -8.681502355090782 0 0 0
244 49 3 0 6.619566849722724 -2.3848086283860495 -8.298246283750473 0 0 0
2074 415 3 0 7.987298757291043 -3.3329074655522364 -9.570958556153784 -1 0 1
2203 449 2 0 7.42906185481569 -3.023199670238441 -9.233058903795175 0 0 0
2205 449 4 0 7.796427384811049 -2.991447231837422 -9.477104004145422 0 0 0
1529 306 3 0 7.727394636027551 -2.0113783122651534 -8.749841381908153 -1 0 1
1526 306 1 0 8.17058597208385 -1.8981691005004813 -8.871918928914488 -1 0 1
2604 582 4 0 8.750797827126133 -3.3399273641515914 -8.995319001596087 0 0 1
2602 582 2 0 8.786078711469003 -3.0082572401519316 -8.684273228130305 0 0 1
1530 306 3 0 8.462116989491356 -2.1781180636137765 -8.67934742218477 -1 0 1
984 197 3 0 -4.921725920883047 -1.1804774501553907 -8.899986332464788 0 0 0
2554 566 2 0 -5.0407704440860055 -0.5161083281132203 -8.515069166502979 1 -1 1
2556 566 4 0 -4.902160980380197 -0.7619377622021657 -8.882967185412816 1 -1 1
2555 566 4 0 -5.171013971282285 -0.2783390798236969 -8.149767830639453 1 -1 1
2733 625 4 0 0.37687157396798965 -0.9812731825186288 -9.987756954454177 0 0 0
1709 342 3 0 0.5981038036900926 -0.7271398085071185 -9.783128907279048 1 1 1
1707 342 3 0 0.8158064900841242 -1.072141529277308 -9.139913095313334 1 1 1
1706 342 1 0 0.61798675508285 -0.6974412971318136 -9.300437121861814 1 1 1
1710 342 3 0 0.19341841887919203 -0.6707267471443528 -9.131566485379237 1 1 1
1708 342 3 0 0.8645731307058494 -0.33415493023905757 -9.176678931011699 1 1 1
1527 306 3 0 8.216147090250878 -1.9320060073423877 -9.354348629723438 -1 0 1
1528 306 3 0 8.260246272573577 -1.4547966877950544 -8.729204495140785 -1 0 1
833 167 3 0 -8.310134648766871 -8.659774705386218 -7.31198176447778 0 0 0
835 167 3 0 -7.6241571292432475 -8.459389830278905 -7.551661672090014 0 0 0
831 167 1 0 -7.964117080155941 -8.78818907207764 -7.559644470292099 0 0 0
834 167 3 0 -7.80658076049881 -9.170517825285648 -7.4136598476036895 0 0 0
832 167 3 0 -8.102366277040502 -8.856559169009996 -8.009450129959333 0 0 0
3305 816 4 0 -8.080003178356064 -9.191469005069061 -8.24323157103923 1 1 0
2379 507 4 0 -7.529151965398529 -9.372226044838667 -7.21033313797999 0 0 -1
2377 507 2 0 -7.5207313180370186 -9.500038755204885 -6.775470275861683 0 0 -1
2482 542 2 0 -4.819101600797396 -9.857982942284247 -7.523762575494143 0 0 0
2108 422 3 0 -4.971672435631264 -9.120860459678676 -7.151638741094445 0 0 1
2109 422 3 0 -4.461195394846602 -8.97251438529049 -6.6361511974709595 0 0 1
2849 664 4 0 -4.348293514841888 -8.650430388162912 -6.875400406713282 1 0 0
2483 542 4 0 -4.886399616254446 -9.421714221965805 -7.373989135980119 0 0 0
2106 422 1 0 -4.9222861153613255 -9.041099517334652 -6.733815498898297 0 0 1
2107 422 3 0 -5.148468091769888 -8.687435798874855 -6.616762833499557 0 0 1
2848 664 2 0 -3.9813043047591745 -8.488743881040136 -6.687911156943453 1 0 0
746 150 1 0 -0.7919346489889223 -8.832761803460736 -6.644499899797099 0 0 0
747 150 3 0 -0.8723320427449273 -8.719545495150337 -7.0924145893069355 0 0 0
1678 336 3 0 -0.44270986378262916 -9.801659491896919 -8.46278335999733 0 1 0
2691 611 4 0 2.8003991814319504 -9.76449827674415 -8.10707912627284 0 1 0
225 45 3 0 2.693674286094984 -9.094010302053949 -7.384455521389331 -2 1 0
224 45 3 0 3.3813860446356334 -9.323326253129572 -7.357390109594772 -2 1 0
222 45 3 0 3.213956747681442 -8.72895403766914 -7.782720099500226 -2 1 0
221 45 1 0 3.0731528093812748 -9.14125822735975 -7.620329416608634 -2 1 0
223 45 3 0 3.001880894077367 -9.434348981936619 -7.98515074712771 -2 1 0
1065 213 3 0 -8.709450245858031 -7.3590772536633855 -6.343037694311033 0 1 0
386 78 1 0 4.855042752417767 -7.024670749575391 -7.1068353281083985 0 0 0
390 78 3 0 5.152734736720648 -6.76438445604774 -6.928016719272955 0 0 0
389 78 3 0 4.70737311303397 -6.838937340851695 -7.4704577794035805 0 0 0
387 78 3 0 4.516451703709785 -7.099979850823085 -6.81367500451069 0 0 0
388 78 3 0 5.046641812497164 -7.411925486296787 -7.212127965854103 0 0 0
2671 605 2 0 7.096195587406918 -6.837899196936467 -7.4246323721194125 -1 0 1
2673 605 4 0 7.159651847753363 -7.130947634320993 -7.1238813177010165 -1 0 1
228 46 3 0 -9.458839432824552 -5.005540892753935 -6.922532547813426 1 0 1
226 46 1 0 -9.30240128417914 -5.404580978976275 -6.834913684341305 1 0 1
229 46 3 0 -9.592426930845512 -5.712945712516917 -6.973035979036477 1 0 1
227 46 3 0 -8.933938293546735 -5.467299378736563 -7.031216643082099 1 0 1
425 85 3 0 6.60406009494126 -5.726247925030295 -8.010953747923248 -1 0 0
423 85 3 0 7.012477912908812 -6.139802198091487 -8.440032010950604 -1 0 0
422 85 3 0 7.284907282192262 -5.5512898360663305 -8.070710028932682 -1 0 0
2672 605 4 0 7.040902798735865 -6.539907148221289 -7.720326746528337 -1 0 1
424 85 3 0 7.073261032594161 -6.144752815132025 -7.688731617368912 -1 0 0
421 85 1 0 6.996795024575439 -5.883697044888709 -8.046473351295816 -1 0 0
268 54 3 0 -9.526424474638876 -4.8960285801909045 -7.913882675516858 1 0 -1
2565 569 4 0 -8.659310551677097 -3.669210772352637 -7.87578274906626 0 0 0
2563 569 2 0 -9.070599457980736 -3.555880402333021 -7.729723056990875 0 0 0
2564 569 4 0 -9.48425399771825 -3.4418303583083496 -7.57516095322051 0 0 0
266 54 1 0 -9.850976806001073 -4.625206681093115 -8.031208341782804 1 0 -1
62 13 3 0 -9.891227769050074 -3.3889536115298737 -7.609871781337059 1 0 0
1377 276 3 0 -8.423949634514523 -3.4900265725312005 -8.147966130457736 1 1 1
2454 532 4 0 -6.60753329074875 -4.9187252759610764 -8.124294495331608 1 0 0
2058 412 3 0 -6.329485205599966 -4.617849113475222 -8.127510000065639 0 0 1
2056 412 1 0 -6.100693991538304 -4.3169895917187855 -8.409463027984305 0 0 1
2060 412 3 0 -5.783962897942953 -4.091171951816347 -8.158331613871066 0 0 1
2952 698 4 0 -5.414132043350104 -3.946837517772162 -8.19116125273594 1 0 0
2950 698 2 0 -5.077366213622467 -3.707889873419608 -7.917664083662513 1 0 0
2951 698 4 0 -4.768825701940834 -3.492463291222296 -7.666918476364596 1 0 0
1654 331 3 0 -3.8708007471667463 -3.2716491223194484 -7.141722216846329 0 1 1
1653 331 3 0 -4.4797771961067285 -3.5428555111797535 -7.397337356864745 0 1 1
1907 382 3 0 5.6849985857427665 -3.6982298026627207 -6.4242782444693605 0 0 0
1906 382 1 0 5.923404449508088 -3.9668150364872066 -6.692843632777143 0 0 0
1908 382 3 0 5.851379395554618 -4.386054348314776 -6.572483388239495 0 0 0
1909 382 3 0 5.80122121893779 -3.907620763834668 -7.096775786359861 0 0 0
482 97 3 0 8.07679469399296 -4.344383173048411 -8.012069675743948 -1 1 0
2222 455 4 0 8.015499044596094 -3.688294038179471 -7.341040864716957 0 0 0
481 97 1 0 7.970484522727541 -4.415715943863488 -7.580958650935647 -1 1 0
485 97 3 0 7.825731513906342 -4.042331486795034 -7.407280145263206 -1 1 0
483 97 3 0 7.658629122890125 -4.733066937085659 -7.561579462199193 -1 1 0
484 97 3 0 8.336845400177966 -4.54834321061724 -7.356961440464304 -1 1 0
267 54 3 0 9.956563543408798 -4.784887740770348 -8.39408274571564 0 0 -1
270 54 3 0 9.854033127770823 -4.606501289326863 -7.693329457543488 0 0 -1
2699 614 4 0 9.58333021677923 -4.491863928105063 -7.416049513230188 0 1 1
2700 614 4 0 8.674792035845881 -4.458340327416419 -7.497737653342522 0 1 1
2698 614 2 0 9.109417485673116 -4.47728516069101 -7.45620854361635 0 1 1
65 13 3 0 9.58564337142759 -3.4737573179545738 -8.131381937190945 0 0 0
1651 331 1 0 -4.248949142854129 -3.166790486906992 -7.261581132731263 0 1 1
2188 444 2 0 -4.380546330485096 -2.327836686225329 -8.11878091963763 0 0 0
1655 331 3 0 -4.476651930850449 -2.9660680501323764 -6.92577803982108 0 1 1
1652 331 3 0 -4.215618117195075 -2.8753746905339805 -7.61838653255142 0 1 1
2190 444 4 0 -4.061163444730563 -2.5783443824396604 -7.876023563719467 0 0 0
2229 457 4 0 -4.223904795683591 -2.6531940488111436 -6.79851807452504 0 0 0
1278 256 3 0 -1.464522877273317 -2.8712557445597877 -8.10119629539492 0 0 0
1276 256 1 0 -1.374620805688335 -2.4666152072384007 -8.285943847174329 0 0 0
1279 256 3 0 -0.9419773157390322 -2.3858589897928417 -8.266518398853199 0 0 0
1280 256 3 0 -1.586897232367611 -2.1418209199044638 -8.054201872754046 0 0 0
2558 567 4 0 -0.5690744369637838 -2.5228901667440584 -8.206496669714568 0 0 1
1029 206 3 0 -0.12641928557840204 -2.5042217286376887 -6.968001598141643 0 0 1
1026 206 1 0 0.2624939701780159 -2.35737812569739 -7.078901630457661 0 0 1
1028 206 3 0 0.3213203981247457 -2.393766799743806 -7.535758031979463 0 0 1
2557 567 2 0 -0.1482022224981999 -2.4574672390518626 -8.072705290930863 0 0 1
2559 567 4 0 0.27992189248610777 -2.3914622374792023 -7.938426835189991 0 0 1
1030 206 3 0 0.2966398863364984 -1.945697513383097 -6.956458857887285 0 0 1
1027 206 3 0 0.5805883054008872 -2.6044461735611453 -6.873067500348062 0 0 1
3371 838 4 0 0.5840223202870336 -1.6942878289001182 -6.902883005525212 0 0 1
3262 802 2 0 6.733674377536747 -2.6315957354030557 -7.541736439448991 0 0 1
3264 802 4 0 6.722909856023498 -2.380775214933718 -7.887994733113779 0 0 1
3263 802 4 0 6.7553519301903515 -2.9035230303951507 -7.1765902742919625 0 0 1
1795 359 3 0 6.764338399779704 -3.1083006471245653 -6.846539772302109 -1 0 0
2221 455 2 0 7.920003163073505 -3.2639604012712313 -7.36300072237899 0 0 0
2223 455 4 0 7.826236505120737 -2.8134848055504427 -7.380298948988813 0 0 0
1400 280 3 0 8.009236006707717 -2.1392190544726906 -8.090031936535913 -1 0 0
1399 280 3 0 8.708451409056948 -2.4411724361091554 -8.023558579649333 -1 0 0
1396 280 1 0 8.328807709843492 -2.2686519843175263 -7.783060187454673 -1 0 0
1397 280 3 0 8.152501180318769 -2.6125539088079766 -7.4954150742836285 -1 0 0
1398 280 3 0 8.460848220610899 -1.9142637184756575 -7.5352440304002215 -1 0 0
2603 582 4 0 8.81942799741308 -2.672179665012172 -8.364555859472425 0 0 1
61 13 1 0 9.735462207034592 -3.202622848080447 -7.800810398300142 0 0 0
64 13 3 0 9.83776330701746 -2.800132084685475 -7.979275640895977 0 0 0
63 13 3 0 9.433079465946198 -3.156986086785192 -7.505228692278081 0 0 0
2670 604 4 0 9.082056426772168 -3.1181725105985114 -7.3059798459265215 0 0 1
2668 604 2 0 9.06176071767257 -2.7535924160770167 -7.018069822463878 0 0 1
2427 523 4 0 -8.957953715261917 -0.9783798460843448 -6.837419843717572 1 0 0
2123 425 3 0 7.707715438918018 -0.09524295012747618 -3.9177357324056388 0 1 1
3301 815 2 0 7.7546026490561095 -0.5391702843826547 -6.765115430738873 0 0 0
3303 815 4 0 7.644133111222993 -0.23777191169444195 -7.080208389190214 0 0 0
1629 326 3 0 8.764630363208259 -1.28353972073911 -6.535441247347319 0 0 1
147 30 3 0 -9.241802574617058 -8.98570841254826 -6.402795959049979 2 1 0
146 30 1 0 -9.656114247571583 -9.024240287484758 -6.195756354108144 2 1 0
148 30 3 0 -9.867041396704899 -8.634303547668692 -6.2079530155051 2 1 0
149 30 3 0 -9.91098729114591 -9.35733905567736 -6.41406807946841 2 1 0
150 30 3 0 -9.594754158606172 -9.144512398546293 -5.7711541951404355 2 1 0
2378 507 4 0 -7.502784824522761 -9.624396376687338 -6.344648120510056 0 0 -1
345 69 3 0 -7.424383129024583 -9.349878010366684 -6.056054956717403 0 -1 0
341 69 1 0 -7.252645929115351 -9.57357628305729 -5.666400560503248 0 -1 0
342 69 3 0 -7.566903464139978 -9.620428463102568 -5.372066365738502 0 -1 0
343 69 3 0 -6.911155366911175 -9.316230462536645 -5.499090192273746 0 -1 0
344 69 3 0 -7.089097064092717 -9.974042807298167 -5.777090542035121 0 -1 0
3256 800 2 0 -6.709250806681059 -8.578794754825173 -5.342949339711389 0 1 1
3258 800 4 0 -6.914237698383418 -8.974942434117336 -5.280550715378492 0 1 1
2376 506 4 0 -5.3695483683722305 -9.588841232028294 -6.265102458919418 0 0 0
2374 506 2 0 -5.438628928759499 -9.98737249928529 -6.095567031096537 0 0 0
2110 422 3 0 -5.083397683476776 -9.409428324926411 -6.4776810206190625 0 0 1
3213 785 4 0 -5.453882200083572 -8.456617588156508 -6.79483143635313 0 1 0
2850 664 4 0 -3.5960246815036316 -8.308085717201948 -6.4940819491451895 1 0 0
829 166 3 0 -3.2984997419122974 -8.861062000896583 -5.66656864278629 0 0 0
826 166 1 0 -3.0692974359272616 -8.504395617482402 -5.859110409791953 0 0 0
827 166 3 0 -2.690291313084644 -8.667635712831853 -6.048150809598213 0 0 0
2997 713 4 0 -2.3109753273886056 -8.679464920626325 -5.8928773406089165 0 1 0
750 150 3 0 -1.1795942953469198 -8.94723909938927 -6.455052859749205 0 0 0
2996 713 4 0 -1.5843950608986153 -8.890291492504135 -6.375499208596206 0 1 0
2995 713 2 0 -1.9684460974363267 -8.781829248377171 -6.123233666582223 0 1 0
3172 772 2 0 -0.8682776354289339 -9.91801977649736 -6.503913288523494 0 0 0
749 150 3 0 -0.6130711235832208 -8.466929025112268 -6.422542382630965 0 0 0
748 150 3 0 -0.5021258356404518 -9.185124169126448 -6.619988232365994 0 0 0
3173 772 4 0 -0.587336489142051 -9.545148582654503 -6.456061604663133 0 0 0
1887 378 3 0 6.029305322755978 -8.701472037440878 -4.853319436462627 0 0 1
1188 238 3 0 8.24860747801789 -8.546507692319976 -5.169233693023845 0 0 1
2365 503 2 0 7.3331626974108595 -1.0857941386980179 -0.2166612704813913 -1 0 0
3055 733 2 0 -9.055908946572767 -8.285629803497885 -5.311964253613563 -1 0 0
3057 733 4 0 -9.047854832699729 -8.108804728742912 -5.693479459151185 -1 0 0
1061 213 1 0 -8.671157516950789 -7.761906870587249 -6.181526930959022 0 1 0
1062 213 3 0 -9.056738440350097 -7.920540702689538 -6.065503458163945 0 1 0
1064 213 3 0 -8.504054453365686 -8.024380290384833 -6.4911198436752935 0 1 0
1063 213 3 0 -8.398147452311004 -7.755777810458875 -5.824546062401692 0 1 0
3427 857 2 0 -7.577219065489208 -7.662128601870966 -5.918450094879027 0 0 0
3429 857 4 0 -8.030974324262314 -7.689718341910818 -5.895175108006627 0 0 0
3428 857 4 0 -7.129769997427009 -7.6360517926886935 -5.948453260841205 0 0 0
3212 785 4 0 -6.146532120314278 -7.998039955860283 -6.512989021856748 0 1 0
1040 208 3 0 -6.148235175271083 -7.67560087937401 -6.263529593569543 0 0 0
1036 208 1 0 -6.509247998522216 -7.5993032713305135 -6.024428095514124 0 0 0
1038 208 3 0 -6.848973696443662 -7.729025781301694 -6.239563787426422 0 0 0
1037 208 3 0 -6.468360641512344 -7.833323082297489 -5.620552281208242 0 0 0
1039 208 3 0 -6.539905054360613 -7.16719213614064 -5.942955858096788 0 0 0
3257 800 4 0 -6.499772414022426 -8.155780912329945 -5.405613570880028 0 1 1
3211 785 2 0 -5.798242315542516 -8.229470548457442 -6.65302102208226 0 1 0
828 166 3 0 -3.3370599331211386 -8.30036258339893 -6.182241502181576 0 0 0
830 166 3 0 -2.9553598183341316 -8.201362916526222 -5.5455454964055315 0 0 0
1373 275 3 0 9.491483733812073 -8.13301450070284 -5.119259611942815 -1 1 1
1374 275 3 0 8.761389038157532 -8.05868565320949 -4.996548164418047 -1 1 1
230 46 3 0 -9.231904561745342 -5.451750813284636 -6.38182342373387 1 0 1
1432 287 3 0 -8.92312514643458 -3.2396539055864064 -5.194552192725783 0 1 0
3200 781 4 0 -9.76193382799264 -3.252388378206318 -5.81012165028711 0 0 0
1783 357 3 0 -8.30543160128239 -4.637760378300477 -5.147936011909112 0 0 1
1781 357 1 0 -8.194439554173744 -4.181955787025968 -5.142046601409969 0 0 1
1784 357 3 0 -7.886866724848244 -4.092201339082802 -5.438675210846843 0 0 1
1910 382 3 0 6.3215071985058175 -3.87085376056793 -6.653325900125661 0 0 0
1434 287 3 0 -9.519545688290416 -3.505760043246926 -5.590578264070661 0 1 0
1431 287 1 0 -9.383585588666987 -3.29450559583734 -5.19658471720451 0 1 0
2330 491 4 0 -8.981055295445074 -1.7624817263573433 -5.061699509713049 0 0 0
2227 457 2 0 -4.3946457742461105 -2.3462506471670226 -6.548896102331009 0 0 0
2228 457 4 0 -4.57368109373242 -2.032141728516342 -6.290958542689902 0 0 0
882 177 3 0 -4.895116809088507 -1.9388741200886508 -6.074010576373573 0 0 1
885 177 3 0 -5.179045615139476 -1.6624822971074489 -5.482307687379056 0 0 1
883 177 3 0 -4.466931844448069 -1.846687710905793 -5.488773115752387 0 0 1
881 177 1 0 -4.823212248041907 -1.6806438995239643 -5.733612548188106 0 0 1
2477 540 4 0 0.9730137447179158 -2.647298975171474 -6.8091919534393535 -1 0 0
1437 288 3 0 1.9560259974060366 -2.4368008596609934 -5.739512203746848 1 1 -1
2476 540 2 0 1.1644396955673713 -2.7431252468300333 -6.413864781891388 -1 0 0
2478 540 4 0 1.3678547711291698 -2.84311837010545 -6.018625223022719 -1 0 0
1440 288 3 0 1.3236952217086324 -2.785910855584117 -5.609546084154348 1 1 -1
1436 288 1 0 1.6631501839000746 -2.5320954255409776 -5.425897523728573 1 1 -1
1438 288 3 0 1.8592062190911882 -2.7695318648136507 -5.093188285606858 1 1 -1
1794 359 3 0 6.2812534597944705 -2.7731375684015043 -6.433343831638684 -1 0 0
1792 359 3 0 6.9859280291259 -2.4834147925772916 -6.493019143977589 -1 0 0
1791 359 1 0 6.710315554255469 -2.879025144527076 -6.4759879906848905 -1 0 0
1793 359 3 0 6.819146038698716 -3.1289076474098523 -6.138234919697696 -1 0 0
2322 488 4 0 6.874990664794235 -2.978634237781098 -5.753293673424596 0 0 0
2320 488 2 0 6.9833027389129505 -2.9546626197018004 -5.326756497550802 0 0 0
3166 770 2 0 8.278773959379771 -2.384379902381872 -5.273368654857369 0 0 1
1628 326 3 0 8.120637649898896 -1.5575222263977557 -6.649083001043775 0 0 1
3168 770 4 0 8.01400536783977 -2.620791738094699 -4.940991497597016 0 0 1
2434 526 2 0 7.056887635911901 -1.6360262470749205 -5.214756111482524 -1 0 -1
3199 781 2 0 9.869527652392742 -3.360694916258891 -6.1053096291598825 -1 0 0
3201 781 4 0 9.520682089092816 -3.464839129117749 -6.3893296803954085 -1 0 0
2669 604 4 0 9.039811585204838 -2.4127135221252507 -6.751232331363734 0 0 1
3167 770 4 0 8.506556754254389 -2.1572439020951055 -5.56824429729187 0 0 1
292 59 3 0 8.874225651688965 -2.0218282833308843 -5.718100265018597 0 0 0
294 59 3 0 8.915885741311877 -2.251909882203142 -6.410311083404301 0 0 0
291 59 1 0 9.148568310129 -2.0821402338377766 -6.0537634117762815 0 0 0
293 59 3 0 9.464304659438309 -2.362873764845323 -5.939005940822957 0 0 0
71 15 1 0 -9.020190388505377 -1.0076336432796518 -5.244924377413642 -1 -1 -1
2426 523 4 0 -9.144770027708692 -1.0862395643301535 -5.943525181794466 1 0 0
74 15 3 0 -9.121215548994655 -0.8384793812793052 -5.641085451581251 -1 -1 -1
73 15 3 0 -9.356741414491214 -0.8928937786871058 -4.930625219309405 -1 -1 -1
2425 523 2 0 -9.05508930524672 -1.0354660920027277 -6.376933595598357 1 0 0
593 119 3 0 -7.48016868259708 -1.1426008071975675 -5.318475922954161 1 0 1
591 119 1 0 -7.10702380830251 -1.1809732856357211 -5.094646089137446 1 0 1
2963 702 4 0 -5.513120566227213 -1.4591702139583125 -5.410388134439786 1 1 0
595 119 3 0 -7.031406550194145 -0.8222538929605734 -4.848651229150472 1 0 1
592 119 3 0 -6.770287939472596 -1.2443028794825206 -5.380666572223163 1 0 1
2964 702 4 0 -6.376471712324678 -1.3779624300043576 -5.293891326654852 1 1 0
2962 702 2 0 -5.947737043414789 -1.4141025320019185 -5.348311175513783 1 1 0
884 177 3 0 -4.723899434607165 -1.2720308990239264 -5.885388462337556 0 0 1
2811 651 4 0 -4.491606082778407 -1.072948280689838 -6.16393019670558 0 0 1
2809 651 2 0 -4.381364213675556 -0.666049265823183 -5.99325334380959 0 0 1
2810 651 4 0 -4.274370746405771 -0.27175868680932636 -5.815663615559562 0 0 1
679 136 3 0 0.7093932564323848 -1.3541058698150175 -5.1966555371996 0 1 0
3370 838 2 0 0.8805748167699482 -1.6410509429192774 -6.562762742831207 0 0 1
677 136 3 0 0.9631111595156834 -1.4426459310306705 -5.885983542252678 0 1 0
678 136 3 0 0.9532939404503604 -0.7799580552170347 -5.601840282550489 0 1 0
3372 838 4 0 1.171746078707201 -1.5919210569099382 -6.226282082763283 0 0 1
680 136 3 0 1.4385202928108711 -1.2651513547087732 -5.356789546585789 0 1 0
2832 658 4 0 0.7730787287373306 -0.5508571740000535 -5.877478053284471 -1 0 0
2830 658 2 0 0.9962672919421609 -0.23913859632642107 -6.092263601005972 -1 0 0
676 136 1 0 1.0205149857388223 -1.2066744242985812 -5.51833031218951 0 1 0
1226 246 1 0 6.445161879230719 -0.6949563539862178 -5.364274872581684 -1 0 0
1230 246 3 0 6.40899652090539 -0.3960427920086869 -5.735080824231084 -1 0 0
1227 246 3 0 6.030704219637041 -0.8346022185071763 -5.247642138245002 -1 0 0
3162 768 4 0 5.74116268186679 -0.6607959663467494 -5.043100038951269 0 1 1
1229 246 3 0 6.712901759028184 -1.064442543861341 -5.490370540817833 -1 0 0
2435 526 4 0 6.987383564623223 -1.3645105953758985 -5.507451425643239 -1 0 -1
3302 815 4 0 7.854937355290752 -0.826345769567179 -6.463195774970956 0 0 0
1627 326 3 0 8.202818846293717 -0.9323275978146202 -6.298326682287226 0 0 1
1626 326 1 0 8.376545419800387 -1.3253397566215874 -6.366904110070716 0 0 1
1630 326 3 0 8.41469492645232 -1.5390195310834818 -5.983835922432564 0 0 1
295 59 3 0 9.335186795386551 -1.6902583603304508 -6.165665191047939 0 0 0
995 199 3 0 9.339858675049207 -1.0890772408940235 -6.190590232903257 0 0 1
993 199 3 0 9.706664102373756 -0.7611562068099104 -6.759008799178851 0 0 1
991 199 1 0 9.711421918022692 -0.8476222193604668 -6.304233865237721 0 0 1
992 199 3 0 9.707372140565685 -0.4763237286316875 -6.07808391858541 0 0 1
994 199 3 0 -9.944652820668068 -1.072157811317256 -6.19664979036109 1 0 1
3056 733 4 0 -9.066625126313747 -8.467508174432604 -4.893720061417487 -1 0 0
417 84 3 0 -8.95835086656781 -8.799963431655366 -4.654985143306412 0 1 -1
419 84 3 0 -9.366495106188049 -9.304315387757446 -4.967498286115886 0 1 -1
420 84 3 0 -8.86428498113502 -9.488776029759485 -4.438696180940596 0 1 -1
416 84 1 0 -9.162668917447773 -9.158477804082597 -4.579394069786627 0 1 -1
418 84 3 0 -9.452462312372779 -9.091028051637803 -4.286616503790396 0 1 -1
3411 851 4 0 -9.846901537408867 -9.042408339767551 -4.190117688251695 2 0 0
2544 562 4 0 -8.571811124924587 -9.69777964330574 -4.614856361889487 1 1 1
2542 562 2 0 -8.190192964520408 -9.568936294427676 -4.842779525615267 1 1 1
2543 562 4 0 -7.811381546551622 -9.44400327042521 -5.068956638589118 1 1 1
2954 699 4 0 1.722447967251856 -9.866664304354797 -3.512702861915788 0 0 0
1672 335 3 0 2.0641211558144215 -8.894105565944049 -3.559110222637122 -1 2 0
1675 335 3 0 1.9675896640976138 -9.590182250698534 -3.350417195439026 -1 2 0
1671 335 1 0 1.8106425147811986 -9.175507852135256 -3.3193400395091235 -1 2 0
1674 335 3 0 1.389706600188889 -9.171118103940865 -3.4808030158342067 -1 2 0
3401 848 4 0 2.4331309373263457 -8.735562778244141 -3.5352940769565877 -1 0 0
1509 302 3 0 3.6502752664845888 -9.234200086293185 -3.407234110699905 0 1 0
3402 848 4 0 3.2837834967716737 -9.029578071140172 -3.3432071928351066 -1 0 0
3400 848 2 0 2.86078538488428 -8.88583185504169 -3.4404519695249016 -1 0 0
1507 302 3 0 4.305991587137156 -8.96563691291906 -3.655272484378599 0 1 0
3408 850 4 0 5.02633778176684 -8.863401308077682 -3.8447282936938456 0 0 0
1592 319 3 0 4.9528869624478205 -8.477786528832516 -3.8160151908399174 1 1 0
1886 378 1 0 6.235554350086788 -9.105310010207225 -4.787426964204249 0 0 1
1889 378 3 0 6.678385166453121 -9.05925789944558 -4.804261947042926 0 0 1
1888 378 3 0 6.103754256389309 -9.39170698640436 -5.106928664222423 0 0 1
1890 378 3 0 6.117240323584641 -9.285972501652257 -4.3612756020434515 0 0 1
3407 850 4 0 5.851399376061485 -9.162953958644989 -4.090613646784266 0 0 0
3406 850 2 0 5.431765741655817 -9.008415683655684 -3.968496436295788 0 0 0
1186 238 1 0 8.149508246979591 -8.831590835533158 -4.84340395608747 0 0 1
1187 238 3 0 8.241967225609944 -9.242521542585788 -4.979404781301772 0 0 1
1189 238 3 0 7.71691904547324 -8.793771958745157 -4.733133039690795 0 0 1
1190 238 3 0 8.40773212043207 -8.732566489662103 -4.4828487150702285 0 0 1
3409 851 2 0 9.87518615804416 -8.672656191861646 -4.249768805538765 1 0 0
3410 851 4 0 9.623064127111972 -8.332297661875433 -4.294711867628222 1 0 0
1182 237 3 0 -4.509582454190546 -7.053576942010441 -3.203483343108065 1 1 0