LAMMPS data file via write_data, version 4 Feb 2025, timestep = 8000000, units = lj

3435 atoms
4 atom types
2576 bonds
1 bond types
3004 angles
2 angle types

-10 10 xlo xhi
-10 10 ylo yhi
-10 10 zlo zhi
0 0 0 xy xz yz

Masses

1 1
2 1
3 0.1
4 0.1

Bond Coeffs # harmonic/omp

1 100 0.45

Angle Coeffs # harmonic/omp

1 100 180
2 100 109.471

Atoms # full

1277 256 3 0 -6.017418046957192 -9.19817043027459 -9.05092658718874 9 1 -1
2900 681 4 0 -5.150516734186324 -9.191539816356043 -9.4282640313331 20 2 -1
2899 681 2 0 -4.976210328840222 -9.329448374766924 -9.831073893627067 20 2 -1
2578 574 2 0 -0.5015816366041754 -9.415174885313867 -9.985646147030467 4 0 2
1276 256 1 0 -5.865302373645383 -8.859101777861136 -9.291130873872344 9 1 -1
1280 256 3 0 -6.112995835878744 -8.789928285229436 -9.638741616990568 9 1 -1
2202 448 4 0 -6.14023564299761 -8.418872133052393 -9.7613133229688 4 0 0
1279 256 3 0 -5.450739602685309 -8.957994216785131 -9.426185909272089 9 1 -1
3434 859 4 0 -2.7611262730826294 -8.88271704145369 -9.3695351900014 13 1 1
3433 859 2 0 -2.8036329625648007 -8.477738250966668 -9.551505470143686 13 1 1
287 58 3 0 -1.2001657378985833 -8.393637451471342 -9.734067073749191 18 2 0
286 58 1 0 -0.7576942036636645 -8.355126561087213 -9.663778206691104 18 2 0
288 58 3 0 -0.5928322750017259 -8.744122929698555 -9.649335706553858 18 2 0
2580 574 4 0 -0.7576382793592842 -9.044534217996748 -9.900629348920438 4 0 2
3435 859 4 0 -2.8412342890752544 -8.068965119924949 -9.731026777040466 13 1 1
1793 359 3 0 -3.078787986954218 -7.785032107855624 -9.644542918047796 4 0 -1
1791 359 1 0 -3.227558073697864 -7.484195342742841 -9.944275167986646 4 0 -1
290 58 3 0 -0.6877631895830802 -8.13895797417608 -9.268635481664239 18 2 0
289 58 3 0 -0.5705634340902002 -8.12091156072764 -9.99962114591121 18 2 0
2643 595 4 0 -9.675495921094548 -7.087990573405486 -9.99651606884161 4 0 2
2641 595 2 0 -9.412159539240838 -6.948768861867425 -9.66380896585257 4 0 2
2642 595 4 0 -9.164786192188028 -6.814999724424782 -9.345492288117953 4 0 2
1795 359 3 0 -3.459164978831584 -7.161857448842141 -9.738364763216126 4 0 -1
2638 594 2 0 -8.03222205489482 -5.962060402493867 -9.34458587691685 5 0 1
2640 594 4 0 -7.918194893421856 -5.803781014836839 -9.716451449222742 5 0 1
377 76 3 0 -6.56400163581818 -2.8515641968012506 -9.561844711628178 10 0 0
376 76 1 0 -6.682210635977962 -2.512260522297951 -9.841542754905449 10 0 0
2503 549 2 0 -5.779695658465613 -2.8440958640093132 -9.305632453471596 -3 -1 1
2505 549 4 0 -6.22648569144479 -2.941274424326572 -9.42175293579441 -3 -1 1
2504 549 4 0 -5.339798624114174 -2.733160574169915 -9.181088312870592 -3 -1 1
1285 257 3 0 -4.962993902424139 -2.859096278737381 -9.193193163351348 10 0 0
1281 257 1 0 -4.575000310328274 -2.6523625029867928 -9.341881655809317 10 0 0
1282 257 3 0 -4.676741022672727 -2.269515950172563 -9.534890098445144 10 0 0
1283 257 3 0 -4.364144987211869 -2.9324987681055763 -9.64384885055855 10 0 0
378 76 3 0 -6.777640411574 -2.1577938253950535 -9.604151817327956 10 0 0
903 181 3 0 -3.952256972142555 -1.497641165012178 -9.778860275177209 10 0 0
2300 481 4 0 -3.7272094450163706 -1.7304490075286374 -9.99869485162385 6 0 1
3023 722 4 0 -3.193670788518597 -1.3518558200915312 -9.259054338642052 10 0 0
2404 516 2 0 -6.986789494014278 -0.5653752406755466 -9.594381169882835 6 0 0
2406 516 4 0 -7.2559158958195304 -0.8195065174202778 -9.905988111562563 6 0 0
902 181 3 0 -4.235956832025529 -1.2969690183441376 -9.132461167061084 10 0 0
901 181 1 0 -3.9379692523709187 -1.1932021295929918 -9.432131685879295 10 0 0
904 181 3 0 -4.022122161736437 -0.7588137993541473 -9.590622283801016 10 0 0
905 181 3 0 -3.5584963068674114 -1.1968528050508027 -9.262054795866606 10 0 0
2405 516 4 0 -6.726921537058088 -0.33129776662299903 -9.301718603133757 6 0 0
429 86 3 0 -6.552130105965228 0.01783763916187553 -9.382753320512865 -3 -1 0
426 86 1 0 -6.314623260561563 0.27977452478990017 -9.630739594118982 -3 -1 0
427 86 3 0 -5.860512454386619 0.2144918429471936 -9.54657819325663 -3 -1 0
1362 273 3 0 -3.4218562427976984 0.41457955478174213 -9.68775132558179 5 -1 1
2571 571 4 0 -3.6259619927421642 0.16634295900144025 -9.943703894232364 2 -1 1
2222 455 4 0 -8.09368763708074 1.1912366016740599 -9.993901817376223 11 0 0
430 86 3 0 -6.413469364003756 0.6841547077126453 -9.545886338053913 -3 -1 0
2228 457 4 0 -6.568028283459862 1.0148569052116034 -9.380320819507896 7 0 0
1364 273 3 0 -3.305288933422701 1.1621652679613366 -9.463295631310778 5 -1 1
1361 273 1 0 -3.1385100295289448 0.7268602218309468 -9.423980153436581 5 -1 1
1363 273 3 0 -2.6700840468841394 0.7070932806183787 -9.578808207104245 5 -1 1
2221 455 2 0 -8.127615654529434 1.395736487043962 -9.592414957870758 11 0 0
2223 455 4 0 -8.170489163515958 1.5988277055082882 -9.185953902107698 11 0 0
613 123 3 0 -5.561790608043847 2.1416023438901988 -9.934222604705429 8 0 1
614 123 3 0 -5.13377899466719 1.5344724162915373 -9.72020342431992 8 0 1
611 123 1 0 -5.1101112129954105 1.9761094774453731 -9.804729715555391 8 0 1
1113 223 3 0 -3.875113717498894 1.9603620081557267 -9.967879524014162 14 1 0
615 123 3 0 -4.959303410168018 2.193367767125249 -9.426030101817325 8 0 1
2780 641 4 0 -5.003362305346498 2.423853372018625 -9.08761385002346 2 -1 0
3210 784 4 0 -4.619346878781655 4.459276840799822 -9.764852721662892 5 -1 0
3208 784 2 0 -4.339065062417112 4.178179945231282 -9.984928614066707 5 -1 0
2897 680 4 0 -2.1297181318623517 4.316449577496545 -9.860827541715473 3 -1 0
963 193 3 0 -1.8740938061205235 4.519263891793637 -9.607998348987373 13 0 1
851 171 1 0 -4.905854459277975 5.2219699883329 -9.709261709144306 5 -1 1
852 171 3 0 -5.1959533525537225 5.294933896029995 -9.36819689693806 5 -1 1
855 171 3 0 -4.600531009972845 5.5588573764996525 -9.723059440346681 5 -1 1
853 171 3 0 -4.705870699256716 4.849082037483576 -9.642308973158826 5 -1 1
964 193 3 0 -2.24439717771919 5.14836720399126 -9.62746721202666 13 0 1
961 193 1 0 -1.9314617252978277 4.889543203809705 -9.40602704474485 13 0 1
2381 508 4 0 -2.484683872325249 5.234884698178359 -9.949655709972141 10 0 1
965 193 3 0 -1.570724762291528 5.092974705316697 -9.395963817821315 13 0 1
608 122 3 0 -8.833149660191076 7.349936649332566 -9.162034870192686 -5 -2 0
1960 392 3 0 -4.636891833349991 7.166648268076315 -9.190699356168624 6 -1 1
607 122 3 0 -9.354291424452342 7.446982468752093 -9.664050503840203 -5 -2 0
606 122 1 0 -9.19990927874559 7.59254530671376 -9.273206443798248 -5 -2 0
609 122 3 0 -9.07863762115526 8.039932358866295 -9.316422667111125 -5 -2 0
1957 392 3 0 -4.150982352615716 7.691102824888684 -9.249726136195271 6 -1 1
450 90 3 0 -7.311252314230231 -8.911848230331499 -8.950925195489187 8 1 0
448 90 3 0 -7.827753492201369 -8.851242898718652 -8.397891669369773 8 1 0
446 90 1 0 -7.495835981821926 -8.630417841494939 -8.647248125445978 8 1 0
449 90 3 0 -7.697803137654523 -8.265960674694629 -8.869365767574568 8 1 0
2980 708 2 0 -6.431694781481884 -8.351050885092524 -8.495079691573155 18 2 0
447 90 3 0 -7.168068974464413 -8.472520462429712 -8.36649576357816 8 1 0
2982 708 4 0 -6.779080806220117 -8.443131134438557 -8.24896916863747 18 2 0
1278 256 3 0 -5.852384571693291 -8.50618318346108 -9.036217289823403 9 1 -1
2981 708 4 0 -6.049982186743538 -8.252477659401196 -8.76707804415407 18 2 0
408 82 3 0 -8.893606811033228 -6.786918337809213 -9.041964749149578 11 1 1
407 82 3 0 -8.458984476168578 -7.129076506679453 -8.535771665043972 11 1 1
406 82 1 0 -8.575410091651879 -6.708926673348765 -8.746691939002998 11 1 1
410 82 3 0 -8.217753771001158 -6.547309369795137 -8.952943008769648 11 1 1
409 82 3 0 -8.705016985915435 -6.420662624574872 -8.447738358123244 11 1 1
2639 594 4 0 -8.160229114424865 -6.135652342782131 -8.95161140938749 5 0 1
1284 257 3 0 -4.300097181622454 -2.5649360607577414 -8.981108362244333 10 0 0
2573 572 4 0 -4.097452703031509 -2.219763703202524 -8.972223299473171 -3 -1 1
2572 572 2 0 -3.784692187678673 -2.35302830745602 -8.66526190829931 -3 -1 1
2574 572 4 0 -3.4709122452929497 -2.4826633580317985 -8.350731031321189 -3 -1 1
420 84 3 0 -3.1346423627908884 -2.569305364405876 -8.13115683291727 13 1 -2
417 84 3 0 -2.45299504731757 -2.798404599267057 -8.280514593482257 13 1 -2
416 84 1 0 -2.7003921611221404 -2.4459885711121734 -8.1529525940618 13 1 -2
3022 722 2 0 -2.9116397354740267 -1.5517975479833872 -8.961817009190657 10 0 0
419 84 3 0 -2.6525095557162714 -2.094315272992125 -8.470121131775707 13 1 -2
3024 722 4 0 -2.644379508918969 -1.7463507293186282 -8.675863445109739 10 0 0
262 53 3 0 -4.1914947282886414 0.05531425410545765 -8.279831042685263 1 -1 -1
445 89 3 0 -7.963825820330204 1.199709257020082 -8.404744994426865 12 0 1
2227 457 2 0 -6.840415197865861 1.1419283425974829 -9.030212955262979 7 0 0
2229 457 4 0 -7.1133420285950955 1.2731775668950043 -8.686477998705048 7 0 0
1365 273 3 0 -3.137927896411048 0.5950587761653932 -8.981479627986367 5 -1 1
845 169 3 0 -9.471558710706198 1.8568452393073294 -8.438813620127492 4 -1 1
843 169 3 0 -8.791956695345458 1.6617157214886227 -8.210477207480661 4 -1 1
841 169 1 0 -9.08056922424354 2.0124599621809214 -8.331187407476364 4 -1 1
444 89 3 0 -7.797130389914685 1.614448808898354 -8.994258379151404 12 0 1
441 89 1 0 -7.748646985644164 1.5855711136560942 -8.561677337395443 12 0 1
443 89 3 0 -7.922484735749586 1.943013989183287 -8.366518792995286 12 0 1
442 89 3 0 -7.320092248153668 1.5640386900627394 -8.458248612022315 12 0 1
2781 641 4 0 -4.8587791320894524 1.9856237042077147 -8.305666567563518 2 -1 0
1719 344 3 0 -9.40768855327854 2.7436520040519685 -8.53537370800092 8 -1 0
1716 344 1 0 -9.633351176649821 2.939584259444354 -8.184802813993528 8 -1 0
842 169 3 0 -8.903181065946598 2.249645122570829 -8.670967157261114 4 -1 1
2779 641 2 0 -4.934704089562803 2.2083317634626454 -8.6972318864172 2 -1 0
1720 344 3 0 -9.96122213228787 3.204047993788361 -8.349946194908355 8 -1 0
962 193 3 0 -2.0752803915032825 4.807788030167117 -8.963795501216707 13 0 1
2452 532 2 0 -9.971006050492477 7.973613216460237 -8.602013444546552 11 0 0
610 122 3 0 -9.520183330887798 7.541051027212692 -8.95972673358877 -5 -2 0
2454 532 4 0 -9.54711359709098 7.826694052550678 -8.670213482055996 11 0 0
2957 700 4 0 -5.013854601806703 8.131049289508837 -8.825635313689009 12 0 0
1959 392 3 0 -4.822943228025094 7.864821304759339 -9.044107243233332 6 -1 1
1956 392 1 0 -4.48985189367599 7.5592474175904485 -9.018973186901281 6 -1 1
1958 392 3 0 -4.3718998699234755 7.51064254421355 -8.602945824895983 6 -1 1
2958 700 4 0 -5.482096326265072 8.526239065448983 -8.188237036814032 12 0 0
2956 700 2 0 -5.243892889146715 8.322248797254069 -8.507738912354668 12 0 0
2801 648 4 0 -8.817688374903343 -6.451309266523181 -8.069183679026422 12 1 0
2800 648 2 0 -8.744910731664138 -6.047669107648288 -7.820182995656145 12 1 0
2802 648 4 0 -8.676730178692988 -5.659897814985202 -7.576768496659018 12 1 0
2959 701 2 0 -5.064700444976725 -5.700648013820318 -7.190902889203086 8 0 1
337 68 3 0 -4.218775750600345 -5.720217538448743 -7.327116719307161 4 -1 0
338 68 3 0 -3.975012430827265 -6.1356384738790615 -7.885362377142695 4 -1 0
336 68 1 0 -3.8558181188337315 -5.8412532860127895 -7.585221984138231 4 -1 0
340 68 3 0 -3.5468049143649107 -6.016217789539013 -7.32351790683693 4 -1 0
2022 405 3 0 -8.839394441765345 -5.295808433236264 -7.484560802699621 34 4 0
2021 405 1 0 -8.832722178291537 -4.90642785370298 -7.2898759617070015 34 4 0
2961 701 4 0 -4.615559164868735 -5.649526539950706 -7.332925825732034 8 0 1
339 68 3 0 -3.6967245110110216 -5.479686607640904 -7.779850234588468 4 -1 0
1760 352 3 0 -2.811055121230557 -5.056922548686231 -7.416918301003707 6 0 0
1759 352 3 0 -2.1036351978351044 -4.977802058206727 -7.626423735421459 6 0 0
2024 405 3 0 -8.857249008638398 -4.579786019432781 -7.614564563069308 34 4 0
1756 352 1 0 -2.5154528065869295 -4.7678614716858 -7.578389005306681 6 0 0
1758 352 3 0 -2.651897954406661 -4.6203858782318505 -7.960950847776594 6 0 0
1757 352 3 0 -2.4726744400412084 -4.438799003354159 -7.299795530199834 6 0 0
418 84 3 0 -2.5513442697313895 -2.298769571913212 -7.733165800394221 13 1 -2
263 53 3 0 -4.222491760071833 -0.6410722615206055 -8.086976670503072 1 -1 -1
2847 663 4 0 -3.565012472120273 -0.5649828619080939 -7.652719029835499 9 0 -1
2845 663 2 0 -3.267568510259247 -0.6752066838336859 -7.332734062138591 9 0 -1
1645 329 3 0 -1.229184098133203 -0.8770199998056256 -7.805832682095459 3 0 1
1641 329 1 0 -1.2315043488157578 -0.7029618967291356 -7.413561837941447 3 0 1
1642 329 3 0 -1.6214018139535327 -0.4661648894380619 -7.358321399076333 3 0 1
264 53 3 0 -3.692394042200754 -0.21150513786416347 -7.757840935039116 1 -1 -1
261 53 1 0 -4.14162754395641 -0.23275276563715863 -7.944213718933123 1 -1 -1
265 53 3 0 -4.428431260861965 -0.13366958303408083 -7.628793439386106 1 -1 -1
3186 776 4 0 -4.405682336640905 -0.11291903477411758 -7.228145700011044 8 0 1
1643 329 3 0 -0.873139768587798 -0.41667909993102903 -7.36772809833442 3 0 1
2183 442 4 0 -0.6776236305982017 -0.04300947544257028 -7.428673396076668 16 1 0
2743 629 2 0 -7.933093078939183 1.0197297418967004 -7.603293697456587 3 -1 1
2745 629 4 0 -8.070239556671812 1.0666638175741632 -8.03813973584018 3 -1 1
2744 629 4 0 -7.812632276705301 0.9832964477864952 -7.198436974237352 3 -1 1
1495 299 3 0 -4.662865629568216 1.9540660348134615 -7.412652604665337 14 1 -1
1717 344 3 0 -9.800995056748814 2.641265379846045 -7.943414364427601 8 -1 0
844 169 3 0 -9.12936475081261 2.2840142998077653 -7.972249372507148 4 -1 1
2294 479 4 0 -8.820049704625404 2.5112058471531995 -7.938032173694788 8 0 0
2293 479 2 0 -8.657737531471327 2.8144988404465643 -7.618713564939585 8 0 0
1492 299 3 0 -4.724266510645157 2.282696768277603 -8.045086068422691 14 1 -1
1494 299 3 0 -5.134656426796753 2.508362871839269 -7.470767419680205 14 1 -1
1491 299 1 0 -4.728033472552565 2.3404610797687475 -7.610560604842074 14 1 -1
1493 299 3 0 -4.406743175577475 2.6183148990768856 -7.498560897682579 14 1 -1
2934 692 4 0 -4.20345803882482 2.4178637974766133 -7.219037971254004 12 0 1
830 166 3 0 -3.0966198868247385 2.8047006110062824 -7.17072467034421 4 -1 0
1718 344 3 0 -9.341531138439693 3.198476224877256 -7.940081631187602 8 -1 0
2247 463 4 0 -9.425312428677776 3.5952690466760373 -7.995794061048225 12 0 0
2245 463 2 0 -9.135915173439576 3.8211219140285113 -7.653209141726647 12 0 0
2295 479 4 0 -8.515769081127226 3.110806348017876 -7.322494319400685 8 0 0
1693 339 3 0 -8.161818337322316 3.2917068343384415 -7.384473946727065 17 1 0
1691 339 1 0 -8.112934994109324 3.699749617688969 -7.2138221023891385 17 1 0
829 166 3 0 -2.5743500945302227 3.3336355575664367 -7.162286952136435 4 -1 0
2246 463 4 0 -8.888632450556152 4.014164882521058 -7.3464113221739735 12 0 0
1692 339 3 0 -7.9045667029027555 3.9544798962742966 -7.517629228566827 17 1 0
3252 798 4 0 -7.621023991316122 4.215817403847598 -7.654854784762395 20 1 1
3250 798 2 0 -7.5149327302450635 4.646165464986609 -7.557517317148425 20 1 1
1177 236 3 0 -7.369859336012436 5.460904692058843 -7.601656697147393 13 0 1
3251 798 4 0 -7.402319906103129 5.082040710246325 -7.4707188204680115 20 1 1
1176 236 1 0 -7.659326742605447 5.787039802088058 -7.446017898421357 13 0 1
1178 236 3 0 -7.932042814995688 5.937158927370811 -7.791794198179018 13 0 1
1180 236 3 0 -7.417454179191779 6.127745697636669 -7.27697841460024 13 0 1
39 8 3 0 -5.566983535596717 8.063747206682354 -7.200716910764234 4 -1 0
38 8 3 0 -4.8644976242312365 8.18416076804548 -7.460471468890153 4 -1 0
40 8 3 0 -5.482826949528215 8.519914141742554 -7.781617849324835 4 -1 0
36 8 1 0 -5.292530367173157 8.374331802179782 -7.38012978521025 4 -1 0
2960 701 4 0 -5.517599555167224 -5.747059243860888 -7.049419116514641 8 0 1
182 37 3 0 -5.701214243756306 -6.032080511247678 -6.202532533742913 6 0 -1
2025 405 3 0 -9.172467782996138 -4.877407148870432 -7.009436142800779 34 4 0
2023 405 3 0 -8.444333803796905 -4.86126607874935 -7.064493239424975 34 4 0
3349 831 2 0 -8.27013987145672 -4.851442039439911 -6.249488573278001 14 1 1
184 37 3 0 -5.7503153723069484 -5.58343047104323 -6.78096013043486 6 0 -1
185 37 3 0 -6.268324753460536 -5.5194484138127065 -6.228857843324693 6 0 -1
181 37 1 0 -5.8048759724678165 -5.623262493568121 -6.337106904288392 6 0 -1
947 190 3 0 -2.3504344059613107 -5.564565075862939 -6.2034487709908905 6 0 2
3351 831 4 0 -8.266128777162177 -4.779054279673236 -6.702119269133215 14 1 1
1527 306 3 0 -7.518539923272188 -4.403739830736452 -7.048483652788624 11 1 1
1530 306 3 0 -7.46537291901503 -4.647061916810374 -6.36143264886357 11 1 1
1526 306 1 0 -7.3744601053033865 -4.303011861608979 -6.627653948465868 11 1 1
1529 306 3 0 -7.601781523309157 -3.933383022154855 -6.486740883881229 11 1 1
1528 306 3 0 -6.940350717894452 -4.229642389664513 -6.634849913065625 11 1 1
3083 742 4 0 -6.561173004461361 -4.277128157401223 -6.582762664079097 14 1 2
3082 742 2 0 -6.259588184105361 -4.043386541641786 -6.352327961191881 14 1 2
883 177 3 0 -2.562851716871015 -1.4630230248459846 -6.665149330136776 8 0 1
1210 242 3 0 -9.717538836142324 -0.744953451673684 -6.458833629558786 18 1 0
1206 242 1 0 -9.360573506051283 -0.5950834100399529 -6.674843809402044 18 1 0
1209 242 3 0 -9.119172705780276 -0.9272950890140077 -6.799929537558085 18 1 0
2846 663 4 0 -2.9608056062059243 -0.779937574396584 -7.016214241357747 9 0 -1
882 177 3 0 -3.0057024033603597 -1.0176139319732478 -6.312629960961552 8 0 1
884 177 3 0 -2.5862217589134326 -0.7513022729437004 -6.870132803363838 8 0 1
881 177 1 0 -2.6105250892911434 -1.0559302448174837 -6.513487570380107 8 0 1
885 177 3 0 -2.284371172371853 -0.9580817395637471 -6.202955607611416 8 0 1
1644 329 3 0 -1.2086256972106764 -1.0325008164772367 -7.116117037398576 3 0 1
1208 242 3 0 -9.500355461558307 -0.35546078166035855 -7.043385771284379 18 1 0
1207 242 3 0 -9.136127463954555 -0.3400188643166331 -6.415253829806183 18 1 0
3185 776 4 0 -4.612631084463992 -0.35701662211289076 -6.395644606009456 8 0 1
3184 776 2 0 -4.514802589016286 -0.23419444969308856 -6.79155837460403 8 0 1
327 66 3 0 -0.949707760073883 0.38383554319927526 -6.41860979038082 5 0 0
2182 442 2 0 -0.6401987974580461 0.1794605605507975 -7.02098847628954 16 1 0
2184 442 4 0 -0.6125045985114781 0.38392291800925094 -6.614758191062668 16 1 0
2125 425 3 0 -7.966470292719183 0.9931923256108259 -6.843400008100691 19 1 0
2121 425 1 0 -7.762618950330443 1.1724534517819247 -6.510403405472143 19 1 0
2122 425 3 0 -7.334321488244688 1.2725947688524268 -6.626510387201634 19 1 0
2124 425 3 0 -7.972470485182735 1.5284391214575415 -6.403780114505978 19 1 0
2932 692 2 0 -3.8278490528406994 2.537749690814204 -7.066715635217119 12 0 1
2933 692 4 0 -3.4015739935840354 2.6659963934326303 -6.892798835935634 12 0 1
827 166 3 0 -2.7913953921075585 2.9956937480343093 -6.522703458322237 4 -1 0
2873 672 4 0 -2.5913123293105933 2.690327242356725 -6.309748254902438 15 1 1
1695 339 3 0 -8.536320077951371 3.8616138701618397 -7.119307133884888 17 1 0
1694 339 3 0 -7.870861375360452 3.6864434591402695 -6.862516321479893 17 1 0
2487 543 4 0 -7.791191377436779 3.663622050682349 -6.471649175902918 3 -1 0
29 6 3 0 -4.817052665858611 3.3285868929467544 -6.367871367088761 10 0 1
28 6 3 0 -5.431474883371399 3.7375373349651397 -6.264927238110015 10 0 1
826 166 1 0 -2.9411529830958685 3.148974381467289 -6.928941832446272 4 -1 0
828 166 3 0 -3.2503849809996215 3.429545903968629 -6.866523843546057 4 -1 0
2485 543 2 0 -7.557446995616254 3.978636470358696 -6.276883366882546 3 -1 0
543 109 3 0 -6.4677214255486515 4.6824815058352165 -6.388802025797251 13 0 1
544 109 3 0 -7.208713394422778 4.559018714686953 -6.372355440670903 13 0 1
2703 615 4 0 -6.4403615193436785 4.286143227343075 -6.310064175334345 5 -1 1
2702 615 4 0 -5.617381093350863 3.941558504591054 -6.564083944349221 5 -1 1
2701 615 2 0 -6.037416543384024 4.117976664968275 -6.433276032789255 5 -1 1
3205 783 2 0 -8.333992389414673 5.384863363445842 -6.448291072532163 12 0 0
3206 783 4 0 -8.230618735556927 5.48085101255702 -6.854727453765994 12 0 0
1179 236 3 0 -7.917773313423942 5.601617335433202 -7.097596662231533 13 0 1
545 109 3 0 -6.900250506214668 4.890954292586223 -6.977354083918343 13 0 1
541 109 1 0 -6.874254340574517 4.843244300869955 -6.513205023913441 13 0 1
542 109 3 0 -6.936192198023554 5.237623464614902 -6.331602788166983 13 0 1
37 8 3 0 -5.259101639857367 8.698270815931672 -7.108670608015028 4 -1 0
2611 585 2 0 -9.736321518318833 9.364384210389616 -6.488367008991599 5 -1 1
2613 585 4 0 -9.352605196422424 9.232906424066549 -6.229679867662927 5 -1 1
77 16 3 0 -7.418536337193453 -6.615447128635481 -5.7684562111406334 5 0 1
80 16 3 0 -8.035820109054786 -6.292884338979242 -5.88787359450585 5 0 1
79 16 3 0 -7.4881736584681065 -5.914386540770856 -5.698992487290592 5 0 1
76 16 1 0 -7.680751229046194 -6.295770020081811 -5.64951751098234 5 0 1
1195 239 3 0 -8.851148814383093 -5.159335784200257 -5.416857201370741 17 1 0
1194 239 3 0 -8.191296751416637 -4.859138666613668 -5.379170654030274 17 1 0
3350 831 4 0 -8.270165107322928 -4.922866849606803 -5.785460418475355 14 1 1
2225 456 4 0 -7.305348023494911 -5.576921785205158 -5.8143557689456085 3 0 -1
2224 456 2 0 -7.254802279021071 -5.144421135639553 -5.93910682439489 3 0 -1
183 37 3 0 -5.53152000381518 -5.3202055753352795 -6.133523707177712 6 0 -1
949 190 3 0 -2.166503770484578 -5.516671036643238 -5.502541099303009 6 0 2
948 190 3 0 -2.6506089321681925 -5.063000066879656 -5.758878188123333 6 0 2
946 190 1 0 -2.2838096668160848 -5.284554388938238 -5.852810872656083 6 0 2
950 190 3 0 -1.9231844862979912 -4.974466584530396 -5.953720706463958 6 0 2
3266 803 4 0 -1.59238882832177 -4.794886178680563 -6.070216412863418 21 2 0
2226 456 4 0 -7.186716026601058 -4.7036073352436505 -6.068750167089059 3 0 -1
3265 803 2 0 -1.4148118593964636 -4.705927313406763 -5.628531741339131 21 2 0
3089 744 4 0 -0.4947968628173385 -4.1689800441276645 -5.349416929490536 11 1 0
3084 742 4 0 -5.942805073758757 -3.8003391438842327 -6.111754667720355 14 1 2
3088 744 2 0 -0.1626618526776049 -3.8675134839517433 -5.394463269950178 11 1 0
128 26 3 0 -1.888410159103021 -1.6850582460348775 -5.553943553895088 11 1 1
127 26 3 0 -1.2358208966669402 -1.3333446587966442 -5.5485420601816475 11 1 1
868 174 3 0 -4.875532536827459 -0.8197426700635937 -5.801056735909707 3 -1 1
866 174 1 0 -4.624510637062435 -0.47667994808902847 -5.6892940976160045 3 -1 1
870 174 3 0 -4.182258847974333 -0.6265798545994485 -5.575471799718769 3 -1 1
3119 754 4 0 -3.817872635455818 -0.7380466353643946 -5.423546777988801 11 0 0
3118 754 2 0 -3.4624014510662535 -0.8070298426185367 -5.683493389543199 11 0 0
3120 754 4 0 -3.1195356170156083 -0.8723174478586024 -5.938958515240049 11 0 0
129 26 3 0 -1.8279182062813497 -0.936142327200491 -5.447896940441606 11 1 1
3410 851 4 0 -2.149751652765957 -1.097111076875132 -5.288933739405684 9 0 0
126 26 1 0 -1.64528358073499 -1.2939139683573053 -5.6659596005342 11 1 1
130 26 3 0 -1.6610366663202214 -1.2283061034350613 -6.110154908130559 11 1 1
3028 724 2 0 -9.301564156697587 0.25377339008928956 -5.855947619791884 6 0 0
3029 724 4 0 -9.128176613592943 -0.11525549039812333 -6.071347283617854 6 0 0
867 174 3 0 -4.805514895161477 -0.26351624958592446 -5.348265644408105 3 -1 1
869 174 3 0 -4.598441115666149 -0.20723367323382114 -6.031345841932462 3 -1 1
328 66 3 0 -1.3184249419657768 0.11273206254705137 -5.856130498487522 5 0 0
2387 510 4 0 -0.3613719839323739 0.22549038038886238 -5.892498898198807 7 0 -1
329 66 3 0 -0.6661827270022904 0.4234024009030719 -5.743802785813608 5 0 0
3030 724 4 0 -9.478546429356339 0.6244279231738048 -5.640800689840384 6 0 0
1864 373 3 0 -9.303226765170447 0.9840318586732124 -5.623466088326333 24 2 1
2123 425 3 0 -7.757563067658346 0.8863592485870786 -6.165382694472994 19 1 0
3137 760 4 0 -7.7434434896971815 0.8763928241899954 -5.773972282711636 6 0 -1
3136 760 2 0 -7.570004404971346 0.8863302026924771 -5.324765993561018 6 0 -1
2664 602 4 0 -1.570444904648408 1.0800668114579164 -6.014794875848119 3 -1 0
330 66 3 0 -1.2450999373509646 0.850988648832514 -5.943026709291882 5 0 0
326 66 1 0 -1.0414961746792013 0.44336533121003896 -5.989804769934988 5 0 0
2336 493 4 0 -7.836780048174843 1.7932001179722938 -6.113095075091123 10 0 -1
2335 493 2 0 -7.637251641914689 2.112823691895942 -5.842261103716289 10 0 -1
2662 602 2 0 -1.5116220811271894 1.4778961014876586 -5.8256721408738334 3 -1 0
2663 602 4 0 -1.4517128067762606 1.8929429934485835 -5.635517543934606 3 -1 0
1165 233 3 0 -1.3605326593973963 2.096488931151379 -5.291824307497825 7 0 1
2337 493 4 0 -7.45173145738911 2.426491826262085 -5.577774222612385 10 0 -1
1157 232 3 0 -7.525954909752459 2.8014034156430245 -5.437866833507407 10 0 0
2872 672 2 0 -2.3043963494305855 2.748754725011162 -5.990832948815945 15 1 1
2874 672 4 0 -1.9847008101781949 2.8050964275831625 -5.626999545848812 15 1 1
1162 233 3 0 -1.9877516100833272 2.5220347841319413 -5.306907073211169 7 0 1
3176 773 4 0 -0.9605317412069088 2.940467542714419 -5.34243386343759 10 0 0
2306 483 4 0 -5.378855900787901 3.4840950905040238 -5.440259868743575 9 0 0
30 6 3 0 -5.231948963220238 3.2819891938514267 -5.773021862051156 10 0 1
26 6 1 0 -5.084605656538505 3.55953341180226 -6.056957545557703 10 0 1
27 6 3 0 -4.8334072663450565 3.897885934506535 -5.830928200395177 10 0 1
3175 773 2 0 -0.8136072330162243 3.2496873040124896 -5.658919457184532 10 0 0
3177 773 4 0 -0.6655181162947414 3.549406676447422 -5.965759781028712 10 0 0
2486 543 4 0 -7.3004058622970875 4.322970756828621 -6.060005849430999 3 -1 0
2876 673 4 0 -4.768093192865179 4.044933054594599 -5.4609507698952955 10 0 0
1819 364 3 0 -0.9279629462765264 4.630659212267567 -5.872730166491134 18 1 1
1817 364 3 0 -0.2913830680545342 4.482777882846335 -6.176464538070309 18 1 1
1820 364 3 0 -0.7197169627011206 3.9443243211577528 -5.994853211510667 18 1 1
1816 364 1 0 -0.576619051335058 4.3441892607515165 -5.883600983988517 18 1 1
1818 364 3 0 -0.38858775568599313 4.3284939951884915 -5.473350829518861 18 1 1
548 110 3 0 -8.678587554903457 5.040563539980706 -5.813296032759539 -3 -2 -2
546 110 1 0 -8.639753198766162 5.100589448337267 -5.375771948108054 -3 -2 -2
3207 783 4 0 -8.447573207281458 5.285265653288462 -6.020568636677054 12 0 0
547 110 3 0 -8.359590244227117 5.465420968378574 -5.293519894331036 -3 -2 -2
1724 345 3 0 -2.977356103025378 5.173755858538502 -5.466405965345177 6 -1 1
3422 855 4 0 -1.8648695491542906 5.182434240026829 -5.276927945629417 12 0 0
3423 855 4 0 -1.1747079102766627 4.947612153098525 -5.812106732980023 12 0 0
3421 855 2 0 -1.5279805616470092 5.060587897079058 -5.540572810737864 12 0 0
2458 534 2 0 -8.009985138001078 6.20221093066251 -5.3063141611384985 10 0 -1
1723 345 3 0 -2.600567967038079 5.8441970907121465 -5.379100375928419 6 -1 1
3317 820 4 0 -1.5598104163663802 6.471512911748263 -5.434612774083854 11 0 1
2459 534 4 0 -7.837661874746274 6.572702450799358 -5.457079369537475 10 0 -1
1139 228 3 0 -7.5256171531862295 6.745404580417041 -5.247598645972205 9 0 0
960 192 3 0 -1.351811908262576 6.722310492004926 -5.669748029432082 4 -1 -2
956 192 1 0 -0.9349578272319938 6.940042284305907 -5.599447394840781 4 -1 -2
958 192 3 0 -1.0027972843028845 7.385939406066122 -5.578267209067399 4 -1 -2
959 192 3 0 -0.6578723020923007 6.846973907817137 -5.942769952625177 4 -1 -2
2084 417 3 0 -8.785601818013987 8.684580782373487 -5.453111440514319 6 -1 0
2083 417 3 0 -8.52494297034644 8.768243005411655 -6.143622470803596 6 -1 0
2081 417 1 0 -8.71082878118084 8.98045620106727 -5.7843142249266695 6 -1 0
2085 417 3 0 -9.094705313052682 9.167697863015547 -5.906872061343971 6 -1 0
2082 417 3 0 -8.415182518457442 9.313764327381922 -5.639281831496827 6 -1 0
3398 847 4 0 -8.13393855068074 9.449816239491309 -5.372369372021453 15 0 1
2304 482 4 0 -2.0514780500979723 -9.708275840189007 -4.386223174956231 11 1 -1
810 162 3 0 -1.1087827822396363 -9.767214024811873 -5.039670389373859 4 0 0
809 162 3 0 -1.7280751660757971 -9.700657352964306 -4.633837074378625 4 0 0
806 162 1 0 -1.3222613835927248 -9.503832482109248 -4.763931092910561 4 0 0
808 162 3 0 -1.0627376819662278 -9.433307329863407 -4.404407743172976 4 0 0
665 133 3 0 -4.918182765376161 -8.930723051249355 -4.463120234229186 -2 -1 1
662 133 3 0 -5.337224326966442 -8.836460403259572 -5.073892189910105 -2 -1 1
661 133 1 0 -4.910260995132964 -8.794514466162921 -4.889835785458866 -2 -1 1
664 133 3 0 -4.782635748295911 -8.359313320870568 -4.899165729967473 -2 -1 1
663 133 3 0 -4.622686028785522 -9.04872058326639 -5.126233822129204 -2 -1 1
807 162 3 0 -1.4165330500467928 -9.114122088956142 -4.969912704072792 4 0 0
3032 725 4 0 -4.618774294237268 -8.040482187172788 -4.755757951655283 4 0 0
3031 725 2 0 -4.725701730613511 -7.634396082986529 -4.528975874763642 4 0 0
898 180 3 0 -5.837873421417841 -6.679344453326325 -4.336069537308155 7 0 -1
3033 725 4 0 -4.827355732265933 -7.24349298033337 -4.31818081392629 4 0 0
78 16 3 0 -7.787011630271819 -6.354988055611814 -5.229791284809662 5 0 1
2667 603 4 0 -1.9542895865546548 -5.711348720008526 -5.2083851176317895 13 1 0
2250 464 4 0 -0.8230602271163825 -5.776572916643789 -4.793798174896836 1 -1 0
2248 464 2 0 -0.5902408946552757 -6.0387723258808315 -4.513459736166883 1 -1 0
1191 239 1 0 -8.485874877654274 -5.0835745966916 -5.151545995087031 17 1 0
1193 239 3 0 -8.602021977453958 -4.83946418148288 -4.7860748824203405 17 1 0
1192 239 3 0 -8.30732499987993 -5.475410899792608 -5.013582407994782 17 1 0
2666 603 4 0 -1.1231681697600209 -5.52613948790005 -4.925493037994809 13 1 0
2665 603 2 0 -1.552368032460251 -5.623035409079662 -5.073810834544443 13 1 0
3267 803 4 0 -1.2442944288977458 -4.62015899627266 -5.221572579009788 21 2 0
1034 207 3 0 -1.1196065308636456 -4.780778261156713 -4.888240990076973 18 1 1
1033 207 3 0 -0.5575526236143364 -4.759751083820979 -4.404133150333833 18 1 1
1032 207 3 0 -0.8885391738570636 -4.1255495400787865 -4.613206665010355 18 1 1
1031 207 1 0 -0.751172651505259 -4.5375490454756315 -4.750564342622098 18 1 1
1035 207 3 0 -0.4374525708048935 -4.499317077500492 -5.107235018442026 18 1 1