LAMMPS data file via write_data, version 19 Nov 2024, timestep = 100000, units = lj

679 atoms
4 atom types
486 bonds
1 bond types
443 angles
2 angle types

-4.496439 4.496439 xlo xhi
-4.496439 4.496439 ylo yhi
-4.496439 4.496439 zlo zhi

Masses

1 1
2 1
3 0.1
4 0.1

Bond Coeffs # harmonic/omp

1 100 0.45

Angle Coeffs # harmonic/omp

1 100 180
2 100 109.471

Atoms # full

624 175 4 0 -3.335685659348972 -3.9665716965167857 -3.2462082999656716 1 1 0
615 172 4 0 -3.522987837569481 -4.135210144776156 -3.5636706988823814 1 1 0
369 90 4 0 -3.1417623786554465 -4.0078901652926575 -3.5899370933298242 0 1 0
614 172 2 0 -3.8584931355774836 -4.293178979521996 -3.876861877655647 1 1 0
368 90 2 0 -2.886338534179408 -3.8432928636611474 -3.9423976880324916 0 1 0
278 60 2 0 -1.1411640210605327 -4.376462367720376 -3.776158482163524 0 0 0
88 18 3 0 -2.3316275485566798 -3.922441669194656 -4.266234023225602 0 1 1
279 60 4 0 -1.4172293400305094 -4.472699096879669 -4.144072215845383 0 0 0
370 90 4 0 -2.628919532291571 -3.675487302651946 -4.290572975251593 0 1 0
52 11 3 0 -2.456371209781116 -3.3218604494711874 -4.375576759868482 0 0 1
54 11 3 0 -1.7549793923837245 -3.1482596197371464 -4.319556892709281 0 0 1
51 11 1 0 -2.1960405371798464 -2.9957549726632613 -4.305948685510488 0 0 1
280 60 4 0 -0.8736366654516957 -4.281097696145219 -3.4206657400366756 0 0 0
312 71 4 0 -3.345084969998569 -1.908142131902212 -3.56382538947881 0 0 1
311 71 2 0 -3.769932837302855 -1.7376772713136177 -3.6068195611665512 0 0 1
313 71 4 0 -4.172268677111565 -1.565124484242924 -3.63561831932098 0 0 1
333 78 4 0 -4.4712858769361645 -1.8081897988582702 -3.7850564654384424 0 0 1
343 81 4 0 -3.1107319733048304 -2.085720614505731 -3.299669681884855 0 0 1
290 64 2 0 -1.7743857921324009 -2.787794530760535 -3.322822507460878 0 0 0
53 11 3 0 -2.288299415303138 -2.8113224471573988 -3.9121897764385394 0 0 1
292 64 4 0 -2.007863109105834 -2.6455613353658767 -3.65291532022 0 0 0
341 81 2 0 -2.764742546301637 -2.330755322624346 -3.454292124274988 0 0 1
342 81 4 0 -2.4049975869673053 -2.5867762886603383 -3.605873305668584 0 0 1
87 18 3 0 -1.7749416362543766 -4.4429191256351395 -4.320014216347403 0 1 1
24 5 3 0 -1.8215583197795426 -0.6135550402452107 -3.6726257164308604 0 0 0
372 91 4 0 -1.636398073748633 -0.6594633000161708 -4.0080349954698145 0 0 0
414 105 4 0 -1.801042598559732 -0.29408360937062705 -3.9420241493464827 0 0 0
21 5 1 0 -1.9594058831499808 -0.717212427101332 -3.2368921720065154 0 0 0
23 5 3 0 -2.2306485713602155 -0.374448066939783 -3.082595201213821 0 0 0
421 107 4 0 -2.735183185067662 -0.35465022483698266 -0.8740488458968946 0 0 0
616 172 4 0 -4.1591565471729 -4.42917902080608 -4.154125190859012 1 1 0
371 91 2 0 -1.5394714756758858 -1.00133996673629 -4.3007495965687745 0 0 0
623 175 2 0 -3.226268286893361 -3.7338993210655937 -2.8599496206047608 1 1 0
625 175 4 0 -3.1208254257821193 -3.519807650380049 -2.5062811702904266 1 1 0
277 59 4 0 -2.8095443001037803 -3.334789184994799 -2.351204110607434 0 0 0
275 59 2 0 -2.5583617263686858 -2.985844221144356 -2.1941023735169045 0 0 0
295 65 4 0 -2.114626836443832 -4.435017293477406 -1.554893948060677 0 0 0
276 59 4 0 -2.3199828492588863 -2.640248084604059 -2.0564454169234145 0 0 0
255 52 4 0 -0.9663705298173424 -3.948863410012559 -3.1750492352066932 0 0 0
254 52 2 0 -1.161856080730369 -3.5773540178698178 -2.9567265605161905 0 0 0
256 52 4 0 -1.3537598225855454 -3.2142633325368597 -2.738948857527616 0 0 0
287 63 2 0 -3.3524593624854293 -1.9720488871332678 -1.8120125314918587 0 0 0
289 63 4 0 -3.181597539263407 -1.708957665705952 -2.1160604704518167 0 0 0
291 64 4 0 -1.5245735314661975 -2.937829541898412 -2.972961534273246 0 0 0
14 3 3 0 -1.9943557581003148 -2.4955950513086576 -2.2108045706011734 0 0 0
11 3 1 0 -1.5522877505554442 -2.600304893055951 -2.211855460799266 0 0 0
15 3 3 0 -1.310126824963334 -2.2146563917593647 -2.193066758263746 0 0 0
297 66 4 0 -1.2607444658450218 -1.9009307736374046 -2.4473045340292696 0 0 0
265 55 4 0 -3.0073853638962023 -1.4074945797367449 -2.2764056409223086 0 0 0
13 3 3 0 -1.441306703333266 -2.84216302936375 -2.5793101574866664 0 0 0
12 3 3 0 -1.4567198268093784 -2.853307358050159 -1.8437754881148674 0 0 0
535 145 4 0 -0.5439311003737395 -2.1111254779714703 -2.531162816002983 0 0 0
533 145 2 0 -0.2669509172991846 -2.038083138034485 -2.18110893482913 0 0 0
25 5 3 0 -2.2017421545536897 -1.1101805874546953 -3.237723537508612 0 0 0
22 5 3 0 -1.5807736253345046 -0.7572964996512181 -2.9593305764702404 0 0 0
263 55 2 0 -2.7537697350886425 -1.2871694724336395 -2.620670326203968 0 0 0
264 55 4 0 -2.4868302445435515 -1.1674105149424088 -2.9681637767557625 0 0 0
296 66 2 0 -1.347978511796508 -1.4972595659471535 -2.6628034376781633 0 0 0
267 56 4 0 -0.3177925867227493 -0.15911389389874844 -2.1807640179267946 0 0 0
274 58 4 0 -2.957043578474934 -0.6016574484452982 -0.6724185237325156 0 0 0
262 54 4 0 -0.5950349350310746 -0.18092955935111207 -2.4867607806933956 0 0 0
298 66 4 0 -1.4332385585709315 -1.1122379774336424 -2.85547951865984 0 0 0
261 54 4 0 -1.2062749203385266 -0.8071091965719221 -2.758743540848206 0 0 0
260 54 2 0 -0.8908399984915439 -0.4922623982781792 -2.6207059377170068 0 0 0
527 143 2 0 -4.478915092195566 -3.79945032478389 -1.148626766836611 1 0 0
528 143 4 0 -4.420829899399375 -3.340960472949733 -1.1609838950366411 1 0 0
5 1 3 0 -4.139587425647421 -3.0316268335201375 -1.1729759366406345 0 0 0
293 65 2 0 -2.290641497906122 -4.022044095511378 -1.4508627416968953 0 0 0
294 65 4 0 -2.4526050389259897 -3.6232885722027555 -1.3664371607158357 0 0 0
9 2 3 0 -2.271261883380509 -3.429238654295152 -1.0713426024636976 0 0 0
402 101 4 0 -2.0494182475529774 -2.893481350445402 -0.10472857827384431 0 1 0
271 57 4 0 -3.5276566267364706 -2.440769118739909 -0.4698899551939742 0 0 0
2 1 3 0 -3.7194956241148445 -2.5079596403479765 -0.8303123224260122 0 0 0
1 1 1 0 -3.9905715232392067 -2.6053093453462925 -1.2123262851962637 0 0 0
288 63 4 0 -3.532086292701145 -2.2309082595421823 -1.4960069264550528 0 0 0
3 1 3 0 -4.321683909974234 -2.339732884813225 -1.2300188859198418 0 0 0
4 1 3 0 -3.7432480581146055 -2.565046578784479 -1.5775271602940097 0 0 0
8 2 3 0 -2.056198718494206 -3.0148524918156028 -0.47905739929478586 0 0 0
10 2 3 0 -1.7425076378755593 -2.907662629133816 -1.1358405509559186 0 0 0
6 2 1 0 -2.1249654372664435 -3.0067570594686135 -0.923312126043986 0 0 0
7 2 3 0 -2.425781004955254 -2.7059577911154067 -1.0232912430499923 0 0 0
555 152 4 0 -0.06201517666240941 -1.9217994316771543 -1.4385343872705527 0 0 0
273 58 4 0 -3.5315037124841346 -1.1597089831629968 -1.135124465175194 0 0 0
272 58 2 0 -3.2511540117920035 -0.886488517350018 -0.9138866173922122 0 0 0
419 107 2 0 -2.4848954729566444 -0.008198255114804967 -0.7454511220059936 0 0 0
269 57 2 0 -3.4782534013726836 -2.432545655460782 -0.0172657928315198 0 0 0
442 114 4 0 -3.0435429513111947 -0.14344895322045198 -4.485321458392579 0 0 1
433 111 4 0 -4.187288859962672 -4.06473659282324 0.426171226845572 0 1 0
431 111 2 0 -3.758589018889277 -4.197276413116601 0.47223457891460474 0 1 0
336 79 4 0 -2.949233060902444 -4.408133459549965 0.3643523339034797 0 0 0
432 111 4 0 -3.3252963827435846 -4.3414940031919445 0.5202083130054758 0 1 0
337 79 4 0 -2.3123770708634166 -3.8359196327636926 0.6098350604576914 0 0 0
358 86 4 0 -2.15374581767566 -3.677459440912946 0.944676253316987 0 0 0
356 86 2 0 -2.0861430920435833 -3.529387047374033 1.3668089879608272 0 0 0
252 51 4 0 -1.907140125808854 -3.831508052433725 0.6861612856300874 0 0 0
403 101 4 0 -2.087898959648997 -3.503489662834583 0.5748354223710224 0 1 0
401 101 2 0 -2.067220448802032 -3.2135794335266468 0.2519004289716734 0 1 0
335 79 2 0 -2.6439783060983473 -4.136621618165599 0.48375392965252084 0 0 0
251 51 2 0 -1.5623017738295522 -4.145743086098132 0.6464266883650134 0 0 0
321 74 4 0 -2.992266650739962 -3.149225668852942 1.3974089257029896 0 0 0
270 57 4 0 -3.4252596626536183 -2.427440129756923 0.4516373185661939 0 0 0
322 74 4 0 -3.249527718353316 -2.5590342681777147 0.8086940987555888 0 0 0
258 53 4 0 -3.276630359734236 -2.1571090110640037 0.7064719204003802 0 0 0
330 77 4 0 -3.020213100505449 -0.11272111177097861 3.430700164264711 0 0 0
257 53 2 0 -3.253139891516588 -1.7709872944487306 0.9525769278913507 0 0 0
320 74 2 0 -3.11581470311568 -2.854966883263025 1.1006698381345728 0 0 0
354 85 4 0 -1.733369642671618 -1.7309774395973527 1.1865806457498849 0 0 0
353 85 2 0 -1.7290432875297495 -1.3468105934582404 0.9146033279431574 0 0 0
143 29 3 0 -1.395549142661036 -1.9180396162029119 1.3295022156743963 0 0 0
144 29 3 0 -0.6691702936669236 -1.9834272110860005 1.2875728978381211 0 0 0
259 53 4 0 -3.236308801280318 -1.3793483876413848 1.204852074360991 0 0 0
303 68 4 0 -3.000385924416872 -1.2576181368392276 1.5033727275561752 0 0 0
450 117 4 0 -3.3605102385563583 -1.0903456641202813 1.4885836255093319 0 0 0
449 117 2 0 -3.768294329125649 -0.9104529256080739 1.563698869677559 0 0 0
316 72 4 0 -1.9534423225635957 -0.7160583116817508 0.8882806920596371 0 0 0
314 72 2 0 -1.8505484014169555 -0.2667047674818112 0.7865623731593504 0 0 0
355 85 4 0 -1.7383264131067866 -0.9722366312511493 0.6559425317107032 0 0 0
48 10 3 0 -2.941545006786711 -3.2089443862912037 2.4350718781455583 0 0 0
357 86 4 0 -2.017357167398958 -3.3668727293394243 1.8108211400231702 0 0 0
47 10 3 0 -2.2950302712939705 -3.2367740663793283 2.081084921099955 0 0 0
352 84 4 0 -1.9902426239787776 -3.4554208846508017 2.2175910047476437 0 0 0
350 84 2 0 -2.016958499666571 -3.8542046255238085 2.434841307575849 0 0 0
351 84 4 0 -2.036597495643042 -4.239950594783539 2.647883657810181 0 0 0
327 76 4 0 -1.9342305907591988 -3.0942773255845792 2.068354511725916 0 0 0
46 10 1 0 -2.6733274460651657 -2.9975028914970294 2.1459329352391645 0 0 0
50 10 3 0 -2.8820070557245194 -2.943038321331473 1.7655710512840332 0 0 0
282 61 4 0 -4.307301571530648 -0.7254305551654084 2.008547564672557 0 0 0
543 148 4 0 -0.10097364807498817 -4.341402056305347 3.1847261368090254 0 0 0
564 155 4 0 -0.2296610449042814 -4.291659236125857 2.808420286808346 0 0 0
319 73 4 0 -0.41510745662318455 -4.1037624964937045 3.1412700915783383 0 0 0
49 10 3 0 -2.5649224514249247 -2.574703234827908 2.3160555148544506 0 0 0
326 76 2 0 -1.6144340620236208 -2.765294490134738 2.0464465238717704 0 0 0
141 29 1 0 -1.004603640851971 -1.992169957816514 1.5667628202282793 0 0 0
328 76 4 0 -1.3057361089004453 -2.441929580728201 2.0337177060084697 0 0 0
145 29 3 0 -1.0305127369050484 -2.391354406172491 1.7725833859117444 0 0 0
306 69 4 0 -0.9098243965533028 -2.4588134700200093 2.153456660493822 0 0 0
305 69 2 0 -0.5616001200924433 -2.4526002006997043 2.45705719090251 0 0 0
142 29 3 0 -0.9544244676289293 -1.65599837339859 1.8845564370856012 0 0 0
307 69 4 0 -0.2045072912018481 -2.4552044583262114 2.7727087540963566 0 0 0
451 117 4 0 -4.192779577749292 -0.7335321710853003 1.629320357076232 0 0 0
324 75 4 0 -3.74675828545922 -0.8313015545891902 2.960011335796956 0 0 0
331 77 4 0 -3.387988584325701 -0.7237651743336833 2.859817219189808 0 0 0
323 75 2 0 -4.088997111204249 -1.1257404978120271 3.070012980839287 0 0 0
329 77 2 0 -3.2158956392548466 -0.43486527123638363 3.132809808877932 0 0 0
302 68 2 0 -2.593534609800176 -1.3226319494018954 1.7109870877327402 0 0 0
304 68 4 0 -2.190137953263146 -1.3900356061888268 1.9192839914063937 0 0 0
657 186 4 0 -2.061631846760489 -1.1659700096125594 2.2452680769636153 0 0 0
656 186 2 0 -1.60883047404789 -1.3080567042125006 2.193755563673905 0 0 0
658 186 4 0 -1.1945010409286643 -1.4346390402599392 2.1386851422417745 0 0 0
90 18 3 0 -2.1763800814312915 -4.215967853989624 4.05854376236588 0 1 0
429 110 4 0 -4.469651336864275 -4.219903531098025 0.6718123511163984 0 1 0
340 80 4 0 -0.23099407678588552 -0.9899589988068674 3.175013347630389 0 0 0
460 120 4 0 -1.5254894374060672 -3.374174072026495 4.462406694221659 0 1 0
317 73 2 0 -0.563050012977081 -3.7291995283849664 3.33094136838556 0 0 0
458 120 2 0 -1.2180888564173455 -3.2518622885642996 4.1108973316924144 0 1 0
318 73 4 0 -0.7115651820368923 -3.357384421465785 3.5129695276687865 0 0 0
459 120 4 0 -0.9161299594196757 -3.1298171200760314 3.773496141916096 0 1 0
33 7 3 0 -0.58807372324127 -2.9873109471079338 3.577376697340437 0 0 0
55 11 3 0 -2.245837758018689 -2.692158858465713 4.358089677603839 0 0 0
344 82 2 0 -1.7927716728204903 -2.0751019378656714 4.205844942928173 0 0 0
345 82 4 0 -2.09017572757165 -2.406552107396273 4.1090118288085336 0 0 0
573 158 4 0 -0.11348190220466314 -2.1555358630554498 3.0187180453642157 0 0 0
572 158 2 0 -0.022239943343757035 -1.716571034868755 3.083230312578289 0 0 0
35 7 3 0 -0.25305661938851187 -2.4693095054456666 3.1964035823366186 0 0 0
32 7 3 0 -0.3771253450559409 -2.4023754922820504 3.9173867965781786 0 0 0
31 7 1 0 -0.5364697925843287 -2.563533267919421 3.5456138760379217 0 0 0
561 154 4 0 -0.11356272058274922 -2.1000437131028273 4.008122713803944 0 0 0
34 7 3 0 -0.94361440626694 -2.368559366026692 3.4553101299268913 0 0 0
348 83 4 0 -0.4486461433453095 -2.1371977489085876 4.226002937057448 0 0 0
346 82 4 0 -1.4914376549679509 -1.7370729597429577 4.2996958788329325 0 0 0
347 83 2 0 -0.7903280913716884 -1.863066460934947 4.304356377358206 0 0 0
325 75 4 0 -4.403670496894429 -1.408260162684117 3.1756446276375256 0 0 0
94 19 3 0 -1.538825740497076 -0.25970257524449636 4.137704860456902 0 0 0
93 19 3 0 -0.972637173558284 -0.41244462521356484 3.7351488623028444 0 0 0
339 80 4 0 -0.9942981171737186 -0.5893807909806696 3.3982638172158435 0 0 0
91 19 1 0 -1.2738323225428987 -0.10483225700316862 3.8339263605859775 0 0 0
338 80 2 0 -0.6269445319234119 -0.7795304876654898 3.287513137822739 0 0 0
253 51 4 0 -1.2278761073586786 -4.451135466019816 0.6171095960378632 0 0 0
86 18 1 0 -2.0012282248724325 -4.07430010001011 4.459048487155267 0 1 0
89 18 3 0 -1.6953447220039906 -3.723225490810046 4.37894983369999 0 1 0
349 83 4 0 -1.1285621965419523 -1.596016582126414 4.385162377466363 0 0 0
373 91 4 0 -1.44596637137088 -1.346526987811452 4.392064875036434 0 0 -1
415 105 4 0 -1.8710750091258799 0.510921111571323 -4.396475914310318 0 0 0
413 105 2 0 -1.8343639684971538 0.11511758229991512 -4.177428180516534 0 0 0
388 96 4 0 -0.286394666714629 3.255905325945173 -0.9710336609374866 0 0 0
397 99 4 0 -2.0455455024289173 2.9300969098840457 -1.1522058342002284 0 0 0
108 22 3 0 -1.0607959183997149 1.146364209501635 -4.352860091225085 0 0 1
363 88 4 0 -2.166847154185943 3.2272985378449945 -1.4074813993219881 0 0 0
99 20 3 0 -0.265531186349746 1.2879978648123014 -3.6862658813364098 0 0 1
74 15 3 0 -1.9285787201856748 2.45461544599541 -3.2349067717455733 0 0 0
71 15 1 0 -1.693652427594286 2.095606774486597 -3.0886155750797384 0 0 0
75 15 3 0 -1.3237357875524336 2.0193864859571624 -3.3713921010763035 0 0 0
594 165 4 0 -1.11203821488311 2.3634781928568698 -3.4312611990357547 0 0 0
593 165 2 0 -0.6695953737071566 2.2863954686733217 -3.510830828721924 0 0 0
595 165 4 0 -0.20732581482873505 2.2000197680333446 -3.5969269476859607 0 0 0
56 12 1 0 -0.12444641572825099 2.8220132135728986 -2.4768166017608015 0 0 0
210 42 3 0 -4.494482017213454 4.4108743297132085 -4.048119923362081 1 0 0
59 12 3 0 -0.5770649139382644 2.828908180195083 -2.593272301360567 0 0 0
374 92 2 0 -0.5828068673172419 3.4170708026181877 -0.18454280300872938 0 0 0
384 95 4 0 -3.3546995832124624 1.4391228846558108 -2.432668274750186 0 0 0
426 109 4 0 -3.1212119718879463 1.1806810831631274 -2.2675484837040303 0 0 0
425 109 2 0 -2.9476472627508596 1.306253548667176 -1.8825733126228934 0 0 0
300 67 4 0 -0.6324881543431078 0.10692710165041393 -2.21528067960221 0 0 0
286 62 4 0 -0.04392383630585056 0.9233934159528921 -2.8991751860288715 0 0 0
285 62 4 0 -0.3124177981039975 0.11481050023231483 -2.4858726133447466 0 0 0
284 62 2 0 -0.18001557935844256 0.5166830519569675 -2.6970710274661776 0 0 0
299 67 2 0 -0.8143270431900089 0.23587598918910696 -1.8021951269461072 0 0 0
383 95 2 0 -3.806927741437854 1.5358502622538057 -2.535406552457227 0 0 0
385 95 4 0 -4.238508668999964 1.6219675348447529 -2.634846947521303 0 0 0
375 92 4 0 -0.3960496398142495 3.299807928984704 -0.5622253337072103 0 0 0
73 15 3 0 -1.9519947049624173 1.732664546048813 -3.084865521210135 0 0 0
72 15 3 0 -1.5409222998081078 2.189928308290646 -2.6648407895488715 0 0 0
57 12 3 0 -0.06664142852495519 3.033123541527698 -2.069390373466677 0 0 0
387 96 4 0 -0.3316926267854421 2.896028357102626 -1.8006824004844242 0 0 0
362 88 2 0 -2.1483235027859076 3.6950125195017143 -1.4783520800264012 0 0 0
598 166 4 0 -4.313953960676958 3.4695249016928433 -2.013406945840127 1 0 0
501 134 4 0 -4.275688030202481 3.6023444656165102 -1.6283997676148134 1 -1 0
500 134 2 0 -4.457095050016107 4.0414840821451214 -1.5368096750510443 1 -1 0
386 96 2 0 -0.3131785082509713 3.062313480435719 -1.394838272968568 0 0 0
390 97 4 0 -2.1634341721230093 0.707528381664726 -0.7946184270424358 0 0 0
420 107 4 0 -2.219760709242513 0.3559627607076976 -0.6174766706530512 0 0 0
408 103 4 0 -2.0035786205393094 0.6816019544750769 -0.42681327428365606 0 0 0
389 97 2 0 -2.396391804678963 1.0766031356981554 -0.9529037333770938 0 0 0
80 16 3 0 -1.8396503726208158 0.4339664578906673 -0.7158631387233719 0 0 0
391 97 4 0 -2.634413660671246 1.4584970833733255 -1.1180721261345337 0 0 0
427 109 4 0 -2.7661709153292384 1.444688960228094 -1.4990280922269887 0 0 0
77 16 3 0 -1.30797842537649 0.24048102099093777 -1.180043550489382 0 0 0
301 67 4 0 -0.9817739207160594 0.3549741114757648 -1.407740220600601 0 0 0
76 16 1 0 -1.4113390563280896 0.5294923828311195 -0.90124155633781 0 0 0
79 16 3 0 -1.4246470285951025 0.9428996646764286 -1.1075384264231383 0 0 0
78 16 3 0 -1.103930558863216 0.5347320716197063 -0.5806968950674148 0 0 0
394 98 4 0 -3.806067010873684 1.911559184323472 -0.6967846031245504 0 0 0
61 13 1 0 -3.0878760858530407 1.915909763167506 -0.985027300871218 0 0 0
64 13 3 0 -3.4068256476124095 1.8497675323125025 -0.6604733474504927 0 0 0
392 98 2 0 -4.24068193392661 1.7532103113094144 -0.6994545705056571 0 0 0
62 13 3 0 -3.2221814194990595 2.2486232819626806 -1.261844979065648 0 0 0
65 13 3 0 -3.028274803080141 1.5251436904003683 -1.222602920406689 0 0 0
63 13 3 0 -2.67311795162117 2.051043200557131 -0.7842923823485968 0 0 0
475 125 4 0 -2.7469045622363275 2.170901493988967 -0.39535828579539456 0 0 0
396 99 4 0 -2.6241522278001135 2.435663168974901 -0.6741192263416085 0 0 0
395 99 2 0 -2.3368551425632083 2.6735771501625876 -0.9035842419940093 0 0 0
364 88 4 0 -2.1244334464812953 4.136992012741836 -1.548161795154242 0 0 0
454 118 4 0 -0.03167704210428873 0.4242255041133628 -4.418325352684521 0 0 1
409 103 4 0 -2.02590986383646 0.407903639994842 0.46864590294441594 0 0 0
315 72 4 0 -1.7492123041227443 0.17787957896893447 0.675952450000689 0 0 0
407 103 2 0 -2.0105493491117143 0.5480135272452193 0.016718270549754697 0 0 0
480 127 4 0 -1.6840501207336114 0.5740904817350183 0.5877472267444722 0 0 0
479 127 2 0 -1.3478359354984748 0.7766978089788119 0.8575249176475379 0 0 0
481 127 4 0 -1.0256481133865105 0.9709392418287305 1.1351866734123877 0 0 0
435 112 4 0 -0.6339801921841971 0.9971145701854707 1.2146548544836069 0 0 0
70 14 3 0 -0.8596861142058356 1.3186576909815795 1.2344259868518739 0 0 0
434 112 2 0 -0.30538688581736095 0.7246568555143517 1.2271949120521495 0 0 0
85 17 3 0 -3.1832740928529724 2.7564005494065196 1.3027235669576676 0 0 0
81 17 1 0 -2.866710142714833 2.829715799323384 0.9784936784794172 0 0 0
82 17 3 0 -2.7878254095560515 2.4505590325978615 0.7425130076701665 0 0 0
474 125 4 0 -2.619520324957707 2.163400157820071 0.5203252613131621 0 0 0
473 125 2 0 -2.6775161643074483 2.167719227914917 0.06280771802693325 0 0 0
83 17 3 0 -2.4897374760289033 2.9506783022209304 1.1767117908388294 0 0 0
68 14 3 0 -0.7688545302251483 2.0159933655529607 1.1172244084731424 0 0 0
424 108 4 0 -0.8211105761599667 2.255290415402303 0.7843801418898569 0 0 0
422 108 2 0 -0.4841951188273084 2.329120675908093 0.5213394650317803 0 0 0
423 108 4 0 -0.1288235074493929 2.406547599666658 0.25723669789277903 0 0 0
84 17 3 0 -3.0102505825027723 3.1560980667911354 0.696904274978224 0 0 0
444 115 4 0 -3.1283030442014192 4.352280882939969 0.6973437361152145 0 0 0
443 115 2 0 -3.170337667176295 3.907099604015401 0.7357450673435547 0 0 0
445 115 4 0 -3.2065882785208224 3.4716182308091508 0.7735620626129671 0 0 0
104 21 3 0 -1.7590826003867002 3.698409457335583 0.6006504054269494 0 0 0
103 21 3 0 -1.1145914606112601 3.4465172246065974 0.8623874831241941 0 0 0
105 21 3 0 -1.161585890943835 3.701791284514524 0.16550705075085115 0 0 0
101 21 1 0 -1.3130808405046202 3.75254805569089 0.594125820103242 0 0 0
102 21 3 0 -1.2113518101370726 4.179096964394401 0.7415779585043852 0 0 0
437 113 2 0 -0.6537052009021499 4.379120899243617 1.2379476183860703 0 0 0
439 113 4 0 -0.9154984928767417 4.423534170740257 0.8517648281154244 0 0 0
241 49 1 0 -0.07636330254434354 2.7509325023726374 3.103475383600913 0 0 0
652 184 4 0 -0.582899809257889 0.9751680212074437 2.5837443466069376 0 0 0
651 184 4 0 -0.8095888635987735 1.7478552396709792 2.182488123670746 0 0 0
650 184 2 0 -0.6868075946725143 1.3543880913994661 2.3848968940945743 0 0 0
447 116 4 0 -3.4100430042622807 2.466269944953235 1.4437608549413739 0 0 0
478 126 4 0 -3.7498654680148693 2.160822598340267 2.5406324901998394 0 0 0
640 180 4 0 -4.081122855013628 2.373565111971443 2.5319525938629197 1 0 0
448 116 4 0 -3.8058370276174394 2.427252551109744 2.2502685143178356 0 0 0
446 116 2 0 -3.609132191212998 2.450082555987469 1.8449909408199743 0 0 0
476 126 2 0 -3.51434488161847 1.8415197611702638 2.745229305561637 0 0 0
310 70 4 0 -2.0623006811765134 2.8091963764139907 2.71933439961812 0 -1 0
67 14 3 0 -1.4063163472270412 1.7846585592839168 1.3049070336513886 0 0 0
66 14 1 0 -0.9753898073685516 1.734069102688559 1.3562068018762692 0 0 0
69 14 3 0 -0.8717342171654617 1.796521615067544 1.7832256589651754 0 0 0
40 8 3 0 -2.8997097642131906 3.9864216136130795 2.7142798421312153 0 -1 0
38 8 3 0 -2.320430918824876 3.837866248963577 2.3623185208991426 0 -1 0
36 8 1 0 -2.57420684259538 4.141101930813055 2.451860122867137 0 -1 0
37 8 3 0 -2.7697024886267276 4.315353685998039 2.0491925029049276 0 -1 0
309 70 4 0 -2.0252924964172654 3.5943360623928875 2.2754981404714503 0 -1 0
308 70 2 0 -2.0406035193186955 3.1953923033689065 2.4999142704024 0 -1 0
39 8 3 0 -2.34660546025015 4.476007021828265 2.67809410479034 0 -1 0
28 6 3 0 -1.7554979769707617 4.462251112609495 2.7206333931357496 0 -1 0
29 6 3 0 -1.749633161763984 3.775219928502255 2.494898198291765 0 -1 0
242 49 3 0 -0.13320643207625313 2.875452174457502 2.6739554801766086 0 0 0
26 6 1 0 -1.4997275486346686 4.138978728115336 2.5654045324587695 0 -1 0
27 6 3 0 -1.3140453678756203 4.278151918687606 2.1511214271448287 0 -1 0
438 113 4 0 -0.38280281822829226 4.333835035826773 1.6286032797794496 0 0 0
565 155 4 0 -0.4016214263535632 4.252247867146258 2.018437990519162 0 -1 0
463 121 4 0 -3.1672802395337833 1.160291445743338 3.1334721329418356 0 0 0
461 121 2 0 -3.0965477824938303 0.7336507183500727 3.2217741943084492 0 0 0
440 114 2 0 -2.9660305944900087 0.02592743946845144 4.089802446724218 0 0 0
462 121 4 0 -3.004027252124857 0.26171323249165235 3.316306278608504 0 0 0
441 114 4 0 -2.8788193344869364 0.19282515234789077 3.6681446561611537 0 0 0
360 87 4 0 -1.7707106650749187 0.012813150087075367 3.151871258673875 0 0 0
361 87 4 0 -2.662498846834235 0.06730007375998599 3.351940731391727 0 0 0
359 87 2 0 -2.2233101530475174 0.040331616502541065 3.249033204383019 0 0 0
248 50 3 0 -2.707848781474632 1.5454928378344719 3.9980002851073353 1 0 0
467 123 2 0 -2.1569116975720575 4.471000081961647 3.397795219073219 0 0 0
379 93 4 0 -2.842067547487787 1.3208167770662311 4.302610283418079 0 0 -1
109 22 3 0 -1.435807149077356 1.421238063954164 4.086418494998654 0 0 0
244 49 3 0 -0.33952971580261876 2.3850455165705124 3.2042286898481667 0 0 0
95 19 3 0 -1.4964162796925566 0.0005312540547296623 3.4780868770958793 0 0 0
466 122 4 0 -0.6733290064298005 0.9619915192859936 2.957360298051119 0 0 0
464 122 2 0 -0.8036755158893977 0.7563486457035111 3.3517396567755644 0 0 0
92 19 3 0 -1.0627417668462946 0.26720154532746343 3.984391734822129 0 0 0
107 22 3 0 -1.1323569054627083 0.7681080086578945 4.022525021253671 0 0 0
453 118 4 0 -0.8209143146567786 0.5291505801869651 4.1468633883116155 0 0 0
465 122 4 0 -0.9348196767169791 0.5455124392411865 3.740423141897529 0 0 0
452 118 2 0 -0.4192536789585982 0.4754921303712805 4.358623763349383 0 0 0
250 50 3 0 -3.048326418637011 1.522825566226358 3.3106993467263393 1 0 0
477 126 4 0 -3.2683528539391116 1.5011413379016691 2.959674446312766 0 0 0
249 50 3 0 -3.445934527278986 1.679966779569413 3.9451820511695157 1 0 0
404 102 2 0 -4.205173631914125 1.6273828142351312 4.145728506164932 0 0 -1
406 102 4 0 -3.8194248244750213 1.588547113019219 3.881544652192273 0 0 -1
246 50 1 0 -3.0477738345713044 1.7344999251766933 3.7364551782518913 1 0 0
472 124 4 0 -1.982040352215436 2.4809749968546124 2.9537186840189396 0 0 0
471 124 4 0 -2.5810940112200456 2.200601814918525 3.5620719937600467 0 0 0
247 50 3 0 -2.9716943307646746 2.1773221634798117 3.68393966427808 1 0 0
470 124 2 0 -2.2715759757236422 2.349037165919086 3.246035186257075 0 0 0
243 49 3 0 -0.18993471275731574 3.0985926707399964 3.3713276408600645 0 0 0
30 6 3 0 -1.157030254255983 4.035390049111255 2.8580938459643477 0 -1 0
469 123 4 0 -2.0592460143974773 4.486950762926228 2.9707771006612838 0 0 0
563 155 2 0 -0.3142599997316719 4.4772792418284775 2.4160330524239795 0 -1 0
468 123 4 0 -2.258711241041364 4.449123453849475 3.837791980849238 0 0 0
378 93 4 0 -2.106181415864551 0.8081912786977793 4.471302663972789 0 0 -1
110 22 3 0 -1.7129584490957739 0.8547467151811496 4.452735328738927 0 0 0
377 93 2 0 -2.4702490416703586 1.0658632795220606 4.387988379683772 0 0 -1
106 22 1 0 -1.334799089666332 1.0500300313000164 4.30009028488038 0 0 0
376 92 4 0 -0.7856891833087641 3.538084133964777 0.21165366042818176 0 0 0
508 136 4 0 1.397089549757553 -3.7829192094764763 -4.244032232145165 0 0 0
506 136 2 0 1.278873339789811 -3.407253547384849 -4.066733916337867 0 0 0
536 146 2 0 0.9789018575575525 -0.1131636905888599 -0.42241011211537416 0 0 0
510 137 4 0 3.2702253026229346 -3.5265200506982732 -3.4890411976801934 0 0 0
509 137 2 0 3.6345488850370953 -3.756100734079024 -3.6531362372489458 0 0 0
511 137 4 0 3.9665457333868543 -3.980719186789719 -3.809192929595679 0 0 0
209 42 3 0 3.852463650344561 -4.286744103231755 -4.068919124067343 0 1 0
495 132 4 0 3.094437973007635 -3.2137378936517864 -3.297902701418416 0 0 0
486 129 4 0 3.2082068257397847 -3.1893070317300647 -3.6863451040458073 0 0 0
266 56 2 0 0.05816010887367755 -0.36593122230958636 -2.019695959298399 0 0 0
507 136 4 0 1.1487269334445267 -3.0067166657106292 -3.8884277463878893 0 0 0
541 147 4 0 1.0074764442074755 -2.6697608903062293 -3.6763523059581042 0 0 0
539 147 2 0 0.9645769769860355 -2.2679035653929933 -3.4866993775317483 0 0 0
540 147 4 0 0.9160645150969573 -1.859957502469689 -3.291735464004027 0 0 0
487 129 4 0 2.9111033520221894 -2.6246080283066697 -4.3322074953067595 0 0 0
332 78 2 0 4.305550303354445 -1.6695322412461437 -4.1568287420588454 -1 0 1
485 129 2 0 3.0523350395184763 -2.9081221835188065 -4.01374025351669 0 0 0
217 44 3 0 2.847493811351675 -0.21783198527996478 -1.3251421012591087 0 0 0
553 151 4 0 1.5719000122049767 -1.2371113500097115 -0.49134246568598583 0 0 0
482 128 2 0 2.33540319692813 -0.8214798761177653 -3.4211268972634468 0 0 0
484 128 4 0 2.5118701654337716 -0.6278270829323187 -3.79901377978714 0 0 0
174 35 3 0 2.6556032739102173 -0.4523694795626491 -4.125069968594258 0 0 1
525 142 4 0 2.270285003157731 -0.5913648782901743 -4.106666578391579 0 0 0
171 35 1 0 2.7356528819359127 -0.007422237953924049 -4.046779128859812 0 0 1
551 151 2 0 1.8139439844126475 -0.9022971961604074 -0.28555306310534273 0 0 0
483 128 4 0 2.1710696438519297 -1.0273728474292572 -3.049510217104991 0 0 0
642 181 4 0 3.403323694398929 -0.03655274093534767 -3.5490862844789 0 0 1
493 131 4 0 0.9972869437076923 -1.4590410239734501 -3.2812277152282077 0 0 0
534 145 4 0 0.0028461918919174102 -1.9691605524600178 -1.8362692800941374 0 0 0
123 25 3 0 1.9008855663013613 -2.8677701366900923 -2.3497049707762914 0 0 0
122 25 3 0 2.076136808928483 -2.2798142777290855 -2.039376860369028 0 0 0
121 25 1 0 2.1885604550807 -2.6628763983757575 -2.0776755822665574 0 0 0
124 25 3 0 2.6086846396756584 -2.6746050616681263 -2.257300246128557 0 0 0
496 132 4 0 2.828094085663562 -2.9323613986840478 -2.4659406273167153 0 0 0
125 25 3 0 2.1957994434306896 -2.8836562061204534 -1.634289276862661 0 0 0
489 130 4 0 1.9395331418953803 -1.9395485696527943 -1.8813778672603843 0 0 0
532 144 4 0 2.985413817719318 -2.623021238234474 -2.2783583435204915 0 0 0
494 132 2 0 2.9582290427073064 -3.069687442322086 -2.8757568925502106 0 0 0
530 144 2 0 3.258368698641124 -2.3055743399023836 -2.090491691425838 0 0 0
531 144 4 0 3.5317160453864083 -1.9821058154936992 -1.8919522078885838 0 0 0
517 139 4 0 3.715433858040912 -1.804076742136627 -1.5701826778223211 0 0 0
491 131 2 0 1.4118117143604438 -1.297730634079354 -3.1515393657466553 0 0 0
268 56 4 0 0.4363417402319631 -0.5896532569840838 -1.8589937549448132 0 0 0
17 4 3 0 0.7432929775780214 -0.7158422676288594 -1.6180094298322785 0 0 0
138 28 3 0 1.4554090454588082 -0.3287388202841344 -2.522190151556911 0 0 0
18 4 3 0 1.4406402614685303 -1.0685247120397783 -1.6357731684056411 0 0 0
492 131 4 0 1.8029563355742264 -1.1408726864074477 -3.036231162086038 0 0 0
137 28 3 0 1.9168611014315196 -0.819747713735101 -2.830741965251205 0 0 0
139 28 3 0 1.73374888053668 -0.8266825649739867 -2.066756670808502 0 0 0
136 28 1 0 1.807363986509142 -0.5486127244996205 -2.442662365514567 0 0 0
488 130 2 0 1.891053592972522 -1.4921817352370126 -1.8234462718481668 0 0 0
490 130 4 0 1.8444081589897687 -1.054906391021923 -1.7614460243297267 0 0 0
140 28 3 0 2.1467278293815513 -0.25513489611686785 -2.350368530105 0 0 0