LAMMPS data file via write_data, version 4 Feb 2025, timestep = 800000, units = lj

3100 atoms
4 atom types
2100 bonds
1 bond types
1250 angles
2 angle types

-10.410592 10.410592 xlo xhi
-10.410592 10.410592 ylo yhi
-10.410592 10.410592 zlo zhi
-7.105427357601002e-15 0 0 xy xz yz

Masses

1 1
2 1
3 0.1
4 0.1

Bond Coeffs # harmonic/omp

1 100 0.45

Angle Coeffs # harmonic/omp

1 100 180
2 100 109.471

Atoms # full

312 71 4 0 -3.1344398535544515 -5.211600386860701 -10.320438824085032 4 0 0
1504 468 4 0 -0.5552752770496898 -5.6540522731290865 -9.599135290901717 4 0 1
1502 468 2 0 -0.4682765299281648 -5.423146870360842 -9.965360828463488 4 0 1
2208 703 4 0 -0.6148346430242366 -6.058299946271205 -9.556109853944912 4 0 1
433 111 4 0 -2.8066884708007773 -4.965505717510056 -10.368734204197589 3 0 0
431 111 2 0 -2.428936577435696 -4.740668753727405 -10.259585900668089 3 0 0
432 111 4 0 -2.051052035121373 -4.527767924573036 -10.146575269144387 3 0 0
1503 468 4 0 -0.38049763291312644 -5.200201538864478 -10.317036655704799 4 0 1
2793 898 4 0 -1.9139438926581533 -4.2742886667590865 -9.850805567683437 4 0 1
2792 898 2 0 -1.4865315664014869 -4.196971086180795 -9.869059455546985 4 0 1
2794 898 4 0 -1.058933288761672 -4.122064845832933 -9.884702420258366 4 0 1
652 184 4 0 -0.947062496218928 -3.8349580385133066 -10.12302014327416 4 0 1
650 184 2 0 -0.5318361780299927 -3.6823413139669077 -10.176266678293823 4 0 1
651 184 4 0 -0.12249828931179252 -3.5231414639115934 -10.235807346695253 4 0 1
2192 698 2 0 -5.211679098319631 -3.1371815975279116 -9.849474351819687 4 0 1
2193 698 4 0 -5.1836107064083805 -3.1769897451310722 -10.306434754713859 4 0 1
549 150 4 0 -4.794272805229146 -3.3047255263286957 -10.33732093742213 4 0 0
516 139 4 0 -0.01835854909581336 -2.714171299146222 -9.581961027179103 4 0 0
1132 344 4 0 -6.992356123726393 -2.3503025550512877 -10.327144793769998 6 0 0
1130 344 2 0 -6.9120067715612254 -2.017984729510692 -9.985406660297345 6 0 0
1954 618 4 0 -0.10224601515585086 -2.423369819280092 -9.883042353649293 5 0 0
1952 618 2 0 -0.4138732964083829 -2.3815766388464663 -10.217519584941599 5 0 0
1131 344 4 0 -6.826740318993119 -1.7117376599377696 -9.66631639543973 6 0 0
1305 402 4 0 -4.535865978980136 -1.1731964477299766 -9.572849035038486 9 0 0
252 51 4 0 -3.0304166454262704 -1.429904840568696 -10.104240948603437 10 0 1
797 233 2 0 -9.633929295747738 -0.5385078694265779 -10.136092092813817 1 -1 1
799 233 4 0 -9.847301862444032 -0.5388838731693113 -9.744377316129336 1 -1 1
1336 412 4 0 -7.0574568800759305 -0.31197054007578906 -10.216558875201185 9 0 1
1334 412 2 0 -6.6397755340338325 -0.44650410257889916 -10.218117659170064 9 0 1
1335 412 4 0 -6.1957368765496525 -0.584334158717521 -10.227924002355948 9 0 1
3005 969 2 0 -5.569376355975606 -0.16794462151083067 -10.08729465709653 9 0 0
3007 969 4 0 -5.980995853315977 -0.21435846283653603 -10.240016119681528 9 0 0
3006 969 4 0 -5.144236948221449 -0.10892704537252662 -9.927731912781608 9 0 0
1198 366 4 0 -1.0734843316595786 -7.92577456373033 -8.888194723962428 4 0 0
1196 366 2 0 -0.8794135776199568 -7.505221198634302 -8.940213854468489 4 0 0
1197 366 4 0 -0.6886657737714152 -7.100287039132024 -8.985160926115427 4 0 0
2209 703 4 0 -0.5220189733350473 -6.722013076646608 -8.964133868814681 4 0 1
2207 703 2 0 -0.5722429939525284 -6.389785064050204 -9.260665683965609 4 0 1
2194 698 4 0 -5.241449633578228 -3.1012429615784356 -9.401894437971063 4 0 1
2300 734 2 0 -5.30894133997448 -2.9657770932790477 -8.695275087744125 4 0 1
2301 734 4 0 -5.0957812637569235 -2.847685865736379 -9.085020251658813 4 0 1
2508 803 4 0 -3.4884792733448355 -1.9001094403463288 -9.191203025724336 9 0 0
2507 803 2 0 -3.223675627087605 -2.072277746336489 -8.838893772714432 9 0 0
364 88 4 0 -6.98170543429495 -0.9400679814523389 -8.695500198661886 0 -1 0
363 88 4 0 -6.843540287581959 -1.3863510481877892 -9.43347121306588 0 -1 0
362 88 2 0 -6.91212833231978 -1.1666300544500476 -9.072239522349765 0 -1 0
2387 763 2 0 -5.081636181916059 -0.8694709539953429 -9.110645130898423 9 0 1
2389 763 4 0 -4.836640528421465 -0.9362764634892429 -9.475798488580642 9 0 1
1306 402 4 0 -3.867607865770707 -1.72286938316706 -9.171253091800773 9 0 0
1304 402 2 0 -4.182952516883049 -1.4615071933482415 -9.366195842014005 9 0 0
135 27 3 0 -10.09818636260548 -0.6120838022595727 -9.422940260830554 2 -1 0
131 27 1 0 -10.276305389738082 -0.2554915090831429 -9.257476037106343 2 -1 0
2388 763 4 0 -5.321948638225128 -0.8054188243616878 -8.75199617627199 9 0 1
1017 306 4 0 -3.024575883965835 -8.199753979711492 -8.060436955134803 11 1 -1
1016 306 2 0 -2.573951573412166 -8.25659049457622 -8.095656953220539 11 1 -1
2041 647 4 0 -1.7751997783268525 -8.414397925583279 -7.9460896210717475 3 0 0
1018 306 4 0 -2.1140565140882135 -8.329023288559771 -8.12712267815193 11 1 -1
2040 647 4 0 -1.2093863857130938 -7.991939510357255 -8.531864672580648 3 0 0
2039 647 2 0 -1.4812507785212006 -8.200048711101743 -8.241723426498469 3 0 0
2302 734 4 0 -5.528145350202026 -3.0864079697041165 -8.302070751339198 4 0 1
2509 803 4 0 -2.975923294023776 -2.2300217979777575 -8.506028863116136 9 0 0
900 267 4 0 -2.5716646850647766 -2.1971131569746447 -8.406136435778391 1 -1 1
899 267 2 0 -2.3799405568547893 -2.0415952610356793 -8.055822550201066 1 -1 1
2645 849 2 0 -5.211701520711833 -0.9833609140889692 -8.061872945111697 9 0 0
1847 583 2 0 -7.247443405648392 -0.6318091813272968 -8.103380698485395 9 0 0
1848 583 4 0 -7.259800249741227 -0.6949740927200683 -8.55495901925737 9 0 0
2647 849 4 0 -5.304588138221053 -0.6728476568726283 -8.38464195011146 9 0 0
509 137 2 0 -3.4539217113594836 -7.98528418576277 -7.466241448016018 11 1 0
511 137 4 0 -3.296136176531655 -8.271963898051826 -7.7731203057932206 11 1 0
510 137 4 0 -3.606937073381939 -7.6938100323500915 -7.161264815968611 11 1 0
1785 562 4 0 -3.285996604474061 -7.439331605207324 -7.172948196394827 5 0 -1
1784 562 2 0 -3.102125831163902 -7.049680535737728 -7.05002560454029 5 0 -1
901 267 4 0 -2.190787268567755 -1.88377206829969 -7.694886499172535 1 -1 1
2693 865 2 0 -5.303105540383856 -1.7305072806942547 -7.134124425510201 17 1 1
2695 865 4 0 -5.366240087801841 -1.490849609462403 -7.503731186459788 17 1 1
2646 849 4 0 -5.114586417451123 -1.3043118366930724 -7.728294915733299 9 0 0
2803 901 4 0 -1.9251307381718732 -1.5947424248965127 -7.779014966882565 9 0 1
2610 837 4 0 -0.9177213093937073 -1.6416704165216434 -7.042847481438766 8 0 1
2801 901 2 0 -1.4914427673412796 -1.5241419560680143 -7.566086504513761 9 0 1
2802 901 4 0 -1.0925490844426147 -1.46489119452289 -7.377595081444078 9 0 1
2609 837 2 0 -0.5087734937836927 -1.4738425108488915 -7.015722575159973 8 0 1
2611 837 4 0 -0.08829791904275375 -1.2997203846232228 -6.995326496483896 8 0 1
1849 583 4 0 -7.2411406988946805 -0.57098247198042 -7.671581144787263 9 0 0
1683 528 4 0 -6.995742923264658 -0.13395580128986317 -7.035663311460567 9 0 1
1109 337 2 0 -6.149549615658789 -0.07228207049581137 -7.191804091881165 9 0 0
1111 337 4 0 -6.5671132466195346 -0.15832916442777822 -6.991369799705188 9 0 0
1110 337 4 0 -5.7602517024532425 -0.0013720585717358347 -7.3769374195374695 9 0 0
1982 628 2 0 -0.2668406180142249 -10.31551289841143 -6.414301990948753 6 0 0
1984 628 4 0 -0.615917268497137 -10.08776004433197 -6.27136741295086 6 0 0
1786 562 4 0 -2.919642653222609 -6.676263324452359 -6.9331824678515925 5 0 -1
2068 656 4 0 -3.0231267790911165 -6.327488576324904 -6.732039266678836 4 0 1
2760 887 4 0 -4.664232059406317 -5.429054564751573 -6.517471612701417 11 1 1
2067 656 4 0 -3.648355938718418 -5.8204511997304325 -6.351775255734174 4 0 1
2761 887 4 0 -3.813721564840109 -5.47749947708397 -6.259232731669748 11 1 1
2759 887 2 0 -4.248522962816855 -5.446594477383118 -6.384205684880985 11 1 1
2066 656 2 0 -3.329939734072388 -6.063395496467836 -6.5481730676477135 4 0 1
2167 689 4 0 -5.258729569532408 -2.1273730746277906 -6.363084893240307 7 0 0
2694 865 4 0 -5.226518516422459 -1.9846402552491487 -6.745352436415717 17 1 1
2165 689 2 0 -4.871921398521603 -1.9644815765398107 -6.143236549764248 7 0 0
464 122 2 0 -9.891902671491946 -0.4066102500853095 -6.897069233930038 1 -1 0
465 122 4 0 -10.315924184011033 -0.4895360920190388 -6.899868722525691 1 -1 0
466 122 4 0 -9.446042434264985 -0.32192896944825655 -6.883797378300333 1 -1 0
1656 519 4 0 -9.063999529987882 -0.46952922662346275 -6.874895950720516 9 0 0
1655 519 2 0 -8.642134197288781 -0.40474204962662164 -6.772199399096706 9 0 0
1657 519 4 0 -8.22108836669277 -0.3449661176727812 -6.665596708656772 9 0 0
1684 528 4 0 -7.850261874398765 -0.383534654318213 -6.801318692721965 9 0 1
1682 528 2 0 -7.417964593567326 -0.25459722100342397 -6.922357768877327 9 0 1
1394 432 2 0 -0.8867384626296761 -10.191785471451263 -5.493382469841985 13 1 1
1396 432 4 0 -0.8494952943238889 -10.108606031542564 -5.936281678713429 13 1 1
2813 905 2 0 -10.410483448269002 -4.448534244043826 -5.384548831894932 3 0 0
2220 707 4 0 -7.65085039455444 -2.8727744137780293 -5.6138216572892885 7 0 0
2221 707 4 0 -7.911110021874125 -2.106681689057707 -5.978862699862803 7 0 0
1645 515 4 0 -7.926730565972889 -1.847638010084962 -5.67461203329552 6 0 1
2219 707 2 0 -7.778661584135404 -2.4863817309578966 -5.800498803046851 7 0 0
2166 689 4 0 -4.508974869682491 -1.8086753484095883 -5.935004349629461 7 0 0
1783 561 4 0 -4.28967036364198 -1.776118157444854 -5.609628866684687 7 0 0
2578 826 4 0 -2.261537143457316 -1.7815590308686229 -5.416890636369152 14 1 0
1889 597 2 0 -1.5961003519564745 -1.7578511072027911 -5.2915845555235075 7 0 0
1891 597 4 0 -1.1619750243344829 -1.8317639563582055 -5.487945013851045 7 0 0
2361 754 4 0 -0.8292555050815498 -1.9878818540438505 -5.636611044420726 7 0 1
2360 754 2 0 -0.3990372823467183 -1.8475631248365971 -5.6631045116072904 7 0 1
1644 515 4 0 -8.561719994559873 -1.2091010503446178 -5.425771564753498 6 0 1
1643 515 2 0 -8.247024733547711 -1.5267278317092075 -5.549233324106643 6 0 1
1781 561 2 0 -3.844745777751216 -1.6686753268352525 -5.58222094368314 7 0 0
2577 826 4 0 -3.0432992015519273 -1.4491335464390733 -5.667479330704591 14 1 0
2576 826 2 0 -2.6512890572619163 -1.6115043199110684 -5.54059769732707 14 1 0
1782 561 4 0 -3.4201173097817916 -1.5719510831373107 -5.55460684937321 7 0 0
1395 432 4 0 -0.9345263594753366 -10.275994205265908 -5.037529584941575 13 1 1
851 251 2 0 -9.575733389155797 -4.719118034629468 -4.538217326459416 4 0 0
853 251 4 0 -9.939332221893352 -4.532189996079723 -4.7603897564043915 4 0 0
2814 905 4 0 -10.047286105806963 -4.389983737654736 -5.12604898461213 3 0 0
1890 597 4 0 -1.9826153635176276 -1.696246551657186 -5.118499523260579 7 0 0
612 171 4 0 -5.59854716335401 -9.555625355132712 -3.9324954417312403 5 0 1
611 171 2 0 -5.229021176060741 -9.547432354963627 -3.659289068395857 5 0 1
194 39 3 0 -4.3038342986395834 -10.387032714572479 -3.6286298348480166 13 1 0
192 39 3 0 -3.9505408968780156 -9.745222330068879 -3.6790812579808634 13 1 0
1160 354 2 0 -8.89199940427662 -5.327317863341418 -3.9138996625746465 4 0 0
1162 354 4 0 -8.878491893098976 -5.769833606935929 -3.7286307153203335 4 0 0
852 251 4 0 -9.225926761476423 -4.892797000875816 -4.311221610198222 4 0 0
1161 354 4 0 -8.905285985928773 -4.914661861632298 -4.082221461712477 4 0 0
392 98 2 0 -9.691331669499855 -1.141588228279625 -4.17848229768341 9 0 0
394 98 4 0 -10.093249381239698 -1.246364366999476 -4.3095607179166695 9 0 0
393 98 4 0 -9.257305754232293 -1.0242216367659562 -4.0405281249061895 9 0 0
2232 711 4 0 -8.875999672882658 -1.0923815188767598 -4.009662199057902 10 0 0
2231 711 2 0 -8.444980214775047 -1.0284611568977216 -3.874902448335501 10 0 0
2233 711 4 0 -8.030134042409617 -0.9640818317116313 -3.749443943864013 10 0 0
337 79 4 0 -7.721553015638515 -0.712195797825462 -3.863394160978359 9 0 0
335 79 2 0 -7.295964261221174 -0.5621254151247737 -3.776248868302636 9 0 0
336 79 4 0 -6.872057196744112 -0.41350116939002746 -3.6919111656953447 9 0 0
193 39 3 0 -4.597131815504417 -9.798319763157446 -3.271483193749046 13 1 0
191 39 1 0 -4.1957327171076955 -10.010574053309755 -3.4088559931636855 13 1 0
195 39 3 0 -3.9426212701231442 -10.117034629392668 -3.0345601992118665 13 1 0
2724 875 4 0 -3.6669706449792105 -10.303123636989492 -2.8320424812658604 6 0 0
613 171 4 0 -4.857505959394725 -9.541360427459653 -3.3955496528929148 5 0 1
2614 838 4 0 -9.63477692663983 -6.04149672493061 -2.728328276349586 5 0 0
2613 838 4 0 -9.009351872015307 -5.862051268095246 -3.363234113787435 5 0 0
2612 838 2 0 -9.321743426624334 -5.952092195072978 -3.0491224174540212 5 0 0
1901 601 2 0 -0.9927803136657083 -3.575669504281988 -2.6209469341743237 14 1 -1
1903 601 4 0 -0.7094327106055704 -3.385619870074268 -2.9476732088545186 14 1 -1
802 234 4 0 -6.644169581224809 -0.6116799597906617 -3.4456874612684008 9 0 1
800 234 2 0 -6.188890995529547 -0.6154175654982179 -3.450521890607553 9 0 1
801 234 4 0 -5.734932285014592 -0.6226644889487396 -3.4381556085143385 9 0 1
2247 716 4 0 -5.349901266374202 -0.759555121187951 -3.3737363108121503 10 0 1
2246 716 2 0 -4.9627187431034985 -0.6716241168452299 -3.108093053544308 10 0 1
2248 716 4 0 -4.59508803101998 -0.6007066481562706 -2.8505471608431225 10 0 1
943 281 4 0 -4.283113137677434 -0.3468292729200453 -2.852084808001626 1 -1 0
941 281 2 0 -3.8719692281530707 -0.35792643281256886 -2.6495246851693723 1 -1 0
1919 607 2 0 -2.7204495549806875 -0.1287597373421594 -2.7324391659014307 1 -1 0
934 278 4 0 -10.330335398746966 -6.341421428292754 -1.7864887100120725 5 0 0
2076 659 4 0 -10.079801836970583 -6.0253267890137385 -1.798862283584386 5 0 0
2075 659 2 0 -9.944697925521634 -5.85582708433894 -2.1921044416583353 5 0 0
2077 659 4 0 -9.80938671257796 -5.684629782679758 -2.590405262676313 5 0 0
1012 304 4 0 -4.438531552223564 -5.299065579303709 -1.814096304667105 5 0 0
1218 373 4 0 -3.4236115978135793 -4.624447126716608 -1.8948343698037533 5 0 -1
1217 373 2 0 -3.01870152803708 -4.47249373835906 -2.0205100574082397 5 0 -1
591 164 4 0 -7.176876685852205 -4.307439560436918 -1.8038857085537003 4 0 0
1219 373 4 0 -2.61411269198552 -4.309640488725286 -2.1461894297335515 5 0 -1
847 249 4 0 -2.3623956051895583 -3.996441135443093 -2.086280324054714 6 0 0
845 249 2 0 -1.9817356329716116 -3.785655801482326 -2.1207684482414653 6 0 0
846 249 4 0 -1.5932835870395632 -3.556605668522872 -2.151554186838963 6 0 0
1902 601 4 0 -1.2634198902794527 -3.7526148377831 -2.3096311538224175 14 1 -1
942 281 4 0 -3.4707269086219847 -0.3759320913558213 -2.465420703092211 1 -1 0
1921 607 4 0 -3.1013921150949946 -0.25096019811897996 -2.5333747627847023 1 -1 0
2852 918 2 0 -6.288326760669693 -5.898107105101974 -1.089953215921195 4 0 0
2853 918 4 0 -6.728596041677839 -5.91741217255344 -0.986522967297697 4 0 0
2854 918 4 0 -5.853826156568118 -5.895514525264409 -1.189374290733662 4 0 0
751 217 4 0 -5.565059965803876 -5.650606809010499 -1.3093830121211134 6 0 0
749 217 2 0 -5.149259562179858 -5.529998502514159 -1.4354890379650378 6 0 0
750 217 4 0 -4.724832205166259 -5.407554203126565 -1.5634621101964932 6 0 0
1128 343 4 0 -8.178106504857439 -4.703235487996118 -1.220481276358175 12 1 0
592 164 4 0 -7.982890516649679 -4.397577725827143 -1.3361570549615642 4 0 0
1127 343 2 0 -8.30297813026899 -4.988342112059207 -0.9006048603810761 12 1 0
590 164 2 0 -7.587329169504285 -4.348430502721986 -1.5692028280787387 4 0 0
1011 304 4 0 -3.6585253676653355 -4.867517069996257 -1.6588248217203265 5 0 0
1010 304 2 0 -4.03613300968128 -5.072705502884808 -1.7315554611920003 5 0 0
1207 369 4 0 -9.048897334659856 -1.7574817584685665 -1.3864806267554322 10 0 0
2620 840 4 0 -8.669269321756852 -1.7947815473433195 -1.2439138179904496 10 0 0
496 132 4 0 -10.083859419846148 -1.3974626119263505 -1.1300136473943088 5 0 0
1206 369 4 0 -9.80063289387381 -1.2436375782333968 -1.370390828942373 10 0 0
1205 369 2 0 -9.399891408873707 -1.5150520166847041 -1.3829533402872318 10 0 0
2618 840 2 0 -8.35264144782828 -1.6268371509111006 -0.9484189354594204 10 0 0
2849 917 2 0 -7.195225883769295 -0.06592175740561501 -1.4312449803671115 10 0 0
2850 917 4 0 -7.333350713696692 -0.3304250308319414 -1.0887261897076446 10 0 0
1083 328 4 0 -4.362147836754227 -0.5060483381213601 -1.1646200765695482 15 1 0
1750 550 4 0 -4.727157567644316 -0.41946165674218605 -1.0150436497700763 7 0 0
1084 328 4 0 -3.5318842044172376 -0.5055352768095798 -1.5758943132737855 15 1 0
1082 328 2 0 -3.9473590382933015 -0.5106326597272588 -1.3736262153071461 15 1 0
829 243 4 0 -3.14089642168428 -0.5339394967112874 -1.5173968249305219 6 0 0
827 243 2 0 -2.8488178604178103 -0.23933507949683985 -1.2881563467319044 6 0 0
734 212 2 0 -7.1708850483490245 -6.165491436880821 -0.5013771951162251 12 1 1
736 212 4 0 -7.584302444504827 -6.096763521830527 -0.26957143636892233 12 1 1
735 212 4 0 -6.777668596506701 -6.2259984608685945 -0.7277947217099019 12 1 1
1876 592 4 0 -8.455349273761556 -5.455612734206976 -0.23703786948449412 4 0 0
1874 592 2 0 -8.14709985163594 -5.774362493215173 -0.09083538012127335 4 0 0
1129 343 4 0 -8.414333187757931 -5.27329484381545 -0.5843008895503843 12 1 0
2619 840 4 0 -8.083884676859117 -1.4751872195897366 -0.6778042447797148 10 0 0
789 230 4 0 -7.834231776904287 -1.1571105878624977 -0.6423103975595925 10 0 0
1749 550 4 0 -5.062971236245066 -1.1914850191913438 -0.6117781759521677 7 0 0
788 230 2 0 -7.626049961050712 -0.7483690497833813 -0.6590591075350805 10 0 0
790 230 4 0 -7.425511679465238 -0.32754443763762 -0.6817965590401691 10 0 0
1748 550 2 0 -4.897106810907794 -0.792149281835977 -0.817585395644846 7 0 0
2422 774 4 0 -3.5436913438835687 -9.705631361614955 0.4396315568594602 12 1 0
2420 774 2 0 -3.097615470748959 -9.757168906887104 0.4228437958795759 12 1 0
2421 774 4 0 -2.652068457860536 -9.804642378894709 0.40173486357195465 12 1 0
2930 944 2 0 -5.2326904109473835 -9.21740801381996 0.5901116139211133 12 1 0
2932 944 4 0 -5.57543701801323 -8.94341417248855 0.7007565778517844 12 1 0
333 78 4 0 -4.594056170111523 -9.298760325007207 0.32162812408042285 4 0 0
2931 944 4 0 -4.87790578250165 -9.51270202750553 0.48504004810332546 12 1 0
332 78 2 0 -4.145214820234834 -9.421823570096018 0.2212119392531413 4 0 0
334 78 4 0 -3.7138279304334914 -9.54132077692003 0.11159736391103436 4 0 0
2401 767 4 0 -2.400225977532946 -9.5121640365169 0.5267998169984782 4 0 0
2399 767 2 0 -2.1126499974203004 -9.443338739556802 0.8590669727734799 4 0 0
1875 592 4 0 -7.841791074102481 -6.080987439887277 0.04998712596531263 4 0 0
584 162 2 0 -3.0178322060273945 -5.532783689888495 0.44764397108023957 4 0 0
586 162 4 0 -3.1866345125120494 -5.779027621696958 0.12941147614874282 4 0 0
585 162 4 0 -2.8493988649113193 -5.257177968865891 0.7921944432019057 4 0 0
254 52 2 0 -9.947910813503462 -2.722349148166895 0.5089208186740724 10 0 -1
256 52 4 0 -10.311820356330994 -3.001167493145121 0.4602097009924311 10 0 -1
255 52 4 0 -9.604676277280234 -2.45072168305827 0.5635802330025133 10 0 -1
2653 851 4 0 -9.681971484801826 -2.1550856416680944 0.8414978077954842 10 0 -1
1415 439 2 0 -8.042367078999224 -0.10662166969654407 0.31636717734179065 8 0 1
1417 439 4 0 -8.039139068529998 -0.4121137515397191 0.6472606556485179 8 0 1
1690 530 4 0 -10.006634182481045 -9.859801885636594 1.440858413145559 13 1 -1
372 91 4 0 -10.3709997882067 -9.857353062993061 1.2572396515364428 4 0 0
280 60 4 0 -8.371868800241097 -10.071861101033587 1.4507482750822387 4 0 0
915 272 4 0 -8.54354504857309 -9.757849168900275 1.622009911589986 4 0 1
79 16 3 0 -1.841498779026706 -9.675661451402268 1.4550465285506995 12 1 -1
78 16 3 0 -2.089025112410612 -10.332250617505402 1.7338776274577405 12 1 -1
914 272 2 0 -8.778349456705183 -9.39474322725743 1.7308841710275473 4 0 1
1620 507 4 0 -9.228512352914208 -8.724982313430866 1.6440536218484887 12 1 1
2400 767 4 0 -1.8193488427183002 -9.371157246603602 1.1950554797542203 4 0 0
2817 906 4 0 -6.236489502218933 -5.68591768871954 1.6088763759264566 5 0 0
2816 906 2 0 -5.798952710965279 -5.750916580697572 1.6701738610403147 5 0 0
2818 906 4 0 -5.360514982622313 -5.8238661586076255 1.7241447801984329 5 0 0
2651 851 2 0 -9.550639401848692 -1.7659881703671747 0.971848821942821 10 0 -1
2652 851 4 0 -9.39811728587876 -1.334501800090269 1.1160359546871899 10 0 -1
2689 863 4 0 -9.131958830567482 -1.2254596361537367 1.3888790917846379 9 0 0
2687 863 2 0 -8.689132879119548 -1.142727103828971 1.2899357490481744 9 0 0
2688 863 4 0 -8.233804685898019 -1.0558419467804274 1.1882360947587074 9 0 0
155 31 3 0 -7.830188247850023 -1.0500139884281854 1.2945382697287648 8 0 0
152 31 3 0 -7.848685570736366 -0.42199766189548704 1.7024977574880449 8 0 0
2305 735 4 0 -8.238852275018834 -0.2877548351085206 1.7226635877854157 9 0 0
153 31 3 0 -7.795750198213174 -0.40378011221821275 0.9752915401700388 8 0 0
151 31 1 0 -7.674308144156544 -0.6197110801994654 1.3192671456054814 8 0 0
154 31 3 0 -7.219841138239822 -0.620285324677015 1.341406159609777 8 0 0
2257 719 4 0 -6.989345304966111 -0.41628004629654924 1.6001673748940526 10 0 0
745 215 4 0 -5.090090384450729 -0.707319913267515 1.689275890813267 8 0 1
1399 433 4 0 -4.723605881001531 -0.6095011264517449 1.571368109386075 10 0 0
1688 530 2 0 -9.817591002660667 -9.884713346433873 1.8294829584508197 13 1 -1
1689 530 4 0 -9.604641646522124 -9.906472442264501 2.2390239299021744 13 1 -1
235 47 3 0 -9.26780372722414 -9.872437200866747 2.456390908902362 14 1 0
2346 749 4 0 -7.161520380892476 -10.187179965823242 2.5650690862733274 6 0 0
2347 749 4 0 -6.327886046138975 -10.221873166569653 2.3439338678880404 6 0 0
2345 749 2 0 -6.731312848383011 -10.2087754478304 2.452289802471702 6 0 0
2785 895 4 0 -5.955832936932795 -10.313201074870895 2.3675302545384493 14 1 0
731 211 2 0 -2.8501812924600625 -9.707862416884005 2.374747313103697 4 0 0
732 211 4 0 -3.238931893625095 -9.872289616478563 2.375156387765749 4 0 0
76 16 1 0 -1.8853526239093696 -9.910701036431401 1.8348212468838874 12 1 -1
77 16 3 0 -2.1397690991296408 -9.67630714589899 2.1378466429398877 12 1 -1
1473 458 4 0 -1.1220338764620443 -10.13867763536347 1.852844834444051 12 1 1
80 16 3 0 -1.4657488105340608 -9.985597230817373 2.0221262283105563 12 1 -1
1472 458 2 0 -0.7517306630847571 -10.075047767089957 2.081814207488115 12 1 1
1474 458 4 0 -0.339843035909011 -10.002829815533621 2.3327767994660835 12 1 1
916 272 4 0 -9.029124430625805 -9.016859349238413 1.8496646068826355 4 0 1
733 211 4 0 -2.420550909208295 -9.523418472106018 2.376671272111917 4 0 0
489 130 4 0 -9.801370383236367 -8.003016652637589 2.51107404924438 4 0 0
1621 507 4 0 -9.61713771239731 -8.086508106486868 2.154048723953709 12 1 1
1619 507 2 0 -9.42098326800818 -8.398147628598572 1.90438381334938 12 1 1
350 84 2 0 -7.256222871870235 -7.050463218969843 2.428627768621526 -4 -1 -1
351 84 4 0 -7.263792873958547 -6.636137640703091 2.2520925909845353 -4 -1 -1
3073 991 4 0 -7.086849151406589 -6.296203932243554 2.2831117008286093 5 0 0
3071 991 2 0 -6.730653132634147 -6.0924179113692665 2.119689248147436 5 0 0
3072 991 4 0 -6.359994675460832 -5.875126850974776 1.9487795908845822 5 0 0
646 182 4 0 -5.028771708106207 -5.740683649659917 1.9213211561222412 7 0 1
644 182 2 0 -4.757195122297064 -5.574356090430584 2.2286817391095397 7 0 1
645 182 4 0 -4.486806282745023 -5.408389370138535 2.553247004108984 7 0 1
1911 604 4 0 -6.159837163711152 -2.069380357001121 2.596826434931785 7 0 0
1910 604 2 0 -6.002213288020238 -1.8436400458866071 2.23292913783998 7 0 0
1912 604 4 0 -5.854688233208108 -1.6318704255532843 1.8691212638851926 7 0 0
743 215 2 0 -5.422239428327127 -0.9750869027726452 1.7739481265393042 8 0 1
744 215 4 0 -5.7684786346533805 -1.2478252346391425 1.843762068744109 8 0 1
2303 735 2 0 -8.228991378834165 -0.07924361409923542 2.121776405092051 9 0 0
1397 433 2 0 -4.378565847843378 -0.4610158211002542 1.8290929958902478 10 0 0
1398 433 4 0 -4.021579760790017 -0.3165597417006474 2.089905910629959 10 0 0
298 66 4 0 -3.700242974717539 -0.17063608669309183 2.274790141382116 10 0 0
296 66 2 0 -3.289275484484942 -0.04606860105823607 2.391934168558521 10 0 0
1726 542 4 0 -9.827386438026574 -9.796315379146176 3.107306733922993 4 0 0
1724 542 2 0 -10.284819339324843 -9.799386633874592 3.088022175866506 4 0 0
231 47 1 0 -9.168340586357791 -9.913906266855003 2.9094204402197903 14 1 0
233 47 3 0 -9.45092413126535 -9.652998050261658 3.154470868591 14 1 0
234 47 3 0 -8.727635526079354 -9.78414003814558 2.9871062767941545 14 1 0
232 47 3 0 -9.217073613121649 -10.357463664193315 3.0370362285181596 14 1 0
1491 464 4 0 -8.346913547165839 -9.741145707315487 2.8807889111716616 13 1 0
1490 464 2 0 -7.9298294489446075 -9.883043692385812 2.7836889699297647 13 1 0
1492 464 4 0 -7.495475382241323 -10.024005182269399 2.6839520425894694 13 1 0
89 18 3 0 -0.07444988823242049 -10.069071030709665 2.614729214197599 12 1 -1
488 130 2 0 -10.084001380754724 -7.8540548064720594 2.840703942298477 4 0 0
3076 992 4 0 -7.974602799868888 -8.157563173624231 3.1940814328220473 12 1 0
3074 992 2 0 -7.798292397784069 -7.8552847059960405 2.9293382400732053 12 1 0
490 130 4 0 -10.350101861999796 -7.724651179301443 3.1443885501323887 4 0 0
352 84 4 0 -7.245475601013016 -7.465489660724797 2.6030719202002466 -4 -1 -1
3075 992 4 0 -7.626019764346404 -7.552826625516183 2.654667887636604 12 1 0
2763 888 4 0 -4.943379328208124 -5.731365156297519 3.375161143857234 5 0 0
814 238 4 0 -4.223250965227687 -5.4953964988519415 2.837207211398008 -1 -1 0
812 238 2 0 -3.797090569534321 -5.379707160308133 2.7694949366174324 -1 -1 0
813 238 4 0 -3.3492226519222816 -5.257397711198225 2.7044434469826957 -1 -1 0
2593 831 4 0 -3.1190860085964287 -5.197872333982402 3.0612886768938505 7 0 0
2591 831 2 0 -2.690477884125862 -5.122866622018963 3.132089865389519 7 0 0
2592 831 4 0 -2.239900628496475 -5.055615834188543 3.207285739690679 7 0 0
2028 643 4 0 -3.329762891096393 -3.985658236190682 3.407515684522096 -3 -1 -1
987 296 4 0 -10.077363564634878 -2.952897415822405 2.7860673924257124 8 0 0
986 296 2 0 -9.716937917019655 -2.802156593028025 2.9713322112430536 8 0 0
988 296 4 0 -9.338887586548312 -2.648280885030398 3.151279021183882 8 0 0
2484 795 4 0 -9.055286585654526 -2.4392089934564414 3.343510745302911 8 0 0
3095 999 2 0 -5.68236986042233 -2.1341920078223815 3.224054439773788 15 1 -1
3097 999 4 0 -5.918963359299416 -2.2684822807742915 2.8611662237462134 15 1 -1
1031 311 2 0 -8.611395846382045 -0.09647715690275227 3.2225690303805052 17 1 -1
3088 996 4 0 -6.7442060671067665 -9.794645904756957 4.323634343675174 13 1 1
2737 879 4 0 -6.3322061003610965 -9.831532464170436 4.285369254159496 14 1 -1
274 58 4 0 -8.18790254934044 -8.058018277963285 3.538209767204444 4 0 0
272 58 2 0 -8.60280870649603 -7.926495642439464 3.694667546734216 4 0 0
1374 425 4 0 -9.28448549771951 -7.618744289242718 4.023834783450116 12 1 0
273 58 4 0 -8.977991432997912 -7.801755303606387 3.8331631733370948 4 0 0
1950 617 4 0 -6.114327081006682 -6.176097043240607 3.5108751888479865 5 0 0
2764 888 4 0 -5.734771813125332 -6.131928238387803 3.643912859956316 5 0 0
1840 580 4 0 -8.45923740000452 -5.9670702599713685 4.151395928322504 6 0 -1
1066 322 4 0 -8.11360499110863 -5.79315819736059 4.0536994691285155 5 0 0
1065 322 4 0 -7.211023974415513 -5.89193160476712 4.010946980581467 5 0 0
1064 322 2 0 -7.649531435661076 -5.835752399747959 4.027344419358556 5 0 0
1951 617 4 0 -6.816990151333508 -5.870917821472073 3.921495553614198 5 0 0
1949 617 2 0 -6.451459949184986 -6.028137707579694 3.716169873682796 5 0 0
2762 888 2 0 -5.34536385638228 -5.931358740470212 3.5071874183648486 5 0 0
757 219 4 0 -4.813100098083666 -5.498985092481865 3.671797565978432 4 0 0
755 219 2 0 -4.479627922345118 -5.206605931903882 3.767745530582026 4 0 0
756 219 4 0 -4.147648715553697 -4.911582858434305 3.862741770203497 4 0 0
2029 643 4 0 -3.816562934604021 -4.76098422165157 3.688740213288783 -3 -1 -1
2027 643 2 0 -3.5683384752309006 -4.369132320549222 3.55432583595708 -3 -1 -1
1226 376 2 0 -7.113809498546182 -3.48056983273187 4.103143254288645 9 0 0
119 24 3 0 -3.0304284433793436 -3.85455268632374 3.652823766980209 13 1 0
116 24 1 0 -2.651682166740245 -3.682550054883012 3.8516448769846967 13 1 0
117 24 3 0 -2.7455938638398196 -3.530755793266845 4.27077091424659 13 1 0
118 24 3 0 -2.3283138801074053 -4.016819825625334 3.8728071920739353 13 1 0
855 252 4 0 -2.068800492743147 -4.283445103537802 4.036151867927135 5 0 0
854 252 2 0 -1.6105891811495123 -4.138757121053974 4.027620102294684 5 0 0
856 252 4 0 -1.1812507911365344 -4.005598048517686 4.0279191196372715 5 0 0
3070 990 4 0 -0.87602502094839 -3.937986784948305 4.2776301816087425 14 1 1
3068 990 2 0 -0.5353592470030595 -3.787795852565809 3.993493522153498 14 1 1
3069 990 4 0 -0.20668213748792041 -3.649369909940253 3.705387053664424 14 1 1
2739 880 4 0 -7.7803376007256055 -2.80996990044698 4.292473094161361 15 1 0
1227 376 4 0 -7.143889842703566 -3.3087200455473607 3.6825960428444606 9 0 0
120 24 3 0 -2.494925682185677 -3.3493927263279133 3.6084295248583267 13 1 0
2601 834 4 0 -2.1224920951787354 -3.186313602664746 3.643111424245866 16 1 0
2600 834 2 0 -1.9351744227658525 -2.8219124890394625 3.8169832855456 16 1 0
2483 795 2 0 -8.960329918439442 -2.2349993651879707 3.7120231789118776 8 0 0
2485 795 4 0 -8.847649215559787 -2.013920667191911 4.107448240499137 8 0 0
3096 999 4 0 -5.455753797345222 -1.9993421125805035 3.5845146795261 15 1 -1
2395 765 4 0 -5.266226908275597 -2.2847052647787276 3.7843403184880877 7 0 0
2393 765 2 0 -4.964135182154849 -2.3723689646806623 4.103026928034399 7 0 0
2602 834 4 0 -1.7357053916758467 -2.4338360618999904 4.0025008762081935 16 1 0
3099 1000 4 0 -1.339915181767605 -2.4539155769687344 4.096091192814214 9 0 0
2025 642 4 0 -9.228462288651352 -0.03471007306542617 3.7116389340525657 9 0 -1
1033 311 4 0 -8.893392313065863 -0.2259790542593585 3.545276333292348 17 1 -1
3086 996 2 0 -7.1733504571009465 -9.604761940142788 4.354505458200071 13 1 1
2735 879 2 0 -5.939093733839893 -9.776369069971956 4.446310529684588 14 1 -1
2736 879 4 0 -5.551954291663605 -9.716595123213024 4.596643968575103 14 1 -1