LAMMPS data file via write_data, version 4 Feb 2025, timestep = 8500000, units = lj

3100 atoms
4 atom types
2100 bonds
1 bond types
1250 angles
2 angle types

-10.410592 10.410592 xlo xhi
-10.410592 10.410592 ylo yhi
-10.410592 10.410592 zlo zhi

Masses

1 1
2 1
3 0.1
4 0.1

Bond Coeffs # harmonic/omp

1 100 0.45

Angle Coeffs # harmonic/omp

1 100 180
2 100 109.471

Atoms # full

2918 940 2 0 -2.734018985098334 -10.053048931283344 -9.840594651937408 0 0 0
2919 940 4 0 -2.4645162459621406 -9.660796195047675 -9.87424263079791 0 0 0
396 99 4 0 -2.708841696723853 -9.336501080707242 -9.803857409745659 -1 0 0
395 99 2 0 -2.5612010661197124 -8.98774149103508 -9.538404833643373 -1 0 0
1685 529 2 0 -0.07538719674372683 -9.568113139418362 -9.454807077209914 0 0 0
1686 529 4 0 -0.49209964596202893 -9.364189611805601 -9.57688864994249 0 0 0
1495 465 4 0 -0.5741413136924841 -9.156025364218944 -9.910085193812085 0 1 1
1493 465 2 0 -0.8685082298668758 -9.36944501805932 -10.21976689667999 0 1 1
1722 541 4 0 -7.79532345280556 -8.560391525101029 -8.76231800975099 1 0 0
1707 536 4 0 -7.455985902630271 -8.745324034198529 -8.932981650183283 1 0 0
397 99 4 0 -2.4181188116487626 -8.663617460224753 -9.294653133445532 -1 0 0
185 37 3 0 -2.4677013154476577 -8.266826024971168 -9.221577828181758 0 0 1
184 37 3 0 -2.184052494339441 -7.676800000478775 -8.969066817448338 0 0 1
2116 672 4 0 -2.948958173456607 -7.651565661552458 -9.073256133963499 0 0 1
183 37 3 0 -2.833350346175992 -7.868188145821134 -8.755015574517122 0 0 1
1332 411 4 0 -8.367044142454995 -6.107987727295146 -10.029373566520817 0 0 1
1331 411 2 0 -7.951612705612078 -5.993980184513976 -10.108093601956211 0 0 1
2406 769 4 0 -8.761781512792096 -6.041014646363389 -10.04366930730663 1 0 1
382 94 4 0 -4.731306915636741 -6.8467350315003515 -8.752763932337755 0 0 -1
2114 672 2 0 -3.295454135868393 -7.333372368842606 -9.176194862164188 0 0 1
381 94 4 0 -4.027667300556679 -7.13748453861678 -9.26639251744888 0 0 -1
2115 672 4 0 -3.6169647400084903 -7.034445095796231 -9.274396885036005 0 0 1
380 94 2 0 -4.38481290190218 -6.990656347123314 -9.004943612355888 0 0 -1
610 170 4 0 -2.0184374121742032 -7.337330095419141 -9.146326627855656 0 0 0
608 170 2 0 -1.8961257285871578 -6.917337803853026 -9.302203520335569 0 0 0
724 208 4 0 -2.0129574973258944 -6.257530399481222 -9.68759636096217 0 0 1
609 170 4 0 -1.7737370126971126 -6.499662896972543 -9.454960079254796 0 0 0
962 288 2 0 -10.055723599151294 -4.8940000023656784 -9.88653162772168 0 0 1
964 288 4 0 -10.387079595745941 -5.1405491870515965 -9.726662488910925 0 0 1
963 288 4 0 -9.716385008488011 -4.636713375092456 -10.062612607834359 0 0 1
2405 769 2 0 -9.041168281370318 -5.86716986580473 -10.35070259709236 1 0 1
1333 411 4 0 -7.526330165481019 -5.877450671696022 -10.1921450943284 0 0 1
838 246 4 0 -7.413843665332365 -5.511345853855848 -10.02612638381283 0 0 1
836 246 2 0 -7.1097199164217315 -5.1931150524792224 -10.201354997913885 0 0 1
837 246 4 0 -6.811429520517238 -4.887192474379963 -10.376332409489734 0 0 1
657 186 4 0 -6.509310018994439 -4.708550726482817 -10.183910615948701 0 0 0
1698 533 4 0 -2.566251539935292 -5.187408923734075 -9.782125210812508 0 0 0
1697 533 2 0 -2.7643092543734284 -4.870240407743336 -9.541399450035705 0 0 0
1699 533 4 0 -2.970856499450166 -4.56270093423643 -9.299222256876824 0 0 0
723 208 4 0 -2.2424085533713236 -5.364969775230515 -9.643322968982218 0 0 1
722 208 2 0 -2.1243926448535415 -5.824512844307864 -9.66849831684106 0 0 1
656 186 2 0 -6.315073326626424 -4.397467296145811 -9.938195478038093 0 0 0
658 186 4 0 -6.1126807998839645 -4.064184438893809 -9.671519322355945 0 0 0
474 125 4 0 -5.795895211565882 -3.824463028368256 -9.71612066414232 0 0 0
473 125 2 0 -5.38654560625465 -3.846345698706341 -9.498352748864633 0 0 0
475 125 4 0 -4.977461385023795 -3.8677964800576627 -9.280542704539778 0 0 0
1513 471 4 0 -4.786814119965736 -4.0828658095689105 -9.008760745944699 0 1 1
107 22 3 0 -1.9157105172678601 -4.183597741523378 -10.049409220223579 0 1 1
109 22 3 0 -1.9883013308759074 -3.441827710483792 -10.151965890813601 0 1 1
106 22 1 0 -1.9718601871107921 -3.8495653138629526 -10.360605508444253 0 1 1
2216 706 2 0 -2.904267087607349 -1.6022707866651043 -10.289236247144263 1 0 1
2218 706 4 0 -2.8205854189975583 -1.9891769722467194 -10.091795690824268 1 0 1
1138 346 4 0 -2.4358990127575817 -2.1327753841105404 -9.962077054153278 -1 0 0
1136 346 2 0 -2.3797350476995565 -2.298892500375509 -9.553308793434272 -1 0 0
1137 346 4 0 -2.33024548710016 -2.4600851295014516 -9.16008433324772 -1 0 0
2568 823 4 0 -1.9406426962650376 -2.3991737499546586 -9.036945282300076 0 0 0
1057 319 4 0 -0.5463914717296613 -1.7554352013147938 -10.246800821861287 -1 0 0
797 233 2 0 -7.989623359989588 -0.16191869464331074 -9.727486156102307 0 -1 1
799 233 4 0 -7.912768215599278 -0.19571027068457383 -9.29455181026714 0 -1 1
798 233 4 0 -8.086520095587844 -0.1394663531177976 -10.171642905821301 0 -1 1
1861 587 4 0 -8.413647607122329 -0.1835522993290165 -10.388946889542678 1 0 0
2657 853 2 0 -0.7850235846576552 -0.5248356298675065 -0.057487114237700566 0 0 0
1055 319 2 0 -0.24529670896953532 -1.423687497953182 -10.242635164183636 -1 0 0
1105 335 4 0 -8.592137389579275 -10.008771722297661 -7.625584721752663 0 0 0
505 135 4 0 -8.397584320653415 -10.258314037450024 -7.8380405132561854 0 0 0
1706 536 2 0 -7.178515603495997 -8.981854417060726 -8.654788334894459 1 0 0
1708 536 4 0 -6.8883893290523055 -9.234343146363932 -8.375714628222504 1 0 0
1760 554 2 0 -7.323992395138991 -9.643661930839718 -7.781680915230558 0 0 0
1762 554 4 0 -7.15713532697013 -9.41782301048131 -8.144502149651565 0 0 0
1342 414 4 0 -5.403804643903989 -10.294492771956433 -7.706443005529853 0 1 1
1340 414 2 0 -4.98350330147014 -10.39537242796839 -7.832544892111881 0 1 1
1723 541 4 0 -8.697168791195551 -8.371038938362195 -8.78539789073935 1 0 0
1721 541 2 0 -8.246960401907467 -8.464537786545916 -8.77419362153125 1 0 0
181 37 1 0 -2.437503802811311 -8.0106671096957 -8.871116986174139 0 0 1
182 37 3 0 -2.245076994599247 -8.253017351824852 -8.507469264416006 0 0 1
1963 621 4 0 -1.9519831168078967 -8.056968816839287 -8.331546295511687 0 0 0
1961 621 2 0 -1.6659186350719186 -8.223817363037599 -8.02017194063192 0 0 0
1962 621 4 0 -1.3907933220194542 -8.381968405838922 -7.722497046486703 0 0 0
1468 456 4 0 -1.0115514773350975 -8.47654291569006 -7.859812328789792 0 0 1
1466 456 2 0 -0.7326069717331557 -8.689911750835364 -7.584824791873827 0 0 1
1587 496 4 0 -6.148149468643355 -6.065909621569246 -8.341920561332273 0 1 1
2227 709 4 0 -5.115239404780011 -6.707251803757887 -8.694817894485539 0 0 0
2226 709 4 0 -5.865378258138959 -6.185277058928998 -8.613536482296814 0 0 0
2225 709 2 0 -5.496149534701746 -6.441964994746272 -8.6483771884819 0 0 0
2803 901 4 0 -9.798805866267084 -4.539802444437652 -7.918398439308882 1 0 1
1586 496 2 0 -6.197271220478978 -5.729822299004658 -8.068662271999722 0 1 1
1588 496 4 0 -6.255977533427992 -5.3565191951170075 -7.7775557885833 0 1 1
2302 734 4 0 -6.421715036445629 -5.49569686092219 -7.441637892288504 0 0 1
2802 901 4 0 -9.327862190539365 -3.7713587308623926 -7.785278065073201 1 0 1
2801 901 2 0 -9.559088593585798 -4.149720827127255 -7.852233879594668 1 0 1
2610 837 4 0 -8.969731597491716 -3.618915722419875 -7.7861633212613794 0 0 1
2609 837 2 0 -8.710954369927853 -3.271547773632946 -7.712976872761215 0 0 1
2855 919 2 0 -3.368365484819924 -4.412579886519906 -8.700381317550091 1 0 1
2857 919 4 0 -3.702821367478594 -4.2288159085363 -8.505978357227248 1 0 1
1511 471 2 0 -4.39830567132133 -4.033129603116553 -8.798564597040532 0 1 1
1512 471 4 0 -4.010861126677794 -3.9797525785550056 -8.594307993303856 0 1 1
2856 919 4 0 -3.027941258163948 -4.61749386616095 -8.900692246190955 1 0 1
2611 837 4 0 -8.437199943850135 -2.9085907758668714 -7.633441596983305 0 0 1
1464 455 4 0 -8.357467892433943 -2.515647099023857 -7.552774904088823 0 1 1
1463 455 2 0 -8.134232783817493 -2.2725784799608797 -7.86531667594153 0 1 1
1465 455 4 0 -7.92243036099118 -2.0247134741019357 -8.181152711285515 0 1 1
2092 664 4 0 -7.965668743138334 -1.6417303755721873 -8.283001247984991 1 0 1
2567 823 2 0 -1.8447117033383462 -2.2514940587524257 -8.618852848668654 0 0 0
2569 823 4 0 -1.750706056476873 -2.0827209330204086 -8.19084207282001 0 0 0
1864 588 4 0 -2.079978056017343 -1.8632003981377536 -8.141552714772349 0 0 0
1862 588 2 0 -2.3779960306331347 -1.6123328346549157 -7.8686956875141 0 0 0
2147 683 2 0 -0.12785282994395553 -2.2660065883951255 -8.32579327341476 0 0 1
541 147 4 0 -0.5697051920274178 -2.2889366205494803 -7.650061871725309 0 0 0
2149 683 4 0 -0.4307515103770516 -2.1124027744637193 -8.025531634588319 0 0 1
539 147 2 0 -0.7815062132373655 -2.108426210072473 -7.301189121638324 0 0 0
1969 623 4 0 -0.460506357084263 -0.11676664246662505 -0.631575639702318 0 1 0
2091 664 4 0 -7.86292228889152 -0.7834198454233394 -8.564975558017178 1 0 1
132 27 3 0 -8.016033835218556 -0.4856740982123937 -8.370610130555324 1 -1 0
2090 664 2 0 -7.914974762688646 -1.2122600371616676 -8.426164623418078 1 0 1
131 27 1 0 -7.747408793945518 -0.15428665005957903 -8.537354494209564 1 -1 0
134 27 3 0 -7.3456180964264135 -0.14988961051079572 -8.277853010438626 1 -1 0
2143 681 4 0 -6.997693240265753 -0.15621402442039348 -8.057404644695495 0 0 1
1863 588 4 0 -2.671785755480414 -1.3676105576451953 -7.596967719611584 0 0 0
1103 335 2 0 -8.774897803594248 -9.70829191749556 -7.342841289360348 0 0 0
1104 335 4 0 -8.957407486188552 -9.398603742957992 -7.051846467500827 0 0 0
1396 432 4 0 -8.105323091341937 -9.04307672016719 -6.046790968469148 0 1 1
1394 432 2 0 -7.725646136704388 -9.299081413043195 -6.082302005671504 0 1 1
1982 628 2 0 -8.730895413418448 -9.015777498924884 -6.466036779308409 1 0 0
1984 628 4 0 -8.425915836432784 -8.837429538634245 -6.240360306284057 1 0 0
1761 554 4 0 -7.492347752974199 -9.865665915814079 -7.434258979217624 0 0 0
1550 484 2 0 -6.6929171251267325 -9.869864607744326 -6.544747227895684 0 1 1
1552 484 4 0 -6.984518260954389 -9.714583299950483 -6.234768069265771 0 1 1
1551 484 4 0 -6.409521344922455 -10.013038664145334 -6.8561331060467685 0 1 1
1431 444 4 0 -6.053646001333216 -10.148011898324226 -6.70595955942987 0 1 1
1395 432 4 0 -7.337340232145165 -9.558880541518434 -6.108710767688616 0 1 1
1432 444 4 0 -5.397144096571867 -10.261081062563736 -7.302098331808533 0 1 1
1430 444 2 0 -5.720362502534712 -10.202700786967037 -7.004289595793357 0 1 1
1600 500 4 0 -0.4111364472863535 -9.118383898517132 -6.958127235182313 0 0 1
1598 500 2 0 -0.23978129037641746 -9.076052590607222 -6.538849436593642 0 0 1
1983 628 4 0 -9.078281608375878 -9.20572448196496 -6.715747676438464 1 0 0
1599 500 4 0 -0.0881777985646852 -9.03238694527027 -6.156997191642756 0 0 1
1467 456 4 0 -0.4671603047075116 -8.902091678198474 -7.300202114766633 0 0 1
901 267 4 0 -9.922181378424572 -4.609288868368895 -7.560739909602005 1 -1 1
899 267 2 0 -10.343425162849353 -4.731404163523151 -7.394726480420157 1 -1 1
2193 698 4 0 -7.708165561516248 -5.056706656851924 -6.101022876334216 0 0 1
2192 698 2 0 -7.564048670227736 -5.348845094657673 -6.426874691753071 0 0 1
2194 698 4 0 -7.412941607625389 -5.615330300535822 -6.732345979535547 0 0 1
2300 734 2 0 -6.806117498697518 -5.453885844459058 -7.228024888661786 0 0 1
2301 734 4 0 -7.202769004236665 -5.4218466724265335 -7.017193792574844 0 0 1
10 2 3 0 -2.9782826711058776 -1.696609877135628 -6.180947199140977 0 0 0
2311 737 4 0 -1.611574935448888 -1.3828545866124007 -6.098957786453275 1 0 1
2310 737 4 0 -1.1370572883451402 -2.0299975553828977 -6.597886600604317 1 0 1
2309 737 2 0 -1.359332130510033 -1.7197939670013238 -6.3686187021801555 1 0 1
540 147 4 0 -0.9875384279876189 -1.9342352405744148 -6.967546490207052 0 0 0
650 184 2 0 -6.324228418722606 -0.16815878187433755 -6.228478390474011 0 0 1
652 184 4 0 -6.752118720148729 -0.2763313892598308 -6.254762871314971 0 0 1
2794 898 4 0 -7.173697224194052 -0.3017597776077469 -6.308558969805498 0 0 1
996 299 4 0 -5.585841553453761 -0.3536140521309709 -6.178735910277712 0 0 1
995 299 2 0 -5.222545870361611 -0.3612506722277715 -5.94463699551065 0 0 1
651 184 4 0 -5.870358738842321 -0.047261081329679516 -6.205264122556933 0 0 1
967 289 4 0 -3.0338298891613866 -1.8024925137091308 -6.556816404233601 0 -1 1
966 289 4 0 -2.797434933429021 -1.2220589887506375 -7.252144363464382 0 -1 1
965 289 2 0 -2.915023198401835 -1.5002925850608275 -6.910399671424404 0 -1 1
268 56 4 0 -5.347713283233476 -10.339176995848236 -4.529188698010988 -1 0 0
1574 492 2 0 -3.5419297611561045 -6.02696138803056 -4.680109953931136 0 1 1
1576 492 4 0 -3.9079848340546786 -5.956602017055339 -4.891437628710863 0 1 1
549 150 4 0 -7.549625769386874 -4.7671101435790995 -5.886759894173895 0 0 0
1575 492 4 0 -3.159011682424147 -6.103094945282506 -4.452526631736238 0 1 1
1198 366 4 0 -4.462362633091787 -4.716052805359307 -4.9474728904601415 0 0 0
1242 381 4 0 -2.8792574644896107 -5.784238534579315 -4.409737640203874 0 1 0
548 150 2 0 -7.52678562072889 -4.4199686138581455 -5.600117827768832 0 0 0
550 150 4 0 -7.515540220932934 -4.0707153673637695 -5.327858486192956 0 0 0
1589 497 2 0 -7.630944795599875 -3.295036594563545 -5.301835515008983 0 0 0
1591 497 4 0 -7.720802706736629 -3.752558233391728 -5.445965892431258 0 0 0
1196 366 2 0 -4.147626137833058 -4.499714914462221 -5.171642459582397 0 0 0
2208 703 4 0 -4.101336671608062 -3.0306139720185454 -5.564445589198124 0 0 1
2207 703 2 0 -3.9471968213423794 -3.449135927445855 -5.484025126018432 0 0 1
2209 703 4 0 -3.7863453653897965 -3.892830237695103 -5.390978287636154 0 0 1
1197 366 4 0 -3.853848524785497 -4.287530930706602 -5.391500082866565 0 0 0
1590 497 4 0 -7.54016025747566 -2.8750492582649825 -5.168219157171874 0 0 0
313 71 4 0 -7.568002991210121 -2.48448536374127 -5.236111853274137 0 0 0
311 71 2 0 -7.5415270817005835 -2.120761632314555 -5.010964143908348 0 0 0
312 71 4 0 -7.503276093146818 -1.7198898372785814 -4.749375509690776 0 0 0
9 2 3 0 -3.353552923042861 -1.7642295992982042 -5.543208774887828 0 0 0
1503 468 4 0 -3.7554773010919718 -1.8446414167589777 -5.534088339810497 0 0 1
1504 468 4 0 -4.142830583611968 -2.6325880405951394 -5.595629510939949 0 0 1
1502 468 2 0 -3.9591996610373856 -2.259400146469151 -5.570131320638575 0 0 1
433 111 4 0 -7.246098033223496 -1.3995970194585707 -4.741492584189058 -1 0 0
2793 898 4 0 -7.439454713304851 -0.3480028753392838 -5.403187293716601 0 0 1
431 111 2 0 -7.357665115463009 -1.0231136049579475 -4.920563434134595 -1 0 0
432 111 4 0 -7.461973166526391 -0.6311002664552218 -5.109717232243808 -1 0 0
2792 898 2 0 -7.313167030957543 -0.320391339684854 -5.8458637159478295 0 0 1
997 299 4 0 -4.849262807243723 -0.36788897143339755 -5.721685730809879 0 0 1
1524 475 4 0 -5.372820107231305 -0.08026494020895569 -4.6193279359400226 0 0 0
483 128 4 0 -4.45546211077432 -0.4061716344085327 -5.85242377150107 0 0 0
6 2 1 0 -3.134675498601332 -1.4763695597823838 -5.825318873223379 0 0 0
484 128 4 0 -3.7173308598155685 -0.9062363610359553 -5.8510146079964445 0 0 0
7 2 3 0 -3.4147911532648805 -1.1536384687746695 -5.960254463532201 0 0 0
482 128 2 0 -4.07780875632934 -0.6692262899164575 -5.852607868784281 0 0 0
2835 912 4 0 -1.56413352734437 -1.406821086462502 -5.712356959859046 0 1 0
2834 912 2 0 -1.9759592496382108 -1.3570261053697936 -5.553896411403926 0 1 0
8 2 3 0 -2.772936981154003 -1.2872132829816592 -5.603671825019731 0 0 0
2836 912 4 0 -2.426968236809877 -1.3062064164131721 -5.393962062069271 0 1 0
1542 481 4 0 -10.141351793858039 -9.729523891490556 -3.6299645141348615 0 1 0
1541 481 2 0 -9.754831246273291 -9.811789524380883 -3.367816747514868 0 1 0
1543 481 4 0 -9.382536190236692 -9.893600990500534 -3.1064613879935132 0 1 0
1166 356 2 0 -2.610850768308152 -0.07957147972339884 -1.064196412286349 0 1 0
1876 592 4 0 -2.205174400527447 -10.128461429070688 -4.260477603294028 0 0 0
736 212 4 0 -2.236663014636739 -8.923355345231741 -4.089894105778739 0 1 1
1875 592 4 0 -2.074311863574395 -9.28247233330814 -4.005473536939238 0 0 0
1874 592 2 0 -2.1438625932540716 -9.701858063088913 -4.135418558515327 0 0 0
1112 338 2 0 -3.135961490358695 -0.9764691702581394 -1.453713706883031 0 0 -1
2658 853 4 0 -0.7722605888727122 -0.2780725883582464 -0.435215024295485 0 0 0
734 212 2 0 -2.2423271787833894 -8.493885093803478 -3.972828123399157 0 1 1
735 212 4 0 -2.257659489144338 -8.052301650616354 -3.8655925153589443 0 1 1
2853 918 4 0 -2.2500371539911503 -8.055333996875172 -3.4659527772537646 0 0 0
2852 918 2 0 -2.3777846046629314 -7.677037806892221 -3.23209753465009 0 0 0
2017 639 4 0 -9.324910037974155 -6.784442263025697 -3.3419594219855564 1 0 0
1929 610 4 0 -9.43561882993432 -6.426758592775027 -3.215664963324486 1 0 0
2015 639 2 0 -9.041972181741803 -7.142341147641265 -3.4106018936685953 1 0 0
2862 921 4 0 -8.588694858361368 -7.435815603647001 -3.1027036166701447 1 0 0
2016 639 4 0 -8.770614964187198 -7.501561358628796 -3.4674753284331317 1 0 0
372 91 4 0 -2.786494647623997 -6.9936917070734275 -3.0744529238449503 0 0 0
2854 918 4 0 -2.5049452469327784 -7.293486270908263 -2.9970806622967805 0 0 0
1358 420 2 0 -1.0052589359303028 -6.308273529025029 -3.1111715964172193 0 1 1
1359 420 4 0 -0.899435792939576 -6.711644240452329 -2.957379826828048 0 1 1
1241 381 2 0 -2.5926828637437547 -5.462411681678646 -4.262653286718281 0 1 0
1243 381 4 0 -2.3083123142966544 -5.138385947537178 -4.1162138972850935 0 1 0
1479 460 4 0 -1.928846742488633 -5.180581011786373 -3.9944931635964336 0 1 1
1478 460 2 0 -1.6328128859605502 -5.452288215988521 -3.760554200203831 0 1 1
1480 460 4 0 -1.340321609548106 -5.702502061442944 -3.5394080599219997 0 1 1
1360 420 4 0 -1.1099668488725911 -5.897520676102618 -3.2552630417088397 0 1 1
2256 719 4 0 -2.9396442927908857 -1.8485665579726145 -3.1035246358009734 1 0 0
2255 719 2 0 -2.849552163066156 -1.980652174440698 -3.5298873509985174 1 0 0
2257 719 4 0 -2.7413871760220805 -2.1279778811322902 -3.966909518547982 1 0 0
387 96 4 0 -7.718718887596004 -0.8272496155896081 -3.8075136743906848 0 0 0
19 4 3 0 -7.621511750191948 -0.44701690481125245 -3.7794637371586033 0 0 0
386 96 2 0 -7.340262393946272 -1.008258110106202 -3.6591345514450473 0 0 0
388 96 4 0 -6.946789762283267 -1.2087139863046998 -3.507189052237082 0 0 0
1570 490 4 0 -6.562445072498103 -1.1513140073167087 -3.611720596458236 0 0 0
1568 490 2 0 -6.103395515562942 -1.0764778749487558 -3.681684280188195 0 0 0
1569 490 4 0 -5.666877927014942 -0.9989618078175608 -3.750013114019467 0 0 0
1525 475 4 0 -5.56080348946358 -0.8122310931603934 -4.094094201875252 0 0 0
1523 475 2 0 -5.4645852248418025 -0.4574422819807004 -4.340911751723493 0 0 0
2761 887 4 0 -10.147287456758354 -9.561146873256163 -2.710307271416926 1 1 1
2746 882 4 0 -9.536628596074333 -9.964128389734848 -2.7436839993873625 1 1 0
2744 882 2 0 -9.24363006861614 -9.971964013888936 -2.3999927129387904 1 1 0
2745 882 4 0 -8.951324668307825 -9.984268206794553 -2.0481526214303423 1 1 0
2671 857 4 0 -8.80791099614432 -9.664197043797742 -1.8722683310996169 1 1 -1
2565 822 4 0 -6.967207236593879 -9.978863438462113 -2.339076166042691 1 1 0
2564 822 2 0 -6.771186898823577 -9.771368851106692 -1.9777404323279488 1 1 0
2566 822 4 0 -6.581856922717138 -9.5665119361587 -1.6215129669632304 1 1 0
1565 489 2 0 -5.105120367808762 -8.911691474517568 -1.8822118765740514 0 1 1
1567 489 4 0 -5.16899046079457 -9.313999978435445 -1.6777893823788825 0 1 1
1167 356 4 0 -3.0033033970499337 -0.2861459967012069 -1.098038192337733 0 1 0
2863 921 4 0 -7.805244157229815 -7.814488603350535 -2.752849351346631 1 0 0
2861 921 2 0 -8.182109045902683 -7.631560309997269 -2.915015290068366 1 0 0
1836 579 4 0 -7.38884669828601 -7.772297780975102 -2.74737409649503 1 0 0
1835 579 2 0 -7.012670737268655 -7.950526055267432 -2.5289805916188923 1 0 0
1837 579 4 0 -6.645741503425647 -8.127152428809662 -2.314005961328938 1 0 0
1712 538 2 0 -6.176279646200843 -8.26911458546624 -1.8118175627832582 1 0 0
1714 538 4 0 -6.623463000565433 -8.273020925133613 -1.9276559129376363 1 0 0
1713 538 4 0 -5.7208168105988415 -8.257257345412151 -1.70919647058218 1 0 0
1566 489 4 0 -5.032514681835346 -8.491444563966633 -2.081778933181473 0 1 1
280 60 4 0 -1.0823676393086494 -7.3389928518810414 -2.0231731272409683 0 0 0
1928 610 2 0 -9.66758494904373 -6.315455191177401 -2.8497862514299217 1 0 0
1930 610 4 0 -9.911914179363505 -6.209699171437662 -2.4822359346704763 1 0 0
584 162 2 0 -9.98565605314628 -6.59026955700015 -1.7561191943350765 0 0 0
585 162 4 0 -9.93330899700796 -6.46778360148766 -2.1789150021092123 0 0 0
2236 712 4 0 -3.7374399075026004 -6.396673512128613 -2.7936238696114692 1 0 1
2234 712 2 0 -3.795630064014445 -6.243521731088882 -2.3841819039908767 1 0 1
2235 712 4 0 -3.851596863335707 -6.09207697429884 -1.959747940432034 1 0 1
373 91 4 0 -3.6164022418070023 -6.565127918086728 -3.143885593087627 0 0 0
371 91 2 0 -3.198984253925636 -6.780121210504461 -3.1093703565189994 0 0 0
915 272 4 0 -1.437510201492372 -7.231126115170607 -1.8611199443771727 0 0 1
278 60 2 0 -1.0027023084399629 -7.215589388539052 -2.4679625857924936 0 0 0
279 60 4 0 -0.9306641722796712 -7.098794659570714 -2.8751758694899405 0 0 0
753 218 4 0 -3.970693481825726 -5.731965870141591 -1.792886628219153 0 0 0
1544 482 2 0 -2.9871773986446346 -1.4999941335018412 -2.3949533289071208 0 0 0
1545 482 4 0 -2.937689463531872 -1.5612509004581994 -2.8356654258579024 0 0 0
1113 338 4 0 -3.330938318962964 -1.3082266178819422 -1.6670027621747783 0 0 -1
1546 482 4 0 -3.0381347998792356 -1.4420815312995041 -1.9382616874028273 0 0 0
854 252 2 0 -8.707474705545803 -9.294075789926104 -0.2242242624905764 0 0 0
2669 857 2 0 -8.62839625901377 -9.495175334737711 -1.4679368756040367 1 1 -1
2670 857 4 0 -8.45048491699609 -9.306888808903027 -1.038552208362382 1 1 -1
856 252 4 0 -8.602390353982049 -9.425707673207434 -0.689818619667882 0 0 0
2574 825 4 0 -6.350821152256782 -9.528666151377662 -1.2734146105776145 1 1 0
2573 825 2 0 -5.894831404941701 -9.479209403094144 -1.3278192468119305 1 1 0
2575 825 4 0 -5.433471434371698 -9.430524847000779 -1.3862812131290045 1 1 0
1852 584 4 0 -0.9946001138053702 -10.358300021593609 -0.3182506298032852 0 0 1
2820 907 4 0 -9.492368962486882 -7.50655322027902 -0.08968106024434143 1 1 1
2819 907 2 0 -9.426118711454283 -7.961470600477432 -0.08090861087061427 1 1 1
3029 977 2 0 -6.9353006852201435 -7.821241241259769 -0.18108666455142278 0 1 0
3031 977 4 0 -6.859176475980697 -7.539228434144668 -0.5329226336638145 0 1 0
2418 773 4 0 -5.589552691440298 -8.422079752681851 -1.361112753814324 1 0 0
385 95 4 0 -5.2366612463334405 -7.649096792553273 -0.6004124356883122 0 0 0
2417 773 2 0 -5.377063358171568 -8.21800725115476 -1.027549867541121 1 0 0
2419 773 4 0 -5.165001605472607 -8.016337141660934 -0.6885935574946652 1 0 0
383 95 2 0 -5.0533020109364415 -7.5636988381754175 -0.1781241144993637 0 0 0
1619 507 2 0 -1.4555718204524113 -7.564233248956865 -0.17451729850302358 0 1 1
1620 507 4 0 -1.5901821430931011 -7.33366579180648 -0.5829045229980087 0 1 1
586 162 4 0 -10.035860842229363 -6.716640022370926 -1.3231866493047755 0 0 0
495 132 4 0 -9.640583757509235 -7.165315389452724 -0.25709533973602544 0 0 0
494 132 2 0 -9.889193681072314 -7.019494967902275 -0.6112430747580405 0 0 0
496 132 4 0 -10.139891063128836 -6.873555715366544 -0.9768525447620998 0 0 0
2995 965 4 0 -6.850852446191857 -7.136235356584679 -0.5471041693148472 0 1 0
2993 965 2 0 -6.583193387624547 -6.846244938406749 -0.762255462022107 0 1 0
2994 965 4 0 -6.32306207461406 -6.530324388881184 -0.9716695910688035 0 1 0
2628 843 4 0 -5.964277965842195 -6.403452595784912 -0.844377730137801 0 1 0
2627 843 2 0 -5.570172515639962 -6.1983112438450965 -0.7335143426312527 0 1 0
1499 467 2 0 -4.625501460444094 -6.247556970005422 -0.06823710214111968 0 1 0
1501 467 4 0 -4.949316601692673 -6.11502974547033 -0.3250541206350898 0 1 0
2629 843 4 0 -5.1890333825222115 -5.99522078223329 -0.6105631627250178 0 1 0
916 272 4 0 -1.5437784125132874 -7.337472441591639 -0.9827527290976373 0 0 1
914 272 2 0 -1.486021632881968 -7.286078278244128 -1.4313162738934224 0 0 1
752 218 2 0 -3.914416299883732 -5.5333608184465195 -1.3830051322868282 0 0 0
754 218 4 0 -3.860964443347892 -5.335826250629539 -0.9862064461530691 0 0 0
2021 641 2 0 -3.2870336134243487 -5.381825028630926 -0.4576849048134116 0 0 -1
2022 641 4 0 -3.726933448386641 -5.424465118764174 -0.6167580589818372 0 0 -1
2023 641 4 0 -2.862740675661752 -5.342103478851085 -0.2986330977665621 0 0 -1
717 206 4 0 -2.504721229116436 -5.36370931571981 -0.13444568988773464 -1 0 0
1733 545 2 0 -2.6704169343781463 -1.8317322104534002 -0.9503886553076942 0 0 0
1734 545 4 0 -2.48602495382836 -1.6904010258555582 -0.5403151567157556 0 0 0
2050 650 4 0 -2.7009925062181535 -1.8752071045879226 -0.24229857473743693 0 0 0
1735 545 4 0 -2.8559822186322568 -1.9727271452802375 -1.3649265571136973 0 0 0
1114 338 4 0 -2.9313713793234175 -0.64141568593314 -1.2395100701143105 0 0 -1
135 27 3 0 -7.658489185986131 -0.2319542651448774 -8.966160629900308 1 -1 0
394 98 4 0 -5.081434365557257 -0.04435551570269426 -4.881558024980697 0 0 0
930 277 4 0 -0.8248737682469428 -10.118415257557242 -0.0016271771494052794 0 1 1
2821 907 4 0 -9.367175790248474 -8.4037794662534 -0.0775521116851464 1 1 1
28 6 3 0 -9.56892424308602 -4.785267065060529 -10.403676603044211 0 0 0
2281 727 4 0 -9.955717453263127 -9.544435109389376 0.22426752601343689 1 0 0
2279 727 2 0 -9.93268922506843 -9.92630124586443 0.4749471091143407 1 0 0
119 24 3 0 -9.812590278611413 -9.173375918598524 0.33016477172629344 0 1 0
120 24 3 0 -9.086394967167866 -9.094304477154646 0.44431487963286503 0 1 0
855 252 4 0 -8.804862530883234 -9.187012065608656 0.1930824727527365 0 0 0
931 277 4 0 -0.9256556671763996 -9.387990438322264 0.5249156018669279 0 1 1
2259 720 4 0 -1.0005286528516373 -8.98297853785608 0.46277013675598755 0 0 0
929 277 2 0 -0.8746346800112792 -9.745240769589913 0.2644684675604038 0 1 1
123 25 3 0 -8.572284208779992 -10.177741759307734 9.65635021545699 0 1 0
118 24 3 0 -9.58335673254769 -8.832732166748173 0.9380929313504871 0 1 0
116 24 1 0 -9.489500502212339 -8.906727351704939 0.49706304975119625 0 1 0
3070 990 4 0 -9.664174572390454 -8.498725359679028 1.1222932093606741 1 1 1
117 24 3 0 -9.507841913043888 -8.525936643818051 0.28260812156387716 0 1 0
1386 429 4 0 -8.061698599561085 -10.288643965736657 8.53763793440466 0 0 0
1461 454 4 0 -6.739579091988808 -8.1483634830901 1.273027509782012 1 1 0
1460 454 2 0 -6.953052205970066 -8.210490776145994 0.8979526430483298 1 1 0
1462 454 4 0 -7.160850922295944 -8.27552529857467 0.5244033013234198 1 1 0
3030 977 4 0 -7.009445616662226 -8.104740341462621 0.18366774327834454 0 1 0
2198 700 2 0 -6.014861926465513 -8.364116789538388 1.4431831339791157 1 0 0
616 172 4 0 -4.9885252075455195 -7.773411656645312 0.4698758010828978 0 0 0
614 172 2 0 -5.1638073572359025 -7.99595081940553 0.8239278666009049 0 0 0
384 95 4 0 -4.8805229684959315 -7.482684159843282 0.23079252017136848 0 0 0
615 172 4 0 -5.3584967829897785 -8.221171037992708 1.1785923697699938 0 0 0
2200 700 4 0 -5.562520771305653 -8.30480359235728 1.4972352792665142 1 0 0
2258 720 2 0 -1.1071987627046063 -8.564402196628395 0.40594312868725685 0 0 0
2260 720 4 0 -1.211806452537269 -8.137117387471022 0.34565891655870756 0 0 0
1621 507 4 0 -1.3411497261438654 -7.778602969027425 0.21560548753774522 0 1 1
1500 467 4 0 -4.273543076079906 -6.383594501976577 0.1889171969684856 0 1 0
2176 692 4 0 -3.705331776786818 -6.865193809195395 1.0422498155996327 0 1 0
2174 692 2 0 -3.9348781160193895 -6.583923307507879 0.8009631979927866 0 1 0
2175 692 4 0 -4.160099481609653 -6.307967665955401 0.5535978984427478 0 1 0
874 258 4 0 -1.6466954516133891 -5.36240500337717 0.7328101431657418 1 0 0
716 206 2 0 -2.174641045647529 -5.453777876374659 0.15325149300505062 -1 0 0
718 206 4 0 -1.8445722966956557 -5.53852582259755 0.4530121950636692 -1 0 0
872 258 2 0 -1.5391081762337306 -5.640741089622593 1.0254311407327545 1 0 0
873 258 4 0 -1.4196005003022134 -5.948261517306992 1.3505133184031939 1 0 0
1749 550 4 0 -2.5644910726083188 -2.142616182960335 0.8799705337754088 1 0 0
2048 650 2 0 -2.719110286717004 -2.067002890779218 0.1633295316460142 0 0 0
2049 650 4 0 -2.7436942535726394 -2.266238787411132 0.5674353069387359 0 0 0
1748 550 2 0 -2.614950092783855 -2.330167595995163 1.3066975577594895 1 0 0
3083 995 2 0 -6.441575196807564 -0.17133011275800192 1.3776614119822548 0 1 0
305 69 2 0 -5.31349786384449 -0.3313539511067514 1.0593849181516226 0 0 -1
307 69 4 0 -5.209670002019774 -0.5812755512644675 1.4076113099627285 0 0 -1
172 35 3 0 -5.362710779014057 -0.9458472420178791 1.468620867928896 0 0 0
939 280 4 0 -1.1894765269627656 -0.7532421568322564 0.4783361580942457 0 0 0
2659 853 4 0 -0.8096212910830409 -0.768968124414908 0.3114983468874024 0 0 0
938 280 2 0 -1.1420574691271024 -0.8606902474213705 0.9114825707858709 0 0 0
88 18 3 0 -4.958432984175612 -9.461565402655403 1.699564178301892 0 1 -1
86 18 1 0 -4.595904213533395 -9.504241897204173 1.9262888738032424 0 1 -1
90 18 3 0 -4.676654721991947 -9.766731570480951 2.3040306358873357 0 1 -1
87 18 3 0 -4.4591989132402485 -9.094361340605085 2.0520703261405653 0 1 -1
1472 458 2 0 -3.749371175738987 -10.186314875270556 1.828411635758566 0 1 1
1474 458 4 0 -4.201993483990791 -10.082302072095045 1.8091627192718096 0 1 1
89 18 3 0 -4.275014322934465 -9.700479464079411 1.6636440045502363 0 1 -1
78 16 3 0 -2.596289505828178 -10.15649013163468 2.607913126734814 0 1 -1
1840 580 4 0 -2.500852364101585 -9.784168059604651 2.5054583700990025 0 0 -1
1838 580 2 0 -2.300960252233165 -9.621583352799504 2.899783478801377 0 0 -1
3069 990 4 0 -10.22033829356314 -8.516847830008526 1.8477953064319974 1 1 1
3068 990 2 0 -9.956536272304968 -8.509184720437057 1.4954856142653237 1 1 1
2672 858 2 0 -9.988108551926091 -8.662319552125632 2.6043377365328655 1 1 0
2673 858 4 0 -10.016955467723845 -8.695427725222826 2.124922484766696 1 1 0