LAMMPS data file via write_data, version 4 Feb 2025, timestep = 8500000, units = lj

24480 atoms
4 atom types
16480 bonds
1 bond types
9200 angles
2 angle types

-20.81171 20.81171 xlo xhi
-20.81171 20.81171 ylo yhi
-20.81171 20.81171 zlo zhi

Masses

1 1
2 1
3 0.1
4 0.1

Bond Coeffs # harmonic

1 100 0.45

Angle Coeffs # harmonic

1 100 180
2 100 109.471

Atoms # full

16222 5248 2 0 -20.47429678845017 -20.59959508769057 -20.15342644451387 1 1 1
16224 5248 4 0 -20.69245381492283 -20.53280194639794 -19.76630819623443 1 1 1
16223 5248 4 0 -20.255302009020962 -20.671738529709074 -20.549430180323174 1 1 1
11606 3709 4 0 -19.96318032927627 -20.71441495755105 20.75492241866517 1 1 0
8801 2774 4 0 -18.94615495491586 -20.540069271477154 -20.803352380496303 1 1 0
4862 1461 4 0 -18.981908015410845 -20.748247052018005 -20.482286971751 1 1 0
6180 1900 4 0 -13.21101038904714 -20.713628413420086 -19.62832004519878 0 1 1
20891 6804 4 0 -13.505283251281694 -20.74190422513482 -19.915121521782318 0 1 1
20890 6804 2 0 -13.463770599472333 20.675299769370685 -20.32014988914159 0 0 1
9755 3092 4 0 -9.66298843445977 -19.316884947868726 -19.165576939235393 0 0 0
11538 3686 4 0 -3.0111908687977227 -19.438058554716108 -19.564254533668567 0 0 0
11536 3686 2 0 -2.656104915300446 -19.507497753702687 -19.303542162777184 0 0 0
18292 5938 2 0 -0.5148349021301506 -20.777683305211003 -19.923421823506807 0 0 1
18294 5938 4 0 -0.3301316119498239 -20.46796321491119 -19.65555560417545 0 0 1
1970 497 4 0 -0.08065748026940156 -20.27429105147987 -19.40759561443241 0 0 1
6062 1861 4 0 4.5433790314719715 -20.622375485385568 -20.78744433154571 0 0 1
20567 6696 4 0 14.348491758519682 -20.186354727822703 -19.46415296595607 0 0 0
20566 6696 2 0 14.383843248518513 -20.63002004251681 -19.46749711928945 0 0 0
8137 2553 2 0 17.783787127503413 -19.684109532931195 -19.642338737610856 0 1 0
8138 2553 4 0 18.149145402996044 -19.866218881146313 -19.512310962238715 0 1 0
3230 917 4 0 18.450841482722286 -19.675519507583346 -19.71808075398063 0 0 1
3229 917 2 0 18.8482777420035 -19.584009672175515 -19.542768952311985 0 0 1
3231 917 4 0 19.2866469544465 -19.48193604603685 -19.35328877974414 0 0 1
7170 2230 4 0 20.528858101772816 -20.549118752173015 -19.670529874173297 0 1 0
7168 2230 2 0 20.093900380416617 -20.626136453025115 -19.695893986837653 0 1 0
18534 6018 4 0 -20.292030320642965 -18.069994841495905 -19.616904977408243 0 0 1
4548 1356 4 0 -20.50478031853997 -18.25312299954206 -19.907200832471293 1 1 0
4546 1356 2 0 -20.508387203928116 -18.267604397805496 -20.351968241940607 1 1 0
18675 6065 4 0 -2.934618108830634 -18.79801756147726 -20.67035358800319 1 0 0
18673 6065 2 0 -2.9126196507954916 -18.97947185383408 -20.246109596119176 1 0 0
18674 6065 4 0 -2.884445591714851 -19.161451340517438 -19.825463498082826 1 0 0
13122 4214 4 0 8.86770876485065 -19.134237866709874 20.78184639636581 0 1 -1
20868 6796 4 0 14.036956364871454 -18.45104625013877 -19.587735109820912 0 1 1
20866 6796 2 0 13.794253162325415 -18.298266038435884 -19.942799330009432 0 1 1
20867 6796 4 0 13.568333368333075 -18.154931592873826 -20.29638093787416 0 1 1
10979 3500 4 0 14.364240013659543 -18.482088289597957 -19.395482702733133 -1 0 1
2147 556 4 0 13.196057542646589 -18.20340597253256 -20.49483902995038 0 1 1
10978 3500 2 0 14.79943177911613 -18.55447314860064 -19.482293635963043 -1 0 1
485 97 3 0 15.479039187344586 -18.640635547804152 -19.868717027273416 0 0 1
10980 3500 4 0 15.226960699333272 -18.630174374640738 -19.569753698603392 -1 0 1
484 97 3 0 15.786777668443275 -18.627308489945918 -20.546533392940642 0 0 1
481 97 1 0 15.820696717997233 -18.4637883775667 -20.151504180474113 0 0 1
482 97 3 0 16.21459917275823 -18.56465525109567 -19.983180614839874 0 0 1
483 97 3 0 15.77907752413483 -18.031926921053472 -20.16652893136391 0 0 1
14366 4629 4 0 15.758048772821088 -18.808405610754097 20.731723787973582 -1 0 -1
4800 1440 4 0 17.13181210762036 -19.18529128137869 -19.834801520775407 0 1 1
8139 2553 4 0 17.3981021013979 -19.48566605684515 -19.80046809966691 0 1 0
4798 1440 2 0 16.872653484643312 -18.84076177279754 -19.965200823331536 0 1 1
4799 1440 4 0 16.61766024467106 -18.49074057194494 -20.097978335433826 0 1 1
1376 299 4 0 -14.390872274576719 -16.453579141512222 -19.713550225282063 0 0 1
9871 3131 2 0 -13.229129454195178 -16.259057881804257 -20.69790654051281 0 0 1
9872 3131 4 0 -13.63053472877907 -16.47460765184814 -20.598809652939025 0 0 1
20082 6534 4 0 -11.186422854362535 -16.55331787601922 20.768360003847757 0 0 -1
20080 6534 2 0 -10.883627369157821 -16.598434105263223 -20.525570113098034 0 0 0
20081 6534 4 0 -10.56804834816073 -16.651873695771737 -20.176796050590433 0 0 0
14562 4694 4 0 -10.526529656145602 -16.94308089742111 -19.914158095121056 1 0 0
20040 6520 4 0 -9.319529020379676 -17.625335696218794 -20.386282720828785 0 1 0
5618 1713 4 0 -9.112874776613612 -17.2904668568584 -20.385883807524145 0 0 1
14560 4694 2 0 -10.242517370786198 -16.7064980022445 -19.649741424055573 1 0 0
14561 4694 4 0 -9.961820633155845 -16.47914478864952 -19.377848106586562 1 0 0
5617 1713 2 0 -8.687561952312754 -17.294618228534848 -20.22415947186168 0 0 1
5619 1713 4 0 -8.276474470395023 -17.30617742771057 -20.067500444067996 0 0 1
21905 7142 4 0 -7.98158633448233 -17.37123473831231 -20.327996714819864 0 0 1
21904 7142 2 0 -7.52344635474836 -17.41034510781806 -20.43476564813724 0 0 1
21906 7142 4 0 -7.074797316751415 -17.453057731467563 -20.54703983723935 0 0 1
23331 7617 4 0 3.078698391333969 -16.531392388901672 -19.505151480591525 0 0 1
7834 2452 2 0 7.618621592517773 -17.123512409094623 -20.255273205910594 0 0 1
7835 2452 4 0 7.640628834932368 -17.295119593099315 -19.825622638805118 0 0 1
9093 2871 4 0 7.541425481191762 -17.14402304811337 -19.438624026906687 0 1 0
7836 2452 4 0 7.605761765039059 -16.96914818653833 -20.669597658575455 0 0 1
5432 1651 4 0 15.840113411575114 -17.645624899640925 -20.1701819278679 0 0 0
5431 1651 2 0 16.197550985880856 -17.42936625383691 -20.175292156087274 0 0 0
1538 353 4 0 16.283472872403483 -16.56305181967596 -19.326187440647804 0 0 1
5433 1651 4 0 16.564961021898302 -17.20091865892583 -20.183863609521755 0 0 0
13853 4458 4 0 16.93784717528325 -17.3481214345989 -20.11914605296286 0 0 0
13852 4458 2 0 17.305784127198773 -17.360660060562985 -20.362421811366378 0 0 0
23438 7653 4 0 16.16832426431699 -16.20002388972203 -19.339863403128184 -1 0 1
13854 4458 4 0 17.673273781318212 -17.37692413939416 -20.6120372540529 0 0 0
13354 4292 2 0 18.422577332276024 -17.168488497037416 20.807399002626962 0 0 0
13356 4292 4 0 18.84901856452203 -17.124640235391773 20.79883640169289 0 0 0
13355 4292 4 0 17.958977723320164 -17.22086681929193 20.80718326655915 0 0 0
4981 1501 2 0 20.64037369307245 -16.564821832486444 -20.629548701786607 0 0 1
4983 1501 4 0 20.2361579527113 -16.81761142389733 -20.66867685982787 0 0 1
6229 1917 2 0 -19.938294769533975 -15.639878103165135 -20.77209869104061 1 0 0
1452 324 4 0 -19.667840634652478 -15.91621616686942 -20.245651758191922 1 0 1
6231 1917 4 0 -19.892899862276728 -16.04253278381041 -20.525321477093904 1 0 0
4982 1501 4 0 -20.604579809285177 -16.319794043136117 -20.588432582388986 1 0 1
1450 324 2 0 -19.498561422486496 -15.88074234249969 -19.79649976779234 1 0 1
1451 324 4 0 -19.341958960687982 -15.848398715303148 -19.36343299178705 1 0 1
17359 5627 2 0 -17.212607014385775 -15.634339025368433 -20.60945829293933 0 0 0
17360 5627 4 0 -17.08807245621538 -15.746486589083684 -20.191052586695875 0 0 0
8783 2768 4 0 -16.701670483654755 -15.814042103178236 -20.00560918245993 0 0 0
19804 6442 2 0 -17.339824609692528 -14.968642416944588 -19.508437426886623 1 0 1
8782 2768 2 0 -16.261917795042937 -15.87578259672216 -19.938803231848308 0 0 0
8784 2768 4 0 -15.814962438586049 -15.94055755581229 -19.873928986348968 0 0 0
19952 6491 4 0 -15.656766382310465 -16.092787697027408 -19.557737580702014 1 0 0
19951 6491 2 0 -15.23174492497976 -16.208700964175975 -19.590327116192096 1 0 0
19953 6491 4 0 -14.75160809760516 -16.338607436772104 -19.632107500266166 1 0 0
1375 299 2 0 -14.211377306440019 -16.44934345575182 -20.1218501795494 0 0 1
1377 299 4 0 -14.033785751644798 -16.446488405041954 -20.536798567664118 0 0 1
9219 2913 4 0 -12.428442621740185 -16.18901539134499 20.769997354278463 0 1 -1
9217 2913 2 0 -11.961165075634833 -16.274951712824816 -20.791871903671066 0 1 0
10450 3324 2 0 -9.465301193605235 -15.886314159180214 -19.70226637205648 0 0 1
10452 3324 4 0 -9.225331227625302 -15.514025041799975 -19.814238714402194 0 0 1
18652 6058 2 0 -8.950799831165792 -15.64598823427666 -20.607348173776113 0 0 0
18654 6058 4 0 -9.002986865719688 -15.59165152786683 -20.136690596269773 0 0 0
10451 3324 4 0 -9.701998191528018 -16.25315440342514 -19.588127843476478 0 0 1
17491 5671 2 0 0.5146110471745082 -15.26507892780307 -19.779044710129238 0 1 1
17492 5671 4 0 0.5197789367628332 -15.054086624610271 -20.149147423110563 0 1 1
11254 3592 2 0 3.134825433913054 -15.745991686814216 -19.236522422447106 0 0 0
19700 6407 4 0 3.560117759106163 -15.156579369956871 -19.36615340870689 0 0 0
19699 6407 2 0 3.615050066306786 -14.800718001026318 -19.593728744761002 0 0 0
11255 3592 4 0 3.198498991184124 -15.311149329427309 -19.207814526636298 0 0 0
11781 3767 4 0 9.921249302257465 -15.332264389157809 -19.38459931598351 0 0 1
7640 2387 4 0 9.529701285817982 -15.406279605363853 -19.265851857953493 0 1 0
11779 3767 2 0 9.980946689108691 -15.113691560744813 -19.791068877068817 0 0 1
11909 3810 4 0 13.45686663024728 -15.869994392096057 20.48413868400488 0 0 -1
23439 7653 4 0 16.797298112380464 -15.707604202298786 -19.80471144102824 -1 0 1
21237 6919 4 0 16.918588149209246 -15.351884928527765 -19.873547759499473 0 0 1
23437 7653 2 0 16.496066820064303 -15.946920827834841 -19.578485676468556 -1 0 1
21235 6919 2 0 17.30333875616785 -15.12200579675715 -19.874422803157298 0 0 1
21236 6919 4 0 17.680891382916652 -14.891576160423815 -19.882575744434963 0 0 1
24372 7964 4 0 17.943285998422457 -14.84670160936103 -19.55416987685705 0 0 0
13447 4323 2 0 -19.92935824827498 -14.47734344467942 -20.753815349398323 1 0 0
13448 4323 4 0 -19.873593799887853 -14.041040294011811 -20.603847640560353 1 0 0
22636 7386 2 0 -19.854870351937826 -13.388951583092823 -20.441625254722428 0 0 1
22637 7386 4 0 -19.89644576858433 -13.817590003484648 -20.272127916650692 0 0 1
19805 6442 4 0 -17.446747573230635 -14.640485099240474 -19.808291262836036 1 0 1
12872 4131 4 0 -17.436981783235947 -14.26435074114356 -19.896687103601305 1 0 1
12871 4131 2 0 -17.393584697485508 -13.832915264654478 -19.72636481666662 1 0 1
12873 4131 4 0 -17.348274120015336 -13.42476603205921 -19.577067575334727 1 0 1
14987 4836 4 0 -13.950006626334003 -14.264363479325773 -20.409330578477633 0 0 1
13917 4479 4 0 -14.115146482408415 -14.51947280302323 -20.15401556068052 0 0 0
13915 4479 2 0 -14.185429596259056 -14.330398229498684 -19.73694155295772 0 0 0
13916 4479 4 0 -14.25801834032379 -14.149595420108128 -19.30960053861928 0 0 0
16357 5293 2 0 -2.519305274838235 -13.988578174640288 -20.69867717067685 0 0 1
16358 5293 4 0 -2.456984382155426 -13.684239018534555 -20.36598633430725 0 0 1
10295 3272 4 0 -2.349392963303348 -13.580551370874275 -20.00305945494958 0 0 1
10294 3272 2 0 -1.9933188532438173 -13.42985560307268 -19.775001350939363 0 0 1
20676 6732 4 0 -0.2851047087294205 -13.84149525936965 20.60213749379223 0 0 0
12818 4113 4 0 -0.112611810725884 -14.171215639536243 20.735197453115322 0 0 -1
12819 4113 4 0 0.38396849499998 -14.717746918380502 -20.40187411339828 0 0 0
12817 4113 2 0 0.13810070163506794 -14.442227769177748 -20.642599093831482 0 0 0
15109 4877 2 0 1.2266882951653528 -13.721201769204974 -20.72793695164462 0 0 0
15111 4877 4 0 1.4901676114383733 -13.358825201321686 -20.740215040770188 0 0 0
15110 4877 4 0 0.9616035244739543 -14.080680717775968 -20.722713625527327 0 0 0
11762 3761 4 0 1.1037872334025458 -14.42147489702846 20.75998824524332 0 0 -1
19701 6407 4 0 3.674891686744779 -14.429039383669242 -19.830543181867462 0 0 0
8730 2750 4 0 3.9423816128804496 -14.157589715144894 -19.92946049536819 0 0 1
8728 2750 2 0 4.3692601376689595 -14.107497430177018 -19.95648935918371 0 0 1
8729 2750 4 0 4.819158613678109 -14.060244725765623 -19.989550320143305 0 0 1
23788 7770 2 0 5.3688476613785525 -14.333249235249745 -19.45944336144496 0 1 0
23790 7770 4 0 5.01754004865159 -14.128585889867693 -19.64165667480069 0 1 0
23789 7770 4 0 5.724455877560022 -14.544955801659775 -19.281033433984017 0 1 0
18123 5881 4 0 6.986137042290885 -14.723811379434412 -19.413625564915893 0 0 0
12467 3996 4 0 7.030467690110765 -13.591272920036403 -19.75294104056086 0 0 1
18121 5881 2 0 6.859892038345446 -14.300951794395711 -19.58342526587371 0 0 0
18122 5881 4 0 6.728512623115769 -13.875937828463929 -19.755106929903732 0 0 0
11780 3767 4 0 10.035394074695159 -14.899971337963775 -20.201705394843827 0 0 1
7568 2363 4 0 10.29307918876049 -14.593264778922864 -20.235933816241793 0 0 1
7567 2363 2 0 10.353309780362647 -14.245789027253378 -20.547261751429726 0 0 1
18273 5931 4 0 13.748114352086308 -14.753991314089303 -20.575525883241056 0 0 0
18271 5931 2 0 13.60472433757624 -14.374722546736523 -20.77373093925589 0 0 0
18272 5931 4 0 13.450404562880482 -13.991451146543344 20.64835617787247 0 0 -1
24370 7964 2 0 18.400527868894958 -14.81058866038624 -19.54652394631371 0 0 0
24371 7964 4 0 18.8433474709955 -14.775685316757887 -19.53644993793491 0 0 0
15387 4969 4 0 19.100622245201155 -14.514433355603881 -19.699118742755754 0 0 1
15385 4969 2 0 19.175149089339502 -14.248483695424552 -20.056468285277422 0 0 1
15386 4969 4 0 19.25983845219204 -13.980026869974843 -20.4024225117969 0 0 1
17369 5630 4 0 19.52445926501608 -13.690592777306215 -20.465763237056752 0 0 1
19383 6301 4 0 -19.786333098318238 -12.877316115665526 20.632963565586113 0 0 -1
22638 7386 4 0 -19.800675648352573 -12.947599876466743 -20.618006709981533 0 0 1
14199 4573 4 0 -17.30233309446669 -13.127351252551387 -19.333981749558117 1 1 0
14197 4573 2 0 -17.131680782639236 -12.725585388990746 -19.515092138327965 1 1 0
14198 4573 4 0 -16.969680946950113 -12.336459744288298 -19.678951427193727 1 1 0
23504 7675 4 0 -16.97835625789606 -12.109273270953882 -20.00883435097237 0 0 0
23503 7675 2 0 -17.13857474647917 -11.950795761312046 -20.372549900635335 0 0 0
6770 2097 4 0 -14.198280913308558 -12.603340536888973 -20.23908006563267 0 0 1
15876 5132 4 0 -14.138067522142645 -12.403148165381298 -19.889490569771333 0 0 1
6769 2097 2 0 -14.31758255433155 -12.394356815467525 -20.609413920475415 0 0 1
15874 5132 2 0 -14.284999246738616 -12.139548891618423 -19.538830129295945 0 0 1
2789 770 4 0 -9.285562745017325 -13.08255979866939 20.664949690536506 0 1 0
3323 948 4 0 -8.15978635080601 -11.547487792744153 -19.87206492685187 0 0 1
9087 2869 4 0 -7.863285191153981 -12.79532913627109 -20.790114095965286 0 0 0
10548 3356 4 0 -5.959133054903006 -12.635051052712798 -19.609769792797955 0 0 0
19481 6334 4 0 -5.920420680930775 -12.315027830731719 -19.383708703719538 0 0 0
10547 3356 4 0 -6.130071923987948 -13.489736357799224 -19.373250291199533 0 0 0
10546 3356 2 0 -6.038932851954117 -13.041568449724835 -19.502408139192774 0 0 0
10296 3272 4 0 -1.6408962586555695 -13.267577653443766 -19.54322522304752 0 0 1
4706 1409 4 0 -1.2980784521932982 -13.098303489778667 -19.559272543105806 0 1 0
4705 1409 2 0 -1.0266107157546784 -12.724702840135866 -19.653326308999002 0 1 0
4707 1409 4 0 -0.7555468941004726 -12.357237862367406 -19.74733661954153 0 1 0
3801 1107 4 0 -0.7400553939635941 -12.04956939360479 -19.504825520827165 0 0 1
16109 5210 4 0 1.4558195886233456 -12.982835347542203 -20.650227560995067 0 1 0
16108 5210 2 0 1.632019335467433 -12.539939450612037 -20.65683644982088 0 1 0
24078 7866 4 0 1.852953183378304 -11.74267336599974 -20.717131028975498 0 0 1
16110 5210 4 0 1.8014587365154568 -12.124473575290647 -20.66484631663837 0 1 0
12466 3996 2 0 7.237117401841228 -13.286745994339466 -20.031098101678094 0 0 1
12468 3996 4 0 7.465801486792209 -12.966588208849672 -20.32334419994623 0 0 1
14882 4801 4 0 7.5958655087452875 -12.828477695548571 -20.67020749607595 0 0 1
17368 5630 2 0 19.77000402182499 -13.30319820893099 -20.51635661148815 0 0 1
17370 5630 4 0 20.008232622390356 -12.935902846034619 -20.561619263572187 0 0 1
4846 1456 2 0 -11.476992196005115 -11.425243107865272 -20.530923350302697 0 0 0
4847 1456 4 0 -11.869473619713652 -11.286682070042717 -20.61547571172675 0 0 0
22589 7370 4 0 -10.794242734440855 -11.77694991489559 -20.7081442504554 0 0 0
4848 1456 4 0 -11.042654234525635 -11.573401782939586 -20.445911905481285 0 0 0
21096 6872 4 0 -8.018301183709498 -11.82926703057196 -19.63117954509355 0 1 0
3322 948 2 0 -8.327204386534042 -11.749086215848314 -20.22882820761435 0 0 1
3324 948 4 0 -8.506508084911923 -11.956448960002875 -20.603204071235453 0 0 1
10175 3232 4 0 -6.42257186243037 -10.716963711462919 -20.285894969965717 0 0 0
7565 2362 4 0 -6.439390807163699 -10.68142540584097 -19.88130142169134 0 0 0
7564 2362 2 0 -6.458701144102605 -10.938120076452023 -19.488909991458197 0 0 0
10174 3232 2 0 -6.265270842505226 -11.00081781095401 -20.576492595349084 0 0 0
24076 7866 2 0 2.239821968195635 -11.50793683715422 -20.605321370455744 0 0 1
24077 7866 4 0 2.6122464529427063 -11.304796469553935 -20.501688403440625 0 0 1
2493 671 4 0 2.9070234392797225 -11.079731244255917 -20.62286981602387 0 0 0
2491 671 2 0 2.950077288824925 -10.662920882601897 -20.44977979664159 0 0 0
21413 6978 4 0 5.9551655332491045 -10.522242618912188 -19.646039979839703 0 0 1
2974 832 2 0 6.690919265752356 -10.462146384597617 -19.90932993065871 0 0 0
2976 832 4 0 7.14805782201212 -10.421592415242403 -19.898952227848465 0 0 0
2975 832 4 0 6.228775229717414 -10.508902921030856 -19.913264497835126 0 0 0
23398 7640 2 0 7.928142747955366 -10.296477690425345 -19.969145422732343 0 0 1
23399 7640 4 0 8.317790287939296 -10.163095748828418 -20.056675095492945 0 0 1
15403 4975 2 0 9.806736067507199 -11.055790957856566 -19.67600522777215 0 0 0
15404 4975 4 0 9.91574617984574 -10.629890614087273 -19.65037307230882 0 0 0
15405 4975 4 0 9.703748521715625 -11.474146799113804 -19.7031051359724 0 0 0
19535 6352 4 0 9.311589552854404 -11.578949461992813 -19.66335370279 0 0 1
6098 1873 4 0 14.32256236445161 -11.916880146734002 -20.649800684693517 0 0 1
21762 7094 4 0 14.616182990268253 -11.70595917000959 -20.463332006005853 0 0 0
21760 7094 2 0 14.923156041831621 -11.584674734532607 -20.171480225139014 0 0 0
21761 7094 4 0 15.254613131466552 -11.45601017103141 -19.865909415644353 0 0 0
2690 737 4 0 15.536706065131373 -11.287672004557365 -19.680335500871116 0 0 0
16638 5386 4 0 -20.194528094326074 -9.124363711911448 -20.749668139364683 0 0 0
21159 6893 4 0 -12.45338646520322 -9.338463459416905 -20.25192244250303 0 0 1
16100 5207 4 0 -12.63159091719971 -9.669304383266262 -20.16285120995858 0 0 0
16099 5207 2 0 -12.683417553824249 -9.99945969252982 -19.88142075852882 0 0 0
16101 5207 4 0 -12.74163190576395 -10.350887982123004 -19.59131812603522 0 0 0
21157 6893 2 0 -12.322356365530867 -8.961984110344767 -20.045300202172818 0 0 1
22595 7372 4 0 -5.785036300526507 -9.698709203858282 -19.52063837163127 0 0 0
22594 7372 2 0 -6.236628152243389 -9.645428505974637 -19.585752409714566 0 0 0
22596 7372 4 0 -6.668523207542361 -9.596792799111238 -19.651544321613155 0 0 0
9693 3071 4 0 -4.9037834757767875 -8.802914051320846 -19.39607989294074 0 0 0
9691 3071 2 0 -5.166076655806004 -9.145449827671102 -19.502827820158597 0 0 0
9692 3071 4 0 -5.433547056909253 -9.493547472462696 -19.61020984792613 0 0 0
21059 6860 4 0 -3.3149648267115808 -10.33242477576991 -19.50999126224439 0 0 1
2492 671 4 0 3.0033825564458887 -10.206968633626335 -20.258034165532152 0 0 0
14838 4786 4 0 3.280986397992418 -9.945655013074104 -20.3758903317676 0 0 0
2661 727 4 0 4.436033190355619 -9.667566031616275 -20.5800600236176 0 0 1
14837 4786 4 0 3.5386373659372836 -9.136069086028098 -20.118358311154445 0 0 0
14836 4786 2 0 3.399637572786901 -9.560588566679966 -20.259857564796835 0 0 0
13067 4196 4 0 4.17424064655853 -9.827226803479547 20.79549623536203 0 0 0
2660 727 4 0 4.869279365667797 -9.883606248630985 -19.844251938273718 0 0 1
2659 727 2 0 4.661961846580727 -9.784622001492126 -20.19189473665264 0 0 1
21412 6978 2 0 5.627356926748483 -10.233531491704378 -19.750116066181413 0 0 1
21414 6978 4 0 5.280423644838923 -9.943112627403412 -19.852595049762737 0 0 1
23400 7640 4 0 7.5377548396864675 -10.43468951538735 -19.87848421434342 0 0 1
6761 2094 4 0 10.2279264891961 -10.39635573189406 -19.567707293606286 0 0 1
6760 2094 2 0 10.605635237320595 -10.18819490349151 -19.45833899648907 0 0 1
6866 2129 4 0 15.250563598592077 -9.379566001091444 -20.31032392165738 0 1 1
6865 2129 2 0 15.092318294481888 -9.687820297663261 -20.566768002518717 0 1 1
16637 5386 4 0 -20.346408400323124 -8.216034811311715 -20.719988649356726 0 0 0
16636 5386 2 0 -20.270921190342115 -8.661228797788693 -20.73753528250773 0 0 0
21678 7066 4 0 -20.60005635263817 -8.090735448436256 -20.46107339298961 1 1 0
4980 1500 4 0 -18.587738364518838 -7.26518552859298 -19.667621126292715 1 0 0
11738 3753 4 0 -18.687243234892268 -7.21580112579502 -20.02988109274647 0 0 0
11737 3753 2 0 -18.92483684691055 -7.341495171854419 -20.426435324221377 0 0 0
12638 4053 4 0 -12.151569500648181 -8.223006893269988 -19.959239887610302 0 0 1
21158 6893 4 0 -12.193968837141343 -8.58351588680948 -19.830493622111305 0 0 1
12637 4053 2 0 -11.798609407664776 -7.95543565031023 -20.137995882902995 0 0 1
12639 4053 4 0 -11.453445076030071 -7.696813233571454 -20.306814957327592 0 0 1
1838 453 4 0 -6.345039326985354 -7.911706094507325 -19.485229905086836 0 0 0
1837 453 2 0 -5.888105423639654 -7.883073960070931 -19.44826520527568 0 0 0
15864 5128 4 0 -5.07360588205918 -7.747012154166873 -19.29859535802981 0 0 0
1839 453 4 0 -5.429554537856561 -7.856274648783025 -19.415794810127657 0 0 0
15862 5128 2 0 -4.648857263567876 -7.642708513157638 -19.459129399480457 0 0 0
21828 7116 4 0 -0.7703061394541422 -7.888536660777202 20.765573168107245 0 0 -1
21826 7116 2 0 -0.35994000720419805 -7.842171052973123 -20.695356596570942 0 0 0
21827 7116 4 0 0.07154337662197818 -7.7946626543962445 -20.523329034977927 0 0 0
21858 7126 4 0 0.42592290273941913 -7.799946015176474 -20.69797702871026 0 0 1
13331 4284 4 0 2.645806484567945 -7.72167038591212 -20.227930647754455 0 0 1
23000 7507 4 0 2.9870501655735673 -7.982317030625154 -20.20520587237597 0 1 0
23001 7507 4 0 3.2740837767449875 -8.821826209287098 -20.088875029810755 0 1 0
22999 7507 2 0 3.133714296147552 -8.410278740421672 -20.149172497236766 0 1 0
12977 4166 4 0 9.974734410405926 -8.687511254579507 -19.818213316373637 0 0 0
7289 2270 4 0 10.01296965182846 -9.055269307201828 -20.034475569153248 0 0 0
7288 2270 2 0 10.224444431088504 -8.854725518253844 -20.38178811104589 0 0 0
21676 7066 2 0 20.666670941049336 -7.777005931110825 -20.4965850670682 0 1 0
11739 3753 4 0 -19.14322475873713 -7.453854178904029 -20.7889278464383 0 0 0
18396 5972 4 0 -11.449645581958169 -7.357169775465895 -20.09280148952737 0 0 1
18394 5972 2 0 -11.372415614163545 -6.929076573153916 -20.107364260242516 0 0 1
2348 623 4 0 -11.136300411483248 -6.086032057854879 -20.091924452712277 0 0 0
18395 5972 4 0 -11.28114578892015 -6.470803698809675 -20.117980798329665 0 0 1
7191 2237 4 0 -7.51758495765889 -6.661444677202315 -20.607218911632494 1 0 0
22698 7406 4 0 -7.307167749328766 -6.630351523187015 -20.248760585367762 0 0 0
22696 7406 2 0 -7.206308360756767 -6.3183921933467815 -19.930939433859436 0 0 0
22697 7406 4 0 -7.105974851828858 -6.011355028333407 -19.620834541074434 0 0 0
15863 5128 4 0 -4.239952211254508 -7.554318158303188 -19.59760302062228 0 0 0
21944 7155 4 0 -0.8548109733444988 -6.069767443898174 -20.172455894702743 0 1 0
849 170 3 0 0.8092035480243744 -6.681800034843077 -19.710994945704435 0 0 1
16884 5468 4 0 1.1383044573470116 -6.6079774363783255 -19.917820680538117 0 0 1
848 170 3 0 0.08973845718601225 -6.74944827355071 -19.86372368258927 0 0 1
846 170 1 0 0.373580004866934 -6.560973038919558 -19.58922334748955 0 0 1
847 170 3 0 0.32722396198072445 -6.127424607768438 -19.603174049629683 0 0 1
13330 4284 2 0 2.4563330682922775 -7.317041808194796 -20.065791645623822 0 0 1
13332 4284 4 0 2.266412786737284 -6.918955797378457 -19.919566370609253 0 0 1
16883 5468 4 0 1.9693441832521295 -6.789752394135959 -19.68330141399817 0 0 1
16882 5468 2 0 1.5529021826160445 -6.691698258814753 -19.801193557153653 0 0 1
5856 1792 4 0 14.677821605386999 -6.043303401406673 -19.365771173389174 0 0 0
15345 4955 4 0 16.38055310056973 -6.154618857269478 -19.813331131318247 -1 0 1
15343 4955 2 0 16.675651301765438 -6.382619131363905 -19.586588210294583 -1 0 1
15344 4955 4 0 16.97090631090111 -6.608162387154849 -19.346110325352836 -1 0 1
17022 5514 4 0 -20.714910926260067 -5.878407303698623 -20.650864527540488 1 0 1
5313 1611 4 0 -20.733069760190606 -5.619381855809733 -20.355317959024458 1 0 1
5311 1611 2 0 -20.728745826356167 -5.187163378962529 -20.440821249580875 1 0 1
16136 5219 4 0 -15.0820317563537 -4.495578374579825 -20.465853210971158 1 0 0
6621 2047 4 0 -14.82443094267541 -4.8106261129080785 -20.445832965932535 0 0 1
6619 2047 2 0 -14.496674442414134 -5.119929504060691 -20.481821869695782 0 0 1
9383 2968 4 0 -14.104479624705542 -5.799696761964952 -20.398794381714037 0 0 1
6620 2047 4 0 -14.182252749326203 -5.420234029776141 -20.516981313393746 0 0 1
9382 2968 2 0 -14.065119323896504 -6.151673645792249 -20.702801678952873 0 0 1
2347 623 2 0 -10.962907959477352 -5.971895225098372 -19.709899996626028 0 0 0
21943 7155 2 0 -0.6926359864255396 -5.944554378704103 -19.763989375564133 0 1 0
16060 5194 2 0 -1.0626270990066473 -5.41122654327188 -20.59823558188318 0 0 0
16062 5194 4 0 -1.114790678664253 -5.774719935325841 -20.329912658823577 0 0 0
21945 7155 4 0 -0.5330608504821619 -5.8082470744585954 -19.369600710619274 0 1 0
20467 6663 2 0 1.5217060121154447 -5.1566334616464395 -19.348464621940526 0 0 0
6392 1971 4 0 2.0005951465640592 -4.618078350892883 -19.74468635762582 0 0 0
20469 6663 4 0 1.7278502216628588 -4.842384730538891 -19.583828716334317 0 0 0
10465 3329 2 0 3.8018763667941435 -5.042921195826702 -20.35407093156686 0 0 1
10467 3329 4 0 3.5776809568403785 -5.116755728178344 -19.95182624015978 0 0 1
10466 3329 4 0 4.022379439512008 -4.974897095082724 -20.754718409774586 0 0 1
14754 4758 4 0 4.15738254818185 -4.8049581919154 20.534664765259055 0 0 0
24275 7932 4 0 3.4603078016272555 -4.802168702778765 -19.74637692856333 0 0 0
7385 2302 4 0 9.934861498155879 -4.843215119070562 -20.80214309829179 0 0 0
7384 2302 2 0 10.125406396360301 -4.779473425234851 -20.410155383395885 0 0 0
7386 2302 4 0 10.315112794890595 -4.716221216296841 -20.025714746134238 0 0 0
22572 7364 4 0 10.392537367050942 -4.580440464460835 -19.677200449445106 0 0 0
22570 7364 2 0 10.790881233839013 -4.7477692992725515 -19.508261848680203 0 0 0
20010 6510 4 0 14.433144215413552 -4.598683412995822 -19.896483018373598 0 0 0
20008 6510 2 0 14.368624405018767 -4.61651454760165 -20.351185596602065 0 0 0
14369 4630 4 0 14.730355524463167 -4.886149487237898 -19.802114283412184 0 0 0
20009 6510 4 0 14.306751176099443 -4.63320023813198 -20.775471880340998 0 0 0
14368 4630 2 0 14.791265392462474 -5.289591908695781 -19.62710314577528 0 0 0
14370 4630 4 0 14.85466667575805 -5.700603319708142 -19.458859008530716 0 0 0
5213 1578 4 0 16.576230265721723 -5.868137286606052 -19.975117224358772 0 0 0
5212 1578 2 0 16.65922325739071 -5.452852613426053 -20.186015583046647 0 0 0
5214 1578 4 0 16.737120467858293 -5.040553488399299 -20.390145993959656 0 0 0
17666 5729 4 0 16.62973615209599 -5.135251958779367 -20.80905695571013 0 0 0
5312 1611 4 0 -20.726458165222606 -4.728186207418251 -20.537123466953343 1 0 1
14451 4657 4 0 -17.052419106962542 -3.630063842645562 -20.542733728941812 1 0 0
14449 4657 2 0 -16.688796004502176 -3.8908419090305237 -20.53959401061546 1 0 0
16135 5219 2 0 -15.537068041551784 -4.400922763755851 -20.41295417642 1 0 0
16137 5219 4 0 -15.986846237223428 -4.311191339314195 -20.36068551673842 1 0 0
14450 4657 4 0 -16.32078492525125 -4.146986852375058 -20.533841117273266 1 0 0
8310 2610 4 0 -10.073356744807825 -4.284147202121009 -20.507639757235868 0 0 1
8308 2610 2 0 -9.782160340683017 -4.028037287429203 -20.275307250291167 0 0 1
8309 2610 4 0 -9.500511153392685 -3.80003396287459 -20.037369567067636 0 0 1
17556 5692 4 0 -9.500847816553058 -3.8057757721033916 -19.629747482656512 0 0 0
17554 5692 2 0 -9.376391257023114 -3.5333080717172543 -19.313359928438192 0 0 0
15224 4915 4 0 -10.012621428762756 -4.648821348975051 -20.71706493209719 0 0 1
7703 2408 4 0 -7.711563360570947 -3.628021615143531 -19.697965924590488 0 0 1
7702 2408 2 0 -7.997142791818925 -3.2916802658046365 -19.82316806851077 0 0 1
16985 5502 4 0 -7.5392164536722195 -3.894011389460065 -19.436152414103766 0 0 0
7704 2408 4 0 -8.258188004501429 -2.9981016628726316 -19.943932994692673 0 0 1
16984 5502 2 0 -7.4993627114008845 -4.336555140930567 -19.47193331118333 0 0 0
16821 5447 4 0 -6.6600622276272645 -3.165857019806584 -20.698042195441698 0 0 0
17325 5615 4 0 -1.2124929637297122 -3.472383316050479 -19.678817850787958 0 0 0
17323 5615 2 0 -0.8947626592898246 -3.1487731380967396 -19.820495326535802 0 0 0
6391 1971 2 0 2.150537482229595 -4.205948019954878 -19.82817345101947 0 0 0
6393 1971 4 0 2.3064017298098136 -3.7553516748196962 -19.92616997450227 0 0 0
23412 7644 4 0 2.439582097985827 -3.3679250526579345 -19.835524168471096 0 0 0
23410 7644 2 0 2.8600739926974654 -3.362954988021663 -19.66564523818883 0 0 0
24257 7926 4 0 3.638466509862205 -3.5079125677745857 -19.60875239334511 0 0 1
23411 7644 4 0 3.2529393904274713 -3.358822459361466 -19.49864947951396 0 0 0
24256 7926 2 0 3.9504215661531887 -3.209217966865495 -19.48764494969949 0 0 1
3957 1159 4 0 7.106051564420099 -3.1481221307719522 -20.07709257510505 0 0 1
12479 4000 4 0 7.033232689870669 -3.493315610849148 -20.274798387266678 0 0 0