LAMMPS data file via write_data, version 4 Feb 2025, timestep = 18500000, units = lj

6000 atoms
4 atom types
4500 bonds
1 bond types
5250 angles
2 angle types

-12.037717 12.037717 xlo xhi
-12.037717 12.037717 ylo yhi
-12.037717 12.037717 zlo zhi
0 0 0 xy xz yz

Masses

1 1
2 1
3 0.1
4 0.1

Bond Coeffs # harmonic/omp

1 100 0.45

Angle Coeffs # harmonic/omp

1 100 180
2 100 109.471

Atoms # full

4831 1111 2 0 -10.792482458611072 -11.712801682828221 -11.219261376879844 16 1 0
4832 1111 4 0 -10.758188817700221 -11.998399944422724 -11.564928409736202 16 1 0
4028 843 4 0 -6.737109578397882 -11.204671052977663 -11.459828706604869 5 0 0
2042 409 3 0 -6.571137321047879 -11.896696118365059 -11.203553623877768 17 1 0
148 30 3 0 -10.271188265482493 -10.678479502549166 -11.164484634344086 5 0 0
4627 1043 2 0 -9.658041021781898 -10.290552117958173 -11.224983804211965 4 0 1
4628 1043 4 0 -10.075452944338906 -10.42183562577924 -11.413236688664837 4 0 1
459 92 3 0 -7.768051685550869 -10.481817273292531 -11.908579790138036 5 0 0
4027 843 2 0 -6.827812258078987 -11.0346148189466 -11.872887232384278 5 0 0
552 111 3 0 10.387556361399756 -10.772401674590947 -11.26363920081864 5 0 0
3358 672 3 0 -5.092747651962285 -9.79706062804193 -11.930123942233113 14 1 1
3345 669 3 0 4.300796401398877 -9.845262020623124 -11.56173481013813 14 1 1
791 159 1 0 6.213547481094242 -9.91063174801306 -11.22178375082068 2 0 0
794 159 3 0 6.2770370409641565 -9.89885483204087 -11.664010036649207 2 0 0
5886 1462 4 0 6.40272432592851 -9.646519701690483 -11.919777900398191 14 1 1
131 27 1 0 2.1286040989381885 -8.428324498961208 -11.894663681933144 4 0 0
134 27 3 0 2.3041674685933025 -8.71004004021507 -11.579585022273477 4 0 0
3854 785 4 0 2.515690380572357 -9.058187845211123 -11.579363270360682 3 0 0
3853 785 2 0 2.8134624802576376 -9.06586831543897 -11.235841028409846 3 0 0
2542 509 3 0 -7.165180289125481 -7.592753560857924 -11.5892727841791 5 0 0
2541 509 1 0 -6.8906866399040005 -7.776796923023531 -11.896428936548162 5 0 0
2545 509 3 0 -6.543629966459885 -7.975131363043892 -11.68694320464893 5 0 0
133 27 3 0 1.913056622485767 -8.072811205163179 -11.696471325707902 4 0 0
4942 1148 2 0 3.2575919512425795 -7.814536338384257 -11.309234516045526 4 0 0
4944 1148 4 0 3.2495854138561953 -7.459500871610777 -11.606989094376832 4 0 0
3274 655 3 0 3.226136747551534 -7.06318696904142 -11.725276164768468 14 1 1
4005 835 4 0 4.182514267978064 -6.717989516667348 -11.907274722921349 5 0 0
4469 990 4 0 8.624617179930532 -7.1387181937809245 -11.867509651242848 6 0 1
2339 468 3 0 8.814216044466079 -7.151667483947752 -11.529739814218793 4 0 0
2336 468 1 0 9.204706931972183 -6.937938212951434 -11.553799973885301 4 0 0
2338 468 3 0 9.280938192229335 -6.809367226883478 -11.98941227876395 4 0 0
2340 468 3 0 9.202652936138392 -6.570230647362325 -11.297031854444873 4 0 0
2337 468 3 0 9.536183670336204 -7.211933455230241 -11.426838045400379 4 0 0
4755 1085 4 0 -4.472893438805842 -5.72222940569323 -11.785656772969634 5 0 1
4753 1085 2 0 -4.891763158868316 -5.834329910155952 -11.984832582023609 5 0 1
4003 835 2 0 4.341402724239735 -6.3592530401482446 -11.684552285314108 5 0 0
437 88 3 0 4.197003367773274 -5.872251149574937 -11.204056182195732 5 0 0
4004 835 4 0 4.502075545368424 -5.972288786458003 -11.461066679042773 5 0 0
2124 425 3 0 5.500547716673054 -5.94582235111012 -11.164812169821785 14 1 0
3867 789 4 0 6.4141472997208915 -6.029304986589426 -11.560385733720695 6 0 0
2125 425 3 0 6.09389956356388 -6.253222767300329 -11.4768818957073 14 1 0
3865 789 2 0 6.751364893080634 -6.0884172598157935 -11.84603096006796 6 0 0
5868 1456 4 0 -6.489630896854839 -5.415930310301695 -11.663942630729975 15 1 1
487 98 3 0 -6.279104141365513 -5.33852208682964 -11.323436194710352 6 0 0
483 97 3 0 -4.563036151605816 -4.953696320557876 -11.793599124091699 5 0 0
481 97 1 0 -4.156041154657947 -5.093724005296504 -11.625210752325403 5 0 0
484 97 3 0 -4.133161064003063 -4.989009359551223 -11.177582288954017 5 0 0
482 97 3 0 -4.114175582414614 -5.538227007628828 -11.675074814388875 5 0 0
485 97 3 0 -3.7937324858251795 -4.878530577871848 -11.851027238305452 5 0 0
3978 826 4 0 -3.539961734778654 -4.638134148012118 -12.019089811858537 9 0 0
3814 772 2 0 -0.4751264762346281 -5.485391914745497 -11.699059173998476 4 0 0
3816 772 4 0 -0.23729194716053037 -5.420048043887364 -11.33736641900812 4 0 0
1411 283 1 0 0.15908831943628599 -4.669244853342312 -11.310827753848466 4 0 1
1413 283 3 0 -0.026181747821219403 -5.078700155495299 -11.338814285738554 4 0 1
1412 283 3 0 0.5124867294054507 -4.649427120653439 -11.580309915857734 4 0 1
440 88 3 0 3.6305792683764437 -5.4558607203708585 -11.317298382657622 5 0 0
3943 815 2 0 8.05546240312665 -4.701805144582872 -11.274711583343489 5 0 0
2322 465 3 0 8.070598013083927 -4.6893289318085785 -12.035183544662813 9 0 0
5125 1209 2 0 -11.441507779581544 -4.033676740205985 -11.160809946613874 6 0 0
5126 1209 4 0 -11.89294159374352 -4.04192293476745 -11.241254596817358 6 0 0
526 106 1 0 -10.316754690487285 -3.742813085475449 -11.166621034899988 6 0 0
529 106 3 0 -10.12204831816998 -3.877794055807044 -11.527486231890844 6 0 0
1415 283 3 0 -0.13133561342536737 -4.377496583002041 -11.421914164368122 4 0 1
3945 815 4 0 8.091475596589358 -4.541467444235201 -11.67418112631213 5 0 0
4063 855 2 0 10.277671264424146 -3.78199424866936 -11.513885262984779 5 0 0
125 25 3 0 11.091444631577783 -3.810592610211737 -11.44496622475506 9 0 0
4064 855 4 0 10.706729875275009 -3.9039662023890234 -11.529688065483223 5 0 0
124 25 3 0 11.779272358137316 -3.970018282633262 -11.207350914446899 9 0 0
121 25 1 0 11.529467733993044 -3.776378819656639 -11.546112140966706 9 0 0
123 25 3 0 11.614229456122686 -4.0021825424548325 -11.946905595681494 9 0 0
4750 1084 2 0 -12.03534434873082 -2.7920652019400958 -11.856576151330618 10 0 1
528 106 3 0 -10.48817515230127 -3.3887227185571245 -11.227806736327473 6 0 0
1678 336 3 0 -9.107768830705371 -3.417734892499343 -11.448874192041625 10 0 1
1676 336 1 0 -8.992919992419722 -3.317112649946747 -11.896415254023404 10 0 1
1680 336 3 0 -8.609020708587108 -3.107537070464998 -11.899641965917528 10 0 1
4512 1004 4 0 -8.262590691740149 -2.9053598815527444 -11.872552529732285 8 0 1
4760 1087 4 0 -4.7484968979367315 -3.448777568653391 -11.457691531946406 9 0 1
4759 1087 2 0 -4.779015530904282 -3.347137434851293 -11.883227652000476 9 0 1
145 29 3 0 -0.4939910771382934 -2.91498930938287 -11.870076782440057 6 0 0
142 29 3 0 -0.3080565284673593 -3.597335453624309 -11.944118722649762 6 0 0
2168 434 3 0 9.089030682987172 -3.0712183008552127 -11.205218731411719 10 0 0
4065 855 4 0 9.817425072095524 -3.650026323785289 -11.489771185074654 5 0 0
2167 434 3 0 9.792839327201065 -3.3122697746063725 -11.253999151856197 10 0 0
4751 1084 4 0 11.647755070916322 -2.9476104903268237 -11.650801866887413 9 0 1
122 25 3 0 11.645803095084286 -3.3410133370813124 -11.593507142640163 9 0 0
504 101 3 0 -10.861432024794988 -2.192817509845298 -11.71847540650091 7 0 0
4510 1004 2 0 -7.824885288123824 -2.7660951831334426 -11.945589357672405 8 0 1
4511 1004 4 0 -7.39175151483589 -2.6235229501243627 -12.016111136368973 8 0 1
1897 380 3 0 -6.988858070520902 -2.671557363621842 -11.994546861274257 8 0 1
1900 380 3 0 -6.916845680630329 -2.2810194165193707 -11.34775672199377 8 0 1
1896 380 1 0 -6.77456909654935 -2.310231186803037 -11.779483583655198 8 0 1
1899 380 3 0 -6.890775421617909 -1.9130053245352698 -12.006303012922794 8 0 1
1898 380 3 0 -6.347408793297716 -2.368035102489287 -11.797718772038765 8 0 1
4526 1009 4 0 -6.085755372680184 -2.595975710047192 -11.622208161113859 6 0 1
4525 1009 2 0 -5.694678768020888 -2.3469217607280832 -11.673848225190255 6 0 1
4527 1009 4 0 -5.324821525712101 -2.108803624132669 -11.716082553983892 6 0 1
1550 310 3 0 -4.969219827998517 -1.9472304319021259 -11.709780614577356 9 0 1
2223 445 3 0 -0.09767115908158353 -2.2226377788293856 -11.290827319576035 12 0 0
3195 639 3 0 8.841282091434838 -1.872559709492764 -11.532865283756303 10 0 1
3194 639 3 0 9.5189060517067 -1.9630642528710602 -11.759112120541234 10 0 1
393 79 3 0 11.33232458071992 -2.674948365895924 -11.445114186613864 4 0 0
1418 284 3 0 -10.649372424738889 -1.7181041256243752 -11.190517231840731 7 0 1
5888 1463 4 0 -8.995498599622689 -1.51007568851424 -11.684819546587947 10 0 1
5887 1463 2 0 -8.838546370109695 -1.7427162063288577 -11.311027640448895 10 0 1
1895 379 3 0 -9.116542361681583 -1.2118343338256619 -11.9469115564456 10 0 1
1548 310 3 0 -5.139321652339146 -1.4127140517630696 -11.304517537030737 9 0 1
1546 310 1 0 -4.817649021400923 -1.665143696665833 -11.436794494595397 9 0 1
1549 310 3 0 -4.48340732442207 -1.41517763506228 -11.645020260039223 9 0 1
4217 906 4 0 -4.200127123717034 -1.6890075147590853 -11.656545976416064 7 0 0
4216 906 2 0 -3.7604610847204984 -1.7027976547414578 -11.575922138432825 7 0 0
4218 906 4 0 -3.3344736069292686 -1.7024863824944774 -11.489467878597539 7 0 0
4892 1131 4 0 0.25433879021632855 -1.7894140489093324 -12.021151528808005 13 0 0
2222 445 3 0 0.25094005645769 -1.7037633612298855 -11.618502123049568 12 0 0
2221 445 1 0 0.09499099184057336 -1.8473436985098122 -11.229350500798583 12 0 0
733 147 3 0 5.399942654673463 -1.3068573990390764 -12.029478601555764 2 -1 0
3856 786 2 0 8.191848827017342 -1.4980967951877915 -11.300461360929633 4 0 0
3857 786 4 0 8.425280552514167 -1.8150487483987892 -11.548839122194355 4 0 0
3191 639 1 0 9.233938652778374 -1.6857463036383393 -11.56465808285798 10 0 1
3193 639 3 0 9.209694392995893 -1.3074908429965486 -11.802223058433524 10 0 1
3192 639 3 0 9.377894773845384 -1.5993390023255873 -11.159811341957914 10 0 1
465 93 3 0 11.050207684348429 -1.3698430194396138 -11.963316754977042 12 0 0
4736 1079 4 0 -10.517390825239552 -0.8150847018620464 -11.33241674572028 12 0 1
4735 1079 2 0 -10.245572170771993 -0.6980349746234236 -11.665755193430684 12 0 1
4737 1079 4 0 -9.96472581224407 -0.5659158320356266 -12.014266421816162 12 0 1
2499 500 3 0 7.481881700297006 -0.4006791518518682 -11.658204026406047 10 0 0
2496 500 1 0 7.7793627151340345 -0.45840479854681604 -11.28554932753811 10 0 0
2498 500 3 0 8.215342202110278 -0.3543305864138766 -11.417872742705798 10 0 0
4347 949 4 0 8.466779188823576 -0.6512755060868916 -11.524200975960692 7 0 0
4345 949 2 0 8.91793615219741 -0.6498422389613339 -11.407779598909606 7 0 0
4346 949 4 0 9.35094970668396 -0.6472316138598195 -11.287558952808473 7 0 0
4833 1111 4 0 -10.824065396702789 -11.428985531899809 -10.855979987921856 16 1 0
150 30 3 0 -10.676375321095367 -11.13733705275327 -10.636760680842386 5 0 0
4850 1117 4 0 -7.006867824661638 -11.870806598227734 -10.439990456198045 17 1 0
2045 409 3 0 -6.769197448808799 -11.201647078777606 -11.059858423035115 17 1 0
2041 409 1 0 -6.534164918661649 -11.560766804589953 -10.900350832338079 17 1 0
2043 409 3 0 -6.682803559124567 -11.657825922262619 -10.548327998374074 17 1 0
2044 409 3 0 -6.13450560588429 -11.448422173630513 -10.866971630136707 17 1 0
5776 1426 2 0 -5.3582492225806835 -11.806467833130199 -10.96878658811972 17 1 1
5778 1426 4 0 -5.761884804622934 -11.54807304685753 -10.902675014262803 17 1 1
5557 1353 2 0 -2.6188255589253586 -11.396527946875828 -10.388281477397646 17 1 0
5558 1353 4 0 -2.2520191794813886 -11.687992912927529 -10.428958514372708 17 1 0
5559 1353 4 0 -2.97211780013272 -11.115160545259346 -10.337064173209702 17 1 0
389 78 3 0 -1.9674364465642178 -11.920475686879351 -10.262675239795051 4 0 0
146 30 1 0 -10.65743914503577 -10.70394627841461 -10.844837102649185 5 0 0
147 30 3 0 -11.036418017985241 -10.629837912060292 -11.054342445149226 5 0 0
149 30 3 0 -10.610069960255318 -10.414161218741102 -10.547160440941314 5 0 0
3206 642 1 0 -8.811326718195364 -10.299979813096114 -10.349131080110986 15 1 1
3207 642 3 0 -8.599488099205784 -10.664637080629728 -10.48099746615204 15 1 1
4982 1161 4 0 -4.296456876821731 -10.637187290845764 -10.401112830926941 16 1 0
245 49 3 0 -3.5399433884949367 -10.523755854303403 -10.835649245636445 15 1 0
241 49 1 0 -3.5244668884468844 -10.576555869521004 -10.371526039337938 15 1 0
243 49 3 0 -3.360873877922959 -10.992678176540307 -10.27721119136472 15 1 0
2314 463 3 0 2.95197091966236 -10.784424626723048 -10.61354414770033 14 1 0
2315 463 3 0 3.5681255524460997 -10.559243696261007 -10.282934231408067 14 1 0
3342 669 3 0 4.099094743767278 -10.278571927347109 -10.984868101890804 14 1 1
792 159 3 0 6.345235075956438 -10.304623255278848 -11.049817877766666 2 0 0
2129 426 3 0 7.650311218743237 -10.428902520274574 -10.333564888768693 16 1 0
2126 426 1 0 8.075729160697499 -10.60837748800362 -10.29736519727325 16 1 0
2127 426 3 0 8.254710739571586 -10.626318624320756 -10.702210772454702 16 1 0
555 111 3 0 10.012128020104235 -10.709671774469122 -10.621816475202992 5 0 0
553 111 3 0 10.765412912385681 -10.732581118754466 -10.623436383726212 5 0 0
551 111 1 0 10.390693479208746 -10.594184646585909 -10.852475711278881 5 0 0
3209 642 3 0 -9.050534059684505 -10.136503533623939 -10.693506628253687 15 1 1
4629 1043 4 0 -9.27179304131045 -10.160758380722829 -11.049236023732309 4 0 1
559 112 3 0 1.017913286522571 -9.831848397734387 -10.415363928460794 3 0 0
3343 669 3 0 3.8234292861849557 -9.583923103515714 -11.015632986359714 14 1 1
3341 669 1 0 4.19088273085006 -9.856910074567828 -11.106939648628753 14 1 1
3344 669 3 0 4.55142553726267 -9.714581672606032 -10.86986009344103 14 1 1
795 159 3 0 5.746447013273734 -9.847816333414169 -11.12774483693107 2 0 0
793 159 3 0 6.444206657359786 -9.576618239969092 -11.021085084459084 2 0 0
4061 854 4 0 7.463852778535305 -10.076771088848496 -10.39871752443345 4 0 0
4062 854 4 0 6.794831822990073 -9.698238286960033 -10.90845457897362 4 0 0
4060 854 2 0 7.1396753404355735 -9.888949769032306 -10.649975087367753 4 0 0
554 111 3 0 10.39620101494507 -10.161471379801977 -10.891747401549974 5 0 0
560 112 3 0 1.2894306550736552 -9.160249517309097 -10.372631204465618 3 0 0
276 56 1 0 3.1762771564060284 -8.39274284672324 -10.370230336649792 5 0 0
280 56 3 0 3.138480113437451 -8.779568890484928 -10.613453469643346 5 0 0
3855 785 4 0 3.1290772513978027 -9.079316738701248 -10.879975064851124 3 0 0
279 56 3 0 3.1629009882819386 -8.045337661053809 -10.648604685847827 5 0 0
4943 1148 4 0 3.260548107928045 -8.17468953901417 -11.01338364659553 4 0 0
4491 997 4 0 5.666355118102874 -6.797178172768561 -10.563013774784924 4 0 1
2123 425 3 0 5.778041626544692 -6.579536525596981 -10.890485490769398 14 1 0
4008 836 4 0 -6.978075273425795 -5.748085161275427 -10.652760965234755 5 0 0
438 88 3 0 3.740179779227173 -5.750184849203544 -10.666947825621685 5 0 0
436 88 1 0 3.943609187477806 -5.580403478954924 -11.029210046947552 5 0 0
3979 827 2 0 3.1704142879668105 -6.280091284957972 -10.315566402683933 6 0 0
3980 827 4 0 3.5280783903489095 -5.99728951940973 -10.447130806069968 6 0 0
3896 799 4 0 5.428805351950231 -5.56468157390476 -11.125390077650586 5 0 0
2121 425 1 0 5.875726332236638 -6.171983663409762 -11.088485557746212 14 1 0
2122 425 3 0 6.150494361067402 -5.929198920015701 -10.799746347173533 14 1 0
1605 321 3 0 8.45614409892642 -5.737871708842982 -10.85014464639073 5 0 1
488 98 3 0 -6.830825617411639 -4.911226001386796 -11.131323865063406 6 0 0
489 98 3 0 -6.690694925754307 -5.49623466164231 -10.745575909751217 6 0 0
486 98 1 0 -6.508838621953996 -5.165918294112309 -10.979537360944887 6 0 0
490 98 3 0 -6.224426057403494 -4.935492121911155 -10.712046886135669 6 0 0
4564 1022 2 0 -4.429170577663666 -4.814429299083495 -10.544821451206182 5 0 1
4565 1022 4 0 -4.479152805533644 -4.934430420539825 -10.991210853613959 5 0 1
439 88 3 0 4.208272668703398 -5.2133960078279475 -10.896214304209604 5 0 0
3897 799 4 0 4.589582616408091 -5.2489155797144615 -11.031799224293236 5 0 0
3895 799 2 0 5.023789231287758 -5.41444063821333 -11.078292932114667 5 0 0
3944 815 4 0 8.016733758319113 -4.868187380916037 -10.871876829295992 5 0 0
1601 321 1 0 8.44388453610441 -5.438491277369246 -10.531343338537939 5 0 1
1603 321 3 0 8.327377090481885 -5.021943607600679 -10.712303013429496 5 0 1
1604 321 3 0 8.838806724863996 -5.4081557480100795 -10.338070365713634 5 0 1
530 106 3 0 -10.621115129312527 -4.032649004294139 -11.040413897620054 6 0 0
5127 1209 4 0 -11.002492323452504 -4.0286292588103905 -11.085578246895853 6 0 0
4337 946 4 0 -9.08204272897447 -3.8449173808390746 -10.324444465824438 4 0 0
1019 204 3 0 -8.794159442651843 -4.117625240613989 -10.28503045271089 6 0 1
3860 787 4 0 -6.240555944327452 -4.504302921116125 -10.676582800966239 5 0 0
3859 787 2 0 -5.94646304276302 -4.208828595833674 -10.880893247064225 5 0 0
3861 787 4 0 -5.652307280183193 -3.9289539345568976 -11.08136121969573 5 0 0
373 75 3 0 -5.2583409952391955 -3.8942832733332473 -10.96517596651909 6 0 0
1414 283 3 0 0.2961167691270745 -4.589637084811885 -10.876302158529592 4 0 1
1861 373 1 0 5.330588438199179 -3.91148954293228 -10.427562831419566 6 0 1
1864 373 3 0 5.4835887688979525 -4.230243631193603 -10.645356215954816 6 0 1
4338 946 4 0 -9.84598389205794 -3.4751266512930705 -10.586283515801162 4 0 0
527 106 3 0 -10.044047731743586 -3.703749773145729 -10.875689494521012 6 0 0
4336 946 2 0 -9.459492559318399 -3.6588191900779794 -10.453007874743438 4 0 0
375 75 3 0 -5.208576259160448 -3.1745325430086293 -10.789166367925736 6 0 0
371 75 1 0 -4.980822870854308 -3.582706511403302 -10.803846204633468 6 0 0
374 75 3 0 -4.849741309037656 -3.7015421740535626 -10.389147650899027 6 0 0
372 75 3 0 -4.606360473323777 -3.539517646315364 -11.07699452449354 6 0 0
681 137 1 0 -1.9649541580503538 -3.067074221957359 -10.50394557199354 3 0 0
682 137 3 0 -1.78404299375903 -3.4790159583807636 -10.647137518937837 3 0 0
683 137 3 0 -1.663172421285891 -2.81101390242768 -10.37430645609702 3 0 0
684 137 3 0 -2.1830606871611735 -2.878250834836141 -10.84347744873472 3 0 0
2240 448 3 0 1.7659529307281367 -2.8253123138620744 -10.340721333926062 8 0 0
2239 448 3 0 2.2323270450008064 -2.8347684262932322 -10.971160418201395 8 0 0
3760 754 2 0 4.631354049123168 -2.9863229794381656 -10.391518912305434 5 0 0
1863 373 3 0 5.047049041242701 -3.6879555306487894 -10.66748887887059 6 0 1
1862 373 3 0 5.674367280560475 -3.628004670868565 -10.299033296233372 6 0 1
3761 754 4 0 4.909271843649048 -3.3528792270478753 -10.515734770286926 5 0 0
3812 771 4 0 9.34812109307548 -3.4545094655809994 -10.394310555199382 6 0 0
2169 434 3 0 9.526694164569957 -3.149626628846926 -10.576884576881666 10 0 0
2166 434 1 0 9.523015806614058 -3.035066603344612 -11.031549852490853 10 0 0
394 79 3 0 11.140515688912085 -2.9547220774565357 -10.80498114260668 4 0 0
5677 1393 2 0 -11.851032848020518 -1.9232283974947482 -10.718163362783583 8 0 1
1817 364 3 0 -8.795848945066199 -1.8748023982397175 -10.566377182068267 8 0 0
5889 1463 4 0 -8.699973400679475 -1.9775506312869187 -10.929234827003631 10 0 1
5526 1342 4 0 -4.930733662190426 -1.899687416678434 -10.801847384461851 12 0 0
1547 310 3 0 -4.639371616615268 -1.8863135543081437 -11.07451558063934 9 0 1
5524 1342 2 0 -4.84069472061455 -1.8820561460729799 -10.33604291388488 12 0 0
802 161 3 0 -2.9378728922867037 -2.0733359577583457 -10.547325990414523 9 0 0
5142 1214 4 0 -1.284822785968677 -2.664983699394682 -10.356967418267931 15 1 0
2224 445 3 0 0.45173732504941455 -1.8941301853902157 -10.949374220284087 12 0 0
5440 1314 2 0 1.1506786541866276 -2.006029706548148 -10.859136808732595 12 0 0
5442 1314 4 0 1.4886829244666444 -2.2842422205405892 -10.931150333576051 12 0 0
2236 448 1 0 2.0687458400182095 -2.570223084961027 -10.619716602658825 8 0 0
2238 448 3 0 1.8544608027416718 -2.1944711397144534 -10.781235431235293 8 0 0
2237 448 3 0 2.4156063551467977 -2.43361382717635 -10.358788316941496 8 0 0
3762 754 4 0 4.377600448910474 -2.6323584345164335 -10.282433974170361 5 0 0
1479 296 3 0 4.417206527837209 -2.233076868122822 -10.355453278222786 9 0 1
2170 434 3 0 9.663348070596996 -2.6258965122368974 -11.069447733983921 10 0 0
395 79 3 0 10.811243937883251 -2.3384916158360074 -11.075581274620031 4 0 0
392 79 3 0 11.534478158125946 -2.2930815852770188 -10.826721183534845 4 0 0
391 79 1 0 11.20413070402822 -2.5751147858432866 -11.044628749833398 4 0 0
5678 1393 4 0 11.9049010526855 -2.256750703324885 -10.670373248653638 7 0 1
5679 1393 4 0 -11.542107597098434 -1.5926543584478878 -10.771778183440292 8 0 1
1417 284 3 0 -11.17209837897648 -1.4791329265130777 -10.722532743026841 7 0 1
1419 284 3 0 -10.71670193796897 -0.9869217058355186 -11.068538330463253 7 0 1
1416 284 1 0 -10.7436432417797 -1.4085634073284155 -10.88208241898989 7 0 1
1420 284 3 0 -10.455061269355902 -1.4413069290882188 -10.557925993398284 7 0 1
4443 981 4 0 -10.18516807287417 -1.6666962663687102 -10.345892060920843 8 0 1
4441 981 2 0 -9.803568365683091 -1.40925267980049 -10.273034969125058 8 0 1
1816 364 1 0 -8.697176007896468 -1.5370553824552697 -10.260624318818824 8 0 0
1820 364 3 0 -8.439408727195703 -1.2191955802460832 -10.475331804436008 8 0 0
803 161 3 0 -3.353721509115763 -1.6941096569637857 -11.062786892644068 9 0 0
804 161 3 0 -3.3143739304184816 -1.4338017574787347 -10.349701263592713 9 0 0
801 161 1 0 -3.085558658581112 -1.6389643318164264 -10.696299270941584 9 0 0
805 161 3 0 -2.7358522674567727 -1.3926114229916102 -10.808651597943125 9 0 0
3780 760 4 0 -2.4768142638601294 -1.07776273282545 -10.814732159472737 9 0 0
2225 445 3 0 -0.20583183332604094 -1.5317124862419096 -11.060442403542883 12 0 0
5069 1190 4 0 -0.18182076185830454 -1.151465450253399 -10.956214334574053 11 0 0
5441 1314 4 0 0.777985209555041 -1.7227368168318318 -10.787112320943274 12 0 0
3858 786 4 0 7.9792909389978846 -1.192806942745845 -11.06171760433493 4 0 0
10 2 3 0 9.32839885604676 -1.1055467214443322 -10.278946970259037 3 -1 0
7 2 3 0 9.705097945664193 -1.409831597464871 -10.805283795172265 3 -1 0
6 2 1 0 9.608969212785663 -1.0270769665943273 -10.593539648211808 3 -1 0
2158 432 3 0 -7.783813773297852 -0.06788862835877119 -10.58555023902492 15 0 0
5729 1410 4 0 -8.443981868196651 -0.8637681647145019 -10.724091413951566 13 0 1
5728 1410 2 0 -8.282119867169039 -0.5013594418842882 -10.567839974838515 13 0 1
5730 1410 4 0 -8.119335325303995 -0.10109547450632839 -10.393839778203054 13 0 1
2159 432 3 0 -7.037358194429807 -0.20398854667003263 -10.599369740637508 15 0 0
3779 760 4 0 -1.8087868103306164 -0.509723820351109 -10.793762756699051 9 0 0
3778 760 2 0 -2.1523788625360556 -0.7954771881553988 -10.802258246424 9 0 0
2052 411 3 0 -1.4966352224523298 -0.5098146766555569 -10.516259752047246 17 1 0
2053 411 3 0 -0.8252288526125877 -0.16112614868917774 -10.4650919594279 17 1 0
5070 1190 4 0 -0.6796988230752383 -0.4128168891367352 -10.783286995245014 11 0 0
2051 411 1 0 -1.2911143430453293 -0.17607226967893652 -10.318097176329442 17 1 0
5068 1190 2 0 -0.42929418468859026 -0.7906803410368273 -10.874499853003483 11 0 0
2497 500 3 0 7.75940574987618 -0.8798909780091897 -11.132074390960671 10 0 0
2500 500 3 0 7.6644007813732316 -0.17569616450558634 -10.956065807573852 10 0 0
8 2 3 0 9.994795824076569 -0.8446804162818164 -10.408410058563968 3 -1 0
9 2 3 0 9.408420499528368 -0.7119309800445599 -10.900695485975907 3 -1 0
97 20 3 0 -11.475893173646783 -11.615276293173087 -9.581680509593266 5 0 0
96 20 1 0 -11.806590121975937 -11.301870884313862 -9.641732932621247 5 0 0
5834 1445 4 0 -11.155241980104673 -11.743418068642706 -9.803213534743488 15 1 1
98 20 3 0 -11.774157097563915 -11.130022032049858 -10.077482176187864 5 0 0
5833 1445 2 0 -10.689088680268934 -11.800275039526483 -9.6938707967203 15 1 1
5835 1445 4 0 -10.256246719114674 -11.864100183934308 -9.604422758751056 15 1 1
5135 1212 4 0 -9.940265156587493 -11.877749079879807 -9.376176012386095 17 1 0
442 89 3 0 -9.853624880135454 -11.843460476083786 -9.744940397738034 5 0 0
602 121 3 0 -8.7254569937612 -12.00693207873201 -9.561781730425178 3 0 0
605 121 3 0 -8.05224490795759 -11.684478691112059 -9.763730668942927 3 0 0
4851 1117 4 0 -7.771686330190122 -11.908648378203896 -9.974259915567028 17 1 0
601 121 1 0 -8.273755252104127 -11.957127309895139 -9.435665017961668 3 0 0
4849 1117 2 0 -7.379741630814119 -11.88326095253304 -10.214791402786938 17 1 0
3583 717 3 0 -5.60266827781885 -11.39026175877909 -9.582890821887206 16 1 1
3170 634 3 0 6.097958326831353 -11.392637228528764 -9.518522212830081 15 1 1
5118 1206 4 0 9.20084373857334 -11.418718286700583 -9.650674997483524 15 1 0
5116 1206 2 0 8.817779433539393 -11.22372215555452 -9.808089052641435 15 1 0
2184 437 3 0 9.515872247681688 -11.503044452194382 -9.892374880007848 14 1 0
2181 437 1 0 9.866079349839062 -11.64220570129531 -9.635591517501256 14 1 0
2185 437 3 0 10.254123524944113 -11.562017920581729 -9.858370600459343 14 1 0
5890 1464 2 0 11.064384295022801 -11.362469027895798 -9.773181084326408 15 1 1
5891 1464 4 0 10.599973642316868 -11.385647651562103 -9.782891237311976 15 1 1
99 20 3 0 11.851198908707225 -11.495715831979895 -9.579221528527135 4 0 0
5892 1464 4 0 11.52023775844308 -11.334864305086219 -9.76115713520993 15 1 1
4908 1136 4 0 -10.394373568621209 -10.349172125267156 -10.210020644983254 16 1 0
4906 1136 2 0 -9.95082178612885 -10.311810576258114 -10.077554949555049 16 1 0
4907 1136 4 0 -9.49755294789105 -10.262002117190667 -9.9395869475729 16 1 0
3210 642 3 0 -9.107361595103669 -10.41149690217002 -9.972976626801069 15 1 1
3581 717 1 0 -5.4850877421244535 -11.004220914230551 -9.468532713462325 16 1 1
3585 717 3 0 -5.476946352206711 -10.731070742533388 -9.852875877796611 16 1 1
4983 1161 4 0 -5.144716900979503 -10.72376842479409 -10.10609371255299 16 1 0
4981 1161 2 0 -4.729547364205025 -10.678104505548081 -10.247394815244814 16 1 0
244 49 3 0 -3.9740236098389072 -10.5254747487517 -10.1902514581419 15 1 0
242 49 3 0 -3.258033681204637 -10.261029084398325 -10.183067078270442 15 1 0
4905 1135 4 0 2.513203089059987 -10.259856106192533 -10.095015549005913 15 1 0
2312 463 3 0 2.8971065148212585 -10.322469463027659 -10.018455682112794 14 1 0
2311 463 1 0 3.1382963793154204 -10.688107522756551 -10.2226610802042 14 1 0
2313 463 3 0 3.1238617351399895 -11.048389227834388 -9.949287436096265 14 1 0
2130 426 3 0 8.05500697676261 -11.006324484111786 -10.130358288827427 16 1 0
5117 1206 4 0 8.418804805277329 -11.030875638940554 -9.976349260142072 15 1 0
2128 426 3 0 8.339579787155252 -10.33630512659744 -10.018062217893174 16 1 0
3208 642 3 0 -8.51686804189374 -9.988957013210657 -10.21949008827174 15 1 1
556 112 1 0 1.174002085375431 -9.528672133680226 -10.13309052980714 3 0 0
557 112 3 0 0.8427517201322186 -9.424491812622051 -9.811900310176402 3 0 0
558 112 3 0 1.5131063002779896 -9.67817402268031 -9.939624818062507 3 0 0
4903 1135 2 0 2.2070856974149358 -9.941728608141519 -9.982214287430946 15 1 0
4904 1135 4 0 1.9073465482258705 -9.640589121842059 -9.866623339665637 15 1 0
4703 1068 4 0 8.486856004345839 -9.96995650259825 -9.938282906143606 3 0 1
4702 1068 2 0 8.848764554992119 -9.845548842441254 -9.727897685173772 3 0 1
4704 1068 4 0 9.210757053824747 -9.723080674744013 -9.514162537589234 3 0 1
1732 347 3 0 9.608673841819606 -9.772932708874016 -9.528564717091648 3 0 1
1735 347 3 0 10.280404446927186 -9.499768170345758 -9.52250345342862 3 0 1
278 56 3 0 2.845971521454514 -8.349641951711988 -10.098635839601194 5 0 0
277 56 3 0 3.586699128488739 -8.391079678088227 -10.128032205869836 5 0 0
2264 453 3 0 -0.4556657382570748 -8.212050908568118 -10.148456220619973 15 1 0
2265 453 3 0 0.21256250430277213 -8.327147082932747 -9.834002520173707 15 1 0
2261 453 1 0 -0.08580928693796253 -8.018717051907771 -9.95969666970646 15 1 0
2263 453 3 0 -0.20857854303861778 -7.789604837418352 -9.606063622193194 15 1 0
2262 453 3 0 0.10777363432876363 -7.722168339889471 -10.251081067038351 15 1 0
4146 882 4 0 3.747147034012464 -8.324173641321531 -9.745130647234223 6 0 0
4144 882 2 0 4.128992208938804 -8.138767001650939 -9.553274656377328 6 0 0
4145 882 4 0 4.498402106107825 -7.949481663570199 -9.375462220136574 6 0 0
2005 401 3 0 4.687590410352193 -7.633542146775435 -9.56512503396897 4 0 0
659 132 3 0 2.551857408722354 -7.340630334244906 -9.646428411569886 4 0 0
656 132 1 0 2.783422528383836 -6.9553635536248 -9.509790904988625 4 0 0
658 132 3 0 2.7049140481258203 -6.63507980568995 -9.776047187894433 4 0 0
3981 827 4 0 2.824202520879476 -6.5550323232999546 -10.187439523434348 6 0 0
657 132 3 0 3.2031818849674085 -7.034794484916249 -9.513449519103943 4 0 0
2004 401 3 0 5.251543178477977 -7.21730690861961 -9.52084110728312 4 0 0
4489 997 2 0 5.577250896997718 -7.003686311648279 -10.198680753261225 4 0 1
4490 997 4 0 5.491987647522034 -7.210744708701647 -9.822725034499992 4 0 1
355 71 3 0 -7.980869181519216 -5.925846595893807 -9.585279659338187 5 0 0
4006 836 2 0 -7.013755439050981 -5.7100352578342735 -10.213933509045575 5 0 0
4007 836 4 0 -7.065910984203624 -5.66852531712067 -9.7536635552722 5 0 0
354 71 3 0 -7.247893483060647 -5.738612180789969 -9.411705090835714 5 0 0
709 142 3 0 -4.193328102226177 -5.627276321797726 -9.496834597948656 5 0 0
3079 616 3 0 0.5238672707569023 -6.115046959668418 -9.500341742431303 15 1 0
1018 204 3 0 -8.642957830383686 -4.735839898506855 -9.923733556131474 6 0 1
4370 957 4 0 -7.050636903781268 -5.39482845824795 -9.482355692509657 4 0 0
4566 1022 4 0 -4.384535833124534 -4.71049160260418 -10.09557193766079 5 0 1
708 142 3 0 -4.3150220120628875 -4.996407086551858 -9.820535078123086 5 0 0
706 142 1 0 -4.042512853716225 -5.204161007085146 -9.565338104780393 5 0 0
707 142 3 0 -3.6096804395968167 -5.216794712502442 -9.763456976045523 5 0 0
3562 713 3 0 -1.807708928953046 -5.166643061204371 -9.767086000761893 8 0 1
3561 713 1 0 -1.4605193181757379 -4.921379442497601 -9.661362156319143 8 0 1
3565 713 3 0 -1.1376966142108316 -4.9799171081699924 -9.956837794371209 8 0 1
3077 616 3 0 0.6080781681473972 -5.400504887719296 -9.598245208264593 15 1 0
4274 925 4 0 1.0064277544509963 -5.367200439880534 -9.569972825625682 5 0 0
4273 925 2 0 1.393394781551974 -5.151054028667956 -9.395289329543091 5 0 0
1563 313 3 0 6.7231346778735634 -5.26501899033916 -9.453745531236022 11 0 1