LAMMPS data file via write_data, version 19 Nov 2024, timestep = 1000000, units = lj

79 atoms
4 atom types
54 bonds
1 bond types

-3.045986 3.045986 xlo xhi
-3.045986 3.045986 ylo yhi
-3.045986 3.045986 zlo zhi

Masses

1 1
2 1
3 0.1
4 0.1

Bond Coeffs # zero

1 0

Atoms # bond

71 23 2 -0.5613146085745268 -1.8316572685424088 -0.9165890185088341 0 1 1
67 21 4 -0.9097419806405472 -2.473788977673684 -0.8022435411384181 0 1 1
73 23 4 -0.6166205392166318 -2.1671591751914425 -0.8336449128068744 0 1 1
65 21 2 -1.0392726878077359 -2.778562748505126 -0.6889530096981162 0 1 1
72 23 4 -0.5060086779324215 -1.4961553618933756 -0.9995331242107938 0 1 1
60 19 4 -2.708123258119732 -2.9513546669157606 -3.0178633401670454 1 1 1
31 9 4 -1.143544818263504 -1.3405225353591246 1.4862688483085833 0 1 2
20 6 2 -0.09260469917784549 -0.935355986200961 0.02515318453848924 -1 0 1
16 4 4 -0.8657998131274143 -1.2591205128674965 1.2010059904640915 0 0 1
14 4 2 -0.6889385883587315 -1.1954364149709293 0.9057697412525737 0 0 1
15 4 4 -0.5120773635900487 -1.1317523170743626 0.6105334920410561 0 0 1
22 6 4 -0.3315045121308544 -0.9866809294931018 0.2757377602153717 -1 0 1
30 9 4 -1.4983247425701696 -1.4887075892887458 2.071223885128455 0 1 2
27 8 4 -2.085990321528018 -2.099910679266915 2.697982530416048 1 1 0
26 8 2 -1.9632908633507495 -1.848008443109394 2.4882443450946328 1 1 0
28 8 4 -1.8405914051734809 -1.5961062069518728 2.278506159773217 1 1 0
59 19 2 -2.4880083167445104 -2.6894644585160132 3.000197014419923 1 1 0
61 19 4 -2.267893375369289 -2.4275742501162663 2.9262853690068917 1 1 0
29 9 2 -1.3209347804168368 -1.414615062323935 1.7787463667185188 0 1 2
50 16 2 -1.7798496959377772 1.3211552389509917 -0.0657949599786078 1 -1 0
69 22 4 -0.33256841024989703 1.1430399623195506 -0.6051370873756456 2 -1 0
68 22 2 -0.34616457442356496 1.1092765043670698 -0.2570348420125798 2 -1 0
52 16 4 -1.6902987511466676 1.6401900251117034 -0.17847784912511183 1 -1 0
63 20 4 -1.5864397533443675 1.9670834460070445 -0.40676200501883975 0 -1 1
64 20 4 -1.2991254642032086 2.600732383062756 -0.4838303112376203 0 -1 1
66 21 4 -1.1688033949749248 3.0086354806634326 -0.5756624782578147 0 0 1
62 20 2 -1.442782608773788 2.2839079145349 -0.44529615812822987 0 -1 1
79 25 4 -2.9423576180775193 2.8415436677971937 -2.795713540074916 1 0 2
47 15 2 -2.0343622190684996 0.37038501276845537 0.4385716886355885 1 -1 0
49 15 4 -2.0149042872792378 0.6895422493418213 0.29623389592634225 1 -1 0
51 16 4 -1.8694006407288868 1.00212045279028 0.046887929167896095 1 -1 0
70 22 4 -0.35976073859723295 1.075513046414589 0.09106740335048608 2 -1 0
48 15 4 -2.0538201508577614 0.051227776195089725 0.5809094813448343 1 -1 0
1 1 1 -0.14851738890224417 2.4970373016438345 2.477324337324598 0 -1 -1
3 1 3 -0.04602814679529185 2.7471942240006197 2.607388519155755 0 -1 -1
4 1 3 -0.44064276381491696 2.4653510171458057 2.537805463743715 0 -1 -1
2 1 3 -0.10927287518227657 2.5153797046116035 2.180468438955817 0 -1 -1
54 17 4 0.11343910029531254 -1.933222745648582 -2.9931416946126648 0 0 0
53 17 2 0.19129572346057788 -1.5919928444911926 -2.992434032786203 0 0 0
38 12 2 0.9088385118041518 -0.5690899986431581 -1.868251217081006 -1 0 2
35 11 2 0.2747106413761063 -0.520900006251206 -2.871986727503447 0 0 0
55 17 4 0.2691523466258434 -1.2507629433338034 -2.991726370959741 0 0 0
37 11 4 0.26582767817635744 -0.8648446762276802 -2.8077749142638595 0 0 0
40 12 4 1.1104505245296796 -0.4759545191766818 -2.13876624215241 -1 0 2
10 2 3 1.4137881203480036 -0.4343468280706453 -2.889348230087898 -1 0 1
8 2 3 1.3703551572433308 -0.31058383530547345 -2.417336667506262 -1 0 1
6 2 1 1.5284048537738297 -0.26671839500608846 -2.668524522546984 -1 0 1
23 7 2 0.44936036621757086 -0.734396311480185 -0.9101701066051966 -1 0 1
7 2 3 1.8142527020741621 -0.34483470691778245 -2.6217393813653462 -1 0 1
19 5 4 2.1593197677356355 -0.6097136716341345 -2.68242139325943 -1 0 2
17 5 2 2.478037504134161 -0.7516015649822643 -2.654370899036221 -1 0 2
18 5 4 2.796755240532687 -0.8934894583303938 -2.6263204048130127 -1 0 2
39 12 4 0.7072264990786239 -0.6622254781096344 -1.597736192009602 -1 0 2
24 7 4 0.6234066843681038 -0.6878949295546593 -1.2102459313849945 -1 0 1
25 7 4 0.2753140480670381 -0.7808976934057108 -0.6100942818253987 -1 0 1
21 6 4 0.14629511377516358 -0.8840310429088201 -0.2254313911383931 -1 0 1
36 11 4 0.28359360457585536 -0.17695533627473203 -2.936198540743034 0 0 0
57 18 4 0.12907896596382307 -2.36757031522667 -2.963629293663505 0 0 0
58 18 4 0.007505493018611725 -2.9922214097499236 2.8367421219972337 0 0 -1
56 18 2 0.06829222949121729 -2.6798958624882965 2.9825424141668644 0 0 -1
45 14 4 1.624964335410811 0.4296602432253891 -2.824048444549848 -1 -2 0
44 14 2 1.7530034238675927 0.7503408156682956 -2.8812320285994417 -1 -2 0
46 14 4 1.8810425123243741 1.071021388111202 -2.9384156126490355 -1 -2 0
33 10 4 2.0768832502307126 1.424349519041626 -2.8535614833761525 -1 -1 1
34 10 4 2.430293552268994 2.0285419952289927 -2.860814767589416 -1 -1 1
78 25 4 2.7442668124838434 2.2720395078161078 -2.758857608198849 0 0 2
77 25 2 2.946940597203162 2.5567915878066505 -2.7772855741368825 0 0 2
32 10 2 2.2535884012498535 1.7264457571353096 -2.8571881254827844 -1 -1 1
9 2 3 1.5152262939083063 0.022891009106427718 -2.7456733433770184 -1 0 1
43 13 4 0.3875913641303133 0.1972187978993019 -3.0367788140723397 0 0 1
12 3 4 0.24783287075741361 2.8389311220305755 1.1514939754832436 0 -1 -1
42 13 4 0.3415782938546243 0.8948454095952675 3.020553497462928 0 0 0
76 24 4 0.3793659097718329 1.2989600132821713 2.9700416460704324 1 0 0
5 1 3 0.0018746226286449064 2.2602244442413384 2.58363195888412 0 -1 -1
41 13 2 0.3645848289924689 0.5460321037472848 3.037873341695294 0 0 0
11 3 2 0.16060023054579983 2.7534098421433995 1.4794826599955309 0 -1 -1
13 3 4 0.07336759033418619 2.6678885622562234 1.8074713445078192 0 -1 -1
75 24 4 0.17844532197298185 1.9023467365698519 2.677543134007894 1 0 0
74 24 2 0.27890561587240725 1.6006533749260115 2.8237923900391637 1 0 0

Velocities

71 0.42038747824612405 -0.01523714139833705 0.30856117829015256
67 0.3915311335830016 -0.1653217569170135 0.8575711058991751
73 0.05215641462875653 0.09474573922182326 0.5079014971976533
65 -0.21362489907340818 -0.14600338176737299 0.2176362949835285
72 0.7886185418634912 -0.12522002201849747 0.109220859382652
60 0.4490097770841361 0.046652176047245295 0.42240878232544
31 0.7587869843673583 0.09953956449624152 0.3894452648994421
20 -0.4135597498445115 0.14448121491881438 -0.32963644135421205
16 -0.6665475154314862 -1.2318841760451047 -0.8995912994419593
14 -0.32441635137346275 0.03238672711898514 -0.4219274317822463
15 0.0177148126845616 1.296657630283075 0.05573643587746474
22 -0.36514136584162754 0.028138101024441003 -0.30730530168370124
30 -0.12800993191847676 -0.05892940277197875 -0.1885486902157764
27 0.11009737036470946 0.2692446658327259 0.062063006552113886
26 0.010812485979141136 0.1269913568786553 -0.16687064266419957
28 -0.08847239840642741 -0.015261952075415669 -0.39580429188051325
59 0.2257702083910362 0.09241510421086313 -0.08026574986956712
61 0.002530639697936432 0.13817803237448084 -0.5829402820645739
29 0.315388526224441 0.02030508086213145 0.10044828734183299
50 -0.14500555464132722 -0.016072830415723337 0.03725054511372917
69 0.05620799607854558 -0.14199346595332327 0.3459172738125213
68 -0.118028928556273 0.1348290363358975 0.3659617612492948
52 0.37847296773302663 -0.1113994010240515 0.18337303373405445
63 0.12389937953110264 -0.1712365397704454 -0.29640093815467
64 -0.22476477406323983 0.09288861760028547 0.5753767753446475
66 -0.8187809317298178 -0.12668500661773155 -0.4222985159321186
62 -0.050432697266068624 -0.03917396108508013 0.13948791859498857
79 -0.10063022000209293 0.4823108386252444 0.014158720372404732
47 -0.09138580983097587 0.5021411924598603 0.38267754823951894
49 0.04114590385967948 0.49644408093962816 0.3880206033844913
51 -0.6684840770156809 0.07925374019260485 -0.10887194350659612
70 -0.2922658531910916 0.4116515386251183 0.38600624868606825
48 -0.2239175235216311 0.5078383039800926 0.3773344930945466
1 0.30651075035611186 -0.16633722830494355 0.35782180257145485
3 -0.2952840699122722 0.13197467992179945 0.2582763808504073
4 0.5272714777239987 -1.1768271489780706 0.8947023314571623
2 -0.3130643811059127 0.07668926379625493 0.29092997051972913
54 0.9889543992467 -0.40162295801156533 -0.5517151936032665
53 -0.06918331048047642 -0.16072702962888816 -0.2943393042497869
38 -0.10339926636102398 -0.26852292068063716 0.4648067402437704
35 -0.33254256409524297 -0.15163368900219062 0.18716745103651322
55 -1.127321020207652 0.08016889875378994 -0.036963414896307445
37 -0.5316246551774417 -0.1413053974793554 0.21494928494570353
40 -0.6624550058807972 -0.38929670501151337 0.006567213074228473
10 0.018180585932587895 0.4203343087228031 -0.4716901231740771
8 -0.16104324553414862 -0.5693144589880217 -0.2286925351672246
6 -0.05152319628567481 -0.060051135733870976 -0.07084783983284958
23 -0.22962026453240422 -0.07062922754352506 -0.03280750546418439
7 -0.08093769445306767 -0.1955433171982076 -0.11736001108893854
19 -0.0018805630790666023 0.1448649381435424 0.16214199341669522
17 -0.053944566927417344 -0.022155972564383127 -0.09113424672758504
18 -0.106008570775768 -0.18917688327230878 -0.34441048687186543
39 0.4556564731587493 -0.14774913634976095 0.9230462674133123
24 0.023443011676743453 0.05983662792223712 0.1341888665139324
25 -0.4826835407415518 -0.20109508300928722 -0.19980387744230116
21 -0.4619781338473955 0.2608243288131878 -0.3519675810247228
36 -0.13346047301304442 -0.16196198052502594 0.15938561712732296
57 0.06575637374799853 -0.12900615023811493 0.7734947271873613
58 0.442093436553575 0.09786391276166538 0.13060425659578545
56 0.2539249051507867 -0.015571118738224863 0.4520494918915734
45 0.07071236388728261 0.03339559446343628 0.08533117655850347
44 -0.1256870650466518 0.010193300026543417 -0.4845409197389759
46 -0.32208649398058636 -0.013008994410349922 -1.054413016036455
33 -0.7539433985845274 0.25855942657331155 0.25777664528522126
34 0.3559334608001489 -0.3982998179121371 -0.3802098441076389
78 0.6517817241575701 0.014955926344796755 1.0676603976864474
77 0.2755757520777385 0.2486333824850206 0.540909559029426
32 -0.1990049688921889 -0.06987019566941306 -0.0612165994112091
9 0.017707274766947487 0.10431756960612786 0.5343508449771286
43 -0.3270281464746825 0.37354597951840296 0.12410732213029183
12 -0.20937532551891602 -0.8803105851223875 -0.03967384528645235
42 -0.23699324199160882 0.3440558525966688 -0.5894060148993282
76 -0.30744450389716804 0.20547935728759245 -0.2546414304131963
5 1.3071137789673206 0.3028167223051594 -0.012622141459798064
41 -0.2820106942331456 0.3588009160575358 -0.2326493463845183
11 -0.24184642237848067 -0.07722914848858949 0.16108921732603465
13 -0.27431751923804515 0.7258522881452105 0.3618522799385213
75 -0.4315610609983435 0.3560588521111735 0.14124174440273157
74 -0.36950278244775575 0.2807691046993828 -0.05669984300523235

Bonds

1 1 71 72
2 1 71 73
3 1 65 66
4 1 65 67
5 1 20 21
6 1 20 22
7 1 14 15
8 1 14 16
9 1 26 27
10 1 26 28
11 1 59 60
12 1 59 61
13 1 29 30
14 1 29 31
15 1 50 51
16 1 50 52
17 1 68 69
18 1 68 70
19 1 62 63
20 1 62 64
21 1 47 48
22 1 47 49
23 1 1 2
24 1 1 3
25 1 1 4
26 1 1 5
27 1 53 54
28 1 53 55
29 1 38 39
30 1 38 40
31 1 35 36
32 1 35 37
33 1 6 7
34 1 6 8
35 1 6 9
36 1 6 10
37 1 23 24
38 1 23 25
39 1 17 18
40 1 17 19
41 1 56 57
42 1 56 58
43 1 44 45
44 1 44 46
45 1 77 78
46 1 77 79
47 1 32 33
48 1 32 34
49 1 41 42
50 1 41 43
51 1 11 12
52 1 11 13
53 1 74 75
54 1 74 76
