LAMMPS data file via write_data, version 4 Feb 2025, timestep = 130, units = lj

51 atoms
4 atom types
38 bonds
1 bond types
43 angles
2 angle types

-2.5 2.5 xlo xhi
-2.5 2.5 ylo yhi
-2.5 2.5 zlo zhi

Masses

1 1
2 1
3 0.1
4 0.1

Bond Coeffs # harmonic/omp

1 100 0.45

Angle Coeffs # harmonic/omp

1 100 180
2 100 109.471

Atoms # full

31 7 2 0 -0.605770084597304 -2.372978111044412 -1.1561615673677625 0 0 0
32 7 4 0 -0.5522786567420972 -1.9600370241909868 -1.4145409408830814 0 0 0
1 1 1 0 -0.06089930946793392 -0.15918692841945753 -1.0999759712926334 0 0 0
4 1 3 0 -0.29011869142838015 0.18705060097992313 -1.280114349887243 0 0 0
3 1 3 0 -0.18992420112036187 -0.5504005543974818 -1.304211213791931 0 0 0
34 8 2 0 -1.9442672221878372 0.29519817653403707 -1.5819330174086823 0 0 0
35 8 4 0 -1.7552416909584818 0.37715327235983087 -2.0320394466716407 0 0 0
36 8 4 0 -2.130605422823455 0.21225008145329918 -1.1381835721937854 0 0 0
33 7 4 0 -0.6626528530243906 2.2117253443599103 -0.8978383582410927 0 -1 0
44 11 4 0 -2.462068497912413 -2.368466497623458 -1.500489181234374 1 0 0
6 2 1 0 -1.6934505996342857 -1.7442817367920425 -0.22107378544346087 0 0 0
7 2 3 0 -2.0477582361183377 -2.022991570397968 -0.12201192141054051 0 0 0
8 2 3 0 -1.5680495613398444 -1.5064269436820905 0.16094796007366793 0 0 0
9 2 3 0 -1.3355722174978581 -1.9958612078616929 -0.36886372715401494 0 0 0
10 2 3 0 -1.818773474647911 -1.4564429527081046 -0.545256175181449 0 0 0
2 1 3 0 -0.14684844956537205 -0.1830629437737474 -0.657125667908463 0 0 0
37 9 2 0 -2.4222287760849106 -0.7340536062029199 0.61774806114964 0 0 0
38 9 4 0 -2.2868209405029036 -0.6672955083811637 0.14604210670255613 0 0 0
42 10 4 0 -2.1260935148866915 1.6007240896962358 0.4398288335845418 0 0 0
40 10 2 0 -1.7833475169305897 1.7396391713141108 0.10850393558068859 0 0 0
41 10 4 0 -1.4464856117697125 1.8750790068013403 -0.2203679921890965 0 0 0
14 3 3 0 -0.3074093713893219 -2.3098413901431423 1.935579644994939 0 1 0
20 4 3 0 -2.021385890376333 -2.1567791943363845 1.9420696397650108 0 0 0
16 4 1 0 -2.020663330777766 -1.698756720149658 1.9158873342341547 0 0 0
17 4 3 0 -2.4482061942576356 -1.544067059264199 1.9508046562150716 0 0 0
18 4 3 0 -1.840435307119504 -1.5674422305471234 1.5109059641966833 0 0 0
19 4 3 0 -1.7613784515922868 -1.5262319436530665 2.2615550104705706 0 0 0
11 3 1 0 -0.14882916535629967 2.2475679630334695 1.9409327695684226 0 0 0
12 3 3 0 -0.023007432754856803 2.134878638508764 2.3686508608784242 0 0 0
13 3 3 0 -0.4832683052164189 1.96066853478791 1.7984121705408644 0 0 0
43 11 2 0 2.172555959434703 -2.0523419132889096 -1.4143751551458628 0 0 0
45 11 4 0 1.8020815487016884 -1.7303402283619955 -1.3302019738027389 0 0 0
24 5 3 0 1.869860838190957 1.437575408342828 -2.0589254606954284 0 0 0
5 1 3 0 0.3881310924782197 -0.0970996577398314 -1.16364838794314 0 0 0
21 5 1 0 1.7842534967650148 1.207550577558211 -2.4489476031821513 0 0 0
22 5 3 0 1.466217563131329 0.8818298998068889 -2.3742672404461818 0 0 0
26 6 1 0 1.492034440117465 -1.8712170442555542 -0.28397786990860996 0 0 0
27 6 3 0 1.3842541122222645 -1.9390022246799896 0.15413977914267704 0 0 0
28 6 3 0 1.2966667885282477 -2.201416285241246 -0.5443076094381945 0 0 0
29 6 3 0 1.3370780145979533 -1.4579699743762113 -0.41904392175808597 0 0 0
30 6 3 0 1.9416100850844644 -1.888847554115589 -0.332584298761296 0 0 0
47 12 4 0 0.4635517351535843 0.6910811244372632 0.6984662682472675 0 0 0
51 13 4 0 0.6642876054430765 -2.039126744823055 2.311080452034688 0 0 0
49 13 2 0 1.0799091688731037 -1.7885800091365023 2.388144168702985 0 0 0
50 13 4 0 1.4914500542399123 -1.5358251594733472 2.468125037068315 0 0 0
46 12 2 0 0.7808642241932363 0.5978378499336056 1.0588848662935606 0 0 0
48 12 4 0 1.1023031753109735 0.508322878927983 1.4229379785313234 0 0 0
39 9 4 0 2.4408946986288305 -0.8006824575563266 1.086739498533599 -1 0 0
15 3 3 0 0.2093780411749667 2.2131974182844028 1.6634951207951831 0 0 0
23 5 3 0 1.6289467898425098 1.5031995770318556 2.2278329586787673 0 0 -1
25 5 3 0 2.170591043177601 1.0146530052276617 2.405909178139274 0 0 -1

Velocities

31 -0.020422537028891657 -0.18454391705579015 -0.09446154931585164
32 -0.3666859622544839 0.8697836040774746 -0.5031732449115834
1 -0.1561615662104723 -0.08786145139058332 0.04347991284726856
4 0.5178736937247701 0.16603496884234692 -0.4430717305190194
3 -0.3843186013280605 -0.07140915852844237 -0.904668118297361
34 -0.010732374879327794 -0.05792479840833358 0.13868688523520492
35 0.29373513946661933 0.22021581034814006 -1.2092369221770671
36 -0.697985254945147 -0.3949261315714658 0.9103404867541509
33 0.0012379590535324808 -0.7729850609003476 0.15393014686549275
44 0.5949696579211394 -1.0598433489248054 -0.1994198051526029
6 -0.00416569575815182 0.08334861623095097 0.21348994851243247
7 -0.07828821313072887 -0.13153210914192184 -0.19923009508078185
8 -0.1563258472706569 0.45078837124410914 0.2437566002107222
9 0.6584350838867241 0.1552729123102608 0.07592575726721933
10 0.5626302776248735 -0.044470348075687526 0.11722447671396705
2 -0.2540876967435969 0.07007385759862925 -0.046666300463008195
37 -0.05728109399381441 0.04025829347991379 0.11145603098330885
38 0.12091853741510927 0.40348239150667686 -0.9674134400796355
42 -0.8609053351412158 -0.612735958227703 0.9672225590604259
40 -0.08337281815398136 -0.03989223053697169 -0.010883201879055867
41 0.3630228234179669 -0.24568690817695352 -1.0489235198459834
14 -0.15003545232766238 0.35502297545321665 -0.5999888084557121
20 0.3973290646054865 -0.4060959333107806 0.40361663415203625
16 -0.3216499734858561 0.04055009210139329 0.05374875400358837
17 -0.11459222027495908 -0.21639652872141885 -0.0027075828690679288
18 0.05021396015751342 -0.7546341058773397 -0.7407648723957189
19 0.24965866631849978 0.010412675780929491 -0.04285216743594973
11 -0.05422147684936747 -0.014522593096195866 0.350381961430102
12 0.2986284332245942 0.08768215457658787 0.12128852230553416
13 -0.31025240641537755 0.021325247905386938 -0.24998585347928448
43 0.0796131098539654 0.17563857354344908 -0.002492975408782181
45 -0.5854465550097712 0.8888653623901829 0.15649470423118797
24 0.5437739937787441 -0.00865681278653244 0.08998079559710667
5 0.20509333855523695 0.07413028600014057 -0.6616920832948877
21 -0.06494375708807741 -0.05022338991755042 -0.05914226805200767
22 0.15751817882194136 -0.48788976561491837 -0.20987121582783433
26 -0.11187892807718068 0.041965361368233194 0.17970062100624434
27 0.13023415341035743 -0.3722195342741242 0.2325655294849975
28 0.505499981697548 -0.07698826811865842 -0.6829586316495211
29 0.09698048920983385 0.31473241618402187 -0.47189392116002943
30 0.22963511483199808 0.0399263095419624 -0.36519609420797955
47 -0.7516355694939699 0.2639060214225446 -0.2968689512318888
51 -0.9086829862125569 -0.7651386852766375 -0.18115510177598726
49 -0.022900859116301065 -0.06774385534058615 -0.11628195758133156
50 0.7375579466842956 0.4833129079761874 0.008647261615716474
46 -0.08196873187938716 0.04517588154921871 -0.1410415570567744
48 0.6698358617352883 -0.3501126399936747 0.40196211949815364
39 -0.1258948586212927 -0.3073959991021352 0.8991079946197286
15 -0.2805650225617502 -0.003144091224375519 -0.5137685083079936
23 0.5727008694449814 0.10066470680825214 -0.08303287930601731
25 0.44297486877668757 0.22229933160759865 -0.24742250245439457

Bonds

1 1 31 32
2 1 31 33
3 1 1 2
4 1 1 3
5 1 1 4
6 1 1 5
7 1 34 35
8 1 34 36
9 1 6 7
10 1 6 8
11 1 6 9
12 1 6 10
13 1 37 38
14 1 37 39
15 1 40 41
16 1 40 42
17 1 16 17
18 1 16 18
19 1 16 19
20 1 16 20
21 1 11 12
22 1 11 13
23 1 11 14
24 1 11 15
25 1 43 44
26 1 43 45
27 1 21 22
28 1 21 23
29 1 21 24
30 1 21 25
31 1 26 27
32 1 26 28
33 1 26 29
34 1 26 30
35 1 49 50
36 1 49 51
37 1 46 47
38 1 46 48

Angles

1 1 32 31 33
2 2 2 1 3
3 2 2 1 4
4 2 2 1 5
5 2 3 1 4
6 2 3 1 5
7 2 4 1 5
8 1 35 34 36
9 2 7 6 8
10 2 7 6 9
11 2 7 6 10
12 2 8 6 9
13 2 8 6 10
14 2 9 6 10
15 1 38 37 39
16 1 41 40 42
17 2 17 16 18
18 2 17 16 19
19 2 17 16 20
20 2 18 16 19
21 2 18 16 20
22 2 19 16 20
23 2 12 11 13
24 2 12 11 14
25 2 12 11 15
26 2 13 11 14
27 2 13 11 15
28 2 14 11 15
29 1 44 43 45
30 2 22 21 23
31 2 22 21 24
32 2 22 21 25
33 2 23 21 24
34 2 23 21 25
35 2 24 21 25
36 2 27 26 28
37 2 27 26 29
38 2 27 26 30
39 2 28 26 29
40 2 28 26 30
41 2 29 26 30
42 1 50 49 51
43 1 47 46 48
