LAMMPS data file via write_data, version 27 Jun 2024, timestep = 1500000, units = lj

320 atoms
4 atom types
220 bonds
1 bond types

-3.94 3.94 xlo xhi
-3.94 3.94 ylo yhi
-3.94 3.94 zlo zhi

Masses

1 1
2 1
3 0.5
4 0.5

Bond Coeffs # zero

1 0

Atoms # bond

94 25 4 -0.2090643213381334 -2.9247197531102853 -3.11737608636685 -1 0 1
254 78 4 -0.5328828897657545 -3.0870336898750224 -3.3455938419890994 2 0 1
252 78 2 -0.8291436996476662 -3.4763906246149747 -3.2424885079952417 2 0 1
253 78 4 -1.125404509529578 -3.865747559354927 -3.139383174001384 2 0 1
107 29 4 -0.9276179867159337 -1.1562971336035153 -1.4048872952665872 -1 0 0
114 32 2 -3.6539162626555335 -1.1625720565337982 -2.530311365942042 1 0 -1
85 22 4 -3.021614465505836 -1.7656509754147034 -2.7306355183437128 -1 0 1
84 22 2 -2.6213450287532094 -1.960424488891521 -2.5029347136689504 -1 0 1
115 32 4 -3.3272788797541804 -1.5368189700508734 -2.587296169304264 1 0 -1
144 42 2 -1.0022441660865655 -0.9227815011427721 -3.203772449186572 0 0 1
145 42 4 -1.336323542224997 -0.7256113746036358 -3.519232290750274 0 0 1
170 50 4 -1.7349560564619158 -0.7506542310956821 -3.4509352189715905 0 0 2
61 14 4 -0.32500398110911793 -0.9929331583863465 -2.734976703627541 0 0 1
146 42 4 -0.668164789948134 -1.1199516276819086 -2.8883126076228693 0 0 1
162 48 2 -3.2246068942320734 -3.5653760758588606 -1.3399480431007584 0 1 0
164 48 4 -3.22735025697081 -3.0925647035743293 -1.1773384486750464 0 1 0
102 28 2 -2.9990924705081614 -2.3259991446796344 -0.7974905403636451 0 -1 0
103 28 4 -2.8426462786951605 -1.8939356920706754 -0.6003972579139725 0 -1 0
104 28 4 -3.1555386623211623 -2.7580625972885935 -0.9945838228133177 0 -1 0
216 66 2 -1.9470463060472507 -3.782602571953933 -0.4495267827488183 0 1 1
86 22 4 -2.2210755920005827 -2.155198002368339 -2.275233908994188 -1 0 1
106 29 4 -1.6281852537568353 -0.5954999448731573 -1.8461491420904177 -1 0 0
168 50 2 -1.8727828175999979 -0.8533935359594159 -3.920454568040756 0 0 2
74 18 4 -3.6794075801338417 -0.3278231737619231 -0.23848729045961542 0 1 -1
22 5 3 -3.3529624170447305 -0.08905315358378252 -0.15636141568380776 0 0 -1
105 29 2 -1.2779016202363844 -0.8758985392383363 -1.6255182186785024 -1 0 0
298 93 4 -2.7819186471056128 -0.5509593924489473 -0.37254401447712865 0 1 0
24 5 3 -2.6353873889938515 -0.3050522247067145 -0.09865110125594548 0 0 -1
286 89 4 -3.521783073140749 -1.8205168482616305 -0.07410626999201142 0 1 -1
297 93 2 -2.39584082643827 -0.8686491742901993 -0.3766815139793288 0 1 0
273 85 2 -0.40723183384272293 -1.3711973579156689 -1.0115490388593171 0 -1 -1
217 66 4 -1.9293295048960013 -3.453983593436469 -0.07310191386393816 0 1 1
149 43 4 -1.805630706573497 -0.38751181713303895 -1.5301026534272089 0 1 -1
275 85 4 -0.8999172044760442 -1.3919448310549778 -1.0941968937762145 0 -1 -1
299 93 4 -2.0097630057709273 -1.1863389561314512 -0.38081901348152897 0 1 0
147 43 2 -2.1315233995646943 -0.011018039872032008 -1.4848656294457843 0 1 -1
19 4 3 -3.7566632221017215 -3.9080519126668736 1.0842278234400953 0 1 -1
2 1 3 -2.727435641342158 -2.0335758287392767 1.0453722231903033 1 1 0
287 89 4 -2.9467461729795073 -1.87714952731857 0.7420587274906079 0 1 -1
285 89 2 -3.234264623060128 -1.8488331877901003 0.3339762287492983 0 1 -1
3 1 3 -2.504155725404922 -2.322502728222078 1.702310063396269 1 1 0
1 1 1 -2.3794164560188724 -2.241440661867698 1.2628000452266548 1 1 0
4 1 3 -2.286321208018173 -2.6421073877586454 1.048092221513641 1 1 0
196 59 4 -0.1867406126482505 -2.769308531957612 3.32597374009518 -1 1 0
52 11 4 -2.4846848852292887 -2.248606836847929 2.0851064637095 0 0 0
166 49 4 -2.332267289336824 -2.8040364420949855 0.7042335339512853 -1 1 0
165 49 2 -2.3045284626001257 -3.1993025163487645 0.39928224597969253 -1 1 0
167 49 4 -2.276789635863427 -3.5945685906025435 0.09433095800809982 -1 1 0
184 55 4 -0.8538860215232627 -3.5038685581489335 1.8923995431960456 0 1 0
137 39 4 -2.0283167528636454 -1.509861644409582 3.060975640066016 -1 0 0
133 38 4 -3.772604870122908 -1.5328376303759141 0.001505100385313471 1 1 1
5 1 3 -2.0131964532122373 -1.9709252831815138 1.2525853774083393 1 1 0
54 12 2 -3.2619042149189905 -0.013096534511325053 1.2527014681410102 0 -1 -2
28 6 3 -2.3418205701963353 -1.4687789417370536 2.7980145588624197 0 0 0
135 39 2 -1.6591268001744137 -1.7878307775193323 2.8701041129293308 -1 0 0
55 12 4 -3.254008269011806 -0.09641185296499212 1.7456479274541084 0 -1 -2
235 72 4 -1.865790883042039 -1.6025839930516979 1.3588281920092882 0 0 0
234 72 2 -1.9618937986403422 -1.2821512858014743 1.7304289316991972 0 0 0
53 11 4 -1.990355584909043 -2.959087530248611 2.5859614598400267 0 0 0
272 84 4 -2.0302107289407476 -2.806490248818166 2.9649098632822675 0 0 -1
51 11 2 -2.237520235069166 -2.60384718354827 2.3355339617747632 0 0 0
195 59 2 -0.07963085386432459 -2.356553447646777 3.0648976210252092 -1 1 0
207 63 2 -0.5617023458904994 -3.61970692710163 3.3865116822095542 0 0 -1
270 84 2 -1.6381617584324142 -3.0375572396250927 3.1720466549987103 0 0 -1
230 70 4 -1.269475802928213 -2.314810531488526 2.3756337554039653 0 -1 -1
229 70 4 -0.9044966759703976 -3.2151710466141865 2.138692455314778 0 -1 -1
228 70 2 -1.0869862394493053 -2.7649907890513563 2.2571631053593717 0 -1 -1
271 84 4 -1.2461127879240808 -3.2686242304320197 3.379183446715153 0 0 -1
161 47 4 -3.1451661566760687 -1.0295109607704607 2.6728620812113077 -1 2 -1
209 63 4 -0.06673146080271808 -3.6228624673009264 3.315844395000774 0 0 -1
208 63 4 -1.0566732309782807 -3.6165513869023336 3.4571789694183344 0 0 -1
136 39 4 -1.289936847485182 -2.0657999106290825 2.6792325857926453 -1 0 0
169 50 4 -2.0106095787380798 -0.9561328408231496 3.490026082890078 0 0 1
236 72 4 -2.0579967142386453 -0.9617185785512509 2.102029671389106 0 0 0
30 6 3 -2.136101953616691 -0.8210447962252879 3.122082958325363 0 0 0
26 6 1 -2.3963605538134534 -1.0079913876240907 2.7984837726219562 0 0 0
29 6 3 -2.2820922625669215 -0.8345342827744224 2.383567648094742 0 0 0
27 6 3 -2.8377278227768112 -0.9105761426745429 2.8839542584001605 0 0 0
159 47 2 -3.5526398004434134 -0.7834443430791079 2.825886423369656 -1 2 -1
293 91 4 -0.5233932867962111 0.6638784273257314 -0.08409009032873188 0 0 0
225 69 2 -1.9063285728749353 0.7009138534024697 -3.917064731670226 0 0 1
276 86 2 -0.9403180911937085 1.407124353550185 -3.7991084844420806 1 0 1
277 86 4 -0.4596378177095487 1.4405247957270018 -3.93264082189598 1 0 1
247 76 4 -0.06707173032334474 1.383127919755091 -3.9109784675832078 0 -1 0
202 61 4 -0.3782923119695528 1.2491968637629558 -2.397226953276335 1 0 0
215 65 4 -0.7705115596415433 1.3562924172823003 -2.352906955318059 0 -1 0
213 65 2 -1.1249766548794708 1.634216409371918 -2.1358522366897486 0 -1 0
278 86 4 -1.4209983646778686 1.3737239113733681 -3.665576146988182 1 0 1
226 69 4 -1.673474786823443 1.141184998014853 -3.873014379307662 0 0 1
305 95 4 -2.063080278492683 3.071674032712596 -3.0888381225758836 1 1 2
176 52 4 -2.268371542705071 3.1586145666592995 -3.4427669171216877 -1 0 1
174 52 2 -2.68215497836339 3.2363427153201916 -3.712473430355521 -1 0 1
303 95 2 -1.7058869637858451 3.411805196656813 -3.0068397857477587 1 1 2
113 31 4 -0.38216784325968806 2.9628103309717124 -2.286659406441221 -1 -1 0
25 5 3 -2.8112559460943554 0.4242895245418035 -0.16214018241207356 0 0 -1
200 60 4 -0.13952921847262434 2.8933897885742756 -2.6188515317103365 0 -1 0
311 97 4 -1.4528671434719933 2.2945647549374937 -1.9135022739980259 0 0 0
222 68 2 -2.659227399548093 1.1848799336982652 -1.3274320280327963 1 0 0
224 68 4 -2.6321448160566403 0.7219890317274928 -1.514511012807179 1 0 0
148 43 4 -2.4574160925558917 0.365475737388975 -1.4396286054643597 0 1 -1
304 95 4 -1.3486936490790074 3.75193636060103 -2.9248414489196333 1 1 2
110 30 4 -3.038245511689056 1.7552878499779883 -1.0090457568976767 -1 0 2
223 68 4 -2.6863099830395454 1.6477708356690375 -1.1403530432584135 1 0 0
108 30 2 -3.171536141197151 2.125758972091778 -0.7008497871554648 -1 0 2
294 92 2 -1.7056972987874384 3.6710790987906496 -1.6859080832935012 1 0 0
201 61 2 -0.06239148254450409 1.279763331722869 -2.010869143720518 1 0 0
214 65 4 -1.4794417501173984 1.9121404014615357 -1.918797518061438 0 -1 0
109 30 4 -3.304826770705246 2.496230094205568 -0.3926538174132527 -1 0 2
130 37 4 -3.606022454005019 2.6429857229920177 -0.1522832245878062 0 -1 0
163 48 4 -3.221863531493337 3.8418125518566084 -1.5025576375264704 0 0 0
138 40 2 -2.75717408734858 3.2184549766174064 -1.8806844816404151 0 -2 0
140 40 4 -2.4936651625512534 2.807640650871292 -1.9892875953789622 0 -2 0
139 40 4 -3.020683012145907 3.6292693023635203 -1.7720813679018679 0 -2 0
310 97 4 -2.369051537455968 2.515619963804312 -2.247778732715934 0 0 0
295 92 4 -1.5423014740636398 3.5667042124325263 -2.146785168382853 1 0 0
111 31 2 -0.7584529900152635 3.2865282949760135 -2.226524823112404 -1 -1 0
112 31 4 -1.134738136770839 3.6102462589803146 -2.166390239783587 -1 -1 0
309 97 2 -1.9109593404639806 2.405092359370903 -2.08064050335698 0 0 0
296 92 4 -1.869093123511237 3.775453985148773 -1.2250309982041494 1 0 0
218 66 4 -1.9647631071985001 3.768778449528603 -0.8259516516336989 0 0 1
265 82 4 -0.20283412185950414 0.07639282380173677 1.0880852714635816 0 0 0
292 91 4 -0.3124422123203634 0.3596089374568118 0.8448446338107423 0 0 0
291 91 2 -0.4179177495582873 0.5117436823912715 0.3803772717410052 0 0 0
183 55 2 -0.6478451257703047 3.9247622318404427 1.830650166423829 0 0 0
33 7 3 -0.44462207605064197 1.7354724766811127 1.9114813501253536 1 0 0
185 55 4 -0.44180423001734676 3.4733930218298195 1.7689007896516125 0 0 0
17 4 3 -3.6050045176595913 3.3428219283421514 0.7019976395971961 0 0 -1
210 64 2 -2.9961076068954053 3.013256474154054 1.3665215101286678 -1 -1 -1
77 19 4 -2.2601876020746783 2.554499465498534 1.4210033082255944 0 -1 -1
211 64 4 -2.5458892122911494 2.8001131704150413 1.3232395366159115 -1 -1 -1
212 64 4 -3.4463260014996613 3.2263997778930666 1.4098034836414242 -1 -1 -1
18 4 3 -3.879211657556087 3.291561335724379 1.3999108119006265 0 0 -1
117 33 2 -3.6268635239655462 1.2332916103280396 2.6213629132738703 0 0 0
16 4 1 -3.892339468842886 3.535299468155996 1.0052978580208656 0 0 -1
131 37 4 -3.3491683518848805 3.0299716282370843 0.7333057767926864 0 -1 0
75 19 2 -1.8484498454882263 2.32675163553426 1.590127362540554 0 -1 -1
76 19 4 -1.4367120889017742 2.0990038055699864 1.7592514168555142 0 -1 -1
32 7 3 -1.1626739518287517 1.794676851186634 1.6974805423439188 1 0 0
122 34 4 -3.540397985793355 1.8714828341459984 2.914227638875499 1 -1 0
152 44 4 -0.12912191403616802 3.2599220345591635 1.6389920462298002 0 0 0
118 33 4 -3.380358651967185 1.5140364423068164 2.953654483131164 0 0 0
281 87 4 -0.18720725546601455 1.622639135414758 2.1783693541992752 0 0 -1
80 20 4 -0.056014316288694625 0.2536647753142217 3.9186929581937875 -1 1 0
175 52 4 -3.095938414021709 3.3140708639810836 3.8978200564106453 -1 0 0
120 34 2 -3.2472835323055853 2.275730544156427 2.9400676487045976 1 -1 0
121 34 4 -2.9541690788178157 2.6799782541668553 2.965907658533696 1 -1 0
243 75 2 -3.5977322143564154 3.6449941570699336 3.3333832245186406 1 -1 0
245 75 4 -3.237358283176653 3.6041649167517176 3.6775686438220596 1 -1 0
151 44 4 -0.4412470220876651 2.3584406530236537 1.9388407341862521 0 0 0
35 7 3 -0.9981023286217424 1.7214168189066903 2.4217381957418707 1 0 0
31 7 1 -0.861249112412216 1.903625730151457 2.0274399458393844 1 0 0
150 44 2 -0.28518446806191655 2.809181343791409 1.788916390208026 0 0 0
34 7 3 -0.8406823436826252 2.3656319413269644 2.0652191578393233 1 0 0
23 5 3 -2.9744166179072336 0.059176132289044545 0.47580245291715695 0 0 -1
56 12 4 -3.269800160826175 0.070218783942342 0.7597550088279121 0 -1 -2
129 37 2 -3.47759540294495 2.836478675614551 0.2905112761024401 0 -1 0
21 5 1 -2.9412926953067524 0.025064998408837778 0.014240716746584479 0 0 -1
301 94 4 -3.9331059426623436 0.6305551737238921 2.0591351943865117 1 1 0
119 33 4 -3.873368395963907 0.9525467783492628 2.2890713434165764 0 0 0
227 69 4 -2.1391823589264276 0.26064270879008655 3.91888491596721 0 0 0
93 25 2 0.19844422237904352 -3.0396587826215504 -3.383319325221917 -1 0 1
95 25 4 0.6059527660962202 -3.1545978121328155 -3.6492625640769845 -1 0 1
313 98 4 1.6096722477806369 -0.4441363256955001 -2.8396612538058394 0 1 0
60 14 2 0.0775539560592771 -0.8035174574754865 -2.9631625916027744 0 0 1
62 14 4 0.48011189322767217 -0.6141017565646265 -3.1913484795780076 0 0 1
12 3 3 0.778916051757514 -0.7008059759921487 -3.41679981382172 -1 0 1
11 3 1 1.2228265936999254 -0.7913692536113708 -3.496434752757547 -1 0 1
187 56 4 0.3140649382701835 -1.036918660563113 -0.9281888014366526 -1 1 0
14 3 3 1.4826289539346535 -0.5126418191713153 -3.231644739903994 -1 0 1
15 3 3 1.307843163337828 -1.2268336218014633 -3.3937558020234224 -1 0 1
256 79 4 1.5784142109058399 -1.3731500491186117 -3.6254624342129667 0 -1 0
142 41 4 1.4811945254800147 -0.3236866328783423 -2.46011921241895 0 1 1
194 58 4 2.673591230988854 -0.6575129995366502 -2.757455468229491 -1 0 0
314 98 4 2.588349126871141 -0.3501146005562493 -3.0222851337774785 0 1 0
192 58 2 3.1651443758165625 -0.7209674161618306 -2.823402741265079 -1 0 0
312 98 2 2.099010687325889 -0.3971254631258747 -2.930973193791659 0 1 0
193 58 4 3.656697520644271 -0.7844218327870109 -2.8893500143006667 -1 0 0
116 32 4 3.8994463544431133 -0.7883251430167231 -2.47332656257982 0 0 -1
320 100 4 0.9601224553443308 -3.132123770178873 -0.7514699298785099 1 2 1
231 71 2 0.8238066749691804 -2.6340524287282348 -0.2990148528914939 0 2 1
182 54 4 1.3085682355339934 -0.11922429381698141 -3.264116049964227 -1 0 1
232 71 4 0.6398418987336714 -2.9224843886268688 -0.6636570962119387 0 2 1
318 100 2 0.9798560264110766 -3.6296740628828004 -0.7967942324467434 1 2 1
238 73 4 2.75748274421355 -2.2020253002004893 -1.4416736082868737 0 0 0
237 73 2 2.347766571915018 -1.9747973506172036 -1.6163164354658324 0 0 0
239 73 4 1.9380503996164864 -1.747569401033918 -1.790959262644791 0 0 0
190 57 4 3.088001092930462 -2.1727905473447056 -1.1946198048547265 -2 1 -1
317 99 4 1.5154825844534217 -0.676251616833885 -1.2317914720732752 0 0 -1
188 56 4 0.4580732565789611 -0.25028109649707503 -1.528574466703493 -1 1 0
143 41 4 0.7205806421766525 -0.21622008790657155 -1.8198712430834045 0 1 1
186 56 2 0.3860690974245723 -0.643599878530094 -1.2283816340700728 -1 1 0
141 41 2 1.1008875838283336 -0.26995336039245693 -2.1399952277511773 0 1 1
315 99 2 1.775666961446956 -1.0761081989040864 -1.3815205732653077 0 0 -1
191 57 4 3.612538607186473 -1.415193040217742 -0.8061530581011095 -2 1 -1
57 13 2 2.194946527400085 -0.056782376182237485 -1.2000219214146846 -2 0 0
189 57 2 3.3502698500584676 -1.7939917937812238 -1.000386431477918 -2 1 -1
316 99 4 2.0358513384404904 -1.4759647809742877 -1.5312496744573403 0 0 -1
58 13 4 1.813764567629629 -0.3705398524471902 -1.1209235040280845 -2 0 0
73 18 4 3.6688070211981536 -0.9945025949654958 -0.7607351617887561 -1 1 -1
274 85 4 0.08545353679059825 -1.3504498847763602 -0.9289011839424196 0 -1 -1
72 18 2 3.934699720532156 -0.6611628843637093 -0.4996112261241858 -1 1 -1
284 88 4 2.0039728894927697 -2.503075065178055 0.7424487286346564 1 0 0
282 88 2 1.530385260072699 -2.415419471538586 0.6081682231091031 1 0 0
283 88 4 1.0567976306526283 -2.327763877899117 0.47388771758354986 1 0 0
134 38 4 3.1213368329508624 -1.5792077811548937 0.16131387417299367 0 1 1
241 74 4 2.717916008767795 -1.5158569055399262 0.22530204199201337 0 1 0
240 74 2 2.544136623608369 -1.9536512952076528 0.39304231046966187 0 1 0
132 38 2 3.614365981413977 -1.556022705765404 0.08140948727915358 0 1 1
242 74 4 2.3703572384489426 -2.3914456848753796 0.5607825789473104 0 1 0
100 27 4 2.6831060625264627 -0.29944615542804237 1.607225620581783 0 -1 -1
99 27 2 2.252267381788644 -0.3812129211715021 1.8474176837308682 0 -1 -1
37 8 3 2.9135511656118798 -0.18456716199364082 0.5161464845551683 0 0 0
250 77 4 1.0582012316075362 -2.9474270272194087 3.176872980004397 0 0 -1
6 2 1 0.4879535145470296 -3.3248883265308953 3.4127264591007522 0 1 -1
7 2 3 0.3117095657914559 -3.7475820381894165 3.3695049754223003 0 1 -1
10 2 3 0.8509972918920969 -3.285201980409155 3.140652554320246 0 1 -1
154 45 4 3.0738788304381472 -1.0472460199113707 2.0395309718279626 0 0 0
249 77 2 1.308914630804583 -2.573940255940184 3.3951627487576643 0 0 -1
70 17 4 1.5782099005247026 -0.7715626863743197 2.230141598993735 -1 -2 -1
251 77 4 1.5596280300016296 -2.2004534846609594 3.6134525175109315 0 0 -1
257 79 4 1.9317316381075966 -2.050740021307611 3.6095270036846525 0 -1 -1
9 2 3 0.6133178354534369 -3.259103877348972 3.8546044889794584 0 1 -1
160 47 4 3.9198865557892413 -0.537377725387755 2.9789107655280045 -2 2 -1
82 21 4 3.0799903539242743 -3.185874560441943 2.279921423845442 0 0 0
155 45 4 2.9127017135914137 -2.032952973935999 1.990503043135652 0 0 0
83 21 4 2.758727281006646 -2.362201361162866 1.8126393904134392 0 0 0
81 21 2 2.91935881746546 -2.7740379608024046 2.0462804071294407 0 0 0
47 10 3 3.319327863293995 -3.5018044354015982 2.386928728357838 0 1 0
46 10 1 3.520830480933051 -3.9024068169262263 2.4894686084117663 0 1 0
48 10 3 3.700177861582037 -3.875120862404325 2.916540023681211 0 1 0
68 16 4 0.2329022348545489 -0.5808246409371177 2.9392941420446705 0 0 -1
69 17 2 1.3718923843029547 -0.41907970601340355 2.5185663397078257 -1 -2 -1
79 20 4 0.06909862957950857 -0.24915233483365187 3.06340253703917 -1 1 0
255 79 2 1.7550729245067183 -1.7119450352131114 3.932032284735843 0 -1 -1
179 53 4 3.5716663820012102 -0.341586037533977 2.932483451056855 -1 1 0
178 53 4 2.953353692172169 -0.7876045176979989 2.2853691389385626 -1 1 0
177 53 2 3.2625100370866895 -0.5645952776159879 2.608926294997709 -1 1 0
101 27 4 1.8214287010508259 -0.46297968691496166 2.0876097468799535 0 -1 -1
153 45 2 2.9932902720147805 -1.5400994969236848 2.0150170074818075 0 0 0
8 2 3 0.16485162777962714 -3.014571879259981 3.291859286880653 0 1 -1
66 16 2 0.15408842217063126 -1.0685103881111917 2.8621514500157286 0 0 -1
266 82 4 0.5576625653908064 -0.2957984109855413 1.6201740548713943 0 0 0
38 8 3 2.761055033432818 -0.09806257872288647 1.247010279487997 0 0 0
71 17 4 1.1655748680812068 -0.06659672565248737 2.8069910804219163 -1 -2 -1
264 82 2 0.1774142217656511 -0.10970279359190228 1.354129663167488 0 0 0
233 71 4 1.0077714512046891 -2.3456204688296007 0.0656273904289505 0 2 1
67 16 4 0.07527460948671363 -1.5561961352852656 2.7850087579867866 0 0 -1
197 59 4 0.027478904919601213 -1.9437983633359417 2.8038215019552384 -1 1 0
13 3 3 1.3136572060843013 -0.713786531398613 3.935200751471442 -1 0 0
246 76 2 0.32746894539041876 1.1670516875958596 -3.6926926066051435 0 -1 0
248 76 4 0.7220096211041822 0.9509754554366283 -3.4744067456270793 0 -1 0
181 54 4 1.0958803876006415 0.8316500677933081 -3.489064550234636 -1 0 1
180 54 2 1.2022243115673175 0.3562128869881634 -3.3765903000994313 -1 0 1
220 67 4 1.1411622716919378 1.6345594643857624 -3.3837374708194576 0 1 -1
127 36 4 1.470433897980027 1.7476249362340117 -3.615379686502083 0 1 0
199 60 4 0.6075229567127446 3.199372737612124 -3.2090103937542014 0 -1 0
221 67 4 0.76237068509602 2.5271273362699516 -3.1391162779438844 0 1 -1
219 67 2 0.9517664783939789 2.080843400327857 -3.2614268743816712 0 1 -1
64 15 4 0.2952715076719344 1.263714617776885 -1.227256019135371 0 1 0
44 9 3 1.164351520154102 0.5633867345219363 -0.5513799669360778 0 0 0
65 15 4 1.0392785374917792 0.6733883486177904 -0.9142569208619762 0 1 0
198 60 2 0.23399686912006018 3.0463812630932 -2.9139309627322687 0 -1 0
203 61 4 0.2535093468805446 1.310329799682782 -1.6245113341647013 1 0 0
63 15 2 0.6672750225818568 0.9685514831973376 -1.0707564699986736 0 1 0
92 24 4 3.036593177026358 2.7335839856970425 -0.09501014642460678 -1 0 0
156 46 2 3.5072223734154537 1.4132243681345151 -1.4359680410503237 0 0 -1
87 23 2 2.964128624643245 0.4906083099041095 -1.7552897092823878 -2 0 0
89 23 4 3.3845224757995465 0.7530372800486875 -1.8216225483503043 -2 0 0
157 46 4 3.632377540410577 1.0306944349477787 -1.7326278367605759 0 0 -1
88 23 4 2.543734773486943 0.22817933975953142 -1.6889568702144713 -2 0 0
173 51 4 0.7085820440235914 2.229548998683135 -0.4337641763796525 0 0 -1
306 96 2 0.917436335047489 2.9803766885948435 -0.5594261249079577 0 -1 -2
307 96 4 0.7339357896746586 2.6056213152389756 -0.28395206081298285 0 -1 -2
308 96 4 1.1009368804203195 3.355132061950712 -0.8349001890029327 0 -1 -2
319 100 4 0.9995895974778224 3.7527756444132727 -0.842118535014977 1 1 1
59 13 4 2.5761284871705405 0.25697510008271524 -1.2791203388012846 -2 0 0
263 81 4 3.636634311318003 2.0284689348440783 -0.9174359945671369 -1 0 0
158 46 4 3.3820672064203303 1.7957543013212516 -1.1393082453400716 0 0 -1
262 81 4 3.1276934893353583 2.793310213932964 -0.5224713663784601 -1 0 0
261 81 2 3.3821639003266806 2.4108895743885213 -0.7199536804727985 -1 0 0
41 9 1 1.386469787216984 0.5598416518592947 -0.14400924164274323 0 0 0
45 9 3 1.8231856100280512 0.6741352636404894 -0.20414459241562638 0 0 0
171 51 2 0.5257574517828535 2.0155636602657134 -0.0205022214231354 0 0 -1
260 80 4 0.676220990395077 1.943648619957645 1.4974194092370243 -1 0 -1
206 62 4 0.9971352876182322 1.741229567158469 1.6648081297890958 1 1 -1
204 62 2 1.351601566393787 1.9693938725848075 1.9336848802536384 1 1 -1
50 10 3 3.8511445913001205 3.894146032998257 2.1872614582039107 0 0 0
259 80 4 0.09650183826547587 1.808646188435499 0.6938647762862706 -1 0 -1
258 80 2 0.38636141433027643 1.876147404196572 1.0956420927616475 -1 0 -1
172 51 4 0.3429328595421156 1.8015783218482917 0.3927597335333817 0 0 -1
123 35 2 3.156329457357116 2.9976289997360133 2.9721024727997873 0 0 -1
42 9 3 1.1872475043472965 0.8650304881123023 0.13665115142126416 0 0 0
244 75 4 3.921893854463822 3.6858233973881496 2.9891978052152215 0 -1 0
288 90 2 2.3471304792926753 0.9006506742096383 0.40495364455630145 0 1 -1
302 94 4 3.4312110057233705 0.0961949534205549 1.389411262280896 0 1 0
39 8 3 3.419877625709236 0.149330898039968 0.9600446725567743 0 0 0
40 8 3 2.7751733559542306 0.49726121636461873 0.786260616469316 0 0 0
36 8 1 2.9664893373489924 0.09432023602062775 0.8781124625171538 0 0 0
300 94 2 3.689052531530513 0.36337506357222354 1.724273228333704 0 1 0
290 90 4 2.6806424852670308 0.9018821686862646 0.7774697184276302 0 1 -1
43 9 3 1.358118198984765 0.13847629571914982 0.04820788581919666 0 0 0
90 24 2 3.210652000301583 3.106992766190993 0.18830841754566088 -1 0 0
91 24 4 3.3847108235768077 3.480401546684943 0.4716269815159285 -1 0 0
20 4 3 3.5654087615984498 3.5322136281630967 0.8347284566141229 -1 0 -1
49 10 3 3.2021374708670836 3.6407634407762504 2.472720771567932 0 0 0
279 87 2 0.14445648408965936 1.2537012483875443 2.1160476133708213 0 0 -1
128 36 4 1.569067989400403 1.1853304741214812 3.4435866638300374 0 1 -1
280 87 4 0.47612022364533335 0.8847633613603303 2.0537258725423673 0 0 -1
96 26 2 1.5921534762191334 0.5411104010800469 3.288920662742151 -2 1 -1
98 26 4 1.3876668862768726 0.20324402011224346 2.9822750315234083 -2 1 -1
205 62 4 1.706067845169342 2.197558178011146 2.202561630718181 1 1 -1
97 26 4 1.796640066161394 0.8789767820478505 3.595566293960894 -2 1 -1
124 35 4 3.077122863768566 2.525194954538933 3.1153937442392214 0 0 -1
126 36 2 1.519750943690215 1.4664777051777464 3.854103488663977 0 1 -1
289 90 4 2.01361847331832 0.899419179733012 0.032437570684972494 0 1 -1
267 83 2 2.4657817785988465 2.1907732707295935 2.61424986342 1 1 -1
269 83 4 2.079340652135239 2.0990281493693517 2.31052945171861 1 1 -1
125 35 4 3.2355360509456665 3.4700630449330934 2.8288112013603532 0 0 -1
268 83 4 2.852222905062454 2.2825183920898353 2.91797027512139 1 1 -1
78 20 2 0.006542156645406812 0.0022562202402849132 3.4910477476164785 -1 1 0

Velocities

94 -0.38350744840556283 0.21899001842131244 -0.28683426585061916
254 -0.20705889004635425 -0.09609926008424283 0.07495808059963592
252 -0.12937230622955637 -0.15562250512957182 0.07340337928699242
253 -0.051685722412758484 -0.2151457501749008 0.07184867797434892
107 -0.10960538554756398 -0.2084410111719055 -0.3368690957940226
114 -0.10347035716633998 0.07775336953333892 0.2076078258253381
85 0.5716529080625868 0.4589021909608953 -0.3379334276613762
84 0.2666714037479338 0.06785221250246654 -0.13631535798355157
115 -0.09071012469178347 0.08315273156448981 0.24528935210758937
144 -0.10175191472802166 0.004708141308253182 -0.029786947859546678
145 -0.06137324149357126 -0.1739197743964613 -0.18419573239749
170 0.33394357234512395 -0.42513012569695946 -0.19432557167468315
61 -0.22390421596642374 0.14359111593630383 -0.11506499572016188
146 -0.14213058796247205 0.18333605701296765 0.12462183667839667
162 0.02535478861146552 0.10064160679376077 -0.09545815776690789
164 0.09777446771411774 0.04852242262794353 0.05730783691331642
102 0.2610172587742813 -0.030062043623263864 -0.07270708199046848
103 0.2170904387209463 0.047940182458064765 -0.20883413341818596
104 0.30494407882761626 -0.10806426970459247 0.063419969437249
216 0.09750217805626432 -0.17509333348543296 -0.016234331776379514
86 -0.03831010056671924 -0.3231977659559622 0.06530271169427304
106 -0.03540243909289818 0.3743941892454501 0.2860449142467294
168 0.1369172549260162 -0.12348270117262815 -0.20249466529847135
74 0.21861162119428215 0.09456141249923057 0.08186893505890235
22 -0.14911305488555981 -0.15989172497448934 0.027690959430102625
105 -0.07250391232023108 0.08297658903677231 -0.025412090773646586
298 -0.1487649306109864 0.18852356968083228 -0.11898054891429474
24 -0.10822744052496013 -0.02435281368925861 0.026612869080426694
286 0.11523247234166788 0.03754256760567029 -0.0655690160119439
297 -0.05920531240014437 0.2956200732879035 0.014800096003120246
273 -0.15882033200558449 0.24807915866574176 -0.166952706313882
217 0.09343383691278334 -0.5687414601200219 0.327612034284546
149 0.11431060124505865 0.2981153470020911 0.29930464064629764
275 -0.06527276457378918 0.44379837824345514 -0.7737464002753389
299 0.030354305810697646 0.40271657689497475 0.14858074092053522
147 -0.037123192458487754 0.20627287481212764 -0.027265196887666196
19 -0.06880445402059857 0.047347527464832534 -0.13528310807165392
2 0.16195713987043897 -0.08209716459341336 0.006748428702795434
287 -0.18055563615347697 -0.06845644357250559 0.13547620099602137
285 -0.03266158190590458 -0.01545693798341766 0.03495359249203874
3 -0.18676673995950804 0.08313495252754968 0.19794314178112365
1 0.04506516258118119 -0.031010575382005794 0.24268767312933517
4 0.1525359316934647 -0.08719492658325273 0.39413170242985585
196 -0.5277288979527723 -0.04458175391761976 0.0014670258651169575
52 -0.24345096404723318 0.014183708303265749 0.18659502508616518
166 -0.2119690659313206 0.11020940257577438 0.3210136630541584
165 -0.4317254641594427 0.14721623442042067 0.2530574660615937
167 -0.6514818623875648 0.18422306626506696 0.18510126906902896
184 -0.16694446269318758 0.029518185729640184 0.37926880996649187
137 0.34281104341302315 0.41442675840286636 0.157761306322518
133 -0.23669444229330716 0.43109605023219444 -0.11865015601897316
5 0.05398164786148461 -0.038435653725281294 0.365726170995978
54 0.05983796710000546 -0.02277572565632436 -0.05734190242736673
28 0.134443226979114 0.07136814858715268 -0.20384416241616882
135 0.08656849872197261 0.09075121282466977 0.13350225518104195
55 -0.05692222532709875 -0.06262218878182271 -0.06220630211161981
235 0.12622700326998215 -0.43356641005305047 0.4007134434029517
234 -0.2352817958218827 -0.22945738271458144 0.13121651534243853
53 -0.1762265038147394 -0.15690398987325904 -0.12244756811895538
272 0.02042910958914186 -0.23916198569267505 -0.08756012742680891
51 -0.2098387339309863 -0.07136014078499664 0.03207372848360491
195 -0.07312077324525522 -0.16999406648465598 -0.010298137028872372
207 0.2313971325686415 0.07155805184907857 -0.18017597694190718
270 -0.03220121133494391 -0.2555454730866681 -0.00622266986967116
230 -0.17386858940708902 -0.02706859194698208 -0.42269298570031033
229 0.03820063251939129 -0.2070545155438257 0.5879077760421112
228 -0.06783397844384886 -0.1170615537454039 0.08260739517090042
271 -0.08483153225902969 -0.2719289604806611 0.0751147876874666
161 -0.5101036841183504 -0.4518193029723374 0.3989619720613542
209 0.25417014182918135 0.12925232423387803 -0.0232445254591572
208 0.20862412330810165 0.013863779464279115 -0.33710742842465713
136 -0.1696740459690779 -0.23292433275352684 0.10924320403956589
169 -0.06010906249309156 0.1781647233517032 -0.21066375892225953
236 -0.5967905949137475 -0.025348355376112408 -0.1382804127180746
30 -0.25022120174091544 -0.10106523971711345 0.38499334186035183
26 0.1121643419872211 0.0685281080869199 -0.00443548925421461
29 0.5572956270515012 0.3071400133543136 0.21790660868216677
27 0.01418025179985588 -0.0003616420530810349 -0.4319053704745736
159 -0.41174110397864155 -0.10113330761574878 0.09697107860326099
293 -0.21163610179149084 0.10708457852975004 0.06267374175997528
225 -0.22914851234727604 -0.0035550579985190707 -0.14402170450144172
276 0.30377532340219654 -0.17068888071618743 -0.22107215149471549
277 0.3300412124283667 0.27334374712497395 -0.015456183447186578
247 0.25954659356656706 0.21031397467940927 0.11804741761039142
202 -0.21088861152086602 -0.708769010917512 0.13203309019441833
215 -0.33885818619616537 -0.08359193125829172 -0.3932793138851144
213 -0.1221604016042042 0.02098298027113241 -0.17329826822848443
278 0.2775094343760266 -0.614721508557349 -0.42668811954224456
226 -0.221043217463252 -0.016687309790302144 -0.05561371868457421
305 -0.008963856847466145 -0.06941001193536908 -0.5849762226100943
176 0.042319428357319014 0.5970597835803855 -0.03699817841246185
174 -0.08642861893127544 -0.04227214829072773 -0.02372552194480885
303 -0.17934580708950687 -0.006272591230924978 -0.10467027124568729
113 0.089961415483002 0.0631705378235973 -0.1930353954059071
25 -0.24010632892890285 -0.06503098264019215 -0.07537218040167426
200 0.22551436680162762 -0.15595477895421378 -0.04878390605048663
311 -0.13217724909167722 0.012505944872247349 -0.22297654539375256