LAMMPS data file via write_data, version 4 Feb 2025, timestep = 10500000, units = lj

6000 atoms
4 atom types
4500 bonds
1 bond types
5250 angles
2 angle types

-12.037717 12.037717 xlo xhi
-12.037717 12.037717 ylo yhi
-12.037717 12.037717 zlo zhi
0 0 0 xy xz yz

Masses

1 1
2 1
3 0.1
4 0.1

Bond Coeffs # harmonic/omp

1 100 0.45

Angle Coeffs # harmonic/omp

1 100 180
2 100 109.471

Atoms # full

1700 340 3 0 -4.099581600180307 -11.567248102146621 -11.910849712085735 4 0 1
5179 1227 2 0 -3.458114971375947 -11.76287984758328 -11.43169309916746 12 1 0
5181 1227 4 0 -3.8614241835344743 -11.778365335021107 -11.662143350414498 12 1 0
5180 1227 4 0 -3.055543066184553 -11.753836074502475 -11.202521075564235 12 1 0
1927 386 3 0 7.71398978340218 -11.484081382354399 -11.196695297047425 3 0 1
98 20 3 0 11.502367872414627 -11.869848527335977 -11.594222598024295 2 0 0
96 20 1 0 11.662018749926393 -11.922559545098359 -11.167750857034893 2 0 0
1698 340 3 0 -4.461522594636691 -10.92832226001382 -11.936008142846177 4 0 1
3367 674 3 0 1.957542463443339 -10.90391605591515 -11.927241964115561 17 1 1
3461 693 1 0 11.553382886071066 -10.504557945626946 -12.019269802200531 11 1 1
3465 693 3 0 11.585356144148317 -10.772403496514146 -11.699090628698979 11 1 1
1427 286 3 0 -8.721149636892433 -9.341980546216622 -12.028684506796308 4 0 1
3902 801 4 0 -5.086203518145962 -9.40875687165546 -11.663579356950907 4 0 0
4403 968 4 0 11.888891640222486 -9.88632349580915 -11.740918670636402 3 0 1
4402 968 2 0 11.923211382629834 -9.459798692583222 -11.872307802453458 3 0 1
3463 693 3 0 11.62049873193465 -10.105900486916315 -11.880057527297883 11 1 1
350 70 3 0 -11.218040626437329 -8.776499149023127 -11.224357116419705 4 0 0
349 70 3 0 -10.932048358151311 -8.867769062944797 -11.895454380966765 4 0 0
346 70 1 0 -10.836634491801037 -8.763289822324971 -11.472440649217512 4 0 0
347 70 3 0 -10.533180064163451 -9.06133191769301 -11.304626664444312 4 0 0
348 70 3 0 -10.670933230443266 -8.364180728460754 -11.45389679648252 4 0 0
3969 823 4 0 -10.185806249230195 -8.880368390349224 -11.369942762697441 4 0 0
3967 823 2 0 -9.752548931081813 -9.011305548030217 -11.390724212269415 4 0 0
3968 823 4 0 -9.334199751570848 -9.138753925143858 -11.409498936844045 4 0 0
1429 286 3 0 -9.013611691898495 -8.918236083405224 -11.472874697642146 4 0 1
1426 286 1 0 -8.724427175742703 -8.923570990154015 -11.835927374237707 4 0 1
4079 860 4 0 -8.0816466602908 -8.45694629641071 -11.650347235183203 5 0 0
1430 286 3 0 -8.284425972176942 -8.814369839022433 -11.691521773505107 4 0 1
5916 1472 4 0 -5.204511327669815 -8.351451588550185 -11.467612061665173 14 1 1
309 62 3 0 -4.998253331969499 -9.245853774939182 -11.33509207400926 4 0 0
308 62 3 0 -4.441105963001135 -8.799660189795922 -11.164238343864112 4 0 0
4008 836 4 0 -4.053393157647404 -8.71040290346224 -11.302290097227903 4 0 0
4006 836 2 0 -3.733111508384793 -8.488427527680702 -11.534529698724207 4 0 0
4404 968 4 0 11.960240992443541 -9.007504807394088 -11.996811083800635 3 0 1
495 99 3 0 -11.686818238019178 -7.4419207523157125 -11.206810327626858 4 0 0
4445 982 4 0 -10.515526956843534 -8.067012858430408 -11.701402107681355 4 0 1
4444 982 2 0 -10.139596071497051 -7.924556277365414 -11.924484581070253 4 0 1
4078 860 2 0 -7.681072173699034 -8.24064034268339 -11.719346589772286 5 0 0
2424 485 3 0 -7.045174344340274 -7.725513657794861 -11.847924349533386 14 1 0
4080 860 4 0 -7.2936839542419865 -8.027504645377414 -11.79629130954142 5 0 0
2421 485 1 0 -6.617333557802847 -7.629071649322256 -11.956089589776623 14 1 0
2422 485 3 0 -6.426988898093893 -7.419700270683699 -11.62643148728878 14 1 0
5914 1472 2 0 -5.1305807568317325 -8.04327455075037 -11.786713259828609 14 1 1
4007 836 4 0 -3.434976119200133 -8.290129612045757 -11.753042805257898 4 0 0
4070 857 4 0 9.914011695346908 -8.031594470216238 -11.789013990892883 3 0 0
3272 655 3 0 10.213547426881249 -7.9161214789212835 -11.535782126741267 13 1 1
4050 850 4 0 11.11860652116383 -7.770275828749705 -11.213086506681858 3 0 0
4049 850 4 0 11.985770653212441 -7.505567105220565 -11.262113284834662 3 0 0
4048 850 2 0 11.550721576049437 -7.633634667351203 -11.238714222285065 3 0 0
491 99 1 0 -11.427193237175373 -7.069576788167377 -11.357826735075692 4 0 0
493 99 3 0 -11.581462123450036 -6.934560030143945 -11.732973077396274 4 0 0
4005 835 4 0 -11.808929170584275 -7.20546136614076 -11.950436552732217 5 0 0
494 99 3 0 -10.974681573728496 -7.202142606030321 -11.401481145625842 4 0 0
4490 997 4 0 -10.609886154621304 -7.035892199440842 -11.4569580090452 4 0 1
4489 997 2 0 -10.171970639973713 -6.843642203477897 -11.57966798803827 4 0 1
4491 997 4 0 -9.763401068592025 -6.6755821536221305 -11.692524472557832 4 0 1
1867 374 3 0 -9.377813349914444 -6.6514514506242675 -11.692452190769133 5 0 1
4660 1054 2 0 -4.3531188118995265 -7.29791579264166 -11.97812167843432 4 0 1
4662 1054 4 0 -4.014434508108016 -7.09038691654524 -11.792129364805357 4 0 1
934 187 3 0 -3.9194585211614807 -7.27925477555992 -11.457512988599193 6 0 0
165 33 3 0 4.161732391619655 -6.871764627641417 -11.267778984556346 3 0 0
3992 831 4 0 -9.478554570928305 -5.733222702355462 -11.350900398017187 5 0 0
1870 374 3 0 -9.191880048315229 -5.954031107004996 -11.492245895520904 5 0 1
1866 374 1 0 -9.099471811409474 -6.292318851075741 -11.781685868482931 5 0 1
1868 374 3 0 -8.660254575999108 -6.413694041197489 -11.756266577973538 5 0 1
4064 855 4 0 -8.356479611245074 -6.136247017477307 -11.821693155934275 5 0 0
1903 381 3 0 -5.428772818462702 -5.57852992573999 -11.28779714245286 5 0 1
1904 381 3 0 -4.9630148340323865 -6.14277022692858 -11.450575612932495 5 0 1
231 47 1 0 -3.4364556917003224 -5.9734553082688935 -11.963964234893123 6 0 0
233 47 3 0 -3.514292918400786 -5.667262462504657 -11.61102871508859 6 0 0
5894 1465 4 0 -3.713561874480904 -5.617128665649128 -11.26586396947902 14 1 1
235 47 3 0 -3.3338315499083517 -6.3686117514138605 -11.788951706403804 6 0 0
642 129 3 0 10.851986784245334 -6.291732766024227 -11.709530750975706 3 0 0
644 129 3 0 11.459812135010765 -5.997442832362083 -12.00338827884845 3 0 0
749 150 3 0 -6.727663759863684 -5.555006092881091 -11.990016552944786 5 0 1
4010 837 4 0 -6.519399919836109 -5.290087681179259 -11.749178792830719 5 0 0
4009 837 2 0 -6.059227894587363 -5.298111813262953 -11.639286974873968 5 0 0
4011 837 4 0 -5.611668653567351 -5.306975767350745 -11.529145226446833 5 0 0
1759 352 3 0 8.784064483719806 -4.847935334876327 -11.365735825596216 7 0 1
1733 347 3 0 -9.653425804434296 -4.255346056036797 -11.493590642955933 5 0 1
1735 347 3 0 -9.217500559890384 -3.8311033483458807 -11.866752293252842 5 0 1
1731 347 1 0 -9.24283013614592 -4.100285012701688 -11.524369134332751 5 0 1
1732 347 3 0 -8.96314714318013 -4.437102380430229 -11.57966158596117 5 0 1
1734 347 3 0 -9.13499252337103 -3.8801792966307413 -11.149730693886235 5 0 1
3891 797 4 0 2.9546249783465335 -4.37449542790221 -11.554945617555713 6 0 0
3889 797 2 0 3.1622341975245316 -4.0098906771359815 -11.779854964258965 6 0 0
273 55 3 0 -11.736085675028749 -2.9058636982721726 -11.816612447144163 8 0 0
5459 1320 4 0 -12.027565426463113 -3.1513791948735044 -11.679608998062346 10 0 1
272 55 3 0 -11.057641862369717 -3.0356799330413917 -11.57104973294242 8 0 0
3776 759 4 0 -10.672896302223045 -3.0662348883735078 -11.491444970655424 9 0 0
3775 759 2 0 -10.212990541851116 -3.0165022839361146 -11.508304160116861 9 0 0
3777 759 4 0 -9.792804078443005 -2.9577570401645836 -11.531611297877621 9 0 0
327 66 3 0 -9.560664510356233 -2.9321020885007396 -11.227850274881906 8 0 0
3890 797 4 0 3.3343729738711314 -3.690684048492203 -11.97768468008246 6 0 0
3865 789 2 0 3.193844885767959 -2.8712969375413824 -12.036933729746396 7 0 0
404 81 3 0 4.2550949072076705 -3.444788447198601 -12.032551796661314 7 0 0
4673 1058 4 0 4.518787969315856 -3.227996133692617 -11.82775076762817 7 0 1
4672 1058 2 0 4.918309197788737 -3.2177640247902257 -11.622316290764045 7 0 1
4674 1058 4 0 5.31515275636232 -3.2104047637952497 -11.417060464532614 7 0 1
65 13 3 0 6.152283422796305 -3.5954937605903687 -11.379481046424562 6 0 0
3879 793 4 0 6.493932245956362 -3.575559813302025 -11.615920691090627 8 0 0
3877 793 2 0 6.927984104505949 -3.40740168813722 -11.60436147780751 8 0 0
3878 793 4 0 7.296340912120222 -3.2689807403093223 -11.597403005825212 8 0 0
2455 491 3 0 7.604518001062068 -3.08959650762605 -11.702338572228834 7 0 0
2451 491 1 0 7.932694339776255 -3.000244645441324 -11.426620322709812 7 0 0
2452 491 3 0 8.327707435495725 -3.12896305918704 -11.60239344111844 7 0 0
5460 1320 4 0 11.310907227540593 -3.4041153567974707 -11.241766793933106 9 0 1
5458 1320 2 0 11.675937281404497 -3.283660051841565 -11.452785879976537 9 0 1
271 55 1 0 -11.386934201288001 -2.7539920887130585 -11.552842217811396 8 0 0
275 55 3 0 -11.25386269906346 -2.3504973642279072 -11.70478488689408 8 0 0
4553 1018 4 0 -8.574929191535485 -2.5575830888789266 -11.419052711944449 8 0 1
330 66 3 0 -8.972546993446603 -2.5367995692795446 -11.37192064999484 8 0 0
4552 1018 2 0 -8.183742485152028 -2.3231849897238632 -11.469937433697204 8 0 1
4554 1018 4 0 -7.806386770467846 -2.0915007925807103 -11.522915290831623 8 0 1
3918 806 4 0 -7.520984082737048 -2.142405441655221 -11.816830287386873 9 0 0
3916 806 2 0 -7.1487040106332715 -1.950666110357293 -11.872071677676415 9 0 0
1144 229 3 0 -6.102152381447129 -2.17040199351635 -11.275668212166325 9 0 0
3867 789 4 0 3.1989837006465454 -2.41316816536521 -11.951347875937888 7 0 0
23 5 3 0 5.928332103031604 -2.2780378142628184 -11.620194046703709 7 0 0
21 5 1 0 6.024910021775302 -2.166048158000754 -11.148857897291219 7 0 0
4074 858 4 0 6.786713403846203 -2.3208184715944586 -11.325482272801347 7 0 0
4072 858 2 0 7.187881196513548 -2.145080248282726 -11.515980120401563 7 0 0
4073 858 4 0 7.5606047436374055 -1.9811566847927438 -11.688786522969371 7 0 0
1645 329 3 0 7.852718290230648 -2.0075745473626423 -11.988846189006177 8 0 1
2454 491 3 0 7.938104865229661 -2.562947458288921 -11.331136871397915 7 0 0
3917 806 4 0 -6.72476306003666 -1.7360516832416817 -11.925780594793311 9 0 0
1145 229 3 0 -6.4771802613088845 -1.6474978373324412 -11.631752424110926 9 0 0
1141 229 1 0 -6.087451243875165 -1.749985468695085 -11.389922522296114 9 0 0
3876 792 4 0 -6.359264630731187 -1.5997276138296144 -12.000485019268082 9 0 0
1143 229 3 0 -5.747947774831068 -1.6763607472598885 -11.615639611564793 9 0 0
5126 1209 4 0 7.905904597982545 -1.7548532090197089 -11.678987653917464 7 0 0
5125 1209 2 0 8.324207589997474 -1.7275378461969577 -11.487020734667691 7 0 0
5127 1209 4 0 8.745496763241405 -1.7014391592977827 -11.293067454361827 7 0 0
1862 373 3 0 9.19214546211418 -1.060532173966731 -11.569336308479214 7 0 1
4659 1053 4 0 9.354616924799831 -1.0413762331233496 -11.928211966500795 7 0 1
2544 509 3 0 11.260618133183716 -1.2827836363109064 -11.190445954363252 7 0 0
2541 509 1 0 11.610032925667191 -0.9990216920225432 -11.2113475582537 7 0 0
2543 509 3 0 11.998766804881626 -1.2412200561938747 -11.246145273636534 7 0 0
3894 798 4 0 1.7067709569875529 -0.3450132227238445 -11.825121223873916 9 0 0
3892 798 2 0 1.7349700747433907 -0.5933753874245653 -11.46143990444741 9 0 0
4612 1038 2 0 2.9177933597478187 -0.43275301748475137 -11.209830334991109 10 0 1
4614 1038 4 0 3.3047420699180083 -0.4193474585344319 -11.396131630829563 10 0 1
3474 695 3 0 3.460301856472517 -0.3884619370509519 -11.776756872375932 10 0 1
3471 695 1 0 3.89939908876625 -0.35686314914998896 -11.675419566930318 10 0 1
3475 695 3 0 3.9732005928638046 -0.5034593849693252 -11.287858206001248 10 0 1
3472 695 3 0 4.144830596523278 -0.6178327264610015 -11.990888124094157 10 0 1
2545 509 3 0 11.581300791582038 -0.7474656317510444 -11.564311261220341 7 0 0
4432 978 2 0 -11.317885238200986 -11.633478906386223 -10.590058237044682 3 0 1
4433 978 4 0 -11.734844092696646 -11.668731783782734 -10.78709035960406 3 0 1
4434 978 4 0 -10.902853080314657 -11.606736181744127 -10.402120007154078 3 0 1
454 91 3 0 -10.62059677200077 -11.808759366709562 -10.615239350804918 3 0 0
451 91 1 0 -10.324203654302984 -11.949587112641838 -10.323527537331566 3 0 0
452 91 3 0 -9.9274914653083 -11.87763655682727 -10.467251799370107 3 0 0
1650 330 3 0 -6.909218926096936 -11.919325072715138 -10.445430700416372 2 0 1
5877 1459 4 0 -6.544589642927566 -11.874483223833884 -10.63588495029941 12 1 1
480 96 3 0 -2.6744382741443626 -11.821236254793286 -11.07775123467636 6 0 0
478 96 3 0 -2.0086926557030296 -11.789519285705815 -10.74570984956943 6 0 0
5286 1262 4 0 -1.6320077418027967 -11.868174873001855 -10.619899163540367 18 1 0
5284 1262 2 0 -1.1975364991063913 -11.839184800673527 -10.488081299891906 18 1 0
5285 1262 4 0 -0.7428894779001993 -11.80786440136284 -10.354392102471365 18 1 0
1418 284 3 0 -0.3310285691891792 -11.831418258896038 -10.26860751454989 8 0 1
1929 386 3 0 7.88379679606015 -11.366045202501972 -10.455569955089228 3 0 1
1926 386 1 0 7.99230870217492 -11.267280544171113 -10.90707129462746 3 0 1
1930 386 3 0 8.406545254930666 -11.396008208057777 -10.98083110390751 3 0 1
97 20 3 0 11.697157079784962 -11.484468014399141 -10.940206539091138 2 0 0
5030 1177 4 0 8.073370538115881 -10.438712399779337 -10.892572642813269 13 1 0
1928 386 3 0 7.962805852340889 -10.803224847615894 -10.977439761310418 3 0 1
5029 1177 2 0 8.00107941602581 -10.004051861337583 -10.975660842278346 13 1 0
5031 1177 4 0 7.9349284007504615 -9.584289001835725 -11.061391747462926 13 1 0
1971 395 1 0 11.138097625615728 -9.34907029205336 -10.708500205213696 1 0 1
1972 395 3 0 11.112647605196056 -9.505572527246084 -10.280864285102737 1 0 1
1974 395 3 0 11.231859121941259 -9.693776307089191 -10.993098885066823 1 0 1
5118 1206 4 0 -11.33148945730477 -8.898944628347452 -10.86127683119883 14 1 0
5116 1206 2 0 -11.76838110682568 -8.898950531630405 -10.848068816069151 14 1 0
983 197 3 0 -5.822468502917775 -8.397503270377769 -10.576459824547973 5 0 0
310 62 3 0 -5.151267121215462 -8.56818979686059 -11.124454210299437 4 0 0
306 62 1 0 -4.870628313921937 -8.91303730916997 -11.062867231664915 4 0 0
307 62 3 0 -4.8897431245108915 -9.059291681431452 -10.634619070108307 4 0 0
4089 863 4 0 -4.502507538511762 -9.109984028925723 -10.492379810371006 4 0 0
4087 863 2 0 -4.082349720635218 -9.012519156535022 -10.329201143811845 4 0 0
3144 629 3 0 5.733677734564672 -9.234457975924498 -10.385636077916669 12 1 1
5853 1451 4 0 7.442704028991258 -8.818076472738387 -10.378032876815904 13 1 1
445 89 3 0 7.719004625116764 -8.509488807340897 -11.00290697212289 3 0 0
443 89 3 0 7.801466937681234 -8.94699183924032 -10.427619894900722 3 0 0
442 89 3 0 7.975660220646915 -9.196527614211796 -11.106107392677082 3 0 0
441 89 1 0 7.968102700675978 -8.825563632820394 -10.82536786728561 3 0 0
444 89 3 0 8.404091421855089 -8.677744808926303 -10.7697590058707 3 0 0
3858 786 4 0 8.809517525587179 -8.622639769655933 -10.833758868742905 2 0 0
3856 786 2 0 9.23033461495583 -8.444034298769392 -10.83899449849141 2 0 0
1975 395 3 0 10.756834879654967 -9.157707636902517 -10.816740153831452 1 0 1
1973 395 3 0 11.480816886050164 -9.046187219259053 -10.721506710328049 1 0 1
5117 1206 4 0 11.851801236801439 -8.891330257652324 -10.841732303947134 13 1 0
4910 1137 4 0 -5.0303997094296715 -8.12793785030493 -10.501503600716578 6 0 0
4909 1137 2 0 -4.624867899193752 -7.932843886713755 -10.484394999246433 6 0 0
4911 1137 4 0 -4.224544165250262 -7.729590876971282 -10.461798123401875 6 0 0
935 187 3 0 -4.066068337230979 -7.503493095629788 -10.762078360588783 6 0 0
932 187 3 0 -3.459496830727833 -7.745485832615244 -11.115718284359094 6 0 0
1602 321 3 0 -3.2420337226595084 -8.078380246448319 -10.426554018080937 4 0 1
163 33 3 0 4.244260108415322 -7.570405593426736 -11.123987253888195 3 0 0
3857 786 4 0 9.657677297565684 -8.272870142763766 -10.838344076766509 2 0 0
3275 655 3 0 10.074357481581572 -8.159413605283838 -10.85691138046203 13 1 1
3271 655 1 0 10.310987370522032 -7.843793490927846 -11.129501963069261 13 1 1
3273 655 3 0 10.76345823376931 -7.893423522594384 -11.073435192666041 13 1 1
492 99 3 0 -11.449414139649837 -6.719556126431026 -11.048803177534607 4 0 0
4014 838 4 0 -11.636319958459488 -6.688090917558796 -10.67248233135121 4 0 0
4012 838 2 0 -11.892268555999898 -6.802899890290556 -10.308031730006883 4 0 0
945 189 3 0 -10.854059476195912 -6.6128384533124915 -10.750190497402238 5 0 0
942 189 3 0 -10.17621386840817 -6.624738764220608 -10.562431505760308 5 0 0
1011 203 1 0 -7.0829792099643685 -6.837608083890962 -10.545975510199755 5 0 0
1013 203 3 0 -7.19306727661617 -7.2408447763143435 -10.693654831918392 5 0 0
1012 203 3 0 -7.407173794065252 -6.67662935897725 -10.298201016014614 5 0 0
1014 203 3 0 -7.020184902586031 -6.558774455679478 -10.882617091339165 5 0 0
1015 203 3 0 -6.709299056624366 -6.872056503956713 -10.290290823292548 5 0 0
4564 1022 2 0 -5.975843984338845 -6.6613648339065055 -10.439068504098293 5 0 1
4566 1022 4 0 -6.318346498433865 -6.9079336216094545 -10.317676159002177 5 0 1
931 187 1 0 -3.7307435214314584 -7.392796097822636 -11.060244626560978 6 0 0
933 187 3 0 -3.491720330884732 -7.043460325375301 -10.892583891534661 6 0 0
164 33 3 0 3.749241298993706 -7.180330415360331 -10.734279065606861 3 0 0
161 33 1 0 4.164360989852543 -7.17669530009011 -10.947156546158181 3 0 0
162 33 3 0 4.4879523868623785 -7.081570845417692 -10.649602387740769 3 0 0
3274 655 3 0 10.1858082511203 -7.395299094814244 -11.010637171325708 13 1 1
941 189 1 0 -10.545713812393299 -6.437877812946352 -10.49472918150252 5 0 0
944 189 3 0 -10.50165007183482 -5.98486754500307 -10.60210584331585 5 0 0
3993 831 4 0 -10.098930939163969 -5.902755239459335 -10.744174945177829 5 0 0
3991 831 2 0 -9.78986655289335 -5.817339862572172 -11.04856809883979 5 0 0
4565 1022 4 0 -5.629314270648651 -6.408559478786963 -10.54860652516507 5 0 1
1905 381 3 0 -5.407881556958652 -6.153369037157003 -10.798997664296508 5 0 1
1901 381 1 0 -5.156849581306984 -5.87479622317784 -11.102393087578067 5 0 1
1902 381 3 0 -4.81286164690921 -5.644645776158203 -10.849944831829973 5 0 1
5893 1465 2 0 -4.098382995525924 -5.569391185263479 -11.019734054408193 14 1 1
5895 1465 4 0 -4.473776557938366 -5.520545526987728 -10.780233249968086 14 1 1
1760 352 3 0 8.499230862632302 -4.964359373948231 -10.724978682181426 7 0 1
1756 352 1 0 8.659680414342375 -4.657713217527459 -10.99511111836894 7 0 1
1934 387 3 0 0.8449187011769794 -4.533858337310039 -10.562482860933086 8 0 1
4760 1087 4 0 1.7512724997200344 -3.971785584232343 -10.306201314000988 7 0 1
1758 352 3 0 8.329911130211752 -4.348862137748774 -11.090287352183054 7 0 1
1757 352 3 0 9.00751044608542 -4.454632278476617 -10.813778630217943 7 0 1
5756 1419 4 0 9.357456722239874 -4.276681834657917 -10.914054934426929 8 0 1
5755 1419 2 0 9.676339250050052 -3.9658468727219294 -10.841867556645592 8 0 1
329 66 3 0 -8.87793992366818 -3.1967797893284917 -11.09334611114517 8 0 0
326 66 1 0 -9.130185422248918 -2.8243843786943934 -11.095797710687442 8 0 0
1379 276 3 0 -2.719688346398449 -2.8689575924095223 -10.417187817127006 9 0 0
804 161 3 0 2.7207248245506097 -2.8149172039063206 -10.365324726329334 8 0 0
64 13 3 0 5.561370098857349 -3.149506496683225 -11.104048270255344 6 0 0
63 13 3 0 5.917433945948616 -3.6830292995446303 -10.67518474655197 6 0 0
61 13 1 0 5.98781981087787 -3.3829423109730232 -10.99847726223009 6 0 0
62 13 3 0 6.287955442447213 -3.082058128274305 -10.8550950720855 6 0 0
5138 1213 4 0 6.624265513491938 -3.025923822026817 -10.626403143310517 7 0 0
5137 1213 2 0 7.014337681644069 -2.827078805635896 -10.504130504876011 7 0 0
2453 491 3 0 7.869873853373644 -3.221760787421127 -11.060914740866837 7 0 0
1250 250 3 0 9.683462403789818 -3.012026333279433 -10.584961986324844 8 0 0
5757 1419 4 0 9.993046510105344 -3.654748354009641 -10.765476079871835 8 0 1
3410 682 3 0 10.972833261957035 -3.481960710206703 -11.063001783912707 8 0 1
3407 682 3 0 10.36670306579233 -3.508760723045505 -10.664453074474231 8 0 1
3408 682 3 0 10.501728724395505 -2.9170373238065643 -11.055456146513231 8 0 1
3406 682 1 0 10.682308891705222 -3.244504710373832 -10.80878460882649 8 0 1
3409 682 3 0 10.895352368656045 -3.062814954475453 -10.457995724204379 8 0 1
4559 1020 4 0 11.200194297227881 -2.8176809006608448 -10.31073401664903 8 0 1
274 55 3 0 -11.533050187497794 -2.7177264188542782 -11.112209125137504 8 0 0
328 66 3 0 -9.140028528975098 -2.643573440099516 -10.687206300121826 8 0 0
1380 276 3 0 -3.3927444063334953 -2.560335210703652 -10.472555574960886 9 0 0
803 161 3 0 2.067826409230948 -2.5097843977503658 -10.265091328712483 8 0 0
24 5 3 0 5.801766966545237 -2.4292372827970325 -10.884877511838114 7 0 0
3885 795 4 0 5.864979077825872 -2.3307423067316453 -10.490243813213544 7 0 0
22 5 3 0 6.470200822097979 -2.220509371944331 -11.070354154234067 7 0 0
5139 1213 4 0 7.420409944259603 -2.620235320028554 -10.369305588742064 7 0 0
1209 242 3 0 7.843117238990999 -2.5989889523275878 -10.401055953410912 7 0 0
1248 250 3 0 9.476034120336752 -2.3222217383728854 -10.89505722528089 8 0 0
1246 250 1 0 9.683120106487038 -2.5496448999478023 -10.516457637813705 8 0 0
1249 250 3 0 10.147142311159044 -2.387448270695648 -10.462375162110511 8 0 0
4440 980 4 0 10.257622848762047 -2.0049501685527726 -10.365595187959658 8 0 1
1142 229 3 0 -6.0806094300125455 -1.4979974871579973 -11.0195651021074 9 0 0
3669 734 3 0 -0.9674193507370159 -1.7971436376523595 -10.597022504299316 10 0 1
3666 734 1 0 -0.7661523900263454 -1.573022860553138 -10.271426355633068 10 0 1
3667 734 3 0 -0.3736846038925048 -1.4279446249977 -10.391973637699712 10 0 1
1404 281 3 0 1.85128058423863 -1.115414359620308 -10.774242494564309 9 0 1
1403 281 3 0 2.432463447290015 -1.554384727594421 -10.88815729905595 9 0 1
1401 281 1 0 2.2835132027299014 -1.1716634924026295 -10.6922956784321 9 0 1
1402 281 3 0 2.3465223024594337 -1.198452605500659 -10.260429663886228 9 0 1
25 5 3 0 5.915954535842271 -1.749142648635262 -11.06392860370739 7 0 0
1861 373 1 0 9.201992156373013 -1.138779947578458 -11.133206988078612 7 0 1
1863 373 3 0 8.924583516673039 -1.494377444970766 -11.024432193453189 7 0 1
1864 373 3 0 9.603426967072593 -1.2374921900420652 -11.017760032191795 7 0 1
4274 925 4 0 9.990770794199722 -1.3267080200964116 -11.067328163786703 7 0 0
4273 925 2 0 10.432516020056656 -1.248654593195635 -11.086327484554129 7 0 0
4275 925 4 0 10.905328706678105 -1.171134867103845 -11.10348580238455 7 0 0
3893 798 4 0 1.7607492627436745 -0.8484408154694965 -11.096795342630683 9 0 0
1405 281 3 0 2.5176790737433024 -0.810081097274054 -10.866831333044843 9 0 1
4613 1038 4 0 2.5246644915634704 -0.4479649118047142 -11.023244544978144 10 0 1
3895 799 2 0 8.499080221897493 -0.6935228157831883 -10.338639907684504 7 0 0
1865 373 3 0 9.069341603329633 -0.7661820198780198 -10.912901899789635 7 0 1
3897 799 4 0 8.771959622843962 -0.8264917732414414 -10.64663056188722 7 0 0
2542 509 3 0 11.633837347883986 -0.7429421750906187 -10.848764438278062 7 0 0
4059 853 4 0 11.791140314418474 -0.8750651587309957 -10.494967359545642 7 0 0
4772 1091 4 0 -10.692284873616877 -11.482235378029424 -9.8219453529846 3 0 1
4771 1091 2 0 -10.797863210261987 -11.402230723596146 -9.42251715690626 3 0 1
453 91 3 0 -10.386210927721427 -11.736826266243265 -9.94770708130991 3 0 0
1647 330 3 0 -7.097502342589089 -11.811868578217581 -9.719780950419128 2 0 1
1138 228 3 0 -2.2422968840610373 -11.930178070049129 -9.670397747788186 8 0 0
1419 284 3 0 0.3464497924442451 -11.908035859536458 -9.953797089639108 8 0 1
5012 1171 4 0 0.6581099595496909 -12.00557740278703 -9.701794400240434 17 1 0
3145 629 3 0 5.597151457879001 -9.354687206002135 -9.66743142828131 12 1 1
3142 629 3 0 5.9758258169353695 -9.833988044514987 -10.032562710590215 12 1 1
3141 629 1 0 5.904880095120362 -9.41646930708665 -9.984598556712527 12 1 1
5753 1418 4 0 10.238231575526957 -9.631125709019262 -9.46032976191184 12 1 1
5752 1418 2 0 10.572484952473015 -9.488160038982652 -9.72672807047842 12 1 1
5754 1418 4 0 10.897139183278881 -9.342027701161774 -9.999838197922095 12 1 1
981 197 1 0 -5.660319895838926 -8.362903709681616 -10.168954186166104 5 0 0
985 197 3 0 -5.602209393834905 -8.77481500141227 -9.99926578076277 5 0 0
4088 863 4 0 -3.6576009580313222 -8.911400429808841 -10.171267293144137 4 0 0
1605 321 3 0 -3.676982291281071 -8.5327302378664 -10.020220547127822 4 0 1
1601 321 1 0 -3.26400003625268 -8.348648949431231 -10.054540399119002 4 0 1
1603 321 3 0 -2.9505208737954636 -8.68697500330457 -10.097607944588784 4 0 1
2102 421 3 0 0.9483709777178042 -8.867004326820217 -9.856161150897341 11 1 0
2101 421 1 0 0.941002887402 -8.743643181051715 -9.429761796866796 11 1 0
3143 629 3 0 6.296728940478516 -9.19937428844423 -9.87772194296628 12 1 1
5852 1451 4 0 6.607973253481113 -8.960545044221886 -9.936772059829273 13 1 1
5851 1451 2 0 7.011634639174304 -8.892341088301169 -10.149226490276632 13 1 1
5702 1401 4 0 -6.218991603259586 -7.920176709867077 -9.655494584440376 5 0 1
5701 1401 2 0 -6.393765207214426 -7.564402776953248 -9.942613356383326 5 0 1
982 197 3 0 -5.960068854723632 -8.125529955989537 -9.888158759312498 5 0 0
984 197 3 0 -5.282876314313456 -8.167558336963362 -10.174204523868116 5 0 0
1604 321 3 0 -3.172120545969136 -8.101082131999219 -9.685931971215126 4 0 1
2105 421 3 0 1.0055345733597072 -8.306234395028818 -9.399031178099467 11 1 0
943 189 3 0 -10.669309754419306 -6.4855383646746105 -10.041547678374938 5 0 0
3761 754 4 0 -7.245650410382779 -6.53637587574706 -9.92321659511236 5 0 0
5703 1401 4 0 -6.5344026625840606 -7.2397581182243185 -10.205611775169164 5 0 1
1690 338 3 0 11.079126422071685 -6.945899785218311 -10.020975333224147 5 0 1
1686 338 1 0 11.315761938010077 -6.910561452519052 -9.619462760362987 5 0 1
1688 338 3 0 11.692535833582753 -6.740074287218266 -9.68906947749378 5 0 1
4013 838 4 0 11.93966871668622 -6.914167795579427 -9.963204525357028 3 0 0
1689 338 3 0 11.364415222519156 -7.300727545420993 -9.439453130506495 5 0 1
3760 754 2 0 -7.197377017554041 -6.32586987717442 -9.509513124784913 5 0 0
1932 387 3 0 1.311559106595137 -4.864464015641487 -10.106289829196221 8 0 1
1935 387 3 0 0.8342254782387624 -4.384497326724833 -9.85091730471548 8 0 1
1931 387 1 0 1.095400384090535 -4.482894453097191 -10.18901890387856 8 0 1
1933 387 3 0 1.3989627319636941 -4.150042699117374 -10.248103345819453 8 0 1
4759 1087 2 0 2.057187483441428 -3.985441727429299 -10.018154181372509 7 0 1
4761 1087 4 0 2.370448310868886 -3.988270627733435 -9.721882539914988 7 0 1
2054 411 3 0 2.5258928422740183 -3.8271917508064064 -9.36776176585544 16 1 0
668 134 3 0 7.949566683411241 -4.223921344997069 -9.478307768834982 6 0 0
1377 276 3 0 -3.27182420057086 -3.1238979698438953 -10.009327909890706 9 0 0
805 161 3 0 2.134202761456118 -3.259557477090457 -10.198975775924108 8 0 0
802 161 3 0 2.425625923549198 -2.785868934275477 -9.701280776915565 8 0 0
801 161 1 0 2.3373926400905756 -2.835316615360137 -10.129698521464881 8 0 0
1210 242 3 0 8.095649993847132 -2.8017357689479 -9.70027618163631 7 0 0
670 134 3 0 8.078269915669424 -3.5072600800644373 -9.368434815006918 6 0 0
585 117 3 0 10.256177033619881 -3.638209024351955 -9.52508814110038 6 0 0
4558 1020 2 0 11.470567189443646 -2.987956591430452 -10.012315844156545 8 0 1
4560 1020 4 0 11.751888994777342 -3.1539094237512977 -9.692587036338711 8 0 1
589 118 3 0 11.713153039068299 -3.366478741837131 -9.370862706893305 8 0 0
1376 276 1 0 -3.0954189458157586 -2.7629846812911367 -10.188925331343613 9 0 0
1378 276 3 0 -2.983285202653976 -2.4512281060742183 -9.845792819704336 9 0 0
544 109 3 0 3.614221691457834 -2.0648382214489 -9.390926562213645 7 0 0
3884 795 4 0 5.98646093380264 -2.333139469704985 -9.575369872875253 7 0 0
3883 795 2 0 5.924717431575569 -2.33379817246116 -10.033063246149972 7 0 0
4146 882 4 0 7.377670262973144 -2.3629424176373135 -9.501429749880453 8 0 0
1208 242 3 0 7.661931574851479 -2.214803573964099 -9.77679388905187 7 0 0
1206 242 1 0 7.981525255090315 -2.442149450117668 -9.967123448428529 7 0 0
1207 242 3 0 8.357053194214 -2.1643514808148723 -10.008602597931967 7 0 0
3819 773 4 0 8.645430052661716 -1.8783094256429624 -9.910406173758286 7 0 0
5421 1307 4 0 9.451018889838142 -2.595269314264737 -9.778299687729323 8 0 0
1247 250 3 0 9.466916329003684 -2.4548541775187243 -10.161154234118627 8 0 0
4438 980 2 0 10.531245910097454 -1.9638092570497694 -10.035215433541861 8 0 1
4439 980 4 0 10.839100290653029 -1.9198494765934786 -9.6719047104394 8 0 1
3670 734 3 0 -0.7241925657416388 -1.8397199400426647 -9.91458312858452 10 0 1
3668 734 3 0 -1.0226932807834856 -1.210189485516743 -10.160327638006613 10 0 1
3817 773 2 0 9.061768952755628 -1.6892815923431463 -9.970073651490225 7 0 0
3818 773 4 0 9.473142501577009 -1.4988235773262488 -10.011743829119233 7 0 0
193 39 3 0 9.837914458323315 -1.383773559869189 -9.863391224624907 8 0 0
191 39 1 0 10.023776374337334 -1.078454052797822 -9.568530197759001 8 0 0
1492 299 3 0 11.572114060791119 -1.4806697644559197 -9.45556843696035 8 0 1
4058 853 4 0 11.439840527869215 -1.1655805167101239 -9.717099872669124 7 0 0
4057 853 2 0 11.61547003249784 -1.032006964820889 -10.09340019044947 7 0 0
715 143 3 0 7.5118867724375775 -0.8720909450214478 -9.402829345269364 7 0 0
714 143 3 0 7.490589688740105 -0.1752070596753672 -9.398669546360209 7 0 0
711 143 1 0 7.73171545006203 -0.5253133260566951 -9.505240864712238 7 0 0
712 143 3 0 7.8344072761074415 -0.5244736894119146 -9.923954961617802 7 0 0
3896 799 4 0 8.223911763565258 -0.5462045337965495 -10.012085793192067 7 0 0
194 39 3 0 9.677848696164393 -0.8095853275639993 -9.390559195745936 8 0 0
195 39 3 0 10.314000863173629 -0.8250074438169861 -9.794704410894445 8 0 0
4302 934 4 0 10.45994476242192 -0.49128892903909716 -9.608601754802521 7 0 0
4300 934 2 0 10.88344299168915 -0.3063320986132734 -9.547218903123602 7 0 0
2207 442 3 0 11.687002512099735 -0.0601585874085373 -9.374612452666812 10 0 0
4301 934 4 0 11.301664251725548 -0.12660069096086524 -9.488725113883172 7 0 0
392 79 3 0 -10.678227655024838 -11.53210867162475 -8.704015047839547 3 0 0