LAMMPS data file via write_data, version 29 Aug 2024, timestep = 9000000, units = lj

1305 atoms
4 atom types
890 bonds
1 bond types

-5.665158 5.665158 xlo xhi
-5.665158 5.665158 ylo yhi
-5.665158 5.665158 zlo zhi

Masses

1 1
2 1
3 1
4 1

Bond Coeffs # zero

1 0

Atoms # bond

412 118 2 -4.842129998657332 -4.156846658035584 -3.7983891249628847 0 1 0
415 119 2 -5.107855217855213 -5.35244433343836 -4.838880289018522 2 0 1
417 119 4 -5.173362910213564 -5.646611191435057 -4.4399133707183305 2 0 1
416 119 4 -5.0423475254968615 -5.058277475441662 -5.237847207318713 2 0 1
414 118 4 -5.003887103165044 -3.797659001490042 -4.106315847621362 0 1 0
1220 387 4 -5.110101496323368 -4.8175393279735275 -5.579097741273588 2 0 -1
733 225 2 -2.8367755582824414 -4.267191586223245 -5.516134860468841 1 -1 0
996 312 4 -2.2701596452793127 -4.671059041423425 -4.314447971774564 0 -1 0
994 312 2 -2.7334848533216274 -4.759740198031894 -4.1487210757829835 0 -1 0
63 13 3 -1.904889960716767 -4.781874204182058 -4.190049986165683 0 1 -1
651 197 4 -1.9519920541158642 -4.067836348911566 -4.670039479291937 -2 0 1
734 225 4 -2.801921274374623 -3.8932104812550072 -5.186099541116554 1 -1 0
995 312 4 -3.1968100613639416 -4.848421354640362 -3.982994179791402 0 -1 0
108 22 3 -1.9822225354889103 -5.624347093930814 -4.049958549111036 0 0 0
65 13 3 -1.6461473530959039 -4.118351073342906 -4.434363960065337 0 1 -1
61 13 1 -1.6511977738348746 -4.408333215776311 -4.0832445354816596 0 1 -1
62 13 3 -1.220864824453855 -4.542219734224702 -3.991114448893831 0 1 -1
270 70 4 -0.26757511705134895 -5.254092711288554 -4.545798988046991 -1 0 0
758 233 4 -4.968787339444248 -2.421041954068465 -4.362015523609384 1 0 -1
757 233 2 -4.797747698481027 -2.19656991805213 -3.949271357974121 1 0 -1
365 102 4 -5.162008717366269 -2.687933285300032 -4.618437841561125 0 0 1
364 102 2 -5.160421515003448 -2.398511438013998 -5.026154011343104 0 0 1
366 102 4 -5.158834312640627 -2.109089590727964 -5.433870181125084 0 0 1
891 277 4 -4.827007814537194 -1.998297004336972 -5.620517801809301 1 -1 2
1117 353 2 -3.763042651544767 -2.2036822516080963 -5.456751512225024 2 2 -1
10 2 3 -2.869786431051153 -3.504339330201901 -5.142176890517132 0 0 0
6 2 1 -2.931749504644737 -3.141410504730385 -5.410212793247406 0 0 0
338 93 4 -2.6153717836200165 -2.4840902404310756 -5.037309656846062 -1 0 1
9 2 3 -2.913970744538078 -2.752859556128968 -5.157206714210302 0 0 0
337 93 2 -2.3590840150985497 -2.612507916402833 -4.627644573877004 -1 0 1
958 300 2 -3.1959331485149893 -1.9400568729943737 -4.397828421674506 0 -1 1
960 300 4 -3.121630978654094 -1.9819106207453618 -3.905154643852526 0 -1 1
7 2 3 -3.3449167798525457 -3.169707918677245 -5.6104428086322145 0 0 0
339 93 4 -2.102796246577083 -2.7409255923745905 -4.217979490907946 -1 0 1
1118 353 4 -3.3436345116772554 -2.0290247118268057 -5.247965602715608 2 2 -1
649 197 2 -1.903572337285299 -3.688138111551542 -4.991729982054569 -2 0 1
650 197 4 -1.855152620454734 -3.308439874191518 -5.3134204848172 -2 0 1
760 234 2 -0.1303425485188671 -2.695498340727218 -4.954709807007791 0 1 1
761 234 4 -0.6266402406935986 -2.6432883883794323 -4.985737562611584 0 1 1
1069 337 2 -4.680151353780454 -0.10319642364999695 -5.372160004496149 0 0 0
462 134 4 -4.596005125537761 -0.21256871049077064 -4.678229609548777 1 0 0
959 300 4 -3.2702353183758848 -1.8982031252433855 -4.890502199496485 0 -1 1
863 268 4 -2.0077203026648798 -1.7454266768447808 -4.103852893591 0 1 0
882 274 4 -2.4475497502363 -0.6840336137066474 -3.887092279850508 0 -1 1
862 268 2 -1.5171352924552284 -1.6488800240759207 -4.106109350101299 0 1 0
864 268 4 -1.0265502822455765 -1.5523333713070604 -4.108365806611598 0 1 0
413 118 4 -4.68037289414962 -4.516034314581126 -3.4904624023044075 0 1 0
546 162 4 -4.016330169860539 -4.29728641102449 -2.8450684967027327 -1 0 0
1152 364 4 -3.7530457261044754 -4.125926049993828 -3.070581907336667 1 0 1
544 162 2 -4.418770458540639 -4.007563888139289 -2.7810163790170273 -1 0 0
313 85 2 -3.067927923948914 -5.62631653442418 -2.632913600729935 -1 1 1
158 33 4 -2.127873535152783 -3.9300947623739138 -3.701086973126921 0 0 1
1151 364 4 -3.1143212677355407 -4.587955216791706 -3.6858542984842053 1 0 1
1150 364 2 -3.433683496920008 -4.356940633392767 -3.378218102910436 1 0 1
315 85 4 -3.4955634498703523 -5.504001254509684 -2.404513011261426 -1 1 1
1193 378 4 -3.5952107585066284 -3.9207962989849294 -1.9790686992656696 1 1 0
317 86 4 -0.062433449922377385 -5.371932320114336 -2.245162976732547 0 0 0
1167 369 4 -0.15148766308440065 -4.617425665146994 -3.034160317997052 1 2 -1
316 86 2 -0.026357600625904434 -5.18112080956278 -2.7059118243041467 0 0 0
64 13 3 -1.8269147390604963 -4.199526881218315 -3.707980011738436 0 1 -1
1169 370 4 -1.647932810532998 -4.202399625610289 -2.3699465888276032 0 1 1
1168 370 2 -1.3778315607749183 -4.496460211434427 -2.068991963105536 0 1 1
1159 367 2 -1.098849487890677 -5.564436467681832 -1.9916993231588827 0 2 -1
1165 369 2 -0.34175868885453736 -4.155709036287746 -3.00936734748624 1 2 -1
381 107 4 -1.2148374965322926 -5.32781085022202 -3.2319071450114616 1 0 0
259 67 2 -1.5359224890282317 -1.0687980620183513 -0.19952610239935806 0 -1 -1
545 162 4 -4.821210747220739 -3.7178413652540896 -2.716964261331322 -1 0 0
906 282 4 -4.828752925293524 -3.3233454834909284 -2.736267466889173 1 0 1
904 282 2 -4.854750051337783 -2.9272357049561437 -2.4322589262415137 1 0 1
905 282 4 -4.880747177382042 -2.5311259264213595 -2.1282503855938546 1 0 1
759 233 4 -4.626708057517806 -1.9720978820357948 -3.536527192338858 1 0 -1
167 36 4 -5.103745513884154 -2.199450441251516 -2.010137624396819 1 0 0
980 307 4 -2.8828577442888337 -2.280190776755843 -3.7461499619587473 1 0 0
973 305 2 -3.135664435239928 -3.488883372327857 -2.576119358820971 1 1 1
979 307 2 -2.9405557245093883 -2.6451959350522105 -3.409338178472286 1 0 0
981 307 4 -2.9982537047299425 -3.010201093348577 -3.072526394985824 1 0 0
159 33 4 -2.811619103470212 -3.311799580791008 -3.3135265697891056 0 0 1
974 305 4 -2.9134353255892136 -3.328416876619372 -2.9942876581683406 1 1 1
975 305 4 -3.3578935448906417 -3.6493498680363414 -2.1579510594736013 1 1 1
157 33 2 -2.4697463193114975 -3.620947171582461 -3.5073067714580133 0 0 1
104 21 3 -0.7453035194419793 -3.002072870567408 -3.700360281569974 0 0 0
103 21 3 -0.2477204185426867 -2.6470133907639726 -3.2487588826570746 0 0 0
101 21 1 -0.3302131263221999 -3.031480616406927 -3.4950917987872874 0 0 0
1166 369 4 -0.5320297146246741 -3.6939924074284978 -2.9845743769754276 1 2 -1
105 21 3 -0.3170068100696829 -3.396297272305585 -3.2228154671137936 0 0 0
558 166 4 -4.3919921842828735 -1.7539818568751149 -3.2839346753950407 -1 1 0
556 166 2 -4.5355474049802424 -1.5339240490519408 -2.858533147628862 -1 1 0
557 166 4 -4.679102625677611 -1.3138662412287678 -2.433131619862684 -1 1 0
880 274 2 -2.839179662138556 -0.5541200420470265 -3.604694553228191 0 -1 1
881 274 4 -3.230809574040812 -0.4242064703874055 -3.3222968266058737 0 -1 1
359 100 4 -3.3094009995707854 -0.06789227088974589 -3.1369294464686557 0 -1 1
741 227 4 -1.173438004287164 -0.0628295811084391 -3.03613657876659 1 0 0
284 75 4 -1.6797229425929476 -1.1387640486227066 -2.9495977869789516 0 1 1
608 183 4 -0.37499571546775523 -1.4363277374145973 -2.7002907415414885 -1 -1 0
285 75 4 -0.7452965941611854 -1.3180062656983251 -2.6418322480135923 0 1 1
283 75 2 -1.2125097683770665 -1.2283851571605158 -2.795715017496272 0 1 1
432 124 4 -0.9114455558861089 -0.10233114032484057 -3.3442711163521306 1 0 0
292 78 2 -5.379294462811878 -4.258144737046934 -0.8903982297361714 1 1 0
954 298 4 -4.028773636082485 -5.443723347094267 -1.6786667302052243 0 1 1
293 78 4 -5.12507175007812 -4.012345956703992 -1.2438862378949378 1 1 0
198 46 4 -4.194070253016261 -5.118918782754746 -1.530510649496041 0 0 1
196 46 2 -3.9083431416202687 -4.827369668210346 -1.2417908344125679 0 0 1
1137 359 4 -3.4176476056441016 -4.192448874359107 -0.8961973822209346 0 -1 0
197 46 4 -3.6226160302242767 -4.535820553665946 -0.9530710193290948 0 0 1
53 11 3 -2.6569504605071916 -5.506776854485555 -0.7352703643931238 1 1 1
1135 359 2 -3.283157431278481 -4.372658211077684 -0.4496136969412439 0 -1 0
1154 365 4 -2.211959503225111 -4.248632318412718 -0.6149158738976925 0 1 -1
1153 365 2 -2.240069737903637 -3.8575522022585678 -0.9251837540509451 0 1 -1
1170 370 4 -1.1077303110168386 -4.790520797258565 -1.768037337383468 0 1 1
1161 367 4 -1.0110461450777342 -5.125321320884869 -1.7692842588216606 0 2 -1
320 87 4 -1.2726877999039181 -4.926399002526682 -1.505978784175692 -1 1 0
127 26 3 -0.6179575280871585 -3.9435711996826543 -0.7066955158029176 1 0 0
126 26 1 -0.3362857202487073 -4.033559986780678 -1.059063236891795 1 0 0
319 87 2 -1.475184334018336 -4.981134085409476 -1.0521074099146004 -1 1 0
321 87 4 -1.6776808681327533 -5.03586916829227 -0.5982360356535088 -1 1 0
130 26 3 -0.5141987823639207 -4.368142465988315 -1.3116528386884418 1 0 0
1194 378 4 -4.124600882920963 -3.2478190110064293 -1.4624956976105716 1 1 0
1192 378 2 -3.8599058207137955 -3.5843076549956794 -1.7207821984381204 1 1 0
1268 403 4 -4.372965031080794 -3.432764630356476 -1.2116723851636788 1 1 -1
1269 403 4 -4.41589524316881 -3.0723877364972028 -0.27985400626141765 1 1 -1
1267 403 2 -4.394430137124802 -3.2525761834268394 -0.7457631957125482 1 1 -1
166 36 2 -5.284605939909387 -1.8995363762317672 -1.6532888330286761 1 0 0
540 160 4 -2.5421621516083635 -2.0857074662643327 -1.8955054363286468 0 1 0
804 248 4 -3.140597769292135 -2.38659738753591 -0.24624574888823214 -1 1 0
538 160 2 -2.711274062207633 -2.4896416820542924 -1.6541792856377209 0 1 0
539 160 4 -2.880385972806902 -2.8935758978442525 -1.4128531349467943 0 1 0
802 248 2 -3.337786206100418 -2.285315154665467 -0.6944182934442191 -1 1 0
803 248 4 -3.534974642908701 -2.1840329217950236 -1.1425908380002059 -1 1 0
912 284 4 -2.176691718455768 -1.9187339600182547 -1.9127090087676086 -1 0 1
1155 365 4 -2.268179972582163 -3.4664720861044174 -1.235451634204198 0 1 -1
1145 362 4 -3.4851151543144097 -2.5019020065166377 -0.13344108126304843 0 0 0
128 26 3 -0.2892443334922373 -3.6496148282128877 -1.3153311106959478 1 0 0
672 204 4 -1.5347048266791654 -3.2468340997706315 -0.412656581428542 0 0 1
168 36 4 -5.46546636593462 -1.5996223112120185 -1.2964400416605333 1 0 0
201 47 4 -5.43745985259796 -0.26664352514154704 -1.0700794895615928 1 0 0
199 47 2 -5.518257481742764 -0.7539023238939265 -1.147865131955236 1 0 0
254 65 4 -4.124955615102933 -0.680853433798766 -0.903255942657756 0 0 -1
253 65 2 -4.352431306408465 -1.020906899214154 -0.6158216883945606 0 0 -1
255 65 4 -4.579906997713998 -1.3609603646295418 -0.3283874341313653 0 0 -1
200 47 4 -5.599055110887568 -1.2411611226463062 -1.2256507743488791 1 0 0
1206 382 4 -3.4435785344251935 -0.12864863223952466 -1.0281328996548995 1 1 1
1205 382 4 -3.1943638467411235 -1.0921426855070233 -0.9303001405100284 1 1 1
1204 382 2 -3.3189711905831585 -0.610395658873274 -0.979216520082464 1 1 1
537 159 4 -3.7285895339190445 -0.0220093312268429 -0.9604954080317771 -1 0 0
911 284 4 -1.1992330194776186 -1.7639537240232004 -1.7691208116951558 -1 0 1
493 145 2 -0.8462711350475433 -0.5853597339275187 -1.1873728518737208 -1 0 -1
910 284 2 -1.6879623689666932 -1.8413438420207278 -1.840914910231382 -1 0 1
260 67 4 -1.1240286308477263 -1.095834291899501 -0.4816829592491674 0 -1 -1
494 145 4 -1.0601842408340194 -0.8070407605830696 -0.793547121893956 -1 0 -1
495 145 4 -0.6323580292610671 -0.3636787072719678 -1.5811985818534855 -1 0 -1
33 7 3 -0.3683159222285752 -0.05546673434156846 -1.5197403384987842 -1 -1 0
102 21 3 -0.006547158369404893 -3.0726374277163875 -3.819354744668597 0 0 0
294 78 4 -5.633517175545637 -4.503943517389876 -0.5369102215774052 1 1 0
1086 342 4 -5.635748470247305 -1.560209200477256 -1.0675477396521695 1 0 0
783 241 4 -5.132895185637447 -0.004821882300871105 -1.1103992002686298 0 -1 0
1136 359 4 -3.1486672569128613 -4.552867547796261 -0.0030300116615535333 0 -1 0
1121 354 4 -1.8694479448799812 -5.127780503976351 -5.592429586355082 0 0 0
1149 363 4 -4.397259841023092 -4.555323077702559 1.3486847798033725 1 1 0
487 143 2 -5.202254109378548 -4.105457801403844 1.2961613125796363 1 0 -1
1147 363 2 -3.9316573784912254 -4.662826950814312 1.4958488520149515 1 1 0
488 143 4 -5.2232435904932695 -3.8547962099075583 1.7282819071265498 1 0 -1
489 143 4 -5.181264628263825 -4.356119392900129 0.8640407180327226 1 0 -1
938 293 4 -3.745232937674379 -4.149574184963708 0.9629475512548913 1 0 0
1148 363 4 -3.4660549159593583 -4.770330823926065 1.6430129242265303 1 1 0
970 304 2 -2.738304063404533 -5.068991315435866 0.5495616609371121 1 0 1
971 304 4 -2.3385752327546987 -4.773051947789599 0.6009109805418111 1 0 1
637 193 2 -4.152557029416432 -0.03177012118137567 4.903108439282841 -1 -1 -1
73 15 3 -2.2117222177818565 -4.065604035102822 0.7430384611382908 0 1 0
1013 318 4 -3.258163591457339 -5.108289810256582 1.5397451063875724 0 0 0
972 304 4 -3.138032894054367 -5.364930683082132 0.498212341332413 1 0 1
1012 318 2 -2.8459844930595604 -4.933565821840942 1.762410592524206 0 0 0
655 199 2 -2.111315922823425 -4.0604829714612585 1.8513496212925071 -2 0 -1
72 15 3 -1.8825098641046991 -4.683658429251695 1.0160366150856648 0 1 0
71 15 1 -1.8081277239850133 -4.289484267832613 0.7908832724490821 0 1 0
74 15 3 -1.51135899253126 -4.030399865930774 1.0360436132918407 0 1 0
75 15 3 -1.6320671848802601 -4.381709777977947 0.3811307351192559 0 1 0
1271 404 4 -1.4979895014521454 -3.8759892288738453 1.359792484243927 0 1 0
930 290 4 -0.06019738412993707 -4.437469896160582 0.734885611690812 1 1 0
1270 404 2 -1.0304575627006558 -3.901274182659154 1.5352192705656593 0 1 0
1272 404 4 -0.5629256239491661 -3.9265591364444625 1.7106460568873918 0 1 0
929 290 4 -0.20848542595613312 -5.29626931157893 1.225267320899458 1 1 0
928 290 2 -0.1343414050430351 -4.866869603869756 0.980076466295135 1 1 0
631 191 2 -4.867118651734657 -3.2053120797005623 1.666062517272718 0 0 -1
632 191 4 -4.674431339821057 -2.818491639350446 1.4145837969885058 0 0 -1
633 191 4 -5.059805963648256 -3.5921325200506784 1.9175412375569296 0 0 -1
657 199 4 -1.8725150607690948 -3.7629114887813113 1.5282004901188941 -2 0 -1
937 293 2 -3.6009396450353868 -3.671160313716182 0.9456382041544842 1 0 0
939 293 4 -3.4566463523963944 -3.1927464424686565 0.9283288570540771 1 0 0
216 52 4 -2.4461199303639702 -2.7720782514452096 1.3596361358697309 0 -1 0
1146 362 4 -3.522972229453346 -2.796654333833645 0.8213824141546961 0 0 0
134 27 3 -2.248415390869928 -3.071195249360614 1.240696935864797 1 -1 0
1144 362 2 -3.5040436918838775 -2.649278170175141 0.34397066644582347 0 0 0
214 52 2 -2.5994925118350087 -2.322724482409723 1.20292608033089 0 -1 0
135 27 3 -1.6265027289614709 -3.493300775280398 1.1965204042541457 1 -1 0
131 27 1 -1.8068384776886603 -3.086639478201826 1.0990237007760537 1 -1 0
132 27 3 -1.7942605116720711 -3.0204838155659006 0.6439795017450161 1 -1 0
671 204 4 -1.3919603778519505 -3.047472528760248 0.5568169800119136 0 0 1
133 27 3 -1.562191083797676 -2.751184352570352 1.3061891210315304 1 -1 0
1068 336 4 -1.2421680967754407 -2.9699402168248628 1.181854608549668 1 0 0
1066 336 2 -0.8170665670512319 -2.7072728173353067 1.1646928291666268 1 0 0
1067 336 4 -0.3919650373270236 -2.44460541784575 1.1475310497835856 1 0 0
670 204 2 -1.463332602265558 -3.1471533142654398 0.07208019929168576 0 0 1
620 187 4 -0.20132084524623828 -2.498491561743801 0.7765092777282818 0 0 -1
93 19 3 -1.8703499334755862 -1.9683344473234001 1.0298220112344558 -1 0 1
83 17 3 -4.0589715738034 -0.05163638295828915 1.086104566890317 0 1 0
567 169 4 -5.1279048761264665 -0.4278534703925544 1.008248820301199 1 1 1
85 17 3 -4.221542473039224 -0.6489863463810485 0.6575678427688162 0 1 0
81 17 1 -4.270808293573303 -0.4641811169855658 1.0708714915735393 0 1 0
82 17 3 -4.718578313772288 -0.40472320034988646 1.1578586467199128 0 1 0
84 17 3 -4.091625034259767 -0.746239073026552 1.3927979878671422 0 1 0
565 169 2 -5.265855392944619 -0.5475465369529937 0.5427993335395301 1 1 1
749 230 4 -3.747830903543929 -1.2719607934779464 1.5519228280562691 0 0 0
566 169 4 -5.403805909762772 -0.6672396035134329 0.07734984677786128 1 1 1
215 52 4 -2.752865093306047 -1.8733707133742366 1.0462160247920491 0 -1 0
46 10 1 -2.58839747595495 -1.1384398754523897 0.8211354641854102 0 0 1
49 10 3 -2.8443851649791703 -0.8467824848632199 0.5667611935075467 0 0 1
47 10 3 -2.77282277454667 -1.5590820213788854 0.7956895546940123 0 0 1
50 10 3 -2.583959719513413 -1.0026452806755652 1.2558079090761565 0 0 1
692 211 4 -2.662409245812661 -0.7969473675661791 1.6120847086493606 -1 1 0
1232 391 4 -2.574517224816739 -0.5370301939250874 0.586629966303541 1 0 1
48 10 3 -2.155136119986248 -1.15436221815057 0.6558143329670955 0 0 1
691 211 2 -2.7095684740655606 -0.31921307636618845 1.7518915546978069 -1 1 0
1231 391 2 -2.5067147210666247 -0.13030281107286842 0.30383029069665085 1 0 1
261 67 4 -1.947816347208737 -1.0417618321372015 0.08263075445045123 0 -1 -1
748 230 2 -3.445467427076644 -1.6191130834410534 1.7470166918032697 0 0 0
94 19 3 -1.445023611177223 -1.6498485972285413 0.4864397490576437 -1 0 1
1089 343 4 -1.1789346625442165 -1.6114196094943343 1.5495082824150788 0 0 0
524 155 4 -0.6668267380552007 -0.1982035161527027 0.899709585164622 0 0 0
95 19 3 -1.1607471491678973 -1.7623459574058031 1.1745031451916879 -1 0 1
91 19 1 -1.5374703813226605 -1.6575040778108572 0.9410769542073272 -1 0 1
92 19 3 -1.6846046269998034 -1.241155413911288 1.0699385226350533 -1 0 1
523 155 2 -1.0357336678280635 -0.2426829113569784 1.2342678918427228 0 0 0
665 202 4 -0.3488808303886811 -0.28902647934089754 0.6936754974479964 -1 1 0
525 155 4 -1.4046405976009264 -0.2871623065612541 1.5688261985208236 0 0 0
66 14 1 -5.007896656200658 -5.120061807412515 3.298452584771502 0 1 -1
70 14 3 -5.0841919709263665 -4.833955315041368 2.95244376989219 0 1 -1
67 14 3 -5.410325767234224 -5.275705529107099 3.4579074137670487 0 1 -1
1223 388 4 -5.041111139550989 -3.9327364607769 2.0261409993845576 1 0 2
1222 388 2 -4.629449566181571 -4.128596595693418 2.2315030128190045 1 0 2
1224 388 4 -4.217787992812154 -4.324456730609935 2.436865026253451 1 0 2
1010 317 4 -5.321697157475373 -4.19370676538293 1.9611663452417782 1 0 0
232 58 2 -4.533072266800527 -5.273667073835719 2.391567686951737 0 -1 -1
233 58 4 -4.782857740328811 -5.196735527893003 2.8178173256065793 0 -1 -1
69 14 3 -4.754678867691346 -5.480599679493332 3.152873759463353 0 1 -1
68 14 3 -4.786312380240662 -4.898843593195583 3.6408893093589305 0 1 -1
234 58 4 -4.283286793272244 -5.350598619778435 1.9653180482968953 0 -1 -1
999 313 4 -5.327035939662246 -3.8784040753774205 2.023960022708431 2 1 0
1009 317 2 -5.505999664740634 -4.643467424087664 2.0784179366871007 1 0 0
1014 318 4 -2.4338053946617815 -4.7588418334253015 1.9850760786608392 0 0 0
656 199 4 -2.3501167848777555 -4.358054454141206 2.1744987524661195 -2 0 -1
422 121 4 -1.9373869205351726 -5.6093076159691195 2.5842389086058284 0 1 0
840 260 4 -3.0425545596225803 -4.496819151356745 3.4316140362414655 1 -1 0
838 260 2 -3.359891203308436 -4.268562373480128 3.7433772443455218 1 -1 0
810 250 4 -0.46739527478454745 -5.29512028916494 3.617853070720945 0 2 -1
421 121 2 -1.8429076617966942 -5.524855066779146 3.067913837254971 0 1 0
423 121 4 -1.7484284030582158 -5.440402517589173 3.551588765904113 0 1 0
562 168 2 -0.26523928371532124 -4.090957888500284 3.340458552044607 0 1 -1
1207 383 2 -1.4240382365971092 -3.944561939456037 3.3193295818028123 1 0 1
809 250 4 -1.4242073609353358 -5.572107973093457 3.7061052930601845 0 2 -1
1208 383 4 -1.447710691939161 -4.422684162741892 3.174973236399084 1 0 1
808 250 2 -0.9458013178599418 -5.433614131129198 3.6619791818905645 0 2 -1
811 251 2 -0.04889178644426979 -0.8001163570096114 5.2629108715746895 0 -1 0
564 168 4 -0.19371381762165957 -4.5296355024681185 3.5694695969830064 0 1 -1
302 81 4 -5.526775702466774 -2.5735722113779693 1.9534209096630735 1 0 0
301 81 2 -5.39630707309985 -2.1305012198131807 2.144904677079383 1 0 0
997 313 2 -5.593881008653781 -3.567000825181974 2.310004992812263 2 1 0
750 230 4 -3.1431039506093597 -1.9662653734041609 1.9421105555502693 0 0 0
903 281 4 -3.3220354946922788 -2.9396770913314736 2.2764113741611607 1 0 0
902 281 4 -2.410982426353865 -3.1235361962483985 2.6454345932294907 1 0 0
901 281 2 -2.866508960523072 -3.031606643789936 2.4609229836953257 1 0 0
982 308 2 -2.598256061522335 -3.292808476607245 3.4934905201788387 0 1 1
984 308 4 -2.562300403437321 -3.246954578005479 2.996897517173142 0 1 1
1209 383 4 -1.4003657812550574 -3.4664397161701825 3.463685927206541 1 0 1
471 137 4 -0.061241535335657626 -2.523109403420102 3.7415836577796577 -1 0 -2
563 168 4 -0.3367647498089829 -3.6522802745324503 3.1114475071062073 0 1 -1
470 137 4 -0.583260561960095 -2.9492985238270477 3.0027609662705226 -1 0 -2
1109 350 4 -1.7847485770597096 -2.795356462317876 2.53655167685153 0 0 1
1108 350 2 -1.298216271410961 -2.88416310533293 2.610034298718261 0 0 1
1110 350 4 -0.8116839657622121 -2.972969748347984 2.683516920584991 0 0 1
469 137 2 -0.3222510486478763 -2.736203963623575 3.37217231202509 -1 0 -2
728 223 4 -4.2319414820461 -0.4422826587565163 3.2814538735467043 1 0 0
303 81 4 -5.265838443732926 -1.6874302282483926 2.336388444495693 1 0 0
780 240 4 -5.630744955341414 -1.484081342351117 2.380599294419504 1 0 -2
779 240 4 -5.495652926126652 -0.49326162804331225 2.3857410236426193 1 0 -2
778 240 2 -5.563198940734033 -0.9886714851972147 2.383170159031062 1 0 -2
866 269 4 -3.401424601249528 -0.83730023360669 3.052777179262758 -1 0 0
865 269 2 -3.609489239083452 -1.0048501455646361 3.47543085957965 -1 0 0
846 262 4 -1.9486141983036664 -0.614908498286293 3.4220520568877073 0 0 -1
465 135 4 -2.1340958209256513 -0.44103139850536066 3.7303388983566013 -1 1 -1
1087 343 2 -1.0472906661436792 -1.2756840386003179 1.8958484109707812 0 0 0
1106 349 4 -1.345319965855131 -0.1615503111534401 1.9420363673322774 0 1 0
844 262 2 -1.6538349936461485 -1.0163668910179702 3.4660563681171994 0 0 -1
683 208 4 -0.2234701957568827 -1.4316746468716637 3.318627175502143 1 1 -1
682 208 2 -0.5098696274189966 -1.2457938224991547 2.9533551061152172 1 1 -1
1088 343 4 -0.9156466697431418 -0.9399484677063015 2.2421885395264836 0 0 0
684 208 4 -0.7962690590811103 -1.0599129981266457 2.5880830367282917 1 1 -1
845 262 4 -1.3590557889886303 -1.4178252837496474 3.510060679346692 0 0 -1
969 303 4 -1.4695815592909869 -1.7926748773970327 3.617790492395522 2 0 -1
1179 373 4 -0.05648499611914904 -0.02356763226579539 3.6730071768956867 1 0 0
767 236 4 -4.80610568712435 -4.5624994416903295 3.8291666731205294 0 0 -1
768 236 4 -5.3776291471225255 -4.52941556586503 4.649085200677031 0 0 -1
766 236 2 -5.091867417123438 -4.54595750377768 4.23912593689878 0 0 -1
1221 387 4 -4.510278379862928 -4.748358476226015 4.954081985111698 2 0 -2
145 29 3 -4.0089279916995215 -5.03948209550318 4.505248731795225 2 1 0
1219 387 2 -4.810189938093148 -4.782948902099771 5.352650121919055 2 0 -2
141 29 1 -3.9394590391385798 -4.601762163071005 4.610011918944835 2 1 0
142 29 3 -4.325006462529433 -4.425729463315625 4.788801384332468 2 1 0
143 29 3 -3.8287901580236716 -4.363124971133585 4.2277754876917575 2 1 0
839 260 4 -3.677227846994292 -4.0403055956035105 4.055140452449578 1 -1 0
144 29 3 -3.5989536858775972 -4.566040720670843 4.923189317480484 2 1 0
638 193 4 -4.555800995273356 -0.07743024028648854 5.1951862671360916 -1 -1 -1
735 225 4 -2.8716298421902593 -4.641172691191481 5.48414582017887 1 -1 -1
807 249 4 -1.6198293970232216 -3.8738103466112235 4.784408194889762 -1 0 -1
1120 354 2 -1.782453832063742 -5.514002259160717 5.432493584393985 0 0 -1
989 310 4 -0.038349767962849224 -4.441065913986382 3.9291493042140253 0 -1 0
712 218 2 -4.123365514629696 -2.9837993972804675 4.020417051623365 1 0 -1
714 218 4 -4.480565133116538 -2.6438716178596837 4.103227300571253 1 0 -1
965 302 4 -5.273245771138733 -3.1840160921214693 4.733798310752895 2 0 0
964 302 2 -5.637496053764653 -3.4943298996046104 4.588791164405137 2 0 0
596 179 4 -4.375962730398468 -2.321041536889122 3.8656321094230055 0 1 0
595 179 2 -4.140227959176288 -1.901623823749889 4.001712598626485 0 1 0
890 277 4 -4.852525239597206 -2.401367073258725 4.794984894527784 1 -1 1
889 277 2 -4.839766527067201 -2.1998320387978483 5.252391546359242 1 -1 1
1119 353 4 -4.182450791412279 -2.378339791389386 5.66477857826556 2 2 -2
897 279 4 -3.7850778850742914 -2.8282275494283544 4.598405863360506 1 0 -1
713 218 4 -3.766165896142854 -3.3237271767012517 3.9376068026754774 1 0 -1
805 249 2 -1.9873478671517106 -3.721534906534775 4.481518174479802 -1 0 -1
8 2 3 -2.6056137421518955 -3.1306955787358834 5.590223448683285 0 0 -1
983 308 4 -2.634211719607349 -3.338662375209011 3.9900835231845355 0 1 1
806 249 4 -2.3548663372801997 -3.569259466458327 4.178628154069841 -1 0 -1
895 279 2 -3.4948293396767336 -2.9939811172037727 4.970268118320871 1 0 -1
896 279 4 -3.2045807942791757 -3.159734684979191 5.342130373281236 1 0 -1
708 216 4 -2.221480297939087 -2.122813688365081 4.882164529770056 0 0 0
967 303 2 -1.1887406268838558 -1.9839915408501831 3.9845687700647923 2 0 -1
139 28 3 -0.7447378761493407 -2.5367792027859735 4.264448704429727 1 1 0
138 28 3 -0.9185630390335559 -3.2402136480059966 4.493718837733509 1 1 0
137 28 3 -1.0599576801747568 -2.6501514426045936 4.937266072210592 1 1 0
136 28 1 -0.7659667000084408 -2.8233485337189554 4.628766361983896 1 1 0
140 28 3 -0.3543425121019726 -2.862878804568102 4.819561764487532 1 1 0
707 216 4 -1.4503204130082443 -2.740056969940281 5.038123380826732 0 0 0
706 216 2 -1.8359003554736655 -2.4314353291526807 4.960143955298394 0 0 0
968 303 4 -0.9078996944767246 -2.1753082043033336 4.3513470477340634 2 0 -1
867 269 4 -3.8175538769173762 -1.1724000575225815 3.8980845398965425 -1 0 0
1071 337 4 -4.682745822161903 -0.31274235106569215 5.504191489140849 0 0 -1
597 179 4 -3.9044931879541074 -1.4822061106106557 4.137793087829963 0 1 0
677 206 4 -5.493414617294496 -1.17558970996995 4.498508284519113 0 0 1
678 206 4 -4.601763648588934 -0.8504488453367847 4.813535216945803 0 0 1
676 206 2 -5.047589132941715 -1.0130192776533673 4.656021750732458 0 0 1
329 90 4 -5.615202776317736 -1.454789452217137 4.735180516339148 1 1 0
813 251 4 -0.03167413333323768 -1.1033873379621988 5.660063568321314 0 -1 0
251 64 4 -2.2390297508648724 -0.9332656417589317 5.2517705121380684 1 -1 -1
250 64 2 -2.7254424859120494 -1.0170321499972985 5.171859165748782 1 -1 -1
252 64 4 -3.2118552209592264 -1.1007986582356653 5.091947819359496 1 -1 -1
812 251 4 -0.06610943955530188 -0.496845376057024 4.865758174828065 0 -1 0
460 134 2 -4.747489014822362 0.07336205617864253 -4.297052186347316 1 0 0
1070 337 4 -4.677556885399006 0.10634950376569818 -4.918195498133148 0 0 0
461 134 4 -4.898972904106963 0.35929282284805625 -3.9158747631458546 1 0 0
1042 328 2 -3.9244696364195066 1.2093772235412614 -3.9223563833683506 0 1 0
1072 338 2 -5.522143984687821 0.7753137927261061 -3.7912972316847338 0 0 1
19 4 3 -2.7663368931491594 0.9822722327908772 -4.783557008437426 0 -1 0
16 4 1 -2.8168306019916587 1.100209423629701 -4.337640867908702 0 -1 0
1044 328 4 -3.652828459836078 1.3198039223870681 -4.327346525676164 0 1 0
18 4 3 -3.250077783676415 1.2475076365028568 -4.260828655036999 0 -1 0
20 4 3 -2.7246719772498453 0.742728768860853 -4.070968092111466 0 -1 0
1026 322 4 -2.3899972458583463 0.5561724001524423 -3.9082471101368266 1 0 0
17 4 3 -2.524237108245733 1.4414733947416214 -4.2400296521692225 0 -1 0
279 73 4 -3.432101468849014 0.8590622120622453 -4.755590658771226 0 0 0
277 73 2 -3.5335126780356463 0.5059827270155216 -5.094781820051493 0 0 0
278 73 4 -3.6349238872222784 0.15290324196879795 -5.43397298133176 0 0 0
484 142 2 -0.31811587409415415 1.6223527858264482 -4.703958930340644 0 0 1
486 142 4 -0.4636345965043899 1.4582237136550762 -5.153276133546224 0 0 1
148 30 3 -0.267117033437855 1.163506549929408 -5.372972691885919 1 0 2
941 294 4 -1.0962917697923134 1.7366943388106661 -4.819608295084291 1 0 1
431 124 4 -0.7546820725258586 0.24867311162381478 -4.2674294047295485 1 0 0
485 142 4 -0.17259715168391834 1.7864818579978197 -4.254641727135064 0 0 1
309 83 4 -4.575536408923202 2.3931795204112536 -4.658088968920143 0 -1 1
307 83 2 -4.311185672358492 2.7895424480761175 -4.506381626806848 0 -1 1
308 83 4 -4.046834935793782 3.1859053757409814 -4.354674284693554 0 -1 1
1280 407 4 -4.013336980925834 3.01885699662446 -5.234779718962547 0 0 0
227 56 4 -3.7879297431636196 3.0826296569379013 -4.061997673770482 1 0 0
1030 324 2 -5.330438493636712 3.3621706786745285 -3.8876132822915364 -1 0 1
1032 324 4 -5.203038558081496 2.8864580029157914 -3.8012031755714526 -1 0 1
942 294 4 -1.8651547948812133 2.2464404690165796 -5.205624527114544 1 0 1
817 253 2 -2.5241455597394373 2.7702772219561935 -5.315036341999777 0 1 2
1279 407 2 -3.5881337633385813 3.105048315360212 -5.48332202990405 0 0 0
819 253 4 -2.0789235585250014 2.5655619629149933 -5.21569333846976 0 1 2
860 267 4 -2.8725210641544567 3.5965779017244683 -5.19442052370939 1 -2 -1
818 253 4 -2.9693675609538737 2.9749924809973938 -5.414379345529794 0 1 2
1004 315 4 -2.0007992667620247 3.220983108853561 -4.159054947536099 -1 0 1
940 294 2 -1.4807232823367633 1.9915674039136229 -5.012616411099417 1 0 1
1005 315 4 -1.220389771240257 2.628760776018877 -4.359638415918756 -1 0 1
1003 315 2 -1.610594519001141 2.9248719424362193 -4.259346681727427 -1 0 1
711 217 4 -0.07763412193244373 3.347118715936091 -4.2293522737713465 -1 -3 1
849 263 4 -4.305350688613883 4.166083215357995 -4.554699922569091 0 0 0
847 263 2 -4.04326180355946 4.578823223281604 -4.45003329851723 0 0 0
1031 324 4 -5.457838429191928 3.837883354433266 -3.97402338901162 -1 0 1
848 263 4 -3.781172918505037 4.9915632312052125 -4.345366674465369 0 0 0
345 95 4 -3.621140966825753 5.27465279992982 -4.525038031198438 0 -1 1
343 95 2 -3.141365341679222 5.320136321815 -4.391821670522126 0 -1 1
109 22 3 -2.4560328008332397 5.450672993853104 -4.586547618753497 0 -1 0