LAMMPS data file via write_data, version 29 Aug 2024, timestep = 9000000, units = lj

123 atoms
4 atom types
84 bonds
1 bond types

-2.629534 2.629534 xlo xhi
-2.629534 2.629534 ylo yhi
-2.629534 2.629534 zlo zhi

Masses

1 1
2 1
3 1
4 1

Bond Coeffs # zero

1 0

Atoms # bond

83 26 4 -1.2004562343496439 -2.215468763937002 -0.2628838756290332 1 -1 1
16 4 2 -2.4896671706946076 -0.9149306551581308 -1.6043656307672673 0 -2 2
39 11 4 -0.149048681990716 -1.6917230512692176 -1.9771563825197287 3 0 0
17 4 4 -2.0520926523509964 -0.7073100104878536 -1.4801794447267853 0 -2 2
120 38 4 -0.11926001290659764 -1.4380489979863689 -2.242642471332343 -2 1 3
28 8 2 -0.5301384473926896 -1.4251672140211806 2.0436253201563863 -1 0 0
90 28 4 -2.258311612620782 -1.5649244885310636 0.32052704667735465 2 0 -1
80 25 4 -1.840357391068208 -1.2791267920596012 1.19995429496943 0 -2 -1
4 1 3 -1.5860089138940006 -0.27714996968042593 1.3484078507305532 1 -2 1
29 8 4 -0.8242516021156985 -1.8273541060436291 2.001874199166765 -1 0 0
5 1 3 -2.308474888423297 -0.21722661277839445 1.1450556760557684 1 -2 1
54 16 4 -1.8928932336959625 -0.1903389801352243 0.38337546022741126 -1 -2 -1
115 37 2 -2.48611961734626 -0.7906876248784452 2.5071543734650894 2 -3 1
81 25 4 -1.1045071351294677 -1.6507908998976137 1.765984498915778 0 -2 -1
1 1 1 -1.9296666321458542 -0.4660397821496081 1.1003755717198092 1 -2 1
79 25 2 -1.472432263098838 -1.4649588459786074 1.4829693969426043 0 -2 -1
3 1 3 -2.007858357470146 -0.9005171368184781 1.2432583291495551 1 -2 1
35 10 4 -1.744903844616549 -2.4025031117384916 2.082637727407358 0 0 1
2 1 3 -1.8057609005074806 -0.47518116488619966 0.6574717392812095 1 -2 1
116 37 4 -2.108708604501976 -1.1005085270043384 2.399581440117093 2 -3 1
82 26 2 -1.0963711177884528 -2.52380266800109 0.11671656182491218 1 -1 1
88 28 2 -2.3916166046231058 -2.0145812542573 0.493843439856539 2 0 -1
104 33 4 -0.5255472246681724 -2.5004469884002627 2.186232524591785 0 0 0
89 28 4 -2.5249215966254295 -2.464238019983536 0.6671598330357232 2 0 -1
103 33 2 -0.1348275218967509 -2.4281663373178124 1.8827302653820206 0 0 0
69 21 4 -2.5406805534856014 -1.3384413957698602 0.1191018928586361 3 -1 0
30 8 4 -0.23602529266968092 -1.0229803219987323 2.085376441146008 -1 0 0
112 36 2 -0.04193174594702677 1.0542329046729007 -1.1916308338379895 1 4 0
71 22 4 -0.788621479729287 0.6709909445521355 -1.1350919022632717 1 -4 0
10 2 3 -1.8861031693445678 1.3845245738014995 -2.3427223010692826 4 1 1
70 22 2 -1.1423896498186106 0.6142009074617163 -0.7863470477940759 1 -4 0
72 22 4 -1.4961578199079342 0.5574108703712967 -0.4376021933248804 1 -4 0
113 36 4 -0.3950303153662554 0.701721690911686 -1.1591155382558034 1 4 0
53 16 4 -1.6930340538734159 0.21146060660125007 -0.5102762618303304 -1 -2 -1
65 20 4 -2.547006484619495 2.1642138413592673 -2.3766748925062533 2 -1 2
61 19 2 -0.5430803140190303 2.4274606642978385 -1.1411250653964207 -1 3 1
62 19 4 -0.846432863006848 2.333498767542161 -0.7549277156122866 -1 3 1
63 19 4 -0.23972776503121285 2.5214225610535164 -1.5273224151805547 -1 3 1
56 17 4 -0.08579309482326412 2.2757148648580627 -1.666311155453177 2 -1 0
55 17 2 -0.01185035231500389 1.9532209379369239 -2.041184651354607 2 -1 0
8 2 3 -2.4912011527918105 1.7995380938037826 -2.5116015734583472 4 1 1
52 16 2 -1.7929636437846892 0.010560813233012804 -0.06345040080145962 -1 -2 -1
15 3 3 -0.788360497189073 2.1325251981908675 0.6928377035967828 2 -1 0
76 24 2 -2.4585143600941417 1.0986888422139487 0.7879246775305986 0 -1 -1
34 10 2 -1.4131252507214103 2.522357386624734 1.914624899079458 0 -1 1
22 6 2 -2.25769784815988 2.1419850763717228 0.4432985028052069 0 -3 2
26 7 4 -2.5019156431485055 0.8581487875415266 2.4699552950855335 2 -3 -2
21 5 4 -0.3485292224951541 1.3495230047379385 1.3475212890474573 0 -1 -2
9 2 3 -2.327546455389171 1.1775211712259064 2.3426058480160936 4 1 0
13 3 3 -1.0879486706734423 2.0270503421960973 1.3754957300345576 2 -1 0
84 26 4 -0.9922860012272617 2.4269314279348224 0.4963169992788576 1 -2 1
14 3 3 -0.6293050787247202 1.5021562735795229 1.0726223698751916 2 -1 0
12 3 3 -1.3167551180627677 1.6145573038443173 0.7903486519908122 2 -1 0
36 10 4 -1.081346656826271 2.1881498849879595 1.7466120707515584 0 -1 1
23 6 4 -2.082666120539526 1.6919089317432274 0.5728954100285659 0 -3 2
11 3 1 -0.9533470419725911 1.8216126645194086 0.9818235794556691 2 -1 0
7 2 3 -1.8950771211304365 1.7899617372921273 2.2898154325833553 4 1 0
6 2 1 -2.149351320295049 1.5361067277834313 2.5770475091107867 4 1 0
24 6 4 -2.4327295757802334 2.592061221000218 0.3137015955818476 0 -3 2
77 24 4 -2.132618252344556 1.2994783092010649 0.46624888282253385 0 -1 -1
48 14 4 1.983811845843951 -0.9011274320226885 -1.7175967533903846 1 0 2
86 27 4 1.1754315767476577 -0.9164674294205823 -2.2459653538556554 -3 -1 3
93 29 4 2.160326744734278 -2.066818017074846 -2.371996060814752 -1 0 0
37 11 2 0.0162693530850871 -2.1567497313807893 -1.897030643441773 3 0 0
46 14 2 1.5156983029781144 -0.9242643817228218 -1.5434290395517294 1 0 2
92 29 4 1.9236824563974293 -1.2694914922723024 -1.8167754797434905 -1 0 0
91 29 2 2.042004600565854 -1.6681547546735742 -2.0943857702791213 -1 0 0
47 14 4 1.0475847601122776 -0.9474013314229549 -1.369261325713074 1 0 2
66 20 4 2.4811818110113224 -2.1339931727263926 -2.2235712418096503 1 0 2
109 35 2 1.797332602360633 -2.629253367979476 -0.9020653548121742 0 1 0
18 4 4 2.3318263109617807 -1.122551299828408 -1.7285518168077494 -1 -2 2
68 21 4 2.1089560645706915 -1.1592381366416138 -0.6532190136423934 2 -1 0
67 21 2 2.4136717555425453 -1.248839766205737 -0.2670585603918787 2 -1 0
118 38 2 0.0884016381273944 -1.0013479505753606 -2.369799200922182 -2 1 3
38 11 4 0.18158738816089015 -2.6217764114923607 -1.8169049043638175 3 0 0
119 38 4 0.2960632891613867 -0.5646469031643528 -2.4969559305120206 -2 1 3
85 27 2 1.1232456745683521 -0.45624465309041456 -2.4343044835150187 -3 -1 3
41 12 4 0.9211557465351308 -2.4910269928738016 -0.9359293423727022 3 2 1
111 35 4 1.3466395665394884 -2.5563384234423996 -0.6982046221421605 0 1 0
64 20 2 2.596621663195914 -2.614423665683563 -2.300123067157952 1 0 2
74 23 4 0.31867012396749467 -0.16855582594230284 -2.6027613739407536 -1 1 1
27 7 4 2.4589660067831183 -0.08056020606117037 -2.616166684545267 1 -3 -1
50 15 4 1.0371110674869914 -1.6688165608492853 2.2059476415840895 -1 0 0
95 30 4 2.0021440293049126 -0.8626734777027194 1.5099744715923877 2 -2 1
49 15 2 0.5918315403808613 -1.49202746752491 2.0628680860186654 -1 0 0
94 30 2 2.288912554104146 -0.48837137838077604 1.3436562476145297 2 -2 1
121 39 2 0.6659815490961348 -2.596988807202822 0.884672461090979 0 2 2
97 31 2 1.790765237297008 -1.2923988059982083 2.0516793455596014 3 2 0
98 31 4 2.142406508730566 -0.994052818882668 1.8584486849586783 3 2 0
99 31 4 1.4391239658634496 -1.5907447931137482 2.2449100061605245 3 2 0
96 30 4 2.575681078903379 -0.11406927905883274 1.1773380236366715 2 -2 1
51 15 4 0.14655201327473105 -1.3152383742005345 1.9197885304532416 -1 0 0
105 33 4 0.2558921808746705 -2.3558856862353617 1.579228006172256 0 0 0
123 39 4 0.5615370358411625 -2.3366220008650354 1.2985570703829405 0 2 2
117 37 4 2.3955373698094564 -0.480866722752552 2.614727306813086 1 -3 1
42 12 4 0.1435630121588215 2.4751800016015024 -1.492330250791246 3 1 1
87 27 4 1.0710597723890467 0.003978123239753328 -2.6226436131743824 -3 -1 3
44 13 4 2.143855666752402 1.6541838431216669 -2.373358655870882 0 -3 3
106 34 2 0.6102810354708031 1.4789509115687203 -0.42470733031480984 -2 0 2
40 12 2 0.5323593793469762 2.6216105043638507 -1.2141297965819742 3 1 1
107 34 4 0.44794108984312386 1.5847160629782537 -0.8856405953332955 -2 0 2
57 17 4 0.062092390193256325 1.630727011015785 -2.416058147256037 2 -1 0
110 35 4 2.248025638181778 2.5568996874834475 -1.105926087482188 0 0 0
114 36 4 0.3111668234722018 1.4067441184341156 -1.224146129420176 1 4 0
73 23 2 0.26649140321958925 0.20627753472951538 2.3295386153413893 -1 1 0
19 5 2 0.028278983126215167 1.1266413346766686 1.5890566639451988 0 -1 -2
100 32 2 1.3859037625078563 1.7732075731011065 0.4123833360304372 2 -1 0
78 24 4 2.4746575321562725 0.8978993752268325 1.1096004722386632 -1 -1 -1
102 32 4 1.092155033709248 2.1741873995100245 0.35828284488478845 2 -1 0
32 9 4 1.1031531473362686 0.4049751658416536 2.626117521160962 -2 -1 1
33 9 4 1.5763560942188255 0.7165658472761436 1.8021088935936505 -2 -1 1
31 9 2 1.339754620777547 0.5607705065588987 2.2141132073773067 -2 -1 1
20 5 4 0.40508718874758454 0.9037596646153989 1.8305920388429406 0 -1 -2
25 7 2 2.6080591818173064 0.3887942907401781 2.5564283052701335 1 -3 -2
75 23 4 0.21431268247168406 0.5811108954013335 2.002770604623532 -1 1 0
45 13 4 1.9097242189191654 1.8011508132206433 1.9246769956449457 0 -3 2
122 39 4 0.7704260623511072 2.4017123864593914 0.47078785179901755 0 1 2
101 32 4 1.6796524913064645 1.3722277466921884 0.466483827176086 2 -1 0
59 18 4 1.2986272799102656 0.11445438681660963 0.016390378501785416 0 0 2
60 18 4 0.7939877484167519 0.9777804254147424 0.013726860043122393 0 0 2
58 18 2 1.0463075141635088 0.546117406115676 0.015058619272453905 0 0 2
108 34 4 0.7726209810984823 1.3731857601591868 0.036225934703675855 -2 0 2
43 13 2 2.0267899428357836 1.7276673281711552 2.4051931698870317 0 -3 2

Velocities

83 -0.017011718395652964 0.08444668941575303 -0.1319731675953083
16 -0.424659909843819 0.13824255183658732 0.22378982810638792
39 -0.3252207483318486 0.740129590881796 -0.6141302104416921
17 0.023107072128229322 -0.7669119846562512 0.1593490611509249
120 0.4701647662871089 -0.18550325623873667 0.14664415715300286
28 0.3700883508591395 0.3719984138184903 -0.3115498574953459
90 -0.38514811014891576 0.10371351747579083 0.073993461951672
80 -0.3756015656651248 0.30042529676869 0.3905440543907571
4 0.020393971028415007 -0.06945294234901311 -0.30676332428871206
29 0.08747216737419683 0.592900535478075 -0.4486192418676247
5 -0.020061712790476464 -0.10600150468138529 -0.17380314063783003
54 -0.1982750950891488 -0.051842820052620704 0.06707282579734024
115 0.12593868472178807 -0.03282155856304093 0.08935517331027605
81 -0.16853337778466504 0.04957017977821204 -0.043363925411595894
1 -0.021245838196129692 -0.09822283334486148 -0.22716005160072913
79 -0.2720674717248948 0.17499773827345097 0.1735900644895807
3 0.018719355968399184 -0.08977128623487507 -0.17958990781208437
35 0.0182500603699143 -0.1290827109504623 0.026771107288949533
2 -0.10525166718311911 -0.1279048711849727 -0.25004869715253286
116 0.04709586708762781 -0.10933401435800251 0.03310506101698921
82 -0.20580454346415744 0.06893700518047183 -0.09280471507235709
88 -0.19457650856297165 0.12061058986159284 0.2644083911984786
104 -0.10163215823411974 0.03720752392402088 -0.06743775034905442
89 -0.004004906977027545 0.1375076622473948 0.4548233204452852
103 -0.1502843774735834 0.1421109704025542 -0.10508785304649168
69 0.22688122535854235 -0.042416234130201756 -0.08473326302471208
30 0.6527045343440818 0.15109629215890583 -0.17448047312306725
112 0.014804881181246995 0.13136872784974887 -0.023915038178102307
71 0.1595897065685697 -0.1532928971851742 0.06666886858656768
10 0.22568860309742406 -0.014921871822387144 0.008072190972051363
70 0.14312507524005008 -0.3088240347348759 0.02464020098441083
72 0.12666044391153053 -0.4643551722845775 -0.01738846661774607
113 -0.0027481158191906465 0.15642079919442248 0.05706832364966212
53 0.23265521887777832 0.11168722234021639 0.23697311112654174
65 0.09868920861876687 -0.07546516843081835 0.054694193672903346
61 0.14149036898399295 0.4444137645455551 0.12737484536286922
62 0.06354613093420944 -0.5435452839751569 -0.1742198949230487
63 0.2194346070337762 1.4323728130662667 0.4289695856487875
56 -0.20192547419137621 -1.2941862232368435 0.6226304499589715
55 -0.0007189701159597758 -0.8041067200412028 0.24071520566297935
8 -0.010563525045697922 -0.26101741305755854 0.24979936638052738
52 0.017190061894314757 0.029922201143797844 0.15202296846194097
15 -0.1873939160479542 -0.23519930986849324 -0.17240348714829554
76 0.08866425446703662 -0.14868332088025352 0.04131780370513898
34 0.03097902962425679 -0.07082628001819892 -0.06397515814175421
22 0.008218309809111998 0.030381683775269893 -0.012666428041828567
26 -0.035249679578194026 -0.004097401744829698 -0.06457417981374267
21 -0.05864097076585351 -0.04640279210702335 0.15430774856365095
9 0.2590575756158383 -0.016372496302800268 -0.01707897231938124
13 0.026526507134190497 0.16496342699337385 -0.016695750945753957
84 -0.39459736853266203 0.05342732094519065 -0.05363626254940591
14 -0.059943049996314536 -0.007767083830618471 0.151712960527701
12 -0.14941299949371975 -0.18520910766796442 0.29895108925423086
36 0.0437079988785993 -0.012569849085935503 -0.154721423572458
23 -0.08038081121164374 -0.04780043741688618 -0.16452383643828805
11 -0.09290524046344188 -0.06636403484873023 0.06318713828634197
7 -0.06436539893225593 0.2280908148574135 0.16948387439923207
6 0.1037581887489312 -0.016910721350737082 0.10178469218901412
24 0.09681743082986771 0.10856380496742603 0.13919098035463087
77 0.17166360491180144 -0.2841092521999186 0.04087345783713121
48 0.7003321127981375 0.7689261931289366 0.9221139317516351
86 0.11786836441178428 0.010209915852906024 0.12191488083561694
93 0.5557248412293496 -0.18716860621446763 -0.7808742043303664
37 0.16206127262322545 0.9708636378019142 -0.2803924889101087
46 0.4371864965920019 0.4259377173938738 0.16928936448344686
92 -0.7411696961630239 -1.369881893114762 0.36480737109955663
91 -0.09272242746683708 -0.7785252496646148 -0.20803341661540495
47 0.1740408803858663 0.08294924165881112 -0.5835352027847414
66 0.36208370062823125 -0.09723908911186624 0.5885426876085337
109 -0.15619630891914613 -0.04000390312850489 0.14236953021077148
18 -0.8724268918158674 1.043397088329426 0.28823059506185095
68 -0.08021959554176086 0.1038137754643102 0.1915272527570468
67 0.07333081490839075 0.030698770667054235 0.0533969948661674
118 0.03551109836705 -0.02774986942552495 -0.021414813246972995
38 0.6493432935782996 1.2015976847220324 0.053345232621474836
119 -0.39914256955300864 0.1300035173876871 -0.1894737836469489
85 0.0803066457383429 -0.06506969124590771 -0.0516294997867053
41 -0.3537394424482557 -0.9918130210535597 0.5952271907161163
111 -0.3221143720817454 0.013556826125903143 -0.24359736079727107
64 0.23038645462349908 -0.08635212877134232 0.3216184406407185
74 -0.5931059620062473 -0.23713256376172756 0.13197452634807252
27 -0.3475701944518664 0.07362450115807373 -0.18120863652875713
50 -0.056074968758641486 0.34607776262512735 -0.152143107875858
95 0.056866626901854705 0.22643608693295306 0.2933653238755729
49 -0.11575315325998645 0.19851034413139867 -0.1487522415031674
94 -0.05734650620866056 0.20124584564951317 0.03974614203994679
121 0.057115818115190536 -0.13305164338369296 0.03352325218625938
97 0.15875491076792586 -0.1592497013788895 0.01959423951691663
98 0.15313054920855357 -0.06766571020880582 0.15076368499237616
99 0.16437927232729818 -0.25083369254897314 -0.1115752059585429
96 -0.1715596393191759 0.17605560436607318 -0.21387303979567923
51 -0.17543133776133138 0.05094292563767003 -0.14536137513047678
105 -0.198936596713047 0.24701441688108747 -0.14273795574392895
123 0.06676399717708117 0.019542127883432403 -0.060035804267150536
117 0.20478150235594833 0.043690897231920656 0.1456052856035629
42 0.34522136811150317 -0.11698045519352879 -0.8420659206153858
87 0.0427449270649015 -0.14034929834472146 -0.22517388040902755
44 0.12095854019988295 -0.09204444824651646 -0.11681736023447632
106 0.12353700207182165 0.15552628001126645 -0.08486780210489803
40 -0.004259037168376258 -0.5543967381235443 -0.12341936494963464
107 0.17140063838923247 0.09733923879017745 -0.11507682019686474
57 0.2004875339594567 -0.31402721684556173 -0.14120003863301286
110 0.009721754243453395 -0.09356463238291296 0.5283364212188141
114 0.03235787818168463 0.10631665650507523 -0.10489840000586675
73 -0.2692093452075457 -0.19450269492121205 0.1291547456889519
19 -0.1087455279361325 -0.07848806439480875 0.20286622250925607
100 -0.012353652468479812 0.03328385180643945 0.1445219154767079
78 0.0056649040222718355 -0.013257389560588473 0.04176214957314675
102 -0.06852840766909576 0.0014890714286191556 0.21387798479674902
32 0.18703086300135296 -0.2098064254237339 -0.21225620703928053
33 0.043942505780742325 -0.025834225269015812 -0.22486021231629755
31 0.11548668439104766 -0.11782032534637486 -0.21855820967778905
20 -0.15885008510641152 -0.11057333668259416 0.2514246964548612
25 -0.1914099370150302 0.034763549706621995 -0.1228914081712499
75 0.054687271591155995 -0.15187282608069663 0.1263349650298314
45 -0.16846449540452538 0.08959253314560774 -0.018529647729832302
122 0.0474676390532999 -0.2856454146508183 0.12708230863966927
101 0.04382110273213616 0.06507863218425974 0.07516584615666673
59 -0.16584369613258534 0.06765337029794541 -0.257230099298662
60 0.27433666217094976 0.32531598577430665 -0.13917748131314364
58 0.054246483019182196 0.19648467803612601 -0.19820379030590282
108 0.07567336575441083 0.21371332123235542 -0.054658784012931304
43 -0.023752977602321222 -0.0012259575504543563 -0.0676735039821543

Bonds

1 1 16 17
2 1 16 18
3 1 28 29
4 1 28 30
5 1 115 116
6 1 115 117
7 1 1 2
8 1 1 3
9 1 1 4
10 1 1 5
11 1 79 80
12 1 79 81
13 1 82 83
14 1 82 84
15 1 88 89
16 1 88 90
17 1 103 104
18 1 103 105
19 1 112 113
20 1 112 114
21 1 70 71
22 1 70 72
23 1 61 62
24 1 61 63
25 1 55 56
26 1 55 57
27 1 52 53
28 1 52 54
29 1 76 77
30 1 76 78
31 1 34 35
32 1 34 36
33 1 22 23
34 1 22 24
35 1 11 12
36 1 11 13
37 1 11 14
38 1 11 15
39 1 6 7
40 1 6 8
41 1 6 9
42 1 6 10
43 1 37 38
44 1 37 39
45 1 46 47
46 1 46 48
47 1 91 92
48 1 91 93
49 1 109 110
50 1 109 111
51 1 67 68
52 1 67 69
53 1 118 119
54 1 118 120
55 1 85 86
56 1 85 87
57 1 64 65
58 1 64 66
59 1 49 50
60 1 49 51
61 1 94 95
62 1 94 96
63 1 121 122
64 1 121 123
65 1 97 98
66 1 97 99
67 1 106 107
68 1 106 108
69 1 40 41
70 1 40 42
71 1 73 74
72 1 73 75
73 1 19 20
74 1 19 21
75 1 100 101
76 1 100 102
77 1 31 32
78 1 31 33
79 1 25 26
80 1 25 27
81 1 58 59
82 1 58 60
83 1 43 44
84 1 43 45
