LAMMPS data file via write_data, version 29 Aug 2024, timestep = 9000000, units = lj

76 atoms
4 atom types
54 bonds
1 bond types

-2.087063 2.087063 xlo xhi
-2.087063 2.087063 ylo yhi
-2.087063 2.087063 zlo zhi

Masses

1 1
2 1
3 1
4 1

Bond Coeffs # zero

1 0

Atoms # bond

9 2 3 -0.9419750907104174 -0.9872524499545464 -1.0510199050247997 1 -1 2
47 13 2 -1.8538920808331834 -0.06789690577003783 -0.7467119569251756 1 -1 2
7 2 3 -1.5175887360938005 -1.4251474745210169 -0.8465281479579178 1 -1 2
74 22 2 -0.27788479528514765 -0.6845084553834514 -1.306086052258943 1 -1 2
10 2 3 -1.5018862043393542 -0.7110422518853873 -0.6301785200383457 1 -1 2
8 2 3 -1.0210136092761497 -1.2048279376698234 -0.32713191663964253 1 -1 2
6 2 1 -1.2461421641285237 -1.078703921797353 -0.7127610991586152 1 -1 2
76 22 4 -0.5828044520748101 -0.8025056042873278 -1.181183387139873 1 -1 2
67 19 4 -1.6342736218586102 -1.8247160227805903 -0.7925633262980962 2 -1 1
48 13 4 -1.6996217078294005 -0.370081556144617 -0.6607754158542489 1 -1 2
13 3 3 -1.8386110844430197 -1.5431843772924385 -2.054712470966956 1 -1 2
11 3 1 -1.598923748155224 -1.665751569051951 1.7414885836710587 1 -1 1
14 3 3 -1.482068181187209 -1.2880472242077947 1.4986219446408247 1 -1 1
53 15 2 -0.5844003040216924 -1.3448986282287128 0.15136794637348971 1 -1 1
40 10 4 -0.7331099766774065 -0.6126175703579884 1.1178448827601688 1 -1 1
38 10 2 -0.9857016982366342 -0.783870863244591 1.2892208783818369 1 -1 1
54 15 4 -0.25896927715527085 -1.43182833982684 0.24643566957163632 1 -1 1
39 10 4 -1.238293419795862 -0.9551241561311936 1.460596874003505 1 -1 1
62 18 2 -0.28846997939706787 -0.056855759670542017 0.8077678325585477 1 -1 1
15 3 3 -1.8486178006625738 -1.9455425719820785 1.4830899094847472 1 -1 1
63 18 4 -0.5216240786450307 -0.2551648222004929 0.977510819813193 1 -1 1
12 3 3 -1.2151586189298906 -1.8827977790373251 1.8726955511730534 1 -1 1
55 15 4 -0.9098313308881139 -1.2579689166305852 0.0563002231753431 1 -1 1
65 19 2 -1.724729105530381 2.0371698918277037 -0.9222704369283083 2 -2 1
5 1 3 -2.0531838380691494 0.6307004298521101 -0.8363527262893451 1 -2 1
49 13 4 -2.0081624538369653 0.2342877446045411 -0.8326484979961025 1 -1 2
56 16 2 -1.8093761904209396 1.267513342637321 -1.6653937007029793 2 -2 2
66 19 4 -1.815184589202152 1.7249298064359975 -1.0519775475585205 2 -2 1
27 6 4 -1.3631819766399618 1.0589072745854085 -0.02559558891484906 1 -2 1
4 1 3 -1.5595513634999434 0.9377414661912471 -0.35786261975201955 1 -2 1
1 1 1 -1.9257561252849689 1.0169957158766627 -0.6315647139212717 1 -2 1
32 8 2 -0.3268175335157398 0.9862714311750269 -1.5357843664982074 1 -2 2
34 8 4 -0.47097645204911065 1.2676075018122788 -1.6860115996010416 1 -2 2
3 1 3 -1.8191902394220498 1.3372721007899258 -0.9499461663286032 1 -2 1
42 11 4 -0.5941972734072296 1.4598251475600932 -2.0318157320264403 1 -2 2
58 16 4 -1.7580160714095676 1.420834562757862 -1.354983099021929 2 -2 2
33 8 4 -0.18265861498236893 0.704935360537775 -1.3855571333953731 1 -2 2
57 16 4 -1.8607363094323115 1.1141921225167801 -1.9758043023840295 2 -2 2
28 6 4 -0.8017672784940064 1.279374966862301 0.3296614073108446 1 -2 1
64 18 4 -0.055315880149105295 0.14145330285940882 0.6380248453039024 1 -1 1
26 6 2 -1.082474627566984 1.1691411207238547 0.15203290919799778 1 -2 1
43 11 4 -0.8834377907481723 2.0454834420672685 1.890627361910147 1 -2 1
41 11 2 -0.7388175320777011 1.7526542948136807 2.0164688149418533 1 -2 1
46 12 4 0.40214453306757925 -0.6232130459018602 -1.576755002743956 0 -1 2
44 12 2 0.691798612607972 -0.7720517550612942 -1.7050030158318645 0 -1 2
45 12 4 0.9814526921483651 -0.9208904642207278 -1.8332510289197728 0 -1 2
75 22 4 0.02703486150451473 -0.5665113064795749 -1.430988717378013 1 -1 2
22 5 3 0.2807677813572201 -0.25067699900353146 -1.466318021730679 1 -1 1
60 17 4 1.3527106860823552 -1.0741568209860266 -1.8554978921870056 1 -1 2
61 17 4 1.9494616887971363 -1.4239421835200372 -1.962915027296197 1 -1 2
59 17 2 1.6510861874397458 -1.249049502253032 -1.9092064597416014 1 -1 2
51 14 4 0.04888840780282294 -1.6504716133057222 0.4038120296106773 1 -1 1
50 14 2 0.2798501502188782 -1.8564798228829884 0.5672662774199512 1 -1 1
52 14 4 0.5108118926349335 -2.0624880324602546 0.730720525229225 1 -1 1
25 5 3 0.7182377634979381 0.20609283027120898 -1.0701093168922728 1 -1 1
24 5 3 0.008030712218367153 0.4053593069767928 -1.2211020835194037 1 -1 1
30 7 4 1.7672615008307613 0.45157730136234775 -0.9815945947960936 0 -2 2
2 1 3 1.9010741565753113 1.1734674468679505 -0.3736843510351684 0 -2 1
36 9 4 1.6629066651257915 1.170395671230181 -0.050726872004577706 0 -1 1
29 7 2 1.4222765508804562 0.44916579666217576 -1.0405824660311527 0 -2 2
31 7 4 1.0772916009301516 0.44675429196200417 -1.0995703372662116 0 -2 2
21 5 1 0.3859997397269958 0.18894383851158272 -1.3811138307538227 1 -1 1
23 5 3 0.5277466027809605 0.38837825570511314 -1.7753646900463345 1 -1 1
68 20 2 0.5565090799021357 0.5462081344907039 0.5141556974257107 1 -1 1
73 21 4 0.48882461438972663 0.8986238210278745 1.4668878607581584 1 -1 1
19 4 3 0.5487198312897102 1.7750656683591264 0.9263463542000494 1 -2 1
17 4 3 1.2714095833692758 1.649914173969117 1.0905310845842826 1 -2 1
18 4 3 0.7461419869932485 1.1917152380581795 1.3716852901862175 1 -2 1
71 21 2 0.49921940828602024 0.6728412694311804 1.7341221917380174 1 -1 1
20 4 3 0.9093084165693042 1.1809294852989616 0.6367292481013597 1 -2 1
69 20 4 0.8007801198122696 0.796409783205213 0.49896379031054844 1 -1 1
16 4 1 0.8677081461879006 1.4471408008043263 1.0038817409448346 1 -2 1
70 20 4 0.31223803999200184 0.29600648577619476 0.5293476045408729 1 -1 1
37 9 4 1.1303214497680518 0.9841084593137475 0.36357985381470603 0 -1 1
72 21 4 0.509614202182314 0.44705871783448636 2.0013565227178765 1 -1 1
35 9 2 1.3966140574469217 1.0772520652719644 0.15642649090506422 0 -1 1

Velocities

9 -0.1241406891438801 -0.13623627828655283 0.1453460440722491
47 0.03372379168597275 -0.13295249365080686 -0.00014854527283879998
7 -0.10799400655121391 -0.12337672743292141 0.21833374968473568
74 0.012633709997386064 -0.1356297673061593 -0.04113333632238279
10 -0.18215796982891863 -0.06135819696321582 0.01901196237742875
8 -0.17025361469988015 0.06107542508269034 0.19961617066663387
6 -0.1464801988286956 -0.06474675621500452 0.14458591229390425
76 -0.11358936669880351 -0.10786847739031902 -0.3230500122524476
67 0.0525146685262373 0.026507978334938023 -0.051589010649653405
48 -0.11886766160827918 -0.27328276736186163 -0.2196746519365954
13 0.2918777366850092 0.13231653986187925 0.3708172195116538
11 -0.030730127223039378 0.004134764630516016 0.20778447955387444
14 -0.16713685555328262 -0.07246387414064981 0.023026604081673396
53 -0.11516970831798576 0.15945825674916358 -0.09717283357649278
40 -0.0689680213086359 0.0014051695226661599 -0.02070926416957777
38 -0.06522928306304544 -0.005664607472171638 -0.022263439008712756
54 -0.1209361039399779 0.11182681010119552 -0.12098768677127987
39 -0.061490544817454994 -0.012734384467009436 -0.02381761384784774
62 0.21564046076448798 0.03720964610786442 0.008878654923660176
15 -0.2817530777388794 -0.019259125536020005 0.4756818981330114
63 0.08568669555635289 -0.03499056879286294 -0.2539729109880101
12 0.04094402953140218 -0.02390739445727966 -0.04824221642389323
55 -0.10940331269599361 0.20708970339713165 -0.07335798038170571
65 -0.05188102634622168 0.10227606166096723 -0.16117953090471976
5 -0.035468938943586846 0.23371818621031754 -0.14945516617149412
49 0.1863152449802245 0.007377780060247863 0.2193775613909176
56 -0.018536330235007076 0.0532239141994041 -0.04176666245528249
66 -0.15627672121868064 0.1780441449869965 -0.2707700511597861
27 0.29150585561228887 -0.0809347091023608 -0.2146930259147837
4 -0.04915315079253535 0.1061922471169623 -0.053506123067737055
1 -0.03706746453072472 0.1805392783238208 -0.04814817240764461
32 -0.12828465127274663 -0.2697123359245459 -0.08371681685146626
34 -0.046034568840191595 -0.16031229101905314 0.04223302218697597
3 -0.019198486394135197 0.2581259200636485 0.03588119681690266
42 0.0505179787049781 0.04494456177213962 0.0718428170843189
58 -0.16886356930120539 0.23991571925911478 -0.10910647087667175
33 -0.21053473370530168 -0.3791123808300387 -0.20966665588990852
57 0.13179090883119124 -0.13346789086030653 0.02557314596610686
28 0.23187903821747505 -0.08768346662655167 -0.11627623171322479
64 0.34559422597262307 0.10940986100859179 0.2717302208353302
26 0.26169244691488197 -0.08430908786445623 -0.16548462881400425
43 0.08990494176763739 0.006323200459645184 -0.06329240803893102
41 0.07021146023630774 0.025633881115892414 0.0042752045226939405
46 -0.028290765550877284 -0.0037662963615404804 0.04718178958432288
44 0.015196173037353508 0.10218030386065564 0.02244233380870879
45 0.0586831116255842 0.20812690408285178 -0.002297121966905253
75 0.1388567866935755 -0.16339105722199962 0.24078333960768195
22 0.18730758190552366 -0.025222917830605998 -0.25262915323147295
60 -0.13688771485153664 -0.14789314172216597 0.1489946515396139
61 -0.07488128427929096 -0.013915430217591784 0.05719325727110569
59 -0.10588449956541379 -0.0809042859698789 0.1030939544053598
51 -0.0014755697659680732 0.25752894709560964 0.33489326237835615
50 0.009723648506336783 0.0790610962498134 0.09413822594985904
52 0.020922866778641625 -0.09940675459598285 -0.14661681047863806
25 0.12009686825628893 -0.2680979637224419 0.10157978067910896
24 0.1059417842206695 -0.23343321399414502 0.213906771015498
30 0.020308472334325686 0.5248897228490925 -0.00213094661633674
2 -0.044592986129022016 0.1220561710435735 -0.022797767557624388
36 -0.17817522168780248 -0.056363579564250046 -0.07082810693049733
29 0.01729947441487042 0.3030593679843696 0.024535619020058658
31 0.014290476495414928 0.08122901311964703 0.051202184656453986
21 0.1364882246367444 -0.07626469028185467 0.07349150965127642
23 0.13370724272719867 0.22687910601072578 0.2258389540813056
68 -0.0726898434124682 0.044742337349827355 0.043847922590879794
73 0.15901401254076034 -0.12497445093231951 -0.09106288487450873
19 0.23811827236414002 0.015731301958115083 0.1024780106779223
17 0.1544802515685575 -0.15297271892329664 0.34203000859045185
18 -0.035796004338351894 -0.10176960114539234 0.06999161833146718
71 0.014464944497441068 -0.161262334544875 -0.11609938807880428
20 0.22843685146554443 -0.0021916258829815308 0.12719219337199283
69 -0.17010154180709597 0.1466300935789301 0.1555934534980008
16 0.14675739269608545 -0.059636369291301075 0.1595889586780412
70 0.024721854982159536 -0.057145418879275406 -0.0678976083162412
37 -0.20734265494109355 0.10553665953324029 -0.035526241143702134
72 -0.13008412354587814 -0.19755021815743054 -0.14113589128309978
35 -0.19275893831444801 0.02458653998449513 -0.053177174037099754

Bonds

1 1 47 48
2 1 47 49
3 1 74 75
4 1 74 76
5 1 6 7
6 1 6 8
7 1 6 9
8 1 6 10
9 1 11 12
10 1 11 13
11 1 11 14
12 1 11 15
13 1 53 54
14 1 53 55
15 1 38 39
16 1 38 40
17 1 62 63
18 1 62 64
19 1 65 66
20 1 65 67
21 1 56 57
22 1 56 58
23 1 1 2
24 1 1 3
25 1 1 4
26 1 1 5
27 1 32 33
28 1 32 34
29 1 26 27
30 1 26 28
31 1 41 42
32 1 41 43
33 1 44 45
34 1 44 46
35 1 59 60
36 1 59 61
37 1 50 51
38 1 50 52
39 1 29 30
40 1 29 31
41 1 21 22
42 1 21 23
43 1 21 24
44 1 21 25
45 1 68 69
46 1 68 70
47 1 71 72
48 1 71 73
49 1 16 17
50 1 16 18
51 1 16 19
52 1 16 20
53 1 35 36
54 1 35 37
