LAMMPS data file via write_data, version 4 Feb 2025, timestep = 4000, units = lj

64 atoms
4 atom types
48 bonds
1 bond types
56 angles
2 angle types

-2.5 2.5 xlo xhi
-2.5 2.5 ylo yhi
-2.5 2.5 zlo zhi
0 0 0 xy xz yz

Masses

1 1
2 1
3 0.1
4 0.1

Bond Coeffs # harmonic/omp

1 100 0.45

Angle Coeffs # harmonic/omp

1 100 180
2 100 109.471

Atoms # full

10 2 3 0 -2.0428296977328233 -1.5212874889795114 -2.184239047409537 -1 -1 2
30 6 3 0 -2.3266788679099086 -1.5018145164518886 -1.7416510784082861 3 1 1
29 6 3 0 -2.1713256778664123 -1.004097426942079 -1.2234577394734094 3 1 1
13 3 3 0 -1.0867819569420933 2.2825412634233135 -1.8715328072311654 -2 -3 1
11 3 1 0 -0.8004887736475261 2.004533564320049 -2.1080021652510625 -2 -3 1
15 3 3 0 -0.9708744973157866 1.5971790855090582 -2.1433079029716366 -2 -3 1
12 3 3 0 -0.3793384055737974 1.9824662120455203 -1.902207999270201 -2 -3 1
14 3 3 0 -0.7543848803301765 2.154846820304453 -2.496547132001697 -2 -3 1
41 9 2 0 -0.30117588532951167 -2.0069080422318164 0.13673382518043997 -1 -1 0
42 9 4 0 -0.32970876139820327 -2.191942280315658 0.5444484844371766 -1 -1 0
43 9 4 0 -0.2792670575739771 -1.8160323693867335 -0.2842646529087749 -1 -1 0
33 7 3 0 -0.03296255535062276 -2.469474656417358 0.5686868017989477 2 1 0
8 2 3 0 -2.305087566507884 -1.513632850479859 2.1545461455504515 -1 -1 1
6 2 1 0 -1.9884177974990134 -1.351106565152373 2.4302643816668814 -1 -1 1
9 2 3 0 -1.5887527094945342 -1.4756179485468028 2.275860877156857 -1 -1 1
7 2 3 0 -2.0129063487468257 -0.9131272144440303 2.45194250550429 -1 -1 1
50 12 2 0 -0.20752288295014676 2.3182323858312275 1.9598030422482164 1 -1 0
51 12 4 0 -0.4758966727098155 2.3466183052406224 2.3357601792109133 1 -1 0
47 11 2 0 0.31510593463579806 -2.4727227775332428 -1.6699604302860938 1 1 1
4 1 3 0 0.2967948856750513 -1.9207476223785518 -1.0487991976893936 1 1 0
49 11 4 0 0.37298443216057864 -2.147894973841902 -1.3800025653035621 1 1 1
60 15 4 0 0.9984436679186275 -1.1025610857684167 -0.8727826001575933 1 0 2
27 6 3 0 2.2063235658957385 -1.4065433581569713 -1.1927072667790515 2 1 1
59 15 2 0 1.4173777468893172 -1.24272327908152 -1.0035283426234498 1 0 2
61 15 4 0 1.8137173422894577 -1.3639350697911907 -1.12570314252896 1 0 2
26 6 1 0 2.494941121813861 -1.2003003072676723 -1.4726609018583683 2 1 1
28 6 3 0 2.2888619571648414 -0.9061418387845233 -1.696102314779866 2 1 1
23 5 3 0 0.8214660579947215 1.415768869311922 -2.2818552129978706 2 0 0
48 11 4 0 0.2627072114490119 2.193276277758603 -1.9740932240702955 1 0 1
21 5 1 0 0.942473622070461 1.8510285604383139 -2.297442304680305 2 0 0
22 5 3 0 0.6313183475762707 2.0936353028890275 -2.0958633176621273 2 0 0
58 14 4 0 1.3780892949721446 1.717488697796206 -1.7537679321189747 1 -1 1
25 5 3 0 1.3359867786765172 1.9120338299228 -2.0922185204753156 2 0 0
56 14 2 0 1.6189384880336286 1.6592865424238088 -1.3909648470894602 1 -1 1
57 14 4 0 1.870438561403474 1.5800330552044404 -1.008557264929787 1 -1 1
2 1 3 0 0.6428054236302132 -2.074292661212486 -0.4192242550142917 1 1 0
55 13 4 0 0.9980640667308331 -2.235482526595119 -0.3387690099210361 2 1 1
1 1 1 0 0.4265261512290519 -1.7515625091590645 -0.6509512753504572 1 1 0
53 13 2 0 1.1911120054843134 -2.2352894770082066 0.08361178038531136 2 1 1
34 7 3 0 0.7311023872804778 -2.493074998819529 0.6482546568996206 2 1 0
5 1 3 0 0.03380001950230982 -1.6069409311294174 -0.41853455965963837 1 1 0
54 13 4 0 1.4039620211485202 -2.226021761592496 0.5204431057357062 2 1 1
18 4 3 0 1.5720552551331632 -2.4571421801448206 0.8320163496304005 2 1 0
19 4 3 0 2.0185547355292233 -1.9369343370622571 0.7815425779776253 2 1 0
3 1 3 0 0.7160912878396468 -1.387390114387809 -0.7233295242567124 1 1 0
37 8 3 0 1.0809210067695663 1.3384965640784174 -0.1912103946536945 1 -1 1
38 8 3 0 1.5937448675482546 0.8310162593154713 -0.31002477051101085 1 -1 1
36 8 1 0 1.5188139380183072 1.2621296698850442 -0.2764175902753072 1 -1 1
64 16 4 0 2.0603809074713926 1.3063280710169067 0.3448538490665438 3 1 1
40 8 3 0 1.7729130996364004 1.4211295473121925 0.06818126857002271 1 -1 1
39 8 3 0 1.6540714896615674 1.4819578862579146 -0.6885580132516811 1 -1 1
35 7 3 0 0.29059742553206425 1.8674754041980215 0.7282288109232864 2 0 0
31 7 1 0 0.3124754319848537 2.334430662934592 0.8021166633924404 2 0 0
63 16 4 0 2.4663370414102594 2.066871955768079 0.712604172338005 3 1 1
62 16 2 0 2.256209486091472 1.6657540975885299 0.5204086020790011 3 1 1
20 4 3 0 2.236568096452584 2.391680677959852 0.6999010113231567 2 0 0
17 4 3 0 2.038343558232131 -2.3814405911760814 1.369009943414845 2 1 0
16 4 1 0 1.9619615447291574 -2.347036720023885 0.9122280933166227 2 1 0
46 10 4 0 1.9829974881105201 -2.4569393287356673 1.742429935718083 2 2 0
32 7 3 0 0.27019787306549015 2.4211159545818166 1.2541248813826797 2 0 0
24 5 3 0 0.9676669676646825 1.9855953856211386 2.2506935360736797 2 0 -1
52 12 4 0 0.054706539318052805 2.2989497649332886 1.5908694016515046 1 -1 0
44 10 2 0 1.6460997670772928 2.2788516634437155 1.9106869932501223 2 1 0
45 10 4 0 1.3210123400284122 2.019082614395833 2.071104519540963 2 1 0

Velocities

10 0.683938536351454 0.7174991244479465 0.7707954009449043
30 0.2593900268033682 -0.3288993183094783 0.6115688860526773
29 0.034534102545542456 -1.0535431818738648 0.031893276349680894
13 0.6134883255228804 0.3050075016946114 0.48433865010711663
11 0.8399956804225724 -0.2439695671651462 0.03607393398126367
15 0.5321869739421365 0.8912097418334465 -1.134901295864898
12 1.7855734315029288 1.193872584284678 0.23042002972735437
14 1.270036885025361 0.6878634893402125 -0.19332272963807548
41 0.15770311366917386 -0.3786609329857968 -0.14999936563389427
42 -0.2654143645439178 -1.0636433334985604 1.1515355591520584
43 -0.2699790615571797 -0.6106614899965722 -0.9764875588696156
33 2.727141908439497 -0.9751709247569285 -1.4093548297113867
8 0.024330491829165468 -0.020228485036631716 -0.7442344752968715
6 0.2036494051853362 0.2575035741637911 0.09213317260431327
9 0.00951823066798202 0.45974529999790903 -0.16556825039660134
7 0.08278650181964309 -0.7830099189509145 -0.41994539940032716
50 1.4008362868047628 0.24970961749655532 0.29993912706734954
51 0.11201075219141354 -0.04138944782235733 -0.12931206814608065
47 0.6805314037276844 0.0809648006311273 0.17022437803875365
4 0.583387135418173 -0.7484523670678128 -0.11505175860059655
49 -1.2181992460012823 -0.4957472054566876 0.13938094380030486
60 0.3099721075020847 -1.2352833202731974 0.4866102790060073
27 0.6345710189947134 0.0315049060500067 -0.31457997831087314
59 0.5119748706244954 -0.06527273310726589 0.2577920230314005
61 -0.6347606079399504 1.0346663578868538 -1.0950325183610283
26 0.5805277867182724 0.1340271798320485 -0.08992848580306509
28 0.6502173974724434 -1.0750438679029792 -0.44790661246706276
23 1.3652167054659212 0.5260221551975827 -0.3104188768563271
48 0.8979130225949128 -0.6380117945387549 -2.0159509004199796
21 0.6595558040184014 0.05377204425122696 -0.12445913367984969
22 1.9602154837202286 -0.22190113166109351 -0.5639880575783623
58 1.1636792285335242 -1.5955798888920723 0.3964088725143589
25 1.79958324036389 0.5677390200921142 -0.13352477290215786
56 0.9377258049399086 0.07339091546173794 -0.16737731482847956
57 0.604614758372981 0.11722371451598251 0.3940128025365223
2 0.6146179637208414 1.2218906393788578 0.5548715508852613
55 0.6557977136187935 -0.9037529340831487 -0.4801822892367158
1 0.4489129538669082 0.3234994665256825 -0.28226113200037556
53 0.1479610492848426 -0.3291931031678692 -0.04233206674703135
34 0.26887479240137524 0.45705040626725074 -0.6134845823369213
5 -0.7575989060186674 0.4105486909770208 0.7076489935640017
54 0.7607990343838271 -0.16588453083265192 -0.46934039605321265
18 -0.3811111788087746 0.25713522126292515 -0.19178561014633833
19 0.8239197025202661 0.8584079093180386 0.8740451331085753
3 0.4707955786720415 -1.4336745055976978 0.21652018221278369
37 0.891445931283807 0.39467641475648635 0.1357598905087935
38 1.3980874648588142 -1.1084624810139556 0.11508544197606166
36 1.138360908786732 0.08088914266507487 -0.15285189230886134
64 1.9194615172347314 0.7779346022334915 -0.3056171050842912
40 1.1120013049359034 -0.06180859907837245 -0.6441475225561314
39 0.9404957831514004 0.9648987008221457 -0.706828082233624
35 0.8155566820910196 0.41142468046906777 -0.6173451667813211
31 0.5099926712522271 0.2240161912246717 0.15395260180425266
63 1.5692528684943072 -0.38938155309517075 0.25424525971333567
62 0.5929925251267826 -0.005578447668334685 0.0070894257713401895
20 0.6116238968223696 -0.2864444800227912 -1.0116175273556245
17 0.875147969773298 1.537992854801424 0.973386227179757
16 0.12698341028626278 -0.16324331180942836 0.2828058879814695
46 -0.3212405453994054 1.2020586145587102 -0.16927858822748432
32 1.5783559926044597 0.13099310268259992 0.017770138567498553
24 0.8942815829409444 -0.04802897427086644 0.44410357651425486
52 1.3558907898188435 0.17846371087274185 0.7482513907073679
44 1.1249789799322534 -0.06164142008411843 0.1381158081426183
45 0.9754185093693933 -0.9018625638456826 -1.0476952363282925

Bonds

1 1 11 12
2 1 11 13
3 1 11 14
4 1 11 15
5 1 41 42
6 1 41 43
7 1 6 7
8 1 6 8
9 1 6 9
10 1 6 10
11 1 50 51
12 1 50 52
13 1 47 48
14 1 47 49
15 1 59 60
16 1 59 61
17 1 26 27
18 1 26 28
19 1 26 29
20 1 26 30
21 1 21 22
22 1 21 23
23 1 21 24
24 1 21 25
25 1 56 57
26 1 56 58
27 1 1 2
28 1 1 3
29 1 1 4
30 1 1 5
31 1 53 54
32 1 53 55
33 1 36 37
34 1 36 38
35 1 36 39
36 1 36 40
37 1 31 32
38 1 31 33
39 1 31 34
40 1 31 35
41 1 62 63
42 1 62 64
43 1 16 17
44 1 16 18
45 1 16 19
46 1 16 20
47 1 44 45
48 1 44 46

Angles

1 2 12 11 13
2 2 12 11 14
3 2 12 11 15
4 2 13 11 14
5 2 13 11 15
6 2 14 11 15
7 1 42 41 43
8 2 7 6 8
9 2 7 6 9
10 2 7 6 10
11 2 8 6 9
12 2 8 6 10
13 2 9 6 10
14 1 51 50 52
15 1 48 47 49
16 1 60 59 61
17 2 27 26 28
18 2 27 26 29
19 2 27 26 30
20 2 28 26 29
21 2 28 26 30
22 2 29 26 30
23 2 22 21 23
24 2 22 21 24
25 2 22 21 25
26 2 23 21 24
27 2 23 21 25
28 2 24 21 25
29 1 57 56 58
30 2 2 1 3
31 2 2 1 4
32 2 2 1 5
33 2 3 1 4
34 2 3 1 5
35 2 4 1 5
36 1 54 53 55
37 2 37 36 38
38 2 37 36 39
39 2 37 36 40
40 2 38 36 39
41 2 38 36 40
42 2 39 36 40
43 2 32 31 33
44 2 32 31 34
45 2 32 31 35
46 2 33 31 34
47 2 33 31 35
48 2 34 31 35
49 1 63 62 64
50 2 17 16 18
51 2 17 16 19
52 2 17 16 20
53 2 18 16 19
54 2 18 16 20
55 2 19 16 20
56 1 45 44 46
