LAMMPS data file via write_data, version 19 Nov 2024, timestep = 1500000, units = lj

400 atoms
4 atom types
300 bonds
1 bond types
350 angles
2 angle types

-5 5 xlo xhi
-5 5 ylo yhi
-5 5 zlo zhi

Masses

1 1
2 1
3 1
4 1

Bond Coeffs # harmonic/omp

1 100 0.45

Angle Coeffs # harmonic/omp

1 100 180
2 100 109.471

Atoms # full

149 30 3 0 -2.733811178583006 -4.44243470450622 -4.9370999727337015 -1 0 1
72 15 3 0 2.9887995111917602 -4.583672549347912 -4.5136491750338745 0 -1 0
71 15 1 0 3.0538654038467756 -4.428805116350914 -4.071074291887765 0 -1 0
73 15 3 0 2.6669163064195303 -4.504114101846411 -3.829324200021871 0 -1 0
372 91 4 0 3.119414318486887 -4.500131285250513 -4.885999777324126 2 1 2
75 15 3 0 3.1286668106674385 -3.9651921653473416 -4.0700863792748825 0 -1 0
337 79 4 0 2.316318636564447 -4.674880238150795 -3.7863288285040686 -1 1 0
335 79 2 0 1.9839164907685642 -4.983404635475553 -3.8556215304274675 -1 1 0
378 93 4 0 3.183315002287569 -3.611480330970073 -4.268623377747426 -1 -1 0
344 82 2 0 4.216630858011654 -4.923950316761004 -4.590847911574046 -1 1 0
160 32 3 0 3.3671565710497564 -3.633878076345421 -4.660109528561044 0 1 1
156 32 1 0 3.5555371394606805 -3.9255254302212874 -4.895282485782208 0 1 1
384 95 4 0 4.083871397680875 -4.2366137164737765 -4.3685555426678855 -3 0 0
383 95 2 0 4.232349056245687 -4.032733797732093 -3.973966913061955 -3 0 0
158 32 3 0 3.825378545654523 -4.175206326757135 -4.634336103517353 0 1 1
346 82 4 0 4.063461931064043 -4.491737505317284 -4.7022814729537865 -1 1 0
74 15 3 0 3.3711276517840005 -4.611153997982312 -3.8955885054178245 0 -1 0
385 95 4 0 4.372499394107924 -3.8308399360570067 -3.599770195554129 -3 0 0
253 51 4 0 -4.979835345943054 -2.9303001801621615 -3.9221174876068376 0 -1 1
252 51 4 0 -4.267869352371129 -2.44453613310757 -4.0504347956645095 0 -1 1
251 51 2 0 -4.621701324770269 -2.6885062908311586 -3.9896754849987217 0 -1 1
377 93 2 0 3.3320059451544632 -3.2620423150769344 -4.031249923767966 -1 -1 0
270 57 4 0 4.657404756294067 -2.900690493970408 -3.742836258809507 0 -1 1
269 57 2 0 4.2619729331599885 -2.7892244366345738 -3.7509461727485616 0 -1 1
271 57 4 0 3.801950505603171 -2.666944766280182 -3.748615686346902 0 -1 1
379 93 4 0 3.490742783563983 -2.8888688003976433 -3.7748927570326067 -1 -1 0
259 53 4 0 -0.2360096083155683 -3.883585689418519 -1.728005527413683 0 0 -1
119 24 3 0 1.4921807105846276 -0.3012237036150168 -2.5748705853149274 0 -1 2
208 42 3 0 -3.134367403156201 -3.7206191830144624 -1.180173216568662 0 -1 0
210 42 3 0 -2.923646217171079 -3.547134794015455 -0.4936818635799711 0 -1 0
206 42 1 0 -3.0372424789912347 -3.379057880254538 -0.898420165287782 0 -1 0
257 53 2 0 -0.22065697285165 -3.9258530026940046 -1.293943086157652 0 0 -1
258 53 4 0 -0.2103734430732787 -3.965728550868642 -0.8314660721454925 0 0 -1
219 44 3 0 0.07702004198957048 -3.8923041823376767 -0.5436793575739616 1 1 0
275 59 2 0 1.3486284943993918 -4.452865737512457 -0.5361387703733997 -1 0 0
276 59 4 0 1.1691052611248187 -4.095042947086583 -0.3202999835794719 -1 0 0
220 44 3 0 0.7844297152090303 -4.000001711674172 -0.3770756411218002 1 1 0
216 44 1 0 0.40878965551549423 -3.868628293061379 -0.21301857912244096 1 1 0
277 59 4 0 1.5189009664264763 -4.783968798531171 -0.7215390690030092 -1 0 0
69 14 3 0 1.3855633439737813 -3.7400013080792776 -0.22441883482785166 0 -1 1
217 44 3 0 0.45806554582424297 -3.4309285245690417 -0.06410278195299493 1 1 0
188 38 3 0 2.2602089020223737 -4.480705433861201 -0.17539224311942486 -1 0 1
207 42 3 0 -3.380233582878975 -3.1174057545608687 -0.8491999438786941 0 -1 0
209 42 3 0 -2.703929885586956 -3.14088778543396 -1.0659119732025801 0 -1 0
70 14 3 0 0.9555677172276179 -3.1480331611601593 -0.04214788249944722 0 -1 1
293 65 2 0 1.4773043557984502 -0.628724676108928 -0.2941962766006754 -1 -1 1
131 27 1 0 2.4073582209684576 -0.09776401261074708 -0.7137756752119453 -1 0 0
295 65 4 0 1.7968026707362135 -0.5494934516135521 -0.5996155668172748 -1 -1 1
132 27 3 0 2.1731477769145506 -0.4568498677165356 -0.6410496479044259 -1 0 0
134 27 3 0 2.8480388800291663 -0.17559219128731288 -0.5812897343757947 -1 0 0
135 27 3 0 2.3965364446867166 -0.0025553193600940482 -1.150121637879605 -1 0 0
303 68 4 0 -1.7369679447962312 -4.435350728687032 1.4087700660758524 1 -1 1
230 46 3 0 -2.707202184049675 -4.531522050101676 1.2095882909205025 -1 1 1
229 46 3 0 -2.005620401998272 -4.690773265065647 1.3285917651341403 -1 1 1
226 46 1 0 -2.4478075775572745 -4.854691747353744 1.246476305335376 -1 1 1
302 68 2 0 -1.502347378792228 -4.061356601034554 1.2989878773111019 1 -1 1
304 68 4 0 -1.2812517502668639 -3.7045112947409624 1.185922715556412 1 -1 1
12 3 3 0 -0.962915977284796 -3.572544472993525 1.0130292731507473 0 1 0
11 3 1 0 -0.6350065968323152 -3.6669874717157716 0.717848086004956 0 1 0
14 3 3 0 -0.4347418205400931 -4.056349686834296 0.8290299805083887 0 1 0
15 3 3 0 -0.8300297011533924 -3.691647495604474 0.27806293163720613 0 1 0
355 85 4 0 -0.11903877462606434 -4.108904720615204 1.110473464370527 1 0 2
44 9 3 0 0.04029758427363127 -3.923045502576109 1.4145309629438805 -1 -2 0
353 85 2 0 0.06354425346475394 -4.484813391801466 1.031526244583905 1 0 2
41 9 1 0 0.15045688922504705 -3.480079809321775 1.444550930991207 -1 -2 0
66 14 1 0 1.3278422084420738 -3.440746172631074 0.08028860520593506 0 -1 1
67 14 3 0 1.2307208331210526 -3.63463414862519 0.4675133735327683 0 -1 1
43 9 3 0 0.5998979776609574 -3.4256261493421083 1.4870083598773705 -1 -2 0
218 44 3 0 0.2968062824786166 -4.141209781170628 0.13670065508673157 1 1 0
354 85 4 0 0.25321760924924774 -4.891443740396784 0.9550691211737321 1 0 2
187 38 3 0 2.2859565783000297 -4.604200218442734 0.5634103776258429 -1 0 1
177 36 3 0 2.544078303102262 -4.630440692254446 1.4419337055567878 -1 1 0
189 38 3 0 2.3919889195265696 -3.9158604281291094 0.29243934629752333 -1 0 1
186 38 1 0 2.463219297436846 -4.3504439326667645 0.22279023463255554 -1 0 1
190 38 3 0 2.9278958970029563 -4.436670663194376 0.19422366896573715 -1 0 1
391 97 4 0 4.71019513026634 -4.960005492040009 1.1002036422248578 0 0 0
389 97 2 0 4.38943534185026 -4.875329860269194 1.391315082554615 0 0 0
313 71 4 0 -3.5843598663045086 -2.4503782337952034 1.5987187845901547 1 -2 0
13 3 3 0 -0.28558982629521423 -3.287839941582798 0.7216763833781297 0 1 0
397 99 4 0 0.026325019706778165 -3.0014747945683613 0.7705737754123386 -1 -1 1
45 9 3 0 -0.0005201279549913184 -3.2497872807489934 1.0811550434518102 -1 -2 0
395 99 2 0 0.3237087240088966 -3.066453908969966 0.44465690187912743 -1 -1 1
396 99 4 0 0.6177073497796146 -3.1319305958036883 0.13273931436952183 -1 -1 1
68 14 3 0 1.686844364720655 -3.2066330021261473 0.1281871155423373 0 -1 1
20 4 3 0 0.7080566077159378 -0.4553229857390484 0.9712002520832087 -1 -1 0
16 4 1 0 0.9704243759542907 -0.21281427882019263 0.6948490777613281 -1 -1 0
17 4 3 0 0.955544154223897 -0.41915899243684956 0.2466357803202431 -1 -1 0
18 4 3 0 1.3815015878599577 -0.21506760197821784 0.8432384804211486 -1 -1 0
294 65 4 0 1.1560135018851654 -0.7141054616399801 0.026165939292671855 -1 -1 1
326 76 2 0 1.9224163695209693 -0.3725926383278027 1.2038914513915777 -2 0 0
327 76 4 0 1.662685758956646 -0.5230434690292973 0.82412180162334 -2 0 0
328 76 4 0 2.1604650652548614 -0.2390945788436243 1.5538758956575016 -2 0 0
98 20 3 0 -1.9491342305749733 -4.48536450737865 2.4522510434328213 0 0 1
96 20 1 0 -1.7823407872268293 -4.722613087872682 2.1452899938905508 0 0 1
100 20 3 0 -1.4155948760916415 -4.917331550040952 2.2945598865095453 0 0 1
97 20 3 0 -1.6866098537463063 -4.476088319499503 1.8067767477852439 0 0 1
360 87 4 0 -0.9360705120080683 -4.016150037571813 3.0228019840671254 -1 0 -1
334 78 4 0 -0.39101202121369205 -3.4685883389200223 2.01409896106825 0 0 0
332 78 2 0 -0.5223772328378906 -3.6857789533370036 2.394926275798411 0 0 0
333 78 4 0 -0.6417861635122868 -3.897723629154156 2.7667241195610566 0 0 0
359 87 2 0 -1.1787994876257557 -4.291811528663684 3.2937922201673198 -1 0 -1
42 9 3 0 -0.059836554282403843 -3.316099413620898 1.8266184349671084 -1 -2 0
175 35 3 0 3.091610388500893 -4.835039086838127 2.16405823704375 -1 1 0
174 35 3 0 3.778964274890523 -4.908126122198274 2.4789080327616526 -1 1 0
390 97 4 0 4.051375599261883 -4.789479856295835 1.6988525828618204 0 0 0
155 31 3 0 4.962457470908457 -3.6228997613849656 2.0367206818069263 -1 -1 -1
310 70 4 0 4.692392626265603 -3.430554945644036 2.9067090217267655 0 0 1
172 35 3 0 3.6658027988857085 -4.964517087441834 1.7159663203041273 -1 1 0
311 71 2 0 -3.904152552051519 -2.6997759761186537 1.8484361815513985 1 -2 0
152 31 3 0 -4.573468252103512 -3.093987937584832 2.1327846496559815 0 -1 -1
312 71 4 0 -4.190306223971969 -2.9301699531023093 2.083313531481483 1 -2 0
151 31 1 0 -4.972083170798507 -3.2484507370305837 2.246541532653409 0 -1 -1
223 45 3 0 1.0061643023583797 -2.556609390793292 3.1379884012573145 0 1 0
309 70 4 0 3.9899652074212 -3.058718929022901 3.358334179745393 0 0 1
308 70 2 0 4.349568156261047 -3.2433952007904567 3.130576930547213 0 0 1
153 31 3 0 -4.977049417293287 -3.3194653643989236 2.6955302350538544 0 -1 -1
154 31 3 0 4.689128154435941 -2.9433027110464254 2.122977671424437 -1 -1 -1
77 16 3 0 0.9115313605002439 -1.2396541343243337 2.0269030401844876 -1 -1 -1
76 16 1 0 1.1834935313055983 -0.9787344212161726 2.2454260866606264 -1 -1 -1
79 16 3 0 0.953623986540918 -0.5870158617602613 2.3811713943235953 -1 -1 -1
394 98 4 0 0.9460905358359147 -0.16001805140129582 2.3954562045787315 -2 0 1
80 16 3 0 1.3566507599055715 -1.2041263343737671 2.613420131674245 -1 -1 -1
78 16 3 0 1.5153794569766221 -0.8723450632575436 1.9797947882121005 -1 -1 -1
400 100 4 0 -4.896831768510374 -4.042333411080613 4.883102317023081 0 -1 0
146 30 1 0 -2.721496473318248 -4.868520708922987 4.893717936930893 -1 0 0
147 30 3 0 -2.3206270659589885 -4.946057625722231 4.754409690005111 -1 0 0
150 30 3 0 -3.0069025399932103 -4.898528356964155 4.552569924524732 -1 0 0
320 74 2 0 -1.8203440561940154 -4.891278748336579 4.257465032171888 -1 -1 0
321 74 4 0 -1.640305805460366 -4.643454398991464 3.9001254294859162 -1 -1 0
361 87 4 0 -1.4146298965818758 -4.564463061174794 3.5459803227539752 -1 0 -1
157 32 3 0 3.2457179478973095 -4.1777827523458635 4.9033338107018185 0 1 0
371 91 2 0 3.1923623454387164 -4.903772381201127 4.914999591052701 2 1 1
398 100 2 0 4.665226675042556 -3.918054218069586 4.8369028171387995 -1 -1 0
399 100 4 0 4.2318047088160835 -3.810613806385033 4.789117359887261 -1 -1 0
159 32 3 0 3.803216708598655 -3.7336813018030357 4.792480546356832 0 1 0
222 45 3 0 1.5139388267432379 -2.907017003667321 3.5076101672438527 0 1 0
221 45 1 0 1.0661256862750557 -2.829472897313808 3.456571898052154 0 1 0
225 45 3 0 0.8855559852070236 -2.652362746352949 3.854942344106047 0 1 0
224 45 3 0 0.860331875198555 -3.2187088382713673 3.357603917014658 0 1 0
362 88 2 0 0.6812408676096494 0.3525302552716853 -3.6434775237787123 -1 0 1
363 88 4 0 0.6063563064430861 0.5251650665066295 -4.061290568496424 -1 0 1
22 5 3 0 2.2405475445976664 1.1134778373917178 -3.5062219647286756 0 -2 0
369 90 4 0 2.4737821997690324 1.2971135193046135 -3.787229835094413 -2 -1 0
60 12 3 0 2.739156766548751 1.38219604146834 -3.493945421042218 0 -2 -1
370 90 4 0 2.3057210963589343 0.7855073394754617 -4.5204050272137 -2 -1 0
368 90 2 0 2.3892382265566225 1.0348778638311082 -4.154065698356061 -2 -1 0
168 34 3 0 2.233514854279691 0.8810723660814924 -4.9068622122903545 -1 0 0
289 63 4 0 1.3696629181063005 2.962636878931326 -4.473112091816716 -2 -1 -1
83 17 3 0 1.6191928342660153 2.725878001511401 -4.72219015226274 -2 -1 0
81 17 1 0 1.4323617771449413 2.355657313362505 -4.976753997103898 -2 -1 0
84 17 3 0 1.233663408089445 2.0444512417666596 -4.688475287162007 -2 -1 0
264 55 4 0 1.2738853221578879 2.148114197714734 -4.3147842333912445 -1 0 0
297 66 4 0 0.9201655378500143 2.2259107034945895 -4.515059655381184 -1 0 0
296 66 2 0 0.5168360374283304 2.343429999778376 -4.376303486463042 -1 0 0
298 66 4 0 0.10534718399728474 2.4549632046215253 -4.241518448192218 -1 0 0
263 55 2 0 1.525208950454661 2.2152692266170297 -3.9239537682656946 -1 0 0
287 63 2 0 1.3891598900521716 3.285563987179395 -4.175603262187907 -2 -1 -1
265 55 4 0 1.7777300817982011 2.2856330793836297 -3.510809922676017 -1 0 0
197 40 3 0 -4.59599166257775 4.424396695985371 -4.119250152019102 -1 -1 1
315 72 4 0 -2.8176926210999103 4.405907008820796 -4.7173377412004935 0 -1 1
314 72 2 0 -2.448372435560226 4.139177418758179 -4.718223184087437 0 -1 1
148 30 3 0 -2.829869847195705 4.829514170510475 -4.78250719936965 -1 -1 1
316 72 4 0 -2.073901869668579 3.860642528065914 -4.718786554533661 0 -1 1
348 83 4 0 -1.678853802017776 3.841515237661876 -4.667539847287475 0 0 2
48 10 3 0 0.8428954280309495 4.309753728315495 -3.3614850137563854 -1 0 0
46 10 1 0 1.253495059213371 4.2160297324427445 -3.435179652871308 -1 0 0
288 63 4 0 1.4121927802883514 3.609972649542403 -3.8884997737756044 -2 -1 -1
50 10 3 0 1.2904332803575462 3.823121420740893 -3.5767394096410965 -1 0 0
49 10 3 0 1.4234006671978228 4.491362955688219 -3.743850642276733 -1 0 0
336 79 4 0 1.6874011640412314 4.7314239012740344 -3.919640949719786 -1 0 0
374 92 2 0 3.8704632230875946 3.5149027536468327 -4.55512472009949 -2 -1 1
376 92 4 0 3.7687563138768523 3.518737712500759 -4.113196041252277 -2 -1 1
123 25 3 0 3.6479145789849032 3.8752340440895265 -3.9950275612805535 -1 -1 2
200 40 3 0 4.921200418122696 3.8756635843585454 -4.191605215803089 -2 -1 1
199 40 3 0 4.706371272996478 4.59413300247451 -4.282843615650689 -2 -1 1
345 82 4 0 4.36118603058903 4.659982595586751 -4.460978519265739 -1 0 0
121 25 1 0 3.7194025637768653 4.333843773768213 -3.9274328100768936 -1 -1 2
124 25 3 0 3.30440272683643 4.579161145068467 -3.9882942937203203 -1 -1 2
196 40 1 0 4.987792951072773 4.313261912728769 -4.051864461690715 -2 -1 1
125 25 3 0 4.027401570935818 4.491954801358455 -4.22009369650609 -1 -1 2
198 40 3 0 4.900778814830368 4.341102230347774 -3.633001485096279 -2 -1 1
122 25 3 0 3.8826163741872946 4.391998841365187 -3.4863287492179396 -1 -1 2
364 88 4 0 0.7512352567317414 0.18599914503934548 -3.2256015487751495 -1 0 1
116 24 1 0 1.4556441820057795 0.0654071762715728 -2.8060249308234013 0 -1 2
120 24 3 0 1.0467038917242752 0.09473838993955713 -2.9836810637408546 0 -1 2
117 24 3 0 1.5369431344767381 0.42837862124542875 -2.545143510056764 0 -1 2
331 77 4 0 1.5725661298931388 0.563780286106899 -2.1550176111075783 0 -1 1
185 37 3 0 0.7116325851225255 1.3565335548284847 -1.6864800155579847 0 -1 0
340 80 4 0 0.13810875497931666 0.8026503352699256 -2.382994561946242 -1 0 1
182 37 3 0 0.21147745747401558 1.0830270899310244 -2.136458758267607 0 -1 0
330 77 4 0 1.069144504347218 1.2723429036615297 -1.839119865228116 0 -1 1
329 77 2 0 1.3092771284008256 0.9273442707774435 -1.9990434361428955 0 -1 1
338 80 2 0 0.4421546556582771 0.5676097572934381 -2.616691003754775 -1 0 1
339 80 4 0 0.7561067842585165 0.32906954913243935 -2.8522898911721253 -1 0 1
181 37 1 0 0.28536850070751 1.2853520571865065 -1.737735344959294 0 -1 0
23 5 3 0 1.6375269155434973 1.341174036117987 -3.1233384109650677 0 -2 0
118 24 3 0 1.7546175095871268 0.06365393042234617 -3.137967256564016 0 -1 2
56 12 1 0 3.009866199575935 1.5403288474421506 -3.1740451913441357 0 -2 -1
243 49 3 0 3.1492705673426147 0.09099304229900602 -1.6832785607554364 -1 0 0
24 5 3 0 1.8730840756200173 0.6727692831484763 -3.0717603110467198 0 -2 0
242 49 3 0 2.5565925204295636 0.5413655406959037 -1.6866382671965492 -1 0 0
21 5 1 0 1.9987086032518406 1.0765612528244362 -3.1104639139968566 0 -2 0
25 5 3 0 2.25275752181206 1.1928332822533214 -2.7662631476988304 0 -2 0
57 12 3 0 2.8772052788930664 1.3965105996087432 -2.7843608859064846 0 -2 -1
318 73 4 0 2.58055011727717 1.260268905509025 -2.5531458787228956 0 -2 -1
317 73 2 0 2.7745889800780983 1.4001612902633815 -2.140818152646657 0 -2 -1
244 49 3 0 3.248824822872728 0.8175137618130908 -1.7461686449764806 -1 0 0
319 73 4 0 2.980361646235766 1.542438976404117 -1.753534847794679 0 -2 -1
59 12 3 0 3.4482885664937886 1.3917850541772767 -3.252289700525596 0 -2 -1
27 6 3 0 3.377368439145807 1.5781325955842223 -1.8696350141853044 -1 -2 -1
183 37 3 0 0.058220603320956604 1.6862036217621703 -1.7392902277885518 0 -1 0
58 12 3 0 2.996523397422398 1.9914796924042215 -3.1746433211446696 0 -2 -1
51 11 1 0 2.2227433835923684 2.6160791136591337 -2.954129666148635 1 -1 1
53 11 3 0 2.1389559851117417 2.559776316889558 -2.514760238776307 1 -1 1
54 11 3 0 1.9166886452099439 2.439046242974539 -3.1712900437652736 1 -1 1
55 11 3 0 2.5900615838626853 2.4476738523899084 -3.0501306733362767 1 -1 1
52 11 3 0 2.2299713997874067 3.0537408288440555 -3.0510829044243826 1 -1 1
29 6 3 0 4.068521019082068 1.7903212164633606 -1.823703180009414 -1 -2 -1
47 10 3 0 1.4778143560464865 4.2566455771903104 -3.0642453780946872 -1 0 0
341 81 2 0 3.2401688490699443 4.545698703435057 -1.8819940186958066 -1 -2 1
343 81 4 0 3.285071318607467 4.560748798287527 -2.3436208620620946 -1 -2 1
255 52 4 0 1.0355222702515852 1.5282921620615206 -1.5281389827325842 -1 -1 0
184 37 3 0 0.13903947402971872 1.0263324442001815 -1.4045656891184175 0 -1 0
286 62 4 0 1.1787180195550138 0.794210353140488 -0.2107992692029202 -1 0 0
284 62 2 0 1.5389145109359494 0.5908279059532334 -0.39704376949452497 -1 0 0
324 75 4 0 0.8681481943523952 1.0225760995174202 -0.10054800544441694 0 -1 0
283 61 4 0 1.197769653672426 1.1993959364763342 -0.2358371086932499 0 -2 0
281 61 2 0 1.3023893452301458 1.6539146073044502 -0.22388098219064706 0 -2 0
241 49 1 0 3.0016082159331585 0.496979727733971 -1.554630555202239 -1 0 0
245 49 3 0 3.0256507344562302 0.5281421674807142 -1.1293163956187648 -1 0 0
342 81 4 0 3.194288571927342 4.529914660130914 -1.4324885246939083 -1 -2 1
285 62 4 0 1.8909259985911833 0.37419765810370204 -0.5923544757741102 -1 0 0
133 27 3 0 2.239627331171504 0.2364937141806938 -0.47898707902389676 -1 0 0
37 8 3 0 2.180453618906673 0.6519531780432869 -0.5349558815164251 -1 -2 -1
36 8 1 0 2.4808106891630377 0.9891728893489816 -0.7047157831153833 -1 -2 -1
40 8 3 0 2.4093560279988773 1.0477397211009627 -1.141227721403964 -1 -2 -1
39 8 3 0 2.9032315711864363 0.8579556300475659 -0.6419857601569833 -1 -2 -1
38 8 3 0 2.4030263125540365 1.368132987472613 -0.4953284017448529 -1 -2 -1
357 86 4 0 2.2511740061523327 0.4618792423629136 -0.14433915905013475 -1 0 -1
28 6 3 0 3.8713769426056004 1.1446369556676788 -1.560048735548485 -1 -2 -1
26 6 1 0 3.7414199152337426 1.5742264179388592 -1.6162776626164077 -1 -2 -1
254 52 2 0 1.3372886799931367 1.8018275635675374 -1.3204212483792577 -1 -1 0
282 61 4 0 1.405882926807799 2.095739273145876 -0.20630355524784424 0 -2 0
247 50 3 0 1.3909917436558046 2.507890206822316 -0.20512547025901132 0 1 0
248 50 3 0 1.4828406399374325 3.179805552956395 -0.008409302343046635 0 1 0
352 84 4 0 2.6822089612424573 3.0767725444370813 -0.0763285283238152 -2 -1 1
351 84 4 0 2.6974220040633825 3.185905620901368 -0.952061881940766 -2 -1 1
256 52 4 0 1.6398117502125946 2.0688547736344174 -1.120768608476443 -1 -1 0
350 84 2 0 2.682899548778666 3.1239786066360535 -0.4925175570265005 -2 -1 1
30 6 3 0 3.6477922664962317 1.7579664050395838 -1.2265247433967534 -1 -2 -1
301 67 4 0 1.4472000825943028 4.877367006616194 -0.4533178361115501 -1 -2 1
299 67 2 0 1.4225964837752627 4.471413776844875 -0.2087916459513056 -1 -2 1
375 92 4 0 3.9752117548441603 3.511973804503822 -4.989679980356282 -2 -1 1
236 48 1 0 -3.05773680962711 0.6213262049202783 0.7707217335253055 0 1 0
239 48 3 0 -3.0367338590589372 0.8318384399464905 1.197523986699527 0 1 0
240 48 3 0 -3.1897780043427857 0.914103742604855 0.45141565219017193 0 1 0
237 48 3 0 -2.6468759874572543 0.45879125165015394 0.6603297883173205 0 1 0
238 48 3 0 -3.3612847143802655 0.2766191452472298 0.7854267504848205 0 1 0
33 7 3 0 0.12200648043477691 1.1900190709340015 1.3962974590501462 -1 0 -1
31 7 1 0 0.5370637119934732 1.0363770830388597 1.347875892772777 -1 0 -1
32 7 3 0 0.8026730446925522 1.3775562279630713 1.2838113606918262 -1 0 -1
34 7 3 0 0.5577624692085256 0.7570541549848752 0.9935848331870656 -1 0 -1
325 75 4 0 0.6201029696379675 0.5761776302017567 0.6588885880357644 0 -1 0
323 75 2 0 0.7387394360006436 0.7868302679440056 0.3028882524157522 0 -1 0
19 4 3 0 0.8180273347178242 0.21332199793224949 0.6760925280121863 -1 -1 0
103 21 3 0 1.5174295913017033 1.1376331150691381 1.6617564480984233 0 2 1
139 28 3 0 2.2955036160696007 0.157678413451849 1.628624223291983 0 -1 0
358 86 4 0 2.466691316809032 0.33651474567932127 0.6990551817544207 -1 0 -1
356 86 2 0 2.3559663681714715 0.4003787468323012 0.27528559100291794 -1 0 -1
137 28 3 0 2.6107931294356215 0.49530318567234183 1.0386158371733811 0 -1 0
233 47 3 0 2.8873151601561164 0.38025036652793626 0.7257349525592981 -1 0 0
136 28 1 0 2.51822614620897 0.5409380977923669 1.4814721893308804 0 -1 0
138 28 3 0 2.253470159742921 0.9082819629381861 1.5535698359060885 0 -1 0
232 47 3 0 3.351836190386174 0.9255919469391258 1.0176968119677083 -1 0 0
231 47 1 0 3.345700635074158 0.4985089614198948 0.8609873296540835 -1 0 0
235 47 3 0 3.5007272699844627 0.19712833929231321 1.196318843566842 -1 0 0
234 47 3 0 3.616379033676329 0.46037347673051976 0.4927451372345511 -1 0 0
274 58 4 0 -4.599525037144305 2.7493456581782025 1.4482986337758506 1 -2 1
145 29 3 0 -4.61589420200025 2.9113540528263964 1.07813912265 0 -1 -1
141 29 1 0 -4.885254183008119 3.2113463070850257 0.8597553685038012 0 -1 -1
142 29 3 0 -4.695598788240316 3.34140152040277 0.4649053752437247 0 -1 -1
367 89 4 0 0.8648461079183236 1.7746116779912209 1.2662913709482488 0 0 0
365 89 2 0 0.9178518904873575 2.127828634204099 0.9913002725089564 0 0 0
366 89 4 0 0.9707271788488941 2.4925064264739234 0.7036034636310265 0 0 0
249 50 3 0 1.1739215260942524 2.746990850600038 0.4424934554498475 0 1 0
104 21 3 0 1.2287038578543912 1.7794404324685327 1.4329053911234744 0 2 1
246 50 1 0 1.483699047415632 2.79444358560902 0.13321140651980298 0 1 0
250 50 3 0 1.8892540498540484 2.6927810920199637 0.32598140508564244 0 1 0
87 18 3 0 2.7343428325493817 2.8270785443222888 0.22232823408210328 -1 -2 1
280 60 4 0 2.7666305816783514 3.037766371923073 1.2619547766601293 -2 -2 0
86 18 1 0 3.06271881518322 2.9063388489779167 0.54519079849072 -1 -2 1
109 22 3 0 1.9369463081406115 3.322603855223086 0.6443501263578616 0 -3 0
88 18 3 0 2.8897304122618626 2.862396015291989 0.923858749340873 -1 -2 1
90 18 3 0 3.2313278879577307 3.306814684401017 0.5048811429300525 -1 -2 1
89 18 3 0 3.4009119297806696 2.59510010971639 0.4908484104030269 -1 -2 1
144 29 3 0 4.714314632301873 3.0110203609680846 0.7729589180822893 -1 -1 -1
129 26 3 0 -4.486790219897596 4.566105554497644 1.024763320005304 0 0 0
126 26 1 0 -4.8389562203486145 4.470554373373054 0.7703055660005428 0 0 0
127 26 3 0 -4.754967869807129 4.565285393328399 0.3645647417110784 0 0 0
143 29 3 0 -4.954032534602138 3.568254953707232 1.111139743274602 0 -1 -1
128 26 3 0 -4.93363833332605 4.057787613926593 0.7985048855634188 0 0 0
227 46 3 0 -2.453942813785011 4.914207215244213 0.8714650153495146 -1 0 1
228 46 3 0 -2.55977732214232 4.899501566098831 1.5757056966272427 -1 0 1
204 41 3 0 -0.18077632349980857 4.413339299386698 0.39547745457464106 0 0 2
202 41 3 0 0.14212134751901243 3.9484321468608354 0.8445800110138989 0 0 2
205 41 3 0 0.17770534608075408 4.685924276920138 0.9381249275320614 0 0 2
201 41 1 0 0.15699855078287422 4.3554912269991535 0.6359684065658899 0 0 2
203 41 3 0 0.5286247932009439 4.376105326081826 0.37147467662960115 0 0 2
108 22 3 0 1.4764954181366412 3.8003174001524416 0.9540098682969731 0 -3 0
107 22 3 0 1.6742639194771465 3.869086636079227 0.243664957677494 0 -3 0
300 67 4 0 1.400167228466857 4.092086636820356 0.026419798039969817 -1 -2 1
178 36 3 0 2.6152596317636654 4.679801730640092 1.5980083695312033 -1 0 0
106 22 1 0 1.8078689813800177 3.7515881184884248 0.647642848352044 0 -3 0
110 22 3 0 2.1765755381010248 4.012047318564922 0.7773639037521883 0 -3 0
2 1 3 0 2.7626478125724043 3.9624650094211624 0.752279726200774 0 -1 0
4 1 3 0 2.545454661673984 3.985190622455898 1.4532500636938084 0 -1 0
1 1 1 0 2.8775602980577446 3.8545724913212336 1.1582498847817737 0 -1 0
5 1 3 0 2.9233268839120377 3.389089212605573 1.1739774882845548 0 -1 0
3 1 3 0 3.238015472313107 4.037244420283883 1.2560021008916484 0 -1 0
179 36 3 0 2.126418849015671 4.885608280196447 1.1250264376179677 -1 0 0
176 36 1 0 2.5291988355160413 4.96271371621091 1.2868977249876958 -1 0 0
180 36 3 0 2.8542573736016976 4.9112562536805076 0.9489643606775908 -1 0 0
130 26 3 0 4.821354964687471 4.712779496354547 0.9094619797089821 -1 0 0
63 13 3 0 -0.4911201824972299 1.167694825241339 2.4612264367330186 -2 -1 -1
61 13 1 0 -0.15469882290152748 1.1716816749975545 2.7629565179651707 -2 -1 -1
65 13 3 0 -0.27966168720135737 0.968482655155806 3.137291760874466 -2 -1 -1
62 13 3 0 -0.030030790674103 1.5889662062854233 2.860021415414312 -2 -1 -1
392 98 2 0 0.9397064741551824 0.1809725990931352 2.1098646718254446 -2 0 1
64 13 3 0 0.20256899690459526 0.9455977891581285 2.5874580549792516 -2 -1 -1
35 7 3 0 0.6616184041599089 0.8074511646296088 1.7290616094435833 -1 0 -1
393 98 4 0 0.9225040865771819 0.5243604369336465 1.8116026827217249 -2 0 1
102 21 3 0 1.3266988834659705 1.6380050135385795 2.1628695142420438 0 2 1
101 21 1 0 1.4989410144796973 1.5793352296834444 1.751503689567907 0 2 1
140 28 3 0 2.914445421013792 0.5946882201350984 1.7156503382604282 0 -1 0
272 58 2 0 -4.441394363479431 2.6557815290748823 1.8817521159699355 1 -2 1
273 58 4 0 -4.280201903725224 2.575742650153931 2.2996407426003342 1 -2 1
291 64 4 0 -3.8855153423552493 2.648579544179929 2.294934540148675 0 -1 1
290 64 2 0 -3.476349970971003 2.5195061490691137 2.3757627210671064 0 -1 1
292 64 4 0 -3.0622810144122066 2.3852437767750807 2.46896447082334 0 -1 1
278 60 2 0 2.8512211745505742 2.8922739023133945 1.696900814177958 -2 -2 0
105 21 3 0 1.8913301468110868 1.7467888409947823 1.7451473897984457 0 2 1
279 60 4 0 2.9525909599870275 2.750399441482346 2.1605000596677586 -2 -2 0
195 39 3 0 2.780524447045638 3.0106540535246573 2.4044434204968748 0 -2 1
193 39 3 0 2.1544623469596424 2.9290299527180057 2.746652765512309 0 -2 1
191 39 1 0 2.549555567254221 3.139913003784522 2.754159549968352 0 -2 1
192 39 3 0 2.757007130554823 3.037913066143773 3.1143568254613316 0 -2 1
112 23 3 0 3.3067534355234773 2.675150539949324 2.3486905436246177 0 -1 0
115 23 3 0 3.950409640323878 2.6077453699738586 2.0273609799794885 0 -1 0
113 23 3 0 3.7693860284067164 3.2691179593393973 2.25016206355158 0 -1 0
111 23 1 0 3.7539644784661363 2.8175543184191567 2.329638726618957 0 -1 0
114 23 3 0 3.956314978263093 2.7359224648160407 2.7254479483656975 0 -1 0
213 43 3 0 -3.3784522066231575 3.4873293434937525 2.9357640479091685 0 0 1
212 43 3 0 -3.437604146048207 4.149093879945351 3.2321785810753596 0 0 1
211 43 1 0 -3.164809664585853 3.857742048869408 3.0003640253275234 0 0 1
99 20 3 0 -2.060909957871012 4.9673305330517135 2.0145259414383028 0 -1 1
267 56 4 0 -2.445627119920244 4.810921551875433 1.9398179200059957 0 -1 0
266 56 2 0 -2.5589490052092905 4.448223621067686 2.200562696505484 0 -1 0
268 56 4 0 -2.6765794180756797 4.09663582029134 2.455721824131679 0 -1 0
214 43 3 0 -3.045505960114845 4.040836718730758 2.6186449716776354 0 0 1
215 43 3 0 -2.8097296707874895 3.773263573169181 3.2351927033164007 0 0 1
7 2 3 0 -0.8172382362068888 3.447684842876707 3.0505437619874076 0 0 0
9 2 3 0 -0.9033628909252117 4.014613019533725 2.5651353912777233 0 0 0
6 2 1 0 -0.897093781828438 3.8915077594661565 3.0119701188954147 0 0 0
8 2 3 0 -0.5619418947146343 4.126114926043947 3.244978618947848 0 0 0
10 2 3 0 -1.3100539154916018 3.984340843806676 3.198758138699552 0 0 0
387 96 4 0 2.527067727416385 4.303425539503658 1.7128943735297004 -1 0 0
386 96 2 0 2.497891565764852 4.135576034911637 2.1634194474921458 -1 0 0
194 39 3 0 2.4902747553909768 3.5925105215701856 2.7303294758364833 0 -2 1
388 96 4 0 2.4718985443678285 3.9778212506959125 2.5911014657064237 -1 0 0
173 35 3 0 3.4064547694744673 4.492999199496227 2.1601741825958714 -1 0 0
171 35 1 0 3.480374688069766 4.948132172086449 2.127879391046142 -1 0 0
262 54 4 0 2.6096177717649116 1.5278887125912652 3.2799832832611022 -1 0 -1
261 54 4 0 2.3924411606428366 1.095594728988881 4.043481286781626 -1 0 -1
167 34 3 0 1.9143230719296231 0.48936136795261764 4.553577056098783 -1 0 -1
169 34 3 0 2.6086188622731346 0.36872534455951766 4.773814873951871 -1 0 -1
170 34 3 0 2.4523034571723215 0.9726499305770924 4.415921040723826 -1 0 -1
260 54 2 0 2.50239109118602 1.314481093173983 3.6571624562310925 -1 0 -1
166 34 1 0 2.3087748757366597 0.6785972097321497 4.707639395426991 -1 0 -1
82 17 3 0 1.1152977756303546 2.513118709117235 4.7394214313985135 -2 -1 -1
85 17 3 0 1.756275186540393 2.152415953332996 4.786863640401269 -2 -1 -1
322 74 4 0 -1.9820099375672653 4.875044289110402 4.579507190661015 -1 -2 0
307 69 4 0 -1.6310834915403314 4.008350683553279 3.4586176924582976 0 -1 1
306 69 4 0 -2.457439773121996 3.6117735756114473 3.360800140012401 0 -1 1
305 69 2 0 -2.0579903263378383 3.8063130670835448 3.41352293809235 0 -1 1
163 33 3 0 -0.6551432592398867 4.2901249310645335 3.802757511728966 -1 0 0
164 33 3 0 -1.1378748138166423 4.6156847707489606 4.269679560528856 -1 0 0
381 94 4 0 -0.3211034435843366 4.328940757577453 3.5540367739049636 -1 0 0
162 33 3 0 -1.3862189807711918 4.1905555320876395 3.7279195256915325 -1 0 0
349 83 4 0 -1.200221560817047 3.633220345965771 4.570205026505766 0 0 1
165 33 3 0 -1.0427216965971828 3.8874485146935216 4.292852872257892 -1 0 0
161 33 1 0 -1.057130788706624 4.2420537626230646 4.0248587375397005 -1 0 0
347 83 2 0 -1.4441584474118316 3.7367590035002665 4.967934173644246 0 0 1
382 94 4 0 0.43599414895934535 4.815687301101616 3.533233480225745 -1 0 0
380 94 2 0 0.07231294579736858 4.580454535534564 3.546632806930836 -1 0 0
373 91 4 0 3.270702258695972 4.68467488437713 4.71672120070477 2 0 1
94 19 3 0 3.946747689852293 3.85961743291424 4.807980105917516 1 -1 2