LAMMPS data file via write_data, version 19 Nov 2024, timestep = 200000, units = lj

160 atoms
4 atom types
110 bonds
1 bond types
75 angles
2 angle types

-3.758247 3.758247 xlo xhi
-3.758247 3.758247 ylo yhi
-3.758247 3.758247 zlo zhi
7.487344078072056e-12 0 0 xy xz yz

Masses

1 1
2 1
3 0.1
4 0.1

Bond Coeffs # harmonic/omp

1 100 0.45

Angle Coeffs # harmonic/omp

1 100 180
2 100 109.471

Atoms # full

87 26 4 0 -2.9970121794299285 -3.6624254367346136 -2.895525717769303 0 0 0
100 30 4 0 -3.3952590735233987 -3.6839097441706947 -2.8905537135275727 0 0 0
86 26 2 0 -2.5980486965437546 -3.6936445902358503 -3.0736982492792806 0 0 0
109 33 4 0 -1.9121413469667243 -3.641821134101317 -3.527218192175589 1 0 1
88 26 4 0 -2.1844727027422772 -3.730082456430432 -3.260077228310824 1 0 0
126 39 4 0 -3.397974626982662 -3.235706353150402 0.7709944463392802 1 1 0
125 39 2 0 -3.1579742561469706 -2.901432492612115 0.57651393484017 1 1 0
67 19 4 0 -3.5193676552832867 -3.5866321267018266 0.9155198738226158 1 1 0
127 39 4 0 -2.919927383841684 -2.5669210779801324 0.38461098125579607 1 1 0
69 20 4 0 -2.6281001792209358 -2.34947890196562 0.26273949625629633 0 1 0
68 20 2 0 -2.320020548277097 -2.0350607748701353 0.3082800398050134 0 1 0
70 20 4 0 -2.0010176932575794 -1.702774209281778 0.35302451648655087 0 1 0
118 36 4 0 -1.650816280755318 -1.7207488974100351 0.14791973113372636 1 0 0
116 36 2 0 -1.224296846695962 -1.679021441717313 0.2539528387249499 1 0 0
117 36 4 0 -0.7800963439657718 -1.633444920454643 0.37319751153421965 1 0 0
49 13 4 0 -0.40812286501939044 -1.4913436399073916 0.4891213891933379 0 0 0
47 13 2 0 -0.0034535330540270692 -1.3092615071939653 0.3667848686612407 0 0 0
141 44 4 0 -1.631123562476065 -3.0767343016527495 1.3901256823357029 0 1 1
140 44 2 0 -1.3970813087119027 -3.4630177548579093 1.314277700622351 0 1 1
28 6 4 0 -2.0909538772106897 -2.0847668725832436 1.1855783378752074 0 0 0
27 6 4 0 -1.6469798324896727 -2.7452411987692624 1.6277835677773176 0 0 0
26 6 2 0 -1.8640767030721257 -2.4178135697700114 1.405063570483688 0 0 0
148 46 4 0 -1.9683597711891179 -1.7103007485606403 1.300165756203028 1 0 1
146 46 2 0 -1.7769150429919705 -1.3080989246596557 1.2240186659918253 1 0 1
147 46 4 0 -1.5876179897215184 -0.9031109305198495 1.1520060850204823 1 0 1
78 23 4 0 -0.1367613774087335 1.7642666837427976 -3.7476896537888753 1 0 1
98 30 2 0 -3.6715690553773395 3.544382584711017 -2.6913324117312434 2 -1 0
131 41 2 0 -3.246503494892063 0.26130993126115687 -1.5598694316399309 2 0 1
132 41 4 0 -3.705816632354246 0.2965436329621616 -1.669488463144325 2 0 1
133 41 4 0 -2.811541855629081 0.2280202212278981 -1.4538634600595026 2 0 1
72 21 4 0 -2.3986696122317293 0.295689576462987 -1.5121640308267916 1 0 1
71 21 2 0 -2.175406424459391 0.6870780865167099 -1.471504927499811 1 0 1
73 21 4 0 -1.9434695925276348 1.0829811762159745 -1.4241257036829276 1 0 1
82 24 4 0 -1.743651853326302 1.3368370803844405 -1.2007974333162834 2 0 1
80 24 2 0 -1.5086447715897187 1.5235927686104658 -0.8685582340100653 2 0 1
81 24 4 0 -1.258796452805294 1.7225735228546224 -0.5237376040003365 2 0 1
23 5 3 0 -1.0576077701011228 1.6829982720075947 -0.18420821602497517 2 0 0
91 27 4 0 -1.9625777982464252 1.7193212291622162 0.4000315884460415 2 0 0
22 5 3 0 -1.5589594017050867 1.7528789452449187 0.3401753147958049 2 0 0
21 5 1 0 -1.1182794692743219 1.7399793976437072 0.2510987434385399 2 0 0
25 5 3 0 -0.9192083585300819 1.3923817575820445 0.48683866585499036 2 0 0
151 47 4 0 -0.8025630787881974 1.1624799024992933 0.7951177740995092 2 0 1
89 27 2 0 -2.245134184105347 2.061810924820466 0.33339039143517635 2 0 0
90 27 4 0 -2.527619244588399 2.4093123096525684 0.2730966658213472 2 0 0
24 5 3 0 -0.9299225068176571 2.1259318098465227 0.37174361305688475 2 0 0
150 47 4 0 -0.33600361813621227 0.9338102264020334 1.5168301548678427 2 0 1
135 42 4 0 -0.11299778352808287 0.9963073218794856 1.8384880568296706 2 0 1
149 47 2 0 -0.5759188740494743 1.0500448440808912 1.1429626606008965 2 0 1
142 44 4 0 -1.1731625626321858 3.6730887567565764 1.2333972440680894 0 0 1
159 50 4 0 -0.8426543548988845 3.59127319337422 1.4291751669350479 0 0 0
158 50 2 0 -0.45975437242575 3.3905042651668014 1.5973735779759126 0 0 0
160 50 4 0 -0.0888104597751993 3.1914677427404223 1.7585708923456886 2 0 0
13 3 3 0 -0.24887619295371266 3.3414679883246006 2.7901168828941065 1 0 0
64 18 4 0 -1.811073338324399 0.7110677025282639 3.4756329830843065 1 0 0
62 18 2 0 -1.455165866200018 0.9850803255223592 3.3964968498377157 1 0 0
63 18 4 0 -1.1017525066807639 1.2614987567706413 3.314131069098594 1 0 0
79 23 4 0 -0.7414047818919922 1.2268343497430694 3.429333960226229 1 0 0
77 23 2 0 -0.4426012504395156 1.4939216952684058 3.595324616009573 1 0 0
36 9 4 0 -1.1320645358682326 3.161694623072539 3.479243333164761 1 -1 0
108 33 4 0 -1.5092019073697163 3.2830477349017393 3.437736852935349 1 -1 0
107 33 2 0 -1.7074195620363222 3.5750426082132245 3.7092373444615037 1 -1 0
37 9 4 0 -0.31867390313415767 3.4302039488295053 3.173391614403047 1 -1 0
35 9 2 0 -0.7169405037553775 3.2996959337675458 3.3288486632665633 1 -1 0
102 31 4 0 1.8564065118247228 -3.5976259080478035 -3.2534919217090943 1 0 0
40 10 4 0 1.8002120846058398 -3.2051280436674245 -3.345020629759488 0 0 1
38 10 2 0 1.7247124393903839 -2.7849487966982256 -3.5322309479263714 0 0 1
39 10 4 0 1.653091186394211 -2.3588434436690857 -3.7242367720809813 0 0 1
92 28 2 0 1.7383149784422107 -3.402755784989074 -2.1862349043796048 2 1 0
93 28 4 0 1.8560565738395987 -2.988270025537007 -2.3812159028404585 2 1 0
128 40 2 0 1.5866951835573406 -3.5526921310582997 -0.29389801620847456 2 1 0
129 40 4 0 1.2055399101174604 -3.514486016718221 -0.5529543758847462 2 1 0
130 40 4 0 1.9464179590840107 -3.5883069399954524 -0.047495685437628055 2 1 0
120 37 4 0 1.5154284527984734 -0.48829065530682847 -0.7755375915213243 1 0 0
119 37 2 0 1.5534835710414052 -0.6621922863374188 -0.34567470418268886 1 0 0
155 49 2 0 2.5720963969935227 -3.613877067954204 0.362780460102873 2 1 2
157 49 4 0 2.2924707821452994 -3.4491300670315685 0.09220118275955347 2 1 2
65 19 2 0 3.5517127074692647 -3.652426162581791 0.9265806263391001 0 1 0
48 13 4 0 0.37757650042965096 -1.1364473903063779 0.2529481537808227 0 0 0
17 4 3 0 0.6876086619796808 -0.9497484617611578 0.413432869055848 1 0 0
16 4 1 0 1.0963161590726225 -0.9478086595443829 0.6377222648249781 1 0 0
18 4 3 0 1.4327064531550695 -1.0686469875691973 0.34507062476320005 1 0 0
121 37 4 0 1.582423729024649 -0.8319404322620776 0.07089540151060403 1 0 0
19 4 3 0 1.1737586217367877 -0.5346138635011792 0.8047785176714122 1 0 0
66 19 4 0 3.1062496601053793 -3.7195288657721517 0.9449194329620845 1 1 0
20 4 3 0 1.080355961296088 -1.247816069680184 0.9753033715173629 1 0 0
123 38 4 0 1.275322719205536 -0.35966776557712876 1.1468882801469542 1 0 0
122 38 2 0 1.6149117838055806 -0.17129607686387605 1.3478252911428221 1 0 0
75 22 4 0 0.3014003095528537 -3.447931701386825 2.2934739041576115 1 1 0
74 22 2 0 0.4136982349557714 -3.0741656993406745 2.505480660040776 1 1 0
76 22 4 0 0.5334315944740107 -2.6913314299313105 2.7200431489249013 1 1 0
45 12 4 0 0.7195731670466259 -2.3916773192272665 2.914445334116615 0 0 0
44 12 2 0 0.9953793789370184 -2.3692801905895307 3.2680953184150345 0 0 0
46 12 4 0 1.286532655394148 -2.344985421079568 3.6209779329800584 0 0 0
58 16 4 0 1.3698533169765925 -0.12462770616421892 3.246251125542387 2 0 1
143 45 2 0 2.460646172070155 0.1598160915499447 -3.1150350989736286 1 0 1
144 45 4 0 2.2950213882698947 0.07007503394839709 -3.5254770317799764 1 0 1
52 14 4 0 0.06392483024506568 1.7225545579054726 -3.4019381990361057 1 -1 1
50 14 2 0 0.34533224842850974 2.061427036783434 -3.362804729533337 1 -1 1
51 14 4 0 0.6252945903362903 2.4006577182852507 -3.3155800693083535 1 -1 1
9 2 3 0 0.9991870957209699 2.3555459457333168 -3.1937552912423874 1 -1 1
6 2 1 0 1.3775169203517832 2.516120157292976 -3.418581136046556 1 -1 1
10 2 3 0 1.605333236300437 2.185694385483788 -3.5646578314865147 1 -1 1
8 2 3 0 1.6292884312366285 2.7601393056875088 -3.132930348041683 1 -1 1
30 7 4 0 1.8502540495216717 1.9009897711025259 -3.712492761065077 1 -1 0
7 2 3 0 1.2569742971734827 2.7654487556670544 -3.7483979152527853 1 -1 1
101 31 2 0 1.8817564740682187 3.4808846194600607 -3.2444528156757033 2 -1 0
103 31 4 0 1.901984010239909 3.0287334525502283 -3.231146688857315 2 -1 0
145 45 4 0 2.623752680364512 0.25714005805849816 -2.6994226442147022 1 0 1
97 29 4 0 2.873726397185221 0.4784219321309928 -2.479481597489059 1 0 1
95 29 2 0 3.257707002718406 0.4883234182375764 -2.2235741910484155 1 0 1
96 29 4 0 3.630486235984127 0.49430023319846583 -1.9719638624192806 1 0 1
59 17 2 0 3.3323431637810774 2.7276375117634197 -1.883397136720834 1 0 0
94 28 4 0 1.6251840106768514 3.7008617897763774 -1.9914556297214854 2 0 0
152 48 2 0 1.6836017739500067 2.8650285164776506 -1.8863634475145066 2 0 0
154 48 4 0 1.6119384901736833 3.2886216851428367 -1.997182881272677 2 0 0
61 17 4 0 3.577897771097593 3.025423505868017 -2.146144680137261 1 0 0
99 30 4 0 3.567516061803511 3.244760063265871 -2.4827134488328286 1 -1 0
5 1 3 0 2.437380466981317 1.7710148842690394 -1.2783808976765427 1 0 0
42 11 4 0 2.3027663238217597 1.522837221816343 -1.0013530252745295 1 0 0
153 48 4 0 1.7539753873642105 2.4233761154507087 -1.7768362642171163 2 0 0
4 1 3 0 2.083229305371858 2.296792797575929 -1.6295572660154587 1 0 0
1 1 1 0 2.3643812145231404 2.216428470349091 -1.3109665717008672 1 0 0
2 1 3 0 2.7576011283060593 2.4221892072693576 -1.3981843870009714 1 0 0
60 17 4 0 3.0837610664511317 2.4328420889605367 -1.6243306706348273 1 0 0
43 11 4 0 2.778880714978004 0.906289201003772 -0.550811214215273 1 0 0
111 34 4 0 2.900574959986959 0.7553743822339722 -0.19190024535189965 2 0 1
104 32 2 0 0.871121260551095 1.386113528038706 -0.07504414069825005 1 -1 0
106 32 4 0 0.8894849152010913 1.8227830073294005 -0.16532291035699576 1 -1 0
34 8 4 0 1.143160812062785 1.87846485319188 -0.4839149908072149 1 -1 0
41 11 2 0 2.5389374840166345 1.2150467950199033 -0.7822758401058212 1 0 0
33 8 4 0 1.7931439571919165 2.3418843590053307 -0.9264311979988871 1 -1 0
32 8 2 0 1.4691752904159037 2.112243163189608 -0.6998673430703111 1 -1 0
3 1 3 0 2.1975622772297028 2.3634548921347056 -0.9195395118605698 1 0 0
112 34 4 0 2.760706093210212 0.6152638640708714 0.7072037739295434 2 0 1
110 34 2 0 2.828678939471681 0.6847064244713721 0.25858266416751885 2 0 1
105 32 4 0 0.8440630040697465 0.9761234506604115 0.005238131004641211 1 -1 0
156 49 4 0 2.8528203507921663 3.7373269640445903 0.6391537242461816 2 0 2
124 38 4 0 1.9672534583109487 0.02109246890543126 1.5622905650339458 1 0 0
54 15 4 0 2.1268163622203025 0.39187684957660807 1.6555359975234243 1 0 1
53 15 2 0 2.3869144085166285 0.5976414294064076 1.356384010310208 1 0 1
55 15 4 0 2.657103104492152 0.8024327573401502 1.0402434047971516 1 0 1
134 42 2 0 0.24914565049161919 0.7507212747008261 1.9887228438379294 2 0 1
136 42 4 0 0.5877047482339135 0.5273399589651993 2.1275311831138657 2 0 1
85 25 4 0 0.6474566770701582 0.24874293133836023 2.393812865211303 1 0 1
83 25 2 0 1.0046671783151409 0.17676066265073098 2.6475696272647307 1 0 1
113 35 2 0 2.518801129520167 1.4295858342914007 2.411827589893514 1 0 0
114 35 4 0 2.1439208421392033 1.3909938356329121 2.6644966813901254 1 0 0
115 35 4 0 2.878319559672871 1.4624790889982693 2.1646734084620425 1 0 0
11 3 1 0 0.14008373930769302 3.3516455073526634 2.548116463189534 2 0 0
15 3 3 0 0.4427849580453831 3.048559586459242 2.7326249594086542 2 0 0
139 43 4 0 0.771673825778584 2.8660713193652834 2.609628031846867 1 0 0
14 3 3 0 0.051199012717315195 3.2389718618434307 2.1174995694776495 2 0 0
12 3 3 0 0.3059773430842654 3.7417595416658136 2.5658092432706168 2 0 0
84 25 4 0 1.364156361714267 0.09734951918302226 2.8979259178278065 1 0 1
56 16 2 0 1.6940121018858658 0.05562617338342779 3.4969810593181885 2 0 1
57 16 4 0 2.0245788734827395 0.24730558956303206 3.754901430336017 2 0 1
29 7 2 0 1.981017440638257 1.7121667539836283 3.418913316164132 1 -1 -1
31 7 4 0 2.1052994293069816 1.5272408373832933 3.0422554073177412 1 -1 -1
138 43 4 0 1.1765524091288704 2.65882162589205 3.3733299189251786 1 0 0
137 43 2 0 0.9726573710683404 2.7587965214902086 2.9924463089561053 1 0 0

Velocities

87 -0.4732729662673461 -0.9534478689606932 0.2616672705284913
100 -0.6976059869299479 0.12352906088449264 0.20208431116937864
86 -0.06708992392459581 0.044194267049922846 0.19116396577929423
109 -0.5897825306772829 -0.1018198244371773 0.22121535596720662
88 0.4287883737861272 0.12718745286925487 -0.4630328164598986
126 -0.91775483075647 -0.01611650644943139 -0.0680544756421316
125 -0.31052728849290606 -0.19158124924889053 -0.09793872092400197
67 -0.8784120157856596 0.17481820232228926 -0.41052603579261
127 -0.6173829575606417 0.3470080087764224 -1.0272336057331495
69 0.693596839725749 -0.5627682122277732 1.2284076396321897
68 0.1770611532617365 -0.06570519797080557 0.040431730299105455
70 -0.515330294884757 0.10820920696062623 -0.5229612488690545
118 0.419594963958689 0.39780941026790867 0.5499583845103196
116 -0.12778115532001952 0.10174152898324634 -0.03042913789371289
117 -0.06333792875793934 0.2533506023498551 0.355806344789682
49 -0.2692108219909857 -0.2328628854320569 0.9532422511841497
47 -0.04556002344456254 0.12876725660087235 0.14210533890936147
141 -0.5698059122052557 0.04015319160815755 0.43836362109412297
140 -0.18433741343946344 0.19158885088701147 0.24949720178713175
28 0.414836044313123 -0.1687526086578489 0.9254716577783081
27 0.07086146527589168 0.46459525239397226 0.671269580050629
26 0.018882744189650507 -0.16713016167822548 -0.16325171640614333
148 -0.3583722840179681 1.2112000072364841 -0.49181321040401454
146 -0.21235203551908108 -0.14787851879487995 -0.09885005168340337
147 -0.6874209368143861 0.2337286050508379 0.7936958769346745
78 -1.262203072224746 0.41292867704036657 -0.6508852183011883
98 0.21443466971530037 -0.175557611510624 0.13976906975976344
131 -0.028965215466953916 -0.22007606263444376 -0.24841978765934913
132 -0.28457939958588163 -0.26855271386791835 0.16247923938523706
133 -0.19476417139162155 0.7749204549954626 -0.2778701665205971
72 0.16230135476024082 0.5787882045611783 -0.4891193852691792
71 0.15312032194496591 -0.11307171374211786 0.08631605089677875
73 -0.6249310436157813 0.4076832976844462 0.39759319977350105
82 -0.4900423835005045 -0.503348648869937 -0.4390756812326702
80 -0.23677552331318877 0.09623212354835961 -0.07847777997775644
81 0.4516985366680979 -0.49962506467741685 -1.0692463856985281
23 -0.7279780295704036 -0.2190851572387212 0.1267116825119635
91 0.5220979260193189 -0.14461195857542547 0.5960004502998825
22 -1.1887501489218675 -0.04036741953265365 0.16431507889290384
21 0.193833414279638 -0.27922299944902174 0.1441940862520311
25 0.2800252953832464 0.6073013230897831 -0.08759251919190224
151 -0.1827211832051474 -0.05000625102110212 0.13560286175854164
89 -0.14376644005497707 0.15883484213151183 0.1138663464581235
90 -0.3425978114386067 0.22447486820850093 0.02705842951310384
24 -0.09318665773584223 0.21597145594220152 -0.46092212625066215
150 -0.42440256156352035 -0.11391941651657678 0.3269342492463492
135 0.3264415663898792 0.5135528557004218 -0.25076951522940605
149 0.34443256513025505 -0.02828739503846772 0.06340725154220651
142 -0.6058533307818493 0.1726067968418109 -0.518827980928028
159 -0.09209926417930012 0.26124829962994484 -0.1974742236424335
158 -0.028140372923286736 -0.15826619127999592 0.04499531032765705
160 1.2288739814920115 -0.04907588041274622 -0.28220637583029407
13 -0.09212025604991536 0.41735750025027324 -0.07779139166703226
64 -0.4324921297146772 -0.2252415488669927 0.11303691033584347
62 0.08788199524413365 -0.009478962709273894 -0.06614293676760709
63 0.06285918625154108 -0.009903280254902759 0.14386193077895146
79 -0.12425926310466015 0.3575648173130414 0.7279138778830315
77 0.14374725850858636 0.10153892719561616 -0.1641212141172369
36 0.7914703338318047 -0.15690420209254283 -0.17831011202214944
108 -0.021242854430887855 -0.8599364377692155 0.03579421656859502
107 -0.2729557218155812 -0.22506786715950786 -0.28429259525373196
37 0.40114788971064624 0.9366881761003686 -0.8104702190414568
35 -0.0910433935961407 -0.11461954072152641 0.1760545469077721
102 -0.03018179361956947 0.7147150501077981 0.3550790509855165
40 -0.8860235400394705 0.22338099105992631 -0.34292698413448186
38 0.3039849995854691 -0.08009487136440073 -0.09791117315329592
39 0.9292828099041368 -0.3011679866837948 -0.8225519944379621
92 0.01215329397177705 -0.2222811902937258 -0.1972004950330511
93 0.5430054458674997 0.28677398912927315 0.4553736220089257
128 0.21774886821654107 -0.21796604957262278 -0.657935285924808
129 1.042125531330897 0.4204953268213423 -0.1556389276512799
130 0.5196956796525632 0.566933371993426 0.7660669263938572
120 0.15701351500662236 0.1231651250604282 -0.2121446533017307
119 -0.13255565982029563 0.20782693076166947 -0.16770913538238497
155 -0.007559755357720049 -0.08239178525070105 0.279267440369107
157 0.3157893558546145 0.45270111732388435 0.6813804454232136
65 -0.15418524047629023 -0.2452068417055638 -0.1181555033615517
48 0.6333846908702083 0.4598474883696377 -0.029418623168539007
17 0.5897673603000306 -0.23956445877468932 0.23240275036132102
16 -0.24820171483126896 0.08289432096881365 -0.047254452171015045
18 0.09565124832369495 0.2651267754479324 0.066102303370007
121 -0.31680451255644293 -0.041126012700818185 -0.17247434009245796
19 0.07325338121734767 0.2084593270130139 -0.8345369157546472
66 -0.31915521979360256 -0.12875735936591673 0.3518197273124893
20 -0.33968878402898 0.1773350875780069 -0.5698847575545515
123 -0.6678934150978113 -0.7331463067563406 0.12992521873289825
122 0.15101911711217397 -0.015974227879409105 0.17818684266206458
75 -0.28146915249307564 0.21748268454047595 0.46154152174741614
74 0.08114898807359909 -0.29725388485826665 0.3202765862000258
76 -0.504703942786872 0.29246619750645364 -0.14411629028195122
45 0.5025094426540467 0.01040506762431434 -0.05979768555779776
44 0.06989414146030971 0.07291756730894168 0.1465913870471278
46 -0.22359201802570572 0.02957181236194681 0.17051638403155736
58 -0.30329605362944556 0.5313847476174917 0.7094175027726376
143 -0.16863886139428053 0.3507221653499094 0.26528821019707977
144 -0.08137247575739753 -0.009459840448966597 0.4240063375181368
52 0.5571254707506291 -0.7030107368820109 -0.06986954445275295
50 -0.2877872761243889 -0.22055570552472623 0.04433210928025793
51 0.038655155773568074 1.1417323776459725 0.09151496516043767
9 0.05271515152259963 -0.3684662486174127 -1.0070501741881792
6 -0.0626571499808136 0.24053255050109146 -0.13444840707563332
10 -0.12074159511898737 -0.2790118450256099 0.3288333770799669
8 0.27976402330752 0.45219395503352444 0.42994225397416896
30 -0.22778772945110612 -0.9045712783800791 0.5166772051946684
7 -0.8699603799412424 -0.11931773168962538 -0.16260516143357645
101 0.13392722680397567 0.23853603442774465 0.07881951033419278
103 0.5981026316527226 0.04491548149485386 0.00048534121346080483
145 -0.33545238313365566 -0.5954696091210255 -0.1503971362380731
97 -0.1645790741665042 -0.21081108684244834 -0.576188600391437
95 -0.23832010187723782 -0.2346034618611612 -0.18104130233647478
96 0.38119600217872146 0.3597445991169941 0.15614781599135724
59 -0.1351035585080465 -0.19992418884826554 0.09864309547598592
94 0.12874737093031896 0.44645795201717287 -0.16487619391224445
152 0.16010370603110288 0.08232419675349345 -0.004449556073535693
154 0.61592627220124 -0.003373868183547152 0.027149748648928707
61 0.32646950172116185 0.020767940022181575 0.07388798543178246
99 -0.7516885887001549 0.6483280276106206 0.04480297354170841
5 -0.21831539551113768 -0.699611785214265 -0.16830452774745772
42 -0.2988190542464544 0.3726536249089993 0.17303375344618196
153 0.08196746555345423 0.4721042612817756 -0.6583273803969362
4 -0.5420612973602261 -0.007570266787464815 -0.11797276830641412
1 -0.1630267808913442 -0.0644023768325248 0.06075851794843892
2 -0.10060752663626783 -0.3661621320433842 -0.3892327129761347
60 -0.21577992908791827 -0.046652779668769406 0.07761458701588411
43 0.27937056251310627 0.07607315835628707 -0.04384773641101033
111 -0.34777561038785065 -0.14157384027186537 0.33649269707544194
104 0.5046246843067376 0.145488150489683 0.12262128818946993
106 0.4540541103879122 0.17755372454688292 -0.19743021136605074
34 -0.13446325433935394 -0.5693565848661133 -0.6368716821349978
41 -0.1770706863487656 -0.2905727032704519 -0.10898719694796309
33 0.6205040355006057 -0.3713690342488742 0.27570451956283587
32 -0.02549153247806005 0.008623318712236863 0.11363064169031521
3 0.40699450101327544 0.22330984467101866 -0.3548408538994701
112 -0.07145833211440153 0.2481530915221 -0.2142211279756384
110 0.19080231216926521 -0.08967500814866271 0.1396043968079942
105 0.35633550252116275 -0.4232440423907452 -0.07153337732016157
156 0.6225559533940397 -0.3558406091429432 -0.013156710482593717
124 0.5074143840890033 -0.0012568394908690009 0.1079537879748241
54 -0.4178162138917381 0.35164415953467315 0.6258801096108824
53 -0.10557091716425528 0.024748177010626943 0.05191831661836439
55 -0.6325685773508805 0.5518479589984875 0.8586879493515687
134 -0.21842325098627371 -0.2806758171747271 0.09276170640319334
136 -0.3867113475778713 0.21453682543582359 -0.5456596561441143
85 -0.27262915874769783 -0.35248577051971286 -0.32641705529374493
83 -0.04685916380982248 -0.23384259288676085 0.11932952624715716
113 0.24359637032021145 0.01664276230130268 -0.0474683418594205
114 0.770290585315249 -0.3210770703073048 -0.11099208425885346
115 -0.5258180116372018 -0.6340913674124907 -0.6841829410459094
11 0.027615213489461 -0.05714947259742181 -0.053309766817619265
15 0.43961913973520533 -0.5913785058851014 1.283878971330351
139 0.25994695128001866 -0.23945478195646447 -0.136004595512227
14 0.5780317761092624 -0.6485714116146398 0.7631153155574667
12 -0.1502932936163992 0.49650569538898887 -0.3050299665230061
84 0.1811864072486369 -0.2928342776983833 -0.0014577317161938094
56 -0.13902551026177112 -0.08797704436090968 0.14845007832715226
57 0.0030666472157647243 0.5019972155255334 0.7936822830026774
29 -0.008623405016867116 -0.07611436366161971 0.04397690539445435
31 -0.13982417168518463 0.04597542129547463 -0.22253562457615328
138 0.05033284989561271 0.2858360863233582 -0.7745688241161162
137 -0.19024411060670243 -0.014348707456269325 -0.07124233169990932

Bonds

1 1 86 87
2 1 86 88
3 1 125 126
4 1 125 127
5 1 68 69
6 1 68 70
7 1 116 117
8 1 116 118
9 1 47 48
10 1 47 49
11 1 140 141
12 1 140 142
13 1 26 27
14 1 26 28
15 1 146 147
16 1 146 148
17 1 98 99
18 1 98 100
19 1 131 132
20 1 131 133
21 1 71 72
22 1 71 73
23 1 80 81
24 1 80 82
25 1 21 22
26 1 21 23
27 1 21 24
28 1 21 25
29 1 89 90
30 1 89 91
31 1 149 150
32 1 149 151
33 1 158 159
34 1 158 160
35 1 62 63
36 1 62 64
37 1 77 78
38 1 77 79
39 1 107 108
40 1 107 109
41 1 35 36
42 1 35 37
43 1 38 39
44 1 38 40
45 1 92 93
46 1 92 94
47 1 128 129
48 1 128 130
49 1 119 120
50 1 119 121
51 1 155 156
52 1 155 157
53 1 65 66
54 1 65 67
55 1 16 17
56 1 16 18
57 1 16 19
58 1 16 20
59 1 122 123
60 1 122 124
61 1 74 75
62 1 74 76
63 1 44 45
64 1 44 46
65 1 143 144
66 1 143 145
67 1 50 51
68 1 50 52
69 1 6 7
70 1 6 8
71 1 6 9
72 1 6 10
73 1 101 102
74 1 101 103
75 1 95 96
76 1 95 97
77 1 59 60
78 1 59 61
79 1 152 153
80 1 152 154
81 1 1 2
82 1 1 3
83 1 1 4
84 1 1 5
85 1 104 105
86 1 104 106
87 1 41 42
88 1 41 43
89 1 32 33
90 1 32 34
91 1 110 111
92 1 110 112
93 1 53 54
94 1 53 55
95 1 134 135
96 1 134 136
97 1 83 84
98 1 83 85
99 1 113 114
100 1 113 115
101 1 11 12
102 1 11 13
103 1 11 14
104 1 11 15
105 1 56 57
106 1 56 58
107 1 29 30
108 1 29 31
109 1 137 138
110 1 137 139

Angles

1 1 87 86 88
2 1 126 125 127
3 1 69 68 70
4 1 117 116 118
5 1 48 47 49
6 1 141 140 142
7 1 27 26 28
8 1 147 146 148
9 1 99 98 100
10 1 132 131 133
11 1 72 71 73
12 1 81 80 82
13 2 22 21 23
14 2 22 21 24
15 2 22 21 25
16 2 23 21 24
17 2 23 21 25
18 2 24 21 25
19 1 90 89 91
20 1 150 149 151
21 1 159 158 160
22 1 63 62 64
23 1 78 77 79
24 1 108 107 109
25 1 36 35 37
26 1 39 38 40
27 1 93 92 94
28 1 129 128 130
29 1 120 119 121
30 1 156 155 157
31 1 66 65 67
32 2 17 16 18
33 2 17 16 19
34 2 17 16 20
35 2 18 16 19
36 2 18 16 20
37 2 19 16 20
38 1 123 122 124
39 1 75 74 76
40 1 45 44 46
41 1 144 143 145
42 1 51 50 52
43 2 7 6 8
44 2 7 6 9
45 2 7 6 10
46 2 8 6 9
47 2 8 6 10
48 2 9 6 10
49 1 102 101 103
50 1 96 95 97
51 1 60 59 61
52 1 153 152 154
53 2 2 1 3
54 2 2 1 4
55 2 2 1 5
56 2 3 1 4
57 2 3 1 5
58 2 4 1 5
59 1 105 104 106
60 1 42 41 43
61 1 33 32 34
62 1 111 110 112
63 1 54 53 55
64 1 135 134 136
65 1 84 83 85
66 1 114 113 115
67 2 12 11 13
68 2 12 11 14
69 2 12 11 15
70 2 13 11 14
71 2 13 11 15
72 2 14 11 15
73 1 57 56 58
74 1 30 29 31
75 1 138 137 139
