

5 atoms
4 bonds
0 angles
0 dihedrals
0 impropers

4 atom types
1 bond types
0 angle types
0 dihedral types
0 improper types

-5 5 xlo xhi
-5 5 ylo yhi
-5 5 zlo zhi

Masses # atom-type mass-value

1 2.0
2 2.0
3 1.0
4 1.0

Atoms # atom-ID molecule-ID atom-type q x y z

1 1 1 0.00 0.0 0.0 0.0
2 1 3 0.00 1.0 0.0 0.0
3 1 3 0.00 -1.0 0.0 0.0
4 1 3 0.00 0.0 1.0 0.0
5 1 3 0.00 0.0 -1.0 0.0

Bonds # ID type atom1,atom2

1 1 1 2
1 1 1 3
1 1 1 4
1 1 1 5

Bond Coeffs # ID parameters

1 nocoeff