

4 atoms
3 bonds
0 angles
0 dihedrals
0 impropers

2 atom types
1 bond types
0 angle types
0 dihedral types
0 improper types

-5 5 xlo xhi
-5 5 ylo yhi
-5 5 zlo zhi

Masses

1 2.0
2 1.0

Atoms

1 1 1 0.00 0.0 0.0 0.0
2 1 2 0.00 1.0 0.0 0.0
3 1 2 0.00 -1.0 0.0 0.0
4 1 2 0.00 0.0 1.0 0.0

Bonds

1 1 1 2
1 1 1 3
1 1 1 4

Bond Coeffs

1 nocoeff