

15 atoms
11 bonds

2 atom types
1 bond types

-2.0 2.0 xlo xhi
-2.0 2.0 ylo yhi
-2.0 2.0 zlo zhi

Masses

    1 1.0
    2 1.0

Bond Coeffs

  1 30.0 1.5 0.0 1.0 0 0

Atoms

    1 1 2 -0.465562 -1.35136 -1.20802
    2 1 1 -0.741147 1.5693 -0.96719
    3 2 2 -1.17033 -0.0424758 -1.16196
    4 2 2 -1.89159 -0.22047 -0.242946
    5 2 1 -1.73829 -1.12165 -0.991013
    6 2 2 -1.04768 -0.999401 -0.0818677
    7 2 2 0.128585 -0.599676 -0.22121
    8 2 1 0.979404 -0.702249 -1.17488
    9 2 2 1.38766 0.619032 -1.11465
    10 2 2 0.413338 -1.1441 0.708903
    11 2 2 1.99691 1.76567 -1.13757
    12 2 1 1.66884 1.51579 1.84319
    13 3 1 0.668214 0.99393 -0.0105118
    14 3 2 1.78771 1.19984 0.64614
    15 4 2 0.126749 -0.107788 0.845562

Bonds

    1 1 1 2
    2 1 3 4
    3 1 4 5
    4 1 5 6
    5 1 6 7
    6 1 7 8
    7 1 8 9
    8 1 9 10
    9 1 10 11
    10 1 11 12
    11 1 13 14

