

15 atoms
11 bonds

2 atom types
1 bond types

-2.0 2.0 xlo xhi
-2.0 2.0 ylo yhi
-2.0 2.0 zlo zhi

Masses

    1 1.0
    2 1.0

Bond Coeffs

  1 30 1.5 0 0 1 0

Atoms

    1 1 2 0.38361 0.162161 0.197995
    2 1 1 0.314713 0.892326 0.258203
    3 2 2 0.207417 0.489381 0.209509
    4 2 2 0.0271035 0.444883 0.439263
    5 2 1 0.0654285 0.219588 0.252247
    6 2 2 0.238081 0.25015 0.479533
    7 2 2 0.532146 0.350081 0.444698
    8 2 1 0.744851 0.324438 0.206281
    9 2 2 0.846914 0.654758 0.221338
    10 2 2 0.603334 0.213975 0.677226
    11 2 2 0.999227 0.941417 0.215606
    12 2 1 0.91721 0.878948 0.960798
    13 3 1 0.667053 0.748482 0.497372
    14 3 2 0.946928 0.799959 0.661535
    15 4 2 0.531687 0.473053 0.71139

Bonds

    1 1 1 2
    2 1 3 4
    3 1 4 5
    4 1 5 6
    5 1 6 7
    6 1 7 8
    7 1 8 9
    8 1 9 10
    9 1 10 11
    10 1 11 12
    11 1 13 14

