

3 atoms
2 bonds
0 angles
0 dihedrals
0 impropers

4 atom types
1 bond types
0 angle types
0 dihedral types
0 improper types

-5 5 xlo xhi
-5 5 ylo yhi
-5 5 zlo zhi

Masses # atom-type mass-value

1 2.0
2 2.0
3 1.0
4 1.0

Atoms # atom-ID molecule-ID atom-type q x y z

5 2 2 0.00 0.0 0.0 0.0
6 2 4 0.00 1.0 0.0 0.0
7 2 4 0.00 -1.0 0.0 0.0

Bonds # ID type atom1,atom2

1 1 5 6
1 1 5 7

Bond Coeffs # ID parameters

1 nocoeff