ITEM: TIMESTEP
50
ITEM: NUMBER OF ATOMS
7
ITEM: BOX BOUNDS pp pp pp
-5.0000000000000000e+00 5.0000000000000000e+00
-5.0000000000000000e+00 5.0000000000000000e+00
-5.0000000000000000e+00 5.0000000000000000e+00
ITEM: ATOMS id type xs ys zs
3 2 0.399128 0.499403 0.497527
1 1 0.499098 0.499681 0.499849
2 2 0.599065 0.499966 0.502159
4 2 0.498777 0.599661 0.501397
7 2 0.400581 0.501584 0.801533
5 1 0.500579 0.501634 0.801104
6 2 0.600579 0.501677 0.80067
ITEM: TIMESTEP
100
ITEM: NUMBER OF ATOMS
7
ITEM: BOX BOUNDS pp pp pp
-5.0000000000000000e+00 5.0000000000000000e+00
-5.0000000000000000e+00 5.0000000000000000e+00
-5.0000000000000000e+00 5.0000000000000000e+00
ITEM: ATOMS id type xs ys zs
3 2 0.397928 0.496922 0.493773
1 1 0.497627 0.499747 0.501072
2 2 0.597325 0.502572 0.508363
4 2 0.494604 0.599669 0.503792
7 2 0.402663 0.503947 0.804396
5 1 0.502644 0.503076 0.802814
6 2 0.602635 0.502197 0.801218
ITEM: TIMESTEP
150
ITEM: NUMBER OF ATOMS
7
ITEM: BOX BOUNDS pp pp pp
-5.0000000000000000e+00 5.0000000000000000e+00
-5.0000000000000000e+00 5.0000000000000000e+00
-5.0000000000000000e+00 5.0000000000000000e+00
ITEM: ATOMS id type xs ys zs
3 2 0.397569 0.493335 0.486905
1 1 0.49636 0.499935 0.500878
2 2 0.595163 0.506548 0.514841
4 2 0.489179 0.599613 0.504574
7 2 0.405607 0.506177 0.808671
5 1 0.505547 0.503787 0.806236
6 2 0.605489 0.501408 0.803806
ITEM: TIMESTEP
200
ITEM: NUMBER OF ATOMS
7
ITEM: BOX BOUNDS pp pp pp
-5.0000000000000000e+00 5.0000000000000000e+00
-5.0000000000000000e+00 5.0000000000000000e+00
-5.0000000000000000e+00 5.0000000000000000e+00
ITEM: ATOMS id type xs ys zs
3 2 0.399615 0.489724 0.479935
1 1 0.496895 0.500309 0.500552
2 2 0.594164 0.510901 0.521186
4 2 0.484994 0.599459 0.505791
7 2 0.407937 0.510004 0.812723
5 1 0.507703 0.503991 0.809445
6 2 0.607471 0.497973 0.806164
ITEM: TIMESTEP
250
ITEM: NUMBER OF ATOMS
7
ITEM: BOX BOUNDS pp pp pp
-5.0000000000000000e+00 5.0000000000000000e+00
-5.0000000000000000e+00 5.0000000000000000e+00
-5.0000000000000000e+00 5.0000000000000000e+00
ITEM: ATOMS id type xs ys zs
3 2 0.401765 0.485432 0.475141
1 1 0.497281 0.50033 0.500723
2 2 0.592797 0.515227 0.526303
4 2 0.480896 0.598907 0.504479
7 2 0.4086 0.513606 0.816168
5 1 0.507963 0.503189 0.811999
6 2 0.607327 0.492771 0.807832
ITEM: TIMESTEP
300
ITEM: NUMBER OF ATOMS
7
ITEM: BOX BOUNDS pp pp pp
-5.0000000000000000e+00 5.0000000000000000e+00
-5.0000000000000000e+00 5.0000000000000000e+00
-5.0000000000000000e+00 5.0000000000000000e+00
ITEM: ATOMS id type xs ys zs
3 2 0.402638 0.481839 0.471552
1 1 0.496383 0.500687 0.500841
2 2 0.59012 0.51954 0.530129
4 2 0.476214 0.598622 0.502353
7 2 0.40849 0.516486 0.819725
5 1 0.507206 0.501152 0.815039
6 2 0.605913 0.485821 0.810365
ITEM: TIMESTEP
350
ITEM: NUMBER OF ATOMS
7
ITEM: BOX BOUNDS pp pp pp
-5.0000000000000000e+00 5.0000000000000000e+00
-5.0000000000000000e+00 5.0000000000000000e+00
-5.0000000000000000e+00 5.0000000000000000e+00
ITEM: ATOMS id type xs ys zs
3 2 0.40343 0.478098 0.470137
1 1 0.495528 0.500757 0.501848
2 2 0.587615 0.52342 0.533559
4 2 0.472154 0.597977 0.500253
7 2 0.409251 0.5217 0.824085
5 1 0.50676 0.50007 0.81904
6 2 0.604255 0.478449 0.813991
ITEM: TIMESTEP
400
ITEM: NUMBER OF ATOMS
7
ITEM: BOX BOUNDS pp pp pp
-5.0000000000000000e+00 5.0000000000000000e+00
-5.0000000000000000e+00 5.0000000000000000e+00
-5.0000000000000000e+00 5.0000000000000000e+00
ITEM: ATOMS id type xs ys zs
3 2 0.405901 0.474545 0.467948
1 1 0.495049 0.50289 0.503315
2 2 0.584191 0.531242 0.538673
4 2 0.466232 0.598571 0.499232
7 2 0.410285 0.525992 0.82814
5 1 0.50609 0.497683 0.823556
6 2 0.601895 0.469382 0.818973
ITEM: TIMESTEP
450
ITEM: NUMBER OF ATOMS
7
ITEM: BOX BOUNDS pp pp pp
-5.0000000000000000e+00 5.0000000000000000e+00
-5.0000000000000000e+00 5.0000000000000000e+00
-5.0000000000000000e+00 5.0000000000000000e+00
ITEM: ATOMS id type xs ys zs
3 2 0.408537 0.47174 0.463972
1 1 0.492895 0.507118 0.50437
2 2 0.577259 0.542505 0.544775
4 2 0.457824 0.60039 0.49592
7 2 0.411304 0.527492 0.834915
5 1 0.505025 0.493243 0.828402
6 2 0.598754 0.458994 0.821896
ITEM: TIMESTEP
500
ITEM: NUMBER OF ATOMS
7
ITEM: BOX BOUNDS pp pp pp
-5.0000000000000000e+00 5.0000000000000000e+00
-5.0000000000000000e+00 5.0000000000000000e+00
-5.0000000000000000e+00 5.0000000000000000e+00
ITEM: ATOMS id type xs ys zs
3 2 0.410827 0.470657 0.461207
1 1 0.489889 0.5123 0.506097
2 2 0.56895 0.553937 0.550982
4 2 0.450627 0.603031 0.491057
7 2 0.412639 0.526509 0.842267
5 1 0.504477 0.487974 0.833239
6 2 0.596304 0.449443 0.824211
ITEM: TIMESTEP
550
ITEM: NUMBER OF ATOMS
7
ITEM: BOX BOUNDS pp pp pp
-5.0000000000000000e+00 5.0000000000000000e+00
-5.0000000000000000e+00 5.0000000000000000e+00
-5.0000000000000000e+00 5.0000000000000000e+00
ITEM: ATOMS id type xs ys zs
3 2 0.414076 0.469239 0.457465
1 1 0.487197 0.516681 0.506475
2 2 0.560333 0.564122 0.555484
4 2 0.444731 0.604576 0.484776
7 2 0.411818 0.523365 0.847612
5 1 0.502654 0.482552 0.838538
6 2 0.593499 0.441748 0.829455
ITEM: TIMESTEP
600
ITEM: NUMBER OF ATOMS
7
ITEM: BOX BOUNDS pp pp pp
-5.0000000000000000e+00 5.0000000000000000e+00
-5.0000000000000000e+00 5.0000000000000000e+00
-5.0000000000000000e+00 5.0000000000000000e+00
ITEM: ATOMS id type xs ys zs
3 2 0.420443 0.468525 0.453166
1 1 0.486663 0.521528 0.506132
2 2 0.552881 0.574536 0.559101
4 2 0.439601 0.605952 0.480485
7 2 0.410097 0.52274 0.853077
5 1 0.499491 0.478534 0.845678
6 2 0.588882 0.434328 0.838265
ITEM: TIMESTEP
650
ITEM: NUMBER OF ATOMS
7
ITEM: BOX BOUNDS pp pp pp
-5.0000000000000000e+00 5.0000000000000000e+00
-5.0000000000000000e+00 5.0000000000000000e+00
-5.0000000000000000e+00 5.0000000000000000e+00
ITEM: ATOMS id type xs ys zs
3 2 0.426298 0.470911 0.448255
1 1 0.485038 0.527439 0.506157
2 2 0.54379 0.58398 0.56406
4 2 0.436962 0.609379 0.474943
7 2 0.408414 0.523247 0.857729
5 1 0.496731 0.476456 0.854463
6 2 0.585049 0.429666 0.851194
ITEM: TIMESTEP
700
ITEM: NUMBER OF ATOMS
7
ITEM: BOX BOUNDS pp pp pp
-5.0000000000000000e+00 5.0000000000000000e+00
-5.0000000000000000e+00 5.0000000000000000e+00
-5.0000000000000000e+00 5.0000000000000000e+00
ITEM: ATOMS id type xs ys zs
3 2 0.431752 0.474847 0.442647
1 1 0.482814 0.533605 0.505414
2 2 0.533882 0.592373 0.568174
4 2 0.436635 0.613932 0.467779
7 2 0.407009 0.522333 0.861984
5 1 0.494893 0.474652 0.863428
6 2 0.582786 0.426965 0.864876
ITEM: TIMESTEP
750
ITEM: NUMBER OF ATOMS
7
ITEM: BOX BOUNDS pp pp pp
-5.0000000000000000e+00 5.0000000000000000e+00
-5.0000000000000000e+00 5.0000000000000000e+00
-5.0000000000000000e+00 5.0000000000000000e+00
ITEM: ATOMS id type xs ys zs
3 2 0.435257 0.478155 0.437902
1 1 0.479558 0.53864 0.504077
2 2 0.523868 0.599122 0.570247
4 2 0.435076 0.617566 0.461721
7 2 0.405508 0.5221 0.868437
5 1 0.493095 0.474121 0.873541
6 2 0.580692 0.426141 0.878654
ITEM: TIMESTEP
800
ITEM: NUMBER OF ATOMS
7
ITEM: BOX BOUNDS pp pp pp
-5.0000000000000000e+00 5.0000000000000000e+00
-5.0000000000000000e+00 5.0000000000000000e+00
-5.0000000000000000e+00 5.0000000000000000e+00
ITEM: ATOMS id type xs ys zs
3 2 0.437938 0.480025 0.436686
1 1 0.476067 0.542783 0.504558
2 2 0.514204 0.605546 0.57244
4 2 0.436115 0.620189 0.455434
7 2 0.403844 0.523109 0.873908
5 1 0.489675 0.47284 0.884184
6 2 0.575509 0.422579 0.894464
ITEM: TIMESTEP
850
ITEM: NUMBER OF ATOMS
7
ITEM: BOX BOUNDS pp pp pp
-5.0000000000000000e+00 5.0000000000000000e+00
-5.0000000000000000e+00 5.0000000000000000e+00
-5.0000000000000000e+00 5.0000000000000000e+00
ITEM: ATOMS id type xs ys zs
3 2 0.440066 0.48052 0.43796
1 1 0.47221 0.545835 0.506517
2 2 0.504355 0.611157 0.575082
4 2 0.437146 0.621294 0.451058
7 2 0.400652 0.524515 0.878558
5 1 0.484151 0.471715 0.894059
6 2 0.567649 0.418917 0.909566
ITEM: TIMESTEP
900
ITEM: NUMBER OF ATOMS
7
ITEM: BOX BOUNDS pp pp pp
-5.0000000000000000e+00 5.0000000000000000e+00
-5.0000000000000000e+00 5.0000000000000000e+00
-5.0000000000000000e+00 5.0000000000000000e+00
ITEM: ATOMS id type xs ys zs
3 2 0.440989 0.482641 0.439108
1 1 0.468312 0.549376 0.508388
2 2 0.495647 0.616107 0.577663
4 2 0.441443 0.623818 0.44727
7 2 0.397396 0.524881 0.88231
5 1 0.479025 0.470942 0.902949
6 2 0.560659 0.416997 0.923589
ITEM: TIMESTEP
950
ITEM: NUMBER OF ATOMS
7
ITEM: BOX BOUNDS pp pp pp
-5.0000000000000000e+00 5.0000000000000000e+00
-5.0000000000000000e+00 5.0000000000000000e+00
-5.0000000000000000e+00 5.0000000000000000e+00
ITEM: ATOMS id type xs ys zs
3 2 0.442453 0.484985 0.438143
1 1 0.464655 0.551842 0.509123
2 2 0.486864 0.618693 0.580104
4 2 0.445185 0.626209 0.445168
7 2 0.395022 0.525616 0.884113
5 1 0.473656 0.46985 0.910697
6 2 0.552284 0.414087 0.937278
ITEM: TIMESTEP
1000
ITEM: NUMBER OF ATOMS
7
ITEM: BOX BOUNDS pp pp pp
-5.0000000000000000e+00 5.0000000000000000e+00
-5.0000000000000000e+00 5.0000000000000000e+00
-5.0000000000000000e+00 5.0000000000000000e+00
ITEM: ATOMS id type xs ys zs
3 2 0.442078 0.488267 0.435503
1 1 0.459864 0.554767 0.508046
2 2 0.47765 0.621254 0.580593
4 2 0.447636 0.629406 0.442628
7 2 0.394872 0.528036 0.888025
5 1 0.469574 0.469696 0.91988
6 2 0.544275 0.41135 0.951734
ITEM: TIMESTEP
1050
ITEM: NUMBER OF ATOMS
7
ITEM: BOX BOUNDS pp pp pp
-5.0000000000000000e+00 5.0000000000000000e+00
-5.0000000000000000e+00 5.0000000000000000e+00
-5.0000000000000000e+00 5.0000000000000000e+00
ITEM: ATOMS id type xs ys zs
3 2 0.439387 0.491297 0.431304
4 2 0.45013 0.632147 0.438089
1 1 0.453292 0.557704 0.50478
2 2 0.467203 0.624105 0.578245
7 2 0.396521 0.5304 0.892105
5 1 0.466714 0.469918 0.9297
6 2 0.536916 0.409427 0.967288
ITEM: TIMESTEP
1100
ITEM: NUMBER OF ATOMS
7
ITEM: BOX BOUNDS pp pp pp
-5.0000000000000000e+00 5.0000000000000000e+00
-5.0000000000000000e+00 5.0000000000000000e+00
-5.0000000000000000e+00 5.0000000000000000e+00
ITEM: ATOMS id type xs ys zs
3 2 0.437222 0.494805 0.427107
4 2 0.447674 0.635651 0.434364
1 1 0.446242 0.561309 0.501232
2 2 0.455274 0.627817 0.57536
7 2 0.399955 0.531794 0.895879
5 1 0.465318 0.47053 0.940338
6 2 0.530681 0.409271 0.984788
ITEM: TIMESTEP
1150
ITEM: NUMBER OF ATOMS
7
ITEM: BOX BOUNDS pp pp pp
-5.0000000000000000e+00 5.0000000000000000e+00
-5.0000000000000000e+00 5.0000000000000000e+00
-5.0000000000000000e+00 5.0000000000000000e+00
ITEM: ATOMS id type xs ys zs
3 2 0.433637 0.498553 0.421997
4 2 0.443542 0.639447 0.429001
1 1 0.438806 0.565475 0.49612
2 2 0.443974 0.632399 0.570234
7 2 0.407116 0.531589 0.896779
5 1 0.463417 0.469975 0.951865
6 2 0.51971 0.408364 1.00695
ITEM: TIMESTEP
1200
ITEM: NUMBER OF ATOMS
7
ITEM: BOX BOUNDS pp pp pp
-5.0000000000000000e+00 5.0000000000000000e+00
-5.0000000000000000e+00 5.0000000000000000e+00
-5.0000000000000000e+00 5.0000000000000000e+00
ITEM: ATOMS id type xs ys zs
3 2 0.433311 0.50382 0.419081
4 2 0.440137 0.644972 0.42437
1 1 0.432503 0.57196 0.492271
2 2 0.431694 0.64009 0.565463
7 2 0.41781 0.530017 0.896415
5 1 0.461052 0.468731 0.962568
6 2 0.504287 0.407458 0.0287139
ITEM: TIMESTEP
1250
ITEM: NUMBER OF ATOMS
7
ITEM: BOX BOUNDS pp pp pp
-5.0000000000000000e+00 5.0000000000000000e+00
-5.0000000000000000e+00 5.0000000000000000e+00
-5.0000000000000000e+00 5.0000000000000000e+00
ITEM: ATOMS id type xs ys zs
3 2 0.433694 0.508744 0.4168
4 2 0.435545 0.650133 0.419522
1 1 0.426588 0.578194 0.488402
2 2 0.419474 0.647631 0.560012
7 2 0.429961 0.527765 0.897795
5 1 0.457858 0.467306 0.972396
6 2 0.485751 0.406836 0.0469986
ITEM: TIMESTEP
1300
ITEM: NUMBER OF ATOMS
7
ITEM: BOX BOUNDS pp pp pp
-5.0000000000000000e+00 5.0000000000000000e+00
-5.0000000000000000e+00 5.0000000000000000e+00
-5.0000000000000000e+00 5.0000000000000000e+00
ITEM: ATOMS id type xs ys zs
3 2 0.430655 0.512378 0.414526
4 2 0.428904 0.653783 0.41528
1 1 0.420261 0.582597 0.484967
2 2 0.409876 0.652811 0.555403
7 2 0.440889 0.522348 0.899551
5 1 0.453183 0.465612 0.980976
6 2 0.465475 0.408857 0.0623979
ITEM: TIMESTEP
1350
ITEM: NUMBER OF ATOMS
7
ITEM: BOX BOUNDS pp pp pp
-5.0000000000000000e+00 5.0000000000000000e+00
-5.0000000000000000e+00 5.0000000000000000e+00
-5.0000000000000000e+00 5.0000000000000000e+00
ITEM: ATOMS id type xs ys zs
3 2 0.42729 0.516463 0.411823
4 2 0.420853 0.657737 0.410893
1 1 0.413721 0.587094 0.481306
2 2 0.40015 0.65772 0.550785
7 2 0.454378 0.513461 0.903312
5 1 0.449342 0.46243 0.989162
6 2 0.444307 0.411401 0.0750197
ITEM: TIMESTEP
1400
ITEM: NUMBER OF ATOMS
7
ITEM: BOX BOUNDS pp pp pp
-5.0000000000000000e+00 5.0000000000000000e+00
-5.0000000000000000e+00 5.0000000000000000e+00
-5.0000000000000000e+00 5.0000000000000000e+00
ITEM: ATOMS id type xs ys zs
3 2 0.424959 0.519954 0.409991
4 2 0.411577 0.660712 0.40678
1 1 0.407376 0.590886 0.478252
2 2 0.389807 0.661816 0.546514
7 2 0.468064 0.502899 0.912334
5 1 0.44544 0.458942 0.999252
6 2 0.42281 0.414985 0.086175
ITEM: TIMESTEP
1450
ITEM: NUMBER OF ATOMS
7
ITEM: BOX BOUNDS pp pp pp
-5.0000000000000000e+00 5.0000000000000000e+00
-5.0000000000000000e+00 5.0000000000000000e+00
-5.0000000000000000e+00 5.0000000000000000e+00
ITEM: ATOMS id type xs ys zs
3 2 0.426235 0.52369 0.407662
4 2 0.403713 0.663214 0.402625
1 1 0.401833 0.593836 0.474623
2 2 0.377447 0.66399 0.541582
7 2 0.481673 0.490683 0.924218
5 1 0.442203 0.455995 0.00930682
6 2 0.402743 0.421308 0.0943886
ITEM: TIMESTEP
1500
ITEM: NUMBER OF ATOMS
7
ITEM: BOX BOUNDS pp pp pp
-5.0000000000000000e+00 5.0000000000000000e+00
-5.0000000000000000e+00 5.0000000000000000e+00
-5.0000000000000000e+00 5.0000000000000000e+00
ITEM: ATOMS id type xs ys zs
3 2 0.424533 0.52911 0.403447
4 2 0.396197 0.667618 0.399608
1 1 0.393426 0.596798 0.470166
2 2 0.36232 0.664493 0.536882
7 2 0.494364 0.474839 0.939063
5 1 0.438802 0.452094 0.0190515
6 2 0.383258 0.429351 0.0990217
ITEM: TIMESTEP
1550
ITEM: NUMBER OF ATOMS
7
ITEM: BOX BOUNDS pp pp pp
-5.0000000000000000e+00 5.0000000000000000e+00
-5.0000000000000000e+00 5.0000000000000000e+00
-5.0000000000000000e+00 5.0000000000000000e+00
ITEM: ATOMS id type xs ys zs
3 2 0.421636 0.53692 0.399267
4 2 0.386602 0.673931 0.397532
1 1 0.384142 0.601173 0.466089
2 2 0.346647 0.665421 0.532931
7 2 0.5052 0.458069 0.958601
5 1 0.436703 0.448459 0.0308162
6 2 0.368191 0.438857 0.10303
ITEM: TIMESTEP
1600
ITEM: NUMBER OF ATOMS
7
ITEM: BOX BOUNDS pp pp pp
-5.0000000000000000e+00 5.0000000000000000e+00
-5.0000000000000000e+00 5.0000000000000000e+00
-5.0000000000000000e+00 5.0000000000000000e+00
ITEM: ATOMS id type xs ys zs
3 2 0.4166 0.542707 0.39604
4 2 0.377731 0.678676 0.396423
1 1 0.374033 0.603896 0.462709
2 2 0.331466 0.665078 0.529371
7 2 0.513824 0.441196 0.981339
5 1 0.43495 0.444677 0.0427185
6 2 0.356075 0.448164 0.104101
ITEM: TIMESTEP
1650
ITEM: NUMBER OF ATOMS
7
ITEM: BOX BOUNDS pp pp pp
-5.0000000000000000e+00 5.0000000000000000e+00
-5.0000000000000000e+00 5.0000000000000000e+00
-5.0000000000000000e+00 5.0000000000000000e+00
ITEM: ATOMS id type xs ys zs
3 2 0.412628 0.547671 0.393195
4 2 0.369338 0.682265 0.396043
1 1 0.36581 0.605486 0.460006
2 2 0.318983 0.663305 0.526822
7 2 0.519081 0.426129 0.00707112
5 1 0.432317 0.44166 0.0543017
6 2 0.345548 0.457197 0.101538
ITEM: TIMESTEP
1700
ITEM: NUMBER OF ATOMS
7
ITEM: BOX BOUNDS pp pp pp
-5.0000000000000000e+00 5.0000000000000000e+00
-5.0000000000000000e+00 5.0000000000000000e+00
-5.0000000000000000e+00 5.0000000000000000e+00
ITEM: ATOMS id type xs ys zs
3 2 0.410604 0.552642 0.392081
4 2 0.36156 0.685247 0.395541
1 1 0.359486 0.607429 0.458309
2 2 0.308369 0.662202 0.524543
7 2 0.520572 0.411863 0.0360993
5 1 0.428646 0.437673 0.0658148
6 2 0.336714 0.463482 0.0955262
ITEM: TIMESTEP
1750
ITEM: NUMBER OF ATOMS
7
ITEM: BOX BOUNDS pp pp pp
-5.0000000000000000e+00 5.0000000000000000e+00
-5.0000000000000000e+00 5.0000000000000000e+00
-5.0000000000000000e+00 5.0000000000000000e+00
ITEM: ATOMS id type xs ys zs
3 2 0.40717 0.557689 0.392563
4 2 0.352131 0.687908 0.396197
1 1 0.351493 0.609127 0.457785
2 2 0.295809 0.66056 0.523011
7 2 0.518072 0.396649 0.0694107
5 1 0.425005 0.432381 0.0772805
6 2 0.331936 0.468124 0.0851479
ITEM: TIMESTEP
1800
ITEM: NUMBER OF ATOMS
7
ITEM: BOX BOUNDS pp pp pp
-5.0000000000000000e+00 5.0000000000000000e+00
-5.0000000000000000e+00 5.0000000000000000e+00
-5.0000000000000000e+00 5.0000000000000000e+00
ITEM: ATOMS id type xs ys zs
3 2 0.402387 0.563189 0.391915
4 2 0.338912 0.68943 0.397734
1 1 0.344236 0.610097 0.458383
2 2 0.286072 0.656996 0.524845
7 2 0.508941 0.383347 0.105274
5 1 0.420571 0.427179 0.0888487
6 2 0.332205 0.471012 0.0724183
ITEM: TIMESTEP
1850
ITEM: NUMBER OF ATOMS
7
ITEM: BOX BOUNDS pp pp pp
-5.0000000000000000e+00 5.0000000000000000e+00
-5.0000000000000000e+00 5.0000000000000000e+00
-5.0000000000000000e+00 5.0000000000000000e+00
ITEM: ATOMS id type xs ys zs
3 2 0.396784 0.568436 0.391972
4 2 0.324211 0.689651 0.398428
1 1 0.337157 0.611637 0.459643
2 2 0.277531 0.65484 0.527301
7 2 0.493606 0.371941 0.139756
5 1 0.416251 0.4214 0.100134
6 2 0.338908 0.470873 0.0605113
ITEM: TIMESTEP
1900
ITEM: NUMBER OF ATOMS
7
ITEM: BOX BOUNDS pp pp pp
-5.0000000000000000e+00 5.0000000000000000e+00
-5.0000000000000000e+00 5.0000000000000000e+00
-5.0000000000000000e+00 5.0000000000000000e+00
ITEM: ATOMS id type xs ys zs
3 2 0.391635 0.576105 0.391625
4 2 0.308758 0.69045 0.399155
1 1 0.330236 0.614512 0.460586
2 2 0.268843 0.65293 0.529533
7 2 0.471944 0.364021 0.170153
5 1 0.410089 0.415526 0.110819
6 2 0.348231 0.467024 0.0514741
ITEM: TIMESTEP
1950
ITEM: NUMBER OF ATOMS
7
ITEM: BOX BOUNDS pp pp pp
-5.0000000000000000e+00 5.0000000000000000e+00
-5.0000000000000000e+00 5.0000000000000000e+00
-5.0000000000000000e+00 5.0000000000000000e+00
ITEM: ATOMS id type xs ys zs
3 2 0.385146 0.585694 0.391463
4 2 0.292985 0.692517 0.401237
1 1 0.321703 0.618144 0.461613
2 2 0.258259 0.650608 0.531761
7 2 0.444487 0.359409 0.195786
5 1 0.402032 0.410879 0.121293
6 2 0.359576 0.462347 0.0468082
ITEM: TIMESTEP
2000
ITEM: NUMBER OF ATOMS
7
ITEM: BOX BOUNDS pp pp pp
-5.0000000000000000e+00 5.0000000000000000e+00
-5.0000000000000000e+00 5.0000000000000000e+00
-5.0000000000000000e+00 5.0000000000000000e+00
ITEM: ATOMS id type xs ys zs
3 2 0.378788 0.597336 0.390521
4 2 0.27556 0.693265 0.402384
1 1 0.313335 0.62232 0.461878
2 2 0.247883 0.647312 0.533232
7 2 0.414896 0.355727 0.216156
5 1 0.391833 0.405191 0.132364
6 2 0.368773 0.454656 0.0485795
ITEM: TIMESTEP
2050
ITEM: NUMBER OF ATOMS
7
ITEM: BOX BOUNDS pp pp pp
-5.0000000000000000e+00 5.0000000000000000e+00
-5.0000000000000000e+00 5.0000000000000000e+00
-5.0000000000000000e+00 5.0000000000000000e+00
ITEM: ATOMS id type xs ys zs
6 2 0.376851 0.442942 0.0524795
5 1 0.381184 0.398079 0.141751
7 2 0.385521 0.353214 0.231014
3 2 0.371114 0.610287 0.39093
4 2 0.25774 0.69343 0.406191
1 1 0.304661 0.626563 0.463863
2 2 0.238201 0.64283 0.536788
ITEM: TIMESTEP
2100
ITEM: NUMBER OF ATOMS
7
ITEM: BOX BOUNDS pp pp pp
-5.0000000000000000e+00 5.0000000000000000e+00
-5.0000000000000000e+00 5.0000000000000000e+00
-5.0000000000000000e+00 5.0000000000000000e+00
ITEM: ATOMS id type xs ys zs
6 2 0.383762 0.42919 0.0590437
5 1 0.37103 0.390713 0.150464
7 2 0.358308 0.352236 0.241887
3 2 0.360561 0.623121 0.390873
4 2 0.241425 0.69619 0.412537
1 1 0.294395 0.629972 0.465541
2 2 0.228228 0.636823 0.540214
ITEM: TIMESTEP
2150
ITEM: NUMBER OF ATOMS
7
ITEM: BOX BOUNDS pp pp pp
-5.0000000000000000e+00 5.0000000000000000e+00
-5.0000000000000000e+00 5.0000000000000000e+00
-5.0000000000000000e+00 5.0000000000000000e+00
ITEM: ATOMS id type xs ys zs
6 2 0.391969 0.412092 0.0666957
5 1 0.361602 0.383389 0.15755
7 2 0.331233 0.35469 0.248407
3 2 0.349254 0.636589 0.392267
4 2 0.22456 0.698067 0.418172
1 1 0.283061 0.633431 0.467157
2 2 0.216867 0.630288 0.542054
ITEM: TIMESTEP
2200
ITEM: NUMBER OF ATOMS
7
ITEM: BOX BOUNDS pp pp pp
-5.0000000000000000e+00 5.0000000000000000e+00
-5.0000000000000000e+00 5.0000000000000000e+00
-5.0000000000000000e+00 5.0000000000000000e+00
ITEM: ATOMS id type xs ys zs
6 2 0.397667 0.396565 0.0765133
5 1 0.352081 0.376613 0.163254
7 2 0.3065 0.356664 0.249996
3 2 0.336255 0.650294 0.394403
4 2 0.206323 0.698733 0.422169
1 1 0.27059 0.637953 0.468815
2 2 0.204926 0.625629 0.543221
ITEM: TIMESTEP
2250
ITEM: NUMBER OF ATOMS
7
ITEM: BOX BOUNDS pp pp pp
-5.0000000000000000e+00 5.0000000000000000e+00
-5.0000000000000000e+00 5.0000000000000000e+00
-5.0000000000000000e+00 5.0000000000000000e+00
ITEM: ATOMS id type xs ys zs
6 2 0.398753 0.381216 0.0886871
5 1 0.340334 0.36911 0.168934
7 2 0.281908 0.357013 0.249185
3 2 0.322173 0.666167 0.397869
4 2 0.187002 0.697301 0.425426
1 1 0.257592 0.642694 0.470529
2 2 0.193027 0.619229 0.543194
ITEM: TIMESTEP
2300
ITEM: NUMBER OF ATOMS
7
ITEM: BOX BOUNDS pp pp pp
-5.0000000000000000e+00 5.0000000000000000e+00
-5.0000000000000000e+00 5.0000000000000000e+00
-5.0000000000000000e+00 5.0000000000000000e+00
ITEM: ATOMS id type xs ys zs
6 2 0.397234 0.36726 0.103221
5 1 0.327638 0.362359 0.174861
7 2 0.258048 0.357444 0.246502
3 2 0.306728 0.683353 0.403089
4 2 0.168114 0.695596 0.428275
1 1 0.244364 0.649241 0.473414
2 2 0.181995 0.615132 0.543743
ITEM: TIMESTEP
2350
ITEM: NUMBER OF ATOMS
7
ITEM: BOX BOUNDS pp pp pp
-5.0000000000000000e+00 5.0000000000000000e+00
-5.0000000000000000e+00 5.0000000000000000e+00
-5.0000000000000000e+00 5.0000000000000000e+00
ITEM: ATOMS id type xs ys zs
6 2 0.3934 0.352915 0.116313
5 1 0.315745 0.355281 0.179276
7 2 0.238093 0.357653 0.242232
3 2 0.289805 0.699672 0.408234
4 2 0.150504 0.693426 0.43177
1 1 0.231581 0.656195 0.476928
2 2 0.173355 0.612709 0.545633
ITEM: TIMESTEP
2400
ITEM: NUMBER OF ATOMS
7
ITEM: BOX BOUNDS pp pp pp
-5.0000000000000000e+00 5.0000000000000000e+00
-5.0000000000000000e+00 5.0000000000000000e+00
-5.0000000000000000e+00 5.0000000000000000e+00
ITEM: ATOMS id type xs ys zs
6 2 0.389102 0.336989 0.12979
5 1 0.305535 0.348022 0.183576
7 2 0.221966 0.359064 0.237376
3 2 0.269874 0.714094 0.412357
4 2 0.132691 0.688322 0.435078
1 1 0.217831 0.664242 0.481675
2 2 0.165784 0.614396 0.551
ITEM: TIMESTEP
2450
ITEM: NUMBER OF ATOMS
7
ITEM: BOX BOUNDS pp pp pp
-5.0000000000000000e+00 5.0000000000000000e+00
-5.0000000000000000e+00 5.0000000000000000e+00
-5.0000000000000000e+00 5.0000000000000000e+00
ITEM: ATOMS id type xs ys zs
6 2 0.383266 0.320374 0.143757
5 1 0.295732 0.340124 0.187886
7 2 0.208201 0.359875 0.232029
3 2 0.248663 0.726607 0.418483
4 2 0.116145 0.681791 0.439287
1 1 0.202563 0.672359 0.488715
2 2 0.156462 0.618123 0.55895
ITEM: TIMESTEP
2500
ITEM: NUMBER OF ATOMS
7
ITEM: BOX BOUNDS pp pp pp
-5.0000000000000000e+00 5.0000000000000000e+00
-5.0000000000000000e+00 5.0000000000000000e+00
-5.0000000000000000e+00 5.0000000000000000e+00
ITEM: ATOMS id type xs ys zs
6 2 0.376252 0.306344 0.15738
5 1 0.285894 0.33325 0.190716
7 2 0.195533 0.360162 0.224061
3 2 0.227365 0.735318 0.427037
4 2 0.101632 0.672686 0.443398
1 1 0.185457 0.678258 0.497656
2 2 0.143544 0.621197 0.568273
ITEM: TIMESTEP
2550
ITEM: NUMBER OF ATOMS
7
ITEM: BOX BOUNDS pp pp pp
-5.0000000000000000e+00 5.0000000000000000e+00
-5.0000000000000000e+00 5.0000000000000000e+00
-5.0000000000000000e+00 5.0000000000000000e+00
ITEM: ATOMS id type xs ys zs
6 2 0.368357 0.290641 0.170401
5 1 0.277335 0.325939 0.192058
7 2 0.186321 0.361245 0.213715
3 2 0.209092 0.742437 0.435586
4 2 0.0909513 0.665677 0.447933
1 1 0.169385 0.684752 0.506972
2 2 0.129666 0.627065 0.578352
ITEM: TIMESTEP
2600
ITEM: NUMBER OF ATOMS
7
ITEM: BOX BOUNDS pp pp pp
-5.0000000000000000e+00 5.0000000000000000e+00
-5.0000000000000000e+00 5.0000000000000000e+00
-5.0000000000000000e+00 5.0000000000000000e+00
ITEM: ATOMS id type xs ys zs
6 2 0.355411 0.273482 0.184601
5 1 0.266456 0.318308 0.193506
7 2 0.177515 0.363134 0.202409
3 2 0.191424 0.748929 0.444398
4 2 0.0831195 0.658478 0.453787
1 1 0.153469 0.691322 0.516804
2 2 0.115515 0.633729 0.589201
ITEM: TIMESTEP
2650
ITEM: NUMBER OF ATOMS
7
ITEM: BOX BOUNDS pp pp pp
-5.0000000000000000e+00 5.0000000000000000e+00
-5.0000000000000000e+00 5.0000000000000000e+00
-5.0000000000000000e+00 5.0000000000000000e+00
ITEM: ATOMS id type xs ys zs
6 2 0.340422 0.258923 0.195351
5 1 0.255425 0.311561 0.193317
7 2 0.170423 0.364207 0.191268
3 2 0.171121 0.755196 0.451873
4 2 0.0766459 0.650402 0.461585
1 1 0.136329 0.698026 0.526167
2 2 0.101528 0.640846 0.600473
ITEM: TIMESTEP
2700
ITEM: NUMBER OF ATOMS
7
ITEM: BOX BOUNDS pp pp pp
-5.0000000000000000e+00 5.0000000000000000e+00
-5.0000000000000000e+00 5.0000000000000000e+00
-5.0000000000000000e+00 5.0000000000000000e+00
ITEM: ATOMS id type xs ys zs
6 2 0.323912 0.246566 0.201205
5 1 0.243593 0.305267 0.191085
7 2 0.16327 0.363963 0.180972
3 2 0.151021 0.760374 0.459514
4 2 0.0712657 0.644102 0.470463
1 1 0.119395 0.703186 0.535209
2 2 0.0877695 0.645996 0.610901
ITEM: TIMESTEP
2750
ITEM: NUMBER OF ATOMS
7
ITEM: BOX BOUNDS pp pp pp
-5.0000000000000000e+00 5.0000000000000000e+00
-5.0000000000000000e+00 5.0000000000000000e+00
-5.0000000000000000e+00 5.0000000000000000e+00
ITEM: ATOMS id type xs ys zs
6 2 0.306688 0.236515 0.207253
5 1 0.231725 0.299929 0.1883
7 2 0.156767 0.363343 0.169349
3 2 0.130362 0.765403 0.467336
4 2 0.0691279 0.638765 0.481947
1 1 0.104863 0.70771 0.544937
2 2 0.0793649 0.650028 0.622536
ITEM: TIMESTEP
2800
ITEM: NUMBER OF ATOMS
7
ITEM: BOX BOUNDS pp pp pp
-5.0000000000000000e+00 5.0000000000000000e+00
-5.0000000000000000e+00 5.0000000000000000e+00
-5.0000000000000000e+00 5.0000000000000000e+00
ITEM: ATOMS id type xs ys zs
6 2 0.290282 0.22868 0.21557
5 1 0.221729 0.295023 0.185579
7 2 0.153167 0.361364 0.155593
3 2 0.110087 0.768757 0.474122
4 2 0.0690358 0.634936 0.494279
1 1 0.091203 0.711875 0.554175
2 2 0.0723177 0.655006 0.63423
ITEM: TIMESTEP
2850
ITEM: NUMBER OF ATOMS
7
ITEM: BOX BOUNDS pp pp pp
-5.0000000000000000e+00 5.0000000000000000e+00
-5.0000000000000000e+00 5.0000000000000000e+00
-5.0000000000000000e+00 5.0000000000000000e+00
ITEM: ATOMS id type xs ys zs
6 2 0.273656 0.222098 0.22335
5 1 0.21294 0.290061 0.182179
7 2 0.152232 0.358019 0.141013
3 2 0.0891704 0.770103 0.479734
4 2 0.0688347 0.632918 0.507431
1 1 0.0790428 0.715499 0.562902
2 2 0.0689037 0.660898 0.646063
ITEM: TIMESTEP
2900
ITEM: NUMBER OF ATOMS
7
ITEM: BOX BOUNDS pp pp pp
-5.0000000000000000e+00 5.0000000000000000e+00
-5.0000000000000000e+00 5.0000000000000000e+00
-5.0000000000000000e+00 5.0000000000000000e+00
ITEM: ATOMS id type xs ys zs
6 2 0.254414 0.216145 0.229773
5 1 0.203552 0.284843 0.177871
7 2 0.15269 0.353552 0.125972
3 2 0.067877 0.769041 0.484784
4 2 0.0695985 0.632281 0.52075
1 1 0.0679372 0.718629 0.571146
2 2 0.067995 0.668217 0.657517
ITEM: TIMESTEP
2950
ITEM: NUMBER OF ATOMS
7
ITEM: BOX BOUNDS pp pp pp
-5.0000000000000000e+00 5.0000000000000000e+00
-5.0000000000000000e+00 5.0000000000000000e+00
-5.0000000000000000e+00 5.0000000000000000e+00
ITEM: ATOMS id type xs ys zs
6 2 0.234282 0.213573 0.23532
5 1 0.193374 0.279915 0.172671
7 2 0.15247 0.346263 0.110019
3 2 0.0466604 0.7669 0.490653
4 2 0.0721502 0.633973 0.531658
1 1 0.0572589 0.720894 0.578805
2 2 0.0678484 0.674891 0.666957
ITEM: TIMESTEP
3000
ITEM: NUMBER OF ATOMS
7
ITEM: BOX BOUNDS pp pp pp
-5.0000000000000000e+00 5.0000000000000000e+00
-5.0000000000000000e+00 5.0000000000000000e+00
-5.0000000000000000e+00 5.0000000000000000e+00
ITEM: ATOMS id type xs ys zs
6 2 0.21474 0.212302 0.238492
5 1 0.183766 0.274362 0.166459
7 2 0.152792 0.336439 0.0944362
3 2 0.0283516 0.762325 0.497758
4 2 0.0759801 0.637098 0.543014
1 1 0.0477432 0.722207 0.587273
2 2 0.0671356 0.682085 0.676805
ITEM: TIMESTEP
3050
ITEM: NUMBER OF ATOMS
7
ITEM: BOX BOUNDS pp pp pp
-5.0000000000000000e+00 5.0000000000000000e+00
-5.0000000000000000e+00 5.0000000000000000e+00
-5.0000000000000000e+00 5.0000000000000000e+00
ITEM: ATOMS id type xs ys zs
7 2 0.154061 0.32453 0.0803505
5 1 0.175003 0.267823 0.160004
6 2 0.195957 0.211106 0.239661
4 2 0.0760749 0.64198 0.553754
3 2 0.00891082 0.75608 0.504047
1 1 0.0370733 0.724484 0.594647
2 2 0.0652283 0.692883 0.68525
ITEM: TIMESTEP
3100
ITEM: NUMBER OF ATOMS
7
ITEM: BOX BOUNDS pp pp pp
-5.0000000000000000e+00 5.0000000000000000e+00
-5.0000000000000000e+00 5.0000000000000000e+00
-5.0000000000000000e+00 5.0000000000000000e+00
ITEM: ATOMS id type xs ys zs
7 2 0.155157 0.312564 0.0686972
5 1 0.16541 0.26147 0.154048
6 2 0.175663 0.210382 0.239405
4 2 0.0769519 0.649022 0.56398
3 2 -0.0096222 0.7477 0.511373
1 1 0.0265776 0.726519 0.602154
2 2 0.0627866 0.705333 0.692933
ITEM: TIMESTEP
3150
ITEM: NUMBER OF ATOMS
7
ITEM: BOX BOUNDS pp pp pp
-5.0000000000000000e+00 5.0000000000000000e+00
-5.0000000000000000e+00 5.0000000000000000e+00
-5.0000000000000000e+00 5.0000000000000000e+00
ITEM: ATOMS id type xs ys zs
7 2 0.157431 0.297233 0.0589536
5 1 0.15645 0.25459 0.149398
6 2 0.155474 0.211953 0.239845
4 2 0.0792709 0.658107 0.572437
3 2 0.973872 0.736662 0.520274
1 1 0.0172001 0.726989 0.609883
2 2 0.0605231 0.717322 0.69949
ITEM: TIMESTEP
3200
ITEM: NUMBER OF ATOMS
7
ITEM: BOX BOUNDS pp pp pp
-5.0000000000000000e+00 5.0000000000000000e+00
-5.0000000000000000e+00 5.0000000000000000e+00
-5.0000000000000000e+00 5.0000000000000000e+00
ITEM: ATOMS id type xs ys zs
7 2 0.157175 0.28344 0.0512111
5 1 0.147314 0.24807 0.144226
6 2 0.137445 0.212706 0.237238
4 2 0.0797648 0.667609 0.578032
3 2 0.959841 0.724974 0.529781
1 1 0.00921439 0.72699 0.616718
2 2 0.0585884 0.729008 0.703656
ITEM: TIMESTEP
3250
ITEM: NUMBER OF ATOMS
7
ITEM: BOX BOUNDS pp pp pp
-5.0000000000000000e+00 5.0000000000000000e+00
-5.0000000000000000e+00 5.0000000000000000e+00
-5.0000000000000000e+00 5.0000000000000000e+00
ITEM: ATOMS id type xs ys zs
7 2 0.154304 0.269382 0.044556
5 1 0.138464 0.242608 0.1396
6 2 0.122629 0.215833 0.234638
4 2 0.0769245 0.673671 0.583286
3 2 0.94784 0.713169 0.541119
1 1 0.00255158 0.726937 0.623686
2 2 0.0572556 0.740704 0.706256
ITEM: TIMESTEP
3300
ITEM: NUMBER OF ATOMS
7
ITEM: BOX BOUNDS pp pp pp
-5.0000000000000000e+00 5.0000000000000000e+00
-5.0000000000000000e+00 5.0000000000000000e+00
-5.0000000000000000e+00 5.0000000000000000e+00
ITEM: ATOMS id type xs ys zs
7 2 0.149961 0.256969 0.038754
5 1 0.130447 0.237174 0.134817
6 2 0.110934 0.217389 0.230887
4 2 0.0732301 0.67634 0.588716