ITEM: TIMESTEP
50
ITEM: NUMBER OF ATOMS
10
ITEM: BOX BOUNDS pp pp pp
-2.0000000000000000e+01 2.0000000000000000e+01
-2.0000000000000000e+01 2.0000000000000000e+01
-2.0000000000000000e+01 2.0000000000000000e+01
ITEM: ATOMS id type xs ys zs
1 1 0.499995 0.500012 0.500017
2 2 0.524995 0.500024 0.500025
3 2 0.474995 0.500001 0.500009
4 2 0.499984 0.525012 0.500025
5 1 0.625009 0.625008 0.624985
6 2 0.650009 0.624993 0.62499
7 2 0.600009 0.625022 0.624981
8 1 0.374985 0.375018 0.375034
9 2 0.399986 0.375015 0.375041
10 2 0.349985 0.375021 0.375026
ITEM: TIMESTEP
100
ITEM: NUMBER OF ATOMS
10
ITEM: BOX BOUNDS pp pp pp
-2.0000000000000000e+01 2.0000000000000000e+01
-2.0000000000000000e+01 2.0000000000000000e+01
-2.0000000000000000e+01 2.0000000000000000e+01
ITEM: ATOMS id type xs ys zs
1 1 0.500015 0.500027 0.500049
2 2 0.525015 0.500043 0.500049
3 2 0.475015 0.50001 0.50005
4 2 0.499998 0.525027 0.500078
5 1 0.62501 0.625016 0.624957
6 2 0.65001 0.624956 0.624946
7 2 0.60001 0.625076 0.624968
8 1 0.374961 0.375049 0.375077
9 2 0.399961 0.375054 0.375082
10 2 0.349961 0.375044 0.375072
ITEM: TIMESTEP
150
ITEM: NUMBER OF ATOMS
10
ITEM: BOX BOUNDS pp pp pp
-2.0000000000000000e+01 2.0000000000000000e+01
-2.0000000000000000e+01 2.0000000000000000e+01
-2.0000000000000000e+01 2.0000000000000000e+01
ITEM: ATOMS id type xs ys zs
1 1 0.500052 0.50004 0.50008
2 2 0.525052 0.500061 0.500089
3 2 0.475052 0.500019 0.500071
4 2 0.500032 0.52504 0.500135
5 1 0.625048 0.625033 0.624939
6 2 0.650047 0.62488 0.624943
7 2 0.600049 0.625186 0.624936
8 1 0.374905 0.375083 0.37511
9 2 0.399905 0.375113 0.37508
10 2 0.349905 0.375053 0.37514
ITEM: TIMESTEP
200
ITEM: NUMBER OF ATOMS
10
ITEM: BOX BOUNDS pp pp pp
-2.0000000000000000e+01 2.0000000000000000e+01
-2.0000000000000000e+01 2.0000000000000000e+01
-2.0000000000000000e+01 2.0000000000000000e+01
ITEM: ATOMS id type xs ys zs
1 1 0.500039 0.500043 0.500131
2 2 0.525039 0.500042 0.500146
3 2 0.475039 0.500044 0.500117
4 2 0.50004 0.525043 0.500157
5 1 0.625049 0.625057 0.624907
6 2 0.650047 0.624751 0.624943
7 2 0.600051 0.625363 0.624872
8 1 0.374873 0.375087 0.375133
9 2 0.399873 0.375203 0.375079
10 2 0.349873 0.374971 0.375188
ITEM: TIMESTEP
250
ITEM: NUMBER OF ATOMS
10
ITEM: BOX BOUNDS pp pp pp
-2.0000000000000000e+01 2.0000000000000000e+01
-2.0000000000000000e+01 2.0000000000000000e+01
-2.0000000000000000e+01 2.0000000000000000e+01
ITEM: ATOMS id type xs ys zs
1 1 0.500019 0.500074 0.500199
2 2 0.525019 0.500051 0.500221
3 2 0.475019 0.500098 0.500177
4 2 0.500043 0.525074 0.500198
5 1 0.625039 0.625053 0.624863
6 2 0.650035 0.624602 0.624945
7 2 0.600043 0.625504 0.624782
8 1 0.374825 0.375083 0.375196
9 2 0.399823 0.37534 0.37515
10 2 0.349826 0.374826 0.375242
ITEM: TIMESTEP
300
ITEM: NUMBER OF ATOMS
10
ITEM: BOX BOUNDS pp pp pp
-2.0000000000000000e+01 2.0000000000000000e+01
-2.0000000000000000e+01 2.0000000000000000e+01
-2.0000000000000000e+01 2.0000000000000000e+01
ITEM: ATOMS id type xs ys zs
1 1 0.49999 0.500121 0.500281
2 2 0.52499 0.500066 0.500311
3 2 0.47499 0.500175 0.500251
4 2 0.500045 0.525121 0.500196
5 1 0.625005 0.625057 0.624825
6 2 0.649997 0.624428 0.62488
7 2 0.600012 0.625687 0.62477
8 1 0.37476 0.375071 0.375286
9 2 0.399757 0.375461 0.375231
10 2 0.349763 0.374682 0.375342
ITEM: TIMESTEP
350
ITEM: NUMBER OF ATOMS
10
ITEM: BOX BOUNDS pp pp pp
-2.0000000000000000e+01 2.0000000000000000e+01
-2.0000000000000000e+01 2.0000000000000000e+01
-2.0000000000000000e+01 2.0000000000000000e+01
ITEM: ATOMS id type xs ys zs
1 1 0.499955 0.500167 0.50037
2 2 0.524955 0.500063 0.500399
3 2 0.474955 0.50027 0.50034
4 2 0.500059 0.525166 0.500188
5 1 0.624948 0.625093 0.624767
6 2 0.649935 0.624271 0.624827
7 2 0.599962 0.625916 0.624707
8 1 0.374676 0.375044 0.375395
9 2 0.399671 0.375544 0.375325
10 2 0.349681 0.374544 0.375465
ITEM: TIMESTEP
400
ITEM: NUMBER OF ATOMS
10
ITEM: BOX BOUNDS pp pp pp
-2.0000000000000000e+01 2.0000000000000000e+01
-2.0000000000000000e+01 2.0000000000000000e+01
-2.0000000000000000e+01 2.0000000000000000e+01
ITEM: ATOMS id type xs ys zs
1 1 0.499921 0.500203 0.500445
2 2 0.52492 0.500063 0.500467
3 2 0.474921 0.500344 0.500423
4 2 0.500061 0.525201 0.500149
5 1 0.624882 0.625128 0.62471
6 2 0.649861 0.624122 0.624812
7 2 0.599902 0.626134 0.624608
8 1 0.374599 0.375006 0.375521
9 2 0.399591 0.375643 0.375467
10 2 0.349607 0.374369 0.375575
ITEM: TIMESTEP
450
ITEM: NUMBER OF ATOMS
10
ITEM: BOX BOUNDS pp pp pp
-2.0000000000000000e+01 2.0000000000000000e+01
-2.0000000000000000e+01 2.0000000000000000e+01
-2.0000000000000000e+01 2.0000000000000000e+01
ITEM: ATOMS id type xs ys zs
1 1 0.499889 0.500284 0.500532
2 2 0.524888 0.500113 0.500554
3 2 0.47489 0.500456 0.500509
4 2 0.500061 0.525281 0.50013
5 1 0.624791 0.625146 0.624712
6 2 0.649763 0.62398 0.624881
7 2 0.599819 0.626312 0.624543
8 1 0.374554 0.375005 0.375626
9 2 0.399541 0.375809 0.375598
10 2 0.349567 0.374201 0.375654
ITEM: TIMESTEP
500
ITEM: NUMBER OF ATOMS
10
ITEM: BOX BOUNDS pp pp pp
-2.0000000000000000e+01 2.0000000000000000e+01
-2.0000000000000000e+01 2.0000000000000000e+01
-2.0000000000000000e+01 2.0000000000000000e+01
ITEM: ATOMS id type xs ys zs
1 1 0.499878 0.500378 0.500624
2 2 0.524877 0.50014 0.500649
3 2 0.47488 0.500617 0.500599
4 2 0.500117 0.525373 0.500166
5 1 0.624673 0.625179 0.624742
6 2 0.649639 0.623875 0.624939
7 2 0.599708 0.626482 0.624545
8 1 0.374498 0.375015 0.37568
9 2 0.399478 0.376 0.375638
10 2 0.349517 0.374029 0.375722
ITEM: TIMESTEP
550
ITEM: NUMBER OF ATOMS
10
ITEM: BOX BOUNDS pp pp pp
-2.0000000000000000e+01 2.0000000000000000e+01
-2.0000000000000000e+01 2.0000000000000000e+01
-2.0000000000000000e+01 2.0000000000000000e+01
ITEM: ATOMS id type xs ys zs
1 1 0.499855 0.50045 0.500721
2 2 0.524853 0.500149 0.500745
3 2 0.474857 0.50075 0.500696
4 2 0.500155 0.525444 0.500259
5 1 0.624515 0.625227 0.624775
6 2 0.649474 0.623801 0.624959
7 2 0.599556 0.626653 0.624591
8 1 0.374451 0.375026 0.375756
9 2 0.399426 0.376129 0.375663
10 2 0.349475 0.373924 0.375849
ITEM: TIMESTEP
600
ITEM: NUMBER OF ATOMS
10
ITEM: BOX BOUNDS pp pp pp
-2.0000000000000000e+01 2.0000000000000000e+01
-2.0000000000000000e+01 2.0000000000000000e+01
-2.0000000000000000e+01 2.0000000000000000e+01
ITEM: ATOMS id type xs ys zs
1 1 0.499798 0.500503 0.500825
2 2 0.524796 0.500184 0.500825
3 2 0.4748 0.500822 0.500825
4 2 0.500117 0.525497 0.500367
5 1 0.62437 0.625279 0.624826
6 2 0.649323 0.623747 0.624976
7 2 0.599418 0.626812 0.624674
8 1 0.374383 0.375024 0.375873
9 2 0.399353 0.376241 0.375801
10 2 0.349412 0.373807 0.375946
ITEM: TIMESTEP
650
ITEM: NUMBER OF ATOMS
10
ITEM: BOX BOUNDS pp pp pp
-2.0000000000000000e+01 2.0000000000000000e+01
-2.0000000000000000e+01 2.0000000000000000e+01
-2.0000000000000000e+01 2.0000000000000000e+01
ITEM: ATOMS id type xs ys zs
1 1 0.499774 0.500562 0.500859
2 2 0.524772 0.500255 0.500802
3 2 0.474776 0.50087 0.500916
4 2 0.50008 0.525558 0.500506
5 1 0.624228 0.625321 0.624892
6 2 0.649173 0.623663 0.625032
7 2 0.599284 0.62698 0.624753
8 1 0.374294 0.375036 0.375997
9 2 0.399258 0.376387 0.376
10 2 0.349331 0.373686 0.375993
ITEM: TIMESTEP
700
ITEM: NUMBER OF ATOMS
10
ITEM: BOX BOUNDS pp pp pp
-2.0000000000000000e+01 2.0000000000000000e+01
-2.0000000000000000e+01 2.0000000000000000e+01
-2.0000000000000000e+01 2.0000000000000000e+01
ITEM: ATOMS id type xs ys zs
1 1 0.499785 0.500625 0.50089
2 2 0.524783 0.500298 0.500747
3 2 0.474788 0.500951 0.501033
4 2 0.50011 0.525621 0.500606
5 1 0.624063 0.625342 0.624957
6 2 0.649 0.623574 0.625102
7 2 0.599126 0.62711 0.624811
8 1 0.374167 0.375073 0.376104
9 2 0.399119 0.376613 0.376155
10 2 0.349214 0.373532 0.376053
ITEM: TIMESTEP
750
ITEM: NUMBER OF ATOMS
10
ITEM: BOX BOUNDS pp pp pp
-2.0000000000000000e+01 2.0000000000000000e+01
-2.0000000000000000e+01 2.0000000000000000e+01
-2.0000000000000000e+01 2.0000000000000000e+01
ITEM: ATOMS id type xs ys zs
1 1 0.499769 0.500705 0.500915
2 2 0.524765 0.500364 0.500675
3 2 0.474772 0.501046 0.501155
4 2 0.500108 0.525702 0.500728
5 1 0.623907 0.625334 0.625002
6 2 0.648833 0.623426 0.625192
7 2 0.59898 0.627241 0.624812
8 1 0.374046 0.375145 0.376191
9 2 0.398984 0.376891 0.376318
10 2 0.349107 0.373399 0.376063
ITEM: TIMESTEP
800
ITEM: NUMBER OF ATOMS
10
ITEM: BOX BOUNDS pp pp pp
-2.0000000000000000e+01 2.0000000000000000e+01
-2.0000000000000000e+01 2.0000000000000000e+01
-2.0000000000000000e+01 2.0000000000000000e+01
ITEM: ATOMS id type xs ys zs
1 1 0.499751 0.500781 0.500963
2 2 0.524747 0.50043 0.500623
3 2 0.474756 0.501133 0.501303
4 2 0.500101 0.525779 0.500802
5 1 0.623737 0.625334 0.625032
6 2 0.64865 0.623263 0.625234
7 2 0.598824 0.627405 0.62483
8 1 0.373902 0.375241 0.376279
9 2 0.398825 0.377181 0.376514
10 2 0.348978 0.373301 0.376044
ITEM: TIMESTEP
850
ITEM: NUMBER OF ATOMS
10
ITEM: BOX BOUNDS pp pp pp
-2.0000000000000000e+01 2.0000000000000000e+01
-2.0000000000000000e+01 2.0000000000000000e+01
-2.0000000000000000e+01 2.0000000000000000e+01
ITEM: ATOMS id type xs ys zs
1 1 0.499758 0.500848 0.501002
2 2 0.524752 0.500469 0.500566
3 2 0.474765 0.501227 0.501439
4 2 0.500134 0.525844 0.500799
5 1 0.623557 0.625372 0.625087
6 2 0.648454 0.62312 0.625275
7 2 0.598659 0.627623 0.624898
8 1 0.37374 0.375351 0.376376
9 2 0.398647 0.377477 0.376753
10 2 0.348834 0.373224 0.376
ITEM: TIMESTEP
900
ITEM: NUMBER OF ATOMS
10
ITEM: BOX BOUNDS pp pp pp
-2.0000000000000000e+01 2.0000000000000000e+01
-2.0000000000000000e+01 2.0000000000000000e+01
-2.0000000000000000e+01 2.0000000000000000e+01
ITEM: ATOMS id type xs ys zs
1 1 0.499777 0.500895 0.501046
2 2 0.524767 0.500466 0.500481
3 2 0.474787 0.501323 0.501611
4 2 0.500199 0.52589 0.50078
5 1 0.623306 0.625385 0.625151
6 2 0.648187 0.622962 0.625376
7 2 0.598424 0.627807 0.624925
8 1 0.373568 0.37547 0.376443
9 2 0.398454 0.377788 0.377035
10 2 0.348683 0.373151 0.37585
ITEM: TIMESTEP
950
ITEM: NUMBER OF ATOMS
10
ITEM: BOX BOUNDS pp pp pp
-2.0000000000000000e+01 2.0000000000000000e+01
-2.0000000000000000e+01 2.0000000000000000e+01
-2.0000000000000000e+01 2.0000000000000000e+01
ITEM: ATOMS id type xs ys zs
1 1 0.499754 0.500938 0.501066
2 2 0.52474 0.500454 0.500379
3 2 0.474768 0.501422 0.501754
4 2 0.500227 0.52593 0.500665
5 1 0.623069 0.625365 0.625196
6 2 0.647933 0.622768 0.625453
7 2 0.598206 0.627963 0.624939
8 1 0.373426 0.37557 0.376561
9 2 0.398286 0.378078 0.377403
10 2 0.348567 0.373061 0.375718
ITEM: TIMESTEP
1000
ITEM: NUMBER OF ATOMS
10
ITEM: BOX BOUNDS pp pp pp
-2.0000000000000000e+01 2.0000000000000000e+01
-2.0000000000000000e+01 2.0000000000000000e+01
-2.0000000000000000e+01 2.0000000000000000e+01
ITEM: ATOMS id type xs ys zs
1 1 0.499712 0.500957 0.5011
2 2 0.524692 0.500413 0.500261
3 2 0.474731 0.501501 0.50194
4 2 0.500238 0.525946 0.500568
5 1 0.62286 0.625332 0.625254
6 2 0.64771 0.622612 0.625512
7 2 0.59801 0.628051 0.624997
8 1 0.373304 0.375684 0.376681
9 2 0.398129 0.37844 0.377732
10 2 0.348479 0.372928 0.37563
ITEM: TIMESTEP
1050
ITEM: NUMBER OF ATOMS
10
ITEM: BOX BOUNDS pp pp pp
-2.0000000000000000e+01 2.0000000000000000e+01
-2.0000000000000000e+01 2.0000000000000000e+01
-2.0000000000000000e+01 2.0000000000000000e+01
ITEM: ATOMS id type xs ys zs
1 1 0.499671 0.500972 0.501154
2 2 0.524644 0.500361 0.500165
3 2 0.474698 0.501583 0.502142
4 2 0.500255 0.525956 0.500487
5 1 0.622656 0.625297 0.625257
6 2 0.647495 0.622472 0.62547
7 2 0.597818 0.628123 0.625044
8 1 0.373134 0.375799 0.376797
9 2 0.397917 0.378828 0.378065
10 2 0.34835 0.372771 0.375529
ITEM: TIMESTEP
1100
ITEM: NUMBER OF ATOMS
10
ITEM: BOX BOUNDS pp pp pp
-2.0000000000000000e+01 2.0000000000000000e+01
-2.0000000000000000e+01 2.0000000000000000e+01
-2.0000000000000000e+01 2.0000000000000000e+01
ITEM: ATOMS id type xs ys zs
1 1 0.499648 0.500992 0.501265
2 2 0.524615 0.500365 0.500163
3 2 0.47468 0.501618 0.502366
4 2 0.500238 0.525971 0.50044
5 1 0.622431 0.625297 0.625249
6 2 0.647258 0.622368 0.625352
7 2 0.597603 0.628227 0.625146
8 1 0.372941 0.375928 0.37692
9 2 0.397677 0.379223 0.378432
10 2 0.348205 0.372634 0.375409
ITEM: TIMESTEP
1150
ITEM: NUMBER OF ATOMS
10
ITEM: BOX BOUNDS pp pp pp
-2.0000000000000000e+01 2.0000000000000000e+01
-2.0000000000000000e+01 2.0000000000000000e+01
-2.0000000000000000e+01 2.0000000000000000e+01
ITEM: ATOMS id type xs ys zs
1 1 0.499654 0.50098 0.501407
2 2 0.524617 0.500346 0.500214
3 2 0.47469 0.501614 0.5026
4 2 0.500235 0.525949 0.500318
5 1 0.62219 0.625328 0.625275
6 2 0.647001 0.622259 0.625217
7 2 0.597379 0.628398 0.625333
8 1 0.372739 0.376009 0.377026
9 2 0.39742 0.37959 0.37876
10 2 0.348057 0.372428 0.375293
ITEM: TIMESTEP
1200
ITEM: NUMBER OF ATOMS
10
ITEM: BOX BOUNDS pp pp pp
-2.0000000000000000e+01 2.0000000000000000e+01
-2.0000000000000000e+01 2.0000000000000000e+01
-2.0000000000000000e+01 2.0000000000000000e+01
ITEM: ATOMS id type xs ys zs
1 1 0.499657 0.500963 0.501547
2 2 0.524615 0.500314 0.500262
3 2 0.474698 0.501613 0.502831
4 2 0.500237 0.52592 0.500194
5 1 0.621943 0.625363 0.625306
6 2 0.646733 0.622137 0.625103
7 2 0.597152 0.628588 0.625508
8 1 0.37258 0.376072 0.377158
9 2 0.397201 0.379948 0.379099
10 2 0.347958 0.372196 0.375218
ITEM: TIMESTEP
1250
ITEM: NUMBER OF ATOMS
10
ITEM: BOX BOUNDS pp pp pp
-2.0000000000000000e+01 2.0000000000000000e+01
-2.0000000000000000e+01 2.0000000000000000e+01
-2.0000000000000000e+01 2.0000000000000000e+01
ITEM: ATOMS id type xs ys zs
1 1 0.499644 0.500935 0.501693
2 2 0.524598 0.500257 0.500333
3 2 0.474691 0.501614 0.503054
4 2 0.500234 0.525875 0.500073
5 1 0.621647 0.625385 0.625375
6 2 0.646416 0.622012 0.625073
7 2 0.596877 0.628757 0.625676
8 1 0.372424 0.376107 0.377283
9 2 0.396986 0.380266 0.379391
10 2 0.347863 0.371947 0.375175
ITEM: TIMESTEP
1300
ITEM: NUMBER OF ATOMS
10
ITEM: BOX BOUNDS pp pp pp
-2.0000000000000000e+01 2.0000000000000000e+01
-2.0000000000000000e+01 2.0000000000000000e+01
-2.0000000000000000e+01 2.0000000000000000e+01
ITEM: ATOMS id type xs ys zs
1 1 0.499628 0.500903 0.501857
2 2 0.524574 0.500157 0.500401
3 2 0.474681 0.501649 0.503312
4 2 0.500264 0.525824 0.499976
5 1 0.621313 0.625399 0.625435
6 2 0.646063 0.621891 0.625069
7 2 0.596564 0.628908 0.625801
8 1 0.372277 0.376122 0.37741
9 2 0.396769 0.380559 0.379741
10 2 0.347784 0.371686 0.37508
ITEM: TIMESTEP
1350
ITEM: NUMBER OF ATOMS
10
ITEM: BOX BOUNDS pp pp pp
-2.0000000000000000e+01 2.0000000000000000e+01
-2.0000000000000000e+01 2.0000000000000000e+01
-2.0000000000000000e+01 2.0000000000000000e+01
ITEM: ATOMS id type xs ys zs
1 1 0.499613 0.500885 0.501989
2 2 0.52455 0.50008 0.500402
3 2 0.474677 0.501689 0.503577
4 2 0.500282 0.525787 0.499888
5 1 0.620938 0.625404 0.62549
6 2 0.645668 0.621753 0.625111
7 2 0.596209 0.629054 0.625869
8 1 0.372079 0.376174 0.377553
9 2 0.396498 0.380866 0.380142
10 2 0.34766 0.371482 0.374964
ITEM: TIMESTEP
1400
ITEM: NUMBER OF ATOMS
10
ITEM: BOX BOUNDS pp pp pp
-2.0000000000000000e+01 2.0000000000000000e+01
-2.0000000000000000e+01 2.0000000000000000e+01
-2.0000000000000000e+01 2.0000000000000000e+01
ITEM: ATOMS id type xs ys zs
1 1 0.499586 0.500884 0.50217
2 2 0.524513 0.500001 0.500479
3 2 0.474659 0.501767 0.503862
4 2 0.500306 0.52576 0.49979
5 1 0.620509 0.625407 0.625543
6 2 0.645215 0.621605 0.62517
7 2 0.595802 0.629209 0.625917
8 1 0.37186 0.376243 0.377654
9 2 0.396205 0.38116 0.380508
10 2 0.347515 0.371326 0.374799
ITEM: TIMESTEP
1450
ITEM: NUMBER OF ATOMS
10
ITEM: BOX BOUNDS pp pp pp
-2.0000000000000000e+01 2.0000000000000000e+01
-2.0000000000000000e+01 2.0000000000000000e+01
-2.0000000000000000e+01 2.0000000000000000e+01
ITEM: ATOMS id type xs ys zs
1 1 0.499582 0.500857 0.502383
2 2 0.524501 0.499937 0.500608
3 2 0.474662 0.501776 0.504159
4 2 0.500304 0.525697 0.499656
5 1 0.62005 0.625396 0.625597
6 2 0.644722 0.621381 0.625209
7 2 0.595378 0.629412 0.625985
8 1 0.371621 0.376326 0.377747
9 2 0.395885 0.3815 0.380832
10 2 0.347357 0.371153 0.374664
ITEM: TIMESTEP
1500
ITEM: NUMBER OF ATOMS
10
ITEM: BOX BOUNDS pp pp pp
-2.0000000000000000e+01 2.0000000000000000e+01
-2.0000000000000000e+01 2.0000000000000000e+01
-2.0000000000000000e+01 2.0000000000000000e+01
ITEM: ATOMS id type xs ys zs
1 1 0.49957 0.500802 0.502598
2 2 0.524484 0.499843 0.500754
3 2 0.474657 0.501761 0.504443
4 2 0.500296 0.5256 0.499505
5 1 0.619608 0.625384 0.62565
6 2 0.644249 0.621179 0.625265
7 2 0.594967 0.629588 0.626036
8 1 0.371365 0.376434 0.377815
9 2 0.395541 0.381864 0.381139
10 2 0.347189 0.371004 0.374491
ITEM: TIMESTEP
1550
ITEM: NUMBER OF ATOMS
10
ITEM: BOX BOUNDS pp pp pp
-2.0000000000000000e+01 2.0000000000000000e+01
-2.0000000000000000e+01 2.0000000000000000e+01
-2.0000000000000000e+01 2.0000000000000000e+01
ITEM: ATOMS id type xs ys zs
1 1 0.499543 0.500763 0.502779
2 2 0.524453 0.499781 0.500898
3 2 0.474633 0.501745 0.50466
4 2 0.500261 0.525518 0.499364
5 1 0.619172 0.625368 0.625722
6 2 0.643781 0.620975 0.625371
7 2 0.594564 0.629761 0.626073
8 1 0.371079 0.376551 0.37785
9 2 0.395162 0.382234 0.381418
10 2 0.346996 0.370867 0.374282
ITEM: TIMESTEP
1600
ITEM: NUMBER OF ATOMS
10
ITEM: BOX BOUNDS pp pp pp
-2.0000000000000000e+01 2.0000000000000000e+01
-2.0000000000000000e+01 2.0000000000000000e+01
-2.0000000000000000e+01 2.0000000000000000e+01
ITEM: ATOMS id type xs ys zs
1 1 0.499479 0.50074 0.502954
2 2 0.524386 0.499744 0.501046
3 2 0.474571 0.501737 0.504861
4 2 0.500179 0.525445 0.499189
5 1 0.618749 0.625369 0.625809
6 2 0.643323 0.620782 0.625527
7 2 0.594175 0.629956 0.62609
8 1 0.370753 0.376624 0.377904
9 2 0.39474 0.382552 0.381707
10 2 0.346765 0.370696 0.3741
ITEM: TIMESTEP
1650
ITEM: NUMBER OF ATOMS
10
ITEM: BOX BOUNDS pp pp pp
-2.0000000000000000e+01 2.0000000000000000e+01
-2.0000000000000000e+01 2.0000000000000000e+01
-2.0000000000000000e+01 2.0000000000000000e+01
ITEM: ATOMS id type xs ys zs
1 1 0.499445 0.500729 0.503113
2 2 0.524348 0.499728 0.501152
3 2 0.474542 0.50173 0.505074
4 2 0.500114 0.525384 0.499027
5 1 0.618339 0.625363 0.62588
6 2 0.642871 0.620555 0.625654
7 2 0.593806 0.630171 0.626106
8 1 0.370389 0.376723 0.377957
9 2 0.394282 0.382908 0.38194
10 2 0.346496 0.370538 0.373974
ITEM: TIMESTEP
1700
ITEM: NUMBER OF ATOMS
10
ITEM: BOX BOUNDS pp pp pp
-2.0000000000000000e+01 2.0000000000000000e+01
-2.0000000000000000e+01 2.0000000000000000e+01
-2.0000000000000000e+01 2.0000000000000000e+01
ITEM: ATOMS id type xs ys zs
1 1 0.499436 0.500722 0.503275
2 2 0.524329 0.499694 0.501205
3 2 0.474543 0.501749 0.505345
4 2 0.500091 0.525332 0.498929
5 1 0.61795 0.625352 0.625969
6 2 0.642437 0.620314 0.625781
7 2 0.593464 0.630391 0.626156
8 1 0.369972 0.37681 0.378009
9 2 0.393778 0.383268 0.382076
10 2 0.346165 0.370351 0.373943
ITEM: TIMESTEP
1750
ITEM: NUMBER OF ATOMS
10
ITEM: BOX BOUNDS pp pp pp
-2.0000000000000000e+01 2.0000000000000000e+01
-2.0000000000000000e+01 2.0000000000000000e+01
-2.0000000000000000e+01 2.0000000000000000e+01
ITEM: ATOMS id type xs ys zs
1 1 0.499432 0.5007 0.503425
2 2 0.52431 0.499651 0.501189
3 2 0.474554 0.501748 0.50566
4 2 0.500057 0.525271 0.498859
5 1 0.617532 0.62534 0.626104
6 2 0.641954 0.619996 0.625935
7 2 0.593111 0.630684 0.626273
8 1 0.369556 0.376859 0.378074
9 2 0.393271 0.383596 0.382221
10 2 0.345841 0.370121 0.373927
ITEM: TIMESTEP
1800
ITEM: NUMBER OF ATOMS
10
ITEM: BOX BOUNDS pp pp pp
-2.0000000000000000e+01 2.0000000000000000e+01
-2.0000000000000000e+01 2.0000000000000000e+01
-2.0000000000000000e+01 2.0000000000000000e+01
ITEM: ATOMS id type xs ys zs
1 1 0.49943 0.500678 0.503575
2 2 0.524285 0.499576 0.501123
3 2 0.474575 0.501781 0.506028
4 2 0.500043 0.525203 0.498764
5 1 0.617128 0.625357 0.626228
6 2 0.641478 0.619696 0.626093
7 2 0.592778 0.631018 0.626362
8 1 0.369167 0.376873 0.378128
9 2 0.392788 0.383891 0.382343
10 2 0.345545 0.369856 0.373913
ITEM: TIMESTEP
1850
ITEM: NUMBER OF ATOMS
10
ITEM: BOX BOUNDS pp pp pp
-2.0000000000000000e+01 2.0000000000000000e+01
-2.0000000000000000e+01 2.0000000000000000e+01
-2.0000000000000000e+01 2.0000000000000000e+01
ITEM: ATOMS id type xs ys zs
1 1 0.499414 0.500678 0.50376
2 2 0.524248 0.499491 0.50114
3 2 0.47458 0.501865 0.50638
4 2 0.500041 0.525136 0.498623
5 1 0.616701 0.625386 0.626316
6 2 0.640977 0.619414 0.62622
7 2 0.592425 0.631359 0.626411
8 1 0.368742 0.376858 0.378199
9 2 0.392272 0.384166 0.382433
10 2 0.345212 0.369551 0.373965
ITEM: TIMESTEP
1900
ITEM: NUMBER OF ATOMS
10
ITEM: BOX BOUNDS pp pp pp
-2.0000000000000000e+01 2.0000000000000000e+01
-2.0000000000000000e+01 2.0000000000000000e+01
-2.0000000000000000e+01 2.0000000000000000e+01
ITEM: ATOMS id type xs ys zs
1 1 0.49938 0.500659 0.503913
2 2 0.524189 0.499359 0.501117
3 2 0.474571 0.501959 0.506709
4 2 0.500042 0.525047 0.498452
5 1 0.616262 0.625457 0.626378
6 2 0.640473 0.619228 0.626333
7 2 0.59205 0.631686 0.626424
8 1 0.368325 0.376831 0.378267
9 2 0.391758 0.384436 0.382519
10 2 0.344892 0.369227 0.374015
ITEM: TIMESTEP
1950
ITEM: NUMBER OF ATOMS
10
ITEM: BOX BOUNDS pp pp pp
-2.0000000000000000e+01 2.0000000000000000e+01
-2.0000000000000000e+01 2.0000000000000000e+01
-2.0000000000000000e+01 2.0000000000000000e+01
ITEM: ATOMS id type xs ys zs
1 1 0.499407 0.500644 0.504094
2 2 0.524191 0.499256 0.501125
3 2 0.474623 0.502032 0.507064
4 2 0.50007 0.524947 0.49827
5 1 0.615843 0.625553 0.626438
6 2 0.639992 0.619085 0.626419
7 2 0.591694 0.632021 0.626458
8 1 0.367927 0.376793 0.378325
9 2 0.391245 0.384718 0.382621
10 2 0.344609 0.368868 0.374029
ITEM: TIMESTEP
2000
ITEM: NUMBER OF ATOMS
10
ITEM: BOX BOUNDS pp pp pp
-2.0000000000000000e+01 2.0000000000000000e+01
-2.0000000000000000e+01 2.0000000000000000e+01
-2.0000000000000000e+01 2.0000000000000000e+01
ITEM: ATOMS id type xs ys zs
1 1 0.499472 0.500647 0.504316
2 2 0.524232 0.499185 0.501185
3 2 0.474712 0.50211 0.507448
4 2 0.500108 0.52484 0.498046
5 1 0.615466 0.625668 0.62649
6 2 0.639555 0.618982 0.626523
7 2 0.591376 0.632353 0.626458
8 1 0.367526 0.376725 0.378338
9 2 0.39072 0.384988 0.382671
10 2 0.344333 0.368463 0.374005
ITEM: TIMESTEP
2050
ITEM: NUMBER OF ATOMS
10
ITEM: BOX BOUNDS pp pp pp
-2.0000000000000000e+01 2.0000000000000000e+01
-2.0000000000000000e+01 2.0000000000000000e+01
-2.0000000000000000e+01 2.0000000000000000e+01
ITEM: ATOMS id type xs ys zs
1 1 0.499543 0.500646 0.504577
2 2 0.524273 0.499121 0.501244
3 2 0.474813 0.502172 0.50791
4 2 0.50011 0.524696 0.497773
5 1 0.615117 0.625808 0.626504
6 2 0.639165 0.618974 0.626551
7 2 0.59107 0.632642 0.626458
8 1 0.367099 0.376641 0.378323
9 2 0.390161 0.385265 0.382655
10 2 0.344037 0.368017 0.37399
ITEM: TIMESTEP
2100
ITEM: NUMBER OF ATOMS
10
ITEM: BOX BOUNDS pp pp pp
-2.0000000000000000e+01 2.0000000000000000e+01
-2.0000000000000000e+01 2.0000000000000000e+01
-2.0000000000000000e+01 2.0000000000000000e+01
ITEM: ATOMS id type xs ys zs
1 1 0.499622 0.500639 0.50483
2 2 0.52432 0.499082 0.501282
3 2 0.474925 0.502196 0.508379
4 2 0.500075 0.524534 0.497494
5 1 0.614784 0.625946 0.626504
6 2 0.638782 0.618936 0.62657
7 2 0.590788 0.632956 0.626439
8 1 0.36669 0.376542 0.378299
9 2 0.389616 0.385524 0.382627
10 2 0.343764 0.367561 0.373972
ITEM: TIMESTEP
2150
ITEM: NUMBER OF ATOMS
10
ITEM: BOX BOUNDS pp pp pp
-2.0000000000000000e+01 2.0000000000000000e+01
-2.0000000000000000e+01 2.0000000000000000e+01
-2.0000000000000000e+01 2.0000000000000000e+01
ITEM: ATOMS id type xs ys zs
1 1 0.499716 0.500618 0.505087
2 2 0.52438 0.49907 0.501306
3 2 0.475052 0.502167 0.508868
4 2 0.500003 0.524354 0.497242
5 1 0.614441 0.626132 0.626516
6 2 0.638375 0.61891 0.62665
7 2 0.590507 0.633354 0.626383
8 1 0.366264 0.376432 0.378228
9 2 0.389035 0.385803 0.382548
10 2 0.343493 0.367061 0.373907
ITEM: TIMESTEP
2200
ITEM: NUMBER OF ATOMS
10
ITEM: BOX BOUNDS pp pp pp
-2.0000000000000000e+01 2.0000000000000000e+01
-2.0000000000000000e+01 2.0000000000000000e+01
-2.0000000000000000e+01 2.0000000000000000e+01
ITEM: ATOMS id type xs ys zs
1 1 0.499803 0.50058 0.505327
2 2 0.524426 0.499032 0.501293
3 2 0.475179 0.502128 0.509362
4 2 0.499923 0.524157 0.497012
5 1 0.614101 0.626316 0.626548
6 2 0.637953 0.618833 0.626815
7 2 0.590249 0.6338 0.626281
8 1 0.365848 0.376338 0.378178
9 2 0.388445 0.38612 0.382503
10 2 0.343252 0.366555 0.373853
ITEM: TIMESTEP
2250
ITEM: NUMBER OF ATOMS
10
ITEM: BOX BOUNDS pp pp pp
-2.0000000000000000e+01 2.0000000000000000e+01
-2.0000000000000000e+01 2.0000000000000000e+01
-2.0000000000000000e+01 2.0000000000000000e+01
ITEM: ATOMS id type xs ys zs
1 1 0.499891 0.500526 0.505564
2 2 0.52448 0.49899 0.501319
3 2 0.475302 0.502061 0.50981
4 2 0.499839 0.523938 0.496798
5 1 0.613756 0.626507 0.626579
6 2 0.63752 0.618752 0.626993
7 2 0.589993 0.634262 0.626164
8 1 0.365464 0.376261 0.378096
9 2 0.387877 0.38645 0.382438
10 2 0.343051 0.366072 0.373755
ITEM: TIMESTEP
2300
ITEM: NUMBER OF ATOMS
10
ITEM: BOX BOUNDS pp pp pp
-2.0000000000000000e+01 2.0000000000000000e+01
-2.0000000000000000e+01 2.0000000000000000e+01
-2.0000000000000000e+01 2.0000000000000000e+01
ITEM: ATOMS id type xs ys zs
1 1 0.499982 0.50043 0.505814
2 2 0.524534 0.498903 0.501355
3 2 0.475431 0.501957 0.510273
4 2 0.49976 0.523681 0.496631
5 1 0.613407 0.626709 0.626636
6 2 0.637081 0.618697 0.627224
7 2 0.589733 0.63472 0.626048
8 1 0.365126 0.376214 0.377996
9 2 0.38735 0.386831 0.382286
10 2 0.342903 0.365598 0.373707
ITEM: TIMESTEP
2350
ITEM: NUMBER OF ATOMS
10
ITEM: BOX BOUNDS pp pp pp
-2.0000000000000000e+01 2.0000000000000000e+01
-2.0000000000000000e+01 2.0000000000000000e+01
-2.0000000000000000e+01 2.0000000000000000e+01
ITEM: ATOMS id type xs ys zs
1 1 0.500041 0.50034 0.506057
2 2 0.524551 0.498778 0.501387
3 2 0.475531 0.501902 0.510727
4 2 0.499684 0.523423 0.496462
5 1 0.613078 0.626895 0.626704
6 2 0.636648 0.618603 0.627533
7 2 0.589508 0.635187 0.625876
8 1 0.364826 0.376165 0.377898
9 2 0.386858 0.387212 0.382085
10 2 0.342793 0.365118 0.37371
ITEM: TIMESTEP
2400
ITEM: NUMBER OF ATOMS
10
ITEM: BOX BOUNDS pp pp pp
-2.0000000000000000e+01 2.0000000000000000e+01
-2.0000000000000000e+01 2.0000000000000000e+01
-2.0000000000000000e+01 2.0000000000000000e+01
ITEM: ATOMS id type xs ys zs
1 1 0.500114 0.50027 0.506285
2 2 0.524584 0.498701 0.501412
3 2 0.475643 0.501839 0.511158
4 2 0.499589 0.523174 0.496279
5 1 0.612725 0.627087 0.626756
6 2 0.636174 0.618486 0.627842
7 2 0.589276 0.635688 0.625671
8 1 0.364523 0.37609 0.377813
9 2 0.386362 0.387533 0.381944
10 2 0.342683 0.364646 0.373682
ITEM: TIMESTEP
2450
ITEM: NUMBER OF ATOMS
10
ITEM: BOX BOUNDS pp pp pp
-2.0000000000000000e+01 2.0000000000000000e+01
-2.0000000000000000e+01 2.0000000000000000e+01
-2.0000000000000000e+01 2.0000000000000000e+01
ITEM: ATOMS id type xs ys zs
1 1 0.500187 0.500165 0.50652
2 2 0.524617 0.498613 0.501444
3 2 0.475757 0.501717 0.511596
4 2 0.499466 0.522882 0.496107
5 1 0.612385 0.627278 0.6268
6 2 0.635698 0.618357 0.628181
7 2 0.589072 0.636199 0.625419
8 1 0.364171 0.376048 0.377739
9 2 0.385815 0.387879 0.381803
10 2 0.342526 0.364216 0.373674
ITEM: TIMESTEP
2500
ITEM: NUMBER OF ATOMS
10
ITEM: BOX BOUNDS pp pp pp
-2.0000000000000000e+01 2.0000000000000000e+01
-2.0000000000000000e+01 2.0000000000000000e+01
-2.0000000000000000e+01 2.0000000000000000e+01
ITEM: ATOMS id type xs ys zs
1 1 0.500256 0.500047 0.50675
2 2 0.524653 0.49849 0.501519
3 2 0.475859 0.501604 0.511981
4 2 0.499386 0.522593 0.495984
5 1 0.612055 0.627488 0.62686
6 2 0.635232 0.618265 0.628516
7 2 0.588878 0.636712 0.625204
8 1 0.363822 0.376003 0.377695
9 2 0.385263 0.388213 0.381721
10 2 0.342382 0.363793 0.373669
ITEM: TIMESTEP
2550
ITEM: NUMBER OF ATOMS
10
ITEM: BOX BOUNDS pp pp pp
-2.0000000000000000e+01 2.0000000000000000e+01
-2.0000000000000000e+01 2.0000000000000000e+01
-2.0000000000000000e+01 2.0000000000000000e+01
ITEM: ATOMS id type xs ys zs
1 1 0.500343 0.499914 0.506955
2 2 0.524711 0.498298 0.501609
3 2 0.475975 0.50153 0.512301
4 2 0.499393 0.522298 0.495862
5 1 0.611742 0.627706 0.626911
6 2 0.634786 0.61821 0.628856
7 2 0.588698 0.637202 0.624965
8 1 0.363501 0.375952 0.377658
9 2 0.384714 0.388553 0.381686
10 2 0.342288 0.363351 0.37363
ITEM: TIMESTEP
2600
ITEM: NUMBER OF ATOMS
10
ITEM: BOX BOUNDS pp pp pp
-2.0000000000000000e+01 2.0000000000000000e+01
-2.0000000000000000e+01 2.0000000000000000e+01
-2.0000000000000000e+01 2.0000000000000000e+01
ITEM: ATOMS id type xs ys zs
1 1 0.500441 0.499799 0.507152
2 2 0.52478 0.498122 0.501693
3 2 0.476102 0.501475 0.512611
4 2 0.499423 0.522039 0.49578
5 1 0.611422 0.627934 0.626933
6 2 0.63431 0.618122 0.629139
7 2 0.588534 0.637746 0.624728
8 1 0.363192 0.37592 0.377618
9 2 0.384178 0.388901 0.381626
10 2 0.342206 0.362938 0.373609
ITEM: TIMESTEP
2650
ITEM: NUMBER OF ATOMS
10
ITEM: BOX BOUNDS pp pp pp
-2.0000000000000000e+01 2.0000000000000000e+01
-2.0000000000000000e+01 2.0000000000000000e+01
-2.0000000000000000e+01 2.0000000000000000e+01
ITEM: ATOMS id type xs ys zs
1 1 0.500511 0.499674 0.507331
2 2 0.524819 0.497927 0.501756
3 2 0.476203 0.501421 0.512905
4 2 0.499418 0.521751 0.495651
5 1 0.611106 0.628133 0.626969
6 2 0.633808 0.617975 0.629496
7 2 0.588402 0.638291 0.624442
8 1 0.3629 0.375859 0.377624
9 2 0.383651 0.389223 0.381596
10 2 0.342148 0.362496 0.373651
ITEM: TIMESTEP
2700
ITEM: NUMBER OF ATOMS
10
ITEM: BOX BOUNDS pp pp pp
-2.0000000000000000e+01 2.0000000000000000e+01
-2.0000000000000000e+01 2.0000000000000000e+01
-2.0000000000000000e+01 2.0000000000000000e+01
ITEM: ATOMS id type xs ys zs
1 1 0.50059 0.499544 0.50747
2 2 0.524865 0.497725 0.501774
3 2 0.476316 0.501362 0.513166
4 2 0.499416 0.521446 0.495474
5 1 0.610791 0.628355 0.627008
6 2 0.633302 0.617866 0.629883
7 2 0.588281 0.638844 0.624132
8 1 0.362605 0.3758 0.377678
9 2 0.383112 0.389542 0.381627
10 2 0.342098 0.362058 0.373728
ITEM: TIMESTEP
2750
ITEM: NUMBER OF ATOMS
10
ITEM: BOX BOUNDS pp pp pp
-2.0000000000000000e+01 2.0000000000000000e+01
-2.0000000000000000e+01 2.0000000000000000e+01
-2.0000000000000000e+01 2.0000000000000000e+01
ITEM: ATOMS id type xs ys zs
1 1 0.500693 0.499438 0.507589
2 2 0.524939 0.497568 0.501793
3 2 0.476446 0.501308 0.513385
4 2 0.499429 0.521167 0.49529
5 1 0.610449 0.628563 0.627058