ITEM: TIMESTEP
50
ITEM: NUMBER OF ATOMS
23
ITEM: BOX BOUNDS pp pp pp
-5.0000000000000000e+00 5.0000000000000000e+00
-5.0000000000000000e+00 5.0000000000000000e+00
-5.0000000000000000e+00 5.0000000000000000e+00
ITEM: ATOMS id type xs ys zs
19 4 0.400102 0.500136 0.200126
17 2 0.500102 0.500004 0.200156
18 4 0.600102 0.499873 0.200186
33 4 0.400006 0.200282 0.500215
31 2 0.500006 0.200139 0.500122
32 4 0.600006 0.199996 0.50003
4 3 0.453105 0.419024 0.466943
47 4 0.0498916 0.499948 0.500013
45 2 0.149892 0.500011 0.500001
46 4 0.249892 0.500076 0.499989
1 1 0.500041 0.500023 0.50004
2 3 0.594088 0.500056 0.467173
38 2 0.849949 0.499928 0.499975
40 4 0.749949 0.499974 0.499984
39 4 0.949948 0.499882 0.499966
3 3 0.45307 0.581025 0.467004
26 4 0.399989 0.799855 0.499918
24 2 0.499989 0.800068 0.49989
25 4 0.599989 0.800281 0.499862
5 3 0.499899 0.499985 0.60004
12 4 0.400015 0.500019 0.800063
10 2 0.500014 0.499915 0.800034
11 4 0.600014 0.499811 0.800005
ITEM: TIMESTEP
100
ITEM: NUMBER OF ATOMS
23
ITEM: BOX BOUNDS pp pp pp
-5.0000000000000000e+00 5.0000000000000000e+00
-5.0000000000000000e+00 5.0000000000000000e+00
-5.0000000000000000e+00 5.0000000000000000e+00
ITEM: ATOMS id type xs ys zs
19 4 0.400326 0.500032 0.20033
17 2 0.500326 0.499811 0.200472
18 4 0.600325 0.499591 0.200615
33 4 0.400027 0.200772 0.500388
31 2 0.500026 0.200388 0.500254
32 4 0.600025 0.200005 0.500122
4 3 0.452957 0.419269 0.466802
47 4 0.0495746 0.49988 0.499971
45 2 0.149574 0.500071 0.499927
46 4 0.249575 0.500262 0.499883
1 1 0.499978 0.500111 0.500157
2 3 0.594149 0.499929 0.467647
38 2 0.849985 0.49971 0.499951
40 4 0.749985 0.500121 0.50015
39 4 0.949983 0.499298 0.499753
3 3 0.453346 0.581268 0.467024
26 4 0.399984 0.799565 0.499663
24 2 0.499982 0.800155 0.499603
25 4 0.59998 0.800747 0.499542
5 3 0.499458 0.499975 0.600156
12 4 0.400105 0.500046 0.800037
10 2 0.500104 0.499713 0.80007
11 4 0.600104 0.499381 0.800104
ITEM: TIMESTEP
150
ITEM: NUMBER OF ATOMS
23
ITEM: BOX BOUNDS pp pp pp
-5.0000000000000000e+00 5.0000000000000000e+00
-5.0000000000000000e+00 5.0000000000000000e+00
-5.0000000000000000e+00 5.0000000000000000e+00
ITEM: ATOMS id type xs ys zs
19 4 0.400494 0.499799 0.200575
17 2 0.500493 0.499567 0.200989
18 4 0.600491 0.499335 0.201403
33 4 0.400076 0.201213 0.500516
31 2 0.500074 0.200599 0.500315
32 4 0.600071 0.199984 0.500115
4 3 0.452991 0.41948 0.466592
47 4 0.0489332 0.500063 0.499855
45 2 0.148934 0.50021 0.499772
46 4 0.248934 0.500355 0.49969
1 1 0.499971 0.500137 0.500449
2 3 0.594355 0.49982 0.468565
38 2 0.850003 0.499483 0.49978
40 4 0.750008 0.500352 0.50016
39 4 0.949999 0.498613 0.499402
3 3 0.453741 0.581477 0.4672
26 4 0.399975 0.79924 0.499212
24 2 0.49997 0.800324 0.499258
25 4 0.599963 0.801407 0.499304
5 3 0.498786 0.499767 0.600441
12 4 0.400155 0.500366 0.800047
10 2 0.500153 0.499665 0.800222
11 4 0.60015 0.498964 0.800396
ITEM: TIMESTEP
200
ITEM: NUMBER OF ATOMS
23
ITEM: BOX BOUNDS pp pp pp
-5.0000000000000000e+00 5.0000000000000000e+00
-5.0000000000000000e+00 5.0000000000000000e+00
-5.0000000000000000e+00 5.0000000000000000e+00
ITEM: ATOMS id type xs ys zs
19 4 0.400535 0.499375 0.200869
17 2 0.500531 0.499298 0.201655
18 4 0.600528 0.499223 0.202441
33 4 0.400269 0.201395 0.500338
31 2 0.500266 0.200688 0.500319
32 4 0.600264 0.199981 0.500301
4 3 0.45323 0.419504 0.466395
47 4 0.0483123 0.500387 0.499525
45 2 0.148312 0.500481 0.499531
46 4 0.248312 0.500575 0.499537
1 1 0.499864 0.500134 0.500791
2 3 0.594512 0.499941 0.469701
38 2 0.849967 0.49934 0.499503
40 4 0.749977 0.500649 0.50006
39 4 0.949956 0.498032 0.498946
3 3 0.453856 0.5815 0.467298
26 4 0.400014 0.798752 0.498905
24 2 0.5 0.80041 0.498889
25 4 0.599986 0.802068 0.498872
5 3 0.497837 0.499583 0.600769
12 4 0.400198 0.500906 0.800273
10 2 0.500191 0.499822 0.800481
11 4 0.600185 0.498738 0.800689
ITEM: TIMESTEP
250
ITEM: NUMBER OF ATOMS
23
ITEM: BOX BOUNDS pp pp pp
-5.0000000000000000e+00 5.0000000000000000e+00
-5.0000000000000000e+00 5.0000000000000000e+00
-5.0000000000000000e+00 5.0000000000000000e+00
ITEM: ATOMS id type xs ys zs
19 4 0.400436 0.498752 0.20127
17 2 0.500429 0.498979 0.202341
18 4 0.600423 0.499206 0.203412
33 4 0.4005 0.201688 0.499996
31 2 0.500495 0.200813 0.500317
32 4 0.60049 0.199937 0.500638
4 3 0.453259 0.419686 0.466158
47 4 0.0476482 0.500628 0.499559
45 2 0.147648 0.500666 0.499478
46 4 0.247649 0.500703 0.499396
1 1 0.499763 0.500189 0.501023
2 3 0.59466 0.499855 0.470701
38 2 0.849869 0.499189 0.499295
40 4 0.74989 0.501106 0.499937
39 4 0.949849 0.497273 0.498653
3 3 0.454179 0.581679 0.467252
26 4 0.400094 0.79833 0.498506
24 2 0.500067 0.800651 0.498536
25 4 0.600039 0.802972 0.498567
5 3 0.496925 0.49953 0.60098
12 4 0.40035 0.501553 0.800568
10 2 0.500339 0.500078 0.800815
11 4 0.600327 0.498604 0.801062
ITEM: TIMESTEP
300
ITEM: NUMBER OF ATOMS
23
ITEM: BOX BOUNDS pp pp pp
-5.0000000000000000e+00 5.0000000000000000e+00
-5.0000000000000000e+00 5.0000000000000000e+00
-5.0000000000000000e+00 5.0000000000000000e+00
ITEM: ATOMS id type xs ys zs
19 4 0.400245 0.497745 0.201767
17 2 0.500232 0.4986 0.203108
18 4 0.600219 0.499454 0.204448
33 4 0.400662 0.202358 0.499799
31 2 0.500651 0.200936 0.50034
32 4 0.600639 0.199514 0.500881
4 3 0.453145 0.420105 0.465683
47 4 0.0469284 0.500633 0.499593
45 2 0.146928 0.500693 0.499495
46 4 0.246928 0.500752 0.499398
1 1 0.499728 0.500322 0.5011
2 3 0.594901 0.49955 0.471666
38 2 0.849682 0.499102 0.49919
40 4 0.749719 0.501735 0.499911
39 4 0.949645 0.496469 0.498469
3 3 0.454874 0.58209 0.467026
26 4 0.400182 0.797721 0.498152
24 2 0.500133 0.800858 0.498304
25 4 0.600084 0.803995 0.498456
5 3 0.495953 0.499534 0.601027
12 4 0.400457 0.502238 0.800835
10 2 0.500438 0.500379 0.801177
11 4 0.600421 0.498519 0.80152
ITEM: TIMESTEP
350
ITEM: NUMBER OF ATOMS
23
ITEM: BOX BOUNDS pp pp pp
-5.0000000000000000e+00 5.0000000000000000e+00
-5.0000000000000000e+00 5.0000000000000000e+00
-5.0000000000000000e+00 5.0000000000000000e+00
ITEM: ATOMS id type xs ys zs
19 4 0.400032 0.496671 0.202126
17 2 0.500006 0.498154 0.203807
18 4 0.599981 0.499637 0.20549
33 4 0.400944 0.203307 0.499441
31 2 0.500917 0.201113 0.500202
32 4 0.60089 0.198919 0.500964
4 3 0.453137 0.42055 0.464993
47 4 0.0463077 0.500543 0.499893
45 2 0.146307 0.500779 0.499598
46 4 0.246307 0.501016 0.499302
1 1 0.499643 0.500509 0.501086
2 3 0.59515 0.49938 0.472761
38 2 0.84938 0.499089 0.499237
40 4 0.749439 0.502406 0.500103
39 4 0.949322 0.495773 0.498372
3 3 0.455538 0.582525 0.46663
26 4 0.4002 0.797291 0.498085
24 2 0.500126 0.801154 0.498082
25 4 0.600051 0.805015 0.49808
5 3 0.4947 0.499573 0.60096
12 4 0.400491 0.50268 0.800959
10 2 0.500468 0.50063 0.801472
11 4 0.600446 0.498581 0.801985
ITEM: TIMESTEP
400
ITEM: NUMBER OF ATOMS
23
ITEM: BOX BOUNDS pp pp pp
-5.0000000000000000e+00 5.0000000000000000e+00
-5.0000000000000000e+00 5.0000000000000000e+00
-5.0000000000000000e+00 5.0000000000000000e+00
ITEM: ATOMS id type xs ys zs
19 4 0.399712 0.495678 0.202378
17 2 0.49967 0.497652 0.204472
18 4 0.599629 0.499627 0.206567
33 4 0.401115 0.204037 0.499185
31 2 0.501075 0.201364 0.500025
32 4 0.601036 0.198691 0.500864
4 3 0.453066 0.42112 0.46433
47 4 0.0457943 0.5004 0.500211
45 2 0.145792 0.500853 0.499668
46 4 0.245788 0.501307 0.499124
1 1 0.499491 0.500811 0.501113
2 3 0.595322 0.499308 0.473923
38 2 0.849153 0.499026 0.499312
40 4 0.749241 0.503041 0.500433
39 4 0.949067 0.495011 0.49819
3 3 0.456159 0.583079 0.466279
26 4 0.400144 0.79694 0.498356
24 2 0.50004 0.801481 0.497924
25 4 0.599936 0.806024 0.497491
5 3 0.493356 0.499728 0.600919
12 4 0.400516 0.502994 0.800913
10 2 0.500487 0.500712 0.801678
11 4 0.600458 0.498432 0.802444
ITEM: TIMESTEP
450
ITEM: NUMBER OF ATOMS
23
ITEM: BOX BOUNDS pp pp pp
-5.0000000000000000e+00 5.0000000000000000e+00
-5.0000000000000000e+00 5.0000000000000000e+00
-5.0000000000000000e+00 5.0000000000000000e+00
ITEM: ATOMS id type xs ys zs
19 4 0.399347 0.494722 0.202744
17 2 0.499288 0.497176 0.205141
18 4 0.599228 0.499631 0.207539
33 4 0.401214 0.20496 0.499034
31 2 0.501155 0.201661 0.499867
32 4 0.601098 0.198361 0.500701
4 3 0.453021 0.421768 0.463515
47 4 0.0453062 0.499943 0.500568
45 2 0.145299 0.500745 0.499702
46 4 0.245292 0.501547 0.498836
1 1 0.499418 0.501119 0.501061
2 3 0.59558 0.499129 0.475102
38 2 0.848938 0.498845 0.499405
40 4 0.749056 0.503473 0.500952
39 4 0.948817 0.494217 0.497858
3 3 0.457003 0.583702 0.465847
26 4 0.399911 0.796642 0.499037
24 2 0.499774 0.80177 0.497955
25 4 0.599637 0.806898 0.496875
5 3 0.491994 0.499866 0.600777
12 4 0.400517 0.503189 0.800685
10 2 0.500479 0.500637 0.801747
11 4 0.600441 0.498086 0.802808
ITEM: TIMESTEP
500
ITEM: NUMBER OF ATOMS
23
ITEM: BOX BOUNDS pp pp pp
-5.0000000000000000e+00 5.0000000000000000e+00
-5.0000000000000000e+00 5.0000000000000000e+00
-5.0000000000000000e+00 5.0000000000000000e+00
ITEM: ATOMS id type xs ys zs
19 4 0.39898 0.493785 0.203005
17 2 0.498896 0.496724 0.205838
18 4 0.598812 0.499663 0.208671
33 4 0.401155 0.20573 0.499206
31 2 0.501086 0.20205 0.499833
32 4 0.601016 0.19837 0.500459
4 3 0.453021 0.422316 0.462834
47 4 0.04481 0.499354 0.500979
45 2 0.144796 0.500568 0.499759
46 4 0.244781 0.501782 0.498538
1 1 0.49936 0.501409 0.50099
2 3 0.59584 0.498892 0.476284
38 2 0.848636 0.498627 0.499619
40 4 0.74879 0.503882 0.501413
39 4 0.948482 0.49337 0.497825
3 3 0.457861 0.584225 0.465237
26 4 0.399667 0.796238 0.499762
24 2 0.499485 0.802014 0.498044
25 4 0.599303 0.80779 0.496326
5 3 0.490632 0.500192 0.600601
12 4 0.400497 0.503467 0.800502
10 2 0.500448 0.500591 0.801697
11 4 0.600399 0.497714 0.802893
ITEM: TIMESTEP
550
ITEM: NUMBER OF ATOMS
23
ITEM: BOX BOUNDS pp pp pp
-5.0000000000000000e+00 5.0000000000000000e+00
-5.0000000000000000e+00 5.0000000000000000e+00
-5.0000000000000000e+00 5.0000000000000000e+00
ITEM: ATOMS id type xs ys zs
19 4 0.398595 0.492813 0.203274
17 2 0.498482 0.496231 0.206579
18 4 0.598369 0.499648 0.209884
33 4 0.401057 0.206455 0.499521
31 2 0.500973 0.202385 0.499848
32 4 0.60089 0.198315 0.500176
4 3 0.45316 0.422715 0.462383
47 4 0.0443787 0.498518 0.501272
45 2 0.144352 0.500402 0.499875
46 4 0.244324 0.502285 0.498478
1 1 0.499312 0.501659 0.501071
2 3 0.596093 0.498741 0.477618
38 2 0.848334 0.498267 0.499985
40 4 0.748529 0.504212 0.501872
39 4 0.948139 0.492323 0.498098
3 3 0.458606 0.584607 0.464715
26 4 0.399397 0.79573 0.500558
24 2 0.49915 0.802287 0.498048
25 4 0.598903 0.808842 0.495539
5 3 0.489292 0.500563 0.600562
12 4 0.400489 0.503934 0.800053
10 2 0.50042 0.500498 0.8015
11 4 0.60035 0.497063 0.802947
ITEM: TIMESTEP
600
ITEM: NUMBER OF ATOMS
23
ITEM: BOX BOUNDS pp pp pp
-5.0000000000000000e+00 5.0000000000000000e+00
-5.0000000000000000e+00 5.0000000000000000e+00
-5.0000000000000000e+00 5.0000000000000000e+00
ITEM: ATOMS id type xs ys zs
19 4 0.398291 0.491808 0.203482
17 2 0.498145 0.495712 0.207235
18 4 0.597997 0.499616 0.210989
33 4 0.400744 0.207255 0.499973
31 2 0.500642 0.202732 0.499869
32 4 0.600539 0.198209 0.499765
4 3 0.453352 0.422933 0.462109
47 4 0.0439411 0.497737 0.501551
45 2 0.143897 0.50028 0.500049
46 4 0.243854 0.502821 0.498548
1 1 0.499201 0.50184 0.501232
2 3 0.596245 0.498704 0.47892
38 2 0.848043 0.497895 0.500339
40 4 0.748271 0.504444 0.50198
39 4 0.947814 0.491346 0.498699
3 3 0.459086 0.584817 0.464292
26 4 0.398984 0.795363 0.501278
24 2 0.498665 0.802668 0.498053
25 4 0.598346 0.809974 0.494828
5 3 0.488011 0.500896 0.600599
12 4 0.400489 0.504369 0.799736
10 2 0.500397 0.500372 0.801331
11 4 0.600304 0.496375 0.802927
ITEM: TIMESTEP
650
ITEM: NUMBER OF ATOMS
23
ITEM: BOX BOUNDS pp pp pp
-5.0000000000000000e+00 5.0000000000000000e+00
-5.0000000000000000e+00 5.0000000000000000e+00
-5.0000000000000000e+00 5.0000000000000000e+00
ITEM: ATOMS id type xs ys zs
19 4 0.398059 0.490697 0.203809
17 2 0.497871 0.495124 0.208046
18 4 0.597683 0.499551 0.212283
33 4 0.400255 0.207964 0.500261
31 2 0.500132 0.203027 0.49976
32 4 0.600009 0.198092 0.499259
4 3 0.453583 0.423179 0.461692
47 4 0.0434019 0.497162 0.501615
45 2 0.143347 0.500132 0.500127
46 4 0.243292 0.503102 0.498638
1 1 0.499051 0.502024 0.501381
2 3 0.596347 0.498793 0.480213
38 2 0.847627 0.497671 0.500625
40 4 0.747885 0.50473 0.501882
39 4 0.94737 0.490613 0.499367
3 3 0.459462 0.585057 0.464
26 4 0.398603 0.795037 0.502061
24 2 0.498208 0.803011 0.498147
25 4 0.597813 0.810985 0.494234
5 3 0.48669 0.501058 0.60061
12 4 0.400418 0.504868 0.799542
10 2 0.500299 0.500259 0.801184
11 4 0.600179 0.49565 0.802826
ITEM: TIMESTEP
700
ITEM: NUMBER OF ATOMS
23
ITEM: BOX BOUNDS pp pp pp
-5.0000000000000000e+00 5.0000000000000000e+00
-5.0000000000000000e+00 5.0000000000000000e+00
-5.0000000000000000e+00 5.0000000000000000e+00
ITEM: ATOMS id type xs ys zs
19 4 0.397828 0.489862 0.204083
17 2 0.497605 0.494578 0.208836
18 4 0.59738 0.499295 0.213588
33 4 0.39965 0.208754 0.50024
31 2 0.499498 0.203298 0.499512
32 4 0.599346 0.197843 0.498785
4 3 0.453551 0.423358 0.461409
47 4 0.0427747 0.496717 0.501582
45 2 0.142706 0.50009 0.500087
46 4 0.242639 0.503462 0.498593
1 1 0.498781 0.502097 0.501577
2 3 0.596274 0.498679 0.481373
38 2 0.847177 0.497625 0.500688
40 4 0.74747 0.50522 0.501624
39 4 0.946884 0.490029 0.499754
3 3 0.459728 0.585222 0.46384
26 4 0.398254 0.794674 0.502964
24 2 0.497775 0.803264 0.4983
25 4 0.597297 0.811854 0.493636
5 3 0.485436 0.501116 0.600679
12 4 0.400259 0.505398 0.799351
10 2 0.500106 0.500175 0.8011
11 4 0.599956 0.494952 0.802849
ITEM: TIMESTEP
750
ITEM: NUMBER OF ATOMS
23
ITEM: BOX BOUNDS pp pp pp
-5.0000000000000000e+00 5.0000000000000000e+00
-5.0000000000000000e+00 5.0000000000000000e+00
-5.0000000000000000e+00 5.0000000000000000e+00
ITEM: ATOMS id type xs ys zs
19 4 0.397545 0.489166 0.204612
17 2 0.497297 0.494145 0.209602
18 4 0.597048 0.499125 0.214593
33 4 0.399026 0.209511 0.500192
31 2 0.498846 0.203587 0.499145
32 4 0.598664 0.197663 0.498098
4 3 0.453366 0.423563 0.461211
47 4 0.042075 0.496466 0.501549
45 2 0.142001 0.500029 0.50015
46 4 0.241928 0.503591 0.49875
1 1 0.498482 0.502142 0.501818
2 3 0.596143 0.498423 0.482492
38 2 0.846743 0.497557 0.500728
40 4 0.747092 0.50587 0.501365
39 4 0.946396 0.489244 0.50009
3 3 0.460035 0.585405 0.463764
26 4 0.398048 0.794202 0.504012
24 2 0.497462 0.803457 0.498435
25 4 0.596877 0.812712 0.492859
5 3 0.484241 0.501168 0.600794
12 4 0.400022 0.506091 0.799222
10 2 0.499826 0.500122 0.801096
11 4 0.59963 0.494154 0.80297
ITEM: TIMESTEP
800
ITEM: NUMBER OF ATOMS
23
ITEM: BOX BOUNDS pp pp pp
-5.0000000000000000e+00 5.0000000000000000e+00
-5.0000000000000000e+00 5.0000000000000000e+00
-5.0000000000000000e+00 5.0000000000000000e+00
ITEM: ATOMS id type xs ys zs
19 4 0.397206 0.488577 0.205162
17 2 0.496943 0.493699 0.210285
18 4 0.59668 0.498821 0.21541
33 4 0.398367 0.210222 0.500246
31 2 0.498148 0.203773 0.498753
32 4 0.597929 0.197323 0.497258
4 3 0.453244 0.423802 0.461031
47 4 0.0415179 0.495965 0.50144
45 2 0.141443 0.499704 0.500359
46 4 0.241367 0.503443 0.499278
1 1 0.498037 0.502324 0.502103
2 3 0.595878 0.498517 0.483726
38 2 0.846354 0.497593 0.500644
40 4 0.74677 0.50669 0.501165
39 4 0.945938 0.488497 0.500122
3 3 0.460042 0.585638 0.463706
26 4 0.397818 0.793542 0.505118
24 2 0.497091 0.803633 0.498566
25 4 0.596365 0.813723 0.492016
5 3 0.482833 0.501328 0.600934
12 4 0.399872 0.506551 0.79924
10 2 0.499634 0.49995 0.801214
11 4 0.599397 0.493349 0.803188
ITEM: TIMESTEP
850
ITEM: NUMBER OF ATOMS
23
ITEM: BOX BOUNDS pp pp pp
-5.0000000000000000e+00 5.0000000000000000e+00
-5.0000000000000000e+00 5.0000000000000000e+00
-5.0000000000000000e+00 5.0000000000000000e+00
ITEM: ATOMS id type xs ys zs
19 4 0.396759 0.488161 0.205485
17 2 0.496488 0.493332 0.210708
18 4 0.596218 0.498504 0.21593
33 4 0.397665 0.210855 0.500333
31 2 0.497406 0.203933 0.498409
32 4 0.597148 0.19701 0.496486
4 3 0.453363 0.424011 0.460667
47 4 0.0411243 0.495121 0.501339
45 2 0.14104 0.499142 0.500463
46 4 0.240955 0.503162 0.499589
1 1 0.497591 0.502512 0.502388
2 3 0.595645 0.498834 0.485158
38 2 0.845971 0.497756 0.500601
40 4 0.746449 0.507512 0.501221
39 4 0.945492 0.488 0.49998
3 3 0.459965 0.585849 0.463682
26 4 0.39761 0.792987 0.506088
24 2 0.496751 0.803772 0.498698
25 4 0.595893 0.814558 0.491308
5 3 0.481226 0.501343 0.601033
12 4 0.399687 0.506895 0.799044
10 2 0.499418 0.499917 0.801312
11 4 0.599148 0.492939 0.803579
ITEM: TIMESTEP
900
ITEM: NUMBER OF ATOMS
23
ITEM: BOX BOUNDS pp pp pp
-5.0000000000000000e+00 5.0000000000000000e+00
-5.0000000000000000e+00 5.0000000000000000e+00
-5.0000000000000000e+00 5.0000000000000000e+00
ITEM: ATOMS id type xs ys zs
19 4 0.396358 0.487656 0.205882
17 2 0.496086 0.492909 0.211053
18 4 0.595814 0.498161 0.216224
33 4 0.397062 0.211361 0.500585
31 2 0.496772 0.204143 0.49813
32 4 0.596481 0.196925 0.495677
4 3 0.453785 0.424174 0.460304
47 4 0.0408031 0.494079 0.501362
45 2 0.140701 0.498535 0.500652
46 4 0.240599 0.502992 0.499941
1 1 0.497233 0.502739 0.502714
2 3 0.595504 0.49942 0.486681
38 2 0.845667 0.497922 0.500561
40 4 0.746217 0.508366 0.501391
39 4 0.945116 0.487477 0.499732
3 3 0.459807 0.586026 0.463708
26 4 0.397571 0.792296 0.507014
24 2 0.496546 0.803893 0.498679
25 4 0.595521 0.815489 0.490344
5 3 0.479665 0.501322 0.601149
12 4 0.399523 0.507113 0.798613
10 2 0.499223 0.49984 0.801254
11 4 0.598924 0.492568 0.803895
ITEM: TIMESTEP
950
ITEM: NUMBER OF ATOMS
23
ITEM: BOX BOUNDS pp pp pp
-5.0000000000000000e+00 5.0000000000000000e+00
-5.0000000000000000e+00 5.0000000000000000e+00
-5.0000000000000000e+00 5.0000000000000000e+00
ITEM: ATOMS id type xs ys zs
19 4 0.396069 0.487277 0.206313
17 2 0.495811 0.492424 0.211311
18 4 0.595554 0.497572 0.216311
33 4 0.396433 0.21188 0.5007
31 2 0.496111 0.204418 0.497771
32 4 0.595789 0.196956 0.494842
4 3 0.454132 0.424289 0.459731
47 4 0.0403634 0.492804 0.50153
45 2 0.140232 0.497909 0.501044
46 4 0.240101 0.503013 0.500557
1 1 0.496813 0.50282 0.502975
2 3 0.595297 0.499792 0.488254
38 2 0.845543 0.498299 0.500656
40 4 0.746169 0.509419 0.501743
39 4 0.944917 0.48718 0.499569
3 3 0.459707 0.586143 0.463738
26 4 0.39776 0.791439 0.507949
24 2 0.496515 0.804008 0.498493
25 4 0.595271 0.816577 0.489039
5 3 0.477926 0.50104 0.60116
12 4 0.399281 0.507298 0.797865
10 2 0.498952 0.49984 0.80104
11 4 0.598623 0.492381 0.804215
ITEM: TIMESTEP
1000
ITEM: NUMBER OF ATOMS
23
ITEM: BOX BOUNDS pp pp pp
-5.0000000000000000e+00 5.0000000000000000e+00
-5.0000000000000000e+00 5.0000000000000000e+00
-5.0000000000000000e+00 5.0000000000000000e+00
ITEM: ATOMS id type xs ys zs
19 4 0.395895 0.486967 0.206454
17 2 0.495643 0.491999 0.211456
18 4 0.595391 0.497031 0.216459
33 4 0.395633 0.212321 0.500658
31 2 0.495282 0.204665 0.497242
32 4 0.594929 0.197009 0.493826
4 3 0.454619 0.424439 0.458872
47 4 0.040079 0.491329 0.501906
45 2 0.139904 0.497227 0.501657
46 4 0.23973 0.503126 0.501408
1 1 0.496426 0.502856 0.503168
2 3 0.595125 0.500188 0.489892
38 2 0.845405 0.498525 0.500885
40 4 0.746079 0.510031 0.502253
39 4 0.944732 0.487018 0.499518
3 3 0.459662 0.586285 0.463836
26 4 0.398115 0.790603 0.508854
24 2 0.496621 0.804203 0.49828
25 4 0.595126 0.817804 0.487706
5 3 0.476093 0.500488 0.60105
12 4 0.399024 0.507318 0.797062
10 2 0.498679 0.499901 0.800793
11 4 0.598334 0.492483 0.804524
ITEM: TIMESTEP
1050
ITEM: NUMBER OF ATOMS
23
ITEM: BOX BOUNDS pp pp pp
-5.0000000000000000e+00 5.0000000000000000e+00
-5.0000000000000000e+00 5.0000000000000000e+00
-5.0000000000000000e+00 5.0000000000000000e+00
ITEM: ATOMS id type xs ys zs
19 4 0.395689 0.486616 0.206702
17 2 0.495448 0.491652 0.211468
18 4 0.595207 0.496687 0.216234
33 4 0.39477 0.212678 0.500617
31 2 0.494387 0.204861 0.496709
32 4 0.594003 0.197042 0.492802
4 3 0.454994 0.424723 0.45799
47 4 0.0400335 0.489476 0.502543
45 2 0.139794 0.496375 0.502303
46 4 0.239557 0.503274 0.502063
1 1 0.495974 0.502952 0.503374
2 3 0.594873 0.500514 0.491625
38 2 0.845345 0.498597 0.501232
40 4 0.746069 0.510494 0.502899
39 4 0.944621 0.486701 0.499567
3 3 0.45969 0.586545 0.463948
26 4 0.398494 0.789895 0.509621
24 2 0.49673 0.804524 0.497973
25 4 0.594966 0.819152 0.486325
5 3 0.474122 0.499995 0.600913
12 4 0.398863 0.507501 0.796361
10 2 0.498494 0.500051 0.80063
11 4 0.598125 0.4926 0.804899
ITEM: TIMESTEP
1100
ITEM: NUMBER OF ATOMS
23
ITEM: BOX BOUNDS pp pp pp
-5.0000000000000000e+00 5.0000000000000000e+00
-5.0000000000000000e+00 5.0000000000000000e+00
-5.0000000000000000e+00 5.0000000000000000e+00
ITEM: ATOMS id type xs ys zs
19 4 0.395553 0.486067 0.206954
17 2 0.495321 0.491183 0.211459
18 4 0.595089 0.496299 0.215964
33 4 0.394039 0.212991 0.500729
31 2 0.493609 0.204934 0.496164
32 4 0.593179 0.196878 0.4916
4 3 0.455302 0.425192 0.457045
47 4 0.0399216 0.487685 0.503391
45 2 0.139613 0.49552 0.50297
46 4 0.239305 0.503356 0.50255
1 1 0.495468 0.503111 0.503675
2 3 0.594555 0.500786 0.493601
38 2 0.845358 0.498754 0.501511
40 4 0.74612 0.510937 0.503302
39 4 0.944598 0.48657 0.499719
3 3 0.459828 0.58697 0.464222
26 4 0.39885 0.789051 0.510291
24 2 0.496779 0.8049 0.497682
25 4 0.594706 0.820749 0.485073
5 3 0.471952 0.49946 0.600802
12 4 0.398603 0.507678 0.795519
10 2 0.498196 0.500178 0.800518
11 4 0.59779 0.492678 0.805517
ITEM: TIMESTEP
1150
ITEM: NUMBER OF ATOMS
23
ITEM: BOX BOUNDS pp pp pp
-5.0000000000000000e+00 5.0000000000000000e+00
-5.0000000000000000e+00 5.0000000000000000e+00
-5.0000000000000000e+00 5.0000000000000000e+00
ITEM: ATOMS id type xs ys zs
19 4 0.395531 0.485359 0.207412
17 2 0.49531 0.490614 0.211475
18 4 0.595089 0.495868 0.215537
33 4 0.393241 0.213423 0.500702
31 2 0.492761 0.205132 0.49552
32 4 0.592283 0.196843 0.490339
4 3 0.455766 0.425673 0.456037
47 4 0.0398408 0.486082 0.504239
45 2 0.139468 0.4947 0.503719
46 4 0.239094 0.503317 0.503198
1 1 0.495017 0.503274 0.50396
2 3 0.594267 0.501131 0.495605
38 2 0.845405 0.498869 0.501749
40 4 0.746211 0.511418 0.50345
39 4 0.9446 0.48632 0.500048
3 3 0.459972 0.587395 0.464535
26 4 0.399243 0.787931 0.510979
24 2 0.496792 0.805217 0.497367
25 4 0.594342 0.822503 0.483754
5 3 0.469809 0.49885 0.60063
12 4 0.398555 0.508231 0.794451
10 2 0.498074 0.500452 0.8004
11 4 0.597594 0.492672 0.80635
ITEM: TIMESTEP
1200
ITEM: NUMBER OF ATOMS
23
ITEM: BOX BOUNDS pp pp pp
-5.0000000000000000e+00 5.0000000000000000e+00
-5.0000000000000000e+00 5.0000000000000000e+00
-5.0000000000000000e+00 5.0000000000000000e+00
ITEM: ATOMS id type xs ys zs
19 4 0.395391 0.484762 0.207809
17 2 0.495182 0.490078 0.211465
18 4 0.594974 0.495395 0.21512
33 4 0.392458 0.213946 0.500471
31 2 0.49192 0.205328 0.494731
32 4 0.591382 0.19671 0.488991
4 3 0.45636 0.426247 0.454875
47 4 0.0397037 0.484749 0.505369
45 2 0.139285 0.493869 0.504602
46 4 0.238864 0.502988 0.503834
1 1 0.494619 0.503478 0.504176
2 3 0.594005 0.501569 0.497564
38 2 0.845552 0.498847 0.50211
40 4 0.746411 0.511869 0.503374
39 4 0.944692 0.485825 0.500847
3 3 0.460131 0.587893 0.464886
26 4 0.399688 0.786502 0.511784
24 2 0.496776 0.805458 0.497133
25 4 0.593863 0.824415 0.482481
5 3 0.467711 0.49815 0.60034
12 4 0.398491 0.508771 0.793467
10 2 0.497935 0.500809 0.80036
11 4 0.59738 0.492846 0.807253
ITEM: TIMESTEP
1250
ITEM: NUMBER OF ATOMS
23
ITEM: BOX BOUNDS pp pp pp
-5.0000000000000000e+00 5.0000000000000000e+00
-5.0000000000000000e+00 5.0000000000000000e+00
-5.0000000000000000e+00 5.0000000000000000e+00
ITEM: ATOMS id type xs ys zs
19 4 0.395279 0.48404 0.208065
17 2 0.49507 0.489522 0.211501
18 4 0.59486 0.495004 0.214937
33 4 0.391544 0.214481 0.499972
31 2 0.49096 0.2055 0.493988
32 4 0.590375 0.196519 0.488003
4 3 0.456843 0.426859 0.453626
47 4 0.039572 0.483626 0.506459
45 2 0.139121 0.493065 0.505588
46 4 0.238671 0.502503 0.504717
1 1 0.494207 0.50368 0.504237
2 3 0.593692 0.501902 0.499264
38 2 0.845692 0.498774 0.502407
40 4 0.746602 0.512207 0.503186
39 4 0.944782 0.48534 0.501628
3 3 0.460305 0.588413 0.465124
26 4 0.400129 0.78513 0.512747
24 2 0.496667 0.8058 0.49684
25 4 0.593205 0.826471 0.480932
5 3 0.465707 0.497483 0.599888
12 4 0.39841 0.509198 0.792497
10 2 0.497779 0.501178 0.80034
11 4 0.597148 0.493157 0.808182
ITEM: TIMESTEP
1300
ITEM: NUMBER OF ATOMS
23
ITEM: BOX BOUNDS pp pp pp
-5.0000000000000000e+00 5.0000000000000000e+00
-5.0000000000000000e+00 5.0000000000000000e+00
-5.0000000000000000e+00 5.0000000000000000e+00
ITEM: ATOMS id type xs ys zs
19 4 0.395244 0.483171 0.208115
17 2 0.495013 0.489015 0.211581
18 4 0.594782 0.494858 0.215047
33 4 0.390605 0.215202 0.499391
31 2 0.489953 0.205604 0.493229
32 4 0.589299 0.196005 0.487067
4 3 0.457252 0.427403 0.4523
47 4 0.0394036 0.48259 0.507242
45 2 0.138918 0.492402 0.506407
46 4 0.238432 0.502212 0.505571
1 1 0.493696 0.503788 0.504225
2 3 0.593252 0.502091 0.500959
38 2 0.84597 0.498763 0.502651
40 4 0.746958 0.51278 0.503077
39 4 0.944981 0.484745 0.502226
3 3 0.46043 0.588852 0.46528
26 4 0.400625 0.78367 0.513568
24 2 0.496563 0.806159 0.496533
25 4 0.592501 0.828648 0.479499
5 3 0.463547 0.496737 0.59931
12 4 0.398359 0.509624 0.791586
10 2 0.497649 0.501531 0.800304
11 4 0.596939 0.493439 0.809022
ITEM: TIMESTEP
1350
ITEM: NUMBER OF ATOMS
23
ITEM: BOX BOUNDS pp pp pp
-5.0000000000000000e+00 5.0000000000000000e+00
-5.0000000000000000e+00 5.0000000000000000e+00
-5.0000000000000000e+00 5.0000000000000000e+00
ITEM: ATOMS id type xs ys zs
19 4 0.395394 0.482238 0.208026
17 2 0.495143 0.488329 0.211643
18 4 0.594892 0.49442 0.215261
33 4 0.389808 0.216162 0.499104
31 2 0.489046 0.205689 0.492619
32 4 0.588284 0.195216 0.486135
4 3 0.457622 0.427995 0.450931
47 4 0.0392267 0.481316 0.50787
45 2 0.138693 0.491607 0.507154
46 4 0.23816 0.501897 0.506438
1 1 0.493139 0.503892 0.504195
2 3 0.592737 0.502144 0.502774
38 2 0.846141 0.49873 0.502832
40 4 0.747212 0.513326 0.50301
39 4 0.94507 0.484134 0.502654
3 3 0.460661 0.58932 0.465384
26 4 0.401146 0.782318 0.514211
24 2 0.496481 0.806563 0.496226
25 4 0.591817 0.830807 0.478243
5 3 0.461216 0.496032 0.598636
12 4 0.398385 0.51041 0.790625
10 2 0.497566 0.50187 0.80012
11 4 0.596747 0.493331 0.809618
ITEM: TIMESTEP
1400
ITEM: NUMBER OF ATOMS
23
ITEM: BOX BOUNDS pp pp pp
-5.0000000000000000e+00 5.0000000000000000e+00
-5.0000000000000000e+00 5.0000000000000000e+00
-5.0000000000000000e+00 5.0000000000000000e+00
ITEM: ATOMS id type xs ys zs
19 4 0.395589 0.48133 0.207926
17 2 0.495327 0.487503 0.211701
18 4 0.595066 0.493675 0.215476
33 4 0.388972 0.217105 0.49887
31 2 0.488095 0.205729 0.492144
32 4 0.587218 0.194354 0.485418
4 3 0.457935 0.428677 0.449653
47 4 0.0389324 0.480165 0.508229
45 2 0.138349 0.490947 0.507911
46 4 0.237765 0.501727 0.507592
1 1 0.492587 0.504103 0.504145
2 3 0.592191 0.502183 0.504554
38 2 0.846474 0.498644 0.503074
40 4 0.747648 0.513923 0.502939
39 4 0.945299 0.483365 0.503208
3 3 0.460977 0.589882 0.465393
26 4 0.401727 0.780924 0.514594
24 2 0.496411 0.807066 0.495848
25 4 0.591096 0.833207 0.477101
5 3 0.458906 0.495583 0.597915
12 4 0.398387 0.51123 0.789672
10 2 0.497451 0.502127 0.799845
11 4 0.596516 0.493024 0.810019
ITEM: TIMESTEP
1450
ITEM: NUMBER OF ATOMS
23
ITEM: BOX BOUNDS pp pp pp
-5.0000000000000000e+00 5.0000000000000000e+00
-5.0000000000000000e+00 5.0000000000000000e+00
-5.0000000000000000e+00 5.0000000000000000e+00
ITEM: ATOMS id type xs ys zs
19 4 0.395612 0.480218 0.207611
17 2 0.495341 0.486363 0.211659
18 4 0.595069 0.492509 0.215706
33 4 0.388075 0.21815 0.498433
31 2 0.487068 0.205789 0.49153
32 4 0.586061 0.193429 0.484626
4 3 0.458331 0.42935 0.448338
47 4 0.0384717 0.479012 0.508282
45 2 0.137841 0.49023 0.508543
46 4 0.237209 0.501447 0.508803
1 1 0.49203 0.504349 0.504002
2 3 0.591603 0.502239 0.506371
38 2 0.847066 0.498552 0.503116
40 4 0.748363 0.514592 0.50263
39 4 0.94577 0.482511 0.503601
3 3 0.461345 0.590441 0.465199
26 4 0.402243 0.77961 0.514613
24 2 0.496346 0.807463 0.495407
25 4 0.590448 0.835316 0.476202
5 3 0.456483 0.495277 0.597029
12 4 0.398322 0.512281 0.788908
10 2 0.497265 0.502554 0.799662
11 4 0.596208 0.492826 0.810416
ITEM: TIMESTEP
1500
ITEM: NUMBER OF ATOMS
23
ITEM: BOX BOUNDS pp pp pp
-5.0000000000000000e+00 5.0000000000000000e+00
-5.0000000000000000e+00 5.0000000000000000e+00
-5.0000000000000000e+00 5.0000000000000000e+00
ITEM: ATOMS id type xs ys zs
19 4 0.395531 0.479044 0.20736
17 2 0.49525 0.485199 0.211638
18 4 0.594969 0.491355 0.215915
33 4 0.38722 0.219155 0.497792
31 2 0.486095 0.205878 0.490888
32 4 0.584968 0.192601 0.483984
4 3 0.458668 0.430224 0.446884
47 4 0.0380876 0.478015 0.508163
45 2 0.137427 0.48946 0.508981
46 4 0.236767 0.500905 0.509798
1 1 0.491472 0.504615 0.503883
2 3 0.590974 0.502188 0.508189
38 2 0.847742 0.498535 0.503069
40 4 0.74916 0.515293 0.502194
39 4 0.946324 0.481776 0.503943
3 3 0.461798 0.591147 0.465273
26 4 0.402755 0.778701 0.514521
24 2 0.496374 0.807887 0.494936
25 4 0.589993 0.837074 0.475352
5 3 0.454076 0.494803 0.596106
12 4 0.398306 0.513319 0.788089
10 2 0.49712 0.50306 0.799519
11 4 0.595933 0.492801 0.810948
ITEM: TIMESTEP
1550
ITEM: NUMBER OF ATOMS
23
ITEM: BOX BOUNDS pp pp pp
-5.0000000000000000e+00 5.0000000000000000e+00
-5.0000000000000000e+00 5.0000000000000000e+00
-5.0000000000000000e+00 5.0000000000000000e+00
ITEM: ATOMS id type xs ys zs
19 4 0.395314 0.477855 0.207023
17 2 0.495016 0.484134 0.211513
18 4 0.594717 0.490414 0.216003
33 4 0.386436 0.220236 0.497063
31 2 0.485182 0.205959 0.490331
32 4 0.583928 0.191681 0.483597
4 3 0.458964 0.431253 0.445428
47 4 0.0377605 0.477236 0.508059
45 2 0.137107 0.488583 0.509246
46 4 0.236454 0.49993 0.510433
1 1 0.490943 0.504938 0.503794
2 3 0.590331 0.502044 0.51003
38 2 0.848585 0.498435 0.503113
40 4 0.750107 0.515768 0.501828
39 4 0.947063 0.481103 0.504399
3 3 0.462387 0.591971 0.46547
26 4 0.403178 0.778062 0.514228
24 2 0.496363 0.808423 0.494358
25 4 0.589548 0.838785 0.474488
5 3 0.451701 0.49438 0.595165
12 4 0.398312 0.51429 0.787162
10 2 0.496991 0.503655 0.799377
11 4 0.595671 0.493021 0.811591
ITEM: TIMESTEP
1600
ITEM: NUMBER OF ATOMS
23
ITEM: BOX BOUNDS pp pp pp
-5.0000000000000000e+00 5.0000000000000000e+00