ITEM: TIMESTEP
50
ITEM: NUMBER OF ATOMS
5
ITEM: BOX BOUNDS pp pp pp
-5.0000000000000000e+00 5.0000000000000000e+00
-5.0000000000000000e+00 5.0000000000000000e+00
-5.0000000000000000e+00 5.0000000000000000e+00
ITEM: ATOMS id type xs ys zs
2 2 0.3387 0.582507 0.773143
5 2 0.366679 0.45724 0.875097
4 2 0.240216 0.561785 0.898285
1 1 0.334264 0.55256 0.868533
3 2 0.39513 0.609869 0.923373
ITEM: TIMESTEP
100
ITEM: NUMBER OF ATOMS
5
ITEM: BOX BOUNDS pp pp pp
-5.0000000000000000e+00 5.0000000000000000e+00
-5.0000000000000000e+00 5.0000000000000000e+00
-5.0000000000000000e+00 5.0000000000000000e+00
ITEM: ATOMS id type xs ys zs
2 2 0.337312 0.583581 0.776119
5 2 0.369951 0.458876 0.878594
4 2 0.241029 0.566344 0.903203
1 1 0.332143 0.551446 0.872357
3 2 0.395913 0.61098 0.919989
ITEM: TIMESTEP
150
ITEM: NUMBER OF ATOMS
5
ITEM: BOX BOUNDS pp pp pp
-5.0000000000000000e+00 5.0000000000000000e+00
-5.0000000000000000e+00 5.0000000000000000e+00
-5.0000000000000000e+00 5.0000000000000000e+00
ITEM: ATOMS id type xs ys zs
2 2 0.334346 0.583456 0.778689
5 2 0.373325 0.460138 0.880968
4 2 0.24064 0.575622 0.90911
1 1 0.33095 0.548055 0.877357
3 2 0.395022 0.610514 0.914789
ITEM: TIMESTEP
200
ITEM: NUMBER OF ATOMS
5
ITEM: BOX BOUNDS pp pp pp
-5.0000000000000000e+00 5.0000000000000000e+00
-5.0000000000000000e+00 5.0000000000000000e+00
-5.0000000000000000e+00 5.0000000000000000e+00
ITEM: ATOMS id type xs ys zs
2 2 0.337812 0.584414 0.786829
5 2 0.377974 0.461819 0.886501
4 2 0.237286 0.585351 0.91215
1 1 0.332301 0.543432 0.880402
3 2 0.392878 0.608695 0.908561
ITEM: TIMESTEP
250
ITEM: NUMBER OF ATOMS
5
ITEM: BOX BOUNDS pp pp pp
-5.0000000000000000e+00 5.0000000000000000e+00
-5.0000000000000000e+00 5.0000000000000000e+00
-5.0000000000000000e+00 5.0000000000000000e+00
ITEM: ATOMS id type xs ys zs
2 2 0.348286 0.584128 0.796913
5 2 0.380123 0.463525 0.891872
4 2 0.232584 0.592375 0.914817
1 1 0.336623 0.539953 0.88177
3 2 0.387642 0.611077 0.903393
ITEM: TIMESTEP
300
ITEM: NUMBER OF ATOMS
5
ITEM: BOX BOUNDS pp pp pp
-5.0000000000000000e+00 5.0000000000000000e+00
-5.0000000000000000e+00 5.0000000000000000e+00
-5.0000000000000000e+00 5.0000000000000000e+00
ITEM: ATOMS id type xs ys zs
2 2 0.356364 0.582697 0.80739
5 2 0.37984 0.466203 0.896139
4 2 0.227224 0.59643 0.919317
1 1 0.340194 0.537329 0.882619
3 2 0.389197 0.612782 0.894556
ITEM: TIMESTEP
350
ITEM: NUMBER OF ATOMS
5
ITEM: BOX BOUNDS pp pp pp
-5.0000000000000000e+00 5.0000000000000000e+00
-5.0000000000000000e+00 5.0000000000000000e+00
-5.0000000000000000e+00 5.0000000000000000e+00
ITEM: ATOMS id type xs ys zs
2 2 0.354615 0.576288 0.820284
5 2 0.378217 0.472482 0.900528
4 2 0.221329 0.599352 0.925155
1 1 0.343008 0.534061 0.881507
3 2 0.391816 0.613511 0.881873
ITEM: TIMESTEP
400
ITEM: NUMBER OF ATOMS
5
ITEM: BOX BOUNDS pp pp pp
-5.0000000000000000e+00 5.0000000000000000e+00
-5.0000000000000000e+00 5.0000000000000000e+00
-5.0000000000000000e+00 5.0000000000000000e+00
ITEM: ATOMS id type xs ys zs
2 2 0.34984 0.564498 0.837105
5 2 0.370908 0.480276 0.904162
4 2 0.217726 0.607847 0.931895
1 1 0.346283 0.529736 0.878825
3 2 0.392995 0.610118 0.867895
ITEM: TIMESTEP
450
ITEM: NUMBER OF ATOMS
5
ITEM: BOX BOUNDS pp pp pp
-5.0000000000000000e+00 5.0000000000000000e+00
-5.0000000000000000e+00 5.0000000000000000e+00
-5.0000000000000000e+00 5.0000000000000000e+00
ITEM: ATOMS id type xs ys zs
2 2 0.345262 0.55237 0.856426
5 2 0.366959 0.486033 0.907097
4 2 0.209669 0.615187 0.941168
1 1 0.352629 0.529939 0.879705
3 2 0.388508 0.607809 0.848817
ITEM: TIMESTEP
500
ITEM: NUMBER OF ATOMS
5
ITEM: BOX BOUNDS pp pp pp
-5.0000000000000000e+00 5.0000000000000000e+00
-5.0000000000000000e+00 5.0000000000000000e+00
-5.0000000000000000e+00 5.0000000000000000e+00
ITEM: ATOMS id type xs ys zs
2 2 0.34453 0.539622 0.877439
5 2 0.369465 0.495529 0.910042
4 2 0.200516 0.619983 0.952495
1 1 0.356227 0.532093 0.881358
3 2 0.381945 0.601842 0.833783
ITEM: TIMESTEP
550
ITEM: NUMBER OF ATOMS
5
ITEM: BOX BOUNDS pp pp pp
-5.0000000000000000e+00 5.0000000000000000e+00
-5.0000000000000000e+00 5.0000000000000000e+00
-5.0000000000000000e+00 5.0000000000000000e+00
ITEM: ATOMS id type xs ys zs
2 2 0.341083 0.528975 0.897571
5 2 0.373993 0.508704 0.915436
4 2 0.187605 0.624704 0.96228
1 1 0.363401 0.534322 0.882329
3 2 0.372597 0.594932 0.821545
ITEM: TIMESTEP
600
ITEM: NUMBER OF ATOMS
5
ITEM: BOX BOUNDS pp pp pp
-5.0000000000000000e+00 5.0000000000000000e+00
-5.0000000000000000e+00 5.0000000000000000e+00
-5.0000000000000000e+00 5.0000000000000000e+00
ITEM: ATOMS id type xs ys zs
2 2 0.334285 0.51748 0.915901
5 2 0.374519 0.52439 0.920099
4 2 0.173279 0.631332 0.974884
1 1 0.369315 0.533992 0.881258
3 2 0.360207 0.592118 0.81122
ITEM: TIMESTEP
650
ITEM: NUMBER OF ATOMS
5
ITEM: BOX BOUNDS pp pp pp
-5.0000000000000000e+00 5.0000000000000000e+00
-5.0000000000000000e+00 5.0000000000000000e+00
-5.0000000000000000e+00 5.0000000000000000e+00
ITEM: ATOMS id type xs ys zs
2 2 0.324996 0.503706 0.935467
5 2 0.370945 0.542934 0.920543
4 2 0.161212 0.63666 0.987566
1 1 0.376051 0.534505 0.880036
3 2 0.34768 0.592893 0.798924
ITEM: TIMESTEP
700
ITEM: NUMBER OF ATOMS
5
ITEM: BOX BOUNDS pp pp pp
-5.0000000000000000e+00 5.0000000000000000e+00
-5.0000000000000000e+00 5.0000000000000000e+00
-5.0000000000000000e+00 5.0000000000000000e+00
ITEM: ATOMS id type xs ys zs
2 2 0.311913 0.486512 0.960218
5 2 0.367743 0.565258 0.918039
4 2 0.146471 0.638698 0.00325991
1 1 0.384759 0.535311 0.879119
3 2 0.337593 0.59626 0.786704
ITEM: TIMESTEP
750
ITEM: NUMBER OF ATOMS
5
ITEM: BOX BOUNDS pp pp pp
-5.0000000000000000e+00 5.0000000000000000e+00
-5.0000000000000000e+00 5.0000000000000000e+00
-5.0000000000000000e+00 5.0000000000000000e+00
ITEM: ATOMS id type xs ys zs
2 2 0.295858 0.472291 0.984803
5 2 0.362252 0.588243 0.911993
4 2 0.134929 0.637025 0.0235727
1 1 0.394405 0.534974 0.876212
3 2 0.324661 0.59681 0.768961
ITEM: TIMESTEP
800
ITEM: NUMBER OF ATOMS
5
ITEM: BOX BOUNDS pp pp pp
-5.0000000000000000e+00 5.0000000000000000e+00
-5.0000000000000000e+00 5.0000000000000000e+00
-5.0000000000000000e+00 5.0000000000000000e+00
ITEM: ATOMS id type xs ys zs
2 2 0.281725 0.459226 0.00692534
5 2 0.358057 0.612058 0.906421
4 2 0.127124 0.631448 0.0433716
1 1 0.406041 0.536742 0.873084
3 2 0.307393 0.596218 0.755426
ITEM: TIMESTEP
850
ITEM: NUMBER OF ATOMS
5
ITEM: BOX BOUNDS pp pp pp
-5.0000000000000000e+00 5.0000000000000000e+00
-5.0000000000000000e+00 5.0000000000000000e+00
-5.0000000000000000e+00 5.0000000000000000e+00
ITEM: ATOMS id type xs ys zs
2 2 0.26881 0.452086 0.0313263
5 2 0.352756 0.636222 0.90108
4 2 0.11931 0.628741 0.0621267
1 1 0.419617 0.543286 0.871326
3 2 0.289421 0.594213 0.745951
ITEM: TIMESTEP
900
ITEM: NUMBER OF ATOMS
5
ITEM: BOX BOUNDS pp pp pp
-5.0000000000000000e+00 5.0000000000000000e+00
-5.0000000000000000e+00 5.0000000000000000e+00
-5.0000000000000000e+00 5.0000000000000000e+00
ITEM: ATOMS id type xs ys zs
2 2 0.255396 0.444933 0.059735
5 2 0.348484 0.660118 0.897799
4 2 0.109865 0.628262 0.0809053
1 1 0.430693 0.555016 0.868309
3 2 0.273441 0.592653 0.737492
ITEM: TIMESTEP
950
ITEM: NUMBER OF ATOMS
5
ITEM: BOX BOUNDS pp pp pp
-5.0000000000000000e+00 5.0000000000000000e+00
-5.0000000000000000e+00 5.0000000000000000e+00
-5.0000000000000000e+00 5.0000000000000000e+00
ITEM: ATOMS id type xs ys zs
2 2 0.240138 0.440809 0.0826378
5 2 0.349379 0.681314 0.897965
4 2 0.0986666 0.631478 0.100389
1 1 0.439624 0.567371 0.863334
3 2 0.260404 0.590448 0.72935
ITEM: TIMESTEP
1000
ITEM: NUMBER OF ATOMS
5
ITEM: BOX BOUNDS pp pp pp
-5.0000000000000000e+00 5.0000000000000000e+00
-5.0000000000000000e+00 5.0000000000000000e+00
-5.0000000000000000e+00 5.0000000000000000e+00
ITEM: ATOMS id type xs ys zs
2 2 0.221083 0.438119 0.103042
5 2 0.349476 0.700339 0.899849
4 2 0.0940424 0.637319 0.120179
1 1 0.451302 0.5779 0.856902
3 2 0.245507 0.590411 0.723038
ITEM: TIMESTEP
1050
ITEM: NUMBER OF ATOMS
5
ITEM: BOX BOUNDS pp pp pp
-5.0000000000000000e+00 5.0000000000000000e+00
-5.0000000000000000e+00 5.0000000000000000e+00
-5.0000000000000000e+00 5.0000000000000000e+00
ITEM: ATOMS id type xs ys zs
2 2 0.197779 0.436675 0.119211
4 2 0.0863581 0.641239 0.139902
3 2 0.229557 0.593164 0.719618
1 1 0.46347 0.586583 0.849829
5 2 0.347034 0.718797 0.906826
ITEM: TIMESTEP
1100
ITEM: NUMBER OF ATOMS
5
ITEM: BOX BOUNDS pp pp pp
-5.0000000000000000e+00 5.0000000000000000e+00
-5.0000000000000000e+00 5.0000000000000000e+00
-5.0000000000000000e+00 5.0000000000000000e+00
ITEM: ATOMS id type xs ys zs
2 2 0.176606 0.435348 0.137226
4 2 0.0780971 0.642808 0.156067
3 2 0.211073 0.593042 0.721342
1 1 0.472379 0.591694 0.846396
5 2 0.348426 0.739477 0.914548
ITEM: TIMESTEP
1150
ITEM: NUMBER OF ATOMS
5
ITEM: BOX BOUNDS pp pp pp
-5.0000000000000000e+00 5.0000000000000000e+00
-5.0000000000000000e+00 5.0000000000000000e+00
-5.0000000000000000e+00 5.0000000000000000e+00
ITEM: ATOMS id type xs ys zs
2 2 0.155694 0.43861 0.156189
4 2 0.0663225 0.640793 0.174913
3 2 0.18984 0.587865 0.729369
1 1 0.477308 0.59703 0.844473
5 2 0.349947 0.758616 0.91877
ITEM: TIMESTEP
1200
ITEM: NUMBER OF ATOMS
5
ITEM: BOX BOUNDS pp pp pp
-5.0000000000000000e+00 5.0000000000000000e+00
-5.0000000000000000e+00 5.0000000000000000e+00
-5.0000000000000000e+00 5.0000000000000000e+00
ITEM: ATOMS id type xs ys zs
2 2 0.138133 0.440138 0.175441
4 2 0.0534074 0.642845 0.196534
3 2 0.163212 0.579782 0.735541
1 1 0.482922 0.603037 0.845135
5 2 0.351038 0.776859 0.921458
ITEM: TIMESTEP
1250
ITEM: NUMBER OF ATOMS
5
ITEM: BOX BOUNDS pp pp pp
-5.0000000000000000e+00 5.0000000000000000e+00
-5.0000000000000000e+00 5.0000000000000000e+00
-5.0000000000000000e+00 5.0000000000000000e+00
ITEM: ATOMS id type xs ys zs
2 2 0.123533 0.440069 0.190975
4 2 0.0429004 0.649557 0.214197
3 2 0.135379 0.571342 0.740133
1 1 0.488763 0.610438 0.85045
5 2 0.353543 0.79687 0.923795
ITEM: TIMESTEP
1300
ITEM: NUMBER OF ATOMS
5
ITEM: BOX BOUNDS pp pp pp
-5.0000000000000000e+00 5.0000000000000000e+00
-5.0000000000000000e+00 5.0000000000000000e+00
-5.0000000000000000e+00 5.0000000000000000e+00
ITEM: ATOMS id type xs ys zs
2 2 0.110542 0.438422 0.207712
4 2 0.0316015 0.654184 0.228366
3 2 0.10798 0.563545 0.745952
1 1 0.49519 0.618696 0.853107
5 2 0.352254 0.813378 0.920328
ITEM: TIMESTEP
1350
ITEM: NUMBER OF ATOMS
5
ITEM: BOX BOUNDS pp pp pp
-5.0000000000000000e+00 5.0000000000000000e+00
-5.0000000000000000e+00 5.0000000000000000e+00
-5.0000000000000000e+00 5.0000000000000000e+00
ITEM: ATOMS id type xs ys zs
2 2 0.0987588 0.437378 0.223719
4 2 0.0209534 0.65466 0.246101
3 2 0.0810112 0.558618 0.754451
1 1 0.501833 0.630254 0.852801
5 2 0.350592 0.826603 0.916023
ITEM: TIMESTEP
1400
ITEM: NUMBER OF ATOMS
5
ITEM: BOX BOUNDS pp pp pp
-5.0000000000000000e+00 5.0000000000000000e+00
-5.0000000000000000e+00 5.0000000000000000e+00
-5.0000000000000000e+00 5.0000000000000000e+00
ITEM: ATOMS id type xs ys zs
2 2 0.0808163 0.433986 0.239865
4 2 0.0087381 0.65985 0.262477
3 2 0.0575709 0.558321 0.762897
1 1 0.508485 0.645836 0.852447
5 2 0.348485 0.836866 0.91218
ITEM: TIMESTEP
1450
ITEM: NUMBER OF ATOMS
5
ITEM: BOX BOUNDS pp pp pp
-5.0000000000000000e+00 5.0000000000000000e+00
-5.0000000000000000e+00 5.0000000000000000e+00
-5.0000000000000000e+00 5.0000000000000000e+00
ITEM: ATOMS id type xs ys zs
2 2 0.0593121 0.430181 0.257297
4 2 0.994329 0.66532 0.27435
3 2 0.0320022 0.562014 0.771248
1 1 0.515337 0.659416 0.851216
5 2 0.350873 0.844608 0.903559
ITEM: TIMESTEP
1500
ITEM: NUMBER OF ATOMS
5
ITEM: BOX BOUNDS pp pp pp
-5.0000000000000000e+00 5.0000000000000000e+00
-5.0000000000000000e+00 5.0000000000000000e+00
-5.0000000000000000e+00 5.0000000000000000e+00
ITEM: ATOMS id type xs ys zs
2 2 0.0384305 0.426718 0.276576
4 2 0.976817 0.672255 0.288788
3 2 0.00780795 0.565486 0.77985
1 1 0.523061 0.673048 0.852583
5 2 0.353925 0.856576 0.888044
ITEM: TIMESTEP
1550
ITEM: NUMBER OF ATOMS
5
ITEM: BOX BOUNDS pp pp pp
-5.0000000000000000e+00 5.0000000000000000e+00
-5.0000000000000000e+00 5.0000000000000000e+00
-5.0000000000000000e+00 5.0000000000000000e+00
ITEM: ATOMS id type xs ys zs
2 2 0.0157362 0.419508 0.296875
4 2 0.953253 0.679988 0.305977
3 2 0.981893 0.573259 0.787731
1 1 0.531856 0.685889 0.854215
5 2 0.359478 0.870832 0.871072
ITEM: TIMESTEP
1600
ITEM: NUMBER OF ATOMS
5
ITEM: BOX BOUNDS pp pp pp
-5.0000000000000000e+00 5.0000000000000000e+00
-5.0000000000000000e+00 5.0000000000000000e+00
-5.0000000000000000e+00 5.0000000000000000e+00
ITEM: ATOMS id type xs ys zs
2 2 0.989502 0.41335 0.317046
4 2 0.926674 0.688105 0.32159
3 2 0.952767 0.57549 0.795126
1 1 0.541342 0.698468 0.853143
5 2 0.367775 0.887136 0.854418
ITEM: TIMESTEP
1650
ITEM: NUMBER OF ATOMS
5
ITEM: BOX BOUNDS pp pp pp
-5.0000000000000000e+00 5.0000000000000000e+00
-5.0000000000000000e+00 5.0000000000000000e+00
-5.0000000000000000e+00 5.0000000000000000e+00
ITEM: ATOMS id type xs ys zs
2 2 0.963998 0.409336 0.339228
4 2 0.899732 0.697191 0.34025
3 2 0.927272 0.576928 0.801594
1 1 0.554078 0.71046 0.851994
5 2 0.373197 0.906949 0.838035
ITEM: TIMESTEP
1700
ITEM: NUMBER OF ATOMS
5
ITEM: BOX BOUNDS pp pp pp
-5.0000000000000000e+00 5.0000000000000000e+00
-5.0000000000000000e+00 5.0000000000000000e+00
-5.0000000000000000e+00 5.0000000000000000e+00
ITEM: ATOMS id type xs ys zs
2 2 0.935826 0.402961 0.362366
4 2 0.872815 0.709444 0.360933
3 2 0.897785 0.579535 0.811284
1 1 0.568084 0.725416 0.849033
5 2 0.380747 0.929697 0.81608
ITEM: TIMESTEP
1750
ITEM: NUMBER OF ATOMS
5
ITEM: BOX BOUNDS pp pp pp
-5.0000000000000000e+00 5.0000000000000000e+00
-5.0000000000000000e+00 5.0000000000000000e+00
-5.0000000000000000e+00 5.0000000000000000e+00
ITEM: ATOMS id type xs ys zs
2 2 0.901785 0.393471 0.38749
4 2 0.842772 0.721189 0.379364
3 2 0.865754 0.57968 0.825018
1 1 0.586394 0.738474 0.84585
5 2 0.389359 0.9516 0.787006
ITEM: TIMESTEP
1800
ITEM: NUMBER OF ATOMS
5
ITEM: BOX BOUNDS pp pp pp
-5.0000000000000000e+00 5.0000000000000000e+00
-5.0000000000000000e+00 5.0000000000000000e+00
-5.0000000000000000e+00 5.0000000000000000e+00
ITEM: ATOMS id type xs ys zs
2 2 0.860821 0.386225 0.412391
4 2 0.808008 0.728549 0.395
3 2 0.833075 0.579482 0.838328
1 1 0.605438 0.750408 0.842686
5 2 0.398531 0.972373 0.758415
ITEM: TIMESTEP
1850
ITEM: NUMBER OF ATOMS
5
ITEM: BOX BOUNDS pp pp pp
-5.0000000000000000e+00 5.0000000000000000e+00
-5.0000000000000000e+00 5.0000000000000000e+00
-5.0000000000000000e+00 5.0000000000000000e+00
ITEM: ATOMS id type xs ys zs
2 2 0.818208 0.375654 0.43536
4 2 0.772539 0.733673 0.406644
3 2 0.798592 0.579654 0.853685
1 1 0.622305 0.759814 0.837497
5 2 0.41538 0.991531 0.729986
ITEM: TIMESTEP
1900
ITEM: NUMBER OF ATOMS
5
ITEM: BOX BOUNDS pp pp pp
-5.0000000000000000e+00 5.0000000000000000e+00
-5.0000000000000000e+00 5.0000000000000000e+00
-5.0000000000000000e+00 5.0000000000000000e+00
ITEM: ATOMS id type xs ys zs
2 2 0.775017 0.362173 0.457297
4 2 0.739581 0.741557 0.416338
3 2 0.763462 0.579088 0.868386
1 1 0.636114 0.769108 0.834207
5 2 0.436069 0.0107766 0.703886
ITEM: TIMESTEP
1950
ITEM: NUMBER OF ATOMS
5
ITEM: BOX BOUNDS pp pp pp
-5.0000000000000000e+00 5.0000000000000000e+00
-5.0000000000000000e+00 5.0000000000000000e+00
-5.0000000000000000e+00 5.0000000000000000e+00
ITEM: ATOMS id type xs ys zs
2 2 0.730312 0.347532 0.482387
4 2 0.706734 0.746335 0.429112
3 2 0.730644 0.579575 0.885696
1 1 0.647006 0.779683 0.829547
5 2 0.459584 0.0276179 0.681723
ITEM: TIMESTEP
2000
ITEM: NUMBER OF ATOMS
5
ITEM: BOX BOUNDS pp pp pp
-5.0000000000000000e+00 5.0000000000000000e+00
-5.0000000000000000e+00 5.0000000000000000e+00
-5.0000000000000000e+00 5.0000000000000000e+00
ITEM: ATOMS id type xs ys zs
2 2 0.683065 0.335519 0.503594
4 2 0.675717 0.746429 0.442935
3 2 0.701487 0.581831 0.901613
1 1 0.659049 0.79059 0.825577
5 2 0.487685 0.0428139 0.6575
ITEM: TIMESTEP
2050
ITEM: NUMBER OF ATOMS
5
ITEM: BOX BOUNDS pp pp pp
-5.0000000000000000e+00 5.0000000000000000e+00
-5.0000000000000000e+00 5.0000000000000000e+00
-5.0000000000000000e+00 5.0000000000000000e+00
ITEM: ATOMS id type xs ys zs
4 2 0.64526 0.748231 0.454437
2 2 0.631929 0.326075 0.524393
5 2 0.517376 0.0571499 0.630589
1 1 0.670399 0.799526 0.822027
3 2 0.670237 0.580638 0.918112
ITEM: TIMESTEP
2100
ITEM: NUMBER OF ATOMS
5
ITEM: BOX BOUNDS pp pp pp
-5.0000000000000000e+00 5.0000000000000000e+00
-5.0000000000000000e+00 5.0000000000000000e+00
-5.0000000000000000e+00 5.0000000000000000e+00
ITEM: ATOMS id type xs ys zs
4 2 0.611793 0.752753 0.465066
2 2 0.582227 0.320036 0.548015
5 2 0.539042 0.0690537 0.603707
1 1 0.680621 0.806517 0.81846
3 2 0.636403 0.579414 0.930946
ITEM: TIMESTEP
2150
ITEM: NUMBER OF ATOMS
5
ITEM: BOX BOUNDS pp pp pp
-5.0000000000000000e+00 5.0000000000000000e+00
-5.0000000000000000e+00 5.0000000000000000e+00
-5.0000000000000000e+00 5.0000000000000000e+00
ITEM: ATOMS id type xs ys zs
4 2 0.574557 0.760451 0.474721
2 2 0.533233 0.315687 0.576983
5 2 0.562124 0.0804901 0.579867
1 1 0.690878 0.81243 0.818313
3 2 0.603722 0.58444 0.942138
ITEM: TIMESTEP
2200
ITEM: NUMBER OF ATOMS
5
ITEM: BOX BOUNDS pp pp pp
-5.0000000000000000e+00 5.0000000000000000e+00
-5.0000000000000000e+00 5.0000000000000000e+00
-5.0000000000000000e+00 5.0000000000000000e+00
ITEM: ATOMS id type xs ys zs
4 2 0.531404 0.769038 0.486311
2 2 0.484764 0.313218 0.611659
5 2 0.589211 0.0882812 0.557056
1 1 0.701899 0.819664 0.816422
3 2 0.572034 0.587576 0.953501
ITEM: TIMESTEP
2250
ITEM: NUMBER OF ATOMS
5
ITEM: BOX BOUNDS pp pp pp
-5.0000000000000000e+00 5.0000000000000000e+00
-5.0000000000000000e+00 5.0000000000000000e+00
-5.0000000000000000e+00 5.0000000000000000e+00
ITEM: ATOMS id type xs ys zs
4 2 0.484871 0.778763 0.496796
2 2 0.441177 0.310431 0.653573
5 2 0.614042 0.0877137 0.532859
1 1 0.71384 0.823585 0.811544
3 2 0.539019 0.59023 0.968624
ITEM: TIMESTEP
2300
ITEM: NUMBER OF ATOMS
5
ITEM: BOX BOUNDS pp pp pp
-5.0000000000000000e+00 5.0000000000000000e+00
-5.0000000000000000e+00 5.0000000000000000e+00
-5.0000000000000000e+00 5.0000000000000000e+00
ITEM: ATOMS id type xs ys zs
4 2 0.44117 0.787507 0.50497
2 2 0.399351 0.313233 0.695638
5 2 0.638092 0.0849735 0.509788
1 1 0.726359 0.826508 0.805995
3 2 0.506943 0.592176 0.985554
ITEM: TIMESTEP
2350
ITEM: NUMBER OF ATOMS
5
ITEM: BOX BOUNDS pp pp pp
-5.0000000000000000e+00 5.0000000000000000e+00
-5.0000000000000000e+00 5.0000000000000000e+00
-5.0000000000000000e+00 5.0000000000000000e+00
ITEM: ATOMS id type xs ys zs
4 2 0.400173 0.795378 0.51492
2 2 0.353932 0.318986 0.733136
5 2 0.662014 0.0874671 0.487543
1 1 0.743211 0.829617 0.801645
3 2 0.475189 0.58856 0.00252728
ITEM: TIMESTEP
2400
ITEM: NUMBER OF ATOMS
5
ITEM: BOX BOUNDS pp pp pp
-5.0000000000000000e+00 5.0000000000000000e+00
-5.0000000000000000e+00 5.0000000000000000e+00
-5.0000000000000000e+00 5.0000000000000000e+00
ITEM: ATOMS id type xs ys zs
4 2 0.357857 0.797136 0.526345
2 2 0.307534 0.322826 0.77285
5 2 0.687739 0.0890652 0.465993
1 1 0.762135 0.830336 0.796621
3 2 0.442251 0.585016 0.0251321
ITEM: TIMESTEP
2450
ITEM: NUMBER OF ATOMS
5
ITEM: BOX BOUNDS pp pp pp
-5.0000000000000000e+00 5.0000000000000000e+00
-5.0000000000000000e+00 5.0000000000000000e+00
-5.0000000000000000e+00 5.0000000000000000e+00
ITEM: ATOMS id type xs ys zs
4 2 0.311101 0.797324 0.539465
2 2 0.259349 0.328826 0.814262
5 2 0.711378 0.0892738 0.443228
1 1 0.780586 0.829563 0.789479
3 2 0.405361 0.581779 0.0490834
ITEM: TIMESTEP
2500
ITEM: NUMBER OF ATOMS
5
ITEM: BOX BOUNDS pp pp pp
-5.0000000000000000e+00 5.0000000000000000e+00
-5.0000000000000000e+00 5.0000000000000000e+00
-5.0000000000000000e+00 5.0000000000000000e+00
ITEM: ATOMS id type xs ys zs
4 2 0.264489 0.79625 0.555529
2 2 0.211927 0.328979 0.853116
5 2 0.732816 0.0883895 0.424663
1 1 0.800706 0.830927 0.782572
3 2 0.365229 0.577783 0.0746405
ITEM: TIMESTEP
2550
ITEM: NUMBER OF ATOMS
5
ITEM: BOX BOUNDS pp pp pp
-5.0000000000000000e+00 5.0000000000000000e+00
-5.0000000000000000e+00 5.0000000000000000e+00
-5.0000000000000000e+00 5.0000000000000000e+00
ITEM: ATOMS id type xs ys zs
4 2 0.217418 0.794252 0.571151
2 2 0.166117 0.327452 0.893557
5 2 0.756388 0.0883467 0.406947
1 1 0.821306 0.830616 0.779068
3 2 0.321607 0.571932 0.0960872
ITEM: TIMESTEP
2600
ITEM: NUMBER OF ATOMS
5
ITEM: BOX BOUNDS pp pp pp
-5.0000000000000000e+00 5.0000000000000000e+00
-5.0000000000000000e+00 5.0000000000000000e+00
-5.0000000000000000e+00 5.0000000000000000e+00
ITEM: ATOMS id type xs ys zs
4 2 0.167267 0.792026 0.585658
2 2 0.118474 0.330073 0.929706
5 2 0.781105 0.0867032 0.392456
1 1 0.84487 0.828161 0.776092
3 2 0.271567 0.571108 0.116149
ITEM: TIMESTEP
2650
ITEM: NUMBER OF ATOMS
5
ITEM: BOX BOUNDS pp pp pp
-5.0000000000000000e+00 5.0000000000000000e+00
-5.0000000000000000e+00 5.0000000000000000e+00
-5.0000000000000000e+00 5.0000000000000000e+00
ITEM: ATOMS id type xs ys zs
4 2 0.114046 0.789673 0.597371
2 2 0.0697485 0.334167 0.959483
5 2 0.804678 0.0836443 0.377473
1 1 0.868815 0.828549 0.776166
3 2 0.220824 0.571208 0.137545
ITEM: TIMESTEP
2700
ITEM: NUMBER OF ATOMS
5
ITEM: BOX BOUNDS pp pp pp
-5.0000000000000000e+00 5.0000000000000000e+00
-5.0000000000000000e+00 5.0000000000000000e+00
-5.0000000000000000e+00 5.0000000000000000e+00
ITEM: ATOMS id type xs ys zs
4 2 0.0555062 0.786555 0.609274
2 2 0.0167821 0.334714 0.990561
5 2 0.827958 0.0843 0.36514
1 1 0.888865 0.830897 0.775888
3 2 0.167772 0.574837 0.158074
ITEM: TIMESTEP
2750
ITEM: NUMBER OF ATOMS
5
ITEM: BOX BOUNDS pp pp pp
-5.0000000000000000e+00 5.0000000000000000e+00
-5.0000000000000000e+00 5.0000000000000000e+00
-5.0000000000000000e+00 5.0000000000000000e+00
ITEM: ATOMS id type xs ys zs
4 2 -0.00309201 0.787363 0.622394
2 2 0.959572 0.336674 0.0228657
5 2 0.853179 0.0901705 0.351567
1 1 0.908868 0.830882 0.773807
3 2 0.110253 0.580652 0.177406
ITEM: TIMESTEP
2800
ITEM: NUMBER OF ATOMS
5
ITEM: BOX BOUNDS pp pp pp
-5.0000000000000000e+00 5.0000000000000000e+00
-5.0000000000000000e+00 5.0000000000000000e+00
-5.0000000000000000e+00 5.0000000000000000e+00
ITEM: ATOMS id type xs ys zs
4 2 0.93657 0.784635 0.636849
2 2 0.904196 0.339533 0.0567442
5 2 0.8736 0.0949127 0.338068
1 1 0.928892 0.830791 0.770913
3 2 0.0493577 0.579536 0.195949
ITEM: TIMESTEP
2850
ITEM: NUMBER OF ATOMS
5
ITEM: BOX BOUNDS pp pp pp
-5.0000000000000000e+00 5.0000000000000000e+00
-5.0000000000000000e+00 5.0000000000000000e+00
-5.0000000000000000e+00 5.0000000000000000e+00
ITEM: ATOMS id type xs ys zs
4 2 0.871662 0.780353 0.649979
2 2 0.851413 0.343095 0.0900836
5 2 0.893683 0.0936756 0.323684
1 1 0.947983 0.83324 0.766054
3 2 0.991491 0.580205 0.219058
ITEM: TIMESTEP
2900
ITEM: NUMBER OF ATOMS
5
ITEM: BOX BOUNDS pp pp pp
-5.0000000000000000e+00 5.0000000000000000e+00
-5.0000000000000000e+00 5.0000000000000000e+00
-5.0000000000000000e+00 5.0000000000000000e+00
ITEM: ATOMS id type xs ys zs
4 2 0.806566 0.771753 0.664284
2 2 0.799844 0.346043 0.127084
5 2 0.908286 0.090405 0.308443
1 1 0.96808 0.837638 0.760387
3 2 0.933623 0.583009 0.244542
ITEM: TIMESTEP
2950
ITEM: NUMBER OF ATOMS
5
ITEM: BOX BOUNDS pp pp pp
-5.0000000000000000e+00 5.0000000000000000e+00
-5.0000000000000000e+00 5.0000000000000000e+00
-5.0000000000000000e+00 5.0000000000000000e+00
ITEM: ATOMS id type xs ys zs
4 2 0.745173 0.762984 0.679511
2 2 0.747096 0.345136 0.162539
5 2 0.921113 0.0880311 0.29
1 1 0.985214 0.840876 0.75462
3 2 0.877543 0.586736 0.268401
ITEM: TIMESTEP
3000
ITEM: NUMBER OF ATOMS
5
ITEM: BOX BOUNDS pp pp pp
-5.0000000000000000e+00 5.0000000000000000e+00
-5.0000000000000000e+00 5.0000000000000000e+00
-5.0000000000000000e+00 5.0000000000000000e+00
ITEM: ATOMS id type xs ys zs
4 2 0.683955 0.754235 0.696317
2 2 0.694648 0.340324 0.195103
5 2 0.928981 0.0867223 0.268596
1 1 0.00334656 0.845578 0.748688
3 2 0.822785 0.592244 0.289652
ITEM: TIMESTEP
3050
ITEM: NUMBER OF ATOMS
5
ITEM: BOX BOUNDS pp pp pp
-5.0000000000000000e+00 5.0000000000000000e+00
-5.0000000000000000e+00 5.0000000000000000e+00
-5.0000000000000000e+00 5.0000000000000000e+00
ITEM: ATOMS id type xs ys zs
2 2 0.641513 0.338667 0.224008
5 2 0.937491 0.0887133 0.248009
3 2 0.770524 0.598327 0.30968
4 2 0.620695 0.744743 0.71249
1 1 0.0182734 0.852744 0.740505
ITEM: TIMESTEP
3100
ITEM: NUMBER OF ATOMS
5
ITEM: BOX BOUNDS pp pp pp
-5.0000000000000000e+00 5.0000000000000000e+00
-5.0000000000000000e+00 5.0000000000000000e+00
-5.0000000000000000e+00 5.0000000000000000e+00
ITEM: ATOMS id type xs ys zs
2 2 0.58922 0.335743 0.250589
5 2 0.947857 0.0882048 0.232475
3 2 0.716265 0.598045 0.328781
4 2 0.555932 0.738866 0.728326
1 1 0.0266342 0.860365 0.731496
ITEM: TIMESTEP
3150
ITEM: NUMBER OF ATOMS
5
ITEM: BOX BOUNDS pp pp pp
-5.0000000000000000e+00 5.0000000000000000e+00
-5.0000000000000000e+00 5.0000000000000000e+00
-5.0000000000000000e+00 5.0000000000000000e+00
ITEM: ATOMS id type xs ys zs
2 2 0.537448 0.330633 0.280068
5 2 0.958959 0.0892088 0.214208
3 2 0.657027 0.594634 0.348878
4 2 0.492758 0.732724 0.741836
1 1 0.0302631 0.86888 0.723367
ITEM: TIMESTEP
3200
ITEM: NUMBER OF ATOMS
5
ITEM: BOX BOUNDS pp pp pp
-5.0000000000000000e+00 5.0000000000000000e+00
-5.0000000000000000e+00 5.0000000000000000e+00
-5.0000000000000000e+00 5.0000000000000000e+00
ITEM: ATOMS id type xs ys zs
2 2 0.488759 0.332327 0.309325
5 2 0.96769 0.0922819 0.195107
3 2 0.595565 0.591136 0.3722
4 2 0.426601 0.729678 0.756419
1 1 0.0341716 0.876202 0.717133
ITEM: TIMESTEP
3250
ITEM: NUMBER OF ATOMS
5
ITEM: BOX BOUNDS pp pp pp
-5.0000000000000000e+00 5.0000000000000000e+00
-5.0000000000000000e+00 5.0000000000000000e+00
-5.0000000000000000e+00 5.0000000000000000e+00
ITEM: ATOMS id type xs ys zs
2 2 0.442039 0.334099 0.330146
5 2 0.978477 0.0999567 0.177266
3 2 0.532476 0.586793 0.396578
4 2 0.361859 0.724401 0.76604
1 1 0.0378043 0.882467 0.712184
ITEM: TIMESTEP
3300
ITEM: NUMBER OF ATOMS
5
ITEM: BOX BOUNDS pp pp pp
-5.0000000000000000e+00 5.0000000000000000e+00
-5.0000000000000000e+00 5.0000000000000000e+00
-5.0000000000000000e+00 5.0000000000000000e+00
ITEM: ATOMS id type xs ys zs
2 2 0.395416 0.337946 0.346742
5 2 0.993191 0.104711 0.155879
3 2 0.470607 0.588126 0.424291
4 2 0.299106 0.718763 0.7791
1 1 0.040603 0.888819 0.708545
ITEM: TIMESTEP
3350
ITEM: NUMBER OF ATOMS
5
ITEM: BOX BOUNDS pp pp pp
-5.0000000000000000e+00 5.0000000000000000e+00
-5.0000000000000000e+00 5.0000000000000000e+00
-5.0000000000000000e+00 5.0000000000000000e+00
ITEM: ATOMS id type xs ys zs
2 2 0.353713 0.338426 0.365317
5 2 0.00891418 0.108492 0.134405
3 2 0.406187 0.587309 0.454309
4 2 0.235498 0.715138 0.788836
1 1 0.0427565 0.895267 0.707271
ITEM: TIMESTEP
3400
ITEM: NUMBER OF ATOMS
5
ITEM: BOX BOUNDS pp pp pp
-5.0000000000000000e+00 5.0000000000000000e+00
-5.0000000000000000e+00 5.0000000000000000e+00
-5.0000000000000000e+00 5.0000000000000000e+00
ITEM: ATOMS id type xs ys zs
2 2 0.315955 0.339905 0.384954
5 2 0.0205999 0.109778 0.114695
3 2 0.343895 0.58562 0.482989
4 2 0.167973 0.714861 0.79682
1 1 0.0437531 0.900063 0.71022
ITEM: TIMESTEP
3450
ITEM: NUMBER OF ATOMS
5
ITEM: BOX BOUNDS pp pp pp
-5.0000000000000000e+00 5.0000000000000000e+00
-5.0000000000000000e+00 5.0000000000000000e+00
-5.0000000000000000e+00 5.0000000000000000e+00
ITEM: ATOMS id type xs ys zs
2 2 0.277874 0.337645 0.408038
5 2 0.030786 0.112157 0.0945463
3 2 0.284969 0.585532 0.513509
4 2 0.097611 0.711944 0.809754
1 1 0.0434203 0.902402 0.716131
ITEM: TIMESTEP
3500
ITEM: NUMBER OF ATOMS
5
ITEM: BOX BOUNDS pp pp pp
-5.0000000000000000e+00 5.0000000000000000e+00
-5.0000000000000000e+00 5.0000000000000000e+00
-5.0000000000000000e+00 5.0000000000000000e+00
ITEM: ATOMS id type xs ys zs
2 2 0.240811 0.333842 0.430142
5 2 0.0394691 0.116701 0.0697199
3 2 0.220659 0.577429 0.537906
4 2 0.0248411 0.709015 0.823835
1 1 0.0434972 0.90429 0.722483
ITEM: TIMESTEP
3550
ITEM: NUMBER OF ATOMS
5
ITEM: BOX BOUNDS pp pp pp
-5.0000000000000000e+00 5.0000000000000000e+00
-5.0000000000000000e+00 5.0000000000000000e+00
-5.0000000000000000e+00 5.0000000000000000e+00
ITEM: ATOMS id type xs ys zs
2 2 0.205873 0.333494 0.451383
5 2 0.0520285 0.119729 0.0411712
3 2 0.160656 0.567998 0.561899
4 2 0.956371 0.709016 0.837389
1 1 0.0444066 0.907555 0.730339
ITEM: TIMESTEP
3600
ITEM: NUMBER OF ATOMS
5
ITEM: BOX BOUNDS pp pp pp
-5.0000000000000000e+00 5.0000000000000000e+00
-5.0000000000000000e+00 5.0000000000000000e+00
-5.0000000000000000e+00 5.0000000000000000e+00
ITEM: ATOMS id type xs ys zs
2 2 0.169779 0.330944 0.477861
5 2 0.0632382 0.124005 0.012528
3 2 0.101097 0.555364 0.588082
4 2 0.895223 0.708676 0.849607
1 1 0.0429316 0.912312 0.736547
ITEM: TIMESTEP
3650
ITEM: NUMBER OF ATOMS
5
ITEM: BOX BOUNDS pp pp pp
-5.0000000000000000e+00 5.0000000000000000e+00
-5.0000000000000000e+00 5.0000000000000000e+00
-5.0000000000000000e+00 5.0000000000000000e+00
ITEM: ATOMS id type xs ys zs
2 2 0.129374 0.330514 0.508051
5 2 0.0737613 0.128046 0.986667
3 2 0.036503 0.538069 0.61176
4 2 0.837185 0.714348 0.857333
1 1 0.0390544 0.917409 0.744442
ITEM: TIMESTEP
3700
ITEM: NUMBER OF ATOMS
5
ITEM: BOX BOUNDS pp pp pp
-5.0000000000000000e+00 5.0000000000000000e+00
-5.0000000000000000e+00 5.0000000000000000e+00
-5.0000000000000000e+00 5.0000000000000000e+00
ITEM: ATOMS id type xs ys zs
2 2 0.088838 0.334598 0.539791
5 2 0.0830231 0.131951 0.957328
3 2 0.969224 0.519074 0.63315
4 2 0.779077 0.717626 0.864558
1 1 0.0339912 0.921866 0.749854
ITEM: TIMESTEP
3750
ITEM: NUMBER OF ATOMS
5
ITEM: BOX BOUNDS pp pp pp
-5.0000000000000000e+00 5.0000000000000000e+00
-5.0000000000000000e+00 5.0000000000000000e+00
-5.0000000000000000e+00 5.0000000000000000e+00
ITEM: ATOMS id type xs ys zs
2 2 0.047069 0.343477 0.56669
5 2 0.0917197 0.131111 0.923251
3 2 0.900469 0.49935 0.651662
4 2 0.725334 0.718858 0.871089
1 1 0.0273779 0.926663 0.756015
ITEM: TIMESTEP
3800
ITEM: NUMBER OF ATOMS
5
ITEM: BOX BOUNDS pp pp pp
-5.0000000000000000e+00 5.0000000000000000e+00
-5.0000000000000000e+00 5.0000000000000000e+00
-5.0000000000000000e+00 5.0000000000000000e+00
ITEM: ATOMS id type xs ys zs
2 2 0.00398017 0.352717 0.59131
5 2 0.102768 0.127185 0.889787
3 2 0.834439 0.478855 0.671011
4 2 0.672519 0.722471 0.877865
1 1 0.0197508 0.934007 0.76373