ITEM: TIMESTEP
50
ITEM: NUMBER OF ATOMS
8
ITEM: BOX BOUNDS pp pp pp
-5.0000000000000000e+00 5.0000000000000000e+00
-5.0000000000000000e+00 5.0000000000000000e+00
-5.0000000000000000e+00 5.0000000000000000e+00
ITEM: ATOMS id type xs ys zs
4 3 0.453319 0.420294 0.46668
2 3 0.594486 0.50097 0.468581
3 3 0.453678 0.582291 0.467653
1 1 0.500163 0.500991 0.50063
5 3 0.49916 0.500391 0.600624
8 4 0.399152 0.498985 0.798901
6 2 0.499133 0.499912 0.800721
7 4 0.599111 0.50084 0.802533
ITEM: TIMESTEP
100
ITEM: NUMBER OF ATOMS
8
ITEM: BOX BOUNDS pp pp pp
-5.0000000000000000e+00 5.0000000000000000e+00
-5.0000000000000000e+00 5.0000000000000000e+00
-5.0000000000000000e+00 5.0000000000000000e+00
ITEM: ATOMS id type xs ys zs
4 3 0.453998 0.421614 0.467538
2 3 0.595229 0.502152 0.471011
3 3 0.454568 0.583608 0.466553
1 1 0.500342 0.50266 0.501352
5 3 0.497536 0.503283 0.601314
8 4 0.398058 0.496521 0.797262
6 2 0.497888 0.498359 0.802772
7 4 0.597728 0.500193 0.808281
ITEM: TIMESTEP
150
ITEM: NUMBER OF ATOMS
8
ITEM: BOX BOUNDS pp pp pp
-5.0000000000000000e+00 5.0000000000000000e+00
-5.0000000000000000e+00 5.0000000000000000e+00
-5.0000000000000000e+00 5.0000000000000000e+00
ITEM: ATOMS id type xs ys zs
4 3 0.456531 0.423022 0.467834
2 3 0.597565 0.503648 0.474951
3 3 0.457171 0.584985 0.464153
1 1 0.501662 0.504637 0.501905
5 3 0.495313 0.506941 0.601671
8 4 0.397124 0.493478 0.79459
6 2 0.496548 0.496042 0.804946
7 4 0.595974 0.498603 0.815302
ITEM: TIMESTEP
200
ITEM: NUMBER OF ATOMS
8
ITEM: BOX BOUNDS pp pp pp
-5.0000000000000000e+00 5.0000000000000000e+00
-5.0000000000000000e+00 5.0000000000000000e+00
-5.0000000000000000e+00 5.0000000000000000e+00
ITEM: ATOMS id type xs ys zs
4 3 0.458418 0.424787 0.467769
2 3 0.600589 0.502818 0.479523
3 3 0.462559 0.586555 0.460044
1 1 0.503572 0.506377 0.501872
5 3 0.492621 0.511401 0.60114
8 4 0.395601 0.489589 0.792033
6 2 0.494419 0.493624 0.806803
7 4 0.593244 0.497654 0.82158
ITEM: TIMESTEP
250
ITEM: NUMBER OF ATOMS
8
ITEM: BOX BOUNDS pp pp pp
-5.0000000000000000e+00 5.0000000000000000e+00
-5.0000000000000000e+00 5.0000000000000000e+00
-5.0000000000000000e+00 5.0000000000000000e+00
ITEM: ATOMS id type xs ys zs
4 3 0.459395 0.427497 0.466004
2 3 0.602736 0.501977 0.484661
3 3 0.468173 0.589008 0.457092
1 1 0.504789 0.508244 0.501753
5 3 0.48869 0.514556 0.600252
8 4 0.392373 0.484157 0.789664
6 2 0.490482 0.489751 0.808184
7 4 0.588591 0.495346 0.826704
ITEM: TIMESTEP
300
ITEM: NUMBER OF ATOMS
8
ITEM: BOX BOUNDS pp pp pp
-5.0000000000000000e+00 5.0000000000000000e+00
-5.0000000000000000e+00 5.0000000000000000e+00
-5.0000000000000000e+00 5.0000000000000000e+00
ITEM: ATOMS id type xs ys zs
4 3 0.461262 0.430521 0.464527
2 3 0.604722 0.50183 0.492416
3 3 0.474434 0.591722 0.455152
1 1 0.506012 0.510498 0.502746
5 3 0.483411 0.517993 0.599872
8 4 0.388614 0.478289 0.785952
6 2 0.485622 0.485772 0.809074
7 4 0.58263 0.49325 0.832192
ITEM: TIMESTEP
350
ITEM: NUMBER OF ATOMS
8
ITEM: BOX BOUNDS pp pp pp
-5.0000000000000000e+00 5.0000000000000000e+00
-5.0000000000000000e+00 5.0000000000000000e+00
-5.0000000000000000e+00 5.0000000000000000e+00
ITEM: ATOMS id type xs ys zs
4 3 0.462271 0.433935 0.462507
2 3 0.605454 0.50055 0.501286
3 3 0.481067 0.594683 0.455324
1 1 0.506569 0.512259 0.504483
5 3 0.477186 0.519951 0.599756
8 4 0.385613 0.473459 0.784019
6 2 0.481586 0.483021 0.810446
7 4 0.57756 0.492583 0.836873
ITEM: TIMESTEP
400
ITEM: NUMBER OF ATOMS
8
ITEM: BOX BOUNDS pp pp pp
-5.0000000000000000e+00 5.0000000000000000e+00
-5.0000000000000000e+00 5.0000000000000000e+00
-5.0000000000000000e+00 5.0000000000000000e+00
ITEM: ATOMS id type xs ys zs
4 3 0.463357 0.438162 0.458333
2 3 0.604265 0.50067 0.510118
3 3 0.485413 0.598656 0.457989
1 1 0.505638 0.514213 0.506157
5 3 0.469166 0.519424 0.599122
8 4 0.382046 0.468598 0.782827
6 2 0.477138 0.481128 0.811148
7 4 0.572223 0.493659 0.839466
ITEM: TIMESTEP
450
ITEM: NUMBER OF ATOMS
8
ITEM: BOX BOUNDS pp pp pp
-5.0000000000000000e+00 5.0000000000000000e+00
-5.0000000000000000e+00 5.0000000000000000e+00
-5.0000000000000000e+00 5.0000000000000000e+00
ITEM: ATOMS id type xs ys zs
4 3 0.46411 0.443076 0.452899
2 3 0.60148 0.499488 0.519155
3 3 0.489037 0.602806 0.463276
1 1 0.503761 0.515451 0.50811
5 3 0.459998 0.516437 0.598024
8 4 0.379218 0.464179 0.783442
6 2 0.473725 0.479921 0.812062
7 4 0.568245 0.495661 0.840683
ITEM: TIMESTEP
500
ITEM: NUMBER OF ATOMS
8
ITEM: BOX BOUNDS pp pp pp
-5.0000000000000000e+00 5.0000000000000000e+00
-5.0000000000000000e+00 5.0000000000000000e+00
-5.0000000000000000e+00 5.0000000000000000e+00
ITEM: ATOMS id type xs ys zs
4 3 0.465933 0.446314 0.447194
2 3 0.597674 0.497143 0.527812
3 3 0.491937 0.604925 0.467449
1 1 0.50152 0.515297 0.509101
5 3 0.450049 0.512793 0.594796
8 4 0.376339 0.461423 0.785958
6 2 0.470679 0.479757 0.813572
7 4 0.56503 0.4981 0.841186
ITEM: TIMESTEP
550
ITEM: NUMBER OF ATOMS
8
ITEM: BOX BOUNDS pp pp pp
-5.0000000000000000e+00 5.0000000000000000e+00
-5.0000000000000000e+00 5.0000000000000000e+00
-5.0000000000000000e+00 5.0000000000000000e+00
ITEM: ATOMS id type xs ys zs
4 3 0.468372 0.44935 0.444452
2 3 0.594173 0.496176 0.536234
3 3 0.494099 0.606949 0.471766
1 1 0.499836 0.515937 0.511048
5 3 0.442109 0.51123 0.592577
8 4 0.373357 0.462385 0.788399
6 2 0.467523 0.482189 0.815599
7 4 0.561694 0.501986 0.842795
ITEM: TIMESTEP
600
ITEM: NUMBER OF ATOMS
8
ITEM: BOX BOUNDS pp pp pp
-5.0000000000000000e+00 5.0000000000000000e+00
-5.0000000000000000e+00 5.0000000000000000e+00
-5.0000000000000000e+00 5.0000000000000000e+00
ITEM: ATOMS id type xs ys zs
4 3 0.470464 0.454074 0.442198
2 3 0.590102 0.495494 0.544226
3 3 0.495401 0.610032 0.478258
1 1 0.497822 0.517311 0.51369
5 3 0.434697 0.509564 0.590854
8 4 0.369505 0.465066 0.792306
6 2 0.464336 0.485584 0.816516
7 4 0.559163 0.506098 0.840732
ITEM: TIMESTEP
650
ITEM: NUMBER OF ATOMS
8
ITEM: BOX BOUNDS pp pp pp
-5.0000000000000000e+00 5.0000000000000000e+00
-5.0000000000000000e+00 5.0000000000000000e+00
-5.0000000000000000e+00 5.0000000000000000e+00
ITEM: ATOMS id type xs ys zs
4 3 0.472606 0.4596 0.440624
2 3 0.586096 0.49474 0.551644
3 3 0.495447 0.613171 0.486856
1 1 0.495764 0.518593 0.517063
5 3 0.428223 0.506718 0.589845
8 4 0.365755 0.465853 0.796615
6 2 0.460895 0.489274 0.816604
7 4 0.556034 0.5127 0.83658
ITEM: TIMESTEP
700
ITEM: NUMBER OF ATOMS
8
ITEM: BOX BOUNDS pp pp pp
-5.0000000000000000e+00 5.0000000000000000e+00
-5.0000000000000000e+00 5.0000000000000000e+00
-5.0000000000000000e+00 5.0000000000000000e+00
ITEM: ATOMS id type xs ys zs
4 3 0.473224 0.464565 0.440737
2 3 0.5813 0.492176 0.559048
3 3 0.495477 0.615143 0.496171
1 1 0.493136 0.519106 0.521275
5 3 0.421844 0.504409 0.589844
8 4 0.362108 0.465496 0.801378
6 2 0.457111 0.492147 0.817686
7 4 0.552102 0.518789 0.833986
ITEM: TIMESTEP
750
ITEM: NUMBER OF ATOMS
8
ITEM: BOX BOUNDS pp pp pp
-5.0000000000000000e+00 5.0000000000000000e+00
-5.0000000000000000e+00 5.0000000000000000e+00
-5.0000000000000000e+00 5.0000000000000000e+00
ITEM: ATOMS id type xs ys zs
4 3 0.472544 0.469432 0.441389
2 3 0.575019 0.489252 0.566076
3 3 0.493532 0.616503 0.505988
1 1 0.489059 0.519278 0.525654
5 3 0.414377 0.501754 0.589815
8 4 0.357393 0.467063 0.808934
6 2 0.453057 0.493891 0.82033
7 4 0.548717 0.520714 0.831736
ITEM: TIMESTEP
800
ITEM: NUMBER OF ATOMS
8
ITEM: BOX BOUNDS pp pp pp
-5.0000000000000000e+00 5.0000000000000000e+00
-5.0000000000000000e+00 5.0000000000000000e+00
-5.0000000000000000e+00 5.0000000000000000e+00
ITEM: ATOMS id type xs ys zs
4 3 0.471977 0.474821 0.442185
2 3 0.569133 0.486978 0.572024
3 3 0.491001 0.61796 0.515626
1 1 0.485144 0.519849 0.5297
5 3 0.407689 0.499432 0.589563
8 4 0.353768 0.468852 0.81847
6 2 0.449873 0.496169 0.822624
7 4 0.545974 0.523497 0.826776
ITEM: TIMESTEP
850
ITEM: NUMBER OF ATOMS
8
ITEM: BOX BOUNDS pp pp pp
-5.0000000000000000e+00 5.0000000000000000e+00
-5.0000000000000000e+00 5.0000000000000000e+00
-5.0000000000000000e+00 5.0000000000000000e+00
ITEM: ATOMS id type xs ys zs
4 3 0.471347 0.479827 0.443304
2 3 0.562232 0.483556 0.578093
3 3 0.488326 0.618475 0.525367
1 1 0.480745 0.519817 0.533697
5 3 0.400277 0.497196 0.588572
8 4 0.351928 0.469137 0.829783
6 2 0.447485 0.498014 0.82385
7 4 0.543044 0.526888 0.817922
ITEM: TIMESTEP
900
ITEM: NUMBER OF ATOMS
8
ITEM: BOX BOUNDS pp pp pp
-5.0000000000000000e+00 5.0000000000000000e+00
-5.0000000000000000e+00 5.0000000000000000e+00
-5.0000000000000000e+00 5.0000000000000000e+00
ITEM: ATOMS id type xs ys zs
4 3 0.470708 0.484405 0.4461
2 3 0.55362 0.481247 0.585948
3 3 0.48493 0.619379 0.534551
1 1 0.475411 0.520622 0.538432
5 3 0.391544 0.49723 0.587622
8 4 0.351089 0.470927 0.839115
6 2 0.445411 0.50023 0.823517
7 4 0.539743 0.529539 0.807932
ITEM: TIMESTEP
950
ITEM: NUMBER OF ATOMS
8
ITEM: BOX BOUNDS pp pp pp
-5.0000000000000000e+00 5.0000000000000000e+00
-5.0000000000000000e+00 5.0000000000000000e+00
-5.0000000000000000e+00 5.0000000000000000e+00
ITEM: ATOMS id type xs ys zs
4 3 0.470548 0.491526 0.448591
2 3 0.545165 0.479332 0.592548
3 3 0.482058 0.621371 0.544773
1 1 0.470555 0.522771 0.542838
5 3 0.383585 0.498596 0.585871
8 4 0.350427 0.47277 0.849182
6 2 0.442631 0.501357 0.823089
7 4 0.534833 0.529945 0.796995
ITEM: TIMESTEP
1000
ITEM: NUMBER OF ATOMS
8
ITEM: BOX BOUNDS pp pp pp
-5.0000000000000000e+00 5.0000000000000000e+00
-5.0000000000000000e+00 5.0000000000000000e+00
-5.0000000000000000e+00 5.0000000000000000e+00
ITEM: ATOMS id type xs ys zs
4 3 0.467491 0.500415 0.450188
2 3 0.536647 0.475794 0.595293
3 3 0.479245 0.62271 0.555786
1 1 0.465071 0.524886 0.546394
5 3 0.376007 0.500388 0.584682
8 4 0.35064 0.473346 0.859438
6 2 0.4392 0.502553 0.823314
7 4 0.527758 0.531763 0.787185
ITEM: TIMESTEP
1050
ITEM: NUMBER OF ATOMS
8
ITEM: BOX BOUNDS pp pp pp
-5.0000000000000000e+00 5.0000000000000000e+00
-5.0000000000000000e+00 5.0000000000000000e+00
-5.0000000000000000e+00 5.0000000000000000e+00
ITEM: ATOMS id type xs ys zs
4 3 0.464845 0.509737 0.451653
1 1 0.459868 0.526937 0.54932
3 3 0.476074 0.623372 0.566573
2 3 0.528606 0.472417 0.596509
5 3 0.369034 0.501985 0.582868
6 2 0.435731 0.505168 0.825194
7 4 0.51911 0.537999 0.780803
8 4 0.352343 0.472347 0.869576
ITEM: TIMESTEP
1100
ITEM: NUMBER OF ATOMS
8
ITEM: BOX BOUNDS pp pp pp
-5.0000000000000000e+00 5.0000000000000000e+00
-5.0000000000000000e+00 5.0000000000000000e+00
-5.0000000000000000e+00 5.0000000000000000e+00
ITEM: ATOMS id type xs ys zs
4 3 0.460938 0.517691 0.452098
1 1 0.454064 0.528491 0.550559
3 3 0.472388 0.623072 0.574611
2 3 0.52019 0.469059 0.595506
5 3 0.361828 0.503902 0.580341
6 2 0.43168 0.508355 0.828489
7 4 0.50935 0.546692 0.778531
8 4 0.354001 0.470018 0.878458
ITEM: TIMESTEP
1150
ITEM: NUMBER OF ATOMS
8
ITEM: BOX BOUNDS pp pp pp
-5.0000000000000000e+00 5.0000000000000000e+00
-5.0000000000000000e+00 5.0000000000000000e+00
-5.0000000000000000e+00 5.0000000000000000e+00
ITEM: ATOMS id type xs ys zs
4 3 0.45681 0.523828 0.452914
1 1 0.447374 0.5294 0.551599
3 3 0.466525 0.622212 0.58125
2 3 0.511266 0.466473 0.594993
5 3 0.353959 0.504848 0.57749
6 2 0.427162 0.509867 0.830625
7 4 0.497466 0.554204 0.775023
8 4 0.356849 0.465544 0.886214
ITEM: TIMESTEP
1200
ITEM: NUMBER OF ATOMS
8
ITEM: BOX BOUNDS pp pp pp
-5.0000000000000000e+00 5.0000000000000000e+00
-5.0000000000000000e+00 5.0000000000000000e+00
-5.0000000000000000e+00 5.0000000000000000e+00
ITEM: ATOMS id type xs ys zs
4 3 0.453031 0.529787 0.45383
1 1 0.440916 0.52937 0.55238
3 3 0.461043 0.6197 0.588346
2 3 0.502306 0.462492 0.593412
5 3 0.346338 0.505252 0.574132
6 2 0.422862 0.511657 0.833026
7 4 0.484346 0.563503 0.773594
8 4 0.361385 0.459807 0.892459
ITEM: TIMESTEP
1250
ITEM: NUMBER OF ATOMS
8
ITEM: BOX BOUNDS pp pp pp
-5.0000000000000000e+00 5.0000000000000000e+00
-5.0000000000000000e+00 5.0000000000000000e+00
-5.0000000000000000e+00 5.0000000000000000e+00
ITEM: ATOMS id type xs ys zs
4 3 0.451614 0.536651 0.456388
1 1 0.435733 0.529305 0.554125
3 3 0.456076 0.616346 0.597351
2 3 0.494304 0.458373 0.592384
5 3 0.339974 0.505619 0.570554
6 2 0.418192 0.512543 0.835108
7 4 0.47195 0.569676 0.77309
8 4 0.364421 0.455409 0.897116
ITEM: TIMESTEP
1300
ITEM: NUMBER OF ATOMS
8
ITEM: BOX BOUNDS pp pp pp
-5.0000000000000000e+00 5.0000000000000000e+00
-5.0000000000000000e+00 5.0000000000000000e+00
-5.0000000000000000e+00 5.0000000000000000e+00
ITEM: ATOMS id type xs ys zs
4 3 0.449797 0.543321 0.459666
1 1 0.430391 0.528151 0.555852
3 3 0.449596 0.611213 0.606746
2 3 0.487211 0.453886 0.590206
5 3 0.333988 0.503944 0.56689
6 2 0.412148 0.514406 0.835719
7 4 0.457272 0.577136 0.772239
8 4 0.367012 0.451692 0.899193
ITEM: TIMESTEP
1350
ITEM: NUMBER OF ATOMS
8
ITEM: BOX BOUNDS pp pp pp
-5.0000000000000000e+00 5.0000000000000000e+00
-5.0000000000000000e+00 5.0000000000000000e+00
-5.0000000000000000e+00 5.0000000000000000e+00
ITEM: ATOMS id type xs ys zs
4 3 0.44831 0.549861 0.464723
1 1 0.424103 0.527802 0.558453
3 3 0.442057 0.606409 0.616401
2 3 0.47812 0.450125 0.589653
5 3 0.326947 0.504593 0.563104
6 2 0.405935 0.517157 0.836189
7 4 0.442147 0.58468 0.771939
8 4 0.369705 0.449636 0.900442
ITEM: TIMESTEP
1400
ITEM: NUMBER OF ATOMS
8
ITEM: BOX BOUNDS pp pp pp
-5.0000000000000000e+00 5.0000000000000000e+00
-5.0000000000000000e+00 5.0000000000000000e+00
-5.0000000000000000e+00 5.0000000000000000e+00
ITEM: ATOMS id type xs ys zs
4 3 0.446692 0.555407 0.471754
1 1 0.417575 0.5265 0.562172
3 3 0.433794 0.599973 0.626964
2 3 0.468862 0.445633 0.589648
5 3 0.319974 0.504791 0.560299
6 2 0.399856 0.519295 0.83683
7 4 0.428001 0.591731 0.773886
8 4 0.371721 0.446868 0.89978
ITEM: TIMESTEP
1450
ITEM: NUMBER OF ATOMS
8
ITEM: BOX BOUNDS pp pp pp
-5.0000000000000000e+00 5.0000000000000000e+00
-5.0000000000000000e+00 5.0000000000000000e+00
-5.0000000000000000e+00 5.0000000000000000e+00
ITEM: ATOMS id type xs ys zs
4 3 0.445129 0.561424 0.480499
1 1 0.411508 0.525025 0.566546
3 3 0.424294 0.592682 0.638086
2 3 0.461468 0.441982 0.589622
5 3 0.31418 0.503802 0.557891
6 2 0.394617 0.5212 0.836985
7 4 0.415909 0.598221 0.776881
8 4 0.373334 0.444169 0.897097
ITEM: TIMESTEP
1500
ITEM: NUMBER OF ATOMS
8
ITEM: BOX BOUNDS pp pp pp
-5.0000000000000000e+00 5.0000000000000000e+00
-5.0000000000000000e+00 5.0000000000000000e+00
-5.0000000000000000e+00 5.0000000000000000e+00
ITEM: ATOMS id type xs ys zs
4 3 0.441992 0.567359 0.49017
1 1 0.405793 0.523275 0.571443
3 3 0.417072 0.583719 0.649404
2 3 0.454557 0.43795 0.587839
5 3 0.308588 0.503862 0.558231
6 2 0.389875 0.522219 0.837784
7 4 0.402285 0.601831 0.778568
8 4 0.377465 0.442601 0.896997
ITEM: TIMESTEP
1550
ITEM: NUMBER OF ATOMS
8
ITEM: BOX BOUNDS pp pp pp
-5.0000000000000000e+00 5.0000000000000000e+00
-5.0000000000000000e+00 5.0000000000000000e+00
-5.0000000000000000e+00 5.0000000000000000e+00
ITEM: ATOMS id type xs ys zs
4 3 0.436758 0.573415 0.50171
1 1 0.398195 0.521184 0.576832
3 3 0.408588 0.572427 0.661237
2 3 0.445407 0.433795 0.584633
5 3 0.301044 0.504915 0.559581
6 2 0.385256 0.521989 0.839317
7 4 0.386514 0.60052 0.777423
8 4 0.383992 0.443466 0.901215
ITEM: TIMESTEP
1600
ITEM: NUMBER OF ATOMS
8
ITEM: BOX BOUNDS pp pp pp
-5.0000000000000000e+00 5.0000000000000000e+00
-5.0000000000000000e+00 5.0000000000000000e+00
-5.0000000000000000e+00 5.0000000000000000e+00
ITEM: ATOMS id type xs ys zs
4 3 0.428792 0.579648 0.514816
1 1 0.390395 0.518604 0.583076
3 3 0.399852 0.559704 0.672962
2 3 0.438474 0.43137 0.580872
5 3 0.293514 0.503533 0.563437
6 2 0.380169 0.520639 0.8411
7 4 0.369974 0.59649 0.776741
8 4 0.39036 0.444776 0.905448
ITEM: TIMESTEP
1650
ITEM: NUMBER OF ATOMS
8
ITEM: BOX BOUNDS pp pp pp
-5.0000000000000000e+00 5.0000000000000000e+00
-5.0000000000000000e+00 5.0000000000000000e+00
-5.0000000000000000e+00 5.0000000000000000e+00
ITEM: ATOMS id type xs ys zs
4 3 0.419289 0.58533 0.526213
1 1 0.38237 0.516336 0.587333
3 3 0.393952 0.546114 0.68134
2 3 0.430223 0.430082 0.573347
5 3 0.285025 0.503686 0.568239
6 2 0.373741 0.520225 0.84468
7 4 0.352831 0.59309 0.779458
8 4 0.394638 0.447352 0.909901
ITEM: TIMESTEP
1700
ITEM: NUMBER OF ATOMS
8
ITEM: BOX BOUNDS pp pp pp
-5.0000000000000000e+00 5.0000000000000000e+00
-5.0000000000000000e+00 5.0000000000000000e+00
-5.0000000000000000e+00 5.0000000000000000e+00
ITEM: ATOMS id type xs ys zs
4 3 0.407428 0.591814 0.539356
1 1 0.372296 0.514985 0.59153
3 3 0.38787 0.531082 0.688266
2 3 0.418754 0.431411 0.563543
5 3 0.274161 0.505535 0.574784
6 2 0.366571 0.520558 0.848892
7 4 0.334223 0.588778 0.783326
8 4 0.39892 0.452333 0.914458
ITEM: TIMESTEP
1750
ITEM: NUMBER OF ATOMS
8
ITEM: BOX BOUNDS pp pp pp
-5.0000000000000000e+00 5.0000000000000000e+00
-5.0000000000000000e+00 5.0000000000000000e+00
-5.0000000000000000e+00 5.0000000000000000e+00
ITEM: ATOMS id type xs ys zs
4 3 0.394231 0.59832 0.553566
1 1 0.36079 0.515017 0.596004
3 3 0.379409 0.518043 0.693492
2 3 0.406364 0.436176 0.555601
5 3 0.262183 0.507455 0.581221
6 2 0.358773 0.519124 0.852533
7 4 0.315426 0.581385 0.787373
8 4 0.402107 0.456863 0.917685
ITEM: TIMESTEP
1800
ITEM: NUMBER OF ATOMS
8
ITEM: BOX BOUNDS pp pp pp
-5.0000000000000000e+00 5.0000000000000000e+00
-5.0000000000000000e+00 5.0000000000000000e+00
-5.0000000000000000e+00 5.0000000000000000e+00
ITEM: ATOMS id type xs ys zs
4 3 0.380436 0.60297 0.567599
1 1 0.34907 0.514568 0.600138
3 3 0.370932 0.50538 0.696555
2 3 0.393831 0.442042 0.54855
5 3 0.250072 0.507803 0.587727
6 2 0.350105 0.517493 0.857195
7 4 0.297857 0.573663 0.793055
8 4 0.402359 0.461317 0.921339
ITEM: TIMESTEP
1850
ITEM: NUMBER OF ATOMS
8
ITEM: BOX BOUNDS pp pp pp
-5.0000000000000000e+00 5.0000000000000000e+00
-5.0000000000000000e+00 5.0000000000000000e+00
-5.0000000000000000e+00 5.0000000000000000e+00
ITEM: ATOMS id type xs ys zs
4 3 0.367578 0.605763 0.582194
1 1 0.336754 0.51381 0.603521
3 3 0.360418 0.492184 0.697497
2 3 0.380477 0.448698 0.542098
5 3 0.237531 0.508553 0.592181
6 2 0.341381 0.515472 0.862411
7 4 0.280607 0.565135 0.800439
8 4 0.40216 0.465812 0.924377
ITEM: TIMESTEP
1900
ITEM: NUMBER OF ATOMS
8
ITEM: BOX BOUNDS pp pp pp
-5.0000000000000000e+00 5.0000000000000000e+00
-5.0000000000000000e+00 5.0000000000000000e+00
-5.0000000000000000e+00 5.0000000000000000e+00
ITEM: ATOMS id type xs ys zs
4 3 0.356226 0.606669 0.59601
1 1 0.323718 0.513326 0.605492
3 3 0.346945 0.479463 0.695894
2 3 0.366279 0.4558 0.536177
5 3 0.224423 0.511368 0.593761
6 2 0.333099 0.514254 0.867535
7 4 0.264477 0.556896 0.808599
8 4 0.401715 0.471621 0.926472
ITEM: TIMESTEP
1950
ITEM: NUMBER OF ATOMS
8
ITEM: BOX BOUNDS pp pp pp
-5.0000000000000000e+00 5.0000000000000000e+00
-5.0000000000000000e+00 5.0000000000000000e+00
-5.0000000000000000e+00 5.0000000000000000e+00
ITEM: ATOMS id type xs ys zs
4 3 0.34442 0.606456 0.608924
1 1 0.310006 0.513355 0.606613
3 3 0.332082 0.468032 0.692161
2 3 0.351759 0.464041 0.530789
5 3 0.210759 0.5149 0.594467
6 2 0.322872 0.511981 0.872861
7 4 0.249548 0.548161 0.815296
8 4 0.396196 0.475801 0.930431
ITEM: TIMESTEP
2000
ITEM: NUMBER OF ATOMS
8
ITEM: BOX BOUNDS pp pp pp
-5.0000000000000000e+00 5.0000000000000000e+00
-5.0000000000000000e+00 5.0000000000000000e+00
-5.0000000000000000e+00 5.0000000000000000e+00
ITEM: ATOMS id type xs ys zs
4 3 0.330349 0.605892 0.621382
1 1 0.295224 0.513922 0.608404
3 3 0.316627 0.459 0.688305
2 3 0.336889 0.473208 0.527588
5 3 0.196042 0.517642 0.596229
6 2 0.311727 0.509461 0.878352
7 4 0.23631 0.539683 0.820046
8 4 0.387132 0.479232 0.936659
ITEM: TIMESTEP
2050
ITEM: NUMBER OF ATOMS
8
ITEM: BOX BOUNDS pp pp pp
-5.0000000000000000e+00 5.0000000000000000e+00
-5.0000000000000000e+00 5.0000000000000000e+00
-5.0000000000000000e+00 5.0000000000000000e+00
ITEM: ATOMS id type xs ys zs
2 3 0.321222 0.481631 0.524504
5 3 0.181829 0.519323 0.599827
1 1 0.281239 0.514631 0.609573
4 3 0.316663 0.605047 0.630285
3 3 0.304245 0.452578 0.683599
7 4 0.223748 0.53157 0.824225
6 2 0.300255 0.5076 0.883993
8 4 0.376758 0.483617 0.943753
ITEM: TIMESTEP
2100
ITEM: NUMBER OF ATOMS
8
ITEM: BOX BOUNDS pp pp pp
-5.0000000000000000e+00 5.0000000000000000e+00
-5.0000000000000000e+00 5.0000000000000000e+00
-5.0000000000000000e+00 5.0000000000000000e+00
ITEM: ATOMS id type xs ys zs
2 3 0.306732 0.489314 0.522174
5 3 0.168305 0.520562 0.602092
1 1 0.267782 0.514621 0.610317
4 3 0.303865 0.602642 0.63875
3 3 0.291256 0.446018 0.678149
7 4 0.211746 0.524023 0.830517
6 2 0.289577 0.507116 0.89099
8 4 0.367407 0.490202 0.951454
ITEM: TIMESTEP
2150
ITEM: NUMBER OF ATOMS
8
ITEM: BOX BOUNDS pp pp pp
-5.0000000000000000e+00 5.0000000000000000e+00
-5.0000000000000000e+00 5.0000000000000000e+00
-5.0000000000000000e+00 5.0000000000000000e+00
ITEM: ATOMS id type xs ys zs
2 3 0.291097 0.497931 0.521795
5 3 0.153533 0.519158 0.606355
1 1 0.253199 0.513952 0.612529
4 3 0.288517 0.599325 0.648896
3 3 0.278667 0.439429 0.673014
7 4 0.200165 0.516987 0.838631
6 2 0.279298 0.506461 0.898858
8 4 0.358421 0.495933 0.959085
ITEM: TIMESTEP
2200
ITEM: NUMBER OF ATOMS
8
ITEM: BOX BOUNDS pp pp pp
-5.0000000000000000e+00 5.0000000000000000e+00
-5.0000000000000000e+00 5.0000000000000000e+00
-5.0000000000000000e+00 5.0000000000000000e+00
ITEM: ATOMS id type xs ys zs
2 3 0.277297 0.505397 0.523588
5 3 0.13816 0.514784 0.607729
1 1 0.237886 0.512474 0.614818
4 3 0.269791 0.595663 0.658636
3 3 0.265289 0.434078 0.669238
7 4 0.188457 0.50597 0.847175
6 2 0.269279 0.505603 0.906045
8 4 0.350117 0.505236 0.96492
ITEM: TIMESTEP
2250
ITEM: NUMBER OF ATOMS
8
ITEM: BOX BOUNDS pp pp pp
-5.0000000000000000e+00 5.0000000000000000e+00
-5.0000000000000000e+00 5.0000000000000000e+00
-5.0000000000000000e+00 5.0000000000000000e+00
ITEM: ATOMS id type xs ys zs
2 3 0.265095 0.512956 0.526709
5 3 0.124097 0.50753 0.608044
1 1 0.223634 0.510399 0.61726
4 3 0.249729 0.591484 0.668257
3 3 0.25461 0.429578 0.66592
7 4 0.179675 0.496697 0.854749
6 2 0.260213 0.506697 0.913179
8 4 0.340751 0.516705 0.971605
ITEM: TIMESTEP
2300
ITEM: NUMBER OF ATOMS
8
ITEM: BOX BOUNDS pp pp pp
-5.0000000000000000e+00 5.0000000000000000e+00
-5.0000000000000000e+00 5.0000000000000000e+00
-5.0000000000000000e+00 5.0000000000000000e+00
ITEM: ATOMS id type xs ys zs
2 3 0.25201 0.521374 0.531337
5 3 0.11012 0.500591 0.608546
1 1 0.209097 0.50865 0.620338
4 3 0.229167 0.586548 0.678554
3 3 0.244108 0.426004 0.662813
7 4 0.169761 0.488992 0.861867
6 2 0.249457 0.507766 0.919293
8 4 0.32914 0.526539 0.976718
ITEM: TIMESTEP
2350
ITEM: NUMBER OF ATOMS
8
ITEM: BOX BOUNDS pp pp pp
-5.0000000000000000e+00 5.0000000000000000e+00
-5.0000000000000000e+00 5.0000000000000000e+00
-5.0000000000000000e+00 5.0000000000000000e+00
ITEM: ATOMS id type xs ys zs
2 3 0.23839 0.529244 0.535516
5 3 0.0960631 0.494849 0.606821
1 1 0.194092 0.507424 0.62204
4 3 0.208229 0.581649 0.686461
3 3 0.23271 0.423848 0.659212
7 4 0.157677 0.481635 0.869995
6 2 0.237719 0.50784 0.923908
8 4 0.317761 0.534042 0.97783
ITEM: TIMESTEP
2400
ITEM: NUMBER OF ATOMS
8
ITEM: BOX BOUNDS pp pp pp
-5.0000000000000000e+00 5.0000000000000000e+00
-5.0000000000000000e+00 5.0000000000000000e+00
-5.0000000000000000e+00 5.0000000000000000e+00
ITEM: ATOMS id type xs ys zs
2 3 0.226447 0.535292 0.540207
5 3 0.0841611 0.487325 0.603297
1 1 0.180509 0.505123 0.623301
4 3 0.1873 0.575749 0.692758
3 3 0.223173 0.421933 0.656742
7 4 0.145064 0.476451 0.880978
6 2 0.225805 0.509887 0.929586
8 4 0.306539 0.543328 0.978197
ITEM: TIMESTEP
2450
ITEM: NUMBER OF ATOMS
8
ITEM: BOX BOUNDS pp pp pp
-5.0000000000000000e+00 5.0000000000000000e+00
-5.0000000000000000e+00 5.0000000000000000e+00
-5.0000000000000000e+00 5.0000000000000000e+00
ITEM: ATOMS id type xs ys zs
2 3 0.216774 0.542206 0.546913
5 3 0.074251 0.482409 0.598234
1 1 0.168436 0.503054 0.624734
4 3 0.168112 0.567892 0.69993
3 3 0.213668 0.419505 0.653564
7 4 0.135854 0.472659 0.89046
6 2 0.216056 0.512572 0.934918
8 4 0.29624 0.552481 0.979368
ITEM: TIMESTEP
2500
ITEM: NUMBER OF ATOMS
8
ITEM: BOX BOUNDS pp pp pp
-5.0000000000000000e+00 5.0000000000000000e+00
-5.0000000000000000e+00 5.0000000000000000e+00
-5.0000000000000000e+00 5.0000000000000000e+00
ITEM: ATOMS id type xs ys zs
2 3 0.207902 0.548282 0.553891
5 3 0.0659702 0.478886 0.593459
1 1 0.157837 0.501248 0.62605
4 3 0.151161 0.559966 0.705828
3 3 0.205379 0.417626 0.650664
7 4 0.129407 0.468461 0.898374
6 2 0.20747 0.514991 0.940096
8 4 0.285536 0.561516 0.981827
ITEM: TIMESTEP
2550
ITEM: NUMBER OF ATOMS
8
ITEM: BOX BOUNDS pp pp pp
-5.0000000000000000e+00 5.0000000000000000e+00
-5.0000000000000000e+00 5.0000000000000000e+00
-5.0000000000000000e+00 5.0000000000000000e+00
ITEM: ATOMS id type xs ys zs
2 3 0.19892 0.55371 0.560489
5 3 0.0587539 0.475784 0.588861
1 1 0.148162 0.499463 0.626869
4 3 0.135723 0.551828 0.710306
3 3 0.198351 0.416298 0.647443
7 4 0.121077 0.465728 0.907471
6 2 0.197722 0.517691 0.945228
8 4 0.274362 0.569654 0.982975
ITEM: TIMESTEP
2600
ITEM: NUMBER OF ATOMS
8
ITEM: BOX BOUNDS pp pp pp
-5.0000000000000000e+00 5.0000000000000000e+00
-5.0000000000000000e+00 5.0000000000000000e+00
-5.0000000000000000e+00 5.0000000000000000e+00
ITEM: ATOMS id type xs ys zs
2 3 0.188819 0.557808 0.565505
5 3 0.0519418 0.471681 0.584832
1 1 0.139002 0.49719 0.626903
4 3 0.121723 0.543618 0.712957
3 3 0.192653 0.41539 0.6439
7 4 0.114731 0.461288 0.917011
6 2 0.188651 0.519913 0.950164
8 4 0.262567 0.578545 0.983326
ITEM: TIMESTEP
2650
ITEM: NUMBER OF ATOMS
8
ITEM: BOX BOUNDS pp pp pp
-5.0000000000000000e+00 5.0000000000000000e+00
-5.0000000000000000e+00 5.0000000000000000e+00
-5.0000000000000000e+00 5.0000000000000000e+00
ITEM: ATOMS id type xs ys zs
2 3 0.179334 0.560964 0.570896
5 3 0.0459516 0.467819 0.578645
1 1 0.129721 0.494615 0.626238
4 3 0.106399 0.534993 0.713899
3 3 0.186357 0.41441 0.641024
7 4 0.111879 0.456709 0.926705
6 2 0.18088 0.523224 0.955282
8 4 0.249869 0.589737 0.983851
ITEM: TIMESTEP
2700
ITEM: NUMBER OF ATOMS
8
ITEM: BOX BOUNDS pp pp pp
-5.0000000000000000e+00 5.0000000000000000e+00
-5.0000000000000000e+00 5.0000000000000000e+00
-5.0000000000000000e+00 5.0000000000000000e+00
ITEM: ATOMS id type xs ys zs
2 3 0.169856 0.562688 0.57599
5 3 0.0395729 0.465033 0.572163
1 1 0.120195 0.49159 0.625017
4 3 0.091661 0.525884 0.713727
3 3 0.178881 0.412505 0.637679
7 4 0.11117 0.45225 0.93929
6 2 0.173157 0.527928 0.960018
8 4 0.235158 0.603606 0.980754
ITEM: TIMESTEP
2750
ITEM: NUMBER OF ATOMS
8
ITEM: BOX BOUNDS pp pp pp
-5.0000000000000000e+00 5.0000000000000000e+00
-5.0000000000000000e+00 5.0000000000000000e+00
-5.0000000000000000e+00 5.0000000000000000e+00
ITEM: ATOMS id type xs ys zs
2 3 0.160064 0.564967 0.58373
5 3 0.0344769 0.462694 0.566653
1 1 0.111395 0.488533 0.62511
4 3 0.0774051 0.515052 0.714557
3 3 0.172844 0.411162 0.634917
7 4 0.112345 0.448994 0.950214
6 2 0.166774 0.531753 0.963981
8 4 0.221199 0.614499 0.97774
ITEM: TIMESTEP
2800
ITEM: NUMBER OF ATOMS
8
ITEM: BOX BOUNDS pp pp pp
-5.0000000000000000e+00 5.0000000000000000e+00
-5.0000000000000000e+00 5.0000000000000000e+00
-5.0000000000000000e+00 5.0000000000000000e+00
ITEM: ATOMS id type xs ys zs
2 3 0.149857 0.565761 0.590552
5 3 0.028695 0.460903 0.561414
1 1 0.102033 0.485367 0.624832
4 3 0.0632724 0.505077 0.714095
3 3 0.165588 0.409479 0.632634
7 4 0.115522 0.447377 0.960266
6 2 0.162048 0.535655 0.966786
8 4 0.208574 0.62393 0.973304
ITEM: TIMESTEP
2850
ITEM: NUMBER OF ATOMS
8
ITEM: BOX BOUNDS pp pp pp
-5.0000000000000000e+00 5.0000000000000000e+00
-5.0000000000000000e+00 5.0000000000000000e+00
-5.0000000000000000e+00 5.0000000000000000e+00
ITEM: ATOMS id type xs ys zs
2 3 0.13812 0.566925 0.598074
5 3 0.0224334 0.459958 0.556869
1 1 0.0922967 0.48258 0.624737
4 3 0.0494443 0.494461 0.713515
3 3 0.158505 0.408752 0.62982
7 4 0.118985 0.447116 0.971841
6 2 0.158789 0.538847 0.970407
8 4 0.19859 0.630569 0.968972
ITEM: TIMESTEP
2900
ITEM: NUMBER OF ATOMS
8
ITEM: BOX BOUNDS pp pp pp
-5.0000000000000000e+00 5.0000000000000000e+00
-5.0000000000000000e+00 5.0000000000000000e+00
-5.0000000000000000e+00 5.0000000000000000e+00
ITEM: ATOMS id type xs ys zs
2 3 0.126101 0.567609 0.605991
5 3 0.0153856 0.46042 0.553277
1 1 0.0834397 0.479408 0.624039
4 3 0.0390613 0.481307 0.71285
3 3 0.152543 0.408108 0.623347
7 4 0.123849 0.447675 0.984207
6 2 0.156611 0.541671 0.974692
8 4 0.189381 0.635666 0.965179
ITEM: TIMESTEP
2950
ITEM: NUMBER OF ATOMS
8
ITEM: BOX BOUNDS pp pp pp
-5.0000000000000000e+00 5.0000000000000000e+00
-5.0000000000000000e+00 5.0000000000000000e+00
-5.0000000000000000e+00 5.0000000000000000e+00
ITEM: ATOMS id type xs ys zs
2 3 0.115432 0.567273 0.614778
5 3 0.0070775 0.464282 0.55015
1 1 0.0738339 0.477174 0.623486
4 3 0.0281709 0.469802 0.711349
3 3 0.143978 0.407201 0.616931
7 4 0.128915 0.449277 0.999036
6 2 0.154768 0.543877 0.97949
8 4 0.180626 0.638477 0.95995
ITEM: TIMESTEP
3000
ITEM: NUMBER OF ATOMS
8
ITEM: BOX BOUNDS pp pp pp
-5.0000000000000000e+00 5.0000000000000000e+00
-5.0000000000000000e+00 5.0000000000000000e+00
-5.0000000000000000e+00 5.0000000000000000e+00
ITEM: ATOMS id type xs ys zs
2 3 0.105121 0.566491 0.622387
5 3 0.999386 0.469084 0.545852
1 1 0.0642784 0.475622 0.621654
4 3 0.0166667 0.459695 0.707322
3 3 0.135291 0.407161 0.6103
7 4 0.134838 0.451474 0.0156536
6 2 0.152877 0.54489 0.984847
8 4 0.170922 0.6383 0.95405
ITEM: TIMESTEP
3050
ITEM: NUMBER OF ATOMS
8
ITEM: BOX BOUNDS pp pp pp
-5.0000000000000000e+00 5.0000000000000000e+00
-5.0000000000000000e+00 5.0000000000000000e+00
-5.0000000000000000e+00 5.0000000000000000e+00
ITEM: ATOMS id type xs ys zs
7 4 0.140571 0.454513 0.0310883
5 3 0.98996 0.474852 0.542286
3 3 0.124744 0.407275 0.603301
1 1 0.0531364 0.474052 0.619796
2 3 0.0934639 0.564528 0.630435
4 3 0.00374896 0.449561 0.702378
6 2 0.151179 0.545447 0.990846
8 4 0.161794 0.636372 0.950607
ITEM: TIMESTEP
3100
ITEM: NUMBER OF ATOMS
8
ITEM: BOX BOUNDS pp pp pp
-5.0000000000000000e+00 5.0000000000000000e+00
-5.0000000000000000e+00 5.0000000000000000e+00
-5.0000000000000000e+00 5.0000000000000000e+00
ITEM: ATOMS id type xs ys zs
7 4 0.146157 0.458586 0.045188
5 3 0.978394 0.479777 0.541118
3 3 0.112446 0.406815 0.597362
1 1 0.0410657 0.472469 0.618689
2 3 0.0817933 0.561577 0.636733