ITEM: TIMESTEP
50
ITEM: NUMBER OF ATOMS
8
ITEM: BOX BOUNDS pp pp pp
-5.0000000000000000e+00 5.0000000000000000e+00
-5.0000000000000000e+00 5.0000000000000000e+00
-5.0000000000000000e+00 5.0000000000000000e+00
ITEM: ATOMS id type xs ys zs
4 3 0.453021 0.419079 0.466979
2 3 0.594031 0.500061 0.467097
3 3 0.453041 0.581079 0.467041
1 1 0.50001 0.500061 0.500039
5 3 0.499948 0.500022 0.600039
8 4 0.399946 0.499937 0.799931
6 2 0.499945 0.499995 0.800043
7 4 0.599945 0.500053 0.800156
ITEM: TIMESTEP
100
ITEM: NUMBER OF ATOMS
8
ITEM: BOX BOUNDS pp pp pp
-5.0000000000000000e+00 5.0000000000000000e+00
-5.0000000000000000e+00 5.0000000000000000e+00
-5.0000000000000000e+00 5.0000000000000000e+00
ITEM: ATOMS id type xs ys zs
4 3 0.453059 0.419164 0.467036
2 3 0.594077 0.500133 0.467248
3 3 0.453096 0.581164 0.466974
1 1 0.500021 0.500166 0.500086
5 3 0.499849 0.500205 0.600086
8 4 0.399869 0.499783 0.799828
6 2 0.499868 0.499899 0.800172
7 4 0.599867 0.500015 0.800516
ITEM: TIMESTEP
150
ITEM: NUMBER OF ATOMS
8
ITEM: BOX BOUNDS pp pp pp
-5.0000000000000000e+00 5.0000000000000000e+00
-5.0000000000000000e+00 5.0000000000000000e+00
-5.0000000000000000e+00 5.0000000000000000e+00
ITEM: ATOMS id type xs ys zs
4 3 0.453217 0.419255 0.467051
2 3 0.594231 0.500229 0.467489
3 3 0.453248 0.581255 0.46682
1 1 0.500102 0.500294 0.50012
5 3 0.49971 0.500436 0.600119
8 4 0.399785 0.499589 0.799657
6 2 0.499783 0.499751 0.800312
7 4 0.599781 0.499913 0.800967
ITEM: TIMESTEP
200
ITEM: NUMBER OF ATOMS
8
ITEM: BOX BOUNDS pp pp pp
-5.0000000000000000e+00 5.0000000000000000e+00
-5.0000000000000000e+00 5.0000000000000000e+00
-5.0000000000000000e+00 5.0000000000000000e+00
ITEM: ATOMS id type xs ys zs
4 3 0.453337 0.419367 0.467051
2 3 0.594449 0.500169 0.467766
3 3 0.453568 0.581366 0.466547
1 1 0.500225 0.500404 0.50012
5 3 0.49954 0.500716 0.600118
8 4 0.399653 0.499338 0.799478
6 2 0.499648 0.499598 0.800432
7 4 0.599644 0.499859 0.801385
ITEM: TIMESTEP
250
ITEM: NUMBER OF ATOMS
8
ITEM: BOX BOUNDS pp pp pp
-5.0000000000000000e+00 5.0000000000000000e+00
-5.0000000000000000e+00 5.0000000000000000e+00
-5.0000000000000000e+00 5.0000000000000000e+00
ITEM: ATOMS id type xs ys zs
4 3 0.453392 0.419542 0.466942
2 3 0.594637 0.500106 0.46808
3 3 0.453898 0.58154 0.466321
1 1 0.500304 0.500523 0.500112
5 3 0.499278 0.50091 0.600106
8 4 0.399408 0.49898 0.799287
6 2 0.4994 0.499352 0.800522
7 4 0.599391 0.499723 0.801757
ITEM: TIMESTEP
300
ITEM: NUMBER OF ATOMS
8
ITEM: BOX BOUNDS pp pp pp
-5.0000000000000000e+00 5.0000000000000000e+00
-5.0000000000000000e+00 5.0000000000000000e+00
-5.0000000000000000e+00 5.0000000000000000e+00
ITEM: ATOMS id type xs ys zs
4 3 0.453484 0.419745 0.466843
2 3 0.594856 0.500076 0.468558
3 3 0.454262 0.581742 0.466128
1 1 0.500383 0.500669 0.500173
5 3 0.498916 0.501117 0.600161
8 4 0.399101 0.498591 0.799
6 2 0.499088 0.499097 0.80058
7 4 0.599074 0.499603 0.80216
ITEM: TIMESTEP
350
ITEM: NUMBER OF ATOMS
8
ITEM: BOX BOUNDS pp pp pp
-5.0000000000000000e+00 5.0000000000000000e+00
-5.0000000000000000e+00 5.0000000000000000e+00
-5.0000000000000000e+00 5.0000000000000000e+00
ITEM: ATOMS id type xs ys zs
4 3 0.453502 0.419971 0.466715
2 3 0.595045 0.499983 0.469126
3 3 0.454648 0.581966 0.466029
1 1 0.500421 0.500785 0.500283
5 3 0.498471 0.501222 0.600263
8 4 0.398849 0.498264 0.798825
6 2 0.49883 0.498917 0.80067
7 4 0.598811 0.49957 0.802514
ITEM: TIMESTEP
400
ITEM: NUMBER OF ATOMS
8
ITEM: BOX BOUNDS pp pp pp
-5.0000000000000000e+00 5.0000000000000000e+00
-5.0000000000000000e+00 5.0000000000000000e+00
-5.0000000000000000e+00 5.0000000000000000e+00
ITEM: ATOMS id type xs ys zs
4 3 0.453484 0.420233 0.466449
2 3 0.595137 0.500021 0.46969
3 3 0.454883 0.582227 0.466066
1 1 0.500366 0.500912 0.500392
5 3 0.497933 0.501169 0.600362
8 4 0.398565 0.497931 0.798691
6 2 0.498541 0.49879 0.800719
7 4 0.598516 0.499649 0.802746
ITEM: TIMESTEP
450
ITEM: NUMBER OF ATOMS
8
ITEM: BOX BOUNDS pp pp pp
-5.0000000000000000e+00 5.0000000000000000e+00
-5.0000000000000000e+00 5.0000000000000000e+00
-5.0000000000000000e+00 5.0000000000000000e+00
ITEM: ATOMS id type xs ys zs
4 3 0.453413 0.420491 0.466105
2 3 0.59517 0.50005 0.470276
3 3 0.455061 0.582483 0.466213
1 1 0.500251 0.500996 0.500517
5 3 0.49733 0.500959 0.600475
8 4 0.398344 0.497635 0.79869
6 2 0.498316 0.498708 0.80078
7 4 0.598288 0.49978 0.802869
ITEM: TIMESTEP
500
ITEM: NUMBER OF ATOMS
8
ITEM: BOX BOUNDS pp pp pp
-5.0000000000000000e+00 5.0000000000000000e+00
-5.0000000000000000e+00 5.0000000000000000e+00
-5.0000000000000000e+00 5.0000000000000000e+00
ITEM: ATOMS id type xs ys zs
4 3 0.453371 0.420636 0.465687
2 3 0.595189 0.500027 0.470853
3 3 0.455194 0.582625 0.466264
1 1 0.500108 0.500992 0.500581
5 3 0.496646 0.500675 0.600521
8 4 0.398145 0.497458 0.798843
6 2 0.498116 0.498689 0.800875
7 4 0.598088 0.49992 0.802908
ITEM: TIMESTEP
550
ITEM: NUMBER OF ATOMS
8
ITEM: BOX BOUNDS pp pp pp
-5.0000000000000000e+00 5.0000000000000000e+00
-5.0000000000000000e+00 5.0000000000000000e+00
-5.0000000000000000e+00 5.0000000000000000e+00
ITEM: ATOMS id type xs ys zs
4 3 0.453384 0.420771 0.465444
2 3 0.595229 0.500056 0.471447
3 3 0.455315 0.582758 0.466305
1 1 0.500003 0.501035 0.500706
5 3 0.496044 0.500551 0.600626
8 4 0.397939 0.497479 0.798947
6 2 0.497908 0.498835 0.801009
7 4 0.597878 0.50019 0.803071
ITEM: TIMESTEP
600
ITEM: NUMBER OF ATOMS
8
ITEM: BOX BOUNDS pp pp pp
-5.0000000000000000e+00 5.0000000000000000e+00
-5.0000000000000000e+00 5.0000000000000000e+00
-5.0000000000000000e+00 5.0000000000000000e+00
ITEM: ATOMS id type xs ys zs
4 3 0.45329 0.420985 0.465291
2 3 0.595201 0.500098 0.471949
3 3 0.455398 0.582967 0.466481
1 1 0.499874 0.501126 0.500876
5 3 0.495565 0.500448 0.600781
8 4 0.397727 0.497572 0.799077
6 2 0.497696 0.499045 0.801075
7 4 0.597665 0.500518 0.803072
ITEM: TIMESTEP
650
ITEM: NUMBER OF ATOMS
8
ITEM: BOX BOUNDS pp pp pp
-5.0000000000000000e+00 5.0000000000000000e+00
-5.0000000000000000e+00 5.0000000000000000e+00
-5.0000000000000000e+00 5.0000000000000000e+00
ITEM: ATOMS id type xs ys zs
4 3 0.453163 0.421208 0.465197
2 3 0.595135 0.500165 0.472381
3 3 0.455426 0.583184 0.466805
1 1 0.499744 0.501213 0.501092
5 3 0.495206 0.500284 0.600985
8 4 0.397501 0.49754 0.799228
6 2 0.497469 0.499274 0.801083
7 4 0.597437 0.501007 0.802938
ITEM: TIMESTEP
700
ITEM: NUMBER OF ATOMS
8
ITEM: BOX BOUNDS pp pp pp
-5.0000000000000000e+00 5.0000000000000000e+00
-5.0000000000000000e+00 5.0000000000000000e+00
-5.0000000000000000e+00 5.0000000000000000e+00
ITEM: ATOMS id type xs ys zs
4 3 0.452919 0.421378 0.465274
2 3 0.595009 0.500092 0.472789
3 3 0.455444 0.583348 0.467137
1 1 0.499577 0.501251 0.501362
5 3 0.49489 0.500175 0.601247
8 4 0.397253 0.497478 0.799444
6 2 0.497219 0.499455 0.801155
7 4 0.597185 0.501432 0.802866
ITEM: TIMESTEP
750
ITEM: NUMBER OF ATOMS
8
ITEM: BOX BOUNDS pp pp pp
-5.0000000000000000e+00 5.0000000000000000e+00
-5.0000000000000000e+00 5.0000000000000000e+00
-5.0000000000000000e+00 5.0000000000000000e+00
ITEM: ATOMS id type xs ys zs
4 3 0.452568 0.42152 0.465397
2 3 0.594776 0.499995 0.47317
3 3 0.455351 0.583483 0.46749
1 1 0.499317 0.501267 0.501646
5 3 0.494525 0.500059 0.601523
8 4 0.396981 0.497536 0.799834
6 2 0.496949 0.499565 0.801326
7 4 0.596918 0.501594 0.802818
ITEM: TIMESTEP
800
ITEM: NUMBER OF ATOMS
8
ITEM: BOX BOUNDS pp pp pp
-5.0000000000000000e+00 5.0000000000000000e+00
-5.0000000000000000e+00 5.0000000000000000e+00
-5.0000000000000000e+00 5.0000000000000000e+00
ITEM: ATOMS id type xs ys zs
4 3 0.452179 0.421726 0.465481
2 3 0.594556 0.499866 0.473542
3 3 0.455326 0.583678 0.467834
1 1 0.499067 0.50131 0.501909
5 3 0.494156 0.499954 0.60178
8 4 0.396761 0.497624 0.800364
6 2 0.496733 0.499706 0.80148
7 4 0.596705 0.501789 0.802595
ITEM: TIMESTEP
850
ITEM: NUMBER OF ATOMS
8
ITEM: BOX BOUNDS pp pp pp
-5.0000000000000000e+00 5.0000000000000000e+00
-5.0000000000000000e+00 5.0000000000000000e+00
-5.0000000000000000e+00 5.0000000000000000e+00
ITEM: ATOMS id type xs ys zs
4 3 0.451741 0.42187 0.465634
2 3 0.594292 0.499671 0.473881
3 3 0.455263 0.583812 0.468129
1 1 0.498783 0.501312 0.50217
5 3 0.493786 0.499882 0.602035
8 4 0.396593 0.497628 0.801008
6 2 0.496567 0.499822 0.801564
7 4 0.596542 0.502016 0.80212
ITEM: TIMESTEP
900
ITEM: NUMBER OF ATOMS
8
ITEM: BOX BOUNDS pp pp pp
-5.0000000000000000e+00 5.0000000000000000e+00
-5.0000000000000000e+00 5.0000000000000000e+00
-5.0000000000000000e+00 5.0000000000000000e+00
ITEM: ATOMS id type xs ys zs
4 3 0.451262 0.422031 0.465888
2 3 0.593965 0.499541 0.474255
3 3 0.455111 0.583966 0.468431
1 1 0.49844 0.501368 0.502479
5 3 0.493371 0.49992 0.60234
8 4 0.396447 0.497668 0.801553
6 2 0.49642 0.499963 0.801554
7 4 0.596394 0.502258 0.801555
ITEM: TIMESTEP
950
ITEM: NUMBER OF ATOMS
8
ITEM: BOX BOUNDS pp pp pp
-5.0000000000000000e+00 5.0000000000000000e+00
-5.0000000000000000e+00 5.0000000000000000e+00
-5.0000000000000000e+00 5.0000000000000000e+00
ITEM: ATOMS id type xs ys zs
4 3 0.450781 0.422314 0.466085
2 3 0.593644 0.499519 0.474535
3 3 0.454963 0.584236 0.468827
1 1 0.498125 0.501508 0.502769
5 3 0.493062 0.499948 0.602629
8 4 0.396259 0.497685 0.802149
6 2 0.496229 0.500034 0.80153
7 4 0.5962 0.502382 0.800911
ITEM: TIMESTEP
1000
ITEM: NUMBER OF ATOMS
8
ITEM: BOX BOUNDS pp pp pp
-5.0000000000000000e+00 5.0000000000000000e+00
-5.0000000000000000e+00 5.0000000000000000e+00
-5.0000000000000000e+00 5.0000000000000000e+00
ITEM: ATOMS id type xs ys zs
4 3 0.450137 0.422642 0.466293
2 3 0.593231 0.499435 0.474596
3 3 0.454778 0.584548 0.469263
1 1 0.497769 0.50165 0.503006
5 3 0.492883 0.499958 0.602872
8 4 0.396034 0.497615 0.802774
6 2 0.495996 0.50011 0.80155
7 4 0.595957 0.502604 0.800326
ITEM: TIMESTEP
1050
ITEM: NUMBER OF ATOMS
8
ITEM: BOX BOUNDS pp pp pp
-5.0000000000000000e+00 5.0000000000000000e+00
-5.0000000000000000e+00 5.0000000000000000e+00
-5.0000000000000000e+00 5.0000000000000000e+00
ITEM: ATOMS id type xs ys zs
4 3 0.449443 0.422937 0.46663
2 3 0.592764 0.499362 0.474408
3 3 0.454505 0.584828 0.46974
1 1 0.497428 0.501789 0.503221
5 3 0.492956 0.500009 0.603105
8 4 0.395835 0.497583 0.803407
6 2 0.495784 0.500273 0.801673
7 4 0.595732 0.502964 0.799939
ITEM: TIMESTEP
1100
ITEM: NUMBER OF ATOMS
8
ITEM: BOX BOUNDS pp pp pp
-5.0000000000000000e+00 5.0000000000000000e+00
-5.0000000000000000e+00 5.0000000000000000e+00
-5.0000000000000000e+00 5.0000000000000000e+00
ITEM: ATOMS id type xs ys zs
4 3 0.448676 0.423181 0.467001
2 3 0.59224 0.499219 0.474039
3 3 0.45419 0.585058 0.470071
1 1 0.49706 0.501906 0.503339
5 3 0.493094 0.500147 0.603245
8 4 0.395616 0.497739 0.804233
6 2 0.495552 0.500477 0.801899
7 4 0.595487 0.503215 0.799564
ITEM: TIMESTEP
1150
ITEM: NUMBER OF ATOMS
8
ITEM: BOX BOUNDS pp pp pp
-5.0000000000000000e+00 5.0000000000000000e+00
-5.0000000000000000e+00 5.0000000000000000e+00
-5.0000000000000000e+00 5.0000000000000000e+00
ITEM: ATOMS id type xs ys zs
4 3 0.447954 0.423317 0.46736
2 3 0.591641 0.499191 0.473623
3 3 0.453668 0.585187 0.470424
1 1 0.496626 0.501981 0.503444
5 3 0.493205 0.50021 0.60337
8 4 0.39533 0.497757 0.804914
6 2 0.495248 0.500602 0.802061
7 4 0.595167 0.503447 0.799209
ITEM: TIMESTEP
1200
ITEM: NUMBER OF ATOMS
8
ITEM: BOX BOUNDS pp pp pp
-5.0000000000000000e+00 5.0000000000000000e+00
-5.0000000000000000e+00 5.0000000000000000e+00
-5.0000000000000000e+00 5.0000000000000000e+00
ITEM: ATOMS id type xs ys zs
4 3 0.447185 0.423411 0.467753
2 3 0.591034 0.499043 0.473152
3 3 0.453191 0.585272 0.470731
1 1 0.496199 0.502003 0.503527
5 3 0.49336 0.50027 0.603472
8 4 0.395003 0.497852 0.805574
6 2 0.494906 0.500751 0.802274
7 4 0.59481 0.503649 0.798974
ITEM: TIMESTEP
1250
ITEM: NUMBER OF ATOMS
8
ITEM: BOX BOUNDS pp pp pp
-5.0000000000000000e+00 5.0000000000000000e+00
-5.0000000000000000e+00 5.0000000000000000e+00
-5.0000000000000000e+00 5.0000000000000000e+00
ITEM: ATOMS id type xs ys zs
4 3 0.44647 0.423549 0.468142
2 3 0.590509 0.49887 0.472794
3 3 0.452841 0.585397 0.471112
1 1 0.495842 0.50203 0.503669
5 3 0.493526 0.500287 0.603627
8 4 0.394656 0.497867 0.806248
6 2 0.494541 0.500832 0.802468
7 4 0.594425 0.503797 0.798688
ITEM: TIMESTEP
1300
ITEM: NUMBER OF ATOMS
8
ITEM: BOX BOUNDS pp pp pp
-5.0000000000000000e+00 5.0000000000000000e+00
-5.0000000000000000e+00 5.0000000000000000e+00
-5.0000000000000000e+00 5.0000000000000000e+00
ITEM: ATOMS id type xs ys zs
4 3 0.445749 0.423699 0.468377
2 3 0.590012 0.49862 0.472516
3 3 0.452576 0.585524 0.471531
1 1 0.495486 0.501998 0.503796
5 3 0.493589 0.50013 0.603761
8 4 0.394213 0.498049 0.806657
6 2 0.494089 0.500957 0.802622
7 4 0.593965 0.503865 0.798587
ITEM: TIMESTEP
1350
ITEM: NUMBER OF ATOMS
8
ITEM: BOX BOUNDS pp pp pp
-5.0000000000000000e+00 5.0000000000000000e+00
-5.0000000000000000e+00 5.0000000000000000e+00
-5.0000000000000000e+00 5.0000000000000000e+00
ITEM: ATOMS id type xs ys zs
4 3 0.444968 0.423863 0.46876
2 3 0.589441 0.498408 0.472294
3 3 0.452229 0.585669 0.471906
1 1 0.495059 0.502027 0.503978
5 3 0.493582 0.50015 0.603949
8 4 0.393734 0.498335 0.806978
6 2 0.493607 0.501131 0.80278
7 4 0.59348 0.503927 0.798581
ITEM: TIMESTEP
1400
ITEM: NUMBER OF ATOMS
8
ITEM: BOX BOUNDS pp pp pp
-5.0000000000000000e+00 5.0000000000000000e+00
-5.0000000000000000e+00 5.0000000000000000e+00
-5.0000000000000000e+00 5.0000000000000000e+00
ITEM: ATOMS id type xs ys zs
4 3 0.444037 0.424012 0.469355
2 3 0.588798 0.498035 0.472012
3 3 0.451902 0.585793 0.472368
1 1 0.494614 0.502013 0.504238
5 3 0.493708 0.500195 0.604218
8 4 0.393274 0.498575 0.807361
6 2 0.493141 0.501284 0.80296
7 4 0.593007 0.503994 0.798559
ITEM: TIMESTEP
1450
ITEM: NUMBER OF ATOMS
8
ITEM: BOX BOUNDS pp pp pp
-5.0000000000000000e+00 5.0000000000000000e+00
-5.0000000000000000e+00 5.0000000000000000e+00
-5.0000000000000000e+00 5.0000000000000000e+00
ITEM: ATOMS id type xs ys zs
4 3 0.44315 0.4241 0.470047
2 3 0.588158 0.497664 0.47174
3 3 0.451548 0.585858 0.472855
1 1 0.494188 0.501973 0.504542
5 3 0.493894 0.500253 0.604527
8 4 0.392879 0.49888 0.80777
6 2 0.492738 0.50142 0.803102
7 4 0.592597 0.503961 0.798435
ITEM: TIMESTEP
1500
ITEM: NUMBER OF ATOMS
8
ITEM: BOX BOUNDS pp pp pp
-5.0000000000000000e+00 5.0000000000000000e+00
-5.0000000000000000e+00 5.0000000000000000e+00
-5.0000000000000000e+00 5.0000000000000000e+00
ITEM: ATOMS id type xs ys zs
4 3 0.442252 0.42415 0.470849
2 3 0.587548 0.497162 0.471511
3 3 0.451283 0.58588 0.473222
1 1 0.49379 0.501908 0.504857
5 3 0.49408 0.500424 0.604845
8 4 0.392497 0.499088 0.808209
6 2 0.492346 0.501472 0.80326
7 4 0.592195 0.503856 0.798311
ITEM: TIMESTEP
1550
ITEM: NUMBER OF ATOMS
8
ITEM: BOX BOUNDS pp pp pp
-5.0000000000000000e+00 5.0000000000000000e+00
-5.0000000000000000e+00 5.0000000000000000e+00
-5.0000000000000000e+00 5.0000000000000000e+00
ITEM: ATOMS id type xs ys zs
4 3 0.441224 0.424152 0.471748
2 3 0.586821 0.496562 0.471307
3 3 0.450937 0.585851 0.473533
1 1 0.493284 0.501807 0.505193
5 3 0.494161 0.500651 0.605182
8 4 0.392123 0.499027 0.808709
6 2 0.491954 0.501421 0.803414
7 4 0.591785 0.503815 0.798119
ITEM: TIMESTEP
1600
ITEM: NUMBER OF ATOMS
8
ITEM: BOX BOUNDS pp pp pp
-5.0000000000000000e+00 5.0000000000000000e+00
-5.0000000000000000e+00 5.0000000000000000e+00
-5.0000000000000000e+00 5.0000000000000000e+00
ITEM: ATOMS id type xs ys zs
4 3 0.440184 0.42413 0.472728
2 3 0.586075 0.49593 0.471098
3 3 0.450581 0.585791 0.473975
1 1 0.49279 0.501663 0.505595
5 3 0.494336 0.500793 0.605579
8 4 0.391746 0.498786 0.809237
6 2 0.491553 0.501312 0.803567
7 4 0.59136 0.503838 0.797897
ITEM: TIMESTEP
1650
ITEM: NUMBER OF ATOMS
8
ITEM: BOX BOUNDS pp pp pp
-5.0000000000000000e+00 5.0000000000000000e+00
-5.0000000000000000e+00 5.0000000000000000e+00
-5.0000000000000000e+00 5.0000000000000000e+00
ITEM: ATOMS id type xs ys zs
4 3 0.4391 0.424142 0.473592
2 3 0.585312 0.49525 0.470822
3 3 0.45026 0.585756 0.474233
1 1 0.49227 0.501536 0.505874
5 3 0.494429 0.500991 0.60585
8 4 0.391289 0.498658 0.809862
6 2 0.491072 0.50129 0.803823
7 4 0.590855 0.503921 0.797785
ITEM: TIMESTEP
1700
ITEM: NUMBER OF ATOMS
8
ITEM: BOX BOUNDS pp pp pp
-5.0000000000000000e+00 5.0000000000000000e+00
-5.0000000000000000e+00 5.0000000000000000e+00
-5.0000000000000000e+00 5.0000000000000000e+00
ITEM: ATOMS id type xs ys zs
4 3 0.437975 0.42415 0.474377
2 3 0.584431 0.494707 0.470569
3 3 0.449735 0.585723 0.474471
1 1 0.491612 0.501442 0.506127
5 3 0.494334 0.501186 0.606089
8 4 0.390779 0.498545 0.810503
6 2 0.490537 0.501319 0.804121
7 4 0.590295 0.504093 0.797739
ITEM: TIMESTEP
1750
ITEM: NUMBER OF ATOMS
8
ITEM: BOX BOUNDS pp pp pp
-5.0000000000000000e+00 5.0000000000000000e+00
-5.0000000000000000e+00 5.0000000000000000e+00
-5.0000000000000000e+00 5.0000000000000000e+00
ITEM: ATOMS id type xs ys zs
4 3 0.436792 0.424218 0.475151
2 3 0.583463 0.494261 0.470318
3 3 0.449104 0.585749 0.474745
1 1 0.490873 0.501409 0.506387
5 3 0.494166 0.501409 0.606332
8 4 0.390248 0.498256 0.81122
6 2 0.48997 0.501221 0.804375
7 4 0.589691 0.504185 0.797531
ITEM: TIMESTEP
1800
ITEM: NUMBER OF ATOMS
8
ITEM: BOX BOUNDS pp pp pp
-5.0000000000000000e+00 5.0000000000000000e+00
-5.0000000000000000e+00 5.0000000000000000e+00
-5.0000000000000000e+00 5.0000000000000000e+00
ITEM: ATOMS id type xs ys zs
4 3 0.43554 0.424279 0.475944
2 3 0.582455 0.493724 0.469983
3 3 0.448492 0.585758 0.475041
1 1 0.490129 0.501334 0.50663
5 3 0.494069 0.501576 0.606552
8 4 0.389706 0.498035 0.812082
6 2 0.489386 0.50107 0.804698
7 4 0.589067 0.504105 0.797314
ITEM: TIMESTEP
1850
ITEM: NUMBER OF ATOMS
8
ITEM: BOX BOUNDS pp pp pp
-5.0000000000000000e+00 5.0000000000000000e+00
-5.0000000000000000e+00 5.0000000000000000e+00
-5.0000000000000000e+00 5.0000000000000000e+00
ITEM: ATOMS id type xs ys zs
4 3 0.434309 0.424289 0.476697
2 3 0.58143 0.493192 0.469639
3 3 0.447827 0.585717 0.475237
1 1 0.489356 0.501239 0.506823
5 3 0.493903 0.501761 0.606718
8 4 0.389187 0.497718 0.813031
6 2 0.48882 0.500893 0.805079
7 4 0.588452 0.504068 0.797126
ITEM: TIMESTEP
1900
ITEM: NUMBER OF ATOMS
8
ITEM: BOX BOUNDS pp pp pp
-5.0000000000000000e+00 5.0000000000000000e+00
-5.0000000000000000e+00 5.0000000000000000e+00
-5.0000000000000000e+00 5.0000000000000000e+00
ITEM: ATOMS id type xs ys zs
4 3 0.433101 0.424245 0.4774
2 3 0.580337 0.492774 0.469174
3 3 0.446994 0.585636 0.475372
1 1 0.488528 0.501151 0.506936
5 3 0.493731 0.501958 0.606797
8 4 0.388669 0.497495 0.813885
6 2 0.488261 0.500761 0.805472
7 4 0.587853 0.504028 0.79706
ITEM: TIMESTEP
1950
ITEM: NUMBER OF ATOMS
8
ITEM: BOX BOUNDS pp pp pp
-5.0000000000000000e+00 5.0000000000000000e+00
-5.0000000000000000e+00 5.0000000000000000e+00
-5.0000000000000000e+00 5.0000000000000000e+00
ITEM: ATOMS id type xs ys zs
4 3 0.431812 0.424277 0.478081
2 3 0.579151 0.492416 0.468573
3 3 0.446091 0.585627 0.47557
1 1 0.487654 0.501111 0.507014
5 3 0.493621 0.502137 0.606831
8 4 0.388052 0.497279 0.814726
6 2 0.487605 0.500555 0.805862
7 4 0.587157 0.50383 0.796999
ITEM: TIMESTEP
2000
ITEM: NUMBER OF ATOMS
8
ITEM: BOX BOUNDS pp pp pp
-5.0000000000000000e+00 5.0000000000000000e+00
-5.0000000000000000e+00 5.0000000000000000e+00
-5.0000000000000000e+00 5.0000000000000000e+00
ITEM: ATOMS id type xs ys zs
4 3 0.430426 0.424367 0.478824
2 3 0.577872 0.492067 0.467939
3 3 0.445142 0.585671 0.475888
1 1 0.486729 0.501096 0.507138
5 3 0.493546 0.50229 0.606898
8 4 0.38741 0.496936 0.815645
6 2 0.486908 0.500351 0.806236
7 4 0.586405 0.503767 0.796826
ITEM: TIMESTEP
2050
ITEM: NUMBER OF ATOMS
8
ITEM: BOX BOUNDS pp pp pp
-5.0000000000000000e+00 5.0000000000000000e+00
-5.0000000000000000e+00 5.0000000000000000e+00
-5.0000000000000000e+00 5.0000000000000000e+00
ITEM: ATOMS id type xs ys zs
4 3 0.429009 0.424482 0.47962
2 3 0.576614 0.49158 0.467261
3 3 0.444316 0.585718 0.476047
1 1 0.485845 0.501082 0.507208
5 3 0.49352 0.502562 0.606903
8 4 0.386765 0.496622 0.816651
6 2 0.486192 0.50019 0.806577
7 4 0.585619 0.503758 0.796502
ITEM: TIMESTEP
2100
ITEM: NUMBER OF ATOMS
8
ITEM: BOX BOUNDS pp pp pp
-5.0000000000000000e+00 5.0000000000000000e+00
-5.0000000000000000e+00 5.0000000000000000e+00
-5.0000000000000000e+00 5.0000000000000000e+00
ITEM: ATOMS id type xs ys zs
4 3 0.427589 0.424521 0.480508
2 3 0.575363 0.490938 0.466583
3 3 0.443539 0.585673 0.476065
1 1 0.484979 0.501005 0.507259
5 3 0.493512 0.502906 0.606876
8 4 0.386175 0.49636 0.817763
6 2 0.485524 0.500115 0.807005
7 4 0.584872 0.503871 0.796248
ITEM: TIMESTEP
2150
ITEM: NUMBER OF ATOMS
8
ITEM: BOX BOUNDS pp pp pp
-5.0000000000000000e+00 5.0000000000000000e+00
-5.0000000000000000e+00 5.0000000000000000e+00
-5.0000000000000000e+00 5.0000000000000000e+00
ITEM: ATOMS id type xs ys zs
4 3 0.426137 0.424496 0.481502
2 3 0.574006 0.490329 0.465927
3 3 0.44261 0.58557 0.476228
1 1 0.48404 0.500887 0.507396
5 3 0.493503 0.503178 0.60692
8 4 0.385625 0.496113 0.81904
6 2 0.484878 0.500033 0.807491
7 4 0.584132 0.503952 0.795941
ITEM: TIMESTEP
2200
ITEM: NUMBER OF ATOMS
8
ITEM: BOX BOUNDS pp pp pp
-5.0000000000000000e+00 5.0000000000000000e+00
-5.0000000000000000e+00 5.0000000000000000e+00
-5.0000000000000000e+00 5.0000000000000000e+00
ITEM: ATOMS id type xs ys zs
4 3 0.424546 0.424439 0.482559
2 3 0.572511 0.489603 0.465173
3 3 0.441611 0.58542 0.476414
1 1 0.483021 0.500706 0.507521
5 3 0.493521 0.503387 0.606932
8 4 0.385121 0.495601 0.820414
6 2 0.484245 0.499933 0.807938
7 4 0.583369 0.504266 0.795462
ITEM: TIMESTEP
2250
ITEM: NUMBER OF ATOMS
8
ITEM: BOX BOUNDS pp pp pp
-5.0000000000000000e+00 5.0000000000000000e+00
-5.0000000000000000e+00 5.0000000000000000e+00
-5.0000000000000000e+00 5.0000000000000000e+00
ITEM: ATOMS id type xs ys zs
4 3 0.422926 0.424445 0.483496
2 3 0.571068 0.488749 0.464493
3 3 0.440795 0.58531 0.476616
1 1 0.48204 0.500483 0.507637
5 3 0.493487 0.503459 0.606935
8 4 0.384676 0.495184 0.821691
6 2 0.483671 0.499958 0.808383
7 4 0.582667 0.504732 0.795076
ITEM: TIMESTEP
2300
ITEM: NUMBER OF ATOMS
8
ITEM: BOX BOUNDS pp pp pp
-5.0000000000000000e+00 5.0000000000000000e+00
-5.0000000000000000e+00 5.0000000000000000e+00
-5.0000000000000000e+00 5.0000000000000000e+00
ITEM: ATOMS id type xs ys zs
4 3 0.421206 0.42456 0.484414
2 3 0.569634 0.487764 0.464009
3 3 0.440132 0.58527 0.476803
1 1 0.481034 0.500272 0.507809
5 3 0.493284 0.503527 0.607002
8 4 0.384109 0.494852 0.822783
6 2 0.482989 0.499985 0.808767
7 4 0.581869 0.505118 0.79475
ITEM: TIMESTEP
2350
ITEM: NUMBER OF ATOMS
8
ITEM: BOX BOUNDS pp pp pp
-5.0000000000000000e+00 5.0000000000000000e+00
-5.0000000000000000e+00 5.0000000000000000e+00
-5.0000000000000000e+00 5.0000000000000000e+00
ITEM: ATOMS id type xs ys zs
4 3 0.419461 0.424686 0.485391
2 3 0.568144 0.486753 0.463416
3 3 0.439438 0.585222 0.476849
1 1 0.480012 0.500088 0.507911
5 3 0.493135 0.503726 0.60698
8 4 0.383499 0.494545 0.823918
6 2 0.482241 0.499945 0.809057
7 4 0.580983 0.505345 0.794196
ITEM: TIMESTEP
2400
ITEM: NUMBER OF ATOMS
8
ITEM: BOX BOUNDS pp pp pp
-5.0000000000000000e+00 5.0000000000000000e+00
-5.0000000000000000e+00 5.0000000000000000e+00
-5.0000000000000000e+00 5.0000000000000000e+00
ITEM: ATOMS id type xs ys zs
4 3 0.417878 0.424714 0.486334
2 3 0.566763 0.485723 0.46281
3 3 0.438804 0.585077 0.476854
1 1 0.479096 0.499832 0.507982
5 3 0.493079 0.503856 0.606917
8 4 0.382887 0.494348 0.825171
6 2 0.481474 0.500032 0.809413
7 4 0.580061 0.505716 0.793654
ITEM: TIMESTEP
2450
ITEM: NUMBER OF ATOMS
8
ITEM: BOX BOUNDS pp pp pp
-5.0000000000000000e+00 5.0000000000000000e+00
-5.0000000000000000e+00 5.0000000000000000e+00
-5.0000000000000000e+00 5.0000000000000000e+00
ITEM: ATOMS id type xs ys zs
4 3 0.416375 0.424739 0.487406
2 3 0.565443 0.484613 0.462193
3 3 0.438278 0.584901 0.476801
1 1 0.478282 0.499571 0.508065
5 3 0.493181 0.504074 0.606846
8 4 0.382393 0.494186 0.826247
6 2 0.480842 0.50016 0.80975
7 4 0.579291 0.506134 0.793253
ITEM: TIMESTEP
2500
ITEM: NUMBER OF ATOMS
8
ITEM: BOX BOUNDS pp pp pp
-5.0000000000000000e+00 5.0000000000000000e+00
-5.0000000000000000e+00 5.0000000000000000e+00
-5.0000000000000000e+00 5.0000000000000000e+00
ITEM: ATOMS id type xs ys zs
4 3 0.414925 0.424833 0.488347
2 3 0.564227 0.48347 0.461652
3 3 0.437925 0.584772 0.476746
1 1 0.477544 0.499307 0.508132
5 3 0.493258 0.504201 0.606768
8 4 0.381945 0.49389 0.827083
6 2 0.480282 0.500273 0.810079
7 4 0.578618 0.506656 0.793075
ITEM: TIMESTEP
2550
ITEM: NUMBER OF ATOMS
8
ITEM: BOX BOUNDS pp pp pp
-5.0000000000000000e+00 5.0000000000000000e+00
-5.0000000000000000e+00 5.0000000000000000e+00
-5.0000000000000000e+00 5.0000000000000000e+00
ITEM: ATOMS id type xs ys zs
4 3 0.413413 0.425056 0.48912
2 3 0.562996 0.482297 0.461006
3 3 0.437711 0.584749 0.4768
1 1 0.476841 0.499043 0.508143
5 3 0.493408 0.504121 0.60663
8 4 0.381419 0.493599 0.827864
6 2 0.479648 0.500403 0.810406
7 4 0.577878 0.507207 0.792949
ITEM: TIMESTEP
2600
ITEM: NUMBER OF ATOMS
8
ITEM: BOX BOUNDS pp pp pp
-5.0000000000000000e+00 5.0000000000000000e+00
-5.0000000000000000e+00 5.0000000000000000e+00
-5.0000000000000000e+00 5.0000000000000000e+00
ITEM: ATOMS id type xs ys zs
4 3 0.411833 0.425373 0.48979
2 3 0.561739 0.481043 0.460276
3 3 0.437635 0.584787 0.476928
1 1 0.476165 0.498753 0.508114
5 3 0.493628 0.50386 0.606445
8 4 0.380954 0.493243 0.828732
6 2 0.479051 0.500504 0.810723
7 4 0.577148 0.507764 0.792713
ITEM: TIMESTEP
2650
ITEM: NUMBER OF ATOMS
8
ITEM: BOX BOUNDS pp pp pp
-5.0000000000000000e+00 5.0000000000000000e+00
-5.0000000000000000e+00 5.0000000000000000e+00
-5.0000000000000000e+00 5.0000000000000000e+00
ITEM: ATOMS id type xs ys zs
4 3 0.410213 0.425689 0.490463
2 3 0.560445 0.4797 0.459559
3 3 0.437583 0.584789 0.476969
1 1 0.475464 0.498432 0.508059
5 3 0.493799 0.503604 0.606228
8 4 0.380584 0.492833 0.829609
6 2 0.478534 0.500674 0.811053
7 4 0.576484 0.508515 0.792496
ITEM: TIMESTEP
2700
ITEM: NUMBER OF ATOMS
8
ITEM: BOX BOUNDS pp pp pp
-5.0000000000000000e+00 5.0000000000000000e+00
-5.0000000000000000e+00 5.0000000000000000e+00
-5.0000000000000000e+00 5.0000000000000000e+00
ITEM: ATOMS id type xs ys zs
4 3 0.408547 0.425994 0.491081
2 3 0.559115 0.478278 0.458868
3 3 0.437544 0.584749 0.476935
1 1 0.474721 0.498068 0.507971
5 3 0.493872 0.503304 0.60598
8 4 0.380272 0.492341 0.830633
6 2 0.47802 0.500933 0.81136
7 4 0.575769 0.509525 0.792088
ITEM: TIMESTEP
2750
ITEM: NUMBER OF ATOMS
8
ITEM: BOX BOUNDS pp pp pp
-5.0000000000000000e+00 5.0000000000000000e+00
-5.0000000000000000e+00 5.0000000000000000e+00
-5.0000000000000000e+00 5.0000000000000000e+00
ITEM: ATOMS id type xs ys zs
4 3 0.40689 0.426308 0.491844
2 3 0.557792 0.476766 0.458308
3 3 0.437571 0.584672 0.476894
1 1 0.474001 0.497689 0.50797
5 3 0.493949 0.503061 0.605813
8 4 0.380031 0.491752 0.831493
6 2 0.477586 0.501139 0.811619
7 4 0.57514 0.510527 0.791744
ITEM: TIMESTEP
2800
ITEM: NUMBER OF ATOMS
8
ITEM: BOX BOUNDS pp pp pp
-5.0000000000000000e+00 5.0000000000000000e+00
-5.0000000000000000e+00 5.0000000000000000e+00
-5.0000000000000000e+00 5.0000000000000000e+00
ITEM: ATOMS id type xs ys zs
4 3 0.405333 0.426535 0.49252
2 3 0.556494 0.475371 0.457772
3 3 0.437479 0.584531 0.476781
1 1 0.473256 0.497302 0.507927
5 3 0.493926 0.502827 0.605611
8 4 0.379907 0.491051 0.832231
6 2 0.477255 0.501352 0.811808
7 4 0.574604 0.511652 0.791385
ITEM: TIMESTEP
2850
ITEM: NUMBER OF ATOMS
8
ITEM: BOX BOUNDS pp pp pp
-5.0000000000000000e+00 5.0000000000000000e+00
-5.0000000000000000e+00 5.0000000000000000e+00
-5.0000000000000000e+00 5.0000000000000000e+00
ITEM: ATOMS id type xs ys zs
4 3 0.403806 0.426763 0.493151
2 3 0.555204 0.474041 0.457296
3 3 0.437351 0.584393 0.476669
1 1 0.472493 0.496933 0.507891
5 3 0.493825 0.502592 0.605426
8 4 0.379882 0.490358 0.833027
6 2 0.477017 0.50152 0.812044
7 4 0.574151 0.512683 0.791061
ITEM: TIMESTEP
2900
ITEM: NUMBER OF ATOMS
8
ITEM: BOX BOUNDS pp pp pp
-5.0000000000000000e+00 5.0000000000000000e+00
-5.0000000000000000e+00 5.0000000000000000e+00
-5.0000000000000000e+00 5.0000000000000000e+00
ITEM: ATOMS id type xs ys zs
4 3 0.40235 0.426954 0.493731
2 3 0.553938 0.472725 0.456739
3 3 0.437253 0.584221 0.476616
1 1 0.471787 0.496516 0.507829
5 3 0.493826 0.502222 0.605203
8 4 0.379936 0.489664 0.833879
6 2 0.476846 0.501666 0.812328
7 4 0.573756 0.513668 0.790776
ITEM: TIMESTEP
2950
ITEM: NUMBER OF ATOMS
8
ITEM: BOX BOUNDS pp pp pp
-5.0000000000000000e+00 5.0000000000000000e+00
-5.0000000000000000e+00 5.0000000000000000e+00
-5.0000000000000000e+00 5.0000000000000000e+00
ITEM: ATOMS id type xs ys zs
4 3 0.400971 0.427104 0.494319
2 3 0.552623 0.471649 0.456118
3 3 0.436951 0.584071 0.476687
1 1 0.471043 0.496152 0.507783
5 3 0.493856 0.501841 0.60498
8 4 0.380037 0.489045 0.834876
6 2 0.476699 0.501775 0.812642
7 4 0.573361 0.514505 0.790408
ITEM: TIMESTEP
3000
ITEM: NUMBER OF ATOMS
8
ITEM: BOX BOUNDS pp pp pp
-5.0000000000000000e+00 5.0000000000000000e+00
-5.0000000000000000e+00 5.0000000000000000e+00
-5.0000000000000000e+00 5.0000000000000000e+00
ITEM: ATOMS id type xs ys zs
4 3 0.399614 0.427271 0.49488
2 3 0.55129 0.470606 0.455403
3 3 0.436624 0.58393 0.476652
1 1 0.470302 0.495819 0.507656
5 3 0.493919 0.501526 0.60466
8 4 0.380172 0.488327 0.836024
6 2 0.476546 0.501808 0.812995
7 4 0.57292 0.51529 0.789966
ITEM: TIMESTEP
3050
ITEM: NUMBER OF ATOMS
8
ITEM: BOX BOUNDS pp pp pp
-5.0000000000000000e+00 5.0000000000000000e+00
-5.0000000000000000e+00 5.0000000000000000e+00
-5.0000000000000000e+00 5.0000000000000000e+00
ITEM: ATOMS id type xs ys zs
4 3 0.398262 0.427352 0.495337
2 3 0.549887 0.469728 0.454641
3 3 0.436101 0.583771 0.476752
1 1 0.469475 0.495464 0.507524
5 3 0.493895 0.501059 0.604335
8 4 0.380303 0.487591 0.837124
6 2 0.476399 0.501813 0.813391
7 4 0.572495 0.516034 0.789658
ITEM: TIMESTEP
3100
ITEM: NUMBER OF ATOMS
8
ITEM: BOX BOUNDS pp pp pp
-5.0000000000000000e+00 5.0000000000000000e+00
-5.0000000000000000e+00 5.0000000000000000e+00
-5.0000000000000000e+00 5.0000000000000000e+00
ITEM: ATOMS id type xs ys zs
4 3 0.396804 0.427432 0.4958
2 3 0.548341 0.468854 0.453813
3 3 0.435496 0.583616 0.477
1 1 0.468562 0.495069 0.507415
5 3 0.493862 0.50043 0.604013