ITEM: TIMESTEP
50
ITEM: NUMBER OF ATOMS
22
ITEM: BOX BOUNDS pp pp pp
-5.0000000000000000e+00 5.0000000000000000e+00
-5.0000000000000000e+00 5.0000000000000000e+00
-5.0000000000000000e+00 5.0000000000000000e+00
ITEM: ATOMS id type xs ys zs
18 2 0.399959 0.499888 0.200013
16 1 0.499959 0.499937 0.200011
17 2 0.59996 0.499985 0.200008
32 2 0.400106 0.20011 0.500052
30 1 0.500107 0.200049 0.50007
31 2 0.600106 0.199988 0.500088
46 2 0.0500145 0.500047 0.500331
44 1 0.150014 0.500068 0.500148
45 2 0.250014 0.500089 0.499965
3 2 0.399971 0.500007 0.500099
1 1 0.499971 0.500003 0.499959
2 2 0.599971 0.5 0.499819
39 2 0.749964 0.500065 0.500187
37 1 0.849965 0.500063 0.500053
38 2 0.949965 0.50006 0.499919
4 2 0.499974 0.600003 0.499942
25 2 0.399949 0.800073 0.499994
23 1 0.49995 0.799941 0.50006
24 2 0.59995 0.799808 0.500126
11 2 0.400125 0.500011 0.800015
9 1 0.500125 0.500028 0.800027
10 2 0.600124 0.500045 0.800038
ITEM: TIMESTEP
100
ITEM: NUMBER OF ATOMS
22
ITEM: BOX BOUNDS pp pp pp
-5.0000000000000000e+00 5.0000000000000000e+00
-5.0000000000000000e+00 5.0000000000000000e+00
-5.0000000000000000e+00 5.0000000000000000e+00
ITEM: ATOMS id type xs ys zs
18 2 0.399781 0.49973 0.200067
16 1 0.49978 0.499721 0.200005
17 2 0.599781 0.499712 0.199943
32 2 0.400189 0.200045 0.500363
30 1 0.500189 0.20004 0.500182
31 2 0.600188 0.200034 0.500001
46 2 0.050022 0.500073 0.500607
44 1 0.150021 0.500162 0.500286
45 2 0.25002 0.50025 0.499964
3 2 0.400003 0.500083 0.500253
1 1 0.500003 0.500058 0.499948
2 2 0.600003 0.500033 0.499642
39 2 0.749911 0.499891 0.500435
37 1 0.84991 0.500028 0.500126
38 2 0.949909 0.500164 0.499815
4 2 0.500027 0.600058 0.499578
25 2 0.399852 0.800236 0.499946
23 1 0.499851 0.799963 0.50019
24 2 0.59985 0.79969 0.500434
11 2 0.400382 0.500086 0.800071
9 1 0.500382 0.50012 0.800042
10 2 0.600382 0.500155 0.800014
ITEM: TIMESTEP
150
ITEM: NUMBER OF ATOMS
22
ITEM: BOX BOUNDS pp pp pp
-5.0000000000000000e+00 5.0000000000000000e+00
-5.0000000000000000e+00 5.0000000000000000e+00
-5.0000000000000000e+00 5.0000000000000000e+00
ITEM: ATOMS id type xs ys zs
18 2 0.399581 0.499741 0.200386
16 1 0.499579 0.499647 0.199961
17 2 0.599578 0.499552 0.199535
32 2 0.400078 0.199968 0.500651
30 1 0.500077 0.200052 0.500229
31 2 0.600076 0.200138 0.499807
46 2 0.04999 0.500134 0.50093
44 1 0.149989 0.500352 0.500609
45 2 0.249989 0.500571 0.500289
3 2 0.400014 0.500027 0.500222
1 1 0.500014 0.50006 0.499888
2 2 0.600013 0.500094 0.499555
39 2 0.749963 0.499626 0.500801
37 1 0.849962 0.499884 0.50034
38 2 0.94996 0.500142 0.499877
4 2 0.499979 0.600059 0.499282
25 2 0.399661 0.800496 0.499853
23 1 0.499659 0.800114 0.500292
24 2 0.599657 0.799733 0.500732
11 2 0.400661 0.500037 0.80044
9 1 0.500659 0.500134 0.800095
10 2 0.600659 0.50023 0.79975
ITEM: TIMESTEP
200
ITEM: NUMBER OF ATOMS
22
ITEM: BOX BOUNDS pp pp pp
-5.0000000000000000e+00 5.0000000000000000e+00
-5.0000000000000000e+00 5.0000000000000000e+00
-5.0000000000000000e+00 5.0000000000000000e+00
ITEM: ATOMS id type xs ys zs
18 2 0.399378 0.499888 0.200923
16 1 0.499373 0.499706 0.199951
17 2 0.599367 0.499523 0.19898
32 2 0.399931 0.200233 0.500984
30 1 0.499929 0.200216 0.50029
31 2 0.599926 0.200199 0.499596
46 2 0.0499758 0.500392 0.501284
44 1 0.149975 0.500526 0.501024
45 2 0.249975 0.500661 0.500764
3 2 0.400014 0.500012 0.499908
1 1 0.500013 0.499974 0.499677
2 2 0.600013 0.499935 0.499446
39 2 0.750045 0.499301 0.50104
37 1 0.850042 0.49975 0.500521
38 2 0.950039 0.500198 0.500002
4 2 0.50005 0.59997 0.498919
25 2 0.39935 0.800911 0.499604
23 1 0.499344 0.8003 0.500363
24 2 0.59934 0.799689 0.501121
11 2 0.40091 0.500017 0.801165
9 1 0.500906 0.500126 0.800287
10 2 0.600902 0.500234 0.799409
ITEM: TIMESTEP
250
ITEM: NUMBER OF ATOMS
22
ITEM: BOX BOUNDS pp pp pp
-5.0000000000000000e+00 5.0000000000000000e+00
-5.0000000000000000e+00 5.0000000000000000e+00
-5.0000000000000000e+00 5.0000000000000000e+00
ITEM: ATOMS id type xs ys zs
18 2 0.399075 0.499982 0.201592
16 1 0.499062 0.499794 0.200017
17 2 0.59905 0.499607 0.198441
32 2 0.399785 0.20088 0.501161
30 1 0.499782 0.200659 0.500355
31 2 0.599779 0.200437 0.499548
46 2 0.0500152 0.500736 0.501624
44 1 0.150015 0.500807 0.501428
45 2 0.250014 0.500878 0.501231
3 2 0.399989 0.500145 0.499652
1 1 0.499988 0.499835 0.499502
2 2 0.599988 0.499525 0.499353
39 2 0.750143 0.49906 0.501478
37 1 0.850139 0.499704 0.500792
38 2 0.950134 0.500349 0.500106
4 2 0.500296 0.599827 0.498368
25 2 0.399028 0.801388 0.499385
23 1 0.499018 0.80049 0.500464
24 2 0.599008 0.799593 0.501544
11 2 0.401192 0.49983 0.801866
9 1 0.501182 0.500065 0.800499
10 2 0.601172 0.5003 0.799131
ITEM: TIMESTEP
300
ITEM: NUMBER OF ATOMS
22
ITEM: BOX BOUNDS pp pp pp
-5.0000000000000000e+00 5.0000000000000000e+00
-5.0000000000000000e+00 5.0000000000000000e+00
-5.0000000000000000e+00 5.0000000000000000e+00
ITEM: ATOMS id type xs ys zs
18 2 0.398584 0.499715 0.202189
16 1 0.498561 0.499737 0.200049
17 2 0.598538 0.499759 0.197909
32 2 0.399617 0.201652 0.501394
30 1 0.499614 0.201325 0.500569
31 2 0.59961 0.200999 0.499742
46 2 0.050032 0.500924 0.501916
44 1 0.150032 0.501041 0.501907
45 2 0.250031 0.501157 0.501897
3 2 0.399902 0.500176 0.499615
1 1 0.4999 0.499666 0.499424
2 2 0.599898 0.499155 0.499233
39 2 0.750378 0.498647 0.501937
37 1 0.850371 0.499578 0.501182
38 2 0.950364 0.50051 0.500426
4 2 0.500407 0.59965 0.497754
25 2 0.398665 0.801802 0.499121
23 1 0.498648 0.800742 0.500624
24 2 0.598631 0.799682 0.502126
11 2 0.401415 0.499655 0.802421
9 1 0.501398 0.499916 0.800598
10 2 0.601382 0.500178 0.798774
ITEM: TIMESTEP
350
ITEM: NUMBER OF ATOMS
22
ITEM: BOX BOUNDS pp pp pp
-5.0000000000000000e+00 5.0000000000000000e+00
-5.0000000000000000e+00 5.0000000000000000e+00
-5.0000000000000000e+00 5.0000000000000000e+00
ITEM: ATOMS id type xs ys zs
18 2 0.398081 0.499331 0.202576
16 1 0.498049 0.499681 0.200081
17 2 0.598018 0.500031 0.197586
32 2 0.39939 0.202771 0.501736
30 1 0.499385 0.202315 0.500872
31 2 0.599379 0.201858 0.50001
46 2 0.0501024 0.501061 0.502023
44 1 0.150102 0.501195 0.502286
45 2 0.250102 0.501328 0.50255
3 2 0.399784 0.500167 0.499606
1 1 0.499782 0.499468 0.499493
2 2 0.599779 0.498768 0.49938
39 2 0.750643 0.498063 0.502374
37 1 0.85063 0.499464 0.501541
38 2 0.950617 0.500866 0.500708
4 2 0.500478 0.599436 0.497087
25 2 0.398298 0.802481 0.498732
23 1 0.498269 0.801112 0.500708
24 2 0.598241 0.799743 0.502686
11 2 0.401608 0.499544 0.802787
9 1 0.501582 0.499681 0.800512
10 2 0.601556 0.499816 0.798237
ITEM: TIMESTEP
400
ITEM: NUMBER OF ATOMS
22
ITEM: BOX BOUNDS pp pp pp
-5.0000000000000000e+00 5.0000000000000000e+00
-5.0000000000000000e+00 5.0000000000000000e+00
-5.0000000000000000e+00 5.0000000000000000e+00
ITEM: ATOMS id type xs ys zs
18 2 0.397524 0.498604 0.202836
16 1 0.497483 0.499567 0.200132
17 2 0.597441 0.500529 0.197427
32 2 0.399141 0.203973 0.50194
30 1 0.499137 0.203387 0.501213
31 2 0.599132 0.202801 0.500485
46 2 0.0501527 0.50144 0.502186
44 1 0.150152 0.501384 0.502616
45 2 0.250151 0.501329 0.503046
3 2 0.399781 0.500064 0.499647
1 1 0.499779 0.499373 0.499514
2 2 0.599776 0.49868 0.499381
39 2 0.750846 0.497553 0.502815
37 1 0.850823 0.499479 0.501874
38 2 0.9508 0.501407 0.500934
4 2 0.500466 0.599324 0.496488
25 2 0.397791 0.803311 0.498431
23 1 0.497747 0.801526 0.500827
24 2 0.597702 0.799741 0.503224
11 2 0.401822 0.499525 0.803196
9 1 0.501784 0.499301 0.800441
10 2 0.601746 0.499077 0.797686
ITEM: TIMESTEP
450
ITEM: NUMBER OF ATOMS
22
ITEM: BOX BOUNDS pp pp pp
-5.0000000000000000e+00 5.0000000000000000e+00
-5.0000000000000000e+00 5.0000000000000000e+00
-5.0000000000000000e+00 5.0000000000000000e+00
ITEM: ATOMS id type xs ys zs
18 2 0.396933 0.497822 0.202846
16 1 0.496884 0.499294 0.200087
17 2 0.596836 0.500766 0.197328
32 2 0.39901 0.205276 0.50187
30 1 0.499006 0.204469 0.501508
31 2 0.599002 0.203661 0.501147
46 2 0.0502503 0.501819 0.50243
44 1 0.150249 0.501549 0.502928
45 2 0.250247 0.501278 0.503427
3 2 0.399812 0.499936 0.499727
1 1 0.49981 0.499331 0.499584
2 2 0.599807 0.498726 0.49944
39 2 0.750979 0.497221 0.503608
37 1 0.850944 0.499512 0.502287
38 2 0.950909 0.501804 0.500968
4 2 0.500408 0.599263 0.495956
25 2 0.397194 0.803947 0.498046
23 1 0.497129 0.801799 0.500928
24 2 0.597066 0.799651 0.503811
11 2 0.401858 0.499446 0.803359
9 1 0.501808 0.498884 0.800263
10 2 0.601759 0.498321 0.797167
ITEM: TIMESTEP
500
ITEM: NUMBER OF ATOMS
22
ITEM: BOX BOUNDS pp pp pp
-5.0000000000000000e+00 5.0000000000000000e+00
-5.0000000000000000e+00 5.0000000000000000e+00
-5.0000000000000000e+00 5.0000000000000000e+00
ITEM: ATOMS id type xs ys zs
18 2 0.396361 0.496628 0.203205
16 1 0.496287 0.498874 0.200093
17 2 0.596213 0.50112 0.196981
32 2 0.398967 0.206594 0.501594
30 1 0.49896 0.205516 0.501689
31 2 0.598954 0.204436 0.501784
46 2 0.0504278 0.502429 0.502766
44 1 0.150425 0.501871 0.503231
45 2 0.250423 0.501313 0.503696
3 2 0.399885 0.499796 0.499663
1 1 0.499884 0.499298 0.499678
2 2 0.599883 0.4988 0.499692
39 2 0.751092 0.497072 0.504478
37 1 0.851045 0.499631 0.502789
38 2 0.950998 0.502191 0.501101
4 2 0.500382 0.599204 0.495388
25 2 0.396385 0.804412 0.497476
23 1 0.496297 0.802062 0.500964
24 2 0.596208 0.799712 0.504453
11 2 0.401811 0.499276 0.80358
9 1 0.501747 0.498358 0.800136
10 2 0.601683 0.49744 0.796691
ITEM: TIMESTEP
550
ITEM: NUMBER OF ATOMS
22
ITEM: BOX BOUNDS pp pp pp
-5.0000000000000000e+00 5.0000000000000000e+00
-5.0000000000000000e+00 5.0000000000000000e+00
-5.0000000000000000e+00 5.0000000000000000e+00
ITEM: ATOMS id type xs ys zs
18 2 0.395892 0.495476 0.203766
16 1 0.495783 0.498495 0.200176
17 2 0.595673 0.501514 0.196586
32 2 0.398925 0.208125 0.501052
30 1 0.498912 0.206645 0.50172
31 2 0.598899 0.205165 0.502389
46 2 0.0505496 0.503052 0.503211
44 1 0.150543 0.502072 0.503707
45 2 0.250538 0.501091 0.504203
3 2 0.399852 0.49963 0.499766
1 1 0.499852 0.499271 0.499824
2 2 0.599851 0.498911 0.499882
39 2 0.751165 0.49674 0.505192
37 1 0.8511 0.499754 0.503252
38 2 0.951036 0.502768 0.501311
4 2 0.500214 0.599143 0.494793
25 2 0.395622 0.804967 0.497108
23 1 0.495512 0.80235 0.501002
24 2 0.595401 0.799734 0.504897
11 2 0.401912 0.499282 0.804016
9 1 0.501825 0.497625 0.800194
10 2 0.601738 0.495968 0.796371
ITEM: TIMESTEP
600
ITEM: NUMBER OF ATOMS
22
ITEM: BOX BOUNDS pp pp pp
-5.0000000000000000e+00 5.0000000000000000e+00
-5.0000000000000000e+00 5.0000000000000000e+00
-5.0000000000000000e+00 5.0000000000000000e+00
ITEM: ATOMS id type xs ys zs
18 2 0.395531 0.494198 0.204411
16 1 0.495371 0.498115 0.20035
17 2 0.595212 0.502033 0.196291
32 2 0.398809 0.209588 0.500369
30 1 0.498785 0.207757 0.501591
31 2 0.59876 0.205926 0.502814
46 2 0.0506986 0.503699 0.503753
44 1 0.150686 0.502188 0.504235
45 2 0.250673 0.500678 0.504719
3 2 0.39975 0.499368 0.500061
1 1 0.49975 0.499248 0.499906
2 2 0.59975 0.499126 0.499751
39 2 0.751265 0.495916 0.505849
37 1 0.851173 0.499685 0.5038
38 2 0.951081 0.503455 0.501751
4 2 0.499862 0.599095 0.494383
25 2 0.39481 0.805865 0.496653
23 1 0.494668 0.802767 0.501001
24 2 0.594525 0.799668 0.505349
11 2 0.401862 0.499027 0.80479
9 1 0.501744 0.496761 0.800494
10 2 0.601625 0.494495 0.796197
ITEM: TIMESTEP
650
ITEM: NUMBER OF ATOMS
22
ITEM: BOX BOUNDS pp pp pp
-5.0000000000000000e+00 5.0000000000000000e+00
-5.0000000000000000e+00 5.0000000000000000e+00
-5.0000000000000000e+00 5.0000000000000000e+00
ITEM: ATOMS id type xs ys zs
18 2 0.395145 0.493017 0.205278
16 1 0.494916 0.497861 0.200562
17 2 0.594688 0.502705 0.195846
32 2 0.398788 0.211034 0.499646
30 1 0.498749 0.208833 0.501412
31 2 0.598709 0.206633 0.503177
46 2 0.0508314 0.5043 0.504212
44 1 0.150813 0.502435 0.504654
45 2 0.250794 0.500571 0.505096
3 2 0.399372 0.499222 0.500685
1 1 0.49937 0.499257 0.500074
2 2 0.599368 0.49929 0.499463
39 2 0.751292 0.494843 0.506418
37 1 0.851163 0.499505 0.504386
38 2 0.951033 0.504166 0.502354
4 2 0.4993 0.599077 0.494082
25 2 0.393963 0.806914 0.495857
23 1 0.493766 0.803217 0.500921
24 2 0.593569 0.799521 0.505984
11 2 0.401602 0.498611 0.805832
9 1 0.50144 0.495889 0.800831
10 2 0.601278 0.493165 0.795832
ITEM: TIMESTEP
700
ITEM: NUMBER OF ATOMS
22
ITEM: BOX BOUNDS pp pp pp
-5.0000000000000000e+00 5.0000000000000000e+00
-5.0000000000000000e+00 5.0000000000000000e+00
-5.0000000000000000e+00 5.0000000000000000e+00
ITEM: ATOMS id type xs ys zs
18 2 0.394758 0.492115 0.206342
16 1 0.494447 0.497766 0.200849
17 2 0.594136 0.503419 0.195356
32 2 0.398704 0.212308 0.498749
30 1 0.498647 0.209797 0.501001
31 2 0.598591 0.207287 0.503253
46 2 0.0509854 0.504861 0.504368
44 1 0.15096 0.502671 0.505005
45 2 0.250934 0.500482 0.505642
3 2 0.398802 0.499251 0.501403
1 1 0.498796 0.49933 0.500344
2 2 0.59879 0.499408 0.499285
39 2 0.751358 0.493613 0.507276
37 1 0.851174 0.499219 0.504997
38 2 0.95099 0.504826 0.502716
4 2 0.498646 0.599099 0.493546
25 2 0.393051 0.808102 0.494999
23 1 0.492782 0.803578 0.500777
24 2 0.592511 0.799053 0.506555
11 2 0.401375 0.498388 0.807131
9 1 0.501146 0.495009 0.801267
10 2 0.600916 0.49163 0.795402
ITEM: TIMESTEP
750
ITEM: NUMBER OF ATOMS
22
ITEM: BOX BOUNDS pp pp pp
-5.0000000000000000e+00 5.0000000000000000e+00
-5.0000000000000000e+00 5.0000000000000000e+00
-5.0000000000000000e+00 5.0000000000000000e+00
ITEM: ATOMS id type xs ys zs
18 2 0.394274 0.491286 0.207372
16 1 0.493871 0.497789 0.201196
17 2 0.593468 0.504291 0.19502
32 2 0.398581 0.213659 0.497872
30 1 0.498508 0.210795 0.500434
31 2 0.598434 0.20793 0.502996
46 2 0.0510809 0.505497 0.504553
44 1 0.151042 0.50282 0.505262
45 2 0.251004 0.500142 0.50597
3 2 0.398113 0.499296 0.502185
1 1 0.498101 0.499482 0.500627
2 2 0.598088 0.499669 0.499069
39 2 0.751538 0.492292 0.508235
37 1 0.851284 0.498912 0.505597
38 2 0.95103 0.50553 0.50296
4 2 0.497794 0.599183 0.492909
25 2 0.392088 0.80957 0.494056
23 1 0.491714 0.803967 0.500637
24 2 0.59134 0.798363 0.507218
11 2 0.40111 0.498043 0.80838
9 1 0.500811 0.494087 0.801756
10 2 0.600513 0.490131 0.795133
ITEM: TIMESTEP
800
ITEM: NUMBER OF ATOMS
22
ITEM: BOX BOUNDS pp pp pp
-5.0000000000000000e+00 5.0000000000000000e+00
-5.0000000000000000e+00 5.0000000000000000e+00
-5.0000000000000000e+00 5.0000000000000000e+00
ITEM: ATOMS id type xs ys zs
18 2 0.393784 0.490462 0.208252
16 1 0.493294 0.497738 0.201549
17 2 0.592803 0.505014 0.194847
32 2 0.398334 0.21523 0.497217
30 1 0.498241 0.211864 0.499912
31 2 0.598147 0.208499 0.502608
46 2 0.0513045 0.506072 0.504693
44 1 0.151254 0.502981 0.505456
45 2 0.251203 0.499889 0.50622
3 2 0.397387 0.499331 0.503008
1 1 0.497366 0.49959 0.501024
2 2 0.597346 0.499848 0.49904
39 2 0.751719 0.49112 0.509001
37 1 0.851397 0.498647 0.506223
38 2 0.951075 0.506173 0.503445
4 2 0.496936 0.599206 0.492292
25 2 0.391243 0.810967 0.493169
23 1 0.49075 0.804304 0.500505
24 2 0.590257 0.797639 0.50784
11 2 0.400792 0.497754 0.809685
9 1 0.500411 0.493111 0.802308
10 2 0.600031 0.488467 0.79493
ITEM: TIMESTEP
850
ITEM: NUMBER OF ATOMS
22
ITEM: BOX BOUNDS pp pp pp
-5.0000000000000000e+00 5.0000000000000000e+00
-5.0000000000000000e+00 5.0000000000000000e+00
-5.0000000000000000e+00 5.0000000000000000e+00
ITEM: ATOMS id type xs ys zs
18 2 0.393301 0.489649 0.209163
16 1 0.492704 0.497777 0.201884
17 2 0.592107 0.505904 0.194605
32 2 0.398062 0.216714 0.496526
30 1 0.497944 0.212886 0.499494
31 2 0.597827 0.209059 0.502462
46 2 0.0516506 0.506651 0.504418
44 1 0.151582 0.503135 0.505525
45 2 0.251515 0.499621 0.506632
3 2 0.396692 0.499078 0.503697
1 1 0.496663 0.499679 0.501339
2 2 0.596633 0.500279 0.498982
39 2 0.75181 0.490101 0.509576
37 1 0.851426 0.498368 0.506681
38 2 0.951042 0.506635 0.503787
4 2 0.495843 0.599232 0.491931
25 2 0.39052 0.812465 0.492352
23 1 0.48989 0.804683 0.500424
24 2 0.589259 0.7969 0.508496
11 2 0.400411 0.497309 0.811097
9 1 0.499937 0.491987 0.80295
10 2 0.599462 0.486665 0.794805
ITEM: TIMESTEP
900
ITEM: NUMBER OF ATOMS
22
ITEM: BOX BOUNDS pp pp pp
-5.0000000000000000e+00 5.0000000000000000e+00
-5.0000000000000000e+00 5.0000000000000000e+00
-5.0000000000000000e+00 5.0000000000000000e+00
ITEM: ATOMS id type xs ys zs
18 2 0.392836 0.4888 0.210112
16 1 0.492113 0.49792 0.202305
17 2 0.591391 0.50704 0.194499
32 2 0.397921 0.218064 0.495621
30 1 0.497774 0.213895 0.49908
31 2 0.597628 0.209727 0.502537
46 2 0.0519615 0.507354 0.503869
44 1 0.151869 0.503346 0.505438
45 2 0.251776 0.499339 0.507005
3 2 0.39605 0.498404 0.504341
1 1 0.496003 0.499623 0.501526
2 2 0.595956 0.50084 0.498711
39 2 0.751928 0.48921 0.510159
37 1 0.851485 0.498109 0.507136
38 2 0.951042 0.507009 0.504115
4 2 0.494507 0.599105 0.491479
25 2 0.389934 0.813856 0.491636
23 1 0.489168 0.805106 0.500356
24 2 0.588403 0.796356 0.509078
11 2 0.400047 0.496678 0.812523
9 1 0.49948 0.490857 0.803616
10 2 0.598912 0.485036 0.79471
ITEM: TIMESTEP
950
ITEM: NUMBER OF ATOMS
22
ITEM: BOX BOUNDS pp pp pp
-5.0000000000000000e+00 5.0000000000000000e+00
-5.0000000000000000e+00 5.0000000000000000e+00
-5.0000000000000000e+00 5.0000000000000000e+00
ITEM: ATOMS id type xs ys zs
18 2 0.392364 0.487925 0.210967
16 1 0.491517 0.49803 0.202807
17 2 0.59067 0.508134 0.194647
32 2 0.397816 0.219022 0.494661
30 1 0.497651 0.214884 0.498636
31 2 0.597486 0.210747 0.502612
46 2 0.0523375 0.508385 0.503181
44 1 0.152204 0.503658 0.505236
45 2 0.252071 0.498931 0.507291
3 2 0.395433 0.497681 0.504702
1 1 0.495369 0.499569 0.501621
2 2 0.595304 0.501455 0.498539
39 2 0.75213 0.488375 0.510593
37 1 0.851627 0.497928 0.507592
38 2 0.951124 0.507482 0.50459
4 2 0.49317 0.599002 0.491212
25 2 0.389532 0.815005 0.490914
23 1 0.488633 0.805343 0.500171
24 2 0.587734 0.795679 0.509428
11 2 0.399737 0.496086 0.81377
9 1 0.49908 0.489722 0.804243
10 2 0.598421 0.483359 0.794717
ITEM: TIMESTEP
1000
ITEM: NUMBER OF ATOMS
22
ITEM: BOX BOUNDS pp pp pp
-5.0000000000000000e+00 5.0000000000000000e+00
-5.0000000000000000e+00 5.0000000000000000e+00
-5.0000000000000000e+00 5.0000000000000000e+00
ITEM: ATOMS id type xs ys zs
18 2 0.391829 0.486918 0.211865
16 1 0.490844 0.498055 0.203376
17 2 0.589859 0.509192 0.194888
32 2 0.397691 0.220033 0.49358
30 1 0.49751 0.215948 0.49799
31 2 0.597329 0.211863 0.502402
46 2 0.0526873 0.509386 0.502545
44 1 0.152507 0.503978 0.505133
45 2 0.252327 0.49857 0.507719
3 2 0.394901 0.496951 0.504791
1 1 0.494819 0.499529 0.501689
2 2 0.594737 0.502109 0.498587
39 2 0.752522 0.487494 0.511115
37 1 0.851946 0.497746 0.507973
38 2 0.951369 0.507997 0.50483
4 2 0.491924 0.598921 0.491066
25 2 0.389118 0.81608 0.490239
23 1 0.488082 0.805557 0.500001
24 2 0.587047 0.795034 0.509762
11 2 0.399395 0.495509 0.815036
9 1 0.498627 0.488571 0.804787
10 2 0.597857 0.481633 0.794539
ITEM: TIMESTEP
1050
ITEM: NUMBER OF ATOMS
22
ITEM: BOX BOUNDS pp pp pp
-5.0000000000000000e+00 5.0000000000000000e+00
-5.0000000000000000e+00 5.0000000000000000e+00
-5.0000000000000000e+00 5.0000000000000000e+00
ITEM: ATOMS id type xs ys zs
18 2 0.391275 0.485828 0.212702
16 1 0.490141 0.49814 0.2041
17 2 0.589007 0.510451 0.195497
32 2 0.397618 0.220945 0.492562
30 1 0.497425 0.216954 0.497293
31 2 0.597234 0.212964 0.502023
46 2 0.0530242 0.510299 0.501998
44 1 0.152795 0.50424 0.505024
45 2 0.252565 0.498181 0.50805
3 2 0.394425 0.496143 0.504741
1 1 0.494327 0.499541 0.501904
2 2 0.594229 0.502939 0.499066
39 2 0.752964 0.486874 0.511489
37 1 0.852336 0.497568 0.508216
38 2 0.951709 0.508261 0.504943
4 2 0.490635 0.598862 0.490882
25 2 0.388759 0.817064 0.489244
23 1 0.48756 0.805748 0.499744
24 2 0.586361 0.794432 0.510245
11 2 0.399187 0.494659 0.816421
9 1 0.49829 0.487366 0.805226
10 2 0.597394 0.480074 0.794032
ITEM: TIMESTEP
1100
ITEM: NUMBER OF ATOMS
22
ITEM: BOX BOUNDS pp pp pp
-5.0000000000000000e+00 5.0000000000000000e+00
-5.0000000000000000e+00 5.0000000000000000e+00
-5.0000000000000000e+00 5.0000000000000000e+00
ITEM: ATOMS id type xs ys zs
18 2 0.390754 0.484867 0.213358
16 1 0.489457 0.498424 0.204762
17 2 0.58816 0.51198 0.196164
32 2 0.397685 0.22156 0.491435
30 1 0.49748 0.217847 0.496642
31 2 0.597275 0.214135 0.50185
46 2 0.0533838 0.511292 0.501461
44 1 0.153087 0.504413 0.504934
45 2 0.25279 0.497534 0.508408
3 2 0.393918 0.495141 0.50482
1 1 0.493792 0.49948 0.502295
2 2 0.593666 0.50382 0.499771
39 2 0.753459 0.486384 0.511645
37 1 0.852798 0.497374 0.50835
38 2 0.952138 0.508363 0.505055
4 2 0.489185 0.598678 0.49053
25 2 0.388347 0.81802 0.488509
23 1 0.486998 0.80596 0.499587
24 2 0.585648 0.7939 0.510665
11 2 0.39896 0.493573 0.817676
9 1 0.49795 0.486211 0.80557
10 2 0.596942 0.478848 0.793464
ITEM: TIMESTEP
1150
ITEM: NUMBER OF ATOMS
22
ITEM: BOX BOUNDS pp pp pp
-5.0000000000000000e+00 5.0000000000000000e+00
-5.0000000000000000e+00 5.0000000000000000e+00
-5.0000000000000000e+00 5.0000000000000000e+00
ITEM: ATOMS id type xs ys zs
18 2 0.390319 0.484003 0.214051
16 1 0.488854 0.498733 0.205455
17 2 0.587389 0.513463 0.196858
32 2 0.397733 0.222044 0.490122
30 1 0.49751 0.218694 0.495892
31 2 0.597288 0.215344 0.501662
46 2 0.053769 0.512503 0.501004
44 1 0.15337 0.504524 0.504987
45 2 0.252972 0.496544 0.508968
3 2 0.393423 0.494045 0.505061
1 1 0.493253 0.499403 0.502791
2 2 0.593084 0.50476 0.500521
39 2 0.753986 0.48588 0.511709
37 1 0.853306 0.497049 0.508435
38 2 0.952626 0.508218 0.505162
4 2 0.487653 0.598454 0.490239
25 2 0.387892 0.819073 0.487788
23 1 0.486391 0.806284 0.49938
24 2 0.58489 0.793495 0.510973
11 2 0.398704 0.492434 0.818879
9 1 0.497592 0.485078 0.805955
10 2 0.59648 0.477721 0.79303
ITEM: TIMESTEP
1200
ITEM: NUMBER OF ATOMS
22
ITEM: BOX BOUNDS pp pp pp
-5.0000000000000000e+00 5.0000000000000000e+00
-5.0000000000000000e+00 5.0000000000000000e+00
-5.0000000000000000e+00 5.0000000000000000e+00
ITEM: ATOMS id type xs ys zs
18 2 0.390194 0.483021 0.214828
16 1 0.488534 0.498957 0.206152
17 2 0.586875 0.514892 0.197477
32 2 0.397849 0.222552 0.488842
30 1 0.497602 0.219586 0.495196
31 2 0.597356 0.21662 0.50155
46 2 0.0540591 0.513842 0.500652
44 1 0.153546 0.504724 0.505035
45 2 0.253033 0.495607 0.509418
3 2 0.392895 0.493121 0.505245
1 1 0.492672 0.49948 0.503178
2 2 0.592448 0.505839 0.501112
39 2 0.754453 0.485175 0.511783
37 1 0.853745 0.496577 0.508459
38 2 0.953037 0.50798 0.505135
4 2 0.486095 0.59839 0.490006
25 2 0.38748 0.819896 0.487005
23 1 0.485828 0.806535 0.499211
24 2 0.584177 0.793174 0.511418
11 2 0.398603 0.491314 0.820138
9 1 0.497374 0.484043 0.806308
10 2 0.596146 0.476772 0.792478
ITEM: TIMESTEP
1250
ITEM: NUMBER OF ATOMS
22
ITEM: BOX BOUNDS pp pp pp
-5.0000000000000000e+00 5.0000000000000000e+00
-5.0000000000000000e+00 5.0000000000000000e+00
-5.0000000000000000e+00 5.0000000000000000e+00
ITEM: ATOMS id type xs ys zs
18 2 0.390213 0.481893 0.215455
16 1 0.488325 0.499164 0.206754
17 2 0.586438 0.516434 0.198053
32 2 0.397937 0.223159 0.487576
30 1 0.497657 0.220562 0.494601
31 2 0.597376 0.217964 0.501626
46 2 0.0543396 0.515123 0.499992
44 1 0.153684 0.504889 0.505091
45 2 0.253028 0.494655 0.510189
3 2 0.392272 0.492405 0.505432
1 1 0.491993 0.499616 0.503531
2 2 0.591714 0.506827 0.501631
39 2 0.755022 0.484288 0.511945
37 1 0.854277 0.495986 0.508571
38 2 0.953534 0.507682 0.505198
4 2 0.484588 0.598381 0.489724
25 2 0.38712 0.82059 0.486103
23 1 0.485299 0.806805 0.499168
24 2 0.583479 0.79302 0.512233
11 2 0.398398 0.490162 0.821496
9 1 0.497024 0.482889 0.806664
10 2 0.59565 0.475615 0.791832
ITEM: TIMESTEP
1300
ITEM: NUMBER OF ATOMS
22
ITEM: BOX BOUNDS pp pp pp
-5.0000000000000000e+00 5.0000000000000000e+00
-5.0000000000000000e+00 5.0000000000000000e+00
-5.0000000000000000e+00 5.0000000000000000e+00
ITEM: ATOMS id type xs ys zs
17 2 0.585905 0.518015 0.198787
18 2 0.390156 0.48074 0.215906
16 1 0.48803 0.499377 0.207346
32 2 0.397898 0.223833 0.486358
30 1 0.497588 0.221707 0.493938
46 2 0.054617 0.516253 0.49941
4 2 0.483127 0.598321 0.489906
25 2 0.386797 0.82137 0.484976
23 1 0.484763 0.80707 0.499053
31 2 0.597278 0.219581 0.501517
45 2 0.253025 0.493774 0.510774
3 2 0.391677 0.4916 0.505643
1 1 0.491338 0.499652 0.50394
39 2 0.755559 0.483171 0.512134
37 1 0.854754 0.495361 0.508725
44 1 0.153821 0.505013 0.505092
2 2 0.590999 0.507703 0.502236
38 2 0.953949 0.507551 0.505317
24 2 0.582729 0.79277 0.51313
10 2 0.595096 0.474507 0.790978
11 2 0.398197 0.489113 0.822871
9 1 0.496647 0.48181 0.806925
ITEM: TIMESTEP
1350
ITEM: NUMBER OF ATOMS
22
ITEM: BOX BOUNDS pp pp pp
-5.0000000000000000e+00 5.0000000000000000e+00
-5.0000000000000000e+00 5.0000000000000000e+00
-5.0000000000000000e+00 5.0000000000000000e+00
ITEM: ATOMS id type xs ys zs
17 2 0.585348 0.519515 0.199524
18 2 0.390085 0.47962 0.216269
16 1 0.487716 0.499568 0.207897
32 2 0.397821 0.224374 0.485122
30 1 0.497479 0.222951 0.493266
46 2 0.0549158 0.517462 0.498957
4 2 0.481697 0.598281 0.490055
25 2 0.386602 0.822284 0.483669
23 1 0.484299 0.807394 0.498954
31 2 0.597136 0.221528 0.50141
45 2 0.252971 0.492596 0.511448
3 2 0.39107 0.490874 0.505882
1 1 0.490667 0.499709 0.504307
39 2 0.756109 0.482114 0.512019
37 1 0.855247 0.494774 0.508639
44 1 0.153943 0.505029 0.505203
2 2 0.590263 0.508544 0.502731
38 2 0.954384 0.507434 0.505258
24 2 0.581996 0.792502 0.51424
10 2 0.594356 0.473452 0.790107
11 2 0.397843 0.488232 0.824224
9 1 0.496099 0.480842 0.807165
ITEM: TIMESTEP
1400
ITEM: NUMBER OF ATOMS
22
ITEM: BOX BOUNDS pp pp pp
-5.0000000000000000e+00 5.0000000000000000e+00
-5.0000000000000000e+00 5.0000000000000000e+00
-5.0000000000000000e+00 5.0000000000000000e+00
ITEM: ATOMS id type xs ys zs
17 2 0.584832 0.520848 0.200195
18 2 0.390083 0.478393 0.216651
16 1 0.487457 0.499622 0.208423
32 2 0.397802 0.225042 0.483938
30 1 0.497432 0.224278 0.492492
46 2 0.0550115 0.5188 0.498405
4 2 0.480444 0.598292 0.490354
25 2 0.386419 0.822979 0.482167
23 1 0.4838 0.80756 0.498876
31 2 0.597063 0.223515 0.501047
45 2 0.252603 0.49109 0.512171
3 2 0.390442 0.490339 0.506026
1 1 0.489985 0.499791 0.504719
39 2 0.756816 0.481299 0.511854
37 1 0.855916 0.494231 0.508393
44 1 0.153808 0.504945 0.505289
2 2 0.589529 0.509243 0.503412
38 2 0.955015 0.507163 0.504931
24 2 0.581181 0.79214 0.515586
10 2 0.593659 0.472319 0.789316
11 2 0.397535 0.487266 0.825542
9 1 0.495597 0.479793 0.807429
ITEM: TIMESTEP
1450
ITEM: NUMBER OF ATOMS
22
ITEM: BOX BOUNDS pp pp pp
-5.0000000000000000e+00 5.0000000000000000e+00
-5.0000000000000000e+00 5.0000000000000000e+00
-5.0000000000000000e+00 5.0000000000000000e+00
ITEM: ATOMS id type xs ys zs
17 2 0.584286 0.522169 0.201044
18 2 0.390075 0.47708 0.216817
16 1 0.48718 0.499625 0.20893
32 2 0.397725 0.225815 0.482641
30 1 0.49731 0.225567 0.491738
46 2 0.0552343 0.52025 0.497805
4 2 0.479218 0.598468 0.490803
25 2 0.386257 0.823697 0.48058
23 1 0.483267 0.80765 0.498782
31 2 0.596895 0.225318 0.500834
45 2 0.25227 0.489574 0.513166
3 2 0.389807 0.489953 0.505976
1 1 0.489296 0.500006 0.505079
39 2 0.757546 0.480434 0.511819
37 1 0.856599 0.493679 0.508171
44 1 0.153752 0.504912 0.505485
2 2 0.588785 0.510059 0.504183
38 2 0.955651 0.506923 0.504525
24 2 0.580279 0.791602 0.516985
10 2 0.592993 0.471121 0.788626
11 2 0.39723 0.486412 0.826611
9 1 0.495111 0.478767 0.807618
ITEM: TIMESTEP
1500
ITEM: NUMBER OF ATOMS
22
ITEM: BOX BOUNDS pp pp pp
-5.0000000000000000e+00 5.0000000000000000e+00
-5.0000000000000000e+00 5.0000000000000000e+00
-5.0000000000000000e+00 5.0000000000000000e+00
ITEM: ATOMS id type xs ys zs
17 2 0.583665 0.523314 0.202142
18 2 0.390011 0.475536 0.216829
16 1 0.486837 0.499424 0.209486
32 2 0.397629 0.226581 0.481203
30 1 0.497171 0.226859 0.490748
46 2 0.0554882 0.521757 0.497322
4 2 0.477906 0.598744 0.491154
25 2 0.386227 0.824412 0.47862
23 1 0.482808 0.807673 0.498415
31 2 0.596714 0.227137 0.500293
45 2 0.251904 0.488059 0.51421
3 2 0.389127 0.489661 0.505946
1 1 0.488553 0.500334 0.505369
39 2 0.758282 0.479534 0.511589
37 1 0.857289 0.493105 0.507908
44 1 0.153696 0.504909 0.505766
2 2 0.587981 0.511008 0.504791
38 2 0.956295 0.506675 0.504227
24 2 0.57939 0.790934 0.518209
10 2 0.592217 0.46964 0.787807
11 2 0.396885 0.485749 0.827627
9 1 0.494551 0.477695 0.807717
ITEM: TIMESTEP
1550
ITEM: NUMBER OF ATOMS
22
ITEM: BOX BOUNDS pp pp pp
-5.0000000000000000e+00 5.0000000000000000e+00
-5.0000000000000000e+00 5.0000000000000000e+00
-5.0000000000000000e+00 5.0000000000000000e+00
ITEM: ATOMS id type xs ys zs
17 2 0.583104 0.524593 0.203524
18 2 0.390073 0.473975 0.216808
16 1 0.486589 0.499284 0.210167
32 2 0.397483 0.227317 0.479697
30 1 0.496982 0.228138 0.489663
46 2 0.0557295 0.523253 0.496543
4 2 0.476582 0.599033 0.491675
25 2 0.386251 0.824965 0.47668
23 1 0.482407 0.807528 0.49789
31 2 0.59648 0.228959 0.499627
45 2 0.251424 0.486508 0.515339
3 2 0.388346 0.489435 0.505908
1 1 0.487716 0.500638 0.50562
39 2 0.758844 0.478727 0.511248
37 1 0.857801 0.492668 0.507637
44 1 0.153576 0.504881 0.50594
2 2 0.587085 0.51184 0.505332
38 2 0.956758 0.50661 0.504026
24 2 0.578564 0.790092 0.5191
10 2 0.591587 0.468209 0.786891
11 2 0.39668 0.485294 0.82836
9 1 0.494133 0.476752 0.807625
ITEM: TIMESTEP
1600
ITEM: NUMBER OF ATOMS
22
ITEM: BOX BOUNDS pp pp pp
-5.0000000000000000e+00 5.0000000000000000e+00
-5.0000000000000000e+00 5.0000000000000000e+00
-5.0000000000000000e+00 5.0000000000000000e+00
ITEM: ATOMS id type xs ys zs
17 2 0.582497 0.526048 0.204941
18 2 0.390174 0.472455 0.216769
16 1 0.486335 0.499252 0.210855
32 2 0.397547 0.227897 0.477811
30 1 0.496959 0.229335 0.488544
46 2 0.0561015 0.524808 0.495552
4 2 0.475217 0.599233 0.492448
25 2 0.386349 0.825563 0.474772
23 1 0.482058 0.807396 0.497351
31 2 0.59637 0.230774 0.499276
45 2 0.250952 0.484865 0.516481
3 2 0.387614 0.489013 0.505765
1 1 0.486915 0.500824 0.505825
39 2 0.759285 0.477883 0.510808
37 1 0.858183 0.492284 0.50738
44 1 0.153527 0.504836 0.506016
2 2 0.586215 0.512635 0.505884
38 2 0.957082 0.506684 0.503953
24 2 0.577766 0.78923 0.51993
10 2 0.591136 0.466623 0.786275
11 2 0.396606 0.485229 0.828839
9 1 0.493871 0.475927 0.807557
ITEM: TIMESTEP
1650
ITEM: NUMBER OF ATOMS
22
ITEM: BOX BOUNDS pp pp pp
-5.0000000000000000e+00 5.0000000000000000e+00