ITEM: TIMESTEP
50
ITEM: NUMBER OF ATOMS
23
ITEM: BOX BOUNDS pp pp pp
-5.0000000000000000e+00 5.0000000000000000e+00
-5.0000000000000000e+00 5.0000000000000000e+00
-5.0000000000000000e+00 5.0000000000000000e+00
ITEM: ATOMS id type xs ys zs
19 4 0.400102 0.500136 0.200126
17 2 0.500102 0.500004 0.200156
18 4 0.600102 0.499873 0.200186
33 4 0.400006 0.200282 0.500215
31 2 0.500006 0.200139 0.500122
32 4 0.600006 0.199996 0.50003
5 3 0.500079 0.399991 0.500017
47 4 0.0498916 0.499948 0.500013
45 2 0.149892 0.500011 0.500001
46 4 0.249892 0.500076 0.499989
3 3 0.40002 0.499932 0.500125
1 1 0.50002 0.499991 0.499996
2 3 0.60002 0.500052 0.499867
38 2 0.849994 0.499948 0.500008
40 4 0.749993 0.499937 0.500076
39 4 0.949994 0.499959 0.499939
4 3 0.499961 0.599992 0.499974
26 4 0.399952 0.800263 0.4998
24 2 0.499952 0.800108 0.499944
25 4 0.599951 0.799952 0.500089
12 4 0.400015 0.500019 0.800063
10 2 0.500014 0.499915 0.800034
11 4 0.600014 0.499811 0.800005
ITEM: TIMESTEP
100
ITEM: NUMBER OF ATOMS
23
ITEM: BOX BOUNDS pp pp pp
-5.0000000000000000e+00 5.0000000000000000e+00
-5.0000000000000000e+00 5.0000000000000000e+00
-5.0000000000000000e+00 5.0000000000000000e+00
ITEM: ATOMS id type xs ys zs
19 4 0.400326 0.500032 0.20033
17 2 0.500326 0.499811 0.200472
18 4 0.600325 0.499591 0.200615
33 4 0.400027 0.200772 0.500388
31 2 0.500026 0.200388 0.500254
32 4 0.600025 0.200005 0.500122
5 3 0.499983 0.399895 0.500078
47 4 0.0495746 0.49988 0.499971
45 2 0.149574 0.500071 0.499927
46 4 0.249575 0.500262 0.499883
3 3 0.400025 0.499938 0.500251
1 1 0.500025 0.499895 0.499968
2 3 0.600025 0.499853 0.499685
38 2 0.850054 0.500009 0.500072
40 4 0.750055 0.499724 0.500114
39 4 0.950055 0.500295 0.50003
4 3 0.500067 0.599895 0.499858
26 4 0.39978 0.800622 0.499291
24 2 0.499778 0.800319 0.499847
25 4 0.599777 0.800016 0.500404
12 4 0.400105 0.500046 0.800037
10 2 0.500104 0.499713 0.80007
11 4 0.600104 0.499381 0.800104
ITEM: TIMESTEP
150
ITEM: NUMBER OF ATOMS
23
ITEM: BOX BOUNDS pp pp pp
-5.0000000000000000e+00 5.0000000000000000e+00
-5.0000000000000000e+00 5.0000000000000000e+00
-5.0000000000000000e+00 5.0000000000000000e+00
ITEM: ATOMS id type xs ys zs
19 4 0.400494 0.499799 0.200575
17 2 0.500493 0.499567 0.200989
18 4 0.600491 0.499335 0.201403
33 4 0.400076 0.201213 0.500516
31 2 0.500074 0.200599 0.500315
32 4 0.600071 0.199984 0.500115
5 3 0.499893 0.399814 0.500245
47 4 0.0489332 0.500063 0.499855
45 2 0.148934 0.50021 0.499772
46 4 0.248934 0.500355 0.49969
3 3 0.400017 0.499936 0.500663
1 1 0.500015 0.499814 0.500041
2 3 0.600013 0.499692 0.499418
38 2 0.850154 0.500083 0.500026
40 4 0.750155 0.499614 0.499855
39 4 0.950153 0.500552 0.500197
4 3 0.500136 0.599813 0.499838
26 4 0.399624 0.80109 0.498704
24 2 0.499616 0.80059 0.499795
25 4 0.59961 0.800089 0.500885
12 4 0.400155 0.500366 0.800047
10 2 0.500153 0.499665 0.800222
11 4 0.60015 0.498964 0.800396
ITEM: TIMESTEP
200
ITEM: NUMBER OF ATOMS
23
ITEM: BOX BOUNDS pp pp pp
-5.0000000000000000e+00 5.0000000000000000e+00
-5.0000000000000000e+00 5.0000000000000000e+00
-5.0000000000000000e+00 5.0000000000000000e+00
ITEM: ATOMS id type xs ys zs
19 4 0.400535 0.499375 0.200869
17 2 0.500531 0.499298 0.201655
18 4 0.600528 0.499223 0.202441
33 4 0.400269 0.201395 0.500338
31 2 0.500266 0.200688 0.500319
32 4 0.600264 0.199981 0.500301
5 3 0.499756 0.399695 0.500328
47 4 0.0483123 0.500387 0.499525
45 2 0.148312 0.500481 0.499531
46 4 0.248312 0.500575 0.499537
3 3 0.400035 0.49997 0.501192
1 1 0.500029 0.499694 0.500124
2 3 0.600023 0.499418 0.499055
38 2 0.850091 0.500266 0.499911
40 4 0.750093 0.499876 0.499458
39 4 0.95009 0.500653 0.500363
4 3 0.500302 0.599694 0.49992
26 4 0.399442 0.80135 0.498055
24 2 0.499428 0.800852 0.499704
25 4 0.599413 0.800353 0.501354
12 4 0.400198 0.500906 0.800273
10 2 0.500191 0.499822 0.800481
11 4 0.600185 0.498738 0.800689
ITEM: TIMESTEP
250
ITEM: NUMBER OF ATOMS
23
ITEM: BOX BOUNDS pp pp pp
-5.0000000000000000e+00 5.0000000000000000e+00
-5.0000000000000000e+00 5.0000000000000000e+00
-5.0000000000000000e+00 5.0000000000000000e+00
ITEM: ATOMS id type xs ys zs
19 4 0.400436 0.498752 0.20127
17 2 0.500429 0.498979 0.202341
18 4 0.600423 0.499206 0.203412
33 4 0.4005 0.201688 0.499996
31 2 0.500495 0.200813 0.500317
32 4 0.60049 0.199937 0.500638
5 3 0.499463 0.399527 0.500307
47 4 0.0476482 0.500628 0.499559
45 2 0.147648 0.500666 0.499478
46 4 0.247649 0.500703 0.499396
3 3 0.400057 0.500112 0.501458
1 1 0.500047 0.499525 0.500141
2 3 0.600036 0.498939 0.498824
38 2 0.849947 0.500566 0.499704
40 4 0.749949 0.500178 0.499101
39 4 0.949944 0.500953 0.500306
4 3 0.500632 0.599523 0.499976
26 4 0.399304 0.801901 0.497388
24 2 0.499275 0.80127 0.499696
25 4 0.599246 0.800639 0.502004
12 4 0.40035 0.501553 0.800568
10 2 0.500339 0.500078 0.800815
11 4 0.600327 0.498604 0.801062
ITEM: TIMESTEP
300
ITEM: NUMBER OF ATOMS
23
ITEM: BOX BOUNDS pp pp pp
-5.0000000000000000e+00 5.0000000000000000e+00
-5.0000000000000000e+00 5.0000000000000000e+00
-5.0000000000000000e+00 5.0000000000000000e+00
ITEM: ATOMS id type xs ys zs
19 4 0.400245 0.497745 0.201767
17 2 0.500232 0.4986 0.203108
18 4 0.600219 0.499454 0.204448
33 4 0.400662 0.202358 0.499799
31 2 0.500651 0.200936 0.50034
32 4 0.600639 0.199514 0.500881
5 3 0.499256 0.399343 0.500065
47 4 0.0469284 0.500633 0.499593
45 2 0.146928 0.500693 0.499495
46 4 0.246928 0.500752 0.499398
3 3 0.400125 0.500196 0.501281
1 1 0.500114 0.499339 0.500049
2 3 0.600103 0.498481 0.498817
38 2 0.84978 0.500922 0.499488
40 4 0.749785 0.500369 0.498813
39 4 0.949776 0.501477 0.500161
4 3 0.500972 0.599334 0.500033
26 4 0.399153 0.802498 0.496925
24 2 0.499108 0.801764 0.499845
25 4 0.599062 0.80103 0.502765
12 4 0.400457 0.502238 0.800835
10 2 0.500438 0.500379 0.801177
11 4 0.600421 0.498519 0.80152
ITEM: TIMESTEP
350
ITEM: NUMBER OF ATOMS
23
ITEM: BOX BOUNDS pp pp pp
-5.0000000000000000e+00 5.0000000000000000e+00
-5.0000000000000000e+00 5.0000000000000000e+00
-5.0000000000000000e+00 5.0000000000000000e+00
ITEM: ATOMS id type xs ys zs
19 4 0.400032 0.496671 0.202126
17 2 0.500006 0.498154 0.203807
18 4 0.599981 0.499637 0.20549
33 4 0.400944 0.203307 0.499441
31 2 0.500917 0.201113 0.500202
32 4 0.60089 0.198919 0.500964
5 3 0.499074 0.39928 0.499572
47 4 0.0463077 0.500543 0.499893
45 2 0.146307 0.500779 0.499598
46 4 0.246307 0.501016 0.499302
3 3 0.400177 0.500362 0.50082
1 1 0.500168 0.499274 0.49996
2 3 0.600158 0.498184 0.499102
38 2 0.849517 0.501274 0.499295
40 4 0.749521 0.500602 0.498658
39 4 0.949512 0.501947 0.499931
4 3 0.501261 0.599267 0.500349
26 4 0.398857 0.803204 0.496294
24 2 0.498785 0.802284 0.499977
25 4 0.598713 0.801363 0.503661
12 4 0.400491 0.50268 0.800959
10 2 0.500468 0.50063 0.801472
11 4 0.600446 0.498581 0.801985
ITEM: TIMESTEP
400
ITEM: NUMBER OF ATOMS
23
ITEM: BOX BOUNDS pp pp pp
-5.0000000000000000e+00 5.0000000000000000e+00
-5.0000000000000000e+00 5.0000000000000000e+00
-5.0000000000000000e+00 5.0000000000000000e+00
ITEM: ATOMS id type xs ys zs
19 4 0.399712 0.495678 0.202378
17 2 0.49967 0.497652 0.204472
18 4 0.599629 0.499627 0.206567
33 4 0.401115 0.204037 0.499185
31 2 0.501075 0.201364 0.500025
32 4 0.601036 0.198691 0.500864
5 3 0.49886 0.399278 0.499011
47 4 0.0457943 0.5004 0.500211
45 2 0.145792 0.500853 0.499668
46 4 0.245788 0.501307 0.499124
3 3 0.400232 0.500623 0.500378
1 1 0.500222 0.499265 0.49997
2 3 0.600211 0.497906 0.499563
38 2 0.849263 0.501718 0.499065
40 4 0.74927 0.500745 0.49844
39 4 0.949256 0.502692 0.49969
4 3 0.501585 0.599251 0.50093
26 4 0.398446 0.803885 0.495507
24 2 0.498333 0.802823 0.500137
25 4 0.59822 0.801761 0.504767
12 4 0.400516 0.502994 0.800913
10 2 0.500487 0.500712 0.801678
11 4 0.600458 0.498432 0.802444
ITEM: TIMESTEP
450
ITEM: NUMBER OF ATOMS
23
ITEM: BOX BOUNDS pp pp pp
-5.0000000000000000e+00 5.0000000000000000e+00
-5.0000000000000000e+00 5.0000000000000000e+00
-5.0000000000000000e+00 5.0000000000000000e+00
ITEM: ATOMS id type xs ys zs
19 4 0.399347 0.494722 0.202744
17 2 0.499288 0.497176 0.205141
18 4 0.599228 0.499631 0.207539
33 4 0.401214 0.20496 0.499034
31 2 0.501155 0.201661 0.499867
32 4 0.601098 0.198361 0.500701
5 3 0.498632 0.399296 0.498113
47 4 0.0453062 0.499943 0.500568
45 2 0.145299 0.500745 0.499702
46 4 0.245292 0.501547 0.498836
3 3 0.400295 0.500914 0.499976
1 1 0.500281 0.499265 0.500001
2 3 0.600268 0.497615 0.500026
38 2 0.849079 0.502074 0.498827
40 4 0.749087 0.500884 0.498304
39 4 0.949071 0.503265 0.499352
4 3 0.50193 0.599234 0.501889
26 4 0.397944 0.804476 0.494891
24 2 0.497787 0.80329 0.500371
25 4 0.59763 0.802103 0.505849
12 4 0.400517 0.503189 0.800685
10 2 0.500479 0.500637 0.801747
11 4 0.600441 0.498086 0.802808
ITEM: TIMESTEP
500
ITEM: NUMBER OF ATOMS
23
ITEM: BOX BOUNDS pp pp pp
-5.0000000000000000e+00 5.0000000000000000e+00
-5.0000000000000000e+00 5.0000000000000000e+00
-5.0000000000000000e+00 5.0000000000000000e+00
ITEM: ATOMS id type xs ys zs
19 4 0.39898 0.493785 0.203005
17 2 0.498896 0.496724 0.205838
18 4 0.598812 0.499663 0.208671
33 4 0.401155 0.20573 0.499206
31 2 0.501086 0.20205 0.499833
32 4 0.601016 0.19837 0.500459
5 3 0.498468 0.399286 0.497217
47 4 0.04481 0.499354 0.500979
45 2 0.144796 0.500568 0.499759
46 4 0.244781 0.501782 0.498538
3 3 0.400452 0.501201 0.499673
1 1 0.500431 0.499224 0.500128
2 3 0.60041 0.497246 0.500584
38 2 0.84873 0.502382 0.498585
40 4 0.74874 0.50103 0.498471
39 4 0.948722 0.503733 0.498699
4 3 0.502394 0.599162 0.503039
26 4 0.397402 0.804857 0.494306
24 2 0.497197 0.803809 0.500624
25 4 0.596992 0.802762 0.506942
12 4 0.400497 0.503467 0.800502
10 2 0.500448 0.500591 0.801697
11 4 0.600399 0.497714 0.802893
ITEM: TIMESTEP
550
ITEM: NUMBER OF ATOMS
23
ITEM: BOX BOUNDS pp pp pp
-5.0000000000000000e+00 5.0000000000000000e+00
-5.0000000000000000e+00 5.0000000000000000e+00
-5.0000000000000000e+00 5.0000000000000000e+00
ITEM: ATOMS id type xs ys zs
19 4 0.398595 0.492813 0.203274
17 2 0.498482 0.496231 0.206579
18 4 0.598369 0.499648 0.209884
33 4 0.401057 0.206455 0.499521
31 2 0.500973 0.202385 0.499848
32 4 0.60089 0.198315 0.500176
5 3 0.498284 0.399276 0.49639
47 4 0.0443787 0.498518 0.501272
45 2 0.144352 0.500402 0.499875
46 4 0.244324 0.502285 0.498478
3 3 0.400642 0.501531 0.499611
1 1 0.500611 0.499169 0.500416
2 3 0.60058 0.496807 0.501222
38 2 0.848362 0.502519 0.498366
40 4 0.748373 0.501068 0.498828
39 4 0.94835 0.503968 0.497905
4 3 0.502939 0.59906 0.504442
26 4 0.396846 0.805215 0.493409
24 2 0.496566 0.804412 0.500843
25 4 0.596286 0.80361 0.508276
12 4 0.400489 0.503934 0.800053
10 2 0.50042 0.500498 0.8015
11 4 0.60035 0.497063 0.802947
ITEM: TIMESTEP
600
ITEM: NUMBER OF ATOMS
23
ITEM: BOX BOUNDS pp pp pp
-5.0000000000000000e+00 5.0000000000000000e+00
-5.0000000000000000e+00 5.0000000000000000e+00
-5.0000000000000000e+00 5.0000000000000000e+00
ITEM: ATOMS id type xs ys zs
19 4 0.398291 0.491808 0.203482
17 2 0.498145 0.495712 0.207235
18 4 0.597997 0.499616 0.210989
33 4 0.400744 0.207255 0.499973
31 2 0.500642 0.202732 0.499869
32 4 0.600539 0.198209 0.499765
5 3 0.498042 0.399303 0.495634
47 4 0.0439411 0.497737 0.501551
45 2 0.143897 0.50028 0.500049
46 4 0.243854 0.502821 0.498548
3 3 0.400857 0.501962 0.499648
1 1 0.500812 0.499137 0.500691
2 3 0.600766 0.496312 0.501734
38 2 0.847824 0.502586 0.498115
40 4 0.747837 0.501359 0.499262
39 4 0.94781 0.503815 0.49697
4 3 0.50358 0.598971 0.505748
26 4 0.396136 0.805668 0.492553
24 2 0.495766 0.805088 0.501135
25 4 0.595395 0.804509 0.509717
12 4 0.400489 0.504369 0.799736
10 2 0.500397 0.500372 0.801331
11 4 0.600304 0.496375 0.802927
ITEM: TIMESTEP
650
ITEM: NUMBER OF ATOMS
23
ITEM: BOX BOUNDS pp pp pp
-5.0000000000000000e+00 5.0000000000000000e+00
-5.0000000000000000e+00 5.0000000000000000e+00
-5.0000000000000000e+00 5.0000000000000000e+00
ITEM: ATOMS id type xs ys zs
19 4 0.398059 0.490697 0.203809
17 2 0.497871 0.495124 0.208046
18 4 0.597683 0.499551 0.212283
33 4 0.400255 0.207964 0.500261
31 2 0.500132 0.203027 0.49976
32 4 0.600009 0.198092 0.499259
5 3 0.497972 0.399394 0.494772
47 4 0.0434019 0.497162 0.501615
45 2 0.143347 0.500132 0.500127
46 4 0.243292 0.503102 0.498638
3 3 0.401055 0.50227 0.499651
1 1 0.500999 0.49916 0.500906
2 3 0.600943 0.49605 0.502162
38 2 0.847055 0.502788 0.497861
40 4 0.747077 0.501818 0.499706
39 4 0.947034 0.503758 0.496015
4 3 0.504026 0.598926 0.507039
26 4 0.395481 0.806095 0.491856
24 2 0.495012 0.805694 0.501519
25 4 0.594543 0.805294 0.51118
12 4 0.400418 0.504868 0.799542
10 2 0.500299 0.500259 0.801184
11 4 0.600179 0.49565 0.802826
ITEM: TIMESTEP
700
ITEM: NUMBER OF ATOMS
23
ITEM: BOX BOUNDS pp pp pp
-5.0000000000000000e+00 5.0000000000000000e+00
-5.0000000000000000e+00 5.0000000000000000e+00
-5.0000000000000000e+00 5.0000000000000000e+00
ITEM: ATOMS id type xs ys zs
19 4 0.397828 0.489862 0.204083
17 2 0.497605 0.494578 0.208836
18 4 0.59738 0.499295 0.213588
33 4 0.39965 0.208754 0.50024
31 2 0.499498 0.203298 0.499512
32 4 0.599346 0.197843 0.498785
5 3 0.497807 0.399453 0.493766
47 4 0.0427747 0.496717 0.501582
45 2 0.142706 0.50009 0.500087
46 4 0.242639 0.503462 0.498593
3 3 0.40109 0.502456 0.499784
1 1 0.501026 0.499136 0.501044
2 3 0.600963 0.495816 0.502304
38 2 0.846262 0.503106 0.497532
40 4 0.746293 0.502466 0.499947
39 4 0.94623 0.503746 0.495118
4 3 0.504246 0.598819 0.508322
26 4 0.39495 0.806312 0.491136
24 2 0.494357 0.806223 0.502015
25 4 0.593763 0.806134 0.512893
12 4 0.400259 0.505398 0.799351
10 2 0.500106 0.500175 0.8011
11 4 0.599956 0.494952 0.802849
ITEM: TIMESTEP
750
ITEM: NUMBER OF ATOMS
23
ITEM: BOX BOUNDS pp pp pp
-5.0000000000000000e+00 5.0000000000000000e+00
-5.0000000000000000e+00 5.0000000000000000e+00
-5.0000000000000000e+00 5.0000000000000000e+00
ITEM: ATOMS id type xs ys zs
19 4 0.397545 0.489166 0.204612
17 2 0.497297 0.494145 0.209602
18 4 0.597048 0.499125 0.214593
33 4 0.399026 0.209511 0.500192
31 2 0.498846 0.203587 0.499145
32 4 0.598664 0.197663 0.498098
5 3 0.497568 0.399517 0.492807
47 4 0.042075 0.496466 0.501549
45 2 0.142001 0.500029 0.50015
46 4 0.241928 0.503591 0.49875
3 3 0.401047 0.502639 0.499851
1 1 0.500974 0.499104 0.501231
2 3 0.600902 0.49557 0.502611
38 2 0.845526 0.503427 0.497168
40 4 0.745569 0.503093 0.500071
39 4 0.945484 0.503761 0.494266
4 3 0.50438 0.59869 0.509655
26 4 0.394648 0.806357 0.490272
24 2 0.493898 0.806716 0.502497
25 4 0.593147 0.807075 0.514723
12 4 0.400022 0.506091 0.799222
10 2 0.499826 0.500122 0.801096
11 4 0.59963 0.494154 0.80297
ITEM: TIMESTEP
800
ITEM: NUMBER OF ATOMS
23
ITEM: BOX BOUNDS pp pp pp
-5.0000000000000000e+00 5.0000000000000000e+00
-5.0000000000000000e+00 5.0000000000000000e+00
-5.0000000000000000e+00 5.0000000000000000e+00
ITEM: ATOMS id type xs ys zs
19 4 0.397206 0.488577 0.205162
17 2 0.496943 0.493699 0.210285
18 4 0.59668 0.498821 0.21541
33 4 0.398367 0.210222 0.500246
31 2 0.498148 0.203773 0.498753
32 4 0.597929 0.197323 0.497258
5 3 0.497293 0.399771 0.492
47 4 0.0415179 0.495965 0.50144
45 2 0.141443 0.499704 0.500359
46 4 0.241367 0.503443 0.499278
3 3 0.400915 0.502948 0.500113
1 1 0.500838 0.499259 0.50146
2 3 0.600761 0.495571 0.502807
38 2 0.844868 0.503796 0.496715
40 4 0.744924 0.50368 0.500068
39 4 0.944812 0.503913 0.493361
4 3 0.504384 0.598749 0.510919
26 4 0.394238 0.806428 0.489442
24 2 0.493318 0.807235 0.502953
25 4 0.592398 0.808041 0.516462
12 4 0.399872 0.506551 0.79924
10 2 0.499634 0.49995 0.801214
11 4 0.599397 0.493349 0.803188
ITEM: TIMESTEP
850
ITEM: NUMBER OF ATOMS
23
ITEM: BOX BOUNDS pp pp pp
-5.0000000000000000e+00 5.0000000000000000e+00
-5.0000000000000000e+00 5.0000000000000000e+00
-5.0000000000000000e+00 5.0000000000000000e+00
ITEM: ATOMS id type xs ys zs
19 4 0.396759 0.488161 0.205485
17 2 0.496488 0.493332 0.210708
18 4 0.596218 0.498504 0.21593
33 4 0.397665 0.210855 0.500333
31 2 0.497406 0.203933 0.498409
32 4 0.597148 0.19701 0.496486
5 3 0.497112 0.400125 0.491299
47 4 0.0411243 0.495121 0.501339
45 2 0.14104 0.499142 0.500463
46 4 0.240955 0.503162 0.499589
3 3 0.40082 0.503306 0.500338
1 1 0.500739 0.499514 0.50173
2 3 0.600657 0.495722 0.503122
38 2 0.844271 0.504231 0.496309
40 4 0.744341 0.504534 0.500021
39 4 0.944202 0.503928 0.492596
4 3 0.504365 0.598903 0.512159
26 4 0.393787 0.806585 0.48865
24 2 0.492685 0.807592 0.503421
25 4 0.591583 0.808599 0.518191
12 4 0.399687 0.506895 0.799044
10 2 0.499418 0.499917 0.801312
11 4 0.599148 0.492939 0.803579
ITEM: TIMESTEP
900
ITEM: NUMBER OF ATOMS
23
ITEM: BOX BOUNDS pp pp pp
-5.0000000000000000e+00 5.0000000000000000e+00
-5.0000000000000000e+00 5.0000000000000000e+00
-5.0000000000000000e+00 5.0000000000000000e+00
ITEM: ATOMS id type xs ys zs
19 4 0.396358 0.487656 0.205882
17 2 0.496086 0.492909 0.211053
18 4 0.595814 0.498161 0.216224
33 4 0.397062 0.211361 0.500585
31 2 0.496772 0.204143 0.49813
32 4 0.596481 0.196925 0.495677
5 3 0.497069 0.400504 0.490744
47 4 0.0408031 0.494079 0.501362
45 2 0.140701 0.498535 0.500652
46 4 0.240599 0.502992 0.499941
3 3 0.400862 0.503687 0.500626
1 1 0.500777 0.499794 0.502045
2 3 0.600691 0.495901 0.503465
38 2 0.843753 0.504724 0.49596
40 4 0.743837 0.50545 0.499989
39 4 0.94367 0.503998 0.491933
4 3 0.504485 0.599084 0.513346
26 4 0.3934 0.806797 0.487614
24 2 0.492087 0.807945 0.503721
25 4 0.590775 0.809094 0.519828
12 4 0.399523 0.507113 0.798613
10 2 0.499223 0.49984 0.801254
11 4 0.598924 0.492568 0.803895
ITEM: TIMESTEP
950
ITEM: NUMBER OF ATOMS
23
ITEM: BOX BOUNDS pp pp pp
-5.0000000000000000e+00 5.0000000000000000e+00
-5.0000000000000000e+00 5.0000000000000000e+00
-5.0000000000000000e+00 5.0000000000000000e+00
ITEM: ATOMS id type xs ys zs
19 4 0.396069 0.487277 0.206313
17 2 0.495811 0.492424 0.211311
18 4 0.595554 0.497572 0.216311
33 4 0.396433 0.21188 0.5007
31 2 0.496111 0.204418 0.497771
32 4 0.595789 0.196956 0.494842
5 3 0.497067 0.400829 0.490006
47 4 0.0403634 0.492804 0.50153
45 2 0.140232 0.497909 0.501044
46 4 0.240101 0.503013 0.500557
3 3 0.400917 0.503971 0.500822
1 1 0.500827 0.499998 0.502308
2 3 0.600737 0.496025 0.503794
38 2 0.843377 0.505233 0.495742
40 4 0.743481 0.506585 0.500122
39 4 0.943271 0.503882 0.491363
4 3 0.504587 0.599167 0.514611
26 4 0.393083 0.807235 0.48633
24 2 0.491537 0.808288 0.503815
25 4 0.589991 0.809339 0.521301
12 4 0.399281 0.507298 0.797865
10 2 0.498952 0.49984 0.80104
11 4 0.598623 0.492381 0.804215
ITEM: TIMESTEP
1000
ITEM: NUMBER OF ATOMS
23
ITEM: BOX BOUNDS pp pp pp
-5.0000000000000000e+00 5.0000000000000000e+00
-5.0000000000000000e+00 5.0000000000000000e+00
-5.0000000000000000e+00 5.0000000000000000e+00
ITEM: ATOMS id type xs ys zs
19 4 0.395895 0.486967 0.206454
17 2 0.495643 0.491999 0.211456
18 4 0.595391 0.497031 0.216459
33 4 0.395633 0.212321 0.500658
31 2 0.495282 0.204665 0.497242
32 4 0.594929 0.197009 0.493826
5 3 0.497074 0.401174 0.489169
47 4 0.040079 0.491329 0.501906
45 2 0.139904 0.497227 0.501657
46 4 0.23973 0.503126 0.501408
3 3 0.40101 0.504291 0.500945
1 1 0.500913 0.500202 0.50254
2 3 0.600817 0.496114 0.504134
38 2 0.843041 0.505567 0.49562
40 4 0.743179 0.50757 0.500465
39 4 0.942903 0.503564 0.490776
4 3 0.504751 0.59923 0.515911
26 4 0.392849 0.808024 0.485065
24 2 0.491068 0.8086 0.503849
25 4 0.589286 0.809176 0.522633
12 4 0.399024 0.507318 0.797062
10 2 0.498679 0.499901 0.800793
11 4 0.598334 0.492483 0.804524
ITEM: TIMESTEP
1050
ITEM: NUMBER OF ATOMS
23
ITEM: BOX BOUNDS pp pp pp
-5.0000000000000000e+00 5.0000000000000000e+00
-5.0000000000000000e+00 5.0000000000000000e+00
-5.0000000000000000e+00 5.0000000000000000e+00
ITEM: ATOMS id type xs ys zs
19 4 0.395689 0.486616 0.206702
17 2 0.495448 0.491652 0.211468
18 4 0.595207 0.496687 0.216234
33 4 0.39477 0.212678 0.500617
31 2 0.494387 0.204861 0.496709
32 4 0.594003 0.197042 0.492802
5 3 0.496986 0.401512 0.488435
47 4 0.0400335 0.489476 0.502543
45 2 0.139794 0.496375 0.502303
46 4 0.239557 0.503274 0.502063
3 3 0.40104 0.50463 0.501126
1 1 0.500937 0.500393 0.502814
2 3 0.600833 0.496157 0.504501
38 2 0.842782 0.505889 0.495569
40 4 0.742955 0.508263 0.500943
39 4 0.94261 0.503514 0.490196
4 3 0.504887 0.599275 0.517193
26 4 0.39264 0.80908 0.483641
24 2 0.490588 0.809004 0.503792
25 4 0.588536 0.808929 0.523945
12 4 0.398863 0.507501 0.796361
10 2 0.498494 0.500051 0.80063
11 4 0.598125 0.4926 0.804899
ITEM: TIMESTEP
1100
ITEM: NUMBER OF ATOMS
23
ITEM: BOX BOUNDS pp pp pp
-5.0000000000000000e+00 5.0000000000000000e+00
-5.0000000000000000e+00 5.0000000000000000e+00
-5.0000000000000000e+00 5.0000000000000000e+00
ITEM: ATOMS id type xs ys zs
19 4 0.395553 0.486067 0.206954
17 2 0.495321 0.491183 0.211459
18 4 0.595089 0.496299 0.215964
33 4 0.394039 0.212991 0.500729
31 2 0.493609 0.204934 0.496164
32 4 0.593179 0.196878 0.4916
5 3 0.496826 0.401902 0.487692
47 4 0.0399216 0.487685 0.503391
45 2 0.139613 0.49552 0.50297
46 4 0.239305 0.503356 0.50255
3 3 0.400969 0.504965 0.501454
1 1 0.500861 0.500623 0.503119
2 3 0.600752 0.49628 0.504784
38 2 0.84273 0.506328 0.495498
40 4 0.742942 0.508991 0.501434
39 4 0.942518 0.503664 0.489562
4 3 0.504895 0.599343 0.518547
26 4 0.392431 0.81035 0.482138
24 2 0.490043 0.80949 0.503841
25 4 0.587656 0.80863 0.525543
12 4 0.398603 0.507678 0.795519
10 2 0.498196 0.500178 0.800518
11 4 0.59779 0.492678 0.805517
ITEM: TIMESTEP
1150
ITEM: NUMBER OF ATOMS
23
ITEM: BOX BOUNDS pp pp pp
-5.0000000000000000e+00 5.0000000000000000e+00
-5.0000000000000000e+00 5.0000000000000000e+00
-5.0000000000000000e+00 5.0000000000000000e+00
ITEM: ATOMS id type xs ys zs
19 4 0.395531 0.485359 0.207412
17 2 0.49531 0.490614 0.211475
18 4 0.595089 0.495868 0.215537
33 4 0.393241 0.213423 0.500702
31 2 0.492761 0.205132 0.49552
32 4 0.592283 0.196843 0.490339
5 3 0.496701 0.402292 0.486941
47 4 0.0398408 0.486082 0.504239
45 2 0.139468 0.4947 0.503719
46 4 0.239094 0.503317 0.503198
3 3 0.400938 0.505303 0.501716
1 1 0.500824 0.500837 0.503431
2 3 0.600709 0.496371 0.505146
38 2 0.842726 0.506798 0.495318
40 4 0.742985 0.5096 0.501936
39 4 0.942467 0.503996 0.488702
4 3 0.504946 0.599382 0.51992
26 4 0.392255 0.811629 0.480625
24 2 0.489499 0.809958 0.503884
25 4 0.586741 0.808288 0.527142
12 4 0.398555 0.508231 0.794451
10 2 0.498074 0.500452 0.8004
11 4 0.597594 0.492672 0.80635
ITEM: TIMESTEP
1200
ITEM: NUMBER OF ATOMS
23
ITEM: BOX BOUNDS pp pp pp
-5.0000000000000000e+00 5.0000000000000000e+00
-5.0000000000000000e+00 5.0000000000000000e+00
-5.0000000000000000e+00 5.0000000000000000e+00
ITEM: ATOMS id type xs ys zs
19 4 0.395391 0.484762 0.207809
17 2 0.495182 0.490078 0.211465
18 4 0.594974 0.495395 0.21512
33 4 0.392458 0.213946 0.500471
31 2 0.49192 0.205328 0.494731
32 4 0.591382 0.19671 0.488991
5 3 0.496596 0.402654 0.486026
47 4 0.0397037 0.484749 0.505369
45 2 0.139285 0.493869 0.504602
46 4 0.238864 0.502988 0.503834
3 3 0.400956 0.505609 0.50194
1 1 0.500833 0.500979 0.503755
2 3 0.600709 0.496349 0.50557
38 2 0.842754 0.50725 0.495172
40 4 0.74308 0.509882 0.502796
39 4 0.942429 0.504617 0.48755
4 3 0.505069 0.599303 0.521485
26 4 0.392098 0.812937 0.479237
24 2 0.48897 0.810406 0.503923
25 4 0.585843 0.807874 0.528609
12 4 0.398491 0.508771 0.793467
10 2 0.497935 0.500809 0.80036
11 4 0.59738 0.492846 0.807253
ITEM: TIMESTEP
1250
ITEM: NUMBER OF ATOMS
23
ITEM: BOX BOUNDS pp pp pp
-5.0000000000000000e+00 5.0000000000000000e+00
-5.0000000000000000e+00 5.0000000000000000e+00
-5.0000000000000000e+00 5.0000000000000000e+00
ITEM: ATOMS id type xs ys zs
19 4 0.395279 0.48404 0.208065
17 2 0.49507 0.489522 0.211501
18 4 0.59486 0.495004 0.214937
33 4 0.391544 0.214481 0.499972
31 2 0.49096 0.2055 0.493988
32 4 0.590375 0.196519 0.488003
5 3 0.496348 0.403032 0.484822
47 4 0.039572 0.483626 0.506459
45 2 0.139121 0.493065 0.505588
46 4 0.238671 0.502503 0.504717
3 3 0.400953 0.506006 0.502027
1 1 0.500813 0.501084 0.503951
2 3 0.600673 0.496161 0.505877
38 2 0.842779 0.507724 0.494982
40 4 0.743195 0.510232 0.503757
39 4 0.942361 0.505215 0.486206
4 3 0.505278 0.599136 0.523082
26 4 0.391929 0.814399 0.477701
24 2 0.488389 0.81093 0.503844
25 4 0.584849 0.807461 0.529987
12 4 0.39841 0.509198 0.792497
10 2 0.497779 0.501178 0.80034
11 4 0.597148 0.493157 0.808182
ITEM: TIMESTEP
1300
ITEM: NUMBER OF ATOMS
23
ITEM: BOX BOUNDS pp pp pp
-5.0000000000000000e+00 5.0000000000000000e+00
-5.0000000000000000e+00 5.0000000000000000e+00
-5.0000000000000000e+00 5.0000000000000000e+00
ITEM: ATOMS id type xs ys zs
19 4 0.395244 0.483171 0.208115
17 2 0.495013 0.489015 0.211581
18 4 0.594782 0.494858 0.215047
33 4 0.390605 0.215202 0.499391
31 2 0.489953 0.205604 0.493229
32 4 0.589299 0.196005 0.487067
5 3 0.496135 0.403348 0.483746
47 4 0.0394036 0.48259 0.507242
45 2 0.138918 0.492402 0.506407
46 4 0.238432 0.502212 0.505571
3 3 0.400937 0.506305 0.502105
1 1 0.500783 0.50114 0.504122
2 3 0.600629 0.495974 0.506139
38 2 0.842835 0.508291 0.494726
40 4 0.743358 0.510523 0.504698
39 4 0.942311 0.506059 0.484754
4 3 0.50543 0.598931 0.524499
26 4 0.391727 0.815912 0.476263
24 2 0.487772 0.811437 0.503746
25 4 0.583817 0.806961 0.531229
12 4 0.398359 0.509624 0.791586
10 2 0.497649 0.501531 0.800304
11 4 0.596939 0.493439 0.809022
ITEM: TIMESTEP
1350
ITEM: NUMBER OF ATOMS
23
ITEM: BOX BOUNDS pp pp pp
-5.0000000000000000e+00 5.0000000000000000e+00
-5.0000000000000000e+00 5.0000000000000000e+00
-5.0000000000000000e+00 5.0000000000000000e+00
ITEM: ATOMS id type xs ys zs
19 4 0.395394 0.482238 0.208026
17 2 0.495143 0.488329 0.211643
18 4 0.594892 0.49442 0.215261
33 4 0.389808 0.216162 0.499104
31 2 0.489046 0.205689 0.492619
32 4 0.588284 0.195216 0.486135
5 3 0.495803 0.403711 0.482718
47 4 0.0392267 0.481316 0.50787
45 2 0.138693 0.491607 0.507154
46 4 0.23816 0.501897 0.506438
3 3 0.400808 0.506643 0.502238
1 1 0.500641 0.501239 0.504279
2 3 0.600475 0.495836 0.506321
38 2 0.8429 0.50876 0.49444
40 4 0.743537 0.510617 0.505551
39 4 0.942263 0.506903 0.483328
4 3 0.505479 0.598767 0.52584
26 4 0.391556 0.817484 0.474856
24 2 0.487152 0.811931 0.503678
25 4 0.582748 0.806379 0.532499
12 4 0.398385 0.51041 0.790625
10 2 0.497566 0.50187 0.80012
11 4 0.596747 0.493331 0.809618
ITEM: TIMESTEP
1400
ITEM: NUMBER OF ATOMS
23
ITEM: BOX BOUNDS pp pp pp
-5.0000000000000000e+00 5.0000000000000000e+00
-5.0000000000000000e+00 5.0000000000000000e+00
-5.0000000000000000e+00 5.0000000000000000e+00
ITEM: ATOMS id type xs ys zs
19 4 0.395589 0.48133 0.207926
17 2 0.495327 0.487503 0.211701
18 4 0.595066 0.493675 0.215476
33 4 0.388972 0.217105 0.49887
31 2 0.488095 0.205729 0.492144
32 4 0.587218 0.194354 0.485418
5 3 0.495343 0.404081 0.481745
47 4 0.0389324 0.480165 0.508229
45 2 0.138349 0.490947 0.507911
46 4 0.237765 0.501727 0.507592
3 3 0.400814 0.507248 0.502265
1 1 0.500617 0.501346 0.504372
2 3 0.600421 0.495444 0.506479
38 2 0.843006 0.509183 0.494148
40 4 0.743776 0.510694 0.506442
39 4 0.942236 0.507672 0.481855
4 3 0.505891 0.598609 0.526999
26 4 0.391342 0.819209 0.473509
24 2 0.48647 0.812618 0.503628
25 4 0.581598 0.806027 0.533749
12 4 0.398387 0.51123 0.789672
10 2 0.497451 0.502127 0.799845
11 4 0.596516 0.493024 0.810019
ITEM: TIMESTEP
1450
ITEM: NUMBER OF ATOMS
23
ITEM: BOX BOUNDS pp pp pp
-5.0000000000000000e+00 5.0000000000000000e+00
-5.0000000000000000e+00 5.0000000000000000e+00
-5.0000000000000000e+00 5.0000000000000000e+00
ITEM: ATOMS id type xs ys zs
19 4 0.395612 0.480218 0.207611
17 2 0.495341 0.486363 0.211659
18 4 0.595069 0.492509 0.215706
33 4 0.388075 0.21815 0.498433
31 2 0.487068 0.205789 0.49153
32 4 0.586061 0.193429 0.484626
5 3 0.494977 0.404431 0.480661
47 4 0.0384717 0.479012 0.508282
45 2 0.137841 0.49023 0.508543
46 4 0.237209 0.501447 0.508803
3 3 0.400891 0.507785 0.502235
1 1 0.500669 0.501448 0.504224
2 3 0.600448 0.49511 0.506213
38 2 0.843359 0.509585 0.493757
40 4 0.744282 0.51071 0.507269
39 4 0.942435 0.508461 0.480246
4 3 0.506362 0.598465 0.527787
26 4 0.391048 0.820646 0.472255
24 2 0.485698 0.81324 0.503664
25 4 0.580349 0.805835 0.535073
12 4 0.398322 0.512281 0.788908
10 2 0.497265 0.502554 0.799662
11 4 0.596208 0.492826 0.810416
ITEM: TIMESTEP
1500
ITEM: NUMBER OF ATOMS
23
ITEM: BOX BOUNDS pp pp pp
-5.0000000000000000e+00 5.0000000000000000e+00
-5.0000000000000000e+00 5.0000000000000000e+00
-5.0000000000000000e+00 5.0000000000000000e+00
ITEM: ATOMS id type xs ys zs
19 4 0.395531 0.479044 0.20736
17 2 0.49525 0.485199 0.211638
18 4 0.594969 0.491355 0.215915
33 4 0.38722 0.219155 0.497792
31 2 0.486095 0.205878 0.490888
32 4 0.584968 0.192601 0.483984
5 3 0.494642 0.40496 0.479461
47 4 0.0380876 0.478015 0.508163
45 2 0.137427 0.48946 0.508981
46 4 0.236767 0.500905 0.509798
3 3 0.400888 0.508348 0.502291
1 1 0.500653 0.501709 0.504027
2 3 0.600417 0.49507 0.505764
38 2 0.843865 0.509933 0.493429
40 4 0.744931 0.510716 0.507961
39 4 0.942801 0.50915 0.478897
4 3 0.506664 0.598458 0.528594
26 4 0.390893 0.821987 0.470886
24 2 0.485007 0.813738 0.503668
25 4 0.579121 0.805489 0.536448
12 4 0.398306 0.513319 0.788089
10 2 0.49712 0.50306 0.799519
11 4 0.595933 0.492801 0.810948
ITEM: TIMESTEP
1550
ITEM: NUMBER OF ATOMS
23
ITEM: BOX BOUNDS pp pp pp
-5.0000000000000000e+00 5.0000000000000000e+00
-5.0000000000000000e+00 5.0000000000000000e+00
-5.0000000000000000e+00 5.0000000000000000e+00
ITEM: ATOMS id type xs ys zs
19 4 0.395314 0.477855 0.207023
17 2 0.495016 0.484134 0.211513
18 4 0.594717 0.490414 0.216003
33 4 0.386436 0.220236 0.497063
31 2 0.485182 0.205959 0.490331
32 4 0.583928 0.191681 0.483597
5 3 0.494267 0.405558 0.478374
47 4 0.0377605 0.477236 0.508059
45 2 0.137107 0.488583 0.509246
46 4 0.236454 0.49993 0.510433
3 3 0.400852 0.508989 0.502362
1 1 0.500597 0.502028 0.503935
2 3 0.600342 0.495065 0.505507
38 2 0.844458 0.510268 0.493112
40 4 0.745677 0.51069 0.508673
39 4 0.943238 0.509848 0.47755
4 3 0.506927 0.598498 0.529496
26 4 0.390919 0.823486 0.469261
24 2 0.484386 0.814236 0.503591
25 4 0.577852 0.804985 0.53792
12 4 0.398312 0.51429 0.787162
10 2 0.496991 0.503655 0.799377
11 4 0.595671 0.493021 0.811591
ITEM: TIMESTEP
1600
ITEM: NUMBER OF ATOMS
23
ITEM: BOX BOUNDS pp pp pp