ITEM: TIMESTEP
50
ITEM: NUMBER OF ATOMS
8
ITEM: BOX BOUNDS pp pp pp
-5.0000000000000000e+00 5.0000000000000000e+00
-5.0000000000000000e+00 5.0000000000000000e+00
-5.0000000000000000e+00 5.0000000000000000e+00
ITEM: ATOMS id type xs ys zs
4 3 0.454594 0.419563 0.465998
1 1 0.500028 0.50081 0.500541
2 3 0.594406 0.502551 0.468683
3 3 0.452267 0.581537 0.467955
5 3 0.498844 0.499581 0.600523
12 4 0.399152 0.498985 0.798901
10 2 0.499133 0.499912 0.800721
11 4 0.599111 0.50084 0.802533
ITEM: TIMESTEP
100
ITEM: NUMBER OF ATOMS
8
ITEM: BOX BOUNDS pp pp pp
-5.0000000000000000e+00 5.0000000000000000e+00
-5.0000000000000000e+00 5.0000000000000000e+00
-5.0000000000000000e+00 5.0000000000000000e+00
ITEM: ATOMS id type xs ys zs
4 3 0.457872 0.419183 0.467389
1 1 0.499974 0.502392 0.501504
2 3 0.594604 0.50715 0.470704
3 3 0.449756 0.580975 0.467431
5 3 0.497645 0.502249 0.601475
12 4 0.398058 0.496521 0.797262
10 2 0.497888 0.498359 0.802772
11 4 0.597728 0.500193 0.808281
ITEM: TIMESTEP
150
ITEM: NUMBER OF ATOMS
8
ITEM: BOX BOUNDS pp pp pp
-5.0000000000000000e+00 5.0000000000000000e+00
-5.0000000000000000e+00 5.0000000000000000e+00
-5.0000000000000000e+00 5.0000000000000000e+00
ITEM: ATOMS id type xs ys zs
4 3 0.463137 0.418808 0.469884
1 1 0.500924 0.504583 0.502659
2 3 0.59543 0.513337 0.472367
3 3 0.447219 0.579989 0.466772
5 3 0.497879 0.506219 0.602591
12 4 0.397124 0.493478 0.79459
10 2 0.496548 0.496042 0.804946
11 4 0.595974 0.498603 0.815302
ITEM: TIMESTEP
200
ITEM: NUMBER OF ATOMS
8
ITEM: BOX BOUNDS pp pp pp
-5.0000000000000000e+00 5.0000000000000000e+00
-5.0000000000000000e+00 5.0000000000000000e+00
-5.0000000000000000e+00 5.0000000000000000e+00
ITEM: ATOMS id type xs ys zs
4 3 0.467449 0.418617 0.472559
1 1 0.502104 0.506375 0.503485
2 3 0.596811 0.517118 0.474498
3 3 0.446807 0.5791 0.464592
5 3 0.497314 0.510717 0.603271
12 4 0.395601 0.489589 0.792033
10 2 0.494419 0.493624 0.806803
11 4 0.593244 0.497654 0.82158
ITEM: TIMESTEP
250
ITEM: NUMBER OF ATOMS
8
ITEM: BOX BOUNDS pp pp pp
-5.0000000000000000e+00 5.0000000000000000e+00
-5.0000000000000000e+00 5.0000000000000000e+00
-5.0000000000000000e+00 5.0000000000000000e+00
ITEM: ATOMS id type xs ys zs
4 3 0.472037 0.418675 0.47478
1 1 0.502562 0.50835 0.504517
2 3 0.597603 0.521955 0.477911
3 3 0.44576 0.578043 0.462371
5 3 0.494771 0.514817 0.604008
12 4 0.392373 0.484157 0.789664
10 2 0.490482 0.489751 0.808184
11 4 0.588591 0.495346 0.826704
ITEM: TIMESTEP
300
ITEM: NUMBER OF ATOMS
8
ITEM: BOX BOUNDS pp pp pp
-5.0000000000000000e+00 5.0000000000000000e+00
-5.0000000000000000e+00 5.0000000000000000e+00
-5.0000000000000000e+00 5.0000000000000000e+00
ITEM: ATOMS id type xs ys zs
4 3 0.478054 0.419071 0.47846
1 1 0.503088 0.510863 0.506872
2 3 0.597981 0.528826 0.48243
3 3 0.443927 0.576547 0.461644
5 3 0.492276 0.519099 0.605945
12 4 0.388614 0.478289 0.785952
10 2 0.485622 0.485772 0.809074
11 4 0.58263 0.49325 0.832192
ITEM: TIMESTEP
350
ITEM: NUMBER OF ATOMS
8
ITEM: BOX BOUNDS pp pp pp
-5.0000000000000000e+00 5.0000000000000000e+00
-5.0000000000000000e+00 5.0000000000000000e+00
-5.0000000000000000e+00 5.0000000000000000e+00
ITEM: ATOMS id type xs ys zs
4 3 0.484205 0.419348 0.483204
1 1 0.502841 0.513037 0.510292
2 3 0.597462 0.535881 0.489103
3 3 0.441916 0.574173 0.461213
5 3 0.48762 0.522851 0.608639
12 4 0.385613 0.473459 0.784019
10 2 0.481586 0.483021 0.810446
11 4 0.57756 0.492583 0.836873
ITEM: TIMESTEP
400
ITEM: NUMBER OF ATOMS
8
ITEM: BOX BOUNDS pp pp pp
-5.0000000000000000e+00 5.0000000000000000e+00
-5.0000000000000000e+00 5.0000000000000000e+00
-5.0000000000000000e+00 5.0000000000000000e+00
ITEM: ATOMS id type xs ys zs
4 3 0.490859 0.420556 0.486737
1 1 0.500992 0.515578 0.513693
2 3 0.594906 0.544997 0.498231
3 3 0.43912 0.571728 0.460037
5 3 0.478843 0.525135 0.610741
12 4 0.382046 0.468598 0.782827
10 2 0.477138 0.481128 0.811148
11 4 0.572223 0.493659 0.839466
ITEM: TIMESTEP
450
ITEM: NUMBER OF ATOMS
8
ITEM: BOX BOUNDS pp pp pp
-5.0000000000000000e+00 5.0000000000000000e+00
-5.0000000000000000e+00 5.0000000000000000e+00
-5.0000000000000000e+00 5.0000000000000000e+00
ITEM: ATOMS id type xs ys zs
4 3 0.498817 0.422157 0.489566
1 1 0.498086 0.517532 0.517165
2 3 0.58956 0.555863 0.507738
3 3 0.434662 0.567882 0.459696
5 3 0.469013 0.524292 0.612608
12 4 0.379218 0.464179 0.783442
10 2 0.473725 0.479921 0.812062
11 4 0.568245 0.495661 0.840683
ITEM: TIMESTEP
500
ITEM: NUMBER OF ATOMS
8
ITEM: BOX BOUNDS pp pp pp
-5.0000000000000000e+00 5.0000000000000000e+00
-5.0000000000000000e+00 5.0000000000000000e+00
-5.0000000000000000e+00 5.0000000000000000e+00
ITEM: ATOMS id type xs ys zs
4 3 0.507135 0.423594 0.493331
1 1 0.494626 0.518533 0.519562
2 3 0.582156 0.566012 0.516369
3 3 0.43083 0.561798 0.456981
5 3 0.458026 0.522776 0.612534
12 4 0.376339 0.461423 0.785958
10 2 0.470679 0.479757 0.813572
11 4 0.56503 0.4981 0.841186
ITEM: TIMESTEP
550
ITEM: NUMBER OF ATOMS
8
ITEM: BOX BOUNDS pp pp pp
-5.0000000000000000e+00 5.0000000000000000e+00
-5.0000000000000000e+00 5.0000000000000000e+00
-5.0000000000000000e+00 5.0000000000000000e+00
ITEM: ATOMS id type xs ys zs
4 3 0.515661 0.426637 0.499511
1 1 0.491974 0.520247 0.522664
2 3 0.574331 0.57628 0.524168
3 3 0.428597 0.555799 0.454999
5 3 0.448876 0.522275 0.612881
12 4 0.373357 0.462385 0.788399
10 2 0.467523 0.482189 0.815599
11 4 0.561694 0.501986 0.842795
ITEM: TIMESTEP
600
ITEM: NUMBER OF ATOMS
8
ITEM: BOX BOUNDS pp pp pp
-5.0000000000000000e+00 5.0000000000000000e+00
-5.0000000000000000e+00 5.0000000000000000e+00
-5.0000000000000000e+00 5.0000000000000000e+00
ITEM: ATOMS id type xs ys zs
4 3 0.525203 0.432017 0.507276
1 1 0.48902 0.522536 0.526171
2 3 0.56392 0.58793 0.532485
3 3 0.427414 0.549238 0.453026
5 3 0.439066 0.520941 0.612782
12 4 0.369505 0.465066 0.792306
10 2 0.464336 0.485584 0.816516
11 4 0.559163 0.506098 0.840732
ITEM: TIMESTEP
650
ITEM: NUMBER OF ATOMS
8
ITEM: BOX BOUNDS pp pp pp
-5.0000000000000000e+00 5.0000000000000000e+00
-5.0000000000000000e+00 5.0000000000000000e+00
-5.0000000000000000e+00 5.0000000000000000e+00
ITEM: ATOMS id type xs ys zs
4 3 0.535506 0.439981 0.51512
1 1 0.486144 0.524852 0.529955
2 3 0.550805 0.600064 0.539217
3 3 0.425988 0.541809 0.452809
5 3 0.431727 0.517466 0.613529
12 4 0.365755 0.465853 0.796615
10 2 0.460895 0.489274 0.816604
11 4 0.556034 0.5127 0.83658
ITEM: TIMESTEP
700
ITEM: NUMBER OF ATOMS
8
ITEM: BOX BOUNDS pp pp pp
-5.0000000000000000e+00 5.0000000000000000e+00
-5.0000000000000000e+00 5.0000000000000000e+00
-5.0000000000000000e+00 5.0000000000000000e+00
ITEM: ATOMS id type xs ys zs
4 3 0.54352 0.448355 0.527058
1 1 0.482626 0.526418 0.534614
2 3 0.536132 0.609689 0.545945
3 3 0.427404 0.533104 0.45236
5 3 0.422861 0.514407 0.613886
12 4 0.362108 0.465496 0.801378
10 2 0.457111 0.492147 0.817686
11 4 0.552102 0.518789 0.833986
ITEM: TIMESTEP
750
ITEM: NUMBER OF ATOMS
8
ITEM: BOX BOUNDS pp pp pp
-5.0000000000000000e+00 5.0000000000000000e+00
-5.0000000000000000e+00 5.0000000000000000e+00
-5.0000000000000000e+00 5.0000000000000000e+00
ITEM: ATOMS id type xs ys zs
4 3 0.548918 0.458644 0.540561
1 1 0.477585 0.527698 0.539338
2 3 0.518072 0.617948 0.551204
3 3 0.429538 0.523782 0.452533
5 3 0.413161 0.510246 0.613809
12 4 0.357393 0.467063 0.808934
10 2 0.453057 0.493891 0.82033
11 4 0.548717 0.520714 0.831736
ITEM: TIMESTEP
800
ITEM: NUMBER OF ATOMS
8
ITEM: BOX BOUNDS pp pp pp
-5.0000000000000000e+00 5.0000000000000000e+00
-5.0000000000000000e+00 5.0000000000000000e+00
-5.0000000000000000e+00 5.0000000000000000e+00
ITEM: ATOMS id type xs ys zs
4 3 0.552753 0.471337 0.554205
1 1 0.472895 0.529376 0.543623
2 3 0.499209 0.624873 0.55422
3 3 0.433761 0.515302 0.453458
5 3 0.405166 0.505757 0.613299
12 4 0.353768 0.468852 0.81847
10 2 0.449873 0.496169 0.822624
11 4 0.545974 0.523497 0.826776
ITEM: TIMESTEP
850
ITEM: NUMBER OF ATOMS
8
ITEM: BOX BOUNDS pp pp pp
-5.0000000000000000e+00 5.0000000000000000e+00
-5.0000000000000000e+00 5.0000000000000000e+00
-5.0000000000000000e+00 5.0000000000000000e+00
ITEM: ATOMS id type xs ys zs
4 3 0.553601 0.485898 0.569561
1 1 0.467728 0.530712 0.547752
2 3 0.478974 0.629521 0.553826
3 3 0.440114 0.505818 0.455682
5 3 0.397504 0.501335 0.612592
12 4 0.351928 0.469137 0.829783
10 2 0.447485 0.498014 0.82385
11 4 0.543044 0.526888 0.817922
ITEM: TIMESTEP
900
ITEM: NUMBER OF ATOMS
8
ITEM: BOX BOUNDS pp pp pp
-5.0000000000000000e+00 5.0000000000000000e+00
-5.0000000000000000e+00 5.0000000000000000e+00
-5.0000000000000000e+00 5.0000000000000000e+00
ITEM: ATOMS id type xs ys zs
4 3 0.549873 0.501563 0.585029
1 1 0.461673 0.533131 0.552113
2 3 0.459995 0.632732 0.551
3 3 0.446507 0.498419 0.460329
5 3 0.389589 0.499468 0.612706
12 4 0.351089 0.470927 0.839115
10 2 0.445411 0.50023 0.823517
11 4 0.539743 0.529539 0.807932
ITEM: TIMESTEP
950
ITEM: NUMBER OF ATOMS
8
ITEM: BOX BOUNDS pp pp pp
-5.0000000000000000e+00 5.0000000000000000e+00
-5.0000000000000000e+00 5.0000000000000000e+00
-5.0000000000000000e+00 5.0000000000000000e+00
ITEM: ATOMS id type xs ys zs
4 3 0.54403 0.519547 0.597944
1 1 0.455686 0.536803 0.556024
2 3 0.441161 0.635005 0.547661
3 3 0.453246 0.494879 0.466053
5 3 0.383589 0.497385 0.613022
12 4 0.350427 0.47277 0.849182
10 2 0.442631 0.501357 0.823089
11 4 0.534833 0.529945 0.796995
ITEM: TIMESTEP
1000
ITEM: NUMBER OF ATOMS
8
ITEM: BOX BOUNDS pp pp pp
-5.0000000000000000e+00 5.0000000000000000e+00
-5.0000000000000000e+00 5.0000000000000000e+00
-5.0000000000000000e+00 5.0000000000000000e+00
ITEM: ATOMS id type xs ys zs
4 3 0.535631 0.538928 0.607047
1 1 0.448791 0.540227 0.558926
2 3 0.421001 0.634458 0.542426
3 3 0.458496 0.492598 0.472342
5 3 0.379349 0.494447 0.614428
12 4 0.35064 0.473346 0.859438
10 2 0.4392 0.502553 0.823314
11 4 0.527758 0.531763 0.787185
ITEM: TIMESTEP
1050
ITEM: NUMBER OF ATOMS
8
ITEM: BOX BOUNDS pp pp pp
-5.0000000000000000e+00 5.0000000000000000e+00
-5.0000000000000000e+00 5.0000000000000000e+00
-5.0000000000000000e+00 5.0000000000000000e+00
ITEM: ATOMS id type xs ys zs
1 1 0.442091 0.543652 0.560952
3 3 0.463843 0.492009 0.478984
2 3 0.400626 0.630663 0.535747
5 3 0.377927 0.491405 0.617099
4 3 0.525349 0.560022 0.612538
10 2 0.436072 0.505142 0.825112
11 4 0.520746 0.53602 0.781783
12 4 0.351391 0.474273 0.868433
ITEM: TIMESTEP
1100
ITEM: NUMBER OF ATOMS
8
ITEM: BOX BOUNDS pp pp pp
-5.0000000000000000e+00 5.0000000000000000e+00
-5.0000000000000000e+00 5.0000000000000000e+00
-5.0000000000000000e+00 5.0000000000000000e+00
ITEM: ATOMS id type xs ys zs
1 1 0.434758 0.546494 0.561466
3 3 0.468778 0.493026 0.485025
2 3 0.380479 0.62281 0.527482
5 3 0.377692 0.488618 0.619727
4 3 0.511505 0.580948 0.614219
10 2 0.432484 0.50827 0.828268
11 4 0.513498 0.54217 0.78046
12 4 0.35146 0.474369 0.876086
ITEM: TIMESTEP
1150
ITEM: NUMBER OF ATOMS
8
ITEM: BOX BOUNDS pp pp pp
-5.0000000000000000e+00 5.0000000000000000e+00
-5.0000000000000000e+00 5.0000000000000000e+00
-5.0000000000000000e+00 5.0000000000000000e+00
ITEM: ATOMS id type xs ys zs
1 1 0.426652 0.548332 0.561775
3 3 0.472727 0.496129 0.490987
2 3 0.362217 0.611837 0.520037
5 3 0.377178 0.485896 0.622229
4 3 0.493983 0.598841 0.614442
10 2 0.428425 0.509724 0.830264
11 4 0.504589 0.547424 0.777562
12 4 0.352251 0.472038 0.882953
ITEM: TIMESTEP
1200
ITEM: NUMBER OF ATOMS
8
ITEM: BOX BOUNDS pp pp pp
-5.0000000000000000e+00 5.0000000000000000e+00
-5.0000000000000000e+00 5.0000000000000000e+00
-5.0000000000000000e+00 5.0000000000000000e+00
ITEM: ATOMS id type xs ys zs
1 1 0.418737 0.549435 0.561872
3 3 0.476037 0.500245 0.497409
2 3 0.347023 0.598051 0.512675
5 3 0.377083 0.48455 0.625543
4 3 0.474376 0.614251 0.612484
10 2 0.424581 0.511455 0.832526
11 4 0.495018 0.5548 0.776307
12 4 0.354152 0.468107 0.888746
ITEM: TIMESTEP
1250
ITEM: NUMBER OF ATOMS
8
ITEM: BOX BOUNDS pp pp pp
-5.0000000000000000e+00 5.0000000000000000e+00
-5.0000000000000000e+00 5.0000000000000000e+00
-5.0000000000000000e+00 5.0000000000000000e+00
ITEM: ATOMS id type xs ys zs
1 1 0.412096 0.550725 0.562866
3 3 0.47971 0.505924 0.505584
2 3 0.336418 0.582801 0.506565
5 3 0.377712 0.48577 0.63069
4 3 0.454187 0.627729 0.609302
10 2 0.420367 0.512284 0.83447
11 4 0.486214 0.559349 0.775741
12 4 0.354507 0.465218 0.893189
ITEM: TIMESTEP
1300
ITEM: NUMBER OF ATOMS
8
ITEM: BOX BOUNDS pp pp pp
-5.0000000000000000e+00 5.0000000000000000e+00
-5.0000000000000000e+00 5.0000000000000000e+00
-5.0000000000000000e+00 5.0000000000000000e+00
ITEM: ATOMS id type xs ys zs
1 1 0.405346 0.551218 0.563393
3 3 0.481808 0.512614 0.513173
2 3 0.328728 0.566207 0.501499
5 3 0.377663 0.487882 0.635648
4 3 0.432904 0.637556 0.603962
10 2 0.414775 0.514089 0.834944
11 4 0.475434 0.565614 0.774395
12 4 0.354104 0.462581 0.895487
ITEM: TIMESTEP
1350
ITEM: NUMBER OF ATOMS
8
ITEM: BOX BOUNDS pp pp pp
-5.0000000000000000e+00 5.0000000000000000e+00
-5.0000000000000000e+00 5.0000000000000000e+00
-5.0000000000000000e+00 5.0000000000000000e+00
ITEM: ATOMS id type xs ys zs
1 1 0.397866 0.552518 0.56503
3 3 0.48214 0.520588 0.523334
2 3 0.324199 0.549842 0.498014
5 3 0.374536 0.493436 0.64227
4 3 0.410356 0.645599 0.597265
10 2 0.409012 0.516783 0.835277
11 4 0.464295 0.572399 0.773236
12 4 0.353711 0.461169 0.897321
ITEM: TIMESTEP
1400
ITEM: NUMBER OF ATOMS
8
ITEM: BOX BOUNDS pp pp pp
-5.0000000000000000e+00 5.0000000000000000e+00
-5.0000000000000000e+00 5.0000000000000000e+00
-5.0000000000000000e+00 5.0000000000000000e+00
ITEM: ATOMS id type xs ys zs
1 1 0.390152 0.553149 0.568052
3 3 0.479615 0.527251 0.533631
2 3 0.321014 0.535163 0.498607
5 3 0.369391 0.499838 0.650066
4 3 0.390374 0.649829 0.590715
10 2 0.403381 0.518865 0.835782
11 4 0.454113 0.579028 0.774075
12 4 0.352659 0.45871 0.897494
ITEM: TIMESTEP
1450
ITEM: NUMBER OF ATOMS
8
ITEM: BOX BOUNDS pp pp pp
-5.0000000000000000e+00 5.0000000000000000e+00
-5.0000000000000000e+00 5.0000000000000000e+00
-5.0000000000000000e+00 5.0000000000000000e+00
ITEM: ATOMS id type xs ys zs
1 1 0.382589 0.553578 0.571995
3 3 0.476009 0.536138 0.543245
2 3 0.319388 0.520833 0.502292
5 3 0.364785 0.505712 0.657971
4 3 0.369992 0.651167 0.585342
10 2 0.398588 0.520713 0.835802
11 4 0.445606 0.585454 0.775831
12 4 0.35158 0.455961 0.89578
ITEM: TIMESTEP
1500
ITEM: NUMBER OF ATOMS
8
ITEM: BOX BOUNDS pp pp pp
-5.0000000000000000e+00 5.0000000000000000e+00
-5.0000000000000000e+00 5.0000000000000000e+00
-5.0000000000000000e+00 5.0000000000000000e+00
ITEM: ATOMS id type xs ys zs
1 1 0.375185 0.553751 0.576402
3 3 0.471582 0.5465 0.553744
2 3 0.32079 0.508115 0.506513
5 3 0.358502 0.51035 0.664932
4 3 0.349694 0.64959 0.581301
10 2 0.39429 0.521675 0.836466
11 4 0.436091 0.589345 0.775867
12 4 0.352488 0.453999 0.897061
ITEM: TIMESTEP
1550
ITEM: NUMBER OF ATOMS
8
ITEM: BOX BOUNDS pp pp pp
-5.0000000000000000e+00 5.0000000000000000e+00
-5.0000000000000000e+00 5.0000000000000000e+00
-5.0000000000000000e+00 5.0000000000000000e+00
ITEM: ATOMS id type xs ys zs
1 1 0.366036 0.553715 0.581434
3 3 0.463749 0.557984 0.564271
2 3 0.322202 0.497473 0.511854
5 3 0.349852 0.513507 0.671554
4 3 0.328199 0.645475 0.578955
10 2 0.390112 0.521389 0.837865
11 4 0.425035 0.588657 0.772635
12 4 0.355184 0.45413 0.903098
ITEM: TIMESTEP
1600
ITEM: NUMBER OF ATOMS
8
ITEM: BOX BOUNDS pp pp pp
-5.0000000000000000e+00 5.0000000000000000e+00
-5.0000000000000000e+00 5.0000000000000000e+00
-5.0000000000000000e+00 5.0000000000000000e+00
ITEM: ATOMS id type xs ys zs
1 1 0.35645 0.553214 0.587267
3 3 0.452875 0.570122 0.570688
2 3 0.321929 0.48778 0.520546
5 3 0.344588 0.51602 0.67933
4 3 0.306307 0.638551 0.579434
10 2 0.385464 0.519983 0.839515
11 4 0.412991 0.585836 0.769477
12 4 0.357933 0.45412 0.909541
ITEM: TIMESTEP
1650
ITEM: NUMBER OF ATOMS
8
ITEM: BOX BOUNDS pp pp pp
-5.0000000000000000e+00 5.0000000000000000e+00
-5.0000000000000000e+00 5.0000000000000000e+00
-5.0000000000000000e+00 5.0000000000000000e+00
ITEM: ATOMS id type xs ys zs
1 1 0.34652 0.552884 0.591231
3 3 0.439572 0.584029 0.576009
2 3 0.324725 0.479789 0.527141
5 3 0.337833 0.518602 0.684771
4 3 0.283877 0.62877 0.577951
10 2 0.379473 0.519514 0.842962
11 4 0.399066 0.584461 0.769491
12 4 0.359867 0.454558 0.91643
ITEM: TIMESTEP
1700
ITEM: NUMBER OF ATOMS
8
ITEM: BOX BOUNDS pp pp pp
-5.0000000000000000e+00 5.0000000000000000e+00
-5.0000000000000000e+00 5.0000000000000000e+00
-5.0000000000000000e+00 5.0000000000000000e+00
ITEM: ATOMS id type xs ys zs
1 1 0.334596 0.553215 0.595112
3 3 0.421122 0.599948 0.581415
2 3 0.328357 0.475384 0.533237
5 3 0.328835 0.520961 0.68959
4 3 0.26 0.61625 0.577145
10 2 0.372738 0.519792 0.847042
11 4 0.383117 0.582877 0.770149
12 4 0.362359 0.456702 0.923934
ITEM: TIMESTEP
1750
ITEM: NUMBER OF ATOMS
8
ITEM: BOX BOUNDS pp pp pp
-5.0000000000000000e+00 5.0000000000000000e+00
-5.0000000000000000e+00 5.0000000000000000e+00
-5.0000000000000000e+00 5.0000000000000000e+00
ITEM: ATOMS id type xs ys zs
1 1 0.321146 0.554712 0.599198
3 3 0.397724 0.616764 0.587189
2 3 0.331751 0.476278 0.5387
5 3 0.318436 0.523237 0.69408
4 3 0.236653 0.602259 0.577776
10 2 0.365372 0.518303 0.850551
11 4 0.367514 0.578366 0.770622
12 4 0.363218 0.458239 0.930472
ITEM: TIMESTEP
1800
ITEM: NUMBER OF ATOMS
8
ITEM: BOX BOUNDS pp pp pp
-5.0000000000000000e+00 5.0000000000000000e+00
-5.0000000000000000e+00 5.0000000000000000e+00
-5.0000000000000000e+00 5.0000000000000000e+00
ITEM: ATOMS id type xs ys zs
1 1 0.307406 0.555841 0.603021
3 3 0.37138 0.630962 0.591824
2 3 0.33312 0.480669 0.542915
5 3 0.309279 0.524477 0.697957
4 3 0.215888 0.586961 0.58035
10 2 0.357135 0.516617 0.855083
11 4 0.353754 0.573306 0.772777
12 4 0.360522 0.459923 0.937391
ITEM: TIMESTEP
1850
ITEM: NUMBER OF ATOMS
8
ITEM: BOX BOUNDS pp pp pp
-5.0000000000000000e+00 5.0000000000000000e+00
-5.0000000000000000e+00 5.0000000000000000e+00
-5.0000000000000000e+00 5.0000000000000000e+00
ITEM: ATOMS id type xs ys zs
1 1 0.293358 0.556669 0.606141
3 3 0.342402 0.642378 0.595809
2 3 0.333317 0.48775 0.546328
5 3 0.299826 0.525903 0.701078
4 3 0.197932 0.570319 0.582306
10 2 0.348839 0.514542 0.860168
11 4 0.340948 0.567757 0.775868
12 4 0.356735 0.461329 0.944463
ITEM: TIMESTEP
1900
ITEM: NUMBER OF ATOMS
8
ITEM: BOX BOUNDS pp pp pp
-5.0000000000000000e+00 5.0000000000000000e+00
-5.0000000000000000e+00 5.0000000000000000e+00
-5.0000000000000000e+00 5.0000000000000000e+00
ITEM: ATOMS id type xs ys zs
1 1 0.278764 0.557698 0.60787
3 3 0.312301 0.65064 0.598079
2 3 0.331643 0.496657 0.549539
5 3 0.288164 0.528842 0.703154
4 3 0.183048 0.554365 0.58166
10 2 0.340983 0.513269 0.865162
11 4 0.327956 0.563 0.779388
12 4 0.354003 0.463548 0.950939
ITEM: TIMESTEP
1950
ITEM: NUMBER OF ATOMS
8
ITEM: BOX BOUNDS pp pp pp
-5.0000000000000000e+00 5.0000000000000000e+00
-5.0000000000000000e+00 5.0000000000000000e+00
-5.0000000000000000e+00 5.0000000000000000e+00
ITEM: ATOMS id type xs ys zs
1 1 0.263746 0.559409 0.608878
3 3 0.280338 0.656638 0.597397
2 3 0.328997 0.5076 0.554261
5 3 0.274483 0.535018 0.705258
4 3 0.171302 0.538153 0.579546
10 2 0.331181 0.510943 0.87036
11 4 0.316518 0.556942 0.782791
12 4 0.345842 0.464943 0.957934
ITEM: TIMESTEP
2000
ITEM: NUMBER OF ATOMS
8
ITEM: BOX BOUNDS pp pp pp
-5.0000000000000000e+00 5.0000000000000000e+00
-5.0000000000000000e+00 5.0000000000000000e+00
-5.0000000000000000e+00 5.0000000000000000e+00
ITEM: ATOMS id type xs ys zs
1 1 0.24784 0.561782 0.610565
3 3 0.244472 0.660111 0.597226
2 3 0.322886 0.523309 0.557534
5 3 0.262155 0.541851 0.707508
4 3 0.161986 0.521643 0.58095
10 2 0.320457 0.508369 0.875723
11 4 0.308243 0.550243 0.785739
12 4 0.332659 0.466488 0.965708
ITEM: TIMESTEP
2050
ITEM: NUMBER OF ATOMS
8
ITEM: BOX BOUNDS pp pp pp
-5.0000000000000000e+00 5.0000000000000000e+00
-5.0000000000000000e+00 5.0000000000000000e+00
-5.0000000000000000e+00 5.0000000000000000e+00
ITEM: ATOMS id type xs ys zs
2 3 0.313468 0.540448 0.55833
1 1 0.232656 0.564277 0.611496
5 3 0.251001 0.548499 0.708521
4 3 0.156014 0.50802 0.582835
3 3 0.21031 0.659969 0.597269
11 4 0.300295 0.543617 0.788733
10 2 0.30938 0.506496 0.881139
12 4 0.318461 0.469362 0.973538
ITEM: TIMESTEP
2100
ITEM: NUMBER OF ATOMS
8
ITEM: BOX BOUNDS pp pp pp
-5.0000000000000000e+00 5.0000000000000000e+00
-5.0000000000000000e+00 5.0000000000000000e+00
-5.0000000000000000e+00 5.0000000000000000e+00
ITEM: ATOMS id type xs ys zs
2 3 0.301246 0.557384 0.558394
1 1 0.217723 0.566017 0.612012
5 3 0.239671 0.557233 0.70918
4 3 0.153807 0.494606 0.586026
3 3 0.176382 0.654759 0.595414
11 4 0.292267 0.537773 0.793324
10 2 0.29909 0.506007 0.887898
12 4 0.305911 0.474233 0.982464
ITEM: TIMESTEP
2150
ITEM: NUMBER OF ATOMS
8
ITEM: BOX BOUNDS pp pp pp
-5.0000000000000000e+00 5.0000000000000000e+00
-5.0000000000000000e+00 5.0000000000000000e+00
-5.0000000000000000e+00 5.0000000000000000e+00
ITEM: ATOMS id type xs ys zs
2 3 0.28574 0.573093 0.560437
1 1 0.201904 0.567147 0.613926
5 3 0.224772 0.565259 0.711258
4 3 0.152775 0.484251 0.589957
3 3 0.144538 0.645961 0.595041
11 4 0.285579 0.532581 0.799382
10 2 0.289197 0.505347 0.895529
12 4 0.292805 0.478109 0.991676
ITEM: TIMESTEP
2200
ITEM: NUMBER OF ATOMS
8
ITEM: BOX BOUNDS pp pp pp
-5.0000000000000000e+00 5.0000000000000000e+00
-5.0000000000000000e+00 5.0000000000000000e+00
-5.0000000000000000e+00 5.0000000000000000e+00
ITEM: ATOMS id type xs ys zs
2 3 0.26726 0.586759 0.562425
1 1 0.185267 0.567219 0.615548
5 3 0.207175 0.571428 0.713031
4 3 0.151764 0.476474 0.593142
3 3 0.115098 0.63427 0.594569
11 4 0.279882 0.523919 0.804392
10 2 0.279562 0.504484 0.90248
12 4 0.27926 0.485048 1.00057
ITEM: TIMESTEP
2250
ITEM: NUMBER OF ATOMS
8
ITEM: BOX BOUNDS pp pp pp
-5.0000000000000000e+00 5.0000000000000000e+00
-5.0000000000000000e+00 5.0000000000000000e+00
-5.0000000000000000e+00 5.0000000000000000e+00
ITEM: ATOMS id type xs ys zs
2 3 0.246415 0.599534 0.563016
1 1 0.169675 0.566394 0.617218
5 3 0.191439 0.575387 0.714409
4 3 0.152478 0.47094 0.59593
3 3 0.0885893 0.619811 0.596474
11 4 0.275894 0.516557 0.810111
10 2 0.270879 0.505573 0.909379
12 4 0.265864 0.494596 0.00864331
ITEM: TIMESTEP
2300
ITEM: NUMBER OF ATOMS
8
ITEM: BOX BOUNDS pp pp pp
-5.0000000000000000e+00 5.0000000000000000e+00
-5.0000000000000000e+00 5.0000000000000000e+00
-5.0000000000000000e+00 5.0000000000000000e+00
ITEM: ATOMS id type xs ys zs
2 3 0.221242 0.611069 0.562525
1 1 0.153558 0.565481 0.619678
5 3 0.175743 0.580881 0.715962
4 3 0.154142 0.467989 0.600871
3 3 0.0633369 0.602146 0.600333
11 4 0.267771 0.510043 0.815579
10 2 0.260504 0.506636 0.915259
12 4 0.253224 0.503229 0.0149379
ITEM: TIMESTEP
2350
ITEM: NUMBER OF ATOMS
8
ITEM: BOX BOUNDS pp pp pp
-5.0000000000000000e+00 5.0000000000000000e+00
-5.0000000000000000e+00 5.0000000000000000e+00
-5.0000000000000000e+00 5.0000000000000000e+00
ITEM: ATOMS id type xs ys zs
2 3 0.193407 0.620442 0.560705
1 1 0.136766 0.564782 0.620861
5 3 0.157173 0.587615 0.716055
4 3 0.155836 0.468609 0.605177
3 3 0.0408499 0.582693 0.602463
11 4 0.257542 0.503957 0.820033
10 2 0.249145 0.506705 0.919642
12 4 0.240746 0.509451 0.0192585
ITEM: TIMESTEP
2400
ITEM: NUMBER OF ATOMS
8
ITEM: BOX BOUNDS pp pp pp
-5.0000000000000000e+00 5.0000000000000000e+00
-5.0000000000000000e+00 5.0000000000000000e+00
-5.0000000000000000e+00 5.0000000000000000e+00
ITEM: ATOMS id type xs ys zs
2 3 0.165937 0.626354 0.558819
1 1 0.121904 0.56272 0.62157
5 3 0.138127 0.592441 0.715667
4 3 0.159517 0.47173 0.608745
3 3 0.024197 0.560677 0.603991
11 4 0.245596 0.499589 0.825833
10 2 0.237607 0.508747 0.925088
12 4 0.229611 0.51791 0.0243449
ITEM: TIMESTEP
2450
ITEM: NUMBER OF ATOMS
8
ITEM: BOX BOUNDS pp pp pp
-5.0000000000000000e+00 5.0000000000000000e+00
-5.0000000000000000e+00 5.0000000000000000e+00
-5.0000000000000000e+00 5.0000000000000000e+00
ITEM: ATOMS id type xs ys zs
2 3 0.139774 0.629854 0.557672
1 1 0.108623 0.560691 0.622252
5 3 0.117885 0.5958 0.715433
4 3 0.163525 0.478562 0.612319
3 3 0.0133802 0.53891 0.604512
11 4 0.234639 0.495949 0.831598
10 2 0.228233 0.511427 0.930189
12 4 0.221809 0.526901 0.0287732
ITEM: TIMESTEP
2500
ITEM: NUMBER OF ATOMS
8
ITEM: BOX BOUNDS pp pp pp
-5.0000000000000000e+00 5.0000000000000000e+00
-5.0000000000000000e+00 5.0000000000000000e+00
-5.0000000000000000e+00 5.0000000000000000e+00
ITEM: ATOMS id type xs ys zs
2 3 0.113775 0.629438 0.554607
1 1 0.096577 0.558781 0.622702
5 3 0.100042 0.599286 0.714073
4 3 0.165666 0.487831 0.615418
3 3 0.00687346 0.518965 0.607626
11 4 0.222641 0.490748 0.83788
10 2 0.220021 0.513841 0.935139
12 4 0.217403 0.536929 0.0324062
ITEM: TIMESTEP
2550
ITEM: NUMBER OF ATOMS
8
ITEM: BOX BOUNDS pp pp pp
-5.0000000000000000e+00 5.0000000000000000e+00
-5.0000000000000000e+00 5.0000000000000000e+00
-5.0000000000000000e+00 5.0000000000000000e+00
ITEM: ATOMS id type xs ys zs
2 3 0.0872097 0.626121 0.550657
1 1 0.0850151 0.556827 0.622206
5 3 0.0834909 0.601562 0.711622
4 3 0.165649 0.499276 0.615461
3 3 0.003689 0.50078 0.611955
11 4 0.206049 0.4857 0.845023
10 2 0.210644 0.516536 0.940043
12 4 0.215232 0.547372 0.0350521
ITEM: TIMESTEP
2600
ITEM: NUMBER OF ATOMS
8
ITEM: BOX BOUNDS pp pp pp
-5.0000000000000000e+00 5.0000000000000000e+00
-5.0000000000000000e+00 5.0000000000000000e+00
-5.0000000000000000e+00 5.0000000000000000e+00
ITEM: ATOMS id type xs ys zs
2 3 0.0598813 0.617564 0.54504
1 1 0.0736616 0.554242 0.620714
5 3 0.0662188 0.603884 0.707208
4 3 0.163788 0.513138 0.61391
3 3 0.00467592 0.482896 0.617576
11 4 0.192641 0.479773 0.853135
10 2 0.201942 0.518753 0.944752
12 4 0.211239 0.55774 0.0363777
ITEM: TIMESTEP
2650
ITEM: NUMBER OF ATOMS
8
ITEM: BOX BOUNDS pp pp pp
-5.0000000000000000e+00 5.0000000000000000e+00
-5.0000000000000000e+00 5.0000000000000000e+00
-5.0000000000000000e+00 5.0000000000000000e+00
ITEM: ATOMS id type xs ys zs
2 3 0.0341124 0.604266 0.539036
1 1 0.0618685 0.551255 0.618696
5 3 0.048873 0.606214 0.701226
4 3 0.157601 0.526214 0.610464
3 3 0.00676089 0.468881 0.624879
11 4 0.182223 0.473869 0.862885
10 2 0.194538 0.522059 0.949644
12 4 0.206842 0.570248 0.0363946
ITEM: TIMESTEP
2700
ITEM: NUMBER OF ATOMS
8
ITEM: BOX BOUNDS pp pp pp
-5.0000000000000000e+00 5.0000000000000000e+00
-5.0000000000000000e+00 5.0000000000000000e+00
-5.0000000000000000e+00 5.0000000000000000e+00
ITEM: ATOMS id type xs ys zs
2 3 0.00995274 0.58726 0.533866
1 1 0.0494346 0.547664 0.616323
5 3 0.0312262 0.607948 0.693997
4 3 0.147513 0.537398 0.604797
3 3 0.00885313 0.458671 0.633391
11 4 0.172636 0.466927 0.875359
10 2 0.187181 0.526758 0.954155
12 4 0.20174 0.586589 0.0329584
ITEM: TIMESTEP
2750
ITEM: NUMBER OF ATOMS
8
ITEM: BOX BOUNDS pp pp pp
-5.0000000000000000e+00 5.0000000000000000e+00
-5.0000000000000000e+00 5.0000000000000000e+00
-5.0000000000000000e+00 5.0000000000000000e+00
ITEM: ATOMS id type xs ys zs
2 3 0.988265 0.569008 0.532412
1 1 0.0375752 0.544066 0.615296
5 3 0.0150873 0.608925 0.688013
4 3 0.135324 0.546448 0.598029
3 3 0.0114045 0.452523 0.643478
11 4 0.163311 0.460811 0.888504
10 2 0.181162 0.530578 0.957894
12 4 0.199008 0.600333 0.0272771
ITEM: TIMESTEP
2800
ITEM: NUMBER OF ATOMS
8
ITEM: BOX BOUNDS pp pp pp
-5.0000000000000000e+00 5.0000000000000000e+00
-5.0000000000000000e+00 5.0000000000000000e+00
-5.0000000000000000e+00 5.0000000000000000e+00
ITEM: ATOMS id type xs ys zs
2 3 0.968829 0.548651 0.53235
1 1 0.0255797 0.540313 0.613806
5 3 -0.00272373 0.608726 0.68103
4 3 0.120807 0.55501 0.58984
3 3 0.0151049 0.449548 0.652677
11 4 0.154406 0.455662 0.903142
10 2 0.176797 0.534476 0.960478
12 4 0.19919 0.613287 0.0178098
ITEM: TIMESTEP
2850
ITEM: NUMBER OF ATOMS
8
ITEM: BOX BOUNDS pp pp pp
-5.0000000000000000e+00 5.0000000000000000e+00
-5.0000000000000000e+00 5.0000000000000000e+00
-5.0000000000000000e+00 5.0000000000000000e+00
ITEM: ATOMS id type xs ys zs
2 3 0.952702 0.529606 0.533748
1 1 0.0134786 0.53696 0.612348
5 3 0.978674 0.60697 0.674689
4 3 0.10456 0.562197 0.581914
3 3 0.0176247 0.449755 0.659651
11 4 0.145478 0.452194 0.920418
10 2 0.173899 0.537662 0.963877
12 4 0.202317 0.623122 0.00733483
ITEM: TIMESTEP
2900
ITEM: NUMBER OF ATOMS
8
ITEM: BOX BOUNDS pp pp pp
-5.0000000000000000e+00 5.0000000000000000e+00
-5.0000000000000000e+00 5.0000000000000000e+00
-5.0000000000000000e+00 5.0000000000000000e+00
ITEM: ATOMS id type xs ys zs
2 3 0.940157 0.511195 0.535688
1 1 0.00221388 0.533248 0.610439
5 3 0.960541 0.603148 0.668553
4 3 0.0878447 0.567608 0.573748
3 3 0.019902 0.451762 0.664335
11 4 0.138352 0.45075 0.939479
10 2 0.172079 0.540482 0.967942
12 4 0.205815 0.630213 0.996407
ITEM: TIMESTEP
2950
ITEM: NUMBER OF ATOMS
8
ITEM: BOX BOUNDS pp pp pp
-5.0000000000000000e+00 5.0000000000000000e+00
-5.0000000000000000e+00 5.0000000000000000e+00
-5.0000000000000000e+00 5.0000000000000000e+00
ITEM: ATOMS id type xs ys zs
2 3 0.931026 0.493175 0.537692
1 1 0.990306 0.530565 0.608496
5 3 0.939612 0.598327 0.661773
4 3 0.0692241 0.573866 0.566584
3 3 0.0208636 0.457565 0.66847
11 4 0.13178 0.451213 0.961271
10 2 0.170593 0.542683 0.97252
12 4 0.20941 0.634152 0.983776
ITEM: TIMESTEP
3000
ITEM: NUMBER OF ATOMS
8
ITEM: BOX BOUNDS pp pp pp
-5.0000000000000000e+00 5.0000000000000000e+00
-5.0000000000000000e+00 5.0000000000000000e+00
-5.0000000000000000e+00 5.0000000000000000e+00
ITEM: ATOMS id type xs ys zs
2 3 0.924884 0.474865 0.540823
1 1 0.978636 0.528184 0.605573
5 3 0.918688 0.592275 0.653522
4 3 0.0489088 0.578776 0.556987
3 3 0.021456 0.467469 0.671441
11 4 0.126963 0.453326 0.985593
10 2 0.169056 0.543692 0.97766
12 4 0.211156 0.634051 0.969736
ITEM: TIMESTEP
3050
ITEM: NUMBER OF ATOMS
8
ITEM: BOX BOUNDS pp pp pp
-5.0000000000000000e+00 5.0000000000000000e+00
-5.0000000000000000e+00 5.0000000000000000e+00
-5.0000000000000000e+00 5.0000000000000000e+00
ITEM: ATOMS id type xs ys zs
2 3 0.921169 0.458151 0.544818
4 3 0.0261606 0.582302 0.547576
3 3 0.0187781 0.480051 0.673013
1 1 0.965795 0.525894 0.602661
5 3 0.896388 0.583641 0.645653
11 4 0.123074 0.458437 1.00893
10 2 0.167656 0.544258 0.983484
12 4 0.212237 0.630079 0.958045
ITEM: TIMESTEP
3100
ITEM: NUMBER OF ATOMS
8
ITEM: BOX BOUNDS pp pp pp
-5.0000000000000000e+00 5.0000000000000000e+00