ITEM: TIMESTEP
50
ITEM: NUMBER OF ATOMS
8
ITEM: BOX BOUNDS pp pp pp
-5.0000000000000000e+00 5.0000000000000000e+00
-5.0000000000000000e+00 5.0000000000000000e+00
-5.0000000000000000e+00 5.0000000000000000e+00
ITEM: ATOMS id type xs ys zs
5 3 0.501601 0.401041 0.499628
3 3 0.400263 0.499689 0.499894
1 1 0.500256 0.501029 0.500569
2 3 0.600243 0.502369 0.501233
4 3 0.498913 0.601013 0.501501
12 4 0.399152 0.498985 0.798901
10 2 0.499133 0.499912 0.800721
11 4 0.599111 0.50084 0.802533
ITEM: TIMESTEP
100
ITEM: NUMBER OF ATOMS
8
ITEM: BOX BOUNDS pp pp pp
-5.0000000000000000e+00 5.0000000000000000e+00
-5.0000000000000000e+00 5.0000000000000000e+00
-5.0000000000000000e+00 5.0000000000000000e+00
ITEM: ATOMS id type xs ys zs
5 3 0.504083 0.40301 0.500549
3 3 0.400781 0.49957 0.50238
1 1 0.500721 0.502948 0.501308
2 3 0.600659 0.506326 0.500239
4 3 0.497347 0.602892 0.502068
12 4 0.398058 0.496521 0.797262
10 2 0.497888 0.498359 0.802772
11 4 0.597728 0.500193 0.808281
ITEM: TIMESTEP
150
ITEM: NUMBER OF ATOMS
8
ITEM: BOX BOUNDS pp pp pp
-5.0000000000000000e+00 5.0000000000000000e+00
-5.0000000000000000e+00 5.0000000000000000e+00
-5.0000000000000000e+00 5.0000000000000000e+00
ITEM: ATOMS id type xs ys zs
5 3 0.506798 0.405561 0.500809
3 3 0.402677 0.501049 0.50721
1 1 0.502434 0.505465 0.501807
2 3 0.602192 0.509866 0.496406
4 3 0.498062 0.605363 0.50279
12 4 0.397124 0.493478 0.79459
10 2 0.496548 0.496042 0.804946
11 4 0.595974 0.498603 0.815302
ITEM: TIMESTEP
200
ITEM: NUMBER OF ATOMS
8
ITEM: BOX BOUNDS pp pp pp
-5.0000000000000000e+00 5.0000000000000000e+00
-5.0000000000000000e+00 5.0000000000000000e+00
-5.0000000000000000e+00 5.0000000000000000e+00
ITEM: ATOMS id type xs ys zs
5 3 0.510428 0.407928 0.501083
3 3 0.405347 0.501806 0.513183
1 1 0.504519 0.507755 0.501779
2 3 0.603688 0.513695 0.490382
4 3 0.498624 0.607576 0.502472
12 4 0.395601 0.489589 0.792033
10 2 0.494419 0.493624 0.806803
11 4 0.593244 0.497654 0.82158
ITEM: TIMESTEP
250
ITEM: NUMBER OF ATOMS
8
ITEM: BOX BOUNDS pp pp pp
-5.0000000000000000e+00 5.0000000000000000e+00
-5.0000000000000000e+00 5.0000000000000000e+00
-5.0000000000000000e+00 5.0000000000000000e+00
ITEM: ATOMS id type xs ys zs
5 3 0.512886 0.410768 0.499855
3 3 0.407901 0.503031 0.521365
1 1 0.505708 0.510483 0.501897
2 3 0.603509 0.517932 0.482424
4 3 0.49852 0.610207 0.503942
12 4 0.392373 0.484157 0.789664
10 2 0.490482 0.489751 0.808184
11 4 0.588591 0.495346 0.826704
ITEM: TIMESTEP
300
ITEM: NUMBER OF ATOMS
8
ITEM: BOX BOUNDS pp pp pp
-5.0000000000000000e+00 5.0000000000000000e+00
-5.0000000000000000e+00 5.0000000000000000e+00
-5.0000000000000000e+00 5.0000000000000000e+00
ITEM: ATOMS id type xs ys zs
5 3 0.514781 0.41425 0.49911
3 3 0.411589 0.505202 0.531957
1 1 0.506932 0.51387 0.503066
2 3 0.602274 0.522531 0.474177
4 3 0.499085 0.61348 0.507027
12 4 0.388614 0.478289 0.785952
10 2 0.485622 0.485772 0.809074
11 4 0.58263 0.49325 0.832192
ITEM: TIMESTEP
350
ITEM: NUMBER OF ATOMS
8
ITEM: BOX BOUNDS pp pp pp
-5.0000000000000000e+00 5.0000000000000000e+00
-5.0000000000000000e+00 5.0000000000000000e+00
-5.0000000000000000e+00 5.0000000000000000e+00
ITEM: ATOMS id type xs ys zs
5 3 0.514309 0.417618 0.497692
3 3 0.41617 0.507716 0.54512
1 1 0.507392 0.517094 0.505251
2 3 0.59863 0.526461 0.465393
4 3 0.500487 0.616567 0.512821
12 4 0.385613 0.473459 0.784019
10 2 0.481586 0.483021 0.810446
11 4 0.57756 0.492583 0.836873
ITEM: TIMESTEP
400
ITEM: NUMBER OF ATOMS
8
ITEM: BOX BOUNDS pp pp pp
-5.0000000000000000e+00 5.0000000000000000e+00
-5.0000000000000000e+00 5.0000000000000000e+00
-5.0000000000000000e+00 5.0000000000000000e+00
ITEM: ATOMS id type xs ys zs
5 3 0.511433 0.421558 0.496031
3 3 0.42028 0.510263 0.557839
1 1 0.50618 0.520732 0.507733
2 3 0.592081 0.531191 0.457621
4 3 0.500929 0.619899 0.519431
12 4 0.382046 0.468598 0.782827
10 2 0.477138 0.481128 0.811148
11 4 0.572223 0.493659 0.839466
ITEM: TIMESTEP
450
ITEM: NUMBER OF ATOMS
8
ITEM: BOX BOUNDS pp pp pp
-5.0000000000000000e+00 5.0000000000000000e+00
-5.0000000000000000e+00 5.0000000000000000e+00
-5.0000000000000000e+00 5.0000000000000000e+00
ITEM: ATOMS id type xs ys zs
5 3 0.506601 0.425578 0.493172
3 3 0.423379 0.511585 0.568519
1 1 0.503811 0.524036 0.510416
2 3 0.584233 0.536492 0.452306
4 3 0.501016 0.622497 0.527654
12 4 0.379218 0.464179 0.783442
10 2 0.473725 0.479921 0.812062
11 4 0.568245 0.495661 0.840683
ITEM: TIMESTEP
500
ITEM: NUMBER OF ATOMS
8
ITEM: BOX BOUNDS pp pp pp
-5.0000000000000000e+00 5.0000000000000000e+00
-5.0000000000000000e+00 5.0000000000000000e+00
-5.0000000000000000e+00 5.0000000000000000e+00
ITEM: ATOMS id type xs ys zs
5 3 0.500746 0.42862 0.490444
3 3 0.42576 0.512278 0.576331
1 1 0.501091 0.526251 0.512069
2 3 0.576411 0.540217 0.447803
4 3 0.50144 0.623881 0.533701
12 4 0.376339 0.461423 0.785958
10 2 0.470679 0.479757 0.813572
11 4 0.56503 0.4981 0.841186
ITEM: TIMESTEP
550
ITEM: NUMBER OF ATOMS
8
ITEM: BOX BOUNDS pp pp pp
-5.0000000000000000e+00 5.0000000000000000e+00
-5.0000000000000000e+00 5.0000000000000000e+00
-5.0000000000000000e+00 5.0000000000000000e+00
ITEM: ATOMS id type xs ys zs
5 3 0.496361 0.432249 0.489719
3 3 0.429135 0.513136 0.584269
1 1 0.498993 0.529093 0.514517
2 3 0.568852 0.545049 0.444758
4 3 0.501626 0.625927 0.539314
12 4 0.373357 0.462385 0.788399
10 2 0.467523 0.482189 0.815599
11 4 0.561694 0.501986 0.842795
ITEM: TIMESTEP
600
ITEM: NUMBER OF ATOMS
8
ITEM: BOX BOUNDS pp pp pp
-5.0000000000000000e+00 5.0000000000000000e+00
-5.0000000000000000e+00 5.0000000000000000e+00
-5.0000000000000000e+00 5.0000000000000000e+00
ITEM: ATOMS id type xs ys zs
5 3 0.493232 0.436258 0.492017
3 3 0.431924 0.51536 0.591932
1 1 0.496647 0.532837 0.517734
2 3 0.561358 0.550313 0.443525
4 3 0.50006 0.629417 0.54345
12 4 0.369505 0.465066 0.792306
10 2 0.464336 0.485584 0.816516
11 4 0.559163 0.506098 0.840732
ITEM: TIMESTEP
650
ITEM: NUMBER OF ATOMS
8
ITEM: BOX BOUNDS pp pp pp
-5.0000000000000000e+00 5.0000000000000000e+00
-5.0000000000000000e+00 5.0000000000000000e+00
-5.0000000000000000e+00 5.0000000000000000e+00
ITEM: ATOMS id type xs ys zs
5 3 0.489728 0.440409 0.495053
3 3 0.433809 0.518418 0.598912
1 1 0.494343 0.536746 0.521465
2 3 0.554887 0.555087 0.444014
4 3 0.498963 0.633081 0.547873
12 4 0.365755 0.465853 0.796615
10 2 0.460895 0.489274 0.816604
11 4 0.556034 0.5127 0.83658
ITEM: TIMESTEP
700
ITEM: NUMBER OF ATOMS
8
ITEM: BOX BOUNDS pp pp pp
-5.0000000000000000e+00 5.0000000000000000e+00
-5.0000000000000000e+00 5.0000000000000000e+00
-5.0000000000000000e+00 5.0000000000000000e+00
ITEM: ATOMS id type xs ys zs
5 3 0.485615 0.443195 0.501036
3 3 0.434952 0.522222 0.60681
1 1 0.49141 0.539806 0.526164
2 3 0.547856 0.55739 0.445513
4 3 0.497203 0.636429 0.551291
12 4 0.362108 0.465496 0.801378
10 2 0.457111 0.492147 0.817686
11 4 0.552102 0.518789 0.833986
ITEM: TIMESTEP
750
ITEM: NUMBER OF ATOMS
8
ITEM: BOX BOUNDS pp pp pp
-5.0000000000000000e+00 5.0000000000000000e+00
-5.0000000000000000e+00 5.0000000000000000e+00
-5.0000000000000000e+00 5.0000000000000000e+00
ITEM: ATOMS id type xs ys zs
5 3 0.480143 0.445537 0.507743
3 3 0.434022 0.526316 0.614258
1 1 0.486946 0.542562 0.530981
2 3 0.539878 0.558801 0.447704
4 3 0.493749 0.639585 0.554235
12 4 0.357393 0.467063 0.808934
10 2 0.453057 0.493891 0.82033
11 4 0.548717 0.520714 0.831736
ITEM: TIMESTEP
800
ITEM: NUMBER OF ATOMS
8
ITEM: BOX BOUNDS pp pp pp
-5.0000000000000000e+00 5.0000000000000000e+00
-5.0000000000000000e+00 5.0000000000000000e+00
-5.0000000000000000e+00 5.0000000000000000e+00
ITEM: ATOMS id type xs ys zs
5 3 0.474483 0.448432 0.514266
3 3 0.434059 0.531437 0.621394
1 1 0.482729 0.545859 0.535238
2 3 0.531401 0.560286 0.44908
4 3 0.490965 0.643297 0.556199
12 4 0.353768 0.468852 0.81847
10 2 0.449873 0.496169 0.822624
11 4 0.545974 0.523497 0.826776
ITEM: TIMESTEP
850
ITEM: NUMBER OF ATOMS
8
ITEM: BOX BOUNDS pp pp pp
-5.0000000000000000e+00 5.0000000000000000e+00
-5.0000000000000000e+00 5.0000000000000000e+00
-5.0000000000000000e+00 5.0000000000000000e+00
ITEM: ATOMS id type xs ys zs
5 3 0.468405 0.450576 0.522722
3 3 0.433394 0.538038 0.628187
1 1 0.478047 0.548716 0.539356
2 3 0.522709 0.55938 0.450519
4 3 0.487695 0.646853 0.555982
12 4 0.351928 0.469137 0.829783
10 2 0.447485 0.498014 0.82385
11 4 0.543044 0.526888 0.817922
ITEM: TIMESTEP
900
ITEM: NUMBER OF ATOMS
8
ITEM: BOX BOUNDS pp pp pp
-5.0000000000000000e+00 5.0000000000000000e+00
-5.0000000000000000e+00 5.0000000000000000e+00
-5.0000000000000000e+00 5.0000000000000000e+00
ITEM: ATOMS id type xs ys zs
5 3 0.462253 0.453703 0.533516
3 3 0.430999 0.547631 0.634513
1 1 0.472672 0.552626 0.543756
2 3 0.514352 0.557626 0.452986
4 3 0.483092 0.651556 0.553984
12 4 0.351089 0.470927 0.839115
10 2 0.445411 0.50023 0.823517
11 4 0.539743 0.529539 0.807932
ITEM: TIMESTEP
950
ITEM: NUMBER OF ATOMS
8
ITEM: BOX BOUNDS pp pp pp
-5.0000000000000000e+00 5.0000000000000000e+00
-5.0000000000000000e+00 5.0000000000000000e+00
-5.0000000000000000e+00 5.0000000000000000e+00
ITEM: ATOMS id type xs ys zs
5 3 0.456196 0.458709 0.542477
3 3 0.426241 0.557673 0.638952
1 1 0.467649 0.557897 0.547934
2 3 0.509049 0.558129 0.456905
4 3 0.4791 0.657084 0.553385
12 4 0.350427 0.47277 0.849182
10 2 0.442631 0.501357 0.823089
11 4 0.534833 0.529945 0.796995
ITEM: TIMESTEP
1000
ITEM: NUMBER OF ATOMS
8
ITEM: BOX BOUNDS pp pp pp
-5.0000000000000000e+00 5.0000000000000000e+00
-5.0000000000000000e+00 5.0000000000000000e+00
-5.0000000000000000e+00 5.0000000000000000e+00
ITEM: ATOMS id type xs ys zs
5 3 0.448776 0.464069 0.548093
3 3 0.418686 0.565828 0.641596
1 1 0.46191 0.563145 0.551457
2 3 0.50514 0.560471 0.461324
4 3 0.475055 0.662225 0.55481
12 4 0.35064 0.473346 0.859438
10 2 0.4392 0.502553 0.823314
11 4 0.527758 0.531763 0.787185
ITEM: TIMESTEP
1050
ITEM: NUMBER OF ATOMS
8
ITEM: BOX BOUNDS pp pp pp
-5.0000000000000000e+00 5.0000000000000000e+00
-5.0000000000000000e+00 5.0000000000000000e+00
-5.0000000000000000e+00 5.0000000000000000e+00
ITEM: ATOMS id type xs ys zs
5 3 0.43906 0.469953 0.553496
1 1 0.456101 0.56849 0.554305
2 3 0.503204 0.561071 0.466403
4 3 0.473132 0.667024 0.555105
3 3 0.409001 0.575921 0.642203
10 2 0.435829 0.505249 0.825269
11 4 0.519872 0.537785 0.781926
12 4 0.351778 0.472722 0.868603
ITEM: TIMESTEP
1100
ITEM: NUMBER OF ATOMS
8
ITEM: BOX BOUNDS pp pp pp
-5.0000000000000000e+00 5.0000000000000000e+00
-5.0000000000000000e+00 5.0000000000000000e+00
-5.0000000000000000e+00 5.0000000000000000e+00
ITEM: ATOMS id type xs ys zs
5 3 0.427005 0.475944 0.558
1 1 0.449671 0.573308 0.555485
2 3 0.500195 0.559347 0.470331
4 3 0.47234 0.670674 0.552976
3 3 0.399156 0.58727 0.640653
10 2 0.43189 0.508535 0.828643
11 4 0.511147 0.546358 0.780832
12 4 0.352625 0.470711 0.876466
ITEM: TIMESTEP
1150
ITEM: NUMBER OF ATOMS
8
ITEM: BOX BOUNDS pp pp pp
-5.0000000000000000e+00 5.0000000000000000e+00
-5.0000000000000000e+00 5.0000000000000000e+00
-5.0000000000000000e+00 5.0000000000000000e+00
ITEM: ATOMS id type xs ys zs
5 3 0.415924 0.481215 0.56254
1 1 0.442359 0.577464 0.556465
2 3 0.494864 0.557824 0.473656
4 3 0.468794 0.673712 0.55039
3 3 0.389852 0.597111 0.639266
10 2 0.427484 0.510146 0.830858
11 4 0.500492 0.553862 0.778336
12 4 0.354466 0.466443 0.883367
ITEM: TIMESTEP
1200
ITEM: NUMBER OF ATOMS
8
ITEM: BOX BOUNDS pp pp pp
-5.0000000000000000e+00 5.0000000000000000e+00
-5.0000000000000000e+00 5.0000000000000000e+00
-5.0000000000000000e+00 5.0000000000000000e+00
ITEM: ATOMS id type xs ys zs
5 3 0.405279 0.485871 0.567882
1 1 0.435282 0.580666 0.557186
2 3 0.489187 0.554562 0.477104
4 3 0.465293 0.675455 0.546484
3 3 0.381371 0.606767 0.637256
10 2 0.423293 0.512033 0.833337
11 4 0.488775 0.563267 0.777769
12 4 0.357819 0.460797 0.888906
ITEM: TIMESTEP
1250
ITEM: NUMBER OF ATOMS
8
ITEM: BOX BOUNDS pp pp pp
-5.0000000000000000e+00 5.0000000000000000e+00
-5.0000000000000000e+00 5.0000000000000000e+00
-5.0000000000000000e+00 5.0000000000000000e+00
ITEM: ATOMS id type xs ys zs
5 3 0.396534 0.490628 0.573992
1 1 0.429484 0.583817 0.55887
2 3 0.485699 0.551582 0.48271
4 3 0.462436 0.677015 0.543759
3 3 0.37326 0.616049 0.635031
10 2 0.418734 0.513018 0.835497
11 4 0.47779 0.569623 0.777978
12 4 0.359665 0.456411 0.893006
ITEM: TIMESTEP
1300
ITEM: NUMBER OF ATOMS
8
ITEM: BOX BOUNDS pp pp pp
-5.0000000000000000e+00 5.0000000000000000e+00
-5.0000000000000000e+00 5.0000000000000000e+00
-5.0000000000000000e+00 5.0000000000000000e+00
ITEM: ATOMS id type xs ys zs
5 3 0.38674 0.494584 0.57831
1 1 0.42353 0.585861 0.560536
2 3 0.481523 0.5484 0.488183
4 3 0.460318 0.677138 0.54276
3 3 0.365531 0.623325 0.632877
10 2 0.412799 0.514978 0.836186
11 4 0.464585 0.57739 0.777672
12 4 0.361002 0.452582 0.894693
ITEM: TIMESTEP
1350
ITEM: NUMBER OF ATOMS
8
ITEM: BOX BOUNDS pp pp pp
-5.0000000000000000e+00 5.0000000000000000e+00
-5.0000000000000000e+00 5.0000000000000000e+00
-5.0000000000000000e+00 5.0000000000000000e+00
ITEM: ATOMS id type xs ys zs
5 3 0.378534 0.49898 0.585408
1 1 0.416633 0.588697 0.563074
2 3 0.476402 0.546372 0.494991
4 3 0.454726 0.678421 0.540755
3 3 0.356863 0.631026 0.631164
10 2 0.406695 0.517825 0.836733
11 4 0.450929 0.58536 0.777732
12 4 0.362443 0.450293 0.895736
ITEM: TIMESTEP
1400
ITEM: NUMBER OF ATOMS
8
ITEM: BOX BOUNDS pp pp pp
-5.0000000000000000e+00 5.0000000000000000e+00
-5.0000000000000000e+00 5.0000000000000000e+00
-5.0000000000000000e+00 5.0000000000000000e+00
ITEM: ATOMS id type xs ys zs
5 3 0.370256 0.502937 0.594686
1 1 0.4095 0.590564 0.56673
2 3 0.469722 0.54312 0.502527
4 3 0.44875 0.678196 0.538777
3 3 0.34927 0.638026 0.630927
10 2 0.400724 0.52006 0.83745
11 4 0.438164 0.592836 0.779977
12 4 0.363295 0.447294 0.89493
ITEM: TIMESTEP
1450
ITEM: NUMBER OF ATOMS
8
ITEM: BOX BOUNDS pp pp pp
-5.0000000000000000e+00 5.0000000000000000e+00
-5.0000000000000000e+00 5.0000000000000000e+00
-5.0000000000000000e+00 5.0000000000000000e+00
ITEM: ATOMS id type xs ys zs
5 3 0.361886 0.50773 0.605416
1 1 0.402831 0.592242 0.571041
2 3 0.461963 0.538963 0.5105
4 3 0.443779 0.676751 0.536665
3 3 0.34371 0.645525 0.631585
10 2 0.395594 0.522061 0.837682
11 4 0.427237 0.5997 0.783193
12 4 0.363959 0.444411 0.892179
ITEM: TIMESTEP
1500
ITEM: NUMBER OF ATOMS
8
ITEM: BOX BOUNDS pp pp pp
-5.0000000000000000e+00 5.0000000000000000e+00
-5.0000000000000000e+00 5.0000000000000000e+00
-5.0000000000000000e+00 5.0000000000000000e+00
ITEM: ATOMS id type xs ys zs
5 3 0.353066 0.51389 0.61775
1 1 0.396518 0.593631 0.57588
2 3 0.45247 0.533293 0.51905
4 3 0.439981 0.673364 0.534007
3 3 0.340566 0.653958 0.632716
10 2 0.390959 0.523175 0.838557
11 4 0.415001 0.604053 0.784897
12 4 0.366917 0.442291 0.892214
ITEM: TIMESTEP
1550
ITEM: NUMBER OF ATOMS
8
ITEM: BOX BOUNDS pp pp pp
-5.0000000000000000e+00 5.0000000000000000e+00
-5.0000000000000000e+00 5.0000000000000000e+00
-5.0000000000000000e+00 5.0000000000000000e+00
ITEM: ATOMS id type xs ys zs
5 3 0.342937 0.521339 0.631846
1 1 0.388325 0.594664 0.581211
2 3 0.439769 0.526702 0.528911
4 3 0.433707 0.667983 0.530578
3 3 0.336874 0.662613 0.633516
10 2 0.386446 0.52304 0.840165
11 4 0.400917 0.604099 0.783424
12 4 0.371971 0.441989 0.896911
ITEM: TIMESTEP
1600
ITEM: NUMBER OF ATOMS
8
ITEM: BOX BOUNDS pp pp pp
-5.0000000000000000e+00 5.0000000000000000e+00
-5.0000000000000000e+00 5.0000000000000000e+00
-5.0000000000000000e+00 5.0000000000000000e+00
ITEM: ATOMS id type xs ys zs
5 3 0.328398 0.53078 0.643921
1 1 0.379932 0.595191 0.5874
2 3 0.424336 0.518699 0.540717
4 3 0.431472 0.659601 0.530865
3 3 0.335544 0.671674 0.634079
10 2 0.381466 0.521784 0.842024
11 4 0.385958 0.601726 0.78212
12 4 0.376969 0.441831 0.901916
ITEM: TIMESTEP
1650
ITEM: NUMBER OF ATOMS
8
ITEM: BOX BOUNDS pp pp pp
-5.0000000000000000e+00 5.0000000000000000e+00
-5.0000000000000000e+00 5.0000000000000000e+00
-5.0000000000000000e+00 5.0000000000000000e+00
ITEM: ATOMS id type xs ys zs
5 3 0.315769 0.540443 0.653466
1 1 0.371317 0.596016 0.591608
2 3 0.409342 0.512882 0.551067
4 3 0.426854 0.651585 0.529744
3 3 0.333286 0.679149 0.632154
10 2 0.375144 0.521464 0.845679
11 4 0.369834 0.599954 0.783943
12 4 0.38044 0.442965 0.907412
ITEM: TIMESTEP
1700
ITEM: NUMBER OF ATOMS
8
ITEM: BOX BOUNDS pp pp pp
-5.0000000000000000e+00 5.0000000000000000e+00
-5.0000000000000000e+00 5.0000000000000000e+00
-5.0000000000000000e+00 5.0000000000000000e+00
ITEM: ATOMS id type xs ys zs
5 3 0.303442 0.551713 0.663638
1 1 0.360655 0.597744 0.595759
2 3 0.391732 0.50898 0.561766
4 3 0.417879 0.643771 0.527878
3 3 0.329578 0.686509 0.629749
10 2 0.368079 0.52189 0.849965
11 4 0.351936 0.597525 0.786575
12 4 0.384222 0.446251 0.913355
ITEM: TIMESTEP
1750
ITEM: NUMBER OF ATOMS
8
ITEM: BOX BOUNDS pp pp pp
-5.0000000000000000e+00 5.0000000000000000e+00
-5.0000000000000000e+00 5.0000000000000000e+00
-5.0000000000000000e+00 5.0000000000000000e+00
ITEM: ATOMS id type xs ys zs
5 3 0.28905 0.566471 0.672831
1 1 0.348564 0.600837 0.600186
2 3 0.371581 0.506943 0.574623
4 3 0.408083 0.635201 0.527547
3 3 0.325555 0.694737 0.625755
10 2 0.360385 0.520549 0.85368
11 4 0.333995 0.592319 0.78923
12 4 0.386763 0.44878 0.918122
ITEM: TIMESTEP
1800
ITEM: NUMBER OF ATOMS
8
ITEM: BOX BOUNDS pp pp pp
-5.0000000000000000e+00 5.0000000000000000e+00
-5.0000000000000000e+00 5.0000000000000000e+00
-5.0000000000000000e+00 5.0000000000000000e+00
ITEM: ATOMS id type xs ys zs
5 3 0.274154 0.582381 0.679775
1 1 0.336263 0.603433 0.604275
2 3 0.349293 0.50567 0.587746
4 3 0.39836 0.624479 0.528771
3 3 0.323224 0.701192 0.620809
10 2 0.351822 0.519011 0.858416
11 4 0.317512 0.586917 0.793527
12 4 0.386138 0.451099 0.923308
ITEM: TIMESTEP
1850
ITEM: NUMBER OF ATOMS
8
ITEM: BOX BOUNDS pp pp pp
-5.0000000000000000e+00 5.0000000000000000e+00
-5.0000000000000000e+00 5.0000000000000000e+00
-5.0000000000000000e+00 5.0000000000000000e+00
ITEM: ATOMS id type xs ys zs
5 3 0.260744 0.598653 0.685249
1 1 0.323369 0.605705 0.607609
2 3 0.326919 0.505963 0.601416
4 3 0.385988 0.612763 0.529972
3 3 0.319803 0.705452 0.613801
10 2 0.343201 0.517082 0.863705
11 4 0.301444 0.581137 0.799254
12 4 0.384963 0.45303 0.928151
ITEM: TIMESTEP
1900
ITEM: NUMBER OF ATOMS
8
ITEM: BOX BOUNDS pp pp pp
-5.0000000000000000e+00 5.0000000000000000e+00
-5.0000000000000000e+00 5.0000000000000000e+00
-5.0000000000000000e+00 5.0000000000000000e+00
ITEM: ATOMS id type xs ys zs
5 3 0.248632 0.616416 0.688252
1 1 0.309757 0.60824 0.609531
2 3 0.3027 0.508611 0.614397
4 3 0.370882 0.600069 0.530806
3 3 0.316807 0.707877 0.60466
10 2 0.335022 0.515956 0.868902
11 4 0.285848 0.575632 0.805488
12 4 0.384189 0.456288 0.932317
ITEM: TIMESTEP
1950
ITEM: NUMBER OF ATOMS
8
ITEM: BOX BOUNDS pp pp pp
-5.0000000000000000e+00 5.0000000000000000e+00
-5.0000000000000000e+00 5.0000000000000000e+00
-5.0000000000000000e+00 5.0000000000000000e+00
ITEM: ATOMS id type xs ys zs
5 3 0.237834 0.635316 0.688713
1 1 0.295473 0.611272 0.610602
2 3 0.277522 0.514312 0.627222
4 3 0.3531 0.587223 0.532498
3 3 0.313424 0.708229 0.593986
10 2 0.324898 0.513774 0.874301
11 4 0.271698 0.569437 0.810501
12 4 0.378096 0.45811 0.938106
ITEM: TIMESTEP
2000
ITEM: NUMBER OF ATOMS
8
ITEM: BOX BOUNDS pp pp pp
-5.0000000000000000e+00 5.0000000000000000e+00
-5.0000000000000000e+00 5.0000000000000000e+00
-5.0000000000000000e+00 5.0000000000000000e+00
ITEM: ATOMS id type xs ys zs
5 3 0.226487 0.654543 0.686823
1 1 0.280122 0.614825 0.612345
2 3 0.248982 0.523507 0.63862
4 3 0.333757 0.575113 0.537873
3 3 0.311263 0.706155 0.586072
10 2 0.313855 0.511345 0.879864
11 4 0.259921 0.563565 0.813802
12 4 0.367776 0.459117 0.945928
ITEM: TIMESTEP
2050
ITEM: NUMBER OF ATOMS
8
ITEM: BOX BOUNDS pp pp pp
-5.0000000000000000e+00 5.0000000000000000e+00
-5.0000000000000000e+00 5.0000000000000000e+00
-5.0000000000000000e+00 5.0000000000000000e+00
ITEM: ATOMS id type xs ys zs
4 3 0.313564 0.563268 0.54529
2 3 0.219719 0.536352 0.647608
5 3 0.217432 0.673599 0.681615
1 1 0.265495 0.618432 0.613458
3 3 0.311276 0.700518 0.579308
11 4 0.248879 0.557783 0.816008
10 2 0.302292 0.50973 0.885561
12 4 0.3557 0.461663 0.955105
ITEM: TIMESTEP
2100
ITEM: NUMBER OF ATOMS
8
ITEM: BOX BOUNDS pp pp pp
-5.0000000000000000e+00 5.0000000000000000e+00
-5.0000000000000000e+00 5.0000000000000000e+00
-5.0000000000000000e+00 5.0000000000000000e+00
ITEM: ATOMS id type xs ys zs
4 3 0.291845 0.551438 0.555067
2 3 0.192856 0.551401 0.65607
5 3 0.210581 0.690623 0.673508
1 1 0.251215 0.621029 0.614282
3 3 0.309581 0.690664 0.572503
11 4 0.237978 0.552593 0.819925
10 2 0.29148 0.509526 0.892609
12 4 0.344981 0.466451 0.965284
ITEM: TIMESTEP
2150
ITEM: NUMBER OF ATOMS
8
ITEM: BOX BOUNDS pp pp pp
-5.0000000000000000e+00 5.0000000000000000e+00
-5.0000000000000000e+00 5.0000000000000000e+00
-5.0000000000000000e+00 5.0000000000000000e+00
ITEM: ATOMS id type xs ys zs
4 3 0.268388 0.541741 0.568072
2 3 0.167245 0.567442 0.663514
5 3 0.20327 0.704193 0.664881
1 1 0.235827 0.622965 0.616477
3 3 0.304412 0.678486 0.569441
11 4 0.227787 0.548257 0.825485
10 2 0.281068 0.509148 0.900527
12 4 0.334339 0.470037 0.975569
ITEM: TIMESTEP
2200
ITEM: NUMBER OF ATOMS
8
ITEM: BOX BOUNDS pp pp pp
-5.0000000000000000e+00 5.0000000000000000e+00
-5.0000000000000000e+00 5.0000000000000000e+00
-5.0000000000000000e+00 5.0000000000000000e+00
ITEM: ATOMS id type xs ys zs
4 3 0.243262 0.533574 0.582788
2 3 0.142025 0.583893 0.66776
5 3 0.195287 0.714186 0.654039
1 1 0.219271 0.623876 0.618417
3 3 0.296514 0.663861 0.56907
11 4 0.217006 0.54099 0.830044
10 2 0.270917 0.508567 0.907765
12 4 0.324845 0.476144 0.98549
ITEM: TIMESTEP
2250
ITEM: NUMBER OF ATOMS
8
ITEM: BOX BOUNDS pp pp pp
-5.0000000000000000e+00 5.0000000000000000e+00
-5.0000000000000000e+00 5.0000000000000000e+00
-5.0000000000000000e+00 5.0000000000000000e+00
ITEM: ATOMS id type xs ys zs
4 3 0.21795 0.528195 0.596128
2 3 0.120423 0.599005 0.670114
5 3 0.188834 0.720089 0.644401
1 1 0.203391 0.624134 0.620257
3 3 0.286364 0.649267 0.570409
11 4 0.208755 0.535036 0.833922
10 2 0.261721 0.509936 0.914948
12 4 0.314685 0.484844 0.995971
ITEM: TIMESTEP
2300
ITEM: NUMBER OF ATOMS
8
ITEM: BOX BOUNDS pp pp pp
-5.0000000000000000e+00 5.0000000000000000e+00
-5.0000000000000000e+00 5.0000000000000000e+00
-5.0000000000000000e+00 5.0000000000000000e+00
ITEM: ATOMS id type xs ys zs
4 3 0.192079 0.525595 0.60991
2 3 0.101136 0.613785 0.672769
5 3 0.182262 0.723638 0.636002
1 1 0.187172 0.624613 0.622961
3 3 0.273201 0.635436 0.573142
11 4 0.198264 0.529386 0.837987
10 2 0.250833 0.511278 0.921112
12 4 0.303391 0.49317 0.00423594
ITEM: TIMESTEP
2350
ITEM: NUMBER OF ATOMS
8
ITEM: BOX BOUNDS pp pp pp
-5.0000000000000000e+00 5.0000000000000000e+00
-5.0000000000000000e+00 5.0000000000000000e+00
-5.0000000000000000e+00 5.0000000000000000e+00
ITEM: ATOMS id type xs ys zs
4 3 0.167785 0.525522 0.624902
2 3 0.0824831 0.628326 0.671314
5 3 0.173832 0.725423 0.624129
1 1 0.170806 0.625474 0.624514
3 3 0.259135 0.622625 0.577716
11 4 0.185158 0.524193 0.842428
10 2 0.238966 0.511625 0.925777
12 4 0.292772 0.499053 0.00913468
ITEM: TIMESTEP
2400
ITEM: NUMBER OF ATOMS
8
ITEM: BOX BOUNDS pp pp pp
-5.0000000000000000e+00 5.0000000000000000e+00
-5.0000000000000000e+00 5.0000000000000000e+00
-5.0000000000000000e+00 5.0000000000000000e+00
ITEM: ATOMS id type xs ys zs
4 3 0.1474 0.526637 0.639929
2 3 0.0666703 0.639351 0.667808
5 3 0.165042 0.723793 0.611292
1 1 0.15622 0.625213 0.625607
3 3 0.245767 0.611068 0.58341
11 4 0.170498 0.520718 0.849224
10 2 0.226922 0.513943 0.931504
12 4 0.283339 0.507173 0.0137862
ITEM: TIMESTEP
2450
ITEM: NUMBER OF ATOMS
8
ITEM: BOX BOUNDS pp pp pp
-5.0000000000000000e+00 5.0000000000000000e+00
-5.0000000000000000e+00 5.0000000000000000e+00
-5.0000000000000000e+00 5.0000000000000000e+00
ITEM: ATOMS id type xs ys zs
4 3 0.129212 0.530453 0.656723
2 3 0.0543326 0.650143 0.664917
5 3 0.157326 0.719244 0.596977
1 1 0.143275 0.624855 0.626847
3 3 0.232213 0.599562 0.588777
11 4 0.158719 0.517506 0.855646
10 2 0.217045 0.516897 0.936884
12 4 0.275352 0.516284 0.0181158
ITEM: TIMESTEP
2500
ITEM: NUMBER OF ATOMS
8
ITEM: BOX BOUNDS pp pp pp
-5.0000000000000000e+00 5.0000000000000000e+00
-5.0000000000000000e+00 5.0000000000000000e+00
-5.0000000000000000e+00 5.0000000000000000e+00
ITEM: ATOMS id type xs ys zs
4 3 0.111326 0.535977 0.669789
2 3 0.0444291 0.660287 0.661247
5 3 0.151919 0.712949 0.585928
1 1 0.13162 0.62446 0.627853
3 3 0.218806 0.588637 0.594457
11 4 0.148752 0.512092 0.862151
10 2 0.208331 0.519585 0.942112
12 4 0.267912 0.527072 0.0220811
ITEM: TIMESTEP
2550
ITEM: NUMBER OF ATOMS
8
ITEM: BOX BOUNDS pp pp pp
-5.0000000000000000e+00 5.0000000000000000e+00
-5.0000000000000000e+00 5.0000000000000000e+00
-5.0000000000000000e+00 5.0000000000000000e+00
ITEM: ATOMS id type xs ys zs
4 3 0.0916094 0.541936 0.677129
2 3 0.0363078 0.670334 0.65576
5 3 0.149397 0.706226 0.578798
1 1 0.120503 0.624084 0.627964
3 3 0.204696 0.577836 0.600184
11 4 0.136002 0.50677 0.870799
10 2 0.198455 0.522551 0.947292
12 4 0.260902 0.538333 0.0237751
ITEM: TIMESTEP
2600
ITEM: NUMBER OF ATOMS
8
ITEM: BOX BOUNDS pp pp pp
-5.0000000000000000e+00 5.0000000000000000e+00
-5.0000000000000000e+00 5.0000000000000000e+00
-5.0000000000000000e+00 5.0000000000000000e+00
ITEM: ATOMS id type xs ys zs
4 3 0.0710903 0.548211 0.680937
2 3 0.0288969 0.678707 0.646459
5 3 0.148732 0.698305 0.573967
1 1 0.109908 0.623251 0.627457
3 3 0.190921 0.567801 0.608448
11 4 0.125483 0.500306 0.879329
10 2 0.189257 0.525039 0.952277
12 4 0.253027 0.54978 0.0252327
ITEM: TIMESTEP
2650
ITEM: NUMBER OF ATOMS
8
ITEM: BOX BOUNDS pp pp pp
-5.0000000000000000e+00 5.0000000000000000e+00
-5.0000000000000000e+00 5.0000000000000000e+00
-5.0000000000000000e+00 5.0000000000000000e+00
ITEM: ATOMS id type xs ys zs
4 3 0.0511645 0.555919 0.684475
2 3 0.0216147 0.684909 0.634607
5 3 0.146635 0.688017 0.568571
1 1 0.0988977 0.621966 0.626525
3 3 0.176173 0.559014 0.618442
11 4 0.118292 0.493334 0.888309
10 2 0.18136 0.528615 0.957442
12 4 0.244416 0.563894 0.0265674
ITEM: TIMESTEP
2700
ITEM: NUMBER OF ATOMS
8
ITEM: BOX BOUNDS pp pp pp
-5.0000000000000000e+00 5.0000000000000000e+00
-5.0000000000000000e+00 5.0000000000000000e+00
-5.0000000000000000e+00 5.0000000000000000e+00
ITEM: ATOMS id type xs ys zs
4 3 0.0316049 0.563382 0.685882
2 3 0.0150497 0.689068 0.623212
5 3 0.143026 0.676578 0.564334
1 1 0.0873117 0.619982 0.625105
3 3 0.15959 0.550892 0.627009
11 4 0.112088 0.485245 0.899856
10 2 0.173512 0.533581 0.962226
12 4 0.234949 0.581918 0.0246038
ITEM: TIMESTEP
2750
ITEM: NUMBER OF ATOMS
8
ITEM: BOX BOUNDS pp pp pp
-5.0000000000000000e+00 5.0000000000000000e+00
-5.0000000000000000e+00 5.0000000000000000e+00
-5.0000000000000000e+00 5.0000000000000000e+00
ITEM: ATOMS id type xs ys zs
4 3 0.0130143 0.571262 0.687127
2 3 0.0102251 0.692112 0.613701
5 3 0.139277 0.664274 0.562987
1 1 0.0761425 0.617771 0.625053
3 3 0.142063 0.543435 0.636406
11 4 0.108267 0.477824 0.911744
10 2 0.167004 0.537668 0.966236
12 4 0.225736 0.5975 0.0207212
ITEM: TIMESTEP
2800
ITEM: NUMBER OF ATOMS
8
ITEM: BOX BOUNDS pp pp pp
-5.0000000000000000e+00 5.0000000000000000e+00
-5.0000000000000000e+00 5.0000000000000000e+00
-5.0000000000000000e+00 5.0000000000000000e+00
ITEM: ATOMS id type xs ys zs
4 3 -0.00529301 0.577952 0.68518
2 3 0.00620022 0.694449 0.605833
5 3 0.13459 0.652955 0.563497
1 1 0.064652 0.615449 0.624337
3 3 0.123103 0.536454 0.642839
11 4 0.106895 0.471241 0.924774
10 2 0.162153 0.541831 0.969089
12 4 0.217412 0.612417 0.0134017
ITEM: TIMESTEP
2850
ITEM: NUMBER OF ATOMS
8
ITEM: BOX BOUNDS pp pp pp
-5.0000000000000000e+00 5.0000000000000000e+00
-5.0000000000000000e+00 5.0000000000000000e+00
-5.0000000000000000e+00 5.0000000000000000e+00
ITEM: ATOMS id type xs ys zs
4 3 0.976411 0.585008 0.681557
2 3 0.00339562 0.696797 0.59924
5 3 0.129361 0.641838 0.565896
1 1 0.0528883 0.613425 0.623728
3 3 0.102388 0.530053 0.648216
11 4 0.106469 0.466433 0.940373
10 2 0.158771 0.545281 0.972757
12 4 0.211068 0.624121 0.00513894
ITEM: TIMESTEP
2900
ITEM: NUMBER OF ATOMS
8
ITEM: BOX BOUNDS pp pp pp
-5.0000000000000000e+00 5.0000000000000000e+00
-5.0000000000000000e+00 5.0000000000000000e+00
-5.0000000000000000e+00 5.0000000000000000e+00
ITEM: ATOMS id type xs ys zs
4 3 0.960507 0.589939 0.676696
2 3 0.00173103 0.6979 0.595188
5 3 0.123675 0.631356 0.568711
1 1 0.0420906 0.610651 0.62271
3 3 0.0824551 0.523394 0.650224
11 4 0.108076 0.463115 0.957339
10 2 0.156469 0.548364 0.977089
12 4 0.204871 0.633611 -0.00315855
ITEM: TIMESTEP
2950
ITEM: NUMBER OF ATOMS
8
ITEM: BOX BOUNDS pp pp pp
-5.0000000000000000e+00 5.0000000000000000e+00
-5.0000000000000000e+00 5.0000000000000000e+00
-5.0000000000000000e+00 5.0000000000000000e+00
ITEM: ATOMS id type xs ys zs
4 3 0.945309 0.594921 0.672077
2 3 0.998684 0.698674 0.592157
5 3 0.116139 0.622574 0.571809
1 1 0.0307248 0.60875 0.621945
3 3 0.0627576 0.518818 0.651725
11 4 0.11018 0.461329 0.976901
10 2 0.154504 0.550826 0.981933
12 4 0.198833 0.640323 0.986971
ITEM: TIMESTEP
3000
ITEM: NUMBER OF ATOMS
8
ITEM: BOX BOUNDS pp pp pp
-5.0000000000000000e+00 5.0000000000000000e+00
-5.0000000000000000e+00 5.0000000000000000e+00
-5.0000000000000000e+00 5.0000000000000000e+00
ITEM: ATOMS id type xs ys zs
4 3 0.932117 0.599019 0.667849
2 3 0.994034 0.699088 0.589417
5 3 0.106846 0.615612 0.571966
1 1 0.0194811 0.607313 0.619907
3 3 0.0449318 0.515542 0.650397
11 4 0.113836 0.460575 0.99877
10 2 0.152491 0.552094 0.987337
12 4 0.191151 0.643608 0.975912
ITEM: TIMESTEP
3050
ITEM: NUMBER OF ATOMS
8
ITEM: BOX BOUNDS pp pp pp
-5.0000000000000000e+00 5.0000000000000000e+00
-5.0000000000000000e+00 5.0000000000000000e+00
-5.0000000000000000e+00 5.0000000000000000e+00
ITEM: ATOMS id type xs ys zs
11 4 0.117454 0.462141 0.0194793
3 3 0.0265107 0.512169 0.647846
5 3 0.0960377 0.609548 0.572467
1 1 0.00701954 0.605553 0.61785
4 3 0.917998 0.601558 0.663229
2 3 0.987534 0.698936 0.587848
10 2 0.150421 0.552878 0.993388
12 4 0.183396 0.643607 0.967298
ITEM: TIMESTEP
3100
ITEM: NUMBER OF ATOMS
8
ITEM: BOX BOUNDS pp pp pp
-5.0000000000000000e+00 5.0000000000000000e+00
-5.0000000000000000e+00 5.0000000000000000e+00