ITEM: TIMESTEP
0
ITEM: NUMBER OF ATOMS
29
ITEM: BOX BOUNDS pp pp pp
-5.0000000000000000e+00 5.0000000000000000e+00
-5.0000000000000000e+00 5.0000000000000000e+00
-5.0000000000000000e+00 5.0000000000000000e+00
ITEM: ATOMS id type xs ys zs
7 4 0.426259 0.388766 0.0410238
6 2 0.496309 0.457729 0.0593856
8 4 0.566358 0.526693 0.0777474
28 4 0.0280103 0.999001 0.209667
14 4 0.531437 0.455068 0.275413
12 2 0.631252 0.44971 0.272543
13 4 0.731067 0.444351 0.269673
10 4 0.186148 0.597366 0.262894
27 2 0.0104157 0.0568388 0.289324
11 4 0.00217913 0.622281 0.337288
9 2 0.0941637 0.609823 0.300091
29 4 0.992821 0.114676 0.368981
25 4 0.592718 0.220373 0.412125
24 2 0.541339 0.280566 0.473256
26 4 0.48996 0.340759 0.534386
16 4 0.720216 0.425778 0.573072
17 4 0.536576 0.484272 0.626501
15 2 0.628396 0.455025 0.599787
23 4 0.798952 0.766475 0.64197
21 2 0.772814 0.688207 0.698459
2 3 0.342718 0.583068 0.772389
22 4 0.746677 0.609939 0.754948
19 4 0.122502 0.206752 0.835754
18 2 0.0757002 0.293617 0.819503
20 4 0.0288989 0.380482 0.803251
5 3 0.36453 0.456971 0.873131
4 3 0.241905 0.560903 0.898038
1 1 0.335847 0.552572 0.866982
3 3 0.394524 0.60839 0.924432
ITEM: TIMESTEP
500
ITEM: NUMBER OF ATOMS
29
ITEM: BOX BOUNDS pp pp pp
-5.0000000000000000e+00 5.0000000000000000e+00
-5.0000000000000000e+00 5.0000000000000000e+00
-5.0000000000000000e+00 5.0000000000000000e+00
ITEM: ATOMS id type xs ys zs
7 4 0.426452 0.388629 0.0409356
6 2 0.496182 0.457843 0.0595662
8 4 0.565913 0.527056 0.0781968
28 4 0.0282497 0.999095 0.209858
14 4 0.531363 0.455066 0.274899
12 2 0.631195 0.449785 0.272497
13 4 0.731027 0.444505 0.270095
10 4 0.186295 0.597512 0.263524
27 2 0.0102228 0.0569737 0.289389
11 4 0.0020146 0.622113 0.33725
9 2 0.0941548 0.609812 0.300387
29 4 0.992196 0.114852 0.368919
25 4 0.59249 0.219997 0.41236
24 2 0.541419 0.280391 0.47355
26 4 0.490348 0.340786 0.53474
16 4 0.720372 0.425862 0.57274
17 4 0.536851 0.484224 0.626722
15 2 0.628611 0.455043 0.599731
23 4 0.798958 0.766467 0.641869
21 2 0.772404 0.688371 0.698401
2 3 0.342558 0.58288 0.772262
22 4 0.74585 0.610275 0.754933
19 4 0.122654 0.206806 0.835311
18 2 0.0755999 0.293577 0.819289
20 4 0.0285459 0.380349 0.803267
5 3 0.364575 0.457022 0.873257
4 3 0.241603 0.560634 0.897782
1 1 0.335621 0.552527 0.866896
3 3 0.394037 0.608616 0.924346
ITEM: TIMESTEP
1000
ITEM: NUMBER OF ATOMS
29
ITEM: BOX BOUNDS pp pp pp
-5.0000000000000000e+00 5.0000000000000000e+00
-5.0000000000000000e+00 5.0000000000000000e+00
-5.0000000000000000e+00 5.0000000000000000e+00
ITEM: ATOMS id type xs ys zs
7 4 0.426301 0.38819 0.0410844
6 2 0.495411 0.457969 0.0599167
8 4 0.564522 0.527748 0.078749
28 4 0.0286252 0.999186 0.210009
14 4 0.530911 0.454907 0.273772
12 2 0.63078 0.45001 0.272249
13 4 0.730648 0.445113 0.270726
10 4 0.186483 0.597683 0.264643
27 2 0.0102332 0.0571337 0.289405
11 4 0.00140275 0.621688 0.336539
9 2 0.0939428 0.609686 0.300591
29 4 0.991841 0.115082 0.368801
25 4 0.592119 0.219485 0.412478
24 2 0.541443 0.280005 0.473873
26 4 0.490767 0.340524 0.535268
16 4 0.720686 0.425574 0.573129
17 4 0.537086 0.483991 0.626783
15 2 0.628886 0.454782 0.599956
23 4 0.799067 0.76628 0.641192
21 2 0.771557 0.688779 0.698085
2 3 0.342898 0.582714 0.772026
22 4 0.744047 0.611279 0.754979
19 4 0.123068 0.206926 0.83432
18 2 0.0756033 0.293644 0.819252
20 4 0.0281385 0.380362 0.804183
5 3 0.36447 0.45687 0.873134
4 3 0.241012 0.560119 0.896728
1 1 0.335295 0.552295 0.866587
3 3 0.393092 0.608523 0.924526
ITEM: TIMESTEP
1500
ITEM: NUMBER OF ATOMS
29
ITEM: BOX BOUNDS pp pp pp
-5.0000000000000000e+00 5.0000000000000000e+00
-5.0000000000000000e+00 5.0000000000000000e+00
-5.0000000000000000e+00 5.0000000000000000e+00
ITEM: ATOMS id type xs ys zs
7 4 0.426682 0.38756 0.0418007
6 2 0.494933 0.458295 0.0601945
8 4 0.563185 0.52903 0.0785883
28 4 0.0290381 0.999116 0.210101
14 4 0.530411 0.455155 0.272185
12 2 0.630298 0.450407 0.271754
13 4 0.730184 0.44566 0.271323
10 4 0.186389 0.597654 0.2654
27 2 0.0099555 0.0572998 0.289161
11 4 0.000376283 0.620801 0.335138
9 2 0.0933828 0.609228 0.300269
29 4 0.990873 0.115483 0.368222
25 4 0.591971 0.218978 0.412804
24 2 0.541814 0.279916 0.474211
26 4 0.491657 0.340853 0.535618
16 4 0.720989 0.424572 0.573518
17 4 0.537712 0.483929 0.627242
15 2 0.62935 0.45425 0.60038
23 4 0.799649 0.766389 0.641062
21 2 0.77096 0.689128 0.697697
2 3 0.344111 0.582272 0.771801
22 4 0.742271 0.611866 0.754333
19 4 0.123526 0.206731 0.833138
18 2 0.075696 0.293406 0.819004
20 4 0.0278656 0.38008 0.80487
5 3 0.364199 0.45654 0.873353
4 3 0.240201 0.559608 0.894809
1 1 0.334985 0.551913 0.866247
3 3 0.39172 0.608278 0.925095
ITEM: TIMESTEP
2000
ITEM: NUMBER OF ATOMS
29
ITEM: BOX BOUNDS pp pp pp
-5.0000000000000000e+00 5.0000000000000000e+00
-5.0000000000000000e+00 5.0000000000000000e+00
-5.0000000000000000e+00 5.0000000000000000e+00
ITEM: ATOMS id type xs ys zs
7 4 0.427398 0.386959 0.0426957
6 2 0.494628 0.458745 0.0607736
8 4 0.561859 0.530531 0.0788514
28 4 0.0296033 0.999372 0.209955
14 4 0.529872 0.455382 0.270717
12 2 0.629762 0.450733 0.27121
13 4 0.729653 0.446085 0.271703
10 4 0.186268 0.597838 0.266397
27 2 0.00939914 0.0576434 0.288671
11 4 -0.000725222 0.620169 0.333739
9 2 0.0927713 0.609004 0.300068
29 4 0.989195 0.115915 0.367387
25 4 0.59194 0.218493 0.413297
24 2 0.54207 0.279819 0.474551
26 4 0.4922 0.341145 0.535805
16 4 0.721661 0.42411 0.574008
17 4 0.538579 0.483685 0.628156
15 2 0.63012 0.453898 0.601082
23 4 0.800282 0.766607 0.641046
21 2 0.77057 0.689406 0.697235
2 3 0.344997 0.58115 0.77149
22 4 0.740858 0.612204 0.753423
19 4 0.124058 0.206264 0.832293
18 2 0.0760594 0.292959 0.818875
20 4 0.0280611 0.379655 0.805457
5 3 0.364103 0.45608 0.874044
4 3 0.239643 0.559014 0.893361
1 1 0.334783 0.551346 0.866001
3 3 0.390683 0.608187 0.92519
ITEM: TIMESTEP
2500
ITEM: NUMBER OF ATOMS
29
ITEM: BOX BOUNDS pp pp pp
-5.0000000000000000e+00 5.0000000000000000e+00
-5.0000000000000000e+00 5.0000000000000000e+00
-5.0000000000000000e+00 5.0000000000000000e+00
ITEM: ATOMS id type xs ys zs
7 4 0.428194 0.386471 0.043531
6 2 0.494508 0.459206 0.0611969
8 4 0.560822 0.531941 0.0788628
28 4 0.0308861 0.999647 0.20977
14 4 0.529677 0.456169 0.269871
12 2 0.629537 0.451077 0.271267
13 4 0.729398 0.445986 0.272662
10 4 0.185941 0.598693 0.26786
27 2 0.00867372 0.0581513 0.28777
11 4 -0.00238828 0.618945 0.332063
9 2 0.0917764 0.608819 0.299962
29 4 0.986461 0.116655 0.365769
25 4 0.591749 0.217988 0.413765
24 2 0.54213 0.279587 0.474949
26 4 0.49251 0.341186 0.536133
16 4 0.722341 0.424217 0.574114
17 4 0.539441 0.483076 0.629638
15 2 0.630891 0.453646 0.601876
23 4 0.800649 0.766917 0.640983
21 2 0.770219 0.689626 0.696661
2 3 0.345125 0.579696 0.771616
22 4 0.739789 0.612334 0.752339
19 4 0.124872 0.205908 0.83133
18 2 0.0765031 0.292507 0.818635
20 4 0.0281341 0.379105 0.80594
5 3 0.363578 0.455279 0.87508
4 3 0.23904 0.558371 0.892996
1 1 0.334339 0.5505 0.866253
3 3 0.389904 0.607702 0.92541
ITEM: TIMESTEP
3000
ITEM: NUMBER OF ATOMS
29
ITEM: BOX BOUNDS pp pp pp
-5.0000000000000000e+00 5.0000000000000000e+00
-5.0000000000000000e+00 5.0000000000000000e+00
-5.0000000000000000e+00 5.0000000000000000e+00
ITEM: ATOMS id type xs ys zs
7 4 0.428785 0.386377 0.0439508
6 2 0.494288 0.459902 0.0613693
8 4 0.55979 0.533428 0.0787879
28 4 0.032476 1.00036 0.209337
14 4 0.529458 0.457056 0.269459
12 2 0.629282 0.451438 0.271393
13 4 0.729105 0.44582 0.273327
10 4 0.185304 0.5999 0.269441
27 2 0.00766334 0.0585423 0.286794
11 4 -0.00436779 0.617641 0.33035
9 2 0.090468 0.608771 0.299896
29 4 0.982851 0.11672 0.364252
25 4 0.591545 0.217845 0.4142
24 2 0.54213 0.279498 0.475495
26 4 0.492715 0.34115 0.53679
16 4 0.722437 0.424073 0.573237
17 4 0.54016 0.482075 0.631638
15 2 0.631298 0.453074 0.602437
23 4 0.8013 0.767185 0.641241
21 2 0.770069 0.690013 0.696641
2 3 0.345082 0.578259 0.771749
22 4 0.738839 0.612841 0.752041
19 4 0.125516 0.205329 0.830129
18 2 0.0768836 0.291907 0.818331
20 4 0.0282511 0.378484 0.806534
5 3 0.363113 0.454677 0.876283
4 3 0.238337 0.557734 0.892688
1 1 0.333797 0.549786 0.866548
3 3 0.388948 0.607524 0.925571
ITEM: TIMESTEP
3500
ITEM: NUMBER OF ATOMS
29
ITEM: BOX BOUNDS pp pp pp
-5.0000000000000000e+00 5.0000000000000000e+00
-5.0000000000000000e+00 5.0000000000000000e+00
-5.0000000000000000e+00 5.0000000000000000e+00
ITEM: ATOMS id type xs ys zs
7 4 0.428609 0.386398 0.0443494
6 2 0.493454 0.460548 0.0615809
8 4 0.558299 0.534698 0.0788123
28 4 0.0338795 0.00136616 0.208169
27 2 0.00649184 0.0585043 0.285533
14 4 0.529109 0.457985 0.269083
12 2 0.628899 0.451975 0.27149
13 4 0.728689 0.445965 0.273897
10 4 0.185005 0.601875 0.271847
9 2 0.089332 0.609001 0.300058
11 4 0.993659 0.616127 0.328269
29 4 0.979104 0.115642 0.362897
25 4 0.590603 0.217139 0.414517
24 2 0.541911 0.279092 0.476088
26 4 0.493219 0.341045 0.537658
16 4 0.722526 0.424704 0.571726
17 4 0.541089 0.480634 0.634596
15 2 0.631807 0.452669 0.603161
23 4 0.80151 0.767194 0.641057
21 2 0.769633 0.690519 0.696777
2 3 0.345281 0.576588 0.771546
22 4 0.737757 0.613843 0.752497
19 4 0.126093 0.204555 0.828693
18 2 0.0773048 0.291201 0.818105
20 4 0.0285162 0.377847 0.807518
5 3 0.362753 0.454118 0.877475
4 3 0.23785 0.557292 0.89208
1 1 0.333461 0.549108 0.866573
3 3 0.388252 0.607485 0.925302
ITEM: TIMESTEP
4000
ITEM: NUMBER OF ATOMS
29
ITEM: BOX BOUNDS pp pp pp
-5.0000000000000000e+00 5.0000000000000000e+00
-5.0000000000000000e+00 5.0000000000000000e+00
-5.0000000000000000e+00 5.0000000000000000e+00
ITEM: ATOMS id type xs ys zs
7 4 0.428007 0.386245 0.0446886
6 2 0.492222 0.461008 0.061629
8 4 0.556436 0.535771 0.0785693
28 4 0.0352649 0.00248381 0.206559
27 2 0.00540133 0.0584525 0.283861
14 4 0.529087 0.458446 0.268833
12 2 0.62886 0.45249 0.271967
13 4 0.728633 0.446533 0.2751
10 4 0.185179 0.603604 0.274238
9 2 0.0886938 0.60924 0.299907
11 4 0.992209 0.614877 0.325575
29 4 0.975538 0.114421 0.361164
25 4 0.590016 0.216044 0.41558
24 2 0.541779 0.278453 0.477048
26 4 0.493542 0.340861 0.538517
16 4 0.723127 0.425673 0.570511
17 4 0.542251 0.478787 0.637317
15 2 0.632689 0.45223 0.603914
23 4 0.801293 0.767625 0.640748
21 2 0.769379 0.691213 0.696808
2 3 0.345571 0.57497 0.771244
22 4 0.737466 0.614801 0.752869
19 4 0.126375 0.203949 0.827299
18 2 0.0776727 0.290815 0.818221
20 4 0.0289704 0.37768 0.809143
5 3 0.362314 0.453777 0.878747
4 3 0.237074 0.556848 0.891002
1 1 0.332932 0.548571 0.866472
3 3 0.387062 0.607743 0.925018
ITEM: TIMESTEP
4500
ITEM: NUMBER OF ATOMS
29
ITEM: BOX BOUNDS pp pp pp
-5.0000000000000000e+00 5.0000000000000000e+00
-5.0000000000000000e+00 5.0000000000000000e+00
-5.0000000000000000e+00 5.0000000000000000e+00
ITEM: ATOMS id type xs ys zs
7 4 0.427189 0.386205 0.0458423
6 2 0.490889 0.461565 0.0620635
8 4 0.55459 0.536925 0.0782847
28 4 0.0374283 0.00354013 0.205219
27 2 0.00491006 0.058227 0.282368
14 4 0.529126 0.458021 0.268987
12 2 0.628898 0.452295 0.272561
13 4 0.72867 0.446568 0.276134
10 4 0.185144 0.604585 0.275837
9 2 0.0880819 0.609508 0.299391
11 4 0.99102 0.61443 0.322945
29 4 0.972392 0.112914 0.359516
25 4 0.590119 0.21523 0.415993
24 2 0.542026 0.277638 0.477574
26 4 0.493932 0.340046 0.539155
16 4 0.72398 0.426709 0.569123
17 4 0.543782 0.476338 0.640298
15 2 0.633881 0.451523 0.60471
23 4 0.800264 0.767752 0.639908
21 2 0.76877 0.691867 0.696913
2 3 0.345625 0.573302 0.771057
22 4 0.737276 0.615982 0.753918
19 4 0.126713 0.204035 0.825883
18 2 0.0781361 0.291113 0.818284
20 4 0.0295588 0.378191 0.810686
5 3 0.361854 0.453247 0.879907
4 3 0.236056 0.555878 0.889939
1 1 0.332181 0.547785 0.866415
3 3 0.385487 0.607768 0.924891
ITEM: TIMESTEP
5000
ITEM: NUMBER OF ATOMS
29
ITEM: BOX BOUNDS pp pp pp
-5.0000000000000000e+00 5.0000000000000000e+00
-5.0000000000000000e+00 5.0000000000000000e+00
-5.0000000000000000e+00 5.0000000000000000e+00
ITEM: ATOMS id type xs ys zs
7 4 0.426522 0.386302 0.0465009
6 2 0.489302 0.462504 0.0623725
8 4 0.552082 0.538706 0.0782441
28 4 0.0401226 0.00480847 0.203961
27 2 0.00484693 0.0582405 0.280776
14 4 0.528931 0.457608 0.269134
12 2 0.628702 0.45226 0.273251
13 4 0.728474 0.446912 0.277368
10 4 0.18516 0.605753 0.27685
9 2 0.0876659 0.610047 0.298678
11 4 0.990172 0.61434 0.320506
29 4 0.969571 0.111672 0.357592
25 4 0.591232 0.214524 0.416698
24 2 0.542606 0.276641 0.478155
26 4 0.493981 0.338758 0.539613
16 4 0.724982 0.427746 0.567274
17 4 0.546129 0.474102 0.643844
15 2 0.635555 0.450924 0.605559
23 4 0.79871 0.768106 0.638363
21 2 0.768041 0.692701 0.696444
2 3 0.34518 0.571331 0.770438
22 4 0.737372 0.617295 0.754524
19 4 0.126379 0.204155 0.823481
18 2 0.0783937 0.291731 0.818199
20 4 0.0304083 0.379307 0.812917
5 3 0.361073 0.452672 0.880858
4 3 0.235074 0.555223 0.88901
1 1 0.331322 0.546988 0.866043
3 3 0.384259 0.607781 0.924016
ITEM: TIMESTEP
5500
ITEM: NUMBER OF ATOMS
29
ITEM: BOX BOUNDS pp pp pp
-5.0000000000000000e+00 5.0000000000000000e+00
-5.0000000000000000e+00 5.0000000000000000e+00
-5.0000000000000000e+00 5.0000000000000000e+00
ITEM: ATOMS id type xs ys zs
7 4 0.426307 0.386423 0.0469663
6 2 0.487914 0.463643 0.0625067
8 4 0.549521 0.540864 0.0780471
28 4 0.042504 0.00595088 0.20264
27 2 0.00469754 0.0582048 0.279061
14 4 0.529261 0.457758 0.268765
12 2 0.628989 0.452297 0.273701
13 4 0.728718 0.446836 0.278636
10 4 0.184955 0.607034 0.278244
29 4 0.966891 0.110459 0.355482
9 2 0.0870277 0.610746 0.298153
11 4 0.9891 0.614458 0.318063
25 4 0.592151 0.213617 0.416947
24 2 0.543417 0.275604 0.478449
26 4 0.494683 0.337592 0.539952
16 4 0.725992 0.429465 0.565741
15 2 0.637209 0.450931 0.606445
23 4 0.797282 0.768217 0.636562
17 4 0.548427 0.472397 0.647149
21 2 0.767154 0.69353 0.695842
2 3 0.344878 0.568965 0.770095
22 4 0.737026 0.618843 0.755122
19 4 0.126067 0.204243 0.820659
18 2 0.0784942 0.292155 0.817757
20 4 0.0309216 0.380066 0.814855
5 3 0.359892 0.45173 0.882147
4 3 0.233991 0.55455 0.888156
1 1 0.330373 0.545885 0.865918
3 3 0.383025 0.607355 0.923434
ITEM: TIMESTEP
6000
ITEM: NUMBER OF ATOMS
29
ITEM: BOX BOUNDS pp pp pp
-5.0000000000000000e+00 5.0000000000000000e+00
-5.0000000000000000e+00 5.0000000000000000e+00
-5.0000000000000000e+00 5.0000000000000000e+00
ITEM: ATOMS id type xs ys zs
7 4 0.426206 0.386703 0.0480577
6 2 0.486464 0.465118 0.0628935
8 4 0.546721 0.543533 0.0777292
28 4 0.0454809 0.00733601 0.20195
27 2 0.00446375 0.0582291 0.27763
14 4 0.529632 0.458103 0.268577
12 2 0.629343 0.452529 0.273743
13 4 0.729054 0.446956 0.278909
10 4 0.184537 0.608979 0.279508
29 4 0.963447 0.109122 0.353311
9 2 0.0862774 0.612075 0.297823
11 4 0.988018 0.615171 0.316138
25 4 0.593027 0.212008 0.417102
24 2 0.54413 0.274084 0.478386
26 4 0.495233 0.336159 0.539671
16 4 0.726929 0.430972 0.564035
15 2 0.639099 0.450994 0.607451
23 4 0.795302 0.76788 0.635087
17 4 0.551269 0.471017 0.650868
21 2 0.766361 0.693957 0.695897
2 3 0.344387 0.566487 0.77013
22 4 0.737419 0.620034 0.756706
19 4 0.1252 0.204126 0.81761
18 2 0.0783104 0.29245 0.817259
20 4 0.0314206 0.380775 0.816908
5 3 0.358761 0.450566 0.883623
4 3 0.233122 0.553786 0.888032
1 1 0.329544 0.544598 0.866179
3 3 0.382196 0.606613 0.923108
ITEM: TIMESTEP
6500
ITEM: NUMBER OF ATOMS
29
ITEM: BOX BOUNDS pp pp pp
-5.0000000000000000e+00 5.0000000000000000e+00
-5.0000000000000000e+00 5.0000000000000000e+00
-5.0000000000000000e+00 5.0000000000000000e+00
ITEM: ATOMS id type xs ys zs
7 4 0.426035 0.387223 0.0496553
6 2 0.485013 0.466789 0.0634692
8 4 0.543992 0.546355 0.077283
28 4 0.0491543 0.00830217 0.201609
27 2 0.00488231 0.0582455 0.276079
14 4 0.529765 0.458422 0.269009
12 2 0.629477 0.452749 0.274038
13 4 0.729189 0.447076 0.279066
10 4 0.184148 0.611278 0.281665
29 4 0.96061 0.108189 0.350548
9 2 0.0854813 0.613727 0.297753
11 4 0.986814 0.616175 0.313841
25 4 0.594041 0.210003 0.417823
24 2 0.545008 0.272553 0.478513
26 4 0.495974 0.335103 0.539202
16 4 0.728238 0.432874 0.562482
15 2 0.641418 0.451191 0.6086
23 4 0.793602 0.768054 0.634229
17 4 0.554599 0.469508 0.654718
21 2 0.766138 0.694726 0.696427
2 3 0.343438 0.564747 0.770243
22 4 0.738674 0.621397 0.758626
19 4 0.123717 0.203794 0.81476
18 2 0.0780438 0.292735 0.816637
20 4 0.0323704 0.381675 0.818514
5 3 0.358021 0.449127 0.884015
4 3 0.232636 0.552645 0.888642
1 1 0.328944 0.543174 0.866417
3 3 0.381973 0.605235 0.922944
ITEM: TIMESTEP
7000
ITEM: NUMBER OF ATOMS
29
ITEM: BOX BOUNDS pp pp pp
-5.0000000000000000e+00 5.0000000000000000e+00
-5.0000000000000000e+00 5.0000000000000000e+00
-5.0000000000000000e+00 5.0000000000000000e+00
ITEM: ATOMS id type xs ys zs
7 4 0.425694 0.387386 0.0518964
6 2 0.483466 0.468096 0.0640736
8 4 0.541237 0.548807 0.0762507
28 4 0.0523686 0.00931801 0.200988
27 2 0.00553009 0.0584814 0.274398
14 4 0.530014 0.458416 0.268829
12 2 0.629701 0.452638 0.274226
13 4 0.729388 0.446859 0.279623
10 4 0.184226 0.613546 0.28448
29 4 0.958692 0.107645 0.347809
9 2 0.085162 0.615763 0.297947
11 4 0.986098 0.617979 0.311415
25 4 0.594867 0.208435 0.418374
24 2 0.545773 0.271269 0.47872
26 4 0.49668 0.334103 0.539066
16 4 0.729522 0.434499 0.560894
15 2 0.643676 0.451164 0.609399
23 4 0.791868 0.768345 0.633768
17 4 0.55783 0.46783 0.657903
21 2 0.766274 0.695293 0.697079
2 3 0.341988 0.56299 0.770219
22 4 0.740679 0.622242 0.76039
19 4 0.122212 0.203711 0.81272
18 2 0.0779717 0.293322 0.81627
20 4 0.0337312 0.382933 0.819819
5 3 0.3573 0.447623 0.884152
4 3 0.232165 0.551405 0.889578
1 1 0.328263 0.541684 0.866565
3 3 0.381891 0.603779 0.922488
ITEM: TIMESTEP
7500
ITEM: NUMBER OF ATOMS
29
ITEM: BOX BOUNDS pp pp pp
-5.0000000000000000e+00 5.0000000000000000e+00
-5.0000000000000000e+00 5.0000000000000000e+00
-5.0000000000000000e+00 5.0000000000000000e+00
ITEM: ATOMS id type xs ys zs
7 4 0.425041 0.387888 0.0544858
6 2 0.481769 0.469642 0.0644024
8 4 0.538496 0.551396 0.0743189
28 4 0.054635 0.0107215 0.19985
27 2 0.00578619 0.059196 0.272403
14 4 0.529995 0.458221 0.268883
12 2 0.629668 0.452344 0.274436
13 4 0.72934 0.446467 0.279989
10 4 0.184444 0.615907 0.286935
29 4 0.956937 0.107671 0.344956
9 2 0.0850615 0.617579 0.2979
11 4 0.985678 0.61925 0.308865
25 4 0.596132 0.206523 0.419478
24 2 0.546704 0.269729 0.479158
26 4 0.497275 0.332936 0.538838
16 4 0.730393 0.434962 0.559191
15 2 0.645782 0.450831 0.610074
23 4 0.789891 0.768547 0.633017
17 4 0.56117 0.4667 0.660957
21 2 0.766317 0.695946 0.697618
2 3 0.339465 0.561464 0.770021
22 4 0.742743 0.623345 0.76222
19 4 0.120463 0.203856 0.810368
18 2 0.0777802 0.294134 0.815667
20 4 0.0350974 0.384412 0.820967
5 3 0.356802 0.446267 0.883836
4 3 0.231528 0.54977 0.891079
1 1 0.327281 0.540241 0.866593
3 3 0.381625 0.602523 0.921608
ITEM: TIMESTEP
8000
ITEM: NUMBER OF ATOMS
29
ITEM: BOX BOUNDS pp pp pp
-5.0000000000000000e+00 5.0000000000000000e+00
-5.0000000000000000e+00 5.0000000000000000e+00
-5.0000000000000000e+00 5.0000000000000000e+00
ITEM: ATOMS id type xs ys zs
7 4 0.424011 0.388818 0.0571119
6 2 0.479882 0.471415 0.0646143
8 4 0.535752 0.554011 0.0721168
28 4 0.0567444 0.0125604 0.198114
27 2 0.0060406 0.0599728 0.270094
14 4 0.529821 0.458095 0.269416
12 2 0.629486 0.451939 0.274793
13 4 0.729151 0.445784 0.280169
10 4 0.184664 0.618152 0.288986
29 4 0.955337 0.107385 0.342074
9 2 0.0850335 0.619389 0.297486
11 4 0.985403 0.620625 0.305986
25 4 0.597518 0.204697 0.420518
24 2 0.547412 0.268341 0.479159
26 4 0.497305 0.331984 0.537801
16 4 0.7313 0.434605 0.557546
15 2 0.647973 0.450123 0.610611
23 4 0.787426 0.768903 0.63247
17 4 0.564647 0.465641 0.663676
21 2 0.766291 0.696582 0.698219
2 3 0.336434 0.55916 0.76955
22 4 0.745156 0.624261 0.763968
19 4 0.11907 0.204409 0.807887
18 2 0.077788 0.295213 0.814996
20 4 0.0365063 0.386016 0.822105
5 3 0.356402 0.444377 0.883353
4 3 0.23103 0.547581 0.89283
1 1 0.326286 0.538219 0.866418
3 3 0.38158 0.600819 0.92011
ITEM: TIMESTEP
8500
ITEM: NUMBER OF ATOMS
29
ITEM: BOX BOUNDS pp pp pp
-5.0000000000000000e+00 5.0000000000000000e+00
-5.0000000000000000e+00 5.0000000000000000e+00
-5.0000000000000000e+00 5.0000000000000000e+00
ITEM: ATOMS id type xs ys zs
7 4 0.423015 0.39009 0.0588784
6 2 0.478114 0.473357 0.0644241
8 4 0.533213 0.556624 0.0699697
28 4 0.0590494 0.0146033 0.196727
27 2 0.00624753 0.0606852 0.26806
14 4 0.529796 0.457966 0.270133
12 2 0.629462 0.451411 0.275
13 4 0.729128 0.444856 0.279868
29 4 0.953446 0.106767 0.339394
9 2 0.0848339 0.621526 0.296937
10 4 0.184667 0.620933 0.2912
11 4 0.985 0.622118 0.302675
25 4 0.599291 0.20304 0.421544
24 2 0.548503 0.267336 0.478873
26 4 0.497715 0.331632 0.536202
16 4 0.732719 0.435209 0.55591
15 2 0.650542 0.449928 0.610958
23 4 0.784942 0.769582 0.632075
17 4 0.568365 0.464648 0.666006
21 2 0.766452 0.697115 0.698459
2 3 0.333199 0.556533 0.769028
22 4 0.747961 0.624649 0.764842
19 4 0.117682 0.204786 0.805003
18 2 0.077844 0.296057 0.814089
20 4 0.038006 0.387328 0.823175
5 3 0.356819 0.442213 0.882597
4 3 0.230718 0.54425 0.894681
1 1 0.325439 0.535726 0.866146
3 3 0.381333 0.598972 0.91844
ITEM: TIMESTEP
9000
ITEM: NUMBER OF ATOMS
29
ITEM: BOX BOUNDS pp pp pp
-5.0000000000000000e+00 5.0000000000000000e+00
-5.0000000000000000e+00 5.0000000000000000e+00
-5.0000000000000000e+00 5.0000000000000000e+00
ITEM: ATOMS id type xs ys zs
7 4 0.421984 0.391424 0.0607584
6 2 0.476221 0.475359 0.0643746
8 4 0.530459 0.559295 0.0679908
28 4 0.0608133 0.016712 0.195328
27 2 0.0058744 0.0613527 0.26596
14 4 0.52991 0.458016 0.271086
12 2 0.629556 0.450802 0.275417
13 4 0.729201 0.443589 0.279749
29 4 0.950936 0.105994 0.336592
9 2 0.0846213 0.623949 0.296178
10 4 0.184584 0.624001 0.293441
11 4 0.984659 0.623897 0.298914
25 4 0.600819 0.201431 0.422536
24 2 0.549559 0.266483 0.478579
26 4 0.4983 0.331535 0.534621
16 4 0.733986 0.435947 0.553406
15 2 0.65321 0.449922 0.610676
23 4 0.782539 0.770262 0.631554
17 4 0.572433 0.463898 0.667946
21 2 0.766886 0.697665 0.698521
2 3 0.330278 0.553116 0.768366
22 4 0.751233 0.625068 0.765488
19 4 0.116278 0.205048 0.802341
18 2 0.0779609 0.296787 0.813097
20 4 0.0396438 0.388527 0.823854
5 3 0.35688 0.439835 0.882317
4 3 0.230531 0.541328 0.896247
1 1 0.324673 0.533053 0.865788
3 3 0.381326 0.596999 0.916388
ITEM: TIMESTEP
9500
ITEM: NUMBER OF ATOMS
29
ITEM: BOX BOUNDS pp pp pp
-5.0000000000000000e+00 5.0000000000000000e+00
-5.0000000000000000e+00 5.0000000000000000e+00
-5.0000000000000000e+00 5.0000000000000000e+00
ITEM: ATOMS id type xs ys zs
7 4 0.420965 0.392618 0.0626926
6 2 0.474195 0.477258 0.0642997
8 4 0.527425 0.561899 0.0659067
28 4 0.0623745 0.019575 0.193539
27 2 0.00507246 0.0622764 0.263489
14 4 0.529803 0.458108 0.27237
12 2 0.629406 0.450081 0.276236
13 4 0.729008 0.442055 0.280103
29 4 0.94777 0.104978 0.333439
9 2 0.0845243 0.626379 0.295391
10 4 0.184521 0.626838 0.296037
11 4 0.984527 0.625921 0.294746
25 4 0.602583 0.199819 0.42348
24 2 0.550691 0.265638 0.478025
26 4 0.498799 0.331456 0.532569
16 4 0.734929 0.436632 0.550697
15 2 0.655537 0.44999 0.610014
23 4 0.780346 0.770545 0.630201
17 4 0.576145 0.463348 0.669331
21 2 0.767674 0.69823 0.698097
2 3 0.32724 0.549307 0.767724
22 4 0.755001 0.625914 0.765993
19 4 0.115576 0.205615 0.799728
18 2 0.078251 0.29752 0.81239
20 4 0.0409262 0.389425 0.825052
5 3 0.356871 0.437201 0.882087
4 3 0.230496 0.538375 0.897966
1 1 0.323946 0.530144 0.865432
3 3 0.381504 0.594764 0.914117
ITEM: TIMESTEP
10000
ITEM: NUMBER OF ATOMS
29
ITEM: BOX BOUNDS pp pp pp
-5.0000000000000000e+00 5.0000000000000000e+00
-5.0000000000000000e+00 5.0000000000000000e+00
-5.0000000000000000e+00 5.0000000000000000e+00
ITEM: ATOMS id type xs ys zs
7 4 0.420013 0.394413 0.0640584
6 2 0.47212 0.479764 0.0639517
8 4 0.524227 0.565115 0.063845
28 4 0.0642435 0.023453 0.191611
27 2 0.00426616 0.0638006 0.260711
14 4 0.529045 0.458289 0.273302
12 2 0.628601 0.449714 0.27719
13 4 0.728157 0.441138 0.281079
29 4 0.944289 0.104148 0.32981
9 2 0.0844837 0.62869 0.295045
10 4 0.184402 0.630168 0.298794
11 4 0.984565 0.627211 0.291296
25 4 0.604844 0.198181 0.424717
24 2 0.551986 0.26455 0.477642
26 4 0.499127 0.33092 0.530567
16 4 0.735716 0.436836 0.548173
15 2 0.657593 0.450059 0.609181
23 4 0.777958 0.770753 0.628571
17 4 0.579471 0.463281 0.67019
21 2 0.768563 0.698938 0.697522
2 3 0.324335 0.545816 0.767
22 4 0.759167 0.627122 0.766473
19 4 0.115374 0.205961 0.797739
18 2 0.0786027 0.297886 0.8118
20 4 0.0418312 0.38981 0.825861
5 3 0.357135 0.434962 0.881719
4 3 0.230506 0.535517 0.899409
1 1 0.323278 0.527546 0.864929
3 3 0.381475 0.592963 0.911755
ITEM: TIMESTEP
10500
ITEM: NUMBER OF ATOMS
29
ITEM: BOX BOUNDS pp pp pp
-5.0000000000000000e+00 5.0000000000000000e+00
-5.0000000000000000e+00 5.0000000000000000e+00
-5.0000000000000000e+00 5.0000000000000000e+00
ITEM: ATOMS id type xs ys zs
7 4 0.419204 0.396069 0.0644778
6 2 0.470032 0.482185 0.0637196
8 4 0.52086 0.5683 0.0629614
28 4 0.0662314 0.0277684 0.189519
27 2 0.00375869 0.0659407 0.257637
14 4 0.528358 0.458829 0.274795
12 2 0.627849 0.449341 0.278187
13 4 0.72734 0.439852 0.281579
29 4 0.941286 0.104113 0.325754
9 2 0.084917 0.631303 0.295057
10 4 0.184687 0.634047 0.301252
11 4 0.985147 0.62856 0.288862
25 4 0.607957 0.196855 0.426052
24 2 0.55371 0.263379 0.477353
26 4 0.499463 0.329903 0.528654
16 4 0.736286 0.437479 0.544961
15 2 0.659612 0.450274 0.607869
23 4 0.774814 0.771334 0.62775
17 4 0.582938 0.463068 0.670776
21 2 0.769201 0.699663 0.697261
2 3 0.322057 0.542703 0.766266
22 4 0.763588 0.627992 0.766772
19 4 0.115006 0.206334 0.795659
18 2 0.078406 0.298104 0.811113
20 4 0.0418062 0.389873 0.826568
5 3 0.357258 0.432844 0.881231
4 3 0.230537 0.533024 0.900327
1 1 0.322741 0.525164 0.864332
3 3 0.381456 0.591162 0.909673
ITEM: TIMESTEP
11000
ITEM: NUMBER OF ATOMS
29
ITEM: BOX BOUNDS pp pp pp
-5.0000000000000000e+00 5.0000000000000000e+00
-5.0000000000000000e+00 5.0000000000000000e+00
-5.0000000000000000e+00 5.0000000000000000e+00
ITEM: ATOMS id type xs ys zs
7 4 0.418511 0.39782 0.0659043
6 2 0.468088 0.484635 0.0635974
8 4 0.517666 0.571449 0.0612905
28 4 0.068623 0.0319113 0.188303
27 2 0.0034128 0.0684453 0.254732
14 4 0.528108 0.459718 0.275892
12 2 0.6275 0.449202 0.279148
13 4 0.726892 0.438687 0.282403
29 4 0.938203 0.104979 0.321162
9 2 0.0857367 0.633658 0.295098
10 4 0.185304 0.637696 0.30347
11 4 0.98617 0.62962 0.286726
25 4 0.610761 0.195489 0.427321
24 2 0.555456 0.262259 0.477151
26 4 0.500151 0.32903 0.526981
16 4 0.737163 0.437975 0.541818
15 2 0.661804 0.450061 0.606432
23 4 0.771446 0.772038 0.627181
17 4 0.586446 0.462147 0.671047
21 2 0.769716 0.700803 0.697341
2 3 0.319819 0.539466 0.765474
22 4 0.767985 0.629568 0.767502
19 4 0.115469 0.20668 0.793318
18 2 0.078601 0.298137 0.80994
20 4 0.0417327 0.389594 0.826562
5 3 0.357201 0.430096 0.880217
4 3 0.230641 0.530117 0.901129
1 1 0.322226 0.522291 0.863578
3 3 0.381591 0.588561 0.907657
ITEM: TIMESTEP
11500
ITEM: NUMBER OF ATOMS
29
ITEM: BOX BOUNDS pp pp pp
-5.0000000000000000e+00 5.0000000000000000e+00
-5.0000000000000000e+00 5.0000000000000000e+00
-5.0000000000000000e+00 5.0000000000000000e+00
ITEM: ATOMS id type xs ys zs
7 4 0.417378 0.400272 0.0669564
6 2 0.465882 0.487646 0.0633096
8 4 0.514386 0.575019 0.0596627
28 4 0.0715192 0.0358649 0.188197
27 2 0.00354266 0.070968 0.252594
14 4 0.527625 0.461106 0.277358
12 2 0.626934 0.449756 0.28035
13 4 0.726243 0.438406 0.283343
29 4 0.935566 0.106071 0.316991
9 2 0.0867645 0.636156 0.294989
10 4 0.18602 0.642202 0.305565
11 4 0.987509 0.630109 0.284413
25 4 0.613074 0.193571 0.428762
24 2 0.556889 0.260643 0.477182
26 4 0.500705 0.327716 0.525603
16 4 0.738328 0.438506 0.53881
15 2 0.664283 0.449913 0.605045
23 4 0.766907 0.77291 0.626918
17 4 0.590237 0.461321 0.671281
21 2 0.769825 0.702371 0.69774
2 3 0.31718 0.536584 0.76478
22 4 0.772744 0.631832 0.768562
19 4 0.116789 0.207383 0.790965
18 2 0.0790342 0.298273 0.808675
20 4 0.0412791 0.389162 0.826386
5 3 0.357148 0.427427 0.878851
4 3 0.23079 0.527159 0.902221
1 1 0.321615 0.519518 0.862831
3 3 0.381696 0.58598 0.905633
ITEM: TIMESTEP
12000
ITEM: NUMBER OF ATOMS
29
ITEM: BOX BOUNDS pp pp pp
-5.0000000000000000e+00 5.0000000000000000e+00
-5.0000000000000000e+00 5.0000000000000000e+00
-5.0000000000000000e+00 5.0000000000000000e+00
ITEM: ATOMS id type xs ys zs
7 4 0.415832 0.402967 0.0681925
6 2 0.463541 0.4907 0.0630156
8 4 0.511249 0.578433 0.0578387
28 4 0.0746773 0.0397375 0.188226
27 2 0.00411176 0.0733952 0.250577
14 4 0.527525 0.462874 0.278604
12 2 0.626732 0.450709 0.28179
13 4 0.725938 0.438544 0.284975
11 4 0.989251 0.630351 0.28172
29 4 0.933546 0.107053 0.312928
9 2 0.088034 0.638124 0.295195
10 4 0.186817 0.645896 0.308669
25 4 0.615098 0.192044 0.429357
24 2 0.558251 0.259206 0.476873
26 4 0.501405 0.326368 0.52439
16 4 0.739743 0.439173 0.536071
15 2 0.666662 0.449898 0.603481
23 4 0.76234 0.772976 0.626626
17 4 0.593581 0.460622 0.670891
21 2 0.76928 0.703339 0.698058
2 3 0.314762 0.533975 0.764334
22 4 0.776221 0.633702 0.76949
19 4 0.117882 0.208121 0.788285
18 2 0.0796206 0.298546 0.807246
20 4 0.0413596 0.38897 0.826206
5 3 0.357833 0.424894 0.877345
4 3 0.231446 0.523866 0.903612
1 1 0.321432 0.516801 0.86224
3 3 0.382051 0.58355 0.903821
ITEM: TIMESTEP
12500
ITEM: NUMBER OF ATOMS
29
ITEM: BOX BOUNDS pp pp pp
-5.0000000000000000e+00 5.0000000000000000e+00
-5.0000000000000000e+00 5.0000000000000000e+00
-5.0000000000000000e+00 5.0000000000000000e+00
ITEM: ATOMS id type xs ys zs
7 4 0.414112 0.405193 0.070213
6 2 0.461145 0.49315 0.0630412
8 4 0.508179 0.581107 0.0558693
28 4 0.0777186 0.0436245 0.188239
27 2 0.00484669 0.0760711 0.248546
14 4 0.527937 0.464726 0.280315
12 2 0.627029 0.451698 0.283666
13 4 0.72612 0.43867 0.287017
11 4 0.991321 0.630358 0.278902
29 4 0.931975 0.108518 0.308853
9 2 0.089457 0.639979 0.295539
10 4 0.187593 0.649599 0.312175
25 4 0.616659 0.19086 0.42897
24 2 0.559646 0.258008 0.476305
26 4 0.502633 0.325157 0.52364
16 4 0.741296 0.440101 0.533445
15 2 0.669054 0.449816 0.601904
23 4 0.757863 0.773062 0.626712
17 4 0.596811 0.459532 0.670363
21 2 0.768691 0.704305 0.698513
2 3 0.312621 0.53101 0.763761
22 4 0.779518 0.635548 0.770313