LAMMPS (2 Aug 2023 - Update 3)
OMP_NUM_THREADS environment is not set. Defaulting to 1 thread. (src/comm.cpp:98)
  using 1 OpenMP thread(s) per MPI task
Loaded 1 plugins from F:\LAMMPS\LAMMPS 64-bit 2Aug2023\plugins
# Script to create a Polymer using Patchy Particles (PP)
# Types of Particles:
#   Cross linker:   PPA
#   Monomer:        PPB

# Initialization
units lj
dimension 3
boundary p p p

# Types of atoms and that stuff
atom_style full
bond_style zero nocoeff
pair_style hybrid lj/cut 2.5 cosine/squared 2.5 zero 2.5

# Get data for box and particles
read_data data.patchyP1.lmp group CL1
Reading data file ...
  orthogonal box = (-5 -5 -5) to (5 5 5)
  1 by 1 by 1 MPI processor grid
WARNING: Atom style in data file atom-ID molecule-ID atom-type q x y z differs from currently defined atom style full (src/read_data.cpp:621)
  reading atoms ...
  5 atoms
  scanning bonds ...
  4 = max bonds/atom
WARNING: Bond style ID parameters in data file differs from currently defined bond style zero (src/read_data.cpp:724)
  reading bonds ...
  4 bonds
Finding 1-2 1-3 1-4 neighbors ...
  special bond factors lj:    0        0        0       
  special bond factors coul:  0        0        0       
     4 = max # of 1-2 neighbors
     3 = max # of 1-3 neighbors
     3 = max # of 1-4 neighbors
     4 = max # of special neighbors
  special bonds CPU = 0.001 seconds
  read_data CPU = 0.008 seconds
read_data data.patchyP2.lmp add append group Mo1
Reading data file ...
  orthogonal box = (-5 -5 -5) to (5 5 5)
  1 by 1 by 1 MPI processor grid
WARNING: Atom style in data file atom-ID molecule-ID atom-type q x y z differs from currently defined atom style full (src/read_data.cpp:621)
  reading atoms ...
  3 atoms
  scanning bonds ...
  2 = max bonds/atom
WARNING: Bond style ID parameters in data file differs from currently defined bond style zero (src/read_data.cpp:724)
  reading bonds ...
  2 bonds
Finding 1-2 1-3 1-4 neighbors ...
  special bond factors lj:    0        0        0       
  special bond factors coul:  0        0        0       
     4 = max # of 1-2 neighbors
     3 = max # of 1-3 neighbors
     3 = max # of 1-4 neighbors
     4 = max # of special neighbors
  special bonds CPU = 0.000 seconds
  read_data CPU = 0.006 seconds
read_data data.patchyP2.lmp add append group Mo2
Reading data file ...
  orthogonal box = (-5 -5 -5) to (5 5 5)
  1 by 1 by 1 MPI processor grid
WARNING: Atom style in data file atom-ID molecule-ID atom-type q x y z differs from currently defined atom style full (src/read_data.cpp:621)
  reading atoms ...
  3 atoms
  scanning bonds ...
  2 = max bonds/atom
WARNING: Bond style ID parameters in data file differs from currently defined bond style zero (src/read_data.cpp:724)
  reading bonds ...
  2 bonds
Finding 1-2 1-3 1-4 neighbors ...
  special bond factors lj:    0        0        0       
  special bond factors coul:  0        0        0       
     4 = max # of 1-2 neighbors
     3 = max # of 1-3 neighbors
     3 = max # of 1-4 neighbors
     4 = max # of special neighbors
  special bonds CPU = 0.000 seconds
  read_data CPU = 0.001 seconds
read_data data.patchyP2.lmp add append group Mo3
Reading data file ...
  orthogonal box = (-5 -5 -5) to (5 5 5)
  1 by 1 by 1 MPI processor grid
WARNING: Atom style in data file atom-ID molecule-ID atom-type q x y z differs from currently defined atom style full (src/read_data.cpp:621)
  reading atoms ...
  3 atoms
  scanning bonds ...
  2 = max bonds/atom
WARNING: Bond style ID parameters in data file differs from currently defined bond style zero (src/read_data.cpp:724)
  reading bonds ...
  2 bonds
Finding 1-2 1-3 1-4 neighbors ...
  special bond factors lj:    0        0        0       
  special bond factors coul:  0        0        0       
     4 = max # of 1-2 neighbors
     3 = max # of 1-3 neighbors
     3 = max # of 1-4 neighbors
     4 = max # of special neighbors
  special bonds CPU = 0.000 seconds
  read_data CPU = 0.001 seconds
read_data data.patchyP2.lmp add append group Mo4
Reading data file ...
  orthogonal box = (-5 -5 -5) to (5 5 5)
  1 by 1 by 1 MPI processor grid
WARNING: Atom style in data file atom-ID molecule-ID atom-type q x y z differs from currently defined atom style full (src/read_data.cpp:621)
  reading atoms ...
  3 atoms
  scanning bonds ...
  2 = max bonds/atom
WARNING: Bond style ID parameters in data file differs from currently defined bond style zero (src/read_data.cpp:724)
  reading bonds ...
  2 bonds
Finding 1-2 1-3 1-4 neighbors ...
  special bond factors lj:    0        0        0       
  special bond factors coul:  0        0        0       
     4 = max # of 1-2 neighbors
     3 = max # of 1-3 neighbors
     3 = max # of 1-4 neighbors
     4 = max # of special neighbors
  special bonds CPU = 0.000 seconds
  read_data CPU = 0.001 seconds
read_data data.patchyP2.lmp add append group Mo5
Reading data file ...
  orthogonal box = (-5 -5 -5) to (5 5 5)
  1 by 1 by 1 MPI processor grid
WARNING: Atom style in data file atom-ID molecule-ID atom-type q x y z differs from currently defined atom style full (src/read_data.cpp:621)
  reading atoms ...
  3 atoms
  scanning bonds ...
  2 = max bonds/atom
WARNING: Bond style ID parameters in data file differs from currently defined bond style zero (src/read_data.cpp:724)
  reading bonds ...
  2 bonds
Finding 1-2 1-3 1-4 neighbors ...
  special bond factors lj:    0        0        0       
  special bond factors coul:  0        0        0       
     4 = max # of 1-2 neighbors
     3 = max # of 1-3 neighbors
     3 = max # of 1-4 neighbors
     4 = max # of special neighbors
  special bonds CPU = 0.000 seconds
  read_data CPU = 0.001 seconds
read_data data.patchyP2.lmp add append group Mo6
Reading data file ...
  orthogonal box = (-5 -5 -5) to (5 5 5)
  1 by 1 by 1 MPI processor grid
WARNING: Atom style in data file atom-ID molecule-ID atom-type q x y z differs from currently defined atom style full (src/read_data.cpp:621)
  reading atoms ...
  3 atoms
  scanning bonds ...
  2 = max bonds/atom
WARNING: Bond style ID parameters in data file differs from currently defined bond style zero (src/read_data.cpp:724)
  reading bonds ...
  2 bonds
Finding 1-2 1-3 1-4 neighbors ...
  special bond factors lj:    0        0        0       
  special bond factors coul:  0        0        0       
     4 = max # of 1-2 neighbors
     3 = max # of 1-3 neighbors
     3 = max # of 1-4 neighbors
     4 = max # of special neighbors
  special bonds CPU = 0.000 seconds
  read_data CPU = 0.001 seconds

displace_atoms Mo1 move 0.0 0.0 3.0 units box
Displacing atoms ...
displace_atoms Mo2 move 0.0 0.0 -3.0 units box
Displacing atoms ...
displace_atoms Mo3 move 0.0 3.0 0.0 units box
Displacing atoms ...
displace_atoms Mo4 move 0.0 -3.0 0.0 units box
Displacing atoms ...
displace_atoms Mo5 move 3.5 0.0 0.0 units box
Displacing atoms ...
displace_atoms Mo6 move -3.5 0.0 0.0 units box
Displacing atoms ...

# Set the patchy particle interaction
fix CLfix CL1 rigid single # ID group-ID style args
  1 rigid bodies with 5 atoms
fix Mofix1 Mo1 rigid single
  1 rigid bodies with 3 atoms
fix Mofix2 Mo2 rigid single
  1 rigid bodies with 3 atoms
fix Mofix3 Mo3 rigid single
  1 rigid bodies with 3 atoms
fix Mofix4 Mo4 rigid single
  1 rigid bodies with 3 atoms
fix Mofix5 Mo5 rigid single
  1 rigid bodies with 3 atoms
fix Mofix6 Mo6 rigid single
  1 rigid bodies with 3 atoms

pair_coeff 1 1 zero 2.24
pair_coeff 2 2 zero 2.24
pair_coeff 3 3 zero 2.24
pair_coeff 1 3 zero 1.68
pair_coeff 1 4 zero 1.68
pair_coeff 2 3 zero 1.68
pair_coeff 2 4 zero 1.68
pair_coeff 1 2 lj/cut 1.0 1.0 2.24 # i-type j-type eps sigma cutoff
pair_coeff 3 4 cosine/squared 10.0 0.5 0.56 wca # i-type j-type eps sigma cutoff wca
pair_coeff 4 4 cosine/squared 10.0 0.5 0.56 wca # i-type j-type eps sigma cutoff wca

# Neighbor list
neighbor 0.3 bin # extra-distance style
#neigh_modify delay 5

minimize 1.0e-4 1.0e-6 1000 10000 # etol ftol maxiter maxeval
Generated 0 of 6 mixed pair_coeff terms from geometric mixing rule
WARNING: More than one fix rigid (src/RIGID/fix_rigid.cpp:709)
WARNING: More than one fix rigid (src/RIGID/fix_rigid.cpp:709)
WARNING: More than one fix rigid (src/RIGID/fix_rigid.cpp:709)
WARNING: More than one fix rigid (src/RIGID/fix_rigid.cpp:709)
WARNING: More than one fix rigid (src/RIGID/fix_rigid.cpp:709)
WARNING: More than one fix rigid (src/RIGID/fix_rigid.cpp:709)
WARNING: More than one fix rigid (src/RIGID/fix_rigid.cpp:709)
Neighbor list info ...
  update: every = 1 steps, delay = 0 steps, check = yes
  max neighbors/atom: 2000, page size: 100000
  master list distance cutoff = 2.54
  ghost atom cutoff = 2.54
  binsize = 1.27, bins = 8 8 8
  5 neighbor lists, perpetual/occasional/extra = 5 0 0
  (1) pair lj/cut, perpetual, skip from (4)
      attributes: half, newton on
      pair build: skip
      stencil: none
      bin: none
  (2) pair cosine/squared, perpetual, skip from (5)
      attributes: half, newton on, cut 0.8600000000000001
      pair build: skip
      stencil: none
      bin: none
  (3) pair zero, perpetual, skip from (4)
      attributes: half, newton on
      pair build: skip
      stencil: none
      bin: none
  (4) neighbor class addition, perpetual
      attributes: half, newton on
      pair build: half/bin/newton
      stencil: half/bin/3d
      bin: standard
  (5) neighbor class addition, perpetual, trim from (4)
      attributes: half, newton on, cut 0.8600000000000001
      pair build: trim
      stencil: none
      bin: none
Per MPI rank memory allocation (min/avg/max) = 19.1 | 19.1 | 19.1 Mbytes
   Step          Temp          E_pair         E_mol          TotEng         Press     
         0   0              0              0              0              3.33186e-311 
         1   0              0              0              0              3.33186e-311 
Loop time of 6.8e-05 on 1 procs for 1 steps with 23 atoms

0.0% CPU use with 1 MPI tasks x 1 OpenMP threads

Minimization stats:
  Stopping criterion = search direction is not downhill
  Energy initial, next-to-last, final = 
                     0                  0                  0
  Force two-norm initial, final = 0 0
  Force max component initial, final = 0 0
  Final line search alpha, max atom move = 0 0
  Iterations, force evaluations = 1 0

MPI task timing breakdown:
Section |  min time  |  avg time  |  max time  |%varavg| %total
---------------------------------------------------------------
Pair    | 2e-06      | 2e-06      | 2e-06      |   0.0 |  2.94
Bond    | 0          | 0          | 0          |   0.0 |  0.00
Neigh   | 0          | 0          | 0          |   0.0 |  0.00
Comm    | 2e-06      | 2e-06      | 2e-06      |   0.0 |  2.94
Output  | 0          | 0          | 0          |   0.0 |  0.00
Modify  | 0          | 0          | 0          |   0.0 |  0.00
Other   |            | 6.4e-05    |            |       | 94.12

Nlocal:             23 ave          23 max          23 min
Histogram: 1 0 0 0 0 0 0 0 0 0
Nghost:             18 ave          18 max          18 min
Histogram: 1 0 0 0 0 0 0 0 0 0
Neighs:              0 ave           0 max           0 min
Histogram: 1 0 0 0 0 0 0 0 0 0

Total # of neighbors = 0
Ave neighs/atom = 0
Ave special neighs/atom = 2.4347826
Neighbor list builds = 0
Dangerous builds = 0

fix 1 all langevin 1.0 1.0 50.0 12345
fix 2 all nve

thermo 50
compute t all temp
compute ep all pe
compute ek all ke
compute tm all momentum

dump 1 all atom 50 dump.patchy_pairs2

timestep 0.001
run 100000
Generated 0 of 6 mixed pair_coeff terms from geometric mixing rule
WARNING: More than one fix rigid (src/RIGID/fix_rigid.cpp:709)
WARNING: More than one fix rigid (src/RIGID/fix_rigid.cpp:709)
WARNING: More than one fix rigid (src/RIGID/fix_rigid.cpp:709)
WARNING: More than one fix rigid (src/RIGID/fix_rigid.cpp:709)
WARNING: More than one fix rigid (src/RIGID/fix_rigid.cpp:709)
WARNING: More than one fix rigid (src/RIGID/fix_rigid.cpp:709)
WARNING: More than one fix rigid (src/RIGID/fix_rigid.cpp:709)
WARNING: One or more atoms are time integrated more than once (src/modify.cpp:289)
Per MPI rank memory allocation (min/avg/max) = 17.97 | 17.97 | 17.97 Mbytes
   Step          Temp          E_pair         E_mol          TotEng         Press     
         1   0              0              0              0              0            
        50   0.003526506    0              0              0.0025298847  -0.047703645  
       100   0.0076438695   0              0              0.0054836455   0.01223446   
       150   0.011636517    0              0              0.0083479358   0.06841665   
       200   0.013813895    0              0              0.0099099679   0.042689268  
       250   0.015230083    0              0              0.010925929    0.015970283  
       300   0.018972224    0              0              0.013610508    0.048707571  
       350   0.018879709    0              0              0.013544139   -0.022758507  
       400   0.019698347    0              0              0.014131423    0.055806915  
       450   0.020539865    0              0              0.01473512     0.0021942822 
       500   0.023379265    0              0              0.016772082    0.034852028  
       550   0.022702163    0              0              0.016286334   -0.0045991857 
       600   0.022497463    0              0              0.016139484    0.022643784  
       650   0.022969523    0              0              0.016478136   -0.0437652    
       700   0.02167512     0              0              0.015549543   -0.022237655  
       750   0.025769561    0              0              0.018486859    0.020565505  
       800   0.02573511     0              0              0.018462144   -0.0256344    
       850   0.02120986     0              0              0.015215769   -0.028141436  
       900   0.024676642    0              0              0.017702808    0.047375001  
       950   0.030188995    0              0              0.021657322   -0.032731738  
      1000   0.032637639    0              0              0.023413958   -0.04364008   
      1050   0.038870791    0              0              0.027885568    0.0042133685 
      1100   0.041846419    0              0              0.030020257    0.018846079  
      1150   0.046882822    0              0              0.033633329    0.016667722  
      1200   0.048428573    0              0              0.034742237    0.00017203793
      1250   0.051031007    0              0              0.036609201   -0.05825761   
      1300   0.046286754    0              0              0.033205715    0.053076705  
      1350   0.05084192     0              0              0.036473551   -0.010055801  
      1400   0.054729508    0              0              0.039262473    0.009629083  
      1450   0.055609684    0              0              0.039893904    0.0059116485 
      1500   0.05311507     0              0              0.038104289    0.0059682557 
      1550   0.055333519    0              0              0.039695785   -0.0074934399 
      1600   0.059670243    0              0              0.042806913    0.039795519  
      1650   0.06514451     0              0              0.046734105   -0.030321697  
      1700   0.06693524     0              0              0.048018759   -0.038736824  
      1750   0.065854673    0              0              0.047243569   -0.1358312    
      1800   0.065936023    0              0              0.04730193    -0.001140293  
      1850   0.068384816    0              0              0.049058673   -0.018964147  
      1900   0.075790563    0              0              0.054371491    0.058773042  
      1950   0.082494799    0              0              0.059181051   -0.007861387  
      2000   0.088702751    0              0              0.063634582   -0.039279211  
      2050   0.09377574     0              0              0.0672739      0.018615787  
      2100   0.092631888    0              0              0.066453311    0.040337609  
      2150   0.092983104    0              0              0.06670527     0.0645671    
      2200   0.096430742    0              0              0.069178576   -0.018481825  
      2250   0.093382332    0              0              0.066991673   -0.020893774  
      2300   0.10177704     0              0              0.073013964    0.03723227   
      2350   0.099574747    0              0              0.071434058    0.022646491  
      2400   0.098454277    0              0              0.070630242    0.02258591   
      2450   0.096795471    0              0              0.06944023     0.06891818   
      2500   0.10461674     0              0              0.075051138   -0.016415265  
      2550   0.092225008    0              0              0.066161418    0.041596842  
      2600   0.094124587    0              0              0.06752416    -0.021891933  
      2650   0.088982944    0              0              0.06383559    -0.034450628  
      2700   0.095255341    0              0              0.068335353   -0.048020633  
      2750   0.094003118    0              0              0.067437019    0.012959851  
      2800   0.088512065    0              0              0.063497786   -0.062822277  
      2850   0.090377177    0              0              0.064835801    0.033001136  
      2900   0.082326242    0              0              0.05906013    -0.014781354  
      2950   0.082610418    0              0              0.059263996    0.047535245  
      3000   0.084660752    0              0              0.060734887   -0.04329871   
      3050   0.09448855     0              0              0.067785264    0.0093920435 
      3100   0.097275181    0              0              0.069784369    0.02974143   
      3150   0.1082717      0              0              0.077673177   -0.015868013  
      3200   0.10662607     0              0              0.076492617    0.0048940004 
      3250   0.10698935     0              0              0.076753227   -0.011556771  
      3300   0.11788931     0              0              0.084572764    0.075417041  
      3350   0.12833366     0              0              0.092065454   -0.021291454  
      3400   0.12385144     0              0              0.088849947    0.0094264428 
      3450   0.13787849     0              0              0.098912831    0.098871793  
      3500   0.14044607     0              0              0.10075479     0.085533367  
      3550   0.13878172     0              0              0.099560802    0.0087475193 
      3600   0.14121435     0              0              0.10130595     0.032943207  
      3650   0.55192501    -0.29890768     0              0.097038521   -0.88500631   
      3700   0.35010376    -0.29734561     0             -0.046184211   -0.75322279   
      3750   0.18755088    -0.25880934     0             -0.12426197     1.081484     
      3800   0.34265761    -0.4347309      0             -0.18891131    -0.079676592  
      3850   0.30745052    -0.43344892     0             -0.21288659    -0.088771424  
      3900   0.2246114     -0.39793935     0             -0.23680509     0.30170115   
      3950   0.20525023    -0.39693847     0             -0.24969373    -0.56724039   
      4000   0.21638853    -0.40867375     0             -0.2534385      0.23291146   
      4050   0.20717303    -0.40530334     0             -0.25667922    -0.44390427   
      4100   0.21488501    -0.41450228     0             -0.26034564     0.22545946   
      4150   0.20687593    -0.41244076     0             -0.26402977    -0.32567206   
      4200   0.21750645    -0.42286016     0             -0.26682292     0.19668259   
      4250   0.23185377    -0.43474151     0             -0.26841163    -0.0013414579 
      4300   0.23272356    -0.43463069     0             -0.26767683     0.041944977  
      4350   0.22510205    -0.43026728     0             -0.26878103     0.041394414  
      4400   0.22145761    -0.43309645     0             -0.27422468    -0.050230821  
      4450   0.23306751    -0.43427411     0             -0.2670735     -0.041893269  
      4500   0.24169655    -0.43340358     0             -0.26001258     0.022975672  
      4550   0.24284484    -0.43465295     0             -0.26043818    -0.066856649  
      4600   0.24406321    -0.43472819     0             -0.25963937     0.0075268471 
      4650   0.23634957    -0.43451175     0             -0.26495662     0.0057445643 
      4700   0.24292227    -0.43469478     0             -0.26042445     0.033725523  
      4750   0.24361996    -0.43463265     0             -0.25986181    -0.017469745  
      4800   0.24219236    -0.43478055     0             -0.26103386     0.026895092  
      4850   0.23490681    -0.43468014     0             -0.26616004     0.060926291  
      4900   0.23770245    -0.43470628     0             -0.26418061    -0.011516034  
      4950   0.23584976    -0.43470918     0             -0.26551262     0.018377106  
      5000   0.23123928    -0.43477863     0             -0.26888958    -0.0072539589 
      5050   0.22702384    -0.43464364     0             -0.27177871     0.018639336  
      5100   0.24575788    -0.43477695     0             -0.25847238    -0.026594791  
      5150   0.24107447    -0.43477942     0             -0.26183469     0.045543674  
      5200   0.25229418    -0.43468859     0             -0.25369495     0.022966079  
      5250   0.26133326    -0.43475347     0             -0.24727527    -0.020142917  
      5300   0.25379647    -0.43478014     0             -0.25270876    -0.0039871875 
      5350   0.26830541    -0.43477189     0             -0.24229193     0.010148131  
      5400   0.28080156    -0.43478257     0             -0.23333797     0.02482309   
      5450   0.29732792    -0.4347825      0             -0.22148204    -0.013561609  
      5500   0.28605274    -0.43478259     0             -0.22957084    -0.0085330192 
      5550   0.27536473    -0.43475828     0             -0.23721401    -0.0025239951 
      5600   0.2671399     -0.43473899     0             -0.24309515    -0.023794951  
      5650   0.26442711    -0.43470107     0             -0.24500336     0.0016864338 
      5700   0.28073212    -0.43477364     0             -0.23337886     0.036753336  
      5750   0.30175767    -0.43471431     0             -0.21823598     0.047907635  
      5800   0.30355225    -0.43478062     0             -0.21701487    -0.015046655  
      5850   0.30092358    -0.43473381     0             -0.21885386    -0.081758923  
      5900   0.29950294    -0.43477693     0             -0.21991613     0.070791291  
      5950   0.31039362    -0.43476502     0             -0.21209134     0.04893918   
      6000   0.30560007    -0.4347826      0             -0.21554777     0.0046158841 
      6050   0.31001965    -0.43474022     0             -0.21233482     0.0093152488 
      6100   0.31866707    -0.43472278     0             -0.2061138     -0.063629734  
      6150   0.32095829    -0.43468913     0             -0.20443644     0.054491827  
      6200   0.3211575     -0.43465673     0             -0.20426113     0.0042833279 
      6250   0.32550572    -0.43443861     0             -0.20092363    -0.0051346944 
      6300   0.32078814    -0.43455245     0             -0.20442183    -0.033850518  
      6350   0.31221522    -0.43469178     0             -0.21071129    -0.0048791354 
      6400   0.3087044     -0.43460482     0             -0.21314297     0.0023005362 
      6450   0.30822205    -0.43469623     0             -0.21358041     0.037627822  
      6500   0.2993432     -0.43478197     0             -0.22003576    -0.0097985186 
      6550   0.29201244    -0.43472665     0             -0.22523947    -0.023251607  
      6600   0.30018675    -0.43477503     0             -0.21942367    -0.01131342   
      6650   0.3243232     -0.43477259     0             -0.20210594    -0.060344328  
      6700   0.33836005    -0.43477574     0             -0.19203918     0.023228212  
      6750   0.33991523    -0.43476957     0             -0.19091734    -0.030068154  
      6800   0.34465515    -0.43616431     0             -0.1889117     -0.020434158  
      6850   0.34454829    -0.43620633     0             -0.18903038     0.0037341555 
      6900   0.34035346    -0.43625564     0             -0.19208903    -0.006375835  
      6950   0.35102844    -0.43621526     0             -0.18439051    -0.056453549  
      7000   0.35478492    -0.43624522     0             -0.1817256      0.038664186  
      7050   0.37864727    -0.4364029      0             -0.16476465     0.026132089  
      7100   0.38000833    -0.43645541     0             -0.16384074    -0.071883339  
      7150   0.37676901    -0.43652376     0             -0.16623295     0.039882311  
      7200   0.38626801    -0.43659571     0             -0.1594904      0.017978003  
      7250   0.37455488    -0.43664195     0             -0.16793954    -0.040143082  
      7300   0.37576614    -0.43675222     0             -0.16718086     0.053386049  
      7350   0.35860885    -0.43666909     0             -0.17940622    -0.044465163  
      7400   0.34746238    -0.43673742     0             -0.18747093    -0.017994061  
      7450   0.332754      -0.43659285     0             -0.19787803     0.049769286  
      7500   0.32985247    -0.43667173     0             -0.20003843     0.026434306  
      7550   0.33097624    -0.43694839     0             -0.19950892     0.030231083  
      7600   0.33042374    -0.43696932     0             -0.1999262      0.04872722   
      7650   0.33537676    -0.43719456     0             -0.19659819    -0.029998558  
      7700   0.34130553    -0.43721025     0             -0.19236063     0.01027222   
      7750   0.34152725    -0.43723781     0             -0.19222913    -0.03822757   
      7800   0.33586507    -0.43729287     0             -0.19634619    -0.082088573  
      7850   0.34937123    -0.43730274     0             -0.18666685     0.055726357  
      7900   0.35279938    -0.4372446      0             -0.18414939     0.025068807  
      7950   0.35249643    -0.43732552     0             -0.18444765     0.0082797204 
      8000   0.34424336    -0.43744817     0             -0.19049097     0.044665272  
      8050   0.32459425    -0.43748156     0             -0.20462046    -0.00047947955
      8100   0.33212435    -0.43746555     0             -0.19920243    -0.0015022711 
      8150   0.32842414    -0.43736293     0             -0.20175431     0.034435918  
      8200   0.3229305     -0.43737122     0             -0.20570369     0.084996262  
      8250   0.34942789    -0.43737238     0             -0.18669586    -0.0020925236 
      8300   0.35845443    -0.43756648     0             -0.18041439     0.064735901  
      8350   0.35482679    -0.4375537      0             -0.18300404     0.059887971  
      8400   0.33586202    -0.43755572     0             -0.19661122     0.035087525  
      8450   0.34797848    -0.43753808     0             -0.18790135     0.0011225961 
      8500   0.35106295    -0.43756447     0             -0.18571496     0.043636837  
      8550   0.34591136    -0.43732976     0             -0.18917595     0.0083406639 
      8600   0.34279081    -0.43745912     0             -0.19154397     0.018860567  
      8650   0.34744585    -0.4375569      0             -0.18830227    -0.056284166  
      8700   0.35621252    -0.43748539     0             -0.18194162    -0.012360952  
      8750   0.36756635    -0.43742765     0             -0.17373874     0.0010602166 
      8800   0.36526385    -0.43748728     0             -0.17545017     0.043069673  
      8850   0.36486569    -0.43738653     0             -0.17563506     0.056544119  
      8900   0.35053893    -0.43739169     0             -0.18591811     0.0027885023 
      8950   0.35668427    -0.43742042     0             -0.18153823    -0.02387178   
      9000   0.35484277    -0.43735599     0             -0.18279487     0.01203241   
      9050   0.35958702    -0.43729535     0             -0.17933075     0.014022757  
      9100   0.36718732    -0.437336       0             -0.17391901    -0.1150995    
      9150   0.36606496    -0.43725958     0             -0.17464776    -0.040001579  
      9200   0.37615649    -0.43727114     0             -0.16741974     0.077471178  
      9250   0.36394909    -0.43724018     0             -0.17614626    -0.0059365475 
      9300   0.34504876    -0.43720251     0             -0.18966753     0.031040301  
      9350   0.33265588    -0.43715704     0             -0.1985126     -0.018365335  
      9400   0.33844709    -0.43711951     0             -0.19432051    -0.014463766  
      9450   0.34780738    -0.43708566     0             -0.18757167     0.00086824178
      9500   0.3599459     -0.43706148     0             -0.17883943     0.080454688  
      9550   0.36702462    -0.43699937     0             -0.1736991      0.073901177  
      9600   0.37920095    -0.4370106      0             -0.16497513    -0.018107219  
      9650   0.37938022    -0.43698304     0             -0.16481897    -0.011571731  
      9700   0.37832057    -0.43694129     0             -0.1655374     -0.00824781   
      9750   0.38691884    -0.43694429     0             -0.15937208    -0.0078306152 
      9800   0.39471625    -0.43687658     0             -0.15371057    -0.0037256249 
      9850   0.41188008    -0.43688224     0             -0.14140305     0.0046285975 
      9900   0.43788789    -0.43690594     0             -0.12276897    -0.007983271  
      9950   0.44600856    -0.43689072     0             -0.11692805     0.038635691  
     10000   0.4380703     -0.43686609     0             -0.12259826     0.035849458  
     10050   0.45305972    -0.43682651     0             -0.11180541    -0.01790179   
     10100   0.44724481    -0.43677852     0             -0.11592899    -0.089138126  
     10150   0.44374722    -0.43690006     0             -0.11855966     0.076461104  
     10200   0.43828533    -0.43694323     0             -0.12252115    -0.1137947    
     10250   0.43962509    -0.43696096     0             -0.12157774     0.010399446  
     10300   0.43944563    -0.43697632     0             -0.12172184     0.091741838  
     10350   0.43484167    -0.43700308     0             -0.12505144    -0.015128963  
     10400   0.45371621    -0.43701285     0             -0.11152079    -0.021360252  
     10450   0.47284149    -0.4370246      0             -0.097812227   -0.041970918  
     10500   0.47998004    -0.43702395     0             -0.092690442   -0.086286563  
     10550   0.49061388    -0.43708543     0             -0.085123302   -0.084097325  
     10600   0.49574685    -0.43702357     0             -0.08137909    -0.063073213  
     10650   0.49460333    -0.43711777     0             -0.082293643    0.03727435   
     10700   0.49817275    -0.43717538     0             -0.079790579    0.1046382    
     10750   0.49928015    -0.43718268     0             -0.079003437    0.015792989  
     10800   0.49645131    -0.43705717     0             -0.080907318    0.085090108  
     10850   0.50999639    -0.43722678     0             -0.071359803   -0.04209344   
     10900   0.50564044    -0.43725369     0             -0.074511631    0.059953652  
     10950   0.51047315    -0.43726743     0             -0.071058425    0.15096095   
     11000   0.5011156     -0.43727597     0             -0.077779995    0.019533378  
     11050   0.49822367    -0.43725667     0             -0.079835344    0.042249899  
     11100   0.48391137    -0.43724518     0             -0.09009137     0.067262081  
     11150   0.48381016    -0.43726715     0             -0.090185948   -0.12902446   
     11200   0.47955572    -0.43724744     0             -0.093218338   -0.056121299  
     11250   0.49287253    -0.43717436     0             -0.083591891    0.0039206412 
     11300   0.49725295    -0.43699838     0             -0.080273433    0.042946525  
     11350   0.49120662    -0.43711142     0             -0.084724059   -0.02689381   
     11400   0.49633031    -0.43705088     0             -0.080987829    0.084080081  
     11450   0.50085071    -0.43700382     0             -0.07769787    -0.031575114  
     11500   0.51417529    -0.43698195     0             -0.068117074    0.0051113811 
     11550   0.50439109    -0.43705673     0             -0.075210952   -0.052402548  
     11600   0.5083185     -0.43707365     0             -0.072410374    0.039563082  
     11650   0.50313576    -0.4370884      0             -0.076143182   -0.0235414    
     11700   0.50849335    -0.4369425      0             -0.072153794    0.0042478548 
     11750   0.50864337    -0.43685223     0             -0.071955898   -0.019381543  
     11800   0.50832746    -0.4369686      0             -0.072298907   -0.00060066113
     11850   0.49994273    -0.43720522     0             -0.078550651   -0.017870561  
     11900   0.51104258    -0.43718782     0             -0.070570315   -0.068106639  
     11950   0.51795563    -0.43710075     0             -0.06552389    -0.017530563  
     12000   0.52220816    -0.43736692     0             -0.062739333    0.065087375  
     12050   0.50398749    -0.43747404     0             -0.075917798    0.089309783  
     12100   0.50502178    -0.43751906     0             -0.075220827   -0.068231592  
     12150   0.49750534    -0.43765293     0             -0.080746923   -0.082448585  
     12200   0.50273066    -0.43770286     0             -0.077048255   -0.0043719389 
     12250   0.50516025    -0.4378467      0             -0.075449132   -0.13659226   
     12300   0.51784242    -0.43790643     0             -0.066410786   -0.081383207  
     12350   0.5353785     -0.43805332     0             -0.05397744     0.023193696  
     12400   0.52229304    -0.43816699     0             -0.063478509   -0.051112812  
     12450   0.52157173    -0.43821037     0             -0.064039345   -0.0084516619 
     12500   0.52552777    -0.43844919     0             -0.061440132    0.054885568  
     12550   0.52720037    -0.43864977     0             -0.06044081    -0.00385753   
     12600   0.53200033    -0.43884815     0             -0.057195746   -0.01660679   
     12650   0.53691464    -0.43897081     0             -0.053792915   -0.040927077  
     12700   0.51515856    -0.43920263     0             -0.069632353   -0.13068752   
     12750   0.51135929    -0.4393297      0             -0.072484989    0.014978602  
     12800   0.51419826    -0.43948373     0             -0.07060237     0.096941387  
     12850   0.51162937    -0.43967507     0             -0.07263661     0.098838435  
     12900   0.51447087    -0.43984099     0             -0.070764061    0.031005956  
     12950   0.53210906    -0.43993698     0             -0.058206564    0.1241936    
     13000   0.53430595    -0.44009118     0             -0.056784743   -0.039465978  
     13050   0.55061142    -0.44018763     0             -0.045183783    0.031296007  
     13100   0.56774172    -0.44029822     0             -0.033005247    0.010979761  
     13150   0.56479488    -0.4404685      0             -0.035289571   -0.019877447  
     13200   0.55712098    -0.44071388     0             -0.041040135    0.02589577   
     13250   0.56397322    -0.44095151     0             -0.036362028   -0.031957556  
     13300   0.56398177    -0.4411419      0             -0.036546284    0.013111338  
     13350   0.55881441    -0.44134292     0             -0.040454321    0.029691963  
     13400   0.55489823    -0.44152142     0             -0.04344225    -0.02220916   
     13450   0.54314215    -0.44180619     0             -0.052160734   -0.0047578243 
     13500   0.51546953    -0.44200083     0             -0.072207475    0.077302479  
     13550   0.51280238    -0.4421588      0             -0.074278834    0.042703394  
     13600   0.52933887    -0.44243353     0             -0.062690428   -0.010687686  
     13650   0.54190647    -0.44277787     0             -0.054018883    0.015217277  
     13700   0.53843543    -0.44287126     0             -0.056602361    0.014395265  
     13750   0.5404227     -0.44349097     0             -0.055796422    0.0010725049 
     13800   0.5384592     -0.44384396     0             -0.057558011    0.024036709  
     13850   0.52654775    -0.44426204     0             -0.066521265    0.09210403   
     13900   0.51048079    -0.44464639     0             -0.078431911   -0.041067894  
     13950   0.53212587    -0.44502979     0             -0.063287321    0.023687607  
     14000   0.5407339     -0.44542339     0             -0.057505593   -0.019323207  
     14050   0.54297008    -0.44587794     0             -0.056355931    0.015504791  
     14100   0.54630883    -0.4464186      0             -0.054501402   -0.071995711  
     14150   0.54770563    -0.44681909     0             -0.053899834    0.13333994   
     14200   0.53689599    -0.44715945     0             -0.061994943   -0.030402936  
     14250   0.52996647    -0.44766277     0             -0.067469437   -0.037931905  
     14300   0.54086912    -0.44814945     0             -0.060134642    0.012134604  
     14350   0.51959629    -0.44874109     0             -0.075987224   -0.014399941  
     14400   0.52535472    -0.44931775     0             -0.072432841    0.029751856  
     14450   0.52791883    -0.44988238     0             -0.071158008    0.072926961  
     14500   0.54960176    -0.45039833     0             -0.056118807   -0.067524859  
     14550   0.5619067     -0.45098415     0             -0.047877172    0.12421608   
     14600   0.58203346    -0.45152595     0             -0.033980213   -0.016753929  
     14650   0.5746113     -0.45261221     0             -0.040391055   -0.038301954  
     14700   0.58041846    -0.45387754     0             -0.037490383   -0.076468654  
     14750   0.56631023    -0.45540383     0             -0.049137795   -0.033315853  
     14800   0.56520723    -0.45679714     0             -0.051322394    0.088154496  
     14850   0.56154872    -0.45941392     0             -0.056563753    0.064176815  
     14900   0.55745451    -0.46193229     0             -0.062019274   -0.01395732   
     14950   0.56565162    -0.46457758     0             -0.058784024   -0.042931627  
     15000   0.57931532    -0.46760602     0             -0.052010247   -0.035381159  
     15050   0.59241312    -0.47083366     0             -0.045841642    0.021145911  
     15100   0.57690882    -0.47422779     0             -0.060358415   -0.003180163  
     15150   0.58206166    -0.47714452     0             -0.059578546   -0.060646609  
     15200   0.59175792    -0.47821646     0             -0.05369447     0.043260021  
     15250   0.58175262    -0.47555125     0             -0.05820698     0.055838067  
     15300   0.57610097    -0.46830734     0             -0.055017513    0.14981063   
     15350   0.55475527    -0.45922748     0             -0.061250874    0.011124328  
     15400   0.53019655    -0.45594771     0             -0.075589316    0.0861194    
     15450   0.5504903     -0.46252736     0             -0.067610409   -0.0023314882 
     15500   0.57194477    -0.47164661     0             -0.061338404   -0.035859377  
     15550   0.58862455    -0.47714797     0             -0.054873834    0.023336606  
     15600   0.61390129    -0.47810399     0             -0.037696546    0.099905399  
     15650   0.60712902    -0.47621725     0             -0.040668176   -0.0065469741 
     15700   0.5858979     -0.47315321     0             -0.052835146   -0.016134992  
     15750   0.58913058    -0.46989223     0             -0.047255078   -0.01622967   
     15800   0.56747453    -0.46661033     0             -0.059509034    0.084078373  
     15850   0.56755388    -0.46334652     0             -0.056188304    0.13553017   
     15900   0.55327722    -0.4604636      0             -0.063547333    0.04514044   
     15950   0.53878963    -0.45794945     0             -0.07142645    -0.013550367  
     16000   0.5248849     -0.4555372      0             -0.078989341    0.013864012  
     16050   1.0457241     -0.88737442     0             -0.13718102     0.09445987   
     16100   0.50285589    -0.67496864     0             -0.3142242     -0.010299009  
     16150   0.64081407    -0.85972046     0             -0.40000602     0.11237702   
     16200   0.53025052    -0.84193692     0             -0.46153981     0.061090336  
     16250   0.51745912    -0.85640711     0             -0.48518644     0.070914124  
     16300   0.52866103    -0.86993273     0             -0.4906759     -0.042552239  
     16350   0.54536738    -0.88127009     0             -0.49002827     0.049684911  
     16400   0.53241667    -0.87275178     0             -0.49080069    -0.077905624  
     16450   0.5376725     -0.87541583     0             -0.48969425     0.077325443  
     16500   0.54433114    -0.88044507     0             -0.48994664    -0.142478     
     16550   0.54738629    -0.8810079      0             -0.48831773    -0.036949008  
     16600   0.54651377    -0.87743967     0             -0.48537544     0.066101233  
     16650   0.53532001    -0.8826687      0             -0.49863479     0.087597758  
     16700   0.53701985    -0.883904       0             -0.49865062    -0.01019104   
     16750   0.54452333    -0.88376089     0             -0.49312459    -0.10847614   
     16800   0.55068382    -0.88645643     0             -0.49140065     0.0068709097 
     16850   0.5523815     -0.88809031     0             -0.49181662    -0.048668678  
     16900   0.56336207    -0.8895075      0             -0.48535646    -0.12349295   
     16950   0.54955124    -0.8913529      0             -0.49710962     0.16276689   
     17000   0.55593875    -0.89272619     0             -0.49390056    -0.042148695  
     17050   0.54986025    -0.8944         0             -0.49993504     0.024412584  
     17100   0.56501693    -0.89588724     0             -0.49054901    -0.0012694214 
     17150   0.55262327    -0.89753185     0             -0.50108472    -0.09074184   
     17200   0.54754933    -0.89872969     0             -0.50592256     0.075880016  
     17250   0.5552887     -0.90012298     0             -0.50176369     0.030647448  
     17300   0.56408839    -0.90190242     0             -0.49723032     0.055611334  
     17350   0.57328378    -0.90330938     0             -0.49204058     0.085202084  
     17400   0.57482946    -0.90497269     0             -0.49259504     0.064415245  
     17450   0.57251672    -0.90668731     0             -0.4959688      0.045582348  
     17500   0.56159024    -0.90819443     0             -0.50531448    -0.018581683  
     17550   0.54603613    -0.91018236     0             -0.51846079    -0.037707808  
     17600   0.55079986    -0.9118886      0             -0.51674957    -0.00021518976
     17650   0.56423799    -0.91293245     0             -0.50815302    -0.024641916  
     17700   0.57074146    -0.91268347     0             -0.50323851     0.073496051  
     17750   0.58783577    -0.91089823     0             -0.48918996    -0.060281931  
     17800   0.57238194    -0.90737006     0             -0.49674824     0.061345668  
     17850   0.58683716    -0.90416978     0             -0.48317791     0.076776128  
     17900   0.57016073    -0.90294335     0             -0.49391501     0.064025203  
     17950   0.58455917    -0.90487978     0             -0.48552212    -0.029558071  
     18000   0.59896601    -0.90828529     0             -0.47859228    -0.026492056  
     18050   0.5927248     -0.9114578      0             -0.48624218    -0.033561039  
     18100   0.61363402    -0.91280115     0             -0.47258544     0.072046807  
     18150   0.62643441    -0.9125737      0             -0.4631751      0.024306966  
     18200   0.61893059    -0.91164952     0             -0.4676341     -0.04679285   
     18250   0.62959395    -0.91043485     0             -0.45876962    -0.0051072869 
     18300   0.63253571    -0.90963056     0             -0.45585495    -0.01383572   
     18350   0.62359637    -0.90931788     0             -0.46195526     0.062950352  
     18400   0.62364897    -0.90933259     0             -0.46193224     0.048813977  
     18450   0.60174128    -0.91047352     0             -0.47878956    -0.062078902  
     18500   0.59949283    -0.911689       0             -0.48161805     0.029401143  
     18550   0.58294606    -0.91295179     0             -0.49475136    -0.073158972  
     18600   0.58587342    -0.91235882     0             -0.49205832    -0.00012656308
     18650   0.58736102    -0.9103179      0             -0.48895021    -0.0085198863 
     18700   0.58718753    -0.90789054     0             -0.48664732    -0.035498202  
     18750   0.58227242    -0.90640517     0             -0.488688      -0.057909525  
     18800   0.58684511    -0.9066706      0             -0.48567302     0.038724537  
     18850   0.60429153    -0.90875547     0             -0.47524198    -0.082140625  
     18900   0.59417583    -0.91110858     0             -0.484852       0.020269229  
     18950   0.59371999    -0.91276628     0             -0.48683672     0.0081328674 
     19000   0.5944596     -0.91288126     0             -0.48642111     0.12585973   
     19050   0.57057835    -0.91227739     0             -0.50294944    -0.012053482  
     19100   0.57354694    -0.91099314     0             -0.49953555    -0.12281687   
     19150   0.56813226    -0.90928164     0             -0.5017085      0.072001688  
     19200   0.57252151    -0.90788849     0             -0.49716654     0.016073567  
     19250   0.56375986    -0.90650015     0             -0.50206373     0.088252331  
     19300   0.57249987    -0.90655595     0             -0.49584952    -0.03266957   
     19350   0.59257518    -0.9066327      0             -0.48152442     0.011162859  
     19400   0.59347725    -0.90742094     0             -0.48166552    -0.014115226  
     19450   0.59017949    -0.90824177     0             -0.48485214    -0.025108575  
     19500   0.58286618    -0.90946319     0             -0.49132006    -0.021830694  
     19550   0.58458234    -0.91099072     0             -0.49161643    -0.00051882094
     19600   0.59573342    -0.91218286     0             -0.48480888    -0.048504025  
     19650   0.6057678     -0.91278813     0             -0.47821558     0.11714259   
     19700   0.61566074    -0.91260025     0             -0.47093059    -0.066885206  
     19750   0.61166191    -0.91230763     0             -0.4735067      0.047730639  
     19800   0.61154945    -0.91188649     0             -0.47316623    -0.061966492  
     19850   0.62212105    -0.91200557     0             -0.46570134     0.08932566   
     19900   0.62175025    -0.91232577     0             -0.46628755    -0.033164192  
     19950   0.62899859    -0.91292149     0             -0.46168337     0.051047526  
     20000   0.64809919    -0.9123303      0             -0.44738957     0.034701454  
     20050   0.62743809    -0.91000151     0             -0.45988287     0.061183406  
     20100   0.63451806    -0.90612133     0             -0.45092359    -0.041850853  
     20150   0.63580524    -0.90151357     0             -0.44539242     0.015555548  
     20200   0.63429997    -0.89711248     0             -0.44207119     0.030568532  
     20250   0.62415124    -0.89300541     0             -0.44524474     0.023216621  
     20300   0.60813091    -0.88925095     0             -0.45298313    -0.051691565  
     20350   0.61397562    -0.88618857     0             -0.4457278      0.1503718    
     20400   0.61520253    -0.88370497     0             -0.44236402    -0.02309479   
     20450   0.622274      -0.88161625     0             -0.43520229    -0.077752192  
     20500   0.61638711    -0.88026934     0             -0.43807858    -0.037698389  
     20550   0.59893905    -0.87911611     0             -0.44944245    -0.022842037  
     20600   0.58705112    -0.87818804     0             -0.45704267    -0.029539981  
     20650   0.59232307    -0.87756377     0             -0.45263635     0.03301501   
     20700   0.59817802    -0.87738558     0             -0.44825787    -0.082804561  
     20750   0.58116343    -0.8772122      0             -0.46029061     0.036095939  
     20800   0.56349251    -0.87700597     0             -0.47276135     0.071311041  
     20850   0.55548527    -0.87698873     0             -0.47848843    -0.02518313   
     20900   0.54976999    -0.87705575     0             -0.48265554     0.037319048  
     20950   0.55538198    -0.87736967     0             -0.47894347     0.083628791  
     21000   0.56402626    -0.8776285      0             -0.47300096    -0.084734277  
     21050   0.55038332    -0.8779968      0             -0.48315659    -0.0093883409 
     21100   0.56676978    -0.87848616     0             -0.47189044     0.031467705  
     21150   0.58517547    -0.87897117     0             -0.45917138    -0.05671315   
     21200   0.59396962    -0.87990721     0             -0.45379857     0.065064814  
     21250   0.59912816    -0.88077992     0             -0.45097059     0.069130748  
     21300   0.58940433    -0.88191875     0             -0.45908521     0.091742534  
     21350   0.5748625     -0.8831211      0             -0.47071974     0.017109225  
     21400   0.57320365    -0.8843684      0             -0.47315708     0.068069823  
     21450   0.55846057    -0.88551384     0             -0.48487909     0.074019293  
     21500   0.55309989    -0.8871479      0             -0.49035884    -0.09509527   
     21550   0.55517761    -0.88890922     0             -0.49062963     0.091089589  
     21600   0.55335358    -0.89052093     0             -0.49354988     0.07173654   
     21650   0.55106742    -0.89264824     0             -0.49731727     0.078714849  
     21700   0.55497841    -0.8944398      0             -0.49630312    -0.11574507   
     21750   0.54969193    -0.89643331     0             -0.5020891      0.01082603   
     21800   0.55405261    -0.89813183     0             -0.5006593      0.10492651   
     21850   0.5781245     -0.89883564     0             -0.48409415     0.057222842  
     21900   0.58705941    -0.89908376     0             -0.47793244     0.10227968   
     21950   0.60506464    -0.8984446      0             -0.46437649     0.073485957  
     22000   0.6170041     -0.89659718     0             -0.4539638      0.10186959   
     22050   0.60570011    -0.89370909     0             -0.4591851      0.019761665  
     22100   0.60467393    -0.89089661     0             -0.45710879     0.060968207  
     22150   0.59399046    -0.88820202     0             -0.46207842    -0.030266402  
     22200   0.58795534    -0.88568134     0             -0.46388729    -0.062116953  
     22250   0.56162204    -0.88348634     0             -0.48058357    -0.033466223  
     22300   0.55512174    -0.88144587     0             -0.48320636     0.06059764   
     22350   0.57431757    -0.87966119     0             -0.46765076     0.013456553  
     22400   0.58190941    -0.87814086     0             -0.4606841     -0.0022082448 
     22450   0.56909574    -0.87694828     0             -0.46868394     0.073573795  
     22500   0.55669585    -0.8760642      0             -0.47669544     0.01923033   
     22550   0.5732851     -0.8751219      0             -0.46385216     0.040289811  
     22600   0.57706032    -0.87445549     0             -0.46047744    -0.019969796  
     22650   0.55728489    -0.87403631     0             -0.47424498    -0.02330428   
     22700   0.5577522     -0.87356293     0             -0.47343635    -0.078776858  
     22750   0.57069937    -0.87307093     0             -0.46365616     0.069527894  
     22800   0.56978709    -0.87291212     0             -0.46415181     0.043033997  
     22850   0.57465456    -0.87267057     0             -0.46041839    -0.12279023   
     22900   0.56663649    -0.87222539     0             -0.4657253     -0.021162445  
     22950   0.57330006    -0.87222557     0             -0.46094509     0.026866576  
     23000   0.58114983    -0.87235554     0             -0.4554437      0.028566863  
     23050   0.57298364    -0.87235805     0             -0.46130457    -0.017797497  
     23100   0.5617298     -0.87228794     0             -0.46930786    -0.035207452  
     23150   0.56860495    -0.87236861     0             -0.46445636    -0.11060444   
     23200   0.57712494    -0.87230624     0             -0.45828183     0.076712032  
     23250   0.58680817    -0.87221811     0             -0.45124703     0.072856303  
     23300   0.56591155    -0.87268264     0             -0.46670262    -0.024999918  
     23350   0.56142083    -0.87291548     0             -0.47015706     0.030213077  
     23400   0.574295      -0.87314399     0             -0.46114975    -0.00070931998
     23450   0.57856997    -0.87339299     0             -0.45833192     0.066001391  
     23500   0.56709986    -0.87363825     0             -0.46680574    -0.053305764  
     23550   0.57573601    -0.87401225     0             -0.46098424     0.041728452  
     23600   0.56749149    -0.8742102      0             -0.46709674    -0.062849415  
     23650   0.56207166    -0.87454822     0             -0.4713229     -0.031633508  
     23700   0.55109125    -0.87483937     0             -0.4794913      0.058355266  
     23750   0.55437343    -0.8751411      0             -0.47743843    -0.04917364   
     23800   0.56198854    -0.87533773     0             -0.47217204     0.034003272  
     23850   0.56283547    -0.87565568     0             -0.47188241    -0.058187006  
     23900   0.53767798    -0.8758766      0             -0.49015109    -0.018194979  
     23950   0.51870117    -0.87604178     0             -0.50393007     0.011702701  
     24000   0.52082025    -0.8760039      0             -0.50237198     0.0063261435 
     24050   0.54368521    -0.87647099     0             -0.48643595    -0.044240679  
     24100   0.53952983    -0.8764947      0             -0.48944069     0.051063795  
     24150   0.55703239    -0.8768372      0             -0.477227       0.13093342   
     24200   0.57296572    -0.8768901      0             -0.46584947     0.089708442  
     24250   0.59817443    -0.87701837     0             -0.44789323    -0.10635454   
     24300   0.6040955     -0.87708001     0             -0.44370716     0.0044870477 
     24350   0.59789847    -0.87708853     0             -0.44816137    -0.0033535323 
     24400   0.59992484    -0.87702405     0             -0.44664319    -0.02091067   
     24450   0.60060201    -0.87698896     0             -0.4461223      0.014402645  
     24500   0.6014298     -0.87844716     0             -0.44698665     0.00040843665
     24550   0.60144863    -0.8784112      0             -0.44693719    -0.01973392   
     24600   0.60073817    -0.87860844     0             -0.4476441      0.020406272  
     24650   0.60911853    -0.87875591     0             -0.44177957     0.0070615541 
     24700   0.60902531    -0.87883548     0             -0.44192602     0.029189992  
     24750   0.60775397    -0.87880328     0             -0.44280587    -0.06418419   
     24800   0.61505978    -0.87880303     0             -0.43756449     0.11440726   
     24850   0.61883217    -0.87933906     0             -0.43539424    -0.017659722  
     24900   0.63268751    -0.87966708     0             -0.42578256    -0.013468806  
     24950   0.61171612    -0.87993584     0             -0.44109602    -0.010575252  
     25000   0.61153138    -0.88021397     0             -0.44150668     0.094334835  
     25050   0.63060291    -0.88060893     0             -0.42821989    -0.037597394  
     25100   0.61966665    -0.88091876     0             -0.4363753      0.050788864  
     25150   0.63640504    -0.88139233     0             -0.42484089     0.09976976   
     25200   0.61632746    -0.88174343     0             -0.43959547     0.004982347  
     25250   0.61278519    -0.88184084     0             -0.44223407    -0.012950294  
     25300   0.6383658     -0.88169934     0             -0.42374127     0.047238476  
     25350   0.65784759    -0.88163876     0             -0.40970462     0.072801018  
     25400   0.67219459    -0.88197897     0             -0.39975242     0.040093122  
     25450   0.67731919    -0.88190825     0             -0.39600536    -0.051415665  
     25500   0.68465544    -0.8817786      0             -0.39061275    -0.06548062   
     25550   0.69899135    -0.88149935     0             -0.38004903    -0.047075634  
     25600   0.7055753     -0.88101017     0             -0.37483658     0.052256504  
     25650   0.70729692    -0.88101363     0             -0.37360497     0.016095601  
     25700   0.73265869    -0.88065612     0             -0.35505315     0.089354875  
     25750   0.73694662    -0.88044552     0             -0.35176642     0.015538563  
     25800   0.73546334    -0.88014066     0             -0.35252565     0.01258197   
     25850   0.74973643    -0.87988066     0             -0.34202627     0.023485846  
     25900   0.74318396    -0.87965989     0             -0.34650618     0.025047733  
     25950   0.74308494    -0.87956928     0             -0.34648661     0.03166619   
     26000   0.73130753    -0.87935526     0             -0.3547216      0.023266677  
     26050   0.73514102    -0.87909002     0             -0.35170625     0.061000287  
     26100   0.74883381    -0.87882679     0             -0.34161993     0.014501701  
     26150   1.2844138     -1.3045327      0             -0.38310539    -0.14300979   
     26200   0.85864594    -1.1961956      0             -0.58021045     0.011543533  
     26250   0.70273546    -1.1849303      0             -0.68079401     0.61817619   
     26300   0.7700315     -1.2947637      0             -0.74234977    -0.20336478   
     26350   0.71711205    -1.2915094      0             -0.77705943     0.030503906  
     26400   0.68971088    -1.297757       0             -0.80296437     0.10918738   
     26450   0.67323572    -1.3010218      0             -0.81804833    -0.17091629   
     26500   0.66181898    -1.2981737      0             -0.82339057     0.061019602  
     26550   0.66998471    -1.3087504      0             -0.8281092     -0.091736196  
     26600   0.68334391    -1.3111866      0             -0.82096166     0.014356323  
     26650   0.65570237    -1.3082399      0             -0.83784472     0.035849357  
     26700   0.64349189    -1.3130577      0             -0.85142224    -0.083173259  
     26750   0.64973242    -1.3123583      0             -0.8462459      0.039982291  
     26800   0.66241351    -1.3131601      0             -0.83795041     0.023606302  
     26850   0.65825814    -1.3144549      0             -0.84222624    -0.036397681  
     26900   0.63943261    -1.3142021      0             -0.85547869    -0.090661314  
     26950   0.66028837    -1.3157229      0             -0.84203772     0.064738871  
     27000   0.65509281    -1.3165622      0             -0.84660434     0.01639638   
     27050   0.64769598    -1.3172302      0             -0.85257869    -0.014081366  
     27100   0.65957304    -1.3181981      0             -0.8450261      0.0011530115 
     27150   0.65672472    -1.3198685      0             -0.84873995     0.064145881  
     27200   0.65670951    -1.3218338      0             -0.85071613     0.050167623  
     27250   0.66317146    -1.3240587      0             -0.84830525    -0.0017400736 
     27300   0.65366752    -1.3268829      0             -0.85794747     0.010156362  
     27350   0.64982783    -1.3293757      0             -0.86319483     0.088334631  
     27400   0.65445397    -1.3324339      0             -0.8629343     -0.044700608  
     27450   0.65473954    -1.3347936      0             -0.86508919     0.062903209  
     27500   0.66739446    -1.336968       0             -0.85818505     0.080217364  
     27550   0.67659769    -1.3388424      0             -0.85345707    -0.040986733  
     27600   0.67124495    -1.3400537      0             -0.85850843     0.0533678    
     27650   0.65952815    -1.3408461      0             -0.86770631    -0.035475719  
     27700   0.65063204    -1.3415007      0             -0.87474296    -0.076862191  
     27750   0.67002583    -1.3422524      0             -0.86158166     0.07195208   
     27800   0.68098009    -1.3423459      0             -0.85381674    -0.05639148   
     27850   0.68613395    -1.3420008      0             -0.84977424    -0.02072627   
     27900   0.68418793    -1.3413424      0             -0.85051193     0.034640421  
     27950   0.67412653    -1.3398739      0             -0.85626134    -0.058429605  
     28000   0.67816764    -1.3381415      0             -0.85162994     0.057464772  
     28050   0.67371954    -1.3358902      0             -0.85256963    -0.06505148   
     28100   0.65993419    -1.3342581      0             -0.86082701    -0.019181957  
     28150   0.68685326    -1.3319746      0             -0.83923209     0.015939448  
     28200   0.66944165    -1.3298808      0             -0.84962916    -0.0074376515 
     28250   0.66690084    -1.3275227      0             -0.84909383    -0.043287948  
     28300   0.67523075    -1.3252816      0             -0.84087696    -0.060918844  
     28350   0.65961837    -1.3233074      0             -0.85010293    -0.027416274  
     28400   0.67962513    -1.3212482      0             -0.83369103     0.064126026  
     28450   0.67932426    -1.3198599      0             -0.83251854    -0.016261566  
     28500   0.66977129    -1.3192535      0             -0.83876541    -0.014922738  
     28550   0.65020966    -1.3185236      0             -0.85206886     0.049597667  
     28600   0.64260969    -1.3179393      0             -0.85693665     0.018252189  
     28650   0.65073549    -1.3177432      0             -0.8509112     -0.01265838   
     28700   0.64039529    -1.3176767      0             -0.85826267    -0.041177779  
     28750   0.63612       -1.3176702      0             -0.86132327     0.025169664  
     28800   0.64871764    -1.3178396      0             -0.8524552      0.0067730719 
     28850   0.65532251    -1.3182259      0             -0.84810324     0.04041653   
     28900   0.68273073    -1.3184562      0             -0.82867113     0.020399546  
     28950   0.67125324    -1.3198671      0             -0.83831589    -0.031659674  
     29000   0.68202084    -1.3209218      0             -0.83164596     0.081772517  
     29050   0.67599977    -1.3222495      0             -0.83729316     0.086175278  
     29100   0.67740229    -1.3238054      0             -0.83784288     0.010351964  
     29150   0.66506222    -1.3260796      0             -0.84896977     0.04991591   
     29200   0.66872962    -1.3289704      0             -0.84922962    -0.012460445  
     29250   0.65982472    -1.3328385      0             -0.85948603    -0.076713679  
     29300   0.66089745    -1.3382638      0             -0.86414176    -0.066937085  
     29350   0.68336661    -1.3431743      0             -0.852933      -0.025153592  
     29400   0.69442857    -1.3489585      0             -0.85078152     0.012819906  
     29450   0.69480478    -1.3497485      0             -0.85130157     0.13313097   
     29500   0.67457858    -1.3383611      0             -0.85442426    -0.00054655071
     29550   0.65506204    -1.3102054      0             -0.84026954     0.0024714352 
     29600   0.63545102    -1.2870758      0             -0.83120875    -0.053744735  
     29650   0.67088035    -1.3044368      0             -0.82315309     0.084683096  
     29700   0.71831238    -1.3356512      0             -0.82034018     0.0049845922 
     29750   0.73270475    -1.3493689      0             -0.82373292     0.0041876986 
     29800   0.73910395    -1.348928       0             -0.81870127     0.033291765  
     29850   0.74232224    -1.3433646      0             -0.8108291      0.073010983  
     29900   0.76626142    -1.3372149      0             -0.78750565    -0.017270801  
     29950   0.76271323    -1.3320242      0             -0.78486038     0.01983414   
     30000   0.76484136    -1.327646       0             -0.77895547    -0.034754072  
     30050   0.78633452    -1.324052       0             -0.75994245    -0.018759588  
     30100   0.76999883    -1.3215094      0             -0.76911897     0.072077378  
     30150   0.7535375     -1.3191745      0             -0.77859326     0.003153965  
     30200   0.74854434    -1.3181812      0             -0.781182      -0.12295114   
     30250   0.74378792    -1.3173494      0             -0.78376246    -0.039242432  
     30300   0.73356209    -1.3171306      0             -0.79087953    -0.061810734  
     30350   0.7264749     -1.3166735      0             -0.79550667     0.039876103  
     30400   0.73532042    -1.3163199      0             -0.78880746     0.036185149  
     30450   0.70860936    -1.316044       0             -0.80769382     0.11196105   
     30500   0.70246112    -1.3161591      0             -0.81221964    -0.00023813989
     30550   0.69786243    -1.3158803      0             -0.81523991    -0.10584934   
     30600   0.69157456    -1.3156266      0             -0.81949701    -0.042196646  
     30650   0.70314866    -1.3155135      0             -0.81108072    -0.085618502  
     30700   0.68205838    -1.3153963      0             -0.82609352     0.071762762  
     30750   0.69369556    -1.3150785      0             -0.81742738    -0.050286946  
     30800   0.69274553    -1.3145958      0             -0.8176262     -0.095884064  
     30850   0.67156306    -1.3143205      0             -0.83254696    -0.0025456801 
     30900   0.66909226    -1.3138863      0             -0.83388529     0.030068405  
     30950   0.65351395    -1.3135813      0             -0.84475609     0.040200976  
     31000   0.67818552    -1.3132187      0             -0.82669434    -0.04760311   
     31050   0.68374864    -1.3128366      0             -0.82232127    -0.011167694  
     31100   0.68746182    -1.3125188      0             -0.81933971    -0.040357663  
     31150   0.69436676    -1.3122463      0             -0.8141136     -0.0026134585 
     31200   0.70597464    -1.3120231      0             -0.80556299     0.032047697  
     31250   0.72346937    -1.3118923      0             -0.79288166     0.0097878395 
     31300   0.71577768    -1.3117791      0             -0.79828638     0.0096784571 
     31350   0.73495569    -1.3111074      0             -0.78385655     0.10021783   
     31400   0.73208944    -1.3117903      0             -0.78659566    -0.056300497  
     31450   0.74347525    -1.3119298      0             -0.77856715    -0.17167852   
     31500   0.74129608    -1.3120427      0             -0.78024334    -0.0073418957 
     31550   0.74799944    -1.3122587      0             -0.77565036    -0.035721823  
     31600   0.74812612    -1.3123655      0             -0.77566631     0.06366004   
     31650   0.74008499    -1.312863       0             -0.78193246     0.057389975  
     31700   0.73582105    -1.3131585      0             -0.78528683    -0.048902676  
     31750   0.73746008    -1.3135529      0             -0.78450542     0.11838683   
     31800   0.73596306    -1.3140072      0             -0.78603375     0.003474729  
     31850   0.75995678    -1.3142795      0             -0.76909313     0.087454159  
     31900   0.7733203     -1.3147044      0             -0.75993118    -0.038339127  
     31950   0.76397102    -1.3150801      0             -0.76701393    -0.041117568  
     32000   0.78024019    -1.3153735      0             -0.75563598     0.059062598  
     32050   0.77380794    -1.3156287      0             -0.76050566     0.021464993  
     32100   0.75254484    -1.3159759      0             -0.77610674     0.042919634  
     32150   0.74540275    -1.3161213      0             -0.78137581     0.072785748  
     32200   0.7605243     -1.3160115      0             -0.77041801    -0.097735845  
     32250   0.78203002    -1.315636       0             -0.75461447    -0.025302146  
     32300   0.78765767    -1.3168791      0             -0.75182039    -0.0070904725 
     32350   0.79377113    -1.3180041      0             -0.74855961     0.085847555  
     32400   0.7846738     -1.3185509      0             -0.7556327      0.076896907  
     32450   0.80548493    -1.3190606      0             -0.74121272     0.039328547  
     32500   0.79651523    -1.319752       0             -0.74833888    -0.097747309  
     32550   0.79384527    -1.3204139      0             -0.75091617    -0.063083441  
     32600   0.80245933    -1.321153       0             -0.74547562     0.026128663  
     32650   0.79903459    -1.3217934      0             -0.7485729      0.0080347844 
     32700   0.79566567    -1.3229481      0             -0.75214449    -0.0026847196 
     32750   0.80051171    -1.323722       0             -0.74944185    -0.00097716498
     32800   0.77851145    -1.3251562      0             -0.76665885     0.12386765   
     32850   0.7876423     -1.3267096      0             -0.76166185     0.0033450274 
     32900   0.78279289    -1.3278459      0             -0.76627708     0.0029574729 
     32950   0.78059221    -1.3295185      0             -0.76952841     0.030444371  
     33000   0.75951834    -1.3305664      0             -0.78569459     0.05643414   
     33050   0.7560706     -1.3313499      0             -0.78895145    -0.0030231393 
     33100   0.76450814    -1.3320326      0             -0.78358115    -0.019256792  
     33150   0.7532303     -1.3324518      0             -0.79209089     0.16408958   
     33200   0.76341668    -1.3333738      0             -0.78570529     0.016964444  
     33250   0.75674709    -1.3340087      0             -0.79112496     0.042416948  
     33300   0.77241091    -1.3350028      0             -0.78088194    -0.011980254  
     33350   0.79375528    -1.3363424      0             -0.76690923     0.1069915    
     33400   0.8033875     -1.3377908      0             -0.76144759    -0.078056392  
     33450   0.79930587    -1.340808       0             -0.76739291     0.084112396  
     33500   0.79498101    -1.3448212      0             -0.77450877     0.087019653  
     33550   0.79210819    -1.3500042      0             -0.78175267    -0.0019629194 
     33600   0.82234975    -1.3560463      0             -0.76609974     0.0055444067 
     33650   0.8501161     -1.3609883      0             -0.75112239    -0.046567133  
     33700   0.83441988    -1.359523       0             -0.76091739    -0.010439563  
     33750   0.8024054     -1.3420221      0             -0.76638344    -0.032482487  
     33800   0.74282845    -1.3095776      0             -0.77667896    -0.036931434  
     33850   0.73787845    -1.2918547      0             -0.76250712    -0.075937871  
     33900   0.78287703    -1.3109587      0             -0.74932953     0.077047313  
     33950   0.8246032     -1.3441076      0             -0.75254449     0.089074101  
     34000   0.86097036    -1.3627695      0             -0.74511682     0.035368785  
     34050   0.87666091    -1.366936       0             -0.73802711    -0.12332964   
     34100   0.87655061    -1.3628117      0             -0.73398193     0.020789494  
     34150   0.84625931    -1.3562342      0             -0.74913512     0.017255284  
     34200   0.85061005    -1.3503327      0             -0.74011242     0.034155205  
     34250   0.83480216    -1.3450245      0             -0.74614466    -0.038731382  
     34300   0.7975073     -1.3407308      0             -0.76860602     0.035039287  
     34350   0.80492004    -1.3372988      0             -0.75985617     0.015894409  
     34400   0.78666334    -1.335045       0             -0.77069953    -0.040929829  
     34450   0.76616739    -1.3335373      0             -0.78389549     0.025155961  
     34500   0.76793322    -1.3324943      0             -0.7815857     -0.0031023279 
     34550   0.75175956    -1.3314785      0             -0.7921727      0.12624854   
     34600   0.73721923    -1.3314393      0             -0.80256466    -0.069742095  
     34650   0.74744518    -1.3315838      0             -0.79537315    -0.01442428   
     34700   0.73152972    -1.3326171      0             -0.80782406    -0.093961712  
     34750   0.73365974    -1.3337124      0             -0.80739133     0.028763432  
     34800   0.75857912    -1.3352929      0             -0.79109479     0.0043859786 
     34850   0.76840503    -1.337169       0             -0.78592194     0.022304642  
     34900   0.76993357    -1.3394959      0             -0.78715228     0.023297828  
     34950   0.77216325    -1.3422123      0             -0.78826906     0.0069611399 
     35000   0.77941116    -1.3437536      0             -0.7846108     -0.007627061  
     35050   0.7988987     -1.3457787      0             -0.77265568     0.03054124   
     35100   0.80069976    -1.3473104      0             -0.77289532    -0.035043097  
     35150   0.79808327    -1.3462575      0             -0.77371951     0.066006386  
     35200   0.78430939    -1.3417162      0             -0.77905945    -0.087171647  
     35250   0.7840617     -1.3346089      0             -0.77212988    -0.017301823  
     35300   0.76922716    -1.3299336      0             -0.77809669     0.086103691  
     35350   0.75176023    -1.3317158      0             -0.79240951    -0.053838038  
     35400   0.75469648    -1.3380885      0             -0.79667579    -0.12104314   
     35450   0.78005947    -1.345101       0             -0.78549313    -0.046382575  
     35500   0.78083534    -1.3489835      0             -0.78881903    -0.00063268875
     35550   0.79035824    -1.3495109      0             -0.78251473     0.052931705  
     35600   0.79396055    -1.3474029      0             -0.77782252    -0.11590167   
     35650   0.7923903     -1.3443893      0             -0.77593539    -0.030901525  
     35700   0.78071531    -1.3401148      0             -0.78003641     0.045893966  
     35750   0.78698832    -1.3370996      0             -0.77252102     0.031526664  
     35800   0.74284528    -1.333872       0             -0.80096128    -0.035794616  
     35850   0.75217862    -1.3311406      0             -0.79153424     0.063000844  
     35900   0.74343193    -1.3282994      0             -0.79496782    -0.041440073  
     35950   0.75976974    -1.3262393      0             -0.78118708     0.03832103   
     36000   0.75742816    -1.324734       0             -0.78136166    -0.012987703  
     36050   0.77957329    -1.3230771      0             -0.76381798    -0.010251901  
     36100   0.74769423    -1.3220035      0             -0.78561414    -0.0026686881 
     36150   0.73348554    -1.3209762      0             -0.79478008     0.078324583  
     36200   0.71376159    -1.3198931      0             -0.80784679    -0.037266923  
     36250   0.71198832    -1.3192046      0             -0.80843041     0.089472504  
     36300   0.69858403    -1.3184634      0             -0.81730531    -0.030526624  
     36350   0.69328973    -1.3179393      0             -0.82057926    -0.031523855  
     36400   0.68051283    -1.3173046      0             -0.82911065    -0.047734936  
     36450   0.6830032     -1.3169726      0             -0.82699206     0.011396554  
     36500   0.66827098    -1.3167447      0             -0.83733288    -0.0017826405 
     36550   0.66167721    -1.3167907      0             -0.84210925     0.047012472  
     36600   0.66687518    -1.3167235      0             -0.83831302     0.057322599  
     36650   0.6882958     -1.3167988      0             -0.82302142    -0.041790436  
     36700   0.68452511    -1.3169747      0             -0.82590234    -0.047560648  
     36750   0.67451421    -1.3169278      0             -0.8330372     -0.025282135  
     36800   0.6815555     -1.3172617      0             -0.82831973    -0.059135747  
     36850   0.70830915    -1.3176284      0             -0.80949353    -0.011791673  
     36900   0.72483738    -1.3186027      0             -0.79861063    -0.062913693  
     36950   0.74641176    -1.3193372      0             -0.78386788    -0.0090667542 
     37000   0.73710572    -1.3201223      0             -0.79132908     0.080084629  
     37050   0.75685548    -1.321288       0             -0.77832641    -0.011344033  
     37100   0.78122977    -1.3226813      0             -0.76223388     0.01243969   
     37150   0.78508669    -1.324545       0             -0.76133062     0.055644823  
     37200   0.80354725    -1.3280328      0             -0.75157504     0.035188931  
     37250   0.79016952    -1.3308198      0             -0.76395908     0.059671295  
     37300   0.79059838    -1.3342919      0             -0.76712351    -0.044115184  
     37350   0.74830618    -1.4124429      0             -0.87561454     0.10702374   
     37400   0.91359725    -1.6831542      0             -1.0277474     -0.099696129  
     37450   0.86182174    -1.7298682      0             -1.1116048     -0.058418248  
     37500   0.80297635    -1.759065       0             -1.1830168      0.060258008  
     37550   0.78424463    -1.7759412      0             -1.2133309      0.040593094  
     37600   0.73538829    -1.7739233      0             -1.2463622      0.00045557795
     37650   0.71706377    -1.7699152      0             -1.2554999     -0.073176376  
     37700   0.67638814    -1.744896       0             -1.2596611      0.0067490181 
     37750   0.66316971    -1.7333877      0             -1.2576355      0.053288091  
     37800   0.7003315     -1.7596053      0             -1.2571936      7.9284494e-05
     37850   0.74082121    -1.7914161      0             -1.2599574      0.0099347544 
     37900   0.74740759    -1.8009326      0             -1.2647489      0.066392012  
     37950   0.71865341    -1.8012872      0             -1.2857315     -0.0076873483 
     38000   0.69329467    -1.7954155      0             -1.2980519     -0.028656821  
     38050   0.71016291    -1.7939117      0             -1.284447      -0.054052762  
     38100   0.70582906    -1.7910928      0             -1.2847371     -0.13413981   
     38150   0.70244147    -1.7904134      0             -1.286488       0.030789764  
     38200   0.7056018     -1.7915603      0             -1.2853677     -0.036049624  
     38250   0.7194296     -1.792273       0             -1.2761605     -0.021329498  
     38300   0.73590355    -1.7951334      0             -1.2672026     -0.041188214  
     38350   0.72162932    -1.7982175      0             -1.2805269      0.035526692  
     38400   0.73422366    -1.8011395      0             -1.2744138     -0.060798991  
     38450   0.73680414    -1.8053624      0             -1.2767855     -0.081646168  
     38500   0.75274598    -1.8097438      0             -1.2697304     -0.028103443  
     38550   0.75959804    -1.8145566      0             -1.2696275      0.028650213  
     38600   0.73694991    -1.8193507      0             -1.2906693     -0.070208622  
     38650   0.73813823    -1.8227406      0             -1.2932067     -0.019167952  
     38700   0.73980931    -1.8239859      0             -1.2932531     -0.012361072  
     38750   0.737075      -1.8205819      0             -1.2918107      0.066132277  
     38800   0.71989062    -1.8117147      0             -1.2952714      0.040496283  
     38850   0.71577353    -1.8042108      0             -1.2907211     -0.031809674  
[...]
     89350   0.2660153     -5.2876265      0             -5.0967894     -0.0509577    
     89400   0.28474598    -5.2979631      0             -5.0936888     -0.086361915  
     89450   0.28919527    -5.3060173      0             -5.0985511     -0.068747391  
     89500   0.2939065     -5.3107454      0             -5.0998994     -0.050116605  
     89550   0.30558867    -5.3128121      0             -5.0935854     -0.027036858  
     89600   0.31324169    -5.3143846      0             -5.0896678      0.034788032  
     89650   0.32205965    -5.3152407      0             -5.0841979     -0.053852081  
     89700   0.31321771    -5.3143185      0             -5.0896188     -0.14660896   
     89750   0.31073746    -5.3114309      0             -5.0885105      0.025949054  
     89800   0.30211741    -5.3071481      0             -5.0904117      0.05290808   
     89850   0.29748389    -5.3011999      0             -5.0877876      0.016892744  
     89900   0.2951397     -5.2984048      0             -5.0866742     -0.041243721  
     89950   0.30882441    -5.2996967      0             -5.0781487     -0.086126856  
     90000   0.30782797    -5.3020246      0             -5.0811915      0.016550043  
     90050   0.30415909    -5.3029458      0             -5.0847447      0.058078878  
     90100   0.29447602    -5.3003757      0             -5.0891212      0.0017707602 
     90150   0.28150877    -5.2954367      0             -5.0934847      0.04467972   
     90200   0.2814329     -5.2902563      0             -5.0883587     -0.0067416415 
     90250   0.26685413    -5.2851401      0             -5.0937012      0.0048489961 
     90300   0.25534537    -5.2802713      0             -5.0970888      0.0081291703 
     90350   0.24685284    -5.2743225      0             -5.0972324     -0.035362025  
     90400   0.23270355    -5.2723392      0             -5.1053997     -0.034211488  
     90450   0.23673551    -5.278319       0             -5.108487       0.036251716  
     90500   0.26047055    -5.2891931      0             -5.1023338     -0.02651523   
     90550   0.28591426    -5.3005652      0             -5.0954528      0.043923174  
     90600   0.28882751    -5.3089003      0             -5.101698      -0.010388978  
     90650   0.29177878    -5.3130881      0             -5.1037686     -0.043693259  
     90700   0.29428171    -5.3129665      0             -5.1018514     -0.0020167168 
     90750   0.27349996    -5.3095651      0             -5.1133586      0.017552283  
     90800   0.25909214    -5.3028287      0             -5.1169582      0.06622543   
     90850   0.24667051    -5.2952674      0             -5.1183081      0.039992877  
     90900   0.22935986    -5.2886199      0             -5.1240791      0.017178865  
     90950   0.22557396    -5.2856043      0             -5.1237795     -0.054970341  
     91000   0.24725093    -5.2875281      0             -5.1101524     -0.010736914  
     91050   0.25270248    -5.294092       0             -5.1128054      0.0027662905 
     91100   0.26349718    -5.3014299      0             -5.1123993     -0.035634572  
     91150   0.27887426    -5.3076695      0             -5.1076075      0.022883364  
     91200   0.26914398    -5.3109552      0             -5.1178736      0.062724715  
     91250   0.25252915    -5.3123098      0             -5.1311476     -0.039216796  
     91300   0.25032162    -5.312504       0             -5.1329255     -0.040479198  
     91350   0.25993482    -5.3139859      0             -5.1275109     -0.01908786   
     91400   0.27998396    -5.3152959      0             -5.1144379      0.036222037  
     91450   0.28008497    -5.3152795      0             -5.114349       0.013241514  
     91500   0.27738336    -5.311133       0             -5.1121406      0.0042716619 
     91550   0.2910597     -5.3137323      0             -5.1049286     -0.024729233  
     91600   0.28943483    -5.3142576      0             -5.1066195     -0.072488463  
     91650   0.27640622    -5.3069334      0             -5.108642      -0.08422088   
     91700   0.27620086    -5.3033466      0             -5.1052025      0.025545718  
     91750   0.27230389    -5.3030657      0             -5.1077172     -0.07945944   
     91800   0.27951823    -5.3106809      0             -5.1101569      0.070034195  
     91850   0.28808415    -5.3149215      0             -5.1082525     -0.042915094  
     91900   0.30830814    -5.3202961      0             -5.0991185      0.082813714  
     91950   0.30703541    -5.3204989      0             -5.1002344      0.059227823  
     92000   0.30882432    -5.3178975      0             -5.0963496     -0.043697693  
     92050   0.31378571    -5.3162949      0             -5.0911877      0.06974226   
     92100   0.30733417    -5.314995       0             -5.0945162      0.013319014  
     92150   0.30528015    -5.3128111      0             -5.0938058      0.012664597  
     92200   0.30269938    -5.3101382      0             -5.0929843      0.029099802  
     92250   0.30864055    -5.3081469      0             -5.0867308      0.042447033  
     92300   0.30005513    -5.3062952      0             -5.0910383      0.042556177  
     92350   0.29530842    -5.3044155      0             -5.0925638      0.029129576  
     92400   0.29993153    -5.3032552      0             -5.0880869      0.023334131  
     92450   0.29724059    -5.3043345      0             -5.0910967     -0.027307607  
     92500   0.29975082    -5.3048993      0             -5.0898607      0.035892746  
     92550   0.29054007    -5.305924       0             -5.0974931      0.10887542   
     92600   0.2928342     -5.3055012      0             -5.0954245      0.0040126434 
     92650   0.28140356    -5.3036922      0             -5.1018157      0.0022741605 
     92700   0.26959698    -5.2972052      0             -5.1037987     -0.028931545  
     92750   0.27070512    -5.2944286      0             -5.1002271     -0.071310353  
     92800   0.254191      -5.2984899      0             -5.1161355     -0.034170292  
     92850   0.25977417    -5.3058314      0             -5.1194717     -0.062593877  
     92900   0.27073618    -5.3110953      0             -5.1168715      0.049518401  
     92950   0.2606056     -5.3122751      0             -5.125319      -0.087096459  
     93000   0.24073807    -5.3094559      0             -5.1367525      0.033484887  
     93050   0.23134557    -5.3062274      0             -5.1402621     -0.063135595  
     93100   0.2277015     -5.3043214      0             -5.1409703      0.031644007  
     93150   0.21533298    -5.3052568      0             -5.1507788     -0.14481007   
     93200   0.22779442    -5.3091863      0             -5.1457686      0.0041788228 
     93250   0.24243048    -5.3141002      0             -5.1401827      0.045392706  
     93300   0.26362769    -5.318911       0             -5.1297867      0.030161356  
     93350   0.26221865    -5.3231901      0             -5.1350768     -0.052435949  
     93400   0.2745112     -5.325835       0             -5.1289031     -0.046791757  
     93450   0.28080717    -5.3276048      0             -5.1261562      0.0029157228 
     93500   0.27228631    -5.3274908      0             -5.132155      -0.0016843049 
     93550   0.27163793    -5.3256549      0             -5.1307842      0.055515066  
     93600   0.25780211    -5.3224402      0             -5.1374952     -0.0079020583 
     93650   0.24837167    -5.3182969      0             -5.1401173      0.0052958177 
     93700   0.22764724    -5.3137085      0             -5.1503964     -0.096695977  
     93750   0.22176952    -5.3114299      0             -5.1523344      0.081206556  
     93800   0.23398924    -5.3116071      0             -5.1437452      0.079702736  
     93850   0.23215468    -5.3141965      0             -5.1476507      0.037318064  
     93900   0.24435525    -5.3178058      0             -5.1425075      0.045279011  
     93950   0.23912767    -5.3220741      0             -5.150526      -0.050092331  
     94000   0.24639184    -5.3255587      0             -5.1487994      0.069153332  
     94050   0.24087887    -5.3267679      0             -5.1539635     -0.013706414  
     94100   0.22214284    -5.3255248      0             -5.1661615     -0.12292098   
     94150   0.21098494    -5.3233618      0             -5.172003      -0.014831264  
     94200   0.19653787    -5.3184086      0             -5.1774141      0.035238577  
     94250   0.19993306    -5.3119355      0             -5.1685052     -0.026332315  
     94300   0.18867562    -5.305711       0             -5.1703568      0.045463146  
     94350   0.19097945    -5.3015602      0             -5.1645532     -0.038799527  
     94400   0.19190295    -5.3012909      0             -5.1636214     -0.06700373   
     94450   0.19800232    -5.3044903      0             -5.1624452     -0.043204905  
     94500   0.2021388     -5.3099915      0             -5.1649788      0.014666005  
     94550   0.22747648    -5.3157848      0             -5.1525952      0.0092400363 
     94600   0.22475191    -5.3210808      0             -5.1598457     -0.069814239  
     94650   0.2299828     -5.3231294      0             -5.1581418      0.029230203  
     94700   0.22896399    -5.3226418      0             -5.1583851      0.0074441505 
     94750   0.22843535    -5.3194653      0             -5.1555878     -0.027128238  
     94800   0.22655893    -5.3126861      0             -5.1501547      0.052469477  
     94850   0.22584164    -5.3061459      0             -5.144129       0.022942367  
     94900   0.22184707    -5.3026795      0             -5.1435283      0.0032228156 
     94950   0.22607263    -5.3033583      0             -5.1411758      0.0091950235 
     95000   0.23572848    -5.3091557      0             -5.1400462     -0.023494794  
     95050   0.25211928    -5.3164606      0             -5.1355924     -0.053816496  
     95100   0.25176283    -5.3229223      0             -5.1423098     -0.025188312  
     95150   0.25725982    -5.3260478      0             -5.1414919      0.010686746  
     95200   0.25339577    -5.3265963      0             -5.1448124     -0.0057988055 
     95250   0.25329255    -5.3255144      0             -5.1438045     -0.034217747  
     95300   0.24328569    -5.3219361      0             -5.147405      -0.072378938  
     95350   0.22259983    -5.3176428      0             -5.1579516     -0.052278339  
     95400   0.21536724    -5.3120828      0             -5.1575802     -0.044676315  
     95450   0.21662175    -5.3079744      0             -5.1525718      0.062347553  
     95500   0.19427695    -5.3054433      0             -5.1660707      0.023628101  
     95550   0.19503264    -5.3045803      0             -5.1646656     -0.0085924124 
     95600   0.20365282    -5.306517       0             -5.1604183      0.022152956  
     95650   0.20607993    -5.3098807      0             -5.1620408      0.064370579  
     95700   0.20934729    -5.3150615      0             -5.1648776     -0.02817271   
     95750   0.20274021    -5.3199787      0             -5.1745346     -0.030905482  
     95800   0.21108778    -5.3240141      0             -5.1725816      0.022714897  
     95850   0.20725241    -5.3264656      0             -5.1777845      0.066378338  
     95900   0.19849416    -5.3257603      0             -5.1833623     -0.0977313    
     95950   0.20479233    -5.3218408      0             -5.1749246     -0.1086308    
     96000   0.18422228    -5.3156239      0             -5.1834645      0.013451349  
     96050   0.17526854    -5.3095033      0             -5.1837672      0.044300615  
     96100   0.16748912    -5.3058957      0             -5.1857404     -0.038200569  
     96150   0.16984415    -5.3060895      0             -5.1842448     -0.0084015881 
     96200   0.1902128     -5.3115428      0             -5.1750858      0.026082471  
     96250   0.2064826     -5.3185415      0             -5.1704126     -0.011533684  
     96300   0.2267289     -5.3248402      0             -5.1621868      0.03368267   
     96350   0.23112968    -5.3291891      0             -5.1633787     -0.11882717   
     96400   0.22635932    -5.331064       0             -5.1686758      0.047732302  
     96450   0.22412606    -5.3308993      0             -5.1701132     -0.0070945733 
     96500   0.21540614    -5.3296844      0             -5.1751539      0.030473272  
     96550   0.20740545    -5.3268001      0             -5.1780093      0.04915192   
     96600   0.20814718    -5.3221804      0             -5.1728574      0.010244671  
     96650   0.20159127    -5.3164916      0             -5.1718718     -0.0029951776 
     96700   0.18140472    -5.3097347      0             -5.1795965     -0.026218705  
     96750   0.16983168    -5.3036907      0             -5.1818549      0.06836031   
     96800   0.16138667    -5.2993274      0             -5.18355        0.035325861  
     96850   0.16933445    -5.2979733      0             -5.1764942     -0.035102588  
     96900   0.1803176     -5.2993614      0             -5.1700031      0.042579523  
     96950   0.18703157    -5.3004458      0             -5.166271      -0.018220166  
     97000   0.2013799     -5.3023533      0             -5.1578852     -0.083027327  
     97050   0.19976306    -5.3050308      0             -5.1617225     -0.047584303  
     97100   0.21398726    -5.3092548      0             -5.1557422      0.018202125  
     97150   0.22090194    -5.3150656      0             -5.1565925      0.042473862  
     97200   0.23234522    -5.3208576      0             -5.1541751      0.034596663  
     97250   0.24437771    -5.3241422      0             -5.1488277     -0.064670168  
     97300   0.24318675    -5.3257675      0             -5.1513075     -0.0075093466 
     97350   0.23755842    -5.3258477      0             -5.1554253     -0.044345001  
     97400   0.2373804     -5.325162       0             -5.1548674     -0.061720915  
     97450   0.23084761    -5.3230989      0             -5.1574908      0.044771705  
     97500   0.2290214     -5.3212388      0             -5.1569409     -0.013228752  
     97550   0.21537512    -5.3187853      0             -5.1642771     -0.016777975  
     97600   0.21913079    -5.3160477      0             -5.1588452     -0.013619149  
     97650   0.22444891    -5.3147861      0             -5.1537684     -0.039596891  
     97700   0.21669822    -5.3136025      0             -5.158145      -0.057730284  
     97750   0.21571879    -5.3139954      0             -5.1592406      0.057939492  
     97800   0.22766829    -5.314333       0             -5.1510058     -0.015589178  
     97850   0.23658629    -5.3120294      0             -5.1423044      0.0041285816 
     97900   0.24490355    -5.3092993      0             -5.1336077      0.055160968  
     97950   0.25035553    -5.3121425      0             -5.1325396     -0.0049213107 
     98000   0.26351323    -5.3147946      0             -5.1257525      0.064142001  
     98050   0.26481589    -5.3104613      0             -5.1204847      0.042035064  
     98100   0.23776643    -5.299739       0             -5.1291674     -0.059808645  
     98150   0.2183503     -5.2907545      0             -5.1341119      0.046679909  
     98200   0.22169577    -5.2831128      0             -5.1240702      0.044784448  
     98250   0.20322689    -5.2717432      0             -5.12595        0.085200592  
     98300   0.20125467    -5.2665026      0             -5.1221242      0.038672407  
     98350   0.19454225    -5.2735688      0             -5.1340059     -0.030804884  
     98400   0.20326523    -5.2863394      0             -5.1405187      0.018660927  
     98450   0.2194407     -5.2943104      0             -5.1368855      0.010265168  
     98500   0.25254133    -5.3113498      0             -5.1301788     -0.016740527  
     98550   0.26216316    -5.3123745      0             -5.1243009     -0.028874061  
     98600   0.23758478    -5.3144771      0             -5.1440359      0.013891069  
     98650   0.22528145    -5.3129678      0             -5.1513529     -0.04802964   
     98700   0.22377898    -5.3194354      0             -5.1588983      0.035339184  
     98750   0.20106845    -5.3024171      0             -5.1581723     -0.016459047  
     98800   0.19920199    -5.3054675      0             -5.1625618     -0.053345787  
     98850   0.18441495    -5.2937119      0             -5.1614142      0.0097913316 
     98900   0.17646262    -5.2891045      0             -5.1625118     -0.043717265  
     98950   0.17656013    -5.2893951      0             -5.1627324      0.0073687039 
     99000   0.16928967    -5.2923104      0             -5.1708634     -0.027227053  
     99050   0.18872328    -5.3013069      0             -5.1659184      0.02365613   
     99100   0.19765146    -5.3079481      0             -5.1661547     -0.045669429  
     99150   0.20893196    -5.3123402      0             -5.1624543      0.05456469   
     99200   0.20758561    -5.3114073      0             -5.1624872     -0.04775765   
     99250   0.1895669     -5.3105134      0             -5.1745197     -0.021156374  
     99300   0.19239812    -5.3106823      0             -5.1726576      0.054478511  
     99350   0.19259107    -5.3103291      0             -5.1721659     -0.029622876  
     99400   0.20464458    -5.3086921      0             -5.1618818     -0.022234294  
     99450   0.20042863    -5.3069526      0             -5.1631668      0.027629722  
     99500   0.20065684    -5.3050629      0             -5.1611135     -0.017314515  
     99550   0.1981926     -5.3018368      0             -5.1596552      0.01403126   
     99600   0.19129063    -5.2977536      0             -5.1605233      0.047130161  
     99650   0.18937652    -5.2929778      0             -5.1571207     -0.0061045724 
     99700   0.1807271     -5.2901197      0             -5.1604677     -0.06745491   
     99750   0.18539134    -5.2907814      0             -5.1577833      0.033062376  
     99800   0.19589745    -5.2976928      0             -5.1571577     -0.061365595  
     99850   0.20449915    -5.3076331      0             -5.1609272      0.0040637363 
     99900   0.22407826    -5.3179724      0             -5.1572206      0.01787533   
     99950   0.22922716    -5.32476        0             -5.1603144     -0.069667475  
    100000   0.23637037    -5.3287188      0             -5.1591487     -0.02476705   
    100001   0.23713814    -5.3287267      0             -5.1586059     -0.022351023  
Loop time of 0.858475 on 1 procs for 100000 steps with 23 atoms

Performance: 10064358.310 tau/day, 116485.629 timesteps/s, 2.679 Matom-step/s
56.4% CPU use with 1 MPI tasks x 1 OpenMP threads

MPI task timing breakdown:
Section |  min time  |  avg time  |  max time  |%varavg| %total
---------------------------------------------------------------
Pair    | 0.056804   | 0.056804   | 0.056804   |   0.0 |  6.62
Bond    | 0.006601   | 0.006601   | 0.006601   |   0.0 |  0.77
Neigh   | 0.007851   | 0.007851   | 0.007851   |   0.0 |  0.91
Comm    | 0.030331   | 0.030331   | 0.030331   |   0.0 |  3.53
Output  | 0.39509    | 0.39509    | 0.39509    |   0.0 | 46.02
Modify  | 0.33024    | 0.33024    | 0.33024    |   0.0 | 38.47
Other   |            | 0.03156    |            |       |  3.68

Nlocal:             23 ave          23 max          23 min
Histogram: 1 0 0 0 0 0 0 0 0 0
Nghost:             11 ave          11 max          11 min
Histogram: 1 0 0 0 0 0 0 0 0 0
Neighs:              0 ave           0 max           0 min
Histogram: 1 0 0 0 0 0 0 0 0 0

Total # of neighbors = 0
Ave neighs/atom = 0
Ave special neighs/atom = 2.4347826
Neighbor list builds = 943
Dangerous builds = 0
Total wall time: 0:00:00
