LAMMPS (2 Aug 2023 - Update 3)
OMP_NUM_THREADS environment is not set. Defaulting to 1 thread. (src/comm.cpp:98)
  using 1 OpenMP thread(s) per MPI task
Loaded 1 plugins from F:\LAMMPS\LAMMPS 64-bit 2Aug2023\plugins
# Script to create a Polymer using Patchy Particles (PP)
# Types of Particles:
#   Cross linker:   PPA
#   Monomer:        PPB

# Initialization
units lj
dimension 3
boundary p p p

# Types of atoms and that stuff
atom_style full
bond_style zero nocoeff
pair_style hybrid lj/cut 2.5 cosine/squared 2.5 zero 2.5

# Get data for box and particles
read_data data.patchyP1.lmp group CL1
Reading data file ...
  orthogonal box = (-5 -5 -5) to (5 5 5)
  1 by 1 by 1 MPI processor grid
WARNING: Atom style in data file atom-ID molecule-ID atom-type q x y z differs from currently defined atom style full (src/read_data.cpp:621)
  reading atoms ...
  5 atoms
  scanning bonds ...
  4 = max bonds/atom
WARNING: Bond style ID parameters in data file differs from currently defined bond style zero (src/read_data.cpp:724)
  reading bonds ...
  4 bonds
Finding 1-2 1-3 1-4 neighbors ...
  special bond factors lj:    0        0        0       
  special bond factors coul:  0        0        0       
     4 = max # of 1-2 neighbors
     3 = max # of 1-3 neighbors
     3 = max # of 1-4 neighbors
     4 = max # of special neighbors
  special bonds CPU = 0.000 seconds
  read_data CPU = 0.004 seconds
read_data data.patchyP2.lmp add append group Mo1
Reading data file ...
  orthogonal box = (-5 -5 -5) to (5 5 5)
  1 by 1 by 1 MPI processor grid
WARNING: Atom style in data file atom-ID molecule-ID atom-type q x y z differs from currently defined atom style full (src/read_data.cpp:621)
  reading atoms ...
  3 atoms
  scanning bonds ...
  2 = max bonds/atom
WARNING: Bond style ID parameters in data file differs from currently defined bond style zero (src/read_data.cpp:724)
  reading bonds ...
  2 bonds
Finding 1-2 1-3 1-4 neighbors ...
  special bond factors lj:    0        0        0       
  special bond factors coul:  0        0        0       
     4 = max # of 1-2 neighbors
     3 = max # of 1-3 neighbors
     3 = max # of 1-4 neighbors
     4 = max # of special neighbors
  special bonds CPU = 0.005 seconds
  read_data CPU = 0.007 seconds
read_data data.patchyP2.lmp add append group Mo2
Reading data file ...
  orthogonal box = (-5 -5 -5) to (5 5 5)
  1 by 1 by 1 MPI processor grid
WARNING: Atom style in data file atom-ID molecule-ID atom-type q x y z differs from currently defined atom style full (src/read_data.cpp:621)
  reading atoms ...
  3 atoms
  scanning bonds ...
  2 = max bonds/atom
WARNING: Bond style ID parameters in data file differs from currently defined bond style zero (src/read_data.cpp:724)
  reading bonds ...
  2 bonds
Finding 1-2 1-3 1-4 neighbors ...
  special bond factors lj:    0        0        0       
  special bond factors coul:  0        0        0       
     4 = max # of 1-2 neighbors
     3 = max # of 1-3 neighbors
     3 = max # of 1-4 neighbors
     4 = max # of special neighbors
  special bonds CPU = 0.000 seconds
  read_data CPU = 0.002 seconds
read_data data.patchyP2.lmp add append group Mo3
Reading data file ...
  orthogonal box = (-5 -5 -5) to (5 5 5)
  1 by 1 by 1 MPI processor grid
WARNING: Atom style in data file atom-ID molecule-ID atom-type q x y z differs from currently defined atom style full (src/read_data.cpp:621)
  reading atoms ...
  3 atoms
  scanning bonds ...
  2 = max bonds/atom
WARNING: Bond style ID parameters in data file differs from currently defined bond style zero (src/read_data.cpp:724)
  reading bonds ...
  2 bonds
Finding 1-2 1-3 1-4 neighbors ...
  special bond factors lj:    0        0        0       
  special bond factors coul:  0        0        0       
     4 = max # of 1-2 neighbors
     3 = max # of 1-3 neighbors
     3 = max # of 1-4 neighbors
     4 = max # of special neighbors
  special bonds CPU = 0.000 seconds
  read_data CPU = 0.001 seconds
read_data data.patchyP2.lmp add append group Mo4
Reading data file ...
  orthogonal box = (-5 -5 -5) to (5 5 5)
  1 by 1 by 1 MPI processor grid
WARNING: Atom style in data file atom-ID molecule-ID atom-type q x y z differs from currently defined atom style full (src/read_data.cpp:621)
  reading atoms ...
  3 atoms
  scanning bonds ...
  2 = max bonds/atom
WARNING: Bond style ID parameters in data file differs from currently defined bond style zero (src/read_data.cpp:724)
  reading bonds ...
  2 bonds
Finding 1-2 1-3 1-4 neighbors ...
  special bond factors lj:    0        0        0       
  special bond factors coul:  0        0        0       
     4 = max # of 1-2 neighbors
     3 = max # of 1-3 neighbors
     3 = max # of 1-4 neighbors
     4 = max # of special neighbors
  special bonds CPU = 0.000 seconds
  read_data CPU = 0.002 seconds
read_data data.patchyP2.lmp add append group Mo5
Reading data file ...
  orthogonal box = (-5 -5 -5) to (5 5 5)
  1 by 1 by 1 MPI processor grid
WARNING: Atom style in data file atom-ID molecule-ID atom-type q x y z differs from currently defined atom style full (src/read_data.cpp:621)
  reading atoms ...
  3 atoms
  scanning bonds ...
  2 = max bonds/atom
WARNING: Bond style ID parameters in data file differs from currently defined bond style zero (src/read_data.cpp:724)
  reading bonds ...
  2 bonds
Finding 1-2 1-3 1-4 neighbors ...
  special bond factors lj:    0        0        0       
  special bond factors coul:  0        0        0       
     4 = max # of 1-2 neighbors
     3 = max # of 1-3 neighbors
     3 = max # of 1-4 neighbors
     4 = max # of special neighbors
  special bonds CPU = 0.000 seconds
  read_data CPU = 0.001 seconds
read_data data.patchyP2.lmp add append group Mo6
Reading data file ...
  orthogonal box = (-5 -5 -5) to (5 5 5)
  1 by 1 by 1 MPI processor grid
WARNING: Atom style in data file atom-ID molecule-ID atom-type q x y z differs from currently defined atom style full (src/read_data.cpp:621)
  reading atoms ...
  3 atoms
  scanning bonds ...
  2 = max bonds/atom
WARNING: Bond style ID parameters in data file differs from currently defined bond style zero (src/read_data.cpp:724)
  reading bonds ...
  2 bonds
Finding 1-2 1-3 1-4 neighbors ...
  special bond factors lj:    0        0        0       
  special bond factors coul:  0        0        0       
     4 = max # of 1-2 neighbors
     3 = max # of 1-3 neighbors
     3 = max # of 1-4 neighbors
     4 = max # of special neighbors
  special bonds CPU = 0.000 seconds
  read_data CPU = 0.001 seconds

displace_atoms Mo1 move 0.0 0.0 3.0 units box
Displacing atoms ...
displace_atoms Mo2 move 0.0 0.0 -3.0 units box
Displacing atoms ...
displace_atoms Mo3 move 0.0 3.0 0.0 units box
Displacing atoms ...
displace_atoms Mo4 move 0.0 -3.0 0.0 units box
Displacing atoms ...
displace_atoms Mo5 move 3.5 0.0 0.0 units box
Displacing atoms ...
displace_atoms Mo6 move -3.5 0.0 0.0 units box
Displacing atoms ...

# Set the patchy particle interaction
fix CLfix CL1 rigid single # ID group-ID style args
  1 rigid bodies with 5 atoms
fix Mofix1 Mo1 rigid single
  1 rigid bodies with 3 atoms
fix Mofix2 Mo2 rigid single
  1 rigid bodies with 3 atoms
fix Mofix3 Mo3 rigid single
  1 rigid bodies with 3 atoms
fix Mofix4 Mo4 rigid single
  1 rigid bodies with 3 atoms
fix Mofix5 Mo5 rigid single
  1 rigid bodies with 3 atoms
fix Mofix6 Mo6 rigid single
  1 rigid bodies with 3 atoms

pair_coeff 1 1 zero 1.12
pair_coeff 2 2 zero 1.12
pair_coeff 3 3 zero 0.56
pair_coeff 1 3 zero 1.68
pair_coeff 1 4 zero 1.68
pair_coeff 2 3 zero 1.68
pair_coeff 2 4 zero 1.68
pair_coeff 1 2 lj/cut 1.0 1.0 1.12 # i-type j-type eps sigma cutoff
pair_coeff 3 4 cosine/squared 5.0 0.5 0.56 wca # i-type j-type eps sigma cutoff wca
pair_coeff 4 4 cosine/squared 5.0 0.5 0.56 wca # i-type j-type eps sigma cutoff wca

# Neighbor list
neighbor 0.3 bin # extra-distance style
#neigh_modify delay 5

minimize 1.0e-4 1.0e-6 1000 10000 # etol ftol maxiter maxeval
Generated 0 of 6 mixed pair_coeff terms from geometric mixing rule
WARNING: More than one fix rigid (src/RIGID/fix_rigid.cpp:709)
WARNING: More than one fix rigid (src/RIGID/fix_rigid.cpp:709)
WARNING: More than one fix rigid (src/RIGID/fix_rigid.cpp:709)
WARNING: More than one fix rigid (src/RIGID/fix_rigid.cpp:709)
WARNING: More than one fix rigid (src/RIGID/fix_rigid.cpp:709)
WARNING: More than one fix rigid (src/RIGID/fix_rigid.cpp:709)
WARNING: More than one fix rigid (src/RIGID/fix_rigid.cpp:709)
Neighbor list info ...
  update: every = 1 steps, delay = 0 steps, check = yes
  max neighbors/atom: 2000, page size: 100000
  master list distance cutoff = 1.98
  ghost atom cutoff = 1.98
  binsize = 0.99, bins = 11 11 11
  6 neighbor lists, perpetual/occasional/extra = 6 0 0
  (1) pair lj/cut, perpetual, skip from (4)
      attributes: half, newton on, cut 1.4200000000000002
      pair build: skip
      stencil: none
      bin: none
  (2) pair cosine/squared, perpetual, skip from (5)
      attributes: half, newton on, cut 0.8600000000000001
      pair build: skip
      stencil: none
      bin: none
  (3) pair zero, perpetual, skip from (6)
      attributes: half, newton on
      pair build: skip
      stencil: none
      bin: none
  (4) neighbor class addition, perpetual, trim from (6)
      attributes: half, newton on, cut 1.4200000000000002
      pair build: trim
      stencil: none
      bin: none
  (5) neighbor class addition, perpetual, trim from (4)
      attributes: half, newton on, cut 0.8600000000000001
      pair build: trim
      stencil: none
      bin: none
  (6) neighbor class addition, perpetual
      attributes: half, newton on
      pair build: half/bin/newton
      stencil: half/bin/3d
      bin: standard
Per MPI rank memory allocation (min/avg/max) = 19.73 | 19.73 | 19.73 Mbytes
   Step          Temp          E_pair         E_mol          TotEng         Press     
         0   0              0              0              0              3.2110932e-311
         1   0              0              0              0              3.2110932e-311
Loop time of 9.7e-05 on 1 procs for 1 steps with 23 atoms

0.0% CPU use with 1 MPI tasks x 1 OpenMP threads

Minimization stats:
  Stopping criterion = search direction is not downhill
  Energy initial, next-to-last, final = 
                     0                  0                  0
  Force two-norm initial, final = 0 0
  Force max component initial, final = 0 0
  Final line search alpha, max atom move = 0 0
  Iterations, force evaluations = 1 0

MPI task timing breakdown:
Section |  min time  |  avg time  |  max time  |%varavg| %total
---------------------------------------------------------------
Pair    | 3e-06      | 3e-06      | 3e-06      |   0.0 |  3.09
Bond    | 0          | 0          | 0          |   0.0 |  0.00
Neigh   | 0          | 0          | 0          |   0.0 |  0.00
Comm    | 1e-06      | 1e-06      | 1e-06      |   0.0 |  1.03
Output  | 0          | 0          | 0          |   0.0 |  0.00
Modify  | 0          | 0          | 0          |   0.0 |  0.00
Other   |            | 9.3e-05    |            |       | 95.88

Nlocal:             23 ave          23 max          23 min
Histogram: 1 0 0 0 0 0 0 0 0 0
Nghost:              4 ave           4 max           4 min
Histogram: 1 0 0 0 0 0 0 0 0 0
Neighs:              0 ave           0 max           0 min
Histogram: 1 0 0 0 0 0 0 0 0 0

Total # of neighbors = 0
Ave neighs/atom = 0
Ave special neighs/atom = 2.4347826
Neighbor list builds = 0
Dangerous builds = 0

fix 1 all langevin 1.0 1.0 50.0 12345
fix 2 all nve

thermo 50
compute t all temp
compute ep all pe
compute ek all ke
compute tm all momentum

dump 1 all atom 50 dump.patchy_pairs2

timestep 0.005
run 100000
Generated 0 of 6 mixed pair_coeff terms from geometric mixing rule
WARNING: More than one fix rigid (src/RIGID/fix_rigid.cpp:709)
WARNING: More than one fix rigid (src/RIGID/fix_rigid.cpp:709)
WARNING: More than one fix rigid (src/RIGID/fix_rigid.cpp:709)
WARNING: More than one fix rigid (src/RIGID/fix_rigid.cpp:709)
WARNING: More than one fix rigid (src/RIGID/fix_rigid.cpp:709)
WARNING: More than one fix rigid (src/RIGID/fix_rigid.cpp:709)
WARNING: More than one fix rigid (src/RIGID/fix_rigid.cpp:709)
WARNING: One or more atoms are time integrated more than once (src/modify.cpp:289)
Per MPI rank memory allocation (min/avg/max) = 18.61 | 18.61 | 18.61 Mbytes
   Step          Temp          E_pair         E_mol          TotEng         Press     
         1   0              0              0              0              0            
        50   0.012995467    0              0              0.0093228352  -0.0062075288 
       100   0.028042907    0              0              0.020117738    9.096119e-05 
       150   0.053767737    0              0              0.038572507    0.020308559  
       200   0.064596978    0              0              0.046341311    0.02132435   
       250   0.071239222    0              0              0.051106398    0.013875306  
       300   0.075580421    0              0              0.054220737    0.0026746    
       350   0.0835685      0              0              0.059951315   -0.0034681032 
       400   0.089453797    0              0              0.064173376   -0.017787393  
       450   0.086702071    0              0              0.062199312    0.00091623109
       500   0.093575485    0              0              0.067130239    0.020912267  
       550   0.10545367     0              0              0.075651548    0.001748758  
       600   0.10854072     0              0              0.077866167    0.02743746   
       650   0.11452909     0              0              0.08216217    -0.025184576  
       700   0.11273326     0              0              0.080873864    0.006132148  
       750   0.1232399      0              0              0.088411232   -0.0020814034 
       800   0.13368308     0              0              0.095903078    0.00075703378
       850   0.1230728      0              0              0.088291357    0.0077107602 
       900   0.14176305     0              0              0.10169958     0.0080337209 
       950   0.14593109     0              0              0.1046897     -0.0075050154 
      1000   0.1446242      0              0              0.10375214    -0.0036605672 
      1050   0.15506061     0              0              0.11123914    -0.004706836  
      1100   0.16568075     0              0              0.11885793    -0.015748711  
      1150   0.18884898     0              0              0.13547862     0.017018471  
      1200   0.23056894     0              0              0.16540815     0.0033985596 
      1250   0.23351593     0              0              0.1675223     -0.015986442  
      1300   0.21661447     0              0              0.15539734     0.013786441  
      1350   0.21434123     0              0              0.15376653    -0.0040937845 
      1400   0.22349976     0              0              0.16033678    -0.0021801058 
      1450   0.22093932     0              0              0.15849995     0.022735978  
      1500   0.2248518      0              0              0.16130672    -0.0078788915 
      1550   0.24185153     0              0              0.17350218    -0.0041420685 
      1600   0.23922883     0              0              0.17162068    -0.0012856908 
      1650   0.24776928     0              0              0.17774753    -0.013587738  
      1700   0.25049723     0              0              0.17970453     0.021758321  
      1750   0.23808615     0              0              0.17080094     0.00241385   
      1800   0.26981089     0              0              0.19355998     0.021358065  
      1850   0.28092325     0              0              0.2015319     -0.01151047   
      1900   0.42636779    -0.1956053      0              0.11026725     0.024041242  
      1950   0.26337861    -0.2607194      0             -0.071773875    0.01713866   
      2000   0.27569922    -0.21738158     0             -0.019597357   -0.0045663934 
      2050   0.27207344    -0.21739122     0             -0.022208102   -0.0065956906 
      2100   0.23377819    -0.21738777     0             -0.049677327    0.0018580434 
      2150   0.24426877    -0.21737455     0             -0.042138256    0.020737248  
      2200   0.27293113    -0.21738044     0             -0.021582029   -0.025246912  
      2250   0.27168566    -0.21739057     0             -0.022485639    0.0056937137 
      2300   0.27693303    -0.21734636     0             -0.01867701     0.010467678  
      2350   0.2852565     -0.21737938     0             -0.012738853   -0.00015644247
      2400   0.26735079    -0.21717155     0             -0.02537642     0.00090148042
      2450   0.26609504    -0.21737411     0             -0.026479847   -0.011108576  
      2500   0.27658507    -0.21736153     0             -0.01894181     0.021941434  
      2550   0.38830073    -0.30511986     0             -0.026556287   -0.016909764  
      2600   0.26404695    -0.43370375     0             -0.24427876    -0.046036512  
      2650   0.24400276    -0.43475674     0             -0.25971129    -0.00019085737
      2700   0.24594292    -0.43469187     0             -0.25825456     0.026032769  
      2750   0.2481962     -0.43464796     0             -0.25659417     0.021639035  
      2800   0.22381211    -0.43475668     0             -0.27419581    -0.0050980418 
      2850   0.24379251    -0.43471345     0             -0.25981883    -0.025707447  
      2900   0.26247027    -0.43475429     0             -0.2464604      0.030279876  
      2950   0.29050417    -0.43453428     0             -0.22612912     0.003402613  
      3000   0.29068652    -0.4346774      0             -0.22614142     0.017901727  
      3050   0.32004965    -0.43473055     0             -0.20512971    -0.020937374  
      3100   0.35421829    -0.43475843     0             -0.18064531     0.027141347  
      3150   0.3161015     -0.43472874     0             -0.20796027    -0.018310212  
      3200   0.32072776    -0.43472629     0             -0.20463898     0.012311854  
      3250   0.31245668    -0.43464915     0             -0.21049545    -0.025261714  
      3300   0.3216528     -0.4347499      0             -0.20399898     0.02627605   
      3350   0.33836974    -0.43477758     0             -0.19203406     0.011724075  
      3400   0.34452301    -0.43477829     0             -0.18762048    -0.020980316  
      3450   0.34181937    -0.43478233     0             -0.18956409     0.020918568  
      3500   0.39279057    -0.4347046      0             -0.15292006     0.0027576275 
      3550   0.35994899    -0.43477861     0             -0.17655433     0.013398083  
      3600   0.38404986    -0.43462499     0             -0.15911096    -0.03503882   
      3650   0.35718037    -0.43471771     0             -0.17847962     0.021246893  
      3700   0.3498803     -0.43476257     0             -0.18376148     0.01415024   
      3750   0.34772967    -0.43477724     0             -0.185319       0.026654993  
      3800   0.3405555     -0.43475607     0             -0.19044452    -0.057239165  
      3850   0.33297414    -0.43477357     0             -0.19590082    -0.01211039   
      3900   0.33273549    -0.43474715     0             -0.19604561    -0.040254473  
      3950   0.33224843    -0.4347802      0             -0.19642806    -0.0073738318 
      4000   0.33141376    -0.43472015     0             -0.1969668      0.018306318  
      4050   0.3590566     -0.43476646     0             -0.17718238     0.065464981  
      4100   0.3861873     -0.64527308     0             -0.36822567    -0.020049281  
      4150   0.40243918    -0.65209959     0             -0.36339322    -0.012051277  
      4200   0.41130089    -0.65190174     0             -0.35683806    -0.006171873  
      4250   0.39246621    -0.65208918     0             -0.37053733     0.013802181  
      4300   0.38317941    -0.65216307     0             -0.37727349     0.0010211477 
      4350   0.38094665    -0.65209931     0             -0.3788115     -0.036581177  
      4400   0.35834986    -0.65216491     0             -0.39508784     0.018665863  
      4450   0.35388038    -0.6521216      0             -0.39825089     0.0025827043 
      4500   0.33610654    -0.65203421     0             -0.4109143      0.0033358246 
      4550   0.33069033    -0.65205627     0             -0.4148219     -0.017369384  
      4600   0.32814468    -0.65209293     0             -0.41668479     0.014115928  
      4650   0.30885773    -0.86816889     0             -0.64659705    -0.1600424    
      4700   0.32369176    -0.8692457      0             -0.63703204     0.014103557  
      4750   0.34239666    -0.8695547      0             -0.62392232    -0.0023972734 
      4800   0.32727306    -0.86939129     0             -0.63460844    -0.010808933  
      4850   0.31586027    -0.86917838     0             -0.64258297     0.039774058  
      4900   0.32461704    -0.86932033     0             -0.63644289    -0.0021870865 
      4950   0.34855201    -0.8694429      0             -0.61939472     0.022080715  
      5000   0.3431474     -0.86952867     0             -0.62335771     0.052966145  
      5050   0.3354141     -0.86943887     0             -0.62881571     0.051678166  
      5100   0.35672892    -0.86919113     0             -0.61327691     0.0073744242 
      5150   0.3781558     -0.86954607     0             -0.59826039     0.012921558  
      5200   0.36696642    -0.86945151     0             -0.60619299     0.0035006858 
      5250   0.36438152    -0.86953574     0             -0.60813161     0.031796958  
      5300   0.4273365     -0.90693761     0             -0.60037012     0.095948143  
      5350   0.38146321    -1.0859043      0             -0.81224588    -0.0047912148 
      5400   0.39987746    -1.0863739      0             -0.79950524     0.010164778  
      5450   0.36426746    -1.0867417      0             -0.82541943    -0.00074572116
      5500   0.37591049    -1.0866875      0             -0.81701256    -0.00092416591
      5550   0.38673328    -1.0865701      0             -0.80913105    -0.037854564  
      5600   0.38340055    -1.0868393      0             -0.8117911      0.054115523  
      5650   0.3716779     -1.0866391      0             -0.8200006      0.028447429  
      5700   0.35797948    -1.0865064      0             -0.82969503     0.048373926  
      5750   0.37333559    -1.0868017      0             -0.81897404    -0.0053523463 
      5800   0.37352862    -1.0865326      0             -0.81856643     0.021649773  
      5850   0.34904728    -1.0867993      0             -0.8363958     -0.03874511   
      5900   0.35608928    -1.0867341      0             -0.83127871    -0.0047546785 
      5950   0.36385568    -1.0869016      0             -0.82587472     0.051118056  
      6000   0.37508674    -1.086949       0             -0.81786501     0.012054555  
      6050   0.34397637    -1.0868238      0             -0.84005816    -0.0043681521 
      6100   0.37357718    -1.0868606      0             -0.81885962    -0.0039342234 
      6150   0.35930791    -1.0867726      0             -0.82900824    -0.024415822  
      6200   0.36620001    -1.0867848      0             -0.82407606    -0.035989709  
      6250   0.38870547    -1.0867782      0             -0.8079243     -0.0043178007 
      6300   0.40247278    -1.0867172      0             -0.79798673    -0.018322531  
      6350   0.42103947    -1.0865735      0             -0.78452342     0.055046293  
      6400   0.40562325    -1.0867944      0             -0.79580382     0.043107274  
      6450   0.42279163    -1.0868736      0             -0.78356659    -0.042446399  
      6500   0.44136242    -1.0867899      0             -0.77016031     0.015168362  
      6550   0.44069375    -1.0868008      0             -0.77065096     0.028376463  
      6600   0.45206907    -1.1215885      0             -0.79727812     0.043862344  
      6650   0.45632444    -1.1264503      0             -0.7990871     -0.029785764  
      6700   0.46857396    -1.0868276      0             -0.75067669    -0.0046734568 
      6750   0.49756451    -1.0868422      0             -0.72989378    -0.014417794  
      6800   0.48756141    -1.0868048      0             -0.7370325     -0.0065893096 
      6850   0.47558612    -1.0869157      0             -0.74573436     0.011096734  
      6900   0.44781902    -1.0868148      0             -0.76555336    -0.029447842  
      6950   0.46153527    -1.0868368      0             -0.75573539    -0.021387709  
      7000   0.48025579    -1.0868056      0             -0.74227425    -0.0046951896 
      7050   0.47617614    -1.0867962      0             -0.74519163     0.03857712   
      7100   0.47498146    -1.0869465      0             -0.74619898    -0.02772315   
      7150   0.49373563    -1.086851       0             -0.73264935     0.0040166873 
      7200   0.48245641    -1.0867917      0             -0.74068166    -0.0034223216 
      7250   0.48360855    -1.0868626      0             -0.73992607     0.039336906  
      7300   0.50169972    -1.0868198      0             -0.72690474    -0.030366465  
      7350   0.49245973    -1.0867534      0             -0.73346706     0.020789071  
      7400   0.45265278    -1.0868544      0             -0.7621252      0.0049746656 
      7450   0.46066165    -1.0867561      0             -0.7562814      0.0085478574 
      7500   0.45649909    -1.0868547      0             -0.75936625     0.01089694   
      7550   0.44430325    -1.0867717      0             -0.76803237     0.029010894  
      7600   0.43452289    -1.0866759      0             -0.77495294    -0.028247622  
      7650   0.42079257    -1.0868859      0             -0.78501297    -0.015949065  
      7700   0.42158865    -1.0867873      0             -0.78434322    -0.0076688243 
      7750   0.43203866    -1.1302634      0             -0.82032258     0.015039469  
      7800   0.43843212    -1.1257312      0             -0.81120385    -0.0079642001 
      7850   0.44952823    -1.1297572      0             -0.80726957     0.010446889  
      7900   0.46430518    -1.0868562      0             -0.75376772     0.0097163182 
      7950   0.44495011    -1.0867563      0             -0.76755297     0.0024525671 
      8000   0.34677899    -1.301502       0             -1.0527257     -0.0035087659 
      8050   0.31450901    -1.3040204      0             -1.0783944      0.0061256917 
      8100   0.31499501    -1.3040321      0             -1.0780574     -0.046229606  
      8150   0.2815346     -1.3039503      0             -1.1019798     -0.005572405  
      8200   0.27872537    -1.3040217      0             -1.1040665      0.0095556767 
      8250   0.27350571    -1.3041295      0             -1.1079189     -0.015124122  
      8300   0.30348675    -1.3041842      0             -1.0864654      0.052390891  
      8350   0.30190225    -1.3041086      0             -1.0875266      0.035066848  
      8400   0.29742003    -1.3042037      0             -1.0908372      0.044927847  
      8450   0.28832466    -1.3042579      0             -1.0974163     -0.023855334  
      8500   0.27544252    -1.304218       0             -1.106618       0.016075594  
      8550   0.28161538    -1.3042597      0             -1.1022313      0.016721927  
      8600   0.33073072    -1.4940751      0             -1.2568117     -0.0012898983 
      8650   0.30890714    -1.519856       0             -1.2982487     -0.005802525  
      8700   0.29306583    -1.5215158      0             -1.311273      -0.034363865  
      8750   0.3143963     -1.5216089      0             -1.2960637     -0.030209032  
      8800   0.32374689    -1.5215171      0             -1.2892638     -0.00028279278
      8850   0.31551115    -1.5216328      0             -1.2952878      0.020932601  
      8900   0.30514718    -1.5213568      0             -1.3024469      0.0016656507 
      8950   0.2988423     -1.5212077      0             -1.3068208     -0.0027217862 
      9000   0.28558904    -1.520026       0             -1.3151469      0.010129441  
      9050   0.28917693    -1.5214214      0             -1.3139684      0.018297655  
      9100   0.30732731    -1.5211862      0             -1.3007123     -0.0010778488 
      9150   0.28939202    -1.5203799      0             -1.3127726     -0.028747841  
      9200   0.29064003    -1.5205596      0             -1.312057       0.01663224   
      9250   0.28777162    -1.52127        0             -1.3148252     -0.029346755  
      9300   0.297083      -1.5214061      0             -1.3082813     -0.044209724  
      9350   0.33534129    -1.5216655      0             -1.2810946     -0.01989553   
      9400   0.31753465    -1.521692       0             -1.2938954     -0.0049364242 
      9450   0.3499712     -1.5216091      0             -1.2705428     -0.012382451  
      9500   0.36418447    -1.5214794      0             -1.2602167      0.021197131  
      9550   0.36392003    -1.5215405      0             -1.2604675      0.045605608  
      9600   0.35628248    -1.521614       0             -1.26602       -0.033148105  
      9650   0.36078392    -1.5214432      0             -1.26262       -0.0045367667 
      9700   0.34342393    -1.5215463      0             -1.275177       0.016820562  
      9750   0.33601605    -1.5216507      0             -1.2805957      0.016844477  
      9800   0.35954947    -1.5214433      0             -1.2635056      0.018122364  
      9850   0.36090699    -1.5216047      0             -1.2626932      0.027945432  
      9900   0.35802392    -1.521606       0             -1.2647628      0.018764119  
      9950   0.36257416    -1.5215685      0             -1.261461       0.053974776  
     10000   0.37982553    -1.5216255      0             -1.249142       0.023945061  
     10050   0.38448375    -1.5215234      0             -1.2456981      0.020577722  
     10100   0.37216937    -1.5214893      0             -1.2544982     -0.0230279    
     10150   0.3934035     -1.5216458      0             -1.2394215      0.025708233  
     10200   0.37252529    -1.5213703      0             -1.2541239     -0.0072318684 
     10250   0.41337243    -1.5216488      0             -1.225099       0.00076282767
     10300   0.42119623    -1.5201417      0             -1.2179792     -0.013401173  
     10350   0.43256386    -1.5185562      0             -1.2082386      0.0047248788 
     10400   0.43002974    -1.5203792      0             -1.2118796     -0.0058378228 
     10450   0.44915732    -1.5215854      0             -1.1993638     -0.022940872  
     10500   0.46682712    -1.521424       0             -1.1865263     -0.018236954  
     10550   0.49332185    -1.5215862      0             -1.1676814      0.00022421496
     10600   0.45965763    -1.5216794      0             -1.191925      -0.01724328   
     10650   0.47556364    -1.521624       0             -1.1804588     -0.0058115515 
     10700   0.44448808    -1.5498505      0             -1.2309786     -0.033485237  
     10750   0.50376818    -1.5215231      0             -1.1601241      0.0051542827 
     10800   0.50110918    -1.7377247      0             -1.3782333      0.052504373  
     10850   0.5317176     -1.7387528      0             -1.3573032     -0.046744165  
     10900   0.5255164     -1.7386788      0             -1.3616779      0.0087621379 
     10950   0.49186627    -1.7388259      0             -1.3859653      0.016227503  
     11000   0.50017612    -1.7802552      0             -1.4214332      1.1060651e-06
     11050   0.44690262    -1.7758948      0             -1.4552907     -0.040105474  
     11100   0.44055924    -1.7384517      0             -1.4223983      0.019191853  
     11150   0.44039386    -1.7390294      0             -1.4230947      0.022498455  
     11200   0.44094731    -1.738742       0             -1.4224102     -0.021084125  
     11250   0.40811122    -1.7390662      0             -1.4462907     -0.027511681  
     11300   0.39849683    -1.7389435      0             -1.4530654      0.011583526  
     11350   0.42746155    -1.7387881      0             -1.4321309     -0.013816513  
     11400   0.42880705    -1.739052       0             -1.4314295     -0.042446622  
     11450   0.42246267    -1.738985       0             -1.435914      -0.006814831  
     11500   0.41427845    -1.738469       0             -1.4412693      0.0076054247 
     11550   0.47397293    -1.738512       0             -1.398488       0.0030578875 
     11600   0.4928709     -1.7389224      0             -1.3853411     -0.030523677  
     11650   0.5353226     -1.7388916      0             -1.3548558     -0.0053433389 
     11700   0.57352734    -1.738614       0             -1.3271705      0.012393826  
     11750   0.60074953    -1.7389228      0             -1.3079503     -0.012018083  
     11800   0.59757202    -1.738637       0             -1.3099441      0.002913046  
     11850   0.59551608    -1.7383658      0             -1.3111478     -0.046292693  
     11900   0.63736569    -1.7387806      0             -1.28154       -0.047563293  
     11950   0.62013796    -1.7384387      0             -1.2935571     -0.02807266   
     12000   0.6099214     -1.7388214      0             -1.3012691     -0.03026942   
     12050   0.57726481    -1.7390201      0             -1.3248953     -0.019673966  
     12100   0.58681116    -1.738573       0             -1.3175997     -0.017529897  
     12150   0.60536502    -1.7389396      0             -1.304656       0.054778034  
     12200   0.5375499     -1.7387819      0             -1.3531483     -0.016090922  
     12250   0.54643918    -1.738864       0             -1.3468533     -0.03866423   
     12300   0.5271206     -1.7387705      0             -1.3606188     -0.0041782556 
     12350   0.48649382    -1.7390135      0             -1.3900071      0.0053364848 
     12400   0.50033489    -1.738815       0             -1.3798791     -0.0023764324 
     12450   0.5002288     -1.7389941      0             -1.3801343      0.027582293  
     12500   0.50793007    -1.7390199      0             -1.3746353     -0.0098259212 
     12550   0.50387263    -1.7390023      0             -1.3775285      0.001883065  
     12600   0.51733038    -1.7391169      0             -1.3679886      0.0015811373 
     12650   0.51978879    -1.7390174      0             -1.3661255      0.00096472533
     12700   0.51971173    -1.7388639      0             -1.3660272     -0.011964263  
     12750   0.53166319    -1.7389763      0             -1.3575658     -0.0084723906 
     12800   0.55409527    -1.7387379      0             -1.3412348     -0.032637759  
     12850   0.50157332    -1.7389232      0             -1.3790988      0.0029885111 
     12900   0.54650966    -1.7389006      0             -1.3468393      0.016467798  
     12950   0.55633295    -1.7390792      0             -1.3399707      0.044955568  
     13000   0.52592961    -1.7389834      0             -1.361686      -0.0043670325 
     13050   0.55572718    -1.738709       0             -1.3400352     -0.011765952  
     13100   0.54670906    -1.7389425      0             -1.3467382     -0.010267536  
     13150   0.53806048    -1.7387041      0             -1.3527042     -0.015426746  
     13200   0.55611666    -1.7389449      0             -1.3399917      0.048059869  
     13250   0.53211497    -1.7389896      0             -1.3572549     -0.024706135  
     13300   0.53256064    -1.7389991      0             -1.3569447     -0.026147163  
     13350   0.54244242    -1.7389669      0             -1.3498234      0.002704615  
     13400   0.5693673     -1.7371373      0             -1.3286782     -0.012873664  
     13450   0.58015418    -1.7345493      0             -1.3183517      0.011199822  
     13500   0.544187      -1.7384381      0             -1.3480431     -0.0032914957 
     13550   0.5584275     -1.7389976      0             -1.3383866      0.041672391  
     13600   0.55767081    -1.7389439      0             -1.3388757      0.031156283  
     13650   0.57474099    -1.7389661      0             -1.3266519      0.02042158   
     13700   0.55490201    -1.739012       0             -1.3409301     -0.039865731  
     13750   0.54868001    -1.7777976      0             -1.3841794     -0.0019032241 
     13800   0.51985136    -1.7817603      0             -1.4088234      0.013553039  
     13850   0.4890206     -1.7372464      0             -1.3864273      0.034774651  
     13900   0.50999168    -1.738397       0             -1.3725334     -0.029999038  
     13950   0.49103816    -1.7387593      0             -1.3864928     -0.00089466334
     14000   0.49586016    -1.7388715      0             -1.3831458     -0.02365411   
     14050   0.51866884    -1.7389476      0             -1.3668591     -0.027938653  
     14100   0.51632329    -1.7768408      0             -1.406435       0.037954835  
     14150   0.50660756    -1.7806905      0             -1.4172546      0.048952529  
     14200   0.45508701    -1.7389402      0             -1.4124647      0.025307363  
     14250   0.41264945    -1.738907       0             -1.4428759     -0.0078065286 
     14300   0.41435499    -1.7388557      0             -1.441601      -0.033089814  
     14350   0.41871568    -1.7390166      0             -1.4386336     -0.0019786332 
     14400   0.41258706    -1.7389985      0             -1.4430121      0.028650821  
     14450   0.42943514    -1.738717       0             -1.430644      -0.011432918  
     14500   0.44382345    -1.7383416      0             -1.4199465      0.003187767  
     14550   0.468602      -1.7387407      0             -1.4025697      0.016952558  
     14600   0.45469151    -1.7376114      0             -1.4114197      0.031188208  
     14650   0.45183548    -1.7387012      0             -1.4145584      0.019439687  
     14700   0.49385399    -1.7389097      0             -1.3846231     -0.028691588  
     14750   0.54860574    -1.7371295      0             -1.3435645     -0.023302617  
     14800   0.51579184    -1.7386423      0             -1.3686178      0.03325659   
     14850   0.50553181    -1.7389173      0             -1.3762532     -0.018687932  
     14900   0.5328714     -1.7390425      0             -1.3567652      0.03094552   
     14950   0.54410654    -1.7388559      0             -1.3485186      0.037954964  
     15000   0.56902233    -1.7390324      0             -1.3308208      0.047086563  
     15050   0.57544937    -1.7389133      0             -1.3260909      0.036505922  
     15100   0.55672813    -1.7389273      0             -1.3395354     -0.0091986005 
     15150   0.60458783    -1.7388735      0             -1.3051475     -0.0048677309 
     15200   0.63825902    -1.7389213      0             -1.2810398     -0.0038517234 
     15250   0.63125341    -1.7389183      0             -1.2860626     -0.036133974  
     15300   0.61224601    -1.7386674      0             -1.2994474      0.018990902  
     15350   0.58636621    -1.7389428      0             -1.3182888      0.043653292  
     15400   0.58984229    -1.7819303      0             -1.3587826     -0.017130659  
     15450   0.56805134    -1.7809946      0             -1.3734795      0.028681595  
     15500   0.54119754    -1.7390448      0             -1.3507944      0.0063054906 
     15550   0.50799712    -1.7389528      0             -1.3745201     -0.015710147  
     15600   0.53807151    -1.738783       0             -1.3527751      0.023705812  
     15650   0.50315722    -1.7384088      0             -1.3774482      0.053991283  
     15700   0.4917101     -1.738872       0             -1.3861235      0.026099453  
     15750   0.48098195    -1.7385039      0             -1.3934517      0.017285845  
     15800   0.44509076    -1.7388938      0             -1.4195895     -0.032747902  
     15850   0.43694604    -1.7382292      0             -1.4247679      0.0085482542 
     15900   0.4309721     -1.7370206      0             -1.4278449     -0.046982603  
     15950   0.43417038    -1.7388396      0             -1.4273696      0.0095673719 
     16000   0.43194853    -1.7389299      0             -1.4290538     -0.014361142  
     16050   0.42905409    -1.7385881      0             -1.4307885      0.042857147  
     16100   0.42196008    -1.7386383      0             -1.4359278      0.037748576  
     16150   0.44681897    -1.738537       0             -1.417993       0.03972255   
     16200   0.47687779    -1.7390027      0             -1.3968948      0.0097908464 
     16250   0.48578404    -1.7389567      0             -1.3904595     -0.02044128   
     16300   0.47741448    -1.7389592      0             -1.3964662     -0.056090333  
     16350   0.51615542    -1.7389928      0             -1.3687074      0.012884337  
     16400   0.52844442    -1.7386201      0             -1.3595186      0.02931185   
     16450   0.57063775    -1.7388846      0             -1.3295141      0.00057983927
     16500   0.55842567    -1.7388535      0             -1.3382438     -0.072076793  
     16550   0.58961248    -2.0968367      0             -1.6738538      0.013699728  
     16600   0.54223043    -2.1722345      0             -1.7832431      0.065972296  
     16650   0.63624325    -2.3413663      0             -1.8849309     -0.025301194  
     16700   0.52932185    -2.3887462      0             -2.0090153     -0.0014796924 
     16750   0.54909991    -2.3903019      0             -1.9963824     -0.028976782  
     16800   0.56375735    -2.3908688      0             -1.9864342      0.05529251   
     16850   0.53243648    -2.3908324      0             -2.0088671     -0.064292662  
     16900   0.54867367    -2.391119       0             -1.9975053     -0.020009917  
     16950   0.54321552    -2.3910702      0             -2.0013721      0.061692396  
     17000   0.56203568    -2.3908356      0             -1.9876361     -0.0064252719 
     17050   0.57743292    -2.3911239      0             -1.9768785      0.053777384  
     17100   0.59361314    -2.3910602      0             -1.9652073     -0.00097305825
     17150   0.57728082    -2.3907016      0             -1.9765654     -0.02405148   
     17200   0.52422309    -2.3906942      0             -2.0146211     -0.026771353  
     17250   0.54059584    -2.3907708      0             -2.0029521      0.032398115  
     17300   0.57544896    -2.391057       0             -1.9782349      0.014252005  
     17350   0.54880689    -2.3907316      0             -1.9970223      0.033790297  
     17400   0.54081945    -2.3911407      0             -2.0031615      0.018149217  
     17450   0.52677943    -2.3894306      0             -2.0115236     -0.018568913  
     17500   0.50342567    -2.3911289      0             -2.0299757     -0.0023515511 
     17550   0.45838886    -2.3909208      0             -2.0620767     -0.014198806  
     17600   0.4513011     -2.3911183      0             -2.0673588      0.017825498  
     17650   0.44328095    -2.3906838      0             -2.0726779      0.003376546  
     17700   0.44945854    -2.3906058      0             -2.0681682     -0.015145923  
     17750   0.44155209    -2.3910911      0             -2.0743255     -0.066290539  
     17800   0.46333469    -2.3908632      0             -2.058471       0.029516329  
     17850   0.52021161    -2.391022       0             -2.0178267      0.066946684  
     17900   0.56490116    -2.3910415      0             -1.9857863      0.023035444  
     17950   0.54529572    -2.3910284      0             -1.999838       0.018787828  
     18000   0.54196526    -2.3911482      0             -2.002347      -0.054795173  
     18050   0.55737512    -2.3909174      0             -1.9910613     -0.0020644478 
     18100   0.56585282    -2.3911524      0             -1.9852145      0.0078856948 
     18150   0.55005531    -2.3911164      0             -1.9965115     -0.0063512562 
     18200   0.58191932    -2.3908679      0             -1.9734041     -0.012522821  
     18250   0.55730652    -2.3906437      0             -1.9908368     -0.0055376128 
     18300   0.55219247    -2.3907832      0             -1.9946452     -0.025797944  
     18350   0.51790215    -2.3911208      0             -2.0195823      0.017474686  
     18400   0.51250134    -2.3907607      0             -2.0230967      0.0058796352 
     18450   0.50375673    -2.3908607      0             -2.02947        0.037034464  
     18500   0.49309392    -2.3903457      0             -2.0366044     -0.031632206  
     18550   0.49570897    -2.3905675      0             -2.0349502      0.025548889  
     18600   0.50064005    -2.3907759      0             -2.0316211     -0.016152746  
     18650   0.48457136    -2.3893188      0             -2.0416915      0.0096449651 
     18700   0.53125307    -2.39048        0             -2.0093637      0.015935313  
     18750   0.54108975    -2.3897596      0             -2.0015865      0.045057584  
     18800   0.54861504    -2.3907816      0             -1.9972099     -0.025449836  
     18850   0.52673112    -2.3907371      0             -2.0128648     -0.024384427  
     18900   0.49431326    -2.3908438      0             -2.0362278      0.019122269  
     18950   0.49059315    -2.4332727      0             -2.0813255      0.016179119  
     19000   0.46160894    -2.4601283      0             -2.1289741     -0.0071729909 
     19050   0.47655859    -2.3911378      0             -2.0492588     -0.014228927  
     19100   0.49199708    -2.3909942      0             -2.0380397     -0.013963529  
     19150   0.50476287    -2.3910798      0             -2.0289673     -0.012078693  
     19200   0.44686299    -2.3909868      0             -2.0704111      0.01635416   
     19250   0.43246587    -2.3907488      0             -2.0805015      0.016675025  
     19300   0.43817449    -2.3909409      0             -2.0765983     -0.00095389031
     19350   0.43222683    -2.3908769      0             -2.0808011     -0.019854773  
     19400   0.43636047    -2.3909706      0             -2.0779294      0.0094863551 
     19450   0.43300543    -2.3910293      0             -2.080395       0.0130357    
     19500   0.43437898    -2.3908971      0             -2.0792773     -0.023030766  
     19550   0.48889418    -2.390874       0             -2.0401456      0.0088986481 
     19600   0.46459743    -2.3906502      0             -2.0573521      0.00064123525
     19650   0.46311783    -2.3908595      0             -2.0586228     -0.039729965  
     19700   0.50659633    -2.390929       0             -2.0275012      0.016686094  
     19750   0.51804509    -2.391028       0             -2.019387      -0.0045315466 
     19800   0.50683448    -2.3910879      0             -2.0274892      0.061019762  
     19850   0.50869965    -2.3905562      0             -2.0256195      0.021425766  
     19900   0.51881833    -2.3905034      0             -2.0183077     -0.0049450531 
     19950   0.51355763    -2.3909512      0             -2.0225294     -0.027617123  
     20000   0.53337114    -2.3909656      0             -2.0083298      0.023808954  
     20050   0.52586245    -2.3910838      0             -2.0138346      0.0046195989 
     20100   0.47836951    -2.390772       0             -2.0475939      0.022997786  
     20150   0.46393031    -2.391117       0             -2.0582974      0.00057126288
     20200   0.46266683    -2.3908474      0             -2.0589342      0.00082543048
     20250   0.48641224    -2.4107835      0             -2.0618356      0.041901482  
     20300   0.53387575    -2.4335457      0             -2.0505479      0.019487815  
     20350   0.51569733    -2.3908977      0             -2.0209409      0.0057452479 
     20400   0.48064177    -2.3912171      0             -2.0464088     -0.0018622856 
     20450   0.48245302    -2.3911409      0             -2.0450333     -0.0076389552 
     20500   0.50538265    -2.3909429      0             -2.0283857     -0.052078713  
     20550   0.4817281     -2.390546       0             -2.0449585      0.0134726    
     20600   0.48878024    -2.3828274      0             -2.0321807     -0.030352068  
     20650   0.49230483    -2.3773118      0             -2.0241366      0.021410088  
     20700   0.55007611    -2.3794556      0             -1.9848357     -0.0070975957 
     20750   0.55957503    -2.3869714      0             -1.9855372     -0.026375821  
     20800   0.52896217    -2.3907245      0             -2.0112516      0.010163986  
     20850   0.52205       -2.3891577      0             -2.0146436     -0.010812554  
     20900   0.56576733    -2.3907414      0             -1.9848648     -0.012751545  
     20950   0.5266052     -2.3812799      0             -2.0034979     -0.013702518  
     21000   0.50024207    -2.3823016      0             -2.0234323      0.0020995945 
     21050   0.50564602    -2.3893052      0             -2.0265592      0.0073485588 
     21100   0.44245658    -2.3867423      0             -2.0693278     -0.047284577  
     21150   0.46459102    -2.3863856      0             -2.053092      -0.0043192161 
     21200   0.45133914    -2.3896531      0             -2.0658664     -0.019812665  
     21250   0.45870633    -2.3909693      0             -2.0618974      0.038110878  
     21300   0.45496919    -2.3865138      0             -2.0601229      0.02100536   
     21350   0.506334      -2.3906002      0             -2.0273606      0.024364771  
     21400   0.49281089    -2.3911216      0             -2.0375833      0.0037895682 
     21450   0.47366788    -2.3905768      0             -2.0507716     -0.0053647149 
     21500   0.48367112    -2.3910887      0             -2.0441073      0.006359537  
     21550   0.52497155    -2.3909279      0             -2.0143178     -0.025720382  
     21600   0.4920814     -2.3910793      0             -2.0380643     -0.02146009   
     21650   0.4998651     -2.3909259      0             -2.032327      -0.0072005815 
     21700   0.50711161    -2.3910796      0             -2.0272821     -0.018226994  
     21750   0.45981589    -2.3907356      0             -2.0608677      0.022459832  
     21800   0.47005994    -2.3851926      0             -2.0479757      0.02260701   
     21850   0.51060238    -2.389185       0             -2.0228833      0.041736028  
     21900   0.48997822    -2.3841322      0             -2.032626       0.046083585  
     21950   0.51593811    -2.3824888      0             -2.0123593     -0.017624355  
     22000   0.50359547    -2.3908778      0             -2.0296028      0.018906631  
     22050   0.50690725    -2.3890413      0             -2.0253904      0.0094048544 
     22100   0.55196525    -2.3909924      0             -1.9950173      0.023799331  
     22150   0.48190839    -2.390638       0             -2.0449211     -0.014691055  
     22200   0.49601139    -2.3908809      0             -2.0350467     -0.007009547  
     22250   0.49818093    -2.3904027      0             -2.033012      -0.027277497  
     22300   0.49354647    -2.3909207      0             -2.0368548     -0.0022862318 
     22350   0.53591383    -2.3907324      0             -2.0062725     -0.011309439  
     22400   0.54446002    -2.3909299      0             -2.000339       0.011750111  
     22450   0.51327903    -2.3903662      0             -2.0221443      0.017055688  
     22500   0.51671069    -2.3909145      0             -2.0202307      0.03007023   
     22550   0.54502455    -2.3900155      0             -1.9990196      0.018785485  
     22600   0.57175502    -2.3906381      0             -1.980466      -0.0062191465 
     22650   0.59842217    -2.39056        0             -1.9612572      0.017396801  
     22700   0.60452532    -2.3909022      0             -1.9572209     -0.00041680345
     22750   0.61615605    -2.3910522      0             -1.9490272      0.044410091  
     22800   0.58010876    -2.3910705      0             -1.9749056     -0.038446802  
     22850   0.61203442    -2.3910523      0             -1.9519841     -0.01083182   
     22900   0.55787619    -2.3908756      0             -1.99066       -0.0091729374 
     22950   0.54859128    -2.39106        0             -1.9975054      0.027677732  
     23000   0.54836501    -2.3909705      0             -1.9975782      0.036108256  
     23050   0.53012044    -2.3909723      0             -2.0106685      0.010695684  
     23100   0.54583169    -2.391153       0             -1.9995781      0.032971758  
     23150   0.51596887    -2.3908882      0             -2.0207367      0.035002379  
     23200   0.53536297    -2.3908172      0             -2.0067525     -0.017826486  
     23250   0.53605278    -2.390876       0             -2.0063164     -0.0078077904 
     23300   0.50288554    -2.3909611      0             -2.0301954     -0.0068226569 
     23350   0.49731909    -2.3910796      0             -2.0343073      0.0027492988 
     23400   0.48323623    -2.3909937      0             -2.0443242     -0.0060223253 
     23450   0.51723509    -2.3908703      0             -2.0198103      0.018917852  
     23500   0.56514091    -2.3909283      0             -1.9855012     -0.034178016  
     23550   0.56685897    -2.391079       0             -1.9844193      0.037651408  
     23600   0.57020775    -2.3909113      0             -1.9818492      0.0044234542 
     23650   0.64400285    -2.3910581      0             -1.9290561     -0.011861648  
     23700   0.65800587    -2.3909279      0             -1.9188802      0.032511483  
     23750   0.6416088     -2.3908913      0             -1.9306068     -0.01406911   
     23800   0.70135924    -2.3907441      0             -1.8875951     -0.0015978075 
     23850   0.68068972    -2.3874461      0             -1.8991253     -0.0084111729 
     23900   0.7090026     -2.3902266      0             -1.8815943     -0.0013495113 
     23950   0.69319252    -2.3895711      0             -1.8922808      0.016565201  
     24000   0.69578044    -2.3908147      0             -1.8916678     -0.005508868  
     24050   0.70032926    -2.3908686      0             -1.8884585     -0.0063189947 
     24100   0.72197922    -2.3910099      0             -1.8730683      0.001275707  
     24150   0.74019546    -2.3910022      0             -1.8599924     -0.010979827  
     24200   0.72720661    -2.3910643      0             -1.8693726      0.0050502984 
     24250   0.68565044    -2.3907354      0             -1.8988558      0.0021501663 
     24300   0.7199193     -2.3910756      0             -1.8746118     -0.013298447  
     24350   0.71759737    -2.3903611      0             -1.875563       0.008117946  
     24400   0.7207095     -2.3906922      0             -1.8736615      0.0054164908 
     24450   0.69067224    -2.3910955      0             -1.8956133      0.003245733  
     24500   0.71218962    -2.3908864      0             -1.8799677      0.0049189328 
     24550   0.73058703    -2.3910076      0             -1.8668908      0.0074891322 
     24600   0.72447155    -2.3911092      0             -1.8713796      0.017911696  
     24650   0.75233675    -2.3910938      0             -1.8513739     -0.010395607  
     24700   0.74444269    -2.3910818      0             -1.8570251      0.031449402  
     24750   0.70483205    -2.3908893      0             -1.8852489      0.019375099  
     24800   0.72034742    -2.3911061      0             -1.8743351     -0.021893645  
     24850   0.68829865    -2.3909949      0             -1.8972155     -0.017112174  
     24900   0.71418331    -2.3909799      0             -1.878631      -0.026166404  
     24950   0.69789282    -2.3893925      0             -1.8887302     -0.009425812  
     25000   0.6613731     -2.3852003      0             -1.910737       0.028710613  
     25050   0.65872099    -2.3879569      0             -1.9153962     -0.0061689681 
     25100   0.65846488    -2.3908833      0             -1.9185063     -0.019218416  
     25150   0.70897944    -2.4341756      0             -1.9255599     -0.011688937  
     25200   0.65202347    -2.411976       0             -1.94422        0.029611007  
     25250   0.69232993    -2.3907263      0             -1.8940549      0.051702752  
     25300   0.71112654    -2.3902818      0             -1.8801258     -0.014869871  
     25350   0.73815894    -2.3909991      0             -1.8614503     -0.011448288  
     25400   0.77270226    -2.3906583      0             -1.8363284     -0.013228236  
     25450   0.73464577    -2.3908926      0             -1.8638641      0.014548007  
     25500   0.73805435    -2.3909298      0             -1.861456      -0.022347532  
     25550   0.72926355    -2.3910602      0             -1.8678929     -0.0016913419 
     25600   0.72904175    -2.3904614      0             -1.8674532      0.019688379  
     25650   0.74941915    -2.3908228      0             -1.853196       0.022157154  
     25700   0.71432968    -2.3903096      0             -1.8778557      0.00069424772
     25750   0.68542128    -2.3909388      0             -1.8992236      0.050517227  
     25800   0.7045928     -2.4332281      0             -1.9277593      0.027767313  
     25850   0.66782399    -2.4061307      0             -1.9270396      0.0027087858 
     25900   0.69749504    -2.3909865      0             -1.8906096     -0.01566547   
     25950   0.69979263    -2.3906913      0             -1.8886661     -0.007599237  
     26000   0.67728673    -2.3910696      0             -1.9051899     -0.028343942  
     26050   0.70008918    -2.3911126      0             -1.8888747      0.023570591  
     26100   0.67917269    -2.3908296      0             -1.9035971      0.013215509  
     26150   0.71518653    -2.5992361      0             -2.0861675      0.0040446171 
     26200   0.71570398    -2.6080313      0             -2.0945915      0.02000255   
     26250   0.66821027    -2.6080603      0             -2.1286921     -0.00612827   
     26300   0.65939916    -2.6082529      0             -2.1352057      0.016424259  
     26350   0.69647472    -2.6083427      0             -2.1086978     -0.015016431  
     26400   0.71808973    -2.6084877      0             -2.0933364      0.0072545852 
     26450   0.70191112    -2.7201899      0             -2.216645      -0.0067557806 
     26500   0.70363108    -2.6923656      0             -2.1875868      0.011447129  
     26550   0.71050693    -2.6085252      0             -2.0988137      0.022810992  
     26600   0.69508401    -2.6085709      0             -2.1099237      0.0016218646 
     26650   0.6714566     -2.6084239      0             -2.1267268      0.0030378241 
     26700   0.7151675     -2.6073476      0             -2.0942926     -0.037601156  
     26750   0.71509866    -2.6084089      0             -2.0954034      0.029963745  
     26800   0.66394057    -2.6078301      0             -2.1315249      0.0091926831 
     26850   0.67733076    -2.6083543      0             -2.1224431      0.0059496515 
     26900   0.64056887    -2.6485165      0             -2.1889779      0.075221807  
     26950   0.6443258     -2.6371889      0             -2.1749552     -0.032699802  
     27000   0.64541871    -2.6050387      0             -2.142021       0.016435049  
     27050   0.57972112    -2.6024567      0             -2.1865698      0.0062973885 
     27100   0.55787744    -3.0248912      0             -2.6246747     -0.04330887   
     27150   0.52430531    -3.0389009      0             -2.6627688      0.049863341  
     27200   0.54653999    -3.04242        0             -2.650337       0.017725211  
     27250   0.54662313    -3.0414792      0             -2.6493365     -0.011275611  
     27300   0.53886869    -3.0420874      0             -2.6555076     -0.010463518  
     27350   0.57850111    -3.0415832      0             -2.6265716     -0.022208778  
     27400   0.61630157    -3.038448       0             -2.5963186     -0.0090625562 
     27450   0.58027089    -3.0416058      0             -2.6253245      0.024010935  
     27500   0.57001651    -3.0417446      0             -2.6328197     -0.012600022  
     27550   0.56447947    -3.0427309      0             -2.6377782      0.020886101  
     27600   0.53784159    -3.0429456      0             -2.6571028     -0.022972461  
     27650   0.51415478    -3.0428994      0             -2.6740492     -0.041119824  
     27700   0.5090584     -3.0429215      0             -2.6777274     -0.0024813764 
     27750   0.48445209    -3.0431201      0             -2.6955784     -0.053239251  
     27800   0.45736202    -3.2588972      0             -2.9307897      0.023436882  
     27850   0.53629255    -3.4586883      0             -3.0739567      0.1090749    
     27900   0.49879408    -3.4763146      0             -3.1184841      0.091048251  
     27950   0.4438792     -3.4772749      0             -3.1588398      0.058111094  
     28000   0.44889817    -3.4779178      0             -3.1558822      0.021434024  
     28050   0.4542704     -3.4769769      0             -3.1510872      0.044168704  
     28100   0.40987818    -3.4772517      0             -3.1832087      0.022238502  
     28150   0.42331812    -3.4774405      0             -3.1737557     -0.050260874  
     28200   0.43602359    -3.476937       0             -3.1641374     -0.047551011  
     28250   0.42795465    -3.4778753      0             -3.1708643      0.030874269  
     28300   0.47254197    -3.4773824      0             -3.1383849     -0.018311709  
     28350   0.42315398    -3.4772268      0             -3.1736598      0.011548841  
     28400   0.45088201    -3.4771757      0             -3.1537169     -0.020534346  
     28450   0.43479136    -3.4774912      0             -3.1655757     -0.020958833  
     28500   0.39293423    -3.4778085      0             -3.1959209     -0.0049833606 
     28550   0.40084041    -3.4775219      0             -3.1899624      0.023349945  
     28600   0.37795756    -3.4770144      0             -3.205871      -0.043254014  
     28650   0.35644916    -3.4771846      0             -3.2214711      0.021126178  
     28700   0.35416459    -3.476968       0             -3.2228934     -0.0088743428 
     28750   0.35966312    -3.4777369      0             -3.2197177      0.029111504  
     28800   0.37455906    -3.5118424      0             -3.243137      -0.015855752  
     28850   0.42551879    -3.5207747      0             -3.2155112      0.012266258  
     28900   0.46399051    -3.477531       0             -3.1446682      0.054142264  
     28950   0.44563811    -3.4773706      0             -3.1576737      0.043980421  
     29000   0.45182626    -3.476902       0             -3.1527658     -0.016443794  
     29050   0.45985164    -3.4770083      0             -3.1471148     -0.044648204  
     29100   0.45710703    -3.4777377      0             -3.1498131     -0.017251142  
     29150   0.47958066    -3.4775792      0             -3.1335322     -0.01961884   
     29200   0.4558162     -3.4761375      0             -3.1491389     -0.019488449  
     29250   0.4169842     -3.4764789      0             -3.177338      -0.050812695  
     29300   0.39046718    -3.4773069      0             -3.1971891      0.038369739  
     29350   0.39567394    -3.4777195      0             -3.1938665     -0.086054664  
     29400   0.38876495    -3.477839       0             -3.1989425     -0.0048540378 
     29450   0.44340524    -3.4777713      0             -3.1596762     -0.042923601  
     29500   0.46713904    -3.475699       0             -3.1405775      0.0029176688 
     29550   0.42359404    -3.4767753      0             -3.1728927     -0.012905101  
     29600   0.35963541    -3.4801805      0             -3.2221812     -0.049726064  
     29650   0.40721827    -3.477891       0             -3.1857561     -0.0076953503 
     29700   0.42129442    -3.4776017      0             -3.1753687      0.051056482  
     29750   0.44303195    -3.5203088      0             -3.2024815      0.064988787  
     29800   0.44521766    -3.5062496      0             -3.1868543     -0.094229866  
     29850   0.43717336    -3.5155255      0             -3.2019011     -0.017284808  
     29900   0.41216099    -3.4777171      0             -3.1820364     -0.049208543  
     29950   0.40156228    -3.4762998      0             -3.1882226     -0.052801298  
     30000   0.44535547    -3.477647       0             -3.1581528      0.04776246   
     30050   0.43617559    -3.4776483      0             -3.1647397     -0.053967107  
     30100   0.53579799    -3.477558       0             -3.0931812     -0.013904148  
     30150   0.51049315    -3.4773743      0             -3.1111509     -0.02036976   
     30200   0.5126926     -3.47774        0             -3.1099388     -0.061973847  
     30250   0.56982293    -3.4778863      0             -3.0691003     -0.051422978  
     30300   0.55844429    -3.4775345      0             -3.0769114      0.015658641  
     30350   0.54347253    -3.4752763      0             -3.0853939      0.076239492  
     30400   0.46799357    -3.42416        0             -3.0884255     -0.07152867   
     30450   0.51356826    -3.4762841      0             -3.1078547     -0.024196122  
     30500   0.51249003    -3.4774172      0             -3.1097613     -0.0077250624 
     30550   0.48156228    -3.4724517      0             -3.1269831     -0.067640749  
     30600   0.45486135    -3.4748311      0             -3.1485175     -0.044168928  
     30650   0.4431701     -3.5159052      0             -3.1979788      0.027853376  
     30700   0.46305516    -3.5178662      0             -3.1856745      0.024206444  
     30750   0.4384311     -3.4767552      0             -3.1622285     -0.052349102  
     30800   0.48682412    -3.4772467      0             -3.1280034      0.026878073  
     30850   0.45585982    -3.477553       0             -3.1505232     -0.021989357  
     30900   0.4892438     -3.4779206      0             -3.1269413      0.026917537  
     30950   0.49593673    -3.520697       0             -3.1649163     -0.0086839227 
     31000   0.4727045     -3.4948383      0             -3.1557242      0.053203585  
     31050   0.51691579    -3.5618479      0             -3.191017      -0.015721217  
     31100   0.54246362    -3.5633576      0             -3.1741989      0.005125583  
     31150   0.52924458    -3.5207847      0             -3.1411092      0.041711252  
     31200   0.49494675    -3.4773078      0             -3.1222373      0.026289366  
     31250   0.47203716    -3.4777158      0             -3.1390804      0.0036137834 
     31300   0.44072877    -3.4693195      0             -3.1531445      0.014230978  
     31350   0.4532831     -3.472399       0             -3.1472176      0.033568097  
     31400   0.44941498    -3.4708362      0             -3.1484298      0.037888272  
     31450   0.45949861    -3.4731223      0             -3.143482      -0.0094843943 
     31500   0.43766861    -3.4749426      0             -3.1609629      0.015755224  
     31550   0.40192012    -3.4759775      0             -3.1876435      0.0099839535 
     31600   0.39922977    -3.4775426      0             -3.1911387     -0.012415989  
     31650   0.38746778    -3.4729897      0             -3.1950237     -0.0055658895 
     31700   0.36715058    -3.474363       0             -3.2109724     -0.060413723  
     31750   0.36433876    -3.473072       0             -3.2116986     -0.0088367222 
     31800   0.34036576    -3.4740789      0             -3.2299034     -0.0072138723 
     31850   0.34309024    -3.474212       0             -3.228082      -0.01643343   
     31900   0.36852459    -3.4777249      0             -3.2133486     -0.043101253  
     31950   0.37954341    -3.477598       0             -3.2053169     -0.010760512  
     32000   0.35658635    -3.4882876      0             -3.2324756      0.021100093  
     32050   0.42027482    -3.5172702      0             -3.2157687     -0.019935186  
     32100   0.40301429    -3.4773856      0             -3.1882666     -0.019977832  
     32150   0.44122148    -3.4773468      0             -3.1608183     -0.0090395199 
     32200   0.44644736    -3.4774676      0             -3.1571902      0.03054916   
     32250   0.45586127    -3.477674       0             -3.1506431      0.0064644736 
     32300   0.45846917    -3.4780645      0             -3.1491627     -0.024719785  
     32350   0.46780911    -3.4777029      0             -3.1421007      0.04220518   
     32400   0.46881854    -3.4754488      0             -3.1391225      0.0095723625 
     32450   0.47051581    -3.4774768      0             -3.1399328     -0.0052073563 
     32500   0.44483956    -3.4776275      0             -3.1585034      0.027734939  
     32550   0.42810225    -3.4778231      0             -3.1707063     -0.0079282935 
     32600   0.43331446    -3.5160575      0             -3.2052014     -0.0088125175 
     32650   0.42945654    -3.5183674      0             -3.210279       0.064980424  
     32700   0.40122821    -3.4778361      0             -3.1899985     -0.0071745951 
     32750   0.38970547    -3.4773898      0             -3.1978184      0.009233671  
     32800   0.36695575    -3.4773463      0             -3.2140954     -0.011684035  
     32850   0.37548482    -3.5151966      0             -3.245827      -0.0054511018 
     32900   0.39063682    -3.518424       0             -3.2381845      3.8860169e-05
     32950   0.38254407    -3.5199513      0             -3.2455175     -0.00012367589
     33000   0.38915254    -3.5170937      0             -3.237919       0.038732109  
     33050   0.36958201    -3.519427       0             -3.2542921     -0.0011997234 
     33100   0.41699939    -3.4778276      0             -3.1786759      0.0087035762 
     33150   0.39783135    -3.515468       0             -3.2300672      0.026605406  
     33200   0.42837462    -3.5200327      0             -3.2127205     -0.022225512  
     33250   0.4337669     -3.477912       0             -3.1667314      0.011238018  
     33300   0.4540107     -3.4775246      0             -3.1518212     -0.017921343  
     33350   0.54092075    -3.7938483      0             -3.4057964      0.056658051  
     33400   0.45848222    -3.9013797      0             -3.5724685     -0.017069529  
     33450   0.49006332    -3.9107769      0             -3.5592097      0.0071120526 
     33500   0.46613408    -3.9109241      0             -3.5765236     -0.00041529815
     33550   0.45041069    -3.9122908      0             -3.5891701      0.060327093  
     33600   0.47506924    -3.9114584      0             -3.5706479      0.048420588  
     33650   0.43237233    -3.9467199      0             -3.6365398     -0.00090325643
     33700   0.40434776    -3.9722796      0             -3.682204       0.044890732  
     33750   0.42562893    -4.0311557      0             -3.7258132     -0.047213033  
     33800   0.43112929    -3.9924551      0             -3.6831667      0.02525847   
     33850   0.4417833     -3.954954       0             -3.6380225      0.0014217488 
     33900   0.48530119    -3.912062       0             -3.5639111     -0.0057290821 
     33950   0.43724135    -3.9117163      0             -3.5980432     -0.016495251  
     34000   0.44013775    -3.9124611      0             -3.5967101      0.023275432  
     34050   0.45352685    -3.9114802      0             -3.5861239     -0.029803266  
     34100   0.48781021    -3.9123824      0             -3.5624316     -0.026339305  
     34150   0.45237664    -3.9117224      0             -3.5871913      0.0058971059 
     34200   0.43755463    -4.1152259      0             -3.801328      -0.025683806  
     34250   0.37693041    -4.1287377      0             -3.8583311      0.014092197  
     34300   0.36056442    -4.1297399      0             -3.8710741      0.015972406  
     34350   0.37280687    -4.129757       0             -3.8623086     -0.021816628  
     34400   0.33184165    -4.1685509      0             -3.9304906      0.039312796  
     34450   0.32534663    -4.1583735      0             -3.9249727      0.011902969  
     34500   0.3380952     -4.1704265      0             -3.92788        0.005224412  
     34550   0.32640959    -4.1292448      0             -3.8950814      0.00063886239
     34600   0.31292451    -4.12996        0             -3.9054707     -0.012030003  
     34650   0.31065573    -4.1696403      0             -3.9467786      0.011648078  
     34700   0.31641518    -4.1678829      0             -3.9408894     -0.068850574  
     34750   0.30637331    -4.1672984      0             -3.9475088     -0.034579981  
     34800   0.31446826    -4.1699567      0             -3.9443599     -0.014145461  
     34850   0.31848421    -4.1712647      0             -3.9427869     -0.0071701895 
     34900   0.33908168    -4.1731398      0             -3.9298856     -0.030889562  
     34950   0.33908521    -4.1294903      0             -3.8862336     -0.0086033662 
     35000   0.33360553    -4.1187418      0             -3.8794161      0.012634841  
     35050   0.34173935    -4.1275188      0             -3.8823579      0.0047513188 
     35100   0.31954143    -4.1243542      0             -3.8951179      0.036540767  
     35150   0.31777538    -4.1280625      0             -3.9000932      0.023383437  
     35200   0.3203886     -4.1297935      0             -3.8999495      0.002558322  
     35250   0.32774065    -4.1296853      0             -3.894567       0.030502672  
     35300   0.3094135     -4.1291149      0             -3.9071443      0.025281962  
     35350   0.29767757    -4.1293746      0             -3.9158233     -0.018604131  
     35400   0.29197693    -4.171055       0             -3.9615932      0.017021163  
     35450   0.28346815    -4.1677809      0             -3.9644233      0.0014103297 
     35500   0.30699548    -4.25565        0             -4.0354141      0.049591935  
     35550   0.24782556    -4.1767033      0             -3.9989154      0.04493807   
     35600   0.33565721    -4.1657386      0             -3.924941      -0.040811     
     35650   0.34191261    -4.1203987      0             -3.8751136      0.033224335  
     35700   0.33912123    -4.1284742      0             -3.8851916      0.016439788  
     35750   0.33844218    -4.1727017      0             -3.9299063      0.012718331  
     35800   0.29722323    -4.1692131      0             -3.9559877      0.026194808  
     35850   0.32616573    -4.1723366      0             -3.9383481      0.015383319  
     35900   0.3429366     -4.1717555      0             -3.9257358      0.0039444129 
     35950   0.37676875    -4.1626471      0             -3.8923565      0.026368286  
     36000   0.37144062    -4.1568395      0             -3.8903712     -0.0047239372 
     36050   0.36270934    -4.1222386      0             -3.8620341      0.048805282  
     36100   0.34749752    -4.1292449      0             -3.8799532     -0.0048669192 
     36150   0.34955421    -4.1200455      0             -3.8692784      0.010500931  
     36200   0.34357414    -4.1294906      0             -3.8830135     -0.018912382  
     36250   0.3330001     -4.1294946      0             -3.8906032     -0.033881306  
     36300   0.33077009    -4.1295604      0             -3.8922688     -0.0015152355 
     36350   0.3207144     -4.1296817      0             -3.899604       0.0016307651 
     36400   0.29504114    -4.1296303      0             -3.9179704     -0.013156398  
     36450   0.28247808    -4.1292232      0             -3.9265759      0.017786195  
     36500   0.27959778    -4.1296317      0             -3.9290507      0.013836871  
     36550   0.28744977    -4.1297322      0             -3.9235182     -0.040826467  
     36600   0.26360079    -4.1253879      0             -3.936283       0.061008999  
     36650   0.27130466    -4.1267908      0             -3.9321592     -0.047722772  
     36700   0.24611908    -4.1292276      0             -3.9526639      0.040764464  
     36750   0.26929091    -4.1298295      0             -3.9366426     -0.043478339  
     36800   0.27749548    -4.1297194      0             -3.9306466      0.0010495752 
     36850   0.30296305    -4.1291001      0             -3.911757      -0.0044680288 
     36900   0.32914873    -4.1279427      0             -3.8918143      0.019944046  
     36950   0.35404307    -4.171721       0             -3.9177335      0.0043267243 
     37000   0.39050955    -4.160165       0             -3.8800168      0.042153762  
     37050   0.40267121    -4.1719333      0             -3.8830605      0.010294336  
     37100   0.42004537    -4.1294436      0             -3.8281067      0.014854832  
     37150   0.46754869    -4.1297518      0             -3.7943364      0.035413355  
     37200   0.45970335    -4.1295208      0             -3.7997336     -5.3524937e-05
     37250   0.42257044    -4.1717025      0             -3.8685542      0.0052034799 
     37300   0.40225985    -4.1708536      0             -3.8822759      0.0025895056 
     37350   0.42857096    -4.1709494      0             -3.8634963      0.0096384314 
     37400   0.45847207    -4.1722422      0             -3.8433383      0.013397823  
     37450   0.4654853     -4.1732486      0             -3.8393135      0.017201664  
     37500   0.43056772    -4.1293816      0             -3.8204961      0.0056104974 
     37550   0.42764227    -4.1730253      0             -3.8662385     -0.041406466  
     37600   0.39318573    -4.1296023      0             -3.8475343     -0.050952991  
     37650   0.41407537    -4.129813       0             -3.8327589      0.0078095253 
     37700   0.39657293    -4.1718499      0             -3.887352       0.019742333  
     37750   0.43121463    -4.1710036      0             -3.861654      -0.0076718802 
     37800   0.38222052    -4.171239       0             -3.8970373      0.054979419  
     37850   0.36627275    -4.1714982      0             -3.9087373      0.034879112  
     37900   0.42777712    -4.1713744      0             -3.8644908      0.023114043  
     37950   0.39743896    -4.1693253      0             -3.884206       0.027388877  
     38000   0.37231114    -4.1180974      0             -3.8510046     -0.0024015609 
     38050   0.36833867    -4.3371744      0             -4.0729314      0.025091091  
     38100   0.37067564    -4.3461462      0             -4.0802268      0.02494258   
     38150   0.35339748    -4.3392084      0             -4.0856841      0.00024593238
     38200   0.36059139    -4.343373       0             -4.0846879      0.0027255494 
     38250   0.41033417    -4.4958657      0             -4.2014955     -0.0059619242 
     38300   0.37882906    -4.5564876      0             -4.284719      -0.032905964  
     38350   0.34107279    -4.5613405      0             -4.3166579      0.013851399  
     38400   0.3313043     -4.7747266      0             -4.5370517      0.016148727  
     38450   0.31017627    -4.781904       0             -4.5593863      0.024611899  
     38500   0.31108664    -4.7782563      0             -4.5550855      0.012914897  
     38550   0.32204387    -4.8209447      0             -4.5899132      0.01716221   
     38600   0.32422948    -4.8180683      0             -4.5854689      0.010001141  
     38650   0.32793805    -4.8248679      0             -4.589608       0.0066793274 
     38700   0.33736376    -4.7820667      0             -4.5400449      0.024952689  
     38750   0.28419809    -4.7819155      0             -4.5780343      0.015125525  
[...]
     89350   0.24331581    -5.212729       0             -5.0381763      0.026155046  
     89400   0.2373299     -5.2588641      0             -5.0886057     -0.04983734   
     89450   0.22953274    -5.2567301      0             -5.0920653     -0.0073825745 
     89500   0.22912264    -5.2593735      0             -5.0950029     -0.004338746  
     89550   0.22778361    -5.21531        0             -5.0519         0.07001777   
     89600   0.23393343    -5.2154196      0             -5.0475978      0.030496052  
     89650   0.25579592    -5.2152368      0             -5.0317311     -0.067661999  
     89700   0.25827664    -5.2130482      0             -5.0277628      0.055674117  
     89750   0.25407468    -5.215762       0             -5.0334911     -0.0082197605 
     89800   0.27658642    -5.2138337      0             -5.015413      -0.023791039  
     89850   0.26735084    -5.2152204      0             -5.0234253      0.0043568903 
     89900   0.26499543    -5.2163515      0             -5.0262461     -0.00054270003
     89950   0.22956346    -5.2472167      0             -5.0825299     -0.046384429  
     90000   0.24393895    -5.248224       0             -5.0732243      0.050767965  
     90050   0.21806936    -5.2557888      0             -5.0993477     -0.043300763  
     90100   0.22503807    -5.2139489      0             -5.0525086      0.054078672  
     90150   0.20542007    -5.2142228      0             -5.0668563     -0.03364692   
     90200   0.21594286    -5.2157116      0             -5.0607961      0.027217444  
     90250   0.21712363    -5.216039       0             -5.0602764     -0.051117802  
     90300   0.18964695    -5.2153625      0             -5.0793115     -0.018878019  
     90350   0.18509841    -5.2121596      0             -5.0793716     -0.10541942   
     90400   0.16648263    -5.2159382      0             -5.096505      -0.03722799   
     90450   0.14798231    -5.2163575      0             -5.1101963      0.028927808  
     90500   0.13810993    -5.2150885      0             -5.1160096     -0.02612484   
     90550   0.1439262     -5.2160485      0             -5.1127971      0.020495448  
     90600   0.15316349    -5.2163651      0             -5.1064869      0.021624885  
     90650   0.13576022    -5.2164837      0             -5.1190905     -0.0058214968 
     90700   0.13254496    -5.2164059      0             -5.1213193      0.040387097  
     90750   0.14558679    -5.216245       0             -5.1118023     -0.03368216   
     90800   0.16245183    -5.216314       0             -5.0997724      0.027201204  
     90850   0.17587996    -5.2166563      0             -5.0904816     -0.062718341  
     90900   0.16873347    -5.2168068      0             -5.0957589      9.3033719e-05
     90950   0.16631948    -5.2165895      0             -5.0972734      0.032619692  
     91000   0.15781312    -5.2160643      0             -5.1028505      0.012176028  
     91050   0.15307908    -5.2486503      0             -5.1388327     -0.034625931  
     91100   0.18200135    -5.2457285      0             -5.1151623     -0.045143462  
     91150   0.22142286    -5.2590386      0             -5.1001918     -0.020379411  
     91200   0.22467894    -5.215988       0             -5.0548053      0.01446651   
     91250   0.22405952    -5.215219       0             -5.0544807     -0.026499961  
     91300   0.22122315    -5.2167199      0             -5.0580163      0.039307666  
     91350   0.22318911    -5.2156884      0             -5.0555745      0.029403362  
     91400   0.25144675    -5.2159795      0             -5.0355938     -0.0098429055 
     91450   0.24078747    -5.2160776      0             -5.0433388     -0.024955651  
     91500   0.23723113    -5.2168132      0             -5.0466256     -0.013460819  
     91550   0.22558107    -5.2162367      0             -5.0544068      0.049978457  
     91600   0.22548622    -5.2161757      0             -5.0544138      0.003507126  
     91650   0.22741052    -5.2164094      0             -5.0532671      0.02710893   
     91700   0.2289482     -5.2162933      0             -5.0520478     -0.0083566057 
     91750   0.21709316    -5.2165486      0             -5.0608078     -0.02512311   
     91800   0.20196198    -5.2164116      0             -5.0715258      0.025951003  
     91850   0.17925131    -5.215494       0             -5.0869007      0.025350737  
     91900   0.17805037    -5.2164678      0             -5.088736       0.027286151  
     91950   0.17139161    -5.2163777      0             -5.0934228      0.028006196  
     92000   0.15978147    -5.2162309      0             -5.101605      -0.002392355  
     92050   0.16738468    -5.2162236      0             -5.0961433      0.0013715028 
     92100   0.15692606    -5.216298       0             -5.1037206     -0.013043903  
     92150   0.15121514    -5.216179       0             -5.1076985     -0.0081766417 
     92200   0.14480365    -5.2152123      0             -5.1113314     -0.040481331  
     92250   0.15132622    -5.2157485      0             -5.1071884     -0.00396449   
     92300   0.13577204    -5.2159196      0             -5.1185179     -0.010744007  
     92350   0.14312343    -5.216212       0             -5.1135365     -0.016804394  
     92400   0.15356734    -5.2157849      0             -5.105617      -0.00022598549
     92450   0.13243417    -5.215573       0             -5.1205659     -0.024125028  
     92500   0.12769587    -5.2164015      0             -5.1247936     -0.014437321  
     92550   0.13604525    -5.214055       0             -5.1164574     -0.0020294859 
     92600   0.12358714    -5.2158296      0             -5.1271693      0.051619372  
     92650   0.12406996    -5.2164534      0             -5.1274466      0.021885364  
     92700   0.13287722    -5.2149974      0             -5.1196724      0.035496764  
     92750   0.13761656    -5.2158881      0             -5.1171631     -0.046019424  
     92800   0.13020345    -5.2158159      0             -5.122409       0.014272987  
     92850   0.13742243    -5.2154818      0             -5.1168961     -0.017824339  
     92900   0.14590767    -5.2162133      0             -5.1115404      0.0031363266 
     92950   0.16045252    -5.2168372      0             -5.10173       -0.027859722  
     93000   0.15997699    -5.21526        0             -5.1004939     -0.0060687039 
     93050   0.16099273    -5.2160726      0             -5.1005779      0.0043559114 
     93100   0.17462436    -5.216328       0             -5.091054       0.028631451  
     93150   0.17061697    -5.214366       0             -5.0919668     -0.013361662  
     93200   0.17197306    -5.2158561      0             -5.0924841      0.012760207  
     93250   0.18683814    -5.2161351      0             -5.0820991     -0.036579689  
     93300   0.16948546    -5.2160305      0             -5.0944431     -0.041878974  
     93350   0.18913313    -5.215363       0             -5.0796805      0.0081973504 
     93400   0.20935686    -5.216458       0             -5.0662672      0.030428963  
     93450   0.18984357    -5.2162368      0             -5.0800447     -0.018391029  
     93500   0.17141251    -5.2142439      0             -5.0912741      0.011920385  
     93550   0.15444869    -5.2158498      0             -5.1050496      0.018690016  
     93600   0.16251351    -5.2158714      0             -5.0992856      0.0195398    
     93650   0.13346775    -5.2164678      0             -5.1207192      0.017078633  
     93700   0.11947656    -5.2159366      0             -5.1302251     -0.0090597081 
     93750   0.12105376    -5.21474        0             -5.1278971      0.0540328    
     93800   0.13457743    -5.216948       0             -5.1204033      0.03413549   
     93850   0.12223916    -5.2167309      0             -5.1290375      0.0032659496 
     93900   0.135959      -5.2155084      0             -5.1179726      0.011127545  
     93950   0.13340692    -5.2146399      0             -5.118935      -0.0087928087 
     94000   0.13045158    -5.2151366      0             -5.1215518      0.011301113  
     94050   0.12077962    -5.2161768      0             -5.1295306      0.027393218  
     94100   0.10556908    -5.2163325      0             -5.1405981      0.00099375279
     94150   0.090860378   -5.2158976      0             -5.1507152     -0.0096941335 
     94200   0.089670564   -5.2161606      0             -5.1518317      0.018696692  
     94250   0.11328419    -5.2159336      0             -5.1346645      0.02859815   
     94300   0.10590534    -5.2153316      0             -5.139356       0.054389116  
     94350   0.10240301    -5.2166776      0             -5.1432146     -0.0111721    
     94400   0.10351933    -5.2168168      0             -5.1425529     -0.032957706  
     94450   0.13488915    -5.2165971      0             -5.1198288     -0.012746935  
     94500   0.14636395    -5.2163621      0             -5.1113619     -0.038702846  
     94550   0.15440171    -5.2161369      0             -5.1053705      0.011965254  
     94600   0.18849741    -5.2157239      0             -5.0804975      0.028087925  
     94650   0.17911055    -5.2162956      0             -5.0878033      0.012181599  
     94700   0.15386854    -5.216385       0             -5.1060011     -0.029495579  
     94750   0.15054627    -5.208976       0             -5.1009754     -0.031098896  
     94800   0.14727488    -5.2125037      0             -5.10685        0.012421934  
     94850   0.15403517    -5.215457       0             -5.1049535      0.042072063  
     94900   0.15087864    -5.215187       0             -5.1069479     -0.0036062763 
     94950   0.14225838    -5.2160548      0             -5.1139999     -0.027039202  
     95000   0.14876386    -5.2149022      0             -5.1081803     -0.029679835  
     95050   0.143268      -5.2141939      0             -5.1114147      0.013628204  
     95100   0.12593424    -5.2153505      0             -5.1250064     -0.011391243  
     95150   0.12195832    -5.2166406      0             -5.1291488      0.0038272753 
     95200   0.12061277    -5.2593473      0             -5.1728208     -0.043622078  
     95250   0.11803637    -5.2586308      0             -5.1739526     -0.009626284  
     95300   0.12255164    -5.3021394      0             -5.2142219     -0.027253752  
     95350   0.11580863    -5.2583381      0             -5.175258       0.0035066606 
     95400   0.13084516    -5.2586655      0             -5.1647983     -0.035109841  
     95450   0.11995171    -5.2160956      0             -5.1300433      0.038551768  
     95500   0.10800839    -5.2164774      0             -5.1389931      0.035355262  
     95550   0.11031887    -5.2165753      0             -5.1374335     -0.033656948  
     95600   0.11281601    -5.2165734      0             -5.1356402      0.056698733  
     95650   0.12541215    -5.2590424      0             -5.1690729     -0.0092492966 
     95700   0.12663697    -5.2584378      0             -5.1675896     -0.0040505717 
     95750   0.10312671    -5.2579595      0             -5.1839773      0.0018792929 
     95800   0.099851216   -5.2587695      0             -5.1871371     -0.021010922  
     95850   0.095698379   -5.2590515      0             -5.1903983     -0.016251576  
     95900   0.11483607    -5.2602502      0             -5.1778678     -0.0149086    
     95950   0.12269406    -5.2159495      0             -5.1279299     -0.04596932   
     96000   0.11817364    -5.2144181      0             -5.1296414      0.0075612288 
     96050   0.13229982    -5.2153615      0             -5.1204507     -0.037278909  
     96100   0.11975913    -5.2124805      0             -5.1265663     -0.023155806  
     96150   0.10985625    -5.2129812      0             -5.1341713     -0.096376209  
     96200   0.092989195   -5.2148369      0             -5.1481273      0.022712241  
     96250   0.084847472   -5.2167253      0             -5.1558565      0.013141707  
     96300   0.089450872   -5.2163479      0             -5.1521767     -0.0036644875 
     96350   0.078057419   -5.2164857      0             -5.1604879      0.023975428  
     96400   0.075830958   -5.2160868      0             -5.1616864     -0.06032511   
     96450   0.10574373    -5.216328       0             -5.1404684      0.0041324268 
     96500   0.10548356    -5.2143908      0             -5.1387178      0.0002794603 
     96550   0.11559119    -5.2159193      0             -5.1329952      0.025141424  
     96600   0.13794934    -5.2148369      0             -5.1158733      0.010256026  
     96650   0.12853512    -5.2142215      0             -5.1220115     -0.031198693  
     96700   0.14080761    -5.2141013      0             -5.1130872     -0.012550693  
     96750   0.15765379    -5.2142876      0             -5.1011881      0.02619622   
     96800   0.15829095    -5.2160013      0             -5.1024447     -0.032673209  
     96850   0.17292122    -5.2164313      0             -5.0923792      0.073518135  
     96900   0.18340184    -5.2159474      0             -5.0843765      0.01192965   
     96950   0.16777758    -5.2162582      0             -5.0958961      0.0046639145 
     97000   0.19824884    -5.2163103      0             -5.0740883      0.00038726999
     97050   0.1833299     -5.2164788      0             -5.0849595      0.0083533656 
     97100   0.21680286    -5.216424       0             -5.0608915      0.0026615609 
     97150   0.20290963    -5.2166661      0             -5.0711005      0.0045862592 
     97200   0.22644251    -5.2167578      0             -5.0543099     -0.028678825  
     97250   0.21168786    -5.2595765      0             -5.1077135      0.020819348  
     97300   0.21334516    -5.2592438      0             -5.1061918      0.017223238  
     97350   0.21952556    -5.2595478      0             -5.1020621      0.0067249401 
     97400   0.22064813    -5.2165606      0             -5.0582695     -0.0081667641 
     97450   0.21435283    -5.216063       0             -5.0622881      0.049426096  
     97500   0.21417909    -5.2147261      0             -5.0610758     -0.039507338  
     97550   0.22713474    -5.2153775      0             -5.052433       0.11501648   
     97600   0.25340435    -5.2162565      0             -5.0344664     -0.039938175  
     97650   0.27876526    -5.2142155      0             -5.0142317     -0.036471317  
     97700   0.25538743    -5.2536413      0             -5.0704285     -0.0011381842 
     97750   0.24673763    -5.2392383      0             -5.0622309      0.058985213  
     97800   0.25820183    -5.2460113      0             -5.0607795      0.029486633  
     97850   0.2697556     -5.2522665      0             -5.0587462     -0.027428922  
     97900   0.26007288    -5.211463       0             -5.024889      -0.02140523   
     97950   0.2583425     -5.2103392      0             -5.0250065      0.03039526   
     98000   0.2257752     -5.1965143      0             -5.0345452      0.028656747  
     98050   0.20657966    -5.1809308      0             -5.0327323      0.051535543  
     98100   0.22497949    -5.2049296      0             -5.0435313     -0.060737313  
     98150   0.24439133    -5.2159927      0             -5.0406684      0.0045704568 
     98200   0.2683986     -5.2159382      0             -5.0233914     -0.046698615  
     98250   0.25157484    -5.2006022      0             -5.0201246      0.089997377  
     98300   0.20500703    -5.2039031      0             -5.0568328     -0.10393785   
     98350   0.21145336    -5.2124332      0             -5.0607384     -0.077893344  
     98400   0.20632304    -5.214671       0             -5.0666567      0.025310064  
     98450   0.21485477    -5.2143487      0             -5.0602138     -0.040266964  
     98500   0.2222394     -5.2132578      0             -5.0538252     -0.12652597   
     98550   0.21631198    -5.2090679      0             -5.0538876     -0.027216819  
     98600   0.19988677    -5.215453       0             -5.072056      -0.036342524  
     98650   0.1795244     -5.2564721      0             -5.1276829     -0.016355383  
     98700   0.18990845    -5.2576325      0             -5.1213938      0.016485964  
     98750   0.1984904     -5.2560994      0             -5.1137042      0.011192033  
     98800   0.20553427    -5.2131103      0             -5.0656618     -0.030091548  
     98850   0.21011002    -5.2565185      0             -5.1057874     -0.035890078  
     98900   0.19743756    -5.3004118      0             -5.1587718     -0.0071146619 
     98950   0.22693971    -5.2552484      0             -5.0924439      0.011667223  
     99000   0.24790026    -5.2599362      0             -5.0820947     -0.093481436  
     99050   0.25242765    -5.258462       0             -5.0773727      0.052647357  
     99100   0.24056111    -5.2558229      0             -5.0832465     -0.0027912799 
     99150   0.2471222     -5.2149055      0             -5.0376222      0.025551587  
     99200   0.2688874     -5.2154813      0             -5.0225838     -0.057626921  
     99250   0.27346239    -5.215213       0             -5.0190334      0.031973531  
     99300   0.25364765    -5.2144586      0             -5.032494       0.063269825  
     99350   0.23841423    -5.2155068      0             -5.0444705     -0.018027442  
     99400   0.23012523    -5.2162117      0             -5.0511219     -0.026158498  
     99450   0.24975843    -5.2142693      0             -5.0350947     -0.0085066101 
     99500   0.25976166    -5.2153175      0             -5.0289667     -0.036364656  
     99550   0.2262668     -5.2146559      0             -5.052334      -0.03459939   
     99600   0.21573746    -5.2133456      0             -5.0585775      0.063512092  
     99650   0.21289935    -5.2122462      0             -5.0595141     -0.016233847  
     99700   0.20984115    -5.2165864      0             -5.0660482     -0.03497472   
     99750   0.20144614    -5.2158592      0             -5.0713435      0.039649255  
     99800   0.17864832    -5.2158593      0             -5.0876985     -0.035590319  
     99850   0.18130651    -5.2146692      0             -5.0846015     -0.0093170503 
     99900   0.16536315    -5.240162       0             -5.1215319      0.025476127  
     99950   0.17237228    -5.2432855      0             -5.1196271     -0.046261895  
    100000   0.20195248    -5.2118261      0             -5.0669471     -0.032372839  
    100001   0.1996366     -5.2113509      0             -5.0681333      0.0037385311 
Loop time of 1.58041 on 1 procs for 100000 steps with 23 atoms

Performance: 27334644.384 tau/day, 63274.640 timesteps/s, 1.455 Matom-step/s
69.2% CPU use with 1 MPI tasks x 1 OpenMP threads

MPI task timing breakdown:
Section |  min time  |  avg time  |  max time  |%varavg| %total
---------------------------------------------------------------
Pair    | 0.16046    | 0.16046    | 0.16046    |   0.0 | 10.15
Bond    | 0.00999    | 0.00999    | 0.00999    |   0.0 |  0.63
Neigh   | 0.063079   | 0.063079   | 0.063079   |   0.0 |  3.99
Comm    | 0.049878   | 0.049878   | 0.049878   |   0.0 |  3.16
Output  | 0.63573    | 0.63573    | 0.63573    |   0.0 | 40.23
Modify  | 0.53112    | 0.53112    | 0.53112    |   0.0 | 33.61
Other   |            | 0.1302     |            |       |  8.24

Nlocal:             23 ave          23 max          23 min
Histogram: 1 0 0 0 0 0 0 0 0 0
Nghost:             99 ave          99 max          99 min
Histogram: 1 0 0 0 0 0 0 0 0 0
Neighs:              0 ave           0 max           0 min
Histogram: 1 0 0 0 0 0 0 0 0 0

Total # of neighbors = 0
Ave neighs/atom = 0
Ave special neighs/atom = 2.4347826
Neighbor list builds = 3696
Dangerous builds = 0
Total wall time: 0:00:01
