LAMMPS (2 Aug 2023 - Update 3)
OMP_NUM_THREADS environment is not set. Defaulting to 1 thread. (src/comm.cpp:98)
  using 1 OpenMP thread(s) per MPI task
Loaded 1 plugins from F:\LAMMPS\LAMMPS 64-bit 2Aug2023\plugins
# Script to create a Polymer using Patchy Particles (PP)
# Types of Particles:
#   Cross linker:   PPA
#   Monomer:        PPB

# Initialization
units lj
dimension 3
boundary p p p

# Types of atoms and that stuff
atom_style full
bond_style zero nocoeff
pair_style hybrid lj/cut 2.5 sw threebody off zero 2.5

# Get data for box and particles
read_data data.patchyP1.lmp group CL1
Reading data file ...
  orthogonal box = (-5 -5 -5) to (5 5 5)
  1 by 1 by 1 MPI processor grid
WARNING: Atom style in data file atom-ID molecule-ID atom-type q x y z differs from currently defined atom style full (src/read_data.cpp:621)
  reading atoms ...
  5 atoms
  scanning bonds ...
  4 = max bonds/atom
WARNING: Bond style ID parameters in data file differs from currently defined bond style zero (src/read_data.cpp:724)
  reading bonds ...
  4 bonds
Finding 1-2 1-3 1-4 neighbors ...
  special bond factors lj:    0        0        0       
  special bond factors coul:  0        0        0       
     4 = max # of 1-2 neighbors
     3 = max # of 1-3 neighbors
     3 = max # of 1-4 neighbors
     4 = max # of special neighbors
  special bonds CPU = 0.003 seconds
  read_data CPU = 0.012 seconds
read_data data.patchyP2.lmp add append group Mo1
Reading data file ...
  orthogonal box = (-5 -5 -5) to (5 5 5)
  1 by 1 by 1 MPI processor grid
WARNING: Atom style in data file atom-ID molecule-ID atom-type q x y z differs from currently defined atom style full (src/read_data.cpp:621)
  reading atoms ...
  3 atoms
  scanning bonds ...
  2 = max bonds/atom
WARNING: Bond style ID parameters in data file differs from currently defined bond style zero (src/read_data.cpp:724)
  reading bonds ...
  2 bonds
Finding 1-2 1-3 1-4 neighbors ...
  special bond factors lj:    0        0        0       
  special bond factors coul:  0        0        0       
     4 = max # of 1-2 neighbors
     3 = max # of 1-3 neighbors
     3 = max # of 1-4 neighbors
     4 = max # of special neighbors
  special bonds CPU = 0.000 seconds
  read_data CPU = 0.003 seconds

displace_atoms Mo1 move 0.0 0.0 3.0 units box
Displacing atoms ...

# Set the patchy particle interaction
fix CLfix CL1 rigid single
  1 rigid bodies with 5 atoms
fix Mofix Mo1 rigid single
  1 rigid bodies with 3 atoms

pair_coeff 3 4 sw Patchy.ws NULL NULL PA PB # i-type j-type pair-style
  disabling sw potential three-body terms
pair_coeff 4 4 sw Patchy.ws NULL NULL PB PB # i-type j-type pair-style
pair_coeff 1 1 zero 2.24
pair_coeff 2 2 zero 2.24
pair_coeff 1 2 lj/cut 1.0 1.0 1.12 # i-type j-type pair-style eps sigma cutoff
pair_coeff 3 3 zero 2.24
pair_coeff 1 3 zero 1.68
pair_coeff 1 4 zero 1.68
pair_coeff 2 3 zero 1.68
pair_coeff 2 4 zero 1.68
#pair_coeff 3 4 sw 3 Patchy.ws PA PB # i-type j-type pair-style
#pair_coeff 4 4 sw 3 Patchy.ws PB PB # i-type j-type eps sigma cutoff wca
#pair_coeff 1 2 sw Patchy.ws CL MO NULL NULL# i-type j-type pair-style


# Neighbor list
neighbor 0.3 bin # extra-distance style
#neigh_modify delay 5

minimize 1.0e-4 1.0e-6 1000 10000 # etol ftol maxiter maxeval
WARNING: Using a manybody potential with bonds/angles/dihedrals and special_bond exclusions (src/pair.cpp:242)
WARNING: More than one fix rigid (src/RIGID/fix_rigid.cpp:709)
WARNING: More than one fix rigid (src/RIGID/fix_rigid.cpp:709)
Neighbor list info ...
  update: every = 1 steps, delay = 0 steps, check = yes
  max neighbors/atom: 2000, page size: 100000
  master list distance cutoff = 2.54
  ghost atom cutoff = 2.54
  binsize = 1.27, bins = 8 8 8
  5 neighbor lists, perpetual/occasional/extra = 5 0 0
  (1) pair lj/cut, perpetual, skip from (4)
      attributes: half, newton on, cut 1.4200000000000002
      pair build: skip
      stencil: none
      bin: none
  (2) pair sw, perpetual, skip from (5)
      attributes: half, newton on
      pair build: skip
      stencil: none
      bin: none
  (3) pair zero, perpetual, skip from (5)
      attributes: half, newton on
      pair build: skip
      stencil: none
      bin: none
  (4) neighbor class addition, perpetual, trim from (5)
      attributes: half, newton on, cut 1.4200000000000002
      pair build: trim
      stencil: none
      bin: none
  (5) neighbor class addition, perpetual
      attributes: half, newton on
      pair build: half/bin/newton
      stencil: half/bin/3d
      bin: standard
Per MPI rank memory allocation (min/avg/max) = 12.84 | 12.84 | 12.84 Mbytes
   Step          Temp          E_pair         E_mol          TotEng         Press     
         0   0              0              0              0              0            
         1   0              0              0              0              0            
Loop time of 5.3e-05 on 1 procs for 1 steps with 8 atoms

0.0% CPU use with 1 MPI tasks x 1 OpenMP threads

Minimization stats:
  Stopping criterion = search direction is not downhill
  Energy initial, next-to-last, final = 
                     0                  0                  0
  Force two-norm initial, final = 0 0
  Force max component initial, final = 0 0
  Final line search alpha, max atom move = 0 0
  Iterations, force evaluations = 1 0

MPI task timing breakdown:
Section |  min time  |  avg time  |  max time  |%varavg| %total
---------------------------------------------------------------
Pair    | 1e-06      | 1e-06      | 1e-06      |   0.0 |  1.89
Bond    | 1e-06      | 1e-06      | 1e-06      |   0.0 |  1.89
Neigh   | 0          | 0          | 0          |   0.0 |  0.00
Comm    | 1e-06      | 1e-06      | 1e-06      |   0.0 |  1.89
Output  | 0          | 0          | 0          |   0.0 |  0.00
Modify  | 0          | 0          | 0          |   0.0 |  0.00
Other   |            | 5e-05      |            |       | 94.34

Nlocal:              8 ave           8 max           8 min
Histogram: 1 0 0 0 0 0 0 0 0 0
Nghost:              3 ave           3 max           3 min
Histogram: 1 0 0 0 0 0 0 0 0 0
Neighs:              0 ave           0 max           0 min
Histogram: 1 0 0 0 0 0 0 0 0 0

Total # of neighbors = 0
Ave neighs/atom = 0
Ave special neighs/atom = 3.25
Neighbor list builds = 0
Dangerous builds = 0

fix 1 all langevin 1.0 1.0 50.0 12345
fix 2 all nve

thermo 50
compute t all temp
compute ep all pe
compute ek all ke
compute tm all momentum

dump 1 all atom 50 dump.patchy_pairs1_ng

timestep 0.005
run 100000
WARNING: Using a manybody potential with bonds/angles/dihedrals and special_bond exclusions (src/pair.cpp:242)
WARNING: More than one fix rigid (src/RIGID/fix_rigid.cpp:709)
WARNING: More than one fix rigid (src/RIGID/fix_rigid.cpp:709)
WARNING: One or more atoms are time integrated more than once (src/modify.cpp:289)
Per MPI rank memory allocation (min/avg/max) = 11.72 | 11.72 | 11.72 Mbytes
   Step          Temp          E_pair         E_mol          TotEng         Press     
         1   0              0              0              0              0            
        50   0.014322986    0              0              0.007161493   -0.0029524055 
       100   0.03646068     0              0              0.01823034    -0.017250368  
       150   0.045221298    0              0              0.022610649    0.015494569  
       200   0.047687793    0              0              0.023843896   -0.00074151367
       250   0.069346541    0              0              0.034673271   -0.0018671329 
       300   0.085007449    0              0              0.042503725   -0.0034043379 
       350   0.10342464     0              0              0.051712318   -0.013695424  
       400   0.099802124    0              0              0.049901062   -0.00082704834
       450   0.13759743     0              0              0.068798717    0.0040108891 
       500   0.1186818      0              0              0.059340899   -0.0083182546 
       550   0.15464177     0              0              0.077320886   -0.0058056055 
       600   0.17563339     0              0              0.087816695   -0.011355132  
       650   0.17982391     0              0              0.089911955    0.0065314939 
       700   0.2409854      0              0              0.1204927     -0.0046501363 
       750   0.24882918     0              0              0.12441459    -0.0029410137 
       800   0.26622443     0              0              0.13311221     0.007270663  
       850   0.29959763     0              0              0.14979882     0.0118483    
       900   0.2768158      0              0              0.1384079      0.0052929586 
       950   0.28778953     0              0              0.14389476     0.016996752  
      1000   0.3175879      0              0              0.15879395     0.0093953171 
      1050   0.31009571     0              0              0.15504786    -0.0065599953 
      1100   0.32816665     0              0              0.16408332     0.0019324515 
      1150   0.30504835     0              0              0.15252418     0.0013039841 
      1200   0.32680005     0              0              0.16340003    -0.0042852786 
      1250   0.24636798     0              0              0.12318399    -0.010592649  
      1300   0.33079822     0              0              0.16539911    -0.0023274541 
      1350   0.28614383     0              0              0.14307191    -0.012000704  
      1400   0.25155152     0              0              0.12577576    -0.011868819  
      1450   0.28392801     0              0              0.141964       0.0038043661 
      1500   0.26453077     0              0              0.13226538     0.012603391  
      1550   0.3117932      0              0              0.1558966      0.003951076  
      1600   0.33953137     0              0              0.16976569    -0.0024924597 
      1650   0.38483011     0              0              0.19241505    -0.0082688557 
      1700   0.50356777     0              0              0.25178388     0.0071822575 
      1750   0.52567667     0              0              0.26283834     0.014816485  
      1800   0.52995797     0              0              0.26497898     0.0010325966 
      1850   0.56113066     0              0              0.28056533    -7.4499023e-05
      1900   0.5237141      0              0              0.26185705     0.013280041  
      1950   0.61100345     0              0              0.30550172     0.017227971  
      2000   0.6940841      0              0              0.34704205     0.019054242  
      2050   0.56959895     0              0              0.28479948     0.0037047208 
      2100   0.61829868     0              0              0.30914934    -0.0087606731 
      2150   0.64626323     0              0              0.32313161    -0.012588002  
      2200   0.60095488     0              0              0.30047744    -0.0069005172 
      2250   0.63166127     0              0              0.31583063    -0.020838791  
      2300   0.69875861     0              0              0.34937931    -0.0069843755 
      2350   0.67234675     0              0              0.33617338     0.013211359  
      2400   0.60416924     0              0              0.30208462     0.020550503  
      2450   0.50642163     0              0              0.25321082    -0.0075708353 
      2500   0.47281353     0              0              0.23640676    -0.002454528  
      2550   0.51692626     0              0              0.25846313    -0.0036182821 
      2600   0.5073904      0              0              0.2536952      0.0086728176 
      2650   0.53602861     0              0              0.26801431     0.0093572116 
      2700   0.56838033     0              0              0.28419017     0.016860633  
      2750   0.51992781     0              0              0.25996391    -0.0076106033 
      2800   0.49322712     0              0              0.24661356    -0.0087221656 
      2850   0.46342815     0              0              0.23171408     0.0096061974 
      2900   0.41312693     0              0              0.20656347     0.021055966  
      2950   0.55821457     0              0              0.27910728     0.019002382  
      3000   0.55401342     0              0              0.27700671     0.012863191  
      3050   0.62269626     0              0              0.31134813     0.0099437321 
      3100   0.67601608     0              0              0.33800804    -0.016254442  
      3150   0.68607836     0              0              0.34303918    -0.018310741  
      3200   0.70148647     0              0              0.35074323    -0.012342584  
      3250   0.64853908     0              0              0.32426954     0.00088817335
      3300   0.6428256      0              0              0.3214128      0.0026551773 
      3350   0.633618       0              0              0.316809       0.02644748   
      3400   0.56949476     0              0              0.28474738    -0.0024755345 
      3450   0.59486219     0              0              0.2974311     -0.0118068    
      3500   0.70283125     0              0              0.35141562    -0.02049748   
      3550   0.64318739     0              0              0.32159369    -0.002773787  
      3600   0.73100259     0              0              0.3655013     -0.01113638   
      3650   0.69499284     0              0              0.34749642     0.0096402859 
      3700   0.74939789     0              0              0.37469895     0.0093520079 
      3750   0.81580132     0              0              0.40790066    -0.0013459373 
      3800   0.78623227     0              0              0.39311614    -0.017235577  
      3850   0.80657159     0              0              0.4032858     -0.005397364  
      3900   0.81578492     0              0              0.40789246    -0.012724454  
      3950   0.8546015      0              0              0.42730075     0.0019385475 
      4000   0.84812703     0              0              0.42406351     0.0045355286 
      4050   0.84689749     0              0              0.42344875     0.020459618  
      4100   0.86367389     0              0              0.43183695     0.0089724802 
      4150   0.77209927     0              0              0.38604963     0.011248699  
      4200   0.79709197     0              0              0.39854599     0.017727502  
      4250   0.669606       0              0              0.334803      -0.0026493822 
      4300   0.63329662     0              0              0.31664831     0.00088884292
      4350   0.4982057      0              0              0.24910285    -0.011904744  
      4400   0.57464051     0              0              0.28732025     0.004125128  
      4450   0.62131095     0              0              0.31065548     0.0079247943 
      4500   0.60492292     0              0              0.30246146     0.013069773  
      4550   0.67628024     0              0              0.33814012     0.016090175  
      4600   0.70666991     0              0              0.35333495     0.0088727677 
      4650   0.70457795     0              0              0.35228898     0.0014242908 
      4700   0.72479379     0              0              0.36239689    -0.0028362672 
      4750   0.55246266     0              0              0.27623133     0.0044210252 
      4800   0.61283458     0              0              0.30641729     0.0012580157 
      4850   0.64537737     0              0              0.32268869     0.01312953   
      4900   0.67085356     0              0              0.33542678     0.0039161494 
      4950   0.81138359     0              0              0.40569179    -0.0045454754 
      5000   0.75421057     0              0              0.37710528    -0.0010418154 
      5050   0.66252842     0              0              0.33126421    -0.00060243634
      5100   0.68183481     0              0              0.3409174      0.0055438029 
      5150   0.62551447     0              0              0.31275723     0.011807518  
      5200   0.67299581     0              0              0.3364979      0.014631586  
      5250   0.62961941     0              0              0.31480971    -0.012317554  
      5300   0.66881273     0              0              0.33440637    -0.0036384096 
      5350   0.67681279     0              0              0.3384064     -0.00080482523
      5400   0.67981892     0              0              0.33990946    -0.012060696  
      5450   0.7221877      0              0              0.36109385     0.0055882581 
      5500   0.75783607     0              0              0.37891803    -0.012256839  
      5550   0.75934665     0              0              0.37967333     0.01711475   
      5600   0.77978933     0              0              0.38989466     0.0061212988 
      5650   0.83631161     0              0              0.41815581     0.00089618745
      5700   0.78652318     0              0              0.39326159    -0.0087082359 
      5750   0.83739463     0              0              0.41869731     0.00066535871
      5800   0.91085926     0              0              0.45542963    -0.014383756  
      5850   0.82723087     0              0              0.41361543    -0.0070416409 
      5900   0.85208141     0              0              0.4260407     -0.040444739  
      5950   0.74810711     0              0              0.37405356     0.0097047859 
      6000   0.79589613     0              0              0.39794806     0.0097500424 
      6050   0.83537778     0              0              0.41768889    -0.0083070366 
      6100   0.80829852     0              0              0.40414926    -0.013777173  
      6150   0.72329571     0              0              0.36164785     0.0012225506 
      6200   0.72219906     0              0              0.36109953    -5.2529622e-05
      6250   0.79073323     0              0              0.39536662     0.0062194257 
      6300   0.74938256     0              0              0.37469128     0.0077307577 
      6350   0.81197029     0              0              0.40598515    -0.00018925562
      6400   0.84432918     0              0              0.42216459     0.022241335  
      6450   0.82875013     0              0              0.41437507    -0.017344684  
      6500   0.90260044     0              0              0.45130022     0.015129209  
      6550   0.9084881      0              0              0.45424405     0.023918638  
      6600   0.85601442     0              0              0.42800721    -0.028507922  
      6650   0.91628032     0              0              0.45814016     0.016925556  
      6700   0.92343961     0              0              0.46171981     0.027730457  
      6750   0.87616635     0              0              0.43808318     0.025105924  
      6800   0.86036921     0              0              0.43018461    -0.0030902674 
      6850   0.8596871      0              0              0.42984355     0.00060726964
      6900   0.92111962     0              0              0.46055981    -0.0041186478 
      6950   0.84727526     0              0              0.42363763    -0.0052158852 
      7000   0.95428709     0              0              0.47714355    -0.0018745472 
      7050   0.99512781     0              0              0.4975639     -0.015509     
      7100   0.93609105     0              0              0.46804553    -0.032941497  
      7150   0.97673136     0              0              0.48836568     0.0035772047 
      7200   1.0836178      0              0              0.5418089     -0.047595227  
      7250   1.198669       0              0              0.59933449     0.011196895  
      7300   1.0827875      0              0              0.54139373     0.024662751  
      7350   1.0541412      0              0              0.5270706     -0.0025538912 
      7400   0.96226329     0              0              0.48113164    -0.018641263  
      7450   1.1089272      0              0              0.55446361    -0.0050686579 
      7500   1.0783534      0              0              0.5391767      0.0080872836 
      7550   0.96884605     0              0              0.48442303    -0.011755527  
      7600   1.0157905      0              0              0.50789524     0.027913327  
      7650   1.1703733      0              0              0.58518665    -0.00024696829
      7700   1.1765013      0              0              0.58825064     0.03620156   
      7750   1.2036665      0              0              0.60183323     0.016716563  
      7800   1.090689       0              0              0.54534451    -0.016142084  
      7850   1.0681883      0              0              0.53409415    -0.018205936  
      7900   1.0688188      0              0              0.53440938    -0.013691721  
      7950   1.0270495      0              0              0.51352475    -0.014622664  
      8000   0.9597673      0              0              0.47988365     0.02957044   
      8050   1.0198096      0              0              0.50990478    -0.0087720112 
      8100   1.0794999      0              0              0.53974997    -0.0075329558 
      8150   1.1239418      0              0              0.56197092     0.0026381623 
      8200   1.173611       0              0              0.58680551     0.029732326  
      8250   1.2329593      0              0              0.61647965     0.0088056032 
      8300   1.1971571      0              0              0.59857855     0.013305713  
      8350   1.220421       0              0              0.61021051     0.044257504  
      8400   1.2961786      0              0              0.64808931    -0.013716046  
      8450   1.338546       0              0              0.66927298     0.0079874732 
      8500   1.2723693      0              0              0.63618466     0.0080303568 
      8550   1.2618925      0              0              0.63094623     0.017364948  
      8600   1.2818062      0              0              0.64090311     0.024290779  
      8650   1.3126206      0              0              0.6563103     -0.024791185  
      8700   1.254324       0              0              0.62716199     0.003641338  
      8750   1.2496105      0              0              0.62480527     0.0099872194 
      8800   1.232104       0              0              0.616052      -0.0012841195 
      8850   1.1225624      0              0              0.56128121    -0.0004461919 
      8900   1.0965386      0              0              0.54826928     0.0023862373 
      8950   0.98200012     0              0              0.49100006     0.0068542012 
      9000   0.99400297     0              0              0.49700148    -0.035371455  
      9050   0.79805275     0              0              0.39902637     0.0081704843 
      9100   0.64600527     0              0              0.32300264    -0.0096049929 
      9150   0.61367784     0              0              0.30683892    -0.007060506  
      9200   0.62197058     0              0              0.31098529    -0.0073590763 
      9250   0.60426958     0              0              0.30213479    -0.024696199  
      9300   0.74341751     0              0              0.37170876     0.0022323833 
      9350   0.81429757     0              0              0.40714878     0.034058751  
      9400   0.87211755     0              0              0.43605877    -0.00054987019
      9450   0.77290275     0              0              0.38645138     0.010613398  
      9500   0.78655629     0              0              0.39327814    -0.024807024  
      9550   0.78157066     0              0              0.39078533     0.0015333376 
      9600   0.78632935     0              0              0.39316467     0.0067874162 
      9650   0.85094419     0              0              0.42547209    -0.0030145222 
      9700   0.96367618     0              0              0.48183809    -0.0052617063 
      9750   0.98674755     0              0              0.49337377     0.028470789  
      9800   0.8965269      0              0              0.44826345     0.0098361571 
      9850   0.87517431     0              0              0.43758715    -0.02685369   
      9900   0.86588434     0              0              0.43294217    -0.021077862  
      9950   0.82605659     0              0              0.41302829     0.0054788089 
     10000   0.9074439      0              0              0.45372195    -0.0064264901 
     10050   0.85352606     0              0              0.42676303    -0.0047080626 
     10100   0.92910113     0              0              0.46455056    -0.016189985  
     10150   0.79470689     0              0              0.39735345    -0.024092697  
     10200   0.77776903     0              0              0.38888451    -0.034474526  
     10250   0.76289955     0              0              0.38144977    -0.010693194  
     10300   0.7969991      0              0              0.39849955     0.0061329469 
     10350   0.81570833     0              0              0.40785417    -0.015746801  
     10400   0.6811609      0              0              0.34058045    -0.0042580924 
     10450   0.74175286     0              0              0.37087643     0.026127406  
     10500   0.65998038     0              0              0.32999019    -0.034819714  
     10550   0.72275958     0              0              0.36137979     0.0039881815 
     10600   0.74932941     0              0              0.3746647     -0.0090861205 
     10650   0.64713795     0              0              0.32356898    -0.0094983752 
     10700   0.64110866     0              0              0.32055433    -0.022387634  
     10750   0.59526549     0              0              0.29763275    -0.017697609  
     10800   0.58268062     0              0              0.29134031     0.0211813    
     10850   0.61870015     0              0              0.30935007     0.010511378  
     10900   0.63396954     0              0              0.31698477     0.0030403865 
     10950   0.60181347     0              0              0.30090674    -0.0062801134 
     11000   0.50951896     0              0              0.25475948     0.018670638  
     11050   0.48490418     0              0              0.24245209    -0.010565734  
     11100   0.52393733     0              0              0.26196867     0.02067321   
     11150   0.46896689     0              0              0.23448345    -0.031449246  
     11200   0.49014725     0              0              0.24507362     0.0042884222 
     11250   0.56350329     0              0              0.28175164     0.0041802079 
     11300   0.54414909     0              0              0.27207455     0.022109081  
     11350   0.51370094     0              0              0.25685047     0.0063189193 
     11400   0.52866966     0              0              0.26433483    -0.024098322  
     11450   0.55053928     0              0              0.27526964     0.0027001749 
     11500   0.58443762     0              0              0.29221881     0.010842513  
     11550   0.62807047     0              0              0.31403523     0.027961929  
     11600   0.66442883     0              0              0.33221442     0.0026430366 
     11650   0.66630112     0              0              0.33315056    -0.0055804914 
     11700   0.73251301     0              0              0.3662565      0.0215727    
     11750   0.70864367     0              0              0.35432183     0.0014701105 
     11800   0.69851746     0              0              0.34925873     0.022350678  
     11850   0.75686727     0              0              0.37843363     0.0042330338 
     11900   0.80366492     0              0              0.40183246     0.0023887964 
     11950   0.85228388     0              0              0.42614194     0.0067490434 
     12000   0.69968411     0              0              0.34984205     0.0030633097 
     12050   0.68415469     0              0              0.34207734    -0.012118381  
     12100   0.6391873      0              0              0.31959365     0.0081563263 
     12150   0.61175298     0              0              0.30587649    -0.00056321747
     12200   0.66696793     0              0              0.33348396    -0.0071501496 
     12250   0.61815073     0              0              0.30907536     0.0094812738 
     12300   0.72498517     0              0              0.36249259     0.00076458708
     12350   0.73701011     0              0              0.36850505     0.0002949647 
     12400   0.66514305     0              0              0.33257152    -0.010002972  
     12450   0.66622189     0              0              0.33311095     0.0064455148 
     12500   0.60351107     0              0              0.30175554     0.0032108413 
     12550   0.56068269     0              0              0.28034134    -0.018594888  
     12600   0.54604996     0              0              0.27302498     0.015647169  
     12650   0.50430929     0              0              0.25215465    -0.026488854  
     12700   0.54901053     0              0              0.27450526     0.016222875  
     12750   0.61003151     0              0              0.30501576     0.0033607916 
     12800   0.67272315     0              0              0.33636157     0.0068559937 
     12850   0.75967364     0              0              0.37983682    -0.013167916  
     12900   0.75189338     0              0              0.37594669    -0.0060749941 
     12950   0.83017438     0              0              0.41508719    -0.028623987  
     13000   0.81701647     0              0              0.40850823     0.010970896  
     13050   0.75194543     0              0              0.37597271    -0.01180049   
     13100   0.79521121     0              0              0.3976056      0.022788641  
     13150   0.7979448      0              0              0.3989724      0.0007905801 
     13200   0.75808556     0              0              0.37904278    -0.0118332    
     13250   0.8021306      0              0              0.4010653      0.023362703  
     13300   0.7465204      0              0              0.3732602      0.0324994    
     13350   0.6982192      0              0              0.3491096      0.013214998  
     13400   0.76901441     0              0              0.3845072      0.0029434019 
     13450   0.7573557      0              0              0.37867785    -0.023641262  
     13500   0.67609212     0              0              0.33804606    -0.029356244  
     13550   0.68347265     0              0              0.34173633    -0.000179038  
     13600   0.77372584     0              0              0.38686292     0.0062240835 
     13650   0.75463931     0              0              0.37731965    -0.0079911701 
     13700   0.72621155     0              0              0.36310577    -0.0038350739 
     13750   0.75704749     0              0              0.37852374     0.020699864  
     13800   0.83835246     0              0              0.41917623     0.007341196  
     13850   0.86144609     0              0              0.43072304    -0.00036141306
     13900   0.88831639     0              0              0.4441582      0.011707146  
     13950   0.81858279     0              0              0.4092914      0.023677487  
     14000   0.80871096     0              0              0.40435548    -0.0073636337 
     14050   0.79889337     0              0              0.39944668    -0.0022742461 
     14100   0.80817104     0              0              0.40408552    -0.0093700091 
     14150   0.81513313     0              0              0.40756656     0.026217407  
     14200   0.87197091     0              0              0.43598545     0.03260835   
     14250   0.92037489     0              0              0.46018745     0.0083019697 
     14300   1.0131685      0              0              0.50658426     0.014559695  
     14350   1.1062368      0              0              0.55311842     0.030128997  
     14400   1.1529463      0              0              0.57647314     0.0039617329 
     14450   1.1228929      0              0              0.56144647    -0.005609755  
     14500   1.082433       0              0              0.54121651    -0.0016803733 
     14550   1.0143628      0              0              0.50718139    -0.0019184482 
     14600   1.0185989      0              0              0.50929945     0.0025058523 
     14650   1.0151912      0              0              0.50759562     0.015283079  
     14700   1.0978196      0              0              0.54890979    -0.0024687894 
     14750   1.1173865      0              0              0.55869326     0.0023189821 
     14800   1.1459181      0              0              0.57295903     0.007053398  
     14850   1.2762336      0              0              0.63811678    -0.0034487091 
     14900   1.2276066      0              0              0.61380329    -0.030608628  
     14950   1.2302733      0              0              0.61513664    -0.0096769088 
     15000   1.2438135      0              0              0.62190676    -0.002835115  
     15050   1.2414023      0              0              0.62070117     0.013994684  
     15100   1.2820025      0              0              0.64100124     0.0092973084 
     15150   1.3406706      0              0              0.67033529    -0.0061057592 
     15200   1.3191404      0              0              0.65957019     0.0039121037 
     15250   1.2172259      0              0              0.60861296     0.011220014  
     15300   1.306441       0              0              0.65322048     0.0065311218 
     15350   1.406612       0              0              0.703306      -0.0016120871 
     15400   1.3227789      0              0              0.66138945     0.022807847  
     15450   1.3326386      0              0              0.6663193      0.0012391381 
     15500   1.3684015      0              0              0.68420074     0.012326559  
     15550   1.3213332      0              0              0.6606666      0.017543224  
     15600   1.3402281      0              0              0.67011405     0.0028207056 
     15650   1.4040697      0              0              0.70203485     0.0017846659 
     15700   1.5433451      0              0              0.77167253    -0.0092096802 
     15750   1.3211865      0              0              0.66059323    -0.0058496057 
     15800   1.300422       0              0              0.65021099     0.00013768041
     15850   1.3966174      0              0              0.6983087      0.006866814  
     15900   1.3459617      0              0              0.67298086    -0.030052325  
     15950   1.2240382      0              0              0.61201908    -0.010344274  
     16000   1.4660137      0              0              0.73300685     0.018653518  
     16050   1.3986235      0              0              0.69931174    -0.016029804  
     16100   1.3787347      0              0              0.68936735    -0.023365362  
     16150   1.3067583      0              0              0.65337916     0.010047976  
     16200   1.1562916      0              0              0.5781458     -0.0024828883 
     16250   1.252812       0              0              0.626406      -0.0021822095 
     16300   1.2354979      0              0              0.61774895    -0.017509535  
     16350   1.1203212      0              0              0.56016062    -0.0014348829 
     16400   1.1737242      0              0              0.5868621      0.027451373  
     16450   1.2184849      0              0              0.60924247     0.005496622  
     16500   1.3139955      0              0              0.65699777     0.010562681  
     16550   1.3123385      0              0              0.65616923     0.00029090696
     16600   1.248953       0              0              0.62447648     0.016907553  
     16650   1.186388       0              0              0.59319399     0.0058173597 
     16700   1.1894458      0              0              0.5947229     -0.018987333  
     16750   1.1097559      0              0              0.55487794     0.0038698828 
     16800   1.0308349      0              0              0.51541744     0.017231851  
     16850   1.0608752      0              0              0.53043758     0.003360704  
     16900   1.1105882      0              0              0.55529411     0.00041502021
     16950   1.0751512      0              0              0.53757562    -0.0047162969 
     17000   1.088038       0              0              0.54401899    -0.011389525  
     17050   1.0007768      0              0              0.50038842    -0.0044652827 
     17100   0.85678343     0              0              0.42839172     0.0048890646 
     17150   0.82817875     0              0              0.41408937     0.011654384  
     17200   0.77399052     0              0              0.38699526     0.012963479  
     17250   0.7812261      0              0              0.39061305    -0.0023090117 
     17300   0.80654338     0              0              0.40327169     0.016587991  
     17350   0.86528206     0              0              0.43264103    -0.007987271  
     17400   0.93451754     0              0              0.46725877    -0.0064654461 
     17450   0.95027883     0              0              0.47513941    -0.016140934  
     17500   0.86720141     0              0              0.4336007     -0.00030330881
     17550   0.93161505     0              0              0.46580752     0.01794958   
     17600   0.89645367     0              0              0.44822683    -0.015375924  
     17650   0.92983623     0              0              0.46491811     0.0056326542 
     17700   1.017099       0              0              0.50854949     0.010492286  
     17750   1.026995       0              0              0.51349752     0.020922968  
     17800   1.0389027      0              0              0.51945134     0.022743721  
     17850   1.0975978      0              0              0.54879889    -0.0097199348 
     17900   1.0738895      0              0              0.53694474    -0.001039308  
     17950   1.0018548      0              0              0.50092739    -0.0067106362 
     18000   1.0901578      0              0              0.5450789     -0.01118614   
     18050   1.1168502      0              0              0.5584251      0.0085485409 
     18100   1.0864139      0              0              0.54320695    -0.0062657902 
     18150   1.107188       0              0              0.55359399     0.0039475371 
     18200   1.1088655      0              0              0.55443273     0.0028681922 
     18250   0.9014395      0              0              0.45071975     0.004454097  
     18300   0.8944663      0              0              0.44723315     0.0013289088 
     18350   0.96114539     0              0              0.48057269    -0.023294173  
     18400   0.90274084     0              0              0.45137042     0.0028692756 
     18450   0.92916094     0              0              0.46458047    -0.0067802842 
     18500   0.85025902     0              0              0.42512951    -0.00052543306
     18550   0.85601332     0              0              0.42800666    -0.0020423652 
     18600   0.83138321     0              0              0.4156916     -0.011414165  
     18650   0.86647236     0              0              0.43323618     0.0081323552 
     18700   0.99469666     0              0              0.49734833     0.0020714409 
     18750   0.94855972     0              0              0.47427986     0.010841143  
     18800   0.80645924     0              0              0.40322962     0.014035149  
     18850   0.78718185     0              0              0.39359092     0.0011344538 
     18900   0.84430859     0              0              0.42215429     0.00059363304
     18950   0.74526566     0              0              0.37263283     0.013195609  
     19000   0.8197038      0              0              0.4098519      0.0054617565 
     19050   0.79412909     0              0              0.39706454     0.0060212854 
     19100   0.80178471     0              0              0.40089235     0.0013243311 
     19150   0.75373141     0              0              0.3768657      0.0082005963 
     19200   0.73241583     0              0              0.36620791    -0.0010346935 
     19250   0.66800295     0              0              0.33400147    -0.0080015707 
     19300   0.74389821     0              0              0.37194911    -0.011349376  
     19350   0.75950015     0              0              0.37975007    -0.017852789  
     19400   0.68302997     0              0              0.34151499    -0.024269657  
     19450   0.73791375     0              0              0.36895688     0.007303     
     19500   0.84554886     0              0              0.42277443     0.023790095  
     19550   0.96743429     0              0              0.48371714     0.0025522692 
     19600   1.0566915      0              0              0.52834575    -0.031609828  
     19650   0.91912389     0              0              0.45956195    -0.023118516  
     19700   0.92490149     0              0              0.46245075     0.039883178  
     19750   0.92530355     0              0              0.46265177    -0.031898516  
     19800   0.95817898     0              0              0.47908949     0.005905275  
     19850   0.94660269     0              0              0.47330135     0.013308193  
     19900   1.046275       0              0              0.5231375     -0.0059073581 
     19950   0.95676167     0              0              0.47838083    -0.016706711  
     20000   0.99938557     0              0              0.49969279    -0.0050484791 
     20050   1.0592647      0              0              0.52963235    -0.0068917569 
     20100   1.1663571      0              0              0.58317856    -0.032041382  
     20150   1.1311297      0              0              0.56556483    -0.00885677   
     20200   1.0882305      0              0              0.54411523     0.0054868825 
     20250   1.1287863      0              0              0.56439313     0.00091274755
     20300   1.1858485      0              0              0.59292424     0.0047366289 
     20350   1.1493406      0              0              0.57467031    -0.016889485  
     20400   1.1329015      0              0              0.56645075     0.0081276178 
     20450   1.1808317      0              0              0.59041586    -0.023643153  
     20500   1.2249575      0              0              0.61247875    -0.027029501  
     20550   1.210548       0              0              0.60527401    -0.0068726533 
     20600   1.3625833      0              0              0.68129163     0.010944684  
     20650   1.5265312      0              0              0.76326562     0.00014272424
     20700   1.5071904      0              0              0.75359521    -0.0047203615 
     20750   1.4718167      0              0              0.73590837    -0.0011039841 
     20800   1.5016452      0              0              0.7508226     -0.011074038  
     20850   1.5285355      0              0              0.76426775    -0.0096433982 
     20900   1.7149266      0              0              0.85746329     0.016786739  
     20950   1.7504225      0              0              0.87521127     0.003912233  
     21000   1.7773266      0              0              0.88866329    -0.0046138643 
     21050   1.7299141      0              0              0.86495703    -0.0062768864 
     21100   1.6442841      0              0              0.82214205     0.015426766  
     21150   1.829007       0              0              0.91450348    -0.0096408263 
     21200   1.7338274      0              0              0.86691368    -0.0017001833 
     21250   1.7602117      0              0              0.88010587     0.014087631  
     21300   1.8215628      0              0              0.91078139     0.0096589602 
     21350   1.8548069      0              0              0.92740346     0.010165266  
     21400   1.6356699      0              0              0.81783493    -0.0084445735 
     21450   1.5528771      0              0              0.77643855    -0.0035314998 
     21500   1.4723782      0              0              0.7361891     -0.01626007   
     21550   1.6017061      0              0              0.80085307     0.0070431854 
     21600   1.6081032      0              0              0.8040516     -0.010251749  
     21650   1.5204189      0              0              0.76020946    -0.026918692  
     21700   1.522041       0              0              0.76102049    -0.0019231564 
     21750   1.4154168      0              0              0.70770839     0.022147259  
     21800   1.3216451      0              0              0.66082253     0.014075889  
     21850   1.2869748      0              0              0.6434874     -0.0046884406 
     21900   1.1689332      0              0              0.58446662     0.012357882  
     21950   1.3551406      0              0              0.67757032     0.00065969697
     22000   1.3174113      0              0              0.65870566    -0.011220713  
     22050   1.266402       0              0              0.633201      -0.012813887  
     22100   1.2211928      0              0              0.61059638     0.028364179  
     22150   1.1963573      0              0              0.59817867    -0.002986425  
     22200   1.3833727      0              0              0.69168637    -0.0089550488 
     22250   1.4266649      0              0              0.71333244    -0.01121586   
     22300   1.4907262      0              0              0.74536308     0.0091621471 
     22350   1.6868467      0              0              0.84342334    -0.018718158  
     22400   1.8657939      0              0              0.93289696    -0.0027432208 
     22450   1.9139665      0              0              0.95698324    -0.0050918159 
     22500   1.9992195      0              0              0.99960977    -0.011632092  
     22550   1.8950561      0              0              0.94752807    -0.031093352  
     22600   1.9693792      0              0              0.98468958     0.019829307  
     22650   1.9894329      0              0              0.99471643     0.022896641  
     22700   1.9838804      0              0              0.99194021    -0.0049887283 
     22750   1.999511       0              0              0.9997555      0.01463025   
     22800   2.0237443      0              0              1.0118722      0.026006909  
     22850   2.0471168      0              0              1.0235584      0.0091900033 
     22900   1.9197813      0              0              0.95989065    -0.0010041374 
     22950   1.8899359      0              0              0.94496793    -0.0081922587 
     23000   1.8915761      0              0              0.94578806     0.0087011392 
     23050   1.8828938      0              0              0.94144689    -0.002789288  
     23100   1.9130434      0              0              0.95652172     0.011334679  
     23150   1.8675576      0              0              0.93377881     0.0085849539 
     23200   1.8359708      0              0              0.91798542     0.020677112  
     23250   1.7955037      0              0              0.89775187     0.021556468  
     23300   1.8992049      0              0              0.94960245    -1.0109231e-05
     23350   1.9611095      0              0              0.98055475     0.0028788442 
     23400   2.0099371      0              0              1.0049685      0.031148643  
     23450   2.0236225      0              0              1.0118113      0.01929696   
     23500   1.9860385      0              0              0.99301925     0.02218408   
     23550   1.9328755      0              0              0.96643777     0.0079821256 
     23600   1.8000929      0              0              0.90004644     0.0020469332 
     23650   1.7979615      0              0              0.89898073    -0.019586561  
     23700   1.8442799      0              0              0.92213995     0.018182534  
     23750   1.8953439      0              0              0.94767193     0.0070836176 
     23800   1.8779009      0              0              0.93895043    -0.030295659  
     23850   2.0516118      0              0              1.0258059      0.022619733  
     23900   1.9994745      0              0              0.99973726    -0.023312809  
     23950   1.9929445      0              0              0.99647225     0.016604769  
     24000   1.7910518      0              0              0.89552589     0.0060359413 
     24050   1.8855777      0              0              0.94278887     0.0058378822 
     24100   1.9877809      0              0              0.99389045     0.00019330773
     24150   1.8172689      0              0              0.90863445     0.025264744  
     24200   1.9971834      0              0              0.99859171    -0.0060490226 
     24250   2.1645668      0              0              1.0822834     -0.011464265  
     24300   2.1843801      0              0              1.09219        0.0032142903 
     24350   2.348664       0              0              1.174332       0.03824703   
     24400   2.3528057      0              0              1.1764029     -0.01413503   
     24450   2.3874529      0              0              1.1937264      0.0049658609 
     24500   2.6487908      0              0              1.3243954      0.010284171  
     24550   2.6162183      0              0              1.3081091      0.000998752  
     24600   2.6401835      0              0              1.3200917     -0.0077291965 
     24650   2.6439972      0              0              1.3219986     -0.0005474139 
     24700   2.5851439      0              0              1.292572       0.0023608264 
     24750   2.5274092      0              0              1.2637046      0.032033853  
     24800   2.6633691      0              0              1.3316845      0.01115194   
     24850   2.9206934      0              0              1.4603467     -0.0043906668 
     24900   2.7932814      0              0              1.3966407     -0.019375007  
     24950   2.7379067      0              0              1.3689533      0.017590927  
     25000   2.8146799      0              0              1.40734        0.012695559  
     25050   2.7635933      0              0              1.3817967     -0.0092813612 
     25100   2.750546       0              0              1.375273      -0.0062741817 
     25150   2.8437397      0              0              1.4218698      0.0070541611 
     25200   2.8838658      0              0              1.4419329     -0.0054986199 
     25250   2.7323193      0              0              1.3661597      0.019863531  
     25300   2.7342543      0              0              1.3671271      0.0095137507 
     25350   2.883582       0              0              1.441791      -0.0021961744 
     25400   2.7545901      0              0              1.3772951     -0.012038298  
     25450   2.6750399      0              0              1.3375199     -0.013249278  
     25500   2.813337       0              0              1.4066685      0.0081708187 
     25550   2.7747147      0              0              1.3873574      0.0034391801 
     25600   2.8885642      0              0              1.4442821      0.010290401  
     25650   2.8809688      0              0              1.4404844      0.019909379  
     25700   2.736821       0              0              1.3684105      0.010292426  
     25750   2.8022462      0              0              1.4011231     -0.0091539716 
     25800   2.7050883      0              0              1.3525442      0.011219008  
     25850   2.7377773      0              0              1.3688887      0.021248114  
     25900   2.5614143      0              0              1.2807071      0.0022998565 
     25950   2.5440666      0              0              1.2720333     -0.0046492996 
     26000   2.4074116      0              0              1.2037058     -0.011853917  
     26050   2.4154589      0              0              1.2077295     -0.005378538  
     26100   2.4727216      0              0              1.2363608      0.0086827944 
     26150   2.523946       0              0              1.261973      -0.0036549032 
     26200   2.515467       0              0              1.2577335      6.4022747e-05
     26250   2.5071707      0              0              1.2535854      0.0046986838 
     26300   2.5416426      0              0              1.2708213     -0.0030945207 
     26350   2.6634014      0              0              1.3317007     -0.001970775  
     26400   2.5540479      0              0              1.2770239      0.02117194   
     26450   2.4164198      0              0              1.2082099      0.0023958898 
     26500   2.4480158      0              0              1.2240079      0.00081026774
     26550   2.5236888      0              0              1.2618444     -0.012744229  
     26600   2.5812195      0              0              1.2906098      0.021463069  
     26650   2.5553831      0              0              1.2776916      0.010592495  
     26700   2.6181192      0              0              1.3090596      0.003410395  
     26750   2.7002638      0              0              1.3501319      0.005265827  
     26800   2.6354433      0              0              1.3177217     -0.0017609207 
     26850   2.7088432      0              0              1.3544216      0.0030520365 
     26900   2.7019353      0              0              1.3509676      0.010905341  
     26950   2.5647533      0              0              1.2823766      0.0017191352 
     27000   2.7142361      0              0              1.357118      -0.0082927973 
     27050   2.7513047      0              0              1.3756524     -0.0043574161 
     27100   2.6776768      0              0              1.3388384     -0.0017322507 
     27150   2.4492469      0              0              1.2246234     -0.011028862  
     27200   2.4450113      0              0              1.2225057      0.019289971  
     27250   2.3400444      0              0              1.1700222     -0.016591782  
     27300   2.3313862      0              0              1.1656931      0.011350891  
     27350   2.2915669      0              0              1.1457835      0.017035932  
     27400   2.3941984      0              0              1.1970992     -0.012214464  
     27450   2.3426364      0              0              1.1713182     -0.001680924  
     27500   2.2689241      0              0              1.1344621      0.0068048688 
     27550   2.1603449      0              0              1.0801724     -0.023406417  
     27600   2.2381249      0              0              1.1190624     -0.0034804687 
     27650   2.2394278      0              0              1.1197139     -0.012796945  
     27700   2.368982       0              0              1.184491      -0.0087580432 
     27750   2.4773185      0              0              1.2386592      0.025680395  
     27800   2.4081639      0              0              1.204082      -0.00049325016
     27850   2.3257884      0              0              1.1628942     -0.020179753  
     27900   2.2639714      0              0              1.1319857     -0.0066642789 
     27950   2.3351864      0              0              1.1675932     -0.0078215651 
     28000   2.4811902      0              0              1.2405951     -0.014771995  
     28050   2.4641126      0              0              1.2320563      0.000180631  
     28100   2.4524563      0              0              1.2262282     -0.015006266  
     28150   2.3949426      0              0              1.1974713      0.0026094123 
     28200   2.4013605      0              0              1.2006803      0.0096327919 
     28250   2.0731624      0              0              1.0365812      0.008249206  
     28300   2.1450969      0              0              1.0725485      0.01369464   
     28350   2.2102647      0              0              1.1051324      0.0076047867 
     28400   2.3546745      0              0              1.1773372      0.025031902  
     28450   2.3586441      0              0              1.179322      -0.019559766  
     28500   2.4109886      0              0              1.2054943      0.017249984  
     28550   2.4882967      0              0              1.2441484     -0.0033126423 
     28600   2.3767131      0              0              1.1883566     -0.017849636  
     28650   2.3054393      0              0              1.1527197     -0.018487773  
     28700   2.1972692      0              0              1.0986346      0.0048358028 
     28750   2.2838543      0              0              1.1419271      0.0084845036 
     28800   2.4950999      0              0              1.2475499     -0.0078887654 
     28850   2.5073701      0              0              1.2536851      0.015296543  
     28900   2.5529877      0              0              1.2764939      0.0094673346 
     28950   2.5518607      0              0              1.2759304     -0.0086627588 
     29000   2.4246726      0              0              1.2123363      0.016763541  
     29050   2.3720542      0              0              1.1860271     -0.016132157  
     29100   2.4300785      0              0              1.2150393     -0.0028372255 
     29150   2.4642581      0              0              1.232129       0.0062211707 
     29200   2.7384872      0              0              1.3692436     -0.020584573  
     29250   2.8648603      0              0              1.4324302      0.015153282  
     29300   2.9404396      0              0              1.4702198     -0.0042657752 
     29350   2.8974657      0              0              1.4487329      0.0028559501 
     29400   2.8037245      0              0              1.4018623      0.019280482  
     29450   2.7407025      0              0              1.3703512     -0.005725624  
     29500   2.8106188      0              0              1.4053094      0.0061132146 
     29550   2.8286542      0              0              1.4143271     -0.0007899002 
     29600   2.8805018      0              0              1.4402509     -0.0076903742 
     29650   2.5941322      0              0              1.2970661     -0.00053937608
     29700   2.8505218      0              0              1.4252609     -0.00035975532
     29750   3.1380246      0              0              1.5690123      0.012557199  
     29800   3.1803211      0              0              1.5901606     -0.014683261  
     29850   3.134491       0              0              1.5672455     -0.0039793675 
     29900   3.05843        0              0              1.529215      -0.00091719082
     29950   3.0692737      0              0              1.5346369     -0.0029744647 
     30000   3.0954135      0              0              1.5477067     -0.011663085  
     30050   3.1949506      0              0              1.5974753      0.0027412973 
     30100   3.0841337      0              0              1.5420668      0.0092843753 
     30150   3.056306       0              0              1.528153      -0.010409238  
     30200   3.202713       0              0              1.6013565      0.014142184  
     30250   3.2775756      0              0              1.6387878     -0.020535776  
     30300   3.1682451      0              0              1.5841226      0.0317836    
     30350   3.254547       0              0              1.6272735      0.02280315   
     30400   3.21299        0              0              1.606495      -0.0091514445 
     30450   3.0287025      0              0              1.5143513     -0.013599755  
     30500   2.8885154      0              0              1.4442577      0.005845008  
     30550   2.6546594      0              0              1.3273297      0.0017563037 
     30600   2.5499528      0              0              1.2749764     -0.009378112  
     30650   2.5762247      0              0              1.2881123      0.0063383605 
     30700   2.5672288      0              0              1.2836144     -0.0093207885 
     30750   2.5474762      0              0              1.2737381     -0.013619451  
     30800   2.4657432      0              0              1.2328716      0.0087810556 
     30850   2.3233511      0              0              1.1616756      0.0065888556 
     30900   2.3762678      0              0              1.1881339     -0.0031619156 
     30950   2.3493227      0              0              1.1746614     -0.023377464  
     31000   2.3927466      0              0              1.1963733      0.0062446768 
     31050   2.4018386      0              0              1.2009193      0.014941162  
     31100   2.3976589      0              0              1.1988294      0.00081500766
     31150   2.406498       0              0              1.203249      -0.0087937531 
     31200   2.3409683      0              0              1.1704842      0.015852577  
     31250   2.4133346      0              0              1.2066673     -0.018497644  
     31300   2.4588766      0              0              1.2294383      0.0079345493 
     31350   2.2570063      0              0              1.1285031      0.010654939  
     31400   2.2457289      0              0              1.1228645      0.018978666  
     31450   2.118653       0              0              1.0593265     -0.0058807333 
     31500   2.187787       0              0              1.0938935      0.014482397  
     31550   2.1266101      0              0              1.0633051     -0.023663886  
     31600   2.0411428      0              0              1.0205714      0.0091721317 
     31650   2.1597637      0              0              1.0798819      0.010916102  
     31700   2.0303333      0              0              1.0151667     -0.016850584  
     31750   2.0136969      0              0              1.0068485     -0.0040920361 
     31800   1.8143267      0              0              0.90716337     0.0014886872 
     31850   2.105099       0              0              1.0525495      0.010921079  
     31900   2.1328342      0              0              1.0664171     -0.002610918  
     31950   2.2515516      0              0              1.1257758      0.0029841249 
     32000   2.3683315      0              0              1.1841658      0.0029577028 
     32050   2.3655967      0              0              1.1827983      0.0014365275 
     32100   2.3411807      0              0              1.1705903      0.021483525  
     32150   2.3363695      0              0              1.1681847     -0.00052642426
     32200   2.523101       0              0              1.2615505     -0.0033380255 
     32250   2.425556       0              0              1.212778      -0.021700039  
     32300   2.3733449      0              0              1.1866724      0.0068555201 
     32350   2.3797867      0              0              1.1898933     -0.0035432951 
     32400   2.274819       0              0              1.1374095     -0.00074080177
     32450   2.1326356      0              0              1.0663178      0.01785399   
     32500   2.0968701      0              0              1.0484351     -0.013910187  
     32550   2.2288858      0              0              1.1144429     -0.010301497  
     32600   2.417383       0              0              1.2086915      0.013583795  
     32650   2.627659       0              0              1.3138295      0.017431977  
     32700   2.4994625      0              0              1.2497312      0.01775707   
     32750   2.4005846      0              0              1.2002923      0.0089235791 
     32800   2.3569442      0              0              1.1784721      0.025054126  
     32850   2.5104042      0              0              1.2552021     -0.0061992286 
     32900   2.466479       0              0              1.2332395      0.02379236   
     32950   2.4699358      0              0              1.2349679      0.0016415602 
     33000   2.4348564      0              0              1.2174282      0.016752789  
     33050   2.2476644      0              0              1.1238322      0.008767802  
     33100   2.2262333      0              0              1.1131167      0.021404875  
     33150   2.1588798      0              0              1.0794399      0.0076199948 
     33200   2.1922228      0              0              1.0961114      0.00043949611
     33250   2.0325426      0              0              1.0162713      0.0090173653 
     33300   1.9319017      0              0              0.96595087     0.019124249  
     33350   1.9302961      0              0              0.96514806     0.0010701935 
     33400   1.9616969      0              0              0.98084843     0.011224398  
     33450   1.8859171      0              0              0.94295854    -0.018892938  
     33500   1.8740201      0              0              0.93701005     0.009046515  
     33550   1.8997992      0              0              0.94989962     0.0065390757 
     33600   1.8910345      0              0              0.94551723     0.0075576786 
     33650   1.8314467      0              0              0.91572335     0.008707017  
     33700   1.9103433      0              0              0.95517164     0.013583169  
     33750   1.9111916      0              0              0.95559582     0.011652867  
     33800   1.961576       0              0              0.98078802     0.0033648801 
     33850   1.9181695      0              0              0.95908477    -0.0041882424 
     33900   1.9298748      0              0              0.96493739     0.0005711111 
     33950   1.8732897      0              0              0.93664486     0.019103573  
     34000   1.7703528      0              0              0.88517641    -0.0026130211 
     34050   1.780384       0              0              0.89019202     0.00083728278
     34100   1.8744627      0              0              0.93723136     0.023312877  
     34150   1.9344626      0              0              0.96723128     0.008706983  
     34200   1.7981801      0              0              0.89909004     0.012009201  
     34250   1.732792       0              0              0.86639601     0.00072087211
     34300   1.6346735      0              0              0.81733673    -0.0069633369 
     34350   1.751683       0              0              0.8758415      1.2365934e-05
     34400   1.8014192      0              0              0.90070958     0.0041074298 
     34450   1.7367625      0              0              0.86838124     0.003802893  
     34500   1.7449462      0              0              0.87247308    -0.0015786048 
     34550   1.8266486      0              0              0.91332429     0.0056822772 
     34600   1.8439992      0              0              0.92199961    -0.0020679339 
     34650   1.8359777      0              0              0.91798884    -0.014947673  
     34700   1.8575858      0              0              0.9287929      0.0037279261 
     34750   1.8326351      0              0              0.91631753    -0.0054915516 
     34800   1.7484781      0              0              0.87423907    -0.0077966596 
     34850   1.7192579      0              0              0.85962895     0.012544384  
     34900   1.5614298      0              0              0.78071491     0.012854481  
     34950   1.5026834      0              0              0.75134172     0.009475231  
     35000   1.4686134      0              0              0.7343067      0.02906143   
     35050   1.6537086      0              0              0.82685429    -0.0079248274 
     35100   1.5481871      0              0              0.77409357     0.012789346  
     35150   1.5082359      0              0              0.75411795    -0.0016063125 
     35200   1.4030322      0              0              0.70151611     0.0066372441 
     35250   1.4900696      0              0              0.74503478     0.0062373927 
     35300   1.5417759      0              0              0.77088796     0.021896432  
     35350   1.5302288      0              0              0.76511442     0.00089830732
     35400   1.4410545      0              0              0.72052723    -0.005791603  
     35450   1.3711145      0              0              0.68555725    -0.014661251  
     35500   1.2618994      0              0              0.6309497     -0.010644461  
     35550   1.4335159      0              0              0.71675793    -0.014473758  
     35600   1.4368662      0              0              0.7184331     -0.017476362  
     35650   1.5528866      0              0              0.77644332     0.00066293843
     35700   1.4897291      0              0              0.74486454     0.016077529  
     35750   1.4326574      0              0              0.71632871     0.0022419732 
     35800   1.4842694      0              0              0.74213469     0.01755221   
     35850   1.576384       0              0              0.788192       0.0013849068 
     35900   1.5635623      0              0              0.78178116    -0.0043312528 
     35950   1.6055616      0              0              0.80278079    -0.00075713815
     36000   1.5722707      0              0              0.78613536    -0.00058556524
     36050   1.5808529      0              0              0.79042646    -0.011828648  
     36100   1.5520306      0              0              0.77601529    -0.00022601684
     36150   1.7070708      0              0              0.8535354     -0.0141146    
     36200   1.7148862      0              0              0.85744311     0.018585139  
     36250   1.5696839      0              0              0.78484195    -0.0058412044 
     36300   1.4627901      0              0              0.73139505     0.0029841913 
     36350   1.5064732      0              0              0.75323658    -0.030998304  
     36400   1.6904029      0              0              0.84520146     0.0041780914 
     36450   1.7116317      0              0              0.85581583     0.0058087853 
     36500   1.7496916      0              0              0.87484581    -0.0051238747 
     36550   1.8368139      0              0              0.91840694     0.0015848075 
     36600   1.8494517      0              0              0.92472583    -0.0014059665 
     36650   1.8760408      0              0              0.93802042    -0.044528445  
     36700   1.8344959      0              0              0.91724795    -0.010849448  
     36750   1.8084119      0              0              0.90420594     0.012375603  
     36800   1.6293595      0              0              0.81467975     0.035242064  
     36850   1.7505425      0              0              0.87527123    -0.013429223  
     36900   1.6943441      0              0              0.84717204    -0.032009259  
     36950   1.5634387      0              0              0.78171933     0.013980667  
     37000   1.3835413      0              0              0.69177066    -0.0077947558 
     37050   1.4733961      0              0              0.73669806     0.01681493   
     37100   1.3918742      0              0              0.69593709     0.0040244732 
     37150   1.3352469      0              0              0.66762343     0.02695453   
     37200   1.3906506      0              0              0.69532532    -0.024162191  
     37250   1.4228671      0              0              0.71143353     0.0041715581 
     37300   1.5748427      0              0              0.78742133    -0.024517886  
     37350   1.544657       0              0              0.77232851     0.020654666  
     37400   1.497935       0              0              0.74896752    -0.012067952  
     37450   1.4262428      0              0              0.71312141     0.0216959    
     37500   1.5206038      0              0              0.7603019      0.019489243  
     37550   1.4497577      0              0              0.72487883     0.028007184  
     37600   1.474964       0              0              0.73748198     0.0030679094 
     37650   1.5697787      0              0              0.78488937     0.0046476553 
     37700   1.3805596      0              0              0.6902798     -0.019847983  
     37750   1.4638264      0              0              0.73191321     0.01211473   
     37800   1.3764617      0              0              0.68823085     0.0077648432 
     37850   1.3986677      0              0              0.69933385     0.0096294039 
     37900   1.3837258      0              0              0.69186292     0.022789327  
     37950   1.4789557      0              0              0.73947783    -0.0067842865 
     38000   1.5560323      0              0              0.77801614     0.0061546607 
     38050   1.5969953      0              0              0.79849765     0.0045252443 
     38100   1.5988231      0              0              0.79941155    -0.0059267567 
     38150   1.5095722      0              0              0.75478609     0.010259519  
     38200   1.4574608      0              0              0.72873039    -0.0087594507 
     38250   1.5971319      0              0              0.79856597    -0.00046716053
     38300   1.797739       0              0              0.89886948    -0.0015459448 
     38350   2.0153251      0              0              1.0076626      0.0068462505 
     38400   2.1052062      0              0              1.0526031      0.022737402  
     38450   2.0296406      0              0              1.0148203     -0.0036141636 
     38500   2.1545942      0              0              1.0772971     -0.015108114  
     38550   2.2522634      0              0              1.1261317     -0.0074479691 
     38600   2.3250611      0              0              1.1625306     -0.018129117  
     38650   2.3060717      0              0              1.1530359      0.024365836  
     38700   2.4516053      0              0              1.2258027      0.0013207309 
     38750   2.4464556      0              0              1.2232278     -0.012721933  
     38800   2.3981396      0              0              1.1990698      0.0087684489 
     38850   2.2174482      0              0              1.1087241     -0.01537264   
     38900   2.313587       0              0              1.1567935      0.0039573373 
     38950   2.2133297      0              0              1.1066649     -0.020660504  
     39000   2.2685375      0              0              1.1342687      0.015897902  
     39050   2.1015684     -0.044050741    0              1.0067335     -0.004558719  
     39100   2.1595694      0              0              1.0797847      0.0076156053 
     39150   2.1918887      0              0              1.0959443     -0.0004457182 
     39200   2.014502       0              0              1.007251       0.0064179857 
     39250   1.9073826      0              0              0.9536913      0.008664146  
     39300   1.9126729      0              0              0.95633645    -0.0036456867 
     39350   1.9665873      0              0              0.98329363     0.016769021  
     39400   1.9510329      0              0              0.97551646     0.0081366705 
     39450   1.9887462      0              0              0.99437311     0.0064190394 
     39500   2.0579232      0              0              1.0289616     -0.012053966  
     39550   2.0263692      0              0              1.0131846     -0.012488841  
     39600   2.0561637      0              0              1.0280819      0.013097742  
     39650   2.2080538      0              0              1.1040269     -0.016674348  
     39700   2.0413572      0              0              1.0206786      0.033811954  
     39750   2.0015516      0              0              1.0007758      0.021308952  
     39800   1.8406753      0              0              0.92033763    -0.016298315  
     39850   1.835844       0              0              0.91792199     0.040609181  
     39900   1.7917577      0              0              0.89587887     0.0020108128 
     39950   1.7789208      0              0              0.88946038    -0.0084985717 
     40000   1.6990381      0              0              0.84951903    -0.019892674  
     40050   1.7611215      0              0              0.88056077     0.0051562345 
     40100   1.5809695      0              0              0.79048476    -0.0039077931 
     40150   1.6393392      0              0              0.8196696      0.047515748  
     40200   1.3826244      0              0              0.69131219     0.001464695  
     40250   1.4443845      0              0              0.72219224     0.0089493036 
     40300   1.5336492      0              0              0.76682458     0.041122243  
     40350   1.6201329      0              0              0.81006643     0.0099904585 
     40400   1.6649278      0              0              0.83246389    -0.023108159  
     40450   1.6599127      0              0              0.82995636    -0.00092041378
     40500   1.6072716      0              0              0.80363582     0.002354038  
     40550   1.6389962      0              0              0.81949809     0.0025001331 
     40600   1.5881476      0              0              0.79407382     0.036902323  
     40650   1.7446262      0              0              0.87231309     0.018939415  
     40700   1.639088       0              0              0.81954402     0.013224696  
     40750   1.6255924      0              0              0.81279619     0.0015369232 
     40800   1.5929863      0              0              0.79649315    -0.017728962  
     40850   1.4968396      0              0              0.74841978    -0.021520192  
     40900   1.6375551      0              0              0.81877755     0.011430978  
     40950   1.6071241      0              0              0.80356206     0.016409471  
     41000   1.5001912      0              0              0.75009562     0.022115365  
     41050   1.5710634      0              0              0.78553168    -0.017398618  
     41100   1.5600546      0              0              0.78002728    -0.0081197721 
     41150   1.7070267      0              0              0.85351337     0.023668928  
     41200   1.6717316      0              0              0.83586582     0.011788104  
     41250   1.6295941      0              0              0.81479707    -0.027913861  
     41300   1.585941       0              0              0.79297049     0.00060592099
     41350   1.5631323      0              0              0.78156613    -0.010508346  
     41400   1.5447511      0              0              0.77237555    -0.0147475    
     41450   1.5433215      0              0              0.77166074    -0.014019673  
     41500   1.5421583      0              0              0.77107913    -0.010158629  
     41550   1.4220687      0              0              0.71103435    -0.0033515203 
     41600   1.4092653      0              0              0.70463266    -0.044498487  
     41650   1.4831796      0              0              0.74158981     0.0041607476 
     41700   1.6098693      0              0              0.80493463     0.0023329089 
     41750   1.5948722      0              0              0.7974361      0.0049468056 
     41800   1.4842325      0              0              0.74211623    -4.5863136e-05
     41850   1.539547       0              0              0.76977351     0.00049157834
[...]
     89350   0.84873438     0              0              0.42436719    -0.0092497825 
     89400   0.88463254     0              0              0.44231627     0.015224951  
     89450   0.95805318     0              0              0.47902659     0.0063319286 
     89500   0.82769591     0              0              0.41384796     0.0097112447 
     89550   0.81050922     0              0              0.40525461    -0.004089499  
     89600   0.99600633     0              0              0.49800316    -0.0081723454 
     89650   1.0362444      0              0              0.5181222      0.024777269  
     89700   1.0062199      0              0              0.50310997    -0.011003763  
     89750   1.0854676      0              0              0.5427338      0.016317336  
     89800   1.1186393      0              0              0.55931965     0.010460251  
     89850   1.0640554      0              0              0.5320277     -0.011274747  
     89900   0.99271572     0              0              0.49635786     0.022008053  
     89950   0.90056942     0              0              0.45028471     0.004793076  
     90000   0.82534023     0              0              0.41267012     0.0037727287 
     90050   0.77991511     0              0              0.38995755     0.004562128  
     90100   0.80841912     0              0              0.40420956    -0.0013074642 
     90150   0.90099724     0              0              0.45049862    -0.023700467  
     90200   0.86618786     0              0              0.43309393    -0.0094778831 
     90250   0.8569178      0              0              0.4284589      0.014441777  
     90300   0.95530337     0              0              0.47765169    -0.0065204106 
     90350   1.0189581      0              0              0.50947905    -0.013280947  
     90400   1.0484272      0              0              0.52421361    -0.022366145  
     90450   1.0236778      0              0              0.51183891    -0.024577974  
     90500   0.90080778     0              0              0.45040389     0.0028747904 
     90550   0.95379828     0              0              0.47689914     0.010892491  
     90600   0.97345613     0              0              0.48672807     0.026832519  
     90650   1.0314503      0              0              0.51572516    -0.022480535  
     90700   0.98819171     0              0              0.49409586     0.0033226775 
     90750   1.0311176      0              0              0.5155588      0.0032551058 
     90800   0.9164026      0              0              0.4582013      0.010979015  
     90850   0.96487661     0              0              0.48243831     0.0014984786 
     90900   0.9658106      0              0              0.4829053     -0.00084440931
     90950   0.97770277     0              0              0.48885139    -0.012256523  
     91000   0.97881496     0              0              0.48940748     0.01199828   
     91050   1.0884416      0              0              0.5442208      0.00625723   
     91100   1.0515616      0              0              0.52578079     0.010470946  
     91150   1.0831483      0              0              0.54157415     0.0049844962 
     91200   0.99930492     0              0              0.49965246    -0.031228306  
     91250   0.94055041     0              0              0.4702752      0.025650817  
     91300   0.87670194     0              0              0.43835097    -0.0049543448 
     91350   0.89405501     0              0              0.4470275      0.012332046  
     91400   0.99417544     0              0              0.49708772     0.00045954873
     91450   0.94766383     0              0              0.47383192     0.027757162  
     91500   0.99172914     0              0              0.49586457    -0.016041664  
     91550   0.95848457     0              0              0.47924228    -0.0071676621 
     91600   0.89820624     0              0              0.44910312     0.0085210986 
     91650   0.92375611     0              0              0.46187805     0.012250869  
     91700   0.91439107     0              0              0.45719553     0.033511433  
     91750   1.0032471      0              0              0.50162357     0.0077870578 
     91800   1.0068637      0              0              0.50343183    -0.0029422361 
     91850   1.0723535      0              0              0.53617677    -0.025354463  
     91900   1.0837688      0              0              0.54188442     0.0010114565 
     91950   1.0538588      0              0              0.52692939     0.013418389  
     92000   1.0676527      0              0              0.53382634    -0.00085796559
     92050   1.1520695      0              0              0.57603473     0.012939188  
     92100   1.1461229      0              0              0.57306146     0.011621297  
     92150   1.2098779      0              0              0.60493893     0.0097342642 
     92200   1.1658297      0              0              0.58291484    -0.017783043  
     92250   1.0869644      0              0              0.54348222    -0.025560206  
     92300   1.1826195      0              0              0.59130977     0.0036181723 
     92350   1.1176439      0              0              0.55882193     0.01786652   
     92400   1.1829863      0              0              0.59149317    -0.0077268546 
     92450   1.276625       0              0              0.6383125      0.0096361467 
     92500   1.3630871      0              0              0.68154354     0.013128419  
     92550   1.4205446      0              0              0.71027231     0.01016612   
     92600   1.3445192      0              0              0.67225961    -0.01761744   
     92650   1.1534776      0              0              0.57673878    -0.003119411  
     92700   1.0935838      0              0              0.54679191    -0.010511492  
     92750   1.1097558      0              0              0.55487788     0.0039807175 
     92800   0.99684325     0              0              0.49842162     0.0069198717 
     92850   1.0681009      0              0              0.53405047     0.0065875055 
     92900   0.98523413     0              0              0.49261707     0.0083733974 
     92950   1.0905634      0              0              0.54528169     0.014701389  
     93000   1.1599464      0              0              0.57997322    -0.013674804  
     93050   1.0931236      0              0              0.54656179     0.0055369992 
     93100   1.105213       0              0              0.55260651     0.0065348963 
     93150   1.0033615      0              0              0.50168074     0.028281695  
     93200   0.90727651     0              0              0.45363826     0.007384226  
     93250   1.0026872      0              0              0.50134359     0.013545943  
     93300   0.99263331     0              0              0.49631665    -0.021338511  
     93350   1.018091       0              0              0.50904548     0.0030059905 
     93400   1.0440636      0              0              0.52203181     0.016129681  
     93450   1.0654674      0              0              0.5327337     -0.01264551   
     93500   1.1351738      0              0              0.56758691     0.0054200346 
     93550   1.0917597      0              0              0.54587987     0.0077233632 
     93600   1.1041723      0              0              0.55208616    -0.021570564  
     93650   1.0896301      0              0              0.54481506    -0.0035884377 
     93700   1.1242535      0              0              0.56212676     0.002363597  
     93750   1.2758917      0              0              0.63794584     0.012134391  
     93800   1.3649682      0              0              0.68248409     0.0070896841 
     93850   1.3430175      0              0              0.67150877     0.012891237  
     93900   1.3942355      0              0              0.69711773     0.0097484943 
     93950   1.2684745      0              0              0.63423726     0.0047112762 
     94000   1.2118779      0              0              0.60593897    -0.0039889357 
     94050   1.053543       0              0              0.52677151     0.010557929  
     94100   0.98779617     0              0              0.49389808     0.01207797   
     94150   0.88685307     0              0              0.44342653    -0.0041354462 
     94200   0.87298065     0              0              0.43649033     0.001584802  
     94250   0.84100268     0              0              0.42050134    -0.00091273479
     94300   0.71659758     0              0              0.35829879    -0.019775779  
     94350   0.73546273     0              0              0.36773136     0.0048973976 
     94400   0.74236853     0              0              0.37118427    -0.00072194786
     94450   0.79684677     0              0              0.39842338    -0.0083621691 
     94500   0.7779334      0              0              0.3889667     -0.0060300323 
     94550   0.74947499     0              0              0.3747375      0.016268644  
     94600   0.80175953     0              0              0.40087977    -0.010235113  
     94650   0.7861889      0              0              0.39309445     0.0018504324 
     94700   0.87266187     0              0              0.43633093    -0.014968621  
     94750   0.8820188      0              0              0.4410094      0.0061135498 
     94800   0.90996534     0              0              0.45498267     0.0017894642 
     94850   0.97511124     0              0              0.48755562     0.0060397363 
     94900   0.95838183     0              0              0.47919092    -0.0005905207 
     94950   0.9506934      0              0              0.4753467      0.0081099148 
     95000   0.84168617     0              0              0.42084309     0.013387973  
     95050   0.84349157     0              0              0.42174579     0.0122926    
     95100   0.96263346     0              0              0.48131673     0.014683704  
     95150   0.96313815     0              0              0.48156908    -0.021223829  
     95200   0.90922466     0              0              0.45461233     0.0037694324 
     95250   0.86225408     0              0              0.43112704     0.022794493  
     95300   0.97041716     0              0              0.48520858     0.0082202948 
     95350   1.0046646      0              0              0.50233232     0.008278589  
     95400   1.0403875      0              0              0.52019376    -0.0075493087 
     95450   1.0425394      0              0              0.52126969     0.013069248  
     95500   1.070976       0              0              0.535488       0.01842596   
     95550   1.2110596      0              0              0.60552978    -0.014516844  
     95600   1.1852985      0              0              0.59264926    -0.0025624323 
     95650   1.2406981      0              0              0.62034903     0.018160042  
     95700   1.2522283      0              0              0.62611417     0.011126031  
     95750   1.2942405      0              0              0.64712026    -0.025628794  
     95800   1.397728       0              0              0.69886402    -0.003322546  
     95850   1.4452104      0              0              0.72260522     0.0099324385 
     95900   1.2943419      0              0              0.64717093    -0.0086458439 
     95950   1.1909562      0              0              0.59547808     0.0012050485 
     96000   1.1943494      0              0              0.59717472     0.030116669  
     96050   1.308899       0              0              0.65444948     0.018960899  
     96100   1.2286502      0              0              0.6143251      0.014597796  
     96150   1.2113335      0              0              0.60566675     0.0042863601 
     96200   1.1636456      0              0              0.58182281     0.0019631386 
     96250   0.99966525     0              0              0.49983263    -0.0039318178 
     96300   0.83172858     0              0              0.41586429     0.0026263302 
     96350   0.80725353     0              0              0.40362677     0.002130134  
     96400   0.8166694      0              0              0.4083347      0.014826059  
     96450   0.91596382     0              0              0.45798191    -0.0019746769 
     96500   0.90355482     0              0              0.45177741    -0.0031020488 
     96550   0.93870492     0              0              0.46935246     0.015276419  
     96600   1.0563891      0              0              0.52819455    -0.007190367  
     96650   1.2012597      0              0              0.60062986     0.0023652413 
     96700   1.1018308      0              0              0.5509154      0.023210901  
     96750   1.0082756      0              0              0.50413781    -0.0048108796 
     96800   1.0088482      0              0              0.50442408    -0.0019061872 
     96850   0.95516819     0              0              0.47758409     0.012949589  
     96900   0.95975283     0              0              0.47987641    -0.0018641804 
     96950   0.89800693     0              0              0.44900347     0.0098117708 
     97000   0.9373103      0              0              0.46865515    -0.014595277  
     97050   1.0612872      0              0              0.53064361     0.011077879  
     97100   1.0799068      0              0              0.53995338    -0.016910038  
     97150   1.0086713      0              0              0.50433567     0.016076061  
     97200   1.0197191      0              0              0.50985957     0.024266146  
     97250   1.0409318      0              0              0.5204659     -0.0020798312 
     97300   1.0116694      0              0              0.50583472    -0.020685883  
     97350   1.0603182      0              0              0.53015912     0.016689608  
     97400   1.0625546      0              0              0.53127732     0.0092962426 
     97450   1.1656752      0              0              0.58283759    -0.01262177   
     97500   1.1410317      0              0              0.57051585     0.021272146  
     97550   1.1361225      0              0              0.56806123    -0.020340767  
     97600   1.1109646      0              0              0.55548229    -0.012542499  
     97650   1.0834433      0              0              0.54172167     0.014480523  
     97700   1.1960018      0              0              0.59800091     0.020884458  
     97750   1.200789       0              0              0.6003945      0.011713977  
     97800   1.2735356      0              0              0.6367678     -0.0032355803 
     97850   1.1901794      0              0              0.59508972     0.0090561555 
     97900   1.2718578      0              0              0.63592888    -0.0063156809 
     97950   1.2589634      0              0              0.62948169     0.020903786  
     98000   1.4118558      0              0              0.70592788     0.023488744  
     98050   1.4873987      0              0              0.74369937     0.0015706487 
     98100   1.4737984      0              0              0.73689918     0.0020596465 
     98150   1.5388825      0              0              0.76944124     0.0012351401 
     98200   1.4875907      0              0              0.74379535    -0.018274     
     98250   1.5464757      0              0              0.77323784    -0.029062445  
     98300   1.5903793      0              0              0.79518966     0.0035487028 
     98350   1.5827265      0              0              0.79136324     0.024020775  
     98400   1.5431008      0              0              0.77155039    -0.010030328  
     98450   1.6428396      0              0              0.82141982    -0.00010041084
     98500   1.691845       0              0              0.84592249    -0.022002794  
     98550   1.5729615      0              0              0.78648077     0.0053609815 
     98600   1.5238699      0              0              0.76193496     0.01898471   
     98650   1.4021447      0              0              0.70107234    -0.0035351785 
     98700   1.2909174      0              0              0.6454587      0.029325575  
     98750   1.4128709      0              0              0.70643546    -0.019195726  
     98800   1.2280647      0              0              0.61403234    -0.0046968611 
     98850   1.2157899      0              0              0.60789497     0.0055376218 
     98900   1.2589535      0              0              0.62947677     0.021768656  
     98950   1.2474139      0              0              0.62370693     0.026890692  
     99000   1.3201188      0              0              0.66005942     0.016352626  
     99050   1.3580818      0              0              0.6790409     -0.0059166108 
     99100   1.2930439      0              0              0.64652194     0.0017038035 
     99150   1.1944303      0              0              0.59721514     0.0046085404 
     99200   1.1060528      0              0              0.55302642     0.015904715  
     99250   1.2014966      0              0              0.60074831    -0.022495738  
     99300   1.0722401      0              0              0.53612007    -0.033044641  
     99350   1.0341846      0              0              0.51709232    -0.0017787426 
     99400   1.0566333      0              0              0.52831667    -0.0096784711 
     99450   1.2498328      0              0              0.62491638     0.0024356121 
     99500   1.2751885      0              0              0.63759423     0.0098822008 
     99550   1.3596159      0              0              0.67980796     0.0031071748 
     99600   1.4147413      0              0              0.70737064     0.0075887975 
     99650   1.5261867      0              0              0.76309334    -0.028148987  
     99700   1.4896077      0              0              0.74480384     0.038377392  
     99750   1.5512941      0              0              0.77564704    -0.006747025  
     99800   1.4564864      0              0              0.72824321    -0.0023784313 
     99850   1.5042052      0              0              0.7521026      0.0010923329 
     99900   1.6073498      0              0              0.80367488    -0.013928149  
     99950   1.6820433      0              0              0.84102165     0.0036094135 
    100000   1.5674237      0              0              0.78371187     0.025927694  
    100001   1.5718872      0              0              0.7859436      0.012837063  
Loop time of 0.589227 on 1 procs for 100000 steps with 8 atoms

Performance: 73316395.888 tau/day, 169713.879 timesteps/s, 1.358 Matom-step/s
71.6% CPU use with 1 MPI tasks x 1 OpenMP threads

MPI task timing breakdown:
Section |  min time  |  avg time  |  max time  |%varavg| %total
---------------------------------------------------------------
Pair    | 0.027679   | 0.027679   | 0.027679   |   0.0 |  4.70
Bond    | 0.007064   | 0.007064   | 0.007064   |   0.0 |  1.20
Neigh   | 0.016153   | 0.016153   | 0.016153   |   0.0 |  2.74
Comm    | 0.026509   | 0.026509   | 0.026509   |   0.0 |  4.50
Output  | 0.32873    | 0.32873    | 0.32873    |   0.0 | 55.79
Modify  | 0.11999    | 0.11999    | 0.11999    |   0.0 | 20.36
Other   |            | 0.06311    |            |       | 10.71

Nlocal:              8 ave           8 max           8 min
Histogram: 1 0 0 0 0 0 0 0 0 0
Nghost:             20 ave          20 max          20 min
Histogram: 1 0 0 0 0 0 0 0 0 0
Neighs:              0 ave           0 max           0 min
Histogram: 1 0 0 0 0 0 0 0 0 0

Total # of neighbors = 0
Ave neighs/atom = 0
Ave special neighs/atom = 3.25
Neighbor list builds = 5448
Dangerous builds = 0
Total wall time: 0:00:00
