LAMMPS (2 Aug 2023 - Update 3)
OMP_NUM_THREADS environment is not set. Defaulting to 1 thread. (src/comm.cpp:98)
  using 1 OpenMP thread(s) per MPI task
Loaded 1 plugins from F:\LAMMPS\LAMMPS 64-bit 2Aug2023\plugins
# Script to create a Polymer using Patchy Particles (PP)
# Types of Particles:
#   Cross linker:   PPA
#   Monomer:        PPB

# Initialization
units lj
dimension 3
boundary p p p

# Styles of atoms and that stuff
atom_style bond
bond_style zero nocoeff
pair_style hybrid/overlay lj/cut 2.5 sw threebody off
newton on

# Varaibles
variable L equal 5
variable seed1 equal 1234
variable seed2 equal 4321

# Create simulaiton box
region simulation_box block -$L $L -$L $L -$L $L
region simulation_box block -5 $L -$L $L -$L $L
region simulation_box block -5 5 -$L $L -$L $L
region simulation_box block -5 5 -5 $L -$L $L
region simulation_box block -5 5 -5 5 -$L $L
region simulation_box block -5 5 -5 5 -5 $L
region simulation_box block -5 5 -5 5 -5 5
# N-atom-types region-ID keyword value Is necesesary the extra/special/per/atom (# of special neighbors per atom)
create_box 4 simulation_box     bond/types 1     extra/bond/per/atom 4     extra/special/per/atom 5
Created orthogonal box = (-5 -5 -5) to (5 5 5)
  1 by 1 by 1 MPI processor grid

# Atom types
mass 1 1.0      # CL
mass 2 0.5      # PA
mass 3 1.0      # MO
mass 4 0.5      # PB

# Coefficients
bond_coeff * 2.14
pair_coeff 1 1 lj/cut 1.0 1.0 1.12 # i-type j-type pair-style eps sigma cutoff
pair_coeff 2 2 lj/cut 1.0 1.0 1.12 # i-type j-type pair-style eps sigma cutoff
pair_coeff 1 2 lj/cut 1.0 1.0 1.12 # i-type j-type pair-style eps sigma cutoff
pair_coeff 3 3 none
pair_coeff 1 3 none
pair_coeff 1 4 none
pair_coeff 2 3 none
pair_coeff 2 4 none
pair_coeff 3 4 sw Patchy.ws NULL NULL PA PB # i-type j-type pair-style
  disabling sw potential three-body terms
pair_coeff 4 4 sw Patchy.ws NULL NULL NULL PB # i-type j-type eps sigma cutoff wca
pair_modify shift yes

# Molecules
molecule CL molecule.patchy.CL
Read molecule template CL:
  1 molecules
  0 fragments
  5 atoms with max type 2
  4 bonds with max type 1
  0 angles with max type 0
  0 dihedrals with max type 0
  0 impropers with max type 0
molecule MO molecule.patchy.MO
Read molecule template MO:
  1 molecules
  0 fragments
  3 atoms with max type 2
  2 bonds with max type 1
  0 angles with max type 0
  0 dihedrals with max type 0
  0 impropers with max type 0


# Introduce the molecules
# ID style args keyword arg
region spawn_box block -$L $L -$L $L -$L $L
region spawn_box block -5 $L -$L $L -$L $L
region spawn_box block -5 5 -$L $L -$L $L
region spawn_box block -5 5 -5 $L -$L $L
region spawn_box block -5 5 -5 5 -$L $L
region spawn_box block -5 5 -5 5 -5 $L
region spawn_box block -5 5 -5 5 -5 5

# create_atoms type style args keyword values
# style_random: N seed region-ID
# keyword_mol: template-ID seed
# keyword_overlap: overlap value = only insert if at least this distance from all existing atoms
# keyword_maxtry: maxtry value = number of attempts to insert a particle before failure
create_atoms 0 random 1 ${seed1} spawn_box mol CL ${seed1} #overlap 3 maxtry 5000 #xls
create_atoms 0 random 1 1234 spawn_box mol CL ${seed1} 
create_atoms 0 random 1 1234 spawn_box mol CL 1234 
Created 5 atoms
  using lattice units in orthogonal box = (-5 -5 -5) to (5 5 5)
  create_atoms CPU = 0.001 seconds
#create_atoms 0 random 1 118394 spawn_box mol 2 ${seed2} overlap 1.13 maxtry 5000 #mon

# Create patchy particles
#group CrossLinker molecule <> 1 1# group polyA molecule <> 50 250
#group Monomer molecule <> 2 2# group polyA molecule <> 50 250
group CrossLinker empty
0 atoms in group CrossLinker
group Monomer empty
0 atoms in group Monomer
# fix		1 addatoms rigid/small molecule mol dimer
fix pCl CrossLinker rigid/small molecule mol CL
  create bodies CPU = 0.000 seconds
  0 rigid bodies with 0 atoms
  1 = max distance from body owner to body atom
fix pMO Monomer rigid/small molecule mol MO
  create bodies CPU = 0.000 seconds
  0 rigid bodies with 0 atoms
  1 = max distance from body owner to body atom
#fix pCL CrossLinker rigid/small molecule # ID group-ID style bodystyle args keyword values
#fix pCL Monomer rigid/small molecule # ID group-ID style bodystyle args keyword values

# Neighbor list
neighbor 0.3 bin # extra-distance style
#neigh_modify delay 5
# neigh_modify exclude molecule/intra

minimize 1.0e-4 1.0e-6 1000 10000 # etol ftol maxiter maxeval
WARNING: Using a manybody potential with bonds/angles/dihedrals and special_bond exclusions (src/pair.cpp:242)
WARNING: More than one fix rigid command (src/RIGID/fix_rigid_small.cpp:529)
WARNING: More than one fix rigid command (src/RIGID/fix_rigid_small.cpp:529)
Neighbor list info ...
  update: every = 1 steps, delay = 0 steps, check = yes
  max neighbors/atom: 2000, page size: 100000
  master list distance cutoff = 1.42
  ghost atom cutoff = 1.42
  binsize = 0.71, bins = 15 15 15
  3 neighbor lists, perpetual/occasional/extra = 3 0 0
  (1) pair lj/cut, perpetual, skip from (3)
      attributes: half, newton on
      pair build: skip
      stencil: none
      bin: none
  (2) pair sw, perpetual, skip from (3)
      attributes: half, newton on
      pair build: skip
      stencil: none
      bin: none
  (3) neighbor class addition, perpetual
      attributes: half, newton on
      pair build: half/bin/newton
      stencil: half/bin/3d
      bin: standard
WARNING: Cannot count rigid body degrees-of-freedom before bodies are fully initialized (src/RIGID/fix_rigid_small.cpp:1134)
WARNING: Cannot count rigid body degrees-of-freedom before bodies are fully initialized (src/RIGID/fix_rigid_small.cpp:1134)
Per MPI rank memory allocation (min/avg/max) = 9.791 | 9.791 | 9.791 Mbytes
   Step          Temp          E_pair         E_mol          TotEng         Press     
         0   0              0              0              0              6.0801453e-315
         1   0              0              0              0              6.0801453e-315
Loop time of 8.8e-05 on 1 procs for 1 steps with 5 atoms

0.0% CPU use with 1 MPI tasks x 1 OpenMP threads

Minimization stats:
  Stopping criterion = search direction is not downhill
  Energy initial, next-to-last, final = 
                     0                  0                  0
  Force two-norm initial, final = 0 0
  Force max component initial, final = 0 0
  Final line search alpha, max atom move = 0 0
  Iterations, force evaluations = 1 0

MPI task timing breakdown:
Section |  min time  |  avg time  |  max time  |%varavg| %total
---------------------------------------------------------------
Pair    | 2e-06      | 2e-06      | 2e-06      |   0.0 |  2.27
Bond    | 1e-06      | 1e-06      | 1e-06      |   0.0 |  1.14
Neigh   | 0          | 0          | 0          |   0.0 |  0.00
Comm    | 0          | 0          | 0          |   0.0 |  0.00
Output  | 0          | 0          | 0          |   0.0 |  0.00
Modify  | 0          | 0          | 0          |   0.0 |  0.00
Other   |            | 8.5e-05    |            |       | 96.59

Nlocal:              5 ave           5 max           5 min
Histogram: 1 0 0 0 0 0 0 0 0 0
Nghost:              4 ave           4 max           4 min
Histogram: 1 0 0 0 0 0 0 0 0 0
Neighs:              0 ave           0 max           0 min
Histogram: 1 0 0 0 0 0 0 0 0 0

Total # of neighbors = 0
Ave neighs/atom = 0
Ave special neighs/atom = 4
Neighbor list builds = 0
Dangerous builds = 0

fix 1 all langevin 1.0 1.0 50.0 12345
fix 2 all nve

thermo 50
compute t all temp
compute ep all pe
compute ek all ke
compute tm all momentum

dump 1 all atom 50 dump.patchy_molecules_pairs_proofs

timestep 0.005
run 100000
WARNING: Using a manybody potential with bonds/angles/dihedrals and special_bond exclusions (src/pair.cpp:242)
WARNING: More than one fix rigid command (src/RIGID/fix_rigid_small.cpp:529)
WARNING: More than one fix rigid command (src/RIGID/fix_rigid_small.cpp:529)
Per MPI rank memory allocation (min/avg/max) = 8.666 | 8.666 | 8.666 Mbytes
   Step          Temp          E_pair         E_mol          TotEng         Press     
         1   0              0              0              0              0            
        50   0.0082234433   0              0              0.0098681319   3.2893773e-05
       100   0.017654845    0              0              0.021185814    7.0619381e-05
       150   0.020824934    0              0              0.024989921    8.3299737e-05
       200   0.029687808    0              0              0.03562537     0.00011875123
       250   0.032732577    0              0              0.039279092    0.00013093031
       300   0.030421502    0              0              0.036505802    0.00012168601
       350   0.050903967    0              0              0.06108476     0.00020361587
       400   0.082051873    0              0              0.098462247    0.00032820749
       450   0.082661808    0              0              0.099194169    0.00033064723
       500   0.091139045    0              0              0.10936685     0.00036455618
       550   0.11103814     0              0              0.13324577     0.00044415256
       600   0.1000896      0              0              0.12010752     0.00040035841
       650   0.14019515     0              0              0.16823418     0.00056078059
       700   0.18261434     0              0              0.21913721     0.00073045736
       750   0.19515503     0              0              0.23418604     0.00078062013
       800   0.18701514     0              0              0.22441816     0.00074806055
       850   0.18840526     0              0              0.22608631     0.00075362103
       900   0.18248661     0              0              0.21898394     0.00072994646
       950   0.15419034     0              0              0.18502841     0.00061676137
      1000   0.17758903     0              0              0.21310683     0.00071035612
      1050   0.15839158     0              0              0.19006989     0.00063356631
      1100   0.15306953     0              0              0.18368344     0.00061227813
      1150   0.17294282     0              0              0.20753138     0.00069177127
      1200   0.17469928     0              0              0.20963913     0.00069879711
      1250   0.1576693      0              0              0.18920317     0.00063067722
      1300   0.14549788     0              0              0.17459746     0.00058199152
      1350   0.14660075     0              0              0.1759209      0.00058640299
      1400   0.159234       0              0              0.19108079     0.00063693598
      1450   0.19042618     0              0              0.22851142     0.00076170474
      1500   0.22538092     0              0              0.2704571      0.00090152367
      1550   0.25605626     0              0              0.30726751     0.001024225  
      1600   0.25762124     0              0              0.30914549     0.001030485  
      1650   0.32261938     0              0              0.38714326     0.0012904775 
      1700   0.43053732     0              0              0.51664479     0.0017221493 
      1750   0.48651264     0              0              0.58381517     0.0019460506 
      1800   0.49083086     0              0              0.58899703     0.0019633234 
      1850   0.51266058     0              0              0.61519269     0.0020506423 
      1900   0.47473864     0              0              0.56968636     0.0018989545 
      1950   0.50822808     0              0              0.6098737      0.0020329123 
      2000   0.50477307     0              0              0.60572768     0.0020190923 
      2050   0.51167092     0              0              0.61400511     0.0020466837 
      2100   0.4801623      0              0              0.57619476     0.0019206492 
      2150   0.5386294      0              0              0.64635528     0.0021545176 
      2200   0.60858801     0              0              0.73030561     0.002434352  
      2250   0.57337122     0              0              0.68804547     0.0022934849 
      2300   0.56159152     0              0              0.67390982     0.0022463661 
      2350   0.56370642     0              0              0.6764477      0.0022548257 
      2400   0.64195084     0              0              0.77034101     0.0025678034 
      2450   0.69346167     0              0              0.832154       0.0027738467 
      2500   0.65545898     0              0              0.78655078     0.0026218359 
      2550   0.72215554     0              0              0.86658664     0.0028886221 
      2600   0.76024057     0              0              0.91228868     0.0030409623 
      2650   0.76126592     0              0              0.9135191      0.0030450637 
      2700   0.81079802     0              0              0.97295762     0.0032431921 
      2750   0.92618971     0              0              1.1114277      0.0037047589 
      2800   0.89984307     0              0              1.0798117      0.0035993723 
      2850   0.9204642      0              0              1.104557       0.0036818568 
      2900   0.88934054     0              0              1.0672087      0.0035573622 
      2950   0.87256478     0              0              1.0470777      0.0034902591 
      3000   0.82331561     0              0              0.98797873     0.0032932624 
      3050   0.8096904      0              0              0.97162848     0.0032387616 
      3100   0.80280236     0              0              0.96336283     0.0032112094 
      3150   0.83703318     0              0              1.0044398      0.0033481327 
      3200   0.87883294     0              0              1.0545995      0.0035153318 
      3250   0.79728762     0              0              0.95674515     0.0031891505 
      3300   0.82867873     0              0              0.99441447     0.0033147149 
      3350   0.77681687     0              0              0.93218024     0.0031072675 
      3400   0.80832096     0              0              0.96998515     0.0032332838 
      3450   0.82679648     0              0              0.99215578     0.0033071859 
      3500   0.8288657      0              0              0.99463884     0.0033154628 
      3550   0.78305101     0              0              0.93966121     0.003132204  
      3600   0.77644087     0              0              0.93172904     0.0031057635 
      3650   0.81678399     0              0              0.98014078     0.0032671359 
      3700   0.82082274     0              0              0.98498729     0.003283291  
      3750   0.85302696     0              0              1.0236324      0.0034121078 
      3800   0.74847883     0              0              0.8981746      0.0029939153 
      3850   0.71314196     0              0              0.85577035     0.0028525678 
      3900   0.72425915     0              0              0.86911099     0.0028970366 
      3950   0.68831688     0              0              0.82598025     0.0027532675 
      4000   0.71308507     0              0              0.85570208     0.0028523403 
      4050   0.75721392     0              0              0.9086567      0.0030288557 
      4100   0.75708826     0              0              0.90850591     0.003028353  
      4150   0.68329221     0              0              0.81995065     0.0027331688 
      4200   0.60842303     0              0              0.73010763     0.0024336921 
      4250   0.61495536     0              0              0.73794643     0.0024598214 
      4300   0.58291351     0              0              0.69949621     0.002331654  
      4350   0.46788701     0              0              0.56146441     0.001871548  
      4400   0.48139333     0              0              0.577672       0.0019255733 
      4450   0.40927664     0              0              0.49113197     0.0016371066 
      4500   0.44313182     0              0              0.53175819     0.0017725273 
      4550   0.43457881     0              0              0.52149457     0.0017383152 
      4600   0.49040907     0              0              0.58849088     0.0019616363 
      4650   0.41714165     0              0              0.50056999     0.0016685666 
      4700   0.35807201     0              0              0.42968642     0.0014322881 
      4750   0.31609203     0              0              0.37931044     0.0012643681 
      4800   0.39092595     0              0              0.46911114     0.0015637038 
      4850   0.36479791     0              0              0.43775749     0.0014591916 
      4900   0.33593053     0              0              0.40311664     0.0013437221 
      4950   0.31932595     0              0              0.38319114     0.0012773038 
      5000   0.33094197     0              0              0.39713036     0.0013237679 
      5050   0.28410242     0              0              0.3409229      0.0011364097 
      5100   0.2699096      0              0              0.32389153     0.0010796384 
      5150   0.243698       0              0              0.2924376      0.00097479199
      5200   0.28468666     0              0              0.34162399     0.0011387466 
      5250   0.34042056     0              0              0.40850467     0.0013616822 
      5300   0.38817887     0              0              0.46581464     0.0015527155 
      5350   0.40496578     0              0              0.48595894     0.0016198631 
      5400   0.40106423     0              0              0.48127708     0.0016042569 
      5450   0.39925839     0              0              0.47911007     0.0015970336 
      5500   0.41688937     0              0              0.50026724     0.0016675575 
      5550   0.46530885     0              0              0.55837062     0.0018612354 
      5600   0.47051729     0              0              0.56462075     0.0018820692 
      5650   0.46883353     0              0              0.56260024     0.0018753341 
      5700   0.47322274     0              0              0.56786729     0.001892891  
      5750   0.53121006     0              0              0.63745208     0.0021248403 
      5800   0.50204969     0              0              0.60245963     0.0020081988 
      5850   0.55827009     0              0              0.6699241      0.0022330803 
      5900   0.52797393     0              0              0.63356872     0.0021118957 
      5950   0.51076278     0              0              0.61291534     0.0020430511 
      6000   0.60543512     0              0              0.72652214     0.0024217405 
      6050   0.65996128     0              0              0.79195353     0.0026398451 
      6100   0.58666316     0              0              0.70399579     0.0023466526 
      6150   0.60340385     0              0              0.72408462     0.0024136154 
      6200   0.59035447     0              0              0.70842536     0.0023614179 
      6250   0.5321067      0              0              0.63852804     0.0021284268 
      6300   0.53388665     0              0              0.64066398     0.0021355466 
      6350   0.44703579     0              0              0.53644295     0.0017881432 
      6400   0.44767207     0              0              0.53720648     0.0017906883 
      6450   0.46354452     0              0              0.55625343     0.0018541781 
      6500   0.48197274     0              0              0.57836729     0.001927891  
      6550   0.48338364     0              0              0.58006036     0.0019335345 
      6600   0.46110021     0              0              0.55332025     0.0018444008 
      6650   0.50744011     0              0              0.60892813     0.0020297604 
      6700   0.53068409     0              0              0.63682091     0.0021227364 
      6750   0.46329139     0              0              0.55594966     0.0018531655 
      6800   0.50609176     0              0              0.60731011     0.002024367  
      6850   0.55126873     0              0              0.66152248     0.0022050749 
      6900   0.6647609      0              0              0.79771308     0.0026590436 
      6950   0.64196013     0              0              0.77035216     0.0025678405 
      7000   0.66774559     0              0              0.80129471     0.0026709824 
      7050   0.65341428     0              0              0.78409713     0.0026136571 
      7100   0.64539784     0              0              0.77447741     0.0025815914 
      7150   0.61966549     0              0              0.74359858     0.0024786619 
      7200   0.61689883     0              0              0.74027859     0.0024675953 
      7250   0.62491513     0              0              0.74989816     0.0024996605 
      7300   0.62973905     0              0              0.75568686     0.0025189562 
      7350   0.64042329     0              0              0.76850794     0.0025616931 
      7400   0.66778029     0              0              0.80133635     0.0026711212 
      7450   0.71692623     0              0              0.86031148     0.0028677049 
      7500   0.64345761     0              0              0.77214914     0.0025738305 
      7550   0.59489808     0              0              0.71387769     0.0023795923 
      7600   0.5825795      0              0              0.69909539     0.002330318  
      7650   0.52206759     0              0              0.62648111     0.0020882704 
      7700   0.6058177      0              0              0.72698124     0.0024232708 
      7750   0.7275499      0              0              0.87305988     0.0029101996 
      7800   0.80388631     0              0              0.96466357     0.0032155452 
      7850   0.68177906     0              0              0.81813487     0.0027271162 
      7900   0.75824296     0              0              0.90989155     0.0030329718 
      7950   0.73359686     0              0              0.88031623     0.0029343874 
      8000   0.78714693     0              0              0.94457632     0.0031485877 
      8050   0.87680198     0              0              1.0521624      0.0035072079 
      8100   0.97958354     0              0              1.1755003      0.0039183342 
      8150   1.0077906      0              0              1.2093487      0.0040311624 
      8200   0.94552788     0              0              1.1346335      0.0037821115 
      8250   0.92430615     0              0              1.1091674      0.0036972246 
      8300   0.93007298     0              0              1.1160876      0.0037202919 
      8350   0.98360954     0              0              1.1803314      0.0039344382 
      8400   1.0325321      0              0              1.2390385      0.0041301284 
      8450   1.0171782      0              0              1.2206138      0.0040687128 
      8500   0.99331204     0              0              1.1919744      0.0039732482 
      8550   1.0487207      0              0              1.2584648      0.0041948828 
      8600   1.1390633      0              0              1.3668759      0.0045562531 
      8650   1.1433443      0              0              1.3720132      0.0045733772 
      8700   1.0970881      0              0              1.3165057      0.0043883524 
      8750   1.0960389      0              0              1.3152467      0.0043841557 
      8800   1.0641804      0              0              1.2770165      0.0042567217 
      8850   1.1641021      0              0              1.3969226      0.0046564086 
      8900   1.1832209      0              0              1.4198651      0.0047328836 
      8950   1.0964904      0              0              1.3157884      0.0043859614 
      9000   1.059278       0              0              1.2711336      0.0042371119 
      9050   1.0478829      0              0              1.2574595      0.0041915315 
      9100   1.0367241      0              0              1.2440689      0.0041468962 
      9150   1.0505416      0              0              1.2606499      0.0042021663 
      9200   1.0967467      0              0              1.316096       0.0043869867 
      9250   1.0362243      0              0              1.2434691      0.0041448972 
      9300   1.1694145      0              0              1.4032974      0.004677658  
      9350   1.2449971      0              0              1.4939966      0.0049799885 
      9400   1.4116719      0              0              1.6940063      0.0056466877 
      9450   1.3958888      0              0              1.6750665      0.0055835551 
      9500   1.4266001      0              0              1.7119201      0.0057064005 
      9550   1.3361854      0              0              1.6034224      0.0053447415 
      9600   1.3286723      0              0              1.5944068      0.0053146893 
      9650   1.4071119      0              0              1.6885342      0.0056284475 
      9700   1.4232434      0              0              1.7078921      0.0056929737 
      9750   1.4534014      0              0              1.7440817      0.0058136057 
      9800   1.4219082      0              0              1.7062898      0.0056876326 
      9850   1.4059024      0              0              1.6870829      0.0056236097 
      9900   1.5150458      0              0              1.818055       0.0060601832 
      9950   1.6229725      0              0              1.947567       0.00649189   
     10000   1.666308       0              0              1.9995696      0.0066652319 
     10050   1.6765239      0              0              2.0118286      0.0067060954 
     10100   1.6267895      0              0              1.9521474      0.006507158  
     10150   1.5900537      0              0              1.9080645      0.006360215  
     10200   1.5922144      0              0              1.9106573      0.0063688576 
     10250   1.668823       0              0              2.0025875      0.0066752918 
     10300   1.5651535      0              0              1.8781842      0.006260614  
     10350   1.5805629      0              0              1.8966754      0.0063222514 
     10400   1.500741       0              0              1.8008892      0.0060029638 
     10450   1.4511515      0              0              1.7413818      0.005804606  
     10500   1.43779        0              0              1.725348       0.00575116   
     10550   1.32929        0              0              1.595148       0.00531716   
     10600   1.2772949      0              0              1.5327539      0.0051091797 
     10650   1.2525199      0              0              1.5030239      0.0050100796 
     10700   1.3281879      0              0              1.5938255      0.0053127517 
     10750   1.3122325      0              0              1.5746789      0.0052489298 
     10800   1.3050549      0              0              1.5660659      0.0052202196 
     10850   1.3827777      0              0              1.6593333      0.0055311109 
     10900   1.2867706      0              0              1.5441247      0.0051470823 
     10950   1.1932764      0              0              1.4319317      0.0047731056 
     11000   1.2349571      0              0              1.4819485      0.0049398283 
     11050   1.2491363      0              0              1.4989635      0.0049965451 
     11100   1.1785126      0              0              1.4142151      0.0047140502 
     11150   1.3308576      0              0              1.5970292      0.0053234306 
     11200   1.3378529      0              0              1.6054235      0.0053514117 
     11250   1.3758786      0              0              1.6510544      0.0055035146 
     11300   1.4494908      0              0              1.739389       0.0057979633 
     11350   1.4821211      0              0              1.7785453      0.0059284842 
     11400   1.4990876      0              0              1.7989052      0.0059963505 
     11450   1.48943        0              0              1.787316       0.0059577199 
     11500   1.4737578      0              0              1.7685094      0.0058950313 
     11550   1.3987004      0              0              1.6784405      0.0055948017 
     11600   1.3729729      0              0              1.6475675      0.0054918917 
     11650   1.3438133      0              0              1.612576       0.0053752532 
     11700   1.3680748      0              0              1.6416898      0.0054722993 
     11750   1.3907649      0              0              1.6689179      0.0055630595 
     11800   1.5199719      0              0              1.8239662      0.0060798874 
     11850   1.4832338      0              0              1.7798805      0.0059329351 
     11900   1.5980269      0              0              1.9176322      0.0063921075 
     11950   1.5017983      0              0              1.802158       0.0060071933 
     12000   1.5458652      0              0              1.8550383      0.0061834609 
     12050   1.5696857      0              0              1.8836228      0.0062787426 
     12100   1.5194733      0              0              1.8233679      0.0060778931 
     12150   1.5018888      0              0              1.8022666      0.0060075553 
     12200   1.4254034      0              0              1.7104841      0.0057016136 
     12250   1.3886728      0              0              1.6664073      0.0055546911 
     12300   1.3135623      0              0              1.5762747      0.005254249  
     12350   1.33121        0              0              1.597452       0.00532484   
     12400   1.2446398      0              0              1.4935678      0.0049785592 
     12450   1.2737313      0              0              1.5284775      0.005094925  
     12500   1.2433408      0              0              1.4920089      0.004973363  
     12550   1.24892        0              0              1.498704       0.0049956801 
     12600   1.3523415      0              0              1.6228098      0.005409366  
     12650   1.4130347      0              0              1.6956417      0.0056521389 
     12700   1.369782       0              0              1.6437384      0.0054791279 
     12750   1.3736199      0              0              1.6483439      0.0054944796 
     12800   1.4843662      0              0              1.7812395      0.0059374648 
     12850   1.5180137      0              0              1.8216165      0.006072055  
     12900   1.4864726      0              0              1.7837672      0.0059458905 
     12950   1.3814599      0              0              1.6577519      0.0055258397 
     13000   1.3382656      0              0              1.6059187      0.0053530625 
     13050   1.3341557      0              0              1.6009869      0.0053366229 
     13100   1.4033735      0              0              1.6840482      0.0056134939 
     13150   1.3811458      0              0              1.6573749      0.005524583  
     13200   1.3789163      0              0              1.6546996      0.0055156653 
     13250   1.3892744      0              0              1.6671293      0.0055570976 
     13300   1.3149951      0              0              1.5779941      0.0052599803 
     13350   1.2600603      0              0              1.5120724      0.0050402413 
     13400   1.3071852      0              0              1.5686222      0.0052287407 
     13450   1.2344347      0              0              1.4813217      0.0049377389 
     13500   1.2628232      0              0              1.5153879      0.0050512929 
     13550   1.1075749      0              0              1.3290898      0.0044302994 
     13600   1.1465997      0              0              1.3759197      0.0045863989 
     13650   1.1797595      0              0              1.4157114      0.004719038  
     13700   1.1153498      0              0              1.3384197      0.0044613991 
     13750   1.1008571      0              0              1.3210285      0.0044034285 
     13800   1.1211866      0              0              1.3454239      0.0044847463 
     13850   1.161971       0              0              1.3943652      0.0046478841 
     13900   1.2653222      0              0              1.5183866      0.0050612887 
     13950   1.1937496      0              0              1.4324995      0.0047749985 
     14000   1.3102881      0              0              1.5723457      0.0052411523 
     14050   1.2828079      0              0              1.5393695      0.0051312317 
     14100   1.2692735      0              0              1.5231283      0.0050770942 
     14150   1.2240532      0              0              1.4688638      0.0048962127 
     14200   1.2409146      0              0              1.4890976      0.0049636585 
     14250   1.2488094      0              0              1.4985712      0.0049952374 
     14300   1.2678826      0              0              1.5214591      0.0050715302 
     14350   1.3048406      0              0              1.5658088      0.0052193625 
     14400   1.1963393      0              0              1.4356072      0.0047853573 
     14450   1.1461729      0              0              1.3754074      0.0045846914 
     14500   1.0786066      0              0              1.2943279      0.0043144262 
     14550   1.1288121      0              0              1.3545745      0.0045152482 
     14600   1.1249125      0              0              1.349895       0.0044996499 
     14650   1.0795746      0              0              1.2954895      0.0043182983 
     14700   0.95213921     0              0              1.1425671      0.0038085569 
     14750   0.98186511     0              0              1.1782381      0.0039274605 
     14800   0.97037819     0              0              1.1644538      0.0038815128 
     14850   0.91094764     0              0              1.0931372      0.0036437906 
     14900   0.89138209     0              0              1.0696585      0.0035655284 
     14950   0.84119817     0              0              1.0094378      0.0033647927 
     15000   0.89068528     0              0              1.0688223      0.0035627411 
     15050   0.84131163     0              0              1.009574       0.0033652465 
     15100   0.82381917     0              0              0.988583       0.0032952767 
     15150   0.93279473     0              0              1.1193537      0.0037311789 
     15200   0.86694599     0              0              1.0403352      0.0034677839 
     15250   0.82036577     0              0              0.98443893     0.0032814631 
     15300   0.79800115     0              0              0.95760138     0.0031920046 
     15350   0.77936129     0              0              0.93523355     0.0031174452 
     15400   0.74228218     0              0              0.89073861     0.0029691287 
     15450   0.81270643     0              0              0.97524771     0.0032508257 
     15500   0.80601276     0              0              0.96721532     0.0032240511 
     15550   0.86483315     0              0              1.0377998      0.0034593326 
     15600   0.86836188     0              0              1.0420343      0.0034734475 
     15650   0.84815841     0              0              1.0177901      0.0033926337 
     15700   0.92399199     0              0              1.1087904      0.003695968  
     15750   0.97111436     0              0              1.1653372      0.0038844575 
     15800   0.98229836     0              0              1.178758       0.0039291934 
     15850   1.0280356      0              0              1.2336428      0.0041121425 
     15900   0.9469727      0              0              1.1363672      0.0037878908 
     15950   0.95985914     0              0              1.151831       0.0038394366 
     16000   1.1453905      0              0              1.3744686      0.004581562  
     16050   1.1098614      0              0              1.3318337      0.0044394457 
     16100   1.1179123      0              0              1.3414947      0.0044716491 
     16150   1.1387431      0              0              1.3664918      0.0045549725 
     16200   1.0443341      0              0              1.2532009      0.0041773363 
     16250   1.0528536      0              0              1.2634243      0.0042114145 
     16300   1.0512337      0              0              1.2614804      0.0042049347 
     16350   1.0524159      0              0              1.2628991      0.0042096637 
     16400   0.98633149     0              0              1.1835978      0.003945326  
     16450   1.0690263      0              0              1.2828316      0.0042761053 
     16500   1.1087876      0              0              1.3305452      0.0044351506 
     16550   1.0752209      0              0              1.2902651      0.0043008836 
     16600   1.0441408      0              0              1.2529689      0.0041765631 
     16650   1.0731166      0              0              1.28774        0.0042924665 
     16700   1.0487314      0              0              1.2584777      0.0041949256 
     16750   1.0997009      0              0              1.3196411      0.0043988038 
     16800   0.98848635     0              0              1.1861836      0.0039539454 
     16850   0.92564927     0              0              1.1107791      0.0037025971 
     16900   0.87051112     0              0              1.0446133      0.0034820445 
     16950   0.84379414     0              0              1.012553       0.0033751766 
     17000   0.75832098     0              0              0.90998517     0.0030332839 
     17050   0.74153849     0              0              0.88984619     0.002966154  
     17100   0.82059919     0              0              0.98471902     0.0032823967 
     17150   0.81816913     0              0              0.98180296     0.0032726765 
     17200   0.80501645     0              0              0.96601974     0.0032200658 
     17250   0.82951829     0              0              0.99542195     0.0033180732 
     17300   0.90388308     0              0              1.0846597      0.0036155323 
     17350   0.96067077     0              0              1.1528049      0.0038426831 
     17400   1.0523311      0              0              1.2627973      0.0042093245 
     17450   1.0479014      0              0              1.2574817      0.0041916057 
     17500   1.1107405      0              0              1.3328886      0.0044429619 
     17550   1.1233515      0              0              1.3480218      0.0044934061 
     17600   1.1108661      0              0              1.3330393      0.0044434643 
     17650   1.1064975      0              0              1.327797       0.00442599   
     17700   1.0523859      0              0              1.2628631      0.0042095438 
     17750   0.98770671     0              0              1.1852481      0.0039508268 
     17800   0.95091889     0              0              1.1411027      0.0038036756 
     17850   0.91529102     0              0              1.0983492      0.0036611641 
     17900   0.80902759     0              0              0.97083311     0.0032361104 
     17950   0.79229924     0              0              0.95075909     0.003169197  
     18000   0.77032862     0              0              0.92439435     0.0030813145 
     18050   0.81050841     0              0              0.9726101      0.0032420337 
     18100   0.85198558     0              0              1.0223827      0.0034079423 
     18150   0.87577646     0              0              1.0509318      0.0035031059 
     18200   0.98180834     0              0              1.17817        0.0039272334 
     18250   1.0082969      0              0              1.2099563      0.0040331878 
     18300   1.1404162      0              0              1.3684994      0.0045616647 
     18350   1.0993604      0              0              1.3192325      0.0043974415 
     18400   1.1277182      0              0              1.3532619      0.0045108729 
     18450   1.1230991      0              0              1.3477189      0.0044923962 
     18500   1.095957       0              0              1.3151483      0.0043838278 
     18550   1.216554       0              0              1.4598648      0.004866216  
     18600   1.3013581      0              0              1.5616297      0.0052054322 
     18650   1.3415141      0              0              1.609817       0.0053660566 
     18700   1.40722        0              0              1.688664       0.00562888   
     18750   1.3943136      0              0              1.6731764      0.0055772546 
     18800   1.4181188      0              0              1.7017426      0.0056724753 
     18850   1.3549814      0              0              1.6259777      0.0054199258 
     18900   1.279993       0              0              1.5359916      0.0051199721 
     18950   1.2029562      0              0              1.4435474      0.0048118247 
     19000   1.168899       0              0              1.4026788      0.004675596  
     19050   1.2840819      0              0              1.5408983      0.0051363278 
     19100   1.1946986      0              0              1.4336383      0.0047787944 
     19150   1.1623335      0              0              1.3948002      0.0046493339 
     19200   1.0770679      0              0              1.2924815      0.0043082717 
     19250   1.0499288      0              0              1.2599146      0.0041997154 
     19300   1.0804883      0              0              1.296586       0.0043219532 
     19350   1.0666539      0              0              1.2799847      0.0042666156 
     19400   1.0337566      0              0              1.240508       0.0041350265 
     19450   1.1135729      0              0              1.3362875      0.0044542915 
     19500   1.0820348      0              0              1.2984418      0.0043281393 
     19550   1.0841183      0              0              1.300942       0.0043364733 
     19600   1.0755861      0              0              1.2907033      0.0043023444 
     19650   1.0571025      0              0              1.268523       0.0042284101 
     19700   1.113411       0              0              1.3360932      0.004453644  
     19750   1.1614201      0              0              1.3937041      0.0046456804 
     19800   1.2195339      0              0              1.4634407      0.0048781355 
     19850   1.1248678      0              0              1.3498414      0.0044994713 
     19900   1.0787964      0              0              1.2945556      0.0043151854 
     19950   1.0532252      0              0              1.2638702      0.0042129008 
     20000   1.0524032      0              0              1.2628839      0.0042096129 
     20050   1.0993007      0              0              1.3191609      0.0043972029 
     20100   1.1261687      0              0              1.3514024      0.0045046747 
     20150   1.1744854      0              0              1.4093825      0.0046979415 
     20200   1.1768247      0              0              1.4121897      0.004707299  
     20250   1.3849213      0              0              1.6619056      0.0055396853 
     20300   1.4103193      0              0              1.6923831      0.0056412771 
     20350   1.4206847      0              0              1.7048217      0.0056827389 
     20400   1.384956       0              0              1.6619472      0.0055398241 
     20450   1.3835184      0              0              1.6602221      0.0055340736 
     20500   1.3667375      0              0              1.640085       0.00546695   
     20550   1.4503205      0              0              1.7403846      0.0058012821 
     20600   1.4468883      0              0              1.7362659      0.0057875531 
     20650   1.5042368      0              0              1.8050842      0.0060169473 
     20700   1.6290312      0              0              1.9548375      0.006516125  
     20750   1.7296379      0              0              2.0755655      0.0069185516 
     20800   1.8024498      0              0              2.1629397      0.0072097992 
     20850   1.8731219      0              0              2.2477463      0.0074924876 
     20900   1.8843836      0              0              2.2612604      0.0075375346 
     20950   1.8523323      0              0              2.2227987      0.0074093291 
     21000   1.7921205      0              0              2.1505446      0.007168482  
     21050   1.7097242      0              0              2.051669       0.0068388968 
     21100   1.5758533      0              0              1.8910239      0.006303413  
     21150   1.581596       0              0              1.8979152      0.0063263841 
     21200   1.646037       0              0              1.9752444      0.0065841479 
     21250   1.6002149      0              0              1.9202579      0.0064008597 
     21300   1.6139829      0              0              1.9367795      0.0064559316 
     21350   1.55093        0              0              1.861116       0.0062037199 
     21400   1.5274653      0              0              1.8329583      0.0061098611 
     21450   1.4346317      0              0              1.7215581      0.0057385269 
     21500   1.3125507      0              0              1.5750609      0.005250203  
     21550   1.2481553      0              0              1.4977864      0.0049926213 
     21600   1.2884028      0              0              1.5460833      0.0051536111 
     21650   1.2508664      0              0              1.5010396      0.0050034655 
     21700   1.1524195      0              0              1.3829034      0.004609678  
     21750   1.1752856      0              0              1.4103427      0.0047011423 
     21800   1.2066598      0              0              1.4479917      0.0048266391 
     21850   1.2109704      0              0              1.4531645      0.0048438817 
     21900   1.2673428      0              0              1.5208114      0.0050693713 
     21950   1.2081894      0              0              1.4498273      0.0048327576 
     22000   1.1166982      0              0              1.3400379      0.004466793  
     22050   1.1409956      0              0              1.3691948      0.0045639826 
     22100   1.2652269      0              0              1.5182723      0.0050609076 
     22150   1.2309273      0              0              1.4771128      0.0049237092 
     22200   1.1976726      0              0              1.4372072      0.0047906905 
     22250   1.1817741      0              0              1.4181289      0.0047270962 
     22300   1.1709368      0              0              1.4051242      0.0046837472 
     22350   1.2017436      0              0              1.4420923      0.0048069743 
     22400   1.1624128      0              0              1.3948954      0.0046496513 
     22450   1.0066273      0              0              1.2079527      0.0040265091 
     22500   1.0317588      0              0              1.2381106      0.0041270354 
     22550   0.90037185     0              0              1.0804462      0.0036014874 
     22600   0.87903235     0              0              1.0548388      0.0035161294 
     22650   0.85445604     0              0              1.0253473      0.0034178242 
     22700   0.82632524     0              0              0.99159029     0.003305301  
     22750   0.82271125     0              0              0.9872535      0.003290845  
     22800   0.80970441     0              0              0.9716453      0.0032388177 
     22850   0.72110471     0              0              0.86532566     0.0028844189 
     22900   0.78312962     0              0              0.93975554     0.0031325185 
     22950   0.78987942     0              0              0.94785531     0.0031595177 
     23000   0.75917523     0              0              0.91101028     0.0030367009 
     23050   0.78783041     0              0              0.94539649     0.0031513216 
     23100   0.74142604     0              0              0.88971124     0.0029657041 
     23150   0.77003113     0              0              0.92403735     0.0030801245 
     23200   0.7672673      0              0              0.92072076     0.0030690692 
     23250   0.77766648     0              0              0.93319977     0.0031106659 
     23300   0.71158473     0              0              0.85390168     0.0028463389 
     23350   0.77000537     0              0              0.92400644     0.0030800215 
     23400   0.7314081      0              0              0.87768972     0.0029256324 
     23450   0.7057409      0              0              0.84688908     0.0028229636 
     23500   0.72762801     0              0              0.87315361     0.002910512  
     23550   0.78124641     0              0              0.93749569     0.0031249856 
     23600   0.78627408     0              0              0.94352889     0.0031450963 
     23650   0.76572356     0              0              0.91886827     0.0030628942 
     23700   0.86292284     0              0              1.0355074      0.0034516913 
     23750   0.85847376     0              0              1.0301685      0.003433895  
     23800   0.85697149     0              0              1.0283658      0.003427886  
     23850   0.82398605     0              0              0.98878326     0.0032959442 
     23900   0.87987279     0              0              1.0558473      0.0035194911 
     23950   0.89176952     0              0              1.0701234      0.0035670781 
     24000   0.99475105     0              0              1.1937013      0.0039790042 
     24050   1.0026516      0              0              1.2031819      0.0040106065 
     24100   0.95505475     0              0              1.1460657      0.003820219  
     24150   1.0009929      0              0              1.2011914      0.0040039714 
     24200   1.0421358      0              0              1.250563       0.0041685433 
     24250   1.1300839      0              0              1.3561007      0.0045203356 
     24300   1.1810854      0              0              1.4173025      0.0047243415 
     24350   1.206903       0              0              1.4482836      0.004827612  
     24400   1.1390249      0              0              1.3668298      0.0045560994 
     24450   1.010232       0              0              1.2122784      0.0040409279 
     24500   0.95742404     0              0              1.1489088      0.0038296961 
     24550   1.018864       0              0              1.2226367      0.0040754558 
     24600   1.0031008      0              0              1.203721       0.0040124033 
     24650   0.98551807     0              0              1.1826217      0.0039420723 
     24700   0.93665894     0              0              1.1239907      0.0037466358 
     24750   0.95094439     0              0              1.1411333      0.0038037776 
     24800   1.1023618      0              0              1.3228341      0.0044094471 
     24850   1.1702313      0              0              1.4042775      0.004680925  
     24900   1.1935322      0              0              1.4322387      0.004774129  
     24950   1.1511189      0              0              1.3813427      0.0046044757 
     25000   1.2158582      0              0              1.4590298      0.0048634326 
     25050   1.2115096      0              0              1.4538115      0.0048460383 
     25100   1.1378185      0              0              1.3653822      0.0045512739 
     25150   1.2090188      0              0              1.4508225      0.0048360751 
     25200   1.2976448      0              0              1.5571738      0.0051905793 
     25250   1.2861972      0              0              1.5434367      0.005144789  
     25300   1.3461347      0              0              1.6153617      0.005384539  
     25350   1.2643706      0              0              1.5172447      0.0050574822 
     25400   1.2599909      0              0              1.511989       0.0050399635 
     25450   1.2540347      0              0              1.5048417      0.005016139  
     25500   1.2788513      0              0              1.5346215      0.0051154051 
     25550   1.2095423      0              0              1.4514507      0.0048381691 
     25600   1.1534029      0              0              1.3840835      0.0046136115 
     25650   1.1091748      0              0              1.3310098      0.0044366992 
     25700   1.0868387      0              0              1.3042064      0.0043473547 
     25750   1.0577483      0              0              1.269298       0.0042309933 
     25800   1.0108888      0              0              1.2130666      0.0040435553 
     25850   1.0952707      0              0              1.3143248      0.0043810827 
     25900   1.0096717      0              0              1.2116061      0.0040386868 
     25950   1.0827785      0              0              1.2993343      0.0043311142 
     26000   1.1081995      0              0              1.3298394      0.0044327981 
     26050   1.0213882      0              0              1.2256658      0.0040855526 
     26100   1.0165709      0              0              1.2198851      0.0040662835 
     26150   1.1028527      0              0              1.3234232      0.0044114107 
     26200   1.177249       0              0              1.4126988      0.0047089959 
     26250   1.3446797      0              0              1.6136156      0.0053787187 
     26300   1.2790515      0              0              1.5348618      0.0051162058 
     26350   1.2483746      0              0              1.4980495      0.0049934984 
     26400   1.2348792      0              0              1.481855       0.0049395166 
     26450   1.1337326      0              0              1.3604791      0.0045349304 
     26500   1.0824172      0              0              1.2989006      0.0043296687 
     26550   1.0917875      0              0              1.310145       0.0043671499 
     26600   1.1427644      0              0              1.3713173      0.0045710578 
     26650   1.1594854      0              0              1.3913825      0.0046379416 
     26700   1.0783574      0              0              1.2940289      0.0043134297 
     26750   1.0300916      0              0              1.2361099      0.0041203662 
     26800   0.95021709     0              0              1.1402605      0.0038008684 
     26850   0.96126711     0              0              1.1535205      0.0038450685 
     26900   0.99190075     0              0              1.1902809      0.003967603  
     26950   0.96125823     0              0              1.1535099      0.0038450329 
     27000   0.97518878     0              0              1.1702265      0.0039007551 
     27050   1.0656928      0              0              1.2788314      0.0042627713 
     27100   1.1250164      0              0              1.3500197      0.0045000657 
     27150   1.1543694      0              0              1.3852432      0.0046174774 
     27200   1.1221482      0              0              1.3465778      0.0044885928 
     27250   1.1264258      0              0              1.351711       0.0045057033 
     27300   1.133856       0              0              1.3606272      0.0045354239 
     27350   1.1994273      0              0              1.4393127      0.0047977091 
     27400   1.2235359      0              0              1.468243       0.0048941434 
     27450   1.2674656      0              0              1.5209587      0.0050698625 
     27500   1.2849606      0              0              1.5419527      0.0051398423 
     27550   1.2881505      0              0              1.5457806      0.0051526018 
     27600   1.3188296      0              0              1.5825955      0.0052753182 
     27650   1.4557148      0              0              1.7468577      0.0058228592 
     27700   1.4300607      0              0              1.7160729      0.0057202429 
     27750   1.4092532      0              0              1.6911039      0.005637013  
     27800   1.4034799      0              0              1.6841759      0.0056139197 
     27850   1.4548387      0              0              1.7458065      0.005819355  
     27900   1.469125       0              0              1.7629501      0.0058765002 
     27950   1.5128862      0              0              1.8154634      0.0060515448 
     28000   1.2830589      0              0              1.5396707      0.0051322357 
     28050   1.4233623      0              0              1.7080348      0.0056934493 
     28100   1.3813226      0              0              1.6575871      0.0055252903 
     28150   1.4174293      0              0              1.7009152      0.0056697172 
     28200   1.3188306      0              0              1.5825967      0.0052753225 
     28250   1.2984278      0              0              1.5581134      0.0051937112 
     28300   1.284879       0              0              1.5418548      0.0051395159 
     28350   1.2906252      0              0              1.5487503      0.0051625008 
     28400   1.2662498      0              0              1.5194997      0.0050649991 
     28450   1.1974115      0              0              1.4368938      0.0047896458 
     28500   1.22947        0              0              1.475364       0.0049178799 
     28550   1.1310524      0              0              1.3572629      0.0045242097 
     28600   1.2247007      0              0              1.4696408      0.0048988028 
     28650   1.1828168      0              0              1.4193801      0.004731267  
     28700   1.1598007      0              0              1.3917608      0.0046392027 
     28750   1.1158659      0              0              1.3390391      0.0044634638 
     28800   1.1175592      0              0              1.3410711      0.0044702369 
     28850   1.1255647      0              0              1.3506776      0.0045022588 
     28900   1.1345232      0              0              1.3614278      0.0045380928 
     28950   1.0647175      0              0              1.277661       0.0042588701 
     29000   1.094894       0              0              1.3138727      0.0043795758 
     29050   1.0799543      0              0              1.2959452      0.0043198172 
     29100   1.0060532      0              0              1.2072639      0.0040242129 
     29150   1.0039083      0              0              1.2046899      0.0040156331 
     29200   1.0002176      0              0              1.2002611      0.0040008703 
     29250   0.92716833     0              0              1.112602       0.0037086733 
     29300   1.0097083      0              0              1.2116499      0.004038833  
     29350   0.92994489     0              0              1.1159339      0.0037197796 
     29400   0.94509202     0              0              1.1341104      0.0037803681 
     29450   0.85506026     0              0              1.0260723      0.003420241  
     29500   0.88705983     0              0              1.0644718      0.0035482393 
     29550   0.94624708     0              0              1.1354965      0.0037849883 
     29600   0.94215672     0              0              1.1305881      0.0037686269 
     29650   0.9489499      0              0              1.1387399      0.0037957996 
     29700   0.98014442     0              0              1.1761733      0.0039205777 
     29750   0.93000961     0              0              1.1160115      0.0037200384 
     29800   0.85648556     0              0              1.0277827      0.0034259423 
     29850   0.89560038     0              0              1.0747205      0.0035824015 
     29900   0.88492397     0              0              1.0619088      0.0035396959 
     29950   0.86782193     0              0              1.0413863      0.0034712877 
     30000   0.9004348      0              0              1.0805218      0.0036017392 
     30050   0.78796353     0              0              0.94555624     0.0031518541 
     30100   0.78869043     0              0              0.94642852     0.0031547617 
     30150   0.86629644     0              0              1.0395557      0.0034651858 
     30200   1.0001341      0              0              1.2001609      0.0040005364 
     30250   0.95078153     0              0              1.1409378      0.0038031261 
     30300   0.91593803     0              0              1.0991256      0.0036637521 
     30350   0.82548784     0              0              0.9905854      0.0033019513 
     30400   0.87720428     0              0              1.0526451      0.0035088171 
     30450   0.97877843     0              0              1.1745341      0.0039151137 
     30500   0.97398847     0              0              1.1687862      0.0038959539 
     30550   0.96311617     0              0              1.1557394      0.0038524647 
     30600   0.94952167     0              0              1.139426       0.0037980867 
     30650   1.048003       0              0              1.2576036      0.004192012  
     30700   1.0547881      0              0              1.2657457      0.0042191523 
     30750   0.9157893      0              0              1.0989472      0.0036631572 
     30800   0.89545271     0              0              1.0745432      0.0035818108 
     30850   0.81581363     0              0              0.97897635     0.0032632545 
     30900   0.69047954     0              0              0.82857544     0.0027619181 
     30950   0.68774262     0              0              0.82529114     0.0027509705 
     31000   0.66210732     0              0              0.79452878     0.0026484293 
     31050   0.71373231     0              0              0.85647878     0.0028549293 
     31100   0.77249918     0              0              0.92699902     0.0030899967 
     31150   0.78835605     0              0              0.94602726     0.0031534242 
     31200   0.75952039     0              0              0.91142447     0.0030380816 
     31250   0.7724238      0              0              0.92690856     0.0030896952 
     31300   0.91328159     0              0              1.0959379      0.0036531264 
     31350   0.98417958     0              0              1.1810155      0.0039367183 
     31400   0.87671584     0              0              1.052059       0.0035068633 
     31450   0.89611849     0              0              1.0753422      0.003584474  
     31500   0.89726276     0              0              1.0767153      0.003589051  
     31550   0.90946828     0              0              1.0913619      0.0036378731 
     31600   0.87186445     0              0              1.0462373      0.0034874578 
     31650   0.86403512     0              0              1.0368421      0.0034561405 
     31700   0.85440434     0              0              1.0252852      0.0034176174 
     31750   0.81626358     0              0              0.9795163      0.0032650543 
     31800   0.73534495     0              0              0.88241394     0.0029413798 
     31850   0.81000659     0              0              0.97200791     0.0032400264 
     31900   0.82964515     0              0              0.99557418     0.0033185806 
     31950   0.89693889     0              0              1.0763267      0.0035877556 
     32000   0.92156033     0              0              1.1058724      0.0036862413 
     32050   0.95469938     0              0              1.1456393      0.0038187975 
     32100   0.87690612     0              0              1.0522873      0.0035076245 
     32150   0.9161711      0              0              1.0994053      0.0036646844 
     32200   0.83243474     0              0              0.99892168     0.0033297389 
     32250   0.88747239     0              0              1.0649669      0.0035498896 
     32300   0.84139386     0              0              1.0096726      0.0033655754 
     32350   0.83827739     0              0              1.0059329      0.0033531096 
     32400   0.85368003     0              0              1.024416       0.0034147201 
     32450   0.86972366     0              0              1.0436684      0.0034788946 
     32500   0.89286434     0              0              1.0714372      0.0035714574 
     32550   0.9170295      0              0              1.1004354      0.003668118  
     32600   0.94482535     0              0              1.1337904      0.0037793014 
     32650   0.97442899     0              0              1.1693148      0.0038977159 
     32700   1.0103178      0              0              1.2123814      0.0040412713 
     32750   0.9911599      0              0              1.1893919      0.0039646396 
     32800   0.96390214     0              0              1.1566826      0.0038556086 
     32850   0.96604419     0              0              1.159253       0.0038641768 
     32900   1.0205387      0              0              1.2246464      0.0040821548 
     32950   1.0234276      0              0              1.2281131      0.0040937102 
     33000   1.0426747      0              0              1.2512096      0.0041706987 
     33050   1.1862676      0              0              1.4235211      0.0047450702 
     33100   1.2140823      0              0              1.4568987      0.004856329  
     33150   1.2252902      0              0              1.4703482      0.0049011608 
     33200   1.2040281      0              0              1.4448337      0.0048161123 
     33250   1.1507735      0              0              1.3809282      0.0046030939 
     33300   0.97941774     0              0              1.1753013      0.0039176709 
     33350   0.95120428     0              0              1.1414451      0.0038048171 
     33400   0.90940752     0              0              1.091289       0.0036376301 
     33450   0.85304273     0              0              1.0236513      0.0034121709 
     33500   0.8000331      0              0              0.96003972     0.0032001324 
     33550   0.80184146     0              0              0.96220975     0.0032073658 
     33600   0.81026294     0              0              0.97231552     0.0032410517 
     33650   0.82080549     0              0              0.98496659     0.003283222  
     33700   0.82727937     0              0              0.99273525     0.0033091175 
     33750   0.82887433     0              0              0.9946492      0.0033154973 
     33800   0.80864547     0              0              0.97037456     0.0032345819 
     33850   0.83637276     0              0              1.0036473      0.003345491  
     33900   0.89615549     0              0              1.0753866      0.003584622  
     33950   0.87275611     0              0              1.0473073      0.0034910245 
     34000   0.90516823     0              0              1.0862019      0.0036206729 
     34050   0.89290727     0              0              1.0714887      0.0035716291 
     34100   0.87552226     0              0              1.0506267      0.003502089  
     34150   0.91419199     0              0              1.0970304      0.003656768  
     34200   0.94592583     0              0              1.135111       0.0037837033 
     34250   0.92813736     0              0              1.1137648      0.0037125494 
     34300   0.93484457     0              0              1.1218135      0.0037393783 
     34350   0.91356182     0              0              1.0962742      0.0036542473 
     34400   0.85842736     0              0              1.0301128      0.0034337094 
     34450   0.93225761     0              0              1.1187091      0.0037290304 
     34500   0.88166731     0              0              1.0580008      0.0035266693 
     34550   0.86485996     0              0              1.0378319      0.0034594398 
     34600   0.87391135     0              0              1.0486936      0.0034956454 
     34650   0.909943       0              0              1.0919316      0.003639772  
     34700   0.83492755     0              0              1.0019131      0.0033397102 
     34750   0.8660697      0              0              1.0392836      0.0034642788 
     34800   0.90700841     0              0              1.0884101      0.0036280336 
     34850   0.91152109     0              0              1.0938253      0.0036460844 
     34900   0.88643144     0              0              1.0637177      0.0035457258 
     34950   0.84561535     0              0              1.0147384      0.0033824614 
     35000   0.87206564     0              0              1.0464788      0.0034882625 
     35050   0.85097401     0              0              1.0211688      0.0034038961 
     35100   0.89186542     0              0              1.0702385      0.0035674617 
     35150   0.93049249     0              0              1.116591       0.00372197   
     35200   0.93787747     0              0              1.125453       0.0037515099 
     35250   0.91763293     0              0              1.1011595      0.0036705317 
     35300   0.90175538     0              0              1.0821065      0.0036070215 
     35350   0.89650491     0              0              1.0758059      0.0035860196 
     35400   0.9177872      0              0              1.1013446      0.0036711488 
     35450   0.94122357     0              0              1.1294683      0.0037648943 
     35500   0.98044656     0              0              1.1765359      0.0039217863 
     35550   0.92248695     0              0              1.1069843      0.0036899478 
     35600   0.8245771      0              0              0.98949252     0.0032983084 
     35650   0.76572728     0              0              0.91887274     0.0030629091 
     35700   0.79135945     0              0              0.94963134     0.0031654378 
     35750   0.8383954      0              0              1.0060745      0.0033535816 
     35800   0.89604762     0              0              1.0752571      0.0035841905 
     35850   0.94859744     0              0              1.1383169      0.0037943898 
     35900   0.97287643     0              0              1.1674517      0.0038915057 
     35950   0.98900987     0              0              1.1868118      0.0039560395 
     36000   0.90234213     0              0              1.0828106      0.0036093685 
     36050   0.96250285     0              0              1.1550034      0.0038500114 
     36100   0.92010565     0              0              1.1041268      0.0036804226 
     36150   0.93874712     0              0              1.1264965      0.0037549885 
     36200   0.88812912     0              0              1.0657549      0.0035525165 
     36250   0.95582525     0              0              1.1469903      0.003823301  
     36300   1.084279       0              0              1.3011349      0.0043371162 
     36350   1.1153434      0              0              1.3384121      0.0044613736 
     36400   1.1028619      0              0              1.3234342      0.0044114474 
     36450   1.2323579      0              0              1.4788295      0.0049294315 
     36500   1.0991627      0              0              1.3189952      0.0043966507 
     36550   1.1517829      0              0              1.3821394      0.0046071314 
     36600   1.2312577      0              0              1.4775092      0.0049250306 
     36650   1.2143778      0              0              1.4572533      0.0048575111 
     36700   1.247366       0              0              1.4968392      0.0049894639 
     36750   1.2812235      0              0              1.5374682      0.0051248939 
     36800   1.2383801      0              0              1.4860562      0.0049535205 
     36850   1.1760932      0              0              1.4113119      0.0047043729 
     36900   1.1221419      0              0              1.3465703      0.0044885678 
     36950   1.048423       0              0              1.2581076      0.0041936919 
     37000   1.1035654      0              0              1.3242785      0.0044142615 
     37050   1.0715129      0              0              1.2858154      0.0042860514 
     37100   1.1253306      0              0              1.3503967      0.0045013223 
     37150   1.1464963      0              0              1.3757956      0.0045859853 
     37200   1.133614       0              0              1.3603368      0.004534456  
     37250   1.2016149      0              0              1.4419379      0.0048064598 
     37300   1.3295052      0              0              1.5954063      0.0053180209 
     37350   1.2820723      0              0              1.5384867      0.0051282891 
     37400   1.4064774      0              0              1.6877729      0.0056259097 
     37450   1.4139744      0              0              1.6967693      0.0056558976 
     37500   1.3714355      0              0              1.6457225      0.0054857418 
     37550   1.3135911      0              0              1.5763093      0.0052543643 
     37600   1.3464193      0              0              1.6157031      0.0053856771 
     37650   1.3967322      0              0              1.6760787      0.0055869289 
     37700   1.5021218      0              0              1.8025461      0.0060084871 
     37750   1.5017887      0              0              1.8021465      0.0060071549 
     37800   1.4779331      0              0              1.7735197      0.0059117324 
     37850   1.5235419      0              0              1.8282503      0.0060941677 
     37900   1.4151325      0              0              1.698159       0.00566053   
     37950   1.4193303      0              0              1.7031963      0.0056773211 
     38000   1.3644136      0              0              1.6372963      0.0054576543 
     38050   1.3203697      0              0              1.5844437      0.0052814789 
     38100   1.3480167      0              0              1.61762        0.0053920666 
     38150   1.4459695      0              0              1.7351633      0.0057838778 
     38200   1.3842084      0              0              1.6610501      0.0055368338 
     38250   1.3394108      0              0              1.607293       0.0053576433 
     38300   1.3690045      0              0              1.6428054      0.0054760179 
     38350   1.2910211      0              0              1.5492254      0.0051640845 
     38400   1.2696192      0              0              1.523543       0.0050784766 
     38450   1.2807086      0              0              1.5368503      0.0051228344 
     38500   1.316101       0              0              1.5793212      0.0052644039 
     38550   1.3093011      0              0              1.5711614      0.0052372046 
     38600   1.263514       0              0              1.5162168      0.0050540559 
     38650   1.3272175      0              0              1.592661       0.0053088701 
     38700   1.3372709      0              0              1.6047251      0.0053490837 
     38750   1.2506803      0              0              1.5008164      0.0050027213 
     38800   1.1907764      0              0              1.4289317      0.0047631055 
     38850   1.1630781      0              0              1.3956938      0.0046523125 
     38900   1.2268033      0              0              1.472164       0.0049072132 
     38950   1.3708806      0              0              1.6450567      0.0054835222 
     39000   1.4217278      0              0              1.7060734      0.0056869113 
     39050   1.419603       0              0              1.7035236      0.005678412  
     39100   1.4600853      0              0              1.7521024      0.0058403413 
     39150   1.506538       0              0              1.8078456      0.0060261521 
     39200   1.5372277      0              0              1.8446732      0.0061489108 
     39250   1.5158366      0              0              1.819004       0.0060633465 
     39300   1.5419148      0              0              1.8502978      0.0061676593 
     39350   1.4536368      0              0              1.7443641      0.005814547  
     39400   1.5733617      0              0              1.8880341      0.006293447  
     39450   1.6180034      0              0              1.9416041      0.0064720137 
     39500   1.6180199      0              0              1.9416238      0.0064720794 
     39550   1.6774886      0              0              2.0129863      0.0067099542 
     39600   1.746423       0              0              2.0957076      0.0069856921 
     39650   1.6750486      0              0              2.0100584      0.0067001945 
     39700   1.6204276      0              0              1.9445132      0.0064817106 
     39750   1.6391049      0              0              1.9669259      0.0065564196 
     39800   1.7229657      0              0              2.0675589      0.0068918629 
     39850   1.5868838      0              0              1.9042606      0.0063475352 
     39900   1.5900471      0              0              1.9080565      0.0063601884 
     39950   1.4875416      0              0              1.7850499      0.0059501663 
     40000   1.5585841      0              0              1.8703009      0.0062343362 
     40050   1.5902526      0              0              1.9083031      0.0063610104 
     40100   1.6761687      0              0              2.0114024      0.0067046748 
     40150   1.6427403      0              0              1.9712883      0.0065709611 
     40200   1.5409046      0              0              1.8490855      0.0061636185 
     40250   1.4869811      0              0              1.7843774      0.0059479245 
     40300   1.3801348      0              0              1.6561618      0.0055205394 
     40350   1.3125081      0              0              1.5750098      0.0052500325 
     40400   1.3031634      0              0              1.563796       0.0052126535 
     40450   1.2742856      0              0              1.5291427      0.0050971424 
     40500   1.2351446      0              0              1.4821735      0.0049405783 
     40550   1.2979916      0              0              1.55759        0.0051919665 
     40600   1.2906712      0              0              1.5488054      0.0051626847 
     40650   1.2381926      0              0              1.4858311      0.0049527703 
     40700   1.2619852      0              0              1.5143822      0.0050479408 
     40750   1.3790169      0              0              1.6548202      0.0055160675 
     40800   1.4687969      0              0              1.7625563      0.0058751876 
     40850   1.3919064      0              0              1.6702877      0.0055676256 
     40900   1.3497464      0              0              1.6196957      0.0053989857 
     40950   1.478393       0              0              1.7740716      0.0059135718 
     41000   1.5418401      0              0              1.8502081      0.0061673604 
     41050   1.6242241      0              0              1.9490689      0.0064968965 
     41100   1.5697367      0              0              1.883684       0.0062789467 
     41150   1.5125243      0              0              1.8150292      0.0060500972 
     41200   1.4277775      0              0              1.713333       0.0057111099 
     41250   1.3831706      0              0              1.6598047      0.0055326823 
[...]
     89400   0.72899279     0              0              0.87479135     0.0029159712 
     89450   0.78452657     0              0              0.94143188     0.0031381063 
     89500   0.79135725     0              0              0.9496287      0.003165429  
     89550   0.74727683     0              0              0.8967322      0.0029891073 
     89600   0.72687155     0              0              0.87224586     0.0029074862 
     89650   0.72205136     0              0              0.86646164     0.0028882055 
     89700   0.73948228     0              0              0.88737874     0.0029579291 
     89750   0.72330442     0              0              0.8679653      0.0028932177 
     89800   0.67101676     0              0              0.80522011     0.002684067  
     89850   0.75030292     0              0              0.90036351     0.0030012117 
     89900   0.7406471      0              0              0.88877652     0.0029625884 
     89950   0.70904544     0              0              0.85085453     0.0028361818 
     90000   0.69367889     0              0              0.83241467     0.0027747156 
     90050   0.70192174     0              0              0.84230608     0.0028076869 
     90100   0.66383566     0              0              0.79660279     0.0026553426 
     90150   0.70936222     0              0              0.85123466     0.0028374489 
     90200   0.69723125     0              0              0.8366775      0.002788925  
     90250   0.78103791     0              0              0.93724549     0.0031241516 
     90300   0.83658031     0              0              1.0038964      0.0033463212 
     90350   0.80051652     0              0              0.96061983     0.0032020661 
     90400   0.79093725     0              0              0.9491247      0.003163749  
     90450   0.77154805     0              0              0.92585766     0.0030861922 
     90500   0.77110181     0              0              0.92532217     0.0030844072 
     90550   0.72710295     0              0              0.87252354     0.0029084118 
     90600   0.67144146     0              0              0.80572975     0.0026857658 
     90650   0.70563711     0              0              0.84676453     0.0028225484 
     90700   0.67300072     0              0              0.80760087     0.0026920029 
     90750   0.72838696     0              0              0.87406435     0.0029135478 
     90800   0.66101709     0              0              0.79322051     0.0026440684 
     90850   0.62465824     0              0              0.74958989     0.002498633  
     90900   0.61593902     0              0              0.73912682     0.0024637561 
     90950   0.54652908     0              0              0.6558349      0.0021861163 
     91000   0.53088572     0              0              0.63706287     0.0021235429 
     91050   0.5536755      0              0              0.6644106      0.002214702  
     91100   0.56394635     0              0              0.67673563     0.0022557854 
     91150   0.54928954     0              0              0.65914745     0.0021971582 
     91200   0.60533434     0              0              0.72640121     0.0024213374 
     91250   0.54502957     0              0              0.65403549     0.0021801183 
     91300   0.60976713     0              0              0.73172055     0.0024390685 
     91350   0.67083662     0              0              0.80500395     0.0026833465 
     91400   0.76521218     0              0              0.91825462     0.0030608487 
     91450   0.75647527     0              0              0.90777033     0.0030259011 
     91500   0.81289455     0              0              0.97547346     0.0032515782 
     91550   0.76293411     0              0              0.91552093     0.0030517364 
     91600   0.75698179     0              0              0.90837815     0.0030279272 
     91650   0.7856245      0              0              0.94274941     0.003142498  
     91700   0.73353369     0              0              0.88024043     0.0029341348 
     91750   0.74449708     0              0              0.8933965      0.0029779883 
     91800   0.7492905      0              0              0.8991486      0.002997162  
     91850   0.72886624     0              0              0.87463948     0.0029154649 
     91900   0.67774379     0              0              0.81329254     0.0027109751 
     91950   0.76019625     0              0              0.9122355      0.003040785  
     92000   0.79076935     0              0              0.94892322     0.0031630774 
     92050   0.80024395     0              0              0.96029274     0.0032009758 
     92100   0.73027878     0              0              0.87633454     0.0029211151 
     92150   0.86170857     0              0              1.0340503      0.0034468343 
     92200   0.8042412      0              0              0.96508944     0.0032169648 
     92250   0.79916226     0              0              0.95899471     0.003196649  
     92300   0.74493313     0              0              0.89391976     0.0029797325 
     92350   0.73360024     0              0              0.88032029     0.002934401  
     92400   0.70060662     0              0              0.84072794     0.0028024265 
     92450   0.76286906     0              0              0.91544287     0.0030514762 
     92500   0.73938917     0              0              0.887267       0.0029575567 
     92550   0.73107288     0              0              0.87728746     0.0029242915 
     92600   0.75617683     0              0              0.9074122      0.0030247073 
     92650   0.78821612     0              0              0.94585934     0.0031528645 
     92700   0.79580885     0              0              0.95497062     0.0031832354 
     92750   0.85710532     0              0              1.0285264      0.0034284213 
     92800   0.81831396     0              0              0.98197675     0.0032732558 
     92850   0.86634957     0              0              1.0396195      0.0034653983 
     92900   0.9121691      0              0              1.0946029      0.0036486764 
     92950   0.86962612     0              0              1.0435513      0.0034785045 
     93000   0.86844104     0              0              1.0421292      0.0034737642 
     93050   0.87747895     0              0              1.0529747      0.0035099158 
     93100   0.93092463     0              0              1.1171096      0.0037236985 
     93150   0.87038158     0              0              1.0444579      0.0034815263 
     93200   0.80242668     0              0              0.96291201     0.0032097067 
     93250   0.80377173     0              0              0.96452608     0.0032150869 
     93300   0.83546278     0              0              1.0025553      0.0033418511 
     93350   0.88293183     0              0              1.0595182      0.0035317273 
     93400   0.8728687      0              0              1.0474424      0.0034914748 
     93450   0.85457524     0              0              1.0254903      0.0034183009 
     93500   0.81973359     0              0              0.98368031     0.0032789344 
     93550   0.81514003     0              0              0.97816804     0.0032605601 
     93600   0.77526411     0              0              0.93031694     0.0031010565 
     93650   0.68491238     0              0              0.82189485     0.0027396495 
     93700   0.68092122     0              0              0.81710546     0.0027236849 
     93750   0.63918466     0              0              0.76702159     0.0025567386 
     93800   0.76087215     0              0              0.91304658     0.0030434886 
     93850   0.71555088     0              0              0.85866105     0.0028622035 
     93900   0.65884499     0              0              0.79061399     0.00263538   
     93950   0.61710058     0              0              0.7405207      0.0024684023 
     94000   0.62722715     0              0              0.75267258     0.0025089086 
     94050   0.60084232     0              0              0.72101079     0.0024033693 
     94100   0.55491361     0              0              0.66589633     0.0022196544 
     94150   0.59041547     0              0              0.70849857     0.0023616619 
     94200   0.68272775     0              0              0.8192733      0.002730911  
     94250   0.72777848     0              0              0.87333418     0.0029111139 
     94300   0.77242293     0              0              0.92690752     0.0030896917 
     94350   0.75945191     0              0              0.91134229     0.0030378076 
     94400   0.81248506     0              0              0.97498208     0.0032499403 
     94450   0.83026164     0              0              0.99631397     0.0033210466 
     94500   0.8667096      0              0              1.0400515      0.0034668384 
     94550   0.79642629     0              0              0.95571155     0.0031857052 
     94600   0.7647493      0              0              0.91769916     0.0030589972 
     94650   0.77268704     0              0              0.92722445     0.0030907482 
     94700   0.73392522     0              0              0.88071027     0.0029357009 
     94750   0.84299729     0              0              1.0115968      0.0033719892 
     94800   0.86833576     0              0              1.0420029      0.003473343  
     94850   0.83959339     0              0              1.0075121      0.0033583736 
     94900   0.86821179     0              0              1.0418542      0.0034728472 
     94950   0.90414407     0              0              1.0849729      0.0036165763 
     95000   0.88725813     0              0              1.0647098      0.0035490325 
     95050   0.93037342     0              0              1.1164481      0.0037214937 
     95100   0.93937561     0              0              1.1272507      0.0037575025 
     95150   0.97603665     0              0              1.171244       0.0039041466 
     95200   0.95330768     0              0              1.1439692      0.0038132307 
     95250   0.86824608     0              0              1.0418953      0.0034729843 
     95300   0.86732521     0              0              1.0407902      0.0034693008 
     95350   0.80430606     0              0              0.96516727     0.0032172242 
     95400   0.89165615     0              0              1.0699874      0.0035666246 
     95450   0.86158659     0              0              1.0339039      0.0034463463 
     95500   0.78836061     0              0              0.94603274     0.0031534425 
     95550   0.78885784     0              0              0.94662941     0.0031554314 
     95600   0.76055437     0              0              0.91266524     0.0030422175 
     95650   0.68870837     0              0              0.82645005     0.0027548335 
     95700   0.69824472     0              0              0.83789366     0.0027929789 
     95750   0.70279098     0              0              0.84334917     0.0028111639 
     95800   0.66600634     0              0              0.79920761     0.0026640254 
     95850   0.61055621     0              0              0.73266745     0.0024422248 
     95900   0.58009464     0              0              0.69611356     0.0023203785 
     95950   0.61603721     0              0              0.73924465     0.0024641488 
     96000   0.55315783     0              0              0.66378939     0.0022126313 
     96050   0.59079824     0              0              0.70895789     0.002363193  
     96100   0.49767424     0              0              0.59720909     0.001990697  
     96150   0.56066317     0              0              0.67279581     0.0022426527 
     96200   0.61003166     0              0              0.73203799     0.0024401266 
     96250   0.55692225     0              0              0.6683067      0.002227689  
     96300   0.63032769     0              0              0.75639323     0.0025213108 
     96350   0.70331838     0              0              0.84398206     0.0028132735 
     96400   0.74427643     0              0              0.89313171     0.0029771057 
     96450   0.74098258     0              0              0.8891791      0.0029639303 
     96500   0.75724303     0              0              0.90869164     0.0030289721 
     96550   0.79464094     0              0              0.95356913     0.0031785638 
     96600   0.81159961     0              0              0.97391953     0.0032463984 
     96650   0.90857225     0              0              1.0902867      0.003634289  
     96700   0.88854885     0              0              1.0662586      0.0035541954 
     96750   0.8402718      0              0              1.0083262      0.0033610872 
     96800   0.80026499     0              0              0.96031798     0.0032010599 
     96850   0.82254533     0              0              0.9870544      0.0032901813 
     96900   0.89064749     0              0              1.068777       0.0035625899 
     96950   0.91584821     0              0              1.0990179      0.0036633928 
     97000   0.89057218     0              0              1.0686866      0.0035622887 
     97050   0.91214183     0              0              1.0945702      0.0036485673 
     97100   0.88641929     0              0              1.0637031      0.0035456772 
     97150   0.96823475     0              0              1.1618817      0.003872939  
     97200   0.97828761     0              0              1.1739451      0.0039131505 
     97250   0.92485819     0              0              1.1098298      0.0036994328 
     97300   0.99146875     0              0              1.1897625      0.003965875  
     97350   0.91186224     0              0              1.0942347      0.0036474489 
     97400   0.89606639     0              0              1.0752797      0.0035842656 
     97450   0.87739181     0              0              1.0528702      0.0035095673 
     97500   0.8517904      0              0              1.0221485      0.0034071616 
     97550   0.95808531     0              0              1.1497024      0.0038323412 
     97600   0.91864149     0              0              1.1023698      0.003674566  
     97650   0.87202895     0              0              1.0464347      0.0034881158 
     97700   0.8834588      0              0              1.0601506      0.0035338352 
     97750   0.96457931     0              0              1.1574952      0.0038583172 
     97800   0.9216982      0              0              1.1060378      0.0036867928 
     97850   0.93963501     0              0              1.127562       0.00375854   
     97900   0.98006295     0              0              1.1760755      0.0039202518 
     97950   0.99086736     0              0              1.1890408      0.0039634695 
     98000   0.98148114     0              0              1.1777774      0.0039259246 
     98050   0.92934663     0              0              1.115216       0.0037173865 
     98100   0.88997382     0              0              1.0679686      0.0035598953 
     98150   0.9594081      0              0              1.1512897      0.0038376324 
     98200   0.89197688     0              0              1.0703723      0.0035679075 
     98250   0.91290265     0              0              1.0954832      0.0036516106 
     98300   0.92903362     0              0              1.1148403      0.0037161345 
     98350   0.98675386     0              0              1.1841046      0.0039470155 
     98400   1.0198292      0              0              1.223795       0.0040793168 
     98450   1.0458899      0              0              1.2550679      0.0041835596 
     98500   1.1963867      0              0              1.4356641      0.0047855469 
     98550   1.1550398      0              0              1.3860478      0.0046201594 
     98600   1.1057805      0              0              1.3269366      0.004423122  
     98650   1.0557524      0              0              1.2669029      0.0042230098 
     98700   1.0286913      0              0              1.2344296      0.0041147652 
     98750   1.057253       0              0              1.2687036      0.0042290118 
     98800   1.1255642      0              0              1.3506771      0.0045022568 
     98850   1.1131977      0              0              1.3358372      0.0044527907 
     98900   1.0469315      0              0              1.2563178      0.0041877259 
     98950   1.0483417      0              0              1.25801        0.0041933667 
     99000   1.018559       0              0              1.2222708      0.0040742359 
     99050   1.011378       0              0              1.2136536      0.0040455122 
     99100   0.92181242     0              0              1.1061749      0.0036872497 
     99150   1.0107836      0              0              1.2129403      0.0040431345 
     99200   1.0531905      0              0              1.2638286      0.0042127621 
     99250   1.0593864      0              0              1.2712636      0.0042375454 
     99300   1.0972571      0              0              1.3167085      0.0043890284 
     99350   1.179574       0              0              1.4154888      0.004718296  
     99400   1.1681079      0              0              1.4017294      0.0046724314 
     99450   1.0908623      0              0              1.3090347      0.0043634491 
     99500   1.0752782      0              0              1.2903338      0.0043011126 
     99550   1.1062223      0              0              1.3274667      0.0044248892 
     99600   1.2054904      0              0              1.4465885      0.0048219616 
     99650   1.2194424      0              0              1.4633308      0.0048777695 
     99700   1.13681        0              0              1.3641721      0.0045472402 
     99750   1.1280549      0              0              1.3536659      0.0045122196 
     99800   1.01878        0              0              1.222536       0.0040751198 
     99850   1.0395177      0              0              1.2474213      0.004158071  
     99900   0.96745699     0              0              1.1609484      0.003869828  
     99950   1.0305344      0              0              1.2366413      0.0041221376 
    100000   0.87434476     0              0              1.0492137      0.003497379  
    100001   0.87466155     0              0              1.0495939      0.0034986462 
WARNING: Bond/angle/dihedral extent > half of periodic box length (src/domain.cpp:936)
Loop time of 0.587042 on 1 procs for 100000 steps with 5 atoms

Performance: 73589283.220 tau/day, 170345.563 timesteps/s, 851.728 katom-step/s
53.2% CPU use with 1 MPI tasks x 1 OpenMP threads

MPI task timing breakdown:
Section |  min time  |  avg time  |  max time  |%varavg| %total
---------------------------------------------------------------
Pair    | 0.02483    | 0.02483    | 0.02483    |   0.0 |  4.23
Bond    | 0.006698   | 0.006698   | 0.006698   |   0.0 |  1.14
Neigh   | 0.042308   | 0.042308   | 0.042308   |   0.0 |  7.21
Comm    | 0.022625   | 0.022625   | 0.022625   |   0.0 |  3.85
Output  | 0.28862    | 0.28862    | 0.28862    |   0.0 | 49.16
Modify  | 0.10442    | 0.10442    | 0.10442    |   0.0 | 17.79
Other   |            | 0.09754    |            |       | 16.62

Nlocal:              5 ave           5 max           5 min
Histogram: 1 0 0 0 0 0 0 0 0 0
Nghost:              4 ave           4 max           4 min
Histogram: 1 0 0 0 0 0 0 0 0 0
Neighs:              0 ave           0 max           0 min
Histogram: 1 0 0 0 0 0 0 0 0 0

Total # of neighbors = 0
Ave neighs/atom = 0
Ave special neighs/atom = 4
Neighbor list builds = 9986
Dangerous builds = 0
Total wall time: 0:00:00
