LAMMPS (2 Aug 2023 - Update 3)
OMP_NUM_THREADS environment is not set. Defaulting to 1 thread. (src/comm.cpp:98)
  using 1 OpenMP thread(s) per MPI task
Loaded 1 plugins from F:\LAMMPS\LAMMPS 64-bit 2Aug2023\plugins
# Script to create a Polymer using Patchy Particles (PP)
# Types of Particles:
#   Cross linker:   PPA
#   Monomer:        PPB

# Initialization
units lj
dimension 3
boundary p p p

# Types of atoms and that stuff
atom_style full
bond_style zero nocoeff
pair_style hybrid lj/cut 2.5 cosine/squared 2.5 zero 2.5

# Get data for box and particles
read_data data.patchyP1.lmp group CL1
Reading data file ...
  orthogonal box = (-5 -5 -5) to (5 5 5)
  1 by 1 by 1 MPI processor grid
  reading atoms ...
  4 atoms
  scanning bonds ...
  3 = max bonds/atom
  reading bonds ...
  3 bonds
Finding 1-2 1-3 1-4 neighbors ...
  special bond factors lj:    0        0        0       
  special bond factors coul:  0        0        0       
     3 = max # of 1-2 neighbors
     2 = max # of 1-3 neighbors
     2 = max # of 1-4 neighbors
     3 = max # of special neighbors
  special bonds CPU = 0.002 seconds
  read_data CPU = 0.008 seconds
read_data data.patchyP2.lmp add merge group Mo1
Reading data file ...
  orthogonal box = (-5 -5 -5) to (5 5 5)
  1 by 1 by 1 MPI processor grid
WARNING: Atom style in data file atom-ID molecule-ID atom-type q x y z differs from currently defined atom style full (src/read_data.cpp:621)
  reading atoms ...
  3 atoms
  scanning bonds ...
  2 = max bonds/atom
WARNING: Bond style ID parameters in data file differs from currently defined bond style zero (src/read_data.cpp:724)
  reading bonds ...
  2 bonds
Finding 1-2 1-3 1-4 neighbors ...
  special bond factors lj:    0        0        0       
  special bond factors coul:  0        0        0       
     3 = max # of 1-2 neighbors
     2 = max # of 1-3 neighbors
     2 = max # of 1-4 neighbors
     3 = max # of special neighbors
  special bonds CPU = 0.001 seconds
  read_data CPU = 0.005 seconds

displace_atoms Mo1 move 0.0 0.0 3.0 units box
Displacing atoms ...

# Set the patchy particle interaction
fix CLfix CL1 rigid single
  1 rigid bodies with 4 atoms
fix Mofix Mo1 rigid single
  1 rigid bodies with 3 atoms

pair_coeff 1 1 lj/cut 1.0 1.0 1.12 # i-type j-type eps sigma cutoff
pair_coeff 2 2 cosine/squared 10.0 0.5 0.56 wca # i-type j-type eps sigma cutoff wca
pair_coeff 1 2 zero 1.68

# Get data for box and particles
#read_data data.patchyP2.lmp add append shift 0.0 5.0 0.0

# Set the patchy particle interaction
#group Mo type 5 6 7
#fix Mofix Mo rigid single


# Neighbor list
neighbor 0.3 nsq
neigh_modify delay 5

minimize 1.0e-4 1.0e-6 1000 10000
Switching to 'neigh_modify every 1 delay 0 check yes' setting during minimization
Generated 0 of 1 mixed pair_coeff terms from geometric mixing rule
WARNING: More than one fix rigid (src/RIGID/fix_rigid.cpp:709)
WARNING: More than one fix rigid (src/RIGID/fix_rigid.cpp:709)
Neighbor list info ...
  update: every = 1 steps, delay = 0 steps, check = yes
  max neighbors/atom: 2000, page size: 100000
  master list distance cutoff = 1.98
  ghost atom cutoff = 1.98
  6 neighbor lists, perpetual/occasional/extra = 6 0 0
  (1) pair lj/cut, perpetual, skip from (4)
      attributes: half, newton on, cut 1.4200000000000002
      pair build: skip
      stencil: none
      bin: none
  (2) pair cosine/squared, perpetual, skip from (5)
      attributes: half, newton on, cut 0.8600000000000001
      pair build: skip
      stencil: none
      bin: none
  (3) pair zero, perpetual, skip from (6)
      attributes: half, newton on
      pair build: skip
      stencil: none
      bin: none
  (4) neighbor class addition, perpetual, trim from (6)
      attributes: half, newton on, cut 1.4200000000000002
      pair build: trim
      stencil: none
      bin: none
  (5) neighbor class addition, perpetual, trim from (4)
      attributes: half, newton on, cut 0.8600000000000001
      pair build: trim
      stencil: none
      bin: none
  (6) neighbor class addition, perpetual
      attributes: half, newton on
      pair build: half/nsq/newton
      stencil: none
      bin: none
Per MPI rank memory allocation (min/avg/max) = 13.28 | 13.28 | 13.28 Mbytes
   Step          Temp          E_pair         E_mol          TotEng         Press     
         0   0              0              0              0              0            
         1   0              0              0              0              0            
Loop time of 7.3e-05 on 1 procs for 1 steps with 7 atoms

0.0% CPU use with 1 MPI tasks x 1 OpenMP threads

Minimization stats:
  Stopping criterion = search direction is not downhill
  Energy initial, next-to-last, final = 
                     0                  0                  0
  Force two-norm initial, final = 0 0
  Force max component initial, final = 0 0
  Final line search alpha, max atom move = 0 0
  Iterations, force evaluations = 1 0

MPI task timing breakdown:
Section |  min time  |  avg time  |  max time  |%varavg| %total
---------------------------------------------------------------
Pair    | 2e-06      | 2e-06      | 2e-06      |   0.0 |  2.74
Bond    | 0          | 0          | 0          |   0.0 |  0.00
Neigh   | 0          | 0          | 0          |   0.0 |  0.00
Comm    | 0          | 0          | 0          |   0.0 |  0.00
Output  | 0          | 0          | 0          |   0.0 |  0.00
Modify  | 0          | 0          | 0          |   0.0 |  0.00
Other   |            | 7.1e-05    |            |       | 97.26

Nlocal:              7 ave           7 max           7 min
Histogram: 1 0 0 0 0 0 0 0 0 0
Nghost:              0 ave           0 max           0 min
Histogram: 1 0 0 0 0 0 0 0 0 0
Neighs:              0 ave           0 max           0 min
Histogram: 1 0 0 0 0 0 0 0 0 0

Total # of neighbors = 0
Ave neighs/atom = 0
Ave special neighs/atom = 2.5714286
Neighbor list builds = 0
Dangerous builds = 0

fix 1 all langevin 1.0 1.0 50.0 12345
fix 2 all nve

thermo 50
compute t all temp
compute ep all pe
compute ek all ke
compute tm all momentum

dump 1 all atom 50 dump.patchy_pairs1

timestep 0.005
run 100000
Generated 0 of 1 mixed pair_coeff terms from geometric mixing rule
WARNING: More than one fix rigid (src/RIGID/fix_rigid.cpp:709)
WARNING: More than one fix rigid (src/RIGID/fix_rigid.cpp:709)
WARNING: One or more atoms are time integrated more than once (src/modify.cpp:289)
Per MPI rank memory allocation (min/avg/max) = 12.15 | 12.15 | 12.15 Mbytes
   Step          Temp          E_pair         E_mol          TotEng         Press     
         1   0              0              0              0              0            
        50   0.020741398    0              0              0.011852227    0.0024708979 
       100   0.047204526    0              0              0.026974015   -0.0066288506 
       150   0.058030485    0              0              0.033160277    0.0068582093 
       200   0.043892184    0              0              0.025081248    0.0086222829 
       250   0.037878287    0              0              0.021644735   -0.001912376  
       300   0.034979976    0              0              0.019988557   -0.0052884452 
       350   0.061297026    0              0              0.035026872    0.0019708835 
       400   0.10346305     0              0              0.05912174    -0.02412162   
       450   0.12952414     0              0              0.074013793   -0.00071513209
       500   0.12182741     0              0              0.069615664    0.0025493569 
       550   0.11739613     0              0              0.067083504   -0.0056812906 
       600   0.15892675     0              0              0.090815285    0.0038213529 
       650   0.17884578     0              0              0.10219759    -0.0054342208 
       700   0.15602975     0              0              0.089159859    0.006726779  
       750   0.15253126     0              0              0.087160718    0.003271929  
       800   0.1923256      0              0              0.10990034    -0.015127482  
       850   0.13890139     0              0              0.079372221    0.0090525257 
       900   0.13010315     0              0              0.074344656    0.015925108  
       950   0.12134777     0              0              0.069341585    0.010622713  
      1000   0.16648854     0              0              0.095136308    0.0065932995 
      1050   0.16854927     0              0              0.096313871   -0.0016072903 
      1100   0.24589357     0              0              0.14051061    -0.0061201501 
      1150   0.33870259     0              0              0.19354434     0.022022947  
      1200   0.32353789     0              0              0.1848788     -0.00082724153
      1250   0.3042289      0              0              0.17384509    -0.0067127446 
      1300   0.29664708     0              0              0.16951262    -0.00073926246
      1350   0.31551159     0              0              0.18029234    -0.012019641  
      1400   0.29168893     0              0              0.16667939     0.020950097  
      1450   0.34111156     0              0              0.19492089    -0.0087186734 
      1500   0.41833826     0              0              0.23905043    -0.0065345742 
      1550   0.41683831     0              0              0.23819332    -0.0081243005 
      1600   0.43608941     0              0              0.24919395     0.0056716768 
      1650   0.36999691     0              0              0.21142681     0.0085368533 
      1700   0.40738639     0              0              0.23279222    -0.0088156523 
      1750   0.47465534     0              0              0.27123162     0.0070919663 
      1800   0.521859       0              0              0.29820515     0.0038715403 
      1850   0.49312842     0              0              0.28178767    -0.015423825  
      1900   0.58432524     0              0              0.33390014    -0.0090736306 
      1950   0.53250447     0              0              0.30428827    -0.0017656576 
      2000   0.5591238      0              0              0.31949931     0.0095931889 
      2050   0.54699464     0              0              0.31256837     0.0053472314 
      2100   0.55503995     0              0              0.31716568    -0.011247296  
      2150   0.50701277     0              0              0.28972158     0.019648384  
      2200   0.53588401     0              0              0.30621943    -0.002000534  
      2250   0.6275193      0              0              0.35858246     0.0011224641 
      2300   0.55399831     0              0              0.31657046     0.023409394  
      2350   0.50926042     0              0              0.29100595    -0.012006094  
      2400   0.55953717     0              0              0.31973553     0.0025180696 
      2450   0.56648369     0              0              0.32370496     0.0011630063 
      2500   0.55395969     0              0              0.31654839     0.005275405  
      2550   0.53426223     0              0              0.3052927      0.011986182  
      2600   0.61691589     0              0              0.35252337    -0.014999341  
      2650   0.56343628     0              0              0.32196359    -0.009538162  
      2700   0.53094908     0              0              0.30339947     0.0087382621 
      2750   0.48015572     0              0              0.2743747      0.0057233174 
      2800   0.46126273     0              0              0.2635787     -0.0093339453 
      2850   0.40179319     0              0              0.22959611     0.0077060972 
      2900   0.47517841     0              0              0.27153052    -0.028645093  
      2950   0.41279675     0              0              0.23588386     0.0082610244 
      3000   0.43226892     0              0              0.24701081     0.0042116559 
      3050   0.44796944     0              0              0.25598254     0.00069991555
      3100   0.41747399     0              0              0.23855657    -0.012672488  
      3150   0.43298551     0              0              0.24742029     0.015365787  
      3200   0.31799713     0              0              0.18171265    -0.0018230241 
      3250   0.30181194     0              0              0.17246396    -0.0055246634 
      3300   0.2446865      0              0              0.13982086    -0.02134715   
      3350   0.27370766     0              0              0.15640437    -0.017514323  
      3400   0.24215226     0              0              0.13837272    -0.00097261107
      3450   0.24780889     0              0              0.14160508    -0.035401065  
      3500   0.2619199      0              0              0.14966851     0.019085341  
      3550   0.24123162     0              0              0.13784664     0.038805433  
      3600   0.22706758     0              0              0.1297529      0.0078845689 
      3650   0.2274862      0              0              0.12999211    -0.0093828568 
      3700   0.26545289     0              0              0.15168736     0.0096683022 
      3750   0.31936334     0              0              0.18249334    -0.0022044044 
      3800   0.30765973     0              0              0.17580556    -0.0093235219 
      3850   0.38167432     0              0              0.21809961     0.0054941775 
      3900   0.41650122     0              0              0.2380007      0.006977001  
      3950   0.4369531      0              0              0.24968749     0.023821551  
      4000   0.45028561     0              0              0.25730606     0.039424004  
      4050   0.33262724     0              0              0.19007271    -0.00097713872
      4100   0.27905366     0              0              0.15945924     0.014948202  
      4150   0.24598992     0              0              0.14056567     0.0029277245 
      4200   0.26095801     0              0              0.14911886    -0.011446532  
      4250   0.21790079     0              0              0.12451474     0.010082603  
      4300   0.2137581      0              0              0.12214749    -0.013679034  
      4350   0.22726201     0              0              0.12986401     0.0046725166 
      4400   0.31803548     0              0              0.18173456     0.041013038  
      4450   0.37479365     0              0              0.2141678      0.00074605485
      4500   0.3479473      0              0              0.19882703    -0.0052644976 
      4550   0.34012099     0              0              0.19435485    -0.0090950643 
      4600   0.45591239     0              0              0.26052137    -0.017312155  
      4650   0.50816294     0              0              0.29037882     0.012086013  
      4700   0.59014612     0              0              0.33722635    -0.001320309  
      4750   0.63250583     0              0              0.3614319      0.020912989  
      4800   0.65063884     0              0              0.37179362     0.029307318  
      4850   0.6118405      0              0              0.34962314     0.0073092269 
      4900   0.53111845     0              0              0.30349626     0.008572196  
      4950   0.53772424     0              0              0.307271      -0.0014712537 
      5000   0.49032675     0              0              0.28018672    -0.013641936  
      5050   0.47043191     0              0              0.26881824     0.022548221  
      5100   0.60873862     0              0              0.34785064    -0.0064907784 
      5150   0.64769949     0              0              0.37011399     0.0090943381 
      5200   0.66068788     0              0              0.37753593    -0.0030573176 
      5250   0.69975993     0              0              0.39986282    -0.034727893  
      5300   0.68647352     0              0              0.39227058    -0.019040417  
      5350   0.75610041     0              0              0.43205738     0.0046745524 
      5400   0.75668342     0              0              0.43239052    -0.01038652   
      5450   0.77070678     0              0              0.44040387    -0.0091555639 
      5500   0.75341993     0              0              0.43052568    -0.018211653  
      5550   0.74949264     0              0              0.42828151    -0.0072740972 
      5600   0.65534059     0              0              0.37448033     0.018188686  
      5650   0.65959522     0              0              0.37691155    -0.0013999682 
      5700   0.63543735     0              0              0.36310706    -0.004950511  
      5750   0.56770466     0              0              0.32440266    -0.0080901337 
      5800   0.60655262     0              0              0.34660149     0.0053699588 
      5850   0.60871984     0              0              0.34783991    -0.0045601672 
      5900   0.54944845     0              0              0.31397054     0.0021833025 
      5950   0.59896577     0              0              0.34226616    -0.0055693574 
      6000   0.57035174     0              0              0.32591528    -0.002495552  
      6050   0.57268979     0              0              0.32725131     0.00027755829
      6100   0.58120172     0              0              0.33211527    -0.0066494896 
      6150   0.5082901      0              0              0.29045149    -0.013208113  
      6200   0.56378887     0              0              0.32216507     0.006833986  
      6250   0.53216064     0              0              0.30409179    -0.0048736655 
      6300   0.61662777     0              0              0.35235872    -0.017017038  
      6350   0.55598995     0              0              0.31770854     0.0062488103 
      6400   0.50490476     0              0              0.28851701    -0.017783562  
      6450   0.57468617     0              0              0.3283921     -0.0032675229 
      6500   0.66496287     0              0              0.37997878    -0.02134694   
      6550   0.64693036     0              0              0.36967449    -0.020586151  
      6600   0.57598738     0              0              0.32913564     0.011784762  
      6650   0.62779569     0              0              0.35874039    -0.0065233882 
      6700   0.64644961     0              0              0.36939978    -0.010566643  
      6750   0.6812075      0              0              0.38926143     0.0077824422 
      6800   0.71398517     0              0              0.40799152     0.0019512648 
      6850   0.6315319      0              0              0.36087537     0.0093976282 
      6900   0.58063522     0              0              0.33179155     0.0027256986 
      6950   0.53857262     0              0              0.30775578    -0.0064941864 
      7000   0.54357019     0              0              0.31061154     0.018536752  
      7050   0.60564729     0              0              0.34608417     0.022635976  
      7100   0.74607364     0              0              0.4263278      0.036292911  
      7150   0.77623147     0              0              0.44356084    -0.017144896  
      7200   0.81760129     0              0              0.46720074     0.023741357  
      7250   0.8423745      0              0              0.48135686    -0.017382743  
      7300   0.85814904     0              0              0.49037088     0.0093652157 
      7350   0.81788329     0              0              0.46736188    -0.0098019341 
      7400   0.86123474     0              0              0.49213414    -0.015006629  
      7450   0.8418812      0              0              0.48107497     0.020042695  
      7500   0.89213604     0              0              0.50979202     0.0030481777 
      7550   0.92414018     0              0              0.5280801      0.0047880892 
      7600   0.90209405     0              0              0.51548231     0.015187948  
      7650   0.86948412     0              0              0.49684807    -0.031769092  
      7700   0.79140416     0              0              0.45223095    -0.014864237  
      7750   0.73249642     0              0              0.41856938    -0.0043451313 
      7800   0.69506977     0              0              0.39718273     0.0038947871 
      7850   0.77439843     0              0              0.44251339     0.00348654   
      7900   0.80855657     0              0              0.46203232     0.011881456  
      7950   0.77816534     0              0              0.44466591     0.0017416533 
      8000   0.82225428     0              0              0.46985959    -0.026397989  
      8050   0.81818383     0              0              0.46753362    -0.00024573398
      8100   0.65586041     0              0              0.37477737    -0.0049285015 
      8150   0.67975096     0              0              0.38842912    -0.0041144547 
      8200   0.71971742     0              0              0.4112671      0.0070283131 
      8250   0.74263422     0              0              0.42436241     0.0097375282 
      8300   0.79818562     0              0              0.45610607    -0.0026581907 
      8350   0.8303783      0              0              0.47450189    -0.0047881017 
      8400   0.81687851     0              0              0.46678772     0.025044088  
      8450   0.88449381     0              0              0.50542503     0.0091384206 
      8500   0.86993771     0              0              0.49710726     0.0041179119 
      8550   0.83836709     0              0              0.47906691    -0.046059486  
      8600   0.69415068     0              0              0.39665753    -0.0032869483 
      8650   0.65395401     0              0              0.373688       0.0019189116 
      8700   0.63990341     0              0              0.36565909     0.019990801  
      8750   0.6042271      0              0              0.34527263     0.024865022  
      8800   0.66370533     0              0              0.37926019    -0.0025434842 
      8850   0.63009232     0              0              0.36005275     0.00016061068
      8900   0.73832593     0              0              0.42190053    -0.0080117657 
      8950   0.76340477     0              0              0.4362313      0.0051399202 
      9000   0.69233133     0              0              0.39561791    -0.0098454965 
      9050   0.67398374     0              0              0.38513357     0.0096511264 
      9100   0.70812241     0              0              0.40464138    -0.0060563551 
      9150   0.80154199     0              0              0.45802399    -0.010706312  
      9200   0.75375863     0              0              0.43071922     0.014025059  
      9250   0.82752517     0              0              0.47287153     0.0052034277 
      9300   0.8946838      0              0              0.51124788     0.00072854617
      9350   1.0069598      0              0              0.57540559     0.0059055634 
      9400   1.0395232      0              0              0.59401324    -0.00038020215
      9450   1.1208917      0              0              0.64050955     0.012473169  
      9500   1.0523747     -0.14258612     0              0.45877087     0.009772164  
      9550   0.99065514    -0.10133404     0              0.46475461     0.0064013801 
      9600   1.1551325     -1.42857        0             -0.7684943      0.0032080806 
      9650   1.1023347     -1.4283703      0             -0.7984648     -0.019833644  
      9700   0.98171586    -1.4284484      0             -0.86746786     0.0025478806 
      9750   0.91723388    -1.4285705      0             -0.90443681     0.003810224  
      9800   0.90152151    -1.4285588      0             -0.91340361     0.016532576  
      9850   0.71300713    -1.4285585      0             -1.0211259     -0.00076150571
      9900   0.8578065     -1.4284286      0             -0.93825349     0.021625584  
      9950   0.85522991    -1.4283828      0             -0.93967998     0.00098207365
     10000   0.8728606     -1.4285632      0             -0.92978567    -0.010840754  
     10050   0.89299212    -1.4285712      0             -0.91828999     0.0026587047 
     10100   0.90937781    -1.42839        0             -0.90874549    -0.00017330445
     10150   0.94654378    -1.4285495      0             -0.88766732    -0.01639248   
     10200   0.9741361     -1.4280722      0             -0.87142303     0.0069074516 
     10250   1.0222067     -1.4285714      0             -0.84445331     0.0012723962 
     10300   1.0240036     -1.428569       0             -0.84342412    -0.0027714895 
     10350   0.85140019    -1.4284775      0             -0.94196312     0.024920493  
     10400   0.72305139    -1.5545684      0             -1.1413962      0.015385333  
     10450   0.72701801    -1.5593067      0             -1.1438679      0.0078317418 
     10500   0.72928394    -1.428571       0             -1.0118374     -0.016569772  
     10550   0.74001181    -1.4284284      0             -1.0055645      0.012864601  
     10600   0.68594262    -1.4284163      0             -1.0364491      0.023031751  
     10650   0.73260709    -1.4284776      0             -1.0098449     -0.024298189  
     10700   0.65400561    -1.4285713      0             -1.0548538     -0.0011265856 
     10750   0.68581549    -1.4284862      0             -1.0365917      0.0029549713 
     10800   0.71974617    -1.4285629      0             -1.0172794      0.0022145523 
     10850   0.72793657    -1.4285699      0             -1.0126062      0.0026265174 
     10900   0.72579578    -1.4285524      0             -1.013812       0.0023023945 
     10950   0.66290915    -1.4285404      0             -1.0497351      0.015507019  
     11000   0.75562701    -1.4285617      0             -0.99677487    -0.023001973  
     11050   0.73463926    -1.4285593      0             -1.0087654     -0.012413725  
     11100   0.8673849     -1.4284063      0             -0.93275774    -0.016600205  
     11150   0.79160017    -1.4285335      0             -0.97619057    -0.014503865  
     11200   0.79892139    -1.4284227      0             -0.97189617     0.013419568  
     11250   0.73408637    -1.4284367      0             -1.0089587      0.0036966789 
     11300   0.80517277    -1.428057       0             -0.96795825    -0.025841221  
     11350   0.91111914    -1.4284302      0             -0.90779066     0.0036143441 
     11400   1.0131414     -1.4282016      0             -0.84926364     0.0049035108 
     11450   0.96586039    -1.4283776      0             -0.87645736     0.0185147    
     11500   0.99872749    -1.4285373      0             -0.85783591    -0.0060457974 
     11550   0.96395553    -1.4285361      0             -0.87770438    -0.0012721257 
     11600   0.96642024    -1.4285009      0             -0.87626076    -0.0019782846 
     11650   1.0250947     -1.4285655      0             -0.84279715    -0.0053615223 
     11700   0.99815969    -1.4285123      0             -0.85813535    -0.0087323486 
     11750   0.89402432    -1.4285708      0             -0.91769979    -0.0057211421 
     11800   1.0482082     -1.4285539      0             -0.82957776     0.00042954836
     11850   1.0691054     -1.4285714      0             -0.81765403    -0.012584214  
     11900   0.94061857    -1.428545       0             -0.89104867    -0.0013354242 
     11950   0.98441575    -1.4281698      0             -0.86564647    -0.028807753  
     12000   0.9123813     -1.4282329      0             -0.90687215     0.022205408  
     12050   0.8846433     -1.4285513      0             -0.92304081     0.0031525985 
     12100   0.85107398    -1.4285655      0             -0.94223746     0.023830747  
     12150   0.81852531    -1.4283366      0             -0.96060784     0.013897525  
     12200   0.75068137    -1.4281602      0             -0.99919939     0.016296608  
     12250   0.78334623    -1.4282754      0             -0.980649      -0.0001211807 
     12300   0.6596809     -1.4284478      0             -1.0514873     -0.0020533184 
     12350   0.71570168    -1.4281428      0             -1.0191704     -0.0018824177 
     12400   0.70059351    -1.4285506      0             -1.0282114     -0.011808416  
     12450   0.65697669    -1.4285114      0             -1.0530961      0.030283109  
     12500   0.63929951    -1.4283269      0             -1.0630128     -0.010140008  
     12550   0.59881605    -1.4285254      0             -1.0863448      0.0088703275 
     12600   0.66748329    -1.4285564      0             -1.0471374      0.0057801463 
     12650   0.70493365    -1.4285368      0             -1.0257175      0.01608078   
     12700   0.7143999     -1.4279182      0             -1.0196897     -0.00064224017
     12750   0.62992632    -1.4284512      0             -1.0684933     -0.0019968484 
     12800   0.58858369    -1.4285686      0             -1.092235       0.013280857  
     12850   0.57114213    -1.4284683      0             -1.1021013     -0.0095992986 
     12900   0.56635031    -1.5567703      0             -1.2331416     -0.017953381  
     12950   0.5586829     -1.5518601      0             -1.2326127     -0.001385609  
     13000   0.64002703    -1.4285483      0             -1.0628186      0.019542165  
     13050   0.67063293    -1.4283678      0             -1.045149       0.0099000634 
     13100   0.72959034    -1.428565       0             -1.0116562      0.001663706  
     13150   0.68910207    -1.4285667      0             -1.0347941      0.0011695341 
     13200   0.58938498    -1.4283745      0             -1.0915831     -0.0074390571 
     13250   0.57881132    -1.4284564      0             -1.0977071      0.0059437302 
     13300   0.52253172    -1.4285412      0             -1.1299517      0.0088509884 
     13350   0.51849836    -1.4285599      0             -1.1322751      0.0019144238 
     13400   0.6120417     -1.428544       0             -1.0788059      0.00015899557
     13450   0.61880701    -1.4282717      0             -1.0746677     -0.0013922254 
     13500   0.59675064    -1.4285473      0             -1.0875469     -0.0022026113 
     13550   0.55834272    -1.4285676      0             -1.1095146      0.0042813221 
     13600   0.52327302    -1.4285448      0             -1.1295316      0.0043502018 
     13650   0.59274207    -1.4284279      0             -1.0897181     -0.012488859  
     13700   0.59185769    -1.4285651      0             -1.0903607     -0.00578686   
     13750   0.61680361    -1.4285469      0             -1.0760877     -0.00027284195
     13800   0.64882247    -1.4285094      0             -1.0577537      0.012498831  
     13850   0.77177463    -1.4285571      0             -0.98754304    -9.6611346e-05
     13900   0.81796553    -1.4285601      0             -0.96115126     0.014233192  
     13950   0.53976285    -1.4279812      0             -1.1195453     -0.0055715328 
     14000   0.67577327    -1.4284434      0             -1.0422872      0.0026913316 
     14050   0.70232575    -1.4284721      0             -1.0271431     -0.0060175102 
     14100   0.79482921    -1.4285561      0             -0.97436797     0.015484906  
     14150   0.84788039    -1.428469       0             -0.9439659     -0.0080627708 
     14200   0.82104847    -1.4281576      0             -0.95898709    -0.009361121  
     14250   0.81709933    -1.4284863      0             -0.96157239     0.012440143  
     14300   0.79106412    -1.4282969      0             -0.9762603      0.0016998363 
     14350   0.85433555    -1.4282639      0             -0.94007214    -0.0049811643 
     14400   0.92014365    -1.4285614      0             -0.90276508     0.0050897127 
     14450   0.89279249    -1.4285373      0             -0.91837018    -0.00096414222
     14500   0.96807828    -1.428014       0             -0.87482643    -0.0032816295 
     14550   0.95951596    -1.4279084      0             -0.87961353    -0.015110506  
     14600   0.93894276    -1.4284845      0             -0.89194575    -0.0055653665 
     14650   0.92823745    -1.4285651      0             -0.89814367     0.0068874108 
     14700   0.96147223    -1.4284114      0             -0.87899872     0.006700954  
     14750   0.95656029    -1.4284656      0             -0.88185968    -0.0022647883 
     14800   1.0007921     -1.4285296      0             -0.85664843     0.0074202915 
     14850   0.92694035    -1.4285528      0             -0.89887264     0.0099108387 
     14900   0.78575578    -1.4285417      0             -0.97953842    -0.0030646933 
     14950   0.83545632    -1.4285713      0             -0.95116771     0.011767654  
     15000   0.60143346    -1.4407322      0             -1.0970559      0.014917586  
     15050   0.78651581    -1.4285208      0             -0.97908316     0.0094304786 
     15100   0.67122553    -1.4285671      0             -1.0450097      0.0026573939 
     15150   0.69231863    -1.4285656      0             -1.0329549     -0.0011493989 
     15200   0.7363766     -1.4285355      0             -1.0077489     -0.0025096679 
     15250   0.83399083    -1.4285114      0             -0.95194525     0.00087363421
     15300   0.84600476    -1.4285698      0             -0.94513848     0.0002074012 
     15350   0.81032839    -1.4285532      0             -0.96550844    -0.00095756358
     15400   0.79109448    -1.4284971      0             -0.97644311    -0.00052859335
     15450   0.77815991    -1.4285714      0             -0.98390858    -0.0039018721 
     15500   0.7459509     -1.4284054      0             -1.0021478      0.0024719587 
     15550   0.66207789    -1.4285693      0             -1.0502391     -0.00090207   
     15600   0.63095568    -1.4283836      0             -1.0678375      0.0091040051 
     15650   0.67306104    -1.4285698      0             -1.0439635      0.00063902187
     15700   0.65216424    -1.4285697      0             -1.0559044     -0.0055326345 
     15750   0.6460254     -1.428571       0             -1.0594136     -0.0026723523 
     15800   0.59230433    -1.4285417      0             -1.0900821      0.022944008  
     15850   0.61097229    -1.4285694      0             -1.0794424     -0.003018127  
     15900   0.60007748    -1.4285344      0             -1.085633       0.0059536071 
     15950   0.56436465    -1.4285596      0             -1.1060655     -0.006503908  
     16000   0.61511219    -1.4283534      0             -1.0768607     -0.0029984379 
     16050   0.66811401    -1.4285581      0             -1.0467787     -0.0082573117 
     16100   0.70763951    -1.4285604      0             -1.024195       0.0047456019 
     16150   0.62904617    -1.4283278      0             -1.0688729     -0.013124444  
     16200   0.52711073    -1.428554       0             -1.1273478      0.002858271  
     16250   0.47812351    -1.4285446      0             -1.1553312      0.0013190519 
     16300   0.4928349     -1.4285577      0             -1.1469378      0.00088960034
     16350   0.53916763    -1.4285449      0             -1.1204491     -0.0024313977 
     16400   0.5029097     -1.4285503      0             -1.1411733     -0.0046656734 
     16450   0.44804596    -1.4285335      0             -1.1725073      0.013585926  
     16500   0.44889072    -1.4283409      0             -1.1718319     -0.0070842643 
     16550   0.51960617    -1.4284497      0             -1.1315319      0.0084686281 
     16600   0.50319804    -1.4285411      0             -1.1409993      0.0086704121 
     16650   0.51795989    -1.4285362      0             -1.1325592     -0.00581165   
     16700   0.44963761    -1.4285215      0             -1.1715858     -0.014475298  
     16750   0.49187807    -1.4285296      0             -1.1474564     -0.010875855  
     16800   0.55616288    -1.4285373      0             -1.11073       -0.008573156  
     16850   0.69328688    -1.4285629      0             -1.032399       0.0093755083 
     16900   0.64344198    -1.4285372      0             -1.0608561      0.00236165   
     16950   0.69520202    -1.4283662      0             -1.0311079     -0.018491538  
     17000   0.78040838    -1.4284196      0             -0.9824719      0.0045727864 
     17050   0.77199106    -1.5710884      0             -1.1299506     -0.0042953863 
     17100   0.74874607    -1.5584554      0             -1.1306005     -0.026909754  
     17150   0.72644109    -1.4285395      0             -1.0134303     -0.0043605684 
     17200   0.65874198    -1.4285713      0             -1.0521473     -0.0076184365 
     17250   0.66138127    -1.4283829      0             -1.0504508     -0.0070738337 
     17300   0.6867997     -1.4285638      0             -1.0361068      0.012696511  
     17350   0.72952952    -1.4285695      0             -1.0116955      0.0095200924 
     17400   0.71915403    -1.42853        0             -1.0175848      0.00393805   
     17450   0.63411258    -1.4284885      0             -1.0661385     -0.021849852  
     17500   0.67648407    -1.4285278      0             -1.0419655     -0.00068070942
     17550   0.79318192    -1.4285513      0             -0.97530451    -0.0026287538 
     17600   0.72945347    -1.4285663      0             -1.0117357      0.011633547  
     17650   0.77275433    -1.4285157      0             -0.98694178     0.006351459  
     17700   0.76153734    -1.4285617      0             -0.9933975      0.019246367  
     17750   0.73645598    -1.4285559      0             -1.0077239     -0.01300874   
     17800   0.65172805    -1.4284812      0             -1.0560652     -0.035490021  
     17850   0.69306757    -1.4285688      0             -1.0325302     -0.010256838  
     17900   0.65552617    -1.4285513      0             -1.0539649     -0.0045751597 
     17950   0.79541437    -1.4282196      0             -0.97369711     0.00088931808
     18000   0.91526963    -1.4285699      0             -0.90555872     0.023974266  
     18050   0.92173963    -1.4285076      0             -0.90179929    -0.0077455109 
     18100   0.95693888    -1.4284035      0             -0.88158131     0.0013277123 
     18150   1.0713156     -1.4285654      0             -0.81638505    -0.0027943901 
     18200   1.0060516     -1.4284656      0             -0.85357892     0.020430038  
     18250   0.99868582    -1.428466       0             -0.85778844     0.011111488  
     18300   0.92627221    -1.4285392      0             -0.89924079    -0.0048135112 
     18350   0.89075911    -1.4285635      0             -0.9195583     -0.0057603634 
     18400   0.8641535     -1.4285515      0             -0.93474952     0.035053773  
     18450   0.82152185    -1.4285711      0             -0.95913001     0.028620645  
     18500   0.79008248    -1.428557       0             -0.97708129     0.00046316601
     18550   0.78671869    -1.4285547      0             -0.9790012      0.019871926  
     18600   0.77367407    -1.4284484      0             -0.98634891     0.0071700095 
     18650   0.79691225    -1.4285714      0             -0.97319299     0.00026991391
     18700   0.74793895    -1.4285682      0             -1.0011745      0.010926524  
     18750   0.66245055    -1.4285635      0             -1.0500204     -0.0079756629 
     18800   0.57292341    -1.4282506      0             -1.1008658     -0.0057505467 
     18850   0.62795252    -1.4285699      0             -1.0697399      0.018316743  
     18900   0.63862097    -1.4285708      0             -1.0636445      0.0081404666 
     18950   0.51052939    -1.4285164      0             -1.1367853     -0.00071597714
     19000   0.42586012    -1.4285676      0             -1.1852189      0.013003199  
     19050   0.41390813    -1.4285619      0             -1.192043       0.0091656261 
     19100   0.4931577     -1.4284776      0             -1.1466732      0.0020123967 
     19150   0.37723029    -1.4285412      0             -1.212981      -0.010710925  
     19200   0.41258364    -1.4283348      0             -1.1925728     -0.0044066809 
     19250   0.40587565    -1.4285619      0             -1.196633      -0.0090347195 
     19300   0.42629775    -1.4283552      0             -1.1847564     -0.0084905562 
     19350   0.40412331    -1.4283062      0             -1.1973786     -0.016221546  
     19400   0.40056806    -1.4285689      0             -1.1996729     -0.0065303073 
     19450   0.4847766     -1.428423       0             -1.1514078      0.027266352  
     19500   0.4201738     -1.4285709      0             -1.1884716      0.014126842  
     19550   0.46751798    -1.4285437      0             -1.1613906      0.012327066  
     19600   0.52596457    -1.4284768      0             -1.1279257      0.0035400778 
     19650   0.47579068    -1.4285418      0             -1.1566614     -0.0015323693 
     19700   0.55774556    -1.4285432      0             -1.1098315     -0.013116066  
     19750   0.56641668    -1.428527       0             -1.1048603      0.0079655695 
     19800   0.54095295    -1.4285672      0             -1.1194513     -0.017211361  
     19850   0.50827761    -1.4285697      0             -1.1381253     -0.011522731  
     19900   0.49531472    -1.4285655      0             -1.1455285      0.006635849  
     19950   0.50345334    -1.4285714      0             -1.1408837      0.016330558  
     20000   0.47166297    -1.4285714      0             -1.1590497     -0.0037129041 
     20050   0.52353567    -1.4285621      0             -1.1293989     -0.0020871342 
     20100   0.51577839    -1.4285639      0             -1.1338334      0.0025283215 
     20150   0.49733636    -1.4285589      0             -1.1443667     -0.018942935  
     20200   0.47247988    -1.428526       0             -1.1585375      0.0096468144 
     20250   0.52630459    -1.4285624      0             -1.1278169     -0.011463335  
     20300   0.46494818    -1.4285565      0             -1.1628718     -5.4604387e-05
     20350   0.491685      -1.4285096      0             -1.1475468      0.0043207998 
     20400   0.5319908     -1.4285485      0             -1.1245538      0.014298619  
     20450   0.63926809    -1.4284069      0             -1.0631108     -0.01662748   
     20500   0.62926751    -1.4284829      0             -1.0689014     -0.017638307  
     20550   0.54978197    -1.4283307      0             -1.1141696     -0.0031991826 
     20600   0.56610769    -1.4285674      0             -1.1050773      0.0051268042 
     20650   0.6013103     -1.4285565      0             -1.0849506      0.013698982  
     20700   0.56012371    -1.4284861      0             -1.1084155      0.017874681  
     20750   0.55620978    -1.4284723      0             -1.1106382     -0.0019784488 
     20800   0.55666057    -1.428546       0             -1.1104542     -0.012361932  
     20850   0.49956832    -1.4285686      0             -1.143101       0.003750033  
     20900   0.52601411    -1.4285714      0             -1.1279919      0.0079941804 
     20950   0.62351323    -1.428567       0             -1.0722738      0.0020572197 
     21000   0.58755501    -1.4285701      0             -1.0928243      0.00016341623
     21050   0.54412927    -1.4285633      0             -1.1176323     -0.00048599423
     21100   0.52094214    -1.4285691      0             -1.1308879     -0.020179056  
     21150   0.4550671     -1.4284704      0             -1.1684321     -0.021798068  
     21200   0.54140532    -1.4285516      0             -1.1191771      0.0040158451 
     21250   0.50177137    -1.428546       0             -1.1418195     -0.012248014  
     21300   0.40914296    -1.4285684      0             -1.1947724      0.0040301471 
     21350   0.41019344    -1.4283575      0             -1.1939613     -0.00088173677
     21400   0.40271679    -1.4285714      0             -1.1984475      0.014939457  
     21450   0.3992044     -1.428567       0             -1.2004502      0.00092747147
     21500   0.41617753    -1.4285714      0             -1.1907557      0.019547978  
     21550   0.46725561    -1.4285064      0             -1.1615032      0.0029062281 
     21600   0.46994424    -1.4285567      0             -1.1600171      0.0099913439 
     21650   0.51612709    -1.4283447      0             -1.133415       0.0073338204 
     21700   0.52877125    -1.4285656      0             -1.1264106      0.0010796647 
     21750   0.57576506    -1.4277818      0             -1.0987732     -0.013420638  
     21800   0.63029932    -1.4285676      0             -1.0683966     -0.0060599997 
     21850   0.5958472     -1.4283094      0             -1.0878252     -0.015566452  
     21900   0.60510562    -1.4285702      0             -1.0827956      0.0082548195 
     21950   0.48030623    -1.4285642      0             -1.1541035      0.00037700363
     22000   0.51567859    -1.4285703      0             -1.1338968     -0.0030365586 
     22050   0.53033671    -1.428571       0             -1.1255214     -0.0071170211 
     22100   0.58401334    -1.4285387      0             -1.0948168     -0.0075341935 
     22150   0.62628709    -1.4285707      0             -1.0706924     -0.014090497  
     22200   0.70843643    -1.4285662      0             -1.0237454      0.00099033318
     22250   0.67621429    -1.4285696      0             -1.0421615     -0.012326498  
     22300   0.74238192    -1.4284067      0             -1.0041884      0.0097582847 
     22350   0.78637127    -1.4285301      0             -0.97917511     0.00081823981
     22400   0.92652651    -1.4284577      0             -0.89901398    -0.00051869962
     22450   0.92345281    -1.4285691      0             -0.90088178     0.00046444734
     22500   0.84590367    -1.4285699      0             -0.94519636     0.0074298868 
     22550   0.88231631    -1.4285679      0             -0.92438714     0.0011207466 
     22600   0.89832208    -1.428545       0             -0.9152181      0.0022751093 
     22650   0.85608557    -1.4285704      0             -0.93937863     0.021402138  
     22700   0.81002394    -1.4285019      0             -0.96563104    -0.016373605  
     22750   0.8511826     -1.4285172      0             -0.94212712     0.0027165576 
     22800   0.84995043    -1.4284103      0             -0.94272438     0.000256688  
     22850   0.87977552    -1.4285713      0             -0.92584248    -0.014526523  
     22900   0.86880857    -1.4285702      0             -0.93210814    -0.0094366735 
     22950   0.73809513    -1.4285702      0             -1.0068016      0.0025379851 
     23000   0.75979033    -1.4285266      0             -0.99436074     0.0067147235 
     23050   0.6934339     -1.428453       0             -1.0322051      0.00099128828
     23100   0.62728387    -1.4285689      0             -1.0701209     -0.0062666499 
     23150   0.70517517    -1.4285714      0             -1.0256142      0.010052315  
     23200   0.72544518    -1.4285696      0             -1.0140295      0.012969892  
     23250   0.76572765    -1.4285         0             -0.99094139     0.0029515951 
     23300   0.8453275     -1.4281199      0             -0.94507558    -0.009152282  
     23350   0.94335688    -1.4283892      0             -0.8893281     -0.017040523  
     23400   0.92220381    -1.4284655      0             -0.90149185    -0.012494664  
     23450   0.93959944    -1.4285118      0             -0.89159785    -0.019365228  
     23500   0.89747764    -1.4284119      0             -0.91556754    -0.010635652  
     23550   0.99561332    -1.4284866      0             -0.85956469    -0.020067553  
     23600   0.96384081    -1.4284403      0             -0.87767415    -0.0059639527 
     23650   1.0324054     -1.4285138      0             -0.83856786     0.014942405  
     23700   1.093738      -1.4283681      0             -0.8033749      0.01617554   
     23750   1.1378893     -1.4284435      0             -0.77822104     0.0016444345 
     23800   1.1630653     -1.4285614      0             -0.76395268     0.0005956152 
     23850   1.1034165     -1.4285694      0             -0.79804574    -0.0076663198 
     23900   1.1675596     -1.428553       0             -0.76137609    -0.0072837582 
     23950   1.1819805     -1.4284705      0             -0.75305305    -0.0058723074 
     24000   1.1693255     -1.4283704      0             -0.76018442     0.011234715  
     24050   1.1323987     -1.4285215      0             -0.78143656    -0.012798901  
     24100   1.0588273     -1.4284256      0             -0.82338142    -0.00073544052
     24150   1.179155      -1.4284544      0             -0.75465157    -0.017223461  
     24200   1.183931      -1.4280856      0             -0.75155361    -0.009582662  
     24250   1.235034      -1.4279088      0             -0.72217509    -0.012575099  
     24300   1.1995166     -1.428519       0             -0.74308094    -0.0094543134 
     24350   1.1736422     -1.4285714      0             -0.75791871     0.0046482721 
     24400   1.3304174     -1.4285068      0             -0.66826826    -0.0023082737 
     24450   1.2895756     -1.4285615      0             -0.69166111     0.0059781775 
     24500   1.3010291     -1.4284914      0             -0.68504619    -0.019439491  
     24550   1.2987077     -1.4283475      0             -0.68622887    -0.0072550982 
     24600   1.470997      -1.4285704      0             -0.58800064    -0.01282763   
     24650   1.4115189     -1.4285713      0             -0.62198908     0.027428007  
     24700   1.2432179     -1.4277066      0             -0.71729639    -0.0014562533 
     24750   1.2118075     -1.427809       0             -0.73534758     0.0041812389 
     24800   1.0551486     -1.4285213      0             -0.82557921    -0.0054079408 
     24850   0.99655894    -1.4285694      0             -0.85910717     0.00059634579
     24900   0.86868377    -1.4285465      0             -0.93215573     0.015122017  
     24950   0.90292078    -1.4284952      0             -0.91254048     0.0056057169 
     25000   1.1101703     -1.428564       0             -0.79418101    -0.011321289  
     25050   1.0569619     -1.4281957      0             -0.82421748    -0.024880505  
     25100   1.002177      -1.4278447      0             -0.85517208    -0.039843095  
     25150   1.0491218     -1.4284524      0             -0.82895422    -0.027230079  
     25200   1.1137122     -1.4285609      0             -0.79215389    -0.0077892968 
     25250   1.0717743     -1.4285492      0             -0.8161067      0.025629762  
     25300   1.0611289     -1.4284966      0             -0.82213722    -0.0055803364 
     25350   1.1156565     -1.42857        0             -0.79105201     0.030734556  
     25400   1.0986574     -1.4284955      0             -0.80069126    -0.0041120844 
     25450   1.0423549     -1.4285654      0             -0.83293404    -0.010674649  
     25500   1.0792042     -1.4283557      0             -0.81166758    -0.026353413  
     25550   1.2020062     -1.4285206      0             -0.74165993    -0.0090605552 
     25600   1.0779707     -1.4285602      0             -0.81257696     0.022788121  
     25650   1.0480511     -1.4284572      0             -0.82957085     0.0063711888 
     25700   0.92956518    -1.428561       0             -0.89738088     0.037077967  
     25750   0.90945016    -1.4285711      0             -0.9088853      0.0081657111 
     25800   0.90930416    -1.4285532      0             -0.90895078     0.004963129  
     25850   0.81897314    -1.4285522      0             -0.96056751     0.0091872537 
     25900   0.8884599     -1.4285645      0             -0.92087309     0.028546967  
     25950   0.878479      -1.4283772      0             -0.92638923    -0.0010651176 
     26000   0.87400567    -1.4284559      0             -0.92902409    -0.022189891  
     26050   0.77684476    -1.4285169      0             -0.9846056     -0.0142077    
     26100   0.78924725    -1.428536       0             -0.97753755    -0.019903764  
     26150   0.77802039    -1.4285674      0             -0.98398427     0.0025701573 
     26200   0.82409856    -1.4285179      0             -0.95760445    -0.027288157  
     26250   0.84136567    -1.4285644      0             -0.94778403    -0.025256093  
     26300   0.8172815     -1.428417       0             -0.96139902     0.019303461  
     26350   0.82338581    -1.4285621      0             -0.95805595     0.014587909  
     26400   0.78422176    -1.4285293      0             -0.98040256    -0.020534063  
     26450   0.69056498    -1.4285634      0             -1.0339549     -0.0039216218 
     26500   0.73823975    -1.4283147      0             -1.0064635      0.026535113  
     26550   0.64230854    -1.4284646      0             -1.0614312      0.0055776355 
     26600   0.66353235    -1.428561       0             -1.0493997      0.0069224555 
     26650   0.72943633    -1.4285068      0             -1.011686      -0.027273616  
     26700   0.77687796    -1.4285617      0             -0.98463143     0.030805766  
     26750   0.81754824    -1.4285602      0             -0.96138975     0.010546433  
     26800   0.73929362    -1.4284404      0             -1.0059869      0.027565695  
     26850   0.64075911    -1.4285706      0             -1.0624226     -0.013693521  
     26900   0.66316042    -1.4285702      0             -1.0496214     -0.010707824  
     26950   0.68743426    -1.4285514      0             -1.0357319     -0.01532122   
     27000   0.69850494    -1.4284827      0             -1.0293371     -0.014307573  
     27050   0.59845336    -1.428398       0             -1.0864246      0.0061048936 
     27100   0.63640516    -1.428549       0             -1.0648889      0.0069746931 
     27150   0.61980039    -1.4285654      0             -1.0743938     -0.0012397671 
     27200   0.70642881    -1.4284931      0             -1.0248195      0.0085543291 
     27250   0.71800946    -1.5553536      0             -1.1450624      0.011492375  
     27300   0.6993682     -1.5608473      0             -1.1612084      0.010761195  
     27350   0.6969688     -1.4283696      0             -1.0301017      0.0019634156 
     27400   0.63874507    -1.4285669      0             -1.0635697      0.021475752  
     27450   0.6592602     -1.428542       0             -1.0518219      0.017435     
     27500   0.67422575    -1.5655077      0             -1.1802358      0.0066033201 
     27550   0.65931885    -1.5698902      0             -1.1931366      0.0017070656 
     27600   0.6173692     -1.4285282      0             -1.0757458     -0.0078540952 
     27650   0.65886037    -1.4285286      0             -1.0520369      0.021272565  
     27700   0.62023336    -1.4285677      0             -1.0741487      0.019646141  
     27750   0.65350181    -1.4285709      0             -1.0551413     -0.0054532521 
     27800   0.80376676    -1.428564       0             -0.96926873     0.0031288056 
     27850   0.83783276    -1.4284784      0             -0.94971678    -0.01204452   
     27900   0.91029713    -1.4285329      0             -0.90836313     0.011614428  
     27950   0.89874895    -1.4282024      0             -0.9146316     -0.010970909  
     28000   1.0135205     -1.4282735      0             -0.8491189     -0.040097503  
     28050   1.0615497     -1.4285706      0             -0.82197071    -0.013632333  
     28100   1.2549135     -1.4285528      0             -0.71145937    -0.012771561  
     28150   1.3688757     -1.428551       0             -0.64633627     0.016288062  
     28200   1.3354029     -1.4285633      0             -0.66547593     0.034252968  
     28250   1.3278091     -1.4285709      0             -0.66982278    -0.011489003  
     28300   1.1123206     -1.5066967      0             -0.87108489    -0.0011875713 
     28350   1.1833879     -1.4284377      0             -0.75221599    -0.022569612  
     28400   1.1795739     -1.4283727      0             -0.75433051     0.014721466  
     28450   1.2183678     -1.4285415      0             -0.73233131     0.0067540194 
     28500   1.1419786     -1.4285411      0             -0.77598186    -0.026048883  
     28550   1.1641569     -1.4285707      0             -0.76333816    -0.014265391  
     28600   1.2514069     -1.4283948      0             -0.71330515     0.01349597   
     28650   1.0562302     -1.5710686      0             -0.96750851    -0.0085749345 
     28700   1.0666831     -1.5680028      0             -0.95846963    -0.030363089  
     28750   1.0502178     -1.4282548      0             -0.82813035     0.0094940219 
     28800   1.0226888     -1.4285205      0             -0.84412688     0.0028826662 
     28850   0.94280732    -1.4285477      0             -0.88980063     0.016494143  
     28900   0.9646664     -1.4284725      0             -0.87723453    -0.0094890627 
     28950   0.90976859    -1.4284835      0             -0.90861577    -0.0090454079 
     29000   0.96282245    -1.4284052      0             -0.87822099     0.038448347  
     29050   0.88935531    -1.4285713      0             -0.92036827     0.013599609  
     29100   0.8740366     -1.4285231      0             -0.92907365     0.0039466324 
     29150   0.88296804    -1.4285595      0             -0.92400631    -0.025032526  
     29200   0.80901973    -1.4284446      0             -0.96614765    -0.0055375697 
     29250   0.87606603    -1.4285485      0             -0.92793938     0.033698548  
     29300   0.87111612    -1.428563       0             -0.93078237     0.019657826  
     29350   0.84714591    -1.4284226      0             -0.94433924     0.01566064   
     29400   0.78583775    -1.428569       0             -0.97951887     0.01264566   
     29450   0.74955576    -1.4285265      0             -1.0002089     -0.011117539  
     29500   0.64203585    -1.428571       0             -1.0616934      1.8716735e-05
     29550   0.55264317    -1.4284196      0             -1.1126235      0.01257398   
     29600   0.40592604    -1.428556       0             -1.1965983      0.016396084  
     29650   0.51194594    -1.4285246      0             -1.1359841     -0.012816527  
     29700   0.4776879     -1.4285696      0             -1.1556051      0.002455798  
     29750   0.44634696    -1.4285706      0             -1.1735152     -0.011534514  
     29800   0.39993432    -1.4285679      0             -1.200034      -0.014048715  
     29850   0.38619354    -1.4284915      0             -1.2078095     -0.00025784152
     29900   0.34432385    -1.4285497      0             -1.2317932     -0.011394915  
     29950   0.43830925    -1.4285713      0             -1.1781089     -0.011728542  
     30000   0.45686369    -1.4285672      0             -1.1675023      0.004987981  
     30050   0.40806452    -1.4285696      0             -1.1953898      0.0020737329 
     30100   0.44545593    -1.4285681      0             -1.1740218     -0.010752064  
     30150   0.38601062    -1.4285433      0             -1.2079658     -0.0015722369 
     30200   0.35633438    -1.4284824      0             -1.2248628      0.010720656  
     30250   0.40356568    -1.428337       0             -1.1977281     -0.0031585088 
     30300   0.43082477    -1.4283686      0             -1.182183      -0.01860232   
     30350   0.38158105    -1.4285712      0             -1.2105249      0.0092914683 
     30400   0.42825838    -1.4285644      0             -1.1838453     -0.0071916779 
     30450   0.37554286    -1.4285186      0             -1.2139227      0.0043812841 
     30500   0.37942936    -1.4285669      0             -1.2117501      0.02033688   
     30550   0.33083556    -1.4285031      0             -1.2394542      0.0048099737 
     30600   0.35383701    -1.4284821      0             -1.2262895     -0.0077985949 
     30650   0.43330919    -1.4285706      0             -1.1809653     -0.0060280569 
     30700   0.38158852    -1.4285067      0             -1.2104561     -0.018157411  
     30750   0.34742042    -1.4284994      0             -1.2299735     -0.0004534984 
     30800   0.28422433    -1.4285696      0             -1.2661557      0.00045583971
     30850   0.26560327    -1.4280837      0             -1.2763104     -0.0052417913 
     30900   0.31661643    -1.4284739      0             -1.2475502      0.0050544271 
     30950   0.38505956    -1.4285571      0             -1.2085231      0.016501571  
     31000   0.4362951     -1.4282487      0             -1.1789372     -0.014207132  
     31050   0.44708653    -1.4285618      0             -1.1730838     -0.0076212034 
     31100   0.45622988    -1.4284859      0             -1.1677831      0.0032761798 
     31150   0.45534186    -1.4285598      0             -1.1683645      0.0013430611 
     31200   0.40634992    -1.4285703      0             -1.1963704      0.014175208  
     31250   0.38211524    -1.4285703      0             -1.2102187      0.0045722413 
     31300   0.46896049    -1.4285684      0             -1.160591       0.020308037  
     31350   0.44043549    -1.4285358      0             -1.1768584     -0.011583841  
     31400   0.411678      -1.4285191      0             -1.1932745     -0.023995422  
     31450   0.34058466    -1.4285598      0             -1.23394        0.0012631186 
     31500   0.28000145    -1.4285286      0             -1.2685277     -0.0069277804 
     31550   0.3055432     -1.4285679      0             -1.2539718     -0.017308001  
     31600   0.3144103     -1.4285646      0             -1.2489016      0.019532729  
     31650   0.32513279    -1.4283833      0             -1.2425931     -0.003273766  
     31700   0.26714768    -1.4285689      0             -1.2759131     -0.021474496  
     31750   0.30369483    -1.4283943      0             -1.2548544     -0.0025352753 
     31800   0.40924148    -1.4284269      0             -1.1945746     -0.047197334  
     31850   0.43650174    -1.4284893      0             -1.1790597      0.021607177  
     31900   0.37012314    -1.4285649      0             -1.217066       0.0089184959 
     31950   0.41962505    -1.4285599      0             -1.1887742     -0.0041115951 
     32000   0.43957564    -1.4284788      0             -1.1772927     -0.0068068646 
     32050   0.49283391    -1.4285696      0             -1.1469502     -0.034682524  
     32100   0.51960189    -1.4285574      0             -1.131642      -0.0082400727 
     32150   0.61633279    -1.4284767      0             -1.0762866     -0.0021886447 
     32200   0.62361528    -1.4284567      0             -1.0721051     -0.022157351  
     32250   0.58110469    -1.42852        0             -1.0964601     -0.024475734  
     32300   0.52774378    -1.4284422      0             -1.1268743     -0.010899778  
     32350   0.59724049    -1.4284099      0             -1.0871296     -0.022290972  
     32400   0.57226707    -1.4285508      0             -1.1015411      0.012939729  
     32450   0.61730658    -1.4285545      0             -1.0758079      0.017586024  
     32500   0.5780852     -1.4283944      0             -1.09806       -0.011401702  
     32550   0.50274512    -1.4285686      0             -1.1412857     -0.0080445994 
     32600   0.49195044    -1.4285714      0             -1.1474569      0.03013415   
     32650   0.58458424    -1.4285606      0             -1.0945124      0.012935594  
     32700   0.65819638    -1.4284271      0             -1.0523149      0.019423904  
     32750   0.66390131    -1.4285182      0             -1.049146      -0.00013267452
     32800   0.65578187    -1.4285656      0             -1.0538331     -0.013183728  
     32850   0.61293036    -1.4285712      0             -1.0783253     -0.0012441016 
     32900   0.72567467    -1.4285012      0             -1.0138299     -0.0072683306 
     32950   0.76080526    -1.4284918      0             -0.99374598     0.019909336  
     33000   0.72584308    -1.4285315      0             -1.013764      -0.017482176  
     33050   0.76037237    -1.4284502      0             -0.99395171     0.011430386  
     33100   0.68877492    -1.4285425      0             -1.0349568      0.0056347989 
     33150   0.60838218    -1.4285467      0             -1.0808998     -0.0058438031 
     33200   0.51044689    -1.4285583      0             -1.1368743     -0.0048907158 
     33250   0.62503467    -1.428571       0             -1.0714084     -0.0021971594 
     33300   0.60176306    -1.4284849      0             -1.0846203      0.0063831544 
     33350   0.71037843    -1.4285693      0             -1.0226387      0.010565801  
     33400   0.66791002    -1.4285614      0             -1.0468986      0.014627617  
     33450   0.71004556    -1.4285714      0             -1.022831      -0.010343458  
     33500   0.71159712    -1.4281659      0             -1.021539      -0.0040089666 
     33550   0.679054      -1.428567       0             -1.0405361      0.0013099411 
     33600   0.72105759    -1.4284305      0             -1.0163976      0.0049107395 
     33650   0.77166309    -1.428416       0             -0.98746571     0.0030440488 
     33700   0.70108882    -1.4285714      0             -1.0279492     -0.014864467  
     33750   0.71703096    -1.4284569      0             -1.0187249     -0.0035562689 
     33800   0.71219751    -1.4285645      0             -1.0215945      0.0097212379 
     33850   0.79091113    -1.4285684      0             -0.97661918     0.0012709099 
     33900   0.73471352    -1.4285712      0             -1.0087349      0.0038626023 
     33950   0.71448329    -1.42821        0             -1.0199339     -0.0011904476 
     34000   0.66722355    -1.4283979      0             -1.0471273      0.0032231825 
     34050   0.70128961    -1.4282779      0             -1.027541       0.0078397254 
     34100   0.68857894    -1.4285362      0             -1.0350625     -6.7242908e-05
     34150   0.68272439    -1.4285024      0             -1.0383741     -0.0043073024 
     34200   0.71847744    -1.4284795      0             -1.017921       0.0018500181 
     34250   0.6807318     -1.4285707      0             -1.0395811     -0.0059434694 
     34300   0.77241344    -1.4284848      0             -0.98710568     0.0018095331 
     34350   0.83410422    -1.4284917      0             -0.95186073     0.0023126733 
     34400   0.79536377    -1.42851        0             -0.97401639     0.0069378462 
     34450   0.83889664    -1.4285711      0             -0.94920155    -0.0038131597 
     34500   0.86687825    -1.4285583      0             -0.93319931    -0.0029267057 
     34550   0.97216501    -1.4283675      0             -0.87284465     0.0020170593 
     34600   1.064527      -1.4285213      0             -0.82022011    -0.0041579734 
     34650   1.0636631     -1.4285703      0             -0.82076285    -0.0034203559 
     34700   1.0524044     -1.4277896      0             -0.8264157     -0.01803245   
     34750   0.90637125    -1.4285586      0             -0.91063219    -0.00021465598
     34800   0.77230235    -1.4285039      0             -0.9871883      0.0015844709 
     34850   0.74219157    -1.4285481      0             -1.0044386     -0.0091239296 
     34900   0.79680227    -1.4285652      0             -0.97324962    -0.003704414  
     34950   0.81208028    -1.4284784      0             -0.96443252    -0.0031466343 
     35000   0.88925397    -1.4285656      0             -0.92042045     0.0042388574 
     35050   0.88683279    -1.4285282      0             -0.92176661    -0.01003877   
     35100   0.79969691    -1.4284741      0             -0.97150446     0.023073013  
     35150   0.83457502    -1.428525       0             -0.95162502     0.010448953  
     35200   0.73076085    -1.4285277      0             -1.0109501      0.003531037  
     35250   0.61900248    -1.4285466      0             -1.0748309      0.0085466516 
     35300   0.66394618    -1.4285498      0             -1.0491519      0.0017281279 
     35350   0.61422013    -1.4285648      0             -1.0775819      0.0048683847 
     35400   0.67901467    -1.428546       0             -1.0405377     -0.013730456  
     35450   0.67108388    -1.4285472      0             -1.0450707      0.0063510667 
     35500   0.61575361    -1.4285532      0             -1.076694       0.0073048479 
     35550   0.66035144    -1.4285695      0             -1.0512259      0.01724274   
     35600   0.59953483    -1.4283344      0             -1.0857431      0.039384735  
     35650   0.60706928    -1.4285653      0             -1.0816686     -0.0010210958 
     35700   0.67994767    -1.4285639      0             -1.0400223     -0.0036033955 
     35750   0.64884272    -1.4285342      0             -1.057767       0.019496374  
     35800   0.6111854     -1.4285179      0             -1.0792691     -0.002290918  
     35850   0.60412562    -1.4284846      0             -1.0832699      0.0032030858 
     35900   0.54600349    -1.4285416      0             -1.1165396      0.0098674817 
     35950   0.5490409     -1.5710487      0             -1.257311       0.016590514  
     36000   0.63985671    -1.563682       0             -1.1980496      0.010716483  
     36050   0.58608496    -1.4283443      0             -1.0934386      0.0063851987 
     36100   0.60626644    -1.4285554      0             -1.0821174     -0.018592451  
     36150   0.6381097     -1.4285474      0             -1.0639133     -0.0024327335 
     36200   0.56821702    -1.4284956      0             -1.1038002     -0.0059716279 
     36250   0.50248333    -1.4285467      0             -1.1414134     -0.013340262  
     36300   0.44929332    -1.4284243      0             -1.1716853      0.0027712215 
     36350   0.46033601    -1.4285542      0             -1.165505       0.00040725017
     36400   0.52212888    -1.4285307      0             -1.1301714     -0.0077916097 
     36450   0.41603521    -1.4285708      0             -1.1908364      0.0011057327 
     36500   0.47259382    -1.4284978      0             -1.1584442     -0.010713517  
     36550   0.50558947    -1.4285714      0             -1.1396632     -0.0059698275 
     36600   0.4854437     -1.4284993      0             -1.1511029      0.0069326176 
     36650   0.53876475    -1.4285574      0             -1.1206918     -0.0064055439 
     36700   0.50829436    -1.4285642      0             -1.1381103      0.023328069  
     36750   0.49536338    -1.428549       0             -1.1454842      0.014888603  
     36800   0.42845118    -1.4285372      0             -1.183708       0.026888905  
     36850   0.46452695    -1.4285161      0             -1.1630721     -0.021088     
     36900   0.47865677    -1.4285371      0             -1.155019       0.0022945503 
     36950   0.47862678    -1.4285702      0             -1.1550692      0.017951385  
     37000   0.50546561    -1.4285706      0             -1.1397331     -0.0072918645 
     37050   0.52358777    -1.4284882      0             -1.1292952      0.015190303  
     37100   0.53369543    -1.4282946      0             -1.1233258     -0.022490779  
     37150   0.39444168    -1.4285305      0             -1.2031352     -0.00064464118
     37200   0.48563875    -1.4284952      0             -1.1509873      0.001201142  
     37250   0.48591712    -1.4285356      0             -1.1508687     -0.0015484423 
     37300   0.50827485    -1.428571       0             -1.1381283      0.0031862879 
     37350   0.50848901    -1.4285709      0             -1.1380058     -0.014668468  
     37400   0.44488966    -1.4284773      0             -1.1742546     -0.0077943745 
     37450   0.41373319    -1.4285405      0             -1.1921216      0.0096193874 
     37500   0.53515223    -1.4284251      0             -1.1226238      0.0021883856 
     37550   0.55150945    -1.5676102      0             -1.252462       0.008915071  
     37600   0.50790016    -1.5481145      0             -1.2578858     -0.016399104  
     37650   0.63961731    -1.4281495      0             -1.0626539     -0.018097706  
     37700   0.65722303    -1.4283156      0             -1.0527595      0.0080270036 
     37750   0.71330236    -1.4285057      0             -1.0209044      0.026020026  
     37800   0.59010075    -1.5481606      0             -1.2109601     -0.01712851   
     37850   0.6514355     -1.5703586      0             -1.1981098      0.022762918  
     37900   0.56989328    -1.4282926      0             -1.1026393      0.016881623  
     37950   0.59805319    -1.4285504      0             -1.0868057      0.027311732  
     38000   0.58655076    -1.4285711      0             -1.0933993      0.02453532   
     38050   0.46554833    -1.4285709      0             -1.1625433     -0.017703467  
     38100   0.4680196     -1.4284143      0             -1.1609745      0.0087269139 
     38150   0.53678409    -1.4284414      0             -1.1217076     -0.014698725  
     38200   0.55340768    -1.4284141      0             -1.1121812     -0.0056179519 
     38250   0.59920711    -1.4285213      0             -1.0861172      0.0024305671 
     38300   0.58897955    -1.4285654      0             -1.0920057      0.023881116  
     38350   0.72437496    -1.428484       0             -1.0145554      0.0053680982 
     38400   0.87792985    -1.428571       0             -0.92689685     0.008225984  
     38450   0.88489723    -1.4283985      0             -0.9227429     -0.027244871  
     38500   0.90062643    -1.4284829      0             -0.91383919     0.00034890227
     38550   0.87784237    -1.428469       0             -0.92684476     0.028799067  
     38600   0.94644087    -1.4285557      0             -0.88773239    -0.011214728  
     38650   1.034286      -1.4284529      0             -0.83743235    -0.030400063  
     38700   0.98370736    -1.4285298      0             -0.86641129    -0.0016264737 
     38750   1.0919585     -1.4279861      0             -0.80400979     0.017532911  
     38800   1.1094775     -1.4285237      0             -0.79453655    -0.00500309   
     38850   1.0446019     -1.4282462      0             -0.83133088     0.011222431  
     38900   1.0319314     -1.4280598      0             -0.83838468     0.022892418  
     38950   1.1222601     -1.4284952      0             -0.78720368     0.017235705  
     39000   1.1714754     -1.5470431      0             -0.8776286     -0.0061628119 
     39050   1.260031      -1.4285416      0             -0.70852389     0.0051648729 
     39100   1.244189      -1.428249       0             -0.71728387     0.0060680128 
     39150   1.2941193     -1.428249       0             -0.68875227    -0.015439977  
     39200   1.1987777     -1.4282614      0             -0.74324561    -0.016035536  
     39250   1.2062948     -1.4285684      0             -0.73925707    -0.042201304  
     39300   1.148966      -1.4285405      0             -0.77198846     0.014851647  
     39350   1.024562      -1.4285085      0             -0.84304448     0.033043351  
     39400   1.0928413     -1.4285714      0             -0.8040907      0.0061026691 
     39450   1.0805266     -1.4285627      0             -0.81111892    -0.019159304  
     39500   1.0294107     -1.4283717      0             -0.84013699     0.013205935  
     39550   0.97508648    -1.4281986      0             -0.87100632     0.022967485  
     39600   0.98631547    -1.4285098      0             -0.86490101    -0.026906734  
     39650   1.0112292     -1.4284603      0             -0.85061499    -0.021394733  
     39700   1.1355466     -1.4283549      0             -0.77947112     0.016056858  
     39750   0.87817573    -1.4360396      0             -0.93422486    -0.012999836  
     39800   0.93465386    -1.4285612      0             -0.8944733     -0.0097200586 
     39850   0.8465613     -1.4285711      0             -0.94482183     0.0040064769 
     39900   0.84824739    -1.4285709      0             -0.94385812     0.046814344  
     39950   0.89183785    -1.4285554      0             -0.91893376    -0.012253237  
     40000   0.93609363    -1.428155       0             -0.89324435    -0.019555638  
     40050   1.0307831     -1.4285175      0             -0.83949858     0.0040600933 
     40100   0.93663009    -1.4284525      0             -0.89323532    -0.020650598  
     40150   0.96121403    -1.4285597      0             -0.87929452     0.022146522  
     40200   0.96180682    -1.4285432      0             -0.87893931     0.0057020564 
     40250   1.0490232     -1.4283549      0             -0.82891306    -0.025182219  
     40300   1.16799       -1.428553       0             -0.76113014     0.0093219092 
     40350   1.1721349     -1.4285591      0             -0.7587677      0.036067071  
     40400   1.1393169     -1.4285664      0             -0.77752815     0.0052296998 
     40450   1.0430536     -1.4285689      0             -0.83253831    -0.0010689598 
     40500   1.109285      -1.4285197      0             -0.79464259     0.013730061  
     40550   1.0304653     -1.4285405      0             -0.83970323    -0.04532462   
     40600   1.0846081     -1.4285714      0             -0.80879533     0.01205562   
     40650   1.1589789     -1.4285431      0             -0.76626942    -0.0043097778 
     40700   1.1177284     -1.4285428      0             -0.78984089    -0.048192502  
     40750   1.1793896     -1.4284058      0             -0.75446886     0.01070523   
     40800   1.2154648     -1.4285008      0             -0.73394945    -0.023131     
     40850   1.1357545     -1.4283006      0             -0.77929799     0.0044665174 
     40900   1.1192166     -1.4285123      0             -0.78896002     0.016839712  
     40950   1.1141727     -1.428559       0             -0.79188889     0.0047360862 
     41000   1.0960032     -1.4284978      0             -0.80221027    -0.010929573  
     41050   1.0460937     -1.4285374      0             -0.83076956    -0.0074059018 
     41100   1.0559536     -1.4285707      0             -0.8251686      0.0060973049 
     41150   1.0056127     -1.4285709      0             -0.85393513     0.006403714  
     41200   1.0169086     -1.4283961      0             -0.84730548     0.0011238601 
     41250   1.0561863     -1.5705156      0             -0.96698054    -0.014019737  
     41300   1.2023425     -1.5700215      0             -0.88296864     0.027946008  
     41350   1.3322703     -1.428415       0             -0.66711776    -0.0029416533 
     41400   1.1862727     -1.4285712      0             -0.75070108     0.0028181735 
     41450   1.2555376     -1.4285709      0             -0.71112087     0.0037121729 
     41500   1.2202351     -1.4285713      0             -0.73129415     0.0001615306 
     41550   1.1210908     -1.4285283      0             -0.78790498    -0.00044271154
     41600   1.2307691     -1.4282671      0             -0.72497043     0.0031524803 
     41650   1.1993338     -1.4284958      0             -0.74316222    -0.0054334706 
     41700   1.2987199     -1.4285694      0             -0.68644373    -0.0063015825 
     41750   1.3192759     -1.428564       0             -0.67469203    -0.015217918  
     41800   1.3252946     -1.4284923      0             -0.67118111     0.0082888694 
     41850   1.2990774     -1.4282791      0             -0.68594922     0.029715825  
     41900   1.342704      -1.4285256      0             -0.66126617    -0.01174262   
     41950   1.3040458     -1.4285379      0             -0.68336893    -0.010168951  
     42000   1.2853924     -1.4285136      0             -0.69400367     0.0055839905 
     42050   1.2201213     -1.428429       0             -0.73121681     0.0029257657 
     42100   1.2363958     -1.4284713      0             -0.72195943    -0.013189499  
[...]
     89350   1.0889883     -1.4283569      0             -0.80607786     0.0041809383 
     89400   1.0950448     -1.428419       0             -0.80267918     0.025583552  
     89450   1.0682351     -1.4285616      0             -0.81814154    -0.0031859386 
     89500   1.0697893     -1.4285668      0             -0.81725864    -0.036949101  
     89550   0.98649572    -1.4285265      0             -0.86481462     0.011833719  
     89600   0.98664166    -1.4285144      0             -0.86471917     0.002617818  
     89650   0.96506564    -1.4285712      0             -0.87710516     0.0071361866 
     89700   0.97165336    -1.4285709      0             -0.87334042    -0.0071392139 
     89750   0.97804724    -1.4285135      0             -0.8696294     -0.00078873424
     89800   0.92859534    -1.428567       0             -0.89794104    -0.014303005  
     89850   0.99795767    -1.4285714      0             -0.85830989     0.011600848  
     89900   1.0825242     -1.4285524      0             -0.80996715     0.0039081125 
     89950   1.1550951     -1.4285702      0             -0.76851589    -0.01703364   
     90000   1.0555241     -1.4284775      0             -0.82532082    -0.020861318  
     90050   1.1202434     -1.4284492      0             -0.78831007    -0.0029495775 
     90100   1.1749216     -1.4285635      0             -0.75717976    -0.0027070522 
     90150   1.2314644     -1.4282588      0             -0.72456485     0.0125556    
     90200   1.1424319     -1.4283587      0             -0.77554048    -0.023380023  
     90250   1.1175523     -1.4283611      0             -0.78975979     0.035975097  
     90300   1.1417492     -1.4285655      0             -0.77613736    -0.0017595835 
     90350   1.171653      -1.4285644      0             -0.75904839     0.0021154681 
     90400   1.250128      -1.4284995      0             -0.71414069     0.0073754673 
     90450   1.1932772     -1.4285638      0             -0.74669111     0.038190863  
     90500   1.230173      -1.4285415      0             -0.72558545    -0.0053383681 
     90550   1.3369473     -1.4285416      0             -0.66457172     0.0068118631 
     90600   1.4416585     -1.428483       0             -0.60467818     0.011522874  
     90650   1.3616802     -1.428571       0             -0.65046803     0.012996949  
     90700   1.4041539     -1.4285713      0             -0.62619766     0.00287453   
     90750   1.4722049     -1.4285644      0             -0.58730443     0.0066215531 
     90800   1.5303862     -1.4281707      0             -0.5536643     -0.021708004  
     90850   1.4574394     -1.4285635      0             -0.59574105     0.026929852  
     90900   1.3709945     -1.4285409      0             -0.64511546    -0.00687787   
     90950   1.2530698     -1.4284263      0             -0.71238643    -0.030691418  
     91000   1.2680931     -1.4274054      0             -0.70278077    -0.037833315  
     91050   1.420407      -1.4285714      0             -0.6169103     -0.0042676295 
     91100   1.5100911     -1.428541       0             -0.5656318      0.0048907062 
     91150   1.4979393     -1.4285073      0             -0.57254196    -0.0013643795 
     91200   1.4959437     -1.428511       0             -0.57368608    -0.022880118  
     91250   1.6756291     -1.4285709      0             -0.47106853     0.022746746  
     91300   1.6695613     -1.428345       0             -0.47430992     0.0039065522 
     91350   1.663535      -1.4284868      0             -0.47789542    -0.018912849  
     91400   1.5566293     -1.4280185      0             -0.53851603     0.015832199  
     91450   1.671092      -1.4284745      0             -0.47356483    -0.0031976424 
     91500   1.7422001     -1.4285694      0             -0.43302649    -0.0046367987 
     91550   1.7919003     -1.4285688      0             -0.40462575     0.017002213  
     91600   1.6685862     -1.4283642      0             -0.47488641    -0.015933288  
     91650   1.6969073     -1.4285033      0             -0.45884203     0.01816792   
     91700   1.4710306     -1.4285054      0             -0.58791646     0.0045943088 
     91750   1.4678316     -1.4282714      0             -0.58951042     0.00047833897
     91800   1.5835053     -1.4284166      0             -0.52355639     0.0091208806 
     91850   1.7385298     -1.4285703      0             -0.43512469     0.021936262  
     91900   1.7000548     -1.4285432      0             -0.45708332     0.0073701874 
     91950   1.5701374     -1.4283689      0             -0.5311475     -0.0028205465 
     92000   1.4490576     -1.428529       0             -0.60049604     0.010797788  
     92050   1.4297799     -1.4284035      0             -0.61138643     0.0028748407 
     92100   1.5646906     -1.4285643      0             -0.53445541     0.015665727  
     92150   1.6163623     -1.4285697      0             -0.5049341     -0.0059253708 
     92200   1.4740418     -1.4283711      0             -0.58606149    -0.0088132813 
     92250   1.3850336     -1.4271665      0             -0.63571874     0.0015846247 
     92300   1.3462041     -1.4282293      0             -0.6589698     -0.0074635527 
     92350   1.3688399     -1.4285695      0             -0.64637522    -0.0050095532 
     92400   1.3374754     -1.4285664      0             -0.66429476    -0.0016212509 
     92450   1.2735994     -1.4285246      0             -0.70075356    -0.00068758559
     92500   1.2903452     -1.4285679      0             -0.6912278      0.0054523696 
     92550   1.2530105     -1.4285701      0             -0.71256409    -0.044746728  
     92600   1.1633132     -1.4284389      0             -0.76368855     0.031929696  
     92650   1.1641407     -1.4283573      0             -0.76313403     0.0047665891 
     92700   1.253333      -1.428537       0             -0.71234672    -0.0084596458 
     92750   1.2421738     -1.4285215      0             -0.71870789    -0.01216207   
     92800   1.1535233     -1.4285713      0             -0.76941508    -0.015940841  
     92850   1.0307038     -1.4285634      0             -0.83958985    -0.015920546  
     92900   1.0484202     -1.4285563      0             -0.82945903     0.0086356597 
     92950   1.0191454     -1.4285568      0             -0.84618804     0.040662455  
     93000   0.89683647    -1.4285638      0             -0.91608579     0.018610908  
     93050   0.87625624    -1.4279108      0             -0.92719297     0.005248217  
     93100   0.85106075    -1.4285182      0             -0.94219777    -0.0024068359 
     93150   0.7781419     -1.428571       0             -0.98391845    -0.0031415572 
     93200   0.86186105    -1.4285671      0             -0.93607502     0.0066476297 
     93250   0.9552219     -1.4285693      0             -0.88272826     0.015241725  
     93300   0.97863047    -1.4283942      0             -0.86917676     0.0047054721 
     93350   1.0339438     -1.4285059      0             -0.83768089     0.0083492402 
     93400   1.0792511     -1.4285677      0             -0.81185274    -0.0088979651 
     93450   1.1454568     -1.4285577      0             -0.77401098     0.0088904347 
     93500   1.1478897     -1.4285703      0             -0.77263326     0.0010197452 
     93550   1.0092836     -1.428385       0             -0.85165153     0.013420629  
     93600   1.191103      -1.428505       0             -0.7478747     -0.012021359  
     93650   1.153433      -1.4285618      0             -0.76945721     0.0034589736 
     93700   1.1568568     -1.4285153      0             -0.76745421    -0.011227319  
     93750   1.1564193     -1.4285384      0             -0.76772733     0.0050196546 
     93800   1.0518078     -1.4285614      0             -0.82752842    -0.021047543  
     93850   1.1149082     -1.4285373      0             -0.79144689     0.0050913634 
     93900   0.97537038    -1.4285695      0             -0.87121496     0.010288431  
     93950   0.96748232    -1.4285459      0             -0.87569884     0.00035989164
     94000   0.98136091    -1.4283735      0             -0.86759588     0.010873103  
     94050   0.91796266    -1.4284734      0             -0.90392328     0.0070550251 
     94100   0.89416606    -1.4285663      0             -0.91761431    -0.031037314  
     94150   0.91615521    -1.4282138      0             -0.90469656    -0.014144605  
     94200   0.89963315    -1.4285518      0             -0.91447575    -0.0030898085 
     94250   0.75141546    -1.4284764      0             -0.99909614    -0.021496855  
     94300   0.67389982    -1.428547       0             -1.0434614      0.0057564812 
     94350   0.61771798    -1.4283685      0             -1.0753868     -0.01726625   
     94400   0.67517085    -1.4285706      0             -1.0427587      0.018720923  
     94450   0.68469196    -1.4285705      0             -1.0373179      0.00083267796
     94500   0.60820147    -1.4285289      0             -1.0809852      0.0055216134 
     94550   0.65523973    -1.4283093      0             -1.0538866      0.00017850264
     94600   0.67618022    -1.4285713      0             -1.0421826      0.016228138  
     94650   0.74804598    -1.4285711      0             -1.0011163     -0.0077834221 
     94700   0.82063093    -1.4285675      0             -0.95963551    -0.00027871839
     94750   0.88728913    -1.428553       0             -0.92153068     0.00085472017
     94800   0.7661354     -1.428467       0             -0.9906753     -0.012164055  
     94850   0.76187639    -1.4285708      0             -0.9932129      0.026169961  
     94900   0.81250833    -1.4284838      0             -0.96419332    -0.0073123674 
     94950   0.77102652    -1.4285475      0             -0.98796088    -0.0066908008 
     95000   0.89312049    -1.4285701      0             -0.91821555    -0.011050889  
     95050   0.89089427    -1.4285606      0             -0.91947813     0.0031838062 
     95100   0.87639645    -1.4285647      0             -0.92776677     0.012639294  
     95150   0.9367328     -1.4285372      0             -0.8932613      0.010576818  
     95200   0.89592035    -1.4285303      0             -0.9165758     -0.0047983813 
     95250   0.94495217    -1.4283482      0             -0.88837554     0.011023758  
     95300   0.91997552    -1.4285605      0             -0.90286023    -0.0042719889 
     95350   0.90686766    -1.4280922      0             -0.90988207    -0.013304481  
     95400   0.81268232    -1.4285658      0             -0.96417588    -0.014838685  
     95450   0.68943812    -1.4285321      0             -1.0345674      0.0031710522 
     95500   0.77518783    -1.4285708      0             -0.98560634     0.0015053811 
     95550   0.65364881    -1.4284374      0             -1.0549238      0.018120107  
     95600   0.64597378    -1.4282193      0             -1.0590914     -0.013789885  
     95650   0.72234165    -1.4285593      0             -1.0157927      0.0017421466 
     95700   0.6498176     -1.4285714      0             -1.0572471     -0.012829561  
     95750   0.70981879    -1.4284419      0             -1.0228311      0.011080763  
     95800   0.748384      -1.4285683      0             -1.0009203     -0.011855467  
     95850   0.82708859    -1.4285694      0             -0.95594735     0.0030013976 
     95900   0.78710658    -1.4285696      0             -0.97879442     0.0042856829 
     95950   0.75363089    -1.4285662      0             -0.99792002     0.0072850432 
     96000   0.74639273    -1.4285148      0             -1.0020047      0.0036440586 
     96050   0.66938403    -1.4285714      0             -1.0460663      0.012455837  
     96100   0.67645769    -1.4283129      0             -1.0417657     -0.0050701787 
     96150   0.49271391    -1.4285714      0             -1.1470206     -0.0012304251 
     96200   0.58244388    -1.4284213      0             -1.0955963     -0.00026814573
     96250   0.5797238     -1.4281285      0             -1.0968578      0.011596876  
     96300   0.62147348    -1.4283764      0             -1.0732487     -9.9810543e-05
     96350   0.6691837     -1.4285083      0             -1.0461176      0.00091917911
     96400   0.74497721    -1.4285694      0             -1.0028681     -0.0088872603 
     96450   0.76628683    -1.4285419      0             -0.99066375    -0.0028046843 
     96500   0.69587355    -1.4285162      0             -1.0308742     -0.0036663423 
     96550   0.69156228    -1.4285634      0             -1.0333849     -0.0034731403 
     96600   0.75942131    -1.4285704      0             -0.9946154     -0.00039899729
     96650   0.83043191    -1.4285702      0             -0.95403768     0.016126488  
     96700   0.918135      -1.4284205      0             -0.90377196     0.0089604511 
     96750   0.99849131    -1.4285287      0             -0.8579622      0.0019211013 
     96800   0.9801898     -1.4281361      0             -0.86802769    -0.0037010783 
     96850   0.95325114    -1.4279563      0             -0.88324132    -0.015532776  
     96900   0.9831231     -1.4283506      0             -0.86656601     4.0698602e-05
     96950   0.95345864    -1.4284258      0             -0.88359232    -0.0096538576 
     97000   0.91291495    -1.4285623      0             -0.90689657     0.008588401  
     97050   0.92445357    -1.428497       0             -0.90023781     0.011583709  
     97100   0.86789564    -1.4285578      0             -0.93261744     0.0029627039 
     97150   0.81357877    -1.4285577      0             -0.96365559     0.0042687281 
     97200   0.83363599    -1.4285627      0             -0.95219923    -0.006672996  
     97250   0.85907009    -1.4283142      0             -0.93741696    -0.0056807519 
     97300   0.89189007    -1.4285713      0             -0.91891984    -0.0021076162 
     97350   0.91123944    -1.4284604      0             -0.90775214    -0.0040220407 
     97400   0.86884381    -1.428516       0             -0.93203381     0.014243724  
     97450   0.85589768    -1.4285714      0             -0.93948704     0.0014065401 
     97500   0.96248291    -1.4285286      0             -0.87853833    -0.01841445   
     97550   1.0431908     -1.428513       0             -0.83240396     0.0013754078 
     97600   1.0710063     -1.4285458      0             -0.81654216     0.0032595954 
     97650   1.0461515     -1.4285702      0             -0.83076937     0.022109863  
     97700   1.1447626     -1.4282439      0             -0.77409383    -0.015806563  
     97750   1.1786442     -1.4284607      0             -0.75494975    -0.029995833  
     97800   1.117321      -1.4279539      0             -0.78948478     0.012690957  
     97850   1.201018      -1.4285701      0             -0.74227411     0.0020158932 
     97900   1.1264205     -1.4285627      0             -0.78489387     0.003999707  
     97950   1.1661887     -1.428382       0             -0.76198842    -0.0039501151 
     98000   1.1993752     -1.4285713      0             -0.74321409     0.021803544  
     98050   1.1462959     -1.4285298      0             -0.77350361    -0.0074839084 
     98100   1.1374447     -1.4284079      0             -0.77843946     0.001954897  
     98150   1.0755203     -1.4285712      0             -0.81398821     0.024542106  
     98200   1.0850607     -1.4284473      0             -0.8084126      0.013236532  
     98250   1.1080682     -1.4284938      0             -0.79531195    -0.01078297   
     98300   1.1579598     -1.4280414      0             -0.76635005     0.00093402232
     98350   1.2326749     -1.4281356      0             -0.72374995    -0.017176665  
     98400   1.0158451     -1.4285702      0             -0.84808725     0.036669478  
     98450   0.94134069    -1.4285363      0             -0.89062738     0.00014556969
     98500   1.0415209     -1.4285696      0             -0.83341478     0.0082947549 
     98550   1.1782048     -1.4285606      0             -0.75530076    -0.032050806  
     98600   1.1757289     -1.4285711      0             -0.75672603     0.024294002  
     98650   1.1770248     -1.4285714      0             -0.75598578     0.016677801  
     98700   1.1380543     -1.4284122      0             -0.77809545     0.0039224391 
     98750   1.0901987     -1.4284412      0             -0.80547046     0.0028233317 
     98800   1.2168861     -1.4283502      0             -0.73298674    -0.026024441  
     98850   1.355193      -1.4282864      0             -0.65389041    -0.018120383  
     98900   1.3648951     -1.4285615      0             -0.64862146    -0.0070945136 
     98950   1.454735      -1.4285198      0             -0.59724261     0.00063192766
     99000   1.3545351     -1.4284598      0             -0.65443971     0.00059160722
     99050   1.2831367     -1.4285322      0             -0.6953112     -0.0059811008 
     99100   1.2984707     -1.4284771      0             -0.68649383    -0.019828242  
     99150   1.340786      -1.4285688      0             -0.66240535    -0.0075124373 
     99200   1.28752       -1.428507       0             -0.69278127    -0.0013196038 
     99250   1.2328729     -1.4282651      0             -0.72376625     0.017259025  
     99300   1.2440102     -1.4285625      0             -0.71769948    -0.025225008  
     99350   1.250455      -1.4285674      0             -0.71402175    -0.0078067457 
     99400   1.3263899     -1.428562       0             -0.67062495    -0.017854977  
     99450   1.3863275     -1.4280437      0             -0.63585651    -0.058282049  
     99500   1.2409409     -1.428419       0             -0.71930989    -0.046596108  
     99550   1.2337421     -1.4285346      0             -0.72353915    -0.041477599  
     99600   1.2410917     -1.4284872      0             -0.719292      -0.00068553661
     99650   1.2828372     -1.4285662      0             -0.69551633     0.01614237   
     99700   1.3316492     -1.4285447      0             -0.66760226     0.027291669  
     99750   1.2337383     -1.4285265      0             -0.7235332     -0.0068782645 
     99800   1.3772886     -1.428121       0             -0.64109896    -0.022892598  
     99850   1.3477623     -1.4274826      0             -0.65733277    -0.057323785  
     99900   1.251951      -1.4285556      0             -0.71315496     0.016308767  
     99950   1.3857474     -1.42856        0             -0.63670432    -0.0038587273 
    100000   1.4021839     -1.4285712      0             -0.62732319    -0.017583669  
    100001   1.379458      -1.4282158      0             -0.63995406     0.00065701055
Loop time of 0.623463 on 1 procs for 100000 steps with 7 atoms

Performance: 69290398.949 tau/day, 160394.442 timesteps/s, 1.123 Matom-step/s
50.1% CPU use with 1 MPI tasks x 1 OpenMP threads

MPI task timing breakdown:
Section |  min time  |  avg time  |  max time  |%varavg| %total
---------------------------------------------------------------
Pair    | 0.035214   | 0.035214   | 0.035214   |   0.0 |  5.65
Bond    | 0.007304   | 0.007304   | 0.007304   |   0.0 |  1.17
Neigh   | 0.008788   | 0.008788   | 0.008788   |   0.0 |  1.41
Comm    | 0.023325   | 0.023325   | 0.023325   |   0.0 |  3.74
Output  | 0.3592     | 0.3592     | 0.3592     |   0.0 | 57.61
Modify  | 0.12628    | 0.12628    | 0.12628    |   0.0 | 20.26
Other   |            | 0.06335    |            |       | 10.16

Nlocal:              7 ave           7 max           7 min
Histogram: 1 0 0 0 0 0 0 0 0 0
Nghost:             17 ave          17 max          17 min
Histogram: 1 0 0 0 0 0 0 0 0 0
Neighs:              0 ave           0 max           0 min
Histogram: 1 0 0 0 0 0 0 0 0 0

Total # of neighbors = 0
Ave neighs/atom = 0
Ave special neighs/atom = 2.5714286
Neighbor list builds = 4734
Dangerous builds = 0
Total wall time: 0:00:00
