LAMMPS (2 Aug 2023 - Update 3)
OMP_NUM_THREADS environment is not set. Defaulting to 1 thread. (src/comm.cpp:98)
  using 1 OpenMP thread(s) per MPI task
Loaded 1 plugins from F:\LAMMPS\LAMMPS 64-bit 2Aug2023\plugins
# Script to create a Polymer using Patchy Particles (PP)
# Types of Particles:
#   Cross linker:   PPA
#   Monomer:        PPB

# Initialization
units lj
dimension 3
boundary p p p

# Types of atoms and that stuff
atom_style bond
bond_style zero nocoeff
pair_style hybrid/overlay lj/cut 2.5 sw threebody off
newton on

# Get data for box and particles
read_data data.patchyP1.lmp group CL1
Reading data file ...
  orthogonal box = (-5 -5 -5) to (5 5 5)
  1 by 1 by 1 MPI processor grid
  reading atoms ...
  5 atoms
  scanning bonds ...
  4 = max bonds/atom
  reading bonds ...
  4 bonds
Finding 1-2 1-3 1-4 neighbors ...
  special bond factors lj:    0        0        0       
  special bond factors coul:  0        0        0       
     4 = max # of 1-2 neighbors
     3 = max # of 1-3 neighbors
     3 = max # of 1-4 neighbors
     4 = max # of special neighbors
  special bonds CPU = 0.002 seconds
  read_data CPU = 0.008 seconds
read_data data.patchyP2.lmp add append group Mo1
Reading data file ...
  orthogonal box = (-5 -5 -5) to (5 5 5)
  1 by 1 by 1 MPI processor grid
  reading atoms ...
  3 atoms
  scanning bonds ...
  2 = max bonds/atom
  reading bonds ...
  2 bonds
Finding 1-2 1-3 1-4 neighbors ...
  special bond factors lj:    0        0        0       
  special bond factors coul:  0        0        0       
     4 = max # of 1-2 neighbors
     3 = max # of 1-3 neighbors
     3 = max # of 1-4 neighbors
     4 = max # of special neighbors
  special bonds CPU = 0.002 seconds
  read_data CPU = 0.006 seconds

displace_atoms Mo1 move 0.0 0.0 3.0 units box
Displacing atoms ...

# Set the patchy particle interaction
fix CLfix CL1 rigid single
  1 rigid bodies with 5 atoms
fix Mofix Mo1 rigid single
  1 rigid bodies with 3 atoms

#pair_coeff * * sw Patchy.ws CL MO PA PB # i-type j-type pair-style
pair_coeff 1 1 lj/cut 1.0 1.0 1.12 # i-type j-type pair-style eps sigma cutoff
pair_coeff 2 2 lj/cut 1.0 1.0 1.12 # i-type j-type pair-style eps sigma cutoff
pair_coeff 1 2 lj/cut 1.0 1.0 1.12 # i-type j-type pair-style eps sigma cutoff
pair_coeff 3 3 none
pair_coeff 1 3 none
pair_coeff 1 4 none
pair_coeff 2 3 none
pair_coeff 2 4 none
pair_coeff 3 4 sw Patchy.ws NULL NULL PA PB # i-type j-type pair-style
  disabling sw potential three-body terms
pair_coeff 4 4 sw Patchy.ws NULL NULL NULL PB # i-type j-type eps sigma cutoff wca
pair_modify shift yes

# Neighbor list
neighbor 0.3 bin # extra-distance style
#neigh_modify delay 5

minimize 1.0e-4 1.0e-6 1000 10000 # etol ftol maxiter maxeval
WARNING: Using a manybody potential with bonds/angles/dihedrals and special_bond exclusions (src/pair.cpp:242)
WARNING: More than one fix rigid (src/RIGID/fix_rigid.cpp:709)
WARNING: More than one fix rigid (src/RIGID/fix_rigid.cpp:709)
Neighbor list info ...
  update: every = 1 steps, delay = 0 steps, check = yes
  max neighbors/atom: 2000, page size: 100000
  master list distance cutoff = 1.42
  ghost atom cutoff = 1.42
  binsize = 0.71, bins = 15 15 15
  3 neighbor lists, perpetual/occasional/extra = 3 0 0
  (1) pair lj/cut, perpetual, skip from (3)
      attributes: half, newton on
      pair build: skip
      stencil: none
      bin: none
  (2) pair sw, perpetual, skip from (3)
      attributes: half, newton on
      pair build: skip
      stencil: none
      bin: none
  (3) neighbor class addition, perpetual
      attributes: half, newton on
      pair build: half/bin/newton
      stencil: half/bin/3d
      bin: standard
Per MPI rank memory allocation (min/avg/max) = 9.541 | 9.541 | 9.541 Mbytes
   Step          Temp          E_pair         E_mol          TotEng         Press     
         0   0              0              0              0              0.0016666667 
         1   0              0              0              0              0.0016666667 
Loop time of 0.000156 on 1 procs for 1 steps with 8 atoms

0.0% CPU use with 1 MPI tasks x 1 OpenMP threads

Minimization stats:
  Stopping criterion = search direction is not downhill
  Energy initial, next-to-last, final = 
                     0                  0                  0
  Force two-norm initial, final = 0 0
  Force max component initial, final = 0 0
  Final line search alpha, max atom move = 0 0
  Iterations, force evaluations = 1 0

MPI task timing breakdown:
Section |  min time  |  avg time  |  max time  |%varavg| %total
---------------------------------------------------------------
Pair    | 3e-06      | 3e-06      | 3e-06      |   0.0 |  1.92
Bond    | 0          | 0          | 0          |   0.0 |  0.00
Neigh   | 0          | 0          | 0          |   0.0 |  0.00
Comm    | 1e-06      | 1e-06      | 1e-06      |   0.0 |  0.64
Output  | 0          | 0          | 0          |   0.0 |  0.00
Modify  | 0          | 0          | 0          |   0.0 |  0.00
Other   |            | 0.000152   |            |       | 97.44

Nlocal:              8 ave           8 max           8 min
Histogram: 1 0 0 0 0 0 0 0 0 0
Nghost:              0 ave           0 max           0 min
Histogram: 1 0 0 0 0 0 0 0 0 0
Neighs:              0 ave           0 max           0 min
Histogram: 1 0 0 0 0 0 0 0 0 0

Total # of neighbors = 0
Ave neighs/atom = 0
Ave special neighs/atom = 3.25
Neighbor list builds = 0
Dangerous builds = 0

fix 1 all langevin 1.0 1.0 50.0 12345
fix 2 all nve

thermo 50
compute t all temp
compute ep all pe
compute ek all ke
compute tm all momentum

dump 1 all atom 50 dump.patchy_pairs1_ng_proofs

timestep 0.005
run 100000
WARNING: Using a manybody potential with bonds/angles/dihedrals and special_bond exclusions (src/pair.cpp:242)
WARNING: More than one fix rigid (src/RIGID/fix_rigid.cpp:709)
WARNING: More than one fix rigid (src/RIGID/fix_rigid.cpp:709)
WARNING: One or more atoms are time integrated more than once (src/modify.cpp:289)
Per MPI rank memory allocation (min/avg/max) = 8.416 | 8.416 | 8.416 Mbytes
   Step          Temp          E_pair         E_mol          TotEng         Press     
         1   0              0              0              0              0            
        50   0.013965072    0              0              0.006982536    0.00035102054
       100   0.032232979    0              0              0.01611649    -0.013897484  
       150   0.045246173    0              0              0.022623087    0.01196909   
       200   0.045130839    0              0              0.022565419   -0.0023983544 
       250   0.075483221    0              0              0.037741611   -0.00013185037
       300   0.080889413    0              0              0.040444707   -0.0036137298 
       350   0.088340262    0              0              0.044170131   -0.0203071    
       400   0.070381173    0              0              0.035190586   -0.0045513078 
       450   0.081487744    0              0              0.040743872    0.0075198958 
       500   0.070849119    0              0              0.035424559   -0.004052376  
       550   0.070002125    0              0              0.035001062   -0.0027758752 
       600   0.07037931     0              0              0.035189655   -0.0047480531 
       650   0.093042209    0              0              0.046521105    0.006447284  
       700   0.1025858      0              0              0.051292898   -0.00069329157
       750   0.11543214     0              0              0.057716068   -0.0024430606 
       800   0.10757105     0              0              0.053785524    0.001339036  
       850   0.13646833     0              0              0.068234165    0.0071131423 
       900   0.13156647     0              0              0.065783237    0.0040194771 
       950   0.15692314     0              0              0.07846157     0.019642565  
      1000   0.14163837     0              0              0.070819185    0.0072123942 
      1050   0.16949273     0              0              0.084746367   -0.001648043  
      1100   0.1474823      0              0              0.073741148    0.0058174678 
      1150   0.14498543     0              0              0.072492713    0.0022318216 
      1200   0.16915617     0              0              0.084578083   -0.00389583   
      1250   0.13308459     0              0              0.066542297   -0.0071989607 
      1300   0.17675625     0              0              0.088378124   -0.0031054797 
      1350   0.1712953      0              0              0.085647648   -0.0012120829 
      1400   0.1896382      0              0              0.094819098   -0.0090721919 
      1450   0.17718712     0              0              0.088593558    0.0086264836 
      1500   0.21706297     0              0              0.10853149     0.010543861  
      1550   0.27155684     0              0              0.13577842     0.0051868719 
      1600   0.29955301     0              0              0.1497765     -0.0063902149 
      1650   0.30777609     0              0              0.15388805    -0.0050572725 
      1700   0.39091149     0              0              0.19545574     0.0085543248 
      1750   0.40465773     0              0              0.20232886     0.010296311  
      1800   0.41809374     0              0              0.20904687     0.0076317367 
      1850   0.42358091     0              0              0.21179045    -0.0018390581 
      1900   0.43944582     0              0              0.21972291     0.0095930483 
      1950   0.47182166     0              0              0.23591083     0.020436705  
      2000   0.48070218     0              0              0.24035109     0.015085874  
      2050   0.39078269     0              0              0.19539134     0.00087020619
      2100   0.42322682     0              0              0.21161341    -0.007075402  
      2150   0.49162058     0              0              0.24581029    -0.013291048  
      2200   0.46495225     0              0              0.23247613    -0.0055008646 
      2250   0.47724817     0              0              0.23862408    -0.018093134  
      2300   0.50366447     0              0              0.25183223    -0.013139877  
      2350   0.49242004     0              0              0.24621002     0.010897294  
      2400   0.41094124     0              0              0.20547062     0.020676026  
      2450   0.35504636     0              0              0.17752318    -0.0024086389 
      2500   0.25992298     0              0              0.12996149     0.0017088376 
      2550   0.2769368      0              0              0.1384684     -0.0029451577 
      2600   0.25658237     0              0              0.12829118     0.008327607  
      2650   0.27767711     0              0              0.13883856     0.0063449012 
      2700   0.33065685     0              0              0.16532843     0.012681388  
      2750   0.24664315     0              0              0.12332157    -0.0031736862 
      2800   0.22793709     0              0              0.11396855    -0.012505176  
      2850   0.23455322     0              0              0.11727661     0.0094596348 
      2900   0.22229517     0              0              0.11114758     0.017549267  
      2950   0.29084834     0              0              0.14542417     0.015233365  
      3000   0.27633694     0              0              0.13816847    -0.025521712  
      3050   0.32101939     0              0              0.16050969     0.012797719  
      3100   0.28143692     0              0              0.14071846    -0.0071580545 
      3150   0.26406915     0              0              0.13203457     0.02537927   
      3200   0.25328098     0              0              0.12664049     9.6682227e-05
      3250   0.26783648     0              0              0.13391824    -0.026302296  
      3300   0.30784229     0              0              0.15392114     0.005802413  
      3350   0.27353969     0              0              0.13676985     0.018349896  
      3400   0.26532423     0              0              0.13266212     0.028030606  
      3450   0.30900576     0              0              0.15450288     0.00048864551
      3500   0.37074711     0              0              0.18537356    -0.01534476   
      3550   0.31333952     0              0              0.15666976     0.0059101058 
      3600   0.41654793     0              0              0.20827397     0.0075431316 
      3650   0.40875241     0              0              0.20437621    -0.0075134089 
      3700   0.46366812     0              0              0.23183406     0.0035409084 
      3750   0.47619523     0              0              0.23809762    -0.015731891  
      3800   0.50997325     0              0              0.25498663    -0.017179117  
      3850   0.5337176      0              0              0.2668588      0.014404938  
      3900   0.59579952     0              0              0.29789976    -0.020243267  
      3950   0.58449552     0              0              0.29224776    -0.0072791523 
      4000   0.49430323     0              0              0.24715162     0.016972295  
      4050   0.50743896     0              0              0.25371948     0.02033718   
      4100   0.5424712      0              0              0.2712356      0.0090988739 
      4150   0.53444705     0              0              0.26722353     0.012441811  
      4200   0.53097129     0              0              0.26548565     0.012265701  
      4250   0.4626195      0              0              0.23130975    -0.0041239497 
      4300   0.41278804     0              0              0.20639402     0.0084130968 
      4350   0.31083496     0              0              0.15541748    -0.013801314  
      4400   0.36161433     0              0              0.18080717     0.0041093623 
      4450   0.4520847      0              0              0.22604235     0.0076375944 
      4500   0.39203276     0              0              0.19601638    -0.0028005324 
      4550   0.42682968     0              0              0.21341484     0.013805422  
      4600   0.45905063     0              0              0.22952531     0.0092119445 
      4650   0.44852612     0              0              0.22426306    -0.0074198635 
      4700   0.45642134     0              0              0.22821067    -0.0043631004 
      4750   0.35168397     0              0              0.17584199     0.014963449  
      4800   0.33871587     0              0              0.16935793     2.3066748e-05
      4850   0.3463085      0              0              0.17315425     0.010022245  
      4900   0.32921529     0              0              0.16460765     0.0057952079 
      4950   0.42971229     0              0              0.21485614     0.00014380372
      5000   0.39765765     0              0              0.19882882     0.0069182615 
      5050   0.39879196     0              0              0.19939598    -0.0068992653 
      5100   0.40302702     0              0              0.20151351     0.013087692  
      5150   0.4250336      0              0              0.2125168      0.001414843  
      5200   0.40518125     0              0              0.20259063     0.00094243666
      5250   0.38150565     0              0              0.19075282    -0.0055449282 
      5300   0.37879228     0              0              0.18939614     0.00397024   
      5350   0.45237316     0              0              0.22618658     0.0043049347 
      5400   0.45335299     0              0              0.22667649    -0.0010942533 
      5450   0.45621774     0              0              0.22810887     0.0037079119 
      5500   0.44858618     0              0              0.22429309    -0.0028658485 
      5550   0.580845       0              0              0.2904225     -0.0044662005 
      5600   0.56597586     0              0              0.28298793     0.0020855376 
      5650   0.51928166     0              0              0.25964083    -0.012510571  
      5700   0.53389163     0              0              0.26694582    -0.0059221193 
      5750   0.51344575     0              0              0.25672287    -0.0063367381 
      5800   0.39999043     0              0              0.19999521    -0.013969817  
      5850   0.37997465     0              0              0.18998733    -0.0050763003 
      5900   0.34239315     0              0              0.17119658    -0.026052557  
      5950   0.38638877     0              0              0.19319438     0.0045588822 
      6000   0.39658192     0              0              0.19829096     0.0072273838 
      6050   0.42266234     0              0              0.21133117    -0.00050565295
      6100   0.37364684     0              0              0.18682342    -0.0076825313 
      6150   0.39074218     0              0              0.19537109     0.00018724346
      6200   0.33324135     0              0              0.16662067    -0.0047192963 
      6250   0.37161043     0              0              0.18580521     0.0025007022 
      6300   0.33732306     0              0              0.16866153     0.0094653295 
      6350   0.35097542     0              0              0.17548771     0.0086040005 
      6400   0.24375149     0              0              0.12187575    -0.0059643641 
      6450   0.28801399     0              0              0.144007      -0.0018053082 
      6500   0.34444874     0              0              0.17222437    -0.0052024017 
      6550   0.31590746     0              0              0.15795373     0.0024994283 
      6600   0.34905228     0              0              0.17452614     0.0013457643 
      6650   0.36916093     0              0              0.18458046    -0.016505232  
      6700   0.39619838     0              0              0.19809919    -0.025205547  
      6750   0.35433455     0              0              0.17716727     0.0017977158 
      6800   0.42325103     0              0              0.21162552    -0.019163708  
      6850   0.49397447     0              0              0.24698723    -0.00080995653
      6900   0.59366386     0              0              0.29683193    -0.0064400833 
      6950   0.64773196     0              0              0.32386598    -0.020251015  
      7000   0.54378945     0              0              0.27189473    -0.0206924    
      7050   0.48434691     0              0              0.24217345    -0.0064981214 
      7100   0.53909064     0              0              0.26954532     0.014552201  
      7150   0.52855843     0              0              0.26427922     0.0088757164 
      7200   0.49699324     0              0              0.24849662     0.0011307646 
      7250   0.66124183     0              0              0.33062091    -0.00053178155
      7300   0.62490973     0              0              0.31245486     0.0019250148 
      7350   0.673105       0              0              0.3365525      0.0028280702 
      7400   0.64740697     0              0              0.32370349     0.012429859  
      7450   0.7351226      0              0              0.3675613      0.00068983015
      7500   0.67269724     0              0              0.33634862     0.0067696128 
      7550   0.75147412     0              0              0.37573706    -0.0011079799 
      7600   0.7317617      0              0              0.36588085     0.013018546  
      7650   0.70919463     0              0              0.35459732    -0.030173624  
      7700   0.70694724     0              0              0.35347362    -0.0085230607 
      7750   0.70839339     0              0              0.3541967      0.0019579105 
      7800   0.76695131     0              0              0.38347565    -0.013544357  
      7850   0.75361572     0              0              0.37680786     0.0063528501 
      7900   0.71373547     0              0              0.35686773     0.0031877237 
      7950   0.69673518     0              0              0.34836759     0.021309033  
      8000   0.5996757      0              0              0.29983785     0.010752763  
      8050   0.58308633     0              0              0.29154317     0.0066761543 
      8100   0.65486789     0              0              0.32743394     0.0097735508 
      8150   0.8121164      0              0              0.4060582     -0.0046224337 
      8200   0.91658805     0              0              0.45829402    -0.029402041  
      8250   0.88731758     0              0              0.44365879     0.010734341  
      8300   0.85666326     0              0              0.42833163     0.0022579482 
      8350   0.84553003     0              0              0.42276501    -0.027621858  
      8400   0.80593659     0              0              0.4029683      0.025451191  
      8450   0.76535651     0              0              0.38267825     0.02012049   
      8500   0.86855171     0              0              0.43427585     0.021711449  
      8550   0.69933986     0              0              0.34966993    -0.0065180218 
      8600   0.76203074     0              0              0.38101537    -0.010837114  
      8650   0.66731629     0              0              0.33365814    -0.017940188  
      8700   0.69117322     0              0              0.34558661     0.0066789924 
      8750   0.73212949     0              0              0.36606475    -0.0073334932 
      8800   0.70542915     0              0              0.35271457     0.0011827377 
      8850   0.73671257     0              0              0.36835629     0.033224353  
      8900   0.75024528     0              0              0.37512264    -0.049849893  
      8950   0.81324315     0              0              0.40662157     0.010294155  
      9000   0.8581781      0              0              0.42908905    -0.018329125  
      9050   0.92405706     0              0              0.46202853     0.016216604  
      9100   0.96295193     0              0              0.48147596    -0.011142727  
      9150   0.99813663     0              0              0.49906831    -0.015343332  
      9200   0.99759896     0              0              0.49879948    -0.0031151286 
      9250   0.92939155     0              0              0.46469577     0.0017906672 
      9300   0.78106617     0              0              0.39053308    -0.011067657  
      9350   0.86191344     0              0              0.43095672    -0.014056109  
      9400   0.93055336     0              0              0.46527668     0.026748975  
      9450   0.83799133     0              0              0.41899567     0.020997105  
      9500   0.90188266     0              0              0.45094133     0.017022802  
      9550   0.93572109     0              0              0.46786055    -0.01360026   
      9600   0.86676028     0              0              0.43338014     0.0014223611 
      9650   0.91309313     0              0              0.45654657    -0.016512793  
      9700   0.98385661     0              0              0.4919283      0.015132799  
      9750   0.94982605     0              0              0.47491302    -0.02099437   
      9800   0.98484543     0              0              0.49242272    -0.014662056  
      9850   1.0199074      0              0              0.5099537      0.016047041  
      9900   1.0440767      0              0              0.52203834     0.013487291  
      9950   1.0553362      0              0              0.52766811    -0.0019461668 
     10000   1.179427       0              0              0.58971351     0.015257598  
     10050   1.2594813      0              0              0.62974063    -0.022467505  
     10100   1.3281377      0              0              0.66406887    -0.0086919789 
     10150   1.3351449      0              0              0.66757246     0.019801481  
     10200   1.4445699      0              0              0.72228495     0.0056639026 
     10250   1.4095998      0              0              0.70479992     0.022678306  
     10300   1.3023113      0              0              0.65115566    -0.0032010666 
     10350   1.2909252      0              0              0.6454626      0.0032042028 
     10400   1.3579796      0              0              0.67898981     0.0068955948 
     10450   1.4115074      0              0              0.70575369    -0.01661988   
     10500   1.4944421      0              0              0.74722107    -0.022976328  
     10550   1.426998       0              0              0.71349899    -0.018210429  
     10600   1.3260009      0              0              0.66300047     0.0024670857 
     10650   1.3444599      0              0              0.67222995     0.012141999  
     10700   1.4581934      0              0              0.72909668    -0.003739898  
     10750   1.4091744      0              0              0.70458719     0.0011230063 
     10800   1.3969878      0              0              0.69849392     0.00083238202
     10850   1.488875       0              0              0.7444375     -0.0064174225 
     10900   1.3993387      0              0              0.69966933     0.0019211205 
     10950   1.363771       0              0              0.68188549    -0.0059528773 
     11000   1.348171       0              0              0.67408548     0.027881103  
     11050   1.4436384      0              0              0.72181919     0.0027046565 
     11100   1.4661621      0              0              0.73308105    -0.0057149742 
     11150   1.3597005      0              0              0.67985024     0.00020340798
     11200   1.3910222      0              0              0.69551112     0.017336901  
     11250   1.2365302      0              0              0.6182651      0.014860767  
     11300   1.1704251      0              0              0.58521256     0.025749456  
     11350   1.2164254      0              0              0.60821272     0.015837703  
     11400   1.3152372      0              0              0.65761859     0.0074550963 
     11450   1.4121594      0              0              0.7060797     -0.0049514282 
     11500   1.3240849      0              0              0.66204246     0.0096267241 
     11550   1.3254304      0              0              0.66271519     0.020889446  
     11600   1.2755369      0              0              0.63776845     0.028003056  
     11650   1.1534988      0              0              0.5767494      0.0011920745 
     11700   1.247975       0              0              0.6239875      0.017746787  
     11750   1.1973369      0              0              0.59866846    -0.000924679  
     11800   1.1187861      0              0              0.55939307    -0.012249127  
     11850   1.2160887      0              0              0.60804434     0.0012003127 
     11900   1.0927215      0              0              0.54636077    -0.0079343382 
     11950   1.0780623      0              0              0.53903116    -0.015990033  
     12000   1.1188534      0              0              0.5594267      0.0091683128 
     12050   1.1567973      0              0              0.57839864    -0.0078836234 
     12100   1.1791586      0              0              0.58957928     0.0028632909 
     12150   1.2639983      0              0              0.63199914     0.0029867833 
     12200   1.2825376      0              0              0.6412688      0.013715159  
     12250   1.3088009      0              0              0.65440047    -0.0091256211 
     12300   1.3560743      0              0              0.67803713     0.02866013   
     12350   1.2209237      0              0              0.61046184     0.017559465  
     12400   1.246995       0              0              0.62349748     0.010990833  
     12450   1.1407171      0              0              0.57035853    -0.02035315   
     12500   1.0586807      0              0              0.52934037     0.039426706  
     12550   1.0909989      0              0              0.54549944    -0.031224456  
     12600   1.1012718      0              0              0.55063591     0.0049217979 
     12650   1.0970646      0              0              0.54853229     0.0010391099 
     12700   1.1299067      0              0              0.56495335     0.00055170162
     12750   1.2665706      0              0              0.63328531     0.018607189  
     12800   1.3269618      0              0              0.66348091    -0.0076591843 
     12850   1.313078       0              0              0.65653902     0.024929241  
     12900   1.3868374      0              0              0.69341872     0.017462264  
     12950   1.5560998      0              0              0.77804992     0.019951195  
     13000   1.4197326      0              0              0.70986629    -0.015942238  
     13050   1.3663385      0              0              0.68316927    -0.026423642  
     13100   1.2393711      0              0              0.61968557    -0.0092499027 
     13150   1.1075233      0              0              0.55376167    -0.0033732009 
     13200   0.97972182     0              0              0.48986091     0.012953062  
     13250   0.82737458     0              0              0.41368729    -0.01662814   
     13300   0.78415698     0              0              0.39207849    -0.0066307651 
     13350   0.7471556      0              0              0.3735778     -0.023394344  
     13400   0.77016534     0              0              0.38508267     0.010740001  
     13450   0.771351       0              0              0.3856755     -0.0056054212 
     13500   0.66085252     0              0              0.33042626    -0.0073041759 
     13550   0.69368211     0              0              0.34684106     0.032761411  
     13600   0.73721116     0              0              0.36860558     0.02908749   
     13650   0.69670098     0              0              0.34835049     0.02262589   
     13700   0.5611609      0              0              0.28058045     0.0049012158 
     13750   0.66214399     0              0              0.331072      -0.022004189  
     13800   0.60434461     0              0              0.30217231    -0.02043111   
     13850   0.63042347     0              0              0.31521173    -0.011482681  
     13900   0.70407856     0              0              0.35203928    -4.3750813e-05
     13950   0.84532937     0              0              0.42266468    -0.0087787766 
     14000   0.90172754     0              0              0.45086377     0.0032282586 
     14050   0.86215012     0              0              0.43107506     0.011622117  
     14100   0.87536458     0              0              0.43768229     0.0030223188 
     14150   0.75252541     0              0              0.3762627      0.017027636  
     14200   0.67571671     0              0              0.33785835    -0.037383161  
     14250   0.71778755     0              0              0.35889378    -0.032981187  
     14300   0.77060673     0              0              0.38530336     0.0070654596 
     14350   0.75969436     0              0              0.37984718     0.022830441  
     14400   0.66062036     0              0              0.33031018     0.019813542  
     14450   0.66438877     0              0              0.33219438    -0.020362381  
     14500   0.62737736     0              0              0.31368868    -0.010627233  
     14550   0.52245159     0              0              0.2612258     -0.018374162  
     14600   0.48862749     0              0              0.24431374    -0.012172106  
     14650   0.52378039     0              0              0.26189019    -0.023209964  
     14700   0.458437       0              0              0.2292185     -0.012705601  
     14750   0.48279333     0              0              0.24139667     0.021625482  
     14800   0.52863004     0              0              0.26431502    -0.029618913  
     14850   0.56826884     0              0              0.28413442     0.0011640081 
     14900   0.51086284     0              0              0.25543142    -0.019386528  
     14950   0.51867551     0              0              0.25933775    -0.0037577074 
     15000   0.5491466      0              0              0.2745733      6.838774e-05 
     15050   0.48987446     0              0              0.24493723    -0.010639583  
     15100   0.43544855     0              0              0.21772427     0.0036800947 
     15150   0.41450623     0              0              0.20725311    -0.0027636034 
     15200   0.46205461     0              0              0.23102731    -0.0047812971 
     15250   0.45574073     0              0              0.22787037     0.0031060007 
     15300   0.45010509     0              0              0.22505254    -0.0032342371 
     15350   0.49020114     0              0              0.24510057     0.011822886  
     15400   0.43951009     0              0              0.21975504     0.01127866   
     15450   0.47206657     0              0              0.23603328     0.0065693761 
     15500   0.48018747     0              0              0.24009374    -0.00034515183
     15550   0.44179753     0              0              0.22089877     0.0044771431 
     15600   0.40611279     0              0              0.2030564      0.0065419471 
     15650   0.40322052     0              0              0.20161026    -0.0076760829 
     15700   0.39473947     0              0              0.19736974    -0.0012559191 
     15750   0.3664834      0              0              0.1832417      0.002459488  
     15800   0.36285743     0              0              0.18142872     0.0016129942 
     15850   0.35920398     0              0              0.17960199     0.0059750707 
     15900   0.28560476     0              0              0.14280238    -0.016313392  
     15950   0.29764323     0              0              0.14882161    -0.017665139  
     16000   0.33307251     0              0              0.16653626     0.0096641195 
     16050   0.36014593     0              0              0.18007297    -0.0068323282 
     16100   0.3506789      0              0              0.17533945    -0.0041506953 
     16150   0.32553516     0              0              0.16276758    -0.0047277567 
     16200   0.36760336     0              0              0.18380168    -0.0029995562 
     16250   0.3176843      0              0              0.15884215     0.012795429  
     16300   0.33262344     0              0              0.16631172    -0.010236683  
     16350   0.25986836     0              0              0.12993418     0.0049667212 
     16400   0.34421132     0              0              0.17210566     0.0036148635 
     16450   0.36950656     0              0              0.18475328     0.012079195  
     16500   0.44260237     0              0              0.22130119    -0.0079548256 
     16550   0.42524322     0              0              0.21262161     0.0075305178 
     16600   0.41448994     0              0              0.20724497    -0.0017580258 
     16650   0.40233692     0              0              0.20116846    -0.00052449419
     16700   0.44240345     0              0              0.22120173    -0.0094438984 
     16750   0.449694       0              0              0.224847      -0.0046937126 
     16800   0.54030199     0              0              0.270151       0.0020447963 
     16850   0.54884067     0              0              0.27442034    -0.0098079783 
     16900   0.51121875     0              0              0.25560938     0.001526089  
     16950   0.45721543     0              0              0.22860772    -0.0038852146 
     17000   0.47766662     0              0              0.23883331    -0.0047688705 
     17050   0.4449241      0              0              0.22246205     0.00067923902
     17100   0.44195957     0              0              0.22097979     0.0080389794 
     17150   0.4665032      0              0              0.2332516     -0.0062446107 
     17200   0.51739096     0              0              0.25869548     0.010323775  
     17250   0.58943726     0              0              0.29471863     0.01177658   
     17300   0.53093673     0              0              0.26546837     0.0028596967 
     17350   0.42395444     0              0              0.21197722    -0.0020225847 
     17400   0.40539112     0              0              0.20269556    -0.0023874432 
     17450   0.4178817      0              0              0.20894085    -0.0054404806 
     17500   0.45230293     0              0              0.22615147    -0.0063400369 
     17550   0.51087442     0              0              0.25543721    -0.010950417  
     17600   0.53056364     0              0              0.26528182     0.020973215  
     17650   0.50017459     0              0              0.2500873     -0.0094342236 
     17700   0.56513348     0              0              0.28256674    -0.012768024  
     17750   0.57146364     0              0              0.28573182    -0.0028224008 
     17800   0.5922029      0              0              0.29610145     0.006187497  
     17850   0.61701437     0              0              0.30850719     0.0019425186 
     17900   0.58656311     0              0              0.29328156    -0.0027259138 
     17950   0.61401879     0              0              0.3070094     -0.01823601   
     18000   0.64913218     0              0              0.32456609     0.0074694974 
     18050   0.7091511      0              0              0.35457555     0.016255782  
     18100   0.71195143     0              0              0.35597571    -0.012723567  
     18150   0.73833425     0              0              0.36916712     0.0082875771 
     18200   0.66002426     0              0              0.33001213     0.0081829767 
     18250   0.62833393     0              0              0.31416697     0.023986159  
     18300   0.68914002     0              0              0.34457001     0.0104485    
     18350   0.73164921     0              0              0.3658246     -0.0070801434 
     18400   0.68399995     0              0              0.34199997     0.0091527701 
     18450   0.75395968     0              0              0.37697984    -0.015009042  
     18500   0.70313948     0              0              0.35156974    -0.0044350013 
     18550   0.62540667     0              0              0.31270334    -0.013089489  
     18600   0.63036199     0              0              0.31518099     0.006061059  
     18650   0.61562812     0              0              0.30781406    -0.0038289398 
     18700   0.60216431     0              0              0.30108216    -0.014569295  
     18750   0.59979338     0              0              0.29989669    -0.011873711  
     18800   0.61125544     0              0              0.30562772     0.0093041749 
     18850   0.66305637     0              0              0.33152818     0.017374918  
     18900   0.70417674     0              0              0.35208837    -0.016981019  
     18950   0.69975213     0              0              0.34987607     0.0050501083 
     19000   0.66160519     0              0              0.3308026      0.017485671  
     19050   0.72560398     0              0              0.36280199     0.016654123  
     19100   0.68719547     0              0              0.34359774    -0.0046720205 
     19150   0.68324299     0              0              0.3416215     -0.0089829222 
     19200   0.73022727     0              0              0.36511364     0.0028957742 
     19250   0.65712097     0              0              0.32856048    -0.0061931956 
     19300   0.66906616     0              0              0.33453308    -0.012161945  
     19350   0.78606628     0              0              0.39303314    -0.02325794   
     19400   0.79373939     0              0              0.39686969    -0.019343507  
     19450   0.84432225     0              0              0.42216112    -0.0065489331 
     19500   0.83315271     0              0              0.41657635     0.030492065  
     19550   0.90612736     0              0              0.45306368     0.062667444  
     19600   0.92961254     0              0              0.46480627     0.043365261  
     19650   0.8849378      0              0              0.4424689     -0.003245612  
     19700   0.86038744     0              0              0.43019372     0.0083092175 
     19750   0.7832795      0              0              0.39163975     0.006620265  
     19800   0.74744368     0              0              0.37372184     0.024984844  
     19850   0.80275987     0              0              0.40137993     0.011868094  
     19900   0.80749912     0              0              0.40374956     0.028852247  
     19950   0.74661145     0              0              0.37330572     0.017807875  
     20000   0.80951126     0              0              0.40475563     2.8880381e-05
     20050   0.7861149      0              0              0.39305745     0.014106124  
     20100   0.81227221     0              0              0.4061361      0.019296344  
     20150   0.71836918     0              0              0.35918459    -0.0021474179 
     20200   0.67361927     0              0              0.33680964    -0.0011038694 
     20250   0.63356777     0              0              0.31678388    -0.021971599  
     20300   0.73462306     0              0              0.36731153     0.034963493  
     20350   0.77229247     0              0              0.38614624     0.0040490736 
     20400   0.87641373     0              0              0.43820686     0.0046986315 
     20450   0.95604095     0              0              0.47802047    -0.011897329  
     20500   0.93265469     0              0              0.46632735     0.0096737982 
     20550   0.89727598     0              0              0.44863799    -0.009297005  
     20600   0.87160165     0              0              0.43580083    -0.00036732697
     20650   0.86737794     0              0              0.43368897    -0.011588449  
     20700   0.98140012     0              0              0.49070006    -0.011231287  
     20750   1.0449815      0              0              0.52249073    -0.0059443479 
     20800   1.045505       0              0              0.52275252     0.018432407  
     20850   0.83645632     0              0              0.41822816    -0.020300308  
     20900   0.8236227      0              0              0.41181135     0.0088210616 
     20950   0.71146344     0              0              0.35573172    -0.018676049  
     21000   0.8123881      0              0              0.40619405     0.0088553485 
     21050   0.75211514     0              0              0.37605757     0.024548941  
     21100   0.68119928     0              0              0.34059964     0.039211333  
     21150   0.72076624     0              0              0.36038312     0.018193245  
     21200   0.73969907     0              0              0.36984953     0.010199459  
     21250   0.69158833     0              0              0.34579417     0.0083401001 
     21300   0.66583039     0              0              0.33291519    -0.015461182  
     21350   0.64860881     0              0              0.32430441    -0.022293068  
     21400   0.63200931     0              0              0.31600465     0.014754453  
     21450   0.64574068     0              0              0.32287034     0.0037380146 
     21500   0.67070522     0              0              0.33535261    -0.0003196999 
     21550   0.6940507      0              0              0.34702535     0.0003920568 
     21600   0.71952575     0              0              0.35976287     0.0037071832 
     21650   0.71215376     0              0              0.35607688     0.010170307  
     21700   0.7002474      0              0              0.3501237      0.017731855  
     21750   0.67974723     0              0              0.33987362     0.013599646  
     21800   0.61657655     0              0              0.30828828    -0.012205162  
     21850   0.62125393     0              0              0.31062696    -0.018212684  
     21900   0.56065068     0              0              0.28032534    -0.0067790193 
     21950   0.65131604     0              0              0.32565802    -0.01200597   
     22000   0.7207108      0              0              0.3603554     -0.022456125  
     22050   0.77478923     0              0              0.38739461     0.023693444  
     22100   0.71837186     0              0              0.35918593     0.006092929  
     22150   0.69631779     0              0              0.3481589      0.0070354682 
     22200   0.76242284     0              0              0.38121142     0.034680635  
     22250   0.85205995     0              0              0.42602997     0.035535462  
     22300   0.87720522     0              0              0.43860261     0.027279205  
     22350   0.98698844     0              0              0.49349422     0.017371381  
     22400   0.92312359     0              0              0.46156179    -0.0053159931 
     22450   0.9592765      0              0              0.47963825     0.0002756326 
     22500   0.9009121      0              0              0.45045605    -0.0042769057 
     22550   0.85820385     0              0              0.42910193     0.031969215  
     22600   0.75619831     0              0              0.37809916    -0.020489065  
     22650   0.75507817     0              0              0.37753909    -0.0071377456 
     22700   0.828827       0              0              0.4144135      0.012947585  
     22750   0.79917486     0              0              0.39958743     0.0060154095 
     22800   0.76948036     0              0              0.38474018     0.0038140528 
     22850   0.80617257     0              0              0.40308629     0.0042024235 
     22900   0.75286488     0              0              0.37643244    -0.012468894  
     22950   0.78933181     0              0              0.3946659     -0.004334116  
     23000   0.78347633     0              0              0.39173817    -0.0036000677 
     23050   0.78691387     0              0              0.39345693    -0.0029070492 
     23100   0.847318       0              0              0.423659       0.0065782155 
     23150   0.85459792     0              0              0.42729896    -0.015142058  
     23200   0.89908536     0              0              0.44954268    -0.0031648523 
     23250   0.91387937     0              0              0.45693969     0.010489809  
     23300   1.0109798      0              0              0.50548992    -0.011977085  
     23350   1.1186883      0              0              0.55934413    -0.018821913  
     23400   1.1969012      0              0              0.5984506     -0.024311064  
     23450   1.0907152      0              0              0.54535759    -0.022321542  
     23500   1.0845593      0              0              0.54227966    -0.027342282  
     23550   1.0945711      0              0              0.54728556    -0.01028901   
     23600   1.1463155      0              0              0.57315773    -0.0062970416 
     23650   1.1256257      0              0              0.56281283     0.0021936162 
     23700   1.2054845      0              0              0.60274227     0.0075213794 
     23750   1.180686       0              0              0.59034298    -0.0011183067 
     23800   1.1681741      0              0              0.58408703     0.010026806  
     23850   1.2084059      0              0              0.60420295    -0.0020327256 
     23900   1.2411341      0              0              0.62056707    -0.007505987  
     23950   1.1817191      0              0              0.59085955    -0.0022285954 
     24000   1.2277199      0              0              0.61385994    -0.006145442  
     24050   1.2959651      0              0              0.64798253    -0.021844853  
     24100   1.2303266      0              0              0.61516329    -0.014228169  
     24150   1.1070441      0              0              0.55352207     0.016501634  
     24200   1.1030757      0              0              0.55153783     0.0030638409 
     24250   1.1621808      0              0              0.58109038     0.0063468739 
     24300   1.1396914      0              0              0.56984571    -0.0121135    
     24350   1.1972366      0              0              0.59861832     0.0053109537 
     24400   1.1140225      0              0              0.55701125    -0.0007808544 
     24450   1.0521289      0              0              0.52606444    -0.0022993447 
     24500   1.0783174      0              0              0.5391587      0.009896697  
     24550   1.1415448      0              0              0.57077241    -0.005559807  
     24600   1.2235111      0              0              0.61175557    -0.015838537  
     24650   1.2727211      0              0              0.63636056    -0.028350262  
     24700   1.2213669      0              0              0.61068345    -0.014933857  
     24750   1.1093133      0              0              0.55465665     0.0050787111 
     24800   1.0847225      0              0              0.54236125     0.01513442   
     24850   1.0708503      0              0              0.53542517     0.015047449  
     24900   1.1858625      0              0              0.59293123    -0.030111408  
     24950   1.1650196      0              0              0.58250978     0.014913903  
     25000   1.2043555      0              0              0.60217773    -0.0039041281 
     25050   1.1629316      0              0              0.5814658     -0.0018684849 
     25100   1.1971721      0              0              0.59858604    -0.0057492362 
     25150   1.206801       0              0              0.60340048     0.017835131  
     25200   1.1345031      0              0              0.56725153    -0.00071677857
     25250   1.1367858      0              0              0.56839288     0.02532268   
     25300   1.058014       0              0              0.52900702    -0.0042474983 
     25350   1.1391557      0              0              0.56957784     0.010015581  
     25400   1.1103128      0              0              0.55515638    -0.021693302  
     25450   1.211964       0              0              0.60598202    -0.0013918855 
     25500   1.1809187      0              0              0.59045933     0.02170843   
     25550   1.1520561      0              0              0.57602807     0.0083700515 
     25600   1.1354707      0              0              0.56773537     0.015688186  
     25650   1.2095885      0              0              0.60479423     0.01123354   
     25700   1.1161119      0              0              0.55805597    -0.0045254437 
     25750   1.0426369      0              0              0.52131843    -0.014063869  
     25800   1.0239035      0              0              0.51195173    -0.0016852551 
     25850   0.98914516     0              0              0.49457258     0.0079572683 
     25900   0.90550452     0              0              0.45275226    -0.010685423  
     25950   0.95580457     0              0              0.47790228    -0.00024877474
     26000   0.86524906     0              0              0.43262453    -0.0048540487 
     26050   0.79348226     0              0              0.39674113     0.0052976326 
     26100   0.77384511     0              0              0.38692256     0.015260454  
     26150   0.8050792      0              0              0.4025396      0.0046122938 
     26200   0.80107872     0              0              0.40053936     0.0059421613 
     26250   0.88624402     0              0              0.44312201     0.0054530398 
     26300   0.83822714     0              0              0.41911357    -0.0052336658 
     26350   0.9707194      0              0              0.4853597     -0.0050876244 
     26400   0.87888747     0              0              0.43944374     0.01321482   
     26450   0.8595295      0              0              0.42976475     0.0020836196 
     26500   1.0931793      0              0              0.54658967     0.01312734   
     26550   1.210587       0              0              0.6052935      0.0020234589 
     26600   1.2279866      0              0              0.61399332     0.0070031243 
     26650   1.1044236      0              0              0.5522118      0.0020416581 
     26700   0.93115496     0              0              0.46557748    -0.0031125084 
     26750   1.046244       0              0              0.52312202     0.0011911012 
     26800   1.0430009      0              0              0.52150043    -0.0095398465 
     26850   1.0885738      0              0              0.54428692     0.016846639  
     26900   1.1955882      0              0              0.59779409     0.0064626121 
     26950   1.1396952      0              0              0.56984758     0.0023090891 
     27000   1.1864002      0              0              0.5932001      0.0098543859 
     27050   1.1624474      0              0              0.58122371    -0.0035029072 
     27100   1.1814106      0              0              0.5907053      0.0073533553 
     27150   1.3089279      0              0              0.65446393    -0.0031740502 
     27200   1.3344327      0              0              0.66721637     0.0071669607 
     27250   1.2955612      0              0              0.6477806      0.011898875  
     27300   1.1984543      0              0              0.59922713    -0.0016156834 
     27350   1.2270869      0              0              0.61354346    -0.0039448268 
     27400   1.2208754      0              0              0.61043769    -0.0079829837 
     27450   1.2326996      0              0              0.61634978     0.0049632025 
     27500   1.0915896      0              0              0.54579478     0.0016254127 
     27550   1.145868       0              0              0.572934      -0.0040030533 
     27600   1.142643       0              0              0.57132148     0.0074478685 
     27650   1.1619771      0              0              0.58098857     0.0013612701 
     27700   1.3218591      0              0              0.66092957     0.0029382113 
     27750   1.4489718      0              0              0.72448588    -0.00073686395
     27800   1.4781387      0              0              0.73906933     0.0080146035 
     27850   1.3411993      0              0              0.67059967    -0.0084647555 
     27900   1.3058497      0              0              0.65292483    -0.0079384415 
     27950   1.2672503      0              0              0.63362514     0.0055926953 
     28000   1.2767498      0              0              0.63837488     0.0019671642 
     28050   1.3795969      0              0              0.68979844    -0.00070965284
     28100   1.4448521      0              0              0.72242604     0.0011590472 
     28150   1.3405178      0              0              0.6702589      0.0039302314 
     28200   1.4124618      0              0              0.70623091     0.0068917709 
     28250   1.2453519      0              0              0.62267594     0.0021211318 
     28300   1.2597314      0              0              0.62986571    -0.0043240781 
     28350   1.3184608      0              0              0.6592304     -0.0068778086 
     28400   1.2954394      0              0              0.6477197      0.014657646  
     28450   1.2030618      0              0              0.60153092     0.020196043  
     28500   1.1244548      0              0              0.56222741     0.023791826  
     28550   1.1235985      0              0              0.56179925    -0.021109369  
     28600   1.1318732      0              0              0.5659366      0.0022688752 
     28650   1.0545276      0              0              0.52726378     0.0031326207 
     28700   1.029544       0              0              0.51477198     0.0013421179 
     28750   1.1304122      0              0              0.56520611     0.004171     
     28800   1.2412056      0              0              0.62060281    -0.008810649  
     28850   1.3452698      0              0              0.67263488    -0.023969602  
     28900   1.3996608      0              0              0.69983038     0.0028408048 
     28950   1.3377934      0              0              0.66889669     0.0068445753 
     29000   1.2508248      0              0              0.62541238    -0.015268706  
     29050   1.1740356      0              0              0.58701781    -0.007016868  
     29100   1.2535806      0              0              0.62679032     0.0068326227 
     29150   1.2442105      0              0              0.62210524     0.0024478577 
     29200   1.2374631      0              0              0.61873157     0.005347085  
     29250   1.1397697      0              0              0.56988486    -0.0067575582 
     29300   1.1749708      0              0              0.58748538     0.0072314034 
     29350   1.3012958      0              0              0.65064791     0.012307958  
     29400   1.2609779      0              0              0.63048897     0.0022398078 
     29450   1.2284848      0              0              0.61424242     0.01243411   
     29500   1.2329838      0              0              0.61649189    -0.021719673  
     29550   1.2490389      0              0              0.62451945    -0.0015867078 
     29600   1.2990341      0              0              0.64951705    -0.0027134257 
     29650   1.3260313      0              0              0.66301566    -0.0028309679 
     29700   1.4269535      0              0              0.71347676     0.012841807  
     29750   1.308094       0              0              0.65404698     0.0093429765 
     29800   1.3741226      0              0              0.68706129    -0.020061344  
     29850   1.3316453      0              0              0.66582263    -0.0062724514 
     29900   1.3438248      0              0              0.67191239     0.01402844   
     29950   1.4006614      0              0              0.70033071    -6.9216441e-05
     30000   1.3089189      0              0              0.65445947    -0.00012243247
     30050   1.4018172      0              0              0.70090861    -0.0039877443 
     30100   1.3740008      0              0              0.68700039     0.014577938  
     30150   1.3227531      0              0              0.66137653     0.0018477238 
     30200   1.3496659      0              0              0.67483295    -0.01050974   
     30250   1.4346913      0              0              0.71734567    -0.024090707  
     30300   1.3066907      0              0              0.65334536    -0.019739182  
     30350   1.3679485      0              0              0.68397425    -0.01980254   
     30400   1.1989581      0              0              0.59947907    -0.0029590848 
     30450   1.0544941      0              0              0.52724706    -0.010294637  
     30500   0.94506604     0              0              0.47253302     0.0094634778 
     30550   0.95313482     0              0              0.47656741     0.013758062  
     30600   0.92449413     0              0              0.46224707     0.0058049206 
     30650   1.0136547      0              0              0.50682735    -0.01060645   
     30700   1.0386671      0              0              0.51933353    -0.0075631484 
     30750   1.1348399      0              0              0.56741996    -0.0025332553 
     30800   1.1200446      0              0              0.56002228     0.0052776888 
     30850   1.0085561      0              0              0.50427803     0.022050116  
     30900   1.1241732      0              0              0.5620866      0.00073070931
     30950   1.0986815      0              0              0.54934076    -0.030458177  
     31000   1.1998259      0              0              0.59991297    -0.010678533  
     31050   1.1022125      0              0              0.55110627     0.0066855807 
     31100   1.1556596      0              0              0.57782978     0.017882617  
     31150   1.2173533      0              0              0.60867663     0.026725512  
     31200   1.2323955      0              0              0.61619776    -0.0065207882 
     31250   1.3655871      0              0              0.68279356     0.0040614011 
     31300   1.3581186      0              0              0.67905931     0.0091714397 
     31350   1.3101274      0              0              0.65506371     0.0079611865 
     31400   1.3098257      0              0              0.65491287    -0.0085236389 
     31450   1.4653397      0              0              0.73266984     0.0094188682 
     31500   1.6613871      0              0              0.83069354     0.0096761671 
     31550   1.5184859      0              0              0.75924296     0.0079665659 
     31600   1.539289       0              0              0.76964452     0.011634045  
     31650   1.6194397      0              0              0.80971984     0.0034696706 
     31700   1.4626079      0              0              0.73130395    -0.011640957  
     31750   1.5172665      0              0              0.75863327    -0.0062885166 
     31800   1.3900709      0              0              0.69503545     0.013397253  
     31850   1.6012105      0              0              0.80060527     0.0043416942 
     31900   1.6714268      0              0              0.83571342    -0.027400498  
     31950   1.7520254      0              0              0.8760127      0.016962147  
     32000   1.7846158      0              0              0.89230792    -0.013703882  
     32050   1.8112098      0              0              0.9056049     -0.026895348  
     32100   1.6957395      0              0              0.84786977    -0.010188321  
     32150   1.6583603      0              0              0.82918016     0.028853153  
     32200   1.615004       0              0              0.80750198     0.010112921  
     32250   1.6804362      0              0              0.8402181     -0.0067879834 
     32300   1.7040186      0              0              0.8520093     -0.020434024  
     32350   1.875148       0              0              0.937574       0.0069292784 
     32400   1.5968801      0              0              0.79844006     0.040426593  
     32450   1.5320168      0              0              0.76600839     0.019996507  
     32500   1.5658441      0              0              0.78292207     0.0034010779 
     32550   1.6712493      0              0              0.83562466     0.0061665379 
     32600   1.7437375      0              0              0.87186874    -0.0087781279 
     32650   1.7179289      0              0              0.85896446    -0.0066498473 
     32700   1.674679       0              0              0.83733952    -0.0014353179 
     32750   1.4680415      0              0              0.73402076    -0.010548187  
     32800   1.5324802      0              0              0.76624012    -0.013862752  
     32850   1.6255312      0              0              0.81276561     0.024078472  
     32900   1.7477826      0              0              0.87389131    -0.021891746  
     32950   1.7588326      0              0              0.87941629    -0.023010857  
     33000   1.7526184      0              0              0.8763092      0.025824583  
     33050   1.6902917      0              0              0.84514584     0.0094688    
     33100   1.6175353      0              0              0.80876764     0.014641242  
     33150   1.5943664      0              0              0.79718322    -0.013205488  
     33200   1.5503563      0              0              0.77517814    -0.013741683  
     33250   1.5045831      0              0              0.75229153     0.022033343  
     33300   1.4161976      0              0              0.70809881     0.001742534  
     33350   1.4214678      0              0              0.7107339     -0.0065273825 
     33400   1.4382785      0              0              0.71913924    -0.0091053274 
     33450   1.4801203      0              0              0.74006014     0.00024923071
     33500   1.3489417      0              0              0.67447087     0.018299786  
     33550   1.366834       0              0              0.68341702     0.00088929316
     33600   1.3856864      0              0              0.69284321    -0.028550657  
     33650   1.3932679      0              0              0.69663396    -0.002035013  
     33700   1.417507       0              0              0.70875352    -0.0081674482 
     33750   1.356006       0              0              0.678003      -0.0066486661 
     33800   1.2381959      0              0              0.61909797     0.005559009  
     33850   1.3180944      0              0              0.65904719    -0.0060135412 
     33900   1.4677693      0              0              0.73388467    -0.00078280962
     33950   1.408437       0              0              0.70421851    -0.012868421  
     34000   1.4076401      0              0              0.70382003    -0.0020513602 
     34050   1.328122       0              0              0.66406101     0.003871288  
     34100   1.2622576      0              0              0.63112879    -0.0056427477 
     34150   1.2590566      0              0              0.62952829     1.167764e-05 
     34200   1.3196384      0              0              0.65981919     0.00036303932
     34250   1.4406914      0              0              0.72034568     0.021017501  
     34300   1.3081332      0              0              0.6540666     -0.010827673  
     34350   1.3557573      0              0              0.67787864    -0.007142405  
     34400   1.2772226      0              0              0.63861128     0.00050451061
     34450   1.2879968      0              0              0.64399838    -0.0036784459 
     34500   1.2324143      0              0              0.61620713     0.0026434151 
     34550   1.2421455      0              0              0.62107276     0.0038686441 
     34600   1.3139767      0              0              0.65698833    -0.0083913264 
     34650   1.2842916      0              0              0.64214578    -0.0067305252 
     34700   1.3124709      0              0              0.65623546     0.0033110376 
     34750   1.3048581      0              0              0.65242907     0.0043470315 
     34800   1.2426872      0              0              0.62134361     0.0079338353 
     34850   1.2664833      0              0              0.63324167    -0.019512091  
     34900   1.1538328      0              0              0.57691638    -0.00053084904
     34950   1.0914119      0              0              0.54570596    -0.016998505  
     35000   1.0453416      0              0              0.52267081     0.0016119124 
     35050   1.0490446      0              0              0.52452231    -0.0096236018 
     35100   0.99451847     0              0              0.49725923     0.015515232  
     35150   0.99730834     0              0              0.49865417    -0.0066938184 
     35200   0.9050758      0              0              0.4525379      0.010148538  
     35250   0.9292016      0              0              0.4646008      0.007821131  
     35300   0.98348759     0              0              0.49174379     0.024029009  
     35350   0.92471217     0              0              0.46235609     0.012874611  
     35400   0.90140626     0              0              0.45070313    -0.0058265502 
     35450   0.93205925     0              0              0.46602962     0.011642571  
     35500   0.94696278     0              0              0.47348139     0.026697322  
     35550   0.99767318     0              0              0.49883659     0.0023513664 
     35600   1.0848587      0              0              0.54242937     0.0062550765 
     35650   1.2204644      0              0              0.61023222     0.0066881613 
     35700   1.2436192      0              0              0.6218096      0.021434145  
     35750   1.3628053      0              0              0.68140263    -0.01882523   
     35800   1.3921613      0              0              0.69608067    -0.014436628  
     35850   1.413977       0              0              0.7069885      0.014336509  
     35900   1.2819971      0              0              0.64099856    -0.0075209671 
     35950   1.3162965      0              0              0.65814823    -0.0010685359 
     36000   1.3100411      0              0              0.65502057    -0.0050525646 
     36050   1.2316504      0              0              0.61582522    -0.010659649  
     36100   1.2577712      0              0              0.62888558     0.015155436  
     36150   1.399889       0              0              0.69994451    -0.010713716  
     36200   1.3762936      0              0              0.68814678    -0.0052269087 
     36250   1.2894679      0              0              0.64473397    -0.021817666  
     36300   1.1979799      0              0              0.59898995    -0.0033204343 
     36350   1.1607737      0              0              0.58038686    -0.0065415224 
     36400   1.2947586      0              0              0.64737932    -0.0067857848 
     36450   1.2251951      0              0              0.61259753    -0.0055306614 
     36500   1.2733456      0              0              0.6366728      0.032710362  
     36550   1.2406487      0              0              0.62032435     0.02405433   
     36600   1.1817202      0              0              0.59086008    -0.026517043  
     36650   1.1872104      0              0              0.59360522     0.032991177  
     36700   1.1749527      0              0              0.58747637    -0.0019937013 
     36750   1.2749054      0              0              0.63745271     0.001794481  
     36800   1.223765       0              0              0.61188249     0.012675542  
     36850   1.2534601      0              0              0.62673005    -0.025397276  
     36900   1.2100042      0              0              0.60500211     0.005742923  
     36950   1.1251942      0              0              0.5625971      0.0056242248 
     37000   0.99426171     0              0              0.49713085    -0.023976212  
     37050   0.98459589     0              0              0.49229794     0.0021757335 
     37100   1.0173626      0              0              0.50868131     0.023736753  
     37150   0.99344095     0              0              0.49672048    -0.0043679814 
     37200   1.1288601      0              0              0.56443005    -0.0037085814 
     37250   1.2618275      0              0              0.63091374    -0.005846833  
     37300   1.18217        0              0              0.59108499    -0.018699523  
     37350   1.1118596      0              0              0.55592982     0.0064804434 
     37400   1.0074755      0              0              0.50373774    -0.0095414868 
     37450   1.0242859      0              0              0.51214297     0.035430662  
     37500   1.07914        0              0              0.53957002    -0.010068546  
     37550   1.0490078      0              0              0.52450392    -0.0504451    
     37600   1.1124696      0              0              0.55623482     0.0050340337 
     37650   1.1158003      0              0              0.55790013    -0.012377206  
     37700   1.0895846      0              0              0.54479229     0.016588226  
     37750   1.0978393      0              0              0.54891965     0.022163431  
     37800   1.1153787      0              0              0.55768934    -0.021730996  
     37850   1.2357113      0              0              0.61785566     0.017573938  
     37900   1.1483186      0              0              0.57415931     0.0071822885 
     37950   1.0654498      0              0              0.53272491    -0.021561606  
     38000   0.95539856     0              0              0.47769928     0.022038529  
     38050   1.0125918      0              0              0.50629588    -0.0077306419 
     38100   0.99646579     0              0              0.4982329      0.028218432  
     38150   0.90382716     0              0              0.45191358     0.0010050963 
     38200   0.87923113     0              0              0.43961556    -0.041658071  
     38250   0.85347782     0              0              0.42673891    -0.015895975  
     38300   0.86282207     0              0              0.43141103     0.0074038588 
     38350   1.026408       0              0              0.51320399     0.016257739  
     38400   1.0371322      0              0              0.51856612    -0.0024295916 
     38450   1.0009702      0              0              0.50048509     0.010984968  
     38500   1.0881155      0              0              0.54405774    -0.0020245076 
     38550   1.0963737      0              0              0.54818684    -0.0027898098 
     38600   1.0878415      0              0              0.54392076     0.02876445   
     38650   1.0832986      0              0              0.54164932     0.018252501  
     38700   1.0183078      0              0              0.50915392     0.015218894  
     38750   1.1020739      0              0              0.55103693    -0.0010393042 
     38800   1.1061794      0              0              0.5530897      0.018778426  
     38850   0.98807131     0              0              0.49403565    -0.014548414  
     38900   1.0146707      0              0              0.50733535     0.012257862  
     38950   0.87661656     0              0              0.43830828     0.030734126  
     39000   0.91156246     0              0              0.45578123     0.0065048022 
     39050   0.86742919     0              0              0.43371459     0.01888735   
     39100   0.87582242     0              0              0.43791121     0.0097764729 
     39150   0.74171281     0              0              0.3708564      0.01918699   
     39200   0.72731729     0              0              0.36365864    -0.013371293  
     39250   0.71993308     0              0              0.35996654     0.016955921  
     39300   0.68020611     0              0              0.34010306     0.0035256087 
     39350   0.81315501     0              0              0.4065775     -0.012836108  
     39400   0.83154918     0              0              0.41577459     0.031216101  
     39450   0.80612583     0              0              0.40306292     0.01866034   
     39500   0.75783422     0              0              0.37891711     0.010666503  
     39550   0.73826265     0              0              0.36913132    -0.0046941427 
     39600   0.7241542      0              0              0.3620771      0.00086295862
     39650   0.6490942      0              0              0.3245471      0.015932897  
     39700   0.56788352     0              0              0.28394176     0.012399657  
     39750   0.5999386      0              0              0.2999693      0.0161212    
     39800   0.58228987     0              0              0.29114493    -0.0070505779 
     39850   0.58320022     0              0              0.29160011    -0.0018019649 
     39900   0.57010664     0              0              0.28505332     0.010134514  
     39950   0.62406144     0              0              0.31203072     0.01473354   
     40000   0.60738482     0              0              0.30369241     0.010966723  
     40050   0.67131801     0              0              0.335659      -0.0010451003 
     40100   0.64058326     0              0              0.32029163    -0.011290467  
     40150   0.69806211     0              0              0.34903105     0.023888009  
     40200   0.64953781     0              0              0.3247689     -0.031548089  
     40250   0.73013554     0              0              0.36506777     0.027002276  
     40300   0.7859831      0              0              0.39299155     0.028130235  
     40350   0.81965546     0              0              0.40982773     0.0043480873 
     40400   0.84895866     0              0              0.42447933    -0.0196174    
     40450   0.88471988     0              0              0.44235994    -0.0064123884 
     40500   0.81946172     0              0              0.40973086    -0.0040607077 
     40550   0.81401938     0              0              0.40700969    -0.016341215  
     40600   0.84202204     0              0              0.42101102     0.0084913406 
     40650   0.95626524     0              0              0.47813262     0.0060513014 
     40700   0.93397888     0              0              0.46698944    -0.014374521  
     40750   0.89670272     0              0              0.44835136     0.0023611094 
     40800   0.8924057      0              0              0.44620285    -0.023145435  
     40850   0.91543914     0              0              0.45771957     0.0064473428 
     40900   0.9471328      0              0              0.4735664      0.0055973001 
     40950   0.92232234     0              0              0.46116117     0.026544222  
     41000   0.94110885     0              0              0.47055442    -0.010383467  
     41050   0.96598591     0              0              0.48299296    -0.0063611848 
     41100   1.0110444      0              0              0.5055222      0.024113811  
     41150   1.0723381      0              0              0.53616906    -0.013888027  
     41200   1.0935557      0              0              0.54677783    -0.0016563827 
     41250   1.0951628      0              0              0.54758139    -0.0096099585 
     41300   1.155443       0              0              0.57772149     0.0013397965 
     41350   1.1559546      0              0              0.57797728     0.0059394875 
     41400   1.0729188      0              0              0.53645938    -0.020486195  
     41450   0.9486145      0              0              0.47430725    -0.0011890005 
     41500   0.90402367     0              0              0.45201183     0.01012494   
     41550   0.92641242     0              0              0.46320621     0.017840469  
     41600   0.98760751     0              0              0.49380375    -0.006003702  
     41650   1.0157204      0              0              0.50786018     0.011925598  
     41700   1.0537228      0              0              0.52686141     0.017416624  
     41750   1.1102798      0              0              0.5551399      0.0086368618 
     41800   1.1204697      0              0              0.56023485     0.0044000846 
     41850   1.1906915      0              0              0.59534575    -0.0068419878 
     41900   1.178254       0              0              0.58912701     0.018389163  
     41950   1.1520899      0              0              0.57604496     0.014353577  
     42000   1.1357386      0              0              0.56786929     0.0076168817 
     42050   1.132148       0              0              0.56607399    -0.012258926  
     42100   1.1330739      0              0              0.56653696     6.5952892e-05
     42150   1.335562       0              0              0.66778102     0.0025123005 
     42200   1.4690467      0              0              0.73452334     0.0073899721 
     42250   1.5911583      0              0              0.79557915    -0.0068740777 
     42300   1.5772745      0              0              0.78863726    -0.008667633  
     42350   1.5074712      0              0              0.75373562     0.0075749431 
[...]
     89350   1.3530251      0              0              0.67651257    -0.011628622  
     89400   1.3180902      0              0              0.65904512     0.010400494  
     89450   1.2884001      0              0              0.64420004    -0.006449386  
     89500   1.3168733      0              0              0.65843663    -0.00090757613
     89550   1.3321618      0              0              0.66608091    -0.010017186  
     89600   1.3598379      0              0              0.67991895     0.0097778873 
     89650   1.2815414      0              0              0.64077069     0.011140313  
     89700   1.3411971      0              0              0.67059854    -0.0089513369 
     89750   1.3131871      0              0              0.65659357    -0.0043637379 
     89800   1.3091626      0              0              0.65458131    -0.030213463  
     89850   1.3829961      0              0              0.69149806    -0.011624853  
     89900   1.3203207      0              0              0.66016033     0.029686989  
     89950   1.3203116      0              0              0.66015578    -0.0053821435 
     90000   1.166503       0              0              0.5832515     -0.008886431  
     90050   1.156678       0              0              0.57833901    -0.023104014  
     90100   1.2344624      0              0              0.61723121    -0.017610045  
     90150   1.2389433      0              0              0.61947164     0.024659293  
     90200   1.3046716      0              0              0.65233581     0.033082924  
     90250   1.3859007      0              0              0.69295034     0.0011003312 
     90300   1.3377848      0              0              0.66889242     0.010352366  
     90350   1.2848478      0              0              0.6424239      0.015176424  
     90400   1.2522806      0              0              0.6261403     -0.039370409  
     90450   1.3495297      0              0              0.67476486     0.022158604  
     90500   1.3880563      0              0              0.69402815    -0.022389925  
     90550   1.3893027      0              0              0.69465136     0.0017036672 
     90600   1.3247725      0              0              0.66238624    -0.021908868  
     90650   1.2538503      0              0              0.62692516     0.021954028  
     90700   1.3124449      0              0              0.65622245     0.014960443  
     90750   1.3591077      0              0              0.67955385     0.014060016  
     90800   1.2934596      0              0              0.64672982    -0.01908496   
     90850   1.1449393      0              0              0.57246967    -0.0088590104 
     90900   1.1267026      0              0              0.56335128    -0.0028413434 
     90950   1.0656756      0              0              0.53283779    -0.0011320526 
     91000   1.0758038      0              0              0.53790192     0.0051639767 
     91050   1.0554735      0              0              0.52773673     0.00049937406
     91100   1.0441486      0              0              0.52207428     0.019524493  
     91150   1.0977108      0              0              0.54885542    -0.012567813  
     91200   1.0137228      0              0              0.50686139     0.028615717  
     91250   1.0854491      0              0              0.54272454     0.012854419  
     91300   1.0909583      0              0              0.54547913    -0.029280302  
     91350   1.0835668      0              0              0.5417834      0.0007646459 
     91400   1.1454438      0              0              0.57272192     0.027670271  
     91450   1.165202       0              0              0.582601       0.0012342809 
     91500   1.2339505      0              0              0.61697526     5.7555426e-05
     91550   1.2102585      0              0              0.60512926     0.00014201429
     91600   1.0913525      0              0              0.54567626     0.0068927488 
     91650   1.169318       0              0              0.584659       0.010290861  
     91700   1.2788989      0              0              0.63944944    -0.0095275576 
     91750   1.2885918      0              0              0.64429591     0.0097160783 
     91800   1.2087311      0              0              0.60436557     0.0034505422 
     91850   1.2533514      0              0              0.6266757      0.019589748  
     91900   1.228278       0              0              0.61413902    -0.02120877   
     91950   1.1231233      0              0              0.56156167    -0.0083124597 
     92000   1.1538727      0              0              0.57693635     0.017991072  
     92050   1.1520243      0              0              0.57601217    -0.0095745881 
     92100   1.0935637      0              0              0.54678184    -0.0094911721 
     92150   1.078822       0              0              0.53941102    -0.011862237  
     92200   0.99140226     0              0              0.49570113     0.019971731  
     92250   1.0220197      0              0              0.51100984     0.0057672362 
     92300   1.1358028      0              0              0.56790138    -0.030116083  
     92350   1.0642574      0              0              0.53212871     0.0057119444 
     92400   1.0644488      0              0              0.53222438     0.022134499  
     92450   1.1298872      0              0              0.56494358     0.038572679  
     92500   1.0379657      0              0              0.51898285    -0.055708944  
     92550   0.9885357      0              0              0.49426785    -0.0080250977 
     92600   1.1000336      0              0              0.55001682     0.020696255  
     92650   0.98357725     0              0              0.49178863    -0.004478874  
     92700   1.0076683      0              0              0.50383413    -0.0095882709 
     92750   1.0341166      0              0              0.51705829    -0.029633885  
     92800   1.0099881      0              0              0.50499406     0.008763979  
     92850   1.155337       0              0              0.57766852    -0.010220608  
     92900   0.99444576     0              0              0.49722288     0.019866702  
     92950   1.1271579      0              0              0.56357893     0.014722029  
     93000   1.0241193      0              0              0.51205967    -0.020352094  
     93050   0.95070482     0              0              0.47535241     0.009042729  
     93100   0.93866911     0              0              0.46933456     0.035126824  
     93150   0.84283899     0              0              0.4214195      0.033580291  
     93200   0.71569962     0              0              0.35784981     0.00015273298
     93250   0.77788059     0              0              0.38894029    -0.0017684925 
     93300   0.71571716     0              0              0.35785858    -0.020348733  
     93350   0.65731577     0              0              0.32865788    -0.00027816664
     93400   0.67759819     0              0              0.3387991     -0.0024317246 
     93450   0.7768876      0              0              0.3884438     -0.0051205748 
     93500   0.75883134     0              0              0.37941567    -0.014803021  
     93550   0.76520166     0              0              0.38260083    -0.0070650603 
     93600   0.8449685      0              0              0.42248425    -0.022470419  
     93650   0.81733446     0              0              0.40866723     0.0083182805 
     93700   0.91139813     0              0              0.45569907     0.0065048241 
     93750   1.1077308      0              0              0.55386542     0.0349407    
     93800   1.0781477      0              0              0.53907385    -0.022425142  
     93850   1.0872107      0              0              0.54360533    -0.0063045396 
     93900   1.078095       0              0              0.5390475     -0.043543364  
     93950   0.9684126      0              0              0.4842063      0.0076298143 
     94000   0.89773639     0              0              0.4488682      0.0020183832 
     94050   0.9741896      0              0              0.4870948      0.0058688986 
     94100   0.98650858     0              0              0.49325429     0.018647034  
     94150   0.9715757      0              0              0.48578785    -0.011524817  
     94200   1.00023        0              0              0.500115       0.02300468   
     94250   1.0435403      0              0              0.52177015     0.01378233   
     94300   1.1097229      0              0              0.55486146    -0.013136514  
     94350   1.0529828      0              0              0.52649142     0.0016415555 
     94400   0.9903078      0              0              0.4951539      0.0056007244 
     94450   1.0212902      0              0              0.51064511    -0.0069035992 
     94500   1.1618501      0              0              0.58092507     0.0053375964 
     94550   1.1047767      0              0              0.55238833     0.0034521342 
     94600   1.124479       0              0              0.56223951     0.0017834605 
     94650   1.081834       0              0              0.54091702    -0.018088944  
     94700   1.1921787      0              0              0.59608935    -0.0096288798 
     94750   1.2496764      0              0              0.62483819     0.0040767126 
     94800   1.3331559      0              0              0.66657795     0.013825473  
     94850   1.4177984      0              0              0.70889921    -0.012200973  
     94900   1.4827776      0              0              0.74138878     0.0071358709 
     94950   1.4212584      0              0              0.71062921     0.025093142  
     95000   1.5516335      0              0              0.77581674    -0.026032234  
     95050   1.6842811      0              0              0.84214057     0.023952494  
     95100   1.718596       0              0              0.85929801     0.0051107915 
     95150   1.7501981      0              0              0.87509903     0.028597612  
     95200   1.8694358      0              0              0.93471789     0.017839201  
     95250   1.854693       0              0              0.9273465     -0.0026613097 
     95300   1.8510075      0              0              0.92550374     0.022908391  
     95350   1.8714699      0              0              0.93573497    -0.0099973968 
     95400   2.0727159      0              0              1.0363579     -0.01686427   
     95450   2.1136811      0              0              1.0568405      0.0061082638 
     95500   2.169712       0              0              1.084856      -0.0065183483 
     95550   2.1206683      0              0              1.0603341      0.027462806  
     95600   2.1769798      0              0              1.0884899      0.00024590601
     95650   2.2671849      0              0              1.1335925     -0.00097351113
     95700   2.2829311      0              0              1.1414656     -0.019514979  
     95750   2.2497739      0              0              1.1248869     -0.0041686992 
     95800   2.2947076      0              0              1.1473538     -0.015756566  
     95850   2.2988795      0              0              1.1494398      0.020150587  
     95900   2.282737       0              0              1.1413685      0.00071961707
     95950   2.2347574      0              0              1.1173787      0.0028600642 
     96000   2.1075149      0              0              1.0537574      0.0019832315 
     96050   2.1458974      0              0              1.0729487      0.015055261  
     96100   2.1946939      0              0              1.097347       0.035242511  
     96150   2.0500446      0              0              1.0250223      0.011358637  
     96200   2.0074418      0              0              1.0037209      0.013512174  
     96250   1.9032537      0              0              0.95162683     0.010465855  
     96300   1.7801241      0              0              0.89006205     0.0031258314 
     96350   1.7414425      0              0              0.87072126     0.013687641  
     96400   1.6418245      0              0              0.82091227     0.0097257992 
     96450   1.7085643      0              0              0.85428215    -0.010616269  
     96500   1.6040097      0              0              0.80200483    -0.0036630446 
     96550   1.7313451      0              0              0.86567253     0.014748864  
     96600   1.712197       0              0              0.8560985      0.019105641  
     96650   1.8132696      0              0              0.90663482     0.017076855  
     96700   1.7657576      0              0              0.88287881    -0.0046365137 
     96750   1.7148949      0              0              0.85744746     0.0041731789 
     96800   1.7959425      0              0              0.89797127     0.010340167  
     96850   1.7933809      0              0              0.89669045     0.02320017   
     96900   1.7709004      0              0              0.88545022    -0.0067911694 
     96950   1.7488591      0              0              0.87442954    -0.010350412  
     97000   1.6381127      0              0              0.81905637    -0.0078397382 
     97050   1.670798       0              0              0.83539901     0.011570321  
     97100   1.5515142      0              0              0.77575709    -0.0088780705 
     97150   1.5064842      0              0              0.75324211     0.01392804   
     97200   1.8829917      0              0              0.94149583     0.019111589  
     97250   1.8027318      0              0              0.90136588     0.021275084  
     97300   1.8058802      0              0              0.90294009     0.0029943898 
     97350   1.8541776      0              0              0.92708881     0.024020286  
     97400   1.8851251      0              0              0.94256255     0.011373961  
     97450   1.9282267      0              0              0.96411334     0.012192538  
     97500   2.0465263      0              0              1.0232632      0.026975685  
     97550   1.9540106      0              0              0.97700529    -0.0064802179 
     97600   1.9145955      0              0              0.95729774     0.0039729863 
     97650   1.9557157      0              0              0.97785786    -0.010103798  
     97700   2.0875167      0              0              1.0437584      0.0067338522 
     97750   2.1230081      0              0              1.0615041      0.021531854  
     97800   2.2035231      0              0              1.1017616      0.015542765  
     97850   2.1418868      0              0              1.0709434      0.011328152  
     97900   2.0722155      0              0              1.0361077      0.024462297  
     97950   1.9492893      0              0              0.97464465     0.033259412  
     98000   2.0255516      0              0              1.0127758      0.010332356  
     98050   2.0968018      0              0              1.0484009      0.0071945723 
     98100   2.0357402      0              0              1.0178701     -0.0098521665 
     98150   2.0548073      0              0              1.0274036      0.0079058491 
     98200   1.9672106      0              0              0.98360531    -0.0049737774 
     98250   1.8513521      0              0              0.92567607    -0.016530279  
     98300   1.860651       0              0              0.93032548     0.00028738647
     98350   1.9236288      0              0              0.96181442     0.029034343  
     98400   1.8396802      0              0              0.91984011     0.0013049909 
     98450   1.9049129      0              0              0.95245647     0.0076816222 
     98500   1.7511932      0              0              0.87559658    -0.026099714  
     98550   1.6581077      0              0              0.82905383    -0.0043427409 
     98600   1.5203988      0              0              0.7601994     -0.0045921783 
     98650   1.5416978      0              0              0.77084892    -0.0047813342 
     98700   1.4454346      0              0              0.7227173     -0.011752485  
     98750   1.422996       0              0              0.71149798    -0.00803833   
     98800   1.3190506      0              0              0.6595253      0.0075244405 
     98850   1.3601102      0              0              0.6800551     -0.020448546  
     98900   1.4389521      0              0              0.71947604    -0.0083163913 
     98950   1.3086491      0              0              0.65432453    -0.02636994   
     99000   1.3062422      0              0              0.65312112     6.1022343e-05
     99050   1.3772022      0              0              0.68860108    -0.017510734  
     99100   1.2911938      0              0              0.64559688     0.0022103661 
     99150   1.187528       0              0              0.59376398    -0.020596492  
     99200   1.1626346      0              0              0.58131731     0.023105582  
     99250   1.0861579      0              0              0.54307896    -0.022030332  
     99300   1.0184876      0              0              0.50924381     0.00092960227
     99350   1.1132128      0              0              0.55660641     0.02060603   
     99400   1.0882704      0              0              0.54413519     0.0075514218 
     99450   1.0219662      0              0              0.5109831      0.023971086  
     99500   1.0791717      0              0              0.53958584    -0.031811256  
     99550   1.0672086      0              0              0.5336043      0.0048480038 
     99600   1.1370983      0              0              0.56854915     0.0077515286 
     99650   1.2223319      0              0              0.61116593    -0.0093893513 
     99700   1.1485496      0              0              0.57427479     0.023080681  
     99750   1.2179871      0              0              0.60899355    -0.0049376202 
     99800   1.3187208      0              0              0.65936038    -0.0080443361 
     99850   1.3432563      0              0              0.67162817     0.011668661  
     99900   1.4551242      0              0              0.72756211    -0.0090105467 
     99950   1.8227158      0              0              0.91135788     0.020802088  
    100000   1.8988844      0              0              0.9494422      0.013497385  
    100001   1.9076284      0              0              0.95381421     0.0084647555 
Loop time of 0.840967 on 1 procs for 100000 steps with 8 atoms

Performance: 51369435.424 tau/day, 118910.730 timesteps/s, 951.286 katom-step/s
44.6% CPU use with 1 MPI tasks x 1 OpenMP threads

MPI task timing breakdown:
Section |  min time  |  avg time  |  max time  |%varavg| %total
---------------------------------------------------------------
Pair    | 0.038359   | 0.038359   | 0.038359   |   0.0 |  4.56
Bond    | 0.00839    | 0.00839    | 0.00839    |   0.0 |  1.00
Neigh   | 0.031465   | 0.031465   | 0.031465   |   0.0 |  3.74
Comm    | 0.026938   | 0.026938   | 0.026938   |   0.0 |  3.20
Output  | 0.45561    | 0.45561    | 0.45561    |   0.0 | 54.18
Modify  | 0.15645    | 0.15645    | 0.15645    |   0.0 | 18.60
Other   |            | 0.1238     |            |       | 14.72

Nlocal:              8 ave           8 max           8 min
Histogram: 1 0 0 0 0 0 0 0 0 0
Nghost:              7 ave           7 max           7 min
Histogram: 1 0 0 0 0 0 0 0 0 0
Neighs:              0 ave           0 max           0 min
Histogram: 1 0 0 0 0 0 0 0 0 0

Total # of neighbors = 0
Ave neighs/atom = 0
Ave special neighs/atom = 3.25
Neighbor list builds = 4765
Dangerous builds = 0
Total wall time: 0:00:00
