LAMMPS (2 Aug 2023 - Update 3)
OMP_NUM_THREADS environment is not set. Defaulting to 1 thread. (src/comm.cpp:98)
  using 1 OpenMP thread(s) per MPI task
Loaded 1 plugins from F:\LAMMPS\LAMMPS 64-bit 2Aug2023\plugins
# Script to create a Polymer using Patchy Particles (PP)
# Types of Particles:
#   Cross linker:   PPA
#   Monomer:        PPB

# Initialization
units lj
dimension 3
boundary p p p

# Types of atoms and that stuff
atom_style full
bond_style zero nocoeff
pair_style hybrid lj/cut 2.5 cosine/squared 2.5 zero 2.5

# Get data for box and particles
read_data data.patchyP1.lmp group CL1
Reading data file ...
  orthogonal box = (-5 -5 -5) to (5 5 5)
  1 by 1 by 1 MPI processor grid
WARNING: Atom style in data file atom-ID molecule-ID atom-type q x y z differs from currently defined atom style full (src/read_data.cpp:621)
  reading atoms ...
  5 atoms
  scanning bonds ...
  4 = max bonds/atom
WARNING: Bond style ID parameters in data file differs from currently defined bond style zero (src/read_data.cpp:724)
  reading bonds ...
  4 bonds
Finding 1-2 1-3 1-4 neighbors ...
  special bond factors lj:    0        0        0       
  special bond factors coul:  0        0        0       
     4 = max # of 1-2 neighbors
     3 = max # of 1-3 neighbors
     3 = max # of 1-4 neighbors
     4 = max # of special neighbors
  special bonds CPU = 0.000 seconds
  read_data CPU = 0.006 seconds
read_data data.patchyP2.lmp add append group Mo1
Reading data file ...
  orthogonal box = (-5 -5 -5) to (5 5 5)
  1 by 1 by 1 MPI processor grid
WARNING: Atom style in data file atom-ID molecule-ID atom-type q x y z differs from currently defined atom style full (src/read_data.cpp:621)
  reading atoms ...
  3 atoms
  scanning bonds ...
  2 = max bonds/atom
WARNING: Bond style ID parameters in data file differs from currently defined bond style zero (src/read_data.cpp:724)
  reading bonds ...
  2 bonds
Finding 1-2 1-3 1-4 neighbors ...
  special bond factors lj:    0        0        0       
  special bond factors coul:  0        0        0       
     4 = max # of 1-2 neighbors
     3 = max # of 1-3 neighbors
     3 = max # of 1-4 neighbors
     4 = max # of special neighbors
  special bonds CPU = 0.000 seconds
  read_data CPU = 0.010 seconds
read_data data.patchyP2.lmp add append group Mo2
Reading data file ...
  orthogonal box = (-5 -5 -5) to (5 5 5)
  1 by 1 by 1 MPI processor grid
WARNING: Atom style in data file atom-ID molecule-ID atom-type q x y z differs from currently defined atom style full (src/read_data.cpp:621)
  reading atoms ...
  3 atoms
  scanning bonds ...
  2 = max bonds/atom
WARNING: Bond style ID parameters in data file differs from currently defined bond style zero (src/read_data.cpp:724)
  reading bonds ...
  2 bonds
Finding 1-2 1-3 1-4 neighbors ...
  special bond factors lj:    0        0        0       
  special bond factors coul:  0        0        0       
     4 = max # of 1-2 neighbors
     3 = max # of 1-3 neighbors
     3 = max # of 1-4 neighbors
     4 = max # of special neighbors
  special bonds CPU = 0.000 seconds
  read_data CPU = 0.003 seconds
read_data data.patchyP2.lmp add append group Mo3
Reading data file ...
  orthogonal box = (-5 -5 -5) to (5 5 5)
  1 by 1 by 1 MPI processor grid
WARNING: Atom style in data file atom-ID molecule-ID atom-type q x y z differs from currently defined atom style full (src/read_data.cpp:621)
  reading atoms ...
  3 atoms
  scanning bonds ...
  2 = max bonds/atom
WARNING: Bond style ID parameters in data file differs from currently defined bond style zero (src/read_data.cpp:724)
  reading bonds ...
  2 bonds
Finding 1-2 1-3 1-4 neighbors ...
  special bond factors lj:    0        0        0       
  special bond factors coul:  0        0        0       
     4 = max # of 1-2 neighbors
     3 = max # of 1-3 neighbors
     3 = max # of 1-4 neighbors
     4 = max # of special neighbors
  special bonds CPU = 0.000 seconds
  read_data CPU = 0.002 seconds
read_data data.patchyP2.lmp add append group Mo4
Reading data file ...
  orthogonal box = (-5 -5 -5) to (5 5 5)
  1 by 1 by 1 MPI processor grid
WARNING: Atom style in data file atom-ID molecule-ID atom-type q x y z differs from currently defined atom style full (src/read_data.cpp:621)
  reading atoms ...
  3 atoms
  scanning bonds ...
  2 = max bonds/atom
WARNING: Bond style ID parameters in data file differs from currently defined bond style zero (src/read_data.cpp:724)
  reading bonds ...
  2 bonds
Finding 1-2 1-3 1-4 neighbors ...
  special bond factors lj:    0        0        0       
  special bond factors coul:  0        0        0       
     4 = max # of 1-2 neighbors
     3 = max # of 1-3 neighbors
     3 = max # of 1-4 neighbors
     4 = max # of special neighbors
  special bonds CPU = 0.000 seconds
  read_data CPU = 0.002 seconds
read_data data.patchyP2.lmp add append group Mo5
Reading data file ...
  orthogonal box = (-5 -5 -5) to (5 5 5)
  1 by 1 by 1 MPI processor grid
WARNING: Atom style in data file atom-ID molecule-ID atom-type q x y z differs from currently defined atom style full (src/read_data.cpp:621)
  reading atoms ...
  3 atoms
  scanning bonds ...
  2 = max bonds/atom
WARNING: Bond style ID parameters in data file differs from currently defined bond style zero (src/read_data.cpp:724)
  reading bonds ...
  2 bonds
Finding 1-2 1-3 1-4 neighbors ...
  special bond factors lj:    0        0        0       
  special bond factors coul:  0        0        0       
     4 = max # of 1-2 neighbors
     3 = max # of 1-3 neighbors
     3 = max # of 1-4 neighbors
     4 = max # of special neighbors
  special bonds CPU = 0.000 seconds
  read_data CPU = 0.002 seconds
read_data data.patchyP2.lmp add append group Mo6
Reading data file ...
  orthogonal box = (-5 -5 -5) to (5 5 5)
  1 by 1 by 1 MPI processor grid
WARNING: Atom style in data file atom-ID molecule-ID atom-type q x y z differs from currently defined atom style full (src/read_data.cpp:621)
  reading atoms ...
  3 atoms
  scanning bonds ...
  2 = max bonds/atom
WARNING: Bond style ID parameters in data file differs from currently defined bond style zero (src/read_data.cpp:724)
  reading bonds ...
  2 bonds
Finding 1-2 1-3 1-4 neighbors ...
  special bond factors lj:    0        0        0       
  special bond factors coul:  0        0        0       
     4 = max # of 1-2 neighbors
     3 = max # of 1-3 neighbors
     3 = max # of 1-4 neighbors
     4 = max # of special neighbors
  special bonds CPU = 0.000 seconds
  read_data CPU = 0.008 seconds

displace_atoms Mo1 move 0.0 0.0 3.0 units box
Displacing atoms ...
displace_atoms Mo2 move 0.0 0.0 -3.0 units box
Displacing atoms ...
displace_atoms Mo3 move 0.0 3.0 0.0 units box
Displacing atoms ...
displace_atoms Mo4 move 0.0 -3.0 0.0 units box
Displacing atoms ...
displace_atoms Mo5 move 3.5 0.0 0.0 units box
Displacing atoms ...
displace_atoms Mo6 move -3.5 0.0 0.0 units box
Displacing atoms ...

# Set the patchy particle interaction
fix CLfix CL1 rigid single # ID group-ID style args
  1 rigid bodies with 5 atoms
fix Mofix1 Mo1 rigid single
  1 rigid bodies with 3 atoms
fix Mofix2 Mo2 rigid single
  1 rigid bodies with 3 atoms
fix Mofix3 Mo3 rigid single
  1 rigid bodies with 3 atoms
fix Mofix4 Mo4 rigid single
  1 rigid bodies with 3 atoms
fix Mofix5 Mo5 rigid single
  1 rigid bodies with 3 atoms
fix Mofix6 Mo6 rigid single
  1 rigid bodies with 3 atoms

pair_coeff 1 1 zero 2.24
pair_coeff 2 2 zero 2.24
pair_coeff 3 3 zero 2.24
pair_coeff 1 3 zero 1.68
pair_coeff 1 4 zero 1.68
pair_coeff 2 3 zero 1.68
pair_coeff 2 4 zero 1.68
pair_coeff 1 2 lj/cut 1.0 1.0 1.12 # i-type j-type eps sigma cutoff
pair_coeff 3 4 cosine/squared 10.0 0.5 0.56 wca # i-type j-type eps sigma cutoff wca
pair_coeff 4 4 cosine/squared 10.0 0.5 0.56 wca # i-type j-type eps sigma cutoff wca

# Neighbor list
neighbor 0.3 bin # extra-distance style
#neigh_modify delay 5

minimize 1.0e-4 1.0e-6 1000 10000 # etol ftol maxiter maxeval
Generated 0 of 6 mixed pair_coeff terms from geometric mixing rule
WARNING: More than one fix rigid (src/RIGID/fix_rigid.cpp:709)
WARNING: More than one fix rigid (src/RIGID/fix_rigid.cpp:709)
WARNING: More than one fix rigid (src/RIGID/fix_rigid.cpp:709)
WARNING: More than one fix rigid (src/RIGID/fix_rigid.cpp:709)
WARNING: More than one fix rigid (src/RIGID/fix_rigid.cpp:709)
WARNING: More than one fix rigid (src/RIGID/fix_rigid.cpp:709)
WARNING: More than one fix rigid (src/RIGID/fix_rigid.cpp:709)
Neighbor list info ...
  update: every = 1 steps, delay = 0 steps, check = yes
  max neighbors/atom: 2000, page size: 100000
  master list distance cutoff = 2.54
  ghost atom cutoff = 2.54
  binsize = 1.27, bins = 8 8 8
  6 neighbor lists, perpetual/occasional/extra = 6 0 0
  (1) pair lj/cut, perpetual, skip from (4)
      attributes: half, newton on, cut 1.4200000000000002
      pair build: skip
      stencil: none
      bin: none
  (2) pair cosine/squared, perpetual, skip from (5)
      attributes: half, newton on, cut 0.8600000000000001
      pair build: skip
      stencil: none
      bin: none
  (3) pair zero, perpetual, skip from (6)
      attributes: half, newton on
      pair build: skip
      stencil: none
      bin: none
  (4) neighbor class addition, perpetual, trim from (6)
      attributes: half, newton on, cut 1.4200000000000002
      pair build: trim
      stencil: none
      bin: none
  (5) neighbor class addition, perpetual, trim from (4)
      attributes: half, newton on, cut 0.8600000000000001
      pair build: trim
      stencil: none
      bin: none
  (6) neighbor class addition, perpetual
      attributes: half, newton on
      pair build: half/bin/newton
      stencil: half/bin/3d
      bin: standard
Per MPI rank memory allocation (min/avg/max) = 19.73 | 19.73 | 19.73 Mbytes
   Step          Temp          E_pair         E_mol          TotEng         Press     
         0   0              0              0              0              3.2777948e-311
         1   0              0              0              0              3.2777948e-311
Loop time of 7.3e-05 on 1 procs for 1 steps with 23 atoms

0.0% CPU use with 1 MPI tasks x 1 OpenMP threads

Minimization stats:
  Stopping criterion = search direction is not downhill
  Energy initial, next-to-last, final = 
                     0                  0                  0
  Force two-norm initial, final = 0 0
  Force max component initial, final = 0 0
  Final line search alpha, max atom move = 0 0
  Iterations, force evaluations = 1 0

MPI task timing breakdown:
Section |  min time  |  avg time  |  max time  |%varavg| %total
---------------------------------------------------------------
Pair    | 3e-06      | 3e-06      | 3e-06      |   0.0 |  4.11
Bond    | 1e-06      | 1e-06      | 1e-06      |   0.0 |  1.37
Neigh   | 0          | 0          | 0          |   0.0 |  0.00
Comm    | 1e-06      | 1e-06      | 1e-06      |   0.0 |  1.37
Output  | 0          | 0          | 0          |   0.0 |  0.00
Modify  | 0          | 0          | 0          |   0.0 |  0.00
Other   |            | 6.8e-05    |            |       | 93.15

Nlocal:             23 ave          23 max          23 min
Histogram: 1 0 0 0 0 0 0 0 0 0
Nghost:             18 ave          18 max          18 min
Histogram: 1 0 0 0 0 0 0 0 0 0
Neighs:              0 ave           0 max           0 min
Histogram: 1 0 0 0 0 0 0 0 0 0

Total # of neighbors = 0
Ave neighs/atom = 0
Ave special neighs/atom = 2.4347826
Neighbor list builds = 0
Dangerous builds = 0

fix 1 all langevin 1.0 1.0 50.0 12345
fix 2 all nve

thermo 50
compute t all temp
compute ep all pe
compute ek all ke
compute tm all momentum

dump 1 all atom 50 dump.patchy_pairs2

timestep 0.001
run 100000
Generated 0 of 6 mixed pair_coeff terms from geometric mixing rule
WARNING: More than one fix rigid (src/RIGID/fix_rigid.cpp:709)
WARNING: More than one fix rigid (src/RIGID/fix_rigid.cpp:709)
WARNING: More than one fix rigid (src/RIGID/fix_rigid.cpp:709)
WARNING: More than one fix rigid (src/RIGID/fix_rigid.cpp:709)
WARNING: More than one fix rigid (src/RIGID/fix_rigid.cpp:709)
WARNING: More than one fix rigid (src/RIGID/fix_rigid.cpp:709)
WARNING: More than one fix rigid (src/RIGID/fix_rigid.cpp:709)
WARNING: One or more atoms are time integrated more than once (src/modify.cpp:289)
Per MPI rank memory allocation (min/avg/max) = 18.6 | 18.6 | 18.6 Mbytes
   Step          Temp          E_pair         E_mol          TotEng         Press     
         1   0              0              0              0              0            
        50   0.003526506    0              0              0.0025298847  -0.047703645  
       100   0.0076438695   0              0              0.0054836455   0.01223446   
       150   0.011636517    0              0              0.0083479358   0.06841665   
       200   0.013813895    0              0              0.0099099679   0.042689268  
       250   0.015230083    0              0              0.010925929    0.015970283  
       300   0.018972224    0              0              0.013610508    0.048707571  
       350   0.018879709    0              0              0.013544139   -0.022758507  
       400   0.019698347    0              0              0.014131423    0.055806915  
       450   0.020539865    0              0              0.01473512     0.0021942822 
       500   0.023379265    0              0              0.016772082    0.034852028  
       550   0.022702163    0              0              0.016286334   -0.0045991857 
       600   0.022497463    0              0              0.016139484    0.022643784  
       650   0.022969523    0              0              0.016478136   -0.0437652    
       700   0.02167512     0              0              0.015549543   -0.022237655  
       750   0.025769561    0              0              0.018486859    0.020565505  
       800   0.02573511     0              0              0.018462144   -0.0256344    
       850   0.02120986     0              0              0.015215769   -0.028141436  
       900   0.024676642    0              0              0.017702808    0.047375001  
       950   0.030188995    0              0              0.021657322   -0.032731738  
      1000   0.032637639    0              0              0.023413958   -0.04364008   
      1050   0.038870791    0              0              0.027885568    0.0042133685 
      1100   0.041846419    0              0              0.030020257    0.018846079  
      1150   0.046882822    0              0              0.033633329    0.016667722  
      1200   0.048428573    0              0              0.034742237    0.00017203793
      1250   0.051031007    0              0              0.036609201   -0.05825761   
      1300   0.046286754    0              0              0.033205715    0.053076705  
      1350   0.05084192     0              0              0.036473551   -0.010055801  
      1400   0.054729508    0              0              0.039262473    0.009629083  
      1450   0.055609684    0              0              0.039893904    0.0059116485 
      1500   0.05311507     0              0              0.038104289    0.0059682557 
      1550   0.055333519    0              0              0.039695785   -0.0074934399 
      1600   0.059670243    0              0              0.042806913    0.039795519  
      1650   0.06514451     0              0              0.046734105   -0.030321697  
      1700   0.06693524     0              0              0.048018759   -0.038736824  
      1750   0.065854673    0              0              0.047243569   -0.1358312    
      1800   0.065936023    0              0              0.04730193    -0.001140293  
      1850   0.068384816    0              0              0.049058673   -0.018964147  
      1900   0.075790563    0              0              0.054371491    0.058773042  
      1950   0.082494799    0              0              0.059181051   -0.007861387  
      2000   0.088702751    0              0              0.063634582   -0.039279211  
      2050   0.09377574     0              0              0.0672739      0.018615787  
      2100   0.092631888    0              0              0.066453311    0.040337609  
      2150   0.092983104    0              0              0.06670527     0.0645671    
      2200   0.096430742    0              0              0.069178576   -0.018481825  
      2250   0.093382332    0              0              0.066991673   -0.020893774  
      2300   0.10177704     0              0              0.073013964    0.03723227   
      2350   0.099574747    0              0              0.071434058    0.022646491  
      2400   0.098454277    0              0              0.070630242    0.02258591   
      2450   0.096795471    0              0              0.06944023     0.06891818   
      2500   0.10461674     0              0              0.075051138   -0.016415265  
      2550   0.092225008    0              0              0.066161418    0.041596842  
      2600   0.094124587    0              0              0.06752416    -0.021891933  
      2650   0.088982944    0              0              0.06383559    -0.034450628  
      2700   0.095255341    0              0              0.068335353   -0.048020633  
      2750   0.094003118    0              0              0.067437019    0.012959851  
      2800   0.088512065    0              0              0.063497786   -0.062822277  
      2850   0.090377177    0              0              0.064835801    0.033001136  
      2900   0.082326242    0              0              0.05906013    -0.014781354  
      2950   0.082610418    0              0              0.059263996    0.047535245  
      3000   0.084660752    0              0              0.060734887   -0.04329871   
      3050   0.09448855     0              0              0.067785264    0.0093920435 
      3100   0.097275181    0              0              0.069784369    0.02974143   
      3150   0.1082717      0              0              0.077673177   -0.015868013  
      3200   0.10662607     0              0              0.076492617    0.0048940004 
      3250   0.10698935     0              0              0.076753227   -0.011556771  
      3300   0.11788931     0              0              0.084572764    0.075417041  
      3350   0.12833366     0              0              0.092065454   -0.021291454  
      3400   0.12385144     0              0              0.088849947    0.0094264428 
      3450   0.13787849     0              0              0.098912831    0.098871793  
      3500   0.14044607     0              0              0.10075479     0.085533367  
      3550   0.13878172     0              0              0.099560802    0.0087475193 
      3600   0.14121435     0              0              0.10130595     0.032943207  
      3650   0.55192501    -0.29890768     0              0.097038521   -0.88500631   
      3700   0.35010376    -0.29734561     0             -0.046184211   -0.75322279   
      3750   0.18755088    -0.25880934     0             -0.12426197     1.081484     
      3800   0.34265761    -0.4347309      0             -0.18891131    -0.079676592  
      3850   0.30745052    -0.43344892     0             -0.21288659    -0.088771424  
      3900   0.2246114     -0.39793935     0             -0.23680509     0.30170115   
      3950   0.20525023    -0.39693847     0             -0.24969373    -0.56724039   
      4000   0.21638853    -0.40867375     0             -0.2534385      0.23291146   
      4050   0.20717303    -0.40530334     0             -0.25667922    -0.44390427   
      4100   0.21488501    -0.41450228     0             -0.26034564     0.22545946   
      4150   0.20687593    -0.41244076     0             -0.26402977    -0.32567206   
      4200   0.21750645    -0.42286016     0             -0.26682292     0.19668259   
      4250   0.23185377    -0.43474151     0             -0.26841163    -0.0013414579 
      4300   0.23272356    -0.43463069     0             -0.26767683     0.041944977  
      4350   0.22510205    -0.43026728     0             -0.26878103     0.041394414  
      4400   0.22145761    -0.43309645     0             -0.27422468    -0.050230821  
      4450   0.23306751    -0.43427411     0             -0.2670735     -0.041893269  
      4500   0.24169655    -0.43340358     0             -0.26001258     0.022975672  
      4550   0.24284484    -0.43465295     0             -0.26043818    -0.066856649  
      4600   0.24406321    -0.43472819     0             -0.25963937     0.0075268471 
      4650   0.23634957    -0.43451175     0             -0.26495662     0.0057445643 
      4700   0.24292227    -0.43469478     0             -0.26042445     0.033725523  
      4750   0.24361996    -0.43463265     0             -0.25986181    -0.017469745  
      4800   0.24219236    -0.43478055     0             -0.26103386     0.026895092  
      4850   0.23490681    -0.43468014     0             -0.26616004     0.060926291  
      4900   0.23770245    -0.43470628     0             -0.26418061    -0.011516034  
      4950   0.23584976    -0.43470918     0             -0.26551262     0.018377106  
      5000   0.23123928    -0.43477863     0             -0.26888958    -0.0072539589 
      5050   0.22702384    -0.43464364     0             -0.27177871     0.018639336  
      5100   0.24575788    -0.43477695     0             -0.25847238    -0.026594791  
      5150   0.24107447    -0.43477942     0             -0.26183469     0.045543674  
      5200   0.25229418    -0.43468859     0             -0.25369495     0.022966079  
      5250   0.26133326    -0.43475347     0             -0.24727527    -0.020142917  
      5300   0.25379647    -0.43478014     0             -0.25270876    -0.0039871875 
      5350   0.26830541    -0.43477189     0             -0.24229193     0.010148131  
      5400   0.28080156    -0.43478257     0             -0.23333797     0.02482309   
      5450   0.29732792    -0.4347825      0             -0.22148204    -0.013561609  
      5500   0.28605274    -0.43478259     0             -0.22957084    -0.0085330192 
      5550   0.27536473    -0.43475828     0             -0.23721401    -0.0025239951 
      5600   0.2671399     -0.43473899     0             -0.24309515    -0.023794951  
      5650   0.26442711    -0.43470107     0             -0.24500336     0.0016864338 
      5700   0.28073212    -0.43477364     0             -0.23337886     0.036753336  
      5750   0.30175767    -0.43471431     0             -0.21823598     0.047907635  
      5800   0.30355225    -0.43478062     0             -0.21701487    -0.015046655  
      5850   0.30092358    -0.43473381     0             -0.21885386    -0.081758923  
      5900   0.29950294    -0.43477693     0             -0.21991613     0.070791291  
      5950   0.31039362    -0.43476502     0             -0.21209134     0.04893918   
      6000   0.30560007    -0.4347826      0             -0.21554777     0.0046158841 
      6050   0.31001965    -0.43474022     0             -0.21233482     0.0093152488 
      6100   0.31866707    -0.43472278     0             -0.2061138     -0.063629734  
      6150   0.32095829    -0.43468913     0             -0.20443644     0.054491827  
      6200   0.3211575     -0.43465673     0             -0.20426113     0.0042833279 
      6250   0.32550572    -0.43443861     0             -0.20092363    -0.0051346944 
      6300   0.32078814    -0.43455245     0             -0.20442183    -0.033850518  
      6350   0.31221522    -0.43469178     0             -0.21071129    -0.0048791354 
      6400   0.3087044     -0.43460482     0             -0.21314297     0.0023005362 
      6450   0.30822205    -0.43469623     0             -0.21358041     0.037627822  
      6500   0.2993432     -0.43478197     0             -0.22003576    -0.0097985186 
      6550   0.29201244    -0.43472665     0             -0.22523947    -0.023251607  
      6600   0.30018675    -0.43477503     0             -0.21942367    -0.01131342   
      6650   0.3243232     -0.43477259     0             -0.20210594    -0.060344328  
      6700   0.33836005    -0.43477574     0             -0.19203918     0.023228212  
      6750   0.33991523    -0.43476957     0             -0.19091734    -0.030068154  
      6800   0.34462266    -0.43477824     0             -0.18754894    -0.02043447   
      6850   0.34444202    -0.43478261     0             -0.1876829      0.0037334499 
      6900   0.34017222    -0.43478092     0             -0.19074432    -0.0063774255 
      6950   0.35077871    -0.4346902      0             -0.1830446     -0.056456331  
      7000   0.35447944    -0.43466778     0             -0.18036732     0.038657972  
      7050   0.37831053    -0.43478104     0             -0.16338435     0.026132708  
      7100   0.37945471    -0.43477737     0             -0.16255986    -0.071894837  
      7150   0.3761729     -0.43478226     0             -0.16491909     0.03987275   
      7200   0.38545609    -0.43478215     0             -0.1582593      0.01797277   
      7250   0.37360462    -0.43475062     0             -0.16672992    -0.040157272  
      7300   0.37480221    -0.43478112     0             -0.16590128     0.05340252   
      7350   0.35756213    -0.43462803     0             -0.17811607    -0.04447015   
      7400   0.34647459    -0.43462575     0             -0.18606789    -0.01798609   
      7450   0.33175679    -0.43442108     0             -0.19642164     0.049762072  
      7500   0.32871963    -0.43443592     0             -0.19861532     0.026375799  
      7550   0.32967831    -0.43464576     0             -0.19813741     0.030255264  
      7600   0.32910524    -0.43460549     0             -0.19850825     0.04878911   
      7650   0.33415229    -0.43477749     0             -0.19505954    -0.030084811  
      7700   0.34006779    -0.43474309     0             -0.19078141     0.010328666  
      7750   0.34038531    -0.43472649     0             -0.19053703    -0.038254958  
      7800   0.33462817    -0.43473823     0             -0.19467889    -0.082124134  
      7850   0.34805705    -0.43470843     0             -0.18501532     0.055886789  
      7900   0.35179135    -0.4346185      0             -0.18224644     0.025148831  
      7950   0.35135233    -0.43467249     0             -0.18261538     0.0082583157 
      8000   0.34292731    -0.43476871     0             -0.18875564     0.044938586  
      8050   0.32322525    -0.43476795     0             -0.20288896    -0.00071700421
      8100   0.3311882     -0.43473315     0             -0.19714162    -0.0015299974 
      8150   0.32734627    -0.43461648     0             -0.19978111     0.034391989  
      8200   0.32191563    -0.43460688     0             -0.20366741     0.084936474  
      8250   0.34806061    -0.43459604     0             -0.18490039    -0.002350128  
      8300   0.35699458    -0.43478207     0             -0.17867726     0.064870122  
      8350   0.35351516    -0.43476444     0             -0.18115574     0.060255144  
      8400   0.33436926    -0.43476048     0             -0.19488688     0.035026678  
      8450   0.34692155    -0.43474733     0             -0.18586882     0.00063073697
      8500   0.34961133    -0.4347826      0             -0.18397447     0.043894815  
      8550   0.34454232    -0.43454782     0             -0.18737615     0.0081016746 
      8600   0.34086277    -0.43467806     0             -0.19014607     0.019285683  
      8650   0.34612964    -0.43478095     0             -0.18647056    -0.056747714  
      8700   0.35476028    -0.43471914     0             -0.18021719    -0.012087822  
      8750   0.36714367    -0.4346811      0             -0.17129542     0.0009739134 
      8800   0.36503456    -0.43477452     0             -0.1729019      0.043389275  
      8850   0.36442662    -0.43470326     0             -0.17326677     0.055638661  
      8900   0.35034328    -0.43473384     0             -0.18340062     0.0021134833 
      8950   0.35568945    -0.43478229     0             -0.17961378    -0.023754729  
      9000   0.35453192    -0.43474055     0             -0.18040243     0.01216269   
      9050   0.35902404    -0.43471012     0             -0.1771494      0.01443165   
      9100   0.36800391    -0.43476917     0             -0.17076637    -0.11593404   
      9150   0.36537936    -0.43472685     0             -0.17260688    -0.047204339  
      9200   0.37671925    -0.4347791      0             -0.16452399     0.082444032  
      9250   0.36660879    -0.43478166     0             -0.17177971    -0.010105544  
      9300   0.34671635    -0.4347816      0             -0.18605031     0.029433434  
      9350   0.33025207    -0.43478256     0             -0.1978626     -0.019548902  
      9400   0.33652968    -0.43478043     0             -0.19335696    -0.017346619  
      9450   0.34542994    -0.43477444     0             -0.186966      -0.0043308283 
      9500   0.35162127    -0.43477378     0             -0.18252374     0.080854506  
      9550   0.35417228    -0.43473579     0             -0.18065568     0.077067596  
      9600   0.36694946    -0.43477401     0             -0.17152766    -0.017557906  
      9650   0.37005998    -0.43476571     0             -0.1692879     -0.012831494  
      9700   0.36887734    -0.43474114     0             -0.17011175    -0.0097873102 
      9750   0.37821892    -0.43476356     0             -0.1634326     -0.0053854127 
      9800   0.38631313    -0.43472156     0             -0.15758388     0.0092211435 
      9850   0.4060217     -0.43474658     0             -0.14347015     0.0061655265 
      9900   0.43502026    -0.43478161     0             -0.12270186    -0.0087882556 
      9950   0.44451324    -0.43478221     0             -0.11589228     0.04180998   
     10000   0.44254094    -0.43476402     0             -0.117289       0.02998011   
     10050   0.44901717    -0.4347171      0             -0.11259608    -0.018174187  
     10100   0.44299607    -0.43464922     0             -0.11684769    -0.068581316  
     10150   0.43878753    -0.43474936     0             -0.119967       0.084563175  
     10200   0.43296324    -0.4347778      0             -0.12417374    -0.11110746   
     10250   0.42395068    -0.43478007     0             -0.13064154    -0.0063749934 
     10300   0.42177829    -0.43476988     0             -0.13218981     0.078271558  
     10350   0.4171071     -0.43478118     0             -0.13555218     0.0059675969 
     10400   0.43411471    -0.43477251     0             -0.12334239    -0.045878085  
     10450   0.45113397    -0.43476628     0             -0.11112669    -0.045443775  
     10500   0.4623705     -0.43474628     0             -0.1030457     -0.088045657  
     10550   0.47707956    -0.43478217     0             -0.092529444   -0.077948713  
     10600   0.47639543    -0.43468763     0             -0.092925688   -0.073262934  
     10650   0.46859474    -0.43473828     0             -0.098572483    0.064400933  
     10700   0.47555899    -0.43475514     0             -0.093593259    0.092118679  
     10750   0.48457974    -0.43472923     0             -0.087095942    0.023316323  
     10800   0.48243764    -0.43458955     0             -0.088492976    0.043416515  
     10850   0.49345946    -0.43474783     0             -0.080744298   -0.061430893  
     10900   0.50532099    -0.43476484     0             -0.072251957    0.052114991  
     10950   0.50934258    -0.43477679     0             -0.069378856    0.12741426   
     11000   0.49927703    -0.43477402     0             -0.076597018    0.024024665  
     11050   0.4895799     -0.43477798     0             -0.083557611    0.077161891  
     11100   0.47187835    -0.43474039     0             -0.096218963    0.082261476  
     11150   0.48090234    -0.43477532     0             -0.089780165   -0.11392989   
     11200   0.47424604    -0.43478177     0             -0.094561783   -0.047478898  
     11250   0.48220599    -0.43471931     0             -0.088788922   -0.00048073329
     11300   0.49493392    -0.43462306     0             -0.079561768    0.035576444  
     11350   0.49397761    -0.43477557     0             -0.080400325    0.0022247184 
     11400   0.50047868    -0.43475046     0             -0.075711404    0.05021164   
     11450   0.50615321    -0.4347107      0             -0.071600786   -0.023762888  
     11500   0.51733881    -0.43472966     0             -0.063595295    0.021767107  
     11550   0.51369486    -0.43477932     0             -0.066259094   -0.033527472  
     11600   0.50995328    -0.43477488     0             -0.068938836    0.042900554  
     11650   0.50638471    -0.43478257     0             -0.071506581   -0.0034145821 
     11700   0.50906595    -0.434597       0             -0.069397509   -0.0059724366 
     11750   0.51011938    -0.43451711     0             -0.068561898   -0.036441327  
     11800   0.5040063     -0.43469353     0             -0.073123793   -0.00056569463
     11850   0.4976356     -0.43477515     0             -0.077775695    0.0089637638 
     11900   0.51318392    -0.43470556     0             -0.066551874   -0.05507964   
     11950   0.51639584    -0.43461809     0             -0.064160198   -0.033030319  
     12000   0.51589369    -0.4347804      0             -0.06468275     0.022958844  
     12050   0.50388626    -0.43478081     0             -0.073297194    0.0923898    
     12100   0.48832843    -0.43454081     0             -0.084218245   -0.025638716  
     12150   0.48155226    -0.43474969     0             -0.089288288   -0.092367826  
     12200   0.47953105    -0.4346533      0             -0.090641895   -0.01780969   
     12250   0.49397689    -0.43475103     0             -0.080376302   -0.12167948   
     12300   0.50546689    -0.4346614      0             -0.072043843   -0.10036597   
     12350   0.52080294    -0.43478221     0             -0.061162714    0.00047147195
     12400   0.5141718     -0.43472415     0             -0.065861772   -0.012275089  
     12450   0.50934128    -0.43465483     0             -0.069257822    0.0059248813 
     12500   0.50248275    -0.43474846     0             -0.074271708    0.077454933  
     12550   0.50300276    -0.4347548      0             -0.073905      -0.037775434  
     12600   0.5038706     -0.43477984     0             -0.073307454   -0.032551337  
     12650   0.504743      -0.43469605     0             -0.072597811   -0.037502483  
     12700   0.49517441    -0.43477698     0             -0.079543162   -0.15281622   
     12750   0.49846115    -0.43474826     0             -0.077156565    0.013793278  
     12800   0.4804518     -0.43474294     0             -0.090070999    0.098369242  
     12850   0.4708375     -0.43476911     0             -0.096994377    0.071187399  
     12900   0.46567395    -0.43478122     0             -0.10071078     0.0076406836 
     12950   0.49198061    -0.43473132     0             -0.081788711    0.14873519   
     13000   0.50325206    -0.43478245     0             -0.073753797   -0.01158793   
     13050   0.48133147    -0.43478212     0             -0.089479105    0.018999674  
     13100   0.46888784    -0.43472699     0             -0.098350935    0.02049028   
     13150   0.47348448    -0.43477364     0             -0.095099989   -0.029857409  
     13200   0.47495803    -0.43477127     0             -0.094040509   -0.028842897  
     13250   0.48764787    -0.43471626     0             -0.084881922   -0.017348992  
     13300   0.49287248    -0.43475543     0             -0.081173001    0.0037996725 
     13350   0.49098146    -0.4347762      0             -0.082550377    0.034512874  
     13400   0.4975262     -0.43477112     0             -0.077850153   -0.052963673  
     13450   0.49410686    -0.4347807      0             -0.080312732    0.036610621  
     13500   0.4730404     -0.43478208     0             -0.095427014    0.048456838  
     13550   0.48429887    -0.43475839     0             -0.08732659     0.074921933  
     13600   0.4877274     -0.43478031     0             -0.084888921    0.01188923   
     13650   0.49072668    -0.43476594     0             -0.082722894    0.010858061  
     13700   0.49582961    -0.43476091     0             -0.07905706     0.027206807  
     13750   0.50077688    -0.43474429     0             -0.07549131     0.090186066  
     13800   0.5056121     -0.43468387     0             -0.07196215     0.014378473  
     13850   0.48940321    -0.43477671     0             -0.083683098    0.10937611   
     13900   0.48907721    -0.43478258     0             -0.083922846   -0.080499969  
     13950   0.48740402    -0.43478233     0             -0.085122923    0.0067828614 
     14000   0.49755668    -0.43478083     0             -0.077838      -0.071056595  
     14050   0.50028838    -0.43475637     0             -0.07585384     0.010777912  
     14100   0.5194673     -0.43467907     0             -0.062017747   -0.014205099  
     14150   0.52598443    -0.4347826      0             -0.057445943    0.065668758  
     14200   0.53755736    -0.43455191     0             -0.048912935   -0.025806458  
     14250   0.53822308    -0.43470868     0             -0.048592125   -0.045340915  
     14300   0.53112938    -0.43477218     0             -0.053744582   -0.044524121  
     14350   0.5129548     -0.43469054     0             -0.066701229    0.0043974187 
     14400   0.50939955    -0.43461564     0             -0.069176832    0.0040664531 
     14450   0.51307692    -0.43473468     0             -0.066657765    0.0075265337 
     14500   0.5202081     -0.43477644     0             -0.061583674   -0.048933128  
     14550   0.51030845    -0.43475        0             -0.068659161    0.0054364013 
     14600   0.50928758    -0.43471284     0             -0.069354355   -0.010842805  
     14650   0.50328607    -0.43463072     0             -0.07357767     0.062626043  
     14700   0.51695388    -0.43475329     0             -0.06389507    -0.007988082  
     14750   0.5027668     -0.43477168     0             -0.07409115    -0.04457955   
     14800   0.50735987    -0.43389613     0             -0.06992057     0.073828523  
     14850   0.51062543    -0.43462305     0             -0.068304809   -0.038304929  
     14900   0.49540262    -0.43478251     0             -0.079384985   -0.033323775  
     14950   0.509784      -0.43475046     0             -0.069035853   -0.055934269  
     15000   0.50773504    -0.43477778     0             -0.070533075    0.073850462  
     15050   0.50174262    -0.4347681      0             -0.074822308    0.017045573  
     15100   0.49821456    -0.43477976     0             -0.077364965   -0.0088988496 
     15150   0.51380481    -0.4346117      0             -0.066012597   -0.055115207  
     15200   0.52505492    -0.43478257     0             -0.058112735   -0.019274394  
     15250   0.51207877    -0.43475194     0             -0.067391078    0.083499147  
     15300   0.52386804    -0.43474294     0             -0.058924563    0.062835527  
     15350   0.5238114     -0.43476496     0             -0.058987213   -0.027721989  
     15400   0.50341687    -0.43476428     0             -0.073617395    0.046730892  
     15450   0.49933239    -0.43475506     0             -0.076538345   -0.0059976678 
     15500   0.47899308    -0.43474778     0             -0.091122308    0.019690451  
     15550   0.48197848    -0.4347678      0             -0.08900063    -0.0094193397 
     15600   0.48721221    -0.43477642     0             -0.085254621    0.13243563   
     15650   0.46927139    -0.43477851     0             -0.0981273     -0.073510971  
     15700   0.48890591    -0.43477655     0             -0.084039703    0.022777579  
     15750   0.50459536    -0.43478254     0             -0.072790215   -0.020540865  
     15800   0.48121191    -0.43478185     0             -0.089564608    0.04425442   
     15850   0.48750408    -0.43477971     0             -0.085048524    0.1279141    
     15900   0.47097331    -0.43475817     0             -0.096886013   -0.00082710574
     15950   0.46577828    -0.43477928     0             -0.10063399    -0.06761412   
     16000   0.46701308    -0.43478091     0             -0.099749784    0.036820882  
     16050   0.45781852    -0.43478258     0             -0.10634755     0.08186849   
     16100   0.45304032    -0.43477354     0             -0.10976636    -0.058212361  
     16150   0.46456021    -0.43476403     0             -0.10149257    -0.026034535  
     16200   0.4882496     -0.43478141     0             -0.084515398   -0.036909899  
     16250   0.49138669    -0.4347614      0             -0.082244865    0.12174776   
     16300   0.49822566    -0.43474447     0             -0.077321713    0.02584987   
     16350   0.51446716    -0.43478069     0             -0.065706423   -0.0029034266 
     16400   0.51301733    -0.43477234     0             -0.066738168    0.038285411  
     16450   0.50778804    -0.43478239     0             -0.070499667    0.00087454492
     16500   0.50992018    -0.43476895     0             -0.06895664     0.0063888864 
     16550   0.50237037    -0.43471996     0             -0.074323823    0.054286351  
     16600   0.4918887     -0.43477563     0             -0.081898951   -0.0099529692 
     16650   0.48741981    -0.43477404     0             -0.085103302    0.058002883  
     16700   0.49047044    -0.43475666     0             -0.082897439    0.041753916  
     16750   0.50933574    -0.43477698     0             -0.069383951    0.0026985188 
     16800   0.51606699    -0.43471713     0             -0.064495156   -0.07173382   
     16850   0.52258661    -0.43476455     0             -0.059865466    0.002719144  
     16900   0.53587913    -0.43477207     0             -0.050337044   -0.068203752  
     16950   0.53492703    -0.43477138     0             -0.051019375    0.081376649  
     17000   0.51803122    -0.43477873     0             -0.063147634    0.061827872  
     17050   0.51697477    -0.43477128     0             -0.06389808     0.028371495  
     17100   0.53645157    -0.43474748     0             -0.049901784    0.011856833  
     17150   0.5326388     -0.43476729     0             -0.052656844    0.034995841  
     17200   0.53785765    -0.4347826      0             -0.048928197   -0.015145355  
     17250   0.56028037    -0.43478258     0             -0.032842313    0.035175888  
     17300   0.5445738     -0.43477968     0             -0.044107172    0.057364041  
     17350   0.51368584    -0.43478235     0             -0.066268592    0.093538375  
     17400   0.50970328    -0.43478052     0             -0.069123819    0.001516667  
     17450   0.50896786    -0.43478238     0             -0.069653267    0.061974943  
     17500   0.51330721    -0.43478254     0             -0.066540414    0.005996458  
     17550   0.50239377    -0.43477828     0             -0.07436536    -0.1534268    
     17600   0.48719824    -0.434782       0             -0.085270222    0.017764122  
     17650   0.48800379    -0.43475372     0             -0.084664046   -0.012197698  
     17700   0.50245095    -0.43472652     0             -0.07427258     0.11004736   
     17750   0.50498646    -0.43467445     0             -0.07240155    -0.038408678  
     17800   0.51162896    -0.43472392     0             -0.067685756   -0.013297632  
     17850   0.51071838    -0.43457168     0             -0.068186759    0.0016143115 
     17900   0.51175442    -0.43474275     0             -0.067614587   -0.020805701  
     17950   0.50566328    -0.43475084     0             -0.0719924     -0.056547247  
     18000   0.49491588    -0.43471524     0             -0.079666885   -0.027540786  
     18050   0.5091981     -0.43474415     0             -0.069449859   -0.0026205794 
     18100   0.51172373    -0.43476806     0             -0.067661909    0.024177398  
     18150   0.52181796    -0.43475661     0             -0.060408942   -0.022484847  
     18200   0.51448846    -0.43478009     0             -0.065690546   -0.0393152    
     18250   0.51216617    -0.43474006     0             -0.067316504   -0.043958181  
     18300   0.53102754    -0.43475867     0             -0.053804129    0.013391673  
     18350   0.52388087    -0.43464835     0             -0.05882077     0.047952605  
     18400   0.52200725    -0.43476409     0             -0.060280632    0.035956286  
     18450   0.5062444     -0.4347252      0             -0.071549868   -0.039602675  
     18500   0.51413063    -0.43475081     0             -0.065917971   -0.06233518   
     18550   0.51687335    -0.43476329     0             -0.063962837    0.013718396  
     18600   0.51027837    -0.43476806     0             -0.068698792    0.047447016  
     18650   0.50410991    -0.43478253     0             -0.073138465    0.010476628  
     18700   0.5070111     -0.43477955     0             -0.071054194   -0.013598062  
     18750   0.49727749    -0.43475871     0             -0.078016163   -0.024509802  
     18800   0.50826562    -0.43477699     0             -0.070151653    0.033985205  
     18850   0.51083206    -0.43474911     0             -0.068282633    0.021090467  
     18900   0.49514954    -0.43477521     0             -0.079559239    0.011554621  
     18950   0.49933075    -0.4347826      0             -0.076567058    0.076716958  
     19000   0.51506869    -0.43459871     0             -0.065092913    0.05209406   
     19050   0.52319965    -0.43470828     0             -0.059369403   -0.0087210536 
     19100   0.51649223    -0.43468382     0             -0.064156789   -0.12099868   
     19150   0.48609748    -0.43478252     0             -0.086060418   -0.024739475  
     19200   0.47449697    -0.43452286     0             -0.094122859   -0.023199435  
     19250   0.4760151     -0.43474089     0             -0.093251795   -0.063235369  
     19300   0.48063852    -0.43473203     0             -0.089926135   -0.042223865  
     19350   0.47633475    -0.43475905     0             -0.093040642   -0.037261389  
     19400   0.46436383    -0.43476503     0             -0.10163446    -0.14105983   
     19450   0.46993223    -0.4347013      0             -0.097576007   -0.012325478  
     19500   0.44681549    -0.43468568     0             -0.11414413    -0.066686062  
     19550   0.43593236    -0.43472682     0             -0.12199274     0.011628971  
     19600   0.4428132     -0.43477702     0             -0.11710668     0.0036787512 
     19650   0.43447822    -0.43476436     0             -0.12307347    -0.046995467  
     19700   0.44168204    -0.43455407     0             -0.11769521     0.0024749137 
     19750   0.43975665    -0.43477604     0             -0.11929844     0.058591848  
     19800   0.44148437    -0.43471145     0             -0.1179944     -0.063233986  
     19850   0.43009882    -0.43477975     0             -0.1262306      0.074613263  
     19900   0.42374181    -0.43476368     0             -0.130775      -0.077302543  
     19950   0.42526602    -0.43474231     0             -0.12966017    -0.095188304  
     20000   0.43587745    -0.43477468     0             -0.12207999     0.067494643  
     20050   0.43652442    -0.43476019     0             -0.12160136    -0.0017851644 
     20100   0.43521703    -0.43478256     0             -0.12256165     0.027946841  
     20150   0.42748362    -0.43477776     0             -0.12810473     0.028704323  
     20200   0.44170527    -0.43478067     0             -0.11790515     0.03955743   
     20250   0.4527811     -0.4347652      0             -0.10994397    -0.054277384  
     20300   0.45431164    -0.43476844     0             -0.10884922     0.019019258  
     20350   0.46680917    -0.43468724     0             -0.0998024      0.018718432  
     20400   0.45485384    -0.43478254     0             -0.10847435     0.035259168  
     20450   0.470951      -0.43477373     0             -0.096917583   -0.10003525   
     20500   0.47072263    -0.43475742     0             -0.097065104    0.10925958   
     20550   0.48278619    -0.43474618     0             -0.088399561    0.071943253  
     20600   0.48206772    -0.43469352     0             -0.08886233     0.041740874  
     20650   0.47617472    -0.43470865     0             -0.093105046   -0.039994145  
     20700   0.47010193    -0.43473697     0             -0.097489928    0.024211798  
     20750   0.47341306    -0.43476292     0             -0.095140505    0.012685982  
     20800   0.831593      -0.84488709     0             -0.2483095      0.048510358  
     20850   0.47666191    -0.70563945     0             -0.36368634    -0.13365701   
     20900   0.57686438    -0.85407507     0             -0.44023758     0.011389665  
     20950   0.48744413    -0.82786099     0             -0.47817281     0.12012026   
     21000   0.51632837    -0.86956304     0             -0.49915356    -8.8687396e-05
     21050   0.47638904    -0.85223197     0             -0.51047461     0.058481746  
     21100   0.49984478    -0.86752134     0             -0.50893704    -0.016572281  
     21150   0.49612043    -0.86019269     0             -0.50428021     0.032434669  
     21200   0.51117556    -0.86834358     0             -0.50163068     0.00096823471
     21250   0.50503406    -0.86702595     0             -0.50471891     0.03301521   
     21300   0.50517687    -0.86921923     0             -0.50680974     0.08871069   
     21350   0.48369728    -0.86922285     0             -0.52222263    -0.020839175  
     21400   0.48635827    -0.86849742     0             -0.51958823     0.064530664  
     21450   0.47720564    -0.86949576     0             -0.52715259     0.030603228  
     21500   0.4719656     -0.86906202     0             -0.530478      -0.096710937  
     21550   0.47732769    -0.86953487     0             -0.52710413    -0.016932324  
     21600   0.45879162    -0.86932779     0             -0.54019468     0.014108275  
     21650   0.45297093    -0.86951685     0             -0.54455945     0.081166647  
     21700   0.47406306    -0.86951445     0             -0.52942573     0.053446699  
     21750   0.46373292    -0.86918818     0             -0.53651021     0.029327584  
     21800   0.46469066    -0.86942258     0             -0.53605754     0.021284317  
     21850   0.46932673    -0.86949661     0             -0.5328057     -0.061813297  
     21900   0.46022166    -0.86953026     0             -0.53937125     0.10439047   
     21950   0.45796099    -0.86917874     0             -0.5406415      0.060192236  
     22000   0.45328787    -0.86949146     0             -0.54430668     0.013145704  
     22050   0.45141845    -0.86952679     0             -0.54568312     0.023162987  
     22100   0.45382564    -0.86952716     0             -0.54395659    -0.002774236  
     22150   0.45739937    -0.86934534     0             -0.541211      -0.03470178   
     22200   0.45888175    -0.86940832     0             -0.54021054     0.025790258  
     22250   0.46086802    -0.8693039      0             -0.53868119    -0.014255677  
     22300   0.45563136    -0.86950535     0             -0.54263938     0.14576841   
     22350   0.47721997    -0.86949269     0             -0.52713923    -0.01014457   
     22400   0.49909084    -0.86904331     0             -0.51099988    -0.022964838  
     22450   0.50567453    -0.86939874     0             -0.50663223    -0.064187251  
     22500   0.50759145    -0.86953924     0             -0.50539755    -0.031780282  
     22550   0.50096756    -0.86938843     0             -0.50999866    -0.05815033   
     22600   0.5146101     -0.86952347     0             -0.50034666     0.038825424  
     22650   0.52427969    -0.86946329     0             -0.49334961     0.038511587  
     22700   0.52660197    -0.86943675     0             -0.49165707     0.074766697  
     22750   0.52815099    -0.86913333     0             -0.4902424      0.058076277  
     22800   0.53056672    -0.86951405     0             -0.48889009     0.026539616  
     22850   0.54061855    -0.86948017     0             -0.48164513     0.022356458  
     22900   0.52887366    -0.86956319     0             -0.49015382    -0.042014295  
     22950   0.54095353    -0.86935045     0             -0.48127509     0.0080526437 
     23000   0.54720672    -0.86954016     0             -0.47697882     0.058201465  
     23050   0.55420866    -0.86952815     0             -0.47194367     0.019508096  
     23100   0.55964046    -0.86954272     0             -0.46806152     0.028685993  
     23150   0.53986502    -0.8694877      0             -0.48219324    -0.028851184  
     23200   0.5381343     -0.86947889     0             -0.48342603    -6.7853162e-05
     23250   0.53417379    -0.86954167     0             -0.48633003     0.02602422   
     23300   0.54381426    -0.86945356     0             -0.47932594     0.0068005722 
     23350   0.54323732    -0.86951279     0             -0.47979906     0.05882367   
     23400   0.54615636    -0.86956304     0             -0.47775522    -0.033897304  
     23450   0.54133701    -0.86952741     0             -0.48117695     0.022113665  
     23500   0.55249232    -0.86956166     0             -0.47320847    -0.038829087  
     23550   0.55556829    -0.86951107     0             -0.47095121     0.029412802  
     23600   0.55762266    -0.8695521      0             -0.46951845    -0.080479454  
     23650   0.57426635    -0.86956112     0             -0.45758744     0.022148585  
     23700   0.58172959    -0.86921546     0             -0.45188771    -0.048738287  
     23750   0.57196703    -0.86945348     0             -0.4591293     -0.013056308  
     23800   0.58893275    -0.86929604     0             -0.44680081    -0.0022197226 
     23850   0.5801135     -0.86939838     0             -0.45323        0.06392314   
     23900   0.57883596    -0.86952661     0             -0.45427473     0.0048365257 
     23950   0.58409656    -0.86953288     0             -0.45050708    -0.01180555   
     24000   0.57902776    -0.86942413     0             -0.45403465    -0.0059091376 
     24050   0.57162283    -0.86953786     0             -0.45946061     0.040816545  
     24100   0.57813442    -0.86953216     0             -0.45478355     0.052955938  
     24150   0.59882678    -0.8694664      0             -0.43987327     0.0389178    
     24200   0.61725623    -0.86943415     0             -0.4266199      0.0057278471 
     24250   0.60915408    -0.86947312     0             -0.43247128    -0.038948426  
     24300   0.60429346    -0.8694592      0             -0.43594433     0.017370604  
     24350   0.5977811     -0.86945164     0             -0.44060868    -0.003320948  
     24400   0.62595386    -0.86913969     0             -0.42008583    -0.060913513  
     24450   0.62149464    -0.86937107     0             -0.42351622    -0.024049411  
     24500   0.62177491    -0.86909524     0             -0.42303932    -0.010425074  
     24550   0.61560577    -0.86935376     0             -0.42772354    -0.021792116  
     24600   0.61235548    -0.86945695     0             -0.43015846     0.029338772  
     24650   0.63080526    -0.86918508     0             -0.41665087     0.041424962  
     24700   0.6435108     -0.86947827     0             -0.40782922     0.054044285  
     24750   0.63412152    -0.86947048     0             -0.41455721    -0.087749212  
     24800   0.62195882    -0.86948457     0             -0.42329672     0.018033278  
     24850   0.60868999    -0.86951865     0             -0.43284974     0.013344351  
     24900   0.62382036    -0.86956463     0             -0.42204133    -0.022439818  
     24950   0.62170314    -0.86948169     0             -0.42347726     0.10203795   
     25000   0.63156849    -0.8695342      0             -0.41645245     0.055410462  
     25050   0.63652215    -0.86945719     0             -0.41282174     0.0044470876 
     25100   0.5990313     -0.86948254     0             -0.4397427     -0.047494751  
     25150   0.60168518    -0.86955388     0             -0.43791016     0.012943003  
     25200   0.60258899    -0.86956453     0             -0.43727243     0.045444337  
     25250   0.58752518    -0.86956256     0             -0.4480771      0.0047139064 
     25300   0.59812277    -0.86954343     0             -0.44045536     0.03048819   
     25350   0.60619068    -0.86944232     0             -0.43456639    -0.014305327  
     25400   0.60404452    -0.86955455     0             -0.43621826    -0.018732573  
     25450   0.59700503    -0.86954971     0             -0.44126349    -0.038463751  
     25500   0.60182645    -0.86952577     0             -0.43778071    -0.038211794  
     25550   0.61957277    -0.86953754     0             -0.42506142    -0.017260521  
     25600   0.62909161    -0.86948565     0             -0.4181808     -0.015079857  
     25650   0.65477463    -0.86950522     0             -0.39977559    -0.067696044  
     25700   0.66462503    -0.86954574     0             -0.39274952    -0.031809329  
     25750   0.64449407    -0.86952453     0             -0.40717008    -0.028570256  
     25800   0.66060165    -0.86953624     0             -0.39562637     0.043529783  
     25850   0.66761548    -0.86947725     0             -0.39053571    -0.01080274   
     25900   0.65828803    -0.86954014     0             -0.39729003     0.040174167  
     25950   0.66466843    -0.86937937     0             -0.39255202     0.035897735  
     26000   0.67734768    -0.86950555     0             -0.38358221     0.0060027201 
     26050   0.68969471    -0.86948015     0             -0.37469916     0.040746372  
     26100   0.69765734    -0.86952633     0             -0.36903302     0.016255826  
     26150   0.71619062    -0.86944477     0             -0.35565585     0.062638647  
     26200   0.70450235    -0.86920962     0             -0.36380576    -0.041415012  
     26250   0.70120012    -0.86951206     0             -0.36647719     0.05917697   
     26300   0.71246829    -0.86951145     0             -0.35839289     0.009877964  
     26350   0.70588471    -0.86952463     0             -0.36312908     0.10329723   
     26400   0.70079201    -0.8695577      0             -0.36681561    -0.0066882944 
     26450   0.68396563    -0.86954767     0             -0.37887667    -0.04058066   
     26500   0.66829448    -0.86942685     0             -0.38999821    -0.10666894   
     26550   0.65738108    -0.86931704     0             -0.39771756    -0.041737347  
     26600   0.66112221    -0.86954067     0             -0.39525735    -0.0090938113 
     26650   0.65203144    -0.86954007     0             -0.40177838     0.0064161715 
     26700   0.68369979    -0.86954896     0             -0.37906867    -0.025678722  
     26750   0.69076311    -0.86953336     0             -0.37398591     0.017592428  
     26800   0.6958558     -0.86937752     0             -0.37017662    -0.013364863  
     26850   0.67612428    -0.86951002     0             -0.38446434     0.043363635  
     26900   0.67828275    -0.86955479     0             -0.38296064    -0.0039701304 
     26950   0.70437882    -0.86947325     0             -0.36415801    -0.088939168  
     27000   0.69206358    -0.86926151     0             -0.37278111    -0.002817347  
     27050   0.69781882    -0.8692281      0             -0.36861895    -0.028333277  
     27100   0.71270695    -0.86952382     0             -0.35823405     0.052638757  
     27150   0.71065304    -0.86922542     0             -0.35940911     0.038282714  
     27200   0.71237158    -0.86945522     0             -0.35840605    -0.051211079  
     27250   0.69359267    -0.86932491     0             -0.37174756     0.010968414  
     27300   0.68287295    -0.8693712      0             -0.37948409     0.0024698459 
     27350   0.69271603    -0.86954826     0             -0.3725998      0.061741473  
     27400   0.70071308    -0.86955485     0             -0.36686938     0.029358911  
     27450   0.71083064    -0.86931997     0             -0.35937625     0.053297319  
     27500   0.71000844    -0.8694359      0             -0.36008202    -0.016085998  
     27550   0.69809173    -0.86941563     0             -0.36861069    -0.0043874913 
     27600   0.70252338    -0.86942032     0             -0.36543616     0.017038811  
     27650   0.70380274    -0.86932926     0             -0.3644273      0.024642281  
     27700   0.67781203    -0.86950653     0             -0.38325008    -0.076450014  
     27750   0.67595509    -0.86926318     0             -0.38433888    -0.026397125  
     27800   0.68209473    -0.8694829      0             -0.38015407    -0.033982826  
     27850   0.67492767    -0.86921865     0             -0.38503141    -0.004010238  
     27900   0.67734567    -0.86936072     0             -0.38343882    -0.022647128  
     27950   0.64525358    -0.86888907     0             -0.40598977    -0.023297884  
     28000   0.64989399    -0.86955963     0             -0.40333133     0.029083532  
     28050   0.63710121    -0.86940827     0             -0.4123574     -0.0049631395 
     28100   0.61535309    -0.86954634     0             -0.42809739    -0.018547575  
     28150   0.6309777     -0.86951674     0             -0.41685883     0.032146942  
     28200   0.6385674     -0.86899357     0             -0.41089088    -0.020273433  
     28250   0.64449899    -0.86922263     0             -0.40686465    -0.037220737  
     28300   0.65652262    -0.86943469     0             -0.39845107     0.011407085  
     28350   0.66403259    -0.86942777     0             -0.39305656    -0.025774761  
     28400   0.67343192    -0.86887443     0             -0.38576023     0.020622982  
     28450   0.67109042    -0.86956125     0             -0.38812682    -0.036504054  
     28500   0.67042748    -0.8694727      0             -0.38851385     0.028709185  
     28550   0.68475952    -0.86924205     0             -0.37800153     0.0034877989 
     28600   0.67440366    -0.86938296     0             -0.38557164     0.10203692   
     28650   0.66621589    -0.86934609     0             -0.3914086     -0.0094385857 
     28700   0.66278145    -0.8695355      0             -0.39406186     0.01089446   
     28750   0.68659986    -0.86954731     0             -0.37698654     0.024247051  
     28800   0.68537791    -0.8695469      0             -0.37786275     0.013789143  
     28850   0.68657548    -0.86956218     0             -0.3770189     -0.041378455  
     28900   0.71758807    -0.86955591     0             -0.35476447    -0.023022989  
     28950   0.68917323    -0.86951666     0             -0.37510978     0.015649376  
     29000   0.6933323     -0.86955547     0             -0.3721649      0.045196139  
     29050   0.70427378    -0.86953649     0             -0.3642966     -0.021844196  
     29100   0.68468158    -0.86922903     0             -0.37804441     0.016523498  
     29150   0.69287863    -0.86951285     0             -0.37244774     0.087752699  
     29200   0.69484686    -0.86952834     0             -0.37105125    -0.024358003  
     29250   0.6862317     -0.86955228     0             -0.37725563    -0.014144623  
     29300   1.1950591     -1.249906       0             -0.39258095     0.011334719  
     29350   0.75772471    -1.1116867      0             -0.56810163     0.020761209  
     29400   0.66119731    -1.1270204      0             -0.65268315    -0.034299573  
     29450   0.80962511    -1.3031945      0             -0.72237653     0.054946835  
     29500   0.67661387    -1.2576859      0             -0.77228904     0.036016001  
     29550   0.62439071    -1.2460622      0             -0.79812975    -0.094231923  
     29600   0.65882534    -1.2989495      0             -0.82631393     0.0050599784 
     29650   0.66173861    -1.3023432      0             -0.82761766     0.014109138  
     29700   0.66694352    -1.2971251      0             -0.81866561    -0.025725803  
     29750   0.65536061    -1.2967856      0             -0.82663556     0.03555471   
     29800   0.65655909    -1.2931842      0             -0.82217443    -0.025794591  
     29850   0.66571671    -1.2946406      0             -0.81706124     0.013057282  
     29900   0.65999449    -1.2963039      0             -0.82282956    -0.047860779  
     29950   0.64561972    -1.3024091      0             -0.83924716     0.091410627  
     30000   0.63500685    -1.3018866      0             -0.84633822    -0.043668738  
     30050   0.65514278    -1.3041795      0             -0.83418575    -0.057955561  
     30100   0.66523489    -1.3036175      0             -0.82638376    -0.0081586835 
     30150   0.6719251     -1.3038721      0             -0.82183885    -0.020757791  
     30200   0.66701024    -1.3042056      0             -0.82569827     0.020507893  
     30250   0.67763968    -1.3039104      0             -0.81777758    -0.082466869  
     30300   0.67492896    -1.3042801      0             -0.8200919     -0.056549908  
     30350   0.66587941    -1.3035443      0             -0.82584817    -0.0078667868 
     30400   0.68473337    -1.3043057      0             -0.81308398     0.01594885   
     30450   0.67485876    -1.3039223      0             -0.81978452     0.036941739  
     30500   0.6761649     -1.3040004      0             -0.81892563     0.015031608  
     30550   0.6861784     -1.3039091      0             -0.81165069    -0.031489765  
     30600   0.69601501    -1.3039301      0             -0.80461497    -0.011505573  
     30650   0.70942639    -1.304245       0             -0.79530872    -0.0039213188 
     30700   0.7061894     -1.304049       0             -0.79743485    -0.0033247678 
     30750   0.70470992    -1.3043229      0             -0.79877008     0.021824948  
     30800   0.70571011    -1.3043294      0             -0.79805914    -0.0052492723 
     30850   0.6869002     -1.3043065      0             -0.8115303      0.077926597  
     30900   0.69201694    -1.3043046      0             -0.8078577      0.038405385  
     30950   0.68661681    -1.3042295      0             -0.81165659     0.055531124  
     31000   0.70126103    -1.3043119      0             -0.80123331     0.036645636  
     31050   0.70426509    -1.3040523      0             -0.79881869    -0.028272522  
     31100   0.72027684    -1.3041642      0             -0.78744387    -0.023410415  
     31150   0.73234379    -1.3042777      0             -0.77890059    -0.049616998  
     31200   0.73189519    -1.304315       0             -0.77925974     0.005593433  
     31250   0.73183914    -1.3043465      0             -0.77933151    -0.0020919658 
     31300   0.72027778    -1.3043335      0             -0.78761248     0.039440858  
     31350   0.70409908    -1.3042695      0             -0.79915498     0.042803659  
     31400   0.70557202    -1.3042768      0             -0.79810556     0.012035927  
     31450   0.69526848    -1.3042637      0             -0.80548415    -0.039945578  
     31500   0.69819733    -1.3042332      0             -0.80335255     0.049808338  
     31550   0.68461645    -1.304227       0             -0.81308916    -0.035676847  
     31600   0.67695421    -1.3039744      0             -0.81833332     0.032285632  
     31650   0.6646108     -1.3042292      0             -0.82744316     0.0015060716 
     31700   0.66797337    -1.3042585      0             -0.82506019     0.045499498  
     31750   0.67609212    -1.3039961      0             -0.81897348     0.064632426  
     31800   0.68330069    -1.3041037      0             -0.81390969    -0.00025413421
     31850   0.68615808    -1.3042492      0             -0.8120054      0.0054812457 
     31900   0.69288246    -1.3042847      0             -0.80721689     0.014812432  
     31950   0.69122745    -1.3042881      0             -0.80840749     0.10748136   
     32000   0.70311213    -1.3038607      0             -0.79945415     0.042821345  
     32050   0.68804757    -1.304274       0             -0.81067464     0.027558728  
     32100   0.66165272    -1.304231       0             -0.82956707    -0.0048171284 
     32150   0.67007155    -1.3043363      0             -0.82363275    -0.025588486  
     32200   0.66833239    -1.3042949      0             -0.82483908     0.021631284  
     32250   0.67715157    -1.304301       0             -0.81851833     0.030000324  
     32300   0.6816012     -1.3043125      0             -0.81533769    -0.025515317  
     32350   0.68122985    -1.3042112      0             -0.81550285     0.01890556   
     32400   0.68273621    -1.3043307      0             -0.81454164    -0.039321218  
     32450   0.6917358     -1.3041812      0             -0.80793594    -0.014552295  
     32500   0.6889339     -1.3042102      0             -0.80997505     0.0094915104 
     32550   0.69696189    -1.3042886      0             -0.80429419     0.010354921  
     32600   0.70215435    -1.3040997      0             -0.80038024    -0.029105329  
     32650   0.70788638    -1.3041022      0             -0.79627068     0.0061306697 
     32700   0.70242702    -1.3042369      0             -0.80032184    -0.020572043  
     32750   0.69584085    -1.3038953      0             -0.80470512     0.02389415   
     32800   0.69436687    -1.3041028      0             -0.80597005     0.00238528   
     32850   0.69042139    -1.3040595      0             -0.80875721     0.043187192  
     32900   0.68639775    -1.3477193      0             -0.85530357     0.041864105  
     32950   0.72151029    -1.3455992      0             -0.82799395    -0.078066134  
     33000   0.69214893    -1.3384467      0             -0.84190511     0.014501759  
     33050   0.67026308    -1.3264328      0             -0.84559191     0.0032090163 
     33100   0.68806485    -1.3146506      0             -0.82103885     0.043622983  
     33150   0.69158452    -1.3084434      0             -0.81230668     0.020447905  
     33200   0.72219936    -1.3138874      0             -0.79578787     0.0044844228 
     33250   0.75218105    -1.3262977      0             -0.78668954     0.003029517  
     33300   0.77707018    -1.3380419      0             -0.78057848     0.011161637  
     33350   0.79691073    -1.3450194      0             -0.77332259    -0.039973976  
     33400   0.798169      -1.3471472      0             -0.77454766    -0.040787823  
     33450   0.78587219    -1.3035486      0             -0.73977072     0.025145083  
     33500   0.79305331    -1.3037545      0             -0.73482495    -0.04748076   
     33550   0.78683671    -1.3042287      0             -0.7397589      0.050915977  
     33600   0.80009956    -1.3040886      0             -0.73010417     0.0074032031 
     33650   0.79408235    -1.3040122      0             -0.73434439     0.0037248594 
     33700   0.79556564    -1.3043427      0             -0.73361084     0.02868787   
     33750   0.80792747    -1.3043392      0             -0.72473901     0.046401418  
     33800   0.79451796    -1.304283       0             -0.73430273     0.037168147  
     33850   0.82869466    -1.3042284      0             -0.7097301      0.061605549  
     33900   0.85134224    -1.3042912      0             -0.69354567     0.044420509  
     33950   0.8462717     -1.3042928      0             -0.69718485     0.0042195003 
     34000   0.84271303    -1.3040528      0             -0.69949782    -0.057824732  
     34050   0.85222207    -1.3042583      0             -0.69288162    -0.045351376  
     34100   0.85295228    -1.3041827      0             -0.6922822      0.029525949  
     34150   0.85978924    -1.304283       0             -0.68747763     0.07509817   
     34200   0.8832532     -1.3042795      0             -0.67064134     0.013786107  
     34250   0.87744628    -1.3041523      0             -0.67467999     0.090079509  
     34300   0.8629438     -1.3040377      0             -0.68496929     0.023398787  
     34350   0.84712253    -1.3041         0             -0.69638169    -0.0034343265 
     34400   0.82488499    -1.3042521      0             -0.71248677     0.0063334652 
     34450   0.82150181    -1.3041311      0             -0.71479281    -0.057893416  
     34500   0.7907044     -1.3039992      0             -0.73675474     0.03288679   
     34550   0.7733817     -1.304132       0             -0.74931465    -0.0019909159 
     34600   0.77370785    -1.3037851      0             -0.7487338     -0.091852256  
     34650   0.77030834    -1.3037719      0             -0.75115943     0.059058948  
     34700   0.76838023    -1.3041583      0             -0.75292904    -0.072272943  
     34750   0.76836009    -1.3036728      0             -0.752458      -0.051614379  
     34800   0.75263102    -1.3041675      0             -0.76423651     0.062516958  
     34850   0.76450129    -1.3041698      0             -0.75572326     0.033170151  
     34900   0.77252749    -1.3039107      0             -0.74970619     0.0031364898 
     34950   0.7649463     -1.3042144      0             -0.75544853     0.041588618  
     35000   0.77289455    -1.304149       0             -0.7496812     -0.0082171945 
     35050   0.80066584    -1.3043303      0             -0.72993954    -0.014930302  
     35100   0.77377033    -1.3043116      0             -0.74921549     0.010183714  
     35150   0.77995493    -1.3042212      0             -0.74468836     0.078055714  
     35200   0.78703062    -1.3041329      0             -0.73952397    -0.0073791261 
     35250   0.79350832    -1.3042565      0             -0.73500058    -0.0070232731 
     35300   0.79046025    -1.3043257      0             -0.73725637    -0.00086060977
     35350   0.77897613    -1.3039144      0             -0.74508368     0.0061443089 
     35400   0.78423848    -1.3040434      0             -0.74143754    -0.053329856  
     35450   0.78391066    -1.3042425      0             -0.74187177     0.075773919  
     35500   0.79138117    -1.3041474      0             -0.73641748    -0.024647937  
     35550   0.80181609    -1.304031       0             -0.72881516    -0.1082189    
     35600   0.82923753    -1.3043043      0             -0.70941655    -0.028817703  
     35650   0.80305383    -1.3041639      0             -0.72806004    -0.037036683  
     35700   0.81423386    -1.304082       0             -0.71995768     0.017077799  
     35750   0.81407928    -1.3043118      0             -0.72029837    -0.0060128567 
     35800   0.80428102    -1.3042318      0             -0.7272476      0.018218036  
     35850   0.80921132    -1.3041006      0             -0.7235794     -0.027330404  
     35900   0.8184504     -1.3041391      0             -0.71698987     0.057551685  
     35950   0.83709576    -1.304218       0             -0.70369282     0.038169486  
     36000   0.8409182     -1.3041956      0             -0.70092817     0.053664616  
     36050   0.85373394    -1.3043144      0             -0.69185307    -0.053015912  
     36100   0.856616      -1.3041604      0             -0.68963157     0.031679468  
     36150   0.86881485    -1.3041273      0             -0.68084703    -0.056519553  
     36200   0.87304738    -1.3043069      0             -0.67799031     0.026830818  
     36250   0.89290823    -1.3043308      0             -0.66376618     0.037510962  
     36300   0.87992363    -1.3043312      0             -0.67308168     0.010706804  
     36350   0.83371999    -1.3040221      0             -0.70591858     0.016629084  
     36400   0.81912738    -1.3043442      0             -0.71670936     0.00053654248
     36450   0.83272763    -1.3042619      0             -0.70687038     0.02890642   
     36500   0.82004528    -1.3043056      0             -0.71601227    -0.040830385  
     36550   0.81202178    -1.3042212      0             -0.72168384     0.020363856  
     36600   0.82456315    -1.30413        0             -0.71259558    -0.0049922115 
     36650   0.81940993    -1.3042571      0             -0.71641956     0.0031668563 
     36700   0.82005149    -1.3043399      0             -0.71604206    -0.061479727  
     36750   0.85271347    -1.3043274      0             -0.69259816     0.010248265  
     36800   0.85605762    -1.3042007      0             -0.69007236    -0.03160357   
     36850   0.86864379    -1.3043009      0             -0.68114344     0.055357725  
     36900   0.89423552    -1.304215       0             -0.66269821     0.015845976  
     36950   0.89454627    -1.3042653      0             -0.66252558     0.030645141  
     37000   0.8752401     -1.3040823      0             -0.67619263    -0.008334693  
     37050   0.88302047    -1.3042288      0             -0.67075759     0.040798302  
     37100   0.89143225    -1.3042689      0             -0.66476313     0.03739203   
     37150   0.89845285    -1.3040698      0             -0.65952752    -0.07012567   
     37200   0.90521569    -1.3041104      0             -0.65471654    -3.8599449e-05
     37250   0.87949348    -1.3040572      0             -0.67311621     0.027350177  
     37300   0.87876311    -1.304272       0             -0.67385498    -0.0023557834 
     37350   0.90607568    -1.3042956      0             -0.65428476    -0.013434666  
     37400   0.91199204    -1.3041779      0             -0.64992276     0.0086491877 
     37450   0.91253224    -1.3043217      0             -0.64967902    -0.001018324  
     37500   0.88285045    -1.3042176      0             -0.67086838     0.011462805  
     37550   0.86132433    -1.3474594      0             -0.72955281     0.10587832   
     37600   0.84177588    -1.3418608      0             -0.73797806     0.060128248  
     37650   0.84263927    -1.328179       0             -0.72367696    -0.031327649  
     37700   0.83142887    -1.3939323      0             -0.79747248     0.085477176  
     37750   0.98147288    -1.5901161      0             -0.88601602    -0.095230229  
     37800   1.057211      -1.7437256      0             -0.98529169     0.034402353  
     37850   0.84963572    -1.6653083      0             -1.055787      -0.030861304  
     37900   0.85242732    -1.7102031      0             -1.0986792     -0.051067407  
     37950   0.89474792    -1.7675121      0             -1.1256278      0.085353618  
     38000   0.86584376    -1.7703826      0             -1.1492338     -0.0094531156 
     38050   0.87361862    -1.7118482      0             -1.0851218     -0.0031116021 
     38100   0.87840697    -1.7212065      0             -1.091045      -0.0053745798 
     38150   0.87814318    -1.7359186      0             -1.1059463     -0.027316558  
     38200   0.85866351    -1.737972       0             -1.1219743      0.073357288  
     38250   0.86955841    -1.7342887      0             -1.110475       0.049757486  
     38300   0.8851645     -1.7341089      0             -1.0990996      0.081043177  
     38350   0.85901531    -1.7386085      0             -1.1223583      0.015688058  
     38400   0.84740677    -1.7383968      0             -1.1304746      0.030899857  
     38450   0.84171022    -1.7377291      0             -1.1338935     -0.081858573  
     38500   0.84012203    -1.738221       0             -1.1355248     -0.067129596  
     38550   0.84873347    -1.7388357      0             -1.1299617      0.054209574  
     38600   0.84211384    -1.7388037      0             -1.1346786     -0.046568276  
     38650   0.84452886    -1.7388477      0             -1.1329901      0.015645107  
     38700   0.85012929    -1.738431       0             -1.1285556     -0.10695627   
     38750   0.84337286    -1.7387923      0             -1.1337639      0.0097200969 
[...]
     89350   0.39496054    -3.4854036      0             -3.2020624     -0.034863476  
     89400   0.40931158    -3.4909759      0             -3.1973394     -0.056795456  
     89450   0.41305001    -3.4958953      0             -3.1995768     -0.093766398  
     89500   0.41895631    -3.4991074      0             -3.1985518      0.038842744  
     89550   0.4264285     -3.5008462      0             -3.1949301     -0.072264237  
     89600   0.42746215    -3.5009725      0             -3.1943149     -0.016526735  
     89650   0.43176801    -3.4980566      0             -3.18831       -0.073898983  
     89700   0.41347914    -3.49337        0             -3.1967436      0.008015583  
     89750   0.39661078    -3.4844519      0             -3.1999268      0.011193929  
     89800   0.38597266    -3.4747122      0             -3.1978188     -0.025241848  
     89850   0.37986811    -3.4687396      0             -3.1962255     -0.032180639  
     89900   0.38522455    -3.4690995      0             -3.1927427     -0.10959816   
     89950   0.39485778    -3.4756543      0             -3.1923867      0.10011629   
     90000   0.41709813    -3.4849874      0             -3.1857649     -0.044017417  
     90050   0.45219894    -3.4930514      0             -3.1686478     -0.0032523359 
     90100   0.44936862    -3.4983544      0             -3.1759813      0.043378524  
     90150   0.43102139    -3.5008331      0             -3.1916221      0.025856374  
     90200   0.42353045    -3.501231       0             -3.1973939     -0.094697927  
     90250   0.41141636    -3.49946        0             -3.2043135      0.10696407   
     90300   0.40740173    -3.4955745      0             -3.203308      -0.00097265937
     90350   0.39801905    -3.4899196      0             -3.2043842      0.052529538  
     90400   0.39050292    -3.4832395      0             -3.2030961      0.054385128  
     90450   0.38120878    -3.4764251      0             -3.2029492     -0.036153106  
     90500   0.36394005    -3.4717897      0             -3.2107023      0.019800013  
     90550   0.35447696    -3.4696634      0             -3.2153647     -0.026908733  
     90600   0.35969459    -3.4711351      0             -3.2130933     -0.00084623995
     90650   0.36124661    -3.4763017      0             -3.2171465      0.025006461  
     90700   0.36624392    -3.4827308      0             -3.2199906      0.0072495223 
     90750   0.39127566    -3.4892377      0             -3.2085399      0.015051342  
     90800   0.42073706    -3.4955173      0             -3.1936842      0.025428097  
     90850   0.43075872    -3.5004786      0             -3.1914561      0.024467743  
     90900   0.43679269    -3.5035293      0             -3.1901781      0.023844482  
     90950   0.43251466    -3.5044259      0             -3.1941437     -0.067210409  
     91000   0.44847923    -3.502712       0             -3.1809769      0.023783667  
     91050   0.45287321    -3.4987322      0             -3.1738449     -0.044918089  
     91100   0.45629685    -3.4918338      0             -3.1644904     -0.0095056897 
     91150   0.45496543    -3.483646       0             -3.1572578      0.064052032  
     91200   0.44092275    -3.4757181      0             -3.1594039     -0.017412918  
     91250   0.44031085    -3.4717819      0             -3.1559067     -0.024244278  
     91300   0.4443062     -3.4735395      0             -3.1547981     -0.022624973  
     91350   0.42771875    -3.4815881      0             -3.1747464     -0.064196285  
     91400   0.45242477    -3.4907906      0             -3.166225       0.068209922  
     91450   0.48777625    -3.497543       0             -3.1476166      0.0025171119 
     91500   0.49715347    -3.5027094      0             -3.1460558      0.039625028  
     91550   0.49176965    -3.5045749      0             -3.1517836     -0.041020839  
     91600   0.4879643     -3.5048312      0             -3.1547698     -0.054004918  
     91650   0.47763537    -3.5034425      0             -3.1607911     -0.037892591  
     91700   0.48410588    -3.5008629      0             -3.1535696      0.071801831  
     91750   0.48475501    -3.496474       0             -3.1487149     -0.084978934  
     91800   0.476297      -3.4912144      0             -3.1495231      0.083105332  
     91850   0.46287613    -3.4857688      0             -3.1537055     -0.002010343  
     91900   0.47807318    -3.4823421      0             -3.1393765      0.0083345371 
     91950   0.47188966    -3.4808682      0             -3.1423386     -0.047703446  
     92000   0.46764694    -3.4827588      0             -3.147273      -0.038534898  
     92050   0.4744653     -3.4877761      0             -3.1473988     -0.012450966  
     92100   0.4964053     -3.4937779      0             -3.137661      -0.024852923  
     92150   0.50043048    -3.4992932      0             -3.1402887     -0.043742125  
     92200   0.50803565    -3.5021649      0             -3.1377046      0.064579982  
     92250   0.49700333    -3.5036328      0             -3.147087      -0.052089176  
     92300   0.48402374    -3.5022957      0             -3.1550612      0.11570031   
     92350   0.49402327    -3.4990328      0             -3.1446248     -0.035428442  
     92400   0.49317307    -3.4933312      0             -3.1395332      0.0036174401 
     92450   0.48890751    -3.4857418      0             -3.1350039      0.06581211   
     92500   0.47214713    -3.4785768      0             -3.1398625     -0.040131765  
     92550   0.45374206    -3.4755793      0             -3.1500687     -0.06624641   
     92600   0.44774249    -3.4778758      0             -3.1566692     -0.017261791  
     92650   0.45655497    -3.4840701      0             -3.1565415      0.037900064  
     92700   0.47897364    -3.490942       0             -3.1473305     -0.021865251  
     92750   0.49774479    -3.4975053      0             -3.1404275     -0.055417181  
     92800   0.50725413    -3.5012103      0             -3.1373106      0.052534705  
     92850   0.50023285    -3.5028038      0             -3.1439411      0.0018645437 
     92900   0.51231258    -3.5022392      0             -3.1347106      0.097906176  
     92950   0.52137696    -3.4995244      0             -3.1254931     -0.024302586  
     93000   0.51479694    -3.4943105      0             -3.1249997     -0.00341444   
     93050   0.50411936    -3.4872801      0             -3.1256293     -0.036695143  
     93100   0.49321043    -3.4809889      0             -3.127164      -0.021600659  
     93150   0.47712039    -3.4763585      0             -3.1340764     -0.013590933  
     93200   0.48949032    -3.4744953      0             -3.1233392     -0.0059615125 
     93250   0.50388517    -3.4760254      0             -3.1145425     -0.056962743  
     93300   0.51513674    -3.4809131      0             -3.1113584     -0.062998238  
     93350   0.52387608    -3.4882778      0             -3.1124537     -0.018956591  
     93400   0.53384528    -3.4953745      0             -3.1123985      0.08559168   
     93450   0.55009887    -3.5004595      0             -3.1058233      0.027021913  
     93500   0.55971901    -3.5037194      0             -3.1021819      0.01681316   
     93550   0.57202871    -3.5044348      0             -3.0940664      0.043843157  
     93600   0.56622355    -3.5035941      0             -3.0973903     -0.061444617  
     93650   0.56411377    -3.499634       0             -3.0949437     -0.028636359  
     93700   0.53593053    -3.494009       0             -3.1095371     -0.098705199  
     93750   0.53491713    -3.4869733      0             -3.1032284      0.0095894391 
     93800   0.51577764    -3.4806777      0             -3.1106633      0.050791894  
     93850   0.51015983    -3.4771491      0             -3.1111649     -0.0024399016 
     93900   0.50551819    -3.4792079      0             -3.1165535     -0.024981255  
     93950   0.53210191    -3.4842994      0             -3.1025741      0.024139106  
     94000   0.54782832    -3.489412       0             -3.0964047      0.03096521   
     94050   0.55767069    -3.4941294      0             -3.0940613      0.037526541  
     94100   0.5515287     -3.4960104      0             -3.1003486     -0.092757487  
     94150   0.53972848    -3.4968384      0             -3.1096419      0.016992919  
     94200   0.52411812    -3.4956466      0             -3.1196488     -0.043346786  
     94250   0.5185803     -3.49298        0             -3.120955       0.049402166  
     94300   0.52261162    -3.4896069      0             -3.1146899     -0.0026156789 
     94350   0.51891975    -3.4868899      0             -3.1146214     -0.026767559  
     94400   0.51092901    -3.4857144      0             -3.1191784     -0.039313798  
     94450   0.51319196    -3.4871749      0             -3.1190155     -0.10834724   
     94500   0.51591011    -3.4907973      0             -3.1206879     -0.040057795  
     94550   0.54630123    -3.494826       0             -3.1029142      0.0064350259 
     94600   0.55281704    -3.4992662      0             -3.1026801      0.021403677  
     94650   0.54994655    -3.5011858      0             -3.1066589      0.0026538205 
     94700   0.55118323    -3.5013606      0             -3.1059465      0.022508338  
     94750   0.55750298    -3.4990301      0             -3.0990823     -0.043350159  
     94800   0.54739187    -3.4939308      0             -3.1012366      0.0058195664 
     94850   0.53176499    -3.4859305      0             -3.1044469     -0.015491455  
     94900   0.52708218    -3.4758495      0             -3.0977253      0.021509215  
     94950   0.51887903    -3.4658493      0             -3.09361        0.021801831  
     95000   0.51005589    -3.460706       0             -3.0947964      0.0070081642 
     95050   0.5205465     -3.4626598      0             -3.0892242     -0.033916349  
     95100   0.53465674    -3.4722217      0             -3.0886636     -0.035537374  
     95150   0.57552624    -3.482691       0             -3.0698134     -0.10172455   
     95200   0.62474707    -3.4918925      0             -3.0437044      0.023234173  
     95250   0.64768665    -3.4978684      0             -3.0332236      0.034998925  
     95300   0.61454525    -3.5022876      0             -3.0614182     -0.034351755  
     95350   0.62941352    -3.5020786      0             -3.0505428      0.076226902  
     95400   0.62103818    -3.5010456      0             -3.0555182     -0.017921017  
     95450   0.61930632    -3.4984301      0             -3.0541451      0.11254969   
     95500   0.60129109    -3.4927612      0             -3.0614002     -0.059353504  
     95550   0.59337565    -3.4850975      0             -3.0594149      0.084812238  
     95600   0.58862338    -3.4761526      0             -3.0538793     -0.00015145588
     95650   0.58777043    -3.4699921      0             -3.0483307      0.11055508   
     95700   0.59874317    -3.4694483      0             -3.0399152      0.027171986  
     95750   0.58892014    -3.4747322      0             -3.052246       0.030745552  
     95800   0.5939285     -3.4823209      0             -3.0562418     -0.028479923  
     95850   0.59763799    -3.4895656      0             -3.0608253     -0.14096444   
     95900   0.59429496    -3.4942846      0             -3.0679425     -0.013136055  
     95950   0.59472395    -3.495457       0             -3.0688073      0.028418017  
     96000   0.60340694    -3.4943462      0             -3.0614673      0.07063954   
     96050   0.60658699    -3.4896768      0             -3.0545166     -0.031244091  
     96100   0.60472489    -3.4820071      0             -3.0481828      0.059994312  
     96150   0.60175343    -3.472496       0             -3.0408033      0.084226077  
     96200   0.60185613    -3.4671306      0             -3.0353642     -0.021000054  
     96250   0.59191932    -3.4678795      0             -3.0432417      0.099187398  
     96300   0.63277322    -3.4758642      0             -3.0219182      0.017886035  
     96350   0.63551708    -3.4866083      0             -3.0306938     -0.0011120616 
     96400   0.625838      -3.4917929      0             -3.0428221     -0.052051234  
     96450   0.62053092    -3.4910013      0             -3.0458378      0.018699474  
     96500   0.60408576    -3.4851331      0             -3.0517672      0.12398304   
     96550   0.5963867     -3.4739594      0             -3.0461168     -0.078437364  
     96600   0.57899408    -3.4636838      0             -3.0483185     -0.015974564  
     96650   0.56519821    -3.4596825      0             -3.0542142      0.044816889  
     96700   0.56757905    -3.4669719      0             -3.0597956     -0.032008481  
     96750   0.5686231     -3.476759       0             -3.0688337      0.10481797   
     96800   0.58108055    -3.4870615      0             -3.0701994      0.038912882  
     96850   0.60275625    -3.4936381      0             -3.061226       0.047907295  
     96900   0.61194344    -3.4975618      0             -3.0585589      0.016352616  
     96950   0.63879165    -3.4975129      0             -3.0392493     -0.02625574   
     97000   0.62707158    -3.4928926      0             -3.0430369      0.026926266  
     97050   0.6214128     -3.4842285      0             -3.0384324      0.054546302  
     97100   0.601664      -3.4706717      0             -3.0390432      0.0064393572 
     97150   0.58205588    -3.4547598      0             -3.037198       0.099219977  
     97200   0.56193388    -3.4439071      0             -3.0407806     -0.09389225   
     97250   0.57421044    -3.4474656      0             -3.035532      -0.039234665  
     97300   0.61638932    -3.4609852      0             -3.0187928     -0.045201107  
     97350   0.63000598    -3.4768633      0             -3.0249025     -0.025248553  
     97400   0.63226882    -3.4912333      0             -3.0376492     -0.073275463  
     97450   0.67468406    -3.4999804      0             -3.0159679      0.041710746  
     97500   0.6722324     -3.5041706      0             -3.0219169     -0.064776197  
     97550   0.67236057    -3.50331        0             -3.0209644     -0.047446074  
     97600   0.66875914    -3.4979272      0             -3.0181652     -0.030335482  
     97650   0.6748757     -3.4860472      0             -3.0018973     -0.056939864  
     97700   0.63352565    -3.4688987      0             -3.0144129     -0.060242262  
     97750   0.59949692    -3.4526149      0             -3.022541      -0.040698345  
     97800   0.59785529    -3.4486823      0             -3.0197861      0.010380104  
     97850   0.62132581    -3.4608323      0             -3.0150986      0.051400081  
     97900   0.62310584    -3.479955       0             -3.0329443      0.089779346  
     97950   0.64391014    -3.4936869      0             -3.0317513     -0.019737513  
     98000   0.64241447    -3.5002646      0             -3.0394021      0.0059531809 
     98050   0.65944202    -3.5003105      0             -3.0272325      0.055564217  
     98100   0.64209135    -3.495961       0             -3.0353303     -0.0039164543 
     98150   0.64294395    -3.4861389      0             -3.0248965     -0.034397417  
     98200   0.62787342    -3.472357       0             -3.021926       0.0047214412 
     98250   0.60399474    -3.4606234      0             -3.0273228      0.13679688   
     98300   0.5978077     -3.4585698      0             -3.0297077     -0.029166559  
     98350   0.59320878    -3.4668144      0             -3.0412515      0.031937591  
     98400   0.6174333     -3.4794945      0             -3.0365532      0.080897674  
     98450   0.63129557    -3.4890718      0             -3.0361859      0.0018671353 
     98500   0.64101912    -3.494615       0             -3.0347535     -0.044741402  
     98550   0.6267482     -3.4954338      0             -3.0458101     -0.13864672   
     98600   0.62548732    -3.4918032      0             -3.043084      -0.061962354  
     98650   0.59455852    -3.4838747      0             -3.0573436     -0.011726251  
     98700   0.57639693    -3.4727767      0             -3.0592746      0.088297566  
     98750   0.55613019    -3.4635805      0             -3.0646176     -0.0027485234 
     98800   0.55063424    -3.4615124      0             -3.0664922      0.043894686  
     98850   0.5625998     -3.4687908      0             -3.0651866     -0.014236452  
     98900   0.57720167    -3.4787078      0             -3.0646283     -0.072488757  
     98950   0.57624214    -3.4887575      0             -3.0753664      0.058887019  
     99000   0.57690772    -3.4950353      0             -3.0811667      0.098406202  
     99050   0.58165194    -3.4975503      0             -3.0802782     -0.0050915326 
     99100   0.58952435    -3.4953376      0             -3.0724179     -0.051691731  
     99150   0.57149441    -3.4888248      0             -3.0788397     -0.0042960533 
     99200   0.54707439    -3.4786306      0             -3.0861642      0.036947134  
     99250   0.52603494    -3.4680249      0             -3.090652       0.040544246  
     99300   0.49663563    -3.4630441      0             -3.106762      -0.047390828  
     99350   0.5054456     -3.4675981      0             -3.1049958     -0.062833227  
     99400   0.50703848    -3.4779606      0             -3.1142156      0.056022159  
     99450   0.52127615    -3.4887652      0             -3.1148062      0.0036856669 
     99500   0.52434697    -3.497276       0             -3.1211141      0.096363011  
     99550   0.52558436    -3.5023274      0             -3.1252778      0.052914501  
     99600   0.51773392    -3.5035277      0             -3.1321099      0.0027867161 
     99650   0.5139914     -3.5032121      0             -3.1344792      0.083609894  
     99700   0.50154385    -3.4982641      0             -3.1384609      0.041890808  
     99750   0.49624024    -3.4909916      0             -3.1349932      0.12786436   
     99800   0.47614099    -3.4812439      0             -3.1396645      0.059091173  
     99850   0.45638603    -3.4711977      0             -3.1437903     -0.056408435  
     99900   0.44296379    -3.4644214      0             -3.146643      -0.011733584  
     99950   0.43101902    -3.4662557      0             -3.1570464     -0.050722582  
    100000   0.44616476    -3.4736862      0             -3.1536115     -0.019019589  
    100001   0.44573465    -3.4737792      0             -3.1540131     -0.095043717  
Loop time of 1.47241 on 1 procs for 100000 steps with 23 atoms

Performance: 5867914.866 tau/day, 67915.681 timesteps/s, 1.562 Matom-step/s
53.1% CPU use with 1 MPI tasks x 1 OpenMP threads

MPI task timing breakdown:
Section |  min time  |  avg time  |  max time  |%varavg| %total
---------------------------------------------------------------
Pair    | 0.10223    | 0.10223    | 0.10223    |   0.0 |  6.94
Bond    | 0.008737   | 0.008737   | 0.008737   |   0.0 |  0.59
Neigh   | 0.018837   | 0.018837   | 0.018837   |   0.0 |  1.28
Comm    | 0.057673   | 0.057673   | 0.057673   |   0.0 |  3.92
Output  | 0.69166    | 0.69166    | 0.69166    |   0.0 | 46.97
Modify  | 0.51193    | 0.51193    | 0.51193    |   0.0 | 34.77
Other   |            | 0.08135    |            |       |  5.52

Nlocal:             23 ave          23 max          23 min
Histogram: 1 0 0 0 0 0 0 0 0 0
Nghost:             75 ave          75 max          75 min
Histogram: 1 0 0 0 0 0 0 0 0 0
Neighs:              0 ave           0 max           0 min
Histogram: 1 0 0 0 0 0 0 0 0 0

Total # of neighbors = 0
Ave neighs/atom = 0
Ave special neighs/atom = 2.4347826
Neighbor list builds = 1025
Dangerous builds = 0
Total wall time: 0:00:01
