LAMMPS data file via write_data, version 19 Nov 2024, timestep = 900000, units = lj

688 atoms
4 atom types
492 bonds
1 bond types
446 angles
2 angle types

-4.496439 4.496439 xlo xhi
-4.496439 4.496439 ylo yhi
-4.496439 4.496439 zlo zhi

Masses

1 1
2 1
3 0.1
4 0.1

Bond Coeffs # harmonic/omp

1 100 0.45

Angle Coeffs # harmonic/omp

1 100 180
2 100 109.471

Atoms # full

474 125 4 0 -3.647357040501449 -4.1100570291939125 -3.931560727370137 0 0 1
513 138 4 0 -3.326239994871566 -4.19353951644666 -3.6672846973686912 0 0 0
473 125 2 0 -4.087981146055617 -4.1780572795897335 -3.9896298040042213 0 0 1
512 138 2 0 -3.329966954309494 -4.183281891131415 -3.2115836895743732 0 0 0
292 64 4 0 -0.6962597940821964 -1.9564638119296158 -4.426637641017277 0 0 0
666 189 4 0 -1.9807269806304357 -3.4240669849431282 -3.9132627786209664 0 0 1
665 189 2 0 -1.8849460640024214 -3.3835448422074808 -3.4717899276060518 0 0 1
286 62 4 0 -1.9011415972406411 -3.262477827846192 -4.2744079487190065 0 0 1
667 189 4 0 -1.7977266618534378 -3.3510024607812867 -3.0304603651754465 0 0 1
574 158 4 0 -3.263691578339102 -1.6557621648161684 -3.1852443566890485 0 0 0
259 53 4 0 -0.5072277273826821 -0.24644884658774044 -4.385936685337194 0 -1 0
90 18 3 0 -2.3884749115754187 -4.312898394408758 -0.9511719699361003 0 1 0
43 9 3 0 -1.3191175895231562 -0.07904429806079014 -3.23593811511582 0 -1 1
172 35 3 0 -0.34622159324110824 -2.01677951373612 -4.236669115985467 1 0 0
171 35 1 0 -0.05699673617824447 -1.6686525783410986 -4.19712386581671 1 0 0
290 64 2 0 -1.1402066070865966 -1.8924736987255881 -4.41810639907998 0 0 0
124 25 3 0 -1.0893575613813498 -0.8892915196083631 -1.3776667831556122 0 0 1
27 6 3 0 -0.3185208573074024 -2.0093068551621887 -2.8162693471173736 0 0 0
532 144 4 0 -0.4197619055537343 -1.708716449441364 -3.0696493520350776 1 0 0
572 158 2 0 -3.448901346053066 -1.4043546949162684 -3.505043480032677 0 0 0
573 158 4 0 -3.627169638001776 -1.150640247650015 -3.826440387043002 0 0 0
529 143 4 0 -3.581340376377005 -0.7555151086033292 -3.9503395437529063 0 0 1
527 143 2 0 -3.8994869310737914 -0.46190449490323604 -4.0637247586338985 0 0 1
528 143 4 0 -4.237143373433515 -0.16472266723361315 -4.18419560758274 0 0 1
263 55 2 0 -2.1485474481305733 -1.5022337750495725 -4.284301742151315 0 0 0
264 55 4 0 -2.5631110526815144 -1.5703302870698637 -4.197708337431953 0 0 0
125 25 3 0 -0.36411386003892815 -0.6514196413518706 -1.32677100949945 0 0 1
45 9 3 0 -1.141892225111808 -0.5382028504092969 -3.7904553112294153 0 -1 1
44 9 3 0 -1.1344712620770572 -0.7368829118715724 -3.0971418987605874 0 -1 1
174 35 3 0 -0.3015548626567959 -1.275895453960763 -4.211337583980735 1 0 0
258 53 4 0 -0.5561111587546732 -1.0556839765117205 -3.984103236466088 0 -1 0
257 53 2 0 -0.5337041724251989 -0.6467338678037013 -4.185857834154141 0 -1 0
41 9 1 0 -1.3406409224420857 -0.4925332377909124 -3.3559718716488818 0 -1 1
530 144 2 0 -0.7701448529516215 -1.4095969217107713 -3.051894359993084 1 0 0
658 186 4 0 -4.3128483388088235 -3.1246053857719898 -3.044201151207929 1 1 1
514 138 4 0 -3.332796557438773 -4.187379981210335 -2.7596178942673295 0 0 0
57 12 3 0 -3.628664732290511 -4.438022641372711 -2.6307234747312402 0 0 0
88 18 3 0 -2.1212136822150485 -4.419791724155505 -1.644705131405226 0 1 0
5 1 3 0 -2.5671951131877857 -2.9198683687549916 -1.6462416924657204 0 0 0
283 61 4 0 -1.8684965663667064 -4.228586841836019 -1.9289016849758958 0 0 0
281 61 2 0 -1.915440978803084 -3.8822380516186703 -2.2149727856171793 0 0 0
282 61 4 0 -1.9562520067364815 -3.4966227678079678 -2.51434057171408 0 0 0
1 1 1 0 -2.796416129039027 -2.5277491993785115 -1.6458750862955134 0 0 0
3 1 3 0 -3.096824578505955 -2.52671527964891 -2.0010054349716033 0 0 0
541 147 4 0 -3.289772551568129 -2.1877576795202174 -2.1051416635613163 0 0 0
539 147 2 0 -3.310422360354332 -1.8928826269168242 -2.4421143193319024 0 0 0
540 147 4 0 -3.33482068592446 -1.604833663254699 -2.7831351885920395 0 0 0
484 128 4 0 -1.6058375313123014 -3.3891246936528083 -2.668579581650757 0 0 -1
4 1 3 0 -2.518639856351558 -2.2146061627703046 -1.6825404169520828 0 0 0
29 6 3 0 -0.08110339718995327 -2.701342920145159 -2.4978048851882346 0 0 0
482 128 2 0 -1.3007641993723285 -3.0053213137678045 -2.5926349171795082 0 0 -1
483 128 4 0 -1.037760030940055 -2.6702028439189136 -2.526252403095613 0 0 -1
30 6 3 0 -0.22782274597407376 -2.0285823730433896 -2.0717289476653593 0 0 0
28 6 3 0 -0.7748620027808937 -2.3837782202245448 -2.406720891595512 0 0 0
26 6 1 0 -0.3641810323886201 -2.275897743713032 -2.4535622650567204 0 0 0
295 65 4 0 -4.159677118758204 -0.11510793172516874 -2.603493271218262 0 0 0
293 65 2 0 -4.130971637093492 -0.5647648751338497 -2.6216005491727663 0 0 0
294 65 4 0 -4.106133810434212 -1.0050267772512813 -2.636007563506193 0 0 0
601 167 4 0 -2.2174436627137406 -0.11832788351187472 -2.0445831387262885 1 0 0
599 167 2 0 -2.23436706566326 -0.4278351709204908 -1.7164386941759724 1 0 0
42 9 3 0 -1.7804831893464286 -0.625286547458936 -3.3753294135664977 0 -1 1
531 144 4 0 -1.1216868764602708 -1.1156142246673921 -3.0392856896000655 1 0 0
661 187 4 0 -0.12116793982482607 -0.7536983953445299 -1.6314555926797556 0 0 0
685 195 4 0 -3.388065244848503 -4.2451125844117135 -1.5397749924185669 1 0 0
683 195 2 0 -3.546631428598511 -4.0492470673479755 -1.1290998015059948 1 0 0
246 50 1 0 -4.228614169076726 -3.5468398495746296 -0.1717103352920207 0 1 0
684 195 4 0 -3.693942151091497 -3.843016139473736 -0.717222339668596 1 0 0
250 50 3 0 -4.0119249951316664 -3.66525826466448 -0.5553485755327591 0 1 0
249 50 3 0 -4.2633898179718885 -3.0824708843159105 -0.1475140340827313 0 1 0
185 37 3 0 -1.2603129507223318 -4.137860398879809 -0.7749853496928277 0 0 0
181 37 1 0 -0.9558673723728649 -3.95406410524194 -0.4889959402512036 0 0 0
184 37 3 0 -0.9451380613783336 -3.500054936920681 -0.5517391239893372 0 0 0
2 1 3 0 -3.0259556914411188 -2.486315421612571 -1.2624259301391954 0 0 0
471 124 4 0 -3.3745627869809485 -2.640285306171573 -1.1473947461227432 1 0 0
470 124 2 0 -3.6331987295525865 -2.3749516500635126 -0.9024181484521833 1 0 0
472 124 4 0 -3.892392019701606 -2.1103118294111436 -0.6594441368643239 1 0 0
209 42 3 0 -3.779305378844761 -1.8068273714612817 -0.3712342898797615 1 1 0
626 176 2 0 -0.6157111195798168 -1.74054210764275 -0.6001962316432631 1 0 0
628 176 4 0 -0.7773476537544539 -2.1212511667135985 -0.40141374909448935 1 0 0
229 46 3 0 -0.5406684238318886 -2.3134362077059656 -0.14330597724820504 1 1 0
207 42 3 0 -3.202713087363565 -1.447734365668728 -0.1746854314913014 1 1 0
206 42 1 0 -3.610819006222871 -1.411937541976197 -0.3248049166064101 1 1 0
208 42 3 0 -3.6052074234277827 -1.205840454356063 -0.732643075946937 1 1 0
210 42 3 0 -3.8511417087391653 -1.170238270791106 -0.05450086979529657 1 1 0
331 77 4 0 -3.216708078192659 -1.1661192007419363 -0.8211790765199596 -1 -1 1
627 176 4 0 -0.4534630559486393 -1.3503986667407741 -0.8034343660937677 1 0 0
329 77 2 0 -2.8191076854986474 -1.1421681691655563 -1.1083253072182981 -1 -1 1
600 167 4 0 -2.243730485150019 -0.7519810783159181 -1.3837270756202324 1 0 0
330 77 4 0 -2.449505021629114 -1.11481697845915 -1.3731643342411064 -1 -1 1
123 25 3 0 -0.7075498354045995 -1.0442524497168408 -0.8000795039279521 0 0 1
121 25 1 0 -0.7757213976657698 -0.7484710073492906 -1.0960213375600576 0 0 1
122 25 3 0 -0.9170061613297884 -0.3838010797085791 -0.8960494206276263 0 0 1
182 37 3 0 -0.5526493666166734 -4.119969361050868 -0.5692484440570597 0 0 0
358 86 4 0 -2.108962996283182 -0.20092557889275325 -2.4215379415250973 0 1 0
60 12 3 0 -3.458786991052039 -4.439270640233726 -1.881667839876637 0 0 0
183 37 3 0 -1.0724579398837206 -4.044052978745378 -0.06517090942272914 0 0 0
291 64 4 0 -1.5659877200915995 -1.8298159874493116 -4.421175752973591 0 0 0
354 85 4 0 -4.438491046280682 -2.7304063021212404 -0.046456089108527936 0 1 0
265 55 4 0 -1.725025658341915 -1.4298633238015321 -4.391986998812161 0 0 0
247 50 3 0 -3.980113794815512 -3.7045077447686072 0.20035152299930623 0 1 0
554 152 2 0 -0.7543746469905936 -3.987745258460211 0.7408980082800621 0 0 0
556 152 4 0 -0.8774587473024075 -4.006525980202667 0.29930764749701594 0 0 0
555 152 4 0 -0.6408966231411487 -3.9823390654127695 1.1778563697481947 0 0 0
139 28 3 0 -0.9634294639688809 -3.9675689066322164 1.4076520897404767 1 0 0
591 164 4 0 -4.418810909721291 -2.6988435740574666 1.3409871007498544 1 1 0
309 70 4 0 -2.147081999144997 -2.593818152164297 0.9459981850439274 0 0 0
308 70 2 0 -1.7960024591158728 -2.521879774980824 0.671284956122785 0 0 0
226 46 1 0 -0.6390318644281017 -2.4096247205919723 0.2943741455600146 1 1 0
230 46 3 0 -1.0583404270821322 -2.3706619234574315 0.353278567590144 1 1 0
310 70 4 0 -1.4453718160475282 -2.443223014503474 0.4027808596580876 0 0 0
227 46 3 0 -0.5135891250226624 -2.8355398926801163 0.3834455294978577 1 1 0
228 46 3 0 -0.41952942279611605 -2.1163316407685877 0.5648613442891506 1 1 0
273 58 4 0 -0.04298173050560913 -2.0108092736160437 0.48489128965887524 0 -1 0
31 7 1 0 -3.205030814382337 -0.05329426614340636 0.15329953293268195 1 0 0
312 71 4 0 -3.0742869915354976 -0.8575890092737523 0.1931316847582538 0 0 0
118 24 3 0 -4.160722894444756 -0.16512802922316558 0.625696575547754 -1 1 0
33 7 3 0 -3.0874014813409247 -0.4755099681161031 0.2700299638385219 1 0 0
116 24 1 0 -4.30019289157259 -0.6013376438090676 0.6341906584705086 -1 1 0
117 24 3 0 -3.9236787510173654 -0.8806811708392154 0.5769181031257168 -1 1 0
313 71 4 0 -2.3899537134908 -1.3849924713207833 0.41630775754702853 0 0 0
311 71 2 0 -2.743996567566151 -1.101820074802763 0.29316068132811185 0 0 0
425 109 2 0 -4.347333797356911 -3.8533293884443958 1.8074317907003234 0 1 0
427 109 4 0 -4.0732159789133835 -3.8424322809756886 2.166999702224318 0 1 0
138 28 3 0 -1.4358951106686348 -3.9250668021917026 1.9663466681283066 1 0 0
137 28 3 0 -0.7450308933038268 -3.650533013112248 2.0578076537613526 1 0 0
140 28 3 0 -0.8748060916962718 -4.378765764001003 2.002432257829175 1 0 0
136 28 1 0 -1.00860237254128 -3.9886493733944626 1.8575659194471847 1 0 0
567 156 4 0 -1.2287666334215062 -3.153054365131997 2.3506125783836307 0 0 1
568 156 4 0 -2.013377790603826 -2.791682327760971 2.215786083630207 0 0 1
566 156 2 0 -1.612264201727755 -2.9786249973150594 2.2871567114538776 0 0 1
447 116 4 0 -1.5215457264522751 -1.574561465509382 3.008591770633872 -1 1 0
189 38 3 0 -0.9161644698940579 -3.0961777430877033 2.54519397376838 0 0 0
188 38 3 0 -0.19172800899531653 -2.943514857664159 2.4341008680063334 0 0 0
186 38 1 0 -0.5589780625575537 -2.8842854514674166 2.723273486608442 0 0 0
190 38 3 0 -0.6434485680752082 -2.4339740987938 2.7774312335062836 0 0 0
446 116 2 0 -1.244032595288995 -1.89531718784412 2.8736105017723403 -1 1 0
448 116 4 0 -0.9771220695344118 -2.213421862574885 2.7464239965876653 -1 1 0
526 142 4 0 -3.5760096708868994 -0.17298300791993468 2.0070036585697357 1 -1 0
414 105 4 0 -3.658059386961196 -1.1642357792169764 2.472378091047733 0 0 1
525 142 4 0 -3.4441254688962313 -1.0360161991211476 2.1627002030629914 1 -1 0
524 142 2 0 -3.5089861979943526 -0.5999002618304787 2.0909581833159563 1 -1 0
413 105 2 0 -3.494901512792046 -1.342853193928661 2.89679819721169 0 0 1
78 16 3 0 -1.5895084248174127 -1.2004319728273445 2.9217485246962287 0 0 0
35 7 3 0 -3.635869821656458 -0.034042437411409485 0.08829315582384924 1 0 0
606 169 4 0 -4.144833408710472 -3.4864669095237732 3.205279468228205 1 0 0
379 93 4 0 -4.014468554176258 -3.1199738514542497 3.114696914906882 1 0 -1
605 169 2 0 -4.285904833444956 -3.715292345425164 3.5506524963853185 1 0 0
284 62 2 0 -1.7386456904622822 -3.4650262914001972 4.334325596103521 0 0 0
285 62 4 0 -1.6032361319615578 -3.6296276306527897 3.989826062576269 0 0 0
187 38 3 0 -0.46883770588650586 -3.0690066122902797 3.136846508304324 0 0 0
688 196 4 0 -0.7540723778590245 -3.3685812087374036 3.1588222346430115 0 1 0
686 196 2 0 -1.0107102980260796 -3.5369806046101293 3.4890281439467836 0 1 0
687 196 4 0 -1.2457521643660514 -3.704984679413075 3.810354691162084 0 1 0
344 82 2 0 -2.9662273658343454 -2.7096795247650696 4.3781044714422945 0 0 -1
377 93 2 0 -4.065583207697296 -2.6674346895068295 3.242398962407543 1 0 -1
378 93 4 0 -4.1063691697378815 -2.2275660094604457 3.3625746719711356 1 0 -1
346 82 4 0 -3.2876675612951667 -2.370558187777512 4.377244095275282 0 0 -1
143 29 3 0 -4.102817616525463 -2.045619656140298 3.737312796026058 1 0 0
141 29 1 0 -3.7711449341914904 -1.8417036449410875 3.94157417703523 1 0 0
144 29 3 0 -3.4986335132350237 -2.136964879671647 4.133766716862077 1 0 0
142 29 3 0 -3.536791086615443 -1.611604564142472 3.6412051545689956 1 0 0
607 169 4 0 -4.426479975727472 -3.967152809148889 3.915594433623209 1 0 0
77 16 3 0 -1.302184010602234 -0.5693666675261281 3.219343718445723 0 0 0
145 29 3 0 -3.9354592802305866 -1.555422302740082 4.247114939860473 1 0 0
415 105 4 0 -3.346119669629897 -1.5014968588602107 3.2870340567869807 0 0 1
449 117 2 0 -3.38971582877465 -0.33218333308896447 3.4220745355937074 0 0 0
450 117 4 0 -3.0311353294188823 -0.22401730682806356 3.6791354790634228 0 0 0
451 117 4 0 -3.7468372887785786 -0.4496226959695094 3.1531139932198196 0 0 0
80 16 3 0 -1.9207309237261982 -0.5196685611059938 2.8501593426862115 0 0 0
79 16 3 0 -1.9099986851180846 -0.8346081856109661 3.5007042232978027 0 0 0
76 16 1 0 -1.6848884099145522 -0.7704526089852103 3.125912393169218 0 0 0
111 23 1 0 -0.03325976811549665 -0.2544345640361761 3.8719167859035055 0 0 0
115 23 3 0 -0.18998700040410568 -0.6013554362543689 3.630709753981705 0 0 0
112 23 3 0 -0.26562815951701735 -0.2261275809823963 4.286748174901134 0 0 0
345 82 4 0 -2.636266572027274 -3.055963710948539 4.372716963784524 0 0 -1
357 86 4 0 -2.411397714767523 0.2679541572652774 -3.104302992175282 0 1 0
109 22 3 0 -0.6228882841980049 0.8300364567473105 -4.111313974641619 0 0 2
106 22 1 0 -0.30286194273405653 1.1173913793594217 -4.069617324155052 0 0 2
24 5 3 0 -4.121237438979824 1.1541489852659925 -1.5970984911857566 0 0 -1
107 22 3 0 -0.1865732241044964 1.1491451406952211 -3.6252948000694203 0 0 2
480 127 4 0 -1.3350785831965226 3.1504300644458554 -0.6837684421294216 1 0 0
110 22 3 0 -0.43490404170433467 1.5246341123368958 -4.217007370479891 0 0 2
316 72 4 0 -0.5943267637861759 1.8842574058519819 -4.133309508799559 0 -1 1
314 72 2 0 -0.7811993138909662 2.218897084020274 -3.9114276592144526 0 -1 1
315 72 4 0 -0.965706924418674 2.56615492827455 -3.671590617275238 0 -1 1
92 19 3 0 -1.0797696748645351 2.8772718967473674 -3.4260545187399303 1 0 0
677 193 2 0 -4.094745198844336 3.1429864658806266 -4.193446154522392 1 0 1
678 193 4 0 -3.793568308695576 3.0102854103662504 -4.486244995177966 1 0 1
431 111 2 0 -2.110708609279886 3.0637844398581104 -4.208344705924293 0 0 1
432 111 4 0 -1.827819860761396 2.982813137875047 -3.8713646977419827 0 0 1
94 19 3 0 -1.8063592263868895 2.769223129947031 -3.5226711111743443 1 0 0
91 19 1 0 -1.4836831933840822 2.8422115124688405 -3.212129355000778 1 0 0
407 103 2 0 -0.7179052209139977 4.040733688783968 -3.7022915965301855 1 0 1
55 11 3 0 -0.07681338050044358 4.319778917951703 -3.364938708610518 0 -1 0
408 103 4 0 -0.340578204017068 4.241233684116943 -3.6566428484061597 1 0 1
409 103 4 0 -1.1237026562194128 3.8289699115477274 -3.7577264457318345 1 0 1
93 19 3 0 -1.5710742200982233 3.240900920867995 -2.9791230305537133 1 0 0
197 40 3 0 -4.049672128784655 0.26142268844196986 -2.601236015802324 1 0 1
200 40 3 0 -4.2431000529526655 0.925183160823728 -2.4687623531661833 1 0 1
196 40 1 0 -4.15757938234431 0.5273639338823066 -2.299054158479397 1 0 1
199 40 3 0 -3.815518213928489 0.5585255420876226 -1.9799818716508577 1 0 1
602 168 2 0 -2.9705504020096813 1.192648656159173 -1.5391784111157265 1 0 0
604 168 4 0 -3.1512439636620373 1.589850399136009 -1.492167566749046 1 0 0
25 5 3 0 -4.159584492376294 1.6958681342929491 -1.1072931315011452 0 0 -1
21 5 1 0 -4.367891905737993 1.500661198735323 -1.4419256729055496 0 0 -1
624 175 4 0 -2.800004555735649 0.024074803455530477 -0.5765665867676739 0 0 1
86 18 1 0 -2.173899460646503 4.384562427721869 -1.2423595543660653 0 0 0
356 86 2 0 -2.263715651130044 0.04387539714092778 -2.7653723749646457 0 1 0
235 47 3 0 -0.5948915093144048 0.6905421596807005 -1.7792829933727101 1 0 0
234 47 3 0 -1.0859023311099703 0.16702057627024375 -1.8505415162125993 1 0 0
231 47 1 0 -0.9394460860822093 0.48781126170504663 -1.5913579649640384 1 0 0
503 135 2 0 -2.9813427950450424 2.250781557215044 -1.4035453041405852 0 0 0
505 135 4 0 -3.038181995796448 2.6726113239408815 -1.532992845217704 0 0 0
504 135 4 0 -2.927510953917811 1.834661859470212 -1.27250787090504 0 0 0
392 98 2 0 -1.807667016653226 2.0326082074839555 -1.535142155114351 0 1 0
95 19 3 0 -1.4656609012143227 2.4894347893573276 -2.904898422872738 1 0 0
394 98 4 0 -1.4596003809976266 1.9237070932250284 -1.8054592733128758 0 1 0
83 17 3 0 -0.5460332755331313 2.0285046409780643 -1.8557612073213239 0 0 0
81 17 1 0 -0.1541629806292907 1.8748925339654516 -1.74000657884916 0 0 0
301 67 4 0 -4.193835237761472 2.841374863223862 -2.9498860057301832 0 0 1
406 102 4 0 -3.187590244407079 2.746147001138526 -1.8921200669367628 0 0 1
58 12 3 0 -4.045270422459961 4.143666332872156 -2.1430528109797065 0 -1 0
404 102 2 0 -3.226265135341953 3.14738670144364 -2.0322143431226807 0 0 1
559 153 4 0 -4.328321794617506 3.866800880226207 -2.085325195305875 1 0 1
59 12 3 0 -3.346009581078665 3.9469554243143805 -2.3092541184553736 0 -1 0
405 102 4 0 -3.2671114419823875 3.552766511866241 -2.183928051742031 0 0 1
56 12 1 0 -3.6185095221455565 4.297512016890916 -2.2395612597583314 0 -1 0
22 5 3 0 -4.408042313552973 1.8026297232833446 -1.7774933954115668 0 0 -1
89 18 3 0 -2.4313852968451632 4.008101676005786 -1.2842975319705305 0 0 0
603 168 4 0 -2.7738213826233995 0.7810962106779623 -1.5858779220691215 1 0 0
481 127 4 0 -1.5320499015882891 3.9284859356688666 -1.0653869406695622 1 0 0
623 175 2 0 -2.7864488697032157 0.234920488589103 -0.9770332894023702 0 0 1
625 175 4 0 -2.765565381024617 0.4395618795931646 -1.3560590921084252 0 0 1
233 47 3 0 -0.8033280886111694 0.3179512733752891 -1.1805354384394469 1 0 0
232 47 3 0 -1.271939429602942 0.7906025409591387 -1.5270580963301092 1 0 0
347 83 2 0 -0.2280516783607783 0.32332223302349533 -0.5331498397456805 0 0 0
349 83 4 0 -0.5458602881766679 0.2584112182072119 -0.8708173750096312 0 0 0
85 17 3 0 -0.19806741955808543 1.526097907992084 -1.4532219537154218 0 0 0
32 7 3 0 -2.9732670642044456 0.06172278281015327 -0.2282125794977282 1 0 0
393 98 4 0 -2.146675250545108 2.1295430631763623 -1.274345372931921 0 1 0
422 108 2 0 -1.2576644956489849 2.5410227997558517 -0.2535342874117111 0 -1 1
423 108 4 0 -1.339412804872664 2.969465049448595 -0.3158571771406963 0 -1 1
424 108 4 0 -1.1620808843964159 2.0931213098547867 -0.20103110369263022 0 -1 1
87 18 3 0 -1.7635710111448015 4.2662637756195325 -1.0715220631879168 0 0 0
479 127 2 0 -1.4361932082213857 3.5399030079981375 -0.8799251317648396 1 0 0
679 193 4 0 -4.417849694061914 3.294157280501614 -3.8769936612432105 1 0 1
496 132 4 0 -0.10919686445109544 1.4982311395714931 -3.4180824244942163 -1 -1 0
322 74 4 0 -3.98896234250365 0.6789592603354248 1.542189784123677 1 0 1
320 74 2 0 -4.096739517622815 0.38644307932255195 1.2677818128643683 1 0 1
50 10 3 0 -0.07094892702809219 3.3508917512364422 3.1120171434121278 0 -1 0
113 23 3 0 -0.09419949825986589 0.13105513255304133 3.628181275494349 0 0 0
587 163 2 0 -2.431559738898989 0.6960490306554159 0.5922612226589473 0 0 -1
588 163 4 0 -2.7084078216110097 0.35655388719076064 0.5547066533221384 0 0 -1
34 7 3 0 -3.0804421113188187 0.2306369680449946 0.4914848069202284 1 0 0
589 163 4 0 -2.1452142454863763 1.0439741200737436 0.6215422707685431 0 0 -1
391 97 4 0 -1.066119858015323 1.0911071049695342 1.022190868996846 0 0 -1
444 115 4 0 -1.075761255443557 1.202873911092259 0.6415644811758412 0 0 0
389 97 2 0 -0.8225180666618616 1.2032610395260899 1.3849625407181472 0 0 -1
564 155 4 0 -3.2524733870340077 2.1447903708751275 0.9807007151392254 0 -1 1
563 155 2 0 -3.5182096715063755 1.930666488308089 0.7388267617166642 0 -1 1
565 155 4 0 -3.8051230781069263 1.7199041333433127 0.48714089643841607 0 -1 1
546 149 4 0 -4.111747517278573 1.5104460714937586 0.6099486225561682 1 -1 1
11 3 1 0 -3.9433411011159616 2.8713544312695602 1.1733924819884174 0 0 -1
12 3 3 0 -3.507174996069613 2.782356054812534 1.1622848883646166 0 0 -1
13 3 3 0 -4.18908092679902 2.5383143969911126 0.9577429656401011 0 0 -1
579 160 4 0 -2.6996317882706458 2.9498684003206948 0.258189186528156 1 0 0
578 160 2 0 -3.00535211415059 3.024161458421236 0.5841883734642312 1 0 0
443 115 2 0 -1.2073523303538287 1.5105164465506093 0.3140312967610163 0 0 0
457 119 4 0 -4.103854071359559 3.639372312112141 0.8549060881998106 0 -1 0
580 160 4 0 -3.3191476280909775 3.0895815088932985 0.9163080309488507 1 0 0
14 3 3 0 -4.061069089457943 2.8971784827162557 1.591806774031521 0 0 -1
455 119 2 0 -4.3149613647321665 4.059436734312852 0.8136132436784236 0 -1 0
332 78 2 0 -0.6210938779856299 3.1549428911947137 3.5466141443709716 -1 0 0
15 3 3 0 -4.017165688150684 3.2649131674958456 0.9774413124545004 0 0 -1
269 57 2 0 -3.679711091574134 1.3027763398251921 2.2388037717424987 0 0 0
271 57 4 0 -3.7513346116593205 1.4933077778643018 2.6483562569312 0 0 0
270 57 4 0 -3.6050922854902177 1.1472620370489879 1.8485366834486832 0 0 0
261 54 4 0 -1.9984997512758804 1.0205813214070238 2.064690397540388 0 0 -1
260 54 2 0 -2.129051979779581 0.6059897956036533 2.1290673778453786 0 0 -1
262 54 4 0 -2.269244860189906 0.2076090911819027 2.1969161852656103 0 0 -1
673 191 4 0 -2.01098047830944 1.3518839782155516 1.851950092043481 1 0 1
390 97 4 0 -0.5864280188187418 1.318825436446946 1.7427739731376386 0 0 -1
523 141 4 0 -0.2223288717098666 1.1907108329089926 1.8833477854812541 0 0 0
672 191 4 0 -1.488576037360592 1.9810802126892402 2.2230723859373582 1 0 1
671 191 2 0 -1.7599059935088581 1.662113870168389 2.03178998049938 1 0 1
153 31 3 0 -1.4812463350231917 2.3555275276414367 2.3741565085768483 0 0 1
155 31 3 0 -1.7965980467531606 2.820619409001018 2.848712889618956 0 0 1
151 31 1 0 -1.58773467972391 2.7699187639102196 2.427490644668472 0 0 1
154 31 3 0 -1.2328421344186804 3.0113953810688607 2.4158593857675768 0 0 1
582 161 4 0 -3.791737556707817 3.088760575239864 1.831763885514061 1 0 0
581 161 2 0 -3.8428339093271635 3.2427030825599297 2.245101048934 1 0 0
583 161 4 0 -3.892118532509341 3.4020952989588626 2.6488678332680173 1 0 0
212 43 3 0 -3.9415668387157705 3.2710396700922684 3.037930907814274 1 0 -1
152 31 3 0 -1.8981666638088874 2.9137461740809294 2.0653951584794012 0 0 1
339 80 4 0 -3.7501843292483312 0.886553524855012 3.6724122174043234 0 0 -1
338 80 2 0 -3.891938359843269 1.1063279879577483 3.277202492974945 0 0 -1
340 80 4 0 -4.026014710310145 1.3106327928133548 2.9054537349867293 0 0 -1
398 100 2 0 -2.5171291291629205 0.7618342295059357 3.473121034601385 0 0 0
400 100 4 0 -2.1873023740462427 0.8353342052704495 3.2140604760092373 0 0 0
399 100 4 0 -2.8746178008838053 0.6732049428869588 3.768446494158921 0 0 0
369 90 4 0 -4.175179566792054 1.9962789821468048 4.013823666820004 0 0 -1
370 90 4 0 -4.0746245370451915 2.877747872226847 3.8416765622984115 0 0 -1
368 90 2 0 -4.119735999652725 2.437907603504164 3.921312702903147 0 0 -1
562 154 4 0 -2.9195103947066836 1.8130404545974061 3.19919682871281 1 0 0
577 159 4 0 -3.676498986114995 3.205622556341827 4.185984316919922 0 -1 0
433 111 4 0 -2.3953832273250812 3.137256016299766 4.44925778138977 0 0 0
560 154 2 0 -2.668271064543391 1.9264022231990092 3.643094894593796 1 0 0
561 154 4 0 -2.432563227324081 2.0185227373037518 4.044906516156356 1 0 0
215 43 3 0 -4.363729093919316 2.942798596917736 3.537639576801183 1 0 -1
576 159 4 0 -2.8352488527007296 3.13664159067174 3.973447441545118 0 -1 0
575 159 2 0 -3.2455308130324125 3.168344637359522 4.07244260717956 0 -1 0
211 43 1 0 -4.343618390073848 3.2679123593641917 3.209973894757619 1 0 -1
213 43 3 0 -4.4197134012951995 3.6562133852524985 3.38831924254513 1 0 -1
159 32 3 0 -1.8469732862927684 3.9777830467698125 4.037366878896258 0 0 0
157 32 3 0 -1.8220698116903946 3.8084647381772667 3.3235554407626045 0 0 0
333 78 4 0 -0.23885328319658766 3.0652064418935434 3.345578883326923 -1 0 0
160 32 3 0 -1.4099083685291716 3.3864852110850028 3.8403295165483624 0 0 0
156 32 1 0 -1.591365414839295 3.834919165777788 3.718342154030292 0 0 0
158 32 3 0 -1.2371121088583428 4.123529799901759 3.671199772591334 0 0 0
334 78 4 0 -1.037784887232839 3.2525254065612277 3.7559402547003726 -1 0 0
321 74 4 0 -4.214806742850195 0.06855055935347842 0.9527931075348085 1 0 1
445 115 4 0 -1.3328412793076951 1.7881609484637486 0.007200494361538592 0 0 0
412 104 4 0 0.25947609597175425 -2.891514185310757 -4.160337524812968 -1 1 2
430 110 4 0 0.0701606251490772 -2.640335908893245 -3.9606261314308457 0 0 1
216 44 1 0 2.2967607653875497 -3.3763096274566635 -4.134671006959342 -1 0 1
220 44 3 0 1.8820071758110337 -3.263829230317512 -4.125308489524016 -1 0 1
217 44 3 0 2.3202782224900202 -3.837734689052938 -4.193850128171137 -1 0 1
218 44 3 0 2.509695362569824 -3.2645848634031656 -3.7391369081844066 -1 0 1
69 14 3 0 1.726296445698645 -4.231975387747779 -2.950215300600611 1 1 0
441 114 4 0 2.5924010341680956 -2.989087237762486 -3.458497823770805 0 0 0
544 148 4 0 2.6842418779305013 -3.912576756815042 -2.8943066431233864 0 0 1
223 45 3 0 3.7098551323933346 -0.2843660146894998 -3.966204799748621 0 0 -1
657 186 4 0 4.273784317010434 -3.0779226772493824 -3.8192353853927448 0 1 1
656 186 2 0 4.4711129684632285 -3.1033008501212027 -3.444180339046772 0 1 1
428 110 2 0 0.1906383932976958 -2.7649482867222397 -3.5999768389267586 0 0 1
429 110 4 0 0.31547644747052 -2.889300628313679 -3.2844131417723172 0 0 1
594 165 4 0 1.558100279761812 -2.6198656338451514 -3.5491147548187314 1 0 -1
219 44 3 0 2.4920335968232346 -3.1869731108509196 -4.456718784809408 -1 0 1
243 49 3 0 3.74320742306088 -1.0774197481054564 -0.5201617277739959 0 0 1
440 114 2 0 2.977424831986028 -2.903509071235962 -3.248999831045214 0 0 0
360 87 4 0 4.234507146323578 -1.5112299304759125 -2.8478769966913164 -1 1 1
52 11 3 0 0.4767402064644588 -4.476029029134489 -2.915014627740539 0 0 0
306 69 4 0 1.4615901436387855 -1.3913202198198975 -4.424594171873426 0 0 1
317 73 2 0 2.2641697808845493 -1.4250645422437969 -3.2051206561840395 -1 0 0
318 73 4 0 2.1656792936788882 -1.4434195841244797 -3.661905463756316 -1 0 0
132 27 3 0 2.4281749424823524 -1.3298689553168521 -3.933798119379287 0 0 1
131 27 1 0 2.158860535343931 -1.2180147708262916 -4.27695498593808 0 0 1
135 27 3 0 2.252200943893935 -0.7567002774389054 -4.405595619360898 0 0 1
134 27 3 0 1.72000060459431 -1.2534160826528622 -4.14771723945363 0 0 1
222 45 3 0 4.426796791961688 -0.20714644918357225 -3.955833432607522 0 0 -1
361 87 4 0 3.9980433760168355 -1.0927081796309777 -3.618789300289387 -1 1 1
221 45 1 0 4.0534494726758314 -0.30380697557725833 -3.716248416310832 0 0 -1
359 87 2 0 4.117480681463592 -1.3018857982566072 -3.2323278230973376 -1 1 1
224 45 3 0 4.079859926410477 -0.7131669714333627 -3.536000922887222 0 0 -1
175 35 3 0 0.16508953573305069 -1.6944206220519145 -3.803189586948241 1 0 0
633 178 4 0 1.4477584310299798 -4.027827659041324 -2.7891240748569306 0 0 0
632 178 2 0 1.0076159561607476 -4.088756109080587 -2.747236922234822 0 0 0
634 178 4 0 0.5697997578823749 -4.149228510440842 -2.7100607964171024 0 0 0
68 14 3 0 2.4410608927605466 -4.202415174080263 -2.8150994049803306 1 1 0
66 14 1 0 2.107545282022319 -4.462487964329627 -2.969888909425567 1 1 0
241 49 1 0 3.6956397725924277 -1.265258180006291 -0.12701245789084986 0 0 1
542 148 2 0 3.108201779696477 -4.005079015152933 -2.715228089986054 0 0 1
543 148 4 0 3.5186920895988596 -4.104286704209494 -2.5414214878505734 0 0 1
593 165 2 0 1.4092568710486895 -2.681847418198412 -3.046789932009258 1 0 -1
595 165 4 0 1.2741139055289297 -2.7421050144147414 -2.5888962821206745 1 0 -1
663 188 4 0 1.3517796383246126 -2.4196801624212743 -1.5397316499484837 0 0 1
662 188 2 0 1.2355739026918795 -2.7035692485431877 -1.9187906579960217 0 0 1
664 188 4 0 1.15203124399855 -2.9484699599433393 -2.2541727060555874 0 0 1
403 101 4 0 2.382480878155333 -1.696025160676422 -2.4923667958336417 0 0 0
401 101 2 0 2.114968067846022 -1.8815255092768843 -2.165461124061227 0 0 0
402 101 4 0 1.856169021087629 -2.068283535472632 -1.8337132972254917 0 0 0
442 114 4 0 3.3502349830315756 -2.816444231478235 -3.0463049705078937 0 0 0
489 130 4 0 3.82729083796344 -2.240699667377639 -2.1374692431801705 0 0 0
488 130 2 0 3.763445242111283 -2.541319680793297 -2.5202629471430527 0 0 0
490 130 4 0 3.705545662752525 -2.8213467255307703 -2.874194188839812 0 0 0
267 56 4 0 0.6072805279010414 -0.41355461402591465 -1.921760102809737 0 -1 0
659 187 2 0 0.1953182356023812 -1.0391174830760657 -1.6935135955289597 0 0 0
660 187 4 0 0.5309263568160001 -1.3405245706765638 -1.7683111376618557 0 0 0
475 125 4 0 4.467240650066337 -4.241212307237586 -4.040316429177579 -1 0 1
319 73 4 0 2.3538749470890235 -1.4055440673284583 -2.7556958721267506 -1 0 0
254 52 2 0 2.5241307407987037 -0.2395453987416057 -0.05683243675288333 -1 -1 0
571 157 4 0 2.5030081743429387 -3.4231466903083607 -1.7615652299383018 0 0 1
569 157 2 0 2.724269966099912 -3.649014870695947 -1.4398502496208843 0 0 1
553 151 4 0 1.951180078509198 -4.445067847357984 -0.8063219568944825 0 0 0
244 49 3 0 3.2837043195397433 -1.4089835750730761 -0.07576495126640222 0 0 1
570 157 4 0 2.9446345394264886 -3.8816512481817624 -1.1008048964982637 0 0 1
502 134 4 0 3.274799991477077 -3.752198707357605 -0.8978589658154464 -1 0 0
500 134 2 0 3.699014526344531 -3.718681001263925 -0.6666178595547539 -1 0 0
501 134 4 0 4.076341572547851 -3.683840018182077 -0.45731285431450536 -1 0 0
248 50 3 0 4.357928695127392 -3.7118220571421676 -0.17420141513803836 -1 1 0
476 126 2 0 1.0640917643070473 -1.664840511827926 -1.468326370537555 0 0 0
478 126 4 0 1.3402855531552509 -2.037884638492742 -1.4534923533536057 0 0 0