LAMMPS data file via write_data, version 29 Aug 2024, timestep = 2000001, units = lj

304 atoms
4 atom types
204 bonds
1 bond types

-4.054254 4.054254 xlo xhi
-4.054254 4.054254 ylo yhi
-4.054254 4.054254 zlo zhi

Masses

1 1
2 1
3 0.5
4 0.5

Bond Coeffs # zero

1 0

Atoms # bond

278 92 2 -3.125491622509214 -2.6634297071514608 -2.872292027382098 1 2 0
288 95 4 -3.285578020807178 -2.7512937086351865 -2.029549879200223 1 2 2
52 16 4 -2.628577872966225 -4.047820281237837 -0.38545158860765166 -1 0 0
279 92 4 -3.223432969647386 -2.7101555625246148 -2.3842098755261727 1 2 0
294 97 4 -3.678124475092511 -3.852446274513008 -3.930300555236161 0 1 1
280 92 4 -3.0275502753710426 -2.6167038517783063 -3.3603741792380233 1 2 0
253 83 4 -1.4151271026824352 -0.012651081862860514 -0.17100855960298275 0 0 -2
196 64 4 -0.195911807692081 -0.3216675077321394 -0.9811611800976849 1 1 -1
37 11 4 -0.2295803243980909 -3.002031133714428 -3.127308483321037 0 -1 0
157 51 4 -1.1889261659975259 -3.8205912582287387 -2.5714016148805467 -1 0 -1
155 51 2 -0.8333433060663777 -3.5039306170487787 -2.7240019689121433 -1 0 -1
156 51 4 -0.4777604461352296 -3.1872699758688183 -2.8766023229437403 -1 0 -1
151 49 4 -0.333627435203258 -1.7129916989748248 -2.073429954789327 0 1 0
149 49 2 -0.5863823428016893 -2.0898298082290463 -1.8634109173214295 0 1 0
72 23 4 -2.200671427642126 -0.20912336360639108 -3.38866974397742 1 0 1
201 66 4 -2.4235265697451926 -0.5086407421380226 -3.250752293194024 2 0 -1
200 66 2 -2.692659156795015 -0.5938468249670222 -3.6634356755063524 2 0 -1
71 23 2 -2.0649750309978896 -0.18832177978570985 -2.9078851955066014 1 0 1
212 70 2 -2.3319328640292682 -0.02393483607166999 -1.0716268548316454 0 -2 0
73 23 4 -1.9292786343536532 -0.16752019596502862 -2.427100647035783 1 0 1
195 64 4 -0.3139049925724579 -0.5097089789461153 -0.0061134820722216765 1 1 -1
97 31 4 -1.5423396958454207 -0.19793443094868793 -2.499834220541117 0 0 -1
9 2 3 -0.21335932330521076 -1.6045906531253453 -2.442999774985147 0 1 0
45 14 4 -0.1092188481245926 -0.6325800669199139 -2.8773910458864025 1 -1 1
10 2 3 -0.09385270347764871 -0.870007152776036 -2.557040332821229 0 1 0
287 95 2 -3.119879338099245 -3.029564681302769 -1.6486178480983242 1 2 2
100 32 4 -2.742968414001469 -3.6048014870690506 -1.4014277954902066 0 1 0
289 95 4 -2.9541806553913124 -3.3078356539703515 -1.2676858169964254 1 2 2
98 32 2 -2.842176459639932 -3.962641085786331 -1.0666015939013214 0 1 0
194 64 2 -0.25490840013226945 -0.41568824333912735 -0.49363733108495333 1 1 -1
163 53 4 -2.8768122267568383 -0.9458423681066825 -1.4851030272890897 1 0 0
25 7 4 -2.0370722970606354 -2.810665547941282 -0.9888425628375557 1 0 0
23 7 2 -1.6262373656687057 -2.669482913140266 -1.236394825560356 1 0 0
24 7 4 -1.215402434276776 -2.52830027833925 -1.4839470882831562 1 0 0
249 82 4 -1.2443421064719493 -2.245918286032175 -0.07710763639596939 0 0 -1
150 49 4 -0.8391372504001207 -2.4666679174832677 -1.6533918798535316 0 1 0
235 77 4 -0.9247669789105023 -2.4824615766942655 -0.0803761158363196 0 -1 0
162 53 4 -2.636262938737657 -1.7016958364039159 -0.8761518186552703 1 0 0
161 53 2 -2.7565375827472476 -1.323769102255299 -1.18062742297218 1 0 0
213 70 4 -2.8242271202708893 -0.10643723615898419 -1.1006047645463424 0 -2 0
234 77 4 -1.0068765169726108 -3.337140459139145 0.4322465832932026 0 -1 0
233 77 2 -0.9658217479415567 -2.909801017916705 0.17593523372844153 0 -1 0
81 26 4 -0.7444308444641564 -3.033231223616097 2.1467972507207564 -1 1 -1
15 4 4 -3.7083887809068568 -1.0504406286473615 0.3342177698937352 1 -1 -1
14 4 2 -4.037779465760886 -1.1658154463348762 0.6922546788499112 1 -1 -1
101 33 2 -3.0808170370816477 -0.3256129040988427 0.972130881839209 -1 -1 1
50 16 2 -2.823812932654492 -3.935070810367746 0.0608340018911597 -1 0 0
51 16 4 -3.019047992342759 -3.822321339497655 0.5071195923899713 -1 0 0
103 33 4 -2.6739564615961458 -0.22565336544547848 1.245027497332083 -1 -1 1
102 33 4 -3.4876776125671496 -0.4255724427522069 0.6992342663463351 -1 -1 1
43 13 4 -3.7513392816239435 -0.14837338251081303 0.5363521233242393 1 -1 0
86 28 2 -1.6595819513703458 -1.6924241857386269 1.8758564170786913 0 1 0
87 28 4 -1.6774980917945392 -1.9872813005589895 1.4724480709180505 0 1 0
170 56 2 -0.879326536762077 -0.6398525722984358 0.6509312909854983 0 1 0
171 56 4 -0.9207040341669237 -1.1240014168869759 0.5330847849193149 0 1 0
32 10 2 -2.821619907569718 -3.8243086710177376 2.271730963377866 0 1 -1
34 10 4 -2.603184992293874 -3.4888433787714304 1.9721492124536883 0 1 -1
130 42 4 -1.2861574587105356 -0.06842973594978896 3.1299411239956205 -1 0 0
174 57 4 -2.6059710417970736 -3.097426453826678 3.8070477968533973 1 1 -1
173 57 2 -3.007693984111313 -3.3891996482617857 3.866099305112558 1 1 -1
82 26 4 -0.9551497894599172 -2.2486821099691974 2.7299612195106926 -1 1 -1
80 26 2 -0.8497903169620369 -2.640956666792647 2.4383792351157245 -1 1 -1
152 50 2 -1.6973386991863941 -3.2767764638103616 3.290453454107025 -1 1 2
153 50 4 -1.7956355534985913 -2.9066206751076384 3.6118915049380864 -1 1 2
154 50 4 -1.599041844874197 -3.6469322525130847 2.969015403275964 -1 1 2
297 98 4 -1.2959538063797313 -3.8826895773926466 2.8313772444337655 0 3 1
165 54 4 -1.907630496705407 -1.6753319274450154 2.435228197520901 0 0 -1
164 54 2 -2.2642131895752806 -1.7386185325399073 2.7799651824255416 0 0 -1
166 54 4 -2.620795882445154 -1.8019051376347992 3.1247021673301822 0 0 -1
74 24 2 -3.8649757159586944 -1.2991660697892586 2.873332663848305 0 0 0
108 35 4 -3.0557124256479 -0.3000893714605262 4.008319825950865 0 1 -1
129 42 4 -1.921863469679698 -0.32151414765867814 2.4006770098584918 -1 0 0
75 24 4 -3.585664531901344 -0.8851072251644782 2.8965820863917964 0 0 0
128 42 2 -1.6040104641951167 -0.19497194180423355 2.765309066927056 -1 0 0
241 79 4 -2.2473038650207657 -0.11141073578459608 2.330503413028946 1 1 -1
88 28 4 -1.6416658109461522 -1.397567070918264 2.2792647632393326 0 1 0
219 72 4 -1.4263653844484387 -0.05565938699196085 3.50512764038972 0 1 1
172 56 4 -0.8379490393572301 -0.15570372770989555 0.7687777970516815 0 1 0
296 98 2 -0.8446971981909027 -4.0527378772766065 2.9634796640643697 0 3 1
175 57 4 -3.4094169264255525 -3.6809728426968937 3.925150813371718 1 1 -1
202 66 4 -2.961791743844838 -0.6790529077960219 4.03238894218132 2 0 -2
250 82 4 -1.9972707091477304 -1.6103640786885542 0.09368278722311713 0 0 -1
248 82 2 -1.62080640780984 -1.9281411823603645 0.008287575413573781 0 0 -1
231 76 4 -3.299732373176074 0.6319327072486797 -2.6285029347862037 1 0 0
230 76 2 -3.1175849165102174 1.09062042155415 -2.548328844362765 1 0 0
232 76 4 -2.935437459844361 1.5493081358596204 -2.4681547539393267 1 0 0
84 27 4 -3.5443569651196656 1.5177739583049699 -3.641821174284879 0 -1 -1
303 100 4 -0.9867077807945466 0.7544243516607966 -2.7014083616378284 0 -1 0
302 100 2 -1.3402896800730641 0.8818732484605907 -3.031160722064703 0 -1 0
304 100 4 -1.6938715793515817 1.0093221452603847 -3.3609130824915776 0 -1 0
226 74 4 -1.766606665703773 1.3215790686593851 -3.6337477061397703 0 -2 0
224 74 2 -1.9133152307423908 1.7977382851221015 -3.675568723845324 0 -2 0
18 5 4 -3.1088451634392205 0.13841877266878466 -1.191581708976288 0 0 0
277 91 4 -0.6511452653826714 2.057147218404164 -2.9372819318296086 0 0 1
96 31 4 -0.6324175635218193 0.20684243793118992 -2.4092947290075193 0 0 -1
245 81 2 -0.6121312872784189 3.4570553181963684 -0.4125428888970522 1 -1 -1
263 87 2 -1.9496645732207147 1.6426732194471356 -1.7787777410431298 1 0 0
265 87 4 -1.8950735433061665 1.4728567629681224 -1.3116779759373518 1 0 0
264 87 4 -2.0042556031352627 1.8124896759261488 -2.245877506148908 1 0 0
246 81 4 -1.0378143346363382 3.2854830415093446 -0.21415716092105289 1 -1 -1
225 74 4 -2.060023795781009 2.2738975015848175 -3.717389741550877 0 -2 0
276 91 4 -0.6399295173278186 2.2780501292540927 -1.962050620307368 0 0 1
275 91 2 -0.6455373913552449 2.1675986738291284 -2.449666276068488 0 0 1
137 45 2 -1.4856761976255524 2.83886281749773 -4.012979670376133 0 0 1
83 27 2 -3.949095193797901 1.3290510037932308 -3.866700281110866 0 -1 -1
139 45 4 -1.6932199233077214 2.460108145738096 -3.761046146306213 0 0 1
19 5 4 -3.7930717865504997 0.5246261270353231 -0.5729721328633709 0 0 0
53 17 2 -1.7934193133760978 3.762427904028418 -0.37767710420459794 -1 -1 0
42 13 4 -3.8202167716629085 0.570362911899385 -0.15551060183316923 1 -1 0
17 5 2 -3.4509584749948603 0.33152244985205387 -0.8822769209198295 0 0 0
214 70 4 -1.8396386077876472 0.05856756401564418 -1.0426489451169485 0 -2 0
252 83 4 -2.064925374544897 0.7462697226501043 -0.21345167871987372 0 0 -2
13 3 4 -1.7909034309644989 0.3412940382341343 -1.3023585031352898 0 0 0
177 58 4 -0.7656398518687508 0.5439454879984957 -0.9011953430088073 1 0 -1
178 58 4 -0.13729118309195126 1.2539602671121128 -0.5833007631765325 1 0 -1
251 83 2 -1.7400262386136662 0.3668093203936218 -0.19223011916142824 0 0 -2
12 3 4 -0.7952021467314301 0.4327975323219255 -1.2880036034193567 0 0 0
11 3 2 -1.2930527888479646 0.3870457852780299 -1.2951810532773231 0 0 0
176 58 2 -0.45146551748035096 0.8989528775553045 -0.7422480530926697 1 0 -1
54 17 4 -2.2391315357845163 3.9690352656076513 -0.4707040515753081 -1 -1 0
247 81 4 -0.18644823992049953 3.6286275948833917 -0.6109286168730516 1 -1 -1
55 17 4 -1.3477070909676796 3.555820542449185 -0.2846501568338879 -1 -1 0
95 31 2 -1.08737862968362 0.004454003491251007 -2.454564474774318 0 0 -1
99 32 4 -2.941384505278395 3.7880273154963886 -0.7317753923124362 0 0 0
41 13 2 -3.785778026643426 0.21099476469428594 0.19042076074553488 1 -1 0
208 68 4 -2.040133680161996 0.739921576738794 1.1355949484173795 1 0 0
207 68 4 -1.0566859975776013 0.6964510558662084 0.9596944952200002 1 0 0
270 89 4 -1.571856452715515 2.153064903981541 0.5068656309788453 0 0 0
206 68 2 -1.5484098388697987 0.7181863163025012 1.0476447218186897 1 0 0
259 85 4 -1.6048220366207464 3.1610236502028157 1.7977024717752808 1 1 -1
138 45 4 -1.2781324719433833 3.2176174892573646 3.8435948055539475 0 0 0
298 98 4 -0.393440590002074 3.885721822839434 3.0955820836949743 0 2 1
271 89 4 -1.2680098577712282 2.0764725865266396 1.4565028583701494 0 0 0
30 9 4 -2.793410860617456 3.7047288609424514 2.7910325758735133 0 -1 0
40 12 4 -0.20789118971018053 3.808587522497805 2.7517934458985787 -1 0 -1
269 89 2 -1.4199331552433714 2.11476874525409 0.9816842446744977 0 0 0
258 85 4 -0.9885720732641936 3.4547220524867175 1.0669650147104097 1 1 -1
257 85 2 -1.2966970549424701 3.3078728513447664 1.4323337432428451 1 1 -1
238 78 4 -2.345419632498505 1.7723135132196584 3.436594595382199 1 -1 -1
107 35 2 -3.200335450707505 0.06337927780177251 3.696912180530992 0 1 -1
109 35 4 -3.3449584757671103 0.4268479270640712 3.3855045351111186 0 1 -1
22 6 4 -4.019913169437294 2.3223173114101616 3.066136949720136 1 -1 -1
218 72 2 -1.0111900530825806 0.1421506971114683 3.7013433758764647 0 1 1
237 78 4 -2.618272659606056 2.7130306479864226 3.235093980108603 1 -1 -1
31 9 4 -2.815968833049885 2.709067504490093 2.8813077172395922 0 -1 0
236 78 2 -2.4818461460522805 2.2426720806030405 3.335844287745401 1 -1 -1
21 6 4 -3.1694563889936687 2.7228255492490137 3.4071888754153963 1 -1 -1
20 6 2 -3.5946847792154815 2.5225714303295876 3.236662912567766 1 -1 -1
29 9 2 -2.8046898468336705 3.206898182716272 2.8361701465565528 0 -1 0
239 79 2 -2.381424035860258 0.001983163068905199 1.8623649682535168 1 1 -1
240 79 4 -2.51554420669975 0.11537706192240647 1.3942265234780875 1 1 -1
33 10 4 -3.040054822845563 3.9487340367359556 2.571312714302044 0 0 -1
220 72 4 -0.5960147217167227 0.3399607812148975 3.8975591113632095 0 1 1
35 11 2 0.1548379351832058 -2.689299521739806 -3.1938031490666594 0 -1 0
158 52 2 1.0893156354453752 -3.5584473365369402 -2.3792765185372184 0 0 0
198 65 4 0.770286567627469 -2.1404916979586828 -3.4913964364959105 0 0 1
160 52 4 1.07966265784877 -4.028134237696493 -2.5504519691797465 0 0 0
36 11 4 0.5392561947645025 -2.376567909765184 -3.2602978148122816 0 -1 0
203 67 2 3.2229254730921983 -2.8133866329661648 -3.1898738374925073 0 0 0
70 22 4 2.4219236116326037 -3.5760535249060665 -2.119320007122948 -1 -1 1
68 22 2 2.501356868620624 -3.2023137300886617 -2.4418241519860175 -1 -1 1
69 22 4 2.580790125608644 -2.8285739352712573 -2.764328296849087 -1 -1 1
169 55 4 2.643386538627743 -1.963334461851831 -2.154683342113401 1 1 -1
205 67 4 3.375690395244605 -2.344969941483348 -3.2750130276474323 0 0 0
93 30 4 1.4740618375468593 -2.276624543166214 -2.794750122895368 0 0 1
92 30 2 1.0780496202118308 -1.9714112674518631 -2.7991296262005014 0 0 1
197 65 2 0.5947563156156357 -1.7765713687737505 -3.7859318751696995 0 0 1
94 30 4 0.6820374028768024 -1.6661979917375125 -2.8035091295056347 0 0 1
8 2 3 0.47173814244181045 -1.3564326952551693 -2.6590069285063285 0 1 0
6 2 1 0.09328584994641584 -1.2579943708725279 -2.4092395195083314 0 1 0
44 14 2 0.16595657954675178 -0.21592782176185857 -2.851325923389778 1 -1 1
168 55 4 1.7790616360757663 -2.242394711022476 -2.5730944320263713 1 1 -1
167 55 2 2.211224087351755 -2.1028645864371533 -2.363888887069886 1 1 -1
159 52 4 1.098968613041981 -3.0887604353773868 -2.2081010678946904 0 0 0
209 69 2 1.5226361540589133 -2.5489637380010097 -0.9207037770473584 1 1 0
210 69 4 1.185589319626736 -2.2036363915844253 -1.051655887437666 1 1 0
204 67 4 3.0701605509397916 -3.2818033244489815 -3.1047346473375828 0 0 0
117 38 4 2.1321900327726055 -3.010344697206615 -1.062075214026414 -1 0 0
211 69 4 1.8596829884910897 -2.8942910844175938 -0.789751666657051 1 1 0
116 38 2 2.230469585908987 -3.434055174719701 -0.8154772402288282 -1 0 0
118 38 4 2.328749139045368 -3.8577656522327866 -0.5688792664312423 -1 0 0
136 44 4 2.91615962445598 -1.9547943246651647 -1.8692030227753078 -1 1 0
273 90 4 1.2062919354925132 -0.526855931806711 -0.4870721520079414 0 1 0
135 44 4 3.019959394494525 -2.108151550230072 -0.8864990138759248 -1 1 0
299 99 2 2.9507625761156047 -2.553571077792623 -0.1697405512779758 0 2 1
301 99 4 3.115054336575734 -2.368921373431153 -0.6043814422719496 0 2 1
134 44 2 2.968059509475253 -2.0314729374476186 -1.3778510183256163 -1 1 0
272 90 2 1.4567543068389648 -0.22772242365128437 -0.17436183104299413 0 1 0
115 37 4 1.423036291857548 -1.208567352301104 -1.1461898705979077 -1 0 -1
7 2 3 0.21468787572392084 -1.2092803593352768 -1.9682310238793657 0 1 0
148 48 4 0.17019499856142264 -0.8186960231086733 -1.9356057689815171 -1 0 -1
106 34 4 0.7932588285572281 -1.5228441055799737 -1.9376749648842224 -2 0 1
104 34 2 1.0999782246041212 -1.7347729712882574 -1.6044942812176028 -2 0 1
146 48 2 0.13795309035876915 -0.48110472755701256 -1.568192409775297 -1 0 -1
105 34 4 1.4066976206510142 -1.946701836996541 -1.2713135975509837 -2 0 1
113 37 2 1.7070312769265175 -0.7979259011318814 -1.1193487261126842 -1 0 -1
114 37 4 1.9910262619954864 -0.38728444996265926 -1.0925075816274605 -1 0 -1
147 48 4 0.10571118215611568 -0.14351343200535188 -1.2007790505690772 -1 0 -1
110 36 2 1.9023031335444298 -2.726650796336799 0.3458660856236218 -1 2 0
112 36 4 1.4117593833598159 -2.8234319520641384 0.3453792069900269 -1 2 0
216 71 4 1.0322094746669164 -2.970296405676386 0.41240261740116607 0 0 -1
215 71 2 0.5818920889378619 -2.860631157268245 0.22481854184591415 0 0 -1
217 71 4 0.1315747032088075 -2.750965908860104 0.037234466290662294 0 0 -1
182 60 2 2.0570678814980887 -1.0898811889625553 2.1000146917383353 0 0 -1
300 99 4 2.786470815655475 -2.7382207821540927 0.2649003397159979 0 2 1
184 60 4 2.4684875935398494 -1.2833789211970499 1.8919463179682021 0 0 -1
286 94 4 2.70359667777737 -1.036555250127214 1.6632006537854505 0 1 0
284 94 2 3.0846305199327033 -1.0240582387533432 1.3396932569006412 0 1 0
285 94 4 3.4656643620880367 -1.0115612273794725 1.0161858600158316 0 1 0
16 4 4 3.741337849385084 -1.2811902640223911 1.0502915878060874 0 -1 -1
76 24 4 3.9642210999839556 -1.7132249144140395 2.8500832413048145 -1 0 0
60 19 4 1.328810330740186 -2.931369778946688 2.990665187995833 0 0 0
61 19 4 2.3235235333596886 -3.032853336239356 3.0063728973904746 0 0 0
59 19 2 1.8261669320499372 -2.982111557593022 2.998519042693154 0 0 0
183 60 4 1.6456481694563283 -0.8963834567280606 2.3080830655084688 0 0 -1
199 65 4 0.41922606360380205 -1.4126510395888179 4.028040686156511 0 0 0
124 40 4 2.080977147002969 -3.850459736371025 0.3862306060323625 -1 1 0
123 40 4 1.084554458549374 -3.9347192929753576 0.392723144521384 -1 1 0
122 40 2 1.5827658027761717 -3.8925895146731913 0.38947687527687325 -1 1 0
111 36 4 2.3928468837290433 -2.6298696406094595 0.34635296425721707 -1 2 0
243 80 4 2.2240918261795652 -0.1396560237654703 2.2261597445697023 1 0 -1
293 97 2 4.054029610546271 -4.042283293873637 3.9092843382350715 -1 1 0
121 39 4 0.9260903232868634 -3.991328435862121 0.0012722742464342796 0 0 0
46 14 4 0.44113200721809603 0.2007244233961968 -2.8252608008931537 1 -1 1
188 62 2 0.4380549859688598 0.8326010792065873 -2.6718921658776265 0 -1 -1
189 62 4 0.7323375189860155 0.477743408396357 -2.8654737358377798 0 -1 -1
66 21 4 3.076570709581884 0.9385904869367996 -2.011540323938125 0 1 1
65 21 2 2.9674312477385434 0.9512919718503704 -2.49931819361794 0 1 1
67 21 4 2.858291785895202 0.9639934567639415 -2.987096063297755 0 1 1
47 15 2 2.985767720248235 1.1414253131208931 -3.7136912937169355 -1 0 0
49 15 4 2.996512432582428 1.2435613735502822 -3.2243521717196875 -1 0 0
222 73 4 1.7647550530394467 2.1996790270229556 -3.7221594783491154 0 -1 0
193 63 4 1.2045676836762997 3.063099062565372 -3.0404678215080634 0 -1 0
191 63 2 1.299958246401264 2.7108220986362523 -3.3822302846718886 0 -1 0
192 63 4 1.395348809126228 2.3585451347071333 -3.7239927478357138 0 -1 0
126 41 4 1.5618728372895572 2.886952167371053 -1.9599939554671817 0 2 1
125 41 2 2.05441223113756 2.8011970896705294 -1.967136234955663 0 2 1
256 84 4 2.812310023435382 2.398215205527505 -0.03333666188882556 0 0 -1
229 75 4 3.4795384125126003 0.002111071698999434 -1.4082090298132168 0 1 2
281 93 2 2.511803859924127 3.6154368651276223 -0.5851929541282411 1 -1 1
143 47 2 0.3538924738355824 1.590349353838372 -1.7567942979605566 -1 -1 1
145 47 4 0.4994037265208395 1.6349522118527837 -1.2805201537966424 -1 -1 1
228 75 4 3.469064682183659 0.856752865331287 -1.9273214507296124 0 1 2
227 75 2 3.4743015473481296 0.42943196851514304 -1.6677652402714147 0 1 2
268 88 4 1.2884414642556572 2.186109750320518 -0.1880518958504448 0 0 -1
261 86 4 1.0720232773972973 2.446474654769465 -1.401328299931957 1 0 1
260 86 2 0.8915630232864868 2.7117541820571995 -1.7848134614283337 1 0 1
266 88 2 1.2544428243017762 2.410898453138993 -0.6333766442829264 0 0 -1
267 88 4 1.2204441843478953 2.635687155957468 -1.0787013927154079 0 0 -1
262 86 4 0.7111027691756764 2.977033709344934 -2.16829862292471 1 0 1
120 39 4 0.115537123388817 3.648013375002409 -0.3492795722857266 0 -1 0
119 39 2 0.5208137233378403 3.8825964695701445 -0.17400364901964616 0 -1 0
255 84 4 2.6851503282667992 1.954766011138521 -0.9205701283004727 0 0 -1
282 93 4 2.8576262696351646 3.332770823621593 -0.8099300670416043 1 -1 1
77 25 2 3.04756201978908 3.008063682080934 -1.3876474068355424 -2 -1 1
79 25 4 3.2086387335998956 3.2951786193833867 -1.0113240019754195 -2 -1 1
127 41 4 2.5469516249855633 2.715442011970006 -1.974278514444144 0 2 1
254 84 2 2.7487301758510907 2.1764906083330127 -0.47695339509464924 0 0 -1
78 25 4 2.8864853059782645 2.720948744778481 -1.7639708116956656 -2 -1 1
190 62 4 0.14377245295170415 1.1874587500168177 -2.478310595917473 0 -1 -1
144 47 4 0.20838122115032542 1.54574649582396 -2.2330684421244706 -1 -1 1
283 93 4 2.1659814502130894 3.8981029066336514 -0.360455841214878 1 -1 1
57 18 4 1.9133442891912027 1.345914892322727 1.6278704361280043 -1 0 0
132 43 4 1.9719577255061291 0.41864417186475805 0.07512560045859276 -1 0 1
56 18 2 1.563714037432714 1.4546625870920113 1.287381631704794 -1 0 0
242 80 2 1.7887452180690553 0.0038080302499142234 2.0264314390835407 1 0 -1
4 1 3 0.5299918173478944 1.1082961563998244 2.002353072258125 0 -1 0
5 1 3 0.9091356324310621 1.6773735213318648 1.6872325870368252 0 -1 0
244 80 4 1.3533986099585453 0.1472720842652987 1.8267031335973791 1 0 -1
58 18 4 1.2140837856742255 1.5634102818612958 0.9468928272815833 -1 0 0
274 90 4 1.7072166781854163 0.07141108450414221 0.13834848992195325 0 1 0
131 43 2 2.0823353859455085 0.8720724167344566 0.254623786605805 -1 0 1
133 43 4 2.1927130463848883 1.3255006616041545 0.43412197275301684 -1 0 1
26 8 2 2.7903049999057554 2.4076278823005697 1.9869346398209868 -2 0 -1
91 29 4 3.7740814257915236 1.7270053357968738 1.7035131541385276 -1 -1 0
63 20 4 1.2051811574970852 1.9066336245659699 1.8345702885831792 -1 -1 0
2 1 3 0.17331214379395993 1.6162445373133525 1.5784803875983255 0 -1 0
142 46 4 2.6888584267202753 3.570156938666195 3.4080295029820182 -1 0 0
62 20 2 1.2628045370521643 2.4024976696154203 1.8628261721385582 -1 -1 0
140 46 2 2.764064313658874 3.516066803391918 2.91668610795577 -1 0 0
64 20 4 1.3204279166072435 2.8983617146648704 1.8910820556939374 -1 -1 0
187 61 4 1.4270367764503948 3.280773324381291 1.9335160054983476 2 0 -1
28 8 4 2.511243212305387 2.483676643670112 1.5790852747418873 -2 0 -1
180 59 4 2.817317332129495 2.4518010338351583 1.2990419091368126 0 -1 0
179 59 2 2.749012520647463 2.372905470219274 0.8100532152285405 0 -1 0
181 59 4 2.6807077091654308 2.2940099066033897 0.3210645213202682 0 -1 0
89 29 2 3.8193480853351502 2.1480923409845882 1.4377375653504094 -1 -1 0
141 46 4 2.8392702005974724 3.4619766681176407 2.4253427129295217 -1 0 0
90 29 4 3.8646147448787764 2.5691793461723025 1.1719619765622913 -1 -1 0
1 1 1 0.5150598827574924 1.5557345084723377 1.8803860339896168 0 -1 0
3 1 3 0.4337977022821473 1.8190515671840515 2.253696340056533 0 -1 0
223 73 4 2.468094348766079 2.0492036834750347 3.691603240218938 0 -1 -1
27 8 4 3.069366787506124 2.3315791209310275 2.3947840049000866 -2 0 -1
292 96 4 3.0275327080772687 2.0744928542216297 2.6765276049186437 1 0 0
290 96 2 2.959387250626409 1.5812468034469802 2.721964704563546 1 0 0
291 96 4 2.891241793175549 1.0880007526723303 2.7674018042084483 1 0 0
48 15 4 2.9750230079140416 1.0392892526915045 3.9054775842858165 -1 0 -1
85 27 4 3.7546745775238644 1.1403280492814918 4.016928612063148 -1 -1 -2
185 61 2 1.6274847489493343 3.5302589668447606 2.3176742079693233 2 0 -1
186 61 4 1.827932721448274 3.7797446093082296 2.701832410440299 2 0 -1
221 73 2 2.116424700902763 2.124441355248995 4.0389758809349114 0 -1 -1
38 12 2 0.16544001427794008 3.874608774603497 2.425810307685559 -1 0 -1
39 12 4 0.5387712182660604 3.940630026709189 2.09982716947254 -1 0 -1
295 97 4 3.6776756961850543 3.8763876867657356 3.6403612317063043 -1 0 0

Velocities

278 -0.050735383379256184 0.04995286051656274 0.31838066708759966
288 0.09152541494622937 -0.08032456975034838 -0.13785271413946742
52 0.16549586782431946 -0.1757078650211977 -0.024439039333062254
279 -0.12028928114404466 0.07398900731597306 0.30672465199857374
294 -0.056559419493283795 -0.21636933809921122 -0.1511897431662674
280 0.018818514385532288 0.02591671371715242 0.3300366821766256
253 -0.10648314703322129 0.02084581466775518 -0.05367853536067824
196 0.07516613698848208 0.1929970916637173 0.09642593891140482
37 -0.39876414411695105 -0.055941865254262035 0.5117381224254598
157 -0.3124143428188163 0.15038647411401446 0.0805934934024182
155 -0.46069093663266214 0.16895743161100238 -0.2263777733297363
156 -0.6089675304465079 0.1875283891079903 -0.5333490400618908
151 0.0192454332821215 -0.0972509761541082 0.24684275916641255
149 -0.15006973591704234 0.08511815761284271 0.37030013675335544
72 -0.10933476844953313 -0.39560760145223806 0.024840283028371168
201 0.5513078666318026 0.04944195171602592 -0.05505482445022656
200 0.3658215721042704 0.16616375455507115 0.04181120025820781
71 -0.13213513334050397 -0.128364555520635 0.019712931763854552
212 -0.2716229215406336 0.11863875069914219 0.06672418552906469
73 -0.15493549823147482 0.13887849041096803 0.014585580499337936
195 0.1353837131895013 0.060738559364020575 0.07820649648979197
97 0.0945697432564663 0.5326948737151078 -0.08865611627840057
9 -0.10075051264176818 0.13991674463613363 0.21207996224051195
45 0.23801647461537695 -0.03371829520437076 -0.14889165417317513
10 -0.06362955019189044 0.0907686083363775 -0.0656037833713466
287 0.20094763286088305 0.012263745710010834 -0.11781364519772576
100 -0.013802119771218369 0.013729469781482123 0.1330090069351663
289 0.3103698507755367 0.10485206117037005 -0.0977745762559841
98 0.14058181590708238 -0.07454037859387005 0.08441568147962066
194 0.10527492508899168 0.12686782551386894 0.0873162177005984
163 0.7328852505097581 0.09780827553776938 0.17496290868064412
25 -0.36300423000479615 -0.09286278427201208 -0.06775547355413425
23 -0.169947442731048 -0.3053190643966143 0.13147249553766366
24 0.023109344542700277 -0.5177753445212165 0.3307004646294616
249 0.2940490518747015 0.1284956603625529 -0.324152182826277
150 -0.3193849051162062 0.2674872913797936 0.49375751434029835
235 0.3932606747601655 0.027846259255153688 0.2899685277767785
162 -0.2844082321487953 -0.2793642507423257 0.10865556155219598
161 0.2242385091804815 -0.09077798760227807 0.14180923511642
213 -0.2552220795405629 -0.0034470997168661033 0.1356848311220375
234 -0.1471098694678838 -0.4420073366341416 -0.5799569023174348
233 0.12307540264614102 -0.20708053868949394 -0.14499418727032778
81 0.3223228329419066 -0.07043190784622971 0.16468144154714914
15 -0.07333698475297092 -0.37370148373342954 0.0044470379446094055
14 -0.08715666777462358 -0.1181852231693599 0.07407133225684326
101 -0.04712665931142515 -0.06593121913498531 -0.04263177991162173
50 0.044831243868625525 0.04138209202169771 -0.13207133549203348
51 -0.07583338008706847 0.2584720490645932 -0.23970363165100475
103 -0.29432159364718735 0.0027066508205729756 0.30076882715266384
102 0.20006827502433702 -0.1345690890905436 -0.38603238697590736
43 -0.3143480193521074 0.059477077097617306 -0.03805132036164077
86 -0.05532766244183301 0.032720851732740655 -0.054552001572442894
87 0.02639639771292944 0.10278223642475653 -0.10939042447300926
170 -0.0481671422851932 -0.0015025083265869175 0.021353797415684016
171 -0.2427934554837472 0.006192361969886742 0.05807688196399636
32 -0.18248851320668943 -0.23949928821327027 -0.08140646016743601
34 0.11734961416807999 -0.08453407272448646 0.31074214998360744
130 0.06496826185957325 0.1058871661885573 -0.12444265348968594
174 -0.15646651280971616 0.2502267204165576 0.25865545359527164
173 -0.27101499047793987 0.3511104562855897 -0.022143159247414036
82 0.17292956133446277 0.019942518785699265 -0.010883535667504898
80 0.24762619713818468 -0.025244694530265226 0.07689895293982214
152 -0.1377907420940144 0.2966193711942476 0.04344953636542714
153 0.05636555652149269 0.46577074854113115 -0.09196507301465667
154 -0.3319470407095215 0.12746799384736401 0.17886414574551096
297 -0.056241595348025815 0.3367970014947861 -0.107697383181419
165 0.22483027914103457 -0.22500307181541185 -0.004923699243321256
164 0.4188304790367423 -0.17628945651601388 0.20468547004929447
166 0.6128306789324501 -0.12757584121661592 0.4142946393419102
74 -0.21303490152677784 -0.1619347144511437 0.018015260703091635
108 -0.2717763550094825 0.09301403921342039 -0.14107137290975508
129 0.20001877781689367 0.27840357634706503 -0.30203762414979074
75 -0.2948175735362588 -0.10839851088022727 0.047077331251614965
128 0.13249351983823346 0.19214537126781117 -0.21324013881973833
241 -0.20147101875635803 -0.2571012293649003 0.05213829096625097
88 -0.1370517225965955 -0.03734053295927527 0.00028642132812351645
219 -0.29427660412513795 -0.37906173043371166 0.15255657602762804
172 0.14645917091336091 -0.009197378623060635 -0.015369287132628369
296 -0.06619647074036786 0.15119352530798708 -0.3126092413390595
175 -0.3855634681461636 0.4519941921546218 -0.3029417720900998
202 0.18033527757673817 0.28288555739411636 0.13867722496664212
250 -0.12873271487890275 -0.4306143012173385 -0.1073941071287375
248 0.08265816849789939 -0.1510593204273929 -0.21577314497750724
231 -0.2597178938565133 0.3742612475148478 -0.08977456844082257
230 0.1138746906984093 0.21693072143400455 -0.038428300951486895
232 0.4874672752533319 0.05960019535316127 0.012917966537848782
84 0.06904856173003403 0.13384347137615027 -0.03209022428262713
303 -0.44266283531376344 0.22481088643158642 0.35624409021387976
302 -0.21528939154934065 0.020203058090256246 0.03335883185638265
304 0.012084052215082075 -0.18440477025107388 -0.28952642650111443
226 -0.15449769404769015 0.12044542453062945 0.009913365645067368
224 0.06574417879686824 0.2080678420182 0.23494023120979649
18 0.2644532539321337 0.3110813936254272 -0.188690654347327
277 0.2611760169012726 0.10647086242634007 0.23203533653763853
96 0.4757262482107549 -0.3200420105330378 -0.10693072468015367
245 0.11726650338041858 -0.13634763793774554 0.07476444774634841
263 0.27656414437828303 -0.3908775402997563 0.3741025791729595
265 0.06380822324021346 -0.17345592846113286 0.47801257049728557
264 0.48932006551635243 -0.6082991521383796 0.27019258784863354
246 0.1922776296882736 -0.027710046379214606 0.3296727229832024
225 0.2859860516414265 0.2956902595057703 0.4599670967745254
276 0.04675194465807847 0.028594671556093243 0.25214133948140294
275 0.15396398077967555 0.06753276699121666 0.24208833800952073
137 0.09006873992303868 0.006792932897383789 0.045186619453139655
83 0.011164400734848484 0.24598630599371862 -0.02202256728539318
139 0.0836762227376926 -0.0766663778906636 -0.08555156165055885
19 -0.014653779074800116 -0.2480462561289197 -0.1483311955740815
53 0.23599245207885902 -0.08808155937704845 0.042378334386607826
42 0.16305817574774903 -0.2068406398781843 -0.36224099170355595
17 0.12489973742866681 0.03151756874825375 -0.16851092496070427
214 -0.2880237635407043 0.24072460111515048 -0.0022364600639081383
252 -0.07593317275632945 0.05087786165905475 0.0156053635239112
13 -0.057171877470408965 -0.08918810884042445 -0.21034458518555338
177 -0.08771774788747308 0.19520165920748672 0.3593050262810459