LAMMPS data file via write_data, version 29 Aug 2024, timestep = 2000001, units = lj

304 atoms
4 atom types
204 bonds
1 bond types

-4.054254 4.054254 xlo xhi
-4.054254 4.054254 ylo yhi
-4.054254 4.054254 zlo zhi

Masses

1 1
2 1
3 0.5
4 0.5

Bond Coeffs # zero

1 0

Atoms # bond

297 98 4 -2.247555700206726 -3.127274875760252 -3.780307548170346 0 0 2
296 98 2 -2.1561196781352208 -3.558097004659561 -4.017017808020279 0 0 2
284 94 2 -0.3314679867663323 -3.6341400446158856 -2.659954899705702 -1 1 1
256 84 4 -0.7766855497188091 -3.1936878728049454 -2.243093968634441 0 1 -1
222 73 4 -0.9189723983366025 -3.9321568493697376 -3.9585278339448133 1 0 0
221 73 2 -0.4435634335071754 -3.8202566536397993 -3.851454670382368 1 0 0
22 6 4 -0.674252877411001 -0.10956294790143778 -0.3099982906394084 1 1 -1
286 94 4 -0.8010336616151532 -3.4859344968737633 -2.573103344612245 -1 1 1
254 84 2 -1.1537908050616534 -2.8789328779362915 -2.1497081046205055 0 1 -1
255 84 4 -1.5308960604044977 -2.5641778830676376 -2.0563222406065695 0 1 -1
93 30 4 -2.459811497674984 -1.1181714109556458 -3.606384245691701 1 1 0
92 30 2 -2.4675168701927155 -1.4223701039937477 -3.2096427903482163 1 1 0
94 30 4 -2.475222242710447 -1.7265687970318504 -2.8129013350047307 1 1 0
231 76 4 -2.346274385481223 -1.6865487863732889 -2.4344375687524207 0 1 0
82 26 4 -3.8106797287019396 -0.6632919367627237 -2.0796499247422666 1 1 1
230 76 2 -1.982418196196793 -1.9326132386827113 -2.1955632109222467 0 1 0
25 7 4 -0.4443457936243858 -0.06274319475335595 -2.1962876662016155 0 -1 0
105 34 4 -0.20192367403750283 -0.3681905084119252 -2.2144592551902558 1 0 0
252 83 4 -2.385865668008049 -2.0520754184529153 -0.3449343451741539 3 2 0
98 32 2 -2.608102663784804 -4.027957223416184 -1.600983597367262 0 0 0
100 32 4 -2.770667472827654 -3.5640946191199787 -1.69265784236683 0 0 0
232 76 4 -1.618562006912363 -2.1786776909921337 -1.9566888530920732 0 1 0
28 8 4 -3.5264954565637567 -0.660320829255508 -0.6916342525809652 1 0 -1
187 61 4 -2.259273076294062 -0.667352355503236 -0.4952130816250374 1 0 -1
81 26 4 -3.0274209144538378 -1.2132897434036884 -1.7898085153585552 1 1 1
241 79 4 -2.6140152750440766 -1.7153563149055526 -0.4577798944977583 0 2 -1
80 26 2 -3.4190503215778887 -0.938290840083206 -1.934729220050411 1 1 1
26 8 2 -3.8698873016229647 -0.6376111066837311 -0.32891354839195663 1 0 -1
239 79 2 -2.9372277705072447 -1.346492373227232 -0.5551096191763223 0 2 -1
240 79 4 -3.260440265970413 -0.9776284315489115 -0.6524393438548863 0 2 -1
278 92 2 -2.7518895137120536 -0.20681927166012187 -0.8139021302029708 0 1 2
280 92 4 -2.603844045018415 -0.6821050994479243 -0.7671482950336829 0 1 2
20 6 2 -0.34383250774452895 -0.12964272876388935 -0.6847237657677563 1 1 -1
251 83 2 -2.0834204048826974 -2.288835371349877 -0.02482250922102395 3 2 0
21 6 4 -0.013412138078056968 -0.14972250962634093 -1.059449240896104 1 1 -1
185 61 2 -2.1952717323639273 -0.6975340280355318 -0.00024551236579980476 1 0 -1
261 86 4 -1.004948340575603 -1.8259699929204776 3.194239395714544 0 1 -1
74 24 2 -2.8307189931100716 -3.292188766256449 1.2223089592657943 -2 0 0
76 24 4 -2.8382934531652966 -3.4073785850268754 0.7358175069186979 -2 0 0
75 24 4 -2.823144533054846 -3.1769989474860227 1.70880041161289 -2 0 0
201 66 4 -0.5744039845753344 -0.7395712112513448 3.0651806382092195 0 1 1
125 41 2 -1.544937248532422 -3.847350005737533 2.023939775865241 0 1 0
69 22 4 -0.6779631782438746 -3.653168606830871 1.912863669071947 -2 0 -1
73 23 4 -0.8135807329573614 -3.4502471807235953 0.3892468788378936 0 0 1
71 23 2 -1.1105222831892476 -3.048007447207416 0.3946239158544791 0 0 1
72 23 4 -1.4074638334211338 -2.645767713691238 0.4000009528710645 0 0 1
253 83 4 -1.7809751417573465 -2.5255953242468383 0.2952893267321059 3 2 0
68 22 2 -0.4802731358839589 -3.696108079927401 1.455616636493772 -2 0 -1
70 22 4 -0.2825830935240432 -3.7390475530239313 0.9983696039155969 -2 0 -1
238 78 4 -0.6320917321605426 -3.307412516973553 2.1303229069464655 1 0 0
202 66 4 -1.205722072275985 -1.5146495189702323 3.0914692107356245 0 1 1
186 61 4 -2.1312703884337916 -0.7277157005678276 0.49472205689343807 1 0 -1
219 72 4 -3.14192920901763 -0.45171779157425224 1.504636992714861 0 0 -1
218 72 2 -2.6694098998252063 -0.4361248921502958 1.6673710208954393 0 0 -1
220 72 4 -2.1968905906327825 -0.4205319927263394 1.8301050490760176 0 0 -1
250 82 4 -1.915580589216778 -0.6342455850388219 0.8065864340514272 1 1 -1
40 12 4 -0.7870853839221421 -0.6512649598199151 1.202493656479376 1 -1 0
38 12 2 -0.2955704599748355 -0.7426872027008155 1.2099134303220724 1 -1 0
249 82 4 -0.9453833947584955 -0.41968363591295926 0.9191944881676098 1 1 -1
248 82 2 -1.4304819919876368 -0.5269646104758906 0.8628904611095185 1 1 -1
244 80 4 -1.4842967935817457 -0.653369049512255 1.6606911270548717 1 1 -1
64 20 4 -3.780114206382949 -2.6753949034038405 3.7988619669082135 0 1 0
198 65 4 -3.7672122826398935 -2.2850669253766367 3.904989618189735 0 1 0
96 31 4 -3.862686356420264 -3.834350335090445 2.684474826373146 0 2 0
127 41 4 -1.8243683032732 -3.6104665168993373 2.3642403758674977 0 1 0
236 78 2 -0.2799731668988802 -3.043887498392787 2.368161256630158 1 0 0
262 86 4 -0.9907107614357183 -2.7906973303382685 3.4571052470121804 0 1 -1
298 98 4 -2.064683656063715 -3.98891913355887 3.854779932129788 0 0 1
260 86 2 -0.9978295510056606 -2.308333661629373 3.325672321363362 0 1 -1
195 64 4 -1.9909085765951442 -3.916257228397428 3.47514043867191 0 0 0
197 65 2 -3.6343271183407273 -1.8318745094377615 3.740800193303672 0 1 0
209 69 2 -2.9089010433931675 -0.828412651171569 3.551925074852891 1 -1 0
211 69 4 -2.6856590419858857 -0.3961715436428798 3.6673834386472794 1 -1 0
210 69 4 -3.132143044800449 -1.2606537587002584 3.436466711058503 1 -1 0
132 43 4 -2.523209531243669 -0.017681264970529992 3.6922074944024312 -1 0 0
131 43 2 -2.0568582158912263 -0.175260770897706 3.6045425072045396 -1 0 0
199 65 4 -3.501441954041561 -1.3786820934988864 3.576610768417609 0 1 0
133 43 4 -1.590506900538783 -0.33284027682488204 3.516877520006648 -1 0 0
242 80 2 -1.3296064523787094 -0.32181413668441816 2.0014876031488864 1 1 -1
200 66 2 -0.8900630284256597 -1.1271103651107885 3.078324924472422 0 1 1
54 17 4 -2.6344732406752307 0.5567695362347637 -2.0898452068559497 1 0 0
216 71 4 -4.0079871435190295 1.9878829589340896 -3.556839330881344 1 0 1
53 17 2 -2.1443954783781773 0.4771415307731799 -2.1488635738986384 1 0 0
156 51 4 -3.8417345097876314 0.5918501428289042 -2.3746966899996744 1 0 0
229 75 4 -0.5445470623211945 0.21585960371646534 -3.371523921892819 -1 2 1
167 55 2 -1.2431349785204482 0.5493072020221487 -3.324222201067676 2 0 0
168 55 4 -0.957947912050515 0.14506601854612133 -3.39673015028904 2 0 0
169 55 4 -1.5283220449903814 0.953548385498176 -3.251714251846312 2 0 0
227 75 2 -0.07364468490194132 0.0797144593590299 -3.470090907281607 -1 2 1
275 91 2 -1.2087921058864046 1.8415138555603665 -3.8943558910645697 0 -1 1
55 17 4 -1.6543177160811235 0.3975135253115961 -2.2078819409413266 1 0 0
23 7 2 -0.9267114140630107 0.027827478909901168 -2.1007870835272704 0 -1 0
258 85 4 -2.1033053234252086 3.2026157767649828 -2.0569083681519356 -1 1 -1
153 50 4 -1.827612714220247 2.448079158663388 -2.6338118110851827 0 0 1
152 50 2 -1.7173625041967469 2.5110664953939663 -3.1174206267630677 0 0 1
276 91 4 -1.3982588916021546 2.2951922392108832 -3.803370940008304 0 -1 1
154 50 4 -1.607112294173247 2.574053832124545 -3.601029442440953 0 0 1
257 85 2 -1.8437158318311493 2.775377347084966 -2.0658872354771813 -1 1 -1
180 59 4 -4.03869732808565 0.5804390672680203 -1.176816636985104 1 -1 1
155 51 2 -3.3977224514661706 0.6521268110441646 -2.152840846411789 1 0 0
157 51 4 -2.9537103931447093 0.7124034792594248 -1.9309850028239035 1 0 0
279 92 4 -2.899934982405692 0.2684665561276808 -0.8606559653722586 0 1 2
24 7 4 -1.4090770345016352 0.11839815257315801 -2.005286500852925 0 -1 0
226 74 4 -0.07493806801749014 1.2943449033566181 -0.7471831404846089 1 -1 -1
99 32 4 -2.4455378547419544 3.616688172287611 -1.509309352367694 0 -1 0
112 36 4 -0.8890240917795622 3.851141668469227 -0.5774592502529212 -1 0 -1
110 36 2 -0.714909342578656 3.5777417406750174 -0.9581645609497421 -1 0 -1
34 10 4 -0.15066861772997125 3.356300972281301 -1.307418975345537 0 -2 0
259 85 4 -1.5841263402370902 2.348138917404949 -2.074866102802427 -1 1 -1
111 36 4 -0.5407945933777498 3.3043418128808084 -1.3388698716465628 -1 0 -1
277 91 4 -1.0193253201706547 1.38783547190985 -3.9853408421208356 0 -1 1
194 64 2 -1.5927595309426397 3.9809712768525323 3.258718830360737 0 -1 0
146 48 2 -3.989560590697138 1.5042277604996197 1.2887633613664493 0 0 1
77 25 2 -0.3511304378878635 1.069347931552858 1.7476048323497604 1 1 0
79 25 4 -0.6295718322309861 1.4816780570345371 1.698064368720949 1 1 0
78 25 4 -0.07268904354474093 0.6570178060711789 1.7971452959785719 1 1 0
148 48 4 -3.8800181635558584 1.96314950410452 1.1232602196971804 0 0 1
203 67 2 -2.5044506456365507 3.5335259071460716 1.2673252504948913 0 -1 0
205 67 4 -2.7699041831202176 3.2523149836994474 1.5842713594340965 0 -1 0
204 67 4 -2.238997108152883 3.8147368305926967 0.9503791415556857 0 -1 0
116 38 2 -2.8852399684520638 2.447845325618078 1.7898100239354149 1 0 0
118 38 4 -2.6610978789380875 2.8903501667885183 1.7269626751553222 1 0 0
117 38 4 -3.10938205796604 2.005340484447638 1.8526573727155073 1 0 0
291 96 4 -1.252885705619845 2.4915944420230054 0.788038520154352 0 0 -1
162 53 4 -1.4981776726620828 2.703048762685807 1.8941756251675175 0 0 0
143 47 2 -0.2729748831005292 3.6090601070435033 0.6924201135991866 -1 -2 1
145 47 4 -0.44258701276683354 4.0333037158291 0.8955188232820508 -1 -2 1
292 96 4 -1.790789248111456 2.704536821740802 1.603707155014733 0 0 -1
144 47 4 -0.10336275343422482 3.1848164982579066 0.4893214039163224 -1 -2 1
290 96 2 -1.5218374768656504 2.5980656318819038 1.1958728375845424 0 0 -1
135 44 4 -3.3577794356376516 1.1141698004412868 2.911847574904742 -1 -1 1
134 44 2 -3.141047082456852 0.7557658354981565 2.63876574651287 -1 -1 1
108 35 4 -3.6718361058838385 1.5889772420732913 3.233549913909662 0 0 0
107 35 2 -3.9485867665481384 1.2496063870161123 3.474872301100798 0 0 0
136 44 4 -2.9243147292760527 0.39736187055502614 2.3656839181209985 -1 -1 1
303 100 4 -3.3080723320431775 2.0517551805231813 2.2075577991579958 1 -1 0
302 100 2 -3.7134457065085757 2.029561677362551 2.4994137151365114 1 -1 0
243 80 4 -1.1749161111756734 0.009740776143418561 2.3422840792429014 1 1 -1
2 1 3 -1.141950436005895 0.7311468177759657 3.267260993186929 0 -1 -1
126 41 4 -1.2655061937916439 4.0242745054242715 1.6836391758629845 0 0 0
3 1 3 -0.4809851873625357 1.072826805529851 3.3734670478862343 0 -1 -1
1 1 1 -0.9401114628236961 1.1359767265901088 3.3507701174456708 0 -1 -1
5 1 3 -1.0939220141919859 1.301544195446188 3.7461556603585913 0 -1 -1
4 1 3 -1.0428683987122032 1.4288080254172395 3.0058196245424162 0 -1 -1
95 31 2 -3.9749681226877818 3.8323706607544117 2.8899427020212634 0 1 0
139 45 4 -0.8142536308447672 3.866075961455185 3.090949204349803 0 1 0
137 45 2 -0.594955436768159 3.8483609173209925 2.6419564657826355 0 1 0
161 53 2 -1.800876404300792 2.6084244590232033 2.280724094341473 0 0 0
163 53 4 -2.103575135939501 2.5138001553605998 2.667272563515428 0 0 0
196 64 4 -1.1946104852901351 3.769691782102492 3.042297222049564 0 -1 0
138 45 4 -0.3756572426915507 3.8306458731868 2.192963727215468 0 1 0
234 77 4 -0.24568000844901855 0.23669791420985906 1.0773469259711597 -1 -1 -1
11 3 2 0.6156987245589985 -3.349809237668268 -3.463155276712034 -1 1 1
13 3 4 0.4301047118708576 -3.773298963033882 -3.653447985358022 -1 1 1
12 3 4 0.8012927372471397 -2.926319512302655 -3.2728625680660466 -1 1 1
223 73 4 0.03184553132225121 -3.708356457909861 -3.7443815068199235 1 0 0
177 58 4 2.404051412079886 -2.5744509505072797 -3.643728353099469 0 -1 0
56 18 2 3.6470105959964267 -3.9550847440441617 -3.6096598801705597 -1 -1 1
57 18 4 3.608735740781556 -3.4755991156497035 -3.7461463909385997 -1 -1 1
176 58 2 2.2140692684900163 -2.188124724470068 -3.8980093633872657 0 -1 0
193 63 4 3.1558322018271046 -3.3268802933416635 -2.2571418455086776 0 0 1
31 9 4 1.4233887064274133 -0.06578834476781448 -2.7060846266327596 0 -1 0
29 9 2 1.1156344262507996 -0.0950538043790207 -3.0990615164199333 0 -1 0
30 9 4 0.8078801460741855 -0.12431926399022676 -3.4920384062071066 0 -1 0
104 34 2 0.2433230584429495 -0.5021432501160724 -2.3983396788501254 1 0 0
106 34 4 0.688569790923402 -0.6360959918202195 -2.582220102509995 1 0 0
170 56 2 1.8181844818309505 -0.08457679633402403 -2.074868116380453 0 -2 0
228 75 4 0.3972576925173118 -0.05643068499840549 -3.568657892670396 -1 2 1
123 40 4 2.216034104279238 -1.5218130396968839 -3.8945708670597625 0 1 1
65 21 2 1.7608012534066513 -3.989267602743771 -1.780339264194608 1 1 1
67 21 4 1.9098893780198323 -3.5185504878162877 -1.8590674599920671 1 1 1
84 27 4 2.62815148525188 -2.5161849864315604 -1.0823163264409597 -1 0 0
83 27 2 2.7910060907066176 -2.166967500831247 -1.400947029972987 -1 0 0
191 63 2 3.544820032558016 -3.269176234471858 -1.9483397905717965 0 0 1
63 20 4 3.515422497408127 -3.11651348799033 -3.929524913088657 -1 1 1
164 54 2 1.9617766742513585 -1.6063342187705956 -0.2982015484103709 0 0 0
85 27 4 2.9538606961613554 -1.8177500152309332 -1.7195777335050144 -1 0 0
36 11 4 2.084109170077069 -0.7214658954364306 -1.818525237303361 -1 -1 1
171 56 4 2.1288107513436136 -0.3165521588580801 -1.7591170247421823 0 -2 0
165 54 4 2.202556057858333 -1.4110427356052928 -0.6904852786784719 0 0 0
37 11 4 1.9997838234790308 -1.3243590783029964 -1.0251721973690888 -1 -1 1
35 11 2 2.04194649677805 -1.0229124868697135 -1.4218487173362249 -1 -1 1
285 94 4 0.13809768808248846 -3.782345592358008 -2.746806454799158 -1 1 1
192 63 4 3.9338078632889273 -3.211472175602052 -1.6395377356349154 0 0 1
8 2 3 1.004148188910726 -2.262406545964992 0.4524377473115775 0 1 -1
9 2 3 1.7309890361431166 -2.051352156803518 0.38345639033667417 0 1 -1
10 2 3 1.4203173422392255 -2.1270170809234243 1.0651146022469682 0 1 -1
61 19 4 1.5377068912258922 -2.378878460342594 1.3493258722217831 0 0 0
6 2 1 1.34332258894257 -2.0028369562256563 0.6337781852882254 0 1 -1
59 19 2 1.628840828883149 -2.60509881366728 1.785810645322521 0 0 0
17 5 2 2.7193803813177917 -2.5005173007325507 0.9676287495803183 1 0 0
212 70 2 3.2158061522966754 -3.4602378928885513 0.5175324416703508 -1 1 0
18 5 4 3.0790080682821954 -2.8417046945373206 1.0328904464426145 1 0 0
214 70 4 2.952429210802461 -3.1394815783715084 0.7963656774701564 -1 1 0
213 70 4 3.4791830937908905 -3.7809942074055938 0.23869920587054538 -1 1 0
166 54 4 1.7209972906443838 -1.8016257019358985 0.09408218185773004 0 0 0
7 2 3 1.2142176402389167 -1.5614357830791459 0.6239335641638584 0 1 -1
121 39 4 0.8964357944668974 -1.46746172197326 0.8700627078583295 -1 0 -1
119 39 2 0.7436616908105181 -1.0265101102928544 1.049566884435502 -1 0 -1
120 39 4 0.5908875871541388 -0.5855584986124487 1.2290710610126745 -1 0 -1
88 28 4 3.211591065845348 -4.026197951878011 0.0812716404905755 -1 1 0
39 12 4 0.19594446397247106 -0.8341094455817158 1.2173332041647689 1 -1 0
27 8 4 3.8952288533178274 -0.6149013841119543 0.03380715579705201 0 0 -1
19 5 4 2.3597526943533884 -2.159329906927781 0.9023670527180225 1 0 0
237 78 4 0.07214539836278261 -2.7803624798120206 2.6059996063138504 1 0 0
247 81 4 0.2742739544829573 -2.895589250628275 2.937189082033545 0 1 0
60 19 4 1.7199747665404062 -2.831319166991966 2.222295418423259 0 0 0
245 81 2 0.5002583787339431 -2.456184733335189 3.0137051599414786 0 1 0
246 81 4 0.7262428029849288 -2.0167802160421027 3.0902212378494123 0 1 0
44 14 2 3.338463158283263 -2.0568892663900917 2.4006557731736216 0 -1 0
62 20 2 3.9219081455125893 -2.895954195697085 3.9889225269097786 -1 1 0
124 40 4 2.288178879009466 -0.7458236648500762 3.5873307001580597 0 1 0
45 14 4 3.7557855754528497 -2.1635510110123732 2.654555895981697 0 -1 0
267 88 4 1.4715469365877003 -1.4477643648053875 3.901388929387817 0 0 0
268 88 4 0.839846776663177 -1.643514345498943 3.1512976995975666 0 0 0
266 88 2 1.1556968566254386 -1.5456393551521652 3.5263433144926917 0 0 0
46 14 4 2.9211407411136756 -1.9502275217678102 2.1467556503655465 0 -1 0
122 40 2 2.252106491644352 -1.13381835227348 3.9006339165491486 0 1 0
140 46 2 3.566939720675065 -0.20285316591239522 3.1703985145514886 -2 1 0
15 4 4 2.242353896790971 -0.45208388120471527 3.301977916573959 -2 0 0
141 46 4 3.792340484005978 -0.059879668274578274 3.5931905140772176 -2 1 0
142 46 4 3.341538957344152 -0.3458266635502122 2.747606515025759 -2 1 0
178 58 4 2.0240871249001464 -1.8017984984328563 3.956217626324939 0 -1 -1
299 99 2 0.7554363983754668 1.4158447526405626 -2.646154364380688 1 -1 1
301 99 4 0.8402314916958167 1.7281875132000906 -2.26503523330129 1 -1 1
49 15 4 0.5819936883091305 0.9632459181577249 -3.3837846474398403 0 -1 0
300 99 4 0.670641305055117 1.1035019920810347 -3.027273495460086 1 -1 1
47 15 2 0.7043750156370183 1.154640881896704 -3.8291954449928607 0 -1 0
265 87 4 2.0089509497978724 1.9688159759819202 -3.087696066163464 0 0 0
172 56 4 1.5075582123182878 0.14739856619003183 -2.390619208018724 0 -2 0
263 87 2 2.113603466161456 1.4840094920761357 -3.1510247640940623 0 0 0
264 87 4 2.2182559825250396 0.9992030081703516 -3.2143534620246608 0 0 0
215 71 2 3.602124880831228 1.956365931664995 -3.5321790703729006 0 0 1
217 71 4 3.103728905181485 1.9248489043959 -3.5075188098644574 0 0 1
90 29 4 1.0454472352002866 2.0706033722211985 -2.2206266483493815 -1 0 1
89 29 2 0.7476822857615317 2.472160467232973 -2.2300039790675186 -1 0 1
33 10 4 0.33795439226832863 3.2887247210391957 -2.177293106682402 0 -2 0
102 33 4 1.9921742550995587 2.330765782900847 -3.2551202395567924 -1 -1 0
101 33 2 2.3691401422237606 2.627469448665243 -3.1141817612522193 -1 -1 0
103 33 4 2.746106029347963 2.9241731144296383 -2.9732432829476463 -1 -1 0
150 49 4 3.9095484673234786 3.3184809128132744 -3.5131448750209393 -1 0 0
151 49 4 3.1288491251153063 2.840408663718396 -3.1107079709961076 -1 0 0
149 49 2 3.5191987962193925 3.0794447882658353 -3.3119264230085235 -1 0 0
58 18 4 3.685285451211298 3.6739376275613806 -3.47317336940252 -1 -2 1
174 57 4 3.9395873682296667 2.2376294093348763 -0.14431365196791757 -1 0 0
208 68 4 0.8944646843859314 0.5693919823492073 -0.24878768642154275 0 0 0
283 93 4 3.191424474779284 3.3502913149347626 -2.0921691563062588 1 0 2
207 68 4 1.8677794087616928 0.7943177650124535 -0.20332517871914998 0 0 0
206 68 2 1.3811220465738119 0.6818548736808304 -0.22605643257034608 0 0 0
224 74 2 0.3273301353407692 1.486010502999818 -0.5203691407403147 1 -1 -1
225 74 4 0.7295983386990286 1.6776761026430183 -0.2935551409960204 1 -1 -1
160 52 4 1.1261565207371333 1.7177299960757944 -0.29408002216525564 0 0 0
273 90 4 2.254855553379518 0.8317112035355669 -0.3794706280885563 -2 0 0
113 37 2 3.3650514535717213 1.7297427975486295 -0.46085132842528365 -2 0 0
179 59 2 3.6361888866136503 0.37899898287780565 -1.0305496218597152 0 -1 1
181 59 4 3.2025671013129506 0.17755889848759085 -0.8842826067343261 0 -1 1
272 90 2 2.6937436195691364 0.6154457326609974 -0.4824585471075246 -2 0 0
274 90 4 3.1326316857587555 0.39918026178642746 -0.5854464661264929 -2 0 0
114 37 4 3.0093908140407994 1.5474601262258274 -0.7613151985057701 -2 0 0
115 37 4 3.720712093102643 1.9120254688714315 -0.16038745834479717 -2 0 0
91 29 4 0.44991733632277703 2.8737175622447473 -2.2393813097856556 -1 0 1
43 13 4 1.9420640446099937 2.5239570696237377 -1.0377674433289177 -2 0 0
42 13 4 1.8201911130112063 3.3867278657145174 -1.528454249710636 -2 0 0
41 13 2 1.8811275788105999 2.955342467669128 -1.283110846519777 -2 0 0
158 52 2 1.4268461386117388 2.0625082376697006 -0.49585642768848387 0 0 0
159 52 4 1.7275357564863443 2.407286479263607 -0.6976328332117121 0 0 0
32 10 2 0.0936428872691787 3.3225128466602483 -1.7423560410139696 0 -2 0
66 21 4 1.6117131287934705 3.648523282328746 -1.701611068397149 1 0 1
281 93 2 3.2601095222721055 3.571900492571209 -1.6492563695884195 1 0 2
282 93 4 3.328794569764927 3.793509670207655 -1.2063435828705806 1 0 2
287 95 2 1.341784415442026 1.2413202866843773 1.3143674713767692 0 1 0
289 95 4 1.1651953578975496 1.7090816481293132 1.3183188628682196 0 1 0
288 95 4 1.5183734729865024 0.7735589252394415 1.3104160798853188 0 1 0
269 89 2 3.9394093704360826 2.6943293240893493 3.263418058291569 0 0 -1
233 77 2 0.24075467235213208 0.12230488569922868 1.0945380964417095 -1 -1 -1
51 16 4 3.040157485142396 0.7985680003506852 0.7053205757098255 1 -1 -1
50 16 2 2.647887215327037 0.6976464672375281 0.9984739136968392 1 -1 -1
52 16 4 2.2556169455116777 0.5967249341243711 1.2916272516838525 1 -1 -1
173 57 2 3.8150410390028044 2.5759051614250215 0.20217982188647698 -1 0 0
87 28 4 3.5909533597323238 3.1744965304972403 0.26004207203510155 -1 0 0
175 57 4 3.6904947097759426 2.914180913515166 0.5486732957408715 -1 0 0
86 28 2 3.401272212788836 3.628403289309615 0.17065685626283833 -1 0 0
183 60 4 0.47070406969327483 1.5489756454361308 3.7704542256341327 -1 -1 0
48 15 4 0.8267563429649062 1.3460358456356831 3.8339017574541194 0 -1 -1
182 60 2 0.2907462075985494 1.6640008515478097 3.318365329697577 -1 -1 0
184 60 4 0.11078834550382399 1.7790260576594887 2.8662764337610214 -1 -1 0
293 97 2 1.314281723584916 1.5842977254989634 3.0111830371612083 -1 1 0
294 97 4 1.5268303989779946 1.1450621458723622 3.120248000274583 -1 1 0
130 42 4 2.5345484328961234 1.5722949044957069 3.2629606216144493 -2 1 0
128 42 2 2.3906332993970354 1.117518781876602 3.4128509570112726 -2 1 0
129 42 4 2.2467181658979474 0.662742659257497 3.562741292408096 -2 1 0
16 4 4 2.596217569147518 0.45996877476480835 3.509198702511972 -2 0 0
14 4 2 2.4192857329692443 0.003942446780046532 3.4055883095429658 -2 0 0
109 35 4 3.8831705727875625 0.9102355319589333 3.716194688291934 -1 0 0
304 100 4 3.9896889190260256 2.0073681742019214 2.7912696311150276 0 -1 0
295 97 4 1.101733048191838 2.023533305125565 2.9021180740478343 -1 1 0
189 62 4 1.5087662244800462 3.338064526419085 2.815122157182276 0 0 1
188 62 2 1.361558146684225 2.8638077169863982 2.756724721123243 0 0 1
190 62 4 1.2143500688884041 2.3895509075537116 2.69832728506421 0 0 1
97 31 4 4.0212581110447 3.390583656599268 3.095410577669381 -1 1 0
270 89 4 3.8271280145306164 3.162562685333439 3.3981415400374666 0 0 -1
147 48 4 4.009404982161582 1.0453060168947195 1.4542665030357182 -1 0 1
271 89 4 4.051690726341549 2.2260959628452595 3.1286945765456715 0 0 -1
235 77 4 0.7271893531532827 0.007911857188597937 1.111729266912259 -1 -1 -1

Velocities

297 -0.40270150244060066 -0.08569327248891327 -0.04786690852303288
296 -0.24372442420761567 -0.0013020659749123534 -0.14005288994353612
284 0.32014511865425116 -0.061647978087463036 0.14767733082959783
256 0.019053681015087844 0.11805719992707495 -0.5017372900926171
222 0.04741935429222078 -0.08171390164616253 0.12283766286648407
221 0.06261212917683638 -0.18264198965752695 0.16085924817216404
22 0.47952643237179227 0.1170931541488961 0.10295641058261451
286 0.29798092747964616 -0.19414328848247675 0.25393906274726996
254 0.07455590840815637 0.08998180534274763 -0.1829839902672493
255 0.1300581358012249 0.06190641075842031 0.13576930955811864
93 -0.23980895958529064 -0.36616799754675733 0.1140781882675039
92 -0.04377757453813161 -0.15747893735458465 0.2778962953329602
94 0.15225381050902764 0.05121012283758816 0.44171440239841664
231 -0.03218006138045304 -0.3083966975918946 0.09967656976787584
82 -0.3063331116132597 -0.2586300359515783 -0.0923117613637951
230 0.06377300013248216 -0.23727935434130387 0.026777723052844857
25 0.16996829107307748 0.2218648427071937 -0.10146963194912449
105 -0.23615211014393003 -0.14824346894970386 -0.24063835919804338
252 -0.20995571811408098 0.1906270563452147 -0.0796516442317569
98 -0.19004564851031128 -0.12920795110192626 -0.03659942176910484
100 0.0007834149945978031 -0.21906947879791006 -0.8296846828687587
232 0.15972606164541736 -0.16616201109071316 -0.04612112366218611
28 0.279015599194416 0.027914136238032655 0.26572536000940417
187 0.07470344965137508 -0.24618569069807358 -0.0747683172915548
81 -0.19336900262796455 0.013079037174180214 0.11800760030650065
241 -0.02983060093230891 -0.02471125851557704 -0.12835262140450499
80 -0.24985105712061215 -0.12277549938869907 0.012847919471352763
26 0.15091123101050502 0.00309780167439158 0.14600122301886803
239 0.12952287700822365 0.109732558536607 -0.14801320279489147
240 0.2888763549487562 0.244176375588791 -0.16767378418527792
278 -0.2198319880044095 -0.04281572105407185 0.3042062682362105
280 -0.4349314123367938 -0.16568629960109615 -0.2637503378544091
20 -0.6652640291914739 -0.485193772886674 -0.8742077330181778
251 -0.13880880468014611 0.4018606061397779 0.009359742244148631
21 -1.8100544907547402 -1.087480699922244 -1.85137187661897
185 0.15287147828043926 -0.09153377518089108 -0.07544554431573978
261 0.38512307098683357 0.23870889722385844 0.45884385549293216
74 -0.13938648986410065 0.15432955184517652 0.07783827587583321
76 0.03987494128207916 0.007590451874311982 0.10979164670593215
75 -0.3186479210102803 0.3010686518160409 0.045884905045734344
201 -0.18117771212320166 0.31188140641667905 -0.4266394007395609
125 0.1703196953175474 0.01780735166030786 0.29872087548977916
69 -0.0305607453549106 0.0799494476782642 0.18624258403028623
73 0.13030534715907346 0.22076748967029441 0.24436256102168785
71 -0.15041251303237696 0.016450843037974342 0.026301371354059643
72 -0.4311303732238273 -0.18786580359434576 -0.19175981831356848
253 -0.06766189124621112 0.613094155934341 0.09837112872005431
68 0.13220208648461942 -0.0413309138867342 0.26800212161053877
70 0.2949649183241495 -0.16261127545173262 0.34976165919079133
238 -0.015800161933659185 -0.09540168278617839 0.43588478143029785
202 -0.07435911678856241 0.232568435894228 -0.1998203766618741
186 0.23103950690950348 0.06311814033629154 -0.07612277133992477
219 -0.03290797580039495 -0.09471268246888614 0.24321486807817377
218 -0.0010087019526548054 -0.14492428511373676 0.15540238944610618
220 0.030890571895085366 -0.19513588775858737 0.06758991081403865
250 -0.019357763070982345 0.46132579068082047 -0.0533682993948843
40 0.5032762382818389 -0.3016096009752783 0.05306101149975047
38 0.5239941290041779 -0.1993356518603648 -0.05921177255371453
249 0.2309816916247172 -0.6186744092610469 -0.15239930334625346
248 0.10581196427686741 -0.07867430929011318 -0.10288380137056888
244 0.11290536414970068 0.060761171350176585 -0.34750124386975867
64 -0.06330850610968627 0.04453468833433302 0.168362257484461
198 0.45071480784240997 0.06967072632328669 0.05404568990989573
96 0.24681879212656224 0.09158849417756201 0.14772360034588966
127 0.06842029253115293 0.0553195690238589 0.18893593088214533
236 0.06685704360115366 0.18046409832247254 0.007851741975972975
262 -0.1632724853465185 0.03724353799580146 -0.25083872037546173
298 -0.08474734597463063 0.08308914053908868 -0.23223887136403942
260 0.11092529282015752 0.13797621760982992 0.10400256755873519
195 -0.28093954666962573 -0.041282302740338506 -0.08242645962524237
197 0.030856534621613342 0.17244203443839842 -0.0020953082805801938
209 0.06945737036278767 0.07771382617872719 -0.11685550278809605
211 0.14179911180490212 0.09069722039281634 -0.30533619075418417
210 -0.002884371079326778 0.06473043196463807 0.07162518517799214
132 0.42094456265542923 0.14542516859099827 0.19810663730401457
131 0.28520139761369545 -0.18021018603189345 0.0613297363235438
199 -0.3890017385991831 0.27521334255351015 -0.058236306471056105
133 0.14945823257196172 -0.5058455406547852 -0.07544716465692697
242 -0.03452579512500933 -0.11395490537218687 -0.11060281450572688
200 -0.12776841445588205 0.2722249211554535 -0.3132298887007175
54 0.0066607450005740365 0.28834656654427726 0.08489059169651644
216 -0.15417073888315674 0.37832852173280956 0.09451337026370975
53 -0.06680919594392475 -0.11599274107074518 0.020347097019353375
156 -0.16657002287860323 0.11265100778798132 0.09195627451566268
229 -0.14240890356529157 -0.3184180599861274 -0.23115419390179165
167 -0.09370475575046557 -0.0608715747503555 0.296563590401206
168 0.0077902114547048346 -0.00976936395929106 0.4108604899726186
169 -0.19519972295563598 -0.11197378554141993 0.18226669082979338
227 -0.0588112791205982 -0.2119298111818498 0.02114592457791822
275 -0.09282922536685366 0.16019582742309052 0.018359510886371277
55 -0.1402791368884235 -0.5203320486857677 -0.04419639765780968
23 0.12546667193514152 0.08949701327661459 -0.20070889706901338
258 0.39122440260674785 0.16952956458782598 -0.075168587525076
153 -0.3033555853774931 0.17651445257700435 0.2315603654225672
152 -0.1958909950160984 0.161841758472015 0.254148456001076
276 -0.2680372057133138 0.20037634426830753 -0.546845220308908
154 -0.08842640465470368 0.14716906436702568 0.27673654657958474
257 0.14512636864495027 0.02040007954491747 -0.09417059563349693
180 -0.12336248466812243 0.07810769669270941 0.011929266260426008
155 0.10736690896236037 0.22979661452522415 -0.48811610827991714
157 0.38130384080332397 0.346942221262467 -1.0681884910754968
279 -0.004732563672025181 0.08005485749295253 0.8721628743268304
24 0.08096505279720556 -0.042870816153964444 -0.2999481621889022
226 -0.2170951834902361 0.44275819599132854 -0.19107791486337017
99 -0.3808747120152204 -0.039346423405942466 0.7564858393305491
112 -0.14236405947103487 0.10575977450562221 0.11732192264083985
110 0.13884934447043382 0.02981255400189524 0.30047504381339946
34 -0.08994145257314165 -0.28662509488476706 -0.12491379105762179
259 -0.10097166531684723 -0.12872940549799092 -0.11317260374191786
111 0.4200627484119024 -0.046134666501831706 0.48362816498595906
277 0.08237875497960634 0.12001531057787376 0.5835642420816505
194 -0.15383322927180643 -0.07625367812063669 0.1855504486972498
146 -0.0305812668345958 -0.11411967366791394 -0.12245808224712536
77 0.07030687388234431 -0.07185718949122885 -0.061585678594783824
79 0.05490690040520479 -0.1250004815344074 -0.417347189445915
78 0.08570684735948385 -0.01871389744805032 0.29417583225634736