LAMMPS data file via write_data, version 29 Aug 2024, timestep = 2000001, units = lj

210 atoms
4 atom types
150 bonds
1 bond types

-3.419491 3.419491 xlo xhi
-3.419491 3.419491 ylo yhi
-3.419491 3.419491 zlo zhi

Masses

1 1
2 1
3 0.5
4 0.5

Bond Coeffs # zero

1 0

Atoms # bond

82 18 2 -3.044047150011813 -2.3848134339979037 -2.6575837128355713 0 -1 0
83 18 4 -3.3085424390842366 -2.623791444662777 -3.0082210555415636 0 -1 0
189 53 4 -2.5700400407872546 -2.073487000885542 -1.9704912623979802 0 1 1
84 18 4 -2.779557449756379 -2.1458539098109504 -2.3069541624329797 0 -1 0
44 9 3 -2.148588471965898 -2.1445565274175884 -3.0226824003495105 -1 0 -1
42 9 3 -2.264934869711543 -2.8058944568040105 -3.3603424630936365 -1 0 -1
75 15 3 -1.573464251680966 -3.4097384952583343 -2.605492983366649 0 0 0
41 9 1 -1.9547175237346335 -2.4747296266747245 -3.284766597239268 -1 0 -1
109 27 2 1.602449708419229 -1.400361864811503 -1.248608152531239 0 0 1
121 31 2 -0.47150604190026774 -2.1187139123766086 -2.5556886667300565 1 0 0
123 31 4 -0.42432883179731834 -2.4758246200024385 -2.9024693053449093 1 0 0
122 31 4 -0.5187033598874882 -1.7616185928949555 -2.2089120563717044 1 0 0
205 59 2 1.9609338870611874 -0.38293315478431006 -0.8211668973804862 1 2 1
198 56 4 2.1875777899605016 -2.552546691259493 -2.068985916377951 -1 1 -2
173 48 4 2.1503590496381455 -2.942524215050429 -2.1827001445330767 0 1 1
172 48 2 2.4941706932091767 -3.2647838817133876 -2.0154871756429307 0 1 1
196 56 2 1.8630704885653495 -2.4085478706154113 -1.7168838912447697 -1 1 -2
27 6 3 2.0444198286053337 -0.43844330867488 -0.13897348218758493 -1 0 0
36 8 1 -0.8901687754957577 -0.08200490808480777 -2.3122616308347546 1 1 1
40 8 3 -0.8530804549247128 -0.528349999004348 -2.3946899394042807 1 1 1
2 1 3 0.31690172645570797 -0.6314078196228848 -2.423704080204688 -1 -1 0
100 24 2 1.57392714873363 -1.3030758584102073 -3.0822347683128037 1 0 0
5 1 3 0.6035791288898151 -1.093068507694981 -1.912171985309241 -1 -1 0
51 11 1 1.6011599394081484 -0.20280132679479188 -2.75418800401646 0 0 1
52 11 3 1.1596248590531375 -0.15512281799318609 -2.6343035802968138 0 0 1
101 24 4 1.7613251172186108 -0.9993838753069152 -2.7319892862301156 1 0 0
55 11 3 1.7525473687808963 -0.6078218407222884 -2.61118604660572 0 0 1
3 1 3 1.0051782905697983 -0.5025347288742635 -2.1506611340231023 -1 -1 0
1 1 1 0.5806075868926561 -0.6589300803001464 -2.0478170338361115 -1 -1 0
206 59 4 2.1828405226915106 -0.18598282554118034 -0.41871356912599694 1 2 1
187 53 2 -2.6817602004238204 -1.7990693068103754 -1.5677413892082217 0 1 1
164 45 4 -1.606874355353243 -1.474555937421755 -1.1762514109612558 0 2 0
163 45 2 -1.757051540927472 -1.829652186011132 -0.8578902223650222 0 2 0
90 20 4 -2.1930833089298756 -2.3162950486652263 -0.2904407264582032 0 0 0
165 45 4 -1.907245122891649 -2.1847557041155286 -0.5395375689398515 0 2 0
197 56 4 1.538579226607844 -2.2645945423284597 -1.3647732330697557 -1 1 -2
110 27 4 1.626487110102597 -1.8783572658211196 -1.3933386121681315 0 0 1
25 5 3 -2.3814268680741875 -1.3065636256391082 -0.10405341147463013 0 0 1
23 5 3 -3.121790221565127 -1.221532711586208 -0.2115499757061872 0 0 1
24 5 3 -2.6603566395744984 -1.3472001700293748 -0.8022332833300901 0 0 1
188 53 4 -2.793479648377714 -1.5246590728765428 -1.1649946160665277 0 1 1
21 5 1 -2.6992299662784216 -1.1440161109962677 -0.3868761248732232 0 0 1
22 5 3 -2.639875724466168 -0.6906480918676887 -0.43696761336538703 0 0 1
81 17 4 -2.7974606439668555 -0.36443973888216824 -0.5866198564950542 2 1 0
94 22 2 -0.18536779665027414 -0.34517194582739963 -1.3255544264323522 1 1 1
95 22 4 0.2307506599750506 -0.60843900935584 -1.4124079864586647 1 1 1
4 1 3 0.3925395389291653 -0.3982431864327818 -1.713196822361947 -1 -1 0
203 58 4 3.3694237557957583 -1.4416835083820774 -0.2001932451173001 1 1 0
111 27 4 1.578383263331154 -0.9223868490861359 -1.1038650614868486 0 0 1
207 59 4 1.7390196626932037 -0.5798902143228061 -1.2235973937426514 1 2 1
39 8 3 -0.8666590566062571 -0.0028464283780223316 -1.855656847319707 1 1 1
53 11 3 1.6349361779867995 -0.17527263219493763 -3.216158856799389 0 0 1
96 22 4 -0.6014634796917071 -0.08186568771000226 -1.2387412399591844 1 1 1
166 46 2 3.3831305044938484 -3.3926306085754505 -0.6120683928576054 -1 2 0
200 57 4 -2.9547547925097 -3.3608165058458965 -0.2310685107185586 0 1 0
167 46 4 -3.2342286217981355 -3.1049820429347554 -0.26834140503046855 0 2 0
202 58 2 2.90195876615833 -1.3881092621807056 -0.030983742436626528 1 1 0
194 55 4 3.30368751216936 -2.3086632924738293 -3.135939929734501 0 1 2
45 9 3 -1.594885588692371 -2.6525616895068715 -3.069631960371884 -1 0 -1
68 14 3 -2.890511489442824 -2.206841140777306 1.2731001228966459 1 2 0
66 14 1 -2.482796921059122 -2.4282019950501064 1.2807361801808337 1 2 0
69 14 3 -2.539995016434008 -2.8600309899632554 1.4405884705215268 1 2 0
67 14 3 -2.3168300962735273 -2.448984145351141 0.8522308072455345 1 2 0
89 20 4 -1.9731808558268449 -2.530414038801119 0.6612670246695728 0 0 0
88 20 2 -2.083155733888386 -2.4233475217916314 0.1854040234189964 0 0 0
70 14 3 -2.1883538098748607 -2.202466586419965 1.5448327552965042 1 2 0
185 52 4 -2.845337857117121 -2.9466992690847906 1.7218020125584261 1 1 0
177 49 4 3.4048040367373384 -0.5128498588784393 2.8817844047002272 0 1 0
139 37 2 0.26968485711772416 -2.8407593057068667 1.7369314906553992 0 1 0
140 37 4 0.7274588219661112 -2.910914813963072 1.5484804249449184 0 1 0
209 60 4 1.0931136029542172 -3.0730250359016686 1.4909416940076783 0 2 0
208 60 2 1.5776481868455892 -3.1308242854001738 1.3819368625831048 0 2 0
210 60 4 2.0621936254537183 -3.18862705615574 1.272941613240274 0 2 0
17 4 3 -0.8030575127460714 -0.3230182917800839 1.3614393154813074 0 -1 0
18 4 3 -1.4745334850267002 -0.36536608007012006 1.0264168826219153 0 -1 0
16 4 1 -1.2284375088648807 -0.4942685820098394 1.3980485254224673 0 -1 0
19 4 3 -1.2025613893671359 -0.9571225026416241 1.418134875701447 0 -1 0
161 44 4 -1.153210881106488 -1.3404530585539784 1.3174866778928274 -1 1 -1
175 49 2 3.2468244923529244 -0.9855941286234149 2.8421822139338513 0 1 0
30 6 3 2.3903069593949025 -0.9639507357458171 0.2625340339058584 -1 0 0
26 6 1 2.282701014103242 -0.5217674313871503 0.24558516363122238 -1 0 0
29 6 3 2.0211800419699664 -0.4083199243987439 0.6116810359771915 -1 0 0
204 58 4 2.434518933527079 -1.3345326212399165 0.13822614288545793 1 1 0
28 6 3 2.6690855288454 -0.2648588881882875 0.24122736730701194 -1 0 0
102 24 4 1.386503555969933 -1.6067335034211327 3.406522722491851 1 0 -1
145 39 2 -1.9234374456978764 -2.446845244762652 2.366315225481704 -1 2 1
43 9 3 -1.8232456806858228 -2.2964875635640816 3.1464878636467675 -1 0 -2
193 55 2 3.2297704910230984 -2.077421817401835 3.2659449020422846 0 1 1
91 21 2 1.562087642265776 -1.1842223899480637 1.7205345061341415 -1 0 -1
176 49 4 3.0888609717126734 -1.4583410747773915 2.8026158381010853 0 1 0
147 39 4 -2.021233900875535 -2.336210388223204 1.8886380725361869 -1 2 1
141 37 4 -0.18812381019134464 -2.7706525269770634 1.9253990310454265 0 1 0
146 39 4 -1.8256222874765748 -2.5575128549298385 2.844021754355157 -1 2 1
14 3 3 -1.088751297888447 -2.618809328577888 2.3385669141251237 1 -1 1
15 3 3 -0.7233604485385174 -1.9784896984758338 2.491437094954494 1 -1 1
11 3 1 -0.6728451920844056 -2.4193536964301683 2.3890518533056397 1 -1 1
125 32 4 -0.2596992316485863 -2.979770446771432 2.8686725771987036 0 1 1
162 44 4 -0.8170430546850102 -1.6830691834765281 2.1947783421807623 -1 1 -1
12 3 3 -0.44763348839561945 -2.629457418191807 2.7307346413864213 1 -1 1
13 3 3 -0.42727480813659713 -2.463883086380167 1.9978891780489008 1 -1 1
92 21 4 1.3663202407337103 -1.0095040190086149 1.2949168616851032 -1 0 -1
160 44 2 -0.9851223518978621 -1.5117725733724439 1.7561324683445525 -1 1 -1
124 32 2 -0.5857108792058081 -3.2802438262171174 3.099826834028557 0 1 1
181 51 2 1.5688314272470822 -2.0466095729233897 2.462417300628162 -1 0 0
183 51 4 1.285213349039719 -2.455883844642427 2.5077785670558095 -1 0 0
195 55 4 3.1558442638676167 -1.8461689043446547 2.828837115939933 0 1 1
20 4 3 -1.4229747044706176 -0.3329306348547961 1.7768894390194059 0 -1 0
182 51 4 1.852469217473368 -1.637359621359709 2.41703468769449 -1 0 0
93 21 4 1.7578341529856463 -1.358922622869539 2.146151892391491 -1 0 -1
154 42 2 -1.0703679344338044 1.2963228649086445 -2.098349229031947 0 1 0
155 42 4 -1.0825468545825194 1.402430909488847 -2.586810935637473 0 1 0
8 2 3 3.230171540058601 2.980697684511207 -1.2922885799557209 -1 0 1
156 42 4 -1.0582016122920028 1.1902297346789075 -1.609854530729893 0 1 0
135 35 4 -0.6205615151676336 0.856741432644698 -3.216237418044466 0 0 1
37 8 3 -1.2961460376421179 0.06770735416308618 -2.468407853320709 1 1 1
87 19 4 1.4494532704336556 0.18439471727784618 -3.3017010983121087 0 0 0
168 46 4 3.161490014197483 3.158706884658107 -0.9557669384105202 -1 1 0
151 41 2 -2.921843097579461 2.267336515938839 -2.4480175108925875 0 0 0
152 41 4 -2.6520181313071935 2.282658661863669 -2.868712138139946 0 0 0
74 15 3 -1.9156250131341683 3.2703494778273074 -3.257072395986842 0 -1 0
72 15 3 -1.6229668315000816 2.7210644980457674 -2.8357395609880567 0 -1 0
153 41 4 -3.1916027840972183 2.2520264190398365 -2.027324393682242 0 0 0
71 15 1 -1.5683765557090967 3.1573835076424297 -2.9708287202546586 0 -1 0
50 10 3 -0.7756557794322696 1.5575589824594314 -2.7890030230442253 -2 0 0
49 10 3 -0.6375274869395513 2.2973210057956144 -2.8127756358030576 -2 0 0
46 10 1 -0.9018365601113746 1.9529387624276278 -2.9765379530582967 -2 0 0
107 26 4 -0.7648781072294693 2.418349907743155 -2.451349166479319 0 0 0
47 10 3 -1.340861082127537 2.038379835562789 -2.8690028685568616 -2 0 0
106 26 2 -0.5481363481183362 2.868411161722113 -2.429939468278128 0 0 0
73 15 3 -1.162099570331484 3.196363351102486 -3.191546209546905 0 -1 0
132 34 4 0.5448127772917611 1.8959024420549724 -3.065497425542018 0 0 1
174 48 4 2.837958023137084 3.251971345090667 -1.8482967018784076 0 0 1
6 2 1 3.1949407421981366 2.7014971863545574 -1.6611962825497808 -1 0 1
7 2 3 2.966836228484646 2.9226388266492846 -1.9938542405073898 -1 0 1
54 11 3 1.8477431435848328 0.137082149670406 -2.5567921522837063 0 0 1
38 8 3 -0.551424538032922 0.1479961974000056 -2.5305352013462747 1 1 1
79 17 2 -2.9063992030128842 0.030606955592907062 -0.30013047824352607 2 1 0
80 17 4 -3.015344493334896 0.4256532166286028 -0.013637517612582596 2 1 0
142 38 2 2.6416122899469827 2.0550688391051284 -0.7752054055657456 1 0 0
33 7 3 -1.3628651549981114 0.6080344178652649 -0.9546873997109191 1 -1 1
34 7 3 -0.7253455647211972 0.8991754182051125 -0.6606953892573576 1 -1 1
35 7 3 -0.8410979833161898 0.9118164757741294 -1.4045857806804691 1 -1 1
31 7 1 -0.9084977233740247 0.67348139403395 -1.0223968282606517 1 -1 1
32 7 3 -0.7033978737652546 0.26359720884089727 -1.0612998135621745 1 -1 1
117 29 4 -0.5054952001212553 1.1891868662260259 -0.4989411950327201 -1 1 -1
115 29 2 -0.2703480602433875 1.043534256717696 -0.08242158393765135 -1 1 -1
65 13 3 3.2458061901202604 0.7522051036902899 -0.09068485001725787 0 0 1
143 38 4 2.419124016883045 1.9883253834311982 -0.3324302061471329 1 0 0
9 2 3 2.9599179807061393 2.3178611148537116 -1.5476868380178634 -1 0 1
144 38 4 2.8641008774808054 2.121797274841463 -1.2179775015542915 1 0 0
199 57 2 -2.489514449804165 3.3608503011779063 -0.0904294747356671 0 0 0
108 26 4 -0.33140509875631075 3.3184908707281036 -2.408506541128476 0 0 0
10 2 3 -3.228977080668776 2.590465330129523 -1.8122580890287472 0 0 1
128 33 4 3.3900000199326734 1.5741460517300716 0.5120452777086019 -1 0 0
62 13 3 -3.263006305638352 1.2812395996805785 0.3193518831319344 1 0 1
56 12 1 -0.058262828603026916 0.9056584741732089 0.9766809196643168 0 1 0
57 12 3 -0.41042681651217505 0.8761057266230419 1.2711657032285328 0 1 0
59 12 3 -0.1888864819051796 1.1608201799059048 0.6118060103096075 0 1 0
116 29 4 -0.03518448290120419 0.8978585422622556 0.3340978000639328 -1 1 -1
119 30 4 -0.5977536475650856 1.107044515604937 1.5605934034091746 1 -1 0
60 12 3 0.29555877335441055 1.1024656780886768 1.185231944113809 0 1 0
104 25 4 0.20966153422464037 0.5960298636026419 0.4698801085737367 1 0 1
191 54 4 0.5950806297547723 1.3862995593667566 1.208138106976875 -1 0 0
58 12 3 0.05748585292356778 0.478311180661958 0.8378624177141457 0 1 0
103 25 2 0.5822840207620722 0.3545030899478287 0.24005253178978542 1 0 1
190 54 2 0.8136660461264221 1.5922408805775203 0.8083955017908242 -1 0 0
192 54 4 1.032252005305309 1.7982069717483733 0.4086493769425506 -1 0 0
99 23 4 2.2786974593209646 0.7627651646222846 1.6259246005470298 0 0 -1
114 28 4 2.08135089106731 0.5432645108352775 1.334355767224793 0 0 -1
112 28 2 2.5283443886396593 0.5179993572990209 1.1117435893984047 0 0 -1
113 28 4 2.9753094721409745 0.49273353424241356 0.8891158545979131 0 0 -1
64 13 3 3.1405887051352654 0.7684871477630273 0.6546631312353409 0 0 1
127 33 2 -3.1332209634542765 1.9606713831328482 0.48213603281864376 0 0 0
129 33 4 -2.817425740093576 2.3471748116704347 0.4522096985203243 0 0 0
77 16 4 -1.7567457146821994 3.1121011346927654 0.3237296714221699 0 -1 0
184 52 2 -2.8463639582265787 3.3965478217977423 1.7871077693483413 1 0 0
186 52 4 -2.8474074955496746 2.900828355809714 1.852407216885664 1 0 0
178 50 2 3.331429141900972 2.3368384199321106 1.8906724851596608 0 0 -2
179 50 4 -3.074671960423415 2.576296771426547 1.9632869509619997 1 0 -2
76 16 2 -1.2701696462808045 3.18847865635291 0.4098055493085689 0 -1 0
78 16 4 -0.7835827246726029 3.2648658610200245 0.4958557693270248 0 -1 0
170 47 4 -0.41811777522354726 2.502324176385726 0.16296132869524563 0 1 0
169 47 2 0.06313093881419275 2.6362822696903443 0.1846779039962618 0 1 0
133 35 2 -0.49617802494053953 1.1546203415117935 3.2409264009144536 0 0 0
118 30 2 -0.5376064843178124 1.1571350063667185 2.054416727023113 1 -1 0
134 35 4 -0.37176414458086304 1.4524834615306952 2.8590847122641496 0 0 0
120 30 4 -0.4774599421219604 1.207246564889155 2.5482644976707713 1 -1 0
159 43 4 0.7511721140772798 1.87315534087472 2.493724186442541 -1 1 -1
157 43 2 1.0960672430390694 1.522133827551654 2.405304808487202 -1 1 -1
158 43 4 1.4409619512041902 1.1711124447267256 2.316905481237842 -1 1 -1
86 19 4 0.9715188792143115 0.6916818963335127 2.820177741366385 0 0 -1
85 19 2 1.210478545649616 0.43803106822229354 3.1787475050458767 0 0 -1
98 23 4 1.8223253341526173 1.1577979891670986 2.423180524782308 0 0 -1
97 23 2 2.050514673282039 0.9602635267072397 2.024550254392856 0 0 -1
149 40 4 -2.8123236708149477 2.770893385342377 2.697800655156758 0 0 -1
148 40 2 -2.4946652709509545 3.0180361605337067 2.9944666294400384 0 0 -1
48 10 3 -0.8624492219494332 1.928877290213611 3.400717857858304 -2 0 -1
138 36 4 -0.8731655167332513 1.877428703257428 2.998449388343979 0 -1 -1
137 36 4 -0.33928381749201986 2.382551202060241 2.320334481130631 0 -1 -1
136 36 2 -0.606227961861655 2.129980354065483 2.659382152024475 0 -1 -1
130 34 2 0.5999068537031608 2.008952492474866 3.289562831076127 0 0 0
131 34 4 0.6550229711694455 2.1219628390948775 2.805628010927651 0 0 0
180 50 4 2.8985397220031186 2.097371506860868 1.8180686078938186 0 0 -2
201 57 4 -2.0242539926282257 3.243506029066306 0.05020198323220629 0 0 0
105 25 4 0.9548950050899109 0.1129669819838631 0.010249159500271545 1 0 1
150 40 4 -2.1770128950732808 3.2651883754120985 3.2911446982019426 0 0 -1
63 13 3 -3.023493346346069 0.5704064237719778 0.3668175498604576 1 0 1
61 13 1 -3.3961518336444696 0.8410114494098397 0.31017690879149806 1 0 1
171 47 4 0.5443362696993423 2.7702416484847197 0.20639858836255393 0 1 0
126 32 4 -0.9117352328212062 3.258290974763732 3.330978308461887 0 0 1

Velocities

82 0.26174226661082345 -0.09602232203634832 -0.044268478998120406
83 0.21017846612159477 -0.04934977824970325 -0.0432431266743388
189 0.182098750397282 0.2759547859650349 -0.13073734533647896
84 0.29796827772630763 -0.13923718378681874 -0.03757542284417808
44 0.0988615854473671 0.1702365029626199 -0.1534371081955524
42 0.05362043650001068 -0.06585309312418733 0.2714006264640424
75 0.3568540691636521 -0.11441500384877223 -0.2341537760952269
41 0.06499661748833326 -0.031194982423655697 0.04021724195454728
109 -0.054145871615495604 0.07290178271084408 -0.24656709421403242
121 0.006893718294173721 -0.04339087771364031 0.20973071768837845
123 -0.08010681193827322 0.009929290885989917 0.16587421696101246
122 0.07336848727668689 -0.0949710651084085 0.2799749379220118
205 -0.026149625570456338 0.010490430631252073 0.31902279797242644
198 -0.154505054907591 0.11606138947691542 0.10752434802394997
173 0.02910128920672109 0.1353923993061339 0.40590466091379057
172 0.006271466218216008 0.01107066728007957 0.23755424287265106
196 -0.026845353260469804 0.1756275121311775 0.1876947056938733
27 0.2493480862206606 0.015438170352852294 0.10384751956179555
36 0.01696479996355767 0.010527097801698065 0.262617709638981
40 0.1379403502636929 0.0469523002619275 0.05806623362981827
2 -0.26648985976718953 0.38196088265938244 0.20523989114288077
100 0.039647291638658 -0.0342995734301894 0.17396793682402237
5 -0.3599409789940109 -0.09417321579802941 -0.1836692947166243
51 -0.13489054588518257 -0.25042762276886377 0.08817383614953625
52 -0.15852750148607422 -0.1965426888226136 0.0001246805578950733
101 -0.1445559568936608 0.026068847937601558 0.22026266692224258
55 -0.28749423412463637 -0.38992238182820055 -0.15805472641556598
3 -0.05792760729107671 -0.21052838768267315 -0.030748764130657986
1 -0.11405624409152779 -0.0015208590793760867 0.06977946040151095
206 -0.02765290426476303 -0.135914612250053 0.3937430333470005
187 -0.0660721442781108 0.08785621331980618 -0.07164369582859423
164 -0.1410245343607938 0.225696856514666 0.04133250509230925
163 0.14085425705645563 0.08612900345400948 -0.004866469002568261
90 -0.4879054436417734 0.12396056678799275 0.153475144577316
165 0.45979373420599867 -0.09033819194058967 -0.04746481213952415
197 0.07664287785413926 0.22336806106144924 0.2780787914807192
110 0.014418546025265721 0.1758529319811567 -0.5346220818748524
25 -0.09177618130534541 -0.3134875253258241 -0.12842457533230414
23 -0.046247838072075276 0.17517248108564387 -0.026574181478836664
24 -0.19742544286530891 -0.09551823079743504 -0.11410689424840023
188 -0.29442123271409876 -0.08699517853459492 -0.016999285052488416
21 -0.004514375367274297 -0.0907233846250595 -0.0850932735821811
22 0.275806516896072 -0.13257585790130216 -0.05793453123932385
81 -0.26313786022655533 -0.39442329273724297 0.3185087462612394
94 -0.10167419492133004 -0.19329307494756934 0.07058233377794616
95 -0.22816672820842449 -0.40950678715361205 0.05686254713519289
4 0.19851105961159232 -0.06544279917323446 0.3022996240904524
203 -0.31110713006570695 -0.10252869424468451 -0.16758827943663868
111 -0.13223152364354102 -0.013830541517837601 0.027478173112919106
207 -0.03475658556620046 0.15143352482075248 0.25461467767522505
39 0.1128304033161571 -0.18277117167201548 0.27937865432761805
53 -0.003959372205323433 0.07661895608206513 0.12688774282586066
96 0.028634999521288076 0.018844894380411065 0.09236533638749743
166 0.29324056976671764 0.04997032711756644 0.11130904869165674
200 0.026883807907974754 0.5172833295218541 -0.0879277211092301
167 0.2458560765518963 0.05815819625022018 0.14713190103870896
202 -0.24895740201909433 -0.1306958352169768 -0.007460410639345762
194 -0.08106568442124559 -0.06557995653073449 0.4453458861354871
45 0.05242261902571526 0.08582643382193289 0.14944480831521417
68 -0.16880216915625465 -0.12934969460033882 -0.1833611521546575
66 -0.04303505365497003 0.09220239566023535 0.019557278173602952
69 0.13246906149374757 0.09461329336142643 0.07792649520214792
67 0.1389099407679549 0.10375921349404695 0.09376852438153274
89 0.027885942471630835 0.30327832215188816 0.0709889702875212
88 -0.2267118274502901 0.20100513287500285 0.12827935931526535
70 -0.2707315584650019 0.297885400220834 0.08527946273957092
185 0.48786102937757525 0.21852455677867313 0.21448109023789805
177 0.535495086591891 -0.12296072915570908 0.11264411332820409
139 -0.11175487695111791 -0.04596931323728214 -0.048447302119108346
140 -0.14014774045540027 0.23589288334377992 -0.2195166351305462
209 -0.07210219421337935 -0.15362385639348178 0.5148939166749793
208 -0.13504333042191335 0.04660299268657728 0.12933607082347995
210 -0.19899903800175975 0.2466530540535229 -0.24534806624342761
17 0.07919234129181048 -0.045245186930079485 -0.07013143547722087
18 -0.06880135478302417 -0.10426449299497095 0.27925108795840486
16 0.10233271437006575 -0.0018165301351631682 0.1989911922413954
19 0.0958565917627787 -0.0018146047738813794 0.3167841120829297
161 -0.20472551570932515 -0.03278186205958821 -0.004182050687167921
175 0.4402150075650418 -0.08928951125721779 0.046766831225620586
30 0.20932662487133136 0.13882008689345227 0.32981432842274794
26 0.0832693437132492 0.10891288707077498 0.24084777397747703
29 -0.1650362601984995 0.043154725251949286 0.08632099202564898
204 -0.1888601042569852 -0.15384329138263755 0.17144113276367115
28 -0.000501429375587821 0.23088067855518016 0.44185138732200885
102 0.24011982916858193 -0.09866764650011069 0.13697756391301932
145 -0.0727410693884222 -0.06481914394369408 -0.01392419730919164
43 0.0745315898779123 -0.3075918094108368 -0.07716324146096601
193 -0.06715001577036132 0.05188583325710527 0.5058766238390392
91 0.13398896313016506 -0.012415663359558248 -0.005015361646100013
176 0.34612150309798545 -0.046840412781146444 -0.028051475042584182
147 -0.2880873539388104 -0.11149424009495272 0.02590995193836145
141 -0.09669724175979023 -0.33064928732964705 0.12027302011611307
146 0.1271801054289135 0.0001305465573057012 -0.036575120612590765
14 0.20723705574600942 -0.20778586289981624 -0.11350472251182644
15 -0.07787193485618717 -0.0037050619544536523 -0.274874935658305
11 0.10489927523420751 -0.028467177773454703 -0.0721755072625129
125 -0.120455799800568 0.3048684446708599 0.07678133096724449
162 -0.0011400830803687569 -0.1083256402794832 -0.11611971326052595
12 0.0948154325505162 0.18401961051775115 0.08031756616371412
13 0.23703189216596346 -0.11864754072232725 0.010475573960535459
92 0.13811361774196804 -0.033127678311880064 -0.0008103115782555868
160 -0.1078579556357093 -0.07210843087331534 -0.06500460198382334
124 -0.07660994781703157 -0.025384061454515158 -0.28824071863906964
181 0.12084509868126635 -0.08800002093000796 -0.036082507251711596
183 0.3198169389505387 -0.27588387222554756 -0.39898699461187637
195 -0.06212634728040641 0.15784217122093283 0.5634829915628992
20 0.28957107104125623 0.1135592696895181 0.2475522331453183
182 -0.09582903814290471 0.09189408817238492 0.3469959409238387
93 0.15167177999975698 0.019646860503516397 0.0031196061497144496
154 0.16806358840914115 0.00988206652778384 0.14342297101436755
155 0.18463971347664515 -0.10747753527201946 0.11854479642875952
8 0.052615981865250905 -0.37004639377322124 0.3216432834465456
156 0.16725221258897743 0.1333706213259313 0.17624210384711264
135 0.18056243392433974 -0.124027403592963 -0.09017250074096402
37 -0.08871803577068545 -0.06145285718262198 0.43500554497264937
87 -0.09463542462204073 0.08783612741697061 -0.13679454576513894
168 0.3302531586500237 0.07531641755634777 0.08130879376812501
151 0.2404588335436322 0.19712560828440204 -0.2419770055708734
152 0.3726833725606436 -0.11582447669160693 -0.17092525250347843
74 -0.07558374526524775 0.008352863483745273 -0.04076987696433643
72 0.06373845769125754 -0.08506991032874028 -0.2766112949649123
153 0.12194121210386366 0.5188222920151614 -0.31327506949510814
71 0.07849369589485697 -0.08651750028239664 -0.2702625730205468
50 -0.061213779176596844 -0.052664399821121526 -0.16015738680512762
49 -0.01774041871607534 -0.04935107927659321 0.0032276579497682
46 -0.06769828513507198 0.012635733278903548 -0.04927205600115223
107 -0.19800167597772697 -0.21796298287242669 -0.14703813130101226
47 -0.035901754378382125 0.029059833591695457 0.035216797361982646
106 0.054586782806740064 -0.3424630739543437 -0.2205951859943795
73 -0.06903199406787221 -0.1402122469249108 -0.5273524449868713
132 0.11114196119644035 -0.12229937440639817 -0.010854614750434248
174 -0.019002579063382933 -0.08884147746588741 0.07136929500427948
6 -0.04834771032009359 -0.1516027885247171 0.1581744105797937
7 0.10252178657929685 0.1308408113504427 0.24318773988940892
54 -0.10233357551198682 -0.4486140704856366 0.3966034812669544
38 -0.116536915463047 0.2057306055251472 0.2571824269506653
79 -0.12105245217872022 -0.2516409199658853 0.1809978856191589
80 0.05278710880806596 -0.09987688711130283 0.05607335031100479
142 0.25965780111254283 -0.216814699964072 -0.0016577635514388712
33 0.09449713404733882 -0.1187607107027947 0.3419496472156293
34 0.2272563512347098 -0.3801290748839712 0.31541134208011073
35 -0.03560998269029993 0.2049762010251249 0.3823910369158058
31 0.08111255902491481 -0.08478661385150221 0.22682882085056338
32 0.04685057350983177 -0.07674362072434676 -0.17699894126633187
117 -0.27612130415930425 -0.09149715589889656 0.07306735733741793
115 -0.12567744529011676 0.03777192085359593 0.03556579386293338
65 -0.2009499041660441 0.06166806855658876 0.0028394857702776334
143 0.009044605260900989 -0.029697836892628865 -0.08594701880502402
9 -0.2660497356692087 -0.07792662700171832 -0.059872932912163467
144 0.5058661268823978 -0.4057875729988994 0.0815452405980451
199 -0.08050466135440516 0.25426799259380284 0.02979460715970823
108 0.31332072295919383 -0.4531934834961806 -0.2838573140006741
10 -0.09016786016183707 -0.3082494378570888 0.1670447784567186
128 0.22537042375896105 -0.2565139578034206 0.0435092418049111
62 0.01779459093579587 -0.0495344819045883 -0.0410274752911617
56 0.2544957627007067 0.1459085902361147 0.06152414738028022
57 0.17335844329519493 0.14091535622897958 -0.032033144982040046
59 0.3674945443094627 0.17935746847312234 0.030180473181655284
116 0.030628724016131398 0.17903612165537336 0.0003028236648498295
119 0.6912201187355655 -0.1928821842315383 0.18734585326622913
60 0.19912634142160518 0.12461792806486419 0.1739802936753193
104 0.2994398285992931 -0.1454722725834881 0.07855128010950724
191 0.03573630147997744 -0.19584585294683057 -0.1921697765998379
58 0.28605789757768274 0.1447534304006985 0.06045909497172236
103 0.229263899265398 -0.08711648110448766 -0.08070360505229894
190 0.19284737127837662 -0.036185379490242836 -0.013229797189707595
192 0.3619334217118297 0.11962201511701223 0.14420142096885155
99 -0.16228854344420493 0.061245267713240466 0.014060293978697232
114 -0.294184676799868 -0.103200582447629 0.0839404545026633
112 -0.19362421771932273 0.04594326901932582 0.25256119222651013
113 -0.1022469383651084 0.19742468879016176 0.41441748198255257
64 -0.2563303513766195 0.20882455657341958 -0.007104387465427808
127 0.004427787041391592 -0.07359356482464935 0.15524732351358142
129 -0.2111495631162374 0.10780298605199357 0.27092028216462677
77 -0.02731423985325971 -0.6019643721809806 0.33628714205631566
184 0.36461068409250597 0.22942032317882416 0.2394971216491937
186 0.261374105238428 0.22541263072962436 0.2779058881712088
178 -0.16249944020148316 -0.03860174063253895 0.08718635271423938
179 -0.20788937656169007 -0.04327841140997142 0.3790717732349735
76 -0.07448261076868036 -0.0037319098792244544 0.12804148361231177
78 -0.12814924217781845 0.6051722487521871 -0.0782787082424475
170 0.2543418778665352 -0.12074189991713544 0.34362993888091525
169 0.24051179747768586 -0.062209604798285974 0.07885967238340959
133 0.3865356725781467 0.01058780522742761 0.07822308290397423
118 0.24462484547158003 -0.019296396181964375 0.22845424181110477
134 0.5889382290284066 0.13193984213409748 0.24856545953260903
120 -0.17416496775682103 0.15415128173359288 0.25947262638539814
159 0.2127168666967654 0.36575938458423224 -0.3169997580936108
157 0.13313968659631917 0.26490303674345184 -0.199307277493703
158 0.07332008100483545 0.17761433163051393 -0.07620608999139934
86 0.058337288607248 0.2365026123311927 -0.1310632256346557
85 -0.01684292173620778 0.17685086165649017 -0.1366902391275505
98 -0.10900172942187564 -0.18505395297412194 0.16093142851903064
97 -0.14673588645522995 -0.056046187913245386 0.09028137499239312
149 0.058297382408610036 0.24043973906421406 0.06976129159779285
148 0.11305516434246646 0.18040484569335838 0.05601631866789389
48 -0.13142843743395344 0.14243548732982927 -0.05890628629804679
138 0.020557491727939053 0.04632573265667386 0.09102941994288716
137 -0.13483774450129768 -0.11996202515654825 -0.180614778525189
136 -0.048469748364513815 -0.02949002148296195 -0.05118322597832463
130 0.10361803609945686 -0.04760920587329927 0.01603919996526283
131 0.13316958295995343 0.02004917949529441 0.03668766062979619
180 -0.11593249061799053 -0.03796226465367045 -0.20475738217883346
201 -0.19077175153095624 -0.01131194046858963 0.16064992107347364
105 0.14971691892832373 -0.03702377049122668 -0.2406730275606837
150 0.17154595007732004 0.11572875905969615 0.06783608273873142
63 -0.32397605424732806 -0.15845614910908562 0.06967517695900761
61 -0.1968290278233414 0.024861531552847864 0.013335968322794631
171 0.2227405941757392 0.017429679836051225 -0.19130125089039796
126 -0.05110539928750802 -0.3506805892364364 -0.6615749587702554

Bonds

1 1 82 83
2 1 82 84
3 1 41 42
4 1 41 43
5 1 41 44
6 1 41 45
7 1 109 110
8 1 109 111
9 1 121 122
10 1 121 123
11 1 205 206
12 1 205 207
13 1 172 173
14 1 172 174
15 1 196 197
16 1 196 198
17 1 36 37
18 1 36 38
19 1 36 39
20 1 36 40
21 1 100 101
22 1 100 102
23 1 51 52
24 1 51 53
25 1 51 54
26 1 51 55
27 1 1 2
28 1 1 3
29 1 1 4
30 1 1 5
31 1 187 188
32 1 187 189
33 1 163 164
34 1 163 165
35 1 21 22
36 1 21 23
37 1 21 24
38 1 21 25
39 1 94 95
40 1 94 96
41 1 166 167
42 1 166 168
43 1 202 203
44 1 202 204
45 1 66 67
46 1 66 68
47 1 66 69
48 1 66 70
49 1 88 89
50 1 88 90
51 1 139 140
52 1 139 141
53 1 208 209
54 1 208 210
55 1 16 17
56 1 16 18
57 1 16 19
58 1 16 20
59 1 175 176
60 1 175 177
61 1 26 27
62 1 26 28
63 1 26 29
64 1 26 30
65 1 145 146
66 1 145 147
67 1 193 194
68 1 193 195
69 1 91 92
70 1 91 93
71 1 11 12
72 1 11 13
73 1 11 14
74 1 11 15