LAMMPS data file via write_data, version 29 Aug 2024, timestep = 2000001, units = lj

152 atoms
4 atom types
102 bonds
1 bond types

-3.217864 3.217864 xlo xhi
-3.217864 3.217864 ylo yhi
-3.217864 3.217864 zlo zhi

Masses

1 1
2 1
3 0.5
4 0.5

Bond Coeffs # zero

1 0

Atoms # bond

50 16 4 -0.2392361631177591 -3.0023817898206766 -1.8336683204891506 -1 2 -1
62 20 4 -1.8930706661192729 -1.0780747658217618 -1.644787615552347 0 1 2
36 12 2 -2.9668827847088695 -0.5795150063948107 -1.7947652815508635 1 0 2
39 13 2 -0.7876549173936191 -1.459562070256025 -2.7673949157821736 -1 1 0
63 21 2 -0.18982904953310273 -1.0377551226164177 -0.6117725954283164 -1 0 0
30 10 2 -1.5665006987346388 -0.7430449536797135 -2.196594417699133 -1 -1 0
31 10 4 -1.550628363042058 -1.1259499550830043 -1.875452970888083 -1 -1 0
65 21 4 -0.5572876908103134 -1.0917078138383753 -0.2770140943252883 -1 0 0
98 32 4 -0.28587172726616233 -0.37451372097831803 -1.8127301515407366 0 2 -1
41 13 4 -0.8404716818888498 -1.4430003144003394 -2.2704682636177655 -1 1 0
32 10 4 -1.5823730344272198 -0.3601399522764229 -2.5177358645101826 -1 -1 0
61 20 4 -2.085568456491165 -1.4590184649421953 -0.7404500133250624 0 1 2
86 28 4 -2.3024223827454997 -1.270983853662676 -0.49614258498026587 2 0 0
60 20 2 -1.989319561305219 -1.2685466153819787 -1.1926188144387047 0 1 2
38 12 4 -2.701395257897094 -0.3952177328015114 -1.4132539605479884 1 0 2
84 28 2 -2.5941887402594452 -1.2326173537921 -0.09191442624996687 2 0 0
96 32 2 -0.6214304811017357 -0.00932499533683617 -1.7491886895764188 0 2 -1
89 29 4 -2.7941270146605506 -1.3603082835167486 0.6795529779045042 -1 0 0
87 29 2 -3.001069216815639 -1.1008768661794575 1.0535453102665475 -1 0 0
85 28 4 -2.8859550977733908 -1.1942508539215237 0.3123137324803321 2 0 0
88 29 4 -3.2080114189707274 -0.8414454488421664 1.4275376426285908 -1 0 0
81 27 2 -0.10696082711276997 -0.20450782551537813 0.3235016320069734 0 1 -1
106 35 4 -1.6041763949429044 -1.6235889022659564 2.4924911052404393 -1 2 -2
23 7 4 -3.0650110860230844 -0.828615034501086 1.8200364202331738 -1 1 0
146 48 4 -0.8670520740809685 -0.6460142643551968 2.6697138481213347 0 1 -1
105 35 2 -1.3961498008617088 -1.19814626244835 2.6528765671126244 -1 2 -2
107 35 4 -1.1881232067805132 -0.7727036226307439 2.813262028984809 -1 2 -2
144 48 2 -0.37315405351221 -0.5818132220351766 2.7137929978759856 0 1 -1
40 13 4 -0.7348381528983885 -1.4761238261117107 3.171406432053418 -1 1 -1
82 27 4 -0.6003756280384337 -0.15667344307291398 0.3887220742297943 0 1 -1
12 4 2 -2.788130851431817 1.2507513823623602 -2.0726075839345794 0 -1 1
13 4 4 -2.592956394278225 1.369370087732087 -1.627819393880852 0 -1 1
14 4 4 -2.983305308585409 1.1321326769926336 -2.5173957739883073 0 -1 1
54 18 2 -1.829160879584139 0.36353934704314783 -2.5231135688003636 1 1 1
55 18 4 -2.2090437363919415 0.6886158902713098 -2.51933783754163 1 1 1
128 42 4 -1.5516865286328012 2.3196750197718945 -0.7003461963462912 0 -1 1
97 32 4 -0.956989234937309 0.35586373030464574 -1.685647227612101 0 2 -1
48 16 2 -0.4310394051292565 2.9746431368122224 -1.7807248899466994 -1 1 -1
49 16 4 -0.6228426471407538 2.515940063445121 -1.7277814594042482 -1 1 -1
112 37 4 -2.7287413316997005 1.7186528731998378 -1.3489282704336403 2 -1 1
111 37 2 -2.6088165058253154 1.3596716366692292 -1.0222013080355616 2 -1 1
72 24 2 -1.9714594234771197 0.5217796990568491 -0.4509187501796275 0 0 0
73 24 4 -2.2138170884016852 0.7584987567457953 -0.8186507857422123 0 0 0
113 37 4 -2.488891679950931 1.0006904001386208 -0.6954743456374832 2 -1 1
58 19 4 -0.2706798905350581 1.3397574778175225 -1.4418454420681164 0 -1 1
130 43 4 -1.609308369483264 2.530846277485559 -0.3492361367870109 0 1 0
126 42 2 -1.5737557293118183 2.661498136860829 -1.0645850012602824 0 -1 1
127 42 4 -1.5958249299908354 3.0033212539497627 -1.4288238061742737 0 -1 1
148 49 4 -0.4525049001506834 2.710488513829417 -0.66489950799555 0 0 0
57 19 2 -0.4310610649344674 1.8125650592408689 -1.4148108374524566 0 -1 1
59 19 4 -0.5914422393338765 2.285372640664215 -1.3877762328367969 0 -1 1
56 18 4 -1.4492780227763364 0.03846280381498579 -2.5268893000590977 1 1 1
74 24 4 -1.729101758552554 0.285060641367903 -0.08318671461704269 0 0 0
147 49 2 -0.0029013591070863897 2.9043605094849116 -0.5635569938083875 0 0 0
103 34 4 -1.945775793744836 0.20508934050082353 1.7632847542036225 1 0 -2
51 17 2 -3.1093227329960245 0.16811882715802362 1.4300810693580106 -1 1 0
53 17 4 -3.113397116756585 0.0001495364974753166 0.9591567476329237 -1 1 0
4 1 3 -2.402042817752184 2.566639118206987 1.9583515886004574 0 0 -1
104 34 4 -1.5354246255423647 0.20159746947946816 0.8513638554461511 1 0 -2
102 34 2 -1.7406002096436004 0.20334340499014594 1.3073243048248868 1 0 -2
16 5 4 -0.3299610114874436 2.159427845499774 1.5518822511627899 -1 0 -1
5 1 3 -2.245173157639663 2.792755838065386 1.2575212676691967 0 0 -1
2 1 3 -2.1523815682943144 2.0766226667579684 1.4460497851404266 0 0 -1
129 43 2 -1.8756413384025525 2.4445232032487456 0.06502836388970194 0 1 0
131 43 4 -2.141974307321841 2.3582001290119323 0.4792928645664148 0 1 0
1 1 1 -2.411523087402803 2.4514372856475886 1.5089757300340565 0 0 -1
3 1 3 -2.846695076013053 2.356488110692405 1.3789372953144976 0 0 -1
15 5 2 -0.5000016529504082 2.491298013216631 1.2187931158994427 -1 0 -1
17 5 4 -0.6700422944133725 2.8231681809334876 0.8857039806360958 -1 0 -1
28 9 4 -0.4307280617284401 1.7936320900344547 1.5906675272172095 1 0 -1
52 17 4 -3.105248349235464 0.33608811781857184 1.9010053910830973 -1 1 0
27 9 2 -0.08307412829174192 1.4352896510022841 1.617638603474532 1 0 -1
116 38 4 1.0812029783935637 -1.7501857053139647 -2.636618208630712 0 -1 1
119 39 4 0.4635025498220955 -3.207838653700121 -2.82205412418545 -1 1 1
25 8 4 2.210967790425603 -3.018495482206927 -2.374131213020112 0 0 0
11 3 4 0.5654246437756845 -0.8072878828150583 -2.559158812310425 -1 2 0
115 38 4 0.8010239888094148 -0.823355598753764 -2.8865895817290066 0 -1 1
114 38 2 0.9411134836014894 -1.2867706520338644 -2.761603895179859 0 -1 1
9 3 2 0.3278409902771526 -0.51574823937013 -2.2296764244806524 -1 2 0
8 2 4 1.8659497052835228 -0.823457841108233 -3.1233213077182445 1 0 0
35 11 4 3.0858790789443717 -0.49649420185430027 -2.4421128324496113 -2 2 0
33 11 2 3.1281844646755004 -0.08010180547510119 -2.71565922079306 -2 2 0
37 12 4 3.2033576884793558 -0.7638122799881102 -2.176276602553739 0 0 2
10 3 4 0.0902573367786208 -0.22420859592520181 -1.9001940366508796 -1 2 0
136 45 4 1.4595633454850907 -3.0628365153141686 -0.21598334003720515 1 0 0
132 44 2 0.9095593827861896 -0.652075637485333 -0.990594794825602 0 0 1
133 44 4 1.376832225483022 -0.6048494052708246 -1.1621342173177485 0 0 1
134 44 4 0.4422865400893575 -0.6993018696998416 -0.8190553723334554 0 0 1
64 21 4 0.1776295917441079 -0.9838024313944597 -0.9465310965313444 -1 0 0
18 6 2 1.9454031122777335 -0.10418284323546076 -1.1662204721574236 -1 -1 -1
20 6 4 1.7118179418397106 -0.5158730773710678 -1.3273077754094798 -1 -1 -1
44 14 4 1.1968212435817152 -1.7646296406128692 0.2525254543030811 0 1 0
42 14 2 0.9869778343152055 -1.5001110315462762 0.6213013334555291 0 1 0
43 14 4 0.7771344250486957 -1.2355924224796833 0.9900772126079771 0 1 0
123 41 2 1.574315014660849 -0.22348382783056023 0.2722921144037059 0 0 0
125 41 4 1.3476062186985212 -0.4883652397439504 0.6306787205370508 0 0 0
110 36 4 0.5727955217634703 -2.4333156697563787 1.5840716164030453 1 0 1
108 36 2 0.5512342395234257 -2.776923079249048 1.9466582395017633 1 0 1
118 39 4 0.5942331921389489 -2.9346148621961925 2.6606480320335044 -1 1 0
117 39 2 0.5288678709805221 -3.071226757948157 3.1371609539240275 -1 1 0
109 36 4 0.5296729572833812 -3.1205304887417173 2.309244862600482 1 0 1
45 15 2 1.5789408417860966 -0.0129331353742664 3.104954605931283 0 -1 -1
145 48 4 0.12074396705654888 -0.5176121797151563 2.7578721476306365 0 1 -1
22 7 4 2.927869875306043 -1.1807509297834635 2.6445889119486137 -2 1 0
6 2 2 2.3161117140771093 -0.860640326269486 3.097996737671662 1 0 -1
7 2 4 2.7662737228706953 -0.8978228114307389 2.8835867830615687 1 0 -1
21 7 2 3.149293394641479 -1.0046829821422747 2.232312666090894 -2 1 0
83 27 4 0.38645397381289387 -0.25234220795784224 0.2582811897841526 0 1 -1
46 15 4 1.8210998387231048 -0.43795704334295693 3.2084616001752333 0 -1 -1
66 22 2 1.2826901400972137 0.9196425787243447 -2.5837090265890135 -2 1 1
67 22 4 0.9844664469935622 0.8409295390910172 -2.1901777238147377 -2 1 1
94 31 4 0.8174570983885393 0.7401932548161831 -1.8380101884396405 0 0 1
68 22 4 1.580913833200865 0.9983556183576724 -2.977240329363289 -2 1 1
92 30 4 1.9598209588328568 0.9611878232883695 -2.872845156147115 -1 -1 0
90 30 2 2.425433573323175 0.779004021676435 -2.8691094289656154 -1 -1 0
91 30 4 2.891046187813493 0.5968202200645004 -2.8653737017841157 -1 -1 0
34 11 4 3.1704898504066286 0.33629059090409785 -2.989205609136508 -2 2 0
122 40 4 2.278379499264064 1.5298128036073395 -1.7620968227517313 -1 0 1
69 23 2 0.7060309369095285 2.9697465252620194 -2.001193563035317 0 1 0
71 23 4 0.5435309788052014 3.1312399618934594 -2.445618622568346 0 1 0
24 8 2 2.1513428683275806 3.072248834831422 -2.017156245893231 0 -1 0
93 31 2 0.6532849263116676 0.5392091542918152 -1.410631095301144 0 0 1
101 33 4 0.771081604862657 0.4484033872408295 -0.745990236446918 0 0 -1
95 31 4 0.4891127542347957 0.33822505376744727 -0.9832520021626476 0 0 1
99 33 2 0.7491464614548039 0.5540300559047857 -0.2577670739989993 0 0 -1
141 47 2 2.414810633707111 0.9159313928828215 -1.3736835260441458 -1 -1 0
143 47 4 2.4425950133504544 1.4128122180345093 -1.4220309545606853 -1 -1 0
78 26 2 2.0442553570738893 1.2652501093174897 -0.38382429958642916 2 -1 0
142 47 4 2.387026254063767 0.4190505677311339 -1.3253360975276063 -1 -1 0
79 26 4 1.976795969691791 0.9345753239476184 -0.752746266097926 2 -1 0
19 6 4 2.1789882827157565 0.30750739090014617 -1.0051331689053675 -1 -1 -1
124 41 4 1.801023810623177 0.04139758408283009 -0.08609449172963918 0 0 0
70 23 4 0.8685308950138555 2.8082530886305794 -1.556768503502288 0 1 0
80 26 4 2.1117147444559876 1.595924894687361 -0.014902333074932217 2 -1 0
149 49 4 0.44670218193651084 3.0982325051404067 -0.46221447962122514 0 0 0
135 45 2 1.0924309592148536 3.1527907169777762 -0.47438121736220945 1 -1 0
137 45 4 0.7252985729446163 2.932689949269721 -0.7327790946872138 1 -1 0
26 8 4 2.0917179462295583 2.727265151869771 -1.6601812787663501 0 -1 0
120 40 2 2.1508773991919075 1.9811879058102762 -1.5888809701618059 -1 0 1
121 40 4 2.023375299119751 2.432563008013213 -1.4156651175718804 -1 0 1
100 33 4 0.7272113180469508 0.6596567245687419 0.2304560884489194 0 0 -1
139 46 4 0.40508362379924534 0.4544305681533601 0.39703361257515535 -2 0 1
138 46 2 0.3601693820852803 0.6785810318749894 0.8417124635503966 -2 0 1
140 46 4 0.3152551403713153 0.9027314955966188 1.286391314525638 -2 0 1
47 15 4 1.3367818448490882 0.4120907725944242 3.001447611687333 0 -1 -1
29 9 4 0.26457980514495644 1.0769472119701138 1.6446096797318543 1 0 -1
76 25 4 1.4925113323264312 0.4640328862309358 2.6252023559334616 0 0 -1
75 25 2 1.571658459416482 0.7540289763844249 2.2256551122077037 0 0 -1
77 25 4 1.6508055865065328 1.044025066537914 1.826107868481946 0 0 -1
151 50 4 1.867314809714279 1.382304887765849 1.8557682397271165 -1 -1 1
152 50 4 2.157555338959924 2.3381337192441016 1.809382033825467 -1 -1 1
150 50 2 2.012435074337102 1.8602193035049754 1.8325751367762917 -1 -1 1

Velocities

50 -0.06470102410055457 -0.05700806113390147 -0.34939313394004146
62 0.016566762240507793 0.5520197814840043 0.24609203602418236
36 -0.06037449094773032 0.06740342445621925 -5.687456980475259e-05
39 0.026501396243672832 0.017669943555408123 0.004503479830516629
63 0.15052053305342938 -0.29156429091031316 0.14963073682109568
30 -0.31556381350139373 -0.029812565957278093 0.03798222947737505
31 -0.3219354354642686 -0.10857688727686535 -0.05561553045421715
65 0.23607401132579048 -0.4461231694116162 0.218631217343618
98 0.42443895581799146 0.17369158714663555 -0.46813359728024806
41 -0.14453705453101728 -0.06972583056001522 -0.010762898149885385
32 -0.30919219153851885 0.04895175536230915 0.1315799894089672
61 0.12990107492320233 -0.0798701588595764 0.00403875193247108
86 0.3326802298362992 0.5947039422114822 0.305393277539839
60 0.0732339185818551 0.23607481131221386 0.12506539397832664
38 -0.30807522761415723 0.174097561287041 0.1207731372881296
84 0.10244725649088605 0.18824376260158981 0.17779261323625872
96 0.08566287343836228 -0.16952015900844972 -0.284666301902248
89 -0.12256233104891667 0.047176744671846904 -0.0392390143546059
87 -0.10191931325898343 -0.1557603912709052 0.11295710156328025
85 -0.12778571685452705 -0.21821641700830247 0.05019194893267842
88 -0.08127629546905021 -0.3586975272136573 0.2651532174811664
81 0.6983119150281856 -0.2617179572546701 0.8592827951185721
106 0.33609169445170917 -0.26146857010721614 0.2488838630927363
23 0.18846195654116155 -0.4210807142669019 -0.0931819986664849
146 -0.43641511356054224 0.05817373168895961 -0.03014114861376546
105 0.15594404100411252 -0.23582451471178073 0.4145187519739417
107 -0.02420361244348418 -0.21018045931634538 0.5801536408551471
144 -0.4234042681528713 0.07311572515249316 -0.197687990796068
40 0.19753984701836297 0.10506571767083148 0.019769857810918647
82 0.9684658103548967 0.9561949218915817 2.0098395451459505
12 -0.3342304790652205 0.4314174980279467 -0.39421282583167433
13 -1.1294285581232528 0.5275708146398695 -0.0709201335080562
14 0.46096759999281184 0.33526418141602377 -0.7175055181552925
54 0.2194393107887317 0.2690797774303469 0.04168037678707316
55 0.10665757687249414 0.13807988982461766 -0.026877640707098034
128 0.08747341154789777 -0.11210318506751304 -0.04533123917110813
97 -0.25311320894126693 -0.512731905163535 -0.10119900652424801
48 0.013273154322796726 -0.03520329614192696 0.12200837281793493
49 0.09124733274614802 -0.013398531149952483 0.5934098795759113
112 -0.40750556271069827 0.15389652954991123 -0.17867753235794664
111 -0.35411060532381905 0.4429622452545553 0.11932599444140544
72 -0.29470411206387104 -0.023018994728335185 -0.09807991734913697
73 -0.019702898027870452 0.3739720155026166 -0.023768508157219523
113 -0.30071564793693983 0.7320279609591991 0.4173295212407577
58 -0.11221939700462126 -0.09257076728892855 0.24573729561215618
130 0.28070740974457337 -0.021799097867514272 -0.009916323156514929
126 0.08621803366208244 -0.14979196942380976 -0.08062454781379237
127 0.08496265577626712 -0.18748075378010648 -0.11591785645647662
148 -0.36107917777425463 0.1078239954358735 0.15760302104565005
57 -0.06877668889683453 -0.07319667569948059 0.1646255178577475
59 -0.0253339807890478 -0.05382258411003264 0.08351374010333884
56 0.33222104470496927 0.40007966503607617 0.11023839428124435
74 -0.5697053260998717 -0.4200100049592871 -0.17239132654105438
147 -0.2897224727016011 -0.030548817765850934 0.10574310933792284
103 0.5083479781309589 0.582709133529714 1.265323179383845
51 0.014742620442901807 -0.06888125023814877 -0.21718479013152023
53 0.12918203546289408 -0.07419035691593694 -0.2162812547459935
4 -0.495001696189993 -0.04215258375986034 0.22118871264717926
104 -1.9386989230418004 -1.4646598617388826 0.17202725049754508
102 -0.7151754724554205 -0.44097536410458427 0.7186752149406948
16 -0.17075959668020177 -0.12300329412049438 -0.23836307849965083
5 0.07090854581523062 0.030920396779504818 0.37143502311998156
2 0.19513803749527897 0.0682137087763714 0.45195083057406094
129 0.26037643679704575 0.14308475812311722 0.011370736054673326
131 0.2400454638495181 0.30796861411374865 0.03265779526586161
1 -0.02236754664664493 -0.041732916615780054 0.21111018813036708
3 0.14039466143078463 -0.2240464273416453 -0.20045302737945994
15 0.039530234524255047 0.03099967423718372 -0.19227579578334397
17 0.24982006572871182 0.1850026425948617 -0.14618851306703712
28 -0.1945592455853012 -0.41440109579143436 0.057672017869333736
52 -0.09969679457709042 -0.06357214356036059 -0.21808832551704693
27 0.03545782820574661 -0.21663566605967427 -0.2796743278206213
116 0.4794316273090908 -0.22635497860151033 -0.3339400563074281
119 -0.06153874338407051 -0.11678187102115226 0.09758581241809493
25 0.22625622502338735 0.30048249590183684 0.0031267880208385723
11 -0.660584717960458 -0.19830956436492012 -0.15068475445913504
115 0.12954870454159725 -0.31449796453639145 -0.2685874900327243
114 0.30449016592534406 -0.2704264715689509 -0.3012637731700762
9 -0.22159899442909897 -0.1298785598397837 0.10530914532411306
8 -0.11553722790291876 -0.056097331422748614 -0.034350889055176824
35 0.2589785620865581 -0.27988009659341645 0.18667293292222956
33 0.021584310998007682 -0.22108200687615884 0.23946113533528623
37 0.18732624571869694 -0.03929071237460256 -0.12088688642773908
10 0.21738672910225987 -0.06144755531464724 0.36130304510736116
136 0.12298584168623551 -0.07383808663861052 0.010147497125478744
132 -0.1896681346332298 0.3834384567746298 0.03219723328214184
133 -0.08873300076977844 0.3460740472073688 0.29685748447109095
134 -0.29060326849668117 0.4208028663418908 -0.23246301790680704
64 0.06496705478106835 -0.13700541240901015 0.08063025629857337
18 -0.12642945222346982 0.04829486864102374 0.05324296175653657
20 -0.15828358064367132 0.0384635219796718 0.1245590816067278
44 0.47734323104213383 0.09955798473594146 0.2678673365008688
42 0.391960069615018 0.13721476805678468 0.19227124898602949
43 0.3065769081879022 0.1748715513776279 0.11667516147119017
123 0.3044476653567203 0.0821938493206888 0.311296607252353
125 0.13577283559836362 0.19079024470030562 0.2848589534319848
110 0.030566867668234438 0.006898876728483716 -0.2810674076526418
108 -0.020353615374220257 0.20413815553276604 -0.09718040662747972
118 0.0699055349600283 -0.1916077915881073 0.09416468086688695
117 0.004183395787978893 -0.15419483130462977 0.09587524664249093
109 -0.07127409841667497 0.40137743433704853 0.08670659439768241
45 -0.017117178448603013 0.0768494229286721 -0.1297038008792096
145 -0.4103934227452004 0.08805771861602672 -0.36523483297837067
22 0.0641285112537342 0.2911997245706088 0.1442301902914565
6 -0.13929018000773094 -0.2988901810022471 -0.04211655045163541
7 -0.16304313211254304 -0.5416830305817454 -0.04988221184809401
21 0.12629523389744785 -0.0649404948481466 0.025524095812485825
83 0.42815801970147516 -1.4796308364009223 -0.2912739549088067
46 -0.08782509816014333 -0.16983241912059124 -0.9772129210174485
66 0.039232858346481915 0.022085970237103753 0.030420347773770395
67 0.13614530223742916 -0.031155622852026565 0.0932127587552832
94 -0.379785622178039 -0.2837474186066702 -0.15514184875469672
68 -0.05767958554446532 0.07532756332623407 -0.0323720632077424
92 -0.042384751398673697 -0.07405027694977512 -0.11536818886238068
90 -0.07850188080823788 -0.16667053450336802 -0.13071180801143695
91 -0.11461901021780205 -0.2592907920569608 -0.14605542716049322
34 -0.2158099400905427 -0.16228391715890123 0.2922493377483429
122 0.011912773720806999 0.06402961777605973 0.08470034974781193
69 0.32516683504093175 -0.15501713614540152 -0.16166609060995596
71 0.49482107998506003 -0.2817096573007299 -0.26973564542530065
24 0.01140671834636525 0.19946457262860437 -0.1303837511016799
93 0.4875311257480659 0.09262676383603628 0.3550246624411675
101 0.8223333104014128 0.4218138720595407 -0.5068361122847189
95 1.3548478736741711 0.46900094627874284 0.8651911736370318
99 0.7022562604340614 0.6027882583495731 -0.5513846518076999
141 0.12719455132271024 -0.1524927044607899 0.29682275088027527
143 0.2728093190663208 -0.1945872079429239 -0.05211277999529823
78 -0.3790807958322326 -0.23236179801440343 0.10854673470226506
142 -0.018420216420900276 -0.11039820097865591 0.6457582817558487
79 -0.16198443228040488 -0.3373469290020793 0.1629505105415779
19 -0.09457532380326833 0.05812621530237568 -0.01807315809365463
124 0.47312249511507704 -0.026402546058928097 0.33773426107272114
70 0.15551259009680346 -0.028324614990073216 -0.05359653579461125
80 -0.5961771593840602 -0.12737666702672762 0.05414295886295224
149 -0.21836576762894755 -0.16892163096757543 0.05388319763019564
135 0.1688811544372325 -0.1178371088518393 -0.017582750489305205
137 0.21477646718822951 -0.1618361310650681 -0.04531299810408916
26 -0.20344278833065685 0.09844664935537192 -0.2638942902241984
120 -0.1245857527075619 0.09656904009113539 -0.10056753058550413
121 -0.2610842791359308 0.12910846240621107 -0.2858354109188202
100 0.5821792104667101 0.7837626446396054 -0.5959331913306809
139 -0.24438106399333137 0.03893211399004476 -0.49795018307674155
138 -0.311457102779818 -0.2489375973342855 -0.3596178568809235
140 -0.3785331415663046 -0.5368073086586158 -0.22128553068510545
47 0.05359074126293744 0.3235312649779354 0.7178053192590297
29 0.2654749019967944 -0.018870236327914097 -0.6170206735105765
76 -0.17189567850969162 0.7104051960737109 0.6604264099662635
75 0.08248741957746669 0.17797057250767645 0.32437036199915403
77 0.336870517664625 -0.3544640510583579 -0.011685685967955384
151 0.03292891397468071 -0.08354701257661784 0.006547998434363045
152 0.04403526441221087 -0.07310860921172314 0.2911334622192525
150 0.038482089193445784 -0.0783278108941705 0.1488407303268078

Bonds

1 1 36 37
2 1 36 38
3 1 39 40
4 1 39 41
5 1 63 64
6 1 63 65
7 1 30 31
8 1 30 32
9 1 60 61
10 1 60 62
11 1 84 85
12 1 84 86
13 1 96 97
14 1 96 98
15 1 87 88
16 1 87 89
17 1 81 82
18 1 81 83
19 1 105 106
20 1 105 107
21 1 144 145
22 1 144 146
23 1 12 13
24 1 12 14
25 1 54 55
26 1 54 56
27 1 48 49
28 1 48 50
29 1 111 112
30 1 111 113
31 1 72 73
32 1 72 74
33 1 126 127
34 1 126 128
35 1 57 58
36 1 57 59
37 1 147 148
38 1 147 149
39 1 51 52
40 1 51 53
41 1 102 103
42 1 102 104
43 1 129 130
44 1 129 131
45 1 1 2
46 1 1 3
47 1 1 4
48 1 1 5
49 1 15 16
50 1 15 17
51 1 27 28
52 1 27 29
53 1 114 115
54 1 114 116
55 1 9 10
56 1 9 11
57 1 33 34
58 1 33 35
59 1 132 133
60 1 132 134
61 1 18 19
62 1 18 20
63 1 42 43
64 1 42 44
65 1 123 124
66 1 123 125
67 1 108 109
68 1 108 110
69 1 117 118
70 1 117 119
71 1 45 46
72 1 45 47
73 1 6 7
74 1 6 8
75 1 21 22
76 1 21 23
77 1 66 67
78 1 66 68
79 1 90 91
80 1 90 92
81 1 69 70
82 1 69 71
83 1 24 25
84 1 24 26
85 1 93 94
86 1 93 95
87 1 99 100
88 1 99 101
89 1 141 142
90 1 141 143
91 1 78 79
92 1 78 80
93 1 135 136
94 1 135 137
95 1 120 121
96 1 120 122
97 1 138 139
98 1 138 140
99 1 75 76
100 1 75 77
101 1 150 151
102 1 150 152
