LAMMPS data file via write_data, version 4 Feb 2025, timestep = 8500000, units = lj

7750 atoms
4 atom types
5250 bonds
1 bond types
3125 angles
2 angle types

-14.12933 14.12933 xlo xhi
-14.12933 14.12933 ylo yhi
-14.12933 14.12933 zlo zhi

Masses

1 1
2 1
3 0.1
4 0.1

Bond Coeffs # harmonic/omp

1 100 0.45

Angle Coeffs # harmonic/omp

1 100 180
2 100 109.471

Atoms # full

5117 1623 2 0 -8.261892369129448 -13.625659382526894 -13.4354463099297 1 0 1
5118 1623 4 0 -8.611969954328645 -13.653820295758182 -13.166672928581523 1 0 1
5119 1623 4 0 -7.864059276577032 -13.602860342803849 -13.741469445919044 1 0 1
1149 300 4 0 -8.47641818089308 -13.810237142080913 -12.797982136543572 0 0 0
3676 1142 4 0 -2.317065588825454 -13.107436455658732 -13.824984946545802 0 1 1
3674 1142 2 0 -2.2363474035265756 -13.495376194476474 -13.619713110946945 0 1 1
2014 588 4 0 -10.4487060409821 -14.086976722880399 -4.537104030530048 0 0 0
3675 1142 4 0 -2.151578828320108 -13.885644603394102 -13.426175658923533 0 1 1
7522 2424 4 0 -2.0002998157641967 -0.49952012153483755 -1.6217012137306828 0 0 0
1756 502 4 0 -1.8012176686082988 -0.09332690380097909 -3.9828460763357447 0 0 0
5694 1815 4 0 -0.834607825105441 -10.774437348131881 -14.020641446594981 0 0 1
1422 391 4 0 -12.802249953248081 -8.17718765787701 -12.858965465890396 0 0 0
973 241 4 0 -12.80668375997749 -8.519121486449597 -12.617629147586772 0 0 0
1421 391 2 0 -12.345224914050924 -8.039301429137526 -12.837146768634371 0 0 0
1423 391 4 0 -11.906974468529594 -7.900057272191677 -12.81055686943722 0 0 0
7542 2431 4 0 -11.626679028452145 -8.183416047457976 -12.823899639616931 1 1 1
7541 2431 2 0 -11.325615471959408 -8.43240528029124 -12.582972485737065 1 1 1
7543 2431 4 0 -11.047360411533107 -8.663464633329427 -12.360403258260657 1 1 1
2361 704 4 0 -3.36747794132698 -8.222199398580798 -13.214708288553698 0 0 1
2360 704 2 0 -3.6094745666694656 -8.497427966326558 -12.970530365926608 0 0 1
2362 704 4 0 -3.8536747362909796 -8.818069033514437 -12.709442668835333 0 0 1
1341 364 4 0 -3.221221495190341 -7.868523907253717 -13.32279375919315 0 0 0
4438 1396 4 0 -10.161840152880552 -7.282129637141326 -13.479699774893742 1 0 0
7345 2365 4 0 -10.507516808530251 -7.282811733307396 -13.639356606890198 1 1 1
4436 1396 2 0 -10.004477319710562 -7.285716049070404 -13.068795982247954 1 0 0
4437 1396 4 0 -9.847235115661043 -7.289083534040806 -12.665832587177906 1 0 0
1673 475 2 0 -8.477574259824456 -6.719754613197615 -13.151716725797613 0 0 1
1675 475 4 0 -8.725442678716831 -6.995392842048071 -13.43098688503602 0 0 1
1674 475 4 0 -8.251369221631139 -6.46431609345307 -12.899573243213398 0 0 1
6091 1947 4 0 -8.515966763308578 -7.169000603767164 -13.7023077865745 1 0 0
6089 1947 2 0 -8.724257783921452 -7.431823585816412 -14.00054717456772 1 0 0
990 247 4 0 -7.970117672280586 -6.490918653322629 -12.630448396938313 0 0 0
4055 1269 2 0 -5.5067211247255266 -6.645814680319903 -14.013179436172909 0 0 1
4056 1269 4 0 -5.620890225265936 -6.231851647945904 -13.869552705095538 0 0 1
1001 251 2 0 -4.920516319408744 -7.173463785663702 -12.648922199126881 0 0 0
2304 685 4 0 -4.788159810306912 -7.080862531620039 -13.333213884719163 0 0 1
1003 251 4 0 -5.037452834867919 -7.251206188796804 -13.062499273813389 0 0 0
2303 685 2 0 -4.617021711283742 -7.167208269864263 -13.709446574429407 0 0 1
1340 364 2 0 -2.915428850565499 -7.6104271452766765 -13.186388437182979 0 0 0
1342 364 4 0 -2.5962774067624736 -7.3461495632833005 -13.044013829973006 0 0 0
414 83 3 0 -2.49964633194911 -6.993271646449103 -13.261951739301022 0 0 0
5457 1736 4 0 -1.8521121708243833 -6.651880177574721 -13.520863296867395 0 0 1
411 83 1 0 -2.52819502722253 -6.540375094911444 -13.371583635959231 0 0 0
412 83 3 0 -2.8815502539051203 -6.488901486343161 -13.65450629340885 0 0 0
5458 1736 4 0 -1.0438391782274563 -6.299862276181309 -13.857410613999058 0 0 1
5456 1736 2 0 -1.4713153994916333 -6.486041691839019 -13.677937288905701 0 0 1
5334 1695 4 0 -0.7080966473561547 -6.3775212593668025 -13.675793691028389 0 0 1
5932 1894 4 0 -11.653117699551832 -4.735243133407549 -13.786011517226681 1 0 1
5620 1790 4 0 -11.852431211088929 -4.842289365630392 -14.12811972538595 1 0 1
5227 1659 4 0 -5.936519972556881 -4.95474249946604 -13.220019437876003 0 0 1
4301 1351 2 0 -5.748737319266498 -5.584587507164134 -13.681478663498318 0 0 0
4303 1351 4 0 -5.676427569842058 -5.860937411199486 -14.017515011207179 0 0 0
4302 1351 4 0 -5.826681876467846 -5.2988394764959 -13.349390093998828 0 0 0
5486 1746 2 0 -3.186913993988291 -5.849674056248483 -13.940119190709472 0 0 1
415 83 3 0 -2.1639020406813883 -6.405505107229032 -13.574972688559301 0 0 0
413 83 3 0 -2.5869858520594313 -6.306492953700136 -13.007708653289486 0 0 0
5488 1746 4 0 -2.881196411157873 -6.100812020292951 -13.736813953943432 0 0 1
1894 548 4 0 -2.4304928504430663 -5.932562754556618 -12.8798758590095 0 0 1
5908 1886 4 0 -3.01771011420715 -5.144122413892316 -13.757068301958798 0 0 1
5333 1695 2 0 -0.4037809067884365 -6.106329018415926 -13.51036304440365 0 0 1
5335 1695 4 0 -0.0868364697293635 -5.826444825902818 -13.345901569188978 0 0 1
5281 1677 4 0 -0.23653622598519652 -5.483914281604025 -13.298656196004321 0 0 1
5279 1677 2 0 -0.18985932726662313 -5.096767775898839 -13.086171478094643 0 0 1
5930 1894 2 0 -11.189854809826217 -4.695455881529856 -13.755968915438858 1 0 1
5931 1894 4 0 -10.741236295399265 -4.66253086475057 -13.718888550419939 1 0 1
5826 1859 4 0 -10.473868218283803 -4.472156308553279 -13.950173839691384 1 0 1
5225 1659 2 0 -5.757810755750253 -4.551988912966153 -13.238128819718968 0 0 1
5226 1659 4 0 -5.5783391403822 -4.131230288213009 -13.242313077489248 0 0 1
4507 1419 4 0 -5.579079452689441 -3.7669901494073006 -13.386936528659907 0 0 0
4505 1419 2 0 -5.847891285864163 -3.4368014253157577 -13.566437941019524 0 0 0
5906 1886 2 0 -2.796906978867172 -4.792314872373141 -13.827917936504114 0 0 1
5907 1886 4 0 -2.5452846143646424 -4.405775601849113 -13.914505165259119 0 0 1
5721 1824 4 0 -2.4606918382209853 -4.035092321433488 -13.729133599874094 0 0 1
5720 1824 2 0 -2.1173370167721624 -3.7613444681802557 -13.817379141211463 0 0 1
5722 1824 4 0 -1.780501685104667 -3.4852341469577315 -13.912944331262507 0 0 1
5592 1781 4 0 -1.4142070230478148 -3.427191987462862 -13.783139512137684 0 0 1
2559 770 4 0 -1.3906517362710948 -3.61991969867872 -12.654317675906848 0 0 0
1775 509 2 0 -0.7802719568433926 -4.1930365398050045 -12.895599025422793 0 0 1
1776 509 4 0 -0.45473130726263367 -4.465891906585543 -12.968232672898855 0 0 1
5280 1677 4 0 -0.13014723416098853 -4.707448601192472 -12.877991714179053 0 0 1
2063 605 2 0 -2.9877606491757116 -14.122700382445469 -5.106936585487694 0 0 0
3444 1065 4 0 -9.583835238887543 -1.4951578935324323 -13.074911592463787 0 0 1
2591 781 2 0 -8.824325095147412 -1.709260856041313 -12.83531232467549 0 0 0
2592 781 4 0 -9.222790296667215 -1.5185486354515516 -12.896810914132939 0 0 0
2593 781 4 0 -8.406016070636996 -1.912981910482489 -12.7689829193962 0 0 0
886 212 4 0 -8.095941644349917 -1.9119929378637819 -12.5043480832962 0 0 0
7568 2440 2 0 -6.39303911803165 -2.5239931829380486 -13.553008452800936 1 0 1
7570 2440 4 0 -6.423423147891886 -2.0762232237189133 -13.626749260308596 1 0 1
884 212 2 0 -7.674519519573696 -2.0833792842681214 -12.55993734428163 0 0 0
885 212 4 0 -7.269319238744323 -2.2453030231441975 -12.60691240904071 0 0 0
5356 1702 4 0 -6.579806039884818 -1.979207494861258 -13.973736905691391 0 0 1
4506 1419 4 0 -6.0993556551339205 -3.109556337880576 -13.73794990113447 0 0 0
7569 2440 4 0 -6.360846283313544 -2.935237639865609 -13.483150966267587 1 0 1
1786 512 4 0 -4.9741727716321815 -2.39582940412737 -12.601672049969903 0 0 1
1784 512 2 0 -4.707277407137294 -2.274630001389159 -12.92652414600839 0 0 1
1785 512 4 0 -4.439394183008592 -2.140720654580116 -13.256205869310264 0 0 1
4722 1491 4 0 -4.373298304665674 -1.7784706278475497 -13.366055350415213 0 0 0
5099 1617 2 0 -1.2146449889533717 -1.5262549547867401 -12.920001837607886 0 0 1
5591 1781 2 0 -1.2354457870568931 -3.0818521333244044 -13.941619337463482 0 0 1
5593 1781 4 0 -1.0395556323124036 -2.69788386870571 -14.109307465412229 0 0 1
1942 564 4 0 -1.3341070060426845 -2.429433190184017 -14.108121387818189 0 0 1
1090 280 4 0 -9.810026399506524 -0.5526247376327803 -12.691363981996568 0 0 0
3445 1065 4 0 -10.036192098049806 -0.7607750719766518 -12.961272229471154 0 0 1
3443 1065 2 0 -9.80700343313799 -1.129488636628611 -13.019006361822415 0 0 1
4732 1494 4 0 -0.01253164435430103 -2.6062291412658354 -5.369966787233338 0 0 0
4721 1491 2 0 -4.245677977504062 -1.4290245456017696 -13.60591283713386 0 0 0
4723 1491 4 0 -4.1131967656403114 -1.0676584723579832 -13.863598866032962 0 0 0
4911 1554 4 0 -4.154923788052619 -0.786030676495129 -13.583018087857832 0 0 0
4910 1554 2 0 -4.06327934589806 -0.4124797299250862 -13.362859381309198 0 0 0
3106 952 4 0 -1.9770582011363276 -0.27225284797652227 -13.322681804154607 0 0 0
3104 952 2 0 -1.6716244260785142 -0.5866916617281654 -13.375899481070013 0 0 0
295 59 3 0 -2.249294964144623 -0.18661226963524616 -13.024209833956979 0 0 1
5100 1617 4 0 -1.253203453374797 -1.2211695519409702 -13.210434382553974 0 0 1
3105 952 4 0 -1.377106304054304 -0.8920131929317686 -13.420806109826161 0 0 0
1148 300 2 0 -8.456499973203679 -13.805197009041654 -12.335739640001039 0 0 0
1150 300 4 0 -8.445047600555677 -13.809652482484015 -11.882330576897033 0 0 0
691 147 4 0 -8.280908806239921 -13.537786207243562 -11.629503277742229 0 0 0
689 147 2 0 -8.402654002025216 -13.466963739066601 -11.19274064030503 0 0 0
3209 987 2 0 -11.214587644464231 -9.40889941555055 -12.1257366506078 0 1 0
3210 987 4 0 -11.182780900335038 -9.817454164739202 -11.935317810729396 0 1 0
2839 863 4 0 -11.19731580671472 -10.164728803592082 -11.678653091528703 0 1 0
2837 863 2 0 -11.069181106207491 -10.560775657241793 -11.472844898053339 0 1 0
2838 863 4 0 -10.945715782083186 -10.951529385920836 -11.275594474919416 0 1 0
2076 609 4 0 -3.3770415279043755 -9.321693998028797 -11.72986455871603 0 0 1
4364 1372 2 0 -2.756187278395975 -9.498005583235406 -11.384145826142792 0 0 0
4366 1372 4 0 -3.037188776262726 -9.219539505342967 -11.574174325022815 0 0 0
4365 1372 4 0 -2.4941468211252804 -9.759384761945222 -11.21523853928062 0 0 0
4771 1507 4 0 -2.145854873133043 -9.752821641194162 -11.008865866151705 0 0 0
971 241 2 0 -13.23083553053457 -8.561897685532971 -12.439607450065374 0 0 0
972 241 4 0 -13.645429011877829 -8.60939576129297 -12.279028794488179 0 0 0
2037 596 4 0 -13.913295847337011 -8.545385316458669 -12.003802178591329 0 0 1
2036 596 2 0 -14.108487491859515 -8.71565442628663 -11.625891263989244 0 0 1
3211 987 4 0 -11.247895117214505 -9.010244812931202 -12.315730275590004 0 1 0
3771 1174 4 0 -9.904075510648417 -7.921512528072883 -11.70604462044725 0 0 1
6123 1958 4 0 -9.927884436909089 -7.786141756175478 -11.334840336785696 1 0 0
850 200 4 0 -8.174819348619447 -9.020649029622042 -11.563705091484323 0 0 0
848 200 2 0 -8.042505825146613 -8.724941870549314 -11.219236343822054 0 0 0
2077 609 4 0 -3.8095964221746796 -9.164330970148724 -12.495714102650592 0 0 1
2075 609 2 0 -3.600596904424417 -9.246868092666608 -12.128251393079514 0 0 1
3772 1174 4 0 -9.594896512706805 -7.389324760518915 -12.341279542590408 0 0 1
3770 1174 2 0 -9.746854175732938 -7.654421983013345 -12.025721625101843 0 0 1
989 247 2 0 -7.839866798592398 -6.755320712426452 -12.266047319144109 0 0 0
991 247 4 0 -7.713738770631939 -6.997748824083855 -11.911496687362902 0 0 0
5287 1679 4 0 -7.752963043283275 -7.179041908009534 -11.572079003525726 1 0 0
5285 1679 2 0 -7.654978928752418 -7.278843537143554 -11.1395284858988 1 0 0
1051 267 4 0 -5.249749846061761 -6.920158108649679 -11.275612912966704 0 0 0
1049 267 2 0 -4.913884062421486 -7.0506018160531365 -11.555099227198971 0 0 0
1002 251 4 0 -4.7752964785032885 -7.100101791230781 -12.197857640339684 0 0 0
1050 267 4 0 -4.586358274773267 -7.175389040908892 -11.833941018105007 0 0 0
4562 1438 2 0 -3.8849446416708746 -6.7170302619262685 -11.093460227729238 0 0 0
4564 1438 4 0 -3.5544976630850798 -6.99095312453117 -11.251329280735643 0 0 0
4563 1438 4 0 -4.2238033940366995 -6.440045298727466 -10.932379697406777 0 0 0
4540 1430 4 0 -3.17043812979394 -7.073100339115191 -11.287951633142676 0 0 0
4539 1430 4 0 -2.288223090502474 -6.938033903834068 -11.239052452986753 0 0 0
4538 1430 2 0 -2.6979862090114515 -7.007893363896128 -11.260183249794405 0 0 0
3042 931 4 0 -1.8997721388926967 -6.978162012266403 -11.21188815073855 0 0 0
3041 931 2 0 -1.6094785227267538 -6.632064581652442 -11.129356696732277 0 0 0
3043 931 4 0 -1.3235999047259956 -6.296451598750387 -11.047061607422455 0 0 0
1638 463 4 0 -10.386866358392297 -5.954623488050127 -11.170096590669306 0 0 0
1637 463 2 0 -9.937178468896791 -6.071638711328925 -11.090907563858272 0 0 0
1639 463 4 0 -9.480982444110024 -6.191736293430613 -10.995859759174978 0 0 0
829 193 4 0 -4.558932364478522 -6.242476335219906 -10.850848343495525 0 0 0
1892 548 2 0 -2.486808872186603 -5.801220366832242 -12.444960028258883 0 0 1
1893 548 4 0 -2.5412059504844926 -5.681004868050547 -12.037769934787425 0 0 1
5808 1853 4 0 -2.3475268902766144 -5.517228887461057 -11.737831521109452 0 0 1
5807 1853 2 0 -2.161427830541686 -5.177302651629513 -11.485585256888816 0 0 1
5809 1853 4 0 -1.9735389025078995 -4.830409421298499 -11.22994704198726 0 0 1
4203 1318 4 0 -1.7183324853898723 -5.070362150044454 -11.048784660503776 0 0 0
996 249 4 0 -7.474661929838798 -4.104256790694651 -11.425915656355585 0 0 0
995 249 2 0 -7.453242693686704 -4.206824337044687 -10.979046293249128 0 0 0
2558 770 2 0 -1.4264669021444596 -3.238659410320783 -12.38702177149132 0 0 0
1777 509 4 0 -1.1229665183269326 -3.9017019115927467 -12.830850264507733 0 0 1
5098 1616 4 0 -13.749416821161498 -3.042496903946981 -11.53132729319618 1 0 1
6337 2029 4 0 -13.803976792408903 -2.7971341196892276 -11.220682140188112 1 0 0
1076 276 2 0 -6.856704035494365 -2.9080074655678176 -11.125286818195233 0 0 0
68 14 3 0 -6.942237333764117 -2.2954608518880386 -12.391805624325663 0 0 0
67 14 3 0 -6.898120395595635 -2.391790982079582 -11.677788487928028 0 0 0
1077 276 4 0 -6.876359498523372 -2.7573794687816493 -11.548996921129758 0 0 0
66 14 1 0 -6.68666160118095 -2.2351202602544498 -12.006496045950017 0 0 0
69 14 3 0 -6.592451359520562 -1.7909618428171372 -11.944331569024238 0 0 0
70 14 3 0 -6.316359208551458 -2.4634211200290443 -12.046019632696288 0 0 0
1863 538 4 0 -5.12181189210834 -2.3485584697874664 -12.227927352020826 0 0 1
1862 538 2 0 -5.537979389923908 -2.466524893462821 -12.088643267840693 0 0 1
1864 538 4 0 -5.9413281699499905 -2.5792189172800595 -11.934267447706485 0 0 1
5101 1617 4 0 -1.179646257746558 -1.8519451867693704 -12.612693891031638 0 0 1
5492 1748 2 0 -0.13761300980384975 -2.335507874532388 -12.114096077800399 0 0 1
5493 1748 4 0 -0.49609012032613564 -2.590334755290812 -11.894510684361945 0 0 1
2560 770 4 0 -1.4704012900822092 -2.875020941592965 -12.125836912917038 0 0 0
49 10 3 0 -1.5362948158781111 -2.5506162744494354 -11.908991304845399 0 0 0
46 10 1 0 -1.2034747784814552 -2.24506228928363 -11.950178403357615 0 0 0
50 10 3 0 -0.8362326687420083 -2.4099827949922896 -11.759756792736802 0 0 0
47 10 3 0 -1.122439951380653 -2.170787074794785 -12.375704644598642 0 0 0
48 10 3 0 -1.3213518767580168 -1.8790117809619782 -11.758147391533855 0 0 0
1704 485 4 0 -1.1440822918469855 -1.6024729935278916 -11.555683684986382 0 0 1
1088 280 2 0 -9.92668828424715 -0.2646805168164382 -12.3435861085598 0 0 0
1068 273 4 0 -6.7642936863811425 -1.4849906567808269 -11.673566076094644 0 0 0
1067 273 2 0 -6.720356691189801 -1.0380555139688528 -11.656081589918998 0 0 0
765 172 4 0 -6.686144493066252 -0.39545393455674466 -11.977991805959096 0 0 0
1069 273 4 0 -6.678845824052051 -0.5811495806803654 -11.639558300395805 0 0 0
764 172 2 0 -6.781383735816025 -0.15502214367908507 -12.333001134931328 0 0 0
3033 928 4 0 -13.923489522340118 -12.997767029946386 -9.779128346127123 0 1 0
3039 930 4 0 -13.770504137570153 -12.768617870315625 -10.062577255197683 0 1 0
690 147 4 0 -8.511541263100886 -13.397452156328882 -10.778143824821965 0 0 0
5268 1673 4 0 -8.641248585055221 -13.439664684202464 -10.400412855665584 0 0 1
5267 1673 2 0 -8.929521245451658 -13.26797967732876 -10.11176317071535 0 0 1
5269 1673 4 0 -9.211620544760358 -13.099530618466162 -9.818880365883908 0 0 1
4450 1400 4 0 -9.35107174830948 -12.872753565408024 -9.512857883673611 0 0 0
3038 930 2 0 -13.991408724231588 -12.415417333721598 -10.310339570720865 0 1 0
2012 588 2 0 -10.113388052920127 -14.115099261510283 -4.84451320201546 0 0 0
969 240 4 0 -14.116965193470941 -11.6813842537757 -10.555876466306586 0 0 0
4769 1507 2 0 -1.9313229749270657 -9.812204810592915 -10.625734368886533 0 0 0
4770 1507 4 0 -1.7076255256116055 -9.869944485534637 -10.241241144047269 0 0 0
1708 486 4 0 -1.6581050387515393 -9.85543109965208 -9.839028703283558 0 0 1
1706 486 2 0 -1.2554318393268475 -9.923795705382066 -9.649807634479822 0 0 1
1012 254 4 0 -10.189105262479773 -8.13444107744947 -9.431904579906758 0 0 0
6122 1958 2 0 -9.934642980818953 -7.866353161268982 -10.897040861864332 1 0 0
1010 254 2 0 -10.23028722377507 -7.97372361157681 -9.844635521290927 0 0 0
849 200 4 0 -7.905029949370101 -8.449759561058341 -10.89606406497623 0 0 0
32 7 3 0 -7.65518417530368 -8.485174939441112 -10.58486210764941 0 0 0
31 7 1 0 -7.616433192589448 -8.092359523642191 -10.355116621814227 0 0 0
35 7 3 0 -7.2636762956830605 -8.124976414898178 -10.04539179831461 0 0 0
5632 1794 4 0 -6.8952378230338685 -8.007192495450735 -10.160443154091574 0 0 1
34 7 3 0 -7.99055461660209 -8.005410197776664 -10.135249172765729 0 0 0
5630 1794 2 0 -6.4968738627288225 -7.91402647442605 -10.366395152737864 0 0 1
45 9 3 0 -12.632739393624206 -6.534776615234634 -9.618205815052306 0 0 0
4956 1569 4 0 -12.860315092490925 -6.324911157668233 -9.868002589364568 1 0 0
1011 254 4 0 -10.274403544838513 -7.815209003603185 -10.264457027771973 0 0 0
6124 1958 4 0 -9.94734918458162 -7.947027910943231 -10.455708122370739 1 0 0
1177 309 4 0 -9.172317484043393 -5.95712680774442 -10.898274565353981 0 0 0
1176 309 4 0 -8.535655325457645 -6.477014283553029 -10.466624877226588 0 0 0
1175 309 2 0 -8.858133619523564 -6.2174358509991166 -10.683789839936821 0 0 0
943 231 4 0 -8.334713988566637 -6.763212248897268 -10.248664112874302 0 0 0
941 231 2 0 -8.201818085851084 -7.18725191870717 -10.143971059436593 0 0 0
942 231 4 0 -8.074576529349478 -7.618614578855664 -10.028439745749518 0 0 0
33 7 3 0 -7.53169281089883 -7.756770769450563 -10.631767331683639 0 0 0
5286 1679 4 0 -7.549353358840301 -7.374318667448961 -10.68777511236539 1 0 0
424 85 3 0 -5.309963686885177 -7.228017916926943 -11.033236967040036 0 0 1
5631 1794 4 0 -6.086690127918347 -7.821029736701054 -10.580716665976942 0 0 1
425 85 3 0 -5.880277979802503 -7.471455397665688 -10.643088905857782 0 0 1
421 85 1 0 -5.513538421275205 -7.191322792004134 -10.6469205151306 0 0 1
423 85 3 0 -5.646835535821273 -6.766010779104003 -10.588668953337823 0 0 1
422 85 3 0 -5.225192249694958 -7.300286700408873 -10.319522857196455 0 0 1
1224 325 4 0 -4.92085576475193 -7.499006554036444 -10.15185561672373 0 0 0
1433 395 2 0 -3.60529701810227 -7.769753685607974 -9.47987131177567 0 0 0
1435 395 4 0 -3.8514956048084867 -7.464335415897076 -9.66918814786701 0 0 0
1225 325 4 0 -4.064773737800528 -7.246483457034257 -9.920506083440763 0 0 0
1223 325 2 0 -4.49883273499943 -7.3788163545619225 -10.038257539139787 0 0 0
1471 407 4 0 -1.0390385403563307 -6.133738463128369 -10.790346646034198 0 0 0
4955 1569 2 0 -13.012604896293388 -5.957223827773547 -10.128318865703202 1 0 0
4957 1569 4 0 -13.163300125838163 -5.620023705213872 -10.378573615795515 1 0 0
4932 1561 4 0 -13.20991068061499 -5.2805785568884485 -10.114604523419763 1 0 0
4931 1561 2 0 -13.498381177560429 -4.949063373692371 -10.31938585264189 1 0 0
4615 1455 4 0 -10.95579311662326 -5.085330618255943 -10.486123918396578 1 0 0
1309 353 4 0 -11.265455275876018 -4.812236406478309 -10.444811617544856 0 0 0
4614 1455 4 0 -10.471596113085141 -5.763445057005741 -10.826779059746187 1 0 0
4613 1455 2 0 -10.709070407623564 -5.436182845056369 -10.656495902423464 1 0 0
827 193 2 0 -4.432006185852253 -5.908956566119178 -10.55560142342044 0 0 0
2293 681 4 0 -4.1544265481101466 -5.602131540826631 -9.888244148746846 0 0 1
828 193 4 0 -4.302357243779294 -5.58522673834105 -10.263060991928558 0 0 0
2291 681 2 0 -3.787536955773206 -5.36367096706214 -9.711214197396492 0 0 1
4202 1318 2 0 -1.5684754958338487 -4.856591548587801 -10.616640385408767 0 0 0
1469 407 2 0 -0.8518489909853598 -5.758314013560389 -10.72675998299672 0 0 0
1470 407 4 0 -0.6639617514026408 -5.37116983458222 -10.642541374000341 0 0 0
1594 448 4 0 -0.5764748414742542 -5.3712223480417896 -10.242361196115946 0 0 0
1592 448 2 0 -0.49519449875037336 -4.901803718053 -10.140459273670926 0 0 0
4933 1561 4 0 -13.760318604671195 -4.643635062599779 -10.512706376286902 1 0 0
4675 1475 4 0 -13.917168102230288 -4.335192730483693 -10.304362007044762 1 0 0
1307 353 2 0 -11.383573372588353 -4.695654331453269 -10.008859454174686 0 0 0
1308 353 4 0 -11.500933724539495 -4.573109765300966 -9.551002049063392 0 0 0
692 148 2 0 -7.83159423794934 -4.349638860948603 -9.915462193233248 0 0 0
693 148 4 0 -8.008082200290378 -4.152449707341796 -9.52862025276195 0 0 0
694 148 4 0 -7.669591348709048 -4.537381366026473 -10.285162406344156 0 0 0
997 249 4 0 -7.422417040801757 -4.312881780297219 -10.51990071943401 0 0 0
1367 373 2 0 -6.808518826586515 -3.5753501644916774 -10.206343866609902 0 0 0
1368 373 4 0 -6.974376624157762 -3.4097033700885215 -10.579958838173315 0 0 0
1369 373 4 0 -6.635996486027535 -3.7409690403878297 -9.830566176304906 0 0 0
1078 276 4 0 -6.836283117628622 -3.0599143399858244 -10.716016826252723 0 0 0
2835 862 4 0 -7.353604204207256 -3.2866011690266492 -9.418388738544452 0 0 0
5627 1793 2 0 -1.8479230441624144 -4.6191530331057375 -9.513398016082203 0 0 1
4204 1318 4 0 -1.4334352069671765 -4.655983752751332 -10.212336096749247 0 0 0
5628 1793 4 0 -1.5559986103410248 -4.627347616726393 -9.846199448684727 0 0 1
4831 1527 4 0 -0.31447026613717116 -4.067429111575765 -9.952417949037265 0 0 0
1593 448 4 0 -0.4248515984920855 -4.457127276031855 -10.038586725476991 0 0 0
4829 1527 2 0 -0.3468811906243764 -3.986068633654083 -9.51794588395101 0 0 0
6335 2029 2 0 -13.521109250374256 -2.696140393827555 -10.900394522709965 1 0 0
6336 2029 4 0 -13.224084198577026 -2.5953503712345567 -10.566845604593793 1 0 0
5299 1683 4 0 -12.903943217136543 -2.440722274121358 -10.377544616509821 1 0 1
5297 1683 2 0 -13.025687386543375 -2.4375771814438387 -9.964735423897578 1 0 1
5298 1683 4 0 -13.165847131323737 -2.4295997930184186 -9.522504411344638 1 0 1
1703 485 2 0 -1.1322945352139864 -1.593914891639885 -11.082781541098345 0 0 1
4630 1460 4 0 -2.811706666589846 -1.2662781837272847 -0.9342946648666549 0 0 0
2086 612 4 0 -12.295130646221716 -0.6169512802357898 -9.904594648720193 0 0 1
2084 612 2 0 -12.21986373899385 -0.8952084637808843 -9.547300586646465 0 0 1
1693 481 4 0 -12.067999250573598 -0.27887215676493826 -9.912940243589826 0 0 1
1705 485 4 0 -1.1099397831208313 -1.5740064054078322 -10.65411927812909 0 0 1
213 43 3 0 -0.7738078146648927 -1.38181329357212 -10.50735461422156 0 0 0
212 43 3 0 -0.2403649785716237 -1.585208251903069 -9.98513382811597 0 0 0
2081 611 2 0 -0.15761843488558877 -0.37771459506600125 -10.932440367527557 0 0 1
214 43 3 0 -0.6226784146019143 -0.9706363737195269 -9.896108006605061 0 0 0
211 43 1 0 -0.4369402136370585 -1.226530073298507 -10.193591266214037 0 0 0
215 43 3 0 -0.11940741388585077 -0.9804731500289103 -10.427027580104822 0 0 0
1206 319 4 0 -0.8803329463718771 -1.00946165899354 -9.592205297321556 0 0 0
2082 611 4 0 -0.30967451626087855 -0.7181490571198171 -10.706717790020127 0 0 1
1205 319 2 0 -1.0990003171465452 -0.5976937929503587 -9.562004503641841 0 0 0
1023 258 4 0 -14.053925144941129 -13.422634871062877 -8.660356338109128 0 0 0
3032 928 2 0 -13.944133355592228 -13.071989027792307 -9.362061919495064 0 1 0
3034 928 4 0 -13.961974414465722 -13.144521141475 -8.907826228644668 0 1 0
5129 1627 2 0 -10.00791027365226 -12.89932595290888 -8.109146496175551 0 0 1
5131 1627 4 0 -9.768129219792852 -12.60567890420375 -8.315006529313179 0 0 1
4449 1400 4 0 -9.709184233404278 -12.719636979478286 -8.715841018143317 0 0 0
4448 1400 2 0 -9.539245232558669 -12.793051416196166 -9.094317310789215 0 0 0
2595 782 4 0 -0.21143712381261023 -13.94654010787875 -8.230808294315453 0 1 0
1029 260 4 0 -5.636870651264344 -11.691801215663531 -8.266045964064157 0 0 0
1028 260 2 0 -5.944400355322431 -11.742132866085191 -8.556519376396526 0 0 0
3930 1227 4 0 -5.482377238737515 -11.958190248282268 -8.033848170258889 0 0 0
1030 260 4 0 -6.265263815811223 -11.794852540673142 -8.863326727063745 0 0 0
1083 278 4 0 -4.021343432053099 -11.795707211964162 -8.619999236842698 0 0 0
1084 278 4 0 -3.341169445527121 -12.203051698707997 -8.270497277750241 0 0 0
1082 278 2 0 -3.682116216980629 -11.996384781700572 -8.445956276699581 0 0 0
2658 803 4 0 -4.1476223851763825 -11.484159574037225 -8.851109264484172 0 0 0
2657 803 2 0 -4.385732062104581 -11.159091949461585 -9.040180561812862 0 0 0
898 216 4 0 -3.241771073639688 -12.079183843103758 -7.888200807064615 0 0 0
1558 436 4 0 -12.3193620806608 -9.128733335404352 -8.897036549313167 0 0 1
2907 886 4 0 -11.133622707753158 -9.552405756609588 -8.130962882891508 0 1 0
2906 886 2 0 -10.898106304333483 -9.918806025215455 -8.125702973920252 0 1 0
2908 886 4 0 -10.666769609731816 -10.307223680139126 -8.116197748441564 0 1 0
763 171 4 0 -8.589192434723607 -10.578090882957374 -8.035869549954104 0 0 0
761 171 2 0 -9.012160689839419 -10.71430327273149 -7.919485107647339 0 0 0
6211 1987 4 0 -8.330068062536032 -10.498061692475579 -8.320006112428533 0 1 0
6209 1987 2 0 -7.8814769184979045 -10.421720305519052 -8.227171417346883 0 1 0
774 175 4 0 -6.159616975754021 -9.909580945618668 -8.09043158832425 0 0 0
6210 1987 4 0 -7.427479322935094 -10.344634403014071 -8.131032464036343 0 1 0
7335 2362 4 0 -6.375388983710465 -9.829471896588402 -7.735351566353406 0 1 1
934 228 4 0 -4.892210140378045 -10.522549414149214 -9.277399564025153 0 0 0
932 228 2 0 -5.112201490731731 -10.123675774280605 -9.151164873144833 0 0 0
933 228 4 0 -5.3425458523426155 -9.734662921617968 -9.03464331169655 0 0 0
773 175 2 0 -5.883708323856405 -9.813693658932117 -8.442495891272523 0 0 0
775 175 4 0 -5.63183093572917 -9.723091974933105 -8.765020357667582 0 0 0
2659 803 4 0 -4.6320099733107 -10.830384412827957 -9.23554920212457 0 0 0
1707 486 4 0 -0.8401083754579806 -9.992707946197312 -9.446577352069255 0 0 1
1056 269 4 0 -0.6339493752430104 -9.712413279576952 -9.273587830562454 0 0 0
1055 269 2 0 -0.27965774105191227 -9.605297122974948 -9.04628022753909 0 0 0
1445 399 2 0 -13.013073789097534 -7.883196677772485 -9.154977088205742 0 0 0
1446 399 4 0 -13.12685304601569 -8.311240856327876 -9.249351021163037 0 0 0
1557 436 4 0 -13.023120464485968 -8.693687879957524 -9.234333510604893 0 0 1
1556 436 2 0 -12.672709961507223 -8.913661667862234 -9.067244871388343 0 0 1
2824 858 4 0 -12.014377185454778 -9.347578433909222 -9.003075844493637 0 1 0
2822 858 2 0 -11.749265186115311 -9.42782265293 -8.667550756307891 0 1 0
2823 858 4 0 -11.472577186491142 -9.509147143303128 -8.334656971032306 0 1 0
735 162 4 0 -9.98533825315716 -8.201913812977535 -8.188557773506902 0 0 0
734 162 2 0 -10.026943069077477 -8.255887731881657 -8.636961295303147 0 0 0
736 162 4 0 -10.075261517933221 -8.321954391836845 -9.095174348760041 0 0 0
1434 395 4 0 -3.3401138284556513 -8.092825866029612 -9.281160469866354 0 0 0
1125 292 4 0 -3.0340054597151 -8.287518259496993 -9.086715083938383 0 0 0
1124 292 2 0 -2.8031365808713278 -8.27105773600917 -8.696975640821984 0 0 0
1126 292 4 0 -2.5662543713363513 -8.26265340810176 -8.30289984479682 0 0 0
931 227 4 0 -2.5240993027021754 -7.925128291091463 -8.115854434030643 0 0 0
44 9 3 0 -12.737172995833692 -7.135223489265822 -9.200505808338198 0 0 0
41 9 1 0 -12.807745662317474 -6.6853053162712 -9.232336420459594 0 0 0
1447 399 4 0 -12.909819876695906 -7.482138884667182 -9.066477723092671 0 0 0
1009 253 4 0 -13.613062537591984 -6.513645862683182 -9.282448036353232 0 0 0
42 9 3 0 -13.22795353171107 -6.5992239066553395 -9.216352969841001 0 0 0
1007 253 2 0 -13.957841806433178 -6.806095715286006 -9.180931022415084 0 0 0
43 9 3 0 -12.59744954024038 -6.47638391426108 -8.866079906918861 0 0 0
2881 877 4 0 -12.645242623788697 -6.321823765177672 -8.506631542654617 0 1 0
1266 339 4 0 -3.118294661966485 -6.157670925820987 -8.9282258880041 0 0 0
4209 1320 4 0 -11.853849665637796 -4.790114994443462 -9.502504694816707 1 0 0
4208 1320 2 0 -12.12234021388676 -4.980727510011978 -9.193124727150522 1 0 0
2879 877 2 0 -12.47340058251152 -5.9060906031315366 -8.591178395370985 0 1 0
2880 877 4 0 -12.299909596200516 -5.501985322200353 -8.677518105123463 0 1 0
4210 1320 4 0 -12.391701508203052 -5.166178107662209 -8.887925963464102 1 0 0
6039 1930 4 0 -9.506556854883998 -4.869878436966929 -7.888691665309081 1 0 0
2292 681 4 0 -3.4442035219849676 -5.152712225585019 -9.550993157698501 0 0 1
1147 299 4 0 -3.2833372537853545 -4.995646298099975 -9.208769921908782 0 0 0
1265 339 2 0 -3.30494792382265 -6.15304232031089 -8.530674081410105 0 0 0
1267 339 4 0 -3.4897268760580378 -6.157715685779294 -8.127546420177309 0 0 0
1145 299 2 0 -2.850525580257502 -4.947005163256669 -9.294062207206771 0 0 0
1026 259 4 0 -2.7656031278505178 -5.942233377089833 -8.904765848724427 0 0 0
1025 259 2 0 -2.297147280976536 -5.949217228401669 -8.921294762740057 0 0 0
1027 259 4 0 -1.8311827561566763 -5.948458781403665 -8.942328301763991 0 0 0
2703 818 4 0 -1.5295821264388019 -6.101941903248933 -9.147718483925035 0 0 0
1146 299 4 0 -2.419051984446036 -4.8876149932392785 -9.386020174095139 0 0 0
2702 818 2 0 -1.2155191648846062 -5.939852201635426 -8.825839206835692 0 0 0