LAMMPS data file via write_data, version 4 Feb 2025, timestep = 800000, units = lj

7750 atoms
4 atom types
5250 bonds
1 bond types
3125 angles
2 angle types

-14.12933 14.12933 xlo xhi
-14.12933 14.12933 ylo yhi
-14.12933 14.12933 zlo zhi
3.552713678800501e-14 0 0 xy xz yz

Masses

1 1
2 1
3 0.1
4 0.1

Bond Coeffs # harmonic/omp

1 100 0.45

Angle Coeffs # harmonic/omp

1 100 180
2 100 109.471

Atoms # full

5185 1645 4 0 -3.5254176997228637 -13.543834835857652 -13.320542620414383 3 0 1
883 211 4 0 -3.1922712363460217 -13.744796417011276 -13.347138166089577 2 0 0
881 211 2 0 -2.7589457234373818 -13.841289930509312 -13.469535416944497 2 0 0
5119 1623 4 0 -2.156347557852996 -13.58230928736464 -13.612512778427922 3 0 1
882 211 4 0 -2.353873182651956 -13.933743770699005 -13.580860074451296 2 0 0
5117 1623 2 0 -1.7207257251585908 -13.490216126507695 -13.627247751067816 3 0 1
5118 1623 4 0 -1.294255572039404 -13.400339941598856 -13.645206854272216 3 0 1
1149 300 4 0 -0.9625840252961062 -13.353533984607122 -13.386150578068012 2 0 0
1148 300 2 0 -0.7388291565867267 -12.972815030918293 -13.249860928861246 2 0 0
672 141 4 0 -9.634191262550626 -10.289659974900317 -13.6347180538204 3 0 0
654 135 4 0 -9.444374425678554 -10.333871094642646 -13.289465752018115 3 0 0
671 141 2 0 -9.48097204359279 -10.376320574601106 -14.003736770749807 3 0 0
6897 2216 4 0 -0.5486966285241568 -10.580703652228616 -13.296924149495766 11 1 1
5153 1635 2 0 -0.9763370024766189 -9.546588060684853 -14.093456769466787 5 0 1
3789 1180 4 0 -0.2374077553589995 -9.659233538285534 -14.091407304462624 4 0 1
5155 1635 4 0 -0.5911569636814793 -9.579312106068238 -13.931571990994335 5 0 1
1892 548 2 0 -4.22663830695107 -8.010941525143396 -14.111556471795234 5 0 1
1893 548 4 0 -3.8716720356507146 -8.336133532649551 -14.126270758594044 5 0 1
1340 364 2 0 -5.3524782816135055 -7.144430956186013 -13.354901836329757 5 0 0
1342 364 4 0 -5.201329225761395 -7.086129686387179 -13.763419272382372 5 0 0
1894 548 4 0 -4.563339815581886 -7.7064267501928505 -14.091695655129683 5 0 1
1297 349 4 0 -2.349152663144322 -7.610353437354887 -13.387709338178622 5 0 0
4204 1318 4 0 -2.5396559581323146 -7.34478233262979 -13.604521418313789 5 0 0
4202 1318 2 0 -2.5320352048681762 -7.471374677648313 -14.030905303915379 5 0 0
6527 2093 2 0 -0.6678763356672714 -6.364335674863095 -13.865765558655617 6 0 0
6528 2093 4 0 -0.5510698149816964 -6.520808637524052 -13.443533565471636 6 0 0
1001 251 2 0 -11.131396713831426 -4.980752549302554 -14.046407654468592 5 0 0
1002 251 4 0 -10.687018802266127 -4.9180393683069035 -13.958884871855654 5 0 0
1050 267 4 0 -10.277273462404825 -4.84927471517674 -14.005372224977496 5 0 0
1049 267 2 0 -9.947148393018415 -4.978113698837314 -13.71546340067133 5 0 0
1051 267 4 0 -9.63583148460981 -5.094503141866841 -13.436758857838408 5 0 0
5908 1886 4 0 -0.31929705600427916 -4.924114012168335 -13.4601022828486 6 0 1
5100 1617 4 0 -0.6204953533274313 -5.145418664185993 -13.332922330258423 6 0 1
1223 325 2 0 -8.756504755223595 -3.682191530354107 -13.353228934421479 5 0 0
1564 438 4 0 -8.038790444655671 -3.5480337941524613 -13.688401852017586 7 0 1
2102 618 2 0 -5.5122075972374205 -3.675711953555586 -13.91565523768803 5 0 1
1642 464 4 0 -3.6789599816181457 -4.167384402680257 -14.01697710885376 5 0 1
675 142 4 0 -4.028755020830165 -4.339414494860403 -14.100080064001459 5 0 0
1640 464 2 0 -3.407621091543268 -3.818917397539918 -13.970167316823074 5 0 1
5663 1805 2 0 -12.612733231942416 -2.790997763764487 -13.247602088218388 8 0 0
4907 1553 2 0 -11.546060428736878 -2.7977571813148465 -13.401344796199108 8 0 0
1225 325 4 0 -8.424496920043728 -3.4702790082023576 -13.583908182890609 5 0 0
1562 438 2 0 -7.672253471951069 -3.5276114370411467 -13.964091647448708 7 0 1
850 200 4 0 -6.123349722342571 -3.3741386332679895 -13.458488227962706 5 0 0
2104 618 4 0 -5.7863440598348905 -3.5256696146232542 -13.620238682882732 5 0 1
1641 464 4 0 -3.1193540422193315 -3.4479786072051013 -13.919322564570358 5 0 1
5418 1723 4 0 -3.4603316393027264 -2.717004450230043 -13.71177334096977 6 0 1
1435 395 4 0 -3.1724993512505844 -2.854164527507539 -13.947794203244374 5 0 0
1776 509 4 0 -0.05976618596971406 -3.4633164221287096 -13.914134688757375 6 0 1
1775 509 2 0 -0.2701090565230473 -3.4289067807425653 -13.529417381875685 6 0 1
4909 1553 4 0 -11.264528302758915 -2.583587930682114 -13.656645286197772 8 0 0
1468 406 4 0 -10.960831356465683 -2.3897121266302452 -13.849587760451175 8 0 0
5417 1723 2 0 -3.4900992222586673 -2.644887346852933 -13.277555252693395 6 0 1
1693 481 4 0 -12.87651944885413 -0.45765580557858243 -13.778221383223974 8 0 1
1691 481 2 0 -12.93312385324668 -0.3464320075506411 -13.355688124842978 8 0 1
4951 1567 4 0 -12.6528451268385 -0.1641138738425223 -13.984770450027314 3 -1 0
5183 1645 2 0 -3.6603633014179664 -13.150769042539757 -13.243657299617507 3 0 1
5184 1645 4 0 -3.8047253513849117 -12.736705970483584 -13.169769343761699 3 0 1
2217 656 4 0 -3.503855447854173 -12.507634019200166 -13.027564397403095 3 0 1
1150 300 4 0 -0.5058943041612363 -12.583613687785045 -13.109344307720146 2 0 0
691 147 4 0 -0.49884839406144543 -12.65460611130113 -12.729015166528866 2 0 0
689 147 2 0 -0.2718720301416724 -12.384066824297033 -12.46170746971887 2 0 0
2216 656 2 0 -3.250253924456244 -12.168748607663824 -12.948436253907186 3 0 1
2218 656 4 0 -2.986072550516303 -11.821218009545 -12.870796285744916 3 0 1
3561 1104 4 0 -2.6140144726289893 -11.812960988042187 -12.668106352603823 3 0 1
3560 1104 2 0 -2.2265612816116924 -11.565266192560571 -12.755579869046608 3 0 1
1404 385 4 0 -13.96895478544107 -11.098095431630906 -12.962734097092875 2 0 0
1403 385 2 0 -13.600289685064245 -11.206879998692726 -12.752741127664585 2 0 0
1405 385 4 0 -13.208246649513415 -11.320518649099387 -12.544183536848013 2 0 0
5332 1694 4 0 -12.8404541886467 -11.37413095835413 -12.702380176799302 3 0 1
5330 1694 2 0 -12.524127123077927 -11.164523570046576 -12.499733074833106 3 0 1
3696 1149 4 0 -11.978984032424012 -10.639768785290334 -12.380540956089362 3 0 1
3562 1104 4 0 -1.8765001341394 -11.337071463884199 -12.832858400587485 3 0 1
4345 1365 4 0 -1.6331143541440998 -11.014730797975803 -12.74270268681483 3 0 0
4343 1365 2 0 -1.2408481590577303 -10.902386099130034 -12.903921692307843 3 0 0
4344 1365 4 0 -0.8307166119756602 -10.779123533846738 -13.06981615021952 3 0 0
6896 2216 2 0 -0.13280259039783715 -10.667905907630223 -13.189980397075695 11 1 1
655 135 4 0 -9.274601781732002 -10.457927739876382 -12.421848961882755 3 0 0
653 135 2 0 -9.357862955526308 -10.391349481382031 -12.863066013941259 3 0 0
1341 364 4 0 -5.513178922916909 -7.202962758033745 -12.930984138359241 5 0 0
2361 704 4 0 -5.7224514281291015 -7.209322906631473 -12.571002766228492 5 0 1
1295 349 2 0 -2.029377372896761 -7.6473130207137325 -13.039291788908843 5 0 0
1296 349 4 0 -1.734238588439922 -7.672504474634776 -12.715969173304318 5 0 0
1057 269 4 0 -1.4949223697972442 -7.436883345576536 -12.470405236722371 5 0 0
3120 957 4 0 -0.26792450602411577 -6.617381199311378 -13.185823131626448 6 0 0
3119 957 2 0 -0.05054602540816333 -6.298379789845874 -12.912932268977377 6 0 0
3210 987 4 0 -11.054996180168228 -5.327134905224991 -12.705807073982662 12 1 0
7541 2431 2 0 -12.574684900366284 -5.247772659187056 -12.458654595967863 13 1 1
7543 2431 4 0 -12.242622047674907 -5.250964022023339 -12.760831281753166 13 1 1
3211 987 4 0 -11.916771643207714 -5.084457670580743 -12.627082721592766 12 1 0
3209 987 2 0 -11.487236691113257 -5.209841043420996 -12.66486452792685 12 1 0
2839 863 4 0 -10.729563918814973 -5.177608624871226 -12.537103628991225 12 1 0
2837 863 2 0 -10.322174530623604 -4.99400239364323 -12.605660255841078 12 1 0
2838 863 4 0 -9.919613762312345 -4.806044868337041 -12.675873735156904 12 1 0
424 85 3 0 -9.404891557855603 -5.013751670595063 -13.128801248236568 5 0 1
423 85 3 0 -9.601210057441701 -4.627447862564011 -12.51468058189598 5 0 1
421 85 1 0 -9.28031758198097 -4.678957917895941 -12.846654322625325 5 0 1
425 85 3 0 -8.856138261880595 -4.794984007738428 -12.645113365510596 5 0 1
5631 1794 4 0 -8.439880892264593 -4.745112101461782 -12.676396068709785 5 0 1
5630 1794 2 0 -8.003843987303476 -4.660385311793121 -12.625155272859121 5 0 1
5632 1794 4 0 -7.570932544369092 -4.562208851599827 -12.580249008093933 5 0 1
35 7 3 0 -7.182534042216822 -4.686224122588303 -12.53861521178181 5 0 0
33 7 3 0 -6.47179979626478 -4.707894139006449 -12.381261455761761 5 0 0
31 7 1 0 -6.802413861333973 -4.4434108821274485 -12.492281318695799 5 0 0
5286 1679 4 0 -6.07376562949122 -4.63006188177099 -12.364842417337167 6 0 0
46 10 1 0 -1.906566623638934 -4.4335672353433 -12.485757336079374 6 0 0
47 10 3 0 -1.5815584879620612 -4.670881932580464 -12.751880628875758 6 0 0
5101 1617 4 0 -1.4104791347832961 -4.7001257952365485 -13.129821575553585 6 0 1
5099 1617 2 0 -1.0265569217644757 -4.925450067981952 -13.230784509048055 6 0 1
7265 2339 2 0 -13.87221335843745 -3.9708746073493426 -12.450508806870264 14 1 1
7267 2339 4 0 -13.4067735253475 -4.041751405213484 -12.38572520788365 14 1 1
2700 817 4 0 -13.01077359897143 -3.9593091498521353 -12.392727179459854 6 0 0
422 85 3 0 -9.243351515571145 -4.285243034274025 -13.072039867224568 5 0 1
1224 325 4 0 -9.09594603685597 -3.9004879372063694 -13.122021078248828 5 0 0
32 7 3 0 -6.698795673660951 -4.2319465177184625 -12.886447441713191 5 0 0
849 200 4 0 -6.67690219488218 -3.840058676931781 -12.9136433797419 5 0 0
848 200 2 0 -6.398965151500981 -3.606908340367937 -13.187302473937034 5 0 0
989 247 2 0 -4.315731001526766 -4.3867507496216405 -12.432316876441405 5 0 0
990 247 4 0 -3.8791422115950525 -4.371088505937804 -12.492329484261278 5 0 0
5494 1748 4 0 -3.5464816161799817 -4.313494867100317 -12.706493665427134 6 0 1
5492 1748 2 0 -3.082509907810591 -4.317132742254035 -12.618020875272181 6 0 1
50 10 3 0 -2.3103668390862317 -4.403721965493752 -12.718328114712325 6 0 0
5493 1748 4 0 -2.6471767752892106 -4.324364975710937 -12.5378153264804 6 0 1
2560 770 4 0 -1.4098855479850343 -3.954159338353117 -12.578778433358616 6 0 0
2558 770 2 0 -1.1318580427531355 -3.7579212896363288 -12.853677392055443 6 0 0
49 10 3 0 -1.7542329051861767 -4.026410244283909 -12.405173592647362 6 0 0
2559 770 4 0 -0.8598855623541493 -3.5560234235146133 -13.10985061536918 6 0 0
7411 2387 4 0 -13.29640914116439 -2.915462447959536 -12.950602671821953 8 0 1
7409 2387 2 0 -13.741407444334806 -2.9236933658718716 -13.083519877847051 8 0 1
5665 1805 4 0 -13.027351232369588 -2.8601077663704153 -13.243087974527546 8 0 0
5664 1805 4 0 -12.134816772585285 -2.727461803921585 -13.24586402148041 8 0 0
4908 1553 4 0 -11.829038055897813 -3.013909403898918 -13.16218468477553 8 0 0
1777 509 4 0 -0.48463962164853136 -3.3885639462929547 -13.142742554664968 6 0 1
1637 463 2 0 -4.149009421682415 -2.4223699101047593 -12.387417662026857 5 0 0
1638 463 4 0 -3.7789782390356663 -2.399270418334332 -12.59930961968164 5 0 0
5419 1723 4 0 -3.5131819327193536 -2.5723765719546066 -12.819621453037467 6 0 1
502 101 3 0 -7.182809823395684 -0.9304365499658456 -12.50041215124371 8 0 0
4989 1580 4 0 -3.474542381233311 -1.0266770737248816 -12.377095101461398 8 0 0
1692 481 4 0 -12.990752069196063 -0.23653176844339718 -12.944040204842029 8 0 1
7539 2430 4 0 -13.198043325679055 -0.3919196636666076 -12.639885906095406 9 0 1
828 193 4 0 -8.89436729977949 -0.725320555643016 -12.364107044546264 7 0 0
5312 1688 2 0 -8.120392484543036 -0.34010946040102574 -12.449885385163022 8 0 1
5313 1688 4 0 -8.528425048382825 -0.544204693622433 -12.434888261394626 8 0 1
5314 1688 4 0 -7.715838296815026 -0.13342689603842395 -12.472602107338126 8 0 1
505 101 3 0 -7.327651785893786 -0.20532654047274335 -12.367521140570705 8 0 0
501 101 1 0 -6.9949145825961505 -0.5240474834045532 -12.430235302258898 8 0 0
504 101 3 0 -6.739418872957459 -0.40326282795168567 -12.79844374611793 8 0 0
6276 2009 4 0 -6.54047075494272 -0.14118416719758642 -13.005473526588846 8 0 0
3481 1077 4 0 -2.2302801572870354 -0.020639857243571313 -12.8859516810652 8 0 1
3406 1052 4 0 -0.8107730694059221 -0.19945524708729678 -13.074192846296278 8 0 1
3404 1052 2 0 -0.3371949677875712 -0.15964135553322834 -13.116432247923157 8 0 1
690 147 4 0 -0.0010560636308838411 -12.080184363555505 -12.15031794744117 2 0 0
5331 1694 4 0 -12.208479837931396 -10.949358784088684 -12.29117544699073 3 0 1
55 11 3 0 -9.179861722559579 -10.763074704794187 -12.157627245559384 3 0 0
7345 2365 4 0 -6.911072496712637 -10.670105744701488 -11.742262394022696 12 1 1
4438 1396 4 0 -6.592312299179451 -10.819123476443682 -11.552721531971521 4 0 0
3695 1149 2 0 -11.576722345304512 -10.396092569607383 -12.334818037764204 3 0 1
3697 1149 4 0 -11.224825017993485 -10.179685421066186 -12.287725625844129 3 0 1
5196 1649 4 0 -10.880312245129172 -10.411357017930243 -12.268830405873489 4 0 1
5195 1649 2 0 -10.454569671400764 -10.471866910922529 -12.200491122174682 4 0 1
5197 1649 4 0 -10.028800247727904 -10.53188945359313 -12.150311701000575 4 0 1
53 11 3 0 -9.772080363913943 -10.381954293898655 -11.888490885975969 3 0 0
51 11 1 0 -9.374084658725875 -10.594777763623032 -11.778465978927896 3 0 0
54 11 3 0 -9.080063669514946 -10.294558934131262 -11.596678398695513 3 0 0
7344 2365 4 0 -7.6861795441432195 -10.269297670009502 -11.567358342636464 12 1 1
7343 2365 2 0 -7.2981654946865975 -10.477671303634406 -11.658612635670943 12 1 1
1470 407 4 0 -5.331972150647431 -9.96736405549841 -11.76804337666581 4 0 0
1055 269 2 0 -1.5434659442138106 -7.303712176410722 -12.052623411199223 5 0 0
1056 269 4 0 -1.6008713977357854 -7.1489748363059515 -11.608379321179715 5 0 0
2360 704 2 0 -5.493245512881474 -6.970461550761366 -12.283180743028534 5 0 1
2362 704 4 0 -5.236115036517882 -6.711304906573119 -11.973488863846153 5 0 1
2077 609 4 0 -4.863805308131415 -6.704013835559199 -12.117823176031413 5 0 1
2075 609 2 0 -4.666185543732366 -6.3960278206699535 -11.863478632118694 5 0 1
2076 609 4 0 -4.45768877981946 -6.073848599083675 -11.614285564548895 5 0 1
1205 319 2 0 -0.14477738285184572 -5.528899476154933 -12.022347762134617 6 0 0
7542 2431 4 0 -12.912443021550995 -5.245881844869762 -12.14405536373384 13 1 1
405 81 3 0 -13.107185743916498 -5.187313985956285 -11.78833142571452 6 0 0
2701 817 4 0 -12.570476997365313 -4.491531611586826 -11.767204618082266 6 0 0
404 81 3 0 -12.536523930635882 -4.828717707834562 -11.558360057823657 6 0 0
5285 1679 2 0 -5.627447644571742 -4.572095543141394 -12.352236883484949 6 0 0
5287 1679 4 0 -5.18387578155405 -4.51310113578916 -12.332472523308335 6 0 0
48 10 3 0 -1.97226698110547 -4.65068030851919 -12.097544770378784 6 0 0
1704 485 4 0 -1.7575883153659255 -4.6684892402949 -11.754028825593952 6 0 1
1206 319 4 0 -0.34587914006756826 -5.2482473302823465 -11.726620348394047 6 0 0
214 43 3 0 -0.23311929546472854 -4.851444770331444 -11.722660918054046 6 0 0
2699 817 2 0 -12.79221916684557 -4.219941641221217 -12.087545072782987 6 0 0
34 7 3 0 -6.8552847418216585 -4.135441865130193 -12.164833353353957 5 0 0
942 231 4 0 -6.5331792388391206 -3.9107250748870257 -12.04360701631984 5 0 0
941 231 2 0 -6.1497385461741345 -3.658194430206219 -12.040191453830715 5 0 0
991 247 4 0 -4.787481968209569 -4.407147325789024 -12.362813619965502 5 0 0
212 43 3 0 -0.3591679629145812 -4.139058162797269 -11.59799490732958 6 0 0
943 231 4 0 -5.768713290811741 -3.405448371520695 -12.031775487610469 5 0 0
1176 309 4 0 -5.406276471661558 -3.405739217376917 -11.865468055934038 5 0 0
1175 309 2 0 -5.154632330509557 -3.059964856091451 -12.01455935136441 5 0 0
1177 309 4 0 -4.904733953982138 -2.704685620707755 -12.166545182554584 5 0 0
4560 1437 4 0 -13.553618169041858 -2.004290471214869 -11.578894870080838 8 0 0
692 148 2 0 -8.484789754229695 -1.9224465649438187 -11.545347199077142 7 0 0
694 148 4 0 -8.186770142581764 -1.8694588131827157 -11.871192568444458 7 0 0
1639 463 4 0 -4.570940236660652 -2.444654182372968 -12.156149030089388 5 0 0
2293 681 4 0 -13.261566660356602 -1.7258144470254368 -11.482514358682934 7 0 1
829 193 4 0 -9.58635657656308 -1.105944605031672 -11.994394328752039 7 0 0
827 193 2 0 -9.239188851700852 -0.9185916272232184 -12.178847038533396 7 0 0
5007 1586 4 0 -8.203139749557742 -1.6770031343976939 -12.208251809499393 8 0 0
5008 1586 4 0 -7.45095277675686 -1.1677985130416673 -12.297052535456368 8 0 0
5006 1586 2 0 -7.820303059317565 -1.4218917023137152 -12.25644783811671 8 0 0
4400 1384 2 0 -5.988543134407694 -0.9586317890796021 -12.152417890586127 8 0 0
4402 1384 4 0 -5.5855546180660305 -1.129791597704612 -12.152984933761005 8 0 0
5323 1691 4 0 -5.35171648472175 -1.4006268034877039 -12.28653580100384 8 0 1
5321 1691 2 0 -4.896239587676655 -1.3134387374273189 -12.278715868327572 8 0 1
5322 1691 4 0 -4.466566627551364 -1.2327564597577823 -12.274086633336525 8 0 1
4988 1580 2 0 -3.8943014136931247 -0.9441992203588434 -12.274199210013977 8 0 0
925 225 4 0 -3.1015284657247246 -0.9151031334968884 -12.332004248589978 7 0 0
7538 2430 2 0 -13.158530008035592 -0.1579467529309646 -12.239565845628043 9 0 1
503 101 3 0 -6.733363291650778 -0.5371786566084591 -12.074140292163245 8 0 0
4401 1384 4 0 -6.405796982579409 -0.788156608082156 -12.150447810471054 8 0 0
4990 1580 4 0 -4.331124429433242 -0.8559942870994597 -12.163955579805888 8 0 0
923 225 2 0 -2.737220259711572 -0.8062477234665799 -12.06872202373348 7 0 0
924 225 4 0 -2.397914667142322 -0.7077038488410032 -11.82963848427554 7 0 0
3804 1185 4 0 -2.031273309935928 -0.5491475962699415 -11.760503853058891 8 0 0
3803 1185 2 0 -1.6285823638919563 -0.41890977652319883 -11.559653602908174 8 0 0
4516 1422 4 0 -13.557625440922404 -13.476127352662177 -11.119588853426665 3 0 0
4514 1422 2 0 -13.183663960848234 -13.276775873227665 -11.21760600834926 3 0 0
4515 1422 4 0 -12.796844135455206 -13.065114152805327 -11.304112839379771 3 0 0
333 67 3 0 -12.548639706695385 -13.02033588978466 -10.987905619843426 3 0 0
332 67 3 0 -12.002927641492589 -12.604749041912848 -10.691564415651875 3 0 0
331 67 1 0 -12.277074096924984 -12.950162684085363 -10.622791865611502 3 0 0
4566 1439 4 0 -10.096029551845845 -11.566278157170636 -10.727525315591 4 0 0
4565 1439 2 0 -9.785510607107483 -11.412431436474625 -10.962481958360527 4 0 0
52 11 3 0 -9.44448434638058 -10.947608832165937 -11.47589834076303 3 0 0
4567 1439 4 0 -9.465017149059861 -11.250947375193173 -11.210232874849831 4 0 0
4436 1396 2 0 -6.2132050854364405 -10.643574892102295 -11.302293457729016 4 0 0
3772 1174 4 0 -5.5291950437780955 -10.689719503282271 -11.051667354883374 3 0 1
3770 1174 2 0 -5.1196925843577965 -10.720292180250292 -10.93369678283598 3 0 1
3771 1174 4 0 -4.696733824644939 -10.752194460123071 -10.810927457672769 3 0 1
387 78 3 0 -3.9272237788335573 -11.215528811604733 -10.645692836001789 3 0 0
5336 1696 2 0 -8.39142710845918 -10.447664178738 -11.311654782457579 3 0 1
5337 1696 4 0 -8.823483646968704 -10.413169338816413 -11.29486807822536 3 0 1
5338 1696 4 0 -7.917916398166632 -10.496288127970589 -11.343120204719535 3 0 1
1469 407 2 0 -5.511733165909293 -9.744561462490308 -11.445544769471347 4 0 0
4437 1396 4 0 -5.8521015099197395 -10.471235670115052 -11.078184968224306 4 0 0
4162 1304 4 0 -3.3843681174299682 -10.40946186910662 -10.637587364114825 3 0 0
4161 1304 4 0 -2.9604165722012077 -10.182824298837092 -11.372431569719627 3 0 0
4160 1304 2 0 -3.177559213506621 -10.302856421999616 -10.994559164750642 3 0 0
4872 1541 4 0 -2.5490957127986924 -10.269546256822988 -11.40643005955312 3 0 0
4871 1541 2 0 -2.109020555825502 -10.248653780764133 -11.27343741942307 3 0 0
4873 1541 4 0 -1.6487392827164093 -10.213151551145767 -11.12881586859372 3 0 0
4446 1399 4 0 -1.2983176114968824 -10.435841547621122 -11.137635726574315 3 0 0
4447 1399 4 0 -0.4015283083976886 -10.454330886161923 -11.165836002386756 3 0 0
4445 1399 2 0 -0.8669417639496988 -10.449126798444599 -11.153130315102615 3 0 0
718 156 4 0 -0.15879986966537274 -10.359136416442357 -10.83862021482278 3 0 0
4208 1320 2 0 -13.924608501528576 -9.275465478484644 -10.902102431047215 5 0 0
4210 1320 4 0 -13.504022589379064 -9.142095510049783 -10.827981696056673 5 0 0
2880 877 4 0 -13.212322099734685 -9.282952984178838 -10.604500436748307 12 1 0
1471 407 4 0 -5.6828049290108 -9.521047022986641 -11.108753460162607 4 0 0
3041 931 2 0 -5.942215896556352 -9.014665801300733 -10.69203432582214 4 0 0
3043 931 4 0 -5.75758377623799 -9.13734277770078 -11.093848456614156 4 0 0
4365 1372 4 0 -3.8865638685326616 -6.385369141372281 -10.663172435683038 5 0 0
4769 1507 2 0 -3.040863044227814 -6.533139777966515 -10.627257780439246 5 0 0
4771 1507 4 0 -3.496627172370138 -6.434191144745673 -10.62766560109206 5 0 0
4770 1507 4 0 -2.610276065818045 -6.629182367657389 -10.61819213298394 5 0 0
1708 486 4 0 -2.277019583641991 -6.459884951918165 -10.769255563758973 5 0 1
1706 486 2 0 -1.9755506702217573 -6.648083285084345 -11.066878033915321 5 0 1
1707 486 4 0 -1.6670390727454087 -6.849045683296372 -11.368280625282676 5 0 1
4148 1300 2 0 -13.430715346266217 -5.9039501251622095 -11.055740332889592 6 0 0
4150 1300 4 0 -13.764530641869229 -6.104389315969648 -10.884737309020515 6 0 0
4149 1300 4 0 -13.082764025654242 -5.691254406829044 -11.246107373793105 6 0 0
402 81 3 0 -12.734166874712814 -5.46237171043377 -11.225891875554943 6 0 0
4366 1372 4 0 -4.170595754949984 -5.9616457256252176 -11.393448999267598 5 0 0
4364 1372 2 0 -4.02195269371394 -6.171159813731875 -11.034297773125271 5 0 0
403 81 3 0 -13.147959952154874 -4.848142033780498 -11.137005459458083 6 0 0
6132 1961 4 0 -13.12574371938843 -4.507711687273254 -10.90898117924335 6 0 0
401 81 1 0 -12.877825778047981 -5.08327690904037 -11.433553492327535 6 0 0
1703 485 2 0 -1.3892735014533244 -4.723814847821066 -11.478764348094534 6 0 1
1705 485 4 0 -1.0308229396697577 -4.763407895020801 -11.217093236390355 6 0 1
211 43 1 0 -0.2984722175731225 -4.538146796049773 -11.399788881382607 6 0 0
213 43 3 0 -0.6309398882523336 -4.643670213307946 -11.178406112541891 6 0 0
6131 1961 2 0 -12.87423482317907 -4.148984085102498 -10.741226157141618 6 0 0
1020 257 4 0 -11.153846858140634 -4.066246326616609 -10.616428197047071 6 0 0
5017 1589 4 0 -6.261744821407078 -3.5726193336581176 -11.028222190923247 6 0 0
1455 402 4 0 -0.5391719148331191 -3.940688353517057 -11.298681805983927 6 0 0
5015 1589 2 0 -6.634232948574599 -3.4609451770153328 -10.801827347783991 6 0 0
640 130 4 0 -1.0277378406219455 -3.0671070953926165 -10.71242444361866 6 0 0
1454 402 2 0 -0.7015207046510525 -3.52304565544401 -11.184271660444296 6 0 0
1456 402 4 0 -0.8540923655167845 -3.116088394133426 -11.072043404506092 6 0 0
4559 1437 2 0 -13.97395189285354 -2.10401271141785 -11.476428427509441 8 0 0
2292 681 4 0 -12.747629209813189 -1.8004094078560566 -10.744791190409135 7 0 1
4564 1438 4 0 -12.395597226585338 -1.976074054559577 -10.74762748169714 7 0 0
693 148 4 0 -8.805028052714743 -1.9719421411907003 -11.191993275039897 7 0 0
2291 681 2 0 -12.996125590319696 -1.760780850578561 -11.101660078840919 7 0 1
998 250 2 0 -9.316224600169223 -1.6075274068472805 -10.732144909145182 7 0 0
1000 250 4 0 -9.008152216242504 -1.653501817343587 -11.056228257091295 7 0 0
3805 1185 4 0 -1.249007006877079 -0.29875354251273656 -11.363952572400109 8 0 0
6534 2095 4 0 -1.3338150870241758 -0.1565872588163657 -11.007637913972387 9 0 0
4621 1457 4 0 -11.660239089468837 -13.446573618057274 -10.5191967110752 4 0 0
334 67 3 0 -12.030313529512565 -13.307080864586151 -10.558168833994362 3 0 0
4620 1457 4 0 -10.93253573860504 -13.683450011838532 -10.055768035686329 4 0 0
4619 1457 2 0 -11.282342064769324 -13.574451945354262 -10.276669605832087 4 0 0
661 137 4 0 -10.561870382994176 -13.795313987868184 -10.115607972097088 11 1 0
659 137 2 0 -10.17265790786793 -13.824940021671916 -9.886056278013163 11 1 0
4756 1502 4 0 -9.433218898197563 -13.815489723156999 -9.827769724526304 4 0 0
5004 1585 4 0 -13.860889777331252 -12.848391289891222 -10.124543819920913 3 0 0
335 67 3 0 -12.511150629781792 -12.876258222363795 -10.283419577595826 3 0 0
4320 1357 4 0 -12.823075235560927 -12.816654259718925 -10.023194031028964 3 0 0
4319 1357 2 0 -12.790537333506395 -12.43215883490794 -9.737799521867224 3 0 0
388 78 3 0 -4.466273490197805 -10.746998478661741 -10.464721723241677 3 0 0
386 78 1 0 -4.020838936897798 -10.875695757294979 -10.393561932831089 3 0 0
389 78 3 0 -3.9563009275744907 -10.986034120664419 -9.932568995197428 3 0 0
390 78 3 0 -3.7490066349953377 -10.525190773965981 -10.504862659620347 3 0 0
2879 877 2 0 -12.785608202666978 -9.289640132456059 -10.519220270489777 12 1 0
4842 1531 4 0 -11.935213759865608 -9.390725217386148 -10.340604960720453 4 0 0
4841 1531 2 0 -11.522228503179482 -9.183912971276396 -10.306973424734649 4 0 0
2881 877 4 0 -12.312113103252027 -9.29610964962964 -10.428011241611776 12 1 0
4843 1531 4 0 -11.118088716125682 -8.997333590623311 -10.283752944829333 4 0 0
5398 1716 4 0 -10.746816693888041 -9.058389378141564 -10.300507290897153 4 0 1
5396 1716 2 0 -10.261777259667664 -9.03991079113278 -10.296129701717799 4 0 1
5397 1716 4 0 -9.835381355891279 -9.029467117745387 -10.293217701943153 4 0 1
4359 1370 4 0 -9.488751841787609 -9.287296292885465 -10.275339156225451 4 0 0
4358 1370 2 0 -9.178273422791733 -9.14131674856036 -9.945332295613271 4 0 0
4538 1430 2 0 -8.088598128677877 -9.065550714436093 -9.765423053634155 4 0 0
4540 1430 4 0 -8.527491228135478 -8.908566897298492 -9.76653450474096 4 0 0
4539 1430 4 0 -7.681957580181972 -9.202812581549624 -9.768043375149123 4 0 0
996 249 4 0 -7.308957167147192 -9.016681654656796 -9.765076044879885 4 0 0
995 249 2 0 -6.896881729378809 -8.945764590277378 -9.956315572959882 4 0 0
997 249 4 0 -6.5116988735094115 -8.881952568261394 -10.135015753094748 4 0 0
3042 931 4 0 -6.142979330792576 -8.903416424932546 -10.310859071938367 4 0 0
5253 1668 4 0 -13.012512277688216 -7.88061403105284 -9.911811164115887 4 0 1
1459 403 4 0 -13.205563865685463 -7.497334878831576 -9.96434275416187 4 0 0
1458 403 4 0 -13.26329554359527 -6.616601753984568 -10.270093252607023 4 0 0
1457 403 2 0 -13.240173680087654 -7.047917909624687 -10.120480269707064 4 0 0
4614 1455 4 0 -3.246205843028525 -6.451290448615176 -9.783935349171268 5 0 0
1126 292 4 0 -3.1736961908151855 -6.838498167406756 -9.75135219958693 4 0 0
1446 399 4 0 -8.37470272415873 -5.4895531013417695 -9.929627444791937 5 0 0
1557 436 4 0 -8.02461997107383 -5.317208339626161 -9.832630347459382 5 0 1
43 9 3 0 -9.97147085275061 -4.454850530731907 -10.33661564907817 5 0 0
1021 257 4 0 -10.36245671184354 -4.437568614021277 -10.304398011762197 6 0 0
44 9 3 0 -9.336002779768876 -4.601143826626197 -9.981680358778116 5 0 0
1447 399 4 0 -9.103393120735571 -4.927722251654943 -10.07415918783902 5 0 0
1445 399 2 0 -8.744785576002926 -5.20804480636232 -10.004123456897823 5 0 0
6133 1961 4 0 -12.649194478822656 -3.8198367801098634 -10.579640206776247 6 0 0
6690 2147 4 0 -12.21781181877374 -3.8205601435921537 -10.502677874671752 6 0 0
6689 2147 2 0 -11.759331889491547 -3.751309149607895 -10.476149245091092 6 0 0
6691 2147 4 0 -11.313543089531695 -3.68150492664782 -10.443988272317776 6 0 0
1019 257 2 0 -10.760726655685943 -4.253279829012929 -10.463164953330267 6 0 0
41 9 1 0 -9.71517391581293 -4.3151906556568065 -10.012002318243502 5 0 0
42 9 3 0 -9.571165927959978 -3.876126589578327 -10.096480710289024 5 0 0
1009 253 4 0 -9.230363251395032 -3.7256596953517036 -10.188387269158603 5 0 0
2822 858 2 0 -6.747234971257186 -4.258038853645253 -9.752800403001777 13 1 0
2823 858 4 0 -6.410159704524591 -4.013300107097143 -9.975442679027486 13 1 0
2906 886 2 0 -5.69948814855273 -3.7422475201062895 -9.884421904647482 13 1 0
2907 886 4 0 -6.041472242855457 -4.035093928362283 -10.098308619633624 13 1 0
1007 253 2 0 -8.829724950190089 -3.498348400566437 -10.153288940714962 5 0 0
1008 253 4 0 -8.452680787383882 -3.280416815758098 -10.132249016202346 5 0 0
1360 370 4 0 -8.068117171042369 -3.3622381897874103 -10.030455177317014 5 0 0
1359 370 4 0 -7.215128173790135 -3.177609826463973 -10.28651477608719 5 0 0
1358 370 2 0 -7.660723569151131 -3.276091736653834 -10.15293114635487 5 0 0
5016 1589 4 0 -7.014392146783421 -3.345606794778254 -10.565955755730517 6 0 0
790 180 4 0 -5.07878778819493 -3.42605100512886 -9.956186793741495 6 0 0
788 180 2 0 -4.628404228550732 -3.4105010599682863 -9.85755587283316 6 0 0
789 180 4 0 -4.190423404034734 -3.400366453189573 -9.766301444288722 6 0 0
1230 327 4 0 -3.147314132159602 -3.1182188555214925 -9.774543216335683 5 0 0
2143 631 4 0 -2.753322165043121 -3.2439506853920665 -9.778502608486237 6 0 1
2142 631 4 0 -1.9602786433919874 -2.882592330329633 -10.0079184945999 6 0 1
2141 631 2 0 -2.3465981214987828 -3.056437029339543 -9.898156625878439 6 0 1
639 130 4 0 -1.600989698869359 -3.0436975882581727 -10.016857408515065 6 0 0
638 130 2 0 -1.3239422165623544 -3.055483976051873 -10.360185352082677 6 0 0
4562 1438 2 0 -12.297188589279832 -1.9940469315815985 -10.3049939805076 7 0 0
4563 1438 4 0 -12.20728262353738 -2.0032823467858805 -9.86696847903928 7 0 0
2544 765 4 0 -1.742196545949323 -1.8984533662409628 -10.547385584998091 7 0 0
2543 765 2 0 -1.2883133907045625 -1.790691246408132 -10.487769803654098 7 0 0
999 250 4 0 -9.62993413442129 -1.5641129669602787 -10.398695469642982 7 0 0
6040 1930 4 0 -9.64573212992632 -1.3941390194318544 -10.028474795188059 8 0 0
3136 962 4 0 -2.7091695462071623 -1.3130058604166894 -9.868268964858174 7 0 0
3134 962 2 0 -2.352358092264133 -1.468192492883114 -10.103330496789011 7 0 0
3135 962 4 0 -1.9865287916903522 -1.6371111020439262 -10.348268036549616 7 0 0
2545 765 4 0 -0.8455425939117855 -1.7003759469410333 -10.431958419010456 7 0 0
3787 1179 4 0 -0.49240494769783716 -1.669144847249342 -10.248121997944539 7 0 0
3785 1179 2 0 -0.20607128493924698 -1.4317360126279652 -10.039254121468849 7 0 0
660 137 4 0 -9.797848369133291 -13.859844752197743 -9.67003485018086 11 1 0
4754 1502 2 0 -9.045779295179385 -13.737892747489369 -9.632602964595545 4 0 0
4755 1502 4 0 -8.657320118702625 -13.65561732742629 -9.431778971082942 4 0 0