LAMMPS data file via write_data, version 19 Nov 2024, timestep = 100000, units = lj

682 atoms
4 atom types
488 bonds
1 bond types
444 angles
2 angle types

-4.496439 4.496439 xlo xhi
-4.496439 4.496439 ylo yhi
-4.496439 4.496439 zlo zhi

Masses

1 1
2 1
3 0.1
4 0.1

Bond Coeffs # harmonic/omp

1 100 0.45

Angle Coeffs # harmonic/omp

1 100 180
2 100 109.471

Atoms # full

220 44 3 0 -3.883778162045547 -3.689452388726279 -3.9207159071049134 1 1 1
216 44 1 0 -3.639997526487275 -4.089912180837131 -3.8779008553544143 1 1 1
217 44 3 0 -3.2449279899762518 -4.0676165221588025 -4.118343978913552 1 1 1
219 44 3 0 -3.5551347001129696 -4.16883379862369 -3.4499023135310902 1 1 1
255 52 4 0 -3.636818680698244 -2.992354271947184 -3.2252254594570586 0 0 0
465 122 4 0 -3.960168760032974 -3.2480369741771153 -3.2767211961222666 1 0 0
254 52 2 0 -3.3100857108111925 -2.9953243275286745 -3.518750072890504 0 0 0
218 44 3 0 -3.8973396523953805 -4.437920707225991 -4.035491417571206 1 1 1
442 114 4 0 -3.0483231197447465 -4.150353416951314 -4.4406825030810175 0 1 1
343 81 4 0 -2.3080887695397436 -3.7717364336234103 -3.086052757888438 0 0 1
420 107 4 0 -1.8071985134717026 -4.276943365374988 -4.151022448689224 0 1 1
269 57 2 0 -4.482124996081424 -2.210085280948428 -3.006572206710534 0 0 0
320 74 2 0 -1.0952995971259885 -4.036411647226967 -3.9174027834218164 0 0 1
322 74 4 0 -0.6956234107979258 -4.013711297721302 -3.6486139173807635 0 0 1
321 74 4 0 -1.47397399955807 -4.05523522080308 -4.170043836831326 0 0 1
308 70 2 0 -3.19914298913206 -1.925585721808377 -4.176363859186423 0 0 1
310 70 4 0 -3.531755825645756 -1.6793998246174822 -4.025846750759033 0 0 1
271 57 4 0 -4.08132580899639 -2.306343301628492 -2.923147828746492 0 0 0
256 52 4 0 -2.95814734131058 -2.9926580797230655 -3.824156161555319 0 0 0
55 11 3 0 -2.6811463674255793 -2.4692464194097488 -4.2579711240715765 0 0 1
115 23 3 0 -2.605216812188342 -2.7746571362706245 -3.6887471743734213 0 1 1
111 23 1 0 -2.1202692461212878 -2.691504961714574 -3.5557790221001393 0 1 1
113 23 3 0 -1.8412494042545748 -2.7628552851769443 -3.9185603390783332 0 1 1
273 58 4 0 -2.236770609749016 -1.9157291672755838 -3.437100665569014 0 0 0
112 23 3 0 -2.0619596402898464 -2.249340257436489 -3.392033148781839 0 1 1
114 23 3 0 -2.0124045081437085 -2.980510992931373 -3.2284250206729963 0 1 1
190 38 3 0 -0.5395583318591565 -2.464574387733863 -3.0595721460776897 0 0 1
488 130 2 0 -0.39670591557213475 -2.3788187327569856 -3.8165863262146535 0 0 0
489 130 4 0 -0.6581256775352132 -2.4890932735903015 -3.4415285903390083 0 0 0
490 130 4 0 -0.1447230883305444 -2.276455749036716 -4.167959180207066 0 0 0
272 58 2 0 -2.104848622919318 -1.508334221253199 -3.6093712215662968 0 0 0
274 58 4 0 -1.9786478720499137 -1.1243335381727702 -3.781419260494713 0 0 0
403 101 4 0 -1.842624593266194 -1.1767760837336407 -4.1845574199018145 0 0 1
7 2 3 0 -0.7637002751079847 -0.5219760186794812 -1.0041001248731367 0 0 0
286 62 4 0 -0.8680396454400576 -0.9215588304556335 -0.9248073730733397 0 0 0
2 1 3 0 -3.0872292549284697 -0.6041097586333679 -4.444389843967331 0 0 0
464 122 2 0 -4.107968038720035 -3.442238513387586 -2.882340785035023 1 0 0
466 122 4 0 -4.237381840931076 -3.6162673433116628 -2.520682290973039 1 0 0
339 80 4 0 -4.036718265290353 -3.8297680472250444 -2.248460946103637 0 0 0
338 80 2 0 -3.928776637416807 -3.9898721092204825 -1.8151010120385112 0 0 0
340 80 4 0 -3.8189702456944508 -4.130957165896653 -1.41305027817389 0 0 0
341 81 2 0 -2.216217172727355 -3.967233819485436 -2.697625597583621 0 0 1
342 81 4 0 -2.128071909844485 -4.162523194620776 -2.303647967748224 0 0 1
400 100 4 0 -2.3524456358812804 -4.452653497458439 -2.1265693267337746 0 1 0
37 8 3 0 -0.22529457369782924 -4.252437405588187 -2.314889114691939 0 0 0
289 63 4 0 -0.5272322171927466 -3.432044652613447 -1.7904757077690152 0 0 0
287 63 2 0 -0.6350192488472598 -3.061178751365569 -2.0216842545076266 0 0 0
38 8 3 0 -0.2848721569741234 -3.7424365048232393 -1.7753822174203244 0 0 0
36 8 1 0 -0.13859660951785627 -4.145157296977219 -1.8650072420985924 0 0 0
39 8 3 0 -0.34879764208618547 -4.4380824389936295 -1.5939459725382013 0 0 0
99 20 3 0 -0.4066177670791747 -4.340142613937851 -2.6975127812478346 0 1 0
282 61 4 0 -3.7624627686791565 -2.352129442728211 -2.6768103617127665 0 0 0
281 61 2 0 -3.3859159395334157 -2.2855388332651803 -2.4403378779219165 0 0 0
283 61 4 0 -2.992751795548574 -2.220841155527425 -2.1753420577131024 0 0 0
301 67 4 0 -2.713163997137474 -2.014976031164633 -1.987487765222506 0 0 0
299 67 2 0 -2.7531507072626793 -1.70918924629829 -1.6701262942908885 0 0 0
288 63 4 0 -0.7359010340054812 -2.698222855571824 -2.2490615993153056 0 0 0
188 38 3 0 -0.41263924636020416 -2.416499469002065 -2.3338825352541286 0 0 1
186 38 1 0 -0.43594749196385507 -2.184742920412957 -2.6886463858479237 0 0 1
189 38 3 0 -0.7612037520716091 -1.869663646779881 -2.644103632971552 0 0 1
187 38 3 0 -0.03227084529782574 -1.9915216363813553 -2.7585590464431133 0 0 1
469 123 4 0 -1.0671388202140424 -1.6519696430864912 -2.457729268445732 0 0 0
15 3 3 0 -2.228898866540888 -0.9299866424816964 -1.3908515450068526 0 0 0
13 3 3 0 -1.902088451817338 -0.34640897968938283 -1.7348917699148525 0 0 0
258 53 4 0 -0.02484111905652489 -1.0029781309933978 -4.475043157581591 0 0 0
468 123 4 0 -0.8144798324170092 -0.810848130493285 -2.2158788676986108 0 0 0
467 123 2 0 -0.9327731213056366 -1.2214120300274864 -2.3336480853059083 0 0 0
309 70 4 0 -2.8707832327167564 -2.1758776400161204 -4.3263007923404535 0 0 1
32 7 3 0 -2.017785499022067 -4.389575681448677 -0.10814924733780695 0 0 0
253 51 4 0 -2.431713922451195 -2.1081949093612917 -0.20231824315841626 0 0 0
277 59 4 0 -2.5957546090389094 -1.7664485023085912 -0.09199572350555715 0 0 0
251 51 2 0 -2.2202190085173226 -2.4800774047896526 -0.0863798074596818 0 0 0
472 124 4 0 -0.6880566601072974 -3.1322017123224595 -0.2766604153604385 0 0 0
470 124 2 0 -0.6062618619703858 -2.9561573243294608 -0.681304584450471 0 0 0
29 6 3 0 -0.1297536642719709 -2.622959226353934 -1.0616540918084991 0 0 0
471 124 4 0 -0.5046269686479566 -2.771196976717511 -1.1043351820053344 0 0 0
501 134 4 0 -4.4208172641042625 -0.41242013691161866 -1.28436708398693 1 0 0
412 104 4 0 -4.455516949550682 -0.03484515394526504 -1.147986414110583 0 0 0
11 3 1 0 -1.8951355222128095 -0.621514621562491 -1.3511629219594958 0 0 0
300 67 4 0 -2.7794183578224647 -1.396582932777003 -1.3480920611438434 0 0 0
14 3 3 0 -1.4897087077601945 -0.8279937699084392 -1.3088828065020162 0 0 0
290 64 2 0 -2.422472923128951 -0.5776277683777261 -0.3825071676422101 0 0 0
291 64 4 0 -2.1585804042637453 -0.5896072479780341 -0.7363502298186219 0 0 0
12 3 3 0 -1.9659999725477753 -0.37452114004767506 -0.9911263268957761 0 0 0
285 62 4 0 -0.9011674800207691 -1.2078481713747566 -0.04451995535528288 0 0 0
6 2 1 0 -0.9415879722722295 -0.10280438316644225 -1.0422458385431064 0 0 0
10 2 3 0 -1.3846059747836068 -0.13233421373416657 -1.0537193243335685 0 0 0
284 62 2 0 -0.8811486837713038 -1.065418387471587 -0.4710622037586442 0 0 0
261 54 4 0 -2.192912818716992 -0.1314721516602262 -2.9797304082267453 0 0 0
661 187 4 0 -3.7627591101252684 -4.455553687151648 -3.231644526285864 1 1 1
292 64 4 0 -2.6882739773354265 -0.5695691695517338 -0.00656406426142067 0 0 0
352 84 4 0 -0.10993159167500931 -1.7003428218631 1.2128634731022967 0 0 0
104 21 3 0 -2.6476795555697676 -3.94723602670041 0.8363745840479104 0 1 0
314 72 2 0 -2.472728496770304 -3.3269231294746833 0.5268046653372539 0 0 0
316 72 4 0 -2.7677404592982016 -3.611460837479083 0.7033466153425212 0 0 0
315 72 4 0 -2.1672481102415815 -3.043872170701622 0.34577584118425836 0 0 0
259 53 4 0 -0.8483615583100518 -1.1663573442190205 4.242041564419149 0 0 -1
329 77 2 0 -1.1127533847661946 -3.4286569080976355 0.29627680621086594 0 0 0
331 77 4 0 -1.4255072520640575 -3.658337076924049 0.5514340639087564 0 0 0
551 151 2 0 -3.9314175937803406 -1.8496630156425302 0.5910972172396285 1 0 0
552 151 4 0 -3.644289276999344 -1.6122687960867637 0.36530199082489034 1 0 0
553 151 4 0 -4.238057299032994 -2.1011735896525416 0.82201238233893 1 0 0
535 145 4 0 -4.107060979127967 -2.2462151267756156 1.2023429587987304 1 0 0
275 59 2 0 -2.9927791069473217 -1.5798537277913196 0.05991460628686597 0 0 0
334 78 4 0 -1.6468985957937026 -4.255575700805825 2.4254968490095883 0 0 0
476 126 2 0 -0.4613275952153842 -1.4514875904828397 0.573301223971238 0 0 0
478 126 4 0 -0.23195413973351578 -1.4186232872140014 0.9900023382252435 0 0 0
276 59 4 0 -3.3687340419100877 -1.415760916879245 0.19294240712069072 0 0 0
318 73 4 0 -2.932112372862118 -1.2746763386775686 1.0652770325884022 0 0 0
317 73 2 0 -3.185426022317088 -1.356651482237448 1.4458465612354388 0 0 0
70 14 3 0 -2.9247076519558357 -0.9554307189167984 0.839569547799825 0 0 0
323 75 2 0 -1.1428215735887184 -1.2829697280746677 3.5640545978818423 0 0 0
66 14 1 0 -2.8567047073360854 -0.5417956624949695 0.7934454237058195 0 0 0
68 14 3 0 -2.461312318035813 -0.42165302792604964 0.9871203752222641 0 0 0
69 14 3 0 -3.198250244496148 -0.3143262613189373 0.98704417427237 0 0 0
67 14 3 0 -2.844912799136798 -0.44659396792686057 0.35538336888369354 0 0 0
103 21 3 0 -3.180708153840528 -4.410646037661803 0.7626832238658011 0 1 0
477 126 4 0 -0.6915169419992607 -1.4831516321800002 0.15475123797761123 0 0 0
402 101 4 0 -1.9010719836779224 -0.7427449966698763 4.020155450607814 0 0 0
638 180 2 0 -4.015265806999607 -3.8628869750582018 2.1955160916133587 1 1 0
640 180 4 0 -3.9397435953739506 -3.481341880274062 2.3906462766819563 1 1 0
245 49 3 0 -3.683342480761548 -3.2348378991746274 2.201027636663515 1 1 0
639 180 4 0 -4.094723073139115 -4.244238454489014 2.0041499746942146 1 1 0
242 49 3 0 -3.5184275799660827 -2.9199803806698164 2.837084722082998 1 1 0
175 35 3 0 -1.802214721392748 -3.3184682438732187 1.9970288026086662 1 0 0
171 35 1 0 -2.030275301282269 -3.522819806253307 2.332816683978805 1 0 0
172 35 3 0 -2.4573526854639787 -3.635336454788185 2.1778799332298804 1 0 0
345 82 4 0 -2.5187195003813367 -4.040478850992456 2.115990002206427 0 0 0
344 82 2 0 -2.540523267687569 -4.25177060075917 1.7461824541320152 0 0 0
174 35 3 0 -1.7975395831271428 -3.9144292536419774 2.457131942299712 1 0 0
173 35 3 0 -2.068495898973827 -3.243775670274392 2.6820730587150066 1 0 0
241 49 1 0 -3.495006636470624 -2.892328623275199 2.385059344472042 1 1 0
244 49 3 0 -3.0727102102713806 -2.8836864326498395 2.251539600041115 1 1 0
243 49 3 0 -3.714816786875386 -2.5019335593037764 2.240310289039099 1 1 0
534 145 4 0 -3.7912669400906274 -2.147737418166192 2.05001194903923 1 0 0
533 145 2 0 -3.958256744486499 -2.1942685404743956 1.6198150768778692 1 0 0
313 71 4 0 -3.8616951033886884 -1.7049050838827582 2.731069824969849 0 0 0
311 71 2 0 -4.272862610795015 -1.7241838066267603 2.861795896926587 0 0 0
42 9 3 0 -3.5076220121443233 -1.542303736359717 2.840647321855716 0 0 0
65 13 3 0 -1.708607401602614 -1.934060541674446 2.557986414417976 0 0 0
538 146 4 0 -1.7871313058999716 -2.266294885734173 2.7645075908547416 0 0 0
350 84 2 0 -0.08510922107928794 -1.5030113792753952 1.6221832387236397 0 0 0
326 76 2 0 -4.414593054126008 -0.31569108946919394 2.3634656903532543 0 0 0
41 9 1 0 -3.3079122574144586 -1.2374178539240088 2.567652290289062 0 0 0
45 9 3 0 -3.582098127192379 -0.8833706339904475 2.5288306885014706 0 0 0
44 9 3 0 -3.2469407912763244 -1.419800514004059 2.1633614276554813 0 0 0
319 73 4 0 -3.421083763945647 -1.4351015590340495 1.8045400334899184 0 0 0
43 9 3 0 -2.9029472790484694 -1.1082093028996942 2.747552373836603 0 0 0
324 75 4 0 -1.434961559094871 -1.4779957378666748 3.281833237998098 0 0 0
61 13 1 0 -1.6970451662229928 -1.4940857385964823 2.57532793287349 0 0 0
337 79 4 0 -2.618728532564024 -0.1556384790012831 2.2286474380041676 0 0 0
335 79 2 0 -2.430428800521458 -0.56808494242974 2.3287284228250216 0 0 0
336 79 4 0 -2.2380808539363364 -0.9911346529057364 2.4386537709168277 0 0 0
62 13 3 0 -2.050765079865538 -1.32246210143134 2.3194935857816628 0 0 0
351 84 4 0 -0.0570436620544836 -1.2906997047545952 2.048857708698562 0 0 0
307 69 4 0 -0.2893697368781726 -1.0726211801925034 2.2766718589005728 0 0 0
305 69 2 0 -0.7101936354218088 -1.0250651893348985 2.4096678875929434 0 0 0
63 13 3 0 -1.3001555507999911 -1.3421504744966826 2.4146080490287227 0 0 0
306 69 4 0 -1.1524519523387073 -0.9771054795602715 2.5466466371486267 0 0 0
348 83 4 0 -2.745888611914103 -3.039786673127775 3.825299433690357 0 0 0
441 114 4 0 -2.8744512268893905 -4.48608660196486 3.6882723807261972 0 1 0
440 114 2 0 -2.9632215928330634 -4.3169755431750625 4.123355337638474 0 1 0
52 11 3 0 -2.7086622407315097 -2.6901677206195034 4.02479393359048 0 0 0
325 75 4 0 -0.8499387892207781 -1.0824025269612434 3.8501567058324264 0 0 0
60 12 3 0 -1.1061163682893536 -3.4570086280510353 4.027068892846859 0 0 0
495 132 4 0 -0.1920816950137934 -3.4607607570864185 3.426781046561516 0 0 -1
56 12 1 0 -0.7996787800281004 -3.26195331051799 3.7345104425241997 0 0 0
59 12 3 0 -0.5697464057950922 -3.5776994490500873 3.5231757729323028 0 0 0
58 12 3 0 -1.0183968431728605 -3.0047712362679246 3.4455965507903383 0 0 0
347 83 2 0 -3.002738440543014 -2.982087747424342 3.4710211799044046 0 0 0
349 83 4 0 -3.260006218725164 -2.918113150163088 3.1285665637382487 0 0 0
51 11 1 0 -2.437652141340245 -2.6485819423934402 4.384794157109771 0 0 0
536 146 2 0 -1.5375841320357369 -2.5694322875301725 2.965355077227946 0 0 0
537 146 4 0 -1.2770628634636767 -2.867451536673051 3.165604383622453 0 0 0
54 11 3 0 -2.106779359470415 -2.3778725260057882 4.282438004723853 0 0 0
646 182 4 0 -4.007209126642574 -4.45680880428896 1.684504202434549 1 1 0
57 12 3 0 -0.5258621709335181 -3.0133061763724385 3.961444716642275 0 0 0
5 1 3 0 -3.3062521251145647 -0.19924492223241075 3.9916084967909726 0 0 -1
453 118 4 0 -3.275952049195816 -0.12480004018840629 3.5994786131433347 0 0 0
1 1 1 0 -3.3799632678384244 -0.5698097575568003 4.229442766237449 0 0 -1
3 1 3 0 -3.3366113064551315 -0.9381986889734037 3.937940094825024 0 0 -1
401 101 2 0 -1.8731904203978258 -0.9604133822980819 4.423387139271843 0 0 0
327 76 4 0 -3.9771996598172357 -0.20530816280417316 2.320471174477283 0 0 0
64 13 3 0 -1.7443457088075414 -1.3569961011039509 3.0244695057385576 0 0 0
123 25 3 0 -0.880214389816755 -0.11408439131621095 1.343210482279731 0 0 0
257 53 2 0 -0.43431809137132416 -1.0831340742208926 4.379545062111193 0 0 -1
4 1 3 0 -3.789635773093879 -0.5632918774651574 4.403396476917286 0 0 -1
105 21 3 0 -2.640230203646766 -4.435892841399554 0.29591923590189406 0 1 0
101 21 1 0 -2.7591959834234396 -4.361875773248572 0.7156638481568419 0 1 0
118 24 3 0 -3.6431299061847455 -0.08721918850575588 2.138189690624387 0 0 0
53 11 3 0 -2.2766647703318452 -3.056558471826728 4.48711954045213 0 0 0
332 78 2 0 -1.725208579511911 -4.457045533334123 2.8340384706045034 0 0 0
636 179 4 0 -4.25414047364453 -0.11159106845442647 0.5038963743513917 1 0 0
346 82 4 0 -2.566817221327094 -4.471601770921214 1.3568717342093817 0 0 0
330 77 4 0 -0.8058883482856235 -3.2219978580014668 0.059421545401134056 0 0 0
252 51 4 0 -1.9897838559925505 -2.8953217552101056 0.03740455221691742 0 0 0
260 54 2 0 -1.8353251930785746 0.12468266501290416 -3.1428722805062295 0 0 0
457 119 4 0 -1.9024676744137121 1.6046777674973487 -3.2378870507904454 0 0 0
653 185 2 0 -0.11729392877078758 0.6985202370389328 -4.108320598680525 0 0 1
262 54 4 0 -1.4537638907631736 0.36946381874976586 -3.3180134136913533 0 0 0
654 185 4 0 -0.2593222337102336 0.8565409539051572 -3.735717212430082 0 0 1
19 4 3 0 -0.49083172291819416 0.8868399340783701 -3.396030005664014 0 0 0
16 4 1 0 -0.8225664066741667 0.7001497457888987 -3.1330989356467187 0 0 0
361 87 4 0 -3.1487997124020364 1.6393179622368392 -4.03831336918083 0 0 0
359 87 2 0 -3.5522391174716175 1.6216228409490812 -4.224542735201191 0 0 0
362 88 2 0 -1.1071496259761235 3.565694856412895 -0.6338205098392599 0 0 0
390 97 4 0 -2.800123540515378 1.8713371391094016 -4.033959358523005 0 0 0
389 97 2 0 -2.4380593528386734 1.7844729558961645 -3.839342796867411 0 0 0
391 97 4 0 -2.0331825738398877 1.6789322840591367 -3.6176691263336465 0 0 0
74 15 3 0 -0.5979160718734003 2.5059631831855875 -3.3332084922287937 0 0 0
71 15 1 0 -0.24635392415186907 2.286383972790827 -3.152567513190721 0 0 0
73 15 3 0 -0.3778268987155532 1.8525760734175594 -3.0327822850852475 0 0 0
616 172 4 0 -0.9985995564045159 2.6102469159028425 -3.319066216751298 0 0 0
72 15 3 0 -0.1338339587552418 2.490757340052931 -2.805096857829842 0 0 0
659 187 2 0 -4.013240011272106 4.148657896805602 -3.1882333257797684 1 0 1
608 170 2 0 -4.336662560259363 3.073365986767393 -3.39715138412685 1 0 0
660 187 4 0 -4.246717768436435 3.785331049022478 -3.144016562731126 1 0 1
610 170 4 0 -4.119437280489966 3.4914193000873563 -3.3771920291642488 1 0 0
445 115 4 0 -4.053679937382486 4.276318348493167 -4.278441341922871 0 0 1
387 96 4 0 -2.4273386425999095 3.7627837794195664 -3.0761130834264634 0 0 0
419 107 2 0 -2.133795994274869 4.416764328614875 -4.1508099977087305 0 0 1
421 107 4 0 -2.451466974103091 4.1266352686451295 -4.141515929583625 0 0 1
404 102 2 0 -0.6104409715201929 3.8718667784264498 -4.293052343786981 0 0 1
614 172 2 0 -1.024807425729053 3.0103382934585396 -3.485353514835675 0 0 0
615 172 4 0 -1.0523771958170938 3.4213152224922467 -3.663332907509032 0 0 0
97 20 3 0 -0.7441051094369202 4.144114529342645 -3.197018335364514 0 0 0
405 102 4 0 -0.8293552130927594 4.142540755765303 -3.894855295612696 0 0 1
98 20 3 0 -0.00655261213836899 4.231766685792973 -3.192476124747085 0 0 0
88 18 3 0 -2.6937680176827663 1.171461493399568 -1.4747098844351894 0 0 0
18 4 3 0 -1.1877970393412973 0.6487077745171337 -3.3766475785599313 0 0 0
20 4 3 0 -0.6846915234348585 0.29455183521900935 -2.9827408020940895 0 0 0
279 60 4 0 -0.7478296288504579 0.02810542227073958 -2.6803768550902873 0 0 0
392 98 2 0 -0.2221264947222996 4.264106740622516 -0.9455298599922933 0 0 0
17 4 3 0 -0.9116610922396045 0.9798600757222853 -2.768280216950194 0 0 0
268 56 4 0 -0.708202852652895 1.2205384285190257 -2.543930428443094 0 0 0
266 56 2 0 -0.5228076232485134 1.1645030273957249 -2.1511104418470346 0 0 0
267 56 4 0 -0.3258565709370341 1.103083067451182 -1.7661422417074413 0 0 0
356 86 2 0 -3.7653042593676513 1.855723072199276 -1.4892285816984658 0 0 0
358 86 4 0 -3.506932557270621 1.476917364350492 -1.4976052065872816 0 0 0
357 86 4 0 -3.9760610915788193 2.1734614556040053 -1.4780544993973774 0 0 0
455 119 2 0 -1.761420127105995 1.7404277225190896 -2.835042330960985 0 0 0
374 92 2 0 -1.432219635751913 1.7960778777452335 -1.676080439025936 0 0 0
456 119 4 0 -1.6240382282264625 1.8762754872401457 -2.428505354271435 0 0 0
375 92 4 0 -1.4683542337012598 1.6511202184504672 -2.1085194972500547 0 0 0
595 165 4 0 -0.13959246312136128 2.8766901699498186 -2.6591197232946606 0 0 0
364 88 4 0 -0.9894393100730765 3.9563739560878335 -0.6626837081520984 0 0 0
83 17 3 0 -0.1431055605728218 2.065349048482287 -1.6419717984162951 0 0 0
84 17 3 0 -0.5397238618999619 2.6515073811340066 -1.8448084830911544 0 0 0
77 16 3 0 -3.2374743799597137 3.1337605331058427 -1.69307680398712 0 0 0
76 16 1 0 -3.403358398466524 3.4189953157965753 -1.9989910944915785 0 0 0
78 16 3 0 -3.853796236369981 3.4515556946427273 -1.9455129771651007 0 0 0
80 16 3 0 -3.3110328762565397 3.2690085558755095 -2.4046689290656946 0 0 0
388 96 4 0 -3.1940258920808122 3.502211510542449 -2.7281562688317313 0 0 0
79 16 3 0 -3.2162719759413485 3.8066929290846088 -1.9502826086047225 0 0 0
386 96 2 0 -2.8021807242546832 3.632191743430956 -2.9020874399797543 0 0 0
398 100 2 0 -2.611404391442153 4.200012084466173 -1.9339772061287719 0 0 0
399 100 4 0 -2.8680530958107355 3.894777102158806 -1.7566990317502686 0 0 0
593 165 2 0 -0.23943004298343648 3.258947260554555 -2.482624471374953 0 0 0
96 20 1 0 -0.37426986161716247 4.230046316452732 -2.930338458765978 0 0 0
100 20 3 0 -0.3380818313395309 3.9030769031232024 -2.6229680111960763 0 0 0
594 165 4 0 -0.3491893554244872 3.649327017595005 -2.2905646141362315 0 0 0
225 45 3 0 -4.00339598001429 0.6880187155835817 -0.1514556098435799 1 0 0
411 104 4 0 -4.069417659738403 0.4039847276560479 -0.41357233350925776 0 0 0
410 104 2 0 -4.261529300999013 0.1845681879640196 -0.7853276860852225 0 0 0
87 18 3 0 -3.2193438083856596 1.447799098328157 -0.9689104321128383 0 0 0
86 18 1 0 -2.774135286100797 1.4852606521074074 -1.1203850179192156 0 0 0
382 94 4 0 -1.111866091378487 0.1359772637533622 -0.42552274344347746 0 0 0
380 94 2 0 -1.071084560508112 0.4713438609096265 -0.125469823498102 0 0 0
8 2 3 0 -0.8161182511889928 0.1402649793879573 -0.6919164926863508 0 0 0
395 99 2 0 -0.5035788762257007 1.307748252412116 -0.6121071711601063 0 0 0
397 99 4 0 -0.2973322183383808 1.114843965805962 -0.2695298749965534 0 0 0
89 18 3 0 -2.6897120933014858 1.93876669351228 -1.2854111034365405 0 0 0
376 92 4 0 -1.3813225445359114 1.9585385132005877 -1.2333962816324375 0 0 0
95 19 3 0 -2.4111259682025703 2.5780990429749235 -0.1623107058520311 0 0 0
90 18 3 0 -2.5159921610256846 1.396374610983943 -0.8083807415945612 0 0 0
372 91 4 0 -1.8294647681168026 3.070755666141127 -0.5806843534287554 0 0 0
371 91 2 0 -1.7398312837124525 2.5858554239713976 -0.8791562172462494 0 0 0
82 17 3 0 -0.06761178749619079 2.676965145580941 -1.24668184863096 0 0 0
394 98 4 0 -0.36928518076505434 4.067614222290992 -0.596338624907576 0 0 0
396 99 4 0 -0.7229555252248896 1.4948933910866091 -0.9605938881594763 0 0 0
81 17 1 0 -0.14028614655556018 2.499724070143971 -1.6674263760427068 0 0 0
373 91 4 0 -1.6732589979836172 2.2051092420179526 -1.1135298623211447 0 0 0
91 19 1 0 -2.4927343374791198 2.991744867394047 -0.10297223129304177 0 0 0
393 98 4 0 -0.07145624404911285 4.491575400527306 -1.3273889066612876 0 0 0
92 19 3 0 -2.4392555643929015 3.204523125308758 -0.4993671691289362 0 0 0
360 87 4 0 -3.9421564252687493 1.604042990086373 -4.402029561173617 0 0 0
363 88 4 0 -1.2507102011646323 3.125167303094542 -0.5971864204741543 0 0 0
280 60 4 0 -0.5962227186843461 0.025633388086997246 -1.751214296417873 0 0 0
9 2 3 0 -0.793806459807643 0.09203793102369767 -1.4123258344823428 0 0 0
278 60 2 0 -0.665305501967556 0.027243570320988602 -2.2182317875393833 0 0 0
34 7 3 0 -1.5453072260557095 4.010995151372409 -0.34908519940443855 0 -1 0
223 45 3 0 -3.581168141892799 0.812545817377923 0.44491037123651317 1 0 0
224 45 3 0 -4.106377654887355 0.2664831339098532 0.500507975717129 1 0 0
221 45 1 0 -3.9885656028144365 0.7061771977683763 0.3194683464121406 1 0 0
354 85 4 0 -3.410927763945555 1.0990230871073277 0.2493927761782469 0 0 0
222 45 3 0 -4.262764485283998 0.9917839384907758 0.46655365073697075 1 0 0
353 85 2 0 -2.980361101208803 1.0952852815662655 0.3926325054640563 0 0 0
355 85 4 0 -2.562151929997024 1.088893199676554 0.5354530208004595 0 0 0
458 120 2 0 -2.1760207255124886 0.8256665356884424 1.1605486155882048 0 0 0
460 120 4 0 -2.5583385134914725 0.9955867451137933 0.918067177981192 0 0 0
35 7 3 0 -1.6953427175937785 4.188134528639077 0.40832766752474914 0 -1 0
119 24 3 0 -2.9436863861821223 0.00013704280400798755 2.005369104809697 0 0 0
121 25 1 0 -0.9682660619276172 0.3346623791886365 1.3960824043226654 0 0 0
201 41 1 0 -0.06518138190725416 0.9654809566581198 0.31631257627679316 0 0 0
124 25 3 0 -0.5833167272535801 0.5708769550902354 1.3211856185463025 0 0 0
204 41 3 0 -0.31489658566601725 0.6291208480057507 0.19054019437449238 0 0 0
203 41 3 0 -0.2063985839167459 1.1084400119756417 0.7006452347738564 0 0 0
381 94 4 0 -1.034884426430494 0.8077721074306243 0.18769707733520416 0 0 0
122 25 3 0 -1.2687830970458658 0.4578421906122851 1.0973638405056085 0 0 0
406 102 4 0 -0.41382319676503965 3.6443339156441135 4.370582461770254 0 0 0
645 182 4 0 -3.4507428277833334 4.4195260258804545 0.9877647890344492 1 0 0
107 22 3 0 -1.4861891212185996 3.732354566890914 4.067203445070119 0 0 0
50 10 3 0 -0.2308739895313595 3.0639474158033586 3.1161293617593353 0 -1 0
93 19 3 0 -2.180302394851432 3.1725242787323458 0.2371877949666535 0 0 0
423 108 4 0 -2.348742716375912 3.0335927969009595 0.5600790294048592 0 0 0
422 108 2 0 -2.0544392888307135 3.2227373295229476 0.8462370602760689 0 0 0
106 22 1 0 -1.6792930636514936 3.4634207105046366 3.7125246723715275 0 0 0
33 7 3 0 -2.2427580433501437 3.921261602369026 0.004282086455915722 0 -1 0
102 21 3 0 -2.5269075750801813 4.337783521893423 0.9828920144902079 0 0 0
424 108 4 0 -1.766705970427776 3.4159075446419775 1.1340595715471558 0 0 0
109 22 3 0 -1.5842204258929657 3.041418684301868 3.782117382514151 0 0 0
31 7 1 0 -1.8863597744573617 4.183413278310283 0.00037880849896399453 0 -1 0
658 186 4 0 -0.4176435760454735 3.6047858838250653 0.9511573019507166 0 0 0
656 186 2 0 -0.1962028741155472 3.8154115503932995 1.2422151578823064 0 0 0
120 24 3 0 -3.264612213983035 0.450980144394783 2.489008911563357 0 0 0
116 24 1 0 -3.3188842239002936 0.2068704599809716 2.0868554984401855 0 0 0
117 24 3 0 -3.4103398784513654 0.4772680080083912 1.7556468911716727 0 0 0
454 118 4 0 -3.1905301454940638 0.46654044590123434 2.895325586767877 0 0 0
413 105 2 0 -2.977277184987966 3.7990215533463827 3.3903650557630485 0 0 0
415 105 4 0 -2.846695908857614 4.2428203362468 3.3780592230363555 0 0 0
459 120 4 0 -1.8016683206915622 0.6631917797923882 1.3996332943766978 0 0 0
125 25 3 0 -1.1151624321401075 0.41223838300571075 1.8050200655126258 0 0 0
434 112 2 0 -0.559576887392206 0.7406866972947727 2.341114631283507 0 0 0
435 112 4 0 -0.24981298176818612 0.9953763015066533 2.5973350701867646 0 0 0
436 112 4 0 -0.8481876158828293 0.48419045253429277 2.093103181246306 0 0 0
384 95 4 0 -4.265503169000268 1.7100929430585654 4.400599513189076 0 0 -1
430 110 4 0 -3.9900865117722693 2.907104257309582 2.676738790614099 0 0 0
110 22 3 0 -2.1252748614433576 3.510542454026518 3.693377133607059 0 0 0
428 110 2 0 -3.7302645103711103 3.05718507722888 3.018605032230811 0 0 0
679 193 4 0 -4.348616926326307 2.842176697059333 2.4737617739488975 1 0 0
447 116 4 0 -1.8492688547169456 3.9102433211895264 2.084785518593549 0 0 0
448 116 4 0 -1.9683967158187408 2.9282963772847714 2.414143179827163 0 0 0
446 116 2 0 -1.9188145961809044 3.402045507742267 2.2503441329439218 0 0 0
108 22 3 0 -1.5117646886655336 3.5848960146575033 3.3622878483088714 0 0 0
677 193 2 0 -4.460240332854701 3.0076045412547474 2.0615454620033997 1 0 0
333 78 4 0 -1.8059098033504835 4.361382998117632 3.231521237325608 0 -1 0
452 118 2 0 -3.234594865716809 0.1671029674229715 3.2473000695692718 0 0 0
414 105 4 0 -3.10922022597398 3.3643715962314222 3.4079812231378668 0 0 0
439 113 4 0 -0.09966588006602195 1.2179083773302728 3.71101361334502 0 0 0
450 117 4 0 -4.221265269999091 1.1788251536872327 3.6491718323671405 0 0 0
437 113 2 0 -0.4099644477100425 1.530577059986551 3.85294766498302 0 0 0
438 113 4 0 -0.720551858425566 1.8341637063210021 4.0105931136998745 0 0 0
416 106 2 0 -0.9897896891555042 2.4822622237264156 4.040940054273399 0 0 0
417 106 4 0 -1.297813951764542 2.7895305267211925 3.8890121362606465 0 0 0
418 106 4 0 -0.696457230328112 2.1783657407058894 4.188332261973836 0 0 0
443 115 2 0 -4.345060245831189 4.363133468732006 4.370156439581482 0 0 0
429 110 4 0 -3.4690577581129602 3.1998352260546032 3.3590743490433073 0 0 0
644 182 2 0 -3.7315989257989752 4.478984005177609 1.3333083123717926 1 0 0
202 41 3 0 -0.08659565252757533 1.2942525749606224 0.006521893003005473 0 0 0
94 19 3 0 -2.918927423608506 3.0448933414039936 0.041129030721838655 0 0 0
587 163 2 0 0.9332521923593045 -4.046305414401468 -3.536175156258623 0 1 0
589 163 4 0 1.385431193317818 -4.04580895169257 -3.614709479811487 0 1 0
588 163 4 0 0.48644154523924465 -4.045128621946949 -3.4579863854908175 0 1 0
304 68 4 0 0.01811150095152269 -0.3290516423854149 -2.764536432766888 0 0 0
515 139 2 0 2.879753997120084 -4.22761719768176 -4.001880679330024 0 0 1
486 129 4 0 2.0843340138803406 -4.338344416296669 -3.7562674351919334 0 0 0
516 139 4 0 2.4834282085133577 -4.365276416863593 -3.8419765993770367 0 0 1
517 139 4 0 3.2798933159921733 -4.087234197962468 -4.170404057448008 0 0 1
145 29 3 0 3.514768592353894 -4.161411291955029 -4.482321742266645 0 0 0
522 141 4 0 1.3347458619366785 -2.76844396293499 -3.1875730525793062 0 0 1
263 55 2 0 0.5200984613415675 -2.7137477856707752 -3.136648276285099 0 0 0
264 55 4 0 0.9599910273462472 -2.681725136875977 -3.0705475564985494 0 0 0
524 142 2 0 0.48043807698344493 -1.7356912249474017 -4.221626812208626 0 0 1
525 142 4 0 0.07869643825309391 -1.966086685167658 -4.179195650390565 0 0 1
526 142 4 0 0.8617958239769333 -1.5174983680528238 -4.275897165379357 0 0 1
265 55 4 0 0.052522353957028325 -2.75645550882641 -3.208251797069105 0 0 0
481 127 4 0 3.5300035778000187 -1.0566328121393518 -1.4323481696651712 0 0 0
521 141 2 0 1.7203717176371083 -2.7557829255762987 -3.440360070174702 0 0 1
24 5 3 0 2.188662678786373 -2.7397566291660476 -4.083083039075923 -1 0 0
523 141 4 0 2.0810476942449374 -2.7448195651823597 -3.6772688276463854 0 0 1
21 5 1 0 2.5731888914164394 -2.6344002971047433 -4.285332563132248 -1 0 0
25 5 3 0 2.8884434257263982 -2.5277804054492132 -3.9643454598250005 -1 0 0
629 177 2 0 2.1537589957117276 -1.654699646787254 -3.28157709555326 0 0 1
497 133 2 0 1.6686813792123056 -1.3412896765207911 -0.12296568529428754 0 0 0
630 177 4 0 2.3266809446622054 -1.8160748610346975 -2.886806253152056 0 0 1
479 127 2 0 3.5588244807359377 -1.5056839286862076 -1.5099550605628067 0 0 0
504 135 4 0 3.698661396241986 -2.0763907927985645 -3.0376425881780826 0 0 0
270 57 4 0 4.090459538164749 -2.0994955588597466 -3.095653609155661 -1 0 0
163 33 3 0 1.0465953300257596 -1.2927812201265405 -4.034106390654265 0 0 1
164 33 3 0 1.0969917283730506 -0.9780436052104539 -3.383941517316721 0 0 1
161 33 1 0 1.3062243506384958 -1.03557624706456 -3.7742124336026985 0 0 1
165 33 3 0 1.3868089734957603 -0.6188740575346197 -3.9831784150650313 0 0 1
508 136 4 0 0.846736688320178 -1.1053312356407408 -3.1159794349105923 0 0 0
520 140 4 0 1.5360039447499363 -0.6178945661467034 -4.3648581612890665 0 0 1