LAMMPS data file via write_data, version 19 Nov 2024, timestep = 10000, units = lj

23 atoms
4 atom types
16 bonds
1 bond types
12 angles
2 angle types

-1.4938 1.4938 xlo xhi
-1.4938 1.4938 ylo yhi
-1.4938 1.4938 zlo zhi

Masses

1 1
2 1
3 0.1
4 0.1

Bond Coeffs # harmonic/omp

1 100 0.45

Angle Coeffs # harmonic/omp

1 100 180
2 100 109.471

Atoms # full

6 2 2 0 -0.5176511251675557 -0.46350354752980505 -1.1984554821202822 0 0 0
3 1 3 0 -1.3657444067744506 -1.0409281697483304 -0.9526105476659125 1 0 0
1 1 1 0 -1.4337605371753126 -1.060161336714643 -1.4237516969380695 1 0 0
8 2 4 0 -0.33782075861037647 -0.26867726437960987 -0.8404171108577007 0 0 0
9 3 2 0 -0.19984310421581117 -0.033735873420259375 0.14271130829362164 0 0 0
11 3 4 0 -0.4030943642549024 -0.40021743682313016 0.3232828077979343 0 0 0
23 7 4 0 -0.4558317128918076 -1.4340285050736328 0.633040131810186 0 1 0
21 7 2 0 -0.20562112886850115 -1.3850214451580596 1.0148515226285635 0 1 0
7 2 4 0 -0.7102407760985038 -0.6682997156207745 1.4337225755019438 0 0 -1
5 1 3 0 -1.064902795122053 -0.8816446911925852 1.3409291586717969 1 0 -1
16 5 4 0 -0.4078579229763697 0.887898775282976 -0.29267113274860407 0 0 0
10 3 4 0 -0.010732544594173103 0.3256728348332817 -0.04557300993984723 0 0 0
15 5 2 0 -0.5714025325432016 1.1281240989239643 0.050116426045217766 0 0 0
4 1 3 0 -1.4835734792240542 1.462529655413176 1.4294081332764381 1 -1 -1
17 5 4 0 -0.7374197531531116 1.3849950639864943 0.3873237369486639 0 0 0
20 6 4 0 1.3372468078102409 -1.0963050555247322 -0.680038284966045 0 0 0
18 6 2 0 1.2363819086798522 -1.4154046127774211 -0.36225222374333904 0 0 0
22 7 4 0 0.018990562429444725 -1.3369264242633816 1.3829026190602447 0 1 0
2 1 3 0 1.1755968551443303 -0.8328126076588371 1.4562178376522148 0 0 -1
13 4 4 0 0.7570395341719998 1.0148652859826899 -0.7600874547978403 0 0 0
12 4 2 0 0.4303710637072654 0.7770886800888039 -0.5876989738354906 0 0 0
14 4 4 0 0.07889969983579753 0.517034018054191 -0.40817021088304484 0 0 0
19 6 4 0 1.1464131874303394 1.243130141534499 -0.042503658605014066 0 -1 0

Velocities

6 -0.09163192011181569 0.22504240684684704 -0.05247029668840694
3 -0.7966992701808668 -0.5056070563958923 -1.1266251335528752
1 -0.10626136279893458 0.13827443977448706 -0.07256537423126888
8 0.6373099786912139 -0.5179323540195298 -0.07232883279519929
9 -0.5459571363148222 -0.1253024264532465 -0.14902030476705116
11 -0.6269896887595422 -0.15901866145279808 0.0604397520107389
23 0.6965689370884591 -0.35955657886214004 -0.17200411569695284
21 -0.22063220776022374 0.010906612650246013 -0.10194181867093012
7 0.19769654153984081 -0.19612678877998407 -0.926623794787271
5 -0.32173520514575304 1.1999773668885174 -0.45582235675591026
16 -0.37090072114069694 0.05142067022677232 0.2513594479392201
10 -0.6750860668373155 0.6086549175695553 -1.5274600289845681
15 -0.06889608864015064 -0.4338789118170169 0.2795340135609688
4 0.3991679624706428 -0.2256052311615223 -0.2761791526438416
17 0.18872958386937583 -0.30428403885116784 -0.16696536958488267
20 0.6140238840975363 -0.6184534965013386 -0.9953777102631299
18 -0.18482530496867489 -0.06119838988733979 0.08070899239981585
22 -0.1434296363583425 -0.23174344796966398 -0.6109664817226343
2 -0.8735596663434811 -0.9214388844441007 0.6344624872757298
13 0.30300151168982203 0.18701050506854217 -0.6610686556107895
12 -0.06228885772528044 0.09813409509887547 0.06593155632105675
14 1.5890542231980016 -0.16242259136495968 -1.052798436997123
19 0.3751513342549612 -0.4629390212405105 -0.7534010113032225

Bonds

1 1 6 7
2 1 6 8
3 1 1 2
4 1 1 3
5 1 1 4
6 1 1 5
7 1 9 10
8 1 9 11
9 1 21 22
10 1 21 23
11 1 15 16
12 1 15 17
13 1 18 19
14 1 18 20
15 1 12 13
16 1 12 14

Angles

1 1 7 6 8
2 2 2 1 3
3 2 2 1 4
4 2 2 1 5
5 2 3 1 4
6 2 3 1 5
7 2 4 1 5
8 1 10 9 11
9 1 22 21 23
10 1 16 15 17
11 1 19 18 20
12 1 13 12 14
