LAMMPS data file via write_data, version 19 Nov 2024, timestep = 9000000, units = lj

658 atoms
4 atom types
472 bonds
1 bond types
436 angles
2 angle types

-4.496439 4.496439 xlo xhi
-4.496439 4.496439 ylo yhi
-4.496439 4.496439 zlo zhi

Masses

1 1
2 1
3 0.1
4 0.1

Bond Coeffs # harmonic/omp

1 100 0.45

Angle Coeffs # harmonic/omp

1 100 180
2 100 109.471

Atoms # full

592 164 4 0 -3.889592204549567 -3.09830813438422 -4.152042938051294 0 0 0
232 47 3 0 -3.637874832338834 -4.151596417681386 -4.055275599395695 1 1 0
235 47 3 0 -3.662391512734666 -3.4143984282039455 -4.172913935104788 1 1 0
231 47 1 0 -3.799916256140762 -3.8298976411730687 -4.326988425652174 1 1 0
505 135 4 0 -3.2010849538848234 -3.3296147669576777 -2.8892213193010465 1 -1 0
450 117 4 0 -3.406781987076789 -4.459710861717321 -3.9841134707481043 1 1 1
234 47 3 0 -4.263529384020053 -3.8482509827345113 -4.3316079668252 1 1 0
329 77 2 0 -2.2866216297313104 -3.6961665634265963 -3.8939581448575566 0 0 0
210 42 3 0 -2.4340918956145896 -3.7603427364213875 -3.035576640178584 1 0 1
330 77 4 0 -2.380272142688473 -3.716771201919767 -3.4345094321573573 0 0 0
331 77 4 0 -2.18996146001603 -3.6814877266004236 -4.3163758613847065 0 0 0
119 24 3 0 -0.5434893202003749 -4.1689505622028955 -4.117875264078031 0 0 0
116 24 1 0 -0.12685413522011874 -4.254780640001198 -4.293272348606642 0 0 0
567 156 4 0 -0.7488197848515514 -3.828315253549165 -4.235830569937959 1 1 0
590 164 2 0 -4.108712266482861 -2.6929697216316235 -4.118043422584424 0 0 0
591 164 4 0 -4.3199361458641015 -2.2995583114013995 -4.093084365959678 0 0 0
580 160 4 0 -3.8223082232137897 -2.314531732401575 -3.1513484747000606 0 0 0
488 130 2 0 -1.3319984800589422 -0.777009462380452 -1.176840004240691 1 -1 0
578 160 2 0 -4.1616484213553555 -2.030759101337131 -3.167868654900453 0 0 0
62 13 3 0 -4.178829335725997 -2.0113971734827643 -4.365414444315958 0 0 0
309 70 4 0 -3.3172494369605423 -0.0386021307987724 -3.8548760596552127 0 0 0
248 50 3 0 -4.376503206599888 -0.4823552054406592 -1.4202278001714748 0 0 1
374 92 2 0 -4.482633885420288 -2.957333789344261 -1.948243101183778 0 1 0
357 86 4 0 -0.4165028005393328 -0.4173956472132743 -3.745356814521256 0 0 1
356 86 2 0 -0.6601747322408577 -0.605334238892887 -3.3913027400074354 0 0 1
358 86 4 0 -0.8946951284642456 -0.7873650382713914 -3.0496695949945387 0 0 1
490 130 4 0 -0.9094779506166075 -0.9927130160003499 -1.1650709697875063 1 -1 0
13 3 3 0 -0.4238503840524899 -0.23548322497151805 -4.103069660953803 -1 0 0
229 46 3 0 -4.22192588954521 -4.0945096826684075 -2.798893945532465 1 0 0
504 135 4 0 -3.9161247906771868 -3.8576434195133182 -2.8857923413706947 1 -1 0
503 135 2 0 -3.560862452933371 -3.5987513218695404 -2.8862663708877796 1 -1 0
227 46 3 0 -4.395489867242405 -3.715803911617299 -2.1841465341347748 1 0 0
375 92 4 0 -4.330411532333393 -3.324930114069518 -2.1369527765047844 0 1 0
207 42 3 0 -1.9210641837903917 -4.215735868801381 -2.7607881794562306 1 0 1
489 130 4 0 -1.7494728545407991 -0.5743311866839359 -1.1855507594415455 1 -1 0
206 42 1 0 -2.1614324715913344 -3.836602078695871 -2.6848528943213292 1 0 1
208 42 3 0 -2.416517005537751 -3.898997704391514 -2.311163279189156 1 0 1
255 52 4 0 -2.5688514420831665 -4.281361332393741 -2.3321758579433527 -1 1 0
209 42 3 0 -1.8913562236368902 -3.4976552533131464 -2.6296658717808836 1 0 1
556 152 4 0 -1.6549038307309796 -3.4093449249788295 -2.2919391998595606 1 0 1
554 152 2 0 -1.3213438125013066 -3.531259570592551 -2.000058242412661 1 0 1
555 152 4 0 -0.9863337128923859 -3.6609241741491543 -1.7091370205837495 1 0 1
25 5 3 0 -0.6977751119408779 -3.8305747575450195 -1.4720482195912512 0 0 0
307 69 4 0 -0.8508914729698275 -1.3529491737958064 -1.042708934602126 0 0 0
75 15 3 0 -3.484199152924763 -2.4722931298366215 -3.014400703064639 0 0 0
73 15 3 0 -3.3367175237251634 -2.4201603253008024 -2.255784475048517 0 0 0
72 15 3 0 -3.0323889788728944 -2.9809501297880447 -2.706013485386617 0 0 0
71 15 1 0 -3.1685935334826376 -2.5338153567080806 -2.6985703793097082 0 0 0
412 104 4 0 -3.1526704266482626 -2.4421186840158287 -1.9162564863945013 0 1 1
74 15 3 0 -2.8220460874469993 -2.263030292178504 -2.7946071878150267 0 0 0
258 53 4 0 -2.731389004910549 -1.9148429639157276 -2.6128791338303863 0 0 0
410 104 2 0 -3.0220432000931527 -2.360610186648237 -1.510193195757377 0 1 1
125 25 3 0 -3.8188395567280047 -0.33023139844973853 -2.9160647528782775 1 0 0
379 93 4 0 -3.823987100057805 -0.3430207929505308 -2.5136703751520826 0 0 0
377 93 2 0 -3.9798312862414265 -0.3423080327404486 -2.1066053397637763 0 0 0
378 93 4 0 -4.136908500398888 -0.3477840226693225 -1.6889116338192995 0 0 0
42 9 3 0 -2.7526824284214273 -0.6964297084798239 -1.3385925749044079 0 0 1
259 53 4 0 -2.575063238653484 -1.232028131097234 -2.0924570176738935 0 0 0
257 53 2 0 -2.6475304424175397 -1.5613612833275337 -2.3546048685365504 0 0 0
43 9 3 0 -2.393627947786804 -0.906677301074885 -1.952393182301485 0 0 1
44 9 3 0 -2.5567389829611704 -0.18211287852141567 -1.8603487798216956 0 0 1
41 9 1 0 -2.4318816922932616 -0.5833461846981988 -1.649353178171869 0 0 1
22 5 3 0 -0.08156111166038037 -4.100575725598667 -1.10024464514358 0 0 0
21 5 1 0 -0.5668850959495249 -4.096833263308435 -1.1282368584371798 0 0 0
24 5 3 0 -0.7353830233875097 -3.9395760400338866 -0.7313757010821907 0 0 0
428 110 2 0 -0.9603399778534188 -3.478137180571675 -0.30903617908435344 0 0 1
429 110 4 0 -1.0664714488706908 -3.8244791302516314 -0.5558629080407734 0 0 1
430 110 4 0 -0.8519203269313553 -3.1326331811222516 -0.05880560161602108 0 0 1
584 162 2 0 -3.054884166373507 -2.7337850014486356 -0.4335455183478621 1 0 0
411 104 4 0 -2.889539572517458 -2.270250121974028 -1.0999596010351862 0 1 1
585 162 4 0 -2.8726093767909022 -2.5506991725219135 -0.7745989093693989 1 0 0
305 69 2 0 -0.6983985192953629 -1.7614768147471407 -0.8358241934501798 0 0 0
306 69 4 0 -0.5625907457305551 -2.158354112437371 -0.6369185656795558 0 0 0
7 2 3 0 -0.757463267697117 -2.349029087526281 -0.3601048182521755 0 -1 -1
310 70 4 0 -2.5604189709125125 -0.07542278427206378 -4.385492717060557 0 0 0
636 179 4 0 -3.81861084780302 -0.8781345782921535 -0.8082584807122611 1 -1 0
635 179 2 0 -3.3859774709622443 -0.7864559876494127 -0.8841625961325003 1 -1 0
247 50 3 0 -4.196797288137266 -0.7083656627344314 -0.7568589566758739 0 0 1
637 179 4 0 -2.9272626460257594 -0.6870986365333627 -0.9631878497419899 1 -1 0
45 9 3 0 -2.0456321670600475 -0.5296097693793629 -1.4436287300730337 0 0 1
308 70 2 0 -2.9434105913033015 -0.05797706802605749 -4.113336393440901 0 0 0
586 162 4 0 -3.2450114909079626 -2.9272059535036354 -0.06946799581603678 1 0 0
566 156 2 0 -0.8903543496173351 -3.4820297642227866 -4.447496729124858 1 1 0
295 65 4 0 -1.5609049916751163 -0.2651985762856214 -4.4666225108125435 0 0 -1
50 10 3 0 -4.007847686174641 -3.4432715700867482 0.5145319762080313 1 0 0
473 125 2 0 -3.2423275021482576 -3.5884136447282122 1.4088960999216948 0 1 0
607 169 4 0 -4.288449667744539 -3.6060515442512124 0.7885312062337593 0 0 -1
47 10 3 0 -3.4751973523363535 -3.114920942226639 0.9093377542847334 1 0 0
605 169 2 0 -4.322142613972395 -3.8232152920109006 1.1644726877776275 0 0 -1
474 125 4 0 -3.4603932939430395 -3.4923885451263375 1.0462906219716661 0 1 0
46 10 1 0 -3.7734596967043563 -3.046149728431362 0.5818481667338855 1 0 0
49 10 3 0 -3.5424458706888964 -2.9251222971672917 0.18640782548850887 1 0 0
475 125 4 0 -3.0208625553450448 -3.6795199035196817 1.7780881942040687 0 1 0
48 10 3 0 -4.047241044261134 -2.719065627971111 0.7066040413109871 1 0 0
634 178 4 0 -4.232285179797391 -2.556883035650648 1.0189781881805648 0 1 0
361 87 4 0 -2.7631904715867295 -0.1832847447661211 3.276815342247721 0 1 -1
594 165 4 0 -2.5343796696641925 -1.7268974095632736 1.1542846376410782 0 0 0
143 29 3 0 -2.1042869852701935 -1.718864704056454 0.09070985697101032 0 0 0
326 76 2 0 -0.5857082379800318 -1.9552066517968918 1.0443778489143842 0 -1 0
327 76 4 0 -0.7371939904654147 -1.8252996911827506 0.6355972769973485 0 -1 0
8 2 3 0 -0.754823280509932 -2.1228781225302953 0.3494433834210293 0 -1 -1
6 2 1 0 -0.6353981489957493 -2.4576624490975076 0.06883643097118675 0 -1 -1
10 2 3 0 -0.1759703973798576 -2.520643538635968 0.08316955195724922 0 -1 -1
266 56 2 0 -2.987106116531512 -0.6306146848744552 0.48108620074376046 -1 -1 0
268 56 4 0 -3.2933244920349436 -0.35067601017602584 0.6683406130101408 -1 -1 0
342 81 4 0 -3.5325146157902334 -0.0911903613411057 0.8319115063486744 0 -1 0
145 29 3 0 -2.4662852650104994 -1.8090608946987734 0.7467954252433222 0 0 0
141 29 1 0 -2.190718349085815 -1.5321097309371667 0.5061294596705831 0 0 0
267 56 4 0 -2.672270796584801 -0.9064745717820937 0.2979843134147349 -1 -1 0
144 29 3 0 -1.8007125756141695 -1.4690870198517363 0.7392655993251432 0 0 0
142 29 3 0 -2.395331187481808 -1.1315024676205137 0.4506276767099799 0 0 0
543 148 4 0 -1.6017715368404977 -1.1374169086855765 0.6883893080955036 1 0 0
92 19 3 0 -0.69968919316802 -0.5353547478056192 0.5998778733325992 0 0 0
91 19 1 0 -0.3900447946163735 -0.24457488859174747 0.6988969458000939 0 0 0
93 19 3 0 -0.029361287819763236 -0.31984504675754877 0.4191807845626334 0 0 0
542 148 2 0 -1.2972744767400102 -0.8300832243683285 0.7905701074703694 1 0 0
544 148 4 0 -0.9878381053866809 -0.5253890589609977 0.8772453559456337 1 0 0
576 159 4 0 -0.5365021794657283 -0.3384057462067815 1.405419409637173 1 0 0
399 100 4 0 -4.208053748842865 -3.3025880016760367 2.428179657652211 0 1 -1
315 72 4 0 -0.8323712859829749 -1.247495762385153 2.9704595137317598 -1 -1 0
90 18 3 0 -2.234439888767229 -4.207140193394634 1.3261490919510672 0 1 0
462 121 4 0 -1.962202908562036 -3.8274144279579536 2.3560590269587403 1 0 -1
87 18 3 0 -2.643680460530009 -3.7531535156362246 1.7860844031192822 0 1 0
88 18 3 0 -2.014193943514229 -3.511815219841774 1.449093786127141 0 1 0
86 18 1 0 -2.2131667411576754 -3.8697802511431796 1.631992253611237 0 1 0
600 167 4 0 -1.8216141224592148 -3.1349814537106537 1.455255980827387 0 1 -1
89 18 3 0 -1.9628339819564962 -4.023515084604576 2.000939571839162 0 1 0
461 121 2 0 -2.0449791991777677 -3.844985661707507 2.8263225342865987 1 0 -1
589 163 4 0 -0.16882555694576193 -4.153946973505796 2.036590733941248 0 1 0
599 167 2 0 -1.4661047003752814 -3.0292725618827956 1.7402462035563129 0 1 -1
587 163 2 0 -0.11664254951292657 -3.7065738288448986 2.04944290894324 0 1 0
588 163 4 0 -0.07013861691453561 -3.2659559703960426 2.069137397196749 0 1 0
65 13 3 0 -4.346857422276563 -1.3499130372640005 4.346742509127272 0 0 -1
593 165 2 0 -2.9748421977034103 -1.8728563868271637 1.2583675010207689 0 0 0
398 100 2 0 -3.899252592359079 -2.989901925410794 2.493189909172257 0 1 -1
595 165 4 0 -3.3967678450162047 -2.018698308132638 1.3651993440695125 0 0 0
400 100 4 0 -3.569846403291385 -2.633668222625679 2.5552351352006215 0 1 -1
571 157 4 0 -3.7352716820968968 -2.4212374305031696 2.854580199086752 0 0 -1
350 84 2 0 -2.342984624184549 -1.3737777813322218 2.592120528563664 -1 0 -1
601 167 4 0 -1.1223048374390696 -2.910375250703981 2.020528839408994 0 1 -1
77 16 3 0 -0.24198044574711017 -2.910471553494767 1.9520579820375976 -1 0 0
328 76 4 0 -0.438965457660437 -2.0828340314401705 1.4384484782849836 0 -1 0
79 16 3 0 -0.9016644483695383 -2.5982785773097663 1.9991490844852318 -1 0 0
76 16 1 0 -0.4594896861600635 -2.5486820385394227 2.0725423401446084 -1 0 0
78 16 3 0 -0.29654496657252366 -2.1767947320076337 1.8151734679236273 -1 0 0
316 72 4 0 -0.28933352275475865 -1.6967997920218592 2.4227367914628677 -1 -1 0
80 16 3 0 -0.37874776209533456 -2.4708426891469566 2.5331183064844787 -1 0 0
245 49 3 0 -3.5218136664933106 -0.5392238780916898 2.6007235988706365 1 0 0
241 49 1 0 -3.0862376980048736 -0.39882535320794943 2.5161899941341725 1 0 0
242 49 3 0 -2.8460657742947246 -0.7551614221870779 2.398484627295779 1 0 0
243 49 3 0 -2.9031896214124213 -0.19813931934351006 2.8942128859796235 1 0 0
351 84 4 0 -2.509458075869889 -0.9951819205971231 2.389310339508863 -1 0 -1
244 49 3 0 -3.094355637473056 -0.1284415275759294 2.2114457735102566 1 0 0
314 72 2 0 -0.559112258532752 -1.4751979966779798 2.7026141073023187 -1 -1 0
575 159 2 0 -0.3909821222932608 -0.20301864076062492 1.822020182368135 1 0 0
138 28 3 0 -1.6624917618318684 -1.2408311181292297 3.675660808916323 0 0 -1
233 47 3 0 -3.6405870078669844 -3.8896343572627288 4.24299822078441 1 1 -1
463 121 4 0 -2.1132700989482465 -3.864888199523354 3.2594300497420514 1 0 -1
658 186 4 0 -2.1949670881947347 -4.0647346094381325 3.5852639846604606 1 1 0
656 186 2 0 -2.0697285967460934 -3.889879622588295 3.976019906911401 1 1 0
657 186 4 0 -1.9453212500835204 -3.715551293010536 4.360691486730751 1 1 0
117 24 3 0 -0.10954086721816077 -4.1207840287314985 4.266335706974945 0 0 -1
568 156 4 0 -1.0408747229119741 -3.126562710025491 4.323758733036952 1 1 -1
577 159 4 0 -0.23788941058541332 -0.0879014595867869 2.2436854461997386 1 0 0
300 67 4 0 -1.1417948523046872 -2.895774938623949 4.036509965880875 -1 0 -1
61 13 1 0 -4.239155200656755 -1.782242128180931 4.247017742723372 0 0 -1
63 13 3 0 -3.8456011348828922 -1.7837215590743525 3.994770995024026 0 0 -1
569 157 2 0 -3.8241708551004816 -2.1524857131383905 3.2474006649944744 0 0 -1
570 157 4 0 -3.9116040120791875 -1.9111187444404814 3.6242412585173875 0 0 -1
139 28 3 0 -1.327419086729402 -1.894071179793158 3.4651246913905958 0 0 -1
352 84 4 0 -2.172205542665836 -1.7554950096565902 2.798795212067571 -1 0 -1
137 28 3 0 -1.8706669935232096 -1.6112216184022055 3.0552777468536942 0 0 -1
140 28 3 0 -1.2124865182495124 -1.2644127500952407 3.0734059793157535 0 0 -1
299 67 2 0 -1.3030066976122099 -2.57710453651726 3.755600717737381 -1 0 -1
301 67 4 0 -1.4647478478654476 -2.2666894995666804 3.4644633876063877 -1 0 -1
136 28 1 0 -1.5166174580656417 -1.5024639306129877 3.309312939049188 0 0 -1
294 65 4 0 -1.5679093057729612 -0.9116069047895069 3.8886436585959334 0 0 -2
293 65 2 0 -1.5651797357026804 -0.5822174889011384 4.211743903968522 0 0 -2
438 113 4 0 -0.07183784054919405 -4.466745064358184 4.062448524180712 -1 0 0
606 169 4 0 -4.347478722040132 -4.045251149512089 1.5350434743614978 0 0 -1
525 142 4 0 -0.04573406966706673 -2.9033163931042405 0.11230997586634904 1 0 0
632 178 2 0 -4.420846110338665 -2.1624035040437075 0.9637915250820265 0 1 0
95 19 3 0 -0.2721315666808544 -0.2934330112198275 1.1321626076911573 0 0 0
625 175 4 0 -0.17150436608962819 -2.636300865366723 2.7904705324461574 0 1 -1
32 7 3 0 -0.2999581738262839 -4.357258195728999 2.8219966055503756 0 0 0
9 2 3 0 -0.8467183030362976 -2.842250475152878 0.19704921145801596 0 -1 -1
124 25 3 0 -4.154662073894213 0.203198146433521 -3.299372278743455 1 0 0
121 25 1 0 -3.7670582935722496 0.06890099172645561 -3.1386658595596755 1 0 0
123 25 3 0 -3.603135777420988 0.3864851550277308 -2.8461765104955026 1 0 0
405 102 4 0 -3.2646150424650875 0.5167498114110431 -2.9973253435368012 -1 0 0
546 149 4 0 -0.10487755203844892 4.115268794995383 -3.9029415988431686 1 0 1
222 45 3 0 -2.3650994826587457 0.27143101801773467 -4.283838658470533 0 1 1
406 102 4 0 -2.478642543483221 0.9888135096581133 -3.0041907512732617 -1 0 0
545 149 2 0 -0.030629543937667977 3.7614906434921904 -3.6289619217822446 1 0 1
404 102 2 0 -2.8764130596309316 0.7569070979234901 -3.0018152417116353 -1 0 0
223 45 3 0 -1.877790065283227 0.8243110101130985 -4.376663516529424 0 1 1
221 45 1 0 -1.998368495240137 0.38057515382171253 -4.495079501079314 0 1 1
14 3 3 0 -0.2550509981208732 0.4787964993290342 -4.1371821194536755 -1 0 0
332 78 2 0 -3.533890339972041 2.7342853777871152 -3.5134443014568615 0 -1 1
334 78 4 0 -3.864246065591018 2.553612797902369 -3.2193449218919894 0 -1 1
558 153 4 0 -3.940420287877771 2.1763388405618214 -3.304116263678489 1 -1 1
333 78 4 0 -3.2265617137888363 2.908714836541209 -3.8006720286255944 0 -1 1
557 153 2 0 -4.356708615228007 2.017187639919474 -3.480167168367751 1 -1 1
30 6 3 0 -3.1493192421049607 2.932255792663829 -4.198263533750257 0 -1 1
157 32 3 0 -2.680189439260799 1.7140303029528574 -3.338705257256485 1 0 0
156 32 1 0 -2.306519399878001 1.712674668348377 -3.0904158095857817 1 0 0
427 109 4 0 -1.7964345498348757 2.208542681715232 -3.581968303198974 0 -1 0
160 32 3 0 -1.9674619239511844 1.9217330244032773 -3.319033618089765 1 0 0
425 109 2 0 -1.7253536668084546 2.3349983778602166 -4.0306612411526626 0 -1 0
426 109 4 0 -1.6557341714026068 2.4475928431677594 -4.419380955161914 0 -1 0
484 128 4 0 -1.3145549785361683 2.6488980145421293 -3.1292945457816526 0 -1 1
483 128 4 0 -0.44806119394884736 2.8881270334310636 -3.0602857173730316 0 -1 1
482 128 2 0 -0.8980816519782326 2.766876254251827 -3.097245024505381 0 -1 1
449 117 2 0 -3.2853889175279485 4.087856775038448 -4.013066935427734 1 0 1
451 117 4 0 -3.1654829285257042 3.646180995527434 -4.041296559889382 1 0 1
27 6 3 0 -2.4324086739109108 2.9284695234550355 -3.977706569122827 0 -1 1
28 6 3 0 -2.7781256396041525 3.5604273334027883 -4.0452831800922 0 -1 1
26 6 1 0 -2.73646392981524 3.1500884249431182 -4.215548146535895 0 -1 1
120 24 3 0 -0.024248794141255598 4.284798801025624 -4.267538095716685 0 -1 0
159 32 3 0 -2.176612049421451 1.277332654545322 -3.002833377953701 1 0 0
373 91 4 0 -2.4808722122069398 0.09892280622158484 -1.6003060207828452 0 0 0
371 91 2 0 -2.703254335810676 0.5194911503431785 -1.6253572477529692 0 0 0
372 91 4 0 -2.910377250875868 0.8999829715603949 -1.6486365630779793 0 0 0
273 58 4 0 -3.394033085153373 1.8855417266687209 -2.0440494835850425 1 -1 1
108 22 3 0 -3.436336563292269 1.5423960751940342 -1.8282585246964915 0 0 1
272 58 2 0 -3.0185810306322094 1.9911915405117315 -2.259826014347949 1 -1 1
158 32 3 0 -2.3794047080089924 1.9220983235295184 -2.719511322963548 1 0 0
274 58 4 0 -2.6459798804001236 2.099863247013114 -2.4715642628146113 1 -1 1
150 30 3 0 -2.311618011307555 2.7964701041424833 -2.61807596430127 1 0 0
535 145 4 0 -2.6052106856245083 3.0411775367978744 -2.7804910872347848 1 0 0
146 30 1 0 -1.8629018712101604 2.799426020976394 -2.5360619971907594 1 0 0
149 30 3 0 -1.7707498191076307 2.509321868776978 -2.2034428932821055 1 0 0
148 30 3 0 -1.6333216789870768 2.6812117416437067 -2.919950168279548 1 0 0
528 143 4 0 -1.6393724917915542 2.72526836953144 -1.886144037335465 0 0 1
527 143 2 0 -1.3270850334770845 2.592898453975412 -1.604846038244581 0 0 1
81 17 1 0 -3.4663543813251882 3.6928428985141872 -1.6625129094086923 0 0 0
82 17 3 0 -3.474308843428491 4.099232983037006 -1.8398795789739089 0 0 0
83 17 3 0 -3.5149036080136913 3.385871981518713 -1.98307252500535 0 0 0
534 145 4 0 -3.223908903995603 3.1429571124397424 -2.106151438393692 1 0 0
408 103 4 0 -1.648415990576726 3.8678995837372634 -1.1306553996081075 0 0 1
516 139 4 0 -0.180465866470289 3.5167157493453907 -0.28867593033422173 0 -1 0
256 52 4 0 -3.264071615100722 4.169771589153412 -2.160906161058094 -1 0 0
533 145 2 0 -2.9125293960550853 3.0957921412530935 -2.4415890710224266 1 0 0
655 185 4 0 -1.788032712183004 4.469653601313895 -2.5052412545384866 0 0 1
653 185 2 0 -1.7843311299822984 4.026968853193585 -2.5425160282860566 0 0 1
654 185 4 0 -1.7681803976144694 3.60020646759496 -2.5803453162014742 0 0 1
147 30 3 0 -1.7355642453697022 3.230431108648555 -2.4124489506178817 1 0 0
107 22 3 0 -3.842782809720318 1.2212407384743518 -1.328146285491016 0 0 1
515 139 2 0 -0.337356509352588 3.139202814086776 -0.48547826185773085 0 -1 0
322 74 4 0 -3.998163974854086 0.9824667949061255 -1.049601411572087 0 -1 1
320 74 2 0 -4.246227979190297 0.6222721374778583 -1.0114871281661286 0 -1 1
106 22 1 0 -3.439469193147465 1.404026206825874 -1.4207934401391764 0 0 1
110 22 3 0 -3.106648351651734 1.0790055597153114 -1.3479158275343983 0 0 1
476 126 2 0 -0.6143238498799475 1.000078137916973 -0.413211245069576 1 0 0
477 126 4 0 -0.5681022341420406 0.5892286617984576 -0.2310310514802832 1 0 0
478 126 4 0 -0.661641968385993 1.405394413418653 -0.5999005096144914 1 0 0
109 22 3 0 -3.372902307853826 1.7705281111710456 -1.1228694046706182 0 0 1
354 85 4 0 -3.578096788588085 2.1159211553908324 -1.0420806733196168 0 -1 1
353 85 2 0 -3.6395750625534182 2.5247771988852867 -0.8898919238195805 0 -1 1
355 85 4 0 -3.7043175614608335 2.951491039710178 -0.7239368636063069 0 -1 1
280 60 4 0 -4.057358994922302 3.0118049627132693 -0.9204126789952707 1 -1 0
5 1 3 0 -0.21530685995739932 2.0346732005098818 -0.723360319795496 0 -1 0
529 143 4 0 -0.9941457870142077 2.449344953164421 -1.3079723843693423 0 0 1
517 139 4 0 -0.4995644885265392 2.7566966297369797 -0.6814544747034873 0 -1 0
1 1 1 0 -0.6221866551697038 2.1166965466414958 -0.8063973142687965 0 -1 0
3 1 3 0 -0.6710888683898629 2.2077954040439254 -1.243625403740129 0 -1 0
2 1 3 0 -0.8591809790186391 1.7532012481134671 -0.6912263773584 0 -1 0
4 1 3 0 -0.7564279528845764 2.46810982245327 -0.572656129553831 0 -1 0
85 17 3 0 -3.803898005440322 3.6500570342687237 -1.3647073569758001 0 0 0
84 17 3 0 -3.0681514502722407 3.6275974312523385 -1.4522036076514977 0 0 0
278 60 2 0 -4.368165358817867 3.3069140181228085 -1.1011437765181809 1 -1 0
551 151 2 0 -2.3575736260565283 3.5216339139641786 -1.3089842781351315 0 -2 -1
553 151 4 0 -2.7643102401665995 3.404506206970991 -1.4937218038254978 0 -2 -1
552 151 4 0 -1.976770151194931 3.634455064578054 -1.1269775757133131 0 -2 -1
254 52 2 0 -2.9029004972481105 4.436860827521368 -2.246079384159883 -1 0 0
407 103 2 0 -1.2269744592047094 3.983210963418058 -1.2350990579108168 0 0 1
409 103 4 0 -0.7910163071969482 4.10113351887222 -1.3358205670793544 0 0 1
23 5 3 0 -0.7074984259331055 4.4634252505544705 -1.1952861102409102 0 -1 0
122 25 3 0 -3.464863065276276 0.017287065636514692 -3.48151767805892 1 0 0
224 45 3 0 -1.6723949637851123 0.09679161330346184 -4.375386436698678 0 1 1
11 3 1 0 -0.26508338755474925 0.10479798345721136 -4.377003601399523 -1 0 0
341 81 2 0 -3.967507133464625 0.054240576259504805 0.7914209027523735 0 -1 0
343 81 4 0 -4.389342339565267 0.20938814102810296 0.7590161630264183 0 -1 0
180 36 3 0 -1.9018266961872783 1.3689021311883953 1.1458421332783446 1 0 0
433 111 4 0 -0.725709047609749 0.39507351301564586 0.9248993247835958 0 -1 0
431 111 2 0 -1.0320827539277853 0.6889192896074653 1.105415959516887 0 -1 0
432 111 4 0 -1.3538808304918368 0.9787407234107566 1.2975025559064723 0 -1 0
94 19 3 0 -0.538823856646626 0.1597504018105689 0.6364240679114644 0 0 0
457 119 4 0 -1.7245391387864213 1.6119645257964106 0.8820581953853001 1 -1 0
455 119 2 0 -1.880363881048191 2.0029535412068484 0.7256693738307122 1 -1 0
456 119 4 0 -2.0353486304382025 2.3963219167073944 0.5698222578092169 1 -1 0
501 134 4 0 -2.101297052755281 2.74856884682783 0.7527213796315788 0 0 0
500 134 2 0 -2.323817979788146 3.0931160832461346 0.9839227966718374 0 0 0
502 134 4 0 -2.5313334942104446 3.4241895524288295 1.1986469241978197 0 0 0
497 133 2 0 -0.09759969639956838 3.8503914913753663 0.3795852455972953 0 0 0
176 36 1 0 -1.8438946863276435 1.2826050115319068 1.5620497360488204 1 0 0
179 36 3 0 -2.1390540737968755 0.9388844474096762 1.6860172233637605 1 0 0
421 107 4 0 -2.254406180613712 0.8141887591743826 2.0577805338344675 1 1 1
419 107 2 0 -2.558042642209448 0.48919670737078824 2.172984006881407 1 1 1
420 107 4 0 -2.8511543531679844 0.16731733240486454 2.2929760515808866 1 1 1
178 36 3 0 -1.4387876756778257 1.1685565793544421 1.6264879782120345 1 0 0
437 113 2 0 -0.1486364350851129 4.474431021178692 3.605521501868065 -1 -1 0
17 4 3 0 -4.415532607929156 3.7251815164258586 4.070370821399038 0 -1 -1
288 63 4 0 -4.4510374228888185 2.9688175256998655 3.790360168693506 0 -1 -1
192 39 3 0 -3.9725006849651674 1.753981995377494 2.4726634462053614 1 0 0
530 144 2 0 -4.422715333313432 2.877964601411057 2.744330748478976 1 -1 0
193 39 3 0 -3.445127953788987 1.9885190101031058 2.019391894230007 1 0 0
191 39 1 0 -3.8845531041559553 2.033746198055248 2.1547710220971683 1 0 0
195 39 3 0 -3.9459956789083463 2.4582612935143215 2.31975928935087 1 0 0
531 144 4 0 -4.108007593181056 2.745631930040714 2.467979815860081 1 -1 0
194 39 3 0 -4.156802243124316 1.9640556498790687 1.8209279297726007 1 0 0
550 150 4 0 -3.1543752074072824 1.7277052657955752 2.1406345999723384 1 -1 0
177 36 3 0 -1.9341626293276077 1.6554420471313989 1.7988117745835859 1 0 0
549 150 4 0 -2.266497044442541 1.711333783488868 2.0114447702407787 1 -1 0
548 150 2 0 -2.721035097189692 1.7279624229701267 2.075560373434817 1 -1 0
389 97 2 0 -2.0653222959137247 3.0026315645161405 2.9134489816515563 0 -1 -1
111 23 1 0 -0.21235277965328286 2.7508597482180743 2.4969332785369303 -1 0 0
114 23 3 0 -0.3243111018834153 2.79737346126943 2.9676830255530557 -1 0 0
112 23 3 0 -0.3450588618595092 3.1069575975324266 2.279806495444691 -1 0 0
368 90 2 0 -0.2139779737042653 1.6991985446395177 2.174860089953705 0 0 0
115 23 3 0 -0.41646071310255633 2.380448086059017 2.3295428987900237 -1 0 0
369 90 4 0 -0.5108883680927769 2.023362635765936 2.1856200411217426 0 0 0
29 6 3 0 -2.5846922549302764 3.1940744263034837 4.321281066099402 0 -1 0
390 97 4 0 -1.9892913281027282 3.233618693580553 2.5140947022319104 0 -1 -1
133 27 3 0 -2.2542582376288265 3.4010251069795987 2.2532099553443965 0 -1 -1
135 27 3 0 -2.3411802118088643 3.38528149524389 1.5314424595862444 0 -1 -1
131 27 1 0 -2.337006924060208 3.654868064981854 1.9057049507526842 0 -1 -1
134 27 3 0 -2.734345897528974 3.8494933246764136 1.9564741117283215 0 -1 -1
132 27 3 0 -2.0153417904385162 3.9649798980857898 1.8605205908683187 0 -1 -1
513 138 4 0 -1.7159130363352053 3.7691582310142233 2.0780791769069356 0 -1 0
512 138 2 0 -1.335913182211452 3.991715018222888 2.180791103056575 0 -1 0
514 138 4 0 -0.944620321523481 4.21980018339332 2.280351774355118 0 -1 0
33 7 3 0 -0.6929394398321489 4.072117035097065 2.553856276934782 0 -1 0
31 7 1 0 -0.30164468932270133 4.287422760854164 2.5395019426671084 0 -1 0
447 116 4 0 -2.6872025735073835 3.4013452142728315 3.9886469707799073 0 -1 -1
628 176 4 0 -0.123856065341605 0.6459510977073498 3.2245633348651017 0 0 0
359 87 2 0 -2.525299884448455 0.08903080713048767 3.4942760745673143 0 1 -1
360 87 4 0 -2.2800360119387597 0.37586527573730444 3.7207294281280983 0 1 -1
225 45 3 0 -2.0667375488798596 0.357991010508797 4.06454962464212 0 1 0
467 123 2 0 -1.6325787899043993 1.3900865596395628 4.056122798587701 -1 0 0
468 123 4 0 -1.6429516137239908 1.11383169917894 4.436901191188352 -1 0 0
626 176 2 0 -0.38164290557276176 0.47111083155041455 3.5428899813905614 0 0 0
627 176 4 0 -0.6441635495067481 0.29136514628516746 3.871835440928962 0 0 0
15 3 3 0 -0.5442911201398068 0.15435424792305294 4.26238484666522 -1 0 -1
469 123 4 0 -1.6124386826544144 1.634963312147455 3.71400847762804 -1 0 0
391 97 4 0 -2.134875614451904 2.7817120815568597 3.2776234835901312 0 -1 -1
169 34 3 0 -1.845959461446562 2.7450935363285094 3.5804038118476527 1 -1 0
170 34 3 0 -1.9211412582002865 2.4657649962432053 4.2606911704799 1 -1 0
166 34 1 0 -1.6732730192029148 2.4636766837335426 3.890771236335945 1 -1 0
167 34 3 0 -1.6612425438349907 2.027964537565646 3.7193068425975393 1 -1 0
507 136 4 0 -0.2250627419478658 2.9790512964896885 3.3185554577855343 0 -1 0
168 34 3 0 -1.2475316345841025 2.6021382262929196 4.002406176089084 1 -1 0
506 136 2 0 -0.5883304505699195 2.837169243060179 3.536925688469268 0 -1 0
508 136 4 0 -0.941691963762396 2.6925073540738054 3.764526693937992 0 -1 0
448 116 4 0 -3.4250501906341886 3.856967613275418 3.655558814702043 0 -1 -1
446 116 2 0 -3.04230850492499 3.6130346721822737 3.827456166741275 0 -1 -1
19 4 3 0 -4.1488636397187335 3.2011834225660816 3.6534169553842575 0 -1 -1
16 4 1 0 -4.217698715080218 3.6472191321759757 3.6876264758780093 0 -1 -1
18 4 3 0 -3.8262978957211393 3.865370454462588 3.6765350012725273 0 -1 -1
34 7 3 0 -0.22505178721054103 4.427599412062953 2.104721162581589 0 -1 0
439 113 4 0 -0.23738344970412278 4.426752729040257 3.1662518712864296 -1 -1 0
498 133 4 0 -0.28133904335763055 3.7504734713822274 0.017473568329464503 0 0 0
118 24 3 0 0.20054370857968928 -4.006589850044852 -4.049760379413838 0 0 0
271 57 4 0 0.39496179500910117 -3.6875501850016175 -3.91796494625254 0 0 0
269 57 2 0 0.7939717055319714 -3.847896917633088 -3.861500221548549 0 0 0
270 57 4 0 1.2157554792856733 -4.019572992426484 -3.8238634974149837 0 0 0
485 129 2 0 2.0246047427423486 -4.1496433009188225 -3.984070588965978 0 0 0
487 129 4 0 2.451634669884288 -4.235173271766117 -3.986715778443308 0 0 0
486 129 4 0 1.585205162644958 -4.063667818088965 -3.9942990809730023 0 0 0
130 26 3 0 2.5996048932981974 -4.241061139527617 -4.355356483409879 1 1 0
495 132 4 0 3.9081442308746577 -3.501955234299245 -2.9354662409015178 0 0 0
252 51 4 0 0.433439760859122 -2.6892556120260034 -3.8705952240343016 0 1 1
251 51 2 0 0.5755543356238142 -2.772914469359192 -4.304238676792592 0 1 1
581 161 2 0 0.5353082525533753 -2.596373620085566 -3.111619875171465 -1 0 0
582 161 4 0 0.5405017634534912 -2.8048321279982944 -3.509922149412415 -1 0 0
349 83 4 0 0.6768604057480558 -1.388510082704173 -4.292617223044682 -1 0 0
347 83 2 0 1.1104576099016497 -1.496939998827413 -4.232371285587822 -1 0 0
348 83 4 0 1.5435030690695428 -1.6037801011929826 -4.162299800882933 -1 0 0
382 94 4 0 1.868222917682613 -1.4055327624988545 -3.9830715778959798 -1 0 0
380 94 2 0 2.194674635965727 -1.1215482286308156 -3.9335574205119825 -1 0 0
381 94 4 0 2.5512728975235612 -0.8161189178859838 -3.887292858542976 -1 0 0
105 21 3 0 2.9069734004268595 -0.7770060110367282 -4.061582026909804 0 0 0
104 21 3 0 3.362413076597573 -0.2468643879910968 -3.7341386480753362 0 0 0
101 21 1 0 3.1247650482758855 -0.3376001407542772 -4.110526587142384 0 0 0
250 50 3 0 4.371682246787809 -0.11578143976321507 -0.8119498314746989 -1 0 1
103 21 3 0 3.411269107008039 -0.342630773060745 -4.477516993991709 0 0 0
572 158 2 0 1.384199682315803 -3.665854914761824 -2.520769737157612 0 0 0
574 158 4 0 1.415200694364036 -3.298294743480055 -2.8039081284093914 0 0 0
612 171 4 0 0.3131464611277158 -4.009039490693086 -1.1239984588879395 0 0 1
573 158 4 0 1.3447630840030924 -4.0194330507868905 -2.25260816837517 0 0 0
613 171 4 0 0.908644257616421 -4.3920396375184785 -1.6193745870137624 0 0 1