LAMMPS data file via write_data, version 4 Feb 2025, timestep = 200000, units = lj

64 atoms
4 atom types
48 bonds
1 bond types
56 angles
2 angle types

-2.5 2.5 xlo xhi
-2.5 2.5 ylo yhi
-2.5 2.5 zlo zhi
0 0 0 xy xz yz

Masses

1 1
2 1
3 0.1
4 0.1

Bond Coeffs # harmonic/omp

1 100 0.45

Angle Coeffs # harmonic/omp

1 100 180
2 100 109.471

Atoms # full

12 3 3 0 -0.8506127621075918 -0.5964833695483927 -1.3804152546202402 5 0 1
43 9 4 0 -0.31489809720235407 -0.7141229528267266 -2.2307829341633867 5 0 1
14 3 3 0 -0.3464269505243225 -0.5149969010029376 -1.8872428524005675 5 0 1
23 5 3 0 -2.464202379062318 -0.043891108926703115 -1.3871933805582852 5 0 2
15 3 3 0 -0.6395036111531436 0.05620241124717884 -1.5820109701507485 5 0 1
46 10 4 0 -0.5308606139678751 0.3037980741658268 -1.2530236048893824 9 1 1
11 3 1 0 -0.5080373125169899 -0.346088911825599 -1.5214426537498797 5 0 1
13 3 3 0 -0.1963994643656477 -0.34092857462841053 -1.2063089942631902 5 0 1
45 10 4 0 -0.943247342522846 1.0805489128180756 -1.134918446524176 9 1 1
44 10 2 0 -0.747340814061241 0.7043668683384467 -1.1932582576715614 9 1 1
17 4 3 0 -0.04001108592222913 1.3262039649066026 -1.2791265916644747 2 -1 1
2 1 3 0 -0.3198855292241909 -2.372419413378733 -0.668877039503196 6 1 -1
5 1 3 0 -0.014571378143671154 2.306539083762864 -0.09420068558809191 6 0 -1
1 1 1 0 -0.08561687754101399 2.2729330445864324 -0.5276323168560149 6 0 -1
3 1 3 0 -0.3010423729698002 1.9058030702241453 -0.6113658859961757 6 0 -1
28 6 3 0 -0.9787749081951123 -0.6926022919795902 1.057398566218113 5 0 1
27 6 3 0 -0.589770135808201 -1.3267021191164834 1.0101872624954744 5 0 1
30 6 3 0 -0.2748149646934479 -0.699237817727143 1.258050439226206 5 0 1
26 6 1 0 -0.6456499636968058 -0.9348900099238477 1.2449632774788926 5 0 1
29 6 3 0 -0.747771387207796 -1.0260991989592763 1.6342133535945145 5 0 1
41 9 2 0 -0.4411270718829883 -0.7822653240825161 2.347992417837675 5 0 0
42 9 4 0 -0.5700193042738753 -0.848408833514086 1.9186252966402932 5 0 0
52 12 4 0 -1.913815719087107 0.13202418467239774 1.0879861669081774 0 -1 1
34 7 3 0 -2.0863876936765857 0.20665436675886673 1.4361809326871198 1 -1 0
50 12 2 0 -1.5253511592031983 -0.10769957260701002 1.0252315134604006 0 -1 1
31 7 1 0 -2.4178509638503645 0.3995030290055608 1.6088479230107149 1 -1 0
35 7 3 0 -2.4762186904767796 0.2478219150412868 2.03410127989107 1 -1 0
51 12 4 0 -1.1512052638219386 -0.34985730065846976 0.9527399323854011 0 -1 1
32 7 3 0 -2.3446775271433182 0.8616139492127455 1.6179609371167274 1 -1 0
48 11 4 0 0.12570223756965415 -0.2921098429452589 -0.991886274775674 9 1 2
47 11 2 0 0.34755164303912167 0.11543083885003069 -0.948292377228471 9 1 2
24 5 3 0 1.9106865937594257 -0.2525490689982939 -1.7127244231527847 4 0 2
58 14 4 0 1.8997245584409352 -0.2537446166598931 -2.1341948904299435 4 0 2
25 5 3 0 1.8892698547605296 0.2272674782024371 -1.1613391433864086 4 0 2
21 5 1 0 2.0927738187967204 -0.13055157419452046 -1.3210740997174413 4 0 2
22 5 3 0 2.0596875771220997 -0.4494668029761959 -1.0447119419035058 4 0 2
56 14 2 0 2.0597595780219606 0.05266008777482689 -2.417093531782711 4 0 2
49 11 4 0 0.5618348416513141 0.5266563770623645 -0.8986997814008357 9 1 2
20 4 3 0 0.5389000379111653 0.9163795786872697 -1.0792583280993429 2 -1 1
16 4 1 0 0.30177706818335626 1.2982339134119174 -0.9997448218703975 2 -1 1
53 13 2 0 2.1157813053079124 0.9905583293332887 -0.9774421476035684 1 -1 1
55 13 4 0 1.9208088208142051 0.6021103973170732 -0.9881702865554398 1 -1 1
54 13 4 0 2.31501971281189 1.4013105455883035 -0.9723282398828368 1 -1 1
18 4 3 0 0.578877096613942 1.6647473144061635 -1.0589461708069947 2 -1 1
63 16 4 0 0.5863937500596195 -1.676785566724802 -0.5990550871346156 3 0 3
62 16 2 0 0.8884143358174645 -1.5910759316133447 -0.2788904394201581 3 0 3
64 16 4 0 1.1677485962915513 -1.503811630677812 0.03039924247643322 3 0 3
38 8 3 0 1.8118393845393745 -1.6072441000646187 0.47465354724598185 3 0 3
40 8 3 0 1.138913552087808 -1.3445833158884075 0.3820779357259325 3 0 3
36 8 1 0 1.5355401043936663 -1.2572462704628107 0.5547240864866332 3 0 3
37 8 3 0 1.7094609522745507 -0.8803403606884728 0.35694772173882994 3 0 3
61 15 4 0 1.738159404234933 -0.5010528059048092 0.21685824799371245 4 0 2
59 15 2 0 1.894647636964975 -0.4568448448615947 -0.21123030194779524 4 0 2
60 15 4 0 2.0483849834312373 -0.40359605770089635 -0.6381200082994871 4 0 2
19 4 3 0 0.1460054263026862 1.3011693385098564 -0.5762026801196374 2 -1 1
4 1 3 0 0.28246449042058375 2.270697194613014 -0.7320428480372976 6 0 -1
39 8 3 0 1.4902530196028474 -1.1796880717226168 1.0115244318404075 3 0 3
57 14 4 0 2.2297888235506065 0.3710950816958265 2.294307863878683 4 0 1
33 7 3 0 2.2132681981126936 0.3095542952700714 1.3701636425099673 0 -1 0
8 2 3 0 0.9010968641593253 1.0296171770757145 1.644773408620912 6 0 0
10 2 3 0 1.2769793441816728 0.7202449979043957 2.173689191233901 6 0 0
7 2 3 0 1.5210602793758907 1.3125908889870574 1.913491784927011 6 0 0
6 2 1 0 1.3131905789204157 0.9394721037822285 1.8262462797590588 6 0 0
9 2 3 0 1.5465484322313072 0.7032679982066474 1.5378256335919103 6 0 0

Velocities

12 -0.5094507975631049 -0.13113954002596045 -0.865243861489557
43 0.6906397179302519 0.06048014344337668 -0.14898034966481288
14 -0.14691891322842288 -0.8146010362501849 -0.33253872329200423
23 -1.0495346253268039 0.1897778599812225 -0.14037160111648533
15 0.11333431949581839 -0.0232542474777003 -0.22993539190738785
46 -0.07156094969339152 -1.5009330296128873 -0.42229307532282834
11 0.19947346474275518 -0.12608169936331282 0.21759245879029535
13 -0.5440141471602244 0.8444372999939754 -0.3293825374021161
45 0.7513904898306061 1.8228693299732799 0.6866162592594323
44 0.15915317813198843 0.10374277637134349 0.16495167150598078
17 0.002739275632667404 1.324517489531505 1.437378657205989
2 -0.44553416767198084 -0.2428658755374004 0.12641013251273536
5 0.6221214496486347 -1.3072114297932678 0.21063587866484443
1 -0.1502813620867446 0.11941732207938313 -0.46401619909830233
3 0.6108780607238176 -1.9871073909785435 0.2007634345794048
28 -0.3966159624590331 -0.57951405721479 -1.002116563760024
27 0.39216902945133897 1.036045074563445 -0.08103391242869229
30 1.7866642706806202 0.4672539539826942 -0.30259464350795184
26 -0.0626880642493508 -0.05638862574609827 0.06275631433579341
29 -0.16580071584417577 -0.37609253437261425 1.1963668930259523
41 -0.21100066338521956 -0.42498551466924184 -0.09530536773172602
42 -0.8667450133070047 -0.31690592540689616 0.24601621722448183
52 0.26976840673535274 0.21365506825814615 0.12226502862725941
34 -0.664660467791786 -0.6655808689730907 -0.3989387843707279
50 -0.24293014486291054 0.11996163153700462 -0.11850769174362635
31 0.1104638910541405 0.07869810822895712 0.6763901088063884
35 -0.4520871466020646 -0.0013339229563526095 -0.23931899900943587
51 0.189807515556895 -0.11953017455285525 0.5936793479671987
32 -0.6589059032632429 1.2196747118532447 -0.3524113102840908
48 1.1967860356989293 0.07335807548486481 0.14202744397990377
47 -0.09934667278626179 -0.1621693184902351 0.01118398152601054
24 0.7058073818490368 1.1081817974505217 -0.501861822804688
58 -0.024420197110039198 0.7995561174741834 0.26246200074663495
25 -0.27167808135252913 0.07447475712340329 -0.9080334859533045
21 0.17884600972029857 0.031295215165917586 0.05390426319434742
22 1.768500133764032 -0.14756481015977688 1.5721040969638027
56 -0.031745075774506935 0.11411576595345554 0.5939945094910583
49 -0.5291405074516725 0.043115102884597516 1.55389644437413
20 -0.1683894512573635 0.4686593739250617 0.13972972848419166
16 0.3490468868363725 -0.24969591786994344 -0.013652679929451609
53 -0.11298758946261828 -0.2126278267792084 -0.137318897367634
55 0.8592377158350943 -0.9530321066943103 -0.503570978352865
54 -0.20090673739935533 -0.7463485400525938 -0.25892076452769647
18 -0.20103072278512535 -0.25693123709550375 0.3566253892436235
63 0.4184022266566454 -0.8341639672362302 -1.1956465744402398
62 -0.19842939259115 0.07533020949026356 -0.6147625614646689
64 -1.0678062693809114 0.5864399946531694 0.13735129047058298
38 0.07628349472699156 -0.9819813063057954 -1.9568823627152114
40 0.4600942534309159 -2.214987615029914 0.6495718799032819
36 0.08637590317345824 0.029754262199235593 0.3697547685580791
37 -0.6583843364134836 -0.053748580669715086 -1.8758152656614369
61 0.135197214788965 -0.5088908952855722 -0.7241742962668231
59 -0.011199323374796441 0.10650622587183622 -0.5002054798798357
60 0.7203795466270997 0.4183060481770741 -1.7332112377940834
19 -0.8220282834043053 0.1902529192095169 -0.07053406539157232
4 -0.4105825558930399 -0.4568323334397415 -1.0034336719301185
39 0.2672787443474368 0.18986132423281954 0.522221735023918
57 -0.05621986287641993 -1.301311776169914 0.4421760160708929
33 0.5206264722574675 -0.5353972353038076 -0.6035179189664749
8 0.3567392504706993 1.7747967713312802 -0.3243062675067557
10 0.07292245481951617 0.2598895417016415 -0.3403345924605053
7 -0.5275872839033908 0.14216265749377688 0.6897030412666362
6 -0.02089138397871168 0.18304991799816972 0.15635751943433768
9 1.5266964898530615 0.06112969291006623 0.13995148368214352

Bonds

1 1 11 12
2 1 11 13
3 1 11 14
4 1 11 15
5 1 44 45
6 1 44 46
7 1 1 2
8 1 1 3
9 1 1 4
10 1 1 5
11 1 26 27
12 1 26 28
13 1 26 29
14 1 26 30
15 1 41 42
16 1 41 43
17 1 50 51
18 1 50 52
19 1 31 32
20 1 31 33
21 1 31 34
22 1 31 35
23 1 47 48
24 1 47 49
25 1 21 22
26 1 21 23
27 1 21 24
28 1 21 25
29 1 56 57
30 1 56 58
31 1 16 17
32 1 16 18
33 1 16 19
34 1 16 20
35 1 53 54
36 1 53 55
37 1 62 63
38 1 62 64
39 1 36 37
40 1 36 38
41 1 36 39
42 1 36 40
43 1 59 60
44 1 59 61
45 1 6 7
46 1 6 8
47 1 6 9
48 1 6 10

Angles

1 2 12 11 13
2 2 12 11 14
3 2 12 11 15
4 2 13 11 14
5 2 13 11 15
6 2 14 11 15
7 1 45 44 46
8 2 2 1 3
9 2 2 1 4
10 2 2 1 5
11 2 3 1 4
12 2 3 1 5
13 2 4 1 5
14 2 27 26 28
15 2 27 26 29
16 2 27 26 30
17 2 28 26 29
18 2 28 26 30
19 2 29 26 30
20 1 42 41 43
21 1 51 50 52
22 2 32 31 33
23 2 32 31 34
24 2 32 31 35
25 2 33 31 34
26 2 33 31 35
27 2 34 31 35
28 1 48 47 49
29 2 22 21 23
30 2 22 21 24
31 2 22 21 25
32 2 23 21 24
33 2 23 21 25
34 2 24 21 25
35 1 57 56 58
36 2 17 16 18
37 2 17 16 19
38 2 17 16 20
39 2 18 16 19
40 2 18 16 20
41 2 19 16 20
42 1 54 53 55
43 1 63 62 64
44 2 37 36 38
45 2 37 36 39
46 2 37 36 40
47 2 38 36 39
48 2 38 36 40
49 2 39 36 40
50 1 60 59 61
51 2 7 6 8
52 2 7 6 9
53 2 7 6 10
54 2 8 6 9
55 2 8 6 10
56 2 9 6 10
