LAMMPS data file via write_data, version 4 Feb 2025, timestep = 200000, units = lj

64 atoms
4 atom types
48 bonds
1 bond types
56 angles
2 angle types

-2.5 2.5 xlo xhi
-2.5 2.5 ylo yhi
-2.5 2.5 zlo zhi
0 0 0 xy xz yz

Masses

1 1
2 1
3 0.1
4 0.1

Bond Coeffs # harmonic/omp

1 100 0.45

Angle Coeffs # harmonic/omp

1 100 180
2 100 109.471

Atoms # full

27 6 3 0 -1.319485143486623 -2.0678145043473557 -1.3516611278216555 4 0 2
57 14 4 0 -1.3746433552387596 -2.325310062352377 -1.0591919643781824 4 0 2
26 6 1 0 -0.8873760690434438 -1.960572173336213 -1.476402970396757 4 0 2
30 6 3 0 -0.757855779661285 -1.597217837312113 -1.2512162297986738 4 0 2
43 9 4 0 -0.8575478807447912 -1.9237115384500685 -2.2984964543666457 4 0 1
29 6 3 0 -0.8844514822257743 -1.8910818710874857 -1.904743770012644 4 0 2
28 6 3 0 -0.6074237899978838 -2.3076089295709257 -1.3730730550383579 4 0 2
10 2 3 0 -0.1816594267499161 -0.6083013320456543 -1.3547106487457419 7 1 0
9 2 3 0 -0.20432759997866956 0.11209616094884645 -1.4010741819468073 7 1 0
35 7 3 0 -0.3685761628674329 0.9098406343599756 -1.713475878939561 0 -1 1
34 7 3 0 -0.23815898044917194 0.6861783893090956 -1.0033884645354576 0 -1 1
33 7 3 0 -0.1878373761994725 1.4094119710731379 -1.1763434808128872 0 -1 1
32 7 3 0 -0.8558101865562757 1.0665450107996763 -1.1518969687358627 0 -1 1
31 7 1 0 -0.41808820698378835 1.0151636972635014 -1.2573277088191703 0 -1 1
56 14 2 0 -1.6295732331847845 2.3549772497450423 -0.8810067045978709 4 -1 2
53 13 2 0 -1.5587164216809457 -0.7444647482947309 0.7591462806401554 0 -1 1
54 13 4 0 -1.9333211844006217 -1.0036790731055647 0.7627920992317221 0 -1 1
18 4 3 0 -0.48080871096767197 -0.5906721515371323 0.11414041994861446 1 -1 1
20 4 3 0 -0.12681712471904305 -0.3938376926393312 0.7125497589162055 1 -1 1
55 13 4 0 -1.1768591317851254 -0.4861901638992183 0.7653310761964294 0 -1 1
17 4 3 0 -0.8373822926412042 -0.2921828739738963 0.6501572202325745 1 -1 1
51 12 4 0 -0.04083228500624747 0.18658869571840997 0.0769243898565346 -1 -1 2
19 4 3 0 -0.37563300627746266 0.12337675861242126 0.24543625823371062 1 -1 1
16 4 1 0 -0.45890945310660314 -0.2893920854011576 0.4319483101783046 1 -1 1
50 12 2 0 -0.13466339590212328 0.47574848469115505 -0.25729412562325127 -1 -1 2
52 12 4 0 -0.2358453238635141 0.7716493002421387 -0.6106958275626237 -1 -1 2
58 14 4 0 -1.8722500643016948 2.0321102580160897 -0.6961332534532805 4 -1 2
24 5 3 0 -2.1783339498181498 1.7969507564328557 -0.8114807001166091 5 0 2
41 9 2 0 -0.49285260563272626 -1.8839770839670111 2.434976092715452 4 0 0
42 9 4 0 -0.11556740881587135 -1.8484427435649842 2.1769396658320854 4 0 0
5 1 3 0 -2.099150272590835 -1.476472107341912 1.7097280007218005 4 0 -1
4 1 3 0 -2.1565752723652705 -1.2466196325370227 1.0120334327177898 4 0 -1
1 1 1 0 -2.375062368935405 -1.3052852894828515 1.3883980523566475 4 0 -1
62 16 2 0 0.579945195264266 -0.8619531019109283 -2.062772141247577 3 0 3
63 16 4 0 0.5515490511337529 -0.6113434556826014 -1.6504367671713749 3 0 3
64 16 4 0 0.6098486790621238 -1.0897438349541133 -2.448912956533905 3 0 3
7 2 3 0 0.3956296587609165 -0.24859629127400984 -1.5813633790163617 7 1 0
6 2 1 0 0.053838751201886303 -0.2403852670307458 -1.3093808723840683 7 1 0
8 2 3 0 0.1925781146683203 -0.2122578022348658 -0.9090041017987649 7 1 0
22 5 3 0 2.340138375348876 1.8304258234564479 -1.394562000617127 4 0 2
21 5 1 0 2.387578225384275 1.7815281607641182 -0.932853792047875 4 0 2
12 3 3 0 1.2421170092906424 0.08773303408012145 0.8211833696130908 4 0 1
13 3 3 0 1.0445464667581272 0.8462188009151084 0.7715210950514182 4 0 1
15 3 3 0 1.7078900097323633 0.607988597472509 0.5041204182835957 4 0 1
11 3 1 0 1.4085025081541014 0.5490180725494054 0.8300251092014488 4 0 1
45 10 4 0 2.316979238970733 1.166384623036818 -0.49576545474954026 8 1 1
46 10 4 0 1.9000210692506911 0.7391114434674528 0.19107015986820075 8 1 1
44 10 2 0 2.112995790420703 0.9606785418562334 -0.1556874224918543 8 1 1
23 5 3 0 2.223170071933634 1.3974903100023495 -0.8163256095392812 4 0 2
25 5 3 0 2.1491418523956796 2.1202417040562898 -0.7125454429755682 4 0 2
37 8 3 0 0.7384364241523316 -1.7213031209925025 1.7863544697526184 3 0 2
36 8 1 0 0.5725950429709896 -1.7128567972497286 2.1900690582328846 3 0 2
38 8 3 0 0.2418935185763953 -2.011328204807545 2.2114174361003514 3 0 2
61 15 4 0 1.0117193044309163 -1.611414642079187 1.5142882616947624 4 0 1
39 8 3 0 0.8946315571577839 -1.8284793516612137 2.4812050359806337 3 0 2
59 15 2 0 1.4755638290362332 -1.525542913228779 1.442228092201776 4 0 1
3 1 3 0 2.285274986439725 -1.6137386757242829 1.3142191070860099 3 0 -1
40 8 3 0 0.4156258996890654 -1.2988463356351718 2.282305807246937 3 0 2
60 15 4 0 1.9108837735145716 -1.450283318959771 1.3806503728487463 4 0 1
2 1 3 0 2.4396186978133185 -0.9012175078905404 1.5307098090613467 3 0 -1
49 11 4 0 0.030061242934618537 -0.24444149813629856 1.0417931891350838 8 1 2
48 11 4 0 0.8668310948910216 0.0895600487777819 0.9561864645282503 8 1 2
47 11 2 0 0.4541765352096445 -0.07873372453940908 1.0020545332732933 8 1 2
14 3 3 0 1.6008244609190463 0.6388458042932799 1.2304094602898652 4 0 1

Velocities

27 0.8749962426297216 0.4794543495365658 -0.07581189531825869
57 -1.1614356070007552 0.09667073078590246 -0.16497091252641438
26 0.4917567086001131 0.29014657108941366 -0.228154203310337
30 0.3834746173677089 0.466904645464559 -0.6229093752040429
43 -0.6979371767946453 -0.23449446279248673 -0.375053968102668
29 0.451329790391425 -1.4519535425358483 1.226452354571088
28 -2.0243351813955592 -0.5872782050772802 0.720793258752918
10 0.15065261607705288 -0.14032450540621993 0.43340324254480184
9 -0.07966818800157487 0.9989311039261021 1.3708270605328
35 0.15156336474257012 0.11831836986885097 0.0642426560403273
34 -0.5852923848950277 -0.5049699022689215 -0.09576089188040524
33 -0.8319599254011324 -0.4305960908486139 -1.0874190350526205
32 -0.24232923770663317 0.18410654444578398 0.8637228716025043
31 0.17390753272599063 -0.09294976688131762 0.3317150590487522
56 0.008670027961540816 0.29659124216147803 0.1101218755761971
53 0.14856175007552128 -0.1490644469454132 -0.2395840313848022
54 1.2216701032773802 0.05586421345611807 0.683429334179064
18 0.7626624705948654 1.1111345063461506 0.9548870469289273
20 0.6914822674462934 -0.14365531203679172 -0.37381849605861733
55 1.331092077391222 -0.08308789260773339 -0.215695418807482
17 -0.17042649977355503 0.8785780329730369 -0.7297467260899043
51 1.1389765734729909 -0.29685637373704077 0.02889935103643363
19 0.3970049158192964 -0.9918473786299978 0.41567078471801444
16 -0.07971028735856739 -0.07898031992214942 -0.15917137658587258
50 0.02168094669713054 -0.12145820047251236 0.11917130805785237
52 -0.8713780071770142 -0.8213500540150531 -0.5666383983984797
58 0.7970749982372729 -0.58316416608509 0.019166825092624275
24 -0.6491305856679109 0.4458720441526488 -0.3009888840698923
41 -0.14217574955953716 0.2046327564336712 -0.25952225189841893
42 -0.6621783212163974 -0.7321443931313625 -0.04913285091063847
5 -0.6831590034390767 0.9398452848743671 0.9401768931810276
4 -0.5271642629426306 2.2118398153223664 0.14707338756750107
1 0.42345077270604253 -0.11111445843533077 -0.1676304238309905
62 0.3869632995056914 0.2149220363620649 -0.13083154471336897
63 -1.2447070310571997 0.24748742733191478 0.2718224014392137
64 -0.04690099035271751 -0.6465965133279913 -0.3195313325559919
7 -1.0828378274147608 -0.8880994511130401 -0.0041699619157434895
6 0.0773600368098103 -0.024529465139469967 -0.05262476671880476
8 -1.3373424928898394 -0.12971894002744394 1.7440763573586713
22 0.5089278488445461 0.5961119263643808 -0.17249556686711728
21 0.13601056994130267 -0.030544632581208164 0.24864434692589168
12 -0.15890512180825783 -0.23444067071423796 -0.22372494694160072
13 -1.2286710664955807 -0.13508638387060753 0.23541446151870107
15 0.7809215504122548 0.31757576637915197 -0.2189874409456391
11 0.19988185510174683 0.04266757070783828 -0.0323900901104429
45 -0.09748913525802058 -0.46604512829882083 0.4772618623252121
46 -0.19655595569662218 0.7137498360287359 -0.8759851138392308
44 -0.1552214933489672 0.12655916632858588 0.2652071594771873
23 -0.02620959218488636 -1.1393453165937029 -0.49868159714901505
25 -0.5615766062589188 -1.5007860010737915 -0.5225491276461083
37 -1.0286031329141203 0.47111754127027633 -0.06170664176568114
36 -0.04163486861690649 0.02607296770075641 -0.08611720549263474
38 -0.853849505996398 -0.10750906686111493 0.17986291499841472
61 -0.7388159431580185 -0.4024749387422868 -1.2328710879755176
39 0.21416339870832937 0.6405408303223356 -0.23045946226059746
59 0.3260468744450551 -0.07883234265742942 0.12780803322128084
3 -0.7198970654518541 -0.5086546386834474 0.5935738092092048
40 -0.050735459828033694 0.5156428500504073 0.9900618611442401
60 -0.19102325937583103 -0.990896720668548 -0.40627330504714965
2 -0.5609597509888963 0.13073211704607454 -0.25243249599186496
49 -0.6023908800134435 -0.08615085755114416 -0.6170909205015155
48 -0.4167898752663066 -0.5961544395207966 0.1289987640609685
47 0.05155309682285057 -0.30276558007589427 -0.05611090982131622
14 -0.3749991505858879 1.0996724306625978 -0.10022142647522883

Bonds

1 1 26 27
2 1 26 28
3 1 26 29
4 1 26 30
5 1 31 32
6 1 31 33
7 1 31 34
8 1 31 35
9 1 56 57
10 1 56 58
11 1 53 54
12 1 53 55
13 1 16 17
14 1 16 18
15 1 16 19
16 1 16 20
17 1 50 51
18 1 50 52
19 1 41 42
20 1 41 43
21 1 1 2
22 1 1 3
23 1 1 4
24 1 1 5
25 1 62 63
26 1 62 64
27 1 6 7
28 1 6 8
29 1 6 9
30 1 6 10
31 1 21 22
32 1 21 23
33 1 21 24
34 1 21 25
35 1 11 12
36 1 11 13
37 1 11 14
38 1 11 15
39 1 44 45
40 1 44 46
41 1 36 37
42 1 36 38
43 1 36 39
44 1 36 40
45 1 59 60
46 1 59 61
47 1 47 48
48 1 47 49

Angles

1 2 27 26 28
2 2 27 26 29
3 2 27 26 30
4 2 28 26 29
5 2 28 26 30
6 2 29 26 30
7 2 32 31 33
8 2 32 31 34
9 2 32 31 35
10 2 33 31 34
11 2 33 31 35
12 2 34 31 35
13 1 57 56 58
14 1 54 53 55
15 2 17 16 18
16 2 17 16 19
17 2 17 16 20
18 2 18 16 19
19 2 18 16 20
20 2 19 16 20
21 1 51 50 52
22 1 42 41 43
23 2 2 1 3
24 2 2 1 4
25 2 2 1 5
26 2 3 1 4
27 2 3 1 5
28 2 4 1 5
29 1 63 62 64
30 2 7 6 8
31 2 7 6 9
32 2 7 6 10
33 2 8 6 9
34 2 8 6 10
35 2 9 6 10
36 2 22 21 23
37 2 22 21 24
38 2 22 21 25
39 2 23 21 24
40 2 23 21 25
41 2 24 21 25
42 2 12 11 13
43 2 12 11 14
44 2 12 11 15
45 2 13 11 14
46 2 13 11 15
47 2 14 11 15
48 1 45 44 46
49 2 37 36 38
50 2 37 36 39
51 2 37 36 40
52 2 38 36 39
53 2 38 36 40
54 2 39 36 40
55 1 60 59 61
56 1 48 47 49
