LAMMPS data file via write_data, version 4 Feb 2025, timestep = 10500000, units = lj

6000 atoms
4 atom types
4500 bonds
1 bond types
5250 angles
2 angle types

-12.037717 12.037717 xlo xhi
-12.037717 12.037717 ylo yhi
-12.037717 12.037717 zlo zhi
0 0 0 xy xz yz

Masses

1 1
2 1
3 0.1
4 0.1

Bond Coeffs # harmonic/omp

1 100 0.45

Angle Coeffs # harmonic/omp

1 100 180
2 100 109.471

Atoms # full

2360 472 3 0 -8.432804493804348 -11.223928098656474 -11.596123300531747 16 1 0
4066 856 2 0 -7.190921512092426 -11.451960691011793 -11.985402463551916 6 0 0
4068 856 4 0 -7.447126018909689 -11.145514240715073 -11.825374790355196 6 0 0
2104 421 3 0 -5.086316640141476 -12.013218272283368 -11.734011832070383 15 1 0
2101 421 1 0 -4.897148965463646 -11.99400828892877 -11.349759284412228 15 1 0
2105 421 3 0 -4.4337628413194565 -11.934625976520712 -11.400567400162142 15 1 0
4668 1056 4 0 -3.5479573115797685 -11.196832559520857 -11.683313684877287 4 0 1
5851 1451 2 0 7.218824344785588 -11.181094172444867 -11.780402949916468 13 1 1
337 68 3 0 8.510354793523238 -11.7016915977619 -11.796481149553296 4 0 0
336 68 1 0 8.693676106552733 -11.51624273100363 -11.414494773708403 4 0 0
339 68 3 0 9.149611678781486 -11.667844348911462 -11.383702102932782 4 0 0
4028 843 4 0 9.535193290709955 -11.621217524340924 -11.345690066149565 5 0 0
4027 843 2 0 9.86040105540533 -11.784049051827594 -11.585780116614226 5 0 0
4029 843 4 0 10.208985242856613 -11.942076387302563 -11.833989885482291 5 0 0
3948 816 4 0 10.610065740463142 -11.996615420616216 -11.869681111523652 6 0 0
4981 1161 2 0 11.181729538010764 -11.149098883565392 -11.767990055653934 13 1 0
4983 1161 4 0 11.611446142122198 -11.26683211086718 -11.752827469072514 13 1 0
3734 747 3 0 -11.503421772866048 -11.048630047406252 -11.951736236433028 13 1 1
5706 1402 4 0 -11.472689688872567 -10.620333335000108 -11.891726337252095 13 1 1
5198 1233 4 0 -8.682100403615685 -11.082778803076584 -11.334915844984002 16 1 0
2357 472 3 0 -7.800898005775095 -10.969056505977075 -11.859093656045047 16 1 0
2356 472 1 0 -8.21433425335251 -10.865626411259635 -11.786833807195821 16 1 0
2358 472 3 0 -8.23015655095593 -10.51875776931582 -11.514230516513505 16 1 0
4715 1072 4 0 -5.886311207096423 -10.878392451983922 -11.784232718663661 3 0 1
2107 422 3 0 -6.106881467828385 -11.09554556357942 -12.037057688494553 15 1 0
4714 1072 2 0 -5.589640173663824 -10.509659721094927 -11.846509588454479 3 0 1
4666 1056 2 0 -3.8382603539259215 -11.032133410591214 -11.99529229169661 4 0 1
3539 708 3 0 -0.5729876361373218 -10.231985471670773 -11.950093978373989 13 1 1
3538 708 3 0 -0.6073848087916005 -10.259705370250273 -11.203423027567633 13 1 1
3540 708 3 0 0.07776457346626664 -10.197283494366054 -11.571890528245685 13 1 1
4531 1011 2 0 0.8124914750129992 -10.199360796924557 -11.23879989885004 3 0 1
4533 1011 4 0 1.2627830981711305 -10.217162943448315 -11.194432233908794 3 0 1
5030 1177 4 0 5.923871430910008 -10.644993309975751 -11.980106976805539 13 1 0
5029 1177 2 0 6.1189592544036735 -10.250794531627903 -11.83940299668258 13 1 0
5852 1451 4 0 7.000229792233274 -11.074670622188048 -11.399002015095714 13 1 1
4904 1135 4 0 7.6931166898928645 -10.255566514041536 -11.401657612039859 14 1 0
4903 1135 2 0 8.08655223034435 -10.501419263088794 -11.491901398624272 14 1 0
4905 1135 4 0 8.457022885351133 -10.73031535723469 -11.574273836054516 14 1 0
340 68 3 0 8.683338827355549 -11.065465961290084 -11.440258454642802 4 0 0
1932 387 3 0 9.354716880384196 -10.490061464417275 -11.612002415773597 5 0 1
4982 1161 4 0 10.757398186022705 -11.027142805129957 -11.78331928382233 13 1 0
4716 1072 4 0 -5.310887451394737 -10.16718621016348 -11.899440317785109 3 0 1
5058 1186 4 0 -3.285357943702529 -9.876451473046185 -11.161883316523035 16 1 0
2397 480 3 0 -2.2554245513908864 -9.931809527960883 -11.416255364288913 14 1 0
2400 480 3 0 -2.9335062234828726 -9.711041912796032 -11.22467065562497 14 1 0
3536 708 1 0 -0.3869120794576304 -10.070687477691576 -11.571701391743238 13 1 1
3537 708 3 0 -0.4166219047111639 -9.61912633211421 -11.564591445643698 13 1 1
4532 1011 4 0 0.38857676004224473 -10.181742726601945 -11.287186477646863 3 0 1
3956 819 4 0 2.221240718555764 -9.523117844841114 -11.659806730121113 4 0 0
3295 659 3 0 1.9032093288002603 -9.47472201382597 -11.448065140187815 12 1 1
3292 659 3 0 1.6997945964219383 -10.13845885894901 -11.234894305077844 12 1 1
3955 819 2 0 2.60152068875443 -9.518882045109361 -11.897595198363275 4 0 0
5031 1177 4 0 6.3030803522642636 -9.865918359811284 -11.70943466504182 13 1 0
3273 655 3 0 6.692286388378676 -9.75086845615457 -11.64236261441043 13 1 1
3272 655 3 0 7.33219086035146 -10.141821195169543 -11.498061225809723 13 1 1
3271 655 1 0 7.170228882780741 -9.784182161986067 -11.718340847787296 13 1 1
3274 655 3 0 7.3718235981752755 -9.405566655466487 -11.565375785392511 13 1 1
1931 387 1 0 9.294506287064262 -10.152533829546575 -11.364050735351443 5 0 1
3816 772 4 0 8.891735311587997 -9.690621045986129 -11.82505347594393 3 0 0
1934 387 3 0 8.911883154581574 -9.917379707502226 -11.507592347987282 5 0 1
3814 772 2 0 8.62204437870971 -9.32825535405192 -11.859126787679328 3 0 0
1933 387 3 0 9.672513758074558 -9.872253107111009 -11.400727187686094 5 0 1
5863 1455 2 0 11.309879755478725 -9.327051627355944 -11.2035227662094 12 1 1
5865 1455 4 0 11.676835979591353 -9.342640056124665 -11.459457503353523 12 1 1
1835 367 3 0 11.6239517343937 -9.313517400226424 -11.841098829774168 2 0 1
5647 1383 2 0 -11.94133442923664 -8.67703662579677 -11.595105458360461 13 1 1
4620 1040 4 0 -2.1131875889898417 -9.098296246510236 -11.367261461772946 3 0 1
4618 1040 2 0 -1.745363863126677 -8.865103632004201 -11.394739654674488 3 0 1
4619 1040 4 0 -1.3589292607216716 -8.625648103638444 -11.421068703683902 3 0 1
2187 438 3 0 -0.985056789055081 -8.506490185859288 -11.385577018630435 14 1 0
4065 855 4 0 3.1859322549597753 -8.591389005615314 -11.534993871625069 4 0 0
1430 286 3 0 3.3274353927606093 -8.57394402446212 -11.934053715807003 4 0 1
3969 823 4 0 7.599677612928279 -9.225610920608377 -11.271290898673191 3 0 0
3815 772 4 0 8.373674468396505 -8.988657701579717 -11.896783348190155 3 0 0
308 62 3 0 7.81599949288476 -8.468571274011712 -11.84022524112509 3 0 0
310 62 3 0 8.518072942899583 -8.626515195735296 -12.000114820019506 3 0 0
5649 1383 4 0 11.94852793744764 -9.127199851759585 -11.659976527003172 12 1 1
5648 1383 4 0 -11.766099694106412 -8.265216936177477 -11.533597407695568 13 1 1
1528 306 3 0 -11.409061769685152 -8.08859676665829 -11.528444295552907 4 0 1
1527 306 3 0 -11.245814956009639 -7.417222400684339 -11.366450968072895 4 0 1
1526 306 1 0 -11.11205400916074 -7.769122882879349 -11.581772252768019 4 0 1
1530 306 3 0 -10.720855444026222 -7.90118991048485 -11.4151466563786 4 0 1
5379 1293 4 0 -1.5115100888294037 -7.766646064856688 -11.283300657802226 15 1 0
2188 438 3 0 -1.2391508182377908 -7.820531542287452 -11.55706636962797 14 1 0
2186 438 1 0 -0.9599873239685408 -8.135402558724149 -11.68395930773881 14 1 0
2189 438 3 0 -0.5364749634718837 -7.967601318511424 -11.675723489997091 14 1 0
5915 1472 4 0 -0.3060689159764092 -7.679899833510269 -11.532509559584668 14 1 1
4015 839 2 0 1.2620056039003007 -8.117267495589118 -11.928150709624973 3 0 0
4017 839 4 0 1.3088109453566545 -7.764760338596645 -11.675742508410462 3 0 0
4063 855 2 0 3.365778367286552 -8.207460020788856 -11.462982181906373 4 0 0
4064 855 4 0 3.5626754035703776 -7.7986649112334785 -11.375290828230941 4 0 0
350 70 3 0 3.8216589300028065 -7.492734940012097 -11.318648734847203 4 0 0
5742 1414 4 0 6.064550773795116 -7.630535197897969 -12.011140800843258 13 1 1
306 62 1 0 8.178673461714585 -8.304887566250391 -12.01591666934594 3 0 0
307 62 3 0 8.304095982097422 -7.943782589692724 -11.790532972530002 3 0 0
5707 1403 2 0 10.967206253663072 -7.928244631406171 -11.17466842077222 6 0 1
2458 492 3 0 11.08317967223574 -7.422363461796235 -11.750139401030635 5 0 0
5709 1403 4 0 11.203984958927055 -7.787737993853949 -11.572538944905915 6 0 1
273 55 3 0 -4.500916872341224 -6.4984337925697675 -11.635213756246586 6 0 0
79 16 3 0 -2.7300597980782157 -6.668874338274817 -11.304926103192459 4 0 0
2558 512 3 0 -0.13340416309678638 -6.792262045255985 -11.99917461242491 8 0 1
5914 1472 2 0 0.04631905326056973 -7.392025905398408 -11.527101011455969 14 1 1
5916 1472 4 0 0.40613213915086277 -7.103177626963796 -11.528680261822174 14 1 1
3460 692 3 0 0.7662255646427294 -6.981611718237404 -11.586235924598435 13 1 1
3456 692 1 0 1.1945809497157054 -7.005006838979528 -11.756933080043781 13 1 1
3458 692 3 0 1.3922521653100404 -7.363045772135708 -11.589288904727246 13 1 1
3459 692 3 0 1.4319492412940598 -6.6161580182917525 -11.62963113607178 13 1 1
4661 1054 4 0 1.8343332795671934 -6.623524551408677 -11.608016384054958 4 0 1
346 70 1 0 3.797506735204502 -7.202529199749996 -11.677597418145247 4 0 0
348 70 3 0 3.7623405995668016 -6.772508444820379 -11.522765741866984 4 0 0
349 70 3 0 3.4281181106515444 -7.312190870830095 -11.941280887267407 4 0 0
347 70 3 0 4.1401809166653685 -7.228282795993473 -11.89953926769686 4 0 0
5740 1414 2 0 6.3644855254270425 -7.39743805231789 -11.784767333345544 13 1 1
5741 1414 4 0 6.676306527591759 -7.158185904401155 -11.555040266172808 13 1 1
517 104 3 0 7.05065492816242 -7.273212120360474 -11.491028549916479 4 0 0
518 104 3 0 7.695237640348374 -7.102661259861844 -11.158676069296417 4 0 0
3972 824 4 0 7.706890975288683 -6.934070901081688 -11.554886357501736 4 0 0
3970 824 2 0 8.062118838149242 -6.678823436448945 -11.621050767583263 4 0 0
3799 767 2 0 9.854986949196519 -6.808912503837814 -11.567749765454762 5 0 0
3800 767 4 0 10.182476238753 -7.072669541318902 -11.65638587548075 5 0 0
3801 767 4 0 9.532608694962885 -6.538829576139154 -11.464226793539554 5 0 0
2457 492 3 0 10.486024898618055 -7.040011185617608 -11.950073371403565 5 0 0
2456 492 1 0 10.908153332973086 -7.01687700097475 -11.786768429484175 5 0 0
2460 492 3 0 10.896755798896262 -6.815658551527272 -11.353466964850023 5 0 0
271 55 1 0 -4.275634376909384 -6.352458076009128 -11.260569937848592 6 0 0
272 55 3 0 -3.9691821426999496 -6.037011071353036 -11.37904394304764 6 0 0
3894 798 4 0 -3.694857379186402 -5.953152284115981 -11.682641779788776 7 0 0
3892 798 2 0 -3.3832663545216093 -5.72245291434201 -11.906316849996088 7 0 0
2557 512 3 0 -0.21172673070018178 -6.090958450734588 -11.972350880106536 8 0 1
4660 1054 2 0 2.0555490173775564 -6.3301957837262535 -11.843829526353977 4 0 1
3825 775 4 0 3.643934469357326 -6.451770793677297 -11.303913153779463 4 0 0
3824 775 4 0 3.8989954925786687 -5.728427623769959 -11.717048234406825 4 0 0
3823 775 2 0 3.772061952855509 -6.100079100221512 -11.501483880930932 4 0 0
1928 386 3 0 6.910253866971509 -6.200327303666067 -11.889264069914443 4 0 1
3971 824 4 0 8.407102219575087 -6.429528145140426 -11.68037853936378 4 0 0
163 33 3 0 8.561967402035553 -6.091006588884426 -11.809834776084074 4 0 0
165 33 3 0 9.15925906684772 -6.389345945024761 -11.48310129050121 4 0 0
161 33 1 0 9.000880427596638 -6.119700452042518 -11.831043886697094 4 0 0
162 33 3 0 9.160784541602009 -5.72492069973838 -11.798550429478027 4 0 0
1012 203 3 0 -7.57665379124308 -5.073328331724021 -11.322584764665377 6 0 0
5006 1169 4 0 -5.782415827992625 -5.023708065055091 -11.163088567585596 6 0 0
1380 276 3 0 -5.427989046615862 -4.8555757437780365 -11.286637213563948 8 0 0
1378 276 3 0 -4.699074857895627 -4.676825866850198 -11.279191134840232 8 0 0
4553 1018 4 0 -4.300951208069425 -4.642284243292652 -11.246108061517027 7 0 1
4563 1021 4 0 9.48966566551195 -5.532501261490558 -11.82620181949403 4 0 1
4561 1021 2 0 9.845826208737137 -5.261769602242048 -11.776696221457575 4 0 1
4562 1021 4 0 10.209534278176093 -4.987323910119848 -11.745379051159421 4 0 1
4554 1018 4 0 -3.3961117314055045 -4.458683462217431 -11.486974953614425 7 0 1
4552 1018 2 0 -3.8611528893319402 -4.5558058915384 -11.357334594946993 7 0 1
1759 352 3 0 -2.5880016927793115 -3.9593539275458873 -12.021552826434542 7 0 1
1756 352 1 0 -2.7440988283287915 -3.908090210672995 -11.605432245233722 7 0 1
1758 352 3 0 -3.020719625219561 -4.26943032961533 -11.513403994500749 7 0 1
1760 352 3 0 -2.407624442069176 -3.892186035129754 -11.323316668243365 7 0 1
4595 1032 4 0 -1.9877197283238903 -3.8922528161886163 -11.359942822320107 8 0 1
4594 1032 2 0 -1.5675234635010593 -3.7476869225365537 -11.48016071561526 8 0 1
2665 533 3 0 9.267788083054509 -3.9762249165985413 -11.406606267376972 7 0 0
1402 281 3 0 10.937494544966182 -4.090242931968177 -11.287252999488127 7 0 1
4439 980 4 0 -11.197239712338495 -2.9667733048473117 -11.771397640646292 8 0 1
4442 981 4 0 -11.41061416886037 -3.282416050823981 -11.618203221279838 8 0 1
4441 981 2 0 -11.788093568303603 -3.376030462914853 -11.46718894785276 8 0 1
1493 299 3 0 -11.105406821430758 -3.0803771227128784 -11.38892848460085 8 0 1
1492 299 3 0 -10.369151073091041 -3.0016413492262313 -11.24281554759579 8 0 1
3775 759 2 0 -7.669024812558315 -3.6812675614340105 -11.390658771101217 6 0 0
3776 759 4 0 -7.387454564500671 -3.6238920113357977 -11.706434365070688 6 0 0
542 109 3 0 -7.197790734162062 -3.42758389183361 -12.001772778366737 6 0 0
1757 352 3 0 -2.9768016785000118 -3.5268900898154847 -11.587187874486906 7 0 1
4596 1032 4 0 -1.131142631431409 -3.596160827213522 -11.608330689071414 8 0 1
2237 448 3 0 -0.7153333467928817 -3.5618050934456953 -11.71813373641616 7 0 0
2239 448 3 0 -0.559749631195416 -2.9856380292137334 -11.247142503306836 7 0 0
2240 448 3 0 -0.10065863448877721 -3.5539772207755735 -11.291623235064217 7 0 0
2236 448 1 0 -0.3738769099998116 -3.29398958326858 -11.527078224886909 7 0 0
2238 448 3 0 -0.139232102830265 -3.0864573966178988 -11.84873081938112 7 0 0
3879 793 4 0 0.2818983302594553 -2.994169781102965 -11.934679810132762 9 0 0
1585 317 3 0 6.754542060128163 -3.518879028287678 -11.69101887735535 8 0 1
1581 317 1 0 7.058996235404813 -3.5721052199677565 -11.352083067474327 8 0 1
1584 317 3 0 7.465939750330563 -3.629544194222996 -11.511905145631815 8 0 1
5678 1393 4 0 7.724427017656154 -3.6088892693222476 -11.824415799111406 6 0 1
5677 1393 2 0 8.137065634268325 -3.5040106974427783 -11.79666081840312 6 0 1
2661 533 1 0 9.28090952148958 -3.538100246542374 -11.404537585063995 7 0 0
5679 1393 4 0 8.57934877776772 -3.3900168141754428 -11.768889754022513 6 0 1
2664 533 3 0 8.881431923783381 -3.378021864678294 -11.52891192958386 7 0 0
2662 533 3 0 9.59937943501377 -3.388088939955768 -11.682304594659474 7 0 0
3899 800 4 0 9.796095588644512 -3.1845662455619514 -11.973704485472695 7 0 0
3898 800 2 0 10.18589810051423 -2.9899590851155295 -12.027350307298383 7 0 0
1405 281 3 0 11.497533929893418 -3.61085962150894 -11.184851730311445 7 0 1
4443 981 4 0 11.863393023066202 -3.471689828426701 -11.299434332867767 7 0 1
4546 1016 2 0 -7.783038145776874 -2.5902121090863695 -11.185699250380964 9 0 1
1909 382 3 0 -6.701002003024345 -2.751097153655124 -11.891343980070424 13 0 1
4548 1016 4 0 -7.554231682660627 -2.2093215065996485 -11.361171852920641 9 0 1
1910 382 3 0 -7.283198951050567 -2.4021943447751664 -11.61401076097082 13 0 1
1906 382 1 0 -6.93419385696594 -2.4217478671741812 -11.956775273031507 13 0 1
1907 382 3 0 -6.699410545685459 -2.093604880994995 -11.925348948857817 13 0 1
528 106 3 0 -3.1898336648960246 -2.6823888444861765 -11.85932824160388 7 0 0
529 106 3 0 -2.8551923048335563 -2.0077242939107016 -11.76002082124023 7 0 0
882 177 3 0 2.0850449490238496 -2.4566113701057883 -11.910082527826521 9 0 1
588 118 3 0 10.897870083814393 -2.5482111296309835 -11.957168650125869 8 0 0
589 118 3 0 11.486302134226896 -2.5035380904349562 -11.508077065833229 8 0 0
586 118 1 0 11.340253880368575 -2.5358609880992304 -11.951545578487442 8 0 0
1552 311 3 0 -8.765957369674172 -1.6419432550274706 -11.976205791558506 9 0 1
1554 311 3 0 -8.120501484909703 -1.3228207967781351 -12.005523725988725 9 0 1
4613 1038 4 0 -2.723385843581923 -1.6338643840029121 -11.860968035819834 9 0 1
4612 1038 2 0 -2.332689661174914 -1.4160468631469012 -11.671036577796013 9 0 1
4614 1038 4 0 -1.9801334453321768 -1.2167283087061591 -11.495849141722697 9 0 1
1964 393 3 0 -1.5713781140787049 -1.1987301917863231 -11.553843493403063 7 0 1
1961 393 1 0 -1.1978369422161048 -1.3326809370805517 -11.698352338451402 7 0 1
1963 393 3 0 -0.9125230925095433 -1.3574133507312052 -11.364574735405181 7 0 1
1962 393 3 0 -1.0451877828805447 -1.0288179479325024 -12.003168656413008 7 0 1
1965 393 3 0 -1.2511257700567668 -1.75810686073903 -11.90584205536788 7 0 1
1183 237 3 0 0.6239462765712691 -1.1681525239161399 -11.999822727325476 8 0 0
635 127 3 0 -11.78471839380506 -0.11545540872850424 -11.276130695758818 13 0 0
1181 237 1 0 0.6672843658643348 -0.7251662796917433 -11.951220545476653 8 0 0
1182 237 3 0 0.7600189887511934 -0.6330134777284471 -11.5496524785273 8 0 0
5199 1233 4 0 -9.345730944971516 -11.17289486282401 -10.714247075127222 16 1 0
5197 1233 2 0 -9.025694692019204 -11.132150269191376 -11.016613879178914 16 1 0
2102 421 3 0 -5.067544377124871 -11.638181800071004 -11.119173781750085 15 1 0
2314 463 3 0 -4.4447232401559305 -11.263409004211729 -10.69252895799234 15 1 0
5835 1445 4 0 -2.905805446654009 -11.895982521686468 -10.260891353853983 15 1 1
3075 615 3 0 -0.011338423269112496 -11.757612524412659 -10.52696376253843 16 1 0
1883 377 3 0 6.58217501045624 -11.492601735180196 -10.529589253715512 5 0 1
1885 377 3 0 6.998247389901763 -11.222396371277437 -11.02355375649585 5 0 1
1881 377 1 0 6.927329019362784 -11.568848216828396 -10.783920146973896 5 0 1
1882 377 3 0 6.833975567635065 -11.946869527772865 -11.074758552620843 5 0 1
1884 377 3 0 7.283762506358556 -11.662468299487589 -10.532091879551256 5 0 1
1675 335 3 0 7.4302694488486445 -11.11609096544387 -10.490363789903196 6 0 1
338 68 3 0 8.450833800494138 -11.65255719910605 -11.027116587819343 4 0 0
2300 460 3 0 -9.49201410719164 -10.95565019983007 -10.436417071303836 16 1 0
2297 460 3 0 -9.482409459579012 -10.231115408969336 -10.517214370323332 16 1 0
2311 463 1 0 -4.310653954657683 -11.083814028651902 -10.338528994797388 15 1 0
2312 463 3 0 -4.028513117271535 -10.735834275815186 -10.441760149059355 15 1 0
5057 1186 4 0 -3.801939073041085 -10.477896079106229 -10.652485378846436 16 1 0
1672 335 3 0 7.441669131763035 -10.399099039301397 -10.447140677410546 6 0 1
1935 387 3 0 9.233331703433219 -10.292423014840132 -10.89871008041243 5 0 1
5158 1220 2 0 8.612996160445427 -10.640509643688663 -10.382734418901045 13 1 0
5160 1220 4 0 8.936754893829534 -10.500514296402887 -10.699932615513742 13 1 0
2100 420 3 0 -5.213997623275687 -9.644884134033388 -10.563399116953951 15 1 0
5056 1186 2 0 -3.5328831733603696 -10.180048152476937 -10.908021744606407 16 1 0
2396 480 1 0 -2.50945484185765 -9.686122545867933 -11.11212414750834 14 1 0
2399 480 3 0 -2.3834242267126022 -9.2807045159344 -11.123079769219617 14 1 0
2398 480 3 0 -2.454696017272843 -9.839369301837708 -10.731846675870948 14 1 0
4524 1008 4 0 1.4554271855759726 -9.705195339776436 -10.403044243503205 2 0 1
3293 659 3 0 1.6361419815849114 -9.591869184325272 -10.748006580207667 12 1 1
3291 659 1 0 1.8942884718368855 -9.764730146257035 -11.102422965067458 12 1 1
3294 659 3 0 2.3170218542293366 -9.843302039431995 -10.962231868683945 12 1 1
3914 805 4 0 2.685599605370502 -9.71026832690245 -10.814487750382114 5 0 0
3913 805 2 0 3.110468083318045 -9.739523987790909 -10.566064312581847 5 0 0
3915 805 4 0 3.5002896026117263 -9.759369500833632 -10.331024406276965 5 0 0
5864 1455 4 0 10.93928012553799 -9.313484335117792 -10.95672463413725 12 1 1
3967 823 2 0 7.839920366350267 -8.992161285224617 -10.935048863276927 3 0 0
3968 823 4 0 8.082444459753393 -8.758712563367766 -10.604796075328982 3 0 0
343 69 3 0 8.423266402685638 -8.524441322287554 -10.679960274286673 3 0 0
341 69 1 0 8.67005954051606 -8.379797955115865 -10.332907354344847 3 0 0
100 20 3 0 10.074862682688739 -8.94380994887261 -10.787500474197707 3 0 0
97 20 3 0 10.580788438030812 -8.834409888341407 -10.304900114895528 3 0 0
96 20 1 0 10.473868996666614 -8.776134516940452 -10.722242844065063 3 0 0
99 20 3 0 10.754281500221897 -8.96278239982744 -10.97042855668941 3 0 0
5377 1293 2 0 -1.7373379170799375 -7.4162222649690515 -11.103823846096102 15 1 0
520 104 3 0 7.353080793195623 -7.745703543188719 -11.046466443203153 4 0 0
342 69 3 0 9.06443173539326 -8.240658467949832 -10.48094332416891 3 0 0
4004 835 4 0 9.376363717269246 -8.110595935701346 -10.272160856465744 4 0 0
5708 1403 4 0 10.752075951176568 -8.046601794617708 -10.792275815879671 6 0 1
98 20 3 0 10.478069576231654 -8.332440594315564 -10.81279180132969 3 0 0
2004 401 3 0 11.16938514378145 -7.83619403584946 -10.48132227766616 5 0 0
4755 1085 4 0 -10.732254643835654 -6.938857197999189 -10.634105815192482 5 0 1
4753 1085 2 0 -10.994071886868188 -7.165039885048097 -10.392430348671404 5 0 1
64 13 3 0 -9.655040364533976 -6.633487569456839 -10.643007173943555 6 0 0
1865 373 3 0 -6.686089005492859 -6.831111870245619 -10.29489936147638 6 0 1
1864 373 3 0 -6.103635230348049 -6.560917681327217 -10.736321664406455 6 0 1
4761 1087 4 0 -5.772933608667372 -6.609532491972029 -10.953077918198975 6 0 1
274 55 3 0 -4.050520074528943 -6.70263868253545 -11.06184959082139 6 0 0
78 16 3 0 -3.046072278124189 -7.2043328419214525 -10.888636283378068 4 0 0
76 16 1 0 -2.7382551140914604 -6.864456517601285 -10.886500260891843 4 0 0
77 16 3 0 -2.868852178888945 -6.564089822367524 -10.583312234684135 4 0 0
80 16 3 0 -2.320241191499848 -7.03287674219575 -10.780680538567196 4 0 0
5378 1293 4 0 -1.9730835012856076 -7.070994355413829 -10.92189700728081 15 1 0
516 104 1 0 7.288718265299849 -7.323611695065503 -11.11473754820473 4 0 0
519 104 3 0 7.064453854933255 -7.153261295627565 -10.767660739441858 4 0 0
61 13 1 0 -9.556226163196552 -6.221106998495986 -10.544957368480254 6 0 0
62 13 3 0 -9.941036507771793 -5.9730215312597075 -10.542368172454825 6 0 0
65 13 3 0 -9.27562741952651 -6.046748681198609 -10.867006654693167 6 0 0
4079 860 4 0 -8.907095592988588 -5.978916032483459 -10.693896464441439 6 0 0
4078 860 2 0 -8.480971759190327 -5.9079959382387495 -10.799724853864081 6 0 0
1013 203 3 0 -7.666087080502321 -5.688932516509312 -10.928514924927498 6 0 0
4080 860 4 0 -8.036747609124454 -5.831193892185675 -10.913636979560389 6 0 0
1863 373 3 0 -6.827721262248172 -6.223570672349119 -10.72482455814546 6 0 1
1861 373 1 0 -6.5026450788840595 -6.455046881730191 -10.455918552621398 6 0 1
4759 1087 2 0 -5.368792944723031 -6.433581606155546 -10.908823493981473 6 0 1
4760 1087 4 0 -4.9719606637196145 -6.255714688175666 -10.869059563907431 6 0 1
275 55 3 0 -4.587763127684297 -6.179351954849484 -10.961799734143574 6 0 0
1011 203 1 0 -7.436228124269508 -5.318316533267857 -10.960840440777726 6 0 0
1014 203 3 0 -7.006222528939763 -5.413018184353057 -10.997072660245555 6 0 0
1015 203 3 0 -7.494134517261675 -5.0861822971887465 -10.601984391421594 6 0 0
5007 1169 4 0 -6.631205414903024 -5.279361116874775 -10.946245163439094 6 0 0
5005 1169 2 0 -6.229430937998304 -5.15593405970119 -11.05236148475894 6 0 0
1376 276 1 0 -5.06960113093059 -4.692739107517762 -11.037179580371692 8 0 0
1379 276 3 0 -5.006430025042668 -4.952814220980071 -10.700876104227563 8 0 0
5701 1401 2 0 -11.990837343638306 -4.081648966262658 -10.353989900992564 6 0 1
3777 759 4 0 -7.9583852799861114 -3.7402929842654977 -11.056803748845786 6 0 0
1377 276 3 0 -5.168840935909207 -4.278220010181173 -10.889834522278177 8 0 0
1582 317 3 0 6.946826522863002 -3.9653542526273284 -11.106873978808219 8 0 1
1401 281 1 0 11.176098637392673 -3.84347117442163 -10.971861391171498 7 0 1
1404 281 3 0 11.370535535533936 -4.128760601605274 -10.6708209032888 7 0 1
5703 1401 4 0 11.714012064463144 -4.31261000682625 -10.565788524796716 5 0 1
1491 299 1 0 -10.780240472236297 -3.131563338386753 -11.066929071820484 8 0 1
1494 299 3 0 -10.762270788721638 -3.560932393590779 -10.938963388246709 8 0 1
1495 299 3 0 -10.872326856115787 -2.8713148970378306 -10.716053023297821 8 0 1
3819 773 4 0 -10.115235928112067 -2.9420888203606346 -10.937108386700169 6 0 0
3817 773 2 0 -9.66162438321103 -2.9992544941199863 -11.02392824855655 6 0 0
3818 773 4 0 -9.220639953898978 -3.0668993979469175 -11.088785815148153 6 0 0
325 65 3 0 -8.965075873909928 -3.3319869983915584 -10.925413282130044 6 0 0
322 65 3 0 -8.53165381231884 -3.256471056878574 -10.32052901984107 6 0 0
321 65 1 0 -8.540362966874321 -3.281050658558378 -10.782699797719232 6 0 0
324 65 3 0 -8.301040862267609 -3.6323531404073446 -10.914824578243577 6 0 0
323 65 3 0 -8.36086211598794 -2.883356956305551 -10.97077566087588 6 0 0
4547 1016 4 0 -7.981028994689482 -2.9227987344320336 -11.031590090663292 9 0 1
3966 822 4 0 6.947094954961649 -2.832010723454067 -10.957928519373695 7 0 0
1583 317 3 0 7.0454074344202695 -3.1941965329898174 -11.069166100031657 8 0 1
2663 533 3 0 9.37038256726919 -3.3983852262816505 -11.013646610251662 7 0 0
1403 281 3 0 10.899456061422377 -3.5670327991007316 -10.764612734054243 7 0 1
375 75 3 0 -9.556199245984219 -1.9390473165156799 -10.6899786167102 6 0 0
374 75 3 0 -8.89491778837886 -2.2376370384617434 -10.611570859040864 6 0 0
371 75 1 0 -9.1568746289224 -1.8686368967239577 -10.537342079075747 6 0 0
2545 509 3 0 2.4784983096211732 -2.762860343972047 -10.519564054894069 6 0 0
3964 822 2 0 6.563364992917009 -2.621845638636774 -10.781906740621336 7 0 0
3965 822 4 0 6.186812989971074 -2.423704791126335 -10.612106930090786 7 0 0
373 75 3 0 -8.980940214448216 -1.509204426962965 -10.751802875254054 6 0 0
634 127 3 0 11.617696555260547 -0.11860375467296436 -10.949104392088604 12 0 0
4831 1111 2 0 -10.982236440268276 -11.274194294593318 -9.370612292657942 16 1 0
2315 463 3 0 -4.083354578323359 -11.40099372178188 -10.084922912112635 15 1 0
5834 1445 4 0 -3.8115407753392123 -11.711179601871484 -10.09243285659561 15 1 1
5833 1445 2 0 -3.366726763887323 -11.801123721326539 -10.18310315912452 15 1 1
3519 704 3 0 -1.911313047865713 -11.941907762832026 -9.895614410189614 17 1 1
4871 1124 4 0 -1.6446378138769049 -11.664574021166754 -9.725526901340615 15 1 0
4870 1124 2 0 -1.1865700184209658 -11.802399276153603 -9.73122438352974 15 1 0
4872 1124 4 0 -0.7379750025735934 -11.931584595372255 -9.728832079102318 15 1 0
3072 615 3 0 -0.14357842491190453 -11.206925613855827 -10.073633756064938 16 1 0
3074 615 3 0 -0.39423121215661006 -11.894384477987668 -9.939128281392508 16 1 0
3071 615 1 0 -0.050545167853515593 -11.654967605882627 -10.109766609046824 16 1 0
3073 615 3 0 0.34144270180590297 -11.755789569985637 -9.883147631993504 16 1 0
5546 1349 4 0 6.512630977601233 -11.771165289125301 -10.225819113013863 14 1 0
4832 1111 4 0 -11.34055654609102 -11.003328414110985 -9.38541788275059 16 1 0
2296 460 1 0 -9.539526384902748 -10.538482579564702 -10.229691207318815 16 1 0
2299 460 3 0 -9.94849837373988 -10.506234270705692 -10.052636119135132 16 1 0
2298 460 3 0 -9.208915869856165 -10.493723061030929 -9.890161412604737 16 1 0
3774 758 4 0 -8.868265308290654 -10.5709748279935 -10.101103089571996 5 0 0
3773 758 4 0 -8.032462442047983 -10.29727119149959 -10.074889848581826 5 0 0
3772 758 2 0 -8.44434848974407 -10.434804271636585 -10.089764255542725 5 0 0
2042 409 3 0 -7.61901863230804 -10.361680196230276 -10.164718514275517 15 1 0
2043 409 3 0 -7.654097079569556 -10.23750507892858 -9.422909698450054 15 1 0
2044 409 3 0 -7.253596445562316 -10.800531704222532 -9.67790040197601 15 1 0
2041 409 1 0 -7.38262163404404 -10.378848285845049 -9.761353504668085 15 1 0
4336 946 2 0 -5.286422977020277 -11.01270916109069 -9.592630127119628 5 0 0
4337 946 4 0 -5.680178147550523 -11.018797072763979 -9.366792071011925 5 0 0
4338 946 4 0 -4.888281435183728 -11.001130316023561 -9.832106668771315 5 0 0
2313 463 3 0 -4.6375786705333635 -10.943415881634227 -10.128296526364247 15 1 0
143 29 3 0 -0.016262874601890687 -10.447081735155116 -9.477918757095493 4 0 0
145 29 3 0 0.6512025239189452 -10.237135885026504 -9.604730706334932 4 0 0
1671 335 1 0 7.485853257401086 -10.769315192882495 -10.214913943296356 6 0 1
1674 335 3 0 7.178109193187137 -10.784408731631599 -9.889764210717736 6 0 1
5159 1220 4 0 8.304716393339596 -10.763293800586657 -10.08018473064374 13 1 0
1673 335 3 0 7.888843848580411 -10.79144012103488 -10.039677419317968 6 0 1
2045 409 3 0 -7.022207286536366 -10.108786535563297 -9.774407702141513 15 1 0
5001 1167 4 0 -6.8142781971695285 -9.835931786613138 -10.005835711194093 15 1 0
4999 1167 2 0 -6.4343893959228655 -9.623940657851586 -10.02232887183854 15 1 0
5000 1167 4 0 -6.0285530146033945 -9.395895014228824 -10.02800810544415 15 1 0
2097 420 3 0 -5.3706963788832995 -9.962189108017892 -9.920444299700355 15 1 0
2098 420 3 0 -5.613096709488346 -9.279820863137367 -10.046185332928587 15 1 0
2096 420 1 0 -5.270309357785232 -9.568848446093622 -10.120183708957473 15 1 0
2099 420 3 0 -4.884459460421148 -9.400496162806453 -9.944046337982627 15 1 0
144 29 3 0 0.10152351636276435 -9.7902850787709 -9.823991127419808 4 0 0
141 29 1 0 0.25830770949423254 -10.101952049999683 -9.49740105526582 4 0 0
4522 1008 2 0 1.210231897781867 -9.938824542230295 -10.123623651132881 2 0 1
4523 1008 4 0 0.954614989989846 -10.180215688525584 -9.831798495197937 2 0 1
432 87 3 0 3.7866210095790542 -9.793948220825264 -10.019457396897252 3 0 0
431 87 1 0 3.9609525478710434 -9.48038446156862 -9.740313276677956 3 0 0
433 87 3 0 4.401651302943769 -9.583947680788036 -9.649872480326744 3 0 0
3936 812 4 0 4.780043547402659 -9.434471872095449 -9.652978307381526 3 0 0
3934 812 2 0 5.147679248741529 -9.384146432057344 -9.409790422743994 3 0 0
434 87 3 0 3.9314181379869044 -9.086430468415385 -9.934963142771853 3 0 0
3992 831 4 0 8.522932260606808 -8.960456078865981 -9.795529581383617 4 0 0
344 69 3 0 8.730723286086903 -8.715619124827331 -10.045158293371372 3 0 0
3991 831 2 0 8.613311913062581 -9.152124832951845 -9.39738964806296 4 0 0
748 150 3 0 -11.282582870509325 -7.570803455406616 -9.74601992453709 5 0 1
4754 1085 4 0 -11.266647847545034 -7.411433457614208 -10.136304451089957 5 0 1