LAMMPS data file via write_data, version 27 Jun 2024, timestep = 2500000, units = lj

4800 atoms
4 atom types
3300 bonds
1 bond types

-9.99857 9.99857 xlo xhi
-9.99857 9.99857 ylo yhi
-9.99857 9.99857 zlo zhi

Masses

1 1
2 1
3 0.5
4 0.5

Bond Coeffs # zero

1 0

Atoms # bond

1049 250 4 -5.286058640611508 -8.855571893860303 -9.505633161466648 0 0 0
976 226 2 -5.186171494969964 -9.669817371273703 -9.612195021551848 0 0 0
977 226 4 -5.372225746605983 -9.215348412253846 -9.70622576511675 0 0 0
1048 250 2 -5.045289025287979 -8.439295105972642 -9.368725790580017 0 0 0
1119 273 4 -3.6257459518448245 -8.655797493125895 -8.886183755626863 0 0 0
858 186 4 -3.290723947583506 -8.646695569494605 -8.603773940314902 0 0 0
806 169 4 -3.3288341306360825 -8.968138019103124 -8.862759523935049 0 0 0
1117 273 2 -4.0212881813297 -8.372180619065706 -9.000673115140916 0 0 0
805 169 2 -2.9754978065395497 -8.966405430743352 -9.216525605140218 0 0 0
807 169 4 -2.622161482443017 -8.96467284238358 -9.570291686345387 0 0 0
1218 306 4 -2.3466822294831413 -8.69273906048518 -9.40119412162116 0 0 0
1212 304 4 -2.410982854188025 -8.735931289993372 -9.809681018286463 0 0 0
1216 306 2 -1.9739688362300223 -8.519959499565848 -9.116181929217996 0 0 0
1217 306 4 -1.6012554429769033 -8.347179938646516 -8.831169736814832 0 0 0
3535 1079 2 -8.505087957732517 -7.418417693215391 -9.641780811107662 1 0 1
3537 1079 4 -8.614672966477888 -6.98416367656189 -9.864074704138618 1 0 1
3536 1079 4 -8.395502948987145 -7.8526717098688925 -9.419486918076705 1 0 1
845 182 4 -8.545788357291379 -8.16176847186415 -9.18206154991532 0 0 0
844 182 2 -8.39042422637506 -8.10386432284835 -8.710352851298362 0 0 0
911 204 4 -8.297618489994525 -8.249680345242522 -9.524307530857254 0 0 0
910 204 2 -7.9187199650918085 -8.420310420774381 -9.80237458239445 0 0 0
1678 460 2 -5.334502598842254 -7.406921086231656 -9.194346748501742 0 0 1
1679 460 4 -5.748513621025192 -7.148638700140393 -9.303365474168896 0 0 1
1565 422 4 -6.022775961351579 -7.191267389215161 -9.639942659693157 0 0 1
1184 295 4 -6.055661523710026 -6.900136030903602 -9.373274237137249 0 0 0
1680 460 4 -4.920491576659315 -7.665203472322919 -9.085328022834588 0 0 1
1050 250 4 -4.80451940996445 -8.023018318084981 -9.231818419693386 0 0 0
948 216 4 -4.635200656840476 -7.8625365760455885 -8.865125266455802 0 0 0
1413 371 4 -4.5279359164562285 -7.713974083279375 -9.214165627099645 0 0 1
1118 273 4 -4.416830410814575 -8.088563745005516 -9.11516247465497 0 0 0
1411 371 2 -4.315867828629483 -7.400248979395764 -9.540667825129983 0 0 1
946 216 2 -4.522305890408168 -7.59778654733173 -8.456270531851183 0 0 0
1412 371 4 -4.103799740802738 -7.086523875512153 -9.867170023160321 0 0 1
1731 477 4 -4.324460433808906 -6.759516376311482 -9.814480180163562 0 0 1
990 230 4 -1.4778406980623193 -8.089834433664363 -8.548875521265463 0 0 0
1235 312 4 -1.2362101957259182 -8.15978658456529 -8.878160951278028 0 0 0
1236 312 4 -0.6674752062427062 -7.994545173661209 -9.683912642470117 0 0 0
1234 312 2 -0.9518427009843122 -8.07716587911325 -9.281036796874073 0 0 0
1301 334 4 -0.3397519875454936 -7.8180899863279985 -9.838492635516324 0 0 1
1300 334 2 -0.04494646923655083 -7.449954802139897 -9.672461937941058 0 0 1
1458 386 4 -0.3246183655686544 -8.209113468475039 -9.768983161774358 0 0 1
1373 358 4 -6.983923869080971 -6.337889963690796 -9.619460927198201 0 0 1
1185 295 4 -6.8330307722463095 -6.285114970062064 -9.241190376835423 0 0 0
1372 358 2 -7.1254099009803005 -6.023134889547302 -9.9812771043906 0 0 1
1183 295 2 -6.444346147978168 -6.592625500482833 -9.307232306986336 0 0 0
3529 1077 2 -8.558911202398859 -3.672953352691686 -8.605173602353656 1 0 1
1415 372 4 -6.107603953136646 -3.6951663653854294 -9.660126750799666 0 0 1
938 213 4 -5.998091797589857 -3.4037949669025074 -9.406790134388066 0 0 0
937 213 2 -5.989140986402998 -3.301572506624077 -8.917432952368756 0 0 0
135 27 3 -5.813037394350825 -3.4625349977831847 -9.765008773588137 0 0 1
1414 372 2 -6.3174661756921315 -4.121334573911395 -9.816134781317011 0 0 1
1081 261 2 -3.55990229332535 -3.3159141261111613 -9.818861715527111 0 0 0
3530 1077 4 -8.678952510924855 -3.3317168239423514 -8.95035140536852 1 0 1
1733 478 4 -8.456842565797967 -2.984523739926431 -9.040662999510094 0 0 1
1732 478 2 -8.21532707866215 -2.6557633708879083 -8.751549026787643 0 0 1
1734 478 4 -7.973811591526334 -2.3270030018493855 -8.462435054065192 0 0 1
1139 280 4 -7.708474723461471 -2.027371737259933 -8.407943521652214 0 0 0
1138 280 2 -7.550039515998881 -1.7393136368865882 -8.784667314165546 0 0 0
939 213 4 -5.98019017521614 -3.199350046345647 -8.428075770349446 0 0 0
132 27 3 -5.999408204158353 -2.7512925100688856 -9.893071433728027 0 0 1
963 221 4 -5.031848872800411 -3.260908092338489 -9.83453557568907 0 0 0
962 221 4 -4.1799050754199465 -2.918517565169649 -9.438353177026272 0 0 0
1083 261 4 -3.8278182225810307 -3.090964107415397 -9.461624337947919 0 0 0
774 158 4 -4.011560723764208 -3.0511525735428395 -9.104223203957122 0 0 0
772 158 2 -3.6954747344908725 -2.71299410021383 -8.915176928402557 0 0 0
961 221 2 -4.605876974110179 -3.089712828754069 -9.636444376357671 0 0 0
773 158 4 -3.379388745217537 -2.37483562688482 -8.726130652847992 0 0 0
2312 671 4 -3.2906617372181057 -1.9978350782560979 -8.636252896427767 0 0 1
1024 242 2 -7.815055370321809 -0.8737257728470602 -9.642547229152536 0 0 0
1140 280 4 -7.391604308536291 -1.4512555365132431 -9.161391106678877 0 0 0
767 156 4 -7.223527995489673 -1.5063374544700028 -9.506796164596707 0 0 0
1026 242 4 -7.5627180889057355 -1.2820706021629205 -9.502617258172034 0 0 0
766 156 2 -6.813567406732507 -1.4614211129171037 -9.789488290287522 0 0 0
1025 242 4 -8.067392651737883 -0.4653809435312 -9.782477200133037 0 0 0
2096 599 4 -7.81763406789883 -0.16348541268644393 -9.76241990705547 0 0 0
764 155 4 -8.196895689340966 -0.09857070340327166 -9.879949000032973 0 0 0
2079 593 4 -5.4817180363460505 -1.0745871414699797 -9.077768519406606 0 0 0
2077 593 2 -5.78501349387264 -1.2386814202795968 -9.439825052430628 0 0 0
2078 593 4 -6.088308951399229 -1.402775699089214 -9.80188158545465 0 0 0
2489 730 4 -5.0472227236690035 -1.2193934746306647 -9.08121650519854 0 0 1
2488 730 2 -4.577131202082807 -1.1024479185289058 -8.957371044076162 0 0 1
2311 671 2 -3.5146615890953616 -1.5559450761743534 -8.70376061761098 0 0 1
2313 671 4 -3.7386614409726175 -1.1140550740926092 -8.771268338794195 0 0 1
1755 485 4 -3.8409139858065426 -0.7481820250566739 -8.682792547423297 0 0 0
2490 730 4 -4.1070396804966105 -0.9855023624271468 -8.833525582953783 0 0 1
1320 340 4 -2.431681192403363 -0.1447311668578846 -9.763508620782721 0 0 1
3213 971 4 -0.03498622173669541 -8.521723930259565 -2.8889184048362626 0 0 0
945 215 4 -8.35237710246142 -8.517639154331581 -6.962600785587019 0 0 0
45 9 3 -4.398742644057222 -8.900215259515875 -7.468842468848551 0 0 0
41 9 1 -4.075126520864023 -9.202079621104708 -7.361369160479737 0 0 0
43 9 3 -3.879341494223765 -9.368579261417644 -7.747692979469578 0 0 0
857 186 4 -3.567777402448869 -9.111178048362722 -7.762645287866132 0 0 0
42 9 3 -3.7519181671413304 -8.99415813563807 -7.108574746053751 0 0 0
44 9 3 -4.258402577037251 -9.54944265243775 -7.11428858314419 0 0 0
1160 287 4 -3.422903574004447 -9.071076266184518 -7.380781831583908 0 0 0
929 210 4 -4.089592316506545 -9.8469849371695 -6.922739838228777 0 0 0
1908 536 4 -4.6689988292689915 -8.70313846068811 -7.250897092271156 0 1 0
856 186 2 -3.4292506750161875 -8.878936808928664 -8.183209614090517 0 0 0
1098 266 4 -3.515708025278253 -9.455936133078975 -7.549250206113662 0 0 0
1906 536 2 -4.662803156967045 -8.454922036992281 -6.816903750556754 0 1 0
1159 287 2 -3.1194097809266355 -8.76557435853937 -7.126695031476287 0 0 0
1096 266 2 -3.2895668986385287 -9.889862360516716 -7.4464483579580065 0 0 0
1161 287 4 -2.815915987848824 -8.460072450894224 -6.872608231368667 0 0 0
1010 237 4 -8.470166544997875 -8.217430863862115 -6.736562354952862 0 0 0
943 215 2 -8.398458535547979 -8.311352008397101 -7.4157256193216625 0 0 0
846 182 4 -8.235060095458742 -8.045960173832551 -8.238644152681404 0 0 0
944 215 4 -8.444539968634539 -8.105064862462621 -7.868850453056306 0 0 0
947 216 4 -4.409411123975859 -7.333036518617872 -8.047415797246565 0 0 0
850 184 2 -4.158914757701685 -7.644707809856169 -7.341924056585566 0 0 0
852 184 4 -3.994990300584451 -7.638326861196296 -6.869602073343379 0 0 0
851 184 4 -4.322839214818918 -7.6510887585160425 -7.814246039827753 0 0 0
29 6 3 -3.5728970416115473 -7.650295282326175 -6.894709760411925 0 0 0
69 14 3 -4.275372904710541 -7.469896489763163 -6.61394070666428 0 0 0
775 159 2 -2.2737576784645928 -7.632614759226224 -7.178689472089294 0 0 0
776 159 4 -2.537037436568834 -7.515851158978883 -6.76997192826467 0 0 0
777 159 4 -2.0104779203603513 -7.749378359473566 -7.587407015913918 0 0 0
30 6 3 -2.9976699163457416 -8.122621570653209 -6.781036405075309 0 0 0
989 230 4 -1.6178440211030805 -7.839555168192107 -7.590877943599625 0 0 0
27 6 3 -2.901979435587484 -7.389616318782547 -6.6783396056017015 0 0 0
988 230 2 -1.5478423595827 -7.9646948009282355 -8.069876732432546 0 0 0
865 189 2 -9.050662721022015 -5.548543914520141 -6.877629665882462 0 0 0
866 189 4 -9.20381933714725 -5.228014760569798 -7.229487751486326 0 0 0
1196 299 4 -9.335765557316435 -5.099726522911676 -7.594440938176584 0 0 0
3531 1077 4 -8.438869893872862 -4.014189881441021 -8.25999579933879 1 0 1
1195 299 2 -9.804071337416357 -4.926708577255147 -7.566973014959325 0 0 0
837 179 4 -8.97008540883321 -5.02677660127654 -7.464369120273455 0 0 0
835 179 2 -8.752465695893418 -4.700816459820126 -7.7748391618582495 0 0 0
836 179 4 -8.534845982953627 -4.374856318363712 -8.085309203443044 0 0 0
1004 235 4 -8.236647463440212 -4.152627605840164 -7.923746865152191 0 0 0
1003 235 2 -7.841072228779515 -3.875495023440115 -7.794449666824899 0 0 0
1005 235 4 -7.445496994118818 -3.598362441040067 -7.665152468497606 0 0 0
802 168 2 -7.142617609707014 -3.6740052104625076 -6.9743830206975765 0 0 0
803 168 4 -7.187749386025946 -3.42323143729963 -7.404587201825535 0 0 0
1172 291 4 -7.078642453005477 -3.4954133142027906 -7.770846900202841 0 0 0
1171 291 2 -6.614710107975358 -3.414229726599225 -7.938703995193484 0 0 0
1173 291 4 -6.150777762945239 -3.3330461389956594 -8.106561090184128 0 0 0
3023 908 4 -8.630761956025486 -2.204522285656124 -7.267066457129383 1 0 0
830 177 4 -8.803315555212258 -2.0420577216057545 -7.576751306111192 0 0 0
3022 908 2 -8.898452892928573 -2.4117758285168094 -6.899116010368618 1 0 0
829 177 2 -8.384322312563839 -2.078804128158556 -7.847111000260375 0 0 0
1448 383 4 -7.692377651131075 -2.3999368213903174 -8.186483967096006 0 0 1
1447 383 2 -7.52752900165709 -2.8069794711339426 -7.9474417029326 0 0 1
1449 383 4 -7.362680352183104 -3.2140221208775688 -7.708399438769194 0 0 1
831 177 4 -7.965329069915421 -2.1155505347113577 -8.117470694409556 0 0 0
2165 622 4 -7.596009331642819 -2.0523909730861005 -7.992480801485019 0 0 0
2164 622 2 -7.345726743005703 -1.7282385886514173 -7.7056291717346665 0 0 0
1068 256 4 -5.7884379391840834 -3.205542192057164 -8.067762192767768 0 0 0
1066 256 2 -5.534751824240932 -3.162952504820112 -7.639008797882063 0 0 0
1067 256 4 -5.281065709297781 -3.1203628175830604 -7.210255402996357 0 0 0
1070 257 4 -5.158761454691585 -2.916666276561846 -6.8822911512032965 0 0 0
1407 369 4 -3.1609232526818265 -2.3076096166334623 -8.39804236650906 0 0 1
1405 369 2 -2.779597907747268 -2.1430246959470356 -8.119649146057592 0 0 1
1240 314 2 -1.84648350362438 -2.42162119180632 -7.4199984504481735 0 0 0
1242 314 4 -2.2980508003157 -2.245018227591252 -7.542057328000874 0 0 0
1406 369 4 -2.3982725628127093 -1.9784397752606089 -7.841255925606124 0 0 1
1206 302 4 -2.458247188971482 -1.9016386769957487 -7.473943260498527 0 0 0
1204 302 2 -2.7352055751980586 -1.7426703232009089 -7.089205538419379 0 0 0
1241 314 4 -1.3949162069330607 -2.5982241560213883 -7.297939572895473 0 0 0
798 166 4 -1.143967695199766 -2.7538648188897303 -6.985404756085341 0 0 0
1123 275 2 -0.5677603514353755 -2.5106257144202693 -7.489807815956285 0 0 0
1124 275 4 -1.0207961388699713 -2.481154757898341 -7.28030832186384 0 0 0
796 166 2 -1.2848849084171796 -3.1785380199287094 -6.762256797684948 0 0 0
1125 275 4 -0.11472456400077963 -2.5400966709421975 -7.699307310048729 0 0 0
1847 516 4 -7.053426515342091 -1.3250350192448817 -7.0416854842474415 0 0 0
2166 622 4 -7.095444154368588 -1.4040862042167348 -7.418777541984314 0 0 0
235 47 3 -6.75314327945064 -1.2193163610372295 -7.282097372967385 0 0 0
233 47 3 -6.334555070133572 -0.6238346427175571 -7.474673161080425 0 0 0
234 47 3 -6.167674135524858 -1.3138664510799838 -7.745978997935757 0 0 0
231 47 1 -6.331626813244602 -1.0783487526931819 -7.381354625169826 0 0 0
232 47 3 -6.0574509039124225 -1.1541725797877147 -7.019860063680371 0 0 0
1857 519 4 -5.8938339751313 -0.8101167253100766 -6.983072737467747 0 0 0
2049 583 4 -6.17699791548511 -0.5572693388930374 -7.11866157543655 0 0 0
1855 519 2 -5.468742236905692 -0.9597496588119445 -6.766492499901882 0 0 0
2047 583 2 -6.149743960162472 -0.08864590987478255 -6.946471843760556 0 0 0
1753 485 2 -3.763869991402431 -0.3773032048675765 -8.356429063464843 0 0 0
995 232 4 -3.95948242352869 -0.6014146570217214 -6.890141394692405 0 0 0
1953 551 4 -4.215439527342687 -0.290584038088057 -6.893000579246374 0 0 0
1951 551 2 -3.9954954231194177 -0.07108206384223568 -7.284719195499796 0 0 0
1754 485 4 -3.6868259969983193 -0.006424384678479167 -8.030065579506388 0 0 0
994 232 2 -3.6398347152998265 -0.9702548338050739 -6.781595244993188 0 0 0
996 232 4 -3.320187007070964 -1.3390950105884258 -6.673049095293971 0 0 0
2059 587 2 -1.8876666365376416 -0.09188248629798866 -7.84342820815757 0 0 0
1113 271 4 -1.504825480776932 -0.7674653764723525 -7.3831406911375055 0 0 0
1205 302 4 -3.0121639614246347 -1.5837019694060686 -6.70446781634023 0 0 0
2061 587 4 -1.6647716358488864 -0.44858894325318255 -7.5730981834941495 0 0 0
1111 271 2 -1.4016525083135931 -0.5802417040775746 -6.931142201927178 0 0 0
4051 1251 2 -0.07238662833525251 -0.03222692267752276 -8.01862576497072 0 0 0
1009 237 2 -8.619380188539797 -8.435406889052219 -6.3120370423703225 0 0 0
1011 237 4 -8.768593832081718 -8.653382914242323 -5.887511729787783 0 0 0
17 4 3 -9.58161549475442 -8.552670057630165 -5.458016048235443 0 0 0
1824 508 4 -7.555479519014655 -9.924948435278067 -5.167836627898498 0 1 0
993 231 4 -3.6825821937639693 -9.541795622286141 -4.983645993167493 0 0 0
991 231 2 -3.4651072222194212 -9.102027345946588 -5.08012656052 0 0 0
2198 633 4 -3.9513205758709664 -9.765798757173425 -5.156479397427188 0 1 0
992 231 4 -3.247632250674873 -8.662259069607034 -5.176607127872507 0 0 0
1167 289 4 -3.192472443218871 -8.269761266464622 -5.185617824477172 0 0 0
19 4 3 -8.876065609568997 -8.369665005596822 -5.641342288706618 0 0 0
16 4 1 -9.25593558988296 -8.230818838250833 -5.4139207860520315 0 0 0
884 195 4 -9.297244773933727 -7.531184767498412 -5.827285692659266 0 0 0
883 195 2 -9.157376411759984 -7.12046319296877 -5.5788010261729655 0 0 0
20 4 3 -9.407592632459707 -7.838922000874927 -5.589468529676675 0 0 0
1907 536 4 -4.656607484665098 -8.206705613296451 -6.382910408842351 0 1 0
799 167 2 -4.769924031422424 -6.752180064786038 -5.315761853511207 0 0 0
801 167 4 -4.556448369718343 -6.992645695715578 -5.698651422710452 0 0 0
68 14 3 -4.430565647477986 -8.025565473153927 -6.119221398884459 0 0 0
67 14 3 -4.546291824314102 -7.306896145318292 -5.932080144150186 0 0 0
66 14 1 -4.271770748280697 -7.592132774818317 -6.166341203665113 0 0 0
70 14 3 -3.84858029655362 -7.5628170248461375 -6.000659495650236 0 0 0
1166 289 4 -3.474069306470402 -7.613653762243578 -5.88577934120892 0 0 0
1165 289 2 -3.3332708748446365 -7.9417075143541 -5.535698582843046 0 0 0
28 6 3 -3.3181850604517718 -7.7821519181223335 -6.190908911982472 0 0 0
26 6 1 -3.1975667349256773 -7.739636625865726 -6.636939930490777 0 0 0
2931 877 4 -2.5738866582064643 -7.122848351592534 -6.710424368068295 0 0 0
2929 877 2 -2.498287012855541 -6.957909578703655 -6.244506033142026 0 0 0
2930 877 4 -2.4226873675046177 -6.792970805814775 -5.778587698215758 0 0 0
998 233 4 -2.1008537322854597 -6.771490413203948 -5.540397528102916 0 0 0
997 233 2 -1.9612237519517115 -6.887110924790995 -5.074419668229818 0 0 0
885 195 4 -9.01750804958624 -6.709741618439128 -5.330316359686665 0 0 0
887 196 4 -9.07398794063867 -6.349295083234839 -5.160154481956279 0 0 0
861 187 4 -8.847680468434369 -6.389399431367811 -5.476902984995882 0 0 0
873 191 4 -8.712423215954729 -6.535272902821185 -5.137871743531152 0 0 0
867 189 4 -8.89750610489678 -5.869073068470484 -6.525771580278597 0 0 0
859 187 2 -8.686288161725308 -6.17497152246989 -5.898771679284386 0 0 0
860 187 4 -8.524895855016247 -5.960543613571969 -6.32064037357289 0 0 0
3198 966 4 -2.1994121330457825 -6.472415558342967 -5.8358654188879795 0 0 0
3196 966 2 -2.237989113395187 -5.986837783741198 -5.7230556613320065 0 0 0
3197 966 4 -2.276566093744591 -5.501260009139428 -5.6102459037760335 0 0 0
3105 935 4 -2.133237197893282 -5.104100416237816 -5.605096436692626 0 0 0
1045 249 2 -8.43483076015821 -4.098749592634629 -5.255413968956484 0 0 0
1046 249 4 -8.358912402600197 -3.7517620511699934 -5.607317434489341 0 0 0
2859 853 4 -8.489272155509948 -3.506521922645371 -5.873340847104857 1 0 0
1043 248 4 -8.275852487168045 -3.345317706811715 -5.582669353817576 0 0 0
1214 305 4 -8.115568581189992 -3.6055783055227852 -5.871130798669709 0 0 0
804 168 4 -7.097485833388083 -3.924778983625385 -6.544178839569619 0 0 0
1215 305 4 -7.178652674836018 -3.754336814121471 -6.187452613506657 0 0 0
810 170 4 -6.869803902105684 -4.026385260469649 -6.211114314697121 0 0 0
1213 305 2 -7.647110628013005 -3.679957559822128 -6.029291706088183 0 0 0
808 170 2 -6.3839627072872585 -3.9430729022362856 -6.127344484906476 0 0 0
809 170 4 -5.898121512468833 -3.859760544002922 -6.0435746551158305 0 0 0
1089 263 4 -5.928881260978325 -3.9913056978801604 -5.66527160803545 0 0 0
1087 263 2 -5.88103820291501 -4.0446509005556806 -5.170432915988533 0 0 0
3103 935 2 -1.9752526995339086 -4.9025355419823295 -5.175663671588867 0 0 0
1509 403 4 -1.47256992933686 -3.4391241025698633 -5.231259621337112 0 0 1
1507 403 2 -1.523305451599106 -3.418139710498689 -5.728236041371489 0 0 1
1508 403 4 -1.5740409738613523 -3.3971553184275143 -6.225212461405866 0 0 1
797 166 4 -1.4258021216345933 -3.6032112209676885 -6.539108839284555 0 0 0
432 87 3 -9.527801903815027 -2.487998461386459 -6.6353139437107584 1 0 0
3024 908 4 -9.16614382983166 -2.619029371377495 -6.531165563607853 1 0 0
434 87 3 -9.94329704018029 -2.413467436524253 -6.013454700803627 1 0 0
2857 853 2 -8.84603247783979 -3.2099290618499987 -6.059767098840576 1 0 0
433 87 3 -9.581056047378688 -3.0658395831101917 -6.157649171891034 1 0 0
2858 853 4 -9.202792800169632 -2.9133362010546264 -6.246193350576294 1 0 0
431 87 1 -9.809263168572656 -2.7082890014342866 -6.345742476873668 1 0 0
822 174 4 -9.767284209452614 -2.2284162561407577 -5.69349536611596 0 0 0
1042 248 2 -8.075232510456674 -2.981086157279846 -5.305023890555431 0 0 0
904 202 2 -7.394757862197176 -2.0146524795321374 -5.384545936018096 0 0 0
906 202 4 -7.1914709965158625 -1.6909571152108283 -5.706874590279589 0 0 0
1848 516 4 -7.078224906033649 -1.6548586295921681 -6.097968669796666 0 0 0
1044 248 4 -7.874612533745303 -2.616854607747977 -5.027378427293287 0 0 0
1069 257 2 -4.865819536867533 -2.6242513305616617 -6.601794213363776 0 0 0
1219 307 2 -3.7729650463007807 -1.9785752794138374 -6.444475388272136 0 0 0
1071 257 4 -4.572877619043481 -2.3318363845614773 -6.321297275524256 0 0 0
1221 307 4 -4.177139497486782 -2.2323114183514057 -6.295274232762038 0 0 0
793 165 2 -4.288317734897727 -2.536584767378758 -5.613884023542793 0 0 0
795 165 4 -4.402437399602959 -2.209823485351384 -5.974721614011822 0 0 0
794 165 4 -4.174198070192495 -2.8633460494061316 -5.253046433073765 0 0 0
75 15 3 -4.727419273646911 -2.033550288564071 -6.067238839978791 0 0 0
1220 307 4 -3.3687905951147794 -1.7248391404762689 -6.593676543782234 0 0 0
1254 318 4 -4.077335152858346 -3.223813358109384 -5.109032577673054 0 0 0
877 193 2 -2.6256177733880195 -2.4525823490139804 -5.458961384652623 0 0 0
879 193 4 -2.538497232732767 -2.3356057253411064 -5.937214958513104 0 0 0
14 3 3 -2.719646304196844 -1.9492464270539052 -5.887079952231606 0 0 0
3147 949 4 -1.178481041552014 -3.243826361456364 -5.03162176731682 0 0 0
1846 516 2 -7.06582571068787 -1.489946824418525 -6.569827077022054 0 0 0
73 15 3 -5.109873773888496 -1.4526035382386724 -6.355560584789055 0 0 0
1856 519 4 -5.043650498680084 -1.1093825923138125 -6.549912262336018 0 0 0
71 15 1 -4.763225890572272 -1.579605980847048 -6.074481192866501 0 0 0
72 15 3 -4.853104870795585 -1.4279160640301065 -5.649614227747117 0 0 0
74 15 3 -4.364610657014123 -1.391649909286456 -6.21966525100842 0 0 0
54 11 3 -4.932210039132296 -0.685247913158735 -6.523189878640824 0 0 0
52 11 3 -4.196141819581818 -0.5395613238407185 -6.566537241429726 0 0 0
2263 655 2 -4.822436843678322 -0.9241863241886781 -5.222173468525691 0 0 0
2264 655 4 -4.666887441353055 -1.0630983405889964 -5.676604800121048 0 0 0
51 11 1 -4.563348835494221 -0.5279715878644602 -6.289725598819198 0 0 0
1150 284 2 -3.853780059249632 -1.1511964652196618 -5.69269490142373 0 0 0
1152 284 4 -4.31596655416335 -1.1541019499743856 -5.883417742420449 0 0 0
55 11 3 -4.485630173528785 -0.7912375964717955 -5.926337626681574 0 0 0
53 11 3 -4.636022643406816 -0.08988111364452883 -6.155206997721545 0 0 0
1151 284 4 -3.3915935643359134 -1.148290980464938 -5.50197206042701 0 0 0
2183 628 4 -3.3471110754683266 -0.8674755373514205 -5.174311818459512 0 0 0
13 3 3 -3.1273345831265758 -1.4948670470118866 -6.339771509713815 0 0 0
11 3 1 -2.840337267682364 -1.5100223369915902 -5.9754874747722 0 0 0
756 152 4 -2.549935864150468 -0.09930754015205906 -5.600924491312935 0 0 0
755 152 4 -3.068971314178624 -0.9426807368588769 -5.461914230213641 0 0 0
15 3 3 -3.0428673429701845 -1.3280422927122322 -5.6104329143461005 0 0 0
12 3 3 -2.461427095089111 -1.268750297534163 -6.074557571578974 0 0 0
754 152 2 -2.809453589164546 -0.5209941385054679 -5.531419360763288 0 0 0
842 181 4 -3.1603343067608076 -1.223504389084626 -5.191856304236208 0 0 0
1972 558 2 -1.7708691660260543 -0.008344026401703862 -5.985952327336456 0 0 0
1112 271 4 -1.2984795358502543 -0.39301803168279675 -6.47914371271685 0 0 0
1974 558 4 -1.3691531740870575 -0.055288482154059015 -6.279925931413877 0 0 0
1176 292 4 -1.0008504599713604 -0.16817779196878266 -6.321298571069571 0 0 0
1175 292 4 -0.0034653011609024342 -0.1278596370252348 -6.381275994880901 0 0 0
1174 292 2 -0.5021578805661315 -0.14801871449700885 -6.351287282975236 0 0 0
757 153 2 -8.635336665578848 -9.628437995353249 -4.014507830760902 0 0 0
1202 301 4 -8.877403020838857 -8.427568241506266 -4.8565228781310665 0 0 0
1201 301 2 -8.562602186174704 -8.78176511617663 -4.697007961998492 0 0 0
758 153 4 -8.957268448674338 -9.969026130323405 -3.840267624864702 0 0 0
1822 508 2 -7.794894887309069 -9.691418768565194 -4.79615911150896 0 1 0
759 153 4 -8.313404882483358 -9.287849860383092 -4.188748036657102 0 0 0
1823 508 4 -8.034310255603483 -9.457889101852322 -4.424481595119421 0 1 0
1203 301 4 -8.247801351510551 -9.135961990846992 -4.537493045865917 0 0 0
1127 276 4 -7.9379970649729765 -9.108813638379488 -4.259199167518644 0 0 0
1126 276 2 -7.559061613955456 -9.017669570591057 -3.945988882136827 0 0 0
1128 276 4 -7.180126162937936 -8.926525502802626 -3.63277859675501 0 0 0
894 198 4 -7.13339742500726 -8.581021129103176 -3.420621209764574 0 0 0
1182 294 4 -6.820537283985364 -8.799801453020034 -3.4995550118514487 0 0 0
1180 294 2 -6.3212935190336 -8.77559140481928 -3.4865343850229995 0 0 0
1181 294 4 -5.822049754081836 -8.751381356618527 -3.4735137581945503 0 0 0
1064 255 4 -5.604613758508988 -8.519011465303196 -3.7267009104925792 0 0 0
920 207 4 -5.420609460881679 -8.782322475495024 -3.4286001088894213 0 0 0
2087 596 4 -3.9097685324366567 -9.788765944128102 -4.757446507116826 0 1 0
834 178 4 -1.9052718473951262 -9.348099508848424 -3.858622880030872 0 0 0
832 178 2 -2.043271739902657 -8.869908060461885 -3.9064660442010735 0 0 0
833 178 4 -2.1812716324101884 -8.391716612075346 -3.9543092083712748 0 0 0
1095 265 4 -3.1388290372873824 -8.498161003401425 -4.843377340082609 0 0 0
1093 265 2 -2.841317889349598 -8.404115006997285 -4.452682488039274 0 0 0
818 173 4 -1.743741643715379 -9.661940800571056 -4.082305426941503 0 0 0
3183 961 4 -1.5672767839055517 -9.52518003457453 -3.7373770659325594 0 0 0
3181 961 2 -1.152348827756459 -9.67217661379064 -3.500255162885161 0 0 0
1114 272 2 -1.3551012568025917 -1.6394042994366496 -1.65449835253345 0 0 0
18 4 3 -9.159551945993341 -8.17568820227954 -4.963397971792832 0 0 0
982 228 2 -8.862732913237872 -7.777015127173573 -4.33591120078202 0 0 0
439 88 3 -8.959398256513326 -7.35830559802922 -3.7257066023354115 1 0 0
983 228 4 -8.697038093087532 -7.382048745503172 -4.077944567425165 0 0 0
436 88 1 -8.775840077663398 -6.9438075320180594 -3.6267230266762405 1 0 0
984 228 4 -9.028427733388213 -8.171981508843972 -4.593877834138874 0 0 0
872 191 4 -8.57920168910421 -7.00171526728458 -4.263409883060373 0 0 0
871 191 2 -8.64581245252947 -6.7684940850528825 -4.700640813295762 0 0 0
440 88 3 -8.427997688718607 -6.856848345462322 -3.907514359033059 1 0 0
2856 852 4 -8.32789093190573 -7.191083099757295 -4.054884773162488 1 0 0
2854 852 2 -7.8718041919378425 -7.391877612672522 -4.014062607512042 1 0 0
2855 852 4 -7.4157174519699565 -7.5926721255877485 -3.9732404418615954 1 0 0
893 198 4 -7.280639028482321 -7.607226763715795 -3.593954542236492 0 0 0
892 198 2 -7.207018226744791 -8.094123946409486 -3.507287876000533 0 0 0
1062 254 4 -7.216065373086617 -7.28197232980092 -3.8260501792213892 0 0 0
1060 254 2 -6.945126977157229 -6.93547513125178 -3.588285427820429 0 0 0
1063 255 2 -5.538154223484979 -8.09681959946918 -3.986194954023511 0 0 0
1065 255 4 -5.471694688460971 -7.674627733635163 -4.245688997554443 0 0 0
1080 260 4 -5.391361396978592 -7.297167137639448 -4.1100176181650925 0 0 0
1078 260 2 -5.220414383437321 -6.880254509415316 -4.326722438113079 0 0 0
1094 265 4 -2.5438067414118137 -8.310069010593146 -4.06198763599594 0 0 0
770 157 4 -2.3944031948638442 -8.165010609147444 -3.702817560203587 0 0 0
1191 297 4 -2.2382228672090276 -8.017311240182561 -4.03645030233263 0 0 0
1189 297 2 -2.0608583207801097 -7.560563590256941 -4.1360665758899104 0 0 0
999 233 4 -1.8215937716179635 -7.00273143637804 -4.608441808356721 0 0 0
1190 297 4 -1.8834937743511915 -7.103815940331321 -4.2356828494471905 0 0 0
3009 903 4 -1.7808173588131315 -6.734052759244511 -4.285803959370109 0 0 0
3083 928 4 -0.5623231878209204 -7.355257642601884 -4.271300238221628 0 0 0
3082 928 2 -1.0332606554094887 -7.192316425917725 -4.312142147176799 0 0 0
2996 899 4 -0.5625780511440364 -7.710719155997984 -4.438881478637375 0 0 0
3084 928 4 -1.5041981229980572 -7.029375209233566 -4.35298405613197 0 0 0
2995 899 2 -0.19785879006460355 -8.00766513762945 -4.269167175790822 0 0 0
886 196 2 -9.334025892235712 -5.966857218892169 -4.9700977966066135 0 0 0
437 88 3 -9.099071538085406 -6.621125298095362 -3.68147335913263 1 0 0
888 196 4 -9.594063843832753 -5.5844193545495 -4.780041111256948 0 0 0
1163 288 4 -9.417123690501885 -5.308653828264736 -4.554331850092138 0 0 0
3195 965 4 -9.813366859243626 -5.37729248674036 -4.496117637526512 1 0 0
800 167 4 -4.983399693126506 -6.511714433856498 -4.932872284311961 0 0 0
1079 260 4 -5.049467369896049 -6.463341881191184 -4.543427258061066 0 0 0
981 227 4 -5.1756912660882035 -6.17609276453483 -4.792565685000962 0 0 0
979 227 2 -5.561382177741665 -5.875334644438273 -4.68870484606806 0 0 0
1228 310 2 -6.365468710293765 -5.985783107308878 -3.8610309925210897 0 0 0
1230 310 4 -6.196197344361412 -5.7317379366956125 -4.257021214576377 0 0 0
980 227 4 -5.9470730893951265 -5.574576524341716 -4.584844007135157 0 0 0
1251 317 4 -6.016730853543553 -5.38097555710228 -4.247390907839775 0 0 0
1229 310 4 -6.534740076226118 -6.239828277922143 -3.465040770465803 0 0 0
3007 903 2 -1.6484942231316855 -6.340877732067608 -4.006691104475263 0 0 0
3008 903 4 -1.5161710874502394 -5.947702704890705 -3.727578249580416 0 0 0
3410 1037 4 -1.3660940198415203 -5.633200184669848 -3.879009641999424 0 0 1
3144 948 4 -1.1636775188800326 -5.810944052070953 -3.5738818559416514 0 0 0
3409 1037 2 -1.4589335288207834 -5.248890284889808 -4.185092517220872 0 0 1
1047 249 4 -8.510749117716223 -4.445737134099264 -4.903510503423627 0 0 0
1162 288 2 -9.124907468920709 -4.906676135275286 -4.609319250320618 0 0 0
1164 288 4 -8.832691247339532 -4.504698442285836 -4.664306650549097 0 0 0
924 208 4 -8.459764730694676 -4.546680852261739 -4.5001380376905935 0 0 0
922 208 2 -8.204431301379532 -4.491538273943783 -4.07379998411019 0 0 0
923 208 4 -7.949097872064389 -4.436395695625826 -3.647461930529786 0 0 0
1077 259 4 -7.776511879712389 -4.114190252863155 -3.4692496203941 0 0 0
1075 259 2 -7.454606706132819 -3.8215282694124544 -3.7156761260006608 0 0 0
1131 277 4 -6.80259125152749 -3.4258495533176694 -4.111597770649003 0 0 0
1076 259 4 -7.132701532553249 -3.5288662859617537 -3.9621026316072214 0 0 0
1249 317 2 -5.9462517134027815 -4.895024117414992 -4.341645292728748 0 0 0
1129 277 2 -6.464532419701297 -3.7634154078123543 -4.259129191382253 0 0 0
1088 263 4 -5.833195144851696 -4.097996103231201 -4.675594223941616 0 0 0
1130 277 4 -6.126473587875104 -4.100981262307039 -4.406660612115503 0 0 0
1250 317 4 -5.87577257326201 -4.409072677727703 -4.43589967761772 0 0 0
1106 269 4 -5.754134703457719 -4.048404687961255 -4.282155527141832 0 0 0
1105 269 2 -5.372599599159631 -3.7368529034737157 -4.196327502751875 0 0 0
1107 269 4 -4.9910644948615435 -3.425301118986177 -4.110499478361918 0 0 0
1253 318 4 -4.637824672553517 -3.369857441899933 -4.29385000677194 0 0 0
3104 935 4 -1.8172682011745351 -4.7009706677268435 -4.746230906485109 0 0 0