LAMMPS data file via write_data, version 27 Jun 2024, timestep = 2500000, units = lj

4650 atoms
4 atom types
3150 bonds
1 bond types

-9.99857 9.99857 xlo xhi
-9.99857 9.99857 ylo yhi
-9.99857 9.99857 zlo zhi

Masses

1 1
2 1
3 0.5
4 0.5

Bond Coeffs # zero

1 0

Atoms # bond

3695 1182 4 -1.3583009843061837 -0.07634803887059564 -0.9536630604254946 0 0 0
608 153 4 -6.945046950731479 -9.332063844663248 -9.794834131066063 0 0 0
607 153 2 -7.300357498149245 -9.627120896241543 -9.603272780038955 0 0 0
1323 391 4 -5.172945330466381 -8.500144718826474 -9.110623234838087 0 0 1
837 229 4 -5.409825838001093 -8.55138705908836 -9.396095452375905 0 0 0
1321 391 2 -4.879525613904537 -8.885662422094365 -9.234239457073773 0 0 1
1322 391 4 -4.586105897342693 -9.271180125362255 -9.35785567930946 0 0 1
2471 774 4 -4.780156748319924 -9.573861806005135 -9.50072868573837 0 1 1
18 4 3 -4.735031662777148 -9.587754576608456 -9.89775929660318 0 0 0
2470 774 2 -4.889275441529295 -9.989475039134085 -9.245075109114874 0 1 1
3391 1081 2 -2.0893499601503227 -8.250555889161616 -8.852195060790162 1 0 1
3393 1081 4 -2.576188474299414 -8.332292396201332 -8.931614230757303 1 0 1
3392 1081 4 -1.6025114460012313 -8.1688193821219 -8.772775890823022 1 0 1
1193 348 4 -0.623675291939517 -9.575342241868839 -8.782992201434197 0 0 0
1350 400 4 -0.451853854143588 -9.641148740562054 -9.143715729231157 0 0 1
1192 348 2 -0.8661137193721431 -9.138507256096515 -8.763022121083077 0 0 0
1194 348 4 -1.1085521468047692 -8.701672270324192 -8.743052040731957 0 0 0
492 114 4 -1.2711203791955348 -8.354426749678392 -8.597191957645574 0 0 0
630 160 4 -0.4115690483638048 -9.731692228544176 -8.476969127422162 0 0 0
4035 1295 4 -0.0617982399705552 -9.54489106765445 -8.541139768619574 0 1 0
2080 644 2 -0.019301096045148364 -0.425748839490489 -1.3686259393389542 0 0 0
3354 1068 4 -9.168764834213432 -6.98639718587982 -8.99629526528286 1 0 1
3352 1068 2 -8.673201548594232 -6.993722311830061 -9.062351093762553 1 0 1
197 40 3 -6.718927418539319 -7.725889564329315 -8.704445359832715 1 0 0
200 40 3 -6.88550921336971 -7.804713458228524 -9.427658536829025 1 0 0
2513 788 4 -7.279805866249289 -7.796491181641153 -9.475594335239286 0 0 1
4447 1433 2 -5.606223846447107 -0.10586921243833805 -1.9601282110194662 0 0 0
2512 788 2 -7.655115903877898 -7.466135822583997 -9.472817214921971 0 0 1
2514 788 4 -8.030425941506508 -7.1357804635268405 -9.470040094604656 0 0 1
3353 1068 4 -8.177638262975032 -7.001047437780303 -9.128406922242245 1 0 1
196 40 1 -6.623340176423745 -7.580569679425764 -9.130291823004768 1 0 0
1008 286 4 -6.585676415407125 -7.962234960260506 -9.617880795317975 0 0 1
198 40 3 -6.708482277244197 -7.1251704718826 -9.156028653359785 1 0 0
199 40 3 -6.175697947744846 -7.663349683804769 -9.220091076777761 1 0 0
836 229 4 -6.2621583114493085 -8.028870234541138 -9.373611618831847 0 0 0
835 229 2 -5.8359920747252 -8.290128646814749 -9.384853535603876 0 0 0
404 85 4 -5.3298215992505265 -6.8583906752073265 -8.74752234948069 0 0 0
3608 1153 4 -5.026668341707433 -6.657719415246629 -8.607042446532397 1 1 0
3607 1153 2 -4.718510391703731 -6.670993614664177 -9.000568142617647 1 1 0
965 272 4 -3.756855668216589 -7.866369922181742 -9.501025718910707 0 0 1
3609 1153 4 -4.410352441700029 -6.684267814081724 -9.394093838702897 1 1 0
68 14 3 -3.6693214428863365 -7.457948919106161 -9.476395840034106 0 0 1
69 14 3 -4.308143132479843 -7.055404082935298 -9.389998480256146 0 0 1
66 14 1 -4.05345223814081 -7.304924886533943 -9.686936044252512 0 0 1
1037 296 4 -4.1061499041873954 -7.990564879792447 -9.67838701167718 0 0 1
70 14 3 -4.2965436379141435 -7.65740722348704 -9.842057846369938 0 0 1
964 272 2 -3.331744727092622 -8.018981118696065 -9.286571736817516 0 0 1
966 272 4 -2.9066337859686553 -8.171592315210386 -9.072117754724324 0 0 1
1334 395 4 -2.3118661246728567 -6.963346489311684 -8.187450816886678 0 0 1
1333 395 2 -2.5682114314575597 -7.392621844047949 -8.184327756625441 0 0 1
1335 395 4 -2.8245567382422627 -7.821897198784214 -8.181204696364205 0 0 1
2359 737 2 -2.186983932899888 -7.144768275016683 -9.737817335424158 0 1 1
504 118 4 -2.2489259955991465 -7.708742463781879 -9.954400784929694 0 0 0
2361 737 4 -1.9981727728634406 -7.598552565409945 -9.646001412851447 0 1 1
3440 1097 4 -9.167565717429028 -6.641928337624713 -8.772450679024635 1 0 1
3439 1097 2 -9.369468719295082 -6.1854464662534125 -8.743133807656296 1 0 1
2040 630 4 -8.638062334905657 -5.367246216319191 -9.378648114592188 0 1 1
2038 630 2 -9.124144936774721 -5.250108815131283 -9.380239781400137 0 1 1
3380 1077 4 -8.406659851450751 -5.1639646510652275 -9.163003891847053 1 0 1
3299 1050 4 -9.877087819826153 -5.200181678457654 -9.672860570957019 1 0 1
3441 1097 4 -9.571371721161135 -5.728964594882112 -8.713816936287957 1 0 1
2039 630 4 -9.610227538643786 -5.132971413943376 -9.381831448208086 0 1 1
3359 1070 4 -9.736038266325648 -5.474635142688157 -8.459587476649286 1 0 1
3340 1064 2 -3.8367420784586606 -5.966945317227715 -8.566145631152157 1 0 1
3342 1064 4 -3.8274970147560357 -5.598346893402683 -8.903858128330882 1 0 1
2109 653 4 -3.574897160770862 -5.57626311872542 -9.213800798418061 0 1 1
3341 1064 4 -3.8459871421612855 -6.3355437410527475 -8.228433133973432 1 0 1
2107 653 2 -3.3682133118762905 -5.126233685228536 -9.282759449742807 0 1 1
2360 737 4 -2.3757950929363356 -6.690983984623421 -9.829633257996868 0 1 1
1104 318 4 -2.49513072013504 -5.588718063940759 -9.530262196713966 0 0 1
1102 318 2 -2.0914233885963904 -5.820197550500317 -9.34740258454119 0 0 1
1197 349 4 -2.411669420373987 -5.228120063363472 -9.583930618594033 0 0 1
1103 318 4 -1.687716057057741 -6.051677037059874 -9.164542972368412 0 0 1
1420 424 2 -1.7421701147082382 -6.575211034685829 -8.492608277737917 0 0 1
1421 424 4 -1.5531133801592463 -6.289358818980111 -8.856677037586623 0 0 1
926 259 4 -9.78829233234917 -3.771650564792368 -9.453842933419152 0 0 1
927 259 4 -9.662744836166967 -4.75057017564768 -9.292739793516434 0 0 1
925 259 2 -9.725518584258069 -4.261110370220024 -9.373291363467793 0 0 1
3379 1077 2 -8.050408126419166 -4.829955202232492 -9.055661465459597 1 0 1
4304 1385 4 -7.76821717342552 -4.09177796102583 -8.893592388343096 0 0 1
3381 1077 4 -7.69415640138758 -4.495945753399757 -8.94831903907214 1 0 1
4303 1385 2 -7.621991099833029 -3.642376362382528 -9.056859465668543 0 0 1
709 187 2 -3.594203153176186 -4.03708267140551 -9.06804980794499 0 0 0
711 187 4 -3.4658816555693797 -4.422051340462303 -9.36016745050829 0 0 0
710 187 4 -3.7225246507829928 -3.6521140023487164 -8.775932165381688 0 0 0
2108 653 4 -3.161529462981719 -4.676204251731653 -9.351718101067553 0 1 1
2841 897 4 -7.766967491115095 -2.528336144173706 -8.906591321901963 1 0 0
420 90 4 -6.843900937585349 -2.548037821210976 -9.742421587433983 0 0 0
418 90 2 -7.212725796817307 -2.6756928623945244 -9.429895726627192 0 0 0
4305 1385 4 -7.475765026240539 -3.192974763739226 -9.22012654299399 0 0 1
419 90 4 -7.581550656049265 -2.803347903578073 -9.117369865820402 0 0 0
2839 897 2 -7.920119050343177 -2.5245110849346886 -8.430639676429907 1 0 0
2333 728 4 -6.763651932861945 -2.17836509990981 -9.867144308800928 0 0 1
2332 728 2 -6.26387963085451 -2.1933843592290065 -9.865706256069933 0 0 1
1423 425 2 -5.235263366903267 -2.4711815241885833 -9.515182728929435 0 0 1
1425 425 4 -5.478031970597983 -2.468488560207103 -9.952282434951892 0 0 1
2334 728 4 -5.764107328847075 -2.208403618548203 -9.864268203338938 0 0 1
4197 1349 4 -5.192553994961903 -2.2868733015185687 -8.784064976120067 0 0 1
4195 1349 2 -5.0884314485521855 -2.410606968534111 -8.310938698075683 0 0 1
1424 425 4 -4.99249476320855 -2.4738744881700634 -9.078083022906979 0 0 1
1671 507 4 -4.310273308366126 -2.4852664052394102 -8.944201832007145 0 0 0
1669 507 2 -4.181889561058055 -2.0238860249607096 -9.087888150497276 0 0 0
468 106 4 -4.0771982475569 -2.5768988585942507 -8.639841610569583 0 0 0
466 106 2 -3.870776930988917 -3.0181926625453777 -8.527369308821141 0 0 0
2642 831 4 -1.904167426361187 -1.622944729837213 -8.909816996068093 0 0 0
2967 939 4 -2.966189490702215 -1.6544890580397478 -9.672889277613642 0 0 0
2200 684 2 -7.276133068219236 -0.03865960909879545 -8.641683570653383 0 0 1
900 250 4 -4.739428188800912 -0.22157589342225292 -8.644165120703384 0 0 0
1747 533 2 -4.254441153661304 -0.8211099087494771 -8.896542553465464 0 1 0
1749 533 4 -4.057580849185701 -1.1540764610619663 -9.213369470823542 0 1 0
1670 507 4 -4.053505813749984 -1.562505644682009 -9.231574468987407 0 0 0
1748 533 4 -4.451301458136907 -0.4881433564369873 -8.579715636107387 0 1 0
2966 939 4 -2.176954710227232 -1.4268373487483574 -9.102553270908182 0 0 0
2965 939 2 -2.5715721004647234 -1.5406632033940526 -9.387721274260912 0 0 0
2641 831 2 -1.7386650799047092 -1.4132220284318062 -8.487176058826 0 0 0
1805 552 4 -7.1010980155163 -8.59152288174907 -7.856390050526504 0 1 0
3404 1085 4 -8.327755137131883 -9.20041390973663 -7.644177336777761 0 0 1
3403 1085 2 -7.902188397668172 -8.960330917731962 -7.750258000483057 0 0 1
3405 1085 4 -7.476621658204461 -8.720247925727294 -7.856338664188352 0 0 1
1055 302 4 -6.474347824052257 -9.346144361424487 -6.9012536781362295 0 0 1
1054 302 2 -6.0926079974896306 -9.023336424329495 -6.892902596519321 0 0 1
1056 302 4 -5.710868170927004 -8.700528487234502 -6.884551514902413 0 0 1
800 217 4 -6.419798318491119 -9.70140226805317 -7.1317715499994545 0 0 0
799 217 2 -6.2493156153157745 -9.888917079588486 -7.562786449245988 0 0 0
2620 824 2 -0.1595710702325608 -8.366615050995525 -7.583786911952608 0 0 0
781 211 2 -9.61937339048058 -6.8067288668961465 -7.330615935332207 0 0 0
830 227 4 -9.89653291207375 -7.266092446258544 -7.693345937223145 0 0 0
829 227 2 -9.96847505976366 -7.5462617284063525 -8.101181076374464 0 0 0
782 211 4 -9.851521359355127 -7.248034111124796 -7.293778427769555 0 0 0
1806 552 4 -6.5730270778271045 -7.947396488796348 -8.40978166111435 0 1 0
1804 552 2 -6.837062546671702 -8.26945968527271 -8.133085855820427 0 1 0
15 3 3 -6.863485940512649 -6.883337027366717 -7.698287597960403 0 0 0
684 178 4 -5.579275834861007 -8.013684070935591 -7.2050265670191385 0 0 0
403 85 2 -5.635646199686235 -6.935747095002536 -8.359595425840984 0 0 0
405 85 4 -5.941470800121944 -7.013103514797745 -7.971668502201279 0 0 0
682 178 2 -5.76818747366984 -7.601738865907801 -7.416245744125016 0 0 0
683 178 4 -5.957099112478673 -7.18979366088001 -7.627464921230894 0 0 0
13 3 3 -6.2227083846782945 -7.056783053019691 -7.343012211641268 0 0 0
12 3 3 -6.207593882694436 -6.724872255268108 -8.017183387356871 0 0 0
11 3 1 -6.435472047898737 -6.749852190507735 -7.618375733645747 0 0 0
668 173 4 -3.96134942728207 -6.712261539116655 -8.220988076218289 0 0 0
667 173 2 -3.6157600147777624 -6.831215906694446 -7.8797875246375675 0 0 0
1422 424 4 -1.9312268492572298 -6.861063250391546 -8.12853951788921 0 0 1
2640 830 4 -3.2624346655096397 -6.642143724770898 -7.26728929970434 0 0 0
669 173 4 -3.270170602273455 -6.950170274272237 -7.538586973056847 0 0 0
490 114 2 -1.103567328430627 -8.250895157813625 -8.137619129178367 0 0 0
21 5 1 -1.0427243319726691 -7.941974354763933 -7.0630775711447615 0 0 0
23 5 3 -1.251627011095883 -8.152685393914346 -7.419813507987441 0 0 0
491 114 4 -0.9360142776657194 -8.147363565948858 -7.678046300711159 0 0 0
2622 824 4 -0.607342567852993 -8.176030736798985 -7.468990112776125 0 0 0
24 5 3 -0.58224970380367 -7.983789367343443 -7.101995710043308 0 0 0
22 5 3 -1.1525252591642339 -7.495312901392805 -7.0691851451310095 0 0 0
885 245 4 -1.3987968724050324 -7.187583675890313 -7.051348868165269 0 0 0
883 245 2 -1.6577005960202 -6.762725993760007 -7.100995739496091 0 0 0
25 5 3 -1.1827922703071587 -8.125518477171005 -6.670531360132247 0 0 0
647 166 4 -9.005468607709895 -6.185465012561504 -7.4339670475145345 0 0 0
783 211 4 -9.387225421606034 -6.365423622667497 -7.367453442894859 0 0 0
646 166 2 -8.507466554464772 -6.1838760701457325 -7.389341603814432 0 0 0
389 80 4 -6.98642333674221 -6.590277204363912 -7.474239581251639 0 0 0
390 80 4 -7.792581659771166 -6.016684528838217 -7.6194986628782075 0 0 0
388 80 2 -7.389502498256689 -6.303480866601064 -7.546869122064923 0 0 0
648 166 4 -8.009464501219648 -6.182287127729961 -7.34471616011433 0 0 0
3834 1228 4 -6.645608260879156 -5.108816671426214 -6.9836130541195525 1 0 0
866 239 4 -6.308993609187363 -5.287076898620747 -6.864692007862241 0 0 0
865 239 2 -6.473526154123026 -5.746289586054588 -6.974477022125379 0 0 0
867 239 4 -6.638058699058689 -6.205502273488429 -7.084262036388517 0 0 0
14 3 3 -6.434920394384008 -6.33095851905477 -7.418806728800097 0 0 0
2685 845 4 -6.669256028112836 -6.503825855269826 -6.7934278948601365 0 0 0
473 108 4 -4.1387473739036205 -5.056711336186806 -7.9439339866983865 0 0 0
1817 556 4 -4.349423662044433 -5.1165817466378245 -8.249034220416515 0 0 0
1482 444 4 -1.956175483998403 -5.158102348128797 -7.690052530522024 0 0 0
2638 830 2 -2.7773476193242255 -6.561834572905377 -7.176509358365465 0 0 0
884 245 4 -1.916604319635368 -6.337868311629702 -7.150642610826913 0 0 0
2639 830 4 -2.2922605731388113 -6.481525421039855 -7.085729417026589 0 0 0
1480 444 2 -1.504486416084081 -5.347374096101732 -7.589289484986733 0 0 0
1481 444 4 -1.0527973481697586 -5.536645844074667 -7.488526439451443 0 0 0
488 113 4 -0.7475787697625471 -5.799835325677704 -7.491363788245952 0 0 0
487 113 2 -0.26832101571768874 -5.913443349057271 -7.40531018744144 0 0 0
3833 1228 4 -6.820214017032933 -4.144531625051626 -6.784446843992536 1 0 0
995 282 4 -7.1324499435804 -3.9523335170674514 -6.635131848763288 0 0 1
3832 1228 2 -6.7329111389560445 -4.62667414823892 -6.884029949056044 1 0 0
1818 556 4 -5.334444907719046 -4.952634793029643 -8.302462134206937 0 0 0
467 106 4 -3.664355614420933 -3.4594864664965046 -8.4148970070727 0 0 0
1816 556 2 -4.84193428488174 -5.0346082698337336 -8.275748177311726 0 0 0
472 108 2 -3.8199278969253663 -4.721122095389755 -7.754899591519063 0 0 0
80 16 3 -3.385835776667438 -3.980378041418442 -7.4524679850067725 0 0 1
474 108 4 -3.5011084199471125 -4.385532854592704 -7.56586519633974 0 0 0
76 16 1 -3.629290880241972 -3.6273149084560288 -7.605686902527575 0 0 1
78 16 3 -4.0651624178724015 -3.6557179279193073 -7.449132531240725 0 0 1
79 16 3 -3.627577924929774 -3.6232760633031735 -8.06967047283357 0 0 1
1113 321 4 -4.407563365004539 -3.6363340967181736 -7.672311481077361 0 0 1
77 16 3 -3.4415921386057646 -3.2361394633781098 -7.452876714528723 0 0 1
2706 852 4 -2.2731311648859704 -4.925764293267038 -7.782179082868746 0 0 0
2705 852 4 -3.1667045457694134 -4.476933903987973 -7.773353289053391 0 0 0
2704 852 2 -2.719917855327692 -4.701349098627506 -7.7777661859610685 0 0 0
757 203 2 -0.5769224134786068 -3.602192310063372 -6.8187478060749935 0 0 0
759 203 4 -0.3342742060215922 -4.038061375389514 -6.852511770739302 0 0 0
1094 315 4 -0.23331566622405325 -4.143253507573573 -7.238758591392696 0 0 1
2972 941 4 -8.582751654343992 -2.7232040628486844 -6.833527825623081 1 0 0
2752 868 2 -9.429577454617592 -2.674797975209325 -6.982314998787879 1 0 0
2753 868 4 -8.963445451128802 -2.822154519600603 -6.87740072831752 1 0 0
2754 868 4 -9.895709458106381 -2.5274414308180475 -7.087229269258238 1 0 0
2971 941 2 -8.375764241871293 -2.778670199198316 -7.285279658819779 1 0 0
2973 941 4 -8.168776829398594 -2.8341363355479485 -7.737031492016477 1 0 0
2840 897 4 -8.073270609571258 -2.5206860256956714 -7.954688030957851 1 0 0
72 15 3 -5.627295162112652 -2.404819395030644 -7.059715367851519 0 0 1
2862 904 4 -5.952372212651656 -2.1724865537825044 -6.975590126277116 1 0 0
71 15 1 -5.189914786540294 -2.3511683728452204 -7.1917001203139925 0 0 1
74 15 3 -5.182252330696452 -2.2277303632738903 -7.638918573157173 0 0 1
762 204 4 -6.074051858580134 -1.9860858048774936 -7.319565087616903 0 0 0
2860 904 2 -6.26441796824515 -2.481257050043068 -6.736240534560484 1 0 0
4196 1349 4 -4.984308902142468 -2.5343406355496536 -7.837812420031299 0 0 1
75 15 3 -4.995259864227985 -2.0271346389888416 -6.937708780810808 0 0 1
73 15 3 -4.965570078781515 -2.7532842307804204 -7.134496196518473 0 0 1
1112 321 4 -4.885003690099585 -2.7717857552788034 -7.5154456107063465 0 0 1
1111 321 2 -4.646283527552062 -3.2040599259984885 -7.593878545891854 0 0 1
4376 1409 4 -4.710223884696173 -1.7570783851934186 -6.974303173808016 0 0 1
4375 1409 2 -4.278672728327337 -1.8389341955739933 -6.73542407103178 0 0 1
399 83 4 -3.7377710109992797 -2.296396640156692 -6.708670901147277 0 0 0
397 83 2 -3.4922480548150587 -2.605061127721499 -7.015989485197709 0 0 0
398 83 4 -3.246725098630838 -2.9137256152863054 -7.3233080692481405 0 0 0
758 203 4 -0.8195706209356215 -3.16632324473723 -6.784983841410685 0 0 0
188 38 3 -0.7810277315277373 -2.948579530327983 -7.121119197249655 0 0 0
189 38 3 -1.3171670608302812 -2.4163262653427644 -7.203950842698203 0 0 0
186 38 1 -1.002267310806419 -2.59673160761983 -6.914827927811041 0 0 0
190 38 3 -0.7032346219546034 -2.2762743719216862 -6.7911888923618715 0 0 0
2406 752 4 -0.34658375158674454 -2.0769193618934025 -6.848365371382948 0 0 1
2404 752 2 -0.29319344203360903 -1.7334309652174131 -7.207760969846236 0 0 1
2201 684 4 -7.3034185735252315 -0.3232884863315894 -8.23151055417705 0 0 1
1389 413 4 -7.672322994894007 -0.27413477326206787 -8.096017417002383 0 0 1
1387 413 2 -7.596232540247637 -0.28649087670783885 -7.60199558608857 0 0 1
461 104 4 -7.789771668796453 -0.238123247913439 -6.824309748944228 0 -1 0
1388 413 4 -7.520142085601267 -0.2988469801536095 -7.107973755174759 0 0 1
761 204 4 -6.430579351022766 -1.0539852550210818 -7.255715952229375 0 0 0
760 204 2 -6.25231560480145 -1.5200355299492876 -7.287640519923139 0 0 0
2114 655 4 -5.095886907458943 -0.5397137463166721 -7.260288081020976 0 0 1
2113 655 2 -4.863558286955631 -0.13600891842307766 -7.078502977037381 0 0 1
1754 535 4 -2.0161379596197535 -1.0141707780788711 -6.6967791202446385 0 0 0
2643 831 4 -1.5731627334482312 -1.2034993270263992 -8.064535121583907 0 0 0
1706 519 4 -1.1671738269922347 -1.1921699348676384 -8.062977287802811 0 0 0
1707 519 4 -0.8399890140761149 -0.2989668407575914 -7.754532266980584 0 0 0
1705 519 2 -1.0035814205341749 -0.7455683878126149 -7.908754777391698 0 0 0
97 20 3 -0.44958151302982674 -0.15528967808117944 -7.83243618444686 0 0 0
1692 514 4 -0.9275115369148449 -0.039689805183344584 -7.451697129292986 0 0 0
2405 752 4 -0.23980313248047316 -1.3899425685414246 -7.567156568309524 0 0 1
731 194 4 -5.651119396459258 -8.765911147504248 -6.493571542225694 0 0 0
730 194 2 -5.331432269089709 -8.399667858706167 -6.376669899789243 0 0 0
1538 463 4 -1.015090585814325 -8.833160278074379 -5.590605718317428 0 1 0
1812 554 4 -1.0590237096443116 -9.946032154088659 -5.305860222579291 0 1 0
1537 463 2 -1.019232843233501 -9.247480843511958 -5.310746270095958 0 1 0
2162 671 4 -1.025150851983681 -8.613730974147687 -5.931683969309404 0 1 1
2161 671 2 -0.6227492517132897 -8.567604765760784 -6.224848300358905 0 1 1
2163 671 4 -0.22034765144289847 -8.52147855737388 -6.518012631408405 0 1 1
732 194 4 -5.01174514172016 -8.033424569908085 -6.259768257352792 0 0 0
2964 938 4 -5.258186307860127 -7.764793340439779 -6.409113875214228 1 0 0
2962 938 2 -5.4667903799987005 -7.337819492352194 -6.253622157954573 1 0 0
2963 938 4 -5.675394452137274 -6.910845644264609 -6.098130440694918 1 0 0
2684 845 4 -6.092470703666783 -6.978606725473538 -6.128670935670084 0 0 0
2683 845 2 -6.38086336588981 -6.741216290371682 -6.46104941526511 0 0 0
2036 629 4 -5.429926023179747 -7.5569526246542456 -5.227940736166866 0 1 1
842 231 4 -5.562443847129464 -7.4122189037630575 -4.8329481733535 0 0 0
2035 629 2 -4.942180319473973 -7.486265745930884 -5.1436347832754965 0 1 1
1181 344 4 -4.312673653885758 -7.277797881268663 -5.407721406410146 0 0 1
1180 344 2 -4.0195224665635205 -6.8914074500835 -5.286210846950153 0 0 1
2037 629 4 -4.454434615768199 -7.415578867207522 -5.059328830384127 0 1 1
664 172 2 -2.6289967460568144 -7.876119023411478 -5.206641309096645 0 0 0
665 172 4 -2.557171581917188 -7.771801685898966 -5.690334433805261 0 0 0
1764 538 4 -2.2648128490774555 -7.79932181358672 -5.959605465759965 0 1 0
1762 538 2 -1.9097884735458985 -7.999389821492906 -6.249313051078025 0 1 0
1763 538 4 -1.5547640980143416 -8.19945782939909 -6.539020636396086 0 1 0
1182 344 4 -3.726371279241283 -6.505017018898338 -5.16470028749016 0 0 1
839 230 4 -0.2705844504836649 -5.2777015450124205 -5.094642570395701 0 0 0
425 92 4 -7.939839278791272 -3.8054659901588828 -5.367286404314663 0 0 0
426 92 4 -7.525269114199782 -4.7150398847037405 -5.395692547901418 0 0 0
424 92 2 -7.732554196495527 -4.260252937431312 -5.38148947610804 0 0 0
707 186 4 -8.160159979048341 -3.521901562029419 -5.550103391783128 0 0 0
994 282 2 -6.8669874607144195 -3.534350034841164 -6.704554314697211 0 0 1
743 198 4 -7.321233699750201 -5.00964624708302 -5.192786635796421 0 0 0
3166 1006 2 -0.32460379833577946 -3.4240334355587962 -5.177438084635269 0 0 0
706 186 2 -8.445256917522855 -3.2180033622323423 -5.826446692466738 0 0 0
708 186 4 -8.730353855997368 -2.9141051624352654 -6.102789993150348 0 0 0
996 282 4 -6.601524977848439 -3.1163665526148767 -6.773976780631133 0 0 1
2861 904 4 -6.576463723838644 -2.790027546303632 -6.496890942843852 1 0 0
4377 1409 4 -3.8471215719585015 -1.920790005954568 -6.496544968255543 0 0 1
3168 1006 4 -0.7565928254641838 -3.255163575543019 -5.364169043019767 0 0 0
187 38 3 -1.2176428720895514 -2.755445464522575 -6.540631082248342 0 0 0
2832 894 4 -1.1907118457683457 -3.2199405862605506 -5.47010634015188 0 0 0
2831 894 4 -0.9582743097689292 -3.0277941854657815 -6.423548814829508 0 0 0
2830 894 2 -1.0744930777686375 -3.123867385863166 -5.946827577490694 0 0 0
2540 797 4 -5.609694123909451 -0.07283933435638937 -5.036424000010635 0 0 0
906 252 4 -2.2142604490593727 -0.3964808545271017 -5.703979203180763 0 0 0
1753 535 2 -1.9353345835819529 -0.7752678308333653 -6.26504286253842 0 0 0
1755 535 4 -1.8545312075441525 -0.5363648835878593 -5.833306604832201 0 0 0
794 215 4 -1.469152919031935 -0.5407080525708033 -5.722614268222013 0 0 0
793 215 2 -1.1191754567942214 -0.1869277474516675 -5.7711454091065235 0 0 0
34 7 3 -3.3076665513091354 -8.932053647388823 -4.876154042016608 0 0 0
1696 516 2 -3.7968932424549986 -8.848207836581697 -3.5181861609744156 0 1 0
1698 516 4 -3.540881416756833 -8.692724758037023 -3.918539701472092 0 1 0
32 7 3 -3.2633112761559793 -8.621585753266624 -4.193115026816073 0 0 0
31 7 1 -3.0207447010067496 -8.741955078232177 -4.564965376053469 0 0 0
33 7 3 -2.696748020848309 -9.049544230273113 -4.439605634536048 0 0 0
1261 371 2 -2.640798179096568 -9.807232814776624 -4.893832096528458 0 0 1
1262 371 4 -2.660740502928266 -9.345805805080142 -4.7022924963333725 0 0 1
3911 1254 4 -1.029950548246874 -9.596931330017895 -3.6903787905685363 0 1 0
1539 463 4 -1.0233751006526768 -9.661801408949538 -5.030886821874488 0 1 0
4209 1353 4 -0.6321000411617664 -9.672629115578271 -3.5975741176835174 0 1 0
3912 1254 4 -1.1518273946122553 -9.797996579152244 -4.66234525084915 0 1 0
3910 1254 2 -1.0908889714295646 -9.69746395458507 -4.176362020708843 0 1 0
1161 337 4 -0.5019263797499018 -8.398335397849321 -3.743344483951212 0 0 1
1159 337 2 -0.9685811391784587 -8.527821009917101 -3.8677101213673253 0 0 1
690 180 4 -0.171275220979332 -8.325623804980955 -3.9297358437331273 0 0 0
4207 1353 2 -0.14649661922803578 -9.599804717448428 -3.503308940426861 0 1 0
1160 337 4 -1.4352358986070153 -8.657306621984882 -3.9920757587834386 0 0 1
1139 330 4 -6.9309950122317305 -7.563797899833527 -3.7091242322353977 0 0 1
1140 330 4 -6.821892422767374 -7.837080130841356 -4.6648508914781015 0 0 1
1138 330 2 -6.876443717499552 -7.700439015337442 -4.186987561856749 0 0 1
903 251 4 -5.725267042502621 -6.9993861372276 -4.654905721690894 0 0 0
843 231 4 -6.497684720290924 -7.763621493110925 -4.8758518954263455 0 0 0
841 231 2 -6.030064283710194 -7.587920198436991 -4.854400034389923 0 0 0
35 7 3 -2.8232788867351464 -8.371546911806291 -4.741614866398966 0 0 0
666 172 4 -2.700821910196441 -7.98043636092399 -4.722948184388029 0 0 0
1897 583 2 -1.9857442368482796 -8.07723174536904 -4.33621285807397 0 1 0
1899 583 4 -2.3965783925529327 -7.821988526814517 -4.4629653566231875 0 1 0
1898 583 4 -1.5749100811436265 -8.332474963923564 -4.209460359524752 0 1 0
3702 1184 4 -9.844411796422548 -5.372671022757392 -3.9930770106048574 1 0 0
742 198 2 -6.990906217388144 -5.084270767543925 -4.824934851320108 0 0 0
901 251 2 -5.5412366075626664 -6.569342512862433 -4.83152757809213 0 0 0
744 198 4 -6.660578735026086 -5.158895288004831 -4.457083066843794 0 0 0
534 128 4 -6.310655273347857 -5.333721121043961 -4.546903616860248 0 0 0
902 251 4 -5.357206172622712 -6.139298888497266 -5.008149434493366 0 0 0
533 128 4 -5.489159171681337 -5.754885543149745 -4.931305339670906 0 0 0
532 128 2 -5.899907222514597 -5.544303332096853 -4.739104478265577 0 0 0
500 117 4 -3.8360221189172137 -6.385900145435876 -4.800694180826772 0 0 0
499 117 2 -3.7934353566640864 -6.063261594871518 -4.421101328720175 0 0 0
501 117 4 -3.750848594410959 -5.74062304430716 -4.041508476613578 0 0 0
663 171 4 -4.094157395983831 -5.8679947402031845 -3.8817731330297636 0 0 0
661 171 2 -4.139995923658579 -5.581191792382019 -3.4747806287969927 0 0 0
2601 817 4 -1.5150428169361811 -5.433439706328851 -4.020836875442176 1 0 0
2599 817 2 -1.6697606602161426 -5.628564500495001 -3.5872602343829447 1 0 0
686 179 4 -1.2803871021892566 -5.184093607024215 -4.226406752970242 0 0 0
685 179 2 -0.9640227336349649 -5.19534261009792 -4.613430067822595 0 0 0
687 179 4 -0.6476583650806734 -5.206591613171625 -5.000453382674948 0 0 0
380 77 4 -0.44119467374467247 -5.059704440769396 -3.8417786542769803 0 0 0
645 165 4 -3.0250710408311567 -1.6233276743664034 -0.37912576152619837 0 0 0
379 77 2 -0.6421146497595334 -4.827205281885009 -3.4473483000236564 0 0 0
3 1 3 -1.262050163851267 -3.577199251583613 -3.3449323280434995 0 0 0
3970 1274 2 -1.7882907690304202 -3.237456451623913 -3.632008344108802 0 0 0
3972 1274 4 -1.9025094123465904 -2.851523279185816 -3.9286726121474485 0 0 0
1514 455 4 -1.837806558775454 -2.4713506698575958 -3.834612014862812 0 0 0
1513 455 2 -2.2787402202352713 -2.267010644947537 -3.952181825661813 0 0 0
1515 455 4 -2.7196738816950887 -2.0626706200374785 -4.069751636460814 0 0 0
1029 293 4 -1.0306093249601311 -2.126918779731325 -4.148847665030856 0 0 0
1027 293 2 -1.0836986420949732 -1.6807474778325693 -3.9295016056445675 0 0 0
1990 614 2 -6.930161012691673 -0.10422063613419194 -4.230302600774763 0 0 0
1991 614 4 -6.530156570582139 -0.24051803369952704 -4.497546806903861 0 0 0
2541 797 4 -6.297339972014166 -0.5584260103075874 -4.496656672616105 0 0 0
3079 977 2 -6.040065858856121 -0.9502924135202282 -3.8300510891143698 0 0 0
3080 977 4 -5.993965922261127 -0.7111737621226055 -4.2667398414304785 0 0 0
2539 797 2 -5.9535170479618085 -0.3156326723319884 -4.76654033631337 0 0 0
3081 977 4 -6.086165795451114 -1.189411064917851 -3.393362336798261 0 0 0
770 207 4 -1.8417750989331523 -0.18705273840362857 -3.642393312761112 0 0 0
1673 508 4 -1.784204674021591 -0.12923152377137692 -4.068200299346867 0 0 0
769 207 2 -1.4663089995479672 -0.5158255826568234 -3.6729485920731118 0 0 0
1028 293 4 -1.1367879592298153 -1.2345761759338134 -3.710155546258279 0 0 0
771 207 4 -1.0908429001627822 -0.8445984269100182 -3.7035038713851116 0 0 0
2234 695 4 -8.829764033844963 -8.435738585238795 -2.0668991349783594 0 0 0
521 124 4 -9.141959954280532 -8.608816905433399 -2.2505191984006077 0 0 0
2233 695 2 -8.459866493179918 -8.472029693228095 -1.7324462012331105 0 0 0
520 124 2 -9.626657696299786 -8.57207646629245 -2.36764408479608 0 0 0
1697 516 4 -4.052905068153164 -9.00369091512637 -3.1178326204767393 0 1 0
576 142 4 -4.000767703256515 -9.402314716775987 -2.9747037640715432 0 0 0
574 142 2 -3.976899684029626 -9.299347860255857 -2.486003299454637 0 0 0
575 142 4 -3.953031664802737 -9.196381003735727 -1.9973028348377297 0 0 0
4244 1365 4 -3.88513574467899 -8.85245104011625 -1.8119214988816297 0 1 0
1137 329 4 -0.16578419650954884 -9.06376468262314 -2.1423463624386168 0 0 0
1339 397 2 -0.848083049714219 -8.857209627460895 -1.9922567800596873 0 0 0
1340 397 4 -1.2195825380286343 -8.553340818553913 -2.1324419331819757 0 0 0
1341 397 4 -0.4765835613998037 -9.161078436367877 -1.8520716269373991 0 0 0
395 82 4 -8.500152901744585 -7.340331185497695 -2.958317485926666 0 0 0
394 82 2 -8.33371246933932 -7.025116177316747 -2.607693640362256 0 0 0
444 98 4 -6.712906575976689 -7.5114154249229985 -3.391463463504411 0 0 0
442 98 2 -6.261780527160259 -7.441106928196721 -3.1876449084916896 0 0 0
443 98 4 -5.81065447834383 -7.370798431470443 -2.983826353478968 0 0 0
3848 1233 4 -1.6114080147125156 -6.943502722897634 -2.384267410323647 0 1 0
2198 683 4 -1.4909871988059435 -7.278954657607926 -2.1963539500528064 0 1 0
2197 683 2 -1.439223804295256 -7.759003581717574 -2.0664555996013596 0 1 0
2199 683 4 -1.3874604097845686 -8.239052505827223 -1.9365572491499128 0 1 0
552 134 4 -8.189952094923123 -5.438180072007282 -2.3308856020563655 0 0 0
2592 814 4 -8.38151992298785 -5.153596189737009 -2.5575197773200986 1 0 0
550 134 2 -8.251466585636617 -5.919265103114539 -2.2093407120905275 0 0 0
872 241 4 -7.085506717931484 -5.701877763055537 -2.637218433115918 0 0 0
396 82 4 -8.167272036934053 -6.709901169135797 -2.2570697947978458 0 0 0
551 134 4 -8.31298107635011 -6.400350134221797 -2.0877958221246895 0 0 0
871 241 2 -6.675937642363114 -5.803147003879009 -2.3688945370481305 0 0 0
873 241 4 -6.266368566794744 -5.904416244702482 -2.100570640980343 0 0 0
3074 975 4 -6.058541605398493 -6.277282512306147 -2.132828894229281 0 0 0
3073 975 2 -5.752595332878282 -6.258880353808843 -1.7377868219209571 0 0 0
662 171 4 -4.185834451333327 -5.294388844560855 -3.067788124564222 0 0 0
3847 1233 2 -1.7260291847417089 -6.5333843975358645 -2.6463073816711753 0 1 0
2485 779 2 -3.0950001834017873 -5.75876986932268 -1.837523458383015 0 1 0
2487 779 4 -2.814351854875871 -5.493797283838977 -2.155369403202092 0 1 0