LAMMPS data file via write_data, version 27 Jun 2024, timestep = 2500000, units = lj

4650 atoms
4 atom types
3150 bonds
1 bond types

-9.99857 9.99857 xlo xhi
-9.99857 9.99857 ylo yhi
-9.99857 9.99857 zlo zhi

Masses

1 1
2 1
3 0.5
4 0.5

Bond Coeffs # zero

1 0

Atoms # bond

928 260 2 -9.57110872637493 -9.102790527606453 -8.706731938584845 0 0 1
930 260 4 -9.455535660761036 -8.800824902719702 -8.32534023981385 0 0 1
929 260 4 -9.686681791988825 -9.404756152493205 -9.08812363735584 0 0 1
3662 1171 4 -9.501065871117538 -8.395480242033035 -8.37828706655279 1 1 0
490 114 2 -4.193705741124615 -9.267959407951187 -9.149777326737862 0 0 0
492 114 4 -4.0480114137167575 -9.712845542189358 -8.974137096368812 0 0 0
1428 426 4 -4.388058515372949 -8.475002516868118 -9.499352916462062 0 0 1
491 114 4 -4.339400068532472 -8.823073273713016 -9.325417557106912 0 0 0
2898 916 4 -2.1529019148448483 -9.94196873486855 -9.287136071938736 0 0 0
3661 1171 2 -9.3754664752205 -7.938416742679709 -8.537402588451618 1 1 0
2630 827 4 -8.954096741535283 -7.19226309932802 -8.632594263032809 1 0 0
2629 827 2 -8.787015232874213 -6.9068230588861494 -9.007571266029299 1 0 0
3663 1171 4 -9.249867079323465 -7.481353243326383 -8.696518110350446 1 1 0
606 152 4 -9.943242326370529 -6.958799480986433 -9.652339188053164 0 0 0
2631 827 4 -8.619933724213144 -6.621383018444278 -9.38254826902579 1 0 0
519 123 4 -4.747495779806653 -6.898934593706715 -8.800309366274337 0 0 0
758 203 4 -4.512957101679552 -6.965030875973977 -8.486785664996006 0 0 0
517 123 2 -4.924052006858878 -6.713689455868547 -9.229858126715422 0 0 0
1426 426 2 -4.6453574296546245 -8.121421870684287 -9.741794652459852 0 0 1
1080 310 4 -2.853979900402694 -8.125792120004991 -9.330017086650837 0 0 1
1331 394 4 -2.852347703583453 -7.76105767672664 -9.466337394048047 0 0 1
1078 310 2 -2.683984245592914 -8.072070869027 -8.862881662454699 0 0 1
1079 310 4 -2.513988590783134 -8.018349618049008 -8.395746238258562 0 0 1
1388 413 4 -2.3517362987935875 -7.659174635787735 -8.377093987680118 0 0 1
3405 1085 4 -0.3581427059701403 -6.709068724089518 -8.486060544314663 0 0 1
604 152 2 -9.679998225260817 -6.540648152501464 -9.728837617562368 0 0 0
605 152 4 -9.416754124151106 -6.122496824016495 -9.805336047071572 0 0 0
1352 401 4 -9.562268987224515 -5.763641473328162 -9.708720020783186 0 0 1
1351 401 2 -9.520469284964 -5.34716896414017 -9.43521785629195 0 0 1
3506 1119 4 -8.236570839315434 -6.744409120332202 -9.292918111504132 1 0 1
3505 1119 2 -7.845544306956648 -6.454042004811726 -9.179846500495294 1 0 1
3507 1119 4 -7.4545177745978615 -6.163674889291251 -9.066774889486457 1 0 1
2541 797 4 -7.110867932351211 -6.001197577516269 -8.888283833647032 0 0 1
2539 797 2 -7.098933315028386 -6.208266639619431 -8.433333321581316 0 0 1
518 123 4 -5.100608233911102 -6.528444318030379 -9.659406887156507 0 0 0
3420 1090 4 -2.1052390723846064 -6.454223875099703 -8.31524281599419 0 0 1
268 54 3 -2.007594318125043 -5.107855894009281 -9.676386396004904 0 1 0
838 230 2 -0.7177529347814411 -6.403591719916561 -9.136374160494443 0 0 0
839 230 4 -0.4678357110077343 -6.420119866761002 -8.70362919908758 0 0 0
269 54 3 -1.2953584880598903 -4.924263154195115 -9.867733798020954 0 1 0
840 230 4 -0.9676701585551477 -6.387063573072119 -9.569119121901306 0 0 0
420 90 4 -1.2559206958471167 -5.133206983390527 -8.928101867059643 0 0 0
418 90 2 -1.263632940232114 -5.331662210386496 -8.469238004716495 0 0 0
1353 401 4 -9.478669582703484 -4.9306964549521775 -9.161715691800715 0 0 1
497 116 4 -9.569917807249968 -3.6631196633482137 -8.5410830859176 0 0 0
3285 1045 4 -9.779768838080516 -3.975915401126686 -8.450738007565551 1 0 1
971 274 4 -8.591961667510736 -4.258941124313715 -9.086800825122797 0 0 1
2017 623 2 -7.020234288204984 -4.004938057891632 -8.8678020219087 0 0 1
2018 623 4 -7.440794833564723 -3.879872032132627 -9.107567150497454 0 0 1
972 274 4 -7.654690553000457 -4.073726651695796 -8.791473113861835 0 0 1
970 274 2 -8.123326110255597 -4.166333888004755 -8.939136969492317 0 0 1
2019 623 4 -6.599673742845244 -4.130004083650637 -8.628036893319946 0 0 1
2459 770 4 -5.047487950058332 -3.7357572202018234 -8.925818249720828 0 0 1
4412 1421 4 -5.3873694997710615 -3.8876123823216395 -9.091854697868143 1 0 1
4411 1421 2 -5.49205844459089 -4.324786538073798 -9.310758746197692 1 0 1
4413 1421 4 -5.596747389410719 -4.761960693825957 -9.52966279452724 1 0 1
612 154 4 -5.954906237445816 -4.920615908446996 -9.610094372078446 0 0 0
488 113 4 -2.928654336175284 -4.010247836540453 -8.903325411671192 0 0 0
2690 847 4 -3.1185662453273837 -4.352614652621356 -8.828486730915449 0 0 0
2689 847 2 -2.9782649507405417 -4.733861240970563 -8.536996447013008 0 0 0
487 113 2 -2.9785395545834326 -3.5825456361865053 -8.649194947545165 0 0 0
1102 318 2 -1.7017584488696407 -3.591089731114653 -9.579982182490216 0 0 1
267 54 3 -1.7739193766311412 -4.394896756217264 -9.631829807759603 0 1 0
1104 318 4 -1.7414396927622733 -4.022104899369341 -9.830284646755711 0 0 1
270 54 3 -1.513707942682159 -4.8996680709439415 -9.147582010169671 0 1 0
266 54 1 -1.646422233424113 -4.833607607511034 -9.578189641550793 0 1 0
1688 513 4 -0.25874395243544457 -3.7721608616483238 -9.95685170723606 0 1 0
496 116 2 -9.66171403666727 -3.245892067497319 -8.800880286682368 0 0 0
498 116 4 -9.753510266084572 -2.828664471646424 -9.060677487447135 0 0 0
3087 979 4 -9.902294837950317 -2.626808308051988 -9.376465146963342 1 0 1
935 262 4 -6.701195917773536 -1.712055675712083 -9.634726480687968 0 0 1
2458 770 2 -5.0748709603024516 -3.242070362027837 -8.851498287284896 0 0 1
87 18 3 -5.326810321576325 -2.5239403130026026 -9.047822552399285 0 0 1
90 18 3 -5.415105447433244 -1.7830639306940017 -9.030325212971738 0 0 1
2460 770 4 -5.102253970546571 -2.7483835038538507 -8.777178324848963 0 0 1
86 18 1 -5.1466025075125845 -2.1272041762367717 -8.900426549962239 0 0 1
624 158 4 -5.131033881661934 -2.535843225162947 -8.41581570259366 0 0 0
88 18 3 -5.1168562430353095 -2.138775823088136 -8.437521314802037 0 0 1
89 18 3 -4.723944733656337 -2.0766559825124022 -9.085102716020593 0 0 1
3568 1140 2 -4.418903633821545 -2.36584692222231 -9.79635593663462 0 0 0
3570 1140 4 -4.718407423205198 -2.1447194374713283 -9.462589378045148 0 0 0
3381 1077 4 -2.2102949460103316 -1.9797543312769816 -9.574552866580241 0 0 1
3379 1077 2 -2.097814503373962 -2.4619759536737322 -9.50519540903364 0 0 1
55 11 3 -2.5619020451426104 -1.9481765041086956 -9.747800327066079 0 0 1
3380 1077 4 -1.9853340607375929 -2.944197576070483 -9.435837951487038 0 0 1
1103 318 4 -1.662077204977008 -3.1600745628599647 -9.329679718224721 0 0 1
489 113 4 -3.0284247729915816 -3.1548434358325586 -8.395064483419139 0 0 0
896 249 4 -0.35276877795094663 -2.281732821344878 -9.859275846794162 0 0 0
3866 1239 4 -0.03404702436169105 -2.064866569830216 -9.947101215742798 0 0 0
2977 943 2 -8.625920262150336 -1.0660107774747227 -9.103879526966132 1 0 0
2979 943 4 -8.498130203323582 -1.424089711387838 -9.42860891884907 1 0 0
2978 943 4 -8.75371032097709 -0.7079318435616075 -8.779150135083194 1 0 0
4253 1368 4 -9.043890858417482 -0.9314798765359313 -8.602640698191545 1 0 1
3105 985 4 -8.519239684988886 -1.2195938235864159 -9.776669264350215 1 0 1
3103 985 2 -8.353463655240173 -1.64136385465902 -9.98792349235451 1 0 1
684 178 4 -4.818985207823296 -9.95308305469189 -0.1659349428431996 0 0 0
2180 677 4 -7.050073623946987 -1.5222268128603313 -9.729032227679273 0 1 1
1675 509 2 -7.685536352896812 -0.2843044383179682 -8.671043402168218 0 0 0
934 262 2 -6.37850810095953 -1.5575898878256094 -9.285423040606913 0 0 1
392 81 4 -5.693186389417087 -1.5523326247040612 -8.860369725740997 0 0 0
936 262 4 -6.055820284145524 -1.4031240999391357 -8.936119600525858 0 0 1
391 81 2 -5.669883189031787 -1.1908405023036468 -8.515724391674455 0 0 0
2094 648 4 -3.7651729473635025 -0.8885475587989784 -8.578656818007655 0 0 1
2092 648 2 -3.4970208928654003 -1.1110332654893913 -8.937257690827513 0 0 1
707 186 4 -3.727802774162211 -0.7495411944036063 -8.224780074512047 0 0 0
2093 648 4 -3.228868838367298 -1.3335189721798042 -9.295858563647371 0 0 1
474 108 4 -1.9433607258295493 -1.6649902511873187 -9.54627124211764 0 0 0
53 11 3 -2.8672400484719653 -1.5313149674819382 -9.200173480568935 0 0 1
51 11 1 -2.613828189188226 -1.5245902830051838 -9.58880853842295 0 0 1
52 11 3 -2.2004098301729833 -1.3467132787408338 -9.493703166423106 0 0 1
635 162 4 -1.8332592698287142 -0.6553342561304255 -9.225901039508244 0 0 0
634 162 2 -1.7016807492037729 -0.46802150697462064 -8.781377669015939 0 0 0
3386 1079 4 -2.8368219112397597 -0.9034344708623473 -9.768046168694491 0 0 1
54 11 3 -2.8211161861370693 -1.2597875635445943 -9.908513411841167 0 0 1
3385 1079 2 -2.947608011811762 -0.4397682246699585 -9.918844219284786 0 0 1
472 108 2 -1.5517291837460674 -1.4838236364583781 -9.293677906985561 0 0 0
473 108 4 -1.1600976416625854 -1.3026570217294375 -9.041084571853482 0 0 0
1341 397 4 -0.7711323703504361 -1.312267645899913 -9.153468100046087 0 0 0
1339 397 2 -0.577334354691671 -1.2924723661880309 -8.692978712516075 0 0 0
1990 614 2 -4.715724201092872 -9.95063454212441 -6.886778002215626 0 1 0
757 203 2 -4.4404691053021415 -6.875299428425294 -8.000273838107818 0 0 0
759 203 4 -4.367981108924731 -6.785567980876611 -7.51376201121963 0 0 0
1387 413 2 -2.344400885097553 -7.179664047974752 -8.235616823864675 0 0 1
1389 413 4 -2.337065471401518 -6.70015346016177 -8.094139660049231 0 0 1
438 96 4 -7.06251669414617 -6.2477075144574385 -6.690670373751051 0 0 0
2540 797 4 -7.086998697705561 -6.415335701722594 -7.978382809515598 0 0 1
437 96 4 -7.305717624848377 -6.415548172122811 -7.646014720538575 0 0 0
436 96 2 -7.184117159497274 -6.331627843290125 -7.168342547144813 0 0 0
535 129 2 -5.387808220486153 -5.0010547149166165 -7.6528169137576585 0 0 0
537 129 4 -5.040374267556034 -5.3231399668946295 -7.812662898410069 0 0 0
1263 371 4 -4.115617149013687 -6.709597889977115 -7.219739256594744 0 0 1
1261 371 2 -4.246367604752007 -6.335008178746524 -6.915458355839119 0 0 1
2691 847 4 -2.837963656153699 -5.1151078293197685 -8.245506163110567 0 0 0
3648 1166 4 -2.447501463761258 -5.211293431789433 -8.122430946030608 0 1 0
3418 1090 2 -2.1472933675671317 -5.958114665953227 -8.26933977843726 0 0 1
3419 1090 4 -2.189347662749657 -5.462005456806751 -8.22343674088033 0 0 1
3403 1085 2 -0.020147978830951548 -6.520206725523984 -8.169689385825633 0 0 1
416 89 4 -0.9948818923381618 -5.289562794822982 -7.8716277394717515 0 0 0
415 89 2 -0.6152949848087462 -5.263730395816294 -7.547210620943914 0 0 0
417 89 4 -0.23570807727933063 -5.237897996809607 -7.222793502416076 0 0 0
419 90 4 -1.2713451846171113 -5.530117437382466 -8.010374142373346 0 0 0
3283 1045 2 -9.848565493412016 -4.13257631467478 -7.980924876223787 1 0 1
3284 1045 4 -9.917362148743516 -4.2892372282228735 -7.511111744882022 1 0 1
1424 425 4 -9.722941242049961 -4.313908315149979 -7.170868356674903 0 0 1
1423 425 2 -9.468611110491874 -3.9927455389511595 -6.884214113088986 0 0 1
2792 881 4 -8.404751854493044 -4.614828069732213 -7.097134337553066 1 0 1
2168 673 4 -6.622712196286624 -3.4161295492745407 -7.822910596484116 0 1 0
1197 349 4 -6.365705237862585 -3.7208758257703747 -7.7867561809142085 0 0 1
1196 349 4 -6.133043916811673 -4.650706626482524 -7.501653757679726 0 0 1
1195 349 2 -6.249374577337129 -4.185791226126449 -7.644204969296967 0 0 1
536 129 4 -5.735242173416271 -4.678969462938603 -7.492970929105248 0 0 0
1314 388 4 -5.788727135207565 -3.5095286697658468 -6.9733959251530075 0 0 0
3646 1166 2 -2.3025565792701093 -4.9958788799414515 -7.695128299992024 0 1 0
3647 1166 4 -2.1576116947789603 -4.78046432809347 -7.267825653953439 0 1 0
2561 804 4 -1.7952362113805451 -4.590910932828146 -7.239719227781608 0 0 0
2560 804 2 -1.4191778701624305 -4.2653551774169385 -7.188792082576788 0 0 0
1384 412 2 -0.5408137838403685 -3.5700559079592415 -7.2468587483383855 0 0 0
2562 804 4 -1.0431195289443158 -3.9397994220057306 -7.137864937371969 0 0 0
1385 412 4 -0.9625731149480332 -3.5634537777190376 -6.9783899819988635 0 0 0
1386 412 4 -0.11905445273270382 -3.5766580381994455 -7.5153275146779075 0 0 0
3358 1070 2 -8.27951809886276 -1.884021644559507 -6.730549011235959 1 0 1
2169 673 4 -6.727635267522595 -2.5082319634882757 -8.228759241727184 0 1 0
904 252 2 -6.175645805546928 -1.9572070340811993 -7.850144979154509 0 0 0
906 252 4 -6.464615820540208 -2.336776499737664 -7.999889265109268 0 0 0
2167 673 2 -6.67517373190461 -2.962180756381408 -8.02583491910565 0 1 0
1312 388 2 -6.101750148046735 -3.1212804537767656 -7.009171841830845 0 0 0
1313 388 4 -6.414773160885905 -2.7330322377876843 -7.044947758508683 0 0 0
623 158 4 -4.731612754003636 -2.6789125562064733 -7.510280540772218 0 0 0
622 158 2 -4.931323317832785 -2.60737789068471 -7.963048121682939 0 0 0
564 138 4 -4.753498271433235 -2.9598165851877405 -7.247780076191029 0 0 0
562 138 2 -4.7417214917616315 -3.017233351853829 -6.7512273374346945 0 0 0
4181 1344 4 -3.4343801571006565 -2.9155408822491955 -7.125733576016728 0 0 1
2513 788 4 -3.4547440906321465 -2.954032294744677 -6.738755689674366 0 0 0
4182 1344 4 -3.25057181994671 -3.160638922712268 -8.077648197058522 0 0 1
4180 1344 2 -3.342475988523683 -3.0380899024807317 -7.601690886537625 0 0 1
1294 382 2 -0.7100929582747711 -2.3105784805281564 -7.408676137464427 0 0 0
1296 382 4 -0.486904122211654 -2.403541823642474 -7.846334177826583 0 0 0
180 36 3 -0.17927994654444654 -2.222638250575497 -8.05264485960382 0 0 0
1295 382 4 -0.9332817943378883 -2.217615137413839 -6.971018097102271 0 0 0
2043 631 4 -1.1791985427221041 -2.171785810204583 -6.656465938970583 0 0 1
4252 1368 2 -9.203227255492871 -1.0478694782356381 -8.143222181822166 1 0 1
4254 1368 4 -9.36256365256826 -1.164259079935345 -7.683803665452786 1 0 1
1875 575 4 -9.442691268000702 -1.296421497710877 -7.313932049066511 0 1 0
1873 575 2 -9.769406710039377 -1.2198602067386528 -6.943263209456009 0 1 0
3359 1070 4 -8.114991352456356 -1.6919069983124027 -7.161852746919357 1 0 1
3098 983 4 -8.35085594804219 -1.4301509510851056 -7.396569180642022 1 0 1
3097 983 2 -8.11406539338444 -1.143766204541558 -7.731104694709065 1 0 1
3099 983 4 -7.87727483872669 -0.857381457998011 -8.065640208776108 1 0 1
1676 509 4 -7.658188950443188 -0.6265280761000163 -8.307539480150417 0 0 0
905 252 4 -5.886675790553649 -1.5776375684247346 -7.700400693199749 0 0 0
393 81 4 -5.646579988646487 -0.8293483799032324 -8.171079057607914 0 0 0
1183 345 2 -6.107557789239875 -0.589330958950559 -7.519182599117266 0 0 1
1185 345 4 -5.979381716944746 -0.8366793158937788 -7.934380967140045 0 0 1
1184 345 4 -6.235733861535004 -0.3419826020073387 -7.103984231094485 0 0 1
1118 323 4 -0.04148174471287347 -2.590204994945941 -6.027048611362267 0 0 0
706 186 2 -3.4689851590783602 -0.5715405697908166 -7.835769509411536 0 0 0
577 143 2 -3.4207104029875026 -0.6857137473798586 -6.708438696250144 0 0 0
708 186 4 -3.2101675439945097 -0.39353994517802676 -7.446758944311024 0 0 0
636 162 4 -1.5701022285788315 -0.28070875781881577 -8.336854298523633 0 0 0
578 143 4 -3.1976055169974744 -0.6635340099364934 -7.155352859254831 0 0 0
1560 470 4 -0.8455704789734835 -0.31141423156744813 -7.127598712015949 0 0 0
1558 470 2 -0.9367960555052849 -0.5909993225542887 -6.723234926440799 0 0 0
4132 1328 2 -1.3722247906687164 -0.08831204615217833 -7.7629698283907835 0 0 0
178 36 3 -0.06770415022602769 -1.4798797096367509 -8.105186191317264 0 0 0
1340 397 4 -0.38353633903290596 -1.2726770864761487 -8.232489324986062 0 0 0
4133 1328 4 -1.1652614080095283 -0.26526641733183076 -7.343621156330725 0 0 0
2370 740 4 -9.853457847012843 -9.221280927547175 -6.3598986150084 0 1 1
1992 614 4 -4.725256816812624 -9.474597304384176 -6.734142234708921 0 1 0
903 251 4 -4.8848981247100225 -9.182682373980986 -6.467684316414471 0 0 0
901 251 2 -4.853657965940115 -8.684467681256843 -6.43929114057916 0 0 0
3481 1111 2 -0.2546427165800809 -9.507420804647134 -5.679724157278724 0 0 1
2727 859 4 -0.6825853505055492 -9.131516792383378 -5.234141054328656 0 0 0
3483 1111 4 -0.5313032562227614 -9.098802097581846 -5.599165495169806 0 0 1
1606 486 2 -7.091495704883801 -6.766359491145665 -5.105684023182344 0 1 0
768 206 4 -4.982780332787021 -7.88294197380543 -6.249434604816446 0 0 0
2960 937 4 -6.44973322394818 -8.26920869515089 -5.313953295492341 1 0 0
767 206 4 -4.737623071299707 -7.430072273940018 -5.392225790066875 0 0 0
766 206 2 -4.860201702043364 -7.656507123872724 -5.82083019744166 0 0 0
902 251 4 -4.822417807170207 -8.186252988532699 -6.410897964743849 0 0 0
2832 894 4 -4.657116031297373 -7.322363150676735 -5.037346697040831 0 0 0
2882 911 4 -2.710936119762405 -7.083097567642668 -5.2333143525430135 0 0 0
626 159 4 -2.974837049466428 -7.355161059004516 -5.075257703609941 0 0 0
2881 911 2 -2.6184972547438266 -6.672506371824946 -5.503258654484513 0 0 0
1608 486 4 -7.178188831837598 -6.324007377240273 -5.322037689807525 0 1 0
3893 1248 4 -6.892541363262223 -6.185640126498417 -5.566363919902641 1 1 0
3892 1248 2 -6.768699119381101 -5.740261338019196 -5.3758361439667 1 1 0
3894 1248 4 -6.644856875499979 -5.294882549539975 -5.18530836803076 1 1 0
569 140 4 -6.210468787373976 -5.364220539851273 -5.209880119452119 0 0 0
568 140 2 -5.776747308809983 -5.12258686549848 -5.150729071691832 0 0 0
1262 371 4 -4.377118060490327 -5.960418467515934 -6.611177455083494 0 0 1
1227 359 4 -4.630878836453867 -5.694820244117721 -6.4663804969552245 0 0 1
1225 359 2 -4.4474128741836605 -5.584862374767614 -6.014440780116413 0 0 1
1226 359 4 -4.263946911913454 -5.4749045054175065 -5.562501063277601 0 0 1
948 266 4 -3.9999802563521305 -5.671802812140489 -5.350691723239455 0 0 1
946 266 2 -3.592247579512544 -5.853523842099862 -5.125455110967381 0 0 1
432 94 4 -2.404965028308275 -5.904578960677548 -5.576995024495985 0 0 0
2883 911 4 -2.526058389725248 -6.261915176007224 -5.773202956426012 0 0 0
430 94 2 -1.9965053890340645 -5.666626717213838 -5.739904364052308 0 0 0
431 94 4 -1.588045749759854 -5.428674473750127 -5.902813703608632 0 0 0
947 266 4 -3.184514902672958 -6.035244872059235 -4.900218498695306 0 0 1
2777 876 4 -1.2751015370571446 -5.170649307135839 -5.910780098965358 0 0 0
2776 876 2 -0.9725651546133329 -5.0867771415758165 -5.521630773972935 0 0 0
1425 425 4 -9.214280978933788 -3.6715827627523403 -6.597559869503069 0 0 1
2791 881 2 -8.259709971451432 -4.424752143570844 -6.658005661129328 1 0 1
2793 881 4 -8.11466808840982 -4.234676217409475 -6.218876984705591 1 0 1
3516 1122 4 -7.983102966948365 -3.956356071115108 -5.969241720833645 1 0 1
3514 1122 2 -7.881458914146376 -3.7194674415983746 -5.540811722192312 1 0 1
3515 1122 4 -7.779814861344387 -3.482578812081641 -5.112381723550979 1 0 1
1017 289 4 -5.154098482256105 -3.946541669513235 -5.325322917603402 0 0 1
1015 289 2 -5.041612654915374 -3.6592641116849496 -5.718792793725702 0 0 1
570 140 4 -5.34302583024599 -4.880953191145688 -5.091578023931545 0 0 0
2778 876 4 -0.6700287721695213 -5.002904976015794 -5.132481448980512 0 0 0
3360 1070 4 -8.444044845269163 -2.0761362908066117 -6.29924527555256 1 0 1
2811 887 4 -8.818567924750075 -1.9717488555489313 -6.144641927165306 1 0 0
1951 601 2 -6.921536899878089 -2.47771558029959 -6.3422468766396625 0 1 0
1953 601 4 -7.241268576713036 -2.855937301866556 -6.4109490175331905 0 1 0
1952 601 4 -6.601805223043142 -2.099493858732624 -6.2735447357461345 0 1 0
1863 571 4 -6.591951813560376 -1.6863423655897691 -6.242034458796035 0 0 0
1861 571 2 -6.137019152551011 -1.6560175679032265 -6.036810969419501 0 0 0
669 173 4 -5.608820007000012 -1.680448099854301 -5.438622992022183 0 0 0
1016 289 4 -4.929126827574644 -3.3719865538566642 -6.112262669848001 0 0 1
563 138 4 -4.729944712090029 -3.074650118519917 -6.25467459867836 0 0 0
2512 788 2 -3.050812124330318 -2.8385602851919125 -6.46763729928098 0 0 0
2514 788 4 -2.6468801580284897 -2.723088275639148 -6.196518908887595 0 0 0
1068 306 4 -2.5830743846603856 -2.3612162840009803 -6.029889067432941 0 0 0
1066 306 2 -2.5497390052668845 -1.8700684537800611 -5.942353010005422 0 0 0
2041 631 2 -1.1762654230160245 -1.7092523136367759 -6.466586605283293 0 0 1
909 253 4 -1.1087214139093051 -2.093264239727706 -5.7471500096351225 0 0 0
907 253 2 -1.0359709764999563 -1.9824590357790692 -5.265040498595325 0 0 0
2809 887 2 -8.846750307419958 -1.613441686384988 -5.7970477301011725 1 0 0
2810 887 4 -8.87493269008984 -1.2551345172210457 -5.449453533037039 1 0 0
2766 872 4 -8.556828204579158 -1.1715203080288263 -5.251263945659696 1 0 0
2764 872 2 -8.379252477948508 -0.7551227533108132 -5.0389435798526385 1 0 0
1209 353 4 -8.21822425179196 -0.44631034623075544 -6.2902238130848165 0 0 1
1207 353 2 -7.718932344967076 -0.44393162271391184 -6.316717839834924 0 0 1
1208 353 4 -7.219640438142191 -0.44155289919706825 -6.3432118665850314 0 0 1
1395 415 4 -6.9843185297569494 -0.6883272085022536 -6.155179888541508 0 0 0
1393 415 2 -6.608103675521123 -0.4865068380193248 -5.894928238190883 0 0 0
1862 571 4 -5.682086491541646 -1.625692770216684 -5.831587480042967 0 0 0
667 173 2 -5.47156367826807 -1.3809703092080505 -5.062493023616646 0 0 0
1394 415 4 -6.231888821285297 -0.28468646753639604 -5.634676587840258 0 0 0
401 84 4 -5.752412249427557 -0.06900159516984694 -5.293640565192281 0 0 0
2757 869 4 -5.393023795920978 -0.08116641365261018 -5.543504927859653 0 0 0
2523 791 4 -3.5698079670428973 -0.4876625974316554 -5.938008003341416 0 0 0
579 143 4 -3.6438152889775304 -0.707893484823224 -6.261524533245456 0 0 0
2521 791 2 -3.7126153229067254 -0.06610305177725559 -5.710206316387999 0 0 0
1067 306 4 -2.5164036258733833 -1.378920623559142 -5.854816952577903 0 0 0
837 229 4 -0.8770534319326231 -0.11592681555747644 -5.464064625151649 -1 0 0
1559 470 4 -1.0280216320370863 -0.8705844135411291 -6.31887114086565 0 0 0
2042 631 4 -1.173332303309945 -1.246718817068969 -6.2767072715960035 0 0 1
2007 619 4 -6.706358854960814 -9.55383135637041 -4.877926786745057 0 1 0
1542 464 4 -6.679276881480285 -9.932098639754482 -4.697483456084641 0 1 0
2005 619 2 -6.627696170579896 -9.071539713725882 -4.98378968639013 0 1 0
2006 619 4 -6.5490334861989785 -8.589248071081354 -5.0896525860352035 0 1 0
2725 859 2 -0.8433278949689538 -8.894813309745132 -4.82410045181906 0 0 0
2726 859 4 -1.0040704394323583 -8.658109827106886 -4.414059849309464 0 0 0
425 92 4 -1.383953901495699 -8.554785483104329 -4.479952885232455 0 0 0
1485 445 4 -9.860676888984486 -7.95495727219929 -3.3322462266157187 1 1 0
2361 737 4 -9.723109039572657 -7.210260582205726 -3.965291808374651 0 1 0
3018 956 4 -2.172221631368135 -1.3724248644873236 -0.7797811605912721 0 0 0
1607 486 4 -7.004802577930004 -7.208711605051057 -4.8893303565571635 0 1 0
2961 937 4 -6.757217985497637 -7.5199492001547 -4.727384177166998 1 0 0
2959 937 2 -6.603475604722909 -7.894578947652795 -5.02066873632967 1 0 0
453 101 4 -6.389779660508394 -7.643108985490794 -3.302774692184604 0 0 0
2342 731 4 -5.084950646432644 -7.34410349171289 -3.4229573282848706 0 0 0
2343 731 4 -6.050662586896075 -7.6034998030637855 -3.4336344863185833 0 0 0
2341 731 2 -5.56780661666436 -7.4738016473883375 -3.428295907301727 0 0 0
2830 894 2 -4.685103944585342 -7.143287040172343 -4.571354826558124 0 0 0
2831 894 4 -4.713091857873311 -6.96421092966795 -4.105362956075417 0 0 0
10 2 3 -4.5228038281883425 -6.688764419423907 -3.887807599711919 0 0 0
6 2 1 -4.632895096207215 -6.693325120031344 -3.445926266415463 0 0 0
424 92 2 -1.6828401846943961 -8.15518547513512 -4.448539140683082 0 0 0
426 92 4 -1.9817264678930933 -7.755585467165911 -4.417125396133709 0 0 0
625 159 2 -2.6769345026795555 -7.608744852300881 -4.763890826123847 0 0 0
627 159 4 -2.379031955892683 -7.8623286455972465 -4.452523948637753 0 0 0
4584 1478 4 -9.367030755221009 -5.263808023481255 -3.587126475158169 1 0 1
28 6 3 -3.9545873802807847 -5.02765249512901 -3.435005260175898 0 0 0
881 244 4 -3.054219694422945 -5.705348322235301 -4.734631696525353 0 0 0
880 244 2 -2.9323521172209497 -5.748942597712506 -4.251674314582881 0 0 0
882 244 4 -2.8104845400189538 -5.792536873189709 -3.7687169326404093 0 0 0
98 20 3 -2.5654656237554034 -6.012016819616683 -3.555906353453243 0 0 0
763 205 2 -0.01646052982538743 -5.641524312708732 -3.756614621815439 0 0 0
12 3 3 -0.6171387869708407 -5.185207071238251 -3.531115276580744 0 0 0
765 205 4 -0.23269922430766907 -5.290279276951978 -3.4740057899209194 0 0 0
4221 1357 4 -0.2851279907128889 -4.980801134639549 -5.023932046807427 0 0 0
2712 854 4 -8.463510341803872 -3.6327372433289837 -3.9422449260407997 1 0 0
2687 846 4 -8.248757389933703 -3.9047837974569477 -3.726509655782041 1 0 0
2686 846 2 -8.235842996641859 -4.317122251522275 -3.44400263331168 1 0 0
2711 854 4 -7.908573392325011 -3.635492790809636 -4.774132772485332 1 0 0
2710 854 2 -8.186041867064441 -3.63411501706931 -4.358188849263066 1 0 0
1157 336 4 -5.027028725056518 -4.940106317146019 -4.7838460468370965 0 0 1
1156 336 2 -4.818633178877018 -4.7339666646793575 -4.3787809409420735 0 0 1
1158 336 4 -4.610237632697518 -4.527827012212696 -3.9737158350470505 0 0 1
29 6 3 -4.430851176414836 -4.470735042144531 -3.6365387488408265 0 0 0
848 233 4 -3.550283312228787 -4.23379923914485 -3.9950024450954955 0 0 0
30 6 3 -3.686377918470777 -4.360144830712891 -3.6572600746153516 0 0 0
26 6 1 -4.024605632803154 -4.568961483321596 -3.4350043236192045 0 0 0
847 233 2 -3.517221078807316 -3.7350783375883827 -3.981424850629769 0 0 0
3900 1250 4 -3.583634880596863 -4.549689367431177 -4.2113661793745925 0 0 0
2226 692 4 -2.6000075307476704 -4.497606621061109 -4.8251354085824145 0 0 0
3899 1250 4 -2.7196399905532536 -4.8274769390999035 -4.631302954385544 0 0 0
3898 1250 2 -3.1516374355750583 -4.68858315326554 -4.421334566880068 0 0 0
2225 692 4 -1.6667765806107608 -4.157297312981857 -4.7099417953003 0 0 0
2224 692 2 -2.1333920556792156 -4.327451967021483 -4.767538601941357 0 0 0
591 147 4 -1.4732765352503638 -4.001524021852947 -4.409930472940641 0 0 0
11 3 1 -0.6037603362157056 -4.750805574288383 -3.3803958136598884 0 0 0
589 147 2 -1.071306603242216 -4.033251617601516 -4.114272675090726 0 0 0
4219 1357 2 -0.36603438832217455 -4.820885410046159 -4.557154673905165 0 0 0
4220 1357 4 -0.44694078593146025 -4.66096968545277 -4.090377301002904 0 0 0
590 147 4 -0.6693366712340683 -4.064979213350084 -3.8186148772408104 0 0 0
14 3 3 -0.5602997879449145 -4.466870704808586 -3.7448024143651164 0 0 0
3047 966 4 -9.498146953993885 -2.602516705787209 -4.098452234024882 1 0 0
3046 966 2 -9.774565405395887 -2.2528642375277634 -4.325026705588454 1 0 0
1666 506 2 -6.376267247584112 -2.3650617811381935 -3.6269428509468895 0 0 0
1667 506 4 -6.040744489219696 -2.5266762814343995 -3.960567238415385 0 0 0
1792 548 2 -5.586738829334712 -3.1359631168350246 -4.344827631141526 0 0 0
1793 548 4 -5.381700554731632 -3.4229205872999824 -4.699249295395069 0 0 0
1794 548 4 -5.791777103937793 -2.849005646370067 -3.990405966887983 0 0 0
849 233 4 -3.4841588453858447 -3.236357436031916 -3.9678472561640423 0 0 0
1110 320 4 -3.5096266829264895 -3.106547594075 -3.5891750831867646 0 0 1
908 253 4 -0.9632205390906073 -1.8716538318304323 -4.7829309875555275 0 0 0
2765 872 4 -8.201676751317859 -0.3387251985928007 -4.826623214045582 1 0 0
3956 1269 4 -8.21124598946556 -0.03739590995354625 -4.57301908808928 1 0 0
3955 1269 2 -8.279151303010462 -0.2091976374382791 -4.108397699402262 1 0 0
3957 1269 4 -8.347056616555363 -0.3809993649230121 -3.643776310715244 1 0 0
668 173 4 -5.334307349536128 -1.0814925185618 -4.6863630552111095 0 0 0
3 1 3 -5.24898038116596 -0.3775153754240402 -4.132085079635822 0 0 0
4 1 3 -5.420202195595618 -1.1003477185016495 -4.292697949806035 0 0 0
1 1 1 -5.316843444866618 -0.8005589978945603 -3.953959567504159 0 0 0
5 1 3 -5.654714603435949 -0.7883210229116561 -3.648847600883178 0 0 0
402 84 4 -5.591179628078123 -0.2619370009193661 -4.325766621426081 0 0 0
400 84 2 -5.67179593875284 -0.16546929804460653 -4.809703593309181 0 0 0
1908 586 4 -5.984253184807862 -0.7210984728851736 -3.430599977729136 0 0 0
2 1 3 -4.930145140309496 -0.9382861041772593 -3.746364612248428 0 0 0
512 121 4 -5.048433079315178 -1.2358678448844378 -3.536345169573238 0 0 0
835 229 2 -0.7340897540777938 -0.12726463951191877 -4.985073142385719 -1 0 0
3970 1274 2 -0.15233461219580846 -0.16082762790041202 -3.8279269636351856 0 0 0
836 229 4 -0.5911260762229638 -0.1386024634663613 -4.506081659619788 -1 0 0
2517 789 4 -5.942097744947198 -9.917739471027856 -2.0600944636604335 0 1 0
2515 789 2 -5.516723795244017 -9.727160282925539 -1.8791619459186422 0 1 0
2516 789 4 -5.091349845540837 -9.536581094823221 -1.6982294281768509 0 1 0
1172 341 4 -4.90549898452648 -8.74868410439399 -2.399951087011119 0 0 0
1171 341 2 -4.50845882397608 -8.446171227731435 -2.3708809930381842 0 0 0
4271 1374 4 -3.430334538981665 -9.660326838210146 -1.9721782900184603 1 1 0
1684 512 2 -2.1659513917562614 -9.04474842886949 -2.358777379325957 0 1 0
1686 512 4 -2.414218606963792 -8.611367685780671 -2.3821123610677124 0 1 0
1685 512 4 -1.9176841765487307 -9.478129171958308 -2.335442397584202 0 1 0
2808 886 4 -1.7037867974795395 -9.481311953951517 -1.9905917474347576 0 0 0
4270 1374 2 -3.1180473581156964 -9.857503024417472 -1.6351348680992044 1 1 0
2806 886 2 -1.2347589734504816 -9.60238036265368 -1.8666750790613083 0 0 0
3792 1214 4 -0.21187232164650266 -8.483105798370644 -3.215227297721862 0 1 0
2807 886 4 -0.7657311494214236 -9.723448771355843 -1.7427584106878589 0 0 0
3006 952 4 -9.909030138736183 -7.3121955724295695 -2.446978099456007 1 0 0
1273 375 2 -9.173848112061073 -7.132398714679003 -2.0888355608186755 0 0 0
1274 375 4 -9.617130618031224 -7.055755081110753 -2.307070235731529 0 0 0
1275 375 4 -8.730565606090922 -7.209042348247253 -1.870600885905822 0 0 0
3491 1114 4 -8.394920180608974 -7.334310277758143 -2.0179802214619125 1 0 0
3490 1114 2 -8.101430741135106 -6.9393128999273035 -2.106529758018645 1 0 0
2206 686 2 -7.031942923938485 -6.766525358637748 -2.154782345924402 0 1 0
452 101 4 -6.851551971014608 -7.116272351508184 -2.589185528628499 0 0 0