LAMMPS data file via write_data, version 27 Jun 2024, timestep = 2500000, units = lj

4950 atoms
4 atom types
3450 bonds
1 bond types

-9.99857 9.99857 xlo xhi
-9.99857 9.99857 ylo yhi
-9.99857 9.99857 zlo zhi

Masses

1 1
2 1
3 0.5
4 0.5

Bond Coeffs # zero

1 0

Atoms # bond

1311 287 4 -9.488982252159126 -9.05793414465635 -8.581998374876836 0 0 0
1309 287 2 -8.99812450707759 -9.007462264681255 -8.50130597483146 0 0 0
4151 1234 4 -9.806147714961055 -9.146686395672498 -8.835610569683535 1 1 0
4150 1234 2 -9.998309046433947 -9.192589527807996 -9.294921929379667 1 1 0
1310 287 4 -8.507266761996053 -8.95699038470616 -8.420613574786085 0 0 0
1195 249 2 -8.059392609491967 -8.531812298524947 -9.036894636907952 0 0 0
1197 249 4 -8.187385944160106 -8.85200179629485 -8.674822279777079 0 0 0
393 79 3 -7.892072041151457 -9.109197758919645 -8.613830214551664 0 1 0
2322 624 4 -7.447754602177804 -9.92743053670491 -9.4452817749555 0 1 0
1772 441 4 -4.999406709874513 -9.743735883547917 -9.546977997175697 0 0 1
1509 353 4 -2.611032935230847 -9.433409645313022 -8.489617479639914 0 0 0
1508 353 4 -3.25078508803027 -9.89036451078494 -9.107605694665299 0 0 0
1507 353 2 -2.9309090116305585 -9.66188707804898 -8.798611587152607 0 0 0
1196 249 4 -7.9313992748238284 -8.211622800755045 -9.398966994038826 0 0 0
3986 1179 4 -8.152936716160234 -8.329485349850675 -9.707708246619179 1 0 1
264 53 3 -7.723423641800295 -7.871339935306231 -9.266394987873094 0 0 1
261 53 1 -7.806103956690928 -7.7089962753671175 -9.693136714924675 0 0 1
262 53 3 -8.038313569372491 -7.3133508119989425 -9.659323062441246 0 0 1
1946 499 4 -8.107880236881789 -6.925822519047836 -9.602869278020187 0 0 1
263 53 3 -7.405195423619602 -7.629328023551422 -9.91273935098134 0 0 1
1945 499 2 -7.996965987797612 -6.618486987905366 -9.981343716585604 0 0 1
3249 933 4 -5.662644624549046 -5.050266535125017 -9.530935861042597 0 0 0
1839 463 4 -5.256892596053822 -5.137340172899125 -9.521223490337233 0 0 1
1259 270 4 -5.161307931506782 -6.234957595725889 -8.638868189312852 0 0 0
3247 933 2 -6.1091187732866095 -4.956468519747841 -9.326331934344411 0 0 0
1207 253 2 -3.4571897466724066 -5.827829255112306 -8.72320550619014 0 0 0
123 25 3 -4.226416468616788 -5.825993465704044 -8.684307303293714 0 0 0
124 25 3 -4.869725456943014 -6.0962136621365355 -8.38308547310979 0 0 0
125 25 3 -4.752753213100265 -5.35366129637003 -8.425904607449754 0 0 0
1837 463 2 -4.804006230261254 -4.946747011271664 -9.61378798903932 0 0 1
1208 253 4 -3.9097883664138435 -5.615335009485465 -8.72237786871181 0 0 0
1154 235 4 -2.223466752426535 -5.20372667915892 -9.466669841413157 0 0 0
1153 235 2 -2.478318811370418 -5.479208401115911 -9.136275760171257 0 0 0
1155 235 4 -2.733170870314302 -5.754690123072903 -8.805881678929355 0 0 0
1209 253 4 -3.0045911269309697 -6.040323500739147 -8.724033143668471 0 0 0
1910 487 4 -1.9717077137913257 -5.513653617186734 -9.526667569658771 0 0 1
1371 307 4 -9.356918274835055 -3.4953082625885896 -8.662305259925434 0 0 0
1791 447 4 -6.955813237929253 -4.92546692994396 -9.113421792821402 0 0 1
1789 447 2 -7.1708868000292885 -4.5784851985172015 -8.824722916929149 0 0 1
1790 447 4 -7.385960362129324 -4.231503467090443 -8.536024041036896 0 0 1
3417 989 4 -7.7001579544496686 -3.5780767797610507 -9.71574327507178 1 0 0
717 144 3 -8.097971575062498 -3.521992467341266 -9.632537343171254 1 0 1
3326 959 4 -7.5123455358735205 -3.3189744631537192 -9.47757059122034 1 0 0
3248 933 4 -6.555592922024173 -4.862670504370666 -9.121728007646226 0 0 0
1140 230 4 -6.243264097523255 -3.4616158940992414 -9.24386133983124 0 0 0
1838 463 4 -4.351119864468686 -4.756153849644202 -9.706352487741407 0 0 1
1370 307 4 -8.589361157333313 -2.983340859582185 -9.04798057626161 0 0 0
1369 307 2 -8.973139716084184 -3.2393245610853874 -8.855142918093522 0 0 0
1428 326 4 -8.615597744633224 -2.7531286079349964 -9.384839127728634 0 0 0
1426 326 2 -8.8903589951983 -2.372102488896636 -9.55608559279779 0 0 0
1427 326 4 -9.165120245763376 -1.9910763698582756 -9.727332057866947 0 0 0
910 182 3 -9.541279005462805 -2.065283614460766 -9.753190694180516 1 0 0
719 144 3 -8.363227122263066 -2.82040409534021 -9.680633610713395 1 0 1
108 22 3 -9.53163938303289 -3.2079562495186655 -8.439984752710513 0 0 0
3325 959 2 -7.015660311397563 -3.268747325385842 -9.449623812892275 1 0 0
720 144 3 -8.22392591192791 -3.1313509520846714 -9.009211816995656 1 0 1
716 144 1 -8.083993141878592 -3.1036759018901923 -9.441707957397837 1 0 1
718 144 3 -7.647791582480756 -2.9462340561534113 -9.457208434474516 1 0 1
3327 959 4 -6.518975086921606 -3.218520187617965 -9.42167703456421 1 0 0
1138 230 2 -5.963691178920777 -3.238339923104695 -8.894595217854855 0 0 0
1139 230 4 -5.684118260318297 -3.0150639521101494 -8.54532909587847 0 0 0
3056 869 4 -3.0963133146608715 -1.7298417224997056 -9.989590377095105 0 0 1
2196 582 4 -2.6158723036845486 -2.636267418922847 -9.147872402702651 0 0 0
2194 582 2 -2.5892659464392063 -2.580658054893287 -8.651687255417587 0 0 0
906 182 1 -9.62701939810993 -1.619500803505666 -9.71677269690437 1 0 0
908 182 3 -9.593343049335417 -1.4875222498302865 -9.273210339503644 1 0 0
1443 331 4 -9.681902485018894 -1.1087760550426866 -9.333844613711625 0 0 0
1441 331 2 -9.610481566616501 -0.7595026454855945 -8.983263470763271 0 0 0
1442 331 4 -9.53906064821411 -0.4102292359285024 -8.632682327814917 0 0 0
924 185 3 -9.890856570487726 -0.22436996201758982 -8.688904273365655 1 0 0
3279 943 4 -9.320893740276107 -0.2193056302617802 -8.332421513806091 1 0 0
907 182 3 -9.319038008376543 -1.3851661518833578 -9.965438606564017 1 0 0
1366 306 2 -7.10145955646451 -0.25030708306214666 -9.160214894642769 0 0 0
1367 306 4 -7.119000637771125 -0.690930767424606 -8.924539101983937 0 0 0
67 14 3 -6.779203804863017 -0.9095230841093133 -8.939334241501554 0 0 0
1476 342 4 -7.328772956616845 -0.707975579253915 -8.565001145108013 0 0 0
69 14 3 -6.746989907994366 -1.5514656696114164 -8.549755004673706 0 0 0
66 14 1 -6.749974781717007 -1.0886531236926897 -8.516654583693454 0 0 0
70 14 3 -6.365891676670402 -0.9445333335048459 -8.318892973430101 0 0 0
2263 605 2 -3.6057957861061714 -0.7655991272913806 -8.888073368325896 0 0 0
75 15 3 -4.20627029676175 -0.9484404558555231 -8.610737717826629 0 0 0
2264 605 4 -3.3144249077609844 -0.7748485524978957 -9.294296779007082 0 0 0
2265 605 4 -3.8971666644513583 -0.7563497020848654 -8.48184995764471 0 0 0
2341 631 2 -3.403880896249104 -0.15678918168110284 -9.825808956369888 0 0 0
55 11 3 -2.841473653576787 -1.506617683864408 -9.793657532826352 0 0 0
2343 631 4 -3.338793331298144 -0.628760367586622 -9.67412900198015 0 0 0
53 11 3 -3.0327973891553692 -1.049789272473126 -9.22655698552425 0 0 0
2481 677 4 -2.0923207595789464 -0.7865603347138106 -9.353061123802425 0 0 0
2479 677 2 -2.137989192530196 -0.6156682386506439 -8.885396408717794 0 0 0
52 11 3 -2.3856927504310144 -0.9498227247893412 -9.595558714362985 0 0 0
51 11 1 -2.8251698732776362 -1.0780228266941008 -9.640554184870613 0 0 0
54 11 3 -3.0341154303146807 -0.7940795395609682 -9.94224602083349 0 0 0
2660 737 4 -6.5099540084273055 -0.05080137145778193 -1.1541587287877302 0 0 0
1388 313 4 -2.1134525446495616 -1.1468367360136926 -9.808371543998677 0 0 0
2480 677 4 -2.1836576254814455 -0.44477614258747716 -8.417731693633163 0 0 0
394 79 3 -8.466573836661572 -9.218632358423482 -8.128472866418281 0 1 0
392 79 3 -7.846892669087956 -9.641764157804156 -8.085406279515492 0 1 0
391 79 1 -8.00518244222621 -9.21981765983611 -8.177631550305735 0 1 0
395 79 3 -7.817319424811345 -8.922562234524472 -7.888241331378811 0 1 0
2537 696 4 -7.769747849756247 -9.042060180729822 -7.516654670102876 0 1 0
2536 696 2 -7.405133799664483 -8.988481583531971 -7.17874058575903 0 1 0
2538 696 4 -7.040519749572719 -8.934902986334121 -6.840826501415184 0 1 0
29 6 3 -6.650380539155165 -8.830617577931955 -6.916010249155505 0 0 0
1962 504 4 -7.643852162315517 -9.981973378603772 -7.95573833603312 0 0 1
2559 703 4 -6.283634133474414 -9.361492555330605 -7.233356599175075 0 1 0
30 6 3 -6.3373230369302425 -9.514709048246155 -6.885780122721203 0 0 0
2557 703 2 -6.168077880996527 -9.634635346082206 -7.63589823475259 0 1 0
2558 703 4 -6.052521628518639 -9.907778136833807 -8.038439870330105 0 1 0
1500 350 4 -2.6155343492072403 -9.351087061622675 -8.094039704635495 0 0 0
1498 350 2 -2.499263358835146 -9.6045917602294 -7.6790500365929875 0 0 0
1499 350 4 -2.382992368463052 -9.858096458836126 -7.26406036855048 0 0 0
1596 382 4 -2.270872405262795 -9.848931602222574 -6.894548754678191 0 0 0
3515 1022 4 -9.714986713224912 -7.536288728575972 -7.658300318947547 1 0 0
3767 1106 4 -9.414144680179595 -7.376000571457764 -7.446020678241741 1 0 1
3766 1106 2 -8.942113517458793 -7.377888413028509 -7.281147947098466 1 0 1
3768 1106 4 -8.470082354737992 -7.379776254599253 -7.116275215955191 1 0 1
1266 272 4 -8.11233134505963 -7.198486779573141 -7.148210060223327 0 0 0
1264 272 2 -7.964093409497981 -6.724084948806843 -7.202693245020911 0 0 0
1327 293 2 -5.741329900935488 -7.116917047572003 -7.366038547529572 0 0 0
1328 293 4 -5.495500004921875 -6.7252384627747945 -7.55618467143754 0 0 0
1329 293 4 -5.9871597969491015 -7.508595632369212 -7.175892423621605 0 0 0
1260 270 4 -5.564350373654243 -6.824051487839486 -7.938493163985854 0 0 0
1808 453 4 -5.773097268889384 -7.7396436670340565 -6.955625717526116 0 0 1
1807 453 2 -5.962158823185388 -8.174715837469888 -6.797613264854307 0 0 1
1684 412 2 -9.581963376727268 -6.079230356229216 -7.365293325295869 0 0 1
1686 412 4 -9.145349331732968 -5.925207655897824 -7.554092645994759 0 0 1
1392 314 4 -8.862120209998888 -5.758766955910091 -7.808113389711187 0 0 0
1390 314 2 -8.754144291843067 -5.324890043734432 -7.584300909766187 0 0 0
1265 272 4 -7.815855473936333 -6.249683118040545 -7.257176429818495 0 0 0
1227 259 4 -8.02912982331224 -6.1270684214215265 -6.949949624288674 0 0 0
1258 270 2 -5.362829152580512 -6.529504541782687 -8.288680676649353 0 0 0
121 25 1 -4.552944473091454 -5.757842332690054 -8.361762910437545 0 0 0
122 25 3 -4.355440225406671 -5.765001813082321 -7.9463825859309205 0 0 0
1298 283 4 -4.60139322125801 -5.450011775902547 -7.787553691001052 0 0 0
1297 283 2 -4.609741133334917 -5.5542435631502105 -7.298609883502616 0 0 0
1550 367 4 -4.806935815019426 -5.224961882714046 -8.044103450705332 0 0 0
1299 283 4 -4.618089045411824 -5.658475350397874 -6.80966607600418 0 0 0
1391 314 4 -8.646168373687246 -4.891013131558773 -7.360488429821186 0 0 0
3128 893 4 -8.550481703982548 -4.550222574367536 -7.590285979062456 1 0 0
3127 893 2 -8.894825664841079 -4.240606566716172 -7.401698693101336 1 0 0
3129 893 4 -9.23916962569961 -3.9309905590648087 -7.213111407140215 1 0 0
1292 281 4 -9.31972239418739 -3.7841543789408307 -6.862090685680245 0 0 0
1263 271 4 -7.662139953585836 -4.066122529525327 -8.292346309659624 0 0 0
1261 271 2 -7.393473514611064 -3.965354562592629 -7.8828781651001885 0 0 0
1262 271 4 -7.1248070756362925 -3.8645865956599312 -7.4734100205407525 0 0 0
1433 328 4 -7.598687820571153 -4.185753087976477 -6.862970422991845 0 0 0
1551 367 4 -5.220899790632207 -4.316221949550497 -7.990947446646597 0 0 0
3321 957 4 -4.972233003108605 -4.145842967510357 -7.747484988030344 0 0 0
1549 367 2 -5.013917802825817 -4.770591916132272 -8.017525448675965 0 0 0
3319 957 2 -4.775803281380102 -3.7283112307302386 -7.554916524352435 0 0 0
2468 673 4 -4.238433928547274 -3.5381088102175053 -7.3275717323144045 0 0 0
2467 673 2 -3.7501588060458544 -3.496410976517683 -7.228331138749115 0 0 0
2469 673 4 -3.2618836835444345 -3.454713142817861 -7.129090545183826 0 0 0
1562 371 4 -3.029302069223394 -3.455630270934438 -6.812164550569659 0 0 0
1291 281 2 -9.496823593924429 -3.3767908668358717 -7.091634001978712 0 0 0
1293 281 4 -9.673924793661467 -2.9694273547309127 -7.321177318277179 0 0 0
109 22 3 -9.581799603122736 -3.0473445807238067 -7.698845194889259 0 0 0
106 22 1 -9.81319309009055 -3.0632970881159016 -8.100719020482302 0 0 0
1565 372 4 -6.619697580709465 -1.7803023523464145 -8.270198434572594 0 0 0
1566 372 4 -6.273251480584378 -2.5389748138862003 -7.71848184445597 0 0 0
1564 372 2 -6.446474530646921 -2.1596385831163074 -7.994340139514281 0 0 0
1283 278 4 -6.282059510451859 -2.7337820983369276 -7.361977642302648 0 0 0
2174 575 4 -5.743478977921258 -3.0491042855089034 -8.14031834926513 0 0 0
2173 575 2 -5.36055753410462 -2.8651596661326773 -7.876622416669339 0 0 0
1282 278 2 -6.2241524277658264 -3.0182308596457883 -6.954871179611772 0 0 0
132 27 3 -5.024269612766027 -2.7050224186813057 -6.726575978814153 0 0 0
2175 575 4 -4.977636090287982 -2.681215046756451 -7.612926484073549 0 0 0
3320 957 4 -4.579373559651599 -3.31077949395012 -7.362348060674526 0 0 0
135 27 3 -4.823856437569932 -2.984508551949518 -7.388936953297566 0 0 0
1413 321 4 -4.771870163507991 -2.3698923548754416 -7.43909492582395 0 0 0
133 27 3 -4.504543875865338 -2.3505593225705925 -7.137843619042093 0 0 0
131 27 1 -4.674122966935601 -2.7656970760791375 -7.018664856321264 0 0 0
1411 321 2 -4.7565264070437205 -1.9443007379028772 -7.701080316065568 0 0 0
134 27 3 -4.345296343176128 -3.016750479114538 -6.808557168857677 0 0 0
2195 582 4 -2.562659589193864 -2.5250486908637266 -8.155502108132522 0 0 0
4102 1218 2 -2.132558097168481 -2.2699079722626427 -7.55719674231733 0 0 0
4103 1218 4 -2.194068468272421 -2.435408079782144 -8.024985357674256 0 0 0
4104 1218 4 -2.071047726064541 -2.104407864743141 -7.089408126960404 0 0 0
1503 351 4 -2.2426417387945468 -1.8828989877831166 -6.785948692330906 0 0 0
3277 943 2 -8.873358031400187 -0.22931798451019828 -8.10968502814817 1 0 0
3278 943 4 -8.425822322524269 -0.23933033875861612 -7.8869485424902495 1 0 0
1474 342 2 -7.706432024930227 -0.5739948927083085 -8.265964686205253 0 0 0
1475 342 4 -8.08409109324361 -0.44001420616270204 -7.966928227302493 0 0 0
68 14 3 -7.117159660232171 -0.9499063171712236 -8.269218554243652 0 0 0
2136 562 4 -6.782081211571101 -0.012003441855988173 -7.194134038666608 0 0 0
2165 572 4 -5.938526508100019 -0.8765403968981919 -8.29698667779176 0 0 0
2164 572 2 -5.482964879211698 -1.0526937177587001 -8.190058618638474 0 0 0
1404 318 4 -5.967269260873389 -0.5120165444150899 -8.184859905696808 0 0 0
1402 318 2 -6.27665252493296 -0.30257665469063744 -7.852569477739603 0 0 0
2166 572 4 -5.027403250323377 -1.2288470386192085 -8.08313055948519 0 0 0
1403 318 4 -6.586035788992531 -0.09313676496618498 -7.520279049782398 0 0 0
74 15 3 -4.82761771463067 -0.8904729354393042 -8.189469213327017 0 0 0
2093 548 4 -3.855933305808544 -0.6532916600528513 -8.102743287810844 0 0 0
71 15 1 -4.383942048807641 -1.0260001940949306 -8.198648849342193 0 0 0
73 15 3 -4.35405974157013 -1.4774687693561275 -8.095774298235629 0 0 0
1412 321 4 -4.74118265057945 -1.5187091209303127 -7.9630657063071855 0 0 0
72 15 3 -4.148621209248014 -0.7860253150953116 -7.884584906939271 0 0 0
2092 548 2 -3.5939055596562777 -0.2721927362295919 -7.912729944839761 0 0 0
13 3 3 -2.695634552164386 -0.9268130795870166 -7.353281086710977 0 0 0
1502 351 4 -2.4950174165285053 -0.9385916451706668 -6.997112514934471 0 0 0
3449 1000 4 -2.2546544242814766 -0.6282582147717073 -6.874023875358631 0 0 0
1501 351 2 -2.368829577661526 -1.4107453164768917 -6.891530603632688 0 0 0
1362 304 4 -2.190031742777878 -0.2613411820421303 -8.052193565415438 0 0 0
11 3 1 -2.6516933353016943 -0.46860615178970827 -7.411724057027155 0 0 0
14 3 3 -2.5012299480258315 -0.3773896310971655 -7.841072767800136 0 0 0
107 22 3 -9.963774880003585 -2.640723288491555 -8.202485952329706 0 0 0
15 3 3 -2.35952932497709 -0.3002309965611629 -7.105635837435156 0 0 0
12 3 3 -3.0629963147756696 -0.27111091534322124 -7.353196365658259 0 0 0
2271 607 4 -7.037400902339254 -9.106906552992648 -6.433946189364432 0 1 0
2269 607 2 -7.38086197665337 -9.088381803580875 -6.0710531967474965 0 1 0
2270 607 4 -7.724323050967486 -9.069857054169102 -5.708160204130561 0 1 0
1472 341 4 -7.814339539346665 -9.086648179346476 -5.312778348068232 0 0 0
28 6 3 -6.6895576008285795 -9.242541285278234 -6.278527686911703 0 0 0
26 6 1 -6.428744376954436 -9.137450520625409 -6.647624413308905 0 0 0
27 6 3 -6.034258175186677 -8.950514504348472 -6.5025879956979304 0 0 0
1809 453 4 -6.151220377481392 -8.609788007905719 -6.639600812182497 0 0 1
2410 654 2 -3.322540280728292 -8.87058218677499 -6.107815979492538 0 1 0
1579 377 2 -3.3666624773647005 -9.961811043953741 -5.840490549183099 0 0 0
2412 654 4 -3.6379351251682728 -8.524603862055512 -6.283386737095897 0 1 0
1581 377 4 -3.051864061695589 -9.61369547155755 -6.012878210422309 0 0 0
2411 654 4 -3.0071454362883117 -9.21656051149447 -5.932245221889179 0 1 0
95 19 3 -2.2628022752717434 -9.579896294087899 -6.613588906202316 0 0 0
94 19 3 -2.7108032825615838 -9.14304785990206 -6.194830571340842 0 0 0
93 19 3 -2.7416139523048866 -9.89950438881208 -6.128315742177379 0 0 0
91 19 1 -2.46435447427295 -9.535986285334603 -6.207573361907762 0 0 0
92 19 3 -2.142327120650564 -9.520252715647661 -5.879471490069758 0 0 0
2145 565 4 -2.318807982715816 -9.67712911490417 -5.530557601758846 0 1 0
401 81 1 -1.0065783561895787 -0.24863379808405575 -1.623907568708834 0 0 0
2147 566 4 -0.7007093566354441 -8.40328187833926 -5.085840086068367 0 1 0
3231 927 4 -9.104014314451033 -8.283232864364935 -5.004728638207666 1 0 0
1372 308 2 -5.2179185226841405 -7.4969660780030365 -5.654178284029972 0 0 0
1373 308 4 -5.621103523821217 -7.381784729199675 -5.926529365808269 0 0 0
1374 308 4 -4.814733521547064 -7.6121474268063976 -5.381827202251674 0 0 0
1506 352 4 -3.8485183452436664 -8.289669649333469 -6.060022418975565 0 0 0
1505 352 4 -4.6187922436483655 -7.938946357921711 -5.527414407115304 0 0 0
1504 352 2 -4.233655294446016 -8.11430800362759 -5.793718413045435 0 0 0
402 81 3 -0.9550833288394371 -0.6561857630856713 -1.4169059793882128 0 0 0
3583 1045 2 -0.22156176490771898 -8.118604262151232 -5.800028887240729 0 0 1
3584 1045 4 -0.5018016563545338 -8.280726050987997 -5.419001160130924 0 0 1
2477 676 4 -9.372306959509514 -6.246077576665132 -5.155635226488563 0 1 0
2476 676 2 -9.681825420545602 -6.147956803911779 -5.535859681556887 0 1 0
2351 634 4 -9.017293331008753 -6.40880804398738 -5.062536017314271 0 1 0
1760 437 4 -8.424399031341427 -5.0771792073289745 -5.150250937780415 0 0 1
2478 676 4 -9.99134388158169 -6.049836031158425 -5.91608413662521 0 1 0
1225 259 2 -7.871616888362097 -5.818267449058695 -6.589628052923529 0 0 0
1226 259 4 -7.714103953411953 -5.509466476695863 -6.229306481558384 0 0 0
1648 400 2 -6.849385694347913 -5.4785447671632745 -6.168344693334693 0 0 1
1650 400 4 -7.326000895937483 -5.553108647013072 -6.299791174594137 0 0 1
1761 437 4 -8.021377410505927 -5.467432844915104 -5.97806472812851 0 0 1
1759 437 2 -8.222888220923677 -5.272306026122039 -5.5641578329544625 0 0 1
1198 250 2 -5.685089926501807 -5.6005383108364954 -6.137252849013346 0 0 0
1199 250 4 -6.157182872320737 -5.757699669219888 -6.087972447846365 0 0 0
1649 400 4 -6.3727704927583435 -5.403980887313477 -6.036898212075249 0 0 1
1200 250 4 -5.2129969806828775 -5.443376952453103 -6.186533250180327 0 0 0
1452 334 4 -4.6471545937225605 -5.84155285038714 -6.45916587115616 0 0 0
1450 334 2 -4.437615046222088 -5.576365327267555 -6.09069775094077 0 0 0
1468 340 2 -3.6679271895933603 -5.614110988111941 -5.259014920197478 0 0 0
1469 340 4 -3.8527033113946265 -5.451019737052423 -5.694054031818248 0 0 0
1451 334 4 -4.228075498721615 -5.31117780414797 -5.722229630725379 0 0 0
50 10 3 -7.071095724278971 -4.244363177672126 -5.038969058630635 0 0 0
47 10 3 -7.275425186342767 -4.366355453436871 -5.746335551749085 0 0 0
1432 328 2 -7.342688731695062 -4.140810888912523 -6.435835005076588 0 0 0
46 10 1 -6.955084235940264 -4.451776276158261 -5.427454761263187 0 0 0
48 10 3 -6.9286425107018355 -4.9101513379297215 -5.360423888431954 0 0 0
1434 328 4 -7.08668964281897 -4.09586868984857 -6.008699587161331 0 0 0
1353 301 4 -6.705321864266328 -4.028754034107967 -5.833126591530664 0 0 0
49 10 3 -6.547010235353401 -4.289849503387128 -5.577639082365795 0 0 0
1602 384 4 -6.351654302269629 -4.323258200225191 -5.245059690049761 0 0 0
1600 384 2 -5.909768715617323 -4.501202729729939 -5.093162116902063 0 0 0
1351 301 2 -6.339436755860361 -3.7582440075432983 -6.0403762307934805 0 0 0
1352 301 4 -5.973551647454394 -3.487733980978629 -6.247625870056297 0 0 0
120 24 3 -4.233754588659176 -4.8927116513440225 -5.787915898271449 0 0 0
116 24 1 -4.061804094169566 -4.478709647996674 -5.868136647888443 0 0 0
118 24 3 -4.334342899560588 -4.248911896899742 -6.165147747254741 0 0 0
117 24 3 -4.0412961323393155 -4.244005937528837 -5.473049832372979 0 0 0
2043 531 4 -4.028499510385655 -3.8664500368360333 -5.648761033774871 0 0 0
3294 948 4 -4.170040608745705 -3.907103436562073 -6.023213168586768 0 0 0
119 24 3 -3.6335336025914917 -4.5162587543197175 -6.042705976975105 0 0 0
2041 531 2 -3.798553318333905 -3.5737000304713997 -5.314961419433014 0 0 0
3292 948 2 -4.370188847389268 -3.5229441966309274 -6.272937738750082 0 0 0
1561 371 2 -2.551538264472282 -3.3856478811452724 -6.6823792972121945 0 0 0
1284 278 4 -6.166245345079794 -3.302679620954649 -6.547764716920897 0 0 0
2391 647 4 -5.171855747408858 -2.3823632410414395 -5.606485223775236 0 0 0
1170 240 4 -5.4039546694039275 -2.2017437881937276 -5.326163782994443 0 0 0
2389 647 2 -5.0356931542537176 -2.653316305121096 -6.004032938258876 0 0 0
1168 240 2 -5.755927136622022 -1.8685388773992953 -5.203322952067227 0 0 0
2390 647 4 -4.899530561098577 -2.924269369200753 -6.401580652742517 0 0 0
3293 948 4 -4.570337086032831 -3.138784956699782 -6.522662308913397 0 0 0
3273 941 4 -1.8655507795293294 -3.014554185764454 -6.400971711799724 0 0 0
1563 371 4 -2.07377445972117 -3.315665491356107 -6.55259404385473 0 0 0
3271 941 2 -1.6116745591587287 -2.588767374762793 -6.335760851452254 0 0 0
3272 941 4 -1.357798338788128 -2.162980563761132 -6.270549991104784 0 0 0
4241 1264 4 -1.058201498622502 -1.9088959486703838 -6.164724940178722 0 0 0
1169 240 4 -6.107899603840116 -1.5353339666048629 -5.080482121140011 0 0 0
2577 709 4 -6.139702353112171 -1.123028252035033 -5.156892351207726 0 0 0
3448 1000 2 -1.9940324004715635 -0.4398207910782129 -6.491182526942932 0 0 0
350 70 3 -1.6925615948919042 -0.600760669215535 -5.8888839875285095 0 0 0
3450 1000 4 -1.7334103766616504 -0.25138336738471856 -6.108341178527233 0 0 0
347 70 3 -1.7691790300540682 -0.475700559418828 -5.157112344482018 0 0 0
348 70 3 -1.3065747604308224 -0.04313845870702809 -5.561818804467889 0 0 0
346 70 1 -1.4743832427254018 -0.472647525335577 -5.510221566616214 0 0 0
4240 1264 2 -1.1132474820684948 -1.4553611442100638 -5.961559685153022 0 0 0
4242 1264 4 -1.1682934655144877 -1.0018263397497438 -5.758394430127321 0 0 0
349 70 3 -1.1283167148703845 -0.7680542564356254 -5.419266514424396 0 0 0
3557 1036 4 -0.8298130989257806 -0.5464010397286688 -5.502951455129576 0 0 1
3556 1036 2 -0.3657949724998927 -0.47292397566636246 -5.331813208659137 0 0 1
4731 1427 4 -1.2379562346339466 -0.7918593890917838 -5.019040885263901 0 0 0
3229 927 2 -9.395484932891394 -8.52421960628609 -4.677665542148296 1 0 0
3230 927 4 -9.686955551331755 -8.765206348207245 -4.350602446088926 1 0 0
1224 258 4 -9.766587299764435 -8.903654894541711 -3.965511855152766 0 0 0
1222 258 2 -9.451478520557881 -8.736826124576083 -3.6149770939964947 0 0 0
599 120 3 -8.74276312721568 -8.682129303346336 -3.3445861977024216 1 0 0
1471 341 2 -7.637170957203122 -9.18989443118766 -4.856761347308404 0 0 0
1473 341 4 -7.46000237505958 -9.293140683028845 -4.400744346548576 0 0 0
2160 570 4 -7.244850925957426 -9.5844206864726 -4.548682547939296 0 1 0
2158 570 2 -6.943037079278498 -9.899910817276075 -4.3050139629340265 0 1 0
1670 407 4 -4.319959388053773 -9.676614555740162 -4.041259001138304 0 0 0
1669 407 2 -3.8301511718004426 -9.576345965635086 -4.035417671755418 0 0 0
1931 494 4 -4.432725830378052 -9.810708547567005 -3.665011211324522 0 0 0
1671 407 4 -3.3403429555471127 -9.476077375530009 -4.0295763423725335 0 0 0
1144 232 2 -2.8194681967846855 -9.869171079968742 -3.7383286401685436 0 0 0
1145 232 4 -3.082252193965569 -9.445089090754367 -3.7714803708863567 0 0 0
4032 1194 4 -1.5929347456813683 -9.948496783849684 -3.579682318968082 0 1 0
1301 284 4 -8.867351679191026 -7.983765129845025 -4.868349949126491 0 0 0
1300 284 2 -8.42405752466578 -7.890092389835045 -4.656889053586724 0 0 0
1302 284 4 -7.980763370140536 -7.796419649825065 -4.445428158046957 0 0 0
1817 456 4 -7.602283711699972 -7.747878332992474 -4.327888021293779 0 0 0
1816 456 2 -7.51951904803898 -7.269174311933232 -4.209598247133422 0 0 0
597 120 3 -8.336530940291057 -8.083900135736874 -3.549518560514112 1 0 0
1818 456 4 -7.436754384377988 -6.79047029087399 -4.091308472973065 0 0 0
1398 316 4 -1.8353640518596477 -7.066594307806555 -4.070508587817429 0 0 0
1467 339 4 -3.0571553353342193 -8.161012697116206 -3.6047134714253932 0 0 0
2146 566 2 -0.7206110102708073 -8.207218187785944 -4.626315382239577 0 1 0
2148 566 4 -0.7405126639061705 -8.011154497232628 -4.166790678410787 0 1 0
3076 876 2 -1.0032659470874652 -8.242369218238997 -3.341955689218308 0 1 0
3477 1009 4 -1.2495439387218916 -7.999797199016019 -3.84983239445765 0 0 0
3078 876 4 -0.8613696566736886 -8.093370185430057 -3.797658148053545 0 1 0
3475 1009 2 -1.5317618014400343 -7.670120595203479 -4.0981596278844235 0 0 0
3476 1009 4 -1.813979664158177 -7.34044399139094 -4.346486861311197 0 0 0
2350 634 2 -8.799894006100574 -6.004301355888354 -4.864768798563101 0 1 0
2352 634 4 -8.582494681192395 -5.599794667789329 -4.667001579811931 0 1 0
42 9 3 -8.880075249220766 -5.3907199142265085 -4.514541510886907 0 0 0
3460 1004 2 -6.8708975889699175 -5.271395719097332 -4.712879594325547 1 0 0
1533 361 4 -7.380308918800106 -6.523404236346039 -3.8102170989171613 0 0 0
655 131 3 -7.221805240527146 -6.586842662054943 -4.403703874500937 1 0 0
654 131 3 -7.1983196616324685 -6.162282030432742 -3.7823370764974626 1 0 0
651 131 1 -7.031731525999668 -6.220334065051141 -4.211497133286606 1 0 0
652 131 3 -7.133161968544229 -5.848097891037747 -4.462000818052501 1 0 0
3461 1004 4 -6.771306057978071 -5.690506718345101 -4.459053872097844 1 0 0
1531 361 2 -7.663929986549157 -6.519591326397025 -3.3984592190330387 0 0 0
653 131 3 -6.5706547345703505 -6.2703209525463945 -4.19702289810846 1 0 0
1314 288 4 -6.510455211806077 -5.857209751795649 -4.1896478469991845 0 0 0
1313 288 4 -5.615870626536852 -5.543791019195643 -3.8710774185960166 0 0 0
1220 257 4 -5.301457147049185 -5.2694806514589505 -3.9184672384275556 0 0 0
1312 288 2 -6.063162919171464 -5.700500385495646 -4.0303626327976 0 0 0
1219 257 2 -5.3082660690874865 -4.9061565801851215 -4.261904653124145 0 0 0
1470 340 4 -3.483151067792094 -5.777202239171459 -4.823975808576708 0 0 0
1338 296 4 -3.2887659200672354 -5.844593271279354 -4.496124903025734 0 0 0
1397 316 4 -2.095886828703046 -6.101864971379219 -4.032756896715897 0 0 0
1336 296 2 -2.8274586104661474 -5.820919889644564 -4.3047218280489 0 0 0
1337 296 4 -2.3661513008650594 -5.797246508009775 -4.1133187530720665 0 0 0
1396 316 2 -1.9656254402813467 -6.584229639592887 -4.051632742266663 0 0 0
566 114 1 -1.8392396708152765 -5.469532361908299 -3.9193815018355576 0 0 0
570 114 3 -2.2374037741078183 -5.407184628719302 -4.131461927654504 0 0 0
568 114 3 -1.7372493128103308 -5.921923750813941 -3.9038896291870726 0 0 0
569 114 3 -1.8603267158194183 -5.297082730828719 -3.4891298763027536 0 0 0
567 114 3 -1.5080307518673208 -5.250284677290134 -4.151396813397118 0 0 0
41 9 1 -8.868405475796276 -4.932979561305375 -4.558559526470836 0 0 0
45 9 3 -9.266754967878713 -4.788095897601037 -4.725072006932095 0 0 0
44 9 3 -8.524670754938617 -4.8188950054082085 -4.848613238363556 0 0 0
43 9 3 -8.79302218343219 -4.744056456505559 -4.141515860045796 0 0 0
2130 560 4 -8.825232260698085 -4.477158244212051 -3.8343044471974927 0 1 0
2128 560 2 -8.363238333956797 -4.297296128606131 -3.7694104488334537 0 1 0
3462 1004 4 -6.970489119961764 -4.852284719849563 -4.96670531655325 1 0 0
2129 560 4 -7.90124440721551 -4.117434013000212 -3.7045164504694146 0 1 0
1593 381 4 -7.741461653679105 -4.197902630122859 -4.075783728155268 0 0 0
1591 381 2 -7.406175715684541 -4.354847353972871 -4.4118665950777665 0 0 0
1592 381 4 -7.0708897776899775 -4.511792077822883 -4.747949462000265 0 0 0
1601 384 4 -5.467883128965019 -4.6791472592346866 -4.941264543754365 0 0 0
1221 257 4 -5.315074991125788 -4.542832508911292 -4.605342067820735 0 0 0
3335 962 4 -1.699751564242097 -5.128258204520287 -4.451838782404931 0 0 0
3336 962 4 -1.3768073548214663 -4.290861478259388 -4.8928305742196905 0 0 0
3334 962 2 -1.5382794595317817 -4.709559841389837 -4.6723346783123105 0 0 0
1490 347 4 -1.3788335026802105 -3.8876736347031478 -4.968324841185192 0 0 0
1489 347 2 -1.2081867796954735 -3.6487058184597916 -4.56363473908945 0 0 0
1535 362 4 -0.15957641495494224 -4.39970492567579 -3.3782586476329888 0 0 0
1659 403 4 -5.378298380029243 -1.8462198614738492 -4.118109739707213 0 0 1
1446 332 4 -5.402203248468804 -1.784285408983489 -3.710470811027274 0 0 0
1657 403 2 -4.946373143688631 -2.0808247894416287 -4.026452126900156 0 0 1
2042 531 4 -3.5686071262821555 -3.280950024106766 -4.981161805091157 0 0 0
2791 781 2 -4.074372242348165 -2.876109826441795 -4.347403503379574 0 0 0
2793 781 4 -3.819955132955661 -3.0863371374455646 -4.723004904011389 0 0 0
2792 781 4 -4.328789351740669 -2.6658825154380255 -3.97180210274776 0 0 0
1658 403 4 -4.514447907348019 -2.3154297174094083 -3.9347945140930998 0 0 1
1491 347 4 -1.037540056710737 -3.4097380022164354 -4.1589446369937075 0 0 0
4224 1258 4 -1.1823935701297266 -3.0451420761899186 -4.0822593008740595 0 0 0
4222 1258 2 -1.0132132457129268 -2.771971514320086 -3.6991720236666175 0 0 0
4730 1427 4 -0.7683214410173265 -1.5826648187308978 -4.626523454978206 0 0 0
4223 1258 4 -0.8440329212961271 -2.498800952450253 -3.3160847464591754 0 0 0
1652 401 4 -8.904188031730458 -0.31950583386090026 -5.001692571573842 0 0 0
1651 401 2 -8.56943711101634 -0.44174184411126366 -4.650978758217497 0 0 0