LAMMPS data file via write_data, version 27 Jun 2024, timestep = 2000000, units = lj

4950 atoms
4 atom types
3450 bonds
1 bond types

-9.99857 9.99857 xlo xhi
-9.99857 9.99857 ylo yhi
-9.99857 9.99857 zlo zhi

Masses

1 1
2 1
3 0.5
4 0.5

Bond Coeffs # zero

1 0

Atoms # bond

261 53 1 -9.542670121018048 -9.123450627972028 -9.574448018102942 0 0 1
264 53 3 -9.251146116111215 -9.067863488906259 -9.217763529326755 0 0 1
4022 1191 4 -9.963665045640246 -4.291740095226296 -0.8003460016557864 1 1 0
3191 914 4 -9.17097410206918 -9.420743094354549 -9.08070054497612 0 0 0
3190 914 2 -8.837168190826421 -9.340032316676394 -8.717300787152796 0 0 0
263 53 3 -9.800414597937621 -9.50395732667381 -9.51055406799423 0 0 1
1226 259 4 -9.430033705466927 -9.66365380450557 -9.288986245943576 0 0 0
1844 465 4 -6.036485383567077 -9.953829985271637 -0.5059655713391058 0 0 1
262 53 3 -9.29753836171181 -9.172988319308823 -9.960526297363009 0 0 1
453 91 3 -5.537672009336834 -9.620976180909986 -1.3173515428796603 0 1 0
1648 400 2 -5.3781620310944405 -8.55512108522109 -9.639651785457398 0 0 1
1246 266 2 -4.421379542295096 -8.539792759933611 -9.163094857996041 0 0 0
1248 266 4 -4.601981923684637 -8.676173863362166 -9.608945701287983 0 0 0
1247 266 4 -4.240777160905555 -8.403411656505057 -8.7172440147041 0 0 0
3289 947 2 -9.917621088266126 -6.715349342055273 -6.949781818173429 1 0 0
3446 999 4 -9.513873004313144 -0.12609642582504899 -5.176931163710668 0 0 0
1207 253 2 -1.0723458076775696 -9.281702286521046 -9.207068228232913 0 0 0
1208 253 4 -0.791450506338849 -9.001978329399968 -9.51178504348673 0 0 0
1209 253 4 -1.3532411090162904 -9.561426243642124 -8.902351412979096 0 0 0
4256 1269 4 -4.486892500776714 -9.584570824136135 -3.2807241870913315 0 1 0
1650 400 4 -5.814942251903533 -8.382997935600798 -9.46761498685033 0 0 1
3591 1047 4 -5.99146051376999 -7.012084592722552 -9.38372764754349 1 0 1
2171 574 4 -6.276288048296591 -7.278342779032271 -9.515987566429061 0 0 0
2170 574 2 -6.011517193195146 -7.678366491808942 -9.375000249605295 0 0 0
2172 574 4 -5.7467463380937 -8.078390204585613 -9.234012932781528 0 0 0
3969 1173 4 -4.151162482567324 -8.094510105240394 -8.457309040320363 0 0 1
3967 1173 2 -4.297369605201994 -7.663100447200214 -8.25113148518731 0 0 1
3589 1047 2 -5.72445094705859 -6.6219795050294525 -9.546589281578408 1 0 1
3590 1047 4 -5.4574413803471895 -6.231874417336353 -9.709450915613326 1 0 1
2997 849 4 -5.5597946109536736 -5.826457891542504 -9.64828453559162 0 0 1
429 86 3 -1.9354865775523975 -5.517519433930447 -8.552069918424023 0 1 0
426 86 1 -1.6582664394455358 -5.469451337087702 -8.921039365796325 0 1 0
430 86 3 -1.8321550806956721 -5.160453783502138 -9.206842186500742 0 1 0
428 86 3 -1.6111845062175363 -5.876921643898152 -9.13795234519499 0 1 0
3235 929 2 -0.8907537125594446 -5.997703443612048 -9.528725488970975 0 0 0
3237 929 4 -1.223232105155882 -5.767020770938259 -9.235052843011927 0 0 0
3824 1125 4 -1.0249448371774603 -5.381359625059178 -9.121272349629718 0 0 1
427 86 3 -1.2443361937323725 -5.328095483770347 -8.77863053735844 0 1 0
3823 1125 2 -0.6319823645826778 -5.091887365851153 -9.012707593464071 0 0 1
3825 1125 4 -0.23901989198789492 -4.802415106643127 -8.904142837298425 0 0 1
598 120 3 -5.533187485371789 -4.5182710659373075 -8.981328155506311 1 0 0
600 120 3 -5.202135825109955 -3.8456945878128863 -9.051653679403813 1 0 0
596 120 1 -5.265398274391748 -4.201090129798523 -8.773999449744798 1 0 0
2739 763 4 -4.817416373943586 -3.8677048686907973 -9.058227153481472 0 0 1
2737 763 2 -4.706936693128594 -3.452885041870974 -9.314583841329275 0 0 1
1836 462 4 -3.624701415567663 -4.816955323919901 -9.355958368964082 0 0 1
1831 461 2 -4.197015993401331 -4.1904160862753725 -8.595906192449583 0 0 1
1832 461 4 -4.589420583692428 -4.1819779611581644 -8.905660023036361 0 0 1
1834 462 2 -3.437873973790325 -4.809627518828605 -9.819684376722716 0 0 1
2738 763 4 -4.596457012313603 -3.0380652150511507 -9.570940529177081 0 0 1
1364 305 4 -2.149075735513554 -5.156153740704635 -8.640143842458578 0 0 1
1194 248 4 -1.9739337663553513 -4.912043778545759 -8.91980860876985 0 0 0
3210 920 4 -2.2685418684664156 -3.8108933142397006 -9.480312530722186 0 0 0
1193 248 4 -2.275110640458104 -4.18568777424871 -9.53762690368156 0 0 0
1192 248 2 -2.1245222034067277 -4.548865776397235 -9.228717756225706 0 0 0
2265 605 4 -7.756366102363581 -1.940097240917939 -8.297323694187432 0 0 0
2131 561 2 -7.125857119258545 -2.3626817256561945 -8.02215935200121 0 0 0
2132 561 4 -7.467375954265592 -1.9979557303333375 -8.04059393014235 0 0 0
2133 561 4 -6.784338284251498 -2.7274077209790515 -8.003724773860071 0 0 0
3525 1025 4 -7.780955722549479 -2.2957526356371654 -9.598735136416432 1 0 0
3523 1025 2 -8.074376399641643 -2.592086763381237 -9.874580004030957 1 0 0
4634 1395 4 -3.8602249578637506 -2.173826821702956 -8.676579013923277 0 0 0
4503 1351 4 -3.659500570369409 -2.2387575293097113 -9.006551834122307 0 0 1
4501 1351 2 -3.30323288110016 -2.412322386023149 -9.311426520012247 0 0 1
3208 920 2 -2.4586008055224164 -3.3532031703230785 -9.546624917249266 0 0 0
4502 1351 4 -2.9469651918309108 -2.585887242736587 -9.616301205902188 0 0 1
3209 920 4 -2.6486597425784173 -2.8955130264064564 -9.612937303776347 0 0 0
4570 1374 2 -9.541669351299314 -1.567851790873967 -8.77855684430571 1 0 1
4572 1374 4 -9.39230172660285 -1.5453420978255759 -9.255193630980061 1 0 1
4050 1200 4 -9.548825277767484 -1.556642278393112 -9.628085970759539 1 0 0
2263 605 2 -7.871008142537511 -1.5845589956817185 -8.629663518462387 0 0 0
2264 605 4 -7.985650182711442 -1.2290207504454982 -8.962003342737342 0 0 0
4583 1378 4 -8.285891227404406 -0.9488005618455775 -8.89420406212924 1 0 1
4582 1378 2 -8.481670929639751 -0.9389255818281192 -9.35417448831145 1 0 1
1693 415 2 -0.549343910976089 -0.7576816080817443 -9.517991899082405 0 0 1
1694 415 4 -0.6901986903488397 -0.5725352440441579 -9.075407720635365 0 0 1
2022 524 4 -1.7780033836483575 -0.2712867685582046 -2.2274204706026985 0 0 1
1651 401 2 -8.6609139797026 -9.183143361195187 -7.590435249077222 0 0 0
1653 401 4 -8.806748892583782 -8.936050104469686 -7.180951304745163 0 0 0
1652 401 4 -8.51507906682142 -9.430236617920688 -7.999919193409282 0 0 0
3192 914 4 -8.503362279583662 -9.25932153899824 -8.353901029329473 0 0 0
1341 297 4 -9.17426510034331 -8.887956842636257 -6.99243585941238 0 0 0
1339 297 2 -9.584855515400278 -8.604009794702128 -7.020535415151646 0 0 0
632 127 3 -9.924893977998106 -8.077480155618748 -7.368317036632066 1 0 0
1340 297 4 -9.995445930457247 -8.320062746767997 -7.048634970890913 0 0 0
1405 319 2 -5.538966219196788 -7.012797075700159 -6.928282423911452 0 0 0
52 11 3 -4.8970700020145035 -6.983784686134889 -7.270487667637912 0 0 0
1406 319 4 -5.26356613162791 -6.849840449478154 -7.312469786714007 0 0 0
54 11 3 -4.830289333941832 -7.2574434882343075 -7.967302709385334 0 0 0
51 11 1 -4.822051775834616 -6.8712917243172065 -7.710166640619764 0 0 0
55 11 3 -5.147648452629096 -6.584926765958244 -7.849385585754854 0 0 0
3968 1173 4 -4.443576727836664 -7.231690789160035 -8.044953930054257 0 0 1
1179 243 4 -4.216385671554233 -6.9087804772703345 -8.004847709669725 0 0 0
1177 243 2 -3.758185844868903 -6.7133194585362235 -7.961860397806478 0 0 0
53 11 3 -4.406689235481289 -6.667264025199933 -7.744028980530228 0 0 0
1484 345 4 -1.9645149349621027 -7.1718170787961695 -7.947235560046963 0 0 0
1485 345 4 -1.8488151290873072 -7.540442807016583 -7.024886045266962 0 0 0
1483 345 2 -1.906665032024705 -7.356129942906376 -7.486060802656962 0 0 0
3201 917 4 -2.050767633132865 -7.622386923484896 -6.684621779241257 0 0 0
1416 322 4 -5.363093172827104 -6.541923197785012 -7.519156176909827 0 0 0
1414 322 2 -5.476164191177262 -6.056562890265997 -7.478655353533332 0 0 0
1507 353 2 -6.183462508785224 -5.538057287910845 -6.770778097033794 0 0 0
1415 322 4 -5.589235209527421 -5.571202582746983 -7.4381545301568375 0 0 0
1508 353 4 -5.869734973623379 -5.403679468928798 -7.136178747617579 0 0 0
3612 1054 4 -5.8071744597871415 -5.032524598204938 -7.007422602887261 1 0 0
1779 443 4 -5.618094822187018 -5.058333176268756 -6.633157520396933 0 0 1
2346 632 4 -3.4882395153572787 -6.170309541505059 -7.9755928781105565 0 1 0
1777 443 2 -5.170884904483532 -4.912478070674322 -6.463659503654446 0 0 1
1178 243 4 -3.299986018183572 -6.517858439802112 -7.918873085943231 0 0 0
2344 632 2 -3.341766542634535 -5.693261350604184 -7.944436950587524 0 1 0
1363 305 2 -2.504829381204568 -5.059842853811491 -8.30226286246252 0 0 1
2345 632 4 -3.195293569911791 -5.216213159703308 -7.913281023064491 0 1 0
1365 305 4 -2.860583026895582 -4.963531966918346 -7.964381882466463 0 0 1
4195 1249 2 -0.5652182700389664 -6.280673691109054 -7.369119579470866 0 0 0
4197 1249 4 -1.0582183516768295 -6.356450675114585 -7.334352235599131 0 0 0
3305 952 4 -1.4481788699732583 -6.369421678968085 -7.244196444057809 0 0 0
4156 1236 2 -9.732901916991167 -4.5433294469601915 -7.349902013840908 1 0 0
4157 1236 4 -9.5906483462422 -4.712685092307415 -6.901479682775571 1 0 0
4158 1236 4 -9.875155487740136 -4.373973801612968 -7.798324344906245 1 0 0
1166 239 4 -9.994581083476874 -4.031566847974567 -7.954143577376064 0 0 0
3144 898 4 -9.76373898349655 -3.663894374648174 -7.362303280401747 1 0 0
599 120 3 -5.463821488031748 -4.060039087276452 -8.378989536334835 1 0 0
1677 409 4 -5.74660557261925 -4.108933001220244 -8.081524370613916 0 0 1
1675 409 2 -5.587909249781701 -3.7347154392287516 -7.790359995363127 0 0 1
3611 1054 4 -5.755165504385602 -4.401106988261957 -7.781119488245332 1 0 0
3610 1054 2 -5.781169982086372 -4.716815793233447 -7.394271045566296 1 0 0
597 120 3 -4.858154695647086 -4.391313538724197 -8.67618471533392 1 0 0
1833 461 4 -3.804611403110234 -4.198854211392581 -8.286152361862804 0 0 1
139 28 3 -3.5358398458831646 -5.045393240584952 -7.764158426379274 0 0 0
4249 1267 2 -3.740497908906579 -3.599449475132983 -7.806235478351589 0 0 0
4250 1267 4 -3.605999508831321 -4.064893444782032 -7.92981578218023 0 0 0
136 28 1 -3.2931715767282235 -4.715259971781957 -7.5463875927615165 0 0 0
140 28 3 -3.4291481949149363 -4.304050905387035 -7.687162104022997 0 0 0
3398 983 4 -3.4925539143861775 -4.745252780579379 -6.714240040215209 0 0 0
137 28 3 -3.3653454856104124 -4.751903381874829 -7.09356512492979 0 0 0
138 28 3 -2.8402122066985713 -4.769774074415877 -7.630980865048016 0 0 0
3142 898 2 -9.39384984280625 -3.517691861031958 -7.059306830568409 1 0 0
3143 898 4 -9.023960702115948 -3.371489347415742 -6.756310380735071 1 0 0
1805 452 4 -6.385505187561067 -2.7951438744062043 -7.954808819380011 0 0 0
3135 895 4 -6.677006264995652 -3.239962011311754 -6.800274926561558 0 0 0
3133 895 2 -6.94720232729122 -2.9621928513108746 -6.4843028048917315 0 0 0
1676 409 4 -5.429212926944151 -3.3604978772372593 -7.499195620112337 0 0 1
3039 863 4 -5.620612375465567 -3.4571919433861202 -7.186906685311981 0 0 0
1804 452 2 -6.370109075711871 -2.9924005267252136 -7.49562174110383 0 0 0
1806 452 4 -6.354712963862674 -3.189657179044223 -7.036434662827649 0 0 0
1704 418 4 -5.131463677928089 -3.153815809534412 -7.299144349138141 0 0 1
3037 863 2 -5.524444112200818 -3.4100198807693625 -6.698514976077373 0 0 0
1703 418 4 -4.16272237288776 -2.9591843227879333 -7.452958744679499 0 0 1
4251 1267 4 -3.874996308981837 -3.1340055054839335 -7.682655174522947 0 0 0
1702 418 2 -4.647093025407925 -3.0565000661611728 -7.37605154690882 0 0 1
2103 551 4 -2.745948574092833 -0.719110608051492 -6.357931267609065 0 0 0
4635 1395 4 -3.7969037353668904 -2.9178185611572336 -8.011397298595845 0 0 0
4633 1395 2 -3.8285643466153205 -2.5458226914300948 -8.343988156259561 0 0 0
2101 551 2 -3.1675182735061984 -0.9718484420664294 -6.449596832537604 0 0 0
2102 551 4 -3.5890879729195637 -1.2245862760813668 -6.541262397466142 0 0 0
4722 1424 4 -6.908347171234527 -1.676140923541818 -6.745495029468567 1 0 1
4196 1249 4 -0.07221818840110322 -6.204896707103522 -7.4038869233426015 0 0 0
2691 747 4 -7.002784121195416 -8.70838119058671 -4.951094379779349 0 1 1
2553 701 4 -6.905706470798193 -8.647764041214186 -5.325557238257502 0 1 0
2551 701 2 -6.543711807082416 -8.438197136378017 -5.599494413242502 0 1 0
1878 476 4 -3.5882050934312835 -9.051476471487728 -6.084051993995869 0 0 1
1876 476 2 -3.434129057690877 -9.33450611327072 -5.701750022927309 0 0 1
1229 260 4 -5.132454295169783 -8.34831537372929 -5.030117916212237 0 0 0
1877 476 4 -3.2800530219504704 -9.617535755053712 -5.319448051858748 0 0 1
22 5 3 -3.039241706759482 -9.634120562704048 -4.988353411600668 0 0 0
1407 319 4 -5.814366306765666 -7.175753701922164 -6.544095061108897 0 0 0
118 24 3 -5.717530438395432 -7.5734132338030875 -6.489875445681392 0 0 0
1228 260 2 -5.494973862313947 -8.215687156672292 -5.347906083830238 0 0 0
1388 313 4 -6.1163661167542465 -6.990427539462024 -6.3459249598995955 0 0 0
120 24 3 -6.266686272263113 -7.99551086721007 -6.194644251527951 0 0 0
116 24 1 -6.002321111255315 -7.630712991878834 -6.128059179634028 0 0 0
2552 701 4 -6.181717143366639 -8.228630231541848 -5.873431588227503 0 1 0
119 24 3 -5.755301344141766 -7.683134273035892 -5.738786468110342 0 0 0
1230 260 4 -5.857493429458112 -8.083058939615293 -5.6656942514482385 0 0 0
117 24 3 -6.26737032376181 -7.257020031712038 -6.086797981500109 0 0 0
1289 280 4 -3.307212999389823 -7.590034338351281 -5.148553852176295 0 0 0
3200 917 4 -2.5009919735060846 -7.353393896163029 -5.833187228270085 0 0 0
1290 280 4 -2.5298538592330333 -7.099103291407929 -5.541872392751961 0 0 0
3199 917 2 -2.2758798033194747 -7.4878904098239625 -6.258904503755671 0 0 0
1288 280 2 -2.9185334293114282 -7.344568814879605 -5.345213122464128 0 0 0
98 20 3 -2.187930204660202 -6.661346498397235 -6.076289181820377 0 0 0
3306 952 4 -2.0091230789725305 -6.570645659223858 -6.441170601285362 0 0 0
2125 559 2 -8.683442077402416 -5.978744169358218 -5.257173278034808 0 1 0
1135 229 2 -7.5485361924434375 -6.256927658589324 -5.4556515902875615 0 0 0
1136 229 4 -7.109686812145671 -6.11742587973575 -5.65046040710156 0 0 0
1137 229 4 -7.987385572741204 -6.396429437442897 -5.260842773473563 0 0 0
2126 559 4 -8.292899656842192 -6.220882032767592 -5.454266841720528 0 1 0
29 6 3 -7.203806634395019 -5.185453165945756 -5.858488077536754 0 0 0
1509 353 4 -6.49719004394707 -5.672435106892891 -6.40537744645001 0 0 0
27 6 3 -6.86007318201401 -5.849662134147461 -5.78383045719902 0 0 0
28 6 3 -6.560755268411967 -5.330004802870349 -6.236892312409437 0 0 0
1389 313 4 -6.375799175312766 -6.0275993591543475 -6.270716028701892 0 0 0
1387 313 2 -6.246082646033506 -6.509013449308186 -6.308320494300744 0 0 0
26 6 1 -6.7918844520061565 -5.398273191428468 -5.840384144000894 0 0 0
99 20 3 -2.6313729856025763 -6.677554699247246 -5.4592836759655246 0 0 0
96 20 1 -2.3740780877594907 -6.40756937675657 -5.735340302735261 0 0 0
100 20 3 -2.631227684845806 -6.075505946962605 -5.911431084185566 0 0 0
3923 1158 4 -2.384942844942152 -5.768588837554444 -5.77433346010221 0 0 0
3922 1158 2 -2.4880061279899692 -5.301319574931249 -5.919376198269935 0 0 0
97 20 3 -2.0350013802385005 -6.220951052352053 -5.486743063383857 0 0 0
4184 1245 4 -2.0746638255110232 -5.840718085702546 -5.506862359118035 0 0 0
4183 1245 2 -1.634177778225408 -5.699587938757732 -5.316982597768753 0 0 0
3304 952 2 -1.7286509744728944 -6.470033669095971 -6.842683522671585 0 0 0
1045 209 3 -1.117031905001467 -5.211482431569481 -5.299496623656022 0 0 0
30 6 3 -6.549504721210122 -5.238087640376458 -5.489681056855451 0 0 0
3746 1099 4 -6.468536260352774 -4.845394157950841 -5.468418884392946 0 0 0
3745 1099 2 -6.3109143386294235 -4.40950971362873 -5.280908668697405 0 0 0
3747 1099 4 -6.153292416906073 -3.9736252693066203 -5.093398453001864 0 0 0
1778 443 4 -4.723674986780045 -4.766622965079887 -6.294161486911959 0 0 1
3399 983 4 -4.335678240498833 -4.884993218711045 -6.194996378078615 0 0 0
3397 983 2 -3.9141160774425052 -4.8151229996452125 -6.454618209146912 0 0 0
3924 1158 4 -2.5910694110377865 -4.834050312308054 -6.064418936437661 0 0 0
2421 657 4 -2.2452561334602845 -4.667648448123207 -6.19921315852971 0 0 0
2419 657 2 -1.9027863324946053 -4.552903318717977 -6.544970285288177 0 0 0
3249 933 4 -0.3247518381230534 -4.292670181322887 -6.1088297389168975 0 0 0
2420 657 4 -1.5603165315289258 -4.438158189312747 -6.890727412046645 0 0 0
1296 282 4 -1.2271894649119393 -4.491714914317496 -6.671810684337744 0 0 0
1294 282 2 -0.7863689180856741 -4.285446693033488 -6.557221564504439 0 0 0
1295 282 4 -0.34554837125940907 -4.079178471749479 -6.442632444671134 0 0 0
1889 480 4 -8.897298990208967 -3.4146602608368055 -6.376119785438183 0 0 0
1888 480 2 -8.768664028967704 -3.0752188185045704 -6.032270175908136 0 0 0
1890 480 4 -8.640029067726442 -2.735777376172335 -5.688420566378088 0 0 0
2556 702 4 -8.926346843995688 -2.495142998949449 -5.5981252833348485 0 0 0
3404 985 4 -7.404080808688464 -2.709015424981989 -5.301885983436915 1 0 0
3403 985 2 -6.9221486849077065 -2.838545589476753 -5.332924097973092 1 0 0
3134 895 4 -7.217398389586788 -2.6844236913099957 -6.168330683221906 0 0 0
199 40 3 -8.341694975276122 -2.563101351528015 -5.886361701574818 0 0 1
197 40 3 -7.8679859370640175 -1.9852950252639658 -5.804877982675756 0 0 1
200 40 3 -7.625156952878719 -2.6216000247231417 -6.110082884508942 0 0 1
196 40 1 -7.902538274497131 -2.4439021972506016 -5.795626075823169 0 0 1
198 40 3 -7.7812768482127 -2.5949879684380606 -5.373999752830596 0 0 1
131 27 1 -5.718860420358558 -3.283972739176532 -5.125691070334914 0 0 0
132 27 3 -6.103297897421025 -3.0319894551897417 -5.1433616906211785 0 0 0
3038 863 4 -5.42827584893607 -3.3628478181526047 -6.210123266842765 0 0 0
133 27 3 -5.482267304857556 -3.224521812113868 -5.520392584100881 0 0 0
2963 838 4 -5.300032028584441 -3.2038808143169053 -5.880140558623831 0 0 0
3405 985 4 -6.440216561126949 -2.968075753971517 -5.363962212509269 1 0 0
2962 838 2 -5.100213747928627 -2.74573547626247 -5.893388348415747 0 0 0
2964 838 4 -4.900395467272812 -2.287590138208035 -5.906636138207663 0 0 0
1437 329 4 -5.001465348182378 -2.047141858033527 -5.624361710745343 0 0 0
1435 329 2 -4.82244742846951 -1.597878592615806 -5.497416436047904 0 0 0
3847 1133 2 -0.7985186187261457 -1.6238955611052708 -5.877027156246042 0 0 0
3848 1133 4 -0.6836062263215121 -2.066325180814396 -5.674416263952157 0 0 0
3972 1174 4 -0.6177085850772243 -2.411037040531468 -5.469926684448847 0 0 0
3228 926 4 -9.362346821910824 -0.7158680058414935 -5.391772799608876 0 0 0
3226 926 2 -8.938939022764599 -0.8598757982302452 -5.168193750157605 0 0 0
3227 926 4 -8.515531223618373 -1.003883590618997 -4.944614700706334 0 0 0
1810 454 2 -9.852239600132771 -0.4525393611654386 -5.872491786133527 0 0 0
2020 524 2 -1.9412974329912456 -0.06811957135062971 -1.8007377507412663 0 0 1
1812 454 4 -9.666347387813326 -0.440690658455435 -5.408483495643696 0 0 0
2063 538 4 -8.304090101632438 -1.178580590127231 -5.232119376491294 0 0 1
4720 1424 2 -7.313790374550114 -1.738627105189661 -6.459643169253615 1 0 1
4721 1424 4 -7.7192335778657 -1.8011132868375037 -6.173791309038664 1 0 1
2064 538 4 -7.655029754004733 -1.405292974036455 -5.958288888464619 0 0 1
2062 538 2 -7.979559927818586 -1.291936782081843 -5.5952041324779564 0 0 1
634 127 3 -9.910921279477819 -7.416937693942632 -7.0100037379411155 1 0 0
2989 847 2 -4.654351942363006 -0.3719981813781899 -5.567428000453082 0 0 1
1436 329 4 -4.643429508756642 -1.1486153271980846 -5.370471161350465 0 0 0
2991 847 4 -4.844367964785068 -0.8239776954478601 -5.469405400587564 0 0 1
4257 1269 4 -5.028109508658793 -9.913201261394503 -2.506717606960128 0 1 0
1302 284 4 -9.76311722500266 -5.991746740074085 -6.487979497599485 0 0 0
265 53 3 -9.811851364598073 -8.758189073097139 -9.61350508705412 0 0 1
4255 1269 2 -4.757501004717754 -9.748886042765319 -2.8937208970257298 0 1 0
3342 964 4 -1.1243093280616847 -0.2581872214426692 -6.623529805693812 0 0 0
3341 964 4 -0.7030854021328556 -1.1459508691910278 -6.437933173286655 0 0 0
3849 1133 4 -0.9134310111307793 -1.1814659413961455 -6.079638048539927 0 0 0
3340 964 2 -0.9136973650972702 -0.7020690453168486 -6.5307314894902335 0 0 0
4048 1200 2 -9.494308276839249 -1.9401402792444176 -9.944246025087683 1 0 0
740 148 3 -0.6799807787566117 -8.314282438047409 -9.936949206523526 0 0 1
2689 747 2 -6.867300384850023 -8.640885784707551 -4.474556314802903 0 1 1
2690 747 4 -6.731816648504631 -8.573390378828392 -3.9980182498264565 0 1 1
1442 331 4 -3.865300307445763 -9.524391712415529 -4.122750443606144 0 0 0
1430 327 4 -3.617808546691569 -9.217938393253863 -4.191592890967179 0 0 0
1429 327 2 -3.540614119603891 -8.748495733127358 -4.037759834441307 0 0 0
1441 331 2 -4.246981091904065 -9.67555553940279 -3.8373222106192952 0 0 0
1431 327 4 -3.463419692516213 -8.279053073000853 -3.883926777915434 0 0 0
23 5 3 -3.2689577272282726 -9.196131502151854 -4.4224063003113105 0 0 0
25 5 3 -2.538830430055861 -9.358955200043983 -4.507861395704271 0 0 0
21 5 1 -2.962545908484224 -9.520682545743337 -4.549206999984896 0 0 0
4289 1280 4 -2.3527226863385633 -9.606998301263625 -4.266969367131664 0 1 0
4288 1280 2 -1.9021943803107895 -9.405430564973917 -4.346936192470182 0 1 0
2232 594 4 -2.618297474576512 -9.896979661768905 -4.182518555263981 0 1 0
24 5 3 -3.0140933019253384 -9.898889815129623 -4.285384848502375 0 0 0
4290 1280 4 -1.4516660742830154 -9.20386282868421 -4.4269030178087005 0 1 0
1180 244 2 -1.3293705138313507 -8.554892019084823 -4.695183973170609 0 0 0
1181 244 4 -1.4420193286919518 -9.031857537924038 -4.794250306245845 0 0 0
1542 364 4 -3.470239559453741 -7.857891135973535 -3.917714695606348 0 0 0
335 67 3 -3.2778748599599834 -7.671548153412558 -3.6088232483573623 0 1 0
1540 364 2 -3.303773885352591 -7.709863367789792 -4.365349545894428 0 0 0
1541 364 4 -3.1373082112514408 -7.561835599606049 -4.8129843961825065 0 0 0
1182 244 4 -1.2167216989707497 -8.077926500245608 -4.596117640095374 0 0 0
4476 1342 4 -1.2712291959283375 -7.765902279870239 -4.3362811637402885 0 0 0
4474 1342 2 -1.1309664485690298 -7.286056952414896 -4.327631110415188 0 0 0
4475 1342 4 -0.9907037012097222 -6.806211624959553 -4.318981057090088 0 0 0
1956 502 4 -0.7460721311964483 -6.482931307568241 -4.242555823487633 0 0 1
3926 1159 4 -9.243070156042167 -5.399749623703186 -5.112741716400498 1 0 1
3925 1159 2 -9.523858879824287 -5.321890000620907 -4.706422172580175 1 0 1
3927 1159 4 -9.804647603606407 -5.2440303775386266 -4.300102628759853 1 0 1
1934 495 4 -4.673808030077275 -2.8352205288258676 -9.917342201499803 0 0 1
2715 755 4 -4.914702183837606 -9.617156574801589 -2.2606982459737024 0 1 0
2127 559 4 -9.073984497962641 -5.736606305948844 -5.060079714349089 0 1 0
3317 956 4 -6.79786602292333 -6.986430368912705 -3.3927901951572665 1 0 0
3316 956 2 -7.29131154042725 -7.059773520350661 -3.3591404790752346 1 0 0
3197 916 4 -6.429532877101108 -6.98095739221427 -3.2482961726184443 1 0 0
3318 956 4 -7.78475705793117 -7.133116671788617 -3.3254907629932027 1 0 0
3196 916 2 -6.08012557992383 -6.629131095199555 -3.184009335645216 1 0 0
4185 1245 4 -1.193691730939793 -5.558457791812918 -5.127102836419471 0 0 0
1954 502 2 -0.8420557009435982 -6.109598004126436 -4.561004247694388 0 0 1
1955 502 4 -0.9380392706907477 -5.736264700684632 -4.879452671901142 0 0 1
1043 209 3 -0.8184777756406773 -5.425655130690254 -4.642309065349846 0 0 0
1041 209 1 -0.8443057368029732 -5.085769389691023 -4.9571274248643595 0 0 0
1042 209 3 -0.42277204367316074 -5.0031695035987 -5.1217075098494105 0 0 0
4438 1330 2 -9.896220420276581 -3.4421394455500214 -3.525252994367733 1 0 0
1303 285 2 -9.906287357711136 -4.593913712533701 -3.7833826168042037 1 0 0
4571 1374 4 -9.691036975995777 -1.5903614839223583 -8.301920057631358 1 0 1
1304 285 4 -9.79596992653581 -4.18419290464942 -3.518885123497607 1 0 0
135 27 3 -5.829386040557789 -3.7228956829702393 -5.075384642403088 0 0 0
4095 1215 4 -5.641186419652213 -4.726250256784345 -3.6487315707821613 1 0 0
3971 1174 4 -1.0800700295077454 -3.296235332255453 -5.418488575685201 0 0 0
1044 209 3 -1.0066316439558556 -4.698677673523962 -4.759364174634092 0 0 0
4679 1410 4 -0.8596188838953871 -3.469222914869599 -5.1207166625787375 0 0 1
4678 1410 2 -0.916855045562192 -3.9657219628983076 -5.106131838128474 0 0 1
4680 1410 4 -0.9740912072289969 -4.462221010927016 -5.09154701367821 0 0 1
2554 702 2 -8.80463164402694 -2.513438572608493 -5.11351133173929 0 0 0
2555 702 4 -8.682916444058193 -2.531734146267537 -4.628897380143732 0 0 0
4440 1330 4 -9.691759632600714 -2.98585594016748 -3.5241810715595747 1 0 0
4344 1298 4 -9.337729501065573 -2.8048477017720037 -3.575123857143681 1 0 0
4342 1298 2 -9.164384971217379 -2.767413319307553 -4.042617537294661 1 0 0
4343 1298 4 -8.991040441369185 -2.7299789368431027 -4.510111217445641 1 0 0
134 27 3 -5.463362061868129 -3.1427094931025805 -4.765045421369654 0 0 0
1308 286 4 -5.717633948660406 -3.0527300942896876 -4.460419849452322 0 0 0
1306 286 2 -5.527371080119434 -3.0778694999526834 -3.9987185919952135 0 0 0
917 184 3 -4.95232777354334 -3.133399008666662 -3.572275079299199 0 0 0
1307 286 4 -5.337108211578462 -3.1030089056156793 -3.5370173345381057 0 0 0
3970 1174 2 -0.8488893072924849 -2.8536361863934605 -5.444207630067024 0 0 0
4455 1335 4 -8.45387452539476 -0.7622299302334667 -4.27232156690592 1 0 0
4453 1335 2 -8.61405616433352 -0.6008986436282889 -3.8269969005001347 1 0 0
340 68 3 -4.400760589575687 -9.024336126000694 -9.76787366200102 0 1 0
737 148 3 -0.7867387850741069 -9.051703080823632 -9.894363719612855 0 0 1
1578 376 4 -9.638892665535444 -9.090336292288022 -2.368310653762316 0 0 -1
1577 376 4 -8.63959298610752 -9.059769429446416 -2.346727846000714 0 0 -1
1576 376 2 -9.139242825821482 -9.075052860867219 -2.357519249881515 0 0 -1
1265 272 4 -7.779368416972213 -9.750115961861189 -3.126502837210762 0 0 0
1301 284 4 -9.606320357499577 -5.128178749383922 -6.967213331751355 0 0 0
1266 272 4 -8.511085553590616 -9.23742272345603 -2.6773528897844803 0 0 0
1264 272 2 -8.145226985281415 -9.49376934265861 -2.901927863497621 0 0 0
2416 656 2 -2.109359356192146 -1.772387205235251 -1.2953760792094071 0 0 0
2646 732 4 -2.587037144498813 -1.2459648706230435 -0.8466140994464944 0 0 0
2713 755 2 -5.013932486199882 -9.6171156051341 -1.7706438149004045 0 1 0
333 67 3 -3.540266208765103 -8.363996659174525 -3.472566700112476 0 1 0
3484 1012 2 -3.8127398644652244 -8.99179263401639 -2.9362496081803604 0 0 0
2850 800 4 -3.789475285149967 -9.148500605125799 -2.31935108471206 0 1 1
3485 1012 4 -3.8665566821930137 -9.384161089693325 -2.631043538254589 0 0 0
2848 800 2 -3.6333030569627236 -9.445694621592136 -1.948829895413243 0 1 1
3486 1012 4 -3.758923046737435 -8.599424178339454 -3.241455678106132 0 0 0
1010 202 3 -2.6854892777549177 -1.288006430297401 -0.45365167950497254 0 0 0
609 122 3 -0.9396977918225908 -8.683942682976397 -2.6506286411226028 0 0 0
608 122 3 -0.49683823487407375 -8.486257729512758 -2.0654824440115735 0 0 0
606 122 1 -0.5610577348089587 -8.447833348079236 -2.523411939392234 0 0 0
610 122 3 -0.1967021661927637 -8.607200494613663 -2.745328888325531 0 0 0
2857 803 2 -9.914576880330074 -6.599391797676993 -2.0146271882749116 0 1 0
3198 916 4 -5.730718282746551 -6.27730479818484 -3.119722498671988 1 0 0
331 67 1 -3.461165822158867 -7.943566662563779 -3.292895481525889 0 1 0
334 67 3 -3.858164409298251 -7.760509403443163 -3.1373893347266772 0 1 0
3414 988 4 -3.7558914197927655 -7.688436359743748 -2.7363302892236447 0 0 0
3412 988 2 -4.164091149967639 -7.493479592295818 -2.523340056791694 0 0 0
3413 988 4 -4.572290880142513 -7.298522824847889 -2.3103498243597436 0 0 0
1572 374 4 -4.7022526282242945 -6.642152352548763 -1.358944507630575 0 0 0
3111 887 4 -4.8010692701611895 -7.158778116599924 -2.6324989612519762 1 0 0
1191 247 4 -3.3824979021513535 -7.757363358985902 -2.709732732729443 0 0 0
332 67 3 -3.1684771746828173 -7.985126758854337 -2.9404666035452087 0 1 0
1189 247 2 -3.067510814715119 -7.5893508894194674 -2.3596542489310264 0 0 0
1190 247 4 -2.7525237272788843 -7.421338419853033 -2.0095757651326096 0 0 0
3125 892 4 -2.8173553914655445 -7.021516821985839 -1.8661685506290777 0 0 0
607 122 3 -0.6203048163358372 -8.003942683726526 -2.6285350169303263 0 0 0
2301 617 4 -0.7265025551624581 -7.90053280667029 -2.2575395205738613 0 0 0
3156 902 4 -0.5589172708335746 -6.574758936653131 -2.405951521022911 0 0 0
2299 617 2 -0.686882504969657 -7.4033467892142575 -2.2223782397532648 0 0 0
2300 617 4 -0.6472624547768558 -6.906160771758225 -2.187216958932668 0 0 0
2961 837 4 -0.6986040225918501 -8.137006786888676 -1.9393384232201778 0 1 0
619 124 3 -8.611600325926673 -6.418297758503514 -2.244940125212044 1 0 0
618 124 3 -9.295398202618168 -6.294753366189594 -1.9371134743835614 1 0 0
1287 279 4 -8.443276794814187 -6.208401089570913 -2.542490303884066 0 0 0
1286 279 4 -7.880611942669505 -6.75545978404916 -3.1622765968563527 0 0 0
1285 279 2 -8.161944368741846 -6.481930436810036 -2.8523834503702092 0 0 0
3110 887 4 -5.333734282515289 -6.386180854942916 -2.97798623437931 1 0 0
3109 887 2 -5.06740177633824 -6.77247948577142 -2.8052425978156434 1 0 0
1866 472 4 -4.604245075735326 -6.5653466575845165 -1.7059432320080785 0 0 0
1864 472 2 -4.155944466238384 -6.344650019510751 -1.6880670616220887 0 0 0
1865 472 4 -3.707643856741442 -6.123953381436985 -1.670190891236099 0 0 0
404 81 3 -3.4404439848255732 -5.258385719274763 -1.9761443519826998 0 0 0
401 81 1 -3.458293999340822 -5.521759963926485 -1.5945485131218182 0 0 0
3126 892 4 -3.3071523422024995 -6.183617886337861 -1.6252861712642381 0 0 0
402 81 3 -3.1073329071066866 -5.819019836553135 -1.6024781955750584 0 0 0
3124 892 2 -3.062253866834022 -6.60256735416185 -1.745727360946658 0 0 0
3154 902 2 -0.5528987008752912 -6.158641366783932 -2.68309759236802 0 0 0
4390 1314 2 -0.6315630640329749 -5.081368608779172 -2.389255629566135 0 0 0
4391 1314 4 -0.6352291226443657 -5.398712013956273 -2.775622971877649 0 0 0
3155 902 4 -0.546880130917008 -5.7425237969147345 -2.960243663713129 0 0 0
130 26 3 -8.720193905229499 -3.6984587765565826 -1.1321468359742848 0 0 0