LAMMPS data file via write_data, version 27 Jun 2024, timestep = 2500000, units = lj

4590 atoms
4 atom types
3090 bonds
1 bond types

-9.99857 9.99857 xlo xhi
-9.99857 9.99857 ylo yhi
-9.99857 9.99857 zlo zhi

Masses

1 1
2 1
3 0.5
4 0.5

Bond Coeffs # zero

1 0

Atoms # bond

2182 698 2 -8.965552145483711 -9.93675964797919 -8.80389519953306 0 1 1
2183 698 4 -8.561798924668876 -9.808377944846509 -8.53837406104859 0 1 1
4007 1306 4 -0.04092131569320878 -0.02905650834338297 -4.836236714964435 0 0 0
463 125 2 -8.35518606143626 -9.052098545780801 -8.77813637297864 0 0 0
464 125 4 -8.303115652176837 -9.458952304060455 -8.492201604450695 0 0 0
2577 829 4 -9.651049057158868 -9.816154498971715 -9.21247774222086 1 0 0
2575 829 2 -9.870841690615435 -9.493612781192168 -9.524980603919726 1 0 0
2243 718 4 -6.435673706450113 -0.026707051646937985 -0.14904342203627097 0 0 0
465 125 4 -8.407256470695684 -8.645244787501147 -9.064071141506584 0 0 0
1247 386 4 -8.364378653612803 -8.24661288788032 -9.022823735447622 0 0 1
3234 1048 4 -8.215702563936604 -9.856040869885742 -8.35828989578178 1 0 1
652 188 2 -5.967262687775377 -9.61845829790862 -8.977211950959436 0 0 0
654 188 4 -5.975266523325837 -9.373782018262308 -8.541242391477395 0 0 0
653 188 4 -5.959258852224917 -9.863134577554934 -9.413181510441477 0 0 0
2622 844 4 -0.039004939455437704 -5.585919656698503 -0.7181892373504258 0 0 0
1060 324 2 -0.07138511465814289 -7.921347499758895 -2.903672404330404 0 0 0
745 219 2 -2.0091039751506794 -9.518843145566514 -9.173003499834548 0 0 0
492 134 4 -2.1441546667423497 -8.737236166421894 -9.393321594142975 0 0 0
746 219 4 -1.9158445709526677 -9.030738753897097 -9.228291711613142 0 0 0
593 168 4 -0.18557007288679478 -2.010533384506185 -3.798957574579201 0 0 0
2975 962 4 -1.7684884317447134 -8.715950351732348 -9.412505182121755 0 0 1
2974 962 2 -1.3730649838904738 -8.41444921180435 -9.464824963362954 0 0 1
1246 386 2 -8.644693971598002 -8.121141253460523 -9.41738702753023 0 0 1
1248 386 4 -8.925009289583201 -7.995669619040727 -9.811950319612839 0 0 1
2798 903 4 -9.291647061624104 -7.807502826213297 -9.861457609305583 1 0 0
1446 452 4 -3.5208774407602195 -0.115737109955753 -1.9495021624829907 0 0 0
1252 388 2 -4.97345103225223 -7.822966560169396 -8.985520136073575 0 0 1
1253 388 4 -4.952252199945369 -7.538057295017315 -9.39585819199713 0 0 1
450 120 4 -5.062645533638285 -7.416614760317124 -9.76860596492297 0 0 0
237 49 4 -5.105089170120597 -7.1627460051749114 -9.459890556789677 0 0 0
1254 388 4 -4.994649864559091 -8.107875825321479 -8.575182080150018 0 0 1
534 148 4 -4.745445892021098 -7.242588448230081 -9.587236768194185 0 0 0
532 148 2 -4.309067912996312 -7.35492856103031 -9.803925389211066 0 0 0
1471 461 2 -1.3854963825893736 -0.0010064369889780996 -3.9195912263816406 0 0 0
558 156 4 -3.516578727531061 -7.58938488842094 -9.960636573977677 0 0 0
490 134 2 -2.4805146592176484 -8.39038667778236 -9.264646080960656 0 0 0
491 134 4 -2.816874651692947 -8.043537189142825 -9.135970567778337 0 0 0
556 156 2 -3.221319889356903 -7.6258708180333725 -9.55877715151702 0 0 0
557 156 4 -2.926061051182745 -7.662356747645805 -9.156917729056364 0 0 0
1070 327 4 -2.79145058700803 -7.824532752230225 -8.82341441810683 0 0 1
1069 327 2 -2.58445730702664 -7.6454432534517665 -8.404987921013472 0 0 1
2976 962 4 -0.9776415360362343 -8.112948071876351 -9.517144744604153 0 0 1
771 227 4 -0.5733010058139422 -8.153217052877865 -9.509966049432748 0 0 0
769 227 2 -0.35686309062483645 -7.990081337440109 -9.089797788830545 0 0 0
770 227 4 -0.14042517543573085 -7.826945622002353 -8.669629528228342 0 0 0
2469 793 4 -0.1493084162626016 -7.609272409010702 -8.330344601274787 0 0 0
629 180 4 -0.06037712280780416 -7.4607200933669535 -8.6861843946357 0 0 0
628 180 2 -0.12903046800952694 -6.969026555623593 -8.74554922542311 0 0 0
148 30 3 -0.7290671018836242 -7.924500697565692 -9.777110152194108 0 0 1
337 83 2 -8.712363880337453 -5.305435210617725 -9.98015048008133 0 0 0
338 83 4 -8.884761416858709 -5.0508753841154475 -9.58584300597964 0 0 0
2484 798 4 -9.110307070250245 -5.271368527568461 -9.35447879410254 1 0 0
2482 798 2 -9.55816289281242 -5.091811008206661 -9.223390047683042 1 0 0
505 139 2 -7.193145395314815 -6.658777184283035 -9.634161094512486 0 0 0
507 139 4 -7.1548496383838325 -6.609043910273271 -9.138116704908857 0 0 0
738 216 4 -6.946329305545978 -6.451666949717958 -8.849490902113418 0 0 0
736 216 2 -6.697218788913765 -6.018272975196751 -8.838831945687327 0 0 0
737 216 4 -6.4481082722815515 -5.584879000675545 -8.828172989261235 0 0 0
565 159 2 -5.640060972032593 -5.735814902435107 -8.808999249874292 0 0 0
566 159 4 -6.0797826109628295 -5.499170137316731 -8.783619427208004 0 0 0
288 66 4 -6.294579042890661 -5.237339732026266 -8.98641437040375 0 0 0
455 122 4 -6.340851596397665 -5.265543096064936 -8.589011292875792 0 0 0
567 159 4 -5.200339333102357 -5.9724596675534825 -8.83437907254058 0 0 0
286 66 2 -6.502362205961278 -5.065824240386899 -9.407613365265103 0 0 0
354 88 4 -5.038176118960475 -6.190184711232754 -8.530726919352574 0 0 0
235 49 2 -5.103671481852653 -6.750663995905928 -9.17671851050591 0 0 0
236 49 4 -5.102253793584709 -6.338581986636944 -8.893546464222144 0 0 0
283 65 2 -4.553923668505955 -5.631339697204239 -8.857431153287518 0 0 0
284 65 4 -4.2922438022603835 -5.205772863002107 -8.837022399557954 0 0 0
285 65 4 -4.815603534751526 -6.056906531406371 -8.877839907017082 0 0 0
630 180 4 -0.19768381321124978 -6.477333017880232 -8.80491405621052 0 0 0
572 161 4 -0.5321002301155029 -6.297334728273705 -8.638906104844144 0 0 0
518 143 4 -0.17745609834467413 -6.084982775813974 -8.813683619658532 0 0 0
2592 834 4 -0.15991423913243097 -6.254635042418121 -8.468078122123092 0 0 0
571 161 2 -1.03179982344519 -6.287395722061697 -8.653102321999766 0 0 0
476 129 4 -8.802450479054553 -5.031263886865773 -9.186843664131288 0 0 0
475 129 2 -8.44597862499843 -4.687370119777642 -9.118543633210958 0 0 0
2137 683 2 -9.775205249509776 -1.3634020106388034 -0.06991374570073523 0 0 0
477 129 4 -8.089506770942307 -4.34347635268951 -9.050243602290628 0 0 0
657 189 4 -7.8744817742276725 -4.2868796286027715 -9.379238280509872 0 0 0
621 177 4 -7.751538226663076 -4.170395473827061 -9.013386478421504 0 0 0
655 189 2 -7.461729545756735 -4.495872540628734 -9.568863069541052 0 0 0
619 177 2 -7.811700225703235 -3.8779052323653542 -8.612350329775134 0 0 0
656 189 4 -7.0489773172857975 -4.704865452654697 -9.758487858572233 0 0 0
287 66 4 -6.710145369031895 -4.894308748747532 -9.828812360126456 0 0 0
1224 378 4 -6.765257960233388 -4.500230138946874 -9.9376987192258 0 0 1
454 122 2 -6.163315436696519 -4.9149414825704385 -8.279884424723637 0 0 0
739 217 2 -4.111903971999374 -4.883134338261451 -9.573953863004565 0 0 0
740 217 4 -4.048454240790081 -5.019302429201787 -9.097055149838885 0 0 0
756 222 4 -4.113591882454316 -4.893558584129885 -8.693677731777429 0 0 0
754 222 2 -4.354204310337166 -4.52870665462113 -8.450801777672797 0 0 0
609 173 4 -4.6280498975054485 -3.7784498461974416 -8.354767021434327 0 0 0
755 222 4 -4.5948167382200165 -4.163854725112375 -8.207925823568166 0 0 0
536 149 4 -4.855843736288071 -3.9068500493875478 -8.051964084685192 0 0 0
415 109 2 -9.625359275689226 -3.1826086030241902 -8.605975245343744 0 0 0
417 109 4 -9.261762372711177 -2.8807924045894877 -8.769389670984244 0 0 0
1954 622 2 -8.928062744201167 -2.703867930006785 -9.388703891950398 0 0 1
1955 622 4 -9.015442351683218 -2.58520473611287 -8.910913299105262 0 0 1
1788 566 4 -9.159340954784218 -2.5894617404259206 -8.544028446540434 0 0 0
264 58 4 -8.90711754778573 -2.8226983686624925 -8.608333102859037 0 0 0
1956 622 4 -8.840683136719116 -2.8225311239007005 -9.866494484795533 0 0 1
955 289 2 -5.293434695219528 -2.654908970674333 -9.596659384140011 0 0 1
957 289 4 -5.509348825225915 -2.2399862578235505 -9.773351859430333 0 0 1
246 52 4 -5.798314551203756 -1.9209295644432038 -9.789161270213716 0 0 0
608 173 4 -4.851720992699644 -3.291691583045506 -9.199182579337378 0 0 0
956 289 4 -5.07752056521314 -3.069831683525116 -9.41996690884969 0 0 1
244 52 2 -6.003565923350984 -1.6568478910665316 -9.417499133295872 0 0 0
607 173 2 -4.739885445102546 -3.5350707146214737 -8.776974800385853 0 0 0
563 158 4 -0.3052929609164474 -2.471430164437091 -9.309582347235741 0 0 0
562 158 2 -0.37276433728434444 -2.738740008305102 -9.72670710164683 0 0 0
1673 528 4 -0.44063951721658295 -2.101657501455087 -9.336078961186143 0 0 0
1672 528 2 -0.3586159430844577 -1.9513376046545925 -8.866317253602086 0 0 0
3064 992 2 -0.386234149330289 -3.0803616034133623 -0.5474751492920136 0 0 0
1778 563 4 -7.326196395871926 -0.6521255109836728 -8.872425123680289 0 0 0
1789 567 2 -7.863881677695188 -0.4001309527843096 -8.298665004565498 0 0 0
1777 563 2 -6.891776828020538 -0.8980342535916208 -8.843990472697621 0 0 0
1790 567 4 -7.546329894195692 -0.36249898472062486 -8.68304073191575 0 0 0
795 235 4 -7.2440464969538745 -0.2697084655460878 -8.92511520572556 0 0 1
1779 563 4 -6.457357260169149 -1.1439429961995689 -8.815555821714954 0 0 0
245 52 4 -6.208817295498212 -1.3927662176898594 -9.045836996378027 0 0 0
63 13 3 -6.128496259237692 -1.329066940936433 -8.660718086154867 0 0 0
61 13 1 -5.969491433706339 -1.1216529080844801 -8.277316358936705 0 0 0
62 13 3 -5.515301700350025 -1.1889384349816194 -8.249310217040131 0 0 0
1560 490 4 -5.132495166684548 -1.0825475058793073 -8.265656061969178 0 0 0
767 226 4 -5.230719725775139 -1.4382134864278313 -8.10311407252669 0 0 0
65 13 3 -6.054017000897199 -0.6745475903190581 -8.296085038085227 0 0 0
1558 490 2 -4.866883006757888 -0.6722815087524374 -8.371164318043848 0 0 0
1559 490 4 -4.601270846831228 -0.2620155116255674 -8.476672574118517 0 0 0
638 183 4 -3.424190598595245 -0.03683173657538001 -8.584409327938962 0 0 0
658 190 2 -2.7306116448083255 -1.3877146456398919 -8.544321368217311 0 0 0
525 145 4 -2.551295905299184 -0.7064293922341971 -8.80352646147343 0 0 0
523 145 2 -2.82052805280568 -0.28790429484509455 -8.755041478183664 0 0 0
659 190 4 -2.403408182044263 -1.0489457342239759 -8.712171058754087 0 0 0
1674 528 4 -0.27659236895233247 -1.8010177078540979 -8.396555546018028 0 0 0
19 4 3 -8.49743193057979 -9.6582299124101 -8.161284948235355 0 0 0
17 4 3 -9.177534530422362 -9.380413368664577 -8.002607849355362 0 0 0
16 4 1 -8.778015147720295 -9.516767852318178 -7.819873841483173 0 0 0
18 4 3 -8.859076104491724 -9.866744685368916 -7.526198276249714 0 0 0
2479 797 2 -9.625979426742868 -9.590879112376998 -7.1434997381523475 1 0 0
2480 797 4 -9.185056875505767 -9.712888985721966 -7.345244365384291 1 0 0
20 4 3 -8.588090362513283 -9.16786721619582 -7.597170177216968 0 0 0
1708 540 2 -9.98802615798335 -0.4872668754127982 -7.256415924158097 0 0 0
591 167 4 -8.102317514776967 -9.529511369974955 -8.150701951996522 0 0 0
702 204 4 -6.877798660893647 -9.219912772544726 -7.913203231219876 0 0 0
589 167 2 -7.670783291613513 -9.385370100176129 -7.943333900986461 0 0 0
590 167 4 -7.239249068450058 -9.241228830377302 -7.735965849976401 0 0 0
701 204 4 -5.934699782504128 -9.110655424693059 -8.22725312776778 0 0 0
693 201 4 -5.729204087843625 -9.062653888197707 -8.5900539947932 0 0 0
721 211 2 -5.475166924339879 -9.745078625116747 -8.039825966925365 0 0 0
700 204 2 -6.4062492216988876 -9.165284098618892 -8.070228179493828 0 0 0
723 211 4 -5.6323045991268055 -9.365699774626956 -8.325096783805412 0 0 0
691 201 2 -5.4309861385535605 -8.687953423293408 -8.446298590298326 0 0 0
1785 565 4 -3.96831827562334 -9.870935108772942 -7.243630714584842 0 1 0
1783 565 2 -3.9894374550763247 -9.39777485621577 -7.083401642131484 0 1 0
758 223 4 -3.8262158098328185 -8.612032028766558 -7.058130253272281 0 0 0
1784 565 4 -4.010556634529309 -8.924614603658599 -6.923172569678126 0 1 0
757 223 2 -3.5718366951314784 -8.214428502661578 -7.223062669832992 0 0 0
3520 1144 2 -2.259641215469005 -9.76419002764676 -7.500228339253347 0 1 0
631 181 2 -2.2387496901600827 -8.600083433446136 -6.954772618496356 0 0 0
632 181 4 -2.088827860972599 -9.071448786102696 -7.027835259072945 0 0 0
3521 1144 4 -2.0392849462655476 -9.358041314767961 -7.3092143668607115 0 1 0
1749 553 4 -1.7748248949030345 -9.326655743007606 -7.028680948356899 0 1 0
581 164 4 -5.117154828141696 -7.111486901318313 -7.653970536285951 0 0 0
580 164 2 -5.0806852811379235 -7.520863546515473 -7.938717326449537 0 0 0
692 201 4 -5.132768189263496 -8.313252958389109 -8.302543185803453 0 0 0
582 164 4 -5.044215734134151 -7.930240191712634 -8.223464116613123 0 0 0
353 88 4 -5.087348293893896 -6.723962565769977 -7.686533043978626 0 0 0
461 124 4 -4.985834953347835 -6.89682725221746 -7.344692200338686 0 0 0
759 223 4 -3.3174575804301383 -7.816824976556597 -7.387995086393704 0 0 0
633 181 4 -2.3886715193475663 -8.128718080789575 -6.881709977919766 0 0 0
1071 327 4 -2.3774640270452503 -7.466353754673308 -7.986561423920113 0 0 1
762 224 4 -2.1949042973494843 -7.100333136785201 -7.981286183511068 0 0 0
25 5 3 -3.005689472714293 -7.545412964667549 -7.379821563856386 0 0 0
24 5 3 -2.3653571733806538 -7.260615386076727 -7.655075783914097 0 0 0
21 5 1 -2.570787323979898 -7.449672127261619 -7.284460077504372 0 0 0
22 5 3 -2.3506694838550626 -7.838344103058533 -7.17454087222543 0 0 0
23 5 3 -2.548203237574599 -7.157591453020024 -6.924628396330978 0 0 0
312 74 4 -2.030176491821044 -7.442387495880623 -7.784482831949003 0 0 0
760 224 2 -1.9863911315406881 -6.689950518215402 -8.176499825606617 0 0 0
521 144 4 -2.2231591137113482 -7.103954358723438 -6.697749909918801 0 0 0
520 144 2 -1.9687043058001714 -6.676355847743225 -6.746864715614373 0 0 0
310 74 2 -1.5758086291370998 -7.616912091404334 -7.670066876256381 0 0 0
311 74 4 -1.121440766453156 -7.791436686928046 -7.5556509205637585 0 0 0
2468 793 4 -0.8283617747080241 -8.026078951276588 -7.726060857733905 0 0 0
2467 793 2 -0.48883509548531284 -7.817675680143645 -8.028202729504345 0 0 0
460 124 2 -5.206081988004156 -6.779781540540248 -6.911342981920861 0 0 0
352 88 2 -5.062762206427186 -6.457073638501365 -8.1086299816656 0 0 0
761 224 4 -1.7778779657318917 -6.279567899645603 -8.371713467702167 0 0 0
3065 992 4 -0.8303464227261219 -2.860422040617345 -0.48121145383172753 0 0 0
522 144 4 -1.7142494978889948 -6.248757336763012 -6.795979521309944 0 0 0
526 146 2 -1.491417136908091 -5.626218942545489 -7.030034734214785 0 0 0
528 146 4 -1.2771591748534288 -5.18722496268713 -6.923367910206665 0 0 0
527 146 4 -1.7056750989627534 -6.06521292240385 -7.136701558222903 0 0 0
573 161 4 -1.531499416774877 -6.277456715849689 -8.667298539155388 0 0 0
624 178 4 -1.4812348567337361 -4.992681690289029 -6.631739354519918 0 0 0
416 109 4 -9.988956178667275 -3.4844248014588923 -8.442560819703244 0 0 0
555 155 4 -9.965528132235432 -3.7009735119836606 -8.072239273728602 0 0 0
279 63 4 -8.86307843213082 -4.189111326105088 -7.493451860833747 0 0 0
277 63 2 -8.489500954312 -3.9169681821784392 -7.684181977177687 0 0 0
371 94 4 -9.111547143763266 -4.218471997458892 -7.152040680420355 0 0 0
554 155 4 -9.26215933572349 -4.112595034002925 -7.4927221827778245 0 0 0
553 155 2 -9.613843733979461 -3.906784272993293 -7.782480728253213 0 0 0
370 94 2 -9.291359480562313 -4.383405766680542 -6.715618436137033 0 0 0
620 177 4 -7.871862224743394 -3.585414990903647 -8.211314181128765 0 0 0
278 63 4 -8.11592347649318 -3.6448250382517906 -7.874912093521627 0 0 0
646 186 2 -7.432704595694312 -3.427535617662399 -7.661924250493313 0 0 0
647 186 4 -6.993602924439843 -3.518490143167218 -7.4407523793357 0 0 0
626 179 4 -6.6425190677866865 -3.6312194260558037 -7.603010514648132 0 0 0
625 179 2 -6.303818475749799 -3.9986314021740705 -7.6200501378424566 0 0 0
456 122 4 -5.985779276995372 -4.564339869075941 -7.970757556571482 0 0 0
535 149 2 -5.245086579583315 -4.1964702924006 -7.931091739706568 0 0 0
627 179 4 -5.965117883712912 -4.366043378292337 -7.637089761036781 0 0 0
537 149 4 -5.63432942287856 -4.486090535413653 -7.8102193947279455 0 0 0
243 51 4 -6.639667121259686 -3.5151733923466955 -7.219748679406636 0 0 0
387 99 4 -4.453805328530041 -3.8587509793907127 -7.992543613807366 0 0 0
385 99 2 -4.279002408357427 -3.6332650820537298 -7.581934250542043 0 0 0
15 3 3 -3.1730948168023043 -3.4161942662577847 -6.720910738684395 0 0 0
611 174 4 -2.9227775809582295 -3.7188510002108655 -6.636833640948028 0 0 0
1786 566 2 -9.152564036322866 -2.161833791192652 -8.285014141123526 0 0 0
262 58 2 -8.55412261479783 -3.0943730909886966 -8.381204455318228 0 0 0
1787 566 4 -9.145787117861515 -1.734205841959383 -8.025999835706617 0 0 0
648 186 4 -7.871806266948781 -3.3365810921575796 -7.883096121650926 0 0 0
263 58 4 -8.20112768180993 -3.3660478133149008 -8.154075807777419 0 0 0
241 51 2 -6.498170000540474 -3.087204879854941 -7.003365877077608 0 0 0
289 67 2 -5.555699577539399 -2.4886191740418835 -7.014061346286734 0 0 0
290 67 4 -5.974678008819204 -2.695132811813748 -6.835710031359764 0 0 0
242 51 4 -6.356672879821263 -2.6592363673631865 -6.786983074748581 0 0 0
291 67 4 -5.136721146259594 -2.282105536270019 -7.192412661213704 0 0 0
768 226 4 -4.885717761017866 -2.0561200352274023 -7.396597872242273 0 0 0
302 71 4 -4.737443475710005 -2.232388160841374 -7.067778719976985 0 0 0
386 99 4 -4.104199488184813 -3.407779184716747 -7.171324887276719 0 0 0
301 71 2 -4.441097562730637 -2.63497170739571 -7.078054317481776 0 0 0
13 3 3 -3.757886983605364 -3.2064902074734807 -7.1462839035352195 0 0 0
303 71 4 -4.14475164975127 -3.0375552539500466 -7.088329914986566 0 0 0
11 3 1 -3.4699756283460994 -3.0811626705741912 -6.804669998654952 0 0 0
12 3 3 -3.7164971877451336 -2.998778515721896 -6.425144015643572 0 0 0
660 190 4 -3.057815107572388 -1.726483557055808 -8.376471677680534 0 0 0
252 54 4 -3.275701956459802 -2.3992671678400996 -7.202684230075799 0 0 0
250 54 2 -3.1740282447636514 -2.1008562773950787 -7.590773648655831 0 0 0
251 54 4 -3.072354533067501 -1.8024453869500578 -7.978863067235863 0 0 0
14 3 3 -3.2428174185552505 -2.694230053947086 -6.922916765692078 0 0 0
644 185 4 -3.1570387695227593 -2.324276438631731 -6.835286952918552 0 0 0
517 143 2 -0.04554959732657416 -5.721052424905103 -9.130156959257121 0 0 0
3762 1224 4 -8.74452110867874 -1.6243869980414054 -7.935182178583378 1 0 0
1367 426 4 -8.486932021274352 -0.2807560571651966 -7.738039372349846 0 0 0
3760 1224 2 -8.598693716462382 -1.1521381319490942 -7.859582045291118 1 0 0
3761 1224 4 -8.452866324246024 -0.679889265856783 -7.7839819119988585 1 0 0
1791 567 4 -8.181433461194684 -0.4377629208479945 -7.914289277215247 0 0 0
1710 540 4 -9.539559459670624 -0.273980900838326 -7.31461140125264 0 0 0
1366 426 2 -8.951109435654683 -0.12315652034580582 -7.639542093336042 0 0 0
552 154 4 -8.193696417979698 -0.49900721804203224 -7.538410353519138 0 0 0
550 154 2 -7.895995743843943 -0.31004173928895945 -7.1839158451572676 0 0 0
551 154 4 -7.598295069708188 -0.12107626053588666 -6.829421336795397 0 0 0
64 13 3 -6.171755684034699 -1.305408938785505 -7.902319166653687 0 0 0
766 226 2 -5.058218743396503 -1.7471667608276167 -7.7498559723844815 0 0 0
3222 1044 4 -1.0462254133143538 -2.9781581075253336 -0.7814207891070701 0 0 0
1568 493 4 -0.835014720482388 -0.9001709190262857 -7.441748276230185 0 0 0
494 135 4 -0.4780037020623465 -0.9747074028183209 -7.604216780508935 0 0 0
1567 493 2 -0.7581099701260372 -0.4084947692450735 -7.393372423688401 0 0 0
493 135 2 -0.22414976880293536 -1.2720068444898425 -7.915939770598712 0 0 0
2529 813 4 -9.25336615772041 -2.069012598852489 -0.10451200874238367 1 0 0
2139 683 4 -9.44055481116503 -1.7279523788803681 -0.14141278856449763 0 0 0
1402 438 2 -7.2034551118977825 -9.5855379869627 -5.610089855936405 0 1 0
1404 438 4 -7.173042585756745 -9.202503973824262 -5.290152326045426 0 1 0
393 101 4 -6.88595914324851 -8.933783609601859 -5.250932760128318 0 0 0
512 141 4 -7.202958740943747 -8.933699210489396 -5.012119150585745 0 0 0
391 101 2 -6.887817656721859 -8.523113005648039 -5.536145314157872 0 0 0
1747 553 2 -1.5786432304405587 -9.585888649911867 -6.648797999928676 0 1 0
1748 553 4 -1.3824615659780828 -9.845121556816128 -6.268915051500453 0 1 0
3692 1201 4 -1.231407898891685 -9.787034654916896 -5.924563645866937 0 1 0
3691 1201 2 -0.9772422838453516 -9.801498767312872 -5.4942258371855255 0 1 0
392 101 4 -6.889676170195209 -8.112442401694219 -5.821357868187425 0 0 0
546 152 4 -6.9628547164829095 -7.766407799137375 -5.668386962730999 0 0 0
544 152 2 -6.594630413365383 -7.448551391868235 -5.5527229365536614 0 0 0
545 152 4 -6.226406110247858 -7.130694984599095 -5.437058910376323 0 0 0
248 53 4 -5.8644663708838785 -7.067275981344575 -5.580328418745505 0 0 0
600 170 4 -5.965629791641937 -6.893437371099007 -5.243598675524412 0 0 0
247 53 2 -5.523810453979057 -6.854595995987308 -5.878188738537046 0 0 0
249 53 4 -5.183154537074237 -6.641916010630041 -6.176049058328588 0 0 0
30 6 3 -2.4722549418972704 -7.281196085642568 -6.448379508451962 0 0 0
29 6 3 -2.350908393136873 -8.02352464391354 -6.481895574430817 0 0 0
26 6 1 -2.4714021147649525 -7.668398656775419 -6.208643316787502 0 0 0
27 6 3 -2.8936249939213794 -7.744902217079715 -6.042887334761493 0 0 0
28 6 3 -2.1747771627475103 -7.634059353853432 -5.85348919515119 0 0 0
708 206 4 -2.1271022343575643 -7.330473109391044 -5.617138763005398 0 0 0
351 87 4 -1.8927278465581074 -7.370724469445662 -5.929176906749692 0 0 0
706 206 2 -2.344135744322043 -7.246606338762464 -5.1745748463369905 0 0 0
349 87 2 -1.4396422491168244 -7.496000702493386 -5.758826365733738 0 0 0
350 87 4 -0.9865566516755413 -7.621276935541109 -5.588475824717785 0 0 0
453 121 4 -0.6665575165752923 -7.587824750364259 -5.331049887886202 0 0 0
451 121 2 -0.20548711329985908 -7.484948870864567 -5.4948504881316005 0 0 0
2643 851 4 -1.0065784713435213 -7.776007345812431 -5.23577744237111 0 0 0
462 124 4 -5.426329022660477 -6.662735828863036 -6.4779937635030365 0 0 0
2628 846 4 -0.12130596216037959 -5.001936054354206 -6.124356545999563 0 0 0
2768 893 4 -0.4360906750799849 -4.7719814156013545 -5.950997003841366 0 0 0
2767 893 2 -0.6934277181790066 -4.908350712909423 -5.544572274031598 0 0 0
362 91 4 -9.384313251616614 -4.874096951653094 -6.107706138578164 0 0 0
361 91 2 -9.212073162928009 -4.833187824585687 -5.640095408193428 0 0 0
372 94 4 -9.47117181736136 -4.548339535902192 -6.279196191853711 0 0 0
363 91 4 -9.039833074239404 -4.792278697518281 -5.172484677808692 0 0 0
396 102 4 -8.911430018094203 -4.969253290966936 -4.845911177174743 0 0 0
308 73 4 -3.322373597565613 -3.7841877854080725 -5.444311313796022 0 0 0
307 73 2 -3.2992130460877376 -3.718778012693492 -5.9394730555417405 0 0 0
437 116 4 -3.4933747494930474 -3.5150984756274877 -5.22692590214763 0 0 0
615 175 4 -3.557269453819507 -3.911008044489362 -5.149662550403137 0 0 0
613 175 2 -3.8481358971626505 -4.301006810437029 -5.034347006368054 0 0 0
612 174 4 -1.9294126896856774 -3.7656858222474434 -6.531797017659603 0 0 0
610 174 2 -2.4260951353219533 -3.7422684112291544 -6.5843153293038155 0 0 0
309 73 4 -3.2760524946098624 -3.6533682399789114 -6.434634797287459 0 0 0
623 178 4 -1.7149949281861874 -4.0533378427138675 -6.380762532846334 0 0 0
764 225 4 -1.8571590615656937 -3.7470906015508305 -6.127217312753897 0 0 0
765 225 4 -1.8898566731731474 -3.6957757214847895 -5.129070204718607 0 0 0
763 225 2 -1.8735078673694205 -3.72143316151781 -5.628143758736252 0 0 0
727 213 2 -2.7215114729456804 -3.7081649146615097 -4.990413552346852 0 0 0
729 213 4 -3.2162650132354744 -3.7526041816706104 -5.047370430056284 0 0 0
728 213 4 -2.2267579326558864 -3.663725647652409 -4.93345667463742 0 0 0
622 178 2 -1.5981148924599617 -4.523009766501448 -6.506250943683126 0 0 0
299 70 4 -6.122862839695323 -2.5954431988372155 -6.470994636040832 0 0 0
298 70 2 -6.278520549281464 -2.308864377146436 -6.091991659264815 0 0 0
300 70 4 -6.434178258867606 -2.0222855554556567 -5.712988682488799 0 0 0
436 116 2 -3.6996330317992046 -3.090456073835044 -5.062194752755689 0 0 0
643 185 2 -2.9081256024688162 -2.055480782185796 -6.495005994968644 0 0 0
645 185 4 -2.659212435414873 -1.7866851257398606 -6.1547250370187365 0 0 0
446 119 4 -2.554909336069468 -1.4928820130185683 -5.870803832162105 0 0 0
734 215 4 -6.513851138066627 -1.6275247834258346 -5.72081051758061 0 0 0
733 215 2 -6.55811937856201 -1.4834980618349005 -5.244054158051789 0 0 0
434 115 4 -3.7740502025430063 -0.6772995232838934 -5.145047359093464 0 0 0
433 115 2 -3.380404026079139 -0.9728744164473531 -5.057422189841093 0 0 0
445 119 2 -2.3513755615348653 -1.4868759560685294 -5.414144298260164 0 0 0
714 208 4 -0.20122078930273823 -0.28465185187865183 -5.0779925484072255 0 0 0
712 208 2 -0.6360222318807782 -0.29837729504504373 -4.831498496264365 0 0 0
530 147 4 -7.067007609498315 -9.216646898220226 -3.9402730001983928 0 0 0
513 141 4 -7.420517114716447 -9.057673119522283 -4.043977206509378 0 0 0
511 141 2 -7.311737927830097 -8.99568616500584 -4.528048178547562 0 0 0
529 147 2 -7.175762173220398 -9.335679442758229 -3.4669827106187756 0 0 0
3693 1201 4 -0.7230766687990182 -9.815962879708847 -5.063888028504114 0 1 0
871 261 2 -1.3681620760960593 -8.459515522260398 -3.944597566145825 0 0 0
3732 1214 4 -0.741825409703224 -9.73865123900247 -4.652731315354092 0 1 0
3730 1214 2 -0.744557813596901 -9.253157276855058 -4.53319827938784 0 1 0
3731 1214 4 -0.7472902174905776 -8.767663314707645 -4.413665243421588 0 1 0
873 261 4 -0.923572776155652 -8.52222710295004 -4.164614865524241 0 0 0
3758 1223 4 -0.5600300214467473 -8.574545656545897 -4.134947380155269 0 1 0
2642 851 4 -0.743889274736225 -8.346572655962817 -4.457671014663986 0 0 0
3757 1223 2 -0.16542683567628236 -8.452249122279511 -3.8532882182482315 0 1 0
515 142 4 -2.111589466553337 -8.38039968512274 -3.4880706348911183 0 0 0
872 261 4 -1.8127513760364664 -8.396803941570756 -3.724580266767409 0 0 0
707 206 4 -2.561169254286522 -7.162739568133884 -4.732010929668583 0 0 0
697 203 2 -2.282360486204552 -7.779565121386148 -4.120956796686994 0 0 0
698 203 4 -2.441212943141822 -7.4509690470153025 -4.462703072208595 0 0 0
699 203 4 -2.1235080292672817 -8.108161195756994 -3.779210521165394 0 0 0
405 105 4 -2.6875622522874654 -7.119084312864478 -4.366647754091866 0 0 0
403 105 2 -2.973674888594939 -6.890140256299175 -4.026465187947399 0 0 0
684 198 4 -1.8641923422592657 -8.056119270983396 -3.4942124037296924 0 0 0
2641 851 2 -0.8752338730398732 -8.061290000887624 -4.846724228517548 0 0 0
394 102 2 -8.501820532793188 -5.183983838488932 -4.655882596397453 0 0 0
749 220 4 -7.137111077650348 -6.0917351252068865 -3.873100231950288 0 0 0
748 220 2 -7.4998967254827 -5.774382573999502 -4.006043573149006 0 0 0
345 85 4 -6.806963225055074 -6.248751727290119 -3.7697806672196994 0 0 0
395 102 4 -8.092211047492173 -5.398714386010928 -4.465854015620163 0 0 0
750 220 4 -7.862682373315052 -5.457030022792118 -4.138986914347724 0 0 0
598 170 2 -5.953847990106673 -6.5112776776971035 -4.921395078568037 0 0 0
599 170 4 -5.942066188571409 -6.1291179842952 -4.599191481611662 0 0 0
344 85 4 -6.029362781983966 -5.858035885915252 -4.262404948223532 0 0 0
497 136 4 -5.670674839125483 -6.006292683073447 -4.360781105181616 0 0 0
343 85 2 -6.4181630035195205 -6.053393806602686 -4.016092807721615 0 0 0
496 136 2 -5.229027065055304 -5.932903029916805 -4.138157650738061 0 0 0
498 136 4 -4.7873792909851245 -5.8595133767601615 -3.915534196294507 0 0 0
402 104 4 -4.636552767263372 -5.700805414064133 -3.5826103656716466 0 0 0
474 128 4 -4.485876058245407 -5.602381420640091 -3.948206083507058 0 0 0
320 77 4 -4.416055133172156 -5.9591522779203725 -3.800292050752148 0 0 0
319 77 2 -3.954239478865438 -6.132862269938789 -3.719352937153814 0 0 0
321 77 4 -3.492423824558719 -6.306572261957205 -3.6384138235554797 0 0 0
472 128 2 -4.393811292093749 -5.237979913430743 -4.277956929414964 0 0 0
404 105 4 -3.2597875249024124 -6.6611961997338724 -3.686282621802932 0 0 0
306 72 4 -3.1062181996216855 -6.329556462136625 -3.528662475709975 0 0 0
541 151 2 -2.1227910978006075 -5.301178069263787 -3.978638040875032 0 0 0
304 72 2 -2.8516178668449257 -5.916636922315796 -3.4075174213978148 0 0 0
543 151 4 -1.8898570269497712 -5.311507007860767 -4.420944531516962 0 0 0
542 151 4 -2.3557251686514435 -5.290849130666808 -3.5363315502331014 0 0 0
119 24 3 -0.8851356327848312 -5.313032642890034 -4.104735516906761 0 0 0
116 24 1 -1.075183705325698 -5.114013466627771 -4.478330347710819 0 0 0
118 24 3 -0.9309219543196425 -5.329373696716369 -4.863179043295166 0 0 0
120 24 3 -1.5293402287472184 -5.133179912308077 -4.450500514908973 0 0 0
366 92 4 -9.26561777176669 -4.733998851657328 -4.841476102354389 0 0 0
364 92 2 -9.579025538562712 -4.593774281706858 -4.4780030748898305 0 0 0
365 92 4 -9.892433305358734 -4.453549711756387 -4.114530047425272 0 0 0
473 128 4 -4.30174652594209 -4.8735784062213945 -4.60770777532287 0 0 0
614 175 4 -4.139002340505794 -4.691005576384695 -4.919031462332971 0 0 0
752 221 4 -1.8604282827735765 -3.6518918889491956 -4.7595211340854355 0 0 0
420 110 4 -2.0027819638766835 -3.9950288933627225 -4.8935139480680965 0 0 0
418 110 2 -1.9316835143795659 -4.460017967479046 -4.724014179833793 0 0 0
716 209 4 -3.0069467967870973 -4.245618618238255 -3.502641931490778 0 0 0
419 110 4 -1.8605850648824487 -4.925007041595369 -4.55451441159949 0 0 0
2769 893 4 -0.9507647612780283 -5.044720010217491 -5.138147544221829 0 0 0
117 24 3 -0.9429026938234697 -4.673790209284724 -4.495800828252111 0 0 0
1382 431 4 -9.053336317191366 -1.7549134045104873 -0.27191164161502657 0 0 0
501 137 4 -8.755023684453315 -2.502865767057998 -4.533939214009454 0 0 0
547 153 2 -9.58962550601335 -2.740909167259281 -4.611852238396571 0 0 0
548 153 4 -9.162388652255903 -2.510765171108469 -4.491426278458673 0 0 0
499 137 2 -8.452697828918238 -2.1077253796210966 -4.484309069023599 0 0 0
500 137 4 -8.15037197338316 -1.7125849921841951 -4.434678924037744 0 0 0
406 106 2 -5.248549855523441 -2.1533069430664735 -3.6918592476590253 0 0 0
407 106 4 -4.921462195122842 -2.526896238028427 -3.633167671575287 0 0 0
438 116 4 -3.9058913141053617 -2.6658136720426 -4.8974636033637475 0 0 0