LAMMPS data file via write_data, version 27 Jun 2024, timestep = 3000000, units = lj

4590 atoms
4 atom types
3090 bonds
1 bond types

-9.99857 9.99857 xlo xhi
-9.99857 9.99857 ylo yhi
-9.99857 9.99857 zlo zhi

Masses

1 1
2 1
3 0.5
4 0.5

Bond Coeffs # zero

1 0

Atoms # bond

662 191 4 -0.32418024789257843 -0.06211011323051458 -1.0401413026934425 0 0 0
1667 526 4 -7.953747261211318 -8.942337749725766 -8.809569523779407 0 1 0
1666 526 2 -7.810890854984915 -9.42032379886287 -8.776082451200967 0 1 0
702 204 4 -7.910373354858618 -8.772720256592399 -9.180967821791688 0 0 0
381 97 4 -8.042843576319838 -8.564153545300709 -8.872315469061789 0 0 0
700 204 2 -8.05067745968453 -8.627921733626781 -9.638513607387042 0 0 0
1668 526 4 -7.668034448758513 -9.898309847999975 -8.742595378622527 0 1 0
3352 1088 2 -9.995569497771173 -3.896237603555241 -0.5122791084726112 1 0 0
1564 492 2 -5.84819282380212 -9.396697412217277 -8.644404215154001 0 1 0
1565 492 4 -5.547168147966481 -9.010045476147562 -8.54498377021728 0 1 0
1566 492 4 -6.149217499637759 -9.783349348286992 -8.743824660090722 0 1 0
556 156 2 -4.017887050995602 -9.379918842683422 -9.595210992061137 0 0 0
558 156 4 -3.6140083004935826 -9.330476650698492 -9.30462980797505 0 0 0
1783 565 2 -3.6595155176239684 -9.124370466472218 -8.626026234983977 0 1 0
1784 565 4 -3.389877349032113 -9.220614219532857 -9.035943785273696 0 1 0
557 156 4 -4.421765801497622 -9.429361034668352 -9.885792176147223 0 0 0
296 69 4 -4.564793189774703 -9.791194053419012 -9.693646554839388 0 0 0
1541 484 4 -3.3131010506815888 -9.536221323627714 -9.191803484458044 0 1 0
665 192 4 -3.2293369112219126 -9.223597719853597 -9.369965581640617 0 0 0
1827 579 4 -3.0335778076952122 -9.328520757985716 -9.081729042319779 0 1 0
1825 579 2 -2.6022577137064906 -9.247056370527407 -8.842299449124509 0 1 0
1826 579 4 -2.170937619717769 -9.165591983069097 -8.602869855929239 0 1 0
746 219 4 -1.810799539570933 -9.033820743539078 -8.715499068930612 0 0 0
664 192 2 -2.9927380755417463 -9.06237821708746 -9.779879307786333 0 0 0
745 219 2 -1.597747363842247 -8.916027076136212 -9.152229446093727 0 0 0
747 219 4 -1.384695188113561 -8.798233408733346 -9.588959823256843 0 0 0
771 227 4 -1.5295646544178052 -8.838061342044732 -9.931249996095508 0 0 0
2553 821 4 -1.159527921831219 -8.846552781310685 -9.875769961796466 0 0 0
2551 821 2 -0.7159690271936461 -9.07694920969044 -9.888922633686322 0 0 0
661 191 2 -0.6389474335097346 -0.0887125754262062 -0.6525668867888954 0 0 0
2552 821 4 -0.272410132556073 -9.307345638070196 -9.90207530557618 0 0 0
1014 308 4 -1.3438141743053966 -8.529029160403727 -9.848230114008656 0 0 1
3409 1107 2 -9.052079294920343 -6.824467854613852 -8.832409003676087 1 0 1
3233 1048 4 -9.026316003508631 -6.951417980528322 -9.562028216289796 1 0 1
3232 1048 2 -9.127022957886066 -7.275325779021127 -9.929372533539341 1 0 1
2758 890 2 -9.80632375625613 -8.171432845636481 -9.964624017973444 1 0 0
3411 1107 4 -9.094328082168255 -6.978073043209421 -8.358467566352466 1 0 1
379 97 2 -7.922909747250663 -8.241254949789445 -8.50988978887119 0 0 0
237 49 4 -6.629478376465267 -6.957046928725096 -8.364948816799071 0 0 0
254 55 4 -5.529786632642397 -7.467584273826752 -9.008301211904179 0 0 0
236 49 4 -5.7730794588280006 -7.172194916454397 -8.83430181534629 0 0 0
235 49 2 -6.201278917646634 -7.0646209225897465 -8.59962531607268 0 0 0
253 55 2 -5.134516900487616 -7.248867541117259 -8.794000419383128 0 0 0
255 55 4 -4.7392471683328345 -7.030150808407766 -8.579699626862077 0 0 0
566 159 4 -4.464168095278424 -6.841325391566368 -8.756834832564174 0 0 0
967 293 2 -3.314306831798144 -7.210357046424339 -9.835952239791386 0 0 1
968 293 4 -3.4217189551084735 -6.7647243249968465 -9.636267204400925 0 0 1
588 166 4 -0.22746460301246524 -0.0425114728523662 -1.392593864265463 0 0 0
3410 1107 4 -9.009830507672431 -6.670862666018283 -9.306350440999708 1 0 1
3135 1015 4 -9.268732468049114 -6.67323792806245 -9.563790655607294 1 0 1
1125 345 4 -8.904701217900474 -6.619458331358343 -9.658476470399863 0 0 1
1123 345 2 -8.503480025848464 -6.3210939270247035 -9.657989361681889 0 0 1
3133 1015 2 -9.581472772503565 -6.307706404802609 -9.700099890339143 1 0 1
3134 1015 4 -9.894213076958016 -5.942174881542767 -9.836409125070992 1 0 1
1124 345 4 -8.102258833796455 -6.022729522691064 -9.657502252963914 0 0 1
555 155 4 -7.9015246900387215 -5.74228883326206 -9.46019905731546 0 0 0
553 155 2 -7.610326175447772 -5.380552047851944 -9.645536380004396 0 0 0
554 155 4 -7.319127660856822 -5.018815262441829 -9.830873702693331 0 0 0
565 159 2 -4.0697843624170345 -6.77212155931879 -9.056288169257233 0 0 0
567 159 4 -3.6754006295556447 -6.7029177270712115 -9.355741505950292 0 0 0
358 90 2 -3.6499156207794066 -6.026315589790113 -9.844889888189856 0 0 0
359 90 4 -3.5819473810200058 -6.436602049525769 -9.567319465880246 0 0 0
461 124 4 -4.6398008661724734 -6.686407941995786 -8.478868863326667 0 0 0
1274 395 4 -3.3325776967623773 -6.5767798445356185 -9.330483078686537 0 0 1
1273 395 2 -2.8892869684414437 -6.381704070367064 -9.206230221507115 0 0 1
1275 395 4 -2.44599624012051 -6.186628296198509 -9.081977364327692 0 0 1
4 1 3 -2.6995124977103186 -0.23968205747622362 -2.68841032511656 0 0 0
352 88 2 -5.46528426849715 -4.255008286763249 -8.636140008789907 0 0 0
354 88 4 -5.247074875824351 -4.040207435716929 -9.031418714691622 0 0 0
756 222 4 -5.084506248426755 -3.732622966893609 -9.244031821233516 0 0 0
356 89 4 -4.89740868719643 -4.110614714334426 -9.227094128530702 0 0 0
355 89 2 -4.5020244808743906 -4.1243116828036746 -9.532845207752956 0 0 0
1069 327 2 -3.492610654466701 -3.6884153890021785 -9.842427258954247 0 0 1
357 89 4 -4.106640274552351 -4.138008651272923 -9.83859628697521 0 0 0
398 103 4 -6.465550672350345 -9.96864263559281 -4.331242809493496 0 0 0
620 177 4 -6.934568529537824 -2.7925418450579893 -9.818806232383505 0 0 0
456 122 4 -6.597774991199786 -2.7426849231427024 -9.580642342118379 0 0 0
293 68 4 -6.643522580190012 -2.5532313318977824 -9.937341733867804 0 0 0
454 122 2 -6.4052953737033045 -2.60751421811924 -9.139416235284443 0 0 0
455 122 4 -6.212815756206823 -2.472343513095778 -8.698190128450507 0 0 0
541 151 2 -5.465085916457548 -2.3673566783694504 -8.671543573526142 0 0 0
542 151 4 -5.929348084314464 -2.2669490281423976 -8.51540599549728 0 0 0
626 179 4 -6.170239496476416 -2.514334132528226 -8.286640585765022 0 0 0
543 151 4 -5.000823748600633 -2.467764328596503 -8.827681151555003 0 0 0
754 222 2 -4.986311346045715 -3.2579647241167122 -9.121323574933148 0 0 0
755 222 4 -4.888116443664676 -2.783306481339815 -8.99861532863278 0 0 0
252 54 4 -4.848112155320865 -2.449024593041771 -9.147753446446199 0 0 0
250 54 2 -4.823181904417772 -2.1385741810081105 -9.538904343489717 0 0 0
611 174 4 -4.652347550786839 -2.5418283172011313 -8.84422505227723 0 0 0
610 174 2 -4.200987270037248 -2.4920153451752913 -8.634958321095311 0 0 0
251 54 4 -4.798251653514678 -1.8281237689744503 -9.930055240533235 0 0 0
324 78 4 -3.39742583036248 -2.5657340268763287 -8.597767130629778 0 0 0
612 174 4 -3.7496269892876573 -2.4422023731494513 -8.425691589913393 0 0 0
1070 327 4 -3.213271130993758 -3.309520367150177 -9.67388055017121 0 0 1
12 3 3 -3.4225023198579376 -2.2104784117293668 -8.409302597984931 0 0 0
322 78 2 -3.2224035042827843 -2.867525062490442 -8.955942166326736 0 0 0
323 78 4 -3.047381178203089 -3.169316098104555 -9.314117202023693 0 0 0
1438 450 2 -5.936721649409211 -0.7245613429370639 -8.836815677141876 0 0 0
1440 450 4 -5.712340432577385 -0.7199020768974719 -9.283616931362259 0 0 0
242 51 4 -5.469783856647824 -0.7440225269644505 -9.579077585425916 0 0 0
241 51 2 -5.167012384169203 -1.1091394535852974 -9.737251746867924 0 0 0
1692 534 4 -5.510121333198283 -0.4302964407168539 -9.405319285940232 0 0 0
1690 534 2 -5.485327464930261 -0.08131650524276485 -9.762528284613397 0 0 0
609 173 4 -4.521799385483085 -1.6089317273241466 -9.898301602490793 0 0 0
243 51 4 -4.864240911690581 -1.4742563802061444 -9.895425908309933 0 0 0
607 173 2 -4.1209431631837585 -1.3162717581914045 -9.95883615056603 0 0 0
15 3 3 -3.7453260096237857 -1.5386498493284522 -8.371470758651174 0 0 0
525 145 4 -3.5471284856220446 -0.6598350902050256 -9.978857075711023 0 0 0
671 194 4 -2.4653319364073862 -0.5134492353557004 -9.315210424453017 0 0 0
524 145 4 -2.822429582096736 -0.4749483469558262 -9.315058618797604 0 0 0
387 99 4 -2.6843240674818976 -0.6453932697237639 -9.046128414485493 0 0 0
659 190 4 -2.600456311555977 -0.2831177148349989 -9.061937843349492 0 0 0
385 99 2 -2.826742368883957 -0.9389141935712356 -8.667231997651465 0 0 0
670 194 2 -2.000278890163589 -0.6903941361941376 -9.364364938451859 0 0 0
523 145 2 -3.1847790338593907 -0.567391718580426 -9.646957847254313 0 0 0
562 158 2 -0.7892672905900475 -0.5794076244853373 -9.78498297983202 0 0 0
564 158 4 -1.2513730688801021 -0.6482501746872956 -9.606884824445046 0 0 0
672 194 4 -1.5352258439197912 -0.8673390370325746 -9.4135194524507 0 0 0
2506 806 2 -0.22720423165158454 -0.8648798122106669 -1.2796671834692872 0 0 0
17 4 3 -7.575785443789596 -8.443093559982977 -7.6389099307233845 0 0 0
674 195 4 -6.749974913899377 -9.720968023168432 -6.799774587349155 0 0 0
1538 483 4 -7.138567631667385 -9.765676676064356 -6.671650362751357 0 1 0
1537 483 2 -7.492833731262597 -9.966398944449816 -6.9618332389715825 0 1 0
1505 472 4 -5.259066536236905 -9.122674321555767 -8.303845700570552 0 1 0
450 120 4 -5.532861958990976 -8.846349922911202 -8.159854253441956 0 0 0
448 120 2 -5.750171250391739 -8.81212054890802 -7.7108497748157445 0 0 0
675 195 4 -6.186547130919795 -8.919659293648095 -7.000905026021771 0 0 0
449 120 4 -5.9674805417925025 -8.777891174904838 -7.261845296189533 0 0 0
692 201 4 -5.882003359902229 -8.747830044032694 -6.896192345539204 0 0 0
673 195 2 -6.468261022409586 -9.320313658408264 -6.900339806685463 0 0 0
578 163 4 -6.148829419989115 -8.551030458823965 -7.0405875115954215 0 0 0
691 201 2 -5.49651276543099 -8.529933688759119 -6.663989460258536 0 0 0
577 163 2 -6.531194339654637 -8.233851347940758 -7.0971072411470795 0 0 0
1785 565 4 -3.929153686215824 -9.028126713411579 -8.216108684694257 0 1 0
1504 472 2 -4.774581235271141 -9.033236306259319 -8.218553059809823 0 1 0
1506 472 4 -4.290095934305376 -8.94379829096287 -8.133260419049094 0 1 0
1828 580 2 -4.041799484772801 -9.664784655059705 -7.748047008006349 0 1 0
1829 580 4 -4.1067949640421375 -9.210048736422664 -7.945507971176418 0 1 0
653 188 4 -4.01500014913229 -8.850173830463177 -7.905990172967735 0 0 0
652 188 2 -4.022628055974611 -8.383452709615268 -7.726788581480214 0 0 0
2797 903 2 -9.53181720426286 -7.695617086206868 -8.223968236577287 1 0 0
2799 903 4 -9.245126266950967 -7.286088183575604 -8.233683398584846 1 0 0
591 167 4 -8.9185557890383 -7.174858619188955 -8.102654744124546 0 0 0
2624 845 4 -9.236078126960427 -6.984262061688213 -8.019075115443144 1 0 0
589 167 2 -8.46565511735664 -7.3835531288332135 -8.066218728502827 0 0 0
423 111 4 -6.923025768331247 -6.8526946789054515 -8.081293546844496 0 0 0
421 111 2 -7.2770218777852 -7.202698511518434 -8.128027599179061 0 0 0
380 97 4 -7.802975918181488 -7.918356354278181 -8.147464108680591 0 0 0
422 111 4 -7.631017987239153 -7.552702344131416 -8.174761651513627 0 0 0
590 167 4 -8.01275444567498 -7.592247638477472 -8.029782712881108 0 0 0
20 4 3 -7.675585090424558 -7.724061385822074 -7.812209564461517 0 0 0
18 4 3 -8.073412854485953 -8.0331314412604 -7.252648333697566 0 0 0
16 4 1 -7.663565413673849 -8.024323246101766 -7.470013213469163 0 0 0
19 4 3 -7.327956150582094 -7.909917423611352 -7.170717823749229 0 0 0
545 152 4 -7.137114505971442 -7.882971526649867 -6.789650024556238 0 0 0
579 163 4 -6.91355925932016 -7.9166722370575515 -7.153626970698737 0 0 0
572 161 4 -4.433329665869066 -6.994527539531347 -8.386115874687487 0 0 0
580 164 2 -4.6098757539309405 -7.858046455346096 -6.950097641020005 0 0 0
573 161 4 -4.236327762819511 -7.60922409922545 -7.622349948703547 0 0 0
582 164 4 -4.2527505107417145 -7.7551297438051465 -7.284566938807535 0 0 0
624 178 4 -3.9297524482818975 -7.594108795121117 -7.420120786702198 0 0 0
654 188 4 -4.030255962816931 -7.916731588767358 -7.547586989992693 0 0 0
571 161 2 -4.3348287143442885 -7.301875819378399 -8.004232911695517 0 0 0
622 178 2 -3.617658511336417 -7.280782017813895 -7.186831898959214 0 0 0
623 178 4 -3.305564574390936 -6.9674552405066725 -6.95354301121623 0 0 0
2623 845 2 -9.20345333245244 -6.6784953825187845 -7.624813323364668 1 0 0
2625 845 4 -9.170828537944454 -6.372728703349356 -7.230551531286191 1 0 0
362 91 4 -8.879786439150944 -6.160429274110668 -7.187418188837825 0 0 0
2615 842 4 -9.203568803742582 -6.032528482855257 -7.087891047203832 1 0 0
395 102 4 -9.016160363813206 -6.310925688589516 -6.90278793905118 0 0 0
2614 842 2 -9.6397234082931 -5.78877741232507 -7.069060844212551 1 0 0
361 91 2 -8.47048391532049 -5.901107255046446 -7.310801876635594 0 0 0
475 129 2 -6.745329350737478 -6.120792706453007 -8.244387659588947 0 0 0
737 216 4 -6.774014207748506 -5.2533839216698865 -8.286915045827635 0 0 0
338 83 4 -7.159855712946703 -5.356609182774488 -8.20217390987782 0 0 0
363 91 4 -8.061181391490035 -5.641785235982224 -7.434185564433363 0 0 0
337 83 2 -7.4776069218681585 -5.353924685356674 -7.816133804833648 0 0 0
339 83 4 -7.795358130789614 -5.35124018793886 -7.430093699789477 0 0 0
477 129 4 -6.884031592701534 -5.643993098049528 -8.302901089674917 0 0 0
476 129 4 -6.606627108773422 -6.597592314856486 -8.185874229502977 0 0 0
283 65 2 -5.313833018946611 -5.13006539055781 -7.961626465385331 0 0 0
284 65 4 -4.965165453823193 -5.481406818232776 -7.890985611553765 0 0 0
462 124 4 -4.977322363176977 -5.872001861056234 -8.006828637934955 0 0 0
279 63 4 -4.656610868728823 -5.715440862497721 -7.811614983487152 0 0 0
460 124 2 -4.808561614674725 -6.27920490152601 -8.242848750630811 0 0 0
277 63 2 -4.408046562572937 -5.716733201464315 -7.377778475612269 0 0 0
278 63 4 -4.159482256417052 -5.718025540430909 -6.943941967737386 0 0 0
307 73 2 -3.628873845934558 -6.153479255053379 -6.760507415357937 0 0 0
309 73 4 -3.852950101241105 -5.707627943409145 -6.728782981350741 0 0 0
630 180 4 -4.103158272133823 -5.433050718678487 -6.719802964243254 0 0 0
308 73 4 -3.404797590628011 -6.599330566697613 -6.792231849365133 0 0 0
646 186 2 -6.84350798713203 -3.3641386356766803 -7.175103055300801 0 0 0
648 186 4 -7.302388629570963 -3.3916695965030246 -6.978454632497705 0 0 0
353 88 4 -5.6834936611699485 -4.469809137809568 -8.240861302888193 0 0 0
736 216 2 -6.380631128642 -4.953731685005843 -8.213034803984733 0 0 0
738 216 4 -5.987248049535495 -4.654079448341799 -8.139154562141831 0 0 0
647 186 4 -6.384627344693097 -3.336607674850336 -7.3717514781038975 0 0 0
537 149 4 -6.187634610092588 -3.6150980029974793 -7.488218064344286 0 0 0
536 149 4 -5.791436477919693 -4.434791773942212 -7.901895670622235 0 0 0
285 65 4 -5.662500584070029 -4.778723962882844 -8.032267319216897 0 0 0
535 149 2 -5.989535544006141 -4.024944888469846 -7.6950568674832605 0 0 0
627 179 4 -6.152404061186541 -3.2963153408313675 -7.663593808139726 0 0 0
264 58 4 -7.358351526405026 -3.0517692018768465 -6.817581209338455 0 0 0
625 179 2 -6.1613217788314785 -2.9053247366797965 -7.975117196952374 0 0 0
11 3 1 -3.448405412417578 -1.818760621019258 -8.169539793870754 0 0 0
740 217 4 -3.435983883859091 -2.532772187800959 -8.19925004876808 0 0 0
13 3 3 -3.590245773240894 -1.915801890253204 -7.738535960817468 0 0 0
739 217 2 -3.299636124784873 -2.8748002511254738 -7.860980788423236 0 0 0
741 217 4 -3.1632883657106547 -3.216828314449989 -7.522711528078392 0 0 0
728 213 4 -1.9002912936233698 -2.0852651224418115 -8.07413338172872 0 0 0
727 213 2 -2.2845585191134417 -1.7695230499735595 -8.125569196953034 0 0 0
1791 567 4 -9.987300608070518 -0.899204253732135 -6.940195398482889 0 0 0
1789 567 2 -9.91959999649118 -0.4543288174017802 -7.158146019821075 0 0 0
1758 556 4 -9.920534178016064 -1.1240707532049552 -6.6098640505035275 0 0 0
1439 450 4 -6.1611028662410385 -0.7292206089766557 -8.390014422921492 0 0 0
1619 510 4 -6.043520131886429 -0.4061477359296215 -8.179085052318323 0 0 0
1618 510 2 -6.4537924940977005 -0.2372245220031296 -7.9485605707497005 0 0 0
386 99 4 -2.9691606702860165 -1.2324351174187074 -8.288335580817437 0 0 0
729 213 4 -2.6688257446035135 -1.4537809775053074 -8.177005012177348 0 0 0
14 3 3 -3.0282757400401326 -1.6221715813189221 -8.157547802486114 0 0 0
302 71 4 -2.9221933189739997 -1.3163159953825794 -7.933478170862803 0 0 0
301 71 2 -2.9270869600442695 -0.9661190027291598 -7.576633500714489 0 0 0
303 71 4 -2.9319806011145393 -0.6159220100757403 -7.219788830566174 0 0 0
1559 490 4 -3.036280628549749 -0.26498732333109365 -7.087367763420304 0 0 0
291 67 4 -3.0940259728043547 -0.5528086975855138 -6.87896457094979 0 0 0
638 183 4 -2.750738549898363 -0.3968803559803701 -6.934370715891131 0 0 0
598 170 2 -8.709435200396902 -8.417878969950184 -5.146769187434311 0 0 0
1464 458 4 -6.8713118024147 -9.916607305620174 -6.484427397570282 0 1 0
600 170 4 -8.25354931675982 -8.612681295879264 -5.081806775897436 0 0 0
723 211 4 -7.918441057776192 -8.412419038468322 -5.1396624155798065 0 0 0
479 130 4 -0.28444251709025 -9.673353686325 -5.349738223970128 0 0 0
759 223 4 -0.49511601510148784 -9.848922822263244 -5.589878464461015 0 0 0
757 223 2 -0.9757241552892305 -9.937455880074292 -5.695603169521323 0 0 0
549 153 4 -9.968463819093552 -0.6320247447453522 -2.947487674474231 0 0 0
2798 903 4 -9.818508141574751 -8.105145988838132 -8.214253074569728 1 0 0
478 130 2 -0.32004574711929706 -9.256702608622165 -5.075631876979755 0 0 0
1761 557 4 -0.13751099959807 -9.798483186453195 -5.661709775812805 0 1 0
511 141 2 -9.047967442755594 -7.505147795820151 -5.640269778265688 0 0 0
513 141 4 -9.27273681525256 -7.928635244009517 -5.498364491494915 0 0 0
512 141 4 -8.823198070258627 -7.081660347630785 -5.782175065036462 0 0 0
393 101 4 -8.512113109088432 -6.891304698849656 -5.958430966711561 0 0 0
396 102 4 -8.847477132620629 -6.819002375570919 -6.058155446389355 0 0 0
531 147 4 -9.307093741947162 -7.8513588778635635 -5.102788511163763 0 0 0
599 170 4 -9.165321084033984 -8.223076644021104 -5.211731598971185 0 0 0
544 152 2 -7.25380312247804 -7.694559088251064 -6.341448596809434 0 0 0
391 101 2 -8.084280961609368 -7.123932550527403 -5.845099875623657 0 0 0
546 152 4 -7.370491738984637 -7.506146649852262 -5.8932471690626285 0 0 0
721 211 2 -7.699740881176754 -8.013319848474103 -5.346761593031767 0 0 0
722 211 4 -7.481040704577315 -7.614220658479882 -5.553860770483727 0 0 0
392 101 4 -7.656448814130304 -7.35656040220515 -5.7317687845357534 0 0 0
404 105 4 -7.300157911327836 -7.305243672092249 -5.583239500120041 0 0 0
403 105 2 -6.896743148548908 -7.126972528939212 -5.347706214381655 0 0 0
693 201 4 -5.1110221709597505 -8.312037333485543 -6.431786574977869 0 0 0
405 105 4 -6.49332838576998 -6.948701385786174 -5.112172928643269 0 0 0
581 164 4 -4.9670009971201665 -7.960963166887045 -6.6156283432324745 0 0 0
708 206 4 -3.1646358851585634 -6.882055335434997 -6.6153250839116025 0 0 0
706 206 2 -3.0647105557415024 -6.950771517558954 -6.1302549705721034 0 0 0
707 206 4 -2.9647852263244414 -7.019487699682911 -5.645184857232604 0 0 0
310 74 2 -2.1010247323671187 -7.0648625747488225 -5.452726574090254 0 0 0
311 74 4 -2.6003447932824395 -7.040299783002205 -5.444000404871895 0 0 0
764 225 4 -2.9386872160576636 -7.1199575396930594 -5.26084055718719 0 0 0
312 74 4 -1.601704671451798 -7.08942536649544 -5.461452743308612 0 0 0
23 5 3 -1.2299796463558883 -7.094570840905218 -5.604878414785807 0 0 0
24 5 3 -0.6146207625822063 -7.308648892356251 -5.213593311507337 0 0 0
21 5 1 -1.0155704423383212 -7.07595221440633 -5.193804163609925 0 0 0
744 218 4 -0.5323157252121868 -7.497100518910783 -4.835306947956738 0 0 0
394 102 2 -8.931818748216918 -6.564964032080217 -6.4804716927202675 0 0 0
628 180 2 -4.125047560646957 -5.314296226835922 -6.234603799244571 0 0 0
629 180 4 -4.146936849160092 -5.195541734993358 -5.749404634245888 0 0 0
22 5 3 -0.9273815566989136 -6.636143190543806 -5.091869169722939 0 0 0
415 109 2 -8.37813455339999 -1.9229154583261174 -6.108494137305553 0 0 0
417 109 4 -8.044008010576723 -2.2941151392448886 -6.132374050764872 0 0 0
262 58 2 -7.603561110539442 -2.8313171400598174 -6.4417180051148 0 0 0
263 58 4 -7.848770694673857 -2.6108650782427882 -6.065854800891145 0 0 0
704 205 4 -7.806578314296661 -2.2965823379319654 -5.856313867741768 0 0 0
703 205 2 -7.585900244386978 -2.425344090808741 -5.426521359132365 0 0 0
705 205 4 -7.365222174477295 -2.554105843685516 -4.9967288505229615 0 0 0
2494 802 2 -2.196400966135216 -2.0316866990737488 -5.152560363233708 0 0 0
2496 802 4 -2.541857198911176 -2.3835268325280734 -5.235436847999282 0 0 0
107 22 3 -1.0509875815973482 -2.088456632795914 -5.572184566603571 0 0 0
106 22 1 -1.108813498864547 -1.838939249521826 -5.190088716408507 0 0 0
416 109 4 -8.712261096223257 -1.5517157774073462 -6.084614223846234 0 0 0
2463 791 4 -8.867987225567376 -1.2447867150397074 -5.922676445265141 1 0 0
1757 556 4 -9.048618094786365 -1.400169181969791 -6.205473148728408 0 0 0
2461 791 2 -8.963036618625672 -1.2507755259753999 -5.431830494866347 1 0 0
1756 556 2 -9.484576136401214 -1.262119967587373 -6.407668599615968 0 0 0
1775 562 4 -6.459568308604936 -0.6089016560266365 -5.621640225322911 0 0 0
413 108 4 -6.170304048767506 -0.6511212330408657 -5.347944750077565 0 0 0
1774 562 2 -6.500250268045484 -0.1656322540226191 -5.849362019235625 0 0 0
412 108 2 -6.024640531266745 -1.096040097084225 -5.172361880504168 0 0 0
768 226 4 -3.858917867174281 -1.0202529226768644 -5.996920640101879 0 0 0
766 226 2 -4.104516879852874 -1.151936118343598 -5.5817813129468075 0 0 0
290 67 4 -3.8671355957139335 -0.9498583469454476 -6.384340383402398 0 0 0
289 67 2 -3.480580784259144 -0.7513335222654807 -6.631652477176094 0 0 0
637 183 2 -2.325334956387463 -0.47438921164441594 -6.683324584828243 0 0 0
639 183 4 -1.8999313628765624 -0.5518980673084618 -6.432278453765356 0 0 0
596 169 4 -1.7836836195177477 -1.4467773316198105 -5.396338136537223 0 0 0
595 169 2 -1.8325227138021012 -1.1159524082942478 -5.768049870244905 0 0 0
597 169 4 -1.8813618080864547 -0.7851274849686851 -6.139761603952587 0 0 0
110 22 3 -0.7688436750359686 -1.5380091974558825 -5.154569388577265 0 0 0
108 22 3 -1.5151285552890459 -1.6164077919689053 -5.216315140529231 0 0 0
230 47 4 -1.6692110154980782 -0.451740123280467 -6.149072534623743 0 0 0
229 47 2 -1.2529128667755047 -0.2071535161199371 -6.0191754870513146 0 0 0
2537 816 4 -1.6616821081247206 -1.3194649235922513 -5.0289054989235025 0 0 0
731 214 4 -8.030230257168151 -8.55318702572593 -4.760717281275513 0 0 0
732 214 4 -7.580044741399733 -9.37954235124749 -4.422383308143535 0 0 0
399 103 4 -7.201384871704741 -9.292959279837692 -4.375964547121198 0 0 0
730 214 2 -7.805137499283942 -8.96636468848671 -4.591550294709523 0 0 0
397 103 2 -6.833467772027543 -9.63080095771525 -4.353603678307347 0 0 0
1477 463 2 -5.723020975070503 -9.777896161269803 -4.161188398127956 0 1 0
1479 463 4 -5.3411466896676 -9.553577503283913 -3.929125540636149 0 1 0
605 172 4 -5.243167941688373 -9.224348147867305 -3.748838829649399 0 0 0
1497 469 4 -5.0106676831277355 -9.367103788305018 -4.040495532983523 0 1 0
604 172 2 -5.373154557267126 -9.251166686594896 -3.266776338108246 0 0 0
1496 469 4 -4.107925612062267 -9.78311300628546 -3.9309825945593637 0 1 0
1701 537 4 -4.0896886782982405 -9.622004694051418 -3.529046056465134 0 1 0
1495 469 2 -4.559296647595001 -9.575108397295239 -3.9857390637714434 0 1 0
743 218 4 -0.45891465984447366 -8.478097222897016 -4.655702520476083 0 0 0
480 130 4 -0.35564897714834415 -8.84005153091933 -4.801525529989382 0 0 0
351 87 4 -0.10761106653052832 -8.614824361631639 -4.552901112403717 0 0 0
529 147 2 -9.650682470140577 -7.861344100954782 -4.739680977258727 0 0 0
530 147 4 -9.994271198333992 -7.871329324046001 -4.376573443353691 0 0 0
763 225 2 -3.035605237123741 -6.860085072337925 -4.844819887144206 0 0 0
765 225 4 -3.1325232581898184 -6.60021260498279 -4.428799217101223 0 0 0
560 157 4 -3.016950240792359 -6.779082319216279 -4.080956585480389 0 0 0
332 81 4 -0.3772273213314767 -7.112442801500239 -4.939114217441852 0 0 0
25 5 3 -1.2828359502472586 -7.254077671092189 -4.870941236096408 0 0 0
742 218 2 -0.49561519252833025 -7.9875988709039 -4.745504734216411 0 0 0
559 157 2 -2.7361901444125656 -6.509340288286903 -3.767248114075746 0 0 0
561 157 4 -2.455430048032772 -6.239598257357526 -3.453539642671103 0 0 0
345 85 4 -7.415302352840035 -4.56499507703411 -3.712442589428175 0 0 0
343 85 2 -6.9310802437996 -4.668292215700653 -3.642738570464308 0 0 0
372 94 4 -8.200792268895391 -3.6049733048855805 -4.06075369761501 0 0 0
371 94 4 -7.772478557863979 -4.4952580094524786 -3.9060264868313372 0 0 0
370 94 2 -7.986635413379685 -4.050115657169029 -3.9833900922231735 0 0 0
344 85 4 -6.4468581347591645 -4.771589354367197 -3.5730345515004402 0 0 0
734 215 4 -6.097087531864421 -4.585365394547933 -3.4828980462085557 0 0 0
750 220 4 -8.260132083293632 -3.399804099602597 -4.4006889183593 0 0 0
748 220 2 -7.914054770643149 -3.1075721657315545 -4.61242221875115 0 0 0
749 220 4 -7.567977457992667 -2.815340231860512 -4.824155519143 0 0 0
366 92 4 -7.198801150924772 -2.7786904014496834 -4.76058995125461 0 0 0
364 92 2 -6.855885564518405 -2.6166118130881606 -4.43479947902715 0 0 0
365 92 4 -6.5129699781120385 -2.454533224726638 -4.109009006799691 0 0 0
298 70 2 -5.963825191562319 -1.9812266054080194 -4.487681319881995 0 0 0
603 171 4 -6.193565021529335 -2.714001757213539 -4.107541041456588 0 0 0
601 171 2 -6.10878097048786 -2.9977505613471345 -3.704678433558936 0 0 0
300 70 4 -6.207528339668817 -2.395271149833415 -4.349204279060143 0 0 0
109 22 3 -1.1073818914289666 -2.123413845596989 -4.823520639936955 0 0 0
2508 806 4 -0.26866673093262206 -1.3616718496635707 -1.3181188762346703 0 0 0
2689 867 2 -9.73369732178069 -0.9895842264003216 -4.402018549105181 1 0 0
2462 791 4 -9.058086011683969 -1.2567643369110924 -4.940984544467552 1 0 0
2691 867 4 -9.321739006918104 -1.120679414194812 -4.653224437874914 1 0 0
299 70 4 -5.720122043455821 -1.567182060982624 -4.626158360703847 0 0 0
414 108 4 -5.878977013765984 -1.5409589611275845 -4.99677901093077 0 0 0
504 138 4 -5.494545069746322 -1.7042316430820847 -4.951661600468417 0 0 0
502 138 2 -5.025279763206256 -1.5351205934125634 -4.9171431277700846 0 0 0
767 226 4 -4.350115892531468 -1.2836193140103318 -5.166641985791736 0 0 0
503 138 4 -4.5560144566661895 -1.366009543743042 -4.882624655071752 0 0 0
438 116 4 -4.309519107842575 -1.0936801982154074 -4.852792867611249 0 0 0
436 116 2 -4.254989233019194 -0.6731400776423548 -4.587891943226009 0 0 0
437 116 4 -4.200459358195814 -0.2525999570693027 -4.32299101884077 0 0 0
2495 802 4 -1.8509447333592564 -1.6798465656194241 -5.069683878468134 0 0 0
433 115 2 -1.737325031017519 -0.24346954504597282 -3.630159689453577 0 0 0
644 185 4 -0.41234501907888577 -1.6688628528107943 -4.997204196803068 0 0 0
643 185 2 -0.08641225767754639 -1.625062260326975 -4.620575277118178 0 0 0
2536 816 2 -1.546471701704663 -0.9699622824475057 -4.690416996777004 0 0 0
2538 816 4 -1.4312612952846053 -0.6204596413027601 -4.3519284946305055 0 0 0
435 115 4 -1.6314897138636948 -0.5078123069427871 -4.041160650371752 0 0 0
447 119 4 -0.31365138574113877 -0.8033640535250282 -3.8364509700086153 0 0 0
446 119 4 -1.305488175855373 -0.7675302144416145 -3.958826285135498 0 0 0
445 119 2 -0.8095697807982558 -0.7854471339833213 -3.8976386275720567 0 0 0
752 221 4 -0.18250042358434237 -0.5355610384441456 -3.538399442154667 0 0 0
713 208 4 -0.14065414428919776 -0.43516359355677453 -3.95097011237168 0 0 0
118 24 3 -0.12335582822258837 -0.91226932528259 -3.4449805438923295 0 0 0
340 84 2 -5.697857272134579 -9.767512716596235 -2.276370042041804 0 0 0
341 84 4 -5.636516970601475 -9.290036243633876 -2.411475871580135 0 0 0
606 172 4 -5.503141172845879 -9.277985225322487 -2.784713846567093 0 0 0
441 117 4 -5.582491495336873 -8.93078436036027 -2.563439161476974 0 0 0
439 117 2 -5.262212180667999 -8.654565204970877 -2.296748069028717 0 0 0
1699 537 2 -3.855754893637007 -9.527292565186306 -3.097415894127402 0 1 0
1700 537 4 -3.6218211089757735 -9.432580436321194 -2.6657857317896703 0 1 0
699 203 4 -3.371742762796208 -9.278289353731855 -2.3816104811127863 0 0 0
1518 476 4 -3.28500096724231 -9.640022532598667 -2.571663108450436 0 1 0
697 203 2 -3.27884402809376 -8.89706294261236 -2.071713323081822 0 0 0
698 203 4 -3.185945293391312 -8.515836531492864 -1.7618161650508577 0 0 0
1426 446 2 -1.520949913412109 -9.578432545914504 -1.9776430517344858 0 1 0
1427 446 4 -1.4150759750643913 -9.114200824147796 -1.8250664556135845 0 1 0
440 117 4 -4.941932865999124 -8.378346049581484 -2.03005697658046 0 0 0
248 53 4 -4.767091812230068 -8.113974672699312 -2.2616223702894485 0 0 0
29 6 3 -4.200992825696932 -6.835851206636403 -1.8976646998158662 0 0 0
247 53 2 -4.52333686154418 -7.896248743162685 -1.8832324343460207 0 0 0
498 136 4 -5.787504820792463 -5.263798795460483 -2.408249484864365 0 0 0
686 199 4 -5.835494923822575 -5.221264641711256 -1.9901952058480965 0 0 0
496 136 2 -6.015167046888682 -5.0518332835641155 -2.799708975202729 0 0 0
614 175 4 -5.471471481024443 -5.162793715941127 -2.1689232639643916 0 0 0
488 133 4 -3.7064318879470375 -5.603241371706639 -2.5503531331022757 0 0 0
472 128 2 -3.5489837078953124 -6.081528313110254 -1.8489908801992325 0 0 0
473 128 4 -3.5214188706075236 -5.7571602814721325 -2.2284978759142984 0 0 0
487 133 2 -3.997454105078834 -5.225878086192635 -2.399015695956078 0 0 0
716 209 4 -3.4357125669889044 -5.886112970340927 -2.565311727180746 0 0 0
420 110 4 -2.292027095793724 -6.356534429974317 -3.104503591455658 0 0 0
717 209 4 -2.669735425925639 -6.215451490027374 -3.117412405337154 0 0 0
715 209 2 -3.0527239964572717 -6.050782230184151 -2.84136206625895 0 0 0
418 110 2 -1.9533122695255123 -6.285559146464176 -2.743623035597581 0 0 0