LAMMPS data file via write_data, version 27 Jun 2024, timestep = 1500000, units = lj

6400 atoms
4 atom types
4400 bonds
1 bond types

-11.00481 11.00481 xlo xhi
-11.00481 11.00481 ylo yhi
-11.00481 11.00481 zlo zhi

Masses

1 1
2 1
3 0.5
4 0.5

Bond Coeffs # zero

1 0

Atoms # bond

2376 659 4 -10.345898019169558 -10.246255026946185 -9.966817469613831 0 1 1
4289 1297 2 -0.0035155303792884173 -10.517042287545257 -5.575471302971154 0 0 0
560 112 3 -10.301370752275178 -10.436393864251603 -10.294667640768864 1 0 0
557 112 3 -10.28467177790396 -9.929729786593063 -10.842401752053888 1 0 0
556 112 1 -10.309360381991029 -10.37891551570752 -10.746367104201779 1 0 0
3177 926 4 -9.857549724105889 -10.793116583474443 -10.613541064667018 0 0 0
559 112 3 -9.946430221619321 -10.593819771037149 -10.939752366654005 1 0 0
6266 1956 2 -2.023891743492511 -11.000447063532038 -4.71354857612146 0 1 0
1628 410 2 -6.4122274297630115 -0.38091032936321256 -10.029887055217271 0 0 0
1282 294 4 -0.0741767169744319 -8.457515603443127 -7.844035265475019 0 0 0
4702 1434 4 -7.17971279504284 -10.312484380541441 -10.013897184988943 1 0 1
6342 1981 4 -6.810042629001134 -10.449368503287007 -9.955101382673641 1 0 1
6341 1981 2 -6.444570789908214 -10.13420840650517 -9.82431740725357 1 0 1
6343 1981 4 -6.079098950815294 -9.819048309723334 -9.6935334318335 1 0 1
3033 878 4 -6.024346498987945 -9.459164488536747 -9.528491394428515 0 0 1
2009 537 2 -1.5106981576365965 -9.609774108739323 -10.125760288424184 0 0 1
63 13 3 -10.68630429796506 -10.482003329756413 -0.04729408684690384 0 0 0
1089 230 4 -0.7153940337001762 -10.307293476644041 -5.68334284392606 0 0 0
5052 1551 4 -9.379355856019812 -8.711601154169905 -9.575010069685275 1 0 1
98 20 3 -9.44371752247877 -8.328591172373889 -9.446814596965154 0 0 0
4380 1327 4 -6.606738474868743 -8.470428082782536 -9.001150930631484 1 0 0
3032 878 2 -6.123960676866166 -9.031918630631141 -9.288620611571806 0 0 1
3034 878 4 -6.223574854744387 -8.604672772725536 -9.048749828715097 0 0 1
2010 537 4 -1.6478644851210273 -9.328488262208836 -9.735806866659498 0 0 1
683 137 3 -1.8082855609458173 -9.007721874323849 -9.869894684149745 0 0 1
682 137 3 -1.8484678498550302 -8.695293043626132 -9.187491863663649 0 0 1
684 137 3 -2.3260660913645754 -8.471184709679758 -9.722819216190377 0 0 1
681 137 1 -1.8930206434194938 -8.614743639122022 -9.638187816629532 0 0 1
2890 830 4 -2.675354429648359 -8.401725492756011 -9.532467757666852 -1 0 0
685 137 3 -1.5955503096982806 -8.293388537553136 -9.763256994493728 0 0 1
4491 1364 4 -1.4320666657963381 -8.3157756289158 -10.16308898121335 0 0 1
4490 1364 2 -1.0351222896443828 -8.41426724819204 -10.45072514579242 0 0 1
4492 1364 4 -0.6381779134924273 -8.51275886746828 -10.73836131037149 0 0 1
2308 636 4 -0.3778055967328985 -8.762228063133653 -10.845569481550216 0 0 1
100 20 3 -9.578998098688306 -7.592838896419869 -9.53206572088082 0 0 0
4588 1396 4 -10.57548277455628 -7.657067792222154 -10.33633249488613 1 0 1
4586 1396 2 -10.161724460777572 -7.752331243012545 -10.072270129671494 1 0 1
97 20 3 -8.902351032084438 -7.8663802312335065 -9.688026887216354 0 0 0
4809 1470 4 -8.665194580860376 -7.56662466359877 -9.789403022854856 1 0 1
96 20 1 -9.266965829492596 -7.9011755885088 -9.40973687190304 0 0 0
4808 1470 2 -8.289390125915126 -7.601496544463432 -10.11735875701439 1 0 1
4810 1470 4 -7.9135856709698755 -7.636368425328094 -10.445314491173924 1 0 1
4379 1327 2 -6.6351392843099966 -8.003949434583312 -9.178889684979453 1 0 0
4381 1327 4 -6.66354009375125 -7.537470786384088 -9.356628439327421 1 0 0
2441 681 2 -5.883717712367841 -6.086121154194532 -9.902104486186502 0 0 0
2442 681 4 -6.097961234257658 -6.251346424431303 -9.481628180785762 0 0 0
48 10 3 -6.152004035594919 -6.65724655662184 -9.533483697772056 0 0 0
1234 278 4 -1.7089571083441912 -6.856336105249957 -9.943332454773964 0 0 0
1232 278 2 -2.0893587999748657 -7.038360256532782 -9.67470304209834 0 0 0
4869 1490 4 -1.312179160884079 -6.956402536455411 -9.961057993269899 0 0 1
2514 705 4 -10.750864930816837 -4.107209081151901 -4.132092041459952 0 0 0
4149 1250 4 -9.482160373952043 -5.171965849118664 -10.707428715677207 1 0 0
4713 1438 4 -9.331873345168802 -5.443978633322295 -10.460592424393038 1 0 1
1010 204 2 -1.598409642538777 -0.24749457112870077 -6.777967052168398 0 0 1
4712 1438 2 -9.272406958828759 -5.545706283227883 -9.974675523945724 1 0 1
5584 1728 4 -8.869965682611484 -5.481570397808855 -9.407363157349618 1 1 0
4714 1438 4 -9.212940572488716 -5.647433933133471 -9.48875862349841 1 0 1
4028 1210 2 -10.121044806581095 -10.980529027314821 -8.989055783675317 1 0 0
2443 681 4 -5.669474190478024 -5.920895883957761 -10.322580791587242 0 0 0
3906 1169 4 -2.5449099700414846 -10.836290730852014 -4.178649093864873 0 0 0
3835 1145 4 -9.476656128369989 -10.438207583652687 -4.7586633136719625 1 0 0
814 163 3 -10.06584881543418 -0.17884283041258298 -7.464217472352638 1 0 0
1780 460 4 -4.39792389719823 -5.070602153879159 -10.467861399365542 0 0 1
1892 498 2 -2.2259020171268054 -5.024354648534787 -10.844137156661764 0 0 1
1894 498 4 -1.965760024685414 -5.435059060548327 -10.960961938798071 0 0 1
4868 1490 2 -1.1236158920231756 -6.552902647291749 -10.188284164917016 0 0 1
688 138 3 -0.7799532944875653 -6.117083793132198 -10.760693449322977 0 0 1
4870 1490 4 -0.9350526231622722 -6.149402758128086 -10.415510336564134 0 0 1
5901 1834 4 -0.2322011245977806 -8.311105956152565 -0.6013743308087623 0 1 0
1227 276 4 -5.798420573576539 -3.369899565050407 -10.35457051902781 0 0 0
1226 276 2 -5.583244843508764 -3.8211615724345442 -10.346696137686322 0 0 0
1228 276 4 -5.368069113440989 -4.272423579818681 -10.338821756344835 0 0 0
1779 460 4 -5.222709210674091 -4.592833624108671 -10.165427243496477 0 0 1
1778 460 2 -4.81031655393616 -4.831717888993915 -10.31664432143101 0 0 1
5074 1558 4 -2.492939841591721 -3.726845296031583 -9.156216759784275 0 0 1
1893 498 4 -2.486044009568197 -4.613650236521249 -10.727312374525459 0 0 1
5867 1823 2 -0.6074645401140669 -4.164767804985028 -9.661371406945667 0 0 1
5868 1823 4 -0.51558221911698 -3.677328973847461 -9.724308081367994 0 0 1
6354 1985 4 -0.7213479421840476 -3.622360430094852 -10.068248845319136 0 0 1
6353 1985 2 -0.6057252020728074 -3.389824695451524 -10.495517512650475 0 0 1
1647 416 4 -4.900699815611146 -0.43460060672385104 -2.800308459011747 0 0 0
849 170 3 -5.9032303381223565 -2.975314351754181 -10.410541388502345 0 0 1
847 170 3 -5.470229550790522 -2.4391563866963004 -10.110633144743234 0 0 1
2691 764 4 -5.5639473862728765 -2.541308396064871 -9.749014685289398 0 0 0
846 170 1 -5.612185619376604 -2.6267532009609895 -10.505925327652534 0 0 1
848 170 3 -5.243113937880484 -2.7872501384547035 -10.736851348214618 0 0 1
5155 1585 4 -4.839418617526528 -2.8278341074619284 -10.79135936978051 0 0 0
2375 659 2 -10.79695215572063 -10.223337392794956 -9.75228321140536 0 1 1
5153 1585 2 -4.4164712122992835 -2.6176788385196703 -10.62719404047103 0 0 0
5154 1585 4 -3.993523807072039 -2.407523569577412 -10.46302871116155 0 0 0
464 93 3 -4.057978137689878 -2.0903477104320967 -10.204691671916933 0 0 0
465 93 3 -4.272568258904753 -1.5648144950936755 -9.710054512523376 0 0 0
461 93 1 -3.999005316103013 -1.6523053531322665 -10.063478713852712 0 0 0
462 93 3 -3.5612869332727084 -1.5954647046571264 -9.93397289153841 0 0 0
327 66 3 -10.969141021806472 -2.790552975678504 -2.8901302575130234 0 0 0
812 163 3 -10.635501221567573 -0.10303199178625956 -7.948623142151325 1 0 0
4402 1334 4 -6.711197161482156 -0.5347156307093704 -9.198535421860011 1 0 0
1970 524 2 -9.275563242441216 -10.933415139546575 -5.432273900906129 0 0 0
1630 410 4 -6.567462517829192 -0.5291441740095619 -9.578302296025376 0 0 0
1338 313 4 -6.242744937599912 -0.055656666035745025 -10.828440554838469 0 0 0
3224 942 2 -4.6539149025086175 -1.0441546609608825 -10.88926744148273 0 0 1
4612 1404 4 -10.778514729730809 -9.503386309858133 -3.982118925280809 1 0 0
3225 942 4 -4.330787074846518 -1.0523038789511077 -10.50779398600178 0 0 1
463 93 3 -4.091629789909663 -1.3598245535658202 -10.411581699672956 0 0 0
5817 1806 4 -0.03014755826224841 -1.3545839374938544 -10.422867020836188 0 0 1
744 149 3 -1.0162982689404736 -1.2387204764963458 -10.860683352778333 0 0 0
743 149 3 -0.8547401241863929 -0.6471217758428067 -10.411784763731085 0 0 0
745 149 3 -0.3243539150297988 -1.1557796136963996 -10.57566787184951 0 0 0
741 149 1 -0.6887697069739974 -0.9346316491205565 -10.735963562202139 0 0 0
3612 1071 4 -9.844777762647388 -10.475232254521105 -8.67887741687241 0 1 1
3611 1071 2 -9.627606518816519 -10.025446803398868 -8.655862230325518 0 1 1
3613 1071 4 -9.41043527498565 -9.575661352276631 -8.632847043778625 0 1 1
4030 1210 4 -9.978633696487528 -10.504257334228964 -9.042761929386135 1 0 0
1833 478 4 -6.232991813158998 -10.123372010616398 -8.377020197395922 0 0 1
3775 1125 4 -5.994992175908629 -9.996029174545349 -8.653612678073799 1 0 0
3773 1125 2 -5.569162549710117 -10.107549136045934 -8.890746453901615 1 0 0
3673 1091 4 -4.839288007152268 -10.348120301829725 -8.935341936031481 0 1 1
3774 1125 4 -5.143332923511605 -10.21906909754652 -9.127880229729431 1 0 0
3672 1091 4 -4.139073472069725 -10.170398017592392 -8.243883770597172 0 1 1
35 7 3 -3.7524357263895354 -10.253238186418933 -8.22124150505032 0 0 0
3671 1091 2 -4.489180739610997 -10.259259159711059 -8.589612853314327 0 1 1
31 7 1 -3.561371736281947 -10.479614125703172 -7.87533908268614 0 0 0
32 7 3 -3.1296748163759496 -10.591852003865746 -7.987768740914302 0 0 0
2305 635 4 -2.3209047988569163 -10.056762126352096 -8.738414682186184 0 0 1
2303 635 2 -2.631097131383419 -10.13778797691614 -8.354727924032412 0 0 1
1503 368 4 -2.0294608912386325 -10.003690336189146 -9.01689999614945 0 0 0
1502 368 2 -1.9290607701075588 -9.514145765917934 -9.000592654403032 0 0 0
2304 635 4 -2.9412894639099214 -10.218813827480185 -7.97104116587864 0 0 1
2610 737 4 -0.8058542150056608 -10.741439821947731 -8.273676526352714 0 1 0
2538 713 4 -10.903409072307378 -5.530283978701559 -5.089257490397829 0 1 0
1572 391 4 -1.1063316537989174 -10.648964600347032 -7.999992325891284 0 0 0
5820 1807 4 -0.1357602246942222 -2.993088140381172 -10.939042107864873 0 0 1
5053 1551 4 -9.548595090019516 -9.50015898819584 -8.983795536649808 1 0 1
5051 1551 2 -9.463975473019664 -9.105880071182872 -9.27940280316754 1 0 1
4016 1206 2 -8.95870084706346 -8.272355356651401 -8.340936270853346 0 0 0
4018 1206 4 -8.679139191120806 -8.409019971024346 -7.949569353875211 0 0 0
3705 1102 4 -7.3533253542260075 -8.623678473533284 -9.063133147015355 0 1 0
1219 273 4 -8.929594852099415 -8.361876186486764 -7.640540621470991 0 0 0
3704 1102 2 -7.220295973310511 -9.044913521370304 -8.82890202549813 0 1 0
3706 1102 4 -7.087266592395015 -9.466148569207325 -8.594670903980903 0 1 0
1834 478 4 -7.119962729910878 -9.678675203680966 -8.252411438722493 0 0 1
1832 478 2 -6.676477271534938 -9.901023607148682 -8.314715818059208 0 0 1
1342 314 4 -3.7215670158789775 -8.082751070803065 -7.907748020049311 0 0 0
1340 314 2 -3.643536471682709 -8.112661498164893 -8.400715159427957 0 0 0
1341 314 4 -3.5655059274864405 -8.142571925526722 -8.893682298806603 0 0 0
2889 830 4 -3.5767142531638516 -8.488199927460354 -9.108118089710532 -1 0 0
2888 830 2 -3.1260343414061054 -8.444962710108182 -9.320292923688692 -1 0 0
1504 368 4 -1.8286606489764852 -9.024601195646722 -8.984285312656615 0 0 0
4587 1396 4 -9.747966146998865 -7.847594693802936 -9.808207764456858 1 0 1
5702 1768 2 -9.628619803125838 -6.892346301650307 -7.899661128789766 0 0 0
5704 1768 4 -10.01582911193856 -7.169582090287196 -8.052007013761118 0 0 0
1605 402 4 -9.896832602523824 -7.405966440446749 -7.7462698020864 0 0 0
4017 1206 4 -9.238262503006114 -8.135690742278456 -8.73230318783148 0 0 0
99 20 3 -9.130378717949194 -7.823570121668392 -8.97313481914022 0 0 0
5703 1768 4 -9.241410494313115 -6.615110513013418 -7.747315243818415 0 0 0
1240 280 4 -8.892866570675999 -6.642737279965327 -7.565942533706395 0 0 0
47 10 3 -6.630942486266713 -7.1404037009464 -9.213988573620576 0 0 0
46 10 1 -6.483439534199353 -6.704697591260839 -9.212237826862177 0 0 0
50 10 3 -6.3163303470733645 -6.604560769750562 -8.80059825568852 0 0 0
2642 748 2 -6.029457034957031 -6.755926005719387 -8.116433645452043 0 0 0
2643 748 4 -6.128546403828549 -6.424774246634137 -8.477708899837605 0 0 0
1233 278 4 -2.4697604916055402 -7.220384407815606 -9.406073629422716 0 0 0
1053 218 4 -2.825501118865002 -7.153792546255058 -9.22386946372837 0 0 0
1054 218 4 -2.7234590499907023 -7.773520272958184 -8.445714619924404 0 0 0
1052 218 2 -2.7744800844278523 -7.463656409606621 -8.834792041826386 0 0 0
5582 1728 2 -8.443407903357423 -5.566307225037984 -9.160648481926343 1 1 0
5583 1728 4 -8.016850124103362 -5.651044052267112 -8.913933806503067 1 1 0
49 10 3 -6.84045553746084 -6.425075831587378 -9.310478576719039 0 0 0
4857 1486 4 -7.737405994976049 -5.453858301557724 -9.13121509932268 1 0 0
4856 1486 2 -7.37703138312702 -5.773494141013884 -9.265241474599707 1 0 0
4858 1486 4 -7.016656771277991 -6.093129980470043 -9.399267849876733 1 0 0
3581 1061 2 -4.956221518270717 -4.9764659148564805 -8.095707176285206 0 0 1
3583 1061 4 -4.748187290631414 -4.61205341980869 -8.36759923866197 0 0 1
1111 237 4 -3.077274867434686 -5.219528272452068 -8.130975916572705 0 0 0
3921 1174 4 -1.6651864402655545 -4.602599640893305 -8.693914886256188 0 0 0
4053 1218 4 -2.8655128902060167 -4.942752367761286 -7.931039913823902 0 0 0
1110 237 4 -3.21937912645867 -6.1843050799927335 -8.352362662334379 0 0 0
1109 237 2 -3.148326996946678 -5.7019166762224005 -8.241669289453542 0 0 0
3920 1174 2 -1.246433051058978 -4.657482257454353 -8.961559235023568 0 0 0
1113 238 4 -7.6179791017234475 -4.9587724926661885 -7.583169386414407 0 0 0
2469 690 4 -7.312522583090406 -4.75999228094552 -7.737358341585243 0 0 0
57 12 3 -4.511698410863708 -4.314524303439572 -8.16487574040715 0 0 0
58 12 3 -4.379841153122108 -3.60266216497706 -8.366781558561021 0 0 0
56 12 1 -4.293882719221085 -3.927080605378265 -8.046369600031209 0 0 0
4052 1218 2 -3.179494107589098 -4.556540020713221 -7.978535367484206 0 0 0
59 12 3 -4.451208116653213 -3.786999009530729 -7.632937784821484 0 0 0
2496 699 4 -4.190770290151806 -3.4670934752868443 -7.628099750659765 0 1 0
4054 1218 4 -3.493475324972179 -4.170327673665157 -8.02603082114451 0 0 0
60 12 3 -3.8462759914147187 -4.0077455562085325 -8.023101963064697 0 0 0
5073 1558 4 -1.7109556440064713 -4.322316484633473 -8.972057105483781 0 0 1
5072 1558 2 -2.101947742799096 -4.024580890332528 -9.064136932634028 0 0 1
3922 1174 4 -0.8276796618524016 -4.7123648740154005 -9.229203583790948 0 0 0
5869 1823 4 -0.6993468611111539 -4.652206636122596 -9.59843473252334 0 0 1
3895 1165 4 -6.340882135405457 -1.9107267394732106 -7.854394164963532 1 0 0
3893 1165 2 -6.47512121936709 -1.6817697934664189 -8.278137702037888 1 0 0
2690 764 2 -5.489529292730567 -2.2647300038370566 -9.339177717329981 0 0 0
2692 764 4 -5.4151111991882575 -1.9881516116092421 -8.929340749370565 0 0 0
603 121 3 -5.001344632575692 -2.079314685390388 -8.899696201512644 0 0 0
601 121 1 -4.8809779245123455 -1.818741980960805 -8.535122860062392 0 0 0
605 121 3 -4.574831963548165 -2.039729032726339 -8.280487093648379 0 0 0
604 121 3 -4.704258942272323 -1.4150506742743378 -8.680394089911172 0 0 0
1461 354 4 -3.4647504573727548 -2.308564505841406 -8.66030599865883 0 0 0
1462 354 4 -4.370024136413822 -2.4017287544564074 -8.245818376629446 0 0 0
1460 354 2 -3.9173872968932884 -2.355146630148907 -8.453062187644138 0 0 0
1611 404 4 -10.577319819624382 -0.49142795473473433 -7.93790802672238 0 0 0
1610 404 2 -10.931781306075983 -0.8352686825938663 -8.016206229048501 0 0 0
4400 1334 2 -6.821009096508312 -1.0063007640589134 -9.073840590653292 1 0 0
4401 1334 4 -6.930821031534467 -1.4778858974084566 -8.949145759446573 1 0 0
3894 1165 4 -6.609360303328724 -1.4528128474596271 -8.701881239112245 1 0 0
602 121 3 -5.255903167236946 -1.7345423924944858 -8.28225631093033 0 0 0
2683 761 4 -5.077610331343375 -1.48144457577169 -7.993166903568683 0 0 0
1345 315 4 -10.585680961729855 -9.523115829451635 -7.06895501963009 0 0 0
1344 315 4 -9.718796855752585 -10.01390429564942 -7.156354265916837 0 0 0
1343 315 2 -10.15223890874122 -9.768510062550527 -7.112654642773464 0 0 0
2977 859 4 -10.965845773973088 -9.601333042590856 -7.061114200886726 0 1 0
2764 788 4 -9.367357924665551 -10.199264195620488 -7.217587911604674 0 1 0
2762 788 2 -9.018839352839455 -9.844168007306008 -7.168176352866325 0 1 0
2763 788 4 -8.670320781013361 -9.489071818991528 -7.118764794127976 0 1 0
34 7 3 -3.5529307807283206 -10.21196837014841 -7.4964004335581755 0 0 0
3699 1100 4 -3.24127894619257 -10.336884500281055 -7.241008925727731 0 1 0
3698 1100 2 -3.110024766243533 -10.525328546601164 -6.796867977770688 0 1 0
5546 1716 2 -2.0100957030551267 -10.017146600782318 -6.536789338893884 0 1 0
1571 391 2 -1.2593546036238947 -10.539857196850807 -7.536657078657519 0 0 0
5547 1716 4 -1.6796879585718987 -10.25399137502492 -6.827882580483945 0 1 0
1573 391 4 -1.412377553448872 -10.430749793354583 -7.073321831423753 0 0 0
525 105 3 -10.847626702502355 -8.191009726754473 -7.175721904496933 1 0 0
1606 402 4 -10.627629347164705 -8.032523789575787 -7.475415586179477 0 0 0
2404 668 4 -8.301485680466413 -9.572687804760813 -7.205506421066694 0 1 0
1218 273 4 -8.851083123564495 -8.210620459990896 -6.655168806527983 0 0 0
1217 273 2 -8.890338987831955 -8.28624832323883 -7.147854713999487 0 0 0
2402 668 2 -7.873625319433906 -9.407935750757687 -7.006026416657931 0 1 0
2403 668 4 -7.445764958401398 -9.243183696754562 -6.806546412249167 0 1 0
5729 1777 2 -4.990757845496234 -8.433760130898445 -6.796069423344764 0 0 0
5731 1777 4 -5.409726601022276 -8.465731597152196 -7.067073126711428 0 0 0
2185 595 4 -3.9369528738709265 -8.018089044825734 -6.674878496025291 0 0 1
2501 701 2 -3.4922272077743104 -8.391254819759935 -6.025917690595054 0 1 0
2502 701 4 -3.755023529638204 -8.089569972330867 -6.325791574163809 0 1 0
1367 323 2 -2.326162019611793 -8.375068391255914 -8.0352429057363 0 0 0
1368 323 4 -2.048686122309712 -8.591604068610101 -7.680109935077219 0 0 0
1604 402 2 -10.262230974844265 -7.719245115011268 -7.610842694132939 0 0 0
2559 720 4 -8.518745134968484 -8.13670795751938 -6.461949178697972 0 0 0
1238 280 2 -8.437578622846042 -6.622430463565903 -7.3602716369596175 0 0 0
1239 280 4 -7.982290675016086 -6.602123647166478 -7.15460074021284 0 0 0
2900 834 2 -8.015620637377708 -6.925658705250404 -6.412306151721338 0 0 0
2902 834 4 -7.917186733325782 -6.888973193414167 -6.901146554873948 0 0 0
2644 748 4 -5.9303676660855125 -7.087077764804637 -7.75515839106648 0 0 0
3327 976 4 -5.496759941504561 -8.097072980747013 -6.965124642600123 0 1 1
3328 976 4 -5.903424974875976 -7.311030709342881 -7.430700735412345 0 1 1
3326 976 2 -5.7000924581902686 -7.704051845044947 -7.197912689006234 0 1 1
2183 595 2 -3.9319502560321697 -7.587813350318675 -6.929511173683523 0 0 1
2184 595 4 -3.926947638193413 -7.157537655811616 -7.184143851341756 0 0 1
3683 1095 2 -3.5353156205370735 -6.620849050858155 -7.63811699502894 0 0 0
3684 1095 4 -3.707421465967377 -6.825972218583945 -7.215856336156847 0 0 0
1369 323 4 -2.603637916913874 -8.158532713901726 -8.390375876395382 0 0 0
3685 1095 4 -3.3632097751067698 -6.415725883132365 -8.060377653901034 0 0 0
5354 1652 2 -2.8608959242763694 -7.304580495059579 -6.708196326178002 1 0 0
5355 1652 4 -3.060347730117862 -7.117896027216054 -7.12696581720207 1 0 0
2468 690 2 -6.97731932602499 -5.127191846195064 -7.6844125605126195 0 0 0
1027 209 4 -6.412036791473939 -5.759072607239998 -7.422320453468783 0 0 0
2470 690 4 -6.642116068959574 -5.494391411444608 -7.631466779439996 0 0 0
1025 209 2 -6.330011492176003 -5.833261711288033 -6.934706028829945 0 0 0
1026 209 4 -6.2479861928780664 -5.907450815336069 -6.447091604191106 0 0 0
3582 1061 4 -5.164255745910021 -5.3408784099042705 -7.8238151139084415 0 0 1
4132 1244 4 -9.9649885181367 -3.7962851738100984 -7.451836962074838 0 0 0
4130 1244 2 -10.437907035826896 -3.855285828756505 -7.300618582433248 0 0 0
4131 1244 4 -10.910825553517093 -3.9142864837029117 -7.149400202791659 0 0 0
2011 537 4 -1.3735318301521657 -9.89105995526981 -10.51571371018887 0 0 1
1914 505 4 -10.01817221886355 -4.1668303780967495 -6.6151744810528506 0 0 0
1129 243 4 -9.645544995177843 -4.139731871841708 -6.449462847204466 0 0 0
1114 238 4 -8.449727113728075 -4.423757628959997 -7.434999415972057 0 0 0
2973 858 4 -8.803070219124555 -4.223347426718923 -7.381815435476893 0 1 0
2974 858 4 -9.650470082807685 -3.810622068758225 -7.715838263926376 0 1 0
2972 858 2 -9.22677015096612 -4.016984747738574 -7.548826849701634 0 1 0
1112 238 2 -8.033853107725761 -4.691265060813093 -7.509084401193232 0 0 0
4049 1217 2 -6.659666058996385 -3.3043858903152037 -6.698823936484258 0 0 0
2495 699 2 -4.3035139297545175 -3.2804897910601474 -7.178135377889908 0 1 0
2280 627 4 -4.550971787596816 -2.7509313556878143 -6.577698578832039 0 0 0
1393 331 4 -0.8398054233213628 -4.246893212687195 -7.6063534049834125 0 0 0
6246 1949 4 -0.49880849849975445 -4.315357153164158 -7.832492642455654 0 0 0
1391 331 2 -1.2334083152826465 -4.371017813592345 -7.324094929663795 0 0 0
1392 331 4 -1.62701120724393 -4.4951424144974945 -7.041836454344178 0 0 0
6245 1949 2 -0.041276396213338735 -4.115403971749191 -7.8586288361227465 0 0 0
558 112 3 -10.704805096717976 -10.548023390974437 -10.92051073491265 1 0 0
4051 1217 4 -6.614658758096172 -3.192581680066659 -7.184080735959232 0 0 0
2038 546 4 -6.422127061879071 -1.8642754736660772 -7.470652750164373 0 0 1
2036 546 2 -6.458353452510032 -2.3561357659842406 -7.388426832945358 0 0 1
2037 546 4 -6.4945798431409925 -2.847996058302404 -7.306200915726343 0 0 1
2497 699 4 -4.416257569357229 -3.0938861068334504 -6.728171005120051 0 1 0
6327 1976 4 -1.2701614182776626 -10.258812858521148 -10.690362893080978 0 1 1
2042 548 2 -10.34103675183958 -0.8421835478979609 -6.939450199273259 0 0 1
2044 548 4 -10.469099533723128 -1.2046025332806005 -6.619680902857097 0 0 1
2043 548 4 -10.212973969956032 -0.47976456251532124 -7.259219495689421 0 0 1
5029 1543 4 -1.9200744650605146 -5.816194379595661 -10.866816899402664 0 0 1
2681 761 2 -5.057654464363198 -1.0594345276006232 -7.725754707481938 0 0 0
2682 761 4 -5.037698597383021 -0.6374244794295563 -7.458342511395193 0 0 0
2727 776 4 -4.718245943109978 -0.47397988040305156 -7.6463065056173996 0 0 0
1012 204 4 -1.5381860425432121 -0.6779146993670143 -6.53075938398066 0 0 1
4001 1201 2 -10.031989589555954 -9.567772196237573 -4.448444632584247 1 0 0
4003 1201 4 -9.667639054413272 -9.571845749499591 -4.790836358105207 1 0 0
2056 552 4 -9.784566438593178 -9.798132081747076 -5.099428691188663 0 0 0
2055 552 4 -9.433057322692642 -9.618919450874062 -6.018299832521689 0 0 0
2054 552 2 -9.608811880642909 -9.708525766310569 -5.558864261855176 0 0 0
1083 228 4 -7.534679598699537 -9.457325308640522 -5.299141652970598 0 0 0
1564 388 4 -7.875536477546444 -9.426615903409123 -5.480488194269781 0 0 0
1562 388 2 -8.125375369929639 -9.354992180929726 -5.053345864090368 0 0 0
1084 228 4 -6.57063851764191 -9.198091631368916 -5.240637853079535 0 0 0
1082 228 2 -7.052659058170724 -9.327708470004719 -5.269889753025066 0 0 0
2539 713 4 -10.750208528245787 -5.78939378853704 -4.135637178247059 0 1 0
3432 1011 4 -3.130792582534109 -10.480792788515595 -6.050710647338897 0 1 1
3700 1100 4 -2.9787705862944964 -10.713772592921273 -6.352727029813646 0 1 0
6267 1956 4 -1.6240373921426876 -10.854829482247345 -4.976059562038763 0 1 0
1429 343 4 -2.2712827170366117 -9.518865113555277 -5.942275229602538 0 0 0
5548 1716 4 -2.340503447538355 -9.780301826539716 -6.245696097303823 0 1 0
1090 230 4 -1.5137409585842163 -10.512987419140085 -5.117363878285034 0 0 0
4290 1297 4 -0.3903909692739116 -10.245857503479298 -5.411806377983618 0 0 0
4315 1305 4 -10.952167175835733 -9.086516995845608 -2.435951620661286 1 0 0
2558 720 2 -8.631196835903914 -8.278104709766739 -5.995728658546031 0 0 0
2560 720 4 -8.743648536839345 -8.419501462014098 -5.529508138394091 0 0 0
4479 1360 4 -8.891516386961575 -8.195085275017194 -5.1906780577969105 1 0 0
4478 1360 2 -8.761807437242076 -8.205106076017419 -4.707899462672793 1 0 0
4480 1360 4 -8.632098487522578 -8.215126877017644 -4.225120867548675 1 0 0
3490 1030 4 -7.465750048386599 -8.887204816030787 -6.621070431986571 0 1 0
3488 1030 2 -7.256407760487146 -8.434003072735067 -6.593070675364853 0 1 0
5730 1777 4 -4.571789089970192 -8.401788664644695 -6.5250657199781 0 0 0
1427 343 2 -2.701477133334576 -9.294823871849442 -5.820873886114589 0 0 0
2700 767 4 -1.7717198641441327 -7.946001056704164 -5.847493832284093 0 0 0
1428 343 4 -3.1316715496325402 -9.070782630143606 -5.699472542626639 0 0 0
2503 701 4 -3.229430885910417 -8.692939667189002 -5.726043807026299 0 1 0
2627 743 2 -2.246166376268851 -8.30269273942837 -5.2379522053387 0 1 0
2629 743 4 -2.0618825582519027 -7.976820582995904 -5.569383664435455 0 1 0
2628 743 4 -2.430450194285799 -8.628564895860835 -4.906520746241944 0 1 0
2699 767 2 -1.4758569977038094 -7.580777149069254 -5.676975031110743 0 0 0
4277 1293 2 -7.945496020861446 -6.661547601579899 -5.230919671873284 0 0 0
4279 1293 4 -8.065714806593393 -6.503572209362072 -4.772017482936641 0 0 0
2901 834 4 -8.114054541429633 -6.962344217086641 -5.923465748568727 0 0 0
4278 1293 4 -7.8252772351295 -6.819522993797727 -5.689821860809928 0 0 0
3489 1030 4 -7.047065472587694 -7.9808013294393465 -6.565070918743134 0 1 0
1450 350 4 -6.911077907023699 -7.609369380046376 -6.616072180332731 0 0 0
1448 350 2 -6.469478524959549 -7.586217244082534 -6.382718448070324 0 0 0
1449 350 4 -6.027879142895399 -7.563065108118693 -6.149364715807915 0 0 0
72 15 3 -5.2491110162062204 -7.708687537040891 -5.694211972018506 0 0 0
75 15 3 -5.991051328412747 -7.676150613336651 -5.768143844162713 0 0 0
71 15 1 -5.628046573652551 -7.472808299416216 -5.582996736729262 0 0 0
1434 345 4 -5.485766010059653 -7.42699033632639 -4.773638595967116 0 0 0
73 15 3 -5.669563367733368 -7.464846293157215 -5.120922108270197 0 0 0
74 15 3 -5.5886545082803805 -7.040158901861733 -5.745977606715461 0 0 0
5356 1652 4 -2.661444118434877 -7.491264962903103 -6.289426835153934 1 0 0
1446 349 4 -2.728035063991467 -7.252466433607838 -5.9805417575844535 0 0 0
1447 349 4 -2.653822604961873 -6.895486968107333 -5.049382172907765 0 0 0
1445 349 2 -2.69092883447667 -7.073976700857585 -5.514961965246109 0 0 0
3564 1055 4 -0.8282669881940702 -7.1433315242903355 -5.675182677407486 0 0 0
2701 767 4 -1.179994131263486 -7.215553241434344 -5.506456229937393 0 0 0
3563 1055 2 -0.6851553020349405 -6.873780563963358 -6.071239901898775 0 0 0
3565 1055 4 -0.5420436158758108 -6.60422960363638 -6.467297126390064 0 0 0
1837 479 4 -0.7521167893057028 -6.278532324881946 -6.471417226951451 0 0 0
690 138 3 -0.08172981947476221 -5.8507979047857 -10.668629316198453 0 0 1
4543 1381 4 -7.227241701239503 -8.555178232223748 -0.06826069973187493 1 0 0
23 5 3 -8.177837826278692 -6.315371130037832 -4.440803478510798 0 0 0
1196 266 2 -6.3096106503113525 -5.50584575017101 -5.733724924768023 0 0 0
1197 266 4 -6.469661880944388 -5.7564212458196 -6.1357143830294145 0 0 0
2448 683 4 -6.025875817502332 -5.5722517585570825 -5.141432559166282 0 0 0
1198 266 4 -6.149559419678317 -5.255270254522419 -5.331735466506631 0 0 0
250 50 3 -1.812412337992324 -5.039488092941833 -6.202614607728408 0 0 0
2551 717 4 -2.521226648346573 -5.061439391927669 -5.141179060419981 0 0 0
2549 717 2 -2.366568365351024 -5.082606378621737 -5.616187243691985 0 0 0
2550 717 4 -2.2119100823554754 -5.103773365315805 -6.0911954269639885 0 0 0
2731 777 4 -2.7331694650733307 -5.372300136421002 -5.0785085971076045 0 1 0
1835 479 2 -0.9240496990919942 -5.8399979575088325 -6.303707110484724 0 0 0
1836 479 4 -1.0959826088782858 -5.4014635901357195 -6.135996994017996 0 0 0
247 50 3 -1.0997124708392094 -5.106067379343244 -6.413863508274379 0 0 0
246 50 1 -1.4288103474221432 -4.809821311589063 -6.289232633413196 0 0 0
1915 505 4 -10.703270503037922 -4.647355240064131 -6.0676927936392815 0 0 0
1913 505 2 -10.360721360950736 -4.40709280908044 -6.341433637346066 0 0 0
1127 243 2 -9.40101261986328 -3.9780582538766276 -6.044412777858357 0 0 0
1128 243 4 -9.156480244548717 -3.8163846359115468 -5.639362708512247 0 0 0
4285 1295 4 -8.861275119965587 -4.030717664247382 -5.491819129471487 1 0 0
4283 1295 2 -8.576493186672526 -3.861256374816876 -5.117410099326267 1 0 0
4284 1295 4 -8.291711253379464 -3.6917950853863704 -4.743001069181046 1 0 0
4050 1217 4 -6.704673359896598 -3.4161901005637483 -6.213567137009284 0 0 0
1638 413 4 -6.4393781985395195 -3.428917913815472 -5.900594190666411 0 0 0
1639 413 4 -7.095449079830513 -3.5731241481594913 -5.159800318729675 0 0 0
1637 413 2 -6.767413639185016 -3.5010210309874816 -5.530197254698043 0 0 0
2279 627 2 -4.574088583921997 -2.3934120379978543 -6.228921355943215 0 0 0
249 50 3 -1.499054905815534 -4.509207811313852 -6.635638790212228 0 0 0
248 50 3 -1.290482083479043 -4.583374449084365 -5.908592239003802 0 0 0
1192 264 4 -0.9670427393917999 -4.617384112925351 -5.676958308843437 0 0 0
1190 264 2 -0.9003992482678818 -4.363336648072513 -5.251495583457577 0 0 0
362 73 3 -10.044063814073379 -1.6538571266436808 -5.08636600222213 0 0 0
1481 361 2 -6.990815962115208 -2.316890416474236 -4.5261638585308255 0 0 0
2947 849 4 -6.4189834727972475 -2.681637671428837 -4.449597351321528 0 0 0
1482 361 4 -7.171681277631319 -1.8733437382622036 -4.6695308069196235 0 0 0
2281 627 4 -4.5972053802471775 -2.0358927203078947 -5.880144133054392 0 0 0
2914 838 4 -4.3891424072255365 -2.189983578270936 -5.558584794997479 0 0 0
2912 838 2 -4.2852953851242015 -2.4021514284965177 -5.1179028242623685 0 0 0
2913 838 4 -4.1814483630228665 -2.6143192787220997 -4.677220853527258 0 0 0
3318 973 4 -10.205422179816441 -1.2466600920762456 -6.313591516408339 0 0 0
3317 973 2 -10.137616518370232 -1.5049983637019086 -5.890905190997432 0 0 0