LAMMPS data file via write_data, version 27 Jun 2024, timestep = 2500000, units = lj

4800 atoms
4 atom types
3300 bonds
1 bond types

-9.99857 9.99857 xlo xhi
-9.99857 9.99857 ylo yhi
-9.99857 9.99857 zlo zhi

Masses

1 1
2 1
3 0.5
4 0.5

Bond Coeffs # zero

1 0

Atoms # bond

3537 1079 4 -8.98957885393236 -7.61743898259361 -8.665846099862138 1 0 1
3703 1135 2 -9.192272436814333 -7.299276015264956 -9.686745853473605 1 0 1
3535 1079 2 -8.541986802533769 -7.408270298159775 -8.742721433859042 1 0 1
509 102 3 -9.643360867479677 -7.20402776532628 -8.481674469343371 1 0 1
3705 1135 4 -9.283236990028549 -7.117793131264843 -9.229811051917387 1 0 1
3578 1093 4 -9.696258488086826 -7.790212046494007 -9.057500447131853 1 0 1
3577 1093 2 -9.864564127131302 -8.101172313895503 -8.703979692488844 1 0 1
510 102 3 -8.99427899529013 -6.830760920084738 -8.560823603505465 1 0 1
506 102 1 -9.439291071415175 -6.787372596910487 -8.474326750874273 1 0 1
3536 1079 4 -8.09439475113518 -7.19910161372594 -8.819596767855947 1 0 1
1669 457 2 -7.255677798660919 -7.0646702456002926 -9.198877965579499 0 0 1
1671 457 4 -7.413692155140042 -6.739579092402912 -8.853411317031235 0 0 1
1670 457 4 -7.097663442181796 -7.389761398797673 -9.544344614127763 0 0 1
3079 927 2 -9.579581805335263 -6.1479278452150306 -9.356650650503834 1 0 0
507 102 3 -9.63126179081996 -6.522047730274096 -8.797359192024835 1 0 1
3080 927 4 -9.445851137364771 -5.738454159160294 -9.102785708313903 1 0 0
1256 319 4 -8.988593966116634 -6.3610794053099875 -9.240906469511188 0 0 1
3081 927 4 -9.713312473305754 -6.557401531269767 -9.610515592693766 1 0 0
3642 1114 4 -9.017045259564773 -6.067559261732797 -8.468314399875823 1 0 1
1255 319 2 -8.498691359681564 -6.29431863543086 -9.166485801593216 0 0 1
1257 319 4 -8.008788753246494 -6.227557865551732 -9.092065133675245 0 0 1
1387 363 2 -7.233845174889252 -5.924107216434402 -9.212076865197288 0 0 1
1389 363 4 -7.359929598706232 -5.951426999532672 -8.729007152296543 0 0 1
1388 363 4 -7.107760751072272 -5.896787433336132 -9.695146578098033 0 0 1
3455 1052 4 -6.716660934380627 -5.703992365281428 -8.314478356146601 1 0 1
1625 442 4 -6.87839037234904 -5.402549850777424 -9.050725718613363 0 0 1
2381 694 4 -0.20925468951366955 -0.021209720870242477 -0.02137384707535342 0 0 0
94 19 3 -5.7107786013747175 -5.098426225492033 -9.892402170700441 0 0 1
1624 442 2 -6.555233995615724 -5.062715784669693 -9.224169553007988 0 0 1
2911 871 2 -9.607431889776532 -4.742164091832989 -8.486280283055208 1 0 0
2913 871 4 -9.136832222902575 -4.595608668066244 -8.570288980834691 1 0 0
1626 442 4 -6.232077618882409 -4.722881718561961 -9.397613387402613 0 0 1
1196 299 4 -5.48530160094433 -4.40462073776818 -9.63073366033303 0 0 0
1195 299 2 -5.195846153934732 -4.0121805501709975 -9.520251791433871 0 0 0
1197 299 4 -4.9063907069251345 -3.619740362573815 -9.409769922534712 0 0 0
836 179 4 -4.195806148063619 -3.9481528656214167 -9.16650618508152 0 0 0
52 11 3 -3.648866783362684 -3.60273188009749 -9.707502249829053 0 0 0
835 179 2 -4.2871580042078685 -3.8528657617083035 -8.684245668134066 0 0 0
51 11 1 -4.054442365462145 -3.43530331866615 -9.84561859216986 0 0 0
53 11 3 -4.324638725119731 -3.7880220598519156 -9.979347485248368 0 0 0
777 159 4 -2.923944169875522 -4.894443856941012 -9.842764107200288 0 0 0
1069 257 2 -3.202185243087787 -3.4482779954963334 -9.022587294501426 0 0 0
1067 256 4 -3.0472274914072632 -4.098054150619042 -9.535106665148001 0 0 0
1071 257 4 -2.711288247116375 -3.509566393742104 -9.095139838128004 0 0 0
1205 302 4 -2.3821891163745432 -4.1908189005422365 -9.064029531953905 0 0 0
1204 302 2 -1.9755894166496935 -4.143630201600858 -9.351170457069182 0 0 0
13 3 3 -2.3191141560580957 -3.7427708914305717 -9.71688317213995 0 0 0
1220 307 4 -1.9002623568495645 -3.5378237596747852 -9.110875373590085 0 0 0
11 3 1 -2.486257297331552 -3.3323833505284353 -9.854524868575327 0 0 0
1066 256 2 -3.2269530966695132 -4.314178324915712 -9.94861488525699 0 0 0
1082 261 4 -1.6707786434294873 -3.3434091570905053 -9.909672870215253 0 0 0
1206 302 4 -1.5689897169248441 -4.09644150265948 -9.63831138218446 0 0 0
1089 263 4 -4.512864452740524 -3.272477410925225 -8.81059026130946 0 0 0
1070 257 4 -3.6930822390591986 -3.3869895972505626 -8.950034750874847 0 0 0
54 11 3 -4.25206357026535 -3.209790643224709 -9.491514239432904 0 0 0
1087 263 2 -4.483358218424754 -2.8021197266619495 -8.977602329708061 0 0 0
1088 263 4 -4.453851984108984 -2.3317620423986742 -9.144614398106661 0 0 0
72 15 3 -3.749044442218127 -2.6918918048734475 -9.364778246829708 0 0 0
73 15 3 -3.830395404955966 -1.9652268600195737 -9.538674994304866 0 0 0
71 15 1 -3.5741809960049826 -2.271105492580613 -9.301836570925973 0 0 0
74 15 3 -3.585370631998033 -2.1702013577765586 -8.849074881263629 0 0 0
1856 519 4 -4.336811401725077 -2.49731989105429 -9.91050732659201 0 0 0
2246 649 4 -4.1186203099940455 -1.5828562417802194 -8.90484113806061 0 0 0
14 3 3 -2.9476059858828902 -3.3247548618589744 -9.805543303342574 0 0 0
75 15 3 -3.1443840982703337 -2.2632413645554785 -9.452212041625769 0 0 0
12 3 3 -2.3033719625566795 -3.0017630823613604 -9.59214500539699 0 0 0
1102 268 2 -2.6278064830004846 -2.1775457509139264 -9.80577543962754 0 0 0
1103 268 4 -2.5182241932970997 -1.755472889837033 -9.561140565323264 0 0 0
349 70 3 -2.0212450485192996 -2.2682687897199916 -9.182367633905828 0 0 0
795 165 4 -2.3322036007366074 -2.888347553308529 -8.760137172522695 0 0 0
793 165 2 -2.582445928960997 -2.4567917283189646 -8.726397772968 0 0 0
794 165 4 -2.8326882571853864 -2.0252359033294 -8.692658373413304 0 0 0
1219 307 2 -1.7123461326431095 -3.1099486758818276 -8.933082220321593 0 0 0
346 70 1 -1.6344987385681824 -2.0166685376425617 -9.231607911052594 0 0 0
978 226 4 -2.1222362294888355 -2.226334453593424 -8.416189365153691 0 0 0
348 70 3 -1.7190249512563405 -1.6469190085137861 -9.49889166491236 0 0 0
1221 307 4 -1.524429908436655 -2.6820735920888703 -8.755289067053099 0 0 0
350 70 3 -1.4836131186095685 -1.882168067676957 -8.823510921026365 0 0 0
347 70 3 -1.3130707616531818 -2.276118907497918 -9.434017301244786 0 0 0
2247 649 4 -5.096324916898708 -1.410062519303931 -8.785526297781546 0 0 0
2245 649 2 -4.607472613446377 -1.4964593805420752 -8.845183717921078 0 0 0
1516 406 2 -4.634225501675767 -0.9647652725405572 -9.853922073292328 0 0 1
1973 558 4 -4.655453070818751 -0.7196925489818227 -8.623772042139391 0 0 0
1517 406 4 -4.592183237806817 -1.0690812936899254 -9.366735645135243 0 0 1
2263 655 2 -3.5755808943139464 -1.149687905979749 -9.094031064713649 0 0 0
2264 655 4 -3.895418144707002 -0.7758465211900604 -9.00488650638526 0 0 0
768 156 4 -4.425881178559478 -0.27356603655065637 -9.261321989622132 0 0 0
1972 558 2 -4.216996804205111 -0.5350343172419869 -8.46996229044016 0 0 0
1058 253 4 -3.4676914842445252 -1.536427204548065 -8.429068031781647 0 0 0
1974 558 4 -3.778540537591471 -0.3503760855021511 -8.316152538740928 0 0 0
179 36 3 -3.415677057672661 -0.512964200356048 -9.58182073272846 0 0 0
2265 655 4 -3.2557436439208907 -1.5235292907694373 -9.183175623042038 0 0 0
927 209 4 -2.2216767075632733 -1.5652218498986525 -8.891425179218885 0 0 0
756 152 4 -3.1615948948390025 -0.8205785929023999 -8.584548881409106 0 0 0
180 36 3 -2.7935824403196214 -0.1246642233186144 -9.752470710440319 0 0 0
926 209 4 -2.7567966489585523 -0.8306933656768574 -9.30869554024127 0 0 0
925 209 2 -2.4892366782609128 -1.197957607787755 -9.100060359730078 0 0 0
178 36 3 -3.0250182072072587 -0.1554953884399929 -9.036658636595275 0 0 0
176 36 1 -3.158704172939827 -0.14007875605467685 -9.480719882384669 0 0 0
1111 271 2 -2.128770202554984 -0.5841638153595915 -9.954382188770438 0 0 0
1112 271 4 -2.177028527756175 -1.0661056526088661 -9.830272561593755 0 0 0
4008 1236 4 -1.7683558290897319 -9.990709278721111 -3.1874833150506943 0 1 0
1967 556 4 -2.2524746618342784 -0.18772370754939977 -9.137122584100313 0 0 0
1966 556 2 -2.041817134424978 -0.15370188376179103 -8.68494350270449 0 0 0
3590 1097 4 -9.50291449215521 -8.919614332426978 -8.038482328901903 1 0 1
3589 1097 2 -9.769696691507773 -9.160558795905763 -7.690958195024059 1 0 1
3185 962 4 -9.467539282246927 -8.812059748747485 -7.225472584547026 1 0 0
3184 962 2 -9.170679757863926 -8.461101425682537 -7.028742621769542 1 0 0
2584 762 2 -5.077698383451355 -9.980024545833185 -1.8352911413193878 0 1 0
3263 988 4 -9.108883108864237 -7.287947908556951 -7.937696817062371 1 0 0
3262 988 2 -9.279088614871341 -7.746741936519625 -7.835041443941689 1 0 0
3264 988 4 -9.449294120878445 -8.205535964482298 -7.732386070821007 1 0 0
872 191 4 -9.315159645703442 -7.566717700229921 -7.20710078076663 0 0 0
3186 962 4 -8.873820233480927 -8.11014310261759 -6.832012658992058 1 0 0
871 191 2 -9.457102072640025 -7.23962001682076 -6.856587652704845 0 0 0
3077 926 4 -8.560729214833625 -7.17298891881104 -7.3409543275395235 1 0 0
410 82 3 -9.878564969659108 -8.12499797882827 -7.0868728669404595 1 0 0
1490 397 4 -9.287918181125148 -6.794547004080254 -7.297203324916095 0 0 1
3076 926 2 -8.327816572895046 -7.547709351885114 -7.105717641918567 1 0 0
912 204 4 -7.611647004802379 -7.175875958830705 -8.229986631219216 0 0 0
910 204 2 -7.359922047700018 -7.104162751383208 -7.803968131797456 0 0 0
911 204 4 -7.108197090597657 -7.03244954393571 -7.377949632375696 0 0 0
3078 926 4 -8.094903930956466 -7.9224297849591885 -6.87048095629761 1 0 0
1030 244 2 -7.001431965535573 -6.806944331581487 -6.783532931257517 0 0 0
3242 981 4 -9.770278669312427 -5.856783866551686 -8.320506449434966 1 0 0
3640 1114 2 -9.001158565243468 -5.618676878081358 -8.248650523485582 1 0 1
508 102 3 -9.501329232498177 -6.587889078563587 -8.060010938386403 1 0 1
1379 360 4 -8.740972891788793 -6.565964221749049 -7.862802197871165 0 0 1
1491 397 4 -9.241504203166608 -5.888049539645978 -7.71685566867787 0 0 1
1489 397 2 -9.264711192145878 -6.341298271863116 -7.507029496796982 0 0 1
930 210 4 -8.633138649769121 -6.409359565903349 -7.074333577512648 0 0 0
3122 941 4 -9.738879435482966 -5.261762625465541 -7.760460348892665 1 0 0
1732 478 2 -8.655633818109058 -5.473781354658832 -7.188895114940079 0 0 1
1734 478 4 -9.096169562978943 -5.240696255227806 -7.228890038561247 0 0 1
3641 1114 4 -8.985271870922164 -5.169794494429918 -8.02898664709534 1 0 1
1378 360 2 -8.298053799607752 -6.482486104979755 -8.079260234918234 0 0 1
3456 1052 4 -7.073723318095677 -6.616515192470327 -8.114957570272587 1 0 1
1380 360 4 -7.8551347074267115 -6.399007988210462 -8.295718271965303 0 0 1
1733 478 4 -8.215098073239172 -5.706866454089858 -7.148900191318911 0 0 1
3454 1052 2 -6.895192126238152 -6.1602537788758776 -8.214717963209594 1 0 1
1032 244 4 -7.034861014075741 -6.350201288930487 -6.984202539578427 0 0 0
3444 1048 4 -7.364155424079613 -5.8787705180304695 -7.9292141583783495 1 0 1
3442 1048 2 -7.630424408938786 -5.492479161012866 -7.7563563694428606 1 0 1
851 184 4 -7.411584440498575 -5.600862130264874 -7.198250827399755 0 0 0
3443 1048 4 -7.896693393797958 -5.106187803995262 -7.583498580507372 1 0 1
850 184 2 -7.171544485625848 -5.507189505864835 -6.769757817535392 0 0 0
1371 357 4 -6.9207969326851195 -5.238285610700836 -7.712232929641971 0 0 1
1565 422 4 -6.383368635069295 -6.612623592616924 -7.459105182944336 0 0 1
1369 357 2 -6.486005158751746 -5.081862361864595 -7.521214918597564 0 0 1
1564 422 2 -6.187175387278124 -6.168847627187813 -7.338394363096024 0 0 1
1566 422 4 -5.990982139486953 -5.725071661758703 -7.217683543247713 0 0 1
1184 295 4 -5.462211117516577 -5.250118706928615 -6.911164804493345 0 0 0
1818 506 4 -5.259975399376521 -6.008617848738728 -7.021178204393516 0 1 0
1370 357 4 -6.051213384818373 -4.925439113028355 -7.330196907553157 0 0 1
3121 941 2 -9.660195269896043 -4.965333569861916 -7.3655697095001385 1 0 0
3123 941 4 -9.58151110430912 -4.6689045142582914 -6.970679070107612 1 0 0
3749 1150 4 -9.92827381025894 -3.5424080189380764 -6.863676500711559 1 0 1
1183 295 2 -5.514969701026265 -4.781976882551621 -7.078675294119962 0 0 0
1185 295 4 -5.567728284535954 -4.313835058174628 -7.246185783746578 0 0 0
3321 1007 4 -6.268457518051726 -4.296806275266837 -6.826942894765331 1 0 1
837 179 4 -4.378509860352118 -3.7575786577951904 -8.201985151186612 0 0 0
1172 291 4 -9.523505116829572 -2.9505105601106334 -7.244991149391265 0 0 0
1171 291 2 -9.414042822903363 -3.1643474023962836 -6.806480247486066 0 0 0
3221 974 4 -9.898060214021111 -2.6651961688065766 -7.864752679007602 1 0 0
3162 954 4 -3.880899166724477 -3.1473827510053525 -8.216350736477676 0 0 0
3160 954 2 -3.6043725190913167 -2.732418421392805 -8.179777272080607 0 0 0
3161 954 4 -3.3278458714581562 -2.3174540917802577 -8.143203807683538 0 0 0
976 226 2 -1.7430955012044735 -2.1344559559507807 -8.103442422998986 0 0 0
1059 253 4 -2.572667921066046 -1.6969017859580346 -8.01291814282673 0 0 0
1057 253 2 -3.0201797026552857 -1.6166644952530498 -8.220993087304189 0 0 0
977 226 4 -1.3639547729201114 -2.0425774583081373 -7.790695480844281 0 0 0
899 200 4 -8.831888192290098 -0.4997948596702542 -6.976242134322819 0 0 0
2079 593 4 -4.453737223445114 -0.034134030188595677 -8.197396621067668 0 0 0
816 172 4 -1.8198327009752964 -1.4560936902029367 -8.22087023768154 0 0 0
754 152 2 -3.1892477792774336 -0.5272700172107907 -8.180562003642455 0 0 0
755 152 4 -3.216900663715865 -0.23396144151918152 -7.776575125875804 0 0 0
1968 556 4 -1.831159607015677 -0.1196800599741823 -8.232764421308667 0 0 0
814 172 2 -1.9833129504195497 -1.036598417233653 -8.003389378758671 0 0 0
815 172 4 -2.146793199863803 -0.6171031442643696 -7.785908519835802 0 0 0
1520 407 4 -9.924852247533137 -8.051211586709242 -3.038771732763986 0 0 0
1009 237 2 -8.657156022085328 -8.734057396455698 -6.036887910006705 0 0 0
4251 1317 4 -9.734989274550664 -8.925395730429909 -5.956727667885908 1 1 0
1010 237 4 -8.962146215127335 -8.996698715941875 -5.740239094996629 0 0 0
1782 494 4 -9.419054235887277 -9.602308200847704 -5.717972215925969 0 1 0
3995 1232 4 -9.45727594010635 -8.43910073783123 -5.371623127781886 1 1 0
1780 494 2 -9.480639385002616 -9.830257608009664 -5.277238353847047 0 1 0
3994 1232 2 -9.678539849610504 -8.74307116057767 -5.042010833645593 1 1 0
4249 1317 2 -9.976874493682903 -8.8690677345131 -6.390684690690505 1 1 0
1011 237 4 -8.35216582904332 -8.471416076969522 -6.3335367250167804 0 0 0
845 182 4 -7.260147636854026 -8.662101452089205 -6.028354132695797 0 0 0
204 41 3 -6.958451599521234 -8.90721921866158 -5.31423590357913 0 1 0
844 182 2 -7.587523190684359 -8.286141784939181 -5.989888883045588 0 0 0
1763 488 4 -6.551275519315187 -9.594054441601902 -5.339625022493471 0 1 0
201 41 1 -6.573008630603644 -8.796903435627137 -5.547825598825819 0 1 0
203 41 3 -6.540405740399454 -9.056283505199897 -5.931177957705627 0 1 0
2120 607 4 -5.838772390521421 -8.621606477579665 -5.956322861421963 0 1 0
202 41 3 -6.208099686175262 -8.88021621284037 -5.280429930519219 0 1 0
1889 530 4 -5.888844951318449 -9.459591425117013 -5.6970373272657895 0 1 0
1888 530 2 -5.6294664523963585 -9.837388481077303 -5.497056881210323 0 1 0
1878 526 4 -5.376750149903321 -8.959160170047637 -5.320026462542704 0 1 0
205 41 3 -6.579755056463446 -8.355343004785803 -5.659085976558802 0 1 0
1876 526 2 -4.941106725424119 -8.927059809248076 -5.563304849467333 0 1 0
2197 633 2 -3.8669898278083092 -8.917869101357969 -5.7657120280758924 0 1 0
2199 633 4 -3.929777909364418 -9.260835352564728 -5.407338190654845 0 1 0
1877 526 4 -4.505463300944918 -8.894959448448516 -5.806583236391963 0 1 0
2198 633 4 -3.8042017462522004 -8.57490285015121 -6.12408586549694 0 1 0
2088 596 4 -3.9638840456018243 -8.42465461995789 -5.30199145003968 0 1 0
25 5 3 -3.1808790795603192 -9.444759891181747 -5.126879005710043 0 0 0
20 4 3 -9.127445124385298 -8.322819127429348 -6.105947996156402 0 0 0
873 191 4 -9.599044499576607 -6.9125223334116 -6.5060745246430605 0 0 0
17 4 3 -9.36952860991554 -7.671912604536405 -6.379290792823335 0 0 0
1148 283 4 -8.601137621931722 -7.7151905340168785 -6.226675620234775 0 0 0
16 4 1 -9.382129686683555 -7.955776744235745 -6.017541759573311 0 0 0
18 4 3 -9.215350613940723 -7.733053133929785 -5.646221231851493 0 0 0
19 4 3 -9.82193891806608 -8.082767942423333 -5.941771873907004 0 0 0
983 228 4 -8.975061951108597 -7.046340052520524 -5.988443173374068 0 0 0
2849 850 4 -9.856966387465638 -7.31403967953359 -5.857384282646266 1 0 0
982 228 2 -9.313812622195705 -6.871816648531313 -5.664731010646157 0 0 0
45 9 3 -8.487902708733817 -6.819492112241214 -5.35657539507663 0 0 0
1202 301 4 -9.967955518301748 -7.875557410304169 -5.2143269231912095 0 0 0
1126 276 2 -8.749483947039842 -7.728513034559392 -5.0923326382342555 0 0 0
984 228 4 -9.652563293282814 -6.697293244542102 -5.341018847918245 0 0 0
1127 276 4 -8.294051962114121 -7.644977305302486 -5.281021506595929 0 0 0
1031 244 4 -6.968002916995404 -7.263687374232488 -6.582863322936608 0 0 0
1147 283 2 -8.259403942266491 -7.416049940705673 -6.0175512610233275 0 0 0
846 182 4 -7.914898744514692 -7.910182117789157 -5.95142363339538 0 0 0
1149 283 4 -7.917670262601262 -7.116909347394467 -5.80842690181188 0 0 0
920 207 4 -7.472339027341775 -7.618670034689816 -5.342426295810915 0 0 0
2145 615 4 -7.100068068899889 -7.860854254379793 -6.017956371487254 0 1 0
857 186 4 -7.240203525801651 -6.870855489016976 -5.458812913764291 0 0 0
2143 615 2 -6.686658757014997 -7.587350139526403 -6.0834410262184635 0 1 0
919 207 2 -7.138782882287288 -7.488634975969026 -4.9933830583747065 0 0 0
43 9 3 -7.847125331542654 -7.020879825808325 -5.01635878510041 0 0 0
2119 607 2 -5.722110935801809 -8.185083496798772 -6.170420484558644 0 1 0
2144 615 4 -6.273249445130105 -7.313846024673013 -6.148925680949673 0 1 0
2121 607 4 -5.605449481082197 -7.748560516017878 -6.384518107695325 0 1 0
1827 509 4 -5.9459429992389135 -7.870118850130895 -5.659134443541507 0 1 0
1825 509 2 -6.050893876360186 -7.841861930001829 -5.171090531729759 0 1 0
818 173 4 -5.565869422185625 -7.163146343996021 -5.8179715628733755 0 0 0
817 173 2 -5.843765861976274 -6.7496041687237485 -5.859881442648166 0 0 0
928 210 2 -8.506768377285159 -6.472114395075602 -6.594654116155761 0 0 0
1072 258 2 -8.997481412441346 -5.8665527083043605 -5.316787431472159 0 0 0
884 195 4 -9.14901898404981 -5.417667554737923 -6.254627004347524 0 0 0
1074 258 4 -9.000907261501002 -6.286128571276577 -5.588714551798858 0 0 0
883 195 2 -9.585053894920803 -5.180881799633355 -6.31632029961904 0 0 0
1073 258 4 -8.99405556338169 -5.446976845332144 -5.04486031114546 0 0 0
929 210 4 -8.380398104801197 -6.5348692242478545 -6.114974654798874 0 0 0
41 9 1 -8.115142094827549 -6.664826009028925 -5.145558994678082 0 0 0
1253 318 4 -8.200362136277118 -5.695116396025435 -5.126314389113276 0 0 0
42 9 3 -7.877590958254393 -6.397056044870071 -5.4344685026679995 0 0 0
1254 318 4 -7.5594286008741145 -5.604650669632514 -5.888561170374636 0 0 0
1252 318 2 -7.879895368575617 -5.649883532828975 -5.507437779743956 0 0 0
856 186 2 -7.052878204303177 -6.458478019230606 -5.670600652639761 0 0 0
852 184 4 -6.93150453075312 -5.413516881464795 -6.341264807671029 0 0 0
801 167 4 -6.930741829544838 -5.3272215968245185 -5.525342334546106 0 0 0
1214 305 4 -7.6687102466081685 -5.129991587858299 -5.267654131907268 0 0 0
858 186 4 -6.865552882804702 -6.046100549444236 -5.8823883915152315 0 0 0
68 14 3 -6.164685336908914 -5.261525254523399 -6.599571280813003 0 0 0
1816 506 2 -5.0913828580565585 -5.903822518749705 -6.562272447375956 0 1 0
67 14 3 -6.405980080876136 -5.97014157813463 -6.532193595741574 0 0 0
70 14 3 -5.698149947387466 -5.803583274867629 -6.364161355566312 0 0 0
66 14 1 -6.127354487028932 -5.651851544568825 -6.351474938746769 0 0 0
819 173 4 -6.121662301766923 -6.336061993451476 -5.901791322422956 0 0 0
893 198 4 -5.80062537835772 -5.828360681162357 -5.3280349209908335 0 0 0
69 14 3 -6.2545282277618375 -5.5731330481743635 -5.912236691330372 0 0 0
799 167 2 -6.461378458729662 -5.187579683235812 -5.424356384502707 0 0 0
948 216 4 -5.46139526720572 -5.2746338075431085 -5.846598683987987 0 0 0
1817 506 4 -4.922790316736596 -5.799027188760682 -6.1033666903583965 0 1 0
1164 288 4 -9.488754943701954 -4.122631257962202 -5.416078618685292 0 0 0
1162 288 2 -9.689385281373967 -4.12776001972817 -5.87403185145942 0 0 0
1163 288 4 -9.890015619045982 -4.132888781494137 -6.3319850842335486 0 0 0
3234 978 4 -8.705135960999494 -3.9775466961024812 -5.204786272978496 1 0 0
434 87 3 -9.848032753979439 -3.5223244784187724 -5.7838343218794925 1 0 0
3232 978 2 -8.539495217868291 -4.444159292823367 -5.135246149334792 1 0 0
1173 291 4 -9.304580528977155 -3.378184244681934 -6.367969345580867 0 0 0
1140 280 4 -9.23517117257647 -3.3775491595293867 -5.322368589483362 0 0 0
3233 978 4 -8.373854474737088 -4.910771889544253 -5.065706025691088 1 0 0
800 167 4 -5.992015087914486 -5.047937769647106 -5.323370434459309 0 0 0
946 216 2 -5.400862624780539 -4.876487055893078 -5.550262787830413 0 0 0
3319 1007 2 -6.3554598618945715 -4.546463049887017 -6.402558532362672 1 0 1
3320 1007 4 -6.442462205737417 -4.7961198245071985 -5.978174169960012 1 0 1
888 196 4 -6.030908430081843 -4.215888206751676 -5.530630251400904 0 0 0
947 216 4 -5.3403299823553585 -4.478340304243047 -5.253926891672839 0 0 0
886 196 2 -6.304619728434872 -4.139887741506913 -5.119162081992254 0 0 0
1004 235 4 -9.190822288895978 -2.605954838740306 -6.268229875674736 0 0 0
1139 280 4 -8.569889382206593 -3.1148473113192177 -6.021216125323309 0 0 0
1138 280 2 -8.902530277391532 -3.246198235424302 -5.671792357403335 0 0 0
1199 300 4 -8.939012615664106 -2.6314748938712476 -5.53632834671661 0 0 0
433 87 3 -9.681480010179316 -2.7943055564235473 -5.642949146116208 1 0 0
1003 235 2 -9.375633554234884 -2.1413740151000438 -6.265155057068236 0 0 0
1198 300 2 -8.88153575506647 -2.2664973716982804 -5.19944881512686 0 0 0
809 170 4 -8.48269337798575 -3.225664286108533 -5.183037533014402 0 0 0
822 174 4 -9.745446774081818 -1.9655551753987435 -5.192443708004036 0 0 0
1005 235 4 -9.56044481957379 -1.6767931914597813 -6.262080238461737 0 0 0
604 121 3 -9.141718553941246 -1.6734592119171483 -5.609474376525852 1 0 0
1819 507 2 -0.668054371422002 -0.6458169274803369 -0.9164779066913777 0 0 0
431 87 1 -9.98223887878603 -3.0826830032808212 -5.847112196393673 1 0 0
2889 863 4 -9.950505872725076 -3.3164287403860997 -5.057505024718388 1 0 0
898 200 2 -8.858973945332778 -0.8394095109353702 -6.610280045263419 0 0 0
1846 516 2 -9.01324962854461 -0.29846266936679927 -5.678209131411605 0 0 0
900 200 4 -8.886059698375458 -1.1790241622004862 -6.24431795620402 0 0 0
603 121 3 -9.140850464025236 -0.9141671336561834 -5.5766904428196415 1 0 0
2165 622 4 -9.599452050646606 -0.8548766137897941 -6.247728487404099 0 0 0
601 121 1 -9.36021650345612 -1.300100902972253 -5.4416583486878976 1 0 0
1848 516 4 -8.941414650863246 -0.39019154242841314 -6.164445236435245 0 0 0
605 121 3 -9.791267783098625 -1.2932700171461706 -5.588451173162074 1 0 0
2153 618 4 -8.462530418451093 -1.2706289846657963 -5.552911844031983 0 0 0
1847 516 4 -9.085084606225974 -0.20673379630518543 -5.191973026387965 0 0 0
1133 278 4 -7.441497090132103 -1.5072367026416633 -5.381735893175764 0 0 0
2154 618 4 -7.614478774282155 -1.051435646143641 -6.035366701163358 0 0 0
2152 618 2 -8.038504596366623 -1.1610323154047186 -5.794139272597671 0 0 0
2205 635 4 -8.13829195531661 -1.2275691192623908 -1.4087734905495823 0 0 0
3996 1232 4 -9.899803759114658 -9.047041583324111 -4.7123985395093 1 1 0
2772 824 4 -9.686486443435578 -9.367744952907607 -3.6020920837395503 0 1 0
4592 1431 4 -9.702460571798584 -8.56918700561711 -3.6234450406381287 1 1 0
4591 1431 2 -9.753098258959819 -8.263018282849504 -4.01548654078529 1 1 0
2116 606 2 -7.0238373744966385 -8.517987270891865 -4.409136474259855 0 1 0
2173 625 2 -6.7937443364991505 -8.654025574668642 -3.325647664172781 0 1 0
2117 606 4 -6.618833188851282 -8.490838281593522 -4.701086028103471 0 1 0
2118 606 4 -7.428841560141995 -8.545136260190208 -4.117186920416239 0 1 0
1762 488 2 -6.567746442451636 -9.862558940234122 -4.918158484194823 0 1 0
2031 577 4 -5.832681330060445 -9.49559624119453 -4.912763744719815 0 1 0
2029 577 2 -5.810511470237304 -9.005639213224928 -4.815549506777041 0 1 0
1887 529 4 -5.816436152073367 -8.794096538801938 -4.019054144973245 0 1 0
223 45 3 -5.6696272122657785 -9.591942998883342 -4.163307107971557 0 1 0
1885 529 2 -5.828473530849754 -9.180480752617544 -3.7019384865354596 0 1 0
2160 620 4 -5.2186207667393365 -9.053707767949673 -4.532107965946451 0 1 0
2030 577 4 -5.788341610414164 -8.515682185255326 -4.718335268834267 0 1 0
222 45 3 -5.146720587802221 -9.820781752747315 -4.652287155439258 0 1 0
1886 529 4 -5.840510909626142 -9.566864966433151 -3.3848228280976747 0 1 0
221 45 1 -5.474453982818368 -9.962827366116665 -4.362435701219182 0 1 0
2129 610 4 -0.3000269348905603 -1.8781276682948767 -0.2029173561452739 0 0 0
2135 612 4 -4.650163964432046 -9.277665995783897 -5.071418466864389 0 1 0
2134 612 2 -4.2404859060672635 -9.495627387276361 -4.885255311773269 0 1 0
2158 620 2 -4.890104741363341 -8.875661190270282 -4.199878170100517 0 1 0
2136 612 4 -3.8308078477024807 -9.713588778768825 -4.699092156682149 0 1 0
2123 608 4 -3.8984398127628395 -9.123174593081247 -4.12545551900103 0 1 0
2159 620 4 -4.561588715987346 -8.697614612590892 -3.8676483742545824 0 1 0
2122 608 2 -3.9092418359301426 -9.341949791832581 -3.6759883581237576 0 1 0
23 5 3 -3.5689018279906435 -8.89356936517429 -4.791428039486255 0 0 0
1098 266 4 -3.5965924552232402 -9.883623743779056 -3.9504282569746745 0 0 0
2086 596 2 -3.973238914613987 -8.402464661049333 -4.802571694573894 0 1 0
2087 596 4 -3.98259378362615 -8.380274702140776 -4.3031519391081074 0 1 0
1190 297 4 -3.7707731129485285 -8.550611055690402 -3.5417915465896854 0 0 0
2010 570 4 -3.311101892917554 -9.194127223711272 -3.610917415481652 0 1 0
1884 528 4 -3.2445344164327423 -8.638201422621979 -4.121265678408423 0 1 0
21 5 1 -3.1841005924794112 -9.152486306292696 -4.777643020406816 0 0 0
22 5 3 -3.177566502002858 -9.38824317137171 -4.382705042706694 0 0 0
24 5 3 -2.809037384560453 -8.87991304381175 -4.795847598021772 0 0 0
1908 536 4 -2.4840540342757023 -9.638655920125283 -4.74604410098337 0 1 0
2008 570 2 -2.85891261613494 -9.34758409496518 -3.4626748891027117 0 1 0
1906 536 2 -2.277771989980785 -9.803628940998891 -4.321507152549529 0 1 0
1907 536 4 -2.0714899456858675 -9.9686019618725 -3.8969702041156884 0 1 0
362 73 3 -0.2888337211277534 -9.761627232823102 -3.5373915159959575 0 0 0
1012 238 2 -4.870372496091617 -2.769289077380839 -1.2582123428688683 0 0 0
1201 301 2 -9.793205298436908 -7.539112185791501 -4.8883407707860895 0 0 0
1203 301 4 -9.618455078572067 -7.202666961278832 -4.56235461838097 0 0 0
1128 276 4 -9.204915931965562 -7.812048763816298 -4.903643769872582 0 0 0
4593 1431 4 -9.803735946121053 -7.956849560081898 -4.407528040932452 1 1 0
1560 420 4 -8.332079307780859 -7.948048171806921 -3.190215051770922 0 0 0
2175 625 4 -7.081338741315642 -8.262234300854619 -3.443074475768004 0 1 0
921 207 4 -6.8052267372328 -7.3585999172482355 -4.644339820938498 0 0 0
84 17 3 -6.731828117459791 -7.936818393609464 -4.100949132638203 0 0 0
2273 658 4 -5.154129423418928 -8.334822930030748 -4.211857498961233 0 1 0
1822 508 2 -6.704278264908685 -6.715989224535464 -3.491292151308859 0 1 0
759 153 4 -6.058662572258424 -7.032577784510761 -4.749739436126741 0 0 0
1826 509 4 -6.155844753481458 -7.813605009872763 -4.683046619918011 0 1 0
757 153 2 -5.88669058190752 -6.896120677768091 -4.300512219059611 0 0 0
82 17 3 -6.282591953688345 -7.338426346399274 -4.030140750398734 0 0 0
2274 658 4 -5.559589406607092 -7.4219472699074105 -4.2593993877155185 0 1 0
81 17 1 -6.3692772513016465 -7.761132469103924 -3.8707506848185904 0 0 0
85 17 3 -6.002652318775535 -8.02363389927037 -3.9346189712426294 0 0 0
2272 658 2 -5.35685941501301 -7.878385099969079 -4.235628443338376 0 1 0
758 153 4 -5.7147185915566165 -6.759663571025421 -3.851285001992481 0 0 0
1064 255 4 -5.667020236490563 -7.444666780763475 -3.474931139994498 0 0 0
83 17 3 -6.467335684323878 -7.733562846224863 -3.4180648560062927 0 0 0
1824 508 4 -6.304721589324284 -6.939368023472632 -3.2901544492698256 0 1 0
1189 297 2 -4.147305122018795 -8.252541361860812 -3.6809968042696797 0 0 0
1191 297 4 -4.523837131089063 -7.954471668031222 -3.820202061949674 0 0 0
1882 528 2 -2.852960344999459 -8.333379561491208 -4.060000847078663 0 1 0
1883 528 4 -2.461386273566176 -8.028557700360437 -3.998736015748903 0 1 0
1229 310 4 -9.019820194326499 -6.51035962928863 -4.812602957663477 0 0 0
3765 1155 4 -9.691037343279444 -5.602359923667937 -3.7965117115452123 1 0 0
1230 310 4 -9.118878512183823 -6.224049971402127 -3.859600213982533 0 0 0
1228 310 2 -9.069349353255161 -6.3672048003453785 -4.3361015858230045 0 0 0
3152 951 4 -9.498012998778286 -5.873346475804571 -4.513165186596817 1 0 0
3151 951 2 -9.95707648872589 -5.727734086592748 -4.647544293251383 1 0 0
1016 239 4 -8.678549550125854 -5.860258211905838 -4.473395400014959 0 0 0
3414 1038 4 -9.189306551080398 -5.1732881677322755 -4.310327804627487 1 0 0
3763 1155 2 -9.605492962386423 -5.564706369856756 -3.305325017116985 1 0 0
1017 239 4 -7.8594509549287945 -5.288768392606631 -4.523163640731057 0 0 0
1161 287 4 -7.415725105099163 -6.400485826624153 -4.7916518911028145 0 0 0
44 9 3 -8.235917823618697 -6.414488692354728 -4.7740156577507 0 0 0
1159 287 2 -7.001658709258721 -6.515628222081209 -4.536130368321554 0 0 0
842 181 4 -7.422414632283823 -5.8494283585056115 -4.162780281682774 0 0 0
1015 239 2 -8.269000252527324 -5.574513302256235 -4.498279520373008 0 0 0
1823 508 4 -7.103834940493085 -6.492610425598297 -3.692429853347892 0 1 0
841 181 2 -7.4793116437918075 -5.9566691987417055 -3.677742002505672 0 0 0
867 189 4 -7.107652664130534 -5.318116990821724 -4.719581881145341 0 0 0
865 189 2 -6.798295493192164 -5.41767642349146 -4.339600223488567 0 0 0
827 176 4 -7.321233857921812 -5.020878968280941 -3.9883717899167626 0 0 0
1160 287 4 -6.587592313418278 -6.630770617538265 -4.280608845540292 0 0 0