LAMMPS data file via write_data, version 27 Jun 2024, timestep = 5000000, units = lj

4710 atoms
4 atom types
3210 bonds
1 bond types

-9.99857 9.99857 xlo xhi
-9.99857 9.99857 ylo yhi
-9.99857 9.99857 zlo zhi

Masses

1 1
2 1
3 0.5
4 0.5

Bond Coeffs # zero

1 0

Atoms # bond

3195 995 4 -8.514814518542792 -9.745023698815075 -8.578643891386275 1 0 1
2384 725 4 -8.780600497418412 -9.443418792320848 -8.601197211072414 0 1 1
2383 725 2 -9.25073331095696 -9.51167792434501 -8.445261876622894 0 1 1
2385 725 4 -9.720866124495508 -9.579937056369172 -8.289326542173374 0 1 1
3193 995 2 -8.25717404557329 -9.88380192790469 -8.984059714731115 1 0 1
2974 922 2 -9.9645169234368 -7.9685293322631185 -0.7610038362932723 1 0 0
810 200 4 -6.898531349196541 -8.88616081722824 -9.783608119979316 0 0 0
809 200 4 -6.430314933830842 -8.964017791573879 -8.903431046927423 0 0 0
808 200 2 -6.664423141513692 -8.925089304401059 -9.34351958345337 0 0 0
1264 352 2 -4.102391315273149 -8.37883255569652 -9.738950373726828 0 0 1
1350 380 4 -4.094127441958919 -9.12225389769669 -9.459783378183237 0 0 1
1266 352 4 -3.91040040280703 -8.775404540059638 -9.50258169824578 0 0 1
1348 380 2 -3.9512499519060533 -9.369394772650033 -9.049286836463764 0 0 1
1349 380 4 -3.8083724618531876 -9.616535647603376 -8.638790294744291 0 0 1
34 7 3 -3.7307238561642473 -9.3052357747065 -8.353443032925126 0 0 0
1798 530 2 -3.0332440456214598 -8.297469953829992 -9.988249199324686 0 0 0
707 166 4 -9.026668704723205 -7.0081998941432655 -8.83327679780275 0 0 0
706 166 2 -8.80550662067908 -7.405248194180326 -9.04169939739046 0 0 0
708 166 4 -8.584344536634957 -7.802296494217387 -9.25012199697817 0 0 0
3155 982 4 -8.51658931023405 -8.017657035206327 -9.58848519253797 1 0 0
3154 982 2 -8.067214155493335 -8.06831754679582 -9.801781894028814 1 0 0
1265 352 4 -4.294382227739268 -7.982260571333405 -9.975319049207876 0 0 1
1316 369 4 -2.9175302144210398 -7.437807854239705 -9.859187310154931 0 0 1
1800 530 4 -3.041408617158704 -7.867410472380313 -9.73333316964692 0 0 0
2966 919 4 -0.9354293913635601 -6.830703716266397 -8.374795461503574 0 0 0
728 173 4 -1.2489320024589206 -7.102200580836286 -8.330630957632666 0 0 0
2960 917 4 -8.939275170645509 -6.5980836580258115 -8.81366310185649 1 0 0
2961 917 4 -9.262760255445372 -5.879932665692155 -9.42979340635513 1 0 0
1472 421 4 -9.036599782661217 -5.564611120906155 -9.540682956318497 0 0 1
2959 917 2 -9.10101771304544 -6.239008161858983 -9.12172825410581 1 0 0
1471 421 2 -8.814846411602995 -5.195285005700786 -9.79450112558762 0 0 1
4620 1470 4 -6.753299233215482 -5.176345716760509 -9.651154306477233 1 0 1
4618 1470 2 -6.5013980168576655 -5.549300768173715 -9.433323393099398 1 0 1
4619 1470 4 -6.249496800499849 -5.922255819586922 -9.215492479721563 1 0 1
895 229 2 -6.12738574515311 -5.670049130172343 -8.388673132033782 0 0 0
897 229 4 -6.229763976242634 -5.9416730091266725 -8.795783886227836 0 0 0
1005 265 4 -3.0747800625181743 -6.377137101880589 -9.095015975061054 -1 0 0
1003 265 2 -2.7336995007532483 -6.1033201706217435 -9.33727273666196 -1 0 0
1004 265 4 -2.392618938988322 -5.829503239362899 -9.579529498262865 -1 0 0
576 122 4 -2.117382056969978 -5.8160628124870275 -9.880215223431335 0 0 0
574 122 2 -2.031931661691384 -5.331781692306756 -9.789827024070256 0 0 0
1241 344 4 -2.98842979322355 -5.128754398207495 -9.601231690163997 0 0 1
2965 919 2 -0.8277111423780007 -6.433019884415752 -8.658069796239307 0 0 0
2967 919 4 -0.7199928933924413 -6.035336052565107 -8.94134413097504 0 0 0
2835 875 4 -0.727578035414878 -6.215627325081315 -9.301475783621296 0 0 0
2833 875 2 -0.8222719356184551 -5.888475575668811 -9.667542441650316 0 0 0
1212 334 4 -0.6807045236427864 -0.21569130251829738 -0.3958638285777611 0 -1 0
595 129 2 -9.821879939217977 -3.8527564243659573 -8.529887258459333 0 0 0
596 129 4 -9.378995975549504 -4.0403457830630485 -8.393270907942217 0 0 0
1210 334 2 -0.6099241101708552 -0.19060203805668582 -0.8901923244965306 0 -1 0
770 187 4 -7.445329942175932 -3.6629930069694563 -9.006540081736867 0 0 0
769 187 2 -7.4471382956869085 -3.8462292833270535 -8.541329165179565 0 0 0
998 263 4 -7.338064257191972 -4.048470049870808 -9.111504033035352 0 0 0
997 263 2 -7.340842770820833 -4.16427357729805 -9.597900808206884 0 0 0
630 140 4 -3.815355931366375 -4.388601628613544 -8.909797852490286 0 0 0
628 140 2 -3.945579580249047 -4.305811485182605 -8.43420601759129 0 0 0
1242 344 4 -3.7724114966014515 -4.7299738102224085 -9.125472579462302 0 0 1
1240 344 2 -3.3804206449125007 -4.929364104214952 -9.36335213481315 0 0 1
575 122 4 -1.94648126641279 -4.847500572126485 -9.699438824709176 0 0 0
719 170 4 -2.0029551580232265 -4.458367358135974 -9.710685945605952 0 0 0
718 170 2 -2.1847799440496685 -4.383099970232581 -9.251039812689891 0 0 0
720 170 4 -2.3666047300761104 -4.307832582329188 -8.79139367977383 0 0 0
587 126 4 -2.410403445863507 -4.179935873712149 -8.423785220053242 0 0 0
3335 1042 4 -1.6499440475317138 -4.3205823039883215 -9.79585491887987 0 0 1
2554 782 2 -8.579268645005405 -2.373884596737127 -9.018433668801654 0 0 1
2556 782 4 -8.817722571567982 -2.52788646260674 -9.430044103819409 0 0 1
2555 782 4 -8.340814718442827 -2.2198827308675146 -8.6068232337839 0 0 1
1310 367 4 -5.641159319156387 -3.316918837739369 -8.503457302489537 0 0 1
1309 367 2 -5.838276082087582 -3.2283109109807704 -8.954338236979684 0 0 1
1311 367 4 -6.035392845018777 -3.139702984222172 -9.405219171469831 0 0 1
2393 728 4 -6.267206169428054 -2.8576562787288022 -9.621167439702402 0 0 1
2392 728 2 -6.355668922047068 -2.4624596944754913 -9.914414777615804 0 0 1
1211 334 4 -0.539143696698924 -0.16551277359507427 -1.3845208204153001 0 -1 0
3178 990 2 -1.9822373512986566 -1.6342178227258048 -9.103167094118032 0 0 1
3180 990 4 -1.771403904437963 -1.881075088110435 -9.483444293292235 0 0 1
1543 445 2 -1.4586233086736273 -2.4654494723899187 -9.69717932891308 0 0 1
1544 445 4 -1.459649370070491 -2.0953921620558638 -9.360940523499258 0 0 1
432 87 3 -1.1564236733602122 -1.97195679069695 -9.157301316898835 0 0 1
3658 1150 2 -0.9796424381425501 -1.6919604373036476 -1.4815881205658268 0 0 0
1382 391 4 -0.2295619951096085 -1.9646022132566254 -9.585639285639042 0 0 1
435 87 3 -0.41278714978482883 -1.9958810208509754 -9.215887595292097 0 0 1
431 87 1 -0.7665008049599183 -1.7363290441909314 -9.09374251125497 0 0 1
4475 1422 4 -8.809449827183801 -0.9829055942935654 -9.373323795382753 1 0 1
2543 778 4 -9.090852058482753 -0.6914769458080053 -9.382987065780558 0 0 1
4474 1422 2 -8.39696783509902 -1.2391551945814439 -9.492465511663381 1 0 1
2542 778 2 -9.110312371336972 -0.4216883281962476 -9.803505077322106 0 0 1
4476 1422 4 -7.984485843014239 -1.495404794869322 -9.61160722794401 1 0 1
3413 1068 4 -7.7476644831321755 -1.2754749259450884 -9.838066571477702 1 0 1
1248 346 4 -6.598375113746152 -0.9590333918014979 -8.82133097803731 0 -1 1
1117 303 2 -6.315531539739751 -1.077787859266186 -9.639105709115318 0 0 1
1119 303 4 -6.576501227713305 -1.0275307671487421 -9.21558587882319 0 0 1
1246 346 2 -6.229121779029569 -1.0908467142351297 -8.511045266427047 0 -1 1
1526 439 4 -5.113748783513645 -1.0588142366615771 -9.943372346628825 0 0 1
1527 439 4 -4.220983280912127 -1.506089159846214 -9.889382528558967 0 0 1
1552 448 2 -3.639698993242973 -0.8057855461828672 -9.99757919348647 0 0 0
1553 448 4 -3.543462739574195 -0.33853004489851896 -9.84787655490217 0 0 0
1047 279 4 -3.8518682430357196 -0.3151849447750211 -9.614139083429833 0 0 0
1525 439 2 -4.667366032212886 -1.2824516982538956 -9.916377437593896 0 0 1
2234 675 4 -3.178933764194535 -0.21259451342718996 -9.98832241785556 0 0 1
3179 990 4 -2.1930707981593502 -1.387360557341175 -8.722889894943828 0 0 1
2233 675 2 -2.710692495857092 -0.10119795814032174 -9.852893757314467 0 0 1
2092 628 2 -2.127076644376361 -0.3387264937443089 -8.911858228817248 0 0 0
2463 751 4 -2.412113966666142 -1.5950258885201878 -8.476558604226108 0 1 0
2093 628 4 -2.0905812802977923 -0.09621617666168691 -9.347583870143831 0 0 0
187 38 3 -1.7198640273624226 -0.17387307665745427 -9.452319435522524 0 0 0
2094 628 4 -2.1635720084549295 -0.5812368108269309 -8.476132587490666 0 0 0
779 190 4 -1.3492650161385646 -0.35510074108160566 -9.535615949873476 0 0 0
778 190 2 -1.094411545493121 -0.7181441822122442 -9.304858136675643 0 0 0
434 87 3 -0.7316698569119005 -1.6220771265695135 -8.645375134678801 0 0 1
433 87 3 -0.7788680748956041 -1.3527006248827902 -9.354465135001675 0 0 1
1124 305 4 -0.6707712196057344 -1.2284900673807804 -8.711556054476167 0 0 1
780 190 4 -0.8395580748476771 -1.0811876233428828 -9.07410032347781 0 0 0
968 253 4 -1.4165309915568918 -1.6048805323258892 -0.7456706928428498 0 0 0
5 1 3 -0.025652659580934087 -0.664460724636218 -6.176937357508312 0 0 0
2192 661 4 -6.881892249446972 -9.780025835105999 -6.646511750258945 0 1 1
35 7 3 -3.7960737141116154 -9.558980743161076 -7.647579811720007 0 0 0
2010 600 4 -3.9526962267503203 -9.361599819087214 -7.334566716015923 0 1 0
31 7 1 -3.5452342510053017 -9.578111024696762 -8.027202777406801 0 0 0
2008 600 2 -3.940957709815363 -9.31477654418139 -6.836902383209519 0 1 0
33 7 3 -3.11047366078696 -9.443648637346916 -7.936631835150951 0 0 0
1910 567 4 -2.7710088681187655 -9.558025827060913 -7.741690771699039 0 1 0
1911 567 4 -2.501656306381251 -8.595713612803795 -7.7791660939362135 0 1 0
1909 567 2 -2.636332587250008 -9.076869719932354 -7.760428432817626 0 1 0
591 127 4 -2.376234595053563 -8.602755471852786 -7.403493543735073 0 0 0
3540 1110 4 -9.541023570982869 -7.044538444140075 -7.711325407310194 1 0 0
584 125 4 -9.786933071602634 -8.27739410073447 -7.6545727093873746 0 0 0
583 125 2 -9.518366449596101 -7.983562423013421 -7.352025333409583 0 0 0
585 125 4 -9.249799827589568 -7.689730745292372 -7.049477957431791 0 0 0
1511 434 4 -8.830867396239615 -7.745971802143545 -7.093881389411604 0 0 1
1510 434 2 -8.537757074365908 -7.394211342421785 -6.893006009667044 0 0 1
1512 434 4 -8.244646752492201 -7.042450882700024 -6.692130629922484 0 0 1
954 248 4 -5.223396763028997 -7.8764054852319 -8.201894907334973 0 0 0
953 248 4 -5.373218462999282 -7.221049775556005 -7.46158257324033 0 0 0
1485 425 4 -5.5676675895990275 -6.892753609680138 -7.582827796727363 0 0 1
952 248 2 -5.298307613014139 -7.548727630393953 -7.831738740287651 0 0 0
900 230 4 -6.396371107949486 -7.015964256254093 -6.810006656313168 0 0 0
1483 425 2 -5.960531495943523 -6.783695643627863 -7.2934071493436115 0 0 1
589 127 2 -2.1823107297770235 -8.143018131465046 -7.371320382101916 0 0 0
590 127 4 -1.9883868645004839 -7.683280791077307 -7.339147220468759 0 0 0
729 173 4 -1.803687603771813 -7.4462843815266915 -7.573100389988587 0 0 0
727 173 2 -1.5263098031153668 -7.2742424811814885 -7.951865673810627 0 0 0
2758 850 2 -6.755496941181676 -5.388033324163745 -7.474081415181331 1 0 0
2759 850 4 -7.204621703355943 -5.356677847441729 -7.256587088631048 1 0 0
3971 1254 4 -7.351700939620457 -4.985112636341735 -7.389068352299718 1 0 0
1484 425 4 -6.353395402288019 -6.674637677575587 -7.00398650195986 0 0 1
2760 850 4 -6.3063721790074085 -5.419388800885761 -7.691575741731614 1 0 0
896 229 4 -6.025007514063587 -5.398425251218013 -7.981562377839729 0 0 0
828 206 4 -4.789362338976181 -5.0484742796539885 -7.204969281195149 0 0 0
681 157 4 -9.124843350033773 -3.9608511698002493 -8.07649028191563 0 0 0
679 157 2 -8.633542586592856 -4.04420998112657 -8.035565125636998 0 0 0
680 157 4 -8.14224182315194 -4.12756879245289 -7.994639969358365 0 0 0
771 187 4 -7.448946649197885 -4.029465559684651 -8.076118248622263 0 0 0
3972 1254 4 -7.75788296348326 -4.233952071386672 -7.90942781377432 1 0 0
3970 1254 2 -7.5547919515518585 -4.6095323538642035 -7.649248083037019 1 0 0
2973 921 4 -7.198737390431994 -3.7118761963892637 -7.824567261705431 1 0 0
2971 921 2 -7.135860961343679 -3.6578250896114612 -7.331490155644787 1 0 0
2972 921 4 -7.072984532255365 -3.603773982833659 -6.838413049584144 1 0 0
527 106 4 -5.815629433938527 -3.4234547573139356 -8.165459769378671 0 0 0
629 140 4 -4.075803229131719 -4.223021341751665 -7.958614182692293 0 0 0
974 255 4 -4.7199891962939775 -4.87073297444231 -6.833646146490627 0 0 0
826 206 2 -4.534805126069817 -4.804343945311859 -7.5593716023101525 0 0 0
827 206 4 -4.280247913163453 -4.56021361096973 -7.913773923425156 0 0 0
588 126 4 -2.4331430302308057 -3.653380783224136 -7.573948383959397 0 0 0
586 126 2 -2.421773238047156 -3.9166583284681424 -7.99886680200632 0 0 0
651 147 4 -1.9710789365921535 -3.9910158328193432 -7.323696953534552 0 0 0
2699 830 4 -2.2522933213943834 -3.742374807647947 -7.230191190279726 0 0 0
649 147 2 -1.6414855601900005 -4.256387703173107 -7.0573400939331234 0 0 0
3397 1063 2 -0.6269068564198186 -4.655340060192962 -6.861047572134866 0 0 1
3398 1063 4 -1.0842509623235348 -4.851765688409073 -6.908516945154408 0 0 1
650 147 4 -1.3118921837878474 -4.521759573526872 -6.790983234331695 0 0 0
3399 1063 4 -0.16956275051610226 -4.458914431976852 -6.813578199115324 0 0 1
1564 452 2 -8.432649458064901 -2.321142220311457 -7.935166022515276 0 0 1
716 169 4 -8.904228393107704 -2.1274727984327493 -7.3341501106377205 0 0 0
1565 452 4 -8.762359027371296 -2.4073685013657196 -7.569301801303019 0 0 1
715 169 2 -9.103353152065697 -1.7083486478358672 -7.1479129587151045 0 0 0
1566 452 4 -8.102939888758506 -2.2349159392571947 -8.301030243727533 0 0 1
526 106 2 -5.814970264937213 -3.055109234970711 -7.8273456737450555 0 0 0
528 106 4 -5.814311095935899 -2.686763712627487 -7.48923157811144 0 0 0
1928 573 4 -6.2053561338915895 -2.6365806527059004 -7.395616128516962 0 0 0
1927 573 2 -6.140588456525593 -2.2666136566977717 -7.065571328780685 0 0 0
1929 573 4 -6.075820779159596 -1.8966466606896428 -6.7355265290444075 0 0 0
2698 830 2 -2.4112578896312526 -3.3502412094237033 -6.96380517865564 0 0 0
1801 531 2 -2.751963504085248 -2.249781134528394 -7.046704992621801 0 0 0
1802 531 4 -2.93750396041912 -1.9484985814135132 -7.399980469058688 0 0 0
1803 531 4 -2.566423047751376 -2.5510636876432744 -6.6934295161849136 0 0 0
2700 830 4 -2.5702224578681223 -2.9581076111994586 -6.697419167031556 0 0 0
2462 751 4 -2.867713208634449 -2.139647561999724 -7.772416172970698 0 1 0
2461 751 2 -2.6399135876502955 -1.867336725259956 -8.124487388598403 0 1 0
2051 614 4 -0.840116692949278 -2.0093005173942444 -6.723448854760903 0 0 0
580 124 2 -9.833929482156805 -0.6204801021875961 -6.90576529786502 0 0 0
717 169 4 -9.30247791102369 -1.289224497238985 -6.961675806792488 0 0 0
582 124 4 -9.527454919784944 -0.9918113468792045 -7.040622442038898 0 0 0
1247 346 4 -5.859868444312986 -1.2226600366687614 -8.200759554816784 0 -1 1
537 109 4 -2.9019350489942717 -0.7762590983705236 -7.046296690928239 0 0 0
1193 328 4 -2.5223774777863244 -0.628976146214415 -7.171962316511379 0 -1 1
1192 328 2 -2.4779810073570796 -0.6195605841976746 -7.6698983571885675 0 -1 1
1194 328 4 -2.433584536927835 -0.6101450221809341 -8.167834397865757 0 -1 1
867 219 4 -2.1936162443820666 -0.42828175240128624 -7.0488596334416105 0 0 0
535 109 2 -3.196327685307695 -0.8404210790535922 -6.647277623816101 0 0 0
865 219 2 -1.8643871667820873 -0.4164865000081686 -6.672735868594128 0 0 0
1123 305 2 -0.6400378775191363 -0.9091280681881202 -8.328067625504131 0 0 1
3 1 3 -0.49198269815909135 -0.37316176165858655 -6.691311938225806 0 0 0
1125 305 4 -0.6093045354325382 -0.5897660689954601 -7.9445791965320955 0 0 1
2498 763 4 -0.920808734077378 -0.4060568154617969 -7.886243103706507 0 0 1
2497 763 2 -0.795128711158497 -0.2615829058545106 -7.424364525200894 0 0 1
2499 763 4 -0.6694486882396161 -0.11710899624722432 -6.962485946695281 0 0 1
883 225 2 -9.933022398128111 -8.827457260660829 -5.436660600758293 0 0 0
884 225 4 -9.66911547918459 -9.251406458618156 -5.461564730633982 0 0 0
1688 493 4 -9.320809954609215 -9.48403097039415 -5.436376151764202 0 1 0
1687 493 2 -9.51288974958025 -9.92960287075345 -5.315665613805652 0 1 0
2127 639 4 -7.056932960077593 -9.55101111338777 -6.393025161195211 0 1 1
2125 639 2 -7.510586071275654 -9.68256012847036 -6.229032138993382 0 1 1
2060 617 4 -8.046959521672967 -8.54726288565142 -5.39301595171513 0 1 0
2059 617 2 -8.12065438071102 -8.954458902219535 -5.112372990209676 0 1 0
3633 1141 4 -8.35140389175976 -9.730114021927287 -5.910920731124213 1 0 1
2126 639 4 -7.964239182473714 -9.814109143552951 -6.065039116791554 0 1 1
2009 600 4 -3.929219192880405 -9.267953269275566 -6.3392380504031145 0 1 0
22 5 3 -3.9300811308610184 -9.062700805954336 -5.709020078327858 0 0 0
1557 449 4 -4.108921311491863 -9.025561087989255 -6.081058902948054 0 0 0
21 5 1 -3.512436307506813 -9.203617711794665 -5.840607415005241 0 0 0
1555 449 2 -4.474873109568222 -8.686784273981546 -6.044871173324784 0 0 0
23 5 3 -3.432127763805619 -9.623569986442767 -5.660355855160385 0 0 0
1556 449 4 -4.84082490764458 -8.348007459973838 -6.008683443701515 0 0 0
24 5 3 -3.500490530458105 -9.225191471533774 -6.303955956927462 0 0 0
25 5 3 -3.200218738782802 -8.907891165535148 -5.6907207924617005 0 0 0
1032 274 4 -2.9220304370301404 -9.09567186333435 -5.432195691155288 0 0 0
1030 274 2 -2.5837464311113982 -8.90213904282486 -5.118972162784157 0 0 0
545 112 4 -0.8738872913636614 -8.785854733245232 -5.60999869154392 0 0 0
544 112 2 -1.0191550867964723 -8.885957739896188 -5.14215613718439 0 0 0
2786 859 4 -1.20247474627868 -8.58971687564687 -5.786211712566512 0 0 0
860 217 4 -7.852907173827409 -8.38271692085581 -5.723379415112156 0 0 0
1446 412 4 -7.836561931723137 -7.099560770544121 -6.64209847121446 0 0 1
859 217 2 -7.573002915805121 -8.085974535579277 -6.012511846917176 0 0 0
861 217 4 -7.293098657782833 -7.789232150302744 -6.301644278722197 0 0 0
899 230 4 -6.939817070543262 -7.605527986364499 -6.21244402873574 0 0 0
1546 446 2 -7.151807206050366 -7.294044752648827 -5.0736488920010085 0 0 0
898 230 2 -6.668094089246374 -7.310746121309296 -6.511225342524454 0 0 0
1548 446 4 -7.1315799046170865 -6.81255770973105 -5.206919608136455 0 0 0
69 14 3 -5.220147243153407 -7.046414630978049 -5.2282054613813305 0 0 0
1022 271 4 -5.26387110695269 -7.404629047063204 -5.150285353403882 0 0 0
1021 271 2 -5.02988083120118 -7.699713142308691 -5.479183403849358 0 0 0
1023 271 4 -4.79589055544967 -7.994797237554178 -5.808081454294834 0 0 0
698 163 4 -1.7884646928598866 -6.630556921476174 -5.277282361390256 0 0 0
818 203 4 -1.1497512726045476 -7.401515557040156 -6.360665043949444 0 0 0
2785 859 2 -1.298781362455198 -8.143906030115216 -5.991096376920457 0 0 0
2787 859 4 -1.395087978631716 -7.698095184583564 -6.195981041274403 0 0 0
817 203 2 -1.1291372990685298 -6.904487679744694 -6.3102829708824375 0 0 0
3050 947 4 -0.1022701734053268 -6.697738827363841 -6.0222950038649525 0 0 0
1444 412 2 -7.717854488425676 -6.692884106435513 -6.376537491824413 0 0 1
1445 412 4 -7.599147045128214 -6.286207442326905 -6.110976512434366 0 0 1
1820 537 4 -8.02590407104216 -5.326437552444652 -5.680145648448241 0 0 0
1821 537 4 -7.362348172201681 -6.027317908918938 -5.941794831559714 0 0 0
1819 537 2 -7.69412612162192 -5.676877730681795 -5.810970240003978 0 0 0
3083 958 4 -8.076558871303115 -5.213459502520507 -5.311781559623549 1 0 0
639 143 4 -6.783661376186792 -6.641620499060233 -5.1698546145851045 0 0 0
638 143 4 -5.851442553319474 -6.281354773252916 -5.204157283571301 0 0 0
637 143 2 -6.317551964753133 -6.4614876361565745 -5.187005949078203 0 0 0
731 174 4 -5.458350892158497 -6.191720672891235 -5.304915205689474 0 0 0
730 174 2 -5.460217586262731 -5.769105677703666 -5.57211004339277 0 0 0
732 174 4 -5.462084280366965 -5.346490682516097 -5.839304881096066 0 0 0
68 14 3 -5.059407281148119 -6.303634639473694 -5.221837664629428 0 0 0
975 255 4 -5.122883114269667 -5.395036779294196 -6.08345816266545 0 0 0
973 255 2 -4.921436155281823 -5.132884876868253 -6.458552154578038 0 0 0
15 3 3 -1.8268193078484227 -6.6450712617086864 -5.668401602924209 0 0 0
12 3 3 -2.32686354775047 -6.30921272894916 -6.109031611108441 0 0 0
11 3 1 -1.9333442107929715 -6.254599371768215 -5.877169771519451 0 0 0
14 3 3 -1.9897055257921847 -5.9175237747484415 -5.563317188186209 0 0 0
740 177 4 -2.9040295728138665 -5.075614776275235 -4.994079325243563 0 0 0
800 197 4 -1.2270464939968897 -5.096014120380331 -6.629746164258101 0 0 0
819 203 4 -1.1085233255325118 -6.407459802449232 -6.25990089781543 0 0 0
13 3 3 -1.5980363318365516 -6.1382820710415995 -6.176065927167275 0 0 0
799 197 2 -1.2301419377155276 -5.567855529007496 -6.464349358568454 0 0 0
801 197 4 -1.2332373814341655 -6.039696937634661 -6.2989525528788075 0 0 0
930 240 4 -8.899656525604026 -3.8118243399670804 -5.221722220802784 0 0 0
1981 591 2 -9.62510289663987 -4.1861892995322245 -5.570691081959648 0 0 0
1983 591 4 -9.2451914393242 -3.9063637311159285 -5.405267577400209 0 0 0
3659 1150 4 -1.2614595886531657 -1.4962112611719758 -1.1179105797115276 0 0 0
3084 958 4 -8.026566161782993 -4.235115134046854 -5.1109258261475965 1 0 0
3082 958 2 -8.051562516543054 -4.724287318283681 -5.211353692885573 1 0 0
3015 935 4 -1.7779361078567466 -4.393935972098248 -5.492810183336712 0 0 0
1632 474 4 -2.0396868681723905 -4.298627070886064 -5.211447634472577 0 0 0
1630 474 2 -2.464257846809252 -4.4927241582945445 -5.032378360841025 0 0 0
3013 935 2 -1.5682965713875436 -4.440999669186508 -5.944292489927972 0 0 0
3014 935 4 -1.3586570349183407 -4.488063366274767 -6.395774796519232 0 0 0
252 51 3 -0.25203494368742657 -4.116627680601387 -6.579491902972805 0 0 0
3081 957 4 -0.8869282915471843 -4.499456644160033 -5.281355640063625 0 0 0
3079 957 2 -0.4003702708755157 -4.558519591880792 -5.380213420368504 0 0 0
882 224 4 -7.266046974818826 -3.265533444828805 -6.654870168707019 0 0 0
880 224 2 -7.5025822893833185 -2.8984440897556176 -6.411361543899027 0 0 0
881 224 4 -7.739117603947811 -2.5313547346824303 -6.167852919091034 0 0 0
3046 946 2 -7.744162588017219 -2.000029829816932 -5.593698068171102 1 0 0
3048 946 4 -7.526059375339667 -2.279073918561997 -5.946636285365093 1 0 0
3047 946 4 -7.962265800694771 -1.7209857410718667 -5.240759850977111 1 0 0
812 201 4 -6.29314367731756 -1.7634175153709322 -6.421632416882487 0 0 0
2730 840 4 -5.019148232749284 -2.33614312192323 -5.204056417739105 0 0 0
615 135 4 -4.998529253704135 -1.978222059523577 -4.998060638194835 0 0 0
902 231 4 -3.6843681825069066 -2.6056277859150243 -5.203859488314456 0 0 0
2729 840 4 -4.023874594519065 -2.413809245551204 -5.262351857383377 0 0 0
2728 840 2 -4.521511413634174 -2.3749761837372168 -5.233204137561241 0 0 0
901 231 2 -3.230534595545037 -2.5021089194112793 -5.386394196309417 0 0 0
903 231 4 -2.776701008583167 -2.3985900529075344 -5.568928904304378 0 0 0
64 13 3 -2.4043104079760393 -3.1241181501369177 -6.334546785956139 0 0 0
61 13 1 -2.306091091990255 -2.732057508151825 -6.106640184530231 0 0 0
65 13 3 -2.3912153825483564 -2.372263710828593 -6.37253918521413 0 0 0
62 13 3 -2.570111217006509 -2.708461846978858 -5.730692557379587 0 0 0
63 13 3 -1.8604851188400144 -2.731419608871233 -5.977276705227447 0 0 0
1727 506 4 -0.5016870375270397 -1.8394036788746813 -6.659290732580727 0 0 0
3717 1169 4 -1.5002104367565534 -2.8936042699768705 -6.002826379986862 0 0 0
2052 614 4 -1.1664998987653847 -2.656127217303786 -6.034181690849861 0 0 0
3715 1169 2 -1.3822940104082035 -2.919652220072393 -5.517628254791831 0 0 0
2050 614 2 -1.0033082958573314 -2.3327138673490153 -6.378815272805382 0 0 0
3716 1169 4 -1.2643775840598537 -2.9457001701679153 -5.032430129596801 0 0 0
3061 951 2 -0.35583601739683596 -2.810295342224738 -5.071539101702866 0 0 0
4401 1397 4 -7.7508711439884825 -0.15287119301971458 -5.538989613469591 1 0 1
3923 1238 4 -7.679384036168877 -1.4311435824757002 -5.303546099941902 1 0 0
3922 1238 2 -7.67770312105982 -0.9323152509522104 -5.26937783697561 1 0 0
3924 1238 4 -7.676022205950763 -0.4334869194287204 -5.2352095740093185 1 0 0
813 201 4 -6.801866174630756 -1.3317410695464318 -5.676745266470371 0 0 0
811 201 2 -6.547504925974158 -1.547579292458682 -6.049188841676429 0 0 0
1149 313 4 -3.868886711462721 -0.3041671088311617 -5.377770967031885 0 0 0
1147 313 2 -3.8491932961905495 -0.6544588745157147 -5.734012245223725 0 0 0
1148 313 4 -3.829499880918378 -1.0047506402002677 -6.090253523415565 0 0 0
536 109 4 -3.4907203216211187 -0.9045830597366608 -6.248258556703963 0 0 0
626 139 4 -1.7636536699873657 -0.2579744477584563 -6.001554588481351 0 0 0
1728 506 4 -0.061920588416831984 -1.0558988962054445 -6.220285350184925 0 0 0
866 219 4 -1.535158089182108 -0.40469124761505104 -6.296612103746645 0 0 0
1726 506 2 -0.28180381297193585 -1.447651287540063 -6.439788041382826 0 0 0
1 1 1 -0.10115713822953927 -0.30781445618798403 -6.449888842036453 0 0 0
627 139 4 -1.4141789147448698 -0.7924248042458746 -5.2319896387216325 0 0 0
625 139 2 -1.5889162923661178 -0.5251996260021654 -5.616772113601492 0 0 0
2997 929 4 -1.0943414337821689 -1.0521493046402897 -5.260482595774799 0 0 0
2061 617 4 -8.194349239749073 -9.36165491878765 -4.8317300287042215 0 1 0
1641 477 4 -8.364761236343947 -9.69200489415059 -4.706587368116779 0 1 0
2689 827 2 -6.753143338618878 -8.724772212375525 -3.8108041207520404 1 0 0
2691 827 4 -7.15527826945754 -8.475879130100449 -3.9730993178308296 1 0 0
2690 827 4 -6.351008407780217 -8.973665294650601 -3.6485089236732513 1 0 0
2223 671 4 -6.243411251351227 -9.345511114987106 -3.5419840310107866 0 1 0
721 171 2 -3.775167588931137 -9.831594460878225 -4.805419720719082 0 0 0
723 171 4 -4.130205675422302 -9.576213166248868 -4.5630803894217165 0 0 0
1031 274 4 -2.245462425192656 -8.708606222315371 -4.8057486344130265 0 0 0
645 145 4 -2.105849439941674 -8.59403179846463 -4.461272826614039 0 0 0
546 112 4 -1.1644228822292828 -8.986060746547144 -4.67431358282486 0 0 0
1561 451 2 -1.0003429908854105 -8.522820278582316 -4.089240472714719 0 1 0
1563 451 4 -0.9472544449526245 -8.951502526488483 -4.341060123697009 0 1 0
16 4 1 -8.54634935620438 -6.753653789373449 -3.9655023512442944 0 0 0
20 4 3 -8.632052923275984 -6.952023203487649 -4.366381976737225 0 0 0
18 4 3 -8.822050951789816 -6.932764108729635 -3.6380758347677946 0 0 0
3002 931 4 -9.010276390025766 -7.110048157207948 -3.3508064571386273 1 0 0
1547 446 4 -7.172034507483645 -7.775531795566605 -4.940378175865562 0 0 0
17 4 3 -8.107986959238666 -6.830414247614297 -3.8491140314811325 0 0 0
1659 483 4 -7.48888267326681 -7.164240543487785 -3.7506057214178155 0 1 0
935 242 4 -7.727961392698828 -6.844155614301044 -3.808826369906397 0 0 0
1657 483 2 -7.311402379392712 -7.631078418687553 -3.774336367543617 0 1 0
1658 483 4 -7.1339220855186145 -8.09791629388732 -3.798067013669418 0 1 0
66 14 1 -5.270447575551486 -6.648723281822137 -4.994514495857956 0 0 0
1737 509 4 -5.549601360637417 -7.56089907842854 -3.425584549230765 0 1 0
983 258 4 -5.150962600122036 -7.484595879871726 -3.4708460942102533 0 0 0
67 14 3 -5.076368394299582 -6.694276609040043 -4.579956700389072 0 0 0
982 258 2 -5.058720098678712 -7.245122216015643 -3.8999657572956097 0 0 0
984 258 4 -4.9664775972353885 -7.00564855215956 -4.3290854203809666 0 0 0
749 180 4 -4.582326809329596 -6.8646602767833516 -4.316118551101762 0 0 0
748 180 2 -4.096214224128434 -6.760165235189407 -4.263437047790804 0 0 0
750 180 4 -3.6101016389272718 -6.655670193595463 -4.210755544479846 0 0 0
1009 267 2 -3.7932120354495065 -7.879032767581253 -3.369908531181488 0 0 0
697 163 2 -1.9294470310773062 -6.967208007768589 -4.935536803396068 0 0 0
644 145 4 -1.9092811422414868 -7.614376271633658 -4.4208259096794915 0 0 0
699 163 4 -2.0704293692947258 -7.3038590940610035 -4.59379124540188 0 0 0
643 145 2 -2.00756529109158 -8.104204035049143 -4.441049368146765 0 0 0
1011 267 4 -3.329193826746101 -7.801187184888444 -3.539104179017864 0 0 0
1562 451 4 -1.0534315368181966 -8.094138030676149 -3.8374208217324295 0 1 0
1730 507 4 -1.4583900402653789 -8.04651174726739 -3.7989324954583465 0 1 0
1729 507 2 -1.5154229615219688 -7.733329730229153 -3.4133624368479785 0 1 0
19 4 3 -8.615108152090237 -6.295886954477933 -3.9974672203701744 0 0 0
1892 561 4 -8.949146911112916 -6.103130939836549 -3.933336761095446 0 1 0
1891 561 2 -9.22472217105637 -5.910771875237005 -4.3035478716442 0 1 0
3117 969 4 -9.598548853090204 -5.3405757033760235 -4.689082209250621 1 0 0
1893 561 4 -9.500297430999826 -5.718412810637461 -4.673758982192955 0 1 0
934 242 2 -7.574247359745173 -6.499985235784105 -3.4803164817374266 0 0 0
70 14 3 -5.712832043562591 -6.55342825112051 -4.943378993649025 0 0 0
741 177 4 -3.7116464394668482 -5.549416281569303 -4.642985135205716 0 0 0
739 177 2 -3.3078380061403574 -5.312515528922269 -4.81853223022464 0 0 0
1052 281 4 -3.3314761386576044 -6.445856326841255 -4.386762926462626 0 0 0
1051 281 2 -2.984211429468952 -6.312472311494023 -4.052673228623679 0 0 0
1053 281 4 -2.6369467202803 -6.179088296146791 -3.7185835307847315 0 0 0
966 252 4 -2.8340878830797576 -5.002172333029483 -3.6430830915589665 0 0 0
964 252 2 -3.141558281952474 -5.239148252782111 -3.32795713693944 0 0 0
3115 969 2 -9.678806375934114 -4.850341052929337 -4.745904014295176 1 0 0
3116 969 4 -9.759063898778024 -4.36010640248265 -4.802725819339731 1 0 0
928 240 2 -8.92916615696211 -3.80150557566344 -4.722700473019811 0 0 0
929 240 4 -8.958675788320193 -3.7911868113598 -4.223678725236839 0 0 0
42 9 3 -8.630819498599013 -3.8081713573497367 -4.035741378542584 0 0 0
41 9 1 -8.821159848993942 -3.5992702065446625 -3.6727939164990144 0 0 0
820 204 2 -9.788112503066975 -3.8142260651779756 -4.082683449164302 0 0 0
822 204 4 -9.294775259531335 -3.839692091606959 -4.005418672980117 0 0 0
44 9 3 -9.263396180286106 -3.734955365187425 -3.636509415546783 0 0 0
1058 283 4 -6.491643782017134 -4.012714425487687 -3.4482722010893267 0 0 0
3473 1088 4 -6.523709441980349 -3.6229400030139156 -3.3057537068759495 1 0 1
1057 283 2 -6.032391083376288 -4.148602656773312 -3.5918735499320364 0 0 0
1059 283 4 -5.57313838473544 -4.2844908880589365 -3.7354748987747457 0 0 0
1631 474 4 -2.8888288254461134 -4.686821245703025 -4.853309087209473 0 0 0
753 181 4 -2.0231517513103197 -4.046336945827884 -4.888992421209224 0 0 0