LAMMPS (27 Jun 2024)
OMP_NUM_THREADS environment is not set. Defaulting to 1 thread. (src/comm.cpp:98)
  using 1 OpenMP thread(s) per MPI task
package omp 0
using multi-threaded neighbor list subroutines
# Script to create a shear deformationgiven a data file

units lj
dimension 3
boundary p p p

# Styles of atoms and that stuff
atom_style bond
bond_style zero nocoeff
#pair_style hybrid/overlay/omp zero 0.0 lj/cut/omp 1.12 table/omp linear 5000000 threebody/table
pair_style hybrid/overlay/omp zero 0.0 table/omp linear 1000 table/omp linear 5000000 threebody/table
newton on

read_data data.hydrogel extra/bond/per/atom 4 extra/special/per/atom 5
Reading data file ...
  orthogonal box = (-9.99857 -9.99857 -9.99857) to (9.99857 9.99857 9.99857)
  2 by 2 by 2 MPI processor grid
  reading atoms ...
  4590 atoms
  reading velocities ...
  4590 velocities
  scanning bonds ...
  8 = max bonds/atom
  orthogonal box = (-9.99857 -9.99857 -9.99857) to (9.99857 9.99857 9.99857)
  2 by 2 by 2 MPI processor grid
  reading bonds ...
  3090 bonds
Finding 1-2 1-3 1-4 neighbors ...
  special bond factors lj:    0        0        0       
  special bond factors coul:  0        0        0       
     4 = max # of 1-2 neighbors
     3 = max # of 1-3 neighbors
     3 = max # of 1-4 neighbors
     9 = max # of special neighbors
  special bonds CPU = 0.001 seconds
  read_data CPU = 0.029 seconds

change_box all triclinic
Changing box ...
  triclinic box = (-9.99857 -9.99857 -9.99857) to (9.99857 9.99857 9.99857) with tilt (0 0 0)

# Coefficients
include potential.in
bond_coeff * nocoeff
pair_coeff 1 3 zero
pair_coeff 1 4 zero
pair_coeff 2 3 zero
pair_coeff 2 4 zero
pair_coeff 3 3 zero
pair_coeff 1 1 table/omp 1 sysFiles/wcaTab.table POT 1.12
Reading pair table potential file sysFiles/wcaTab.table with DATE: 2024-09-27
pair_coeff 2 2 table/omp 1 sysFiles/wcaTab.table POT 1.12
Reading pair table potential file sysFiles/wcaTab.table with DATE: 2024-09-27
pair_coeff 1 2 table/omp 1 sysFiles/wcaTab.table POT 1.12
Reading pair table potential file sysFiles/wcaTab.table with DATE: 2024-09-27
#pair_coeff 1 1 lj/cut/omp 1.0 1.0 1.12
#pair_coeff 2 2 lj/cut/omp 1.0 1.0 1.12
#pair_coeff 1 2 lj/cut/omp 1.0 1.0 1.12
pair_modify shift yes
pair_coeff 3 4 table/omp 2 sysFiles/pachTab.table POT 0.6 #0.75
Reading pair table potential file sysFiles/pachTab.table with DATE: 2024-07-08
WARNING: 1 of 1000000 force values in table POT are inconsistent with -dE/dr.
WARNING:  Should only be flagged at inflection points (src/pair_table.cpp:466)
pair_coeff 4 4 table/omp 2 sysFiles/pachTab.table POT 0.6 #0.75
Reading pair table potential file sysFiles/pachTab.table with DATE: 2024-07-08
WARNING: 1 of 1000000 force values in table POT are inconsistent with -dE/dr.
WARNING:  Should only be flagged at inflection points (src/pair_table.cpp:466)
pair_coeff * * threebody/table swapMech.3b NULL NULL PA PB

# Molecules
include molDeform.in
molecule CL sysFiles/molecule.patchy.CL
Read molecule template CL:
# Patchy Cross-Linker
  1 molecules
  0 fragments
  5 atoms with max type 3
  4 bonds with max type 1
  0 angles with max type 0
  0 dihedrals with max type 0
  0 impropers with max type 0
molecule MO sysFiles/molecule.patchy.MO
Read molecule template MO:
# Patchy Monomer
  1 molecules
  0 fragments
  3 atoms with max type 4
  2 bonds with max type 1
  0 angles with max type 0
  0 dihedrals with max type 0
  0 impropers with max type 0

# Create patchy particles
group CrossLinker type 1 3
225 atoms in group CrossLinker
group Monomer type 2 4
4365 atoms in group Monomer
group Patches type 3 4
3090 atoms in group Patches
group CL type 1
45 atoms in group CL
group MO type 2
1455 atoms in group MO
group PA type 3
180 atoms in group PA
group CM type 1 2
1500 atoms in group CM
fix pCL CrossLinker rigid/small/omp molecule #langevin 1.0 1.0 100.0 ${seed3}
  create bodies CPU = 0.000 seconds
  45 rigid bodies with 225 atoms
  0.46400431 = max distance from body owner to body atom
fix pMO Monomer rigid/small/omp molecule #langevin 1.0 1.0 100.0 ${seed3}
  create bodies CPU = 0.000 seconds
  1455 rigid bodies with 4365 atoms
  0.5 = max distance from body owner to body atom

# Neighbor list
neighbor 1.8 bin # extra-distance style
neigh_modify exclude molecule/intra CrossLinker
neigh_modify exclude molecule/intra Monomer

fix BrDy all rigid/nve/small molecule langevin 0.05 0.05 0.25 12345 # Brownian Dynamics: langevin + nve
  create bodies CPU = 0.000 seconds
  1500 rigid bodies with 4590 atoms
  0.5 = max distance from body owner to body atom
fix_modify BrDy virial no

thermo ${sstep}
thermo 10000

# Compute global kinetic and potential energy and temperature
compute t all temp
compute tCM CM temp
compute ep all pe
compute ek all ke
compute stressVirial all pressure t ke pair
variable tilt equal v_shear_rate*step*dt
compute blAll Patches pair table/omp 2 epair
compute blCl PA pair table/omp 2 epair

variable step equal step

# DUMPS and FIXES

# Save atom positions
dump dumpID all atom ${Nsave} info/dumps/shear/patchyParticles_shear_N${step}.dumpf
dump dumpID all atom 500 info/dumps/shear/patchyParticles_shear_N${step}.dumpf
dump dumpID all atom 500 info/dumps/shear/patchyParticles_shear_N0.dumpf
dump_modify dumpID pbc yes # remap atoms via periodic boundary conditions
#dump_modify dumpID delay ${steps}

# Save global energies and temperature
group Energy empty
0 atoms in group Energy
group BL1 empty
0 atoms in group BL1
group BL2 empty
0 atoms in group BL2
fix fixEng Energy ave/time 1 10 10 c_tCM c_ep c_ek c_t file info/energy_shear.fixf

fix fixBLg BL1 ave/time 1 10 10 c_blAll file info/bondlenPatch_shear.fixf
fix fixBLc BL2 ave/time 1 10 10 c_blCl file info/bondlenCL_shear.fixf


# Save Stress tensor
group Stress empty
0 atoms in group Stress
fix fixStress5 Stress ave/time 1 ${Nave} ${Nave} v_tilt c_stressVirial[*] file info/stressVirial_shear.fixf
fix fixStress5 Stress ave/time 1 1000 ${Nave} v_tilt c_stressVirial[*] file info/stressVirial_shear.fixf
fix fixStress5 Stress ave/time 1 1000 1000 v_tilt c_stressVirial[*] file info/stressVirial_shear.fixf

# RUN SIMULATION

# Introduce deformation
fix shear all deform 1 xy erate ${shear_rate} remap x flip yes
fix shear all deform 1 xy erate 0.02 remap x flip yes

# Run deformation
timestep ${tstep}
timestep 0.001
run ${shear_it}
run 600000

CITE-CITE-CITE-CITE-CITE-CITE-CITE-CITE-CITE-CITE-CITE-CITE-CITE

Your simulation uses code contributions which should be cited:

- Type Label Framework: https://doi.org/10.1021/acs.jpcb.3c08419

@Article{Gissinger24,
 author = {Jacob R. Gissinger, Ilia Nikiforov, Yaser Afshar, Brendon Waters, Moon-ki Choi, Daniel S. Karls, Alexander Stukowski, Wonpil Im, Hendrik Heinz, Axel Kohlmeyer, and Ellad B. Tadmor},
 title = {Type Label Framework for Bonded Force Fields in LAMMPS},
 journal = {J. Phys. Chem. B},
 year =    2024,
 volume =  128,
 number =  13,
 pages =   {3282–-3297}
}

CITE-CITE-CITE-CITE-CITE-CITE-CITE-CITE-CITE-CITE-CITE-CITE-CITE

WARNING: Using a manybody potential with bonds/angles/dihedrals and special_bond exclusions (src/pair.cpp:242)
Hybrid pair style last /omp style table/omp
Last active /omp style is pair_style table/omp
WARNING: More than one fix rigid command (src/RIGID/fix_rigid_small.cpp:529)
WARNING: More than one fix rigid command (src/RIGID/fix_rigid_small.cpp:529)
WARNING: More than one fix rigid command (src/RIGID/fix_rigid_small.cpp:529)
WARNING: One or more atoms are time integrated more than once (src/modify.cpp:296)
Neighbor list info ...
  update: every = 1 steps, delay = 0 steps, check = yes
  max neighbors/atom: 2000, page size: 100000
  master list distance cutoff = 2.92
  ghost atom cutoff = 2.92
  binsize = 1.46, bins = 14 14 14
  6 neighbor lists, perpetual/occasional/extra = 6 0 0
  (1) pair zero, perpetual, skip from (5)
      attributes: half, newton on, omp
      pair build: skip/omp
      stencil: none
      bin: none
  (2) pair table/omp, perpetual, skip from (5)
      attributes: half, newton on, omp
      pair build: skip/omp
      stencil: none
      bin: none
  (3) pair table/omp, perpetual, skip from (5)
      attributes: half, newton on, omp, cut 2.4
      pair build: skip/omp
      stencil: none
      bin: none
  (4) pair threebody/table, perpetual, skip from (6)
      attributes: full, newton on, omp, cut 2.69
      pair build: skip/omp
      stencil: none
      bin: none
  (5) neighbor class addition, perpetual
      attributes: half, newton on, omp
      pair build: half/bin/newton/tri/omp
      stencil: half/bin/3d/tri
      bin: standard
  (6) neighbor class addition, perpetual
      attributes: full, newton on, omp, cut 2.69
      pair build: full/bin/omp
      stencil: full/bin/3d
      bin: standard
WARNING: Computing temperature of portions of rigid bodies (src/RIGID/fix_rigid_small.cpp:1178)
WARNING: Computing temperature of portions of rigid bodies (src/RIGID/fix_rigid_small.cpp:1178)
WARNING: Computing temperature of portions of rigid bodies (src/RIGID/fix_rigid_small.cpp:1178)
Per MPI rank memory allocation (min/avg/max) = 25.13 | 25.17 | 25.2 Mbytes
   Step          Temp          E_pair         E_mol          TotEng         Press          Volume    
         0   0.35819419     1.3742944      0              1.4256824     -0.041033879    7996.5685    
     10000   0.36697527     1.390957       0              1.4436047     -6555.0975      7996.5685    
     20000   0.3598588      1.3784728      0              1.4300996     -28586.358      7996.5685    
     30000   0.35915055     1.4193847      0              1.4709099     -73839.187      7996.5685    
     40000   0.35439428     1.4138392      0              1.4646821     -150748.55      7996.5685    
     50000   0.36206889     1.413671       0              1.4656149     -267982.56      7996.5685    
     60000   0.3491849      1.4477392      0              1.4978347     -419864.98      7996.5685    
     70000   0.36497579     1.4990338      0              1.5513947     -618018.85      7996.5685    
     80000   0.36316606     1.4624257      0              1.514527      -792949.73      7996.5685    
     90000   0.36464579     1.5095677      0              1.5618813     -1161445.4      7996.5685    
    100000   0.35965241     1.5800496      0              1.6316468     -1578707.5      7996.5685    
    110000   0.36948683     1.6642833      0              1.7172913     -2096330.6      7996.5685    
    120000   0.35548773     1.6913535      0              1.7423532     -2690210.7      7996.5685    
    130000   0.36941283     1.7627782      0              1.8157757     -2895148.9      7996.5685    
    140000   0.36513277     1.7865577      0              1.8389411     -3756305.7      7996.5685    
    150000   0.37411672     1.8179736      0              1.8716459     -4709149.8      7996.5685    
    160000   0.37061953     1.9116662      0              1.9648368     -5744949.1      7996.5685    
    170000   0.37749205     1.9051371      0              1.9592936     -6907694.9      7996.5685    
    180000   0.36654284     1.8814879      0              1.9340736     -6744306.2      7996.5685    
    190000   0.37999174     1.9478465      0              2.0023617     -8070424.8      7996.5685    
    200000   0.38353553     2.0297862      0              2.0848098     -9591645        7996.5685    
    210000   0.36638408     1.9923022      0              2.0448651     -11035040       7996.5685    
    220000   0.38314982     2.0763182      0              2.1312865     -12444094       7996.5685    
    230000   0.38459554     2.1707676      0              2.2259432     -11905587       7996.5685    
    240000   0.38989525     2.2101548      0              2.2660908     -13843927       7996.5685    
    250000   0.38928386     2.229067       0              2.2849153     -15571642       7996.5685    
    260000   0.39109654     2.2757298      0              2.3318381     -17490954       7996.5685    
    270000   0.38837131     2.3529383      0              2.4086556     -19333257       7996.5685    
    280000   0.397677       2.2893358      0              2.3463882     -18708208       7996.5685    
    290000   0.39144068     2.36103        0              2.4171877     -21226018       7996.5685    
    300000   0.38655925     2.2915015      0              2.3469589     -23510391       7996.5685    
    310000   0.3893191      2.3818305      0              2.4376838     -25660065       7996.5685    
    320000   0.39247161     2.4418832      0              2.4981888     -27850370       7996.5685    
    330000   0.39252165     2.425101       0              2.4814137     -26187551       7996.5685    
    340000   0.39557557     2.4685741      0              2.525325      -28514515       7996.5685    
    350000   0.38919604     2.513377       0              2.5692127     -30712202       7996.5685    
    360000   0.40115166     2.5360359      0              2.5935867     -32333978       7996.5685    
    370000   0.39048864     2.5825758      0              2.6385969     -32817203       7996.5685    
    380000   0.40506691     2.6163815      0              2.674494      -32038501       7996.5685    
    390000   0.41379653     2.6742828      0              2.7336477     -32644982       7996.5685    
    400000   0.40786829     2.6259179      0              2.6844324     -33483107       7996.5685    
    410000   0.40524264     2.6594715      0              2.7176093     -36189530       7996.5685    
    420000   0.41307276     2.6193942      0              2.6786553     -36341268       7996.5685    
    430000   0.39508367     2.6696113      0              2.7262916     -35324875       7996.5685    
    440000   0.40862129     2.6788921      0              2.7375145     -35308858       7996.5685    
    450000   0.42495337     2.6741445      0              2.73511       -33844121       7996.5685    
    460000   0.41407325     2.7870794      0              2.846484      -33716281       7996.5685    
    470000   0.42356071     2.724929       0              2.7856947     -34723004       7996.5685    
    480000   0.41899244     2.8422299      0              2.9023402     -31928117       7996.5685    
    490000   0.43243118     2.8393972      0              2.9014356     -30795616       7996.5685    
    500000   0.43222864     2.8595798      0              2.9215891     -27785299       7996.5685    
    510000   0.42158229     2.8873897      0              2.9478716     -28055588       7996.5685    
    520000   0.4320772      3.0290333      0              3.0910208     -27481752       7996.5685    
    530000   0.41993657     3.039619       0              3.0998648     -25019693       7996.5685    
    540000   0.44084947     3.1240209      0              3.187267      -24482981       7996.5685    
    550000   0.42511392     3.0756019      0              3.1365905     -22534264       7996.5685    
    560000   0.43078149     3.1064912      0              3.1682928     -23224557       7996.5685    
    570000   0.42126753     3.1356864      0              3.1961232      64818663       7996.5685    
    580000   0.45251134     3.1347509      0              3.19967       -16808250       7996.5685    
    590000   0.43160979     3.1557551      0              3.2176756     -14061961       7996.5685    
    600000   0.41614752     3.1812387      0              3.2409409     -12567315       7996.5685    
Loop time of 611.133 on 8 procs for 600000 steps with 4590 atoms

Performance: 84826.014 tau/day, 981.783 timesteps/s, 4.506 Matom-step/s
92.7% CPU use with 8 MPI tasks x 1 OpenMP threads

MPI task timing breakdown:
Section |  min time  |  avg time  |  max time  |%varavg| %total
---------------------------------------------------------------
Pair    | 155.58     | 170.77     | 197.46     | 100.1 | 27.94
Bond    | 0.10464    | 0.12229    | 0.13249    |   2.3 |  0.02
Neigh   | 5.6066     | 5.6087     | 5.6098     |   0.0 |  0.92
Comm    | 98.062     | 124.56     | 139.56     | 117.2 | 20.38
Output  | 0.69895    | 0.79906    | 0.89028    |   7.2 |  0.13
Modify  | 298.78     | 299.55     | 300.18     |   2.5 | 49.02
Other   |            | 9.721      |            |       |  1.59

Nlocal:         573.75 ave         835 max         207 min
Histogram: 1 0 0 1 0 1 3 1 0 1
Nghost:        1729.75 ave        1978 max        1475 min
Histogram: 1 0 2 0 0 1 2 1 0 1
Neighs:              0 ave           0 max           0 min
Histogram: 8 0 0 0 0 0 0 0 0 0

Total # of neighbors = 0
Ave neighs/atom = 0
Ave special neighs/atom = 2.0980392
Neighbor list builds = 808
Dangerous builds = 12

# Stop deformation
unfix shear

# Relax time
run ${rlxT1}
run 50000
WARNING: Using a manybody potential with bonds/angles/dihedrals and special_bond exclusions (src/pair.cpp:242)
Hybrid pair style last /omp style table/omp
Last active /omp style is pair_style table/omp
WARNING: More than one fix rigid command (src/RIGID/fix_rigid_small.cpp:529)
WARNING: More than one fix rigid command (src/RIGID/fix_rigid_small.cpp:529)
WARNING: More than one fix rigid command (src/RIGID/fix_rigid_small.cpp:529)
WARNING: One or more atoms are time integrated more than once (src/modify.cpp:296)
WARNING: Computing temperature of portions of rigid bodies (src/RIGID/fix_rigid_small.cpp:1178)
WARNING: Computing temperature of portions of rigid bodies (src/RIGID/fix_rigid_small.cpp:1178)
WARNING: Computing temperature of portions of rigid bodies (src/RIGID/fix_rigid_small.cpp:1178)
Per MPI rank memory allocation (min/avg/max) = 26.23 | 26.34 | 26.72 Mbytes
   Step          Temp          E_pair         E_mol          TotEng         Press     
    600000   0.41614752     3.1813337      0              3.2410359      0.18087334   
    610000   0.41098704     3.166778       0              3.2257398     -7727.9424    
    620000   0.42601179     3.1867517      0              3.2478691     -26509.243    
    630000   0.40302216     3.1815417      0              3.2393608     -59676.652    
    640000   0.42327933     3.1669099      0              3.2276353     -142742.17    
    650000   0.42909147     3.2243631      0              3.2859223     -224086.77    
Loop time of 53.1095 on 8 procs for 50000 steps with 4590 atoms

Performance: 81341.417 tau/day, 941.452 timesteps/s, 4.321 Matom-step/s
93.3% CPU use with 8 MPI tasks x 1 OpenMP threads

MPI task timing breakdown:
Section |  min time  |  avg time  |  max time  |%varavg| %total
---------------------------------------------------------------
Pair    | 5.138      | 16.59      | 24.602     | 131.9 | 31.24
Bond    | 0.0091991  | 0.011835   | 0.013752   |   1.5 |  0.02
Neigh   | 0.11211    | 0.11226    | 0.11239    |   0.0 |  0.21
Comm    | 3.2158     | 11.232     | 22.676     | 160.0 | 21.15
Output  | 0.057674   | 0.066491   | 0.073703   |   2.1 |  0.13
Modify  | 23.877     | 24.257     | 24.618     |   4.5 | 45.67
Other   |            | 0.8398     |            |       |  1.58

Nlocal:         573.75 ave         812 max         213 min
Histogram: 1 0 0 1 0 1 1 3 0 1
Nghost:         1704.5 ave        1938 max        1469 min
Histogram: 1 2 0 0 0 1 1 1 1 1
Neighs:              0 ave           0 max           0 min
Histogram: 8 0 0 0 0 0 0 0 0 0

Total # of neighbors = 0
Ave neighs/atom = 0
Ave special neighs/atom = 2.0980392
Neighbor list builds = 16
Dangerous builds = 0

# Introduce deformation
fix shear all deform 1 xy erate ${shear_rate} remap x flip yes
fix shear all deform 1 xy erate 0.02 remap x flip yes

# Re-run deformation
timestep ${tstep}
timestep 0.001
run ${shear_it}
run 600000
WARNING: Using a manybody potential with bonds/angles/dihedrals and special_bond exclusions (src/pair.cpp:242)
Hybrid pair style last /omp style table/omp
Last active /omp style is pair_style table/omp
WARNING: More than one fix rigid command (src/RIGID/fix_rigid_small.cpp:529)
WARNING: More than one fix rigid command (src/RIGID/fix_rigid_small.cpp:529)
WARNING: More than one fix rigid command (src/RIGID/fix_rigid_small.cpp:529)
WARNING: One or more atoms are time integrated more than once (src/modify.cpp:296)
WARNING: Computing temperature of portions of rigid bodies (src/RIGID/fix_rigid_small.cpp:1178)
WARNING: Computing temperature of portions of rigid bodies (src/RIGID/fix_rigid_small.cpp:1178)
WARNING: Computing temperature of portions of rigid bodies (src/RIGID/fix_rigid_small.cpp:1178)
Per MPI rank memory allocation (min/avg/max) = 26.24 | 26.36 | 26.74 Mbytes
   Step          Temp          E_pair         E_mol          TotEng         Press          Volume    
    650000   0.42909147     3.2243631      0              3.2859223     -0.080379692    7996.5685    
    660000   0.42724967     3.2761214      0              3.3374164     -7521.1424      7996.5685    
    670000   0.42064538     3.2007911      0              3.2611386     -37253.534      7996.5685    
    680000   0.43391452     3.2536359      0              3.3158871     -94685.427      7996.5685    
    690000   0.41688688     3.2572049      0              3.3170132     -205020.18      7996.5685    
    700000   0.43375358     3.247481       0              3.309709      -367719.57      7996.5685    
    710000   0.43225346     3.2554242      0              3.317437      -584844.73      7996.5685    
    720000   0.42611474     3.3380423      0              3.3991744     -903657.58      7996.5685    
    730000   0.43473302     3.3068547      0              3.3692233     -1245665.5      7996.5685    
    740000   0.44034225     3.2407747      0              3.3039479     -1765399.1      7996.5685    
    750000   0.43257943     3.3337781      0              3.3958377     -2406406        7996.5685    
    760000   0.44246405     3.3591203      0              3.4225979     -3133353        7996.5685    
    770000   0.44963502     3.4155824      0              3.4800888     -3979914.2      7996.5685    
    780000   0.42998817     3.3748137      0              3.4365015     -4698130.8      7996.5685    
    790000   0.43753959     3.4305321      0              3.4933033     -5821468.4      7996.5685    
    800000   0.43276062     3.3991703      0              3.4612559     -7058217        7996.5685    
    810000   0.44290992     3.428471       0              3.4920127     -8389092.7      7996.5685    
    820000   0.45638801     3.4119492      0              3.4774244     -9921886        7996.5685    
    830000   0.43115477     3.5429028      0              3.604758      -11213252       7996.5685    
    840000   0.43743667     3.5333212      0              3.5960777     -12997408       7996.5685    
    850000   0.43825633     3.4338044      0              3.4966784     -14836397       7996.5685    
    860000   0.43959754     3.4646958      0              3.5277622     -16869326       7996.5685    
    870000   0.44576613     3.5055179      0              3.5694693     -18929941       7996.5685    
    880000   0.44469735     3.398447       0              3.4622451     -20982623       7996.5685    
    890000   0.43778304     3.5700754      0              3.6328815     -23323657       7996.5685    
    900000   0.43078296     3.4928169      0              3.5546188     -25340794       7996.5685    
    910000   0.43389785     3.5654161      0              3.6276649     -27982157       7996.5685    
    920000   0.4525569      3.54035        0              3.6052756     -29792753       7996.5685    
    930000   0.43388501     3.5122761      0              3.574523      -32288193       7996.5685    
    940000   0.47518721     3.5063074      0              3.5744797     -34345116       7996.5685    
    950000   0.46267337     3.6326761      0              3.6990531     -35514807       7996.5685    
    960000   0.45003506     3.6423623      0              3.7069262     -36072517       7996.5685    
    970000   0.4477653      3.6505965      0              3.7148347     -37918383       7996.5685    
    980000   0.4451024      3.6149214      0              3.6787776     -38304085       7996.5685    
    990000   0.4542023      3.6643597      0              3.7295214     -37762618       7996.5685    
   1000000   0.44608083     3.6442405      0              3.7082371     -36226088       7996.5685    
   1010000   0.4639511      3.7387073      0              3.8052676     -35537490       7996.5685    
   1020000   0.4670081      3.6684672      0              3.7354661     -34462898       7996.5685    
ERROR: Lost atoms: original 4590 current 4587 (src/thermo.cpp:494)
Last command: run ${shear_it}
