LAMMPS (27 Jun 2024)
OMP_NUM_THREADS environment is not set. Defaulting to 1 thread. (src/comm.cpp:98)
  using 1 OpenMP thread(s) per MPI task
package omp 0
using multi-threaded neighbor list subroutines
# Script to create a shear deformationgiven a data file

units lj
dimension 3
boundary p p p

# Styles of atoms and that stuff
atom_style bond
bond_style zero nocoeff
#pair_style hybrid/overlay/omp zero 0.0 lj/cut/omp 1.12 table/omp linear 5000000 threebody/table
pair_style hybrid/overlay/omp zero 0.0 table/omp linear 1000 table/omp linear 5000000 threebody/table
newton on

read_data data.hydrogel extra/bond/per/atom 4 extra/special/per/atom 5
Reading data file ...
  orthogonal box = (-9.99857 -9.99857 -9.99857) to (9.99857 9.99857 9.99857)
  2 by 2 by 2 MPI processor grid
  reading atoms ...
  4800 atoms
  reading velocities ...
  4800 velocities
  scanning bonds ...
  8 = max bonds/atom
  orthogonal box = (-9.99857 -9.99857 -9.99857) to (9.99857 9.99857 9.99857)
  2 by 2 by 2 MPI processor grid
  reading bonds ...
  3300 bonds
Finding 1-2 1-3 1-4 neighbors ...
  special bond factors lj:    0        0        0       
  special bond factors coul:  0        0        0       
     4 = max # of 1-2 neighbors
     3 = max # of 1-3 neighbors
     3 = max # of 1-4 neighbors
     9 = max # of special neighbors
  special bonds CPU = 0.001 seconds
  read_data CPU = 0.029 seconds

change_box all triclinic
Changing box ...
  triclinic box = (-9.99857 -9.99857 -9.99857) to (9.99857 9.99857 9.99857) with tilt (0 0 0)

# Coefficients
include potential.in
bond_coeff * nocoeff
pair_coeff 1 3 zero
pair_coeff 1 4 zero
pair_coeff 2 3 zero
pair_coeff 2 4 zero
pair_coeff 3 3 zero
pair_coeff 1 1 table/omp 1 sysFiles/wcaTab.table POT 1.12
Reading pair table potential file sysFiles/wcaTab.table with DATE: 2024-09-27
pair_coeff 2 2 table/omp 1 sysFiles/wcaTab.table POT 1.12
Reading pair table potential file sysFiles/wcaTab.table with DATE: 2024-09-27
pair_coeff 1 2 table/omp 1 sysFiles/wcaTab.table POT 1.12
Reading pair table potential file sysFiles/wcaTab.table with DATE: 2024-09-27
#pair_coeff 1 1 lj/cut/omp 1.0 1.0 1.12
#pair_coeff 2 2 lj/cut/omp 1.0 1.0 1.12
#pair_coeff 1 2 lj/cut/omp 1.0 1.0 1.12
pair_modify shift yes
pair_coeff 3 4 table/omp 2 sysFiles/pachTab.table POT 0.89 #0.75
Reading pair table potential file sysFiles/pachTab.table with DATE: 2024-07-08
pair_coeff 4 4 table/omp 2 sysFiles/pachTab.table POT 0.89 #0.75
Reading pair table potential file sysFiles/pachTab.table with DATE: 2024-07-08
pair_coeff * * threebody/table swapMech.3b NULL NULL PA PB

# Molecules
include molDeform.in
molecule CL sysFiles/molecule.patchy.CL
Read molecule template CL:
# Patchy Cross-Linker
  1 molecules
  0 fragments
  5 atoms with max type 3
  4 bonds with max type 1
  0 angles with max type 0
  0 dihedrals with max type 0
  0 impropers with max type 0
molecule MO sysFiles/molecule.patchy.MO
Read molecule template MO:
# Patchy Monomer
  1 molecules
  0 fragments
  3 atoms with max type 4
  2 bonds with max type 1
  0 angles with max type 0
  0 dihedrals with max type 0
  0 impropers with max type 0

# Create patchy particles
group CrossLinker type 1 3
750 atoms in group CrossLinker
group Monomer type 2 4
4050 atoms in group Monomer
group Patches type 3 4
3300 atoms in group Patches
group CL type 1
150 atoms in group CL
group MO type 2
1350 atoms in group MO
group PA type 3
600 atoms in group PA
group CM type 1 2
1500 atoms in group CM
fix pCL CrossLinker rigid/small/omp molecule #langevin 1.0 1.0 100.0 ${seed3}
  create bodies CPU = 0.000 seconds
  150 rigid bodies with 750 atoms
  0.46400431 = max distance from body owner to body atom
fix pMO Monomer rigid/small/omp molecule #langevin 1.0 1.0 100.0 ${seed3}
  create bodies CPU = 0.000 seconds
  1350 rigid bodies with 4050 atoms
  0.5 = max distance from body owner to body atom

# Neighbor list
neighbor 1.8 bin # extra-distance style
neigh_modify exclude molecule/intra CrossLinker
neigh_modify exclude molecule/intra Monomer

fix BrDy all rigid/nve/small molecule langevin 0.05 0.05 0.25 12345 # Brownian Dynamics: langevin + nve
  create bodies CPU = 0.000 seconds
  1500 rigid bodies with 4800 atoms
  0.5 = max distance from body owner to body atom
fix_modify BrDy virial no

thermo ${sstep}
thermo 10000

# Compute global kinetic and potential energy and temperature
compute t all temp
compute tCM CM temp
compute ep all pe
compute ek all ke
compute stressVirial all pressure t ke pair
variable tilt equal v_shear_rate*step*dt
compute blAll Patches pair table/omp 2 epair
compute blCl PA pair table/omp 2 epair


# DUMPS and FIXES

# Save atom positions
dump dumpID all atom ${Nsave} info/patchyParticles_shear.dumpf
dump dumpID all atom 500 info/patchyParticles_shear.dumpf
dump_modify dumpID pbc yes # remap atoms via periodic boundary conditions
#dump_modify dumpID delay ${steps}

# Save global energies and temperature
group Energy empty
0 atoms in group Energy
group BL1 empty
0 atoms in group BL1
group BL2 empty
0 atoms in group BL2
fix fixEng Energy ave/time 1 10 10 c_tCM c_ep c_ek c_t file info/energy_shear.fixf

fix fixBLg BL1 ave/time 1 10 10 c_blAll file info/bondlenPatch_shear.fixf
fix fixBLc BL2 ave/time 1 10 10 c_blCl file info/bondlenCL_shear.fixf


# Save Stress tensor
group Stress empty
0 atoms in group Stress
fix fixStress5 Stress ave/time 1 ${Nave} ${Nave} v_tilt c_stressVirial[*] file info/stressVirial_shear.fixf
fix fixStress5 Stress ave/time 1 1000 ${Nave} v_tilt c_stressVirial[*] file info/stressVirial_shear.fixf
fix fixStress5 Stress ave/time 1 1000 1000 v_tilt c_stressVirial[*] file info/stressVirial_shear.fixf

# RUN SIMULATION

# Introduce deformation
fix shear all deform 1 xy erate ${shear_rate} remap x flip yes
fix shear all deform 1 xy erate 0.02 remap x flip yes

# Run deformation
timestep ${tstep}
timestep 0.001
run ${shear_it}
run 600000

CITE-CITE-CITE-CITE-CITE-CITE-CITE-CITE-CITE-CITE-CITE-CITE-CITE

Your simulation uses code contributions which should be cited:

- Type Label Framework: https://doi.org/10.1021/acs.jpcb.3c08419

@Article{Gissinger24,
 author = {Jacob R. Gissinger, Ilia Nikiforov, Yaser Afshar, Brendon Waters, Moon-ki Choi, Daniel S. Karls, Alexander Stukowski, Wonpil Im, Hendrik Heinz, Axel Kohlmeyer, and Ellad B. Tadmor},
 title = {Type Label Framework for Bonded Force Fields in LAMMPS},
 journal = {J. Phys. Chem. B},
 year =    2024,
 volume =  128,
 number =  13,
 pages =   {3282–-3297}
}

CITE-CITE-CITE-CITE-CITE-CITE-CITE-CITE-CITE-CITE-CITE-CITE-CITE

WARNING: Using a manybody potential with bonds/angles/dihedrals and special_bond exclusions (src/pair.cpp:242)
Hybrid pair style last /omp style table/omp
Last active /omp style is pair_style table/omp
WARNING: More than one fix rigid command (src/RIGID/fix_rigid_small.cpp:529)
WARNING: More than one fix rigid command (src/RIGID/fix_rigid_small.cpp:529)
WARNING: More than one fix rigid command (src/RIGID/fix_rigid_small.cpp:529)
WARNING: One or more atoms are time integrated more than once (src/modify.cpp:296)
Neighbor list info ...
  update: every = 1 steps, delay = 0 steps, check = yes
  max neighbors/atom: 2000, page size: 100000
  master list distance cutoff = 2.92
  ghost atom cutoff = 2.92
  binsize = 1.46, bins = 14 14 14
  6 neighbor lists, perpetual/occasional/extra = 6 0 0
  (1) pair zero, perpetual, skip from (5)
      attributes: half, newton on, omp
      pair build: skip/omp
      stencil: none
      bin: none
  (2) pair table/omp, perpetual, skip from (5)
      attributes: half, newton on, omp
      pair build: skip/omp
      stencil: none
      bin: none
  (3) pair table/omp, perpetual, skip from (5)
      attributes: half, newton on, omp, cut 2.69
      pair build: skip/omp
      stencil: none
      bin: none
  (4) pair threebody/table, perpetual, skip from (6)
      attributes: full, newton on, omp, cut 2.69
      pair build: skip/omp
      stencil: none
      bin: none
  (5) neighbor class addition, perpetual
      attributes: half, newton on, omp
      pair build: half/bin/newton/tri/omp
      stencil: half/bin/3d/tri
      bin: standard
  (6) neighbor class addition, perpetual
      attributes: full, newton on, omp, cut 2.69
      pair build: full/bin/omp
      stencil: full/bin/3d
      bin: standard
WARNING: Computing temperature of portions of rigid bodies (src/RIGID/fix_rigid_small.cpp:1178)
WARNING: Computing temperature of portions of rigid bodies (src/RIGID/fix_rigid_small.cpp:1178)
WARNING: Computing temperature of portions of rigid bodies (src/RIGID/fix_rigid_small.cpp:1178)
Per MPI rank memory allocation (min/avg/max) = 25.06 | 25.19 | 25.6 Mbytes
   Step          Temp          E_pair         E_mol          TotEng         Press          Volume    
         0   0.43201082     2.6273808      0              2.6677468      0.026979624    7996.5685    
     10000   0.43358464     2.4366904      0              2.4772035     -6184.243       7996.5685    
     20000   0.41661446     2.3249478      0              2.3638753     -33399.156      7996.5685    
     30000   0.43792378     2.2169923      0              2.2579108     -82033.431      7996.5685    
     40000   0.42542811     2.1155097      0              2.1552607     -151616.22      7996.5685    
     50000   0.44585287     2.0394978      0              2.0811572     -251578.82      7996.5685    
     60000   0.42688834     1.9761604      0              2.0160478     -387752.5       7996.5685    
     70000   0.41993823     1.8936227      0              1.9328606     -546457.5       7996.5685    
     80000   0.43417287     1.812421       0              1.852989      -760378.74      7996.5685    
     90000   0.43374145     1.8334951      0              1.8740228     -1013308.1      7996.5685    
    100000   0.44041115     1.8375384      0              1.8786893     -1278236.9      7996.5685    
    110000   0.41917609     1.7672209      0              1.8063876     -1612612        7996.5685    
    120000   0.43250699     1.7881905      0              1.8286029     -1973647.4      7996.5685    
    130000   0.44239801     1.7470878      0              1.7884244     -2431787.9      7996.5685    
    140000   0.43540995     1.7363181      0              1.7770017     -2861645.3      7996.5685    
    150000   0.43823063     1.7314242      0              1.7723713     -3296013.6      7996.5685    
    160000   0.42678209     1.7140847      0              1.7539622     -3834404.1      7996.5685    
    170000   0.41626        1.7389919      0              1.7778862     -4324968.8      7996.5685    
    180000   0.42847624     1.7334547      0              1.7734904     -5085734.1      7996.5685    
    190000   0.44107644     1.6665325      0              1.7077456     -5782531.5      7996.5685    
    200000   0.42852247     1.7274411      0              1.7674812     -6376121        7996.5685    
    210000   0.4162765      1.756086       0              1.7949818     -7092510.5      7996.5685    
    220000   0.42864604     1.7609287      0              1.8009803     -7798072.6      7996.5685    
    230000   0.43229137     1.7367614      0              1.7771536     -8877781.8      7996.5685    
    240000   0.43039505     1.7362357      0              1.7764508     -9720808.9      7996.5685    
    250000   0.41905755     1.7442995      0              1.7834552     -10447772       7996.5685    
    260000   0.43895159     1.6718004      0              1.7128149     -11199257       7996.5685    
    270000   0.4172395      1.7477849      0              1.7867708     -11984507       7996.5685    
    280000   0.42775214     1.7742205      0              1.8141886     -13628295       7996.5685    
    290000   0.43129409     1.721872       0              1.762171      -14683453       7996.5685    
    300000   0.4192377      1.636175       0              1.6753475     -15463698       7996.5685    
    310000   0.42453493     1.7836689      0              1.8233363     -16486704       7996.5685    
    320000   0.42762309     1.786215       0              1.826171      -17211419       7996.5685    
    330000   0.4329099      1.7928366      0              1.8332866     -19206504       7996.5685    
    340000   0.43399089     1.8096045      0              1.8501555     -19712904   