LAMMPS (27 Jun 2024)
OMP_NUM_THREADS environment is not set. Defaulting to 1 thread. (src/comm.cpp:98)
  using 1 OpenMP thread(s) per MPI task
package omp 0
using multi-threaded neighbor list subroutines
# Script to create a shear deformationgiven a data file

units lj
dimension 3
boundary p p p

# Styles of atoms and that stuff
atom_style bond
bond_style zero nocoeff
pair_style hybrid/overlay/omp zero 0.0 lj/cut/omp 1.12 table/omp linear 5000000 threebody/table
newton on

read_data data.hydrogel extra/bond/per/atom 4 extra/special/per/atom 5
Reading data file ...
  orthogonal box = (-9.99857 -9.99857 -9.99857) to (9.99857 9.99857 9.99857)
  2 by 2 by 2 MPI processor grid
  reading atoms ...
  4650 atoms
  reading velocities ...
  4650 velocities
  scanning bonds ...
  8 = max bonds/atom
  orthogonal box = (-9.99857 -9.99857 -9.99857) to (9.99857 9.99857 9.99857)
  2 by 2 by 2 MPI processor grid
  reading bonds ...
  3150 bonds
Finding 1-2 1-3 1-4 neighbors ...
  special bond factors lj:    0        0        0       
  special bond factors coul:  0        0        0       
     4 = max # of 1-2 neighbors
     3 = max # of 1-3 neighbors
     3 = max # of 1-4 neighbors
     9 = max # of special neighbors
  special bonds CPU = 0.001 seconds
  read_data CPU = 0.030 seconds

change_box all triclinic
Changing box ...
  triclinic box = (-9.99857 -9.99857 -9.99857) to (9.99857 9.99857 9.99857) with tilt (0 0 0)

# Coefficients
include potential.in
bond_coeff * nocoeff
pair_coeff 1 3 zero
pair_coeff 1 4 zero
pair_coeff 2 3 zero
pair_coeff 2 4 zero
pair_coeff 3 3 zero
pair_coeff 1 1 lj/cut/omp 1.0 1.0 1.12 # i-type j-type pair-style eps sigma cutoff
pair_coeff 2 2 lj/cut/omp 1.0 1.0 1.12 # i-type j-type pair-style eps sigma cutoff
pair_coeff 1 2 lj/cut/omp 1.0 1.0 1.12 # i-type j-type pair-style eps sigma cutoff
pair_modify shift yes
pair_coeff 3 4 table/omp sysFiles/pachTab.table POT 0.6 #0.75
Reading pair table potential file sysFiles/pachTab.table with DATE: 2024-07-08
WARNING: 2 of 5000000 force values in table POT are inconsistent with -dE/dr.
WARNING:  Should only be flagged at inflection points (src/pair_table.cpp:466)
pair_coeff 4 4 table/omp sysFiles/pachTab.table POT 0.6 #0.75
Reading pair table potential file sysFiles/pachTab.table with DATE: 2024-07-08
WARNING: 2 of 5000000 force values in table POT are inconsistent with -dE/dr.
WARNING:  Should only be flagged at inflection points (src/pair_table.cpp:466)
pair_coeff * * threebody/table swapMech.3b NULL NULL PA PB

# Molecules
include molDeform.in
molecule CL sysFiles/molecule.patchy.CL
Read molecule template CL:
# Patchy Cross-Linker
  1 molecules
  0 fragments
  5 atoms with max type 3
  4 bonds with max type 1
  0 angles with max type 0
  0 dihedrals with max type 0
  0 impropers with max type 0
molecule MO sysFiles/molecule.patchy.MO
Read molecule template MO:
# Patchy Monomer
  1 molecules
  0 fragments
  3 atoms with max type 4
  2 bonds with max type 1
  0 angles with max type 0
  0 dihedrals with max type 0
  0 impropers with max type 0

# Create patchy particles
group CrossLinker type 1 3
375 atoms in group CrossLinker
group Monomer type 2 4
4275 atoms in group Monomer
group Patches type 3 4
3150 atoms in group Patches
group CL type 1
75 atoms in group CL
group MO type 2
1425 atoms in group MO
group PA type 3
300 atoms in group PA
group CM type 1 2
1500 atoms in group CM
fix pCL CrossLinker rigid/small/omp molecule #langevin 1.0 1.0 100.0 ${seed3}
  create bodies CPU = 0.000 seconds
  75 rigid bodies with 375 atoms
  0.46400431 = max distance from body owner to body atom
fix pMO Monomer rigid/small/omp molecule #langevin 1.0 1.0 100.0 ${seed3}
  create bodies CPU = 0.001 seconds
  1425 rigid bodies with 4275 atoms
  0.5 = max distance from body owner to body atom

# Neighbor list
neighbor 1.8 bin # extra-distance style
neigh_modify exclude molecule/intra CrossLinker
neigh_modify exclude molecule/intra Monomer

fix BrDy all rigid/nve/small molecule langevin 0.05 0.05 0.25 12345 # Brownian Dynamics: langevin + nve
  create bodies CPU = 0.000 seconds
  1500 rigid bodies with 4650 atoms
  0.5 = max distance from body owner to body atom
fix_modify BrDy virial no

thermo ${sstep}
thermo 10000

# Compute global kinetic and potential energy and temperature
compute t all temp
compute tCM CM temp
compute ep all pe
compute ek all ke
compute stressVirial all pressure t ke pair
variable tilt equal v_shear_rate*step*dt
compute blAll Patches pair table/omp 3 epair
compute blCl PA pair table/omp 3 epair


# DUMPS and FIXES

# Save atom positions
dump dumpID all atom ${Nsave} info/patchyParticles_shear.dumpf
dump dumpID all atom 500 info/patchyParticles_shear.dumpf
dump_modify dumpID pbc yes # remap atoms via periodic boundary conditions
#dump_modify dumpID delay ${steps}

# Save global energies and temperature
group Energy empty
0 atoms in group Energy
group BL1 empty
0 atoms in group BL1
group BL2 empty
0 atoms in group BL2
fix fixEng Energy ave/time 1 10 10 c_tCM c_ep c_ek c_t file info/energy_shear.fixf

fix fixBLg BL1 ave/time 1 10 10 c_blAll file info/bondlenPatch_shear.fixf
fix fixBLc BL2 ave/time 1 10 10 c_blCl file info/bondlenCL_shear.fixf


# Save Stress tensor
group Stress empty
0 atoms in group Stress
fix fixStress5 Stress ave/time 1 ${Nave} ${Nave} v_tilt c_stressVirial[*] file info/stressVirial_shear.fixf
fix fixStress5 Stress ave/time 1 1000 ${Nave} v_tilt c_stressVirial[*] file info/stressVirial_shear.fixf
fix fixStress5 Stress ave/time 1 1000 1000 v_tilt c_stressVirial[*] file info/stressVirial_shear.fixf

# RUN SIMULATION

# Introduce deformation
fix shear all deform 1 xy erate ${shear_rate} remap x flip yes
fix shear all deform 1 xy erate 0.02 remap x flip yes

# Run deformation
timestep ${tstep}
timestep 0.001
run ${shear_it}
run 600000

CITE-CITE-CITE-CITE-CITE-CITE-CITE-CITE-CITE-CITE-CITE-CITE-CITE

Your simulation uses code contributions which should be cited:

- Type Label Framework: https://doi.org/10.1021/acs.jpcb.3c08419

@Article{Gissinger24,
 author = {Jacob R. Gissinger, Ilia Nikiforov, Yaser Afshar, Brendon Waters, Moon-ki Choi, Daniel S. Karls, Alexander Stukowski, Wonpil Im, Hendrik Heinz, Axel Kohlmeyer, and Ellad B. Tadmor},
 title = {Type Label Framework for Bonded Force Fields in LAMMPS},
 journal = {J. Phys. Chem. B},
 year =    2024,
 volume =  128,
 number =  13,
 pages =   {3282–-3297}
}

CITE-CITE-CITE-CITE-CITE-CITE-CITE-CITE-CITE-CITE-CITE-CITE-CITE

WARNING: Using a manybody potential with bonds/angles/dihedrals and special_bond exclusions (src/pair.cpp:242)
Hybrid pair style last /omp style table/omp
Last active /omp style is pair_style table/omp
WARNING: More than one fix rigid command (src/RIGID/fix_rigid_small.cpp:529)
WARNING: More than one fix rigid command (src/RIGID/fix_rigid_small.cpp:529)
WARNING: More than one fix rigid command (src/RIGID/fix_rigid_small.cpp:529)
WARNING: One or more atoms are time integrated more than once (src/modify.cpp:296)
Neighbor list info ...
  update: every = 1 steps, delay = 0 steps, check = yes
  max neighbors/atom: 2000, page size: 100000
  master list distance cutoff = 2.92
  ghost atom cutoff = 2.92
  binsize = 1.46, bins = 14 14 14
  6 neighbor lists, perpetual/occasional/extra = 6 0 0
  (1) pair zero, perpetual, skip from (5)
      attributes: half, newton on, omp
      pair build: skip/omp
      stencil: none
      bin: none
  (2) pair lj/cut/omp, perpetual, skip from (5)
      attributes: half, newton on, omp
      pair build: skip/omp
      stencil: none
      bin: none
  (3) pair table/omp, perpetual, skip from (5)
      attributes: half, newton on, omp, cut 2.4
      pair build: skip/omp
      stencil: none
      bin: none
  (4) pair threebody/table, perpetual, skip from (6)
      attributes: full, newton on, omp, cut 2.4
      pair build: skip/omp
      stencil: none
      bin: none
  (5) neighbor class addition, perpetual
      attributes: half, newton on, omp
      pair build: half/bin/newton/tri/omp
      stencil: half/bin/3d/tri
      bin: standard
  (6) neighbor class addition, perpetual
      attributes: full, newton on, omp, cut 2.4
      pair build: full/bin/omp
      stencil: full/bin/3d
      bin: standard
WARNING: Computing temperature of portions of rigid bodies (src/RIGID/fix_rigid_small.cpp:1178)
WARNING: Computing temperature of portions of rigid bodies (src/RIGID/fix_rigid_small.cpp:1178)
WARNING: Computing temperature of portions of rigid bodies (src/RIGID/fix_rigid_small.cpp:1178)
Per MPI rank memory allocation (min/avg/max) = 25.17 | 25.18 | 25.2 Mbytes
   Step          Temp          E_pair         E_mol          TotEng         Press          Volume    
         0   0.33263606     0.24849963     0              0.29131311    -0.00086714085  7996.5685    
     10000   0.32343103     0.32153281     0              0.36316151    -3753.364       7996.5685    
     20000   0.32611065     0.393352       0              0.4353256     -17904.685      7996.5685    
     30000   0.31775694     0.37017878     0              0.41107717    -42967.815      7996.5685    
     40000   0.32094734     0.36629455     0              0.40760358    -86483.999      7996.5685    
     50000   0.31397825     0.4097411      0              0.45015314    -141786.12      7996.5685    
     60000   0.31650612     0.41835977     0              0.45909717    -219711.69      7996.5685    
     70000   0.33018431     0.4457385      0              0.48823641    -324342.08      7996.5685    
     80000   0.32317219     0.41707023     0              0.45866562    -426190.13      7996.5685    
     90000   0.32350926     0.41031479     0              0.45195356    -585140.6       7996.5685    
    100000   0.31494801     0.46660091     0              0.50713776    -794170.18      7996.5685    
    110000   0.31936311     0.45314171     0              0.49424684    -1020190.4      7996.5685    
    120000   0.3304228      0.47464998     0              0.51717859    -1319372.3      7996.5685    
    130000   0.32763371     0.50924612     0              0.55141575    -1437710.3      7996.5685    
    140000   0.31246141     0.47578951     0              0.51600632    -1812396.6      7996.5685    
    150000   0.33116322     0.58581967     0              0.62844358    -2266100.9      7996.5685    
    160000   0.32664405     0.51569509     0              0.55773734    -2809590.7      7996.5685    
    170000   0.32913856     0.50531216     0              0.54767548    -3334103.7      7996.5685    
    180000   0.32326048     0.51795276     0              0.55955951    -3326729        7996.5685    
    190000   0.33488365     0.51513511     0              0.55823788    -4029606        7996.5685    
    200000   0.32155633     0.57885094     0              0.62023836    -4729900.9      7996.5685    
    210000   0.31598007     0.56755968     0              0.60822937    -5635255.4      7996.5685    
    220000   0.31957543     0.61194419     0              0.65307664    -6475639.7      7996.5685    
    230000   0.32299794     0.63911455     0              0.68068752    -6259953.2      7996.5685    
    240000   0.32391614     0.61322997     0              0.65492111    -7268671.6      7996.5685    
    250000   0.3386874      0.55864537     0              0.60223771    -8427671.1      7996.5685    
    260000   0.32990049     0.60810894     0              0.65057033    -9627275.1      7996.5685    
    270000   0.32900418     0.57034725     0              0.61269327    -10979421       7996.5685    
    280000   0.32202246     0.53024422     0              0.57169162    -10166644       7996.5685    
    290000   0.31799427     0.52479466     0              0.5657236     -11572728       7996.5685    
    300000   0.32750923     0.58126632     0              0.62341992    -13108756       7996.5685    
    310000   0.32376829     0.60724757     0              0.64891968    -14765795       7996.5685    
    320000   0.31230696     0.58123416     0              0.62143109    -16491920       7996.5685    
    330000   0.33509791     0.63790436     0              0.68103471    -14949113       7996.5685    
    340000   0.33513337     0.58492251     0              0.62805741    -16815669       7996.5685    
    350000   0.32039831     0.57917575     0              0.