LAMMPS data file via write_data, version 19 Nov 2024, timestep = 1500000, units = lj

40 atoms
4 atom types
30 bonds
1 bond types
35 angles
2 angle types

-6 6 xlo xhi
-6 6 ylo yhi
-6 6 zlo zhi

Masses

1 1
2 1
3 1
4 1

Bond Coeffs # harmonic/omp

1 100 0.45

Angle Coeffs # harmonic/omp

1 100 180
2 100 109.471

Atoms # full

40 10 4 0 -5.857951760930979 -0.3865127460121971 -3.445601081155629 0 0 0
32 8 2 0 3.5287334570541393 -1.8047114458144 0.6507591927230363 0 0 0
33 8 4 0 3.8158208296454874 -2.0908640681108186 0.4709453316331276 0 0 0
34 8 4 0 3.2233661579179684 -1.5088693646327633 0.8463661864316467 0 0 0
31 7 4 0 4.868229010357315 1.2980278902191842 -4.714468628920399 0 0 0
29 7 2 0 5.1194971025537335 1.5404711141838223 -4.459163633092365 0 0 0
39 10 4 0 -5.451790498412359 0.3925428218574353 -3.6653963379626235 0 0 0
3 1 3 0 5.0974031078725215 2.578028656727032 -4.1192101379425425 0 0 0
30 7 4 0 5.36501001779257 1.7921021668503225 -4.205367298732375 0 0 0
5 1 3 0 5.818631751652037 2.496968640116164 -4.12337094495103 0 0 0
2 1 3 0 5.392755275991168 1.981986707700531 -3.8471301840168852 0 0 0
1 1 1 0 5.440530616665513 2.4104845788482376 -3.8945742854392957 0 0 0
4 1 3 0 5.469063394030395 2.6133393903228472 -3.4662914723685243 0 0 0
26 6 2 0 5.154367739708673 2.465745313720368 -2.785097959842385 0 0 0
28 6 4 0 5.37827873912188 2.3623572196447706 -3.1574225973517676 0 0 0
27 6 4 0 4.931625916021366 2.573092941223281 -2.4248834307949436 0 0 0
38 10 2 0 -5.653543529435712 0.0012821900529461725 -3.5461244818528264 0 0 0
36 9 4 0 2.6522392063696136 0.5422330553612635 4.098178667939153 0 0 0
35 9 2 0 2.8902489509922975 0.9407768809990659 4.063904220130897 0 0 0
9 2 3 0 1.588724529783902 0.892750764100884 4.280472486568107 0 0 0
19 4 3 0 3.7607878387205615 1.468283018681345 3.533292348500885 0 0 0
37 9 4 0 3.1181723720267978 1.3470424932802874 4.026853200078737 0 0 0
16 4 1 0 3.508163800155055 1.7880222431630421 3.7091248811292905 0 0 0
20 4 3 0 3.5305854108287047 2.1504569260489617 3.442222541087666 0 0 0
18 4 3 0 3.6578095640336326 1.8862439712260164 4.107271943600065 0 0 0
17 4 3 0 3.0794350130146397 1.6438421913373988 3.7515542834396856 0 0 0
7 2 3 0 1.9900785447911578 0.5423150143838235 4.759546350202999 0 0 0
8 2 3 0 1.5713024248223004 1.1139652942457299 4.971127681821608 0 0 0
6 2 1 0 1.6045814197708077 0.754723784902768 4.683600629200078 0 0 0
10 2 3 0 1.2815305681212974 0.4841299514980914 4.751904675644551 0 0 0
24 5 3 0 4.1155813143658175 2.9632938785104046 5.106309905946155 0 0 0
22 5 3 0 3.74001287274946 2.441123920439571 4.867902618532916 0 0 0
21 5 1 0 4.121671759165118 2.551800834048243 5.014144324680687 0 0 0
23 5 3 0 4.4672574472868884 2.4667947765448015 4.670706550311754 0 0 0
25 5 3 0 4.212681111374978 2.3305655407394035 5.380554665066142 0 0 0
13 3 3 0 4.730041880019864 4.436029491065608 5.477383991318603 0 0 0
14 3 3 0 5.2607191641825315 3.9830962446726015 5.542876892687848 0 0 0
11 3 1 0 5.139736355868048 4.361804111076777 5.374649021935602 0 0 0
12 3 3 0 5.186298890067813 4.347202125829483 4.913151857557418 0 0 0
15 3 3 0 5.381780961672517 4.676998177236109 5.539019500644257 0 0 0

Velocities

40 -0.25268434970400555 -0.07559756150440763 -0.19231884816608708
32 0.18792995096027146 -0.5216170623582578 0.1294170396579418
33 -0.2240967110141119 -0.09601446923622728 0.12513896971789323
34 -0.010629395434641729 -0.37934088347174433 0.03896351951244018
31 -0.26369448472108514 0.1311946693990403 -0.15134579644319335
29 -0.09288182567629827 -0.21387469858552258 -0.23310098073572852
39 0.01933815114646693 0.31190558348625175 -0.22799781752160095
3 0.25013065046170857 0.15437011421293928 -0.33997781060461973
30 0.18199443400456458 -0.01571659743956774 -0.2898682412866548
5 -0.04384892106195935 0.09813969170428273 0.2374639336997197
2 0.0023520868936531877 0.19449397439185417 -0.5571292622860113
1 0.15716362182688234 0.1902933710761322 0.21636504792190234
4 0.09425073260616035 -0.05004555992659006 -0.04164835709234342
26 -0.01923387196908661 0.1974103456035672 0.2698531470188979
28 0.2872817052018093 -0.37172252665896677 0.2746115507141765
27 0.13987768520240226 -0.24978450359360285 0.3307549936296479
38 0.06972155680254441 -0.3638829774602617 -0.14906145021477993
36 -0.3005334112209317 0.009535094781571132 -0.19495073316459305
35 0.17945247745498313 -0.17008558520286254 0.24129141477932883
9 -0.32683744105401474 0.02920707554579267 0.04145658348402273
19 -0.333277555639461 0.20319947309049738 0.10749250091957109
37 0.21303906811989565 0.12818576186152067 0.23645118848789234
16 0.1469177773464073 0.0027420547877094765 -0.07973804411033666
20 -0.07082932934609332 -0.0879638175177136 -0.18511836633744477
18 -0.09954348390165708 -0.20300585654681869 0.06293534418060658
17 -0.1378188360117496 0.004455947121395372 -0.18940693661887567
7 0.2879023923021007 -0.4132104157350119 -0.1918927009613035
8 -0.35911649174209476 0.16855103527354437 0.20171283411451077
6 0.13036948502205334 0.04727574804809926 -0.11223881072064822
10 -0.033477070742664705 0.02373659248093441 -0.09465291042673249
24 -0.2615516948354506 0.4524222201699646 0.10720767442321061
22 -0.06546122882518199 0.16340377734536174 -0.18650629959078374
21 0.11355340041010899 0.01960393186674433 0.20804491392507668
23 0.03975856721901078 0.3565833340779659 0.029439823924200186
25 0.08662439124697381 -0.14424937934239374 -0.41341578575596705
13 0.13593294738875894 -0.04526360369260103 0.26526934826872983
14 0.016168358178722753 0.07383185999511283 0.2392299504804705
11 -0.08072202518186856 0.2819958449463515 -0.26247628886581054
12 0.04140817103590237 0.27623385417550766 -0.017918631574180333
15 -0.08045851742430073 -0.023933294876303125 0.03625738008254955

Bonds

1 1 32 33
2 1 32 34
3 1 29 30
4 1 29 31
5 1 1 2
6 1 1 3
7 1 1 4
8 1 1 5
9 1 26 27
10 1 26 28
11 1 38 39
12 1 38 40
13 1 35 36
14 1 35 37
15 1 16 17
16 1 16 18
17 1 16 19
18 1 16 20
19 1 6 7
20 1 6 8
21 1 6 9
22 1 6 10
23 1 21 22
24 1 21 23
25 1 21 24
26 1 21 25
27 1 11 12
28 1 11 13
29 1 11 14
30 1 11 15

Angles

1 1 33 32 34
2 1 30 29 31
3 2 2 1 3
4 2 2 1 4
5 2 2 1 5
6 2 3 1 4
7 2 3 1 5
8 2 4 1 5
9 1 27 26 28
10 1 39 38 40
11 1 36 35 37
12 2 17 16 18
13 2 17 16 19
14 2 17 16 20
15 2 18 16 19
16 2 18 16 20
17 2 19 16 20
18 2 7 6 8
19 2 7 6 9
20 2 7 6 10
21 2 8 6 9
22 2 8 6 10
23 2 9 6 10
24 2 22 21 23
25 2 22 21 24
26 2 22 21 25
27 2 23 21 24
28 2 23 21 25
29 2 24 21 25
30 2 12 11 13
31 2 12 11 14
32 2 12 11 15
33 2 13 11 14
34 2 13 11 15
35 2 14 11 15
