LAMMPS data file via write_data, version 19 Nov 2024, timestep = 1000000, units = lj

79 atoms
4 atom types
54 bonds
1 bond types
35 angles
2 angle types

-3.045986 3.045986 xlo xhi
-3.045986 3.045986 ylo yhi
-3.045986 3.045986 zlo zhi

Masses

1 1
2 1
3 0.1
4 0.1

Bond Coeffs # harmonic/omp

1 100 0.45

Angle Coeffs # harmonic/omp

1 100 180
2 100 109.471

Atoms # full

74 24 2 0 -1.6127150958498182 -1.7179338696026574 -1.7556559888299865 1 1 1
79 25 4 0 -1.284010384560261 -1.499771793232483 -2.397465095915517 1 0 1
75 24 4 0 -1.3712267903945679 -1.7615375736783803 -2.112393160313302 1 1 1
77 25 2 0 -1.1050147817431495 -1.1224746275799597 -2.524477056478999 1 0 1
78 25 4 0 -0.9339312926731945 -0.7512004723026459 -2.6494696818260577 1 0 1
67 21 4 0 -0.89593426500677 -0.3457092847330282 -2.5037301399152114 1 0 1
65 21 2 0 -0.6133710538361454 -0.08070578212971743 -2.6925283863527376 1 0 1
51 16 4 0 -1.7825877650108521 -1.9322999784463384 -1.0727302083953032 1 0 1
50 16 2 0 -1.804049106347217 -2.220151228371223 -0.7242741824509803 1 0 1
76 24 4 0 -1.8784034387779411 -1.6704435463102214 -1.3755387447368022 1 1 1
52 16 4 0 -1.8317848479450718 -2.5059478658377534 -0.35655518136794806 1 0 1
36 11 4 0 -1.718608814358791 -2.873641148647203 -0.29819310287977524 0 1 1
18 5 4 0 -3.0128666091917156 -0.21293081374547684 1.0559062555929424 0 0 0
66 21 4 0 -0.3167331418594842 0.204652344394507 -2.8830668135400015 1 0 1
35 11 2 0 -1.5578424948765948 2.797367158762249 -0.17619289382039893 0 0 1
49 15 4 0 -1.2916889182475508 0.588992194991081 -0.07077259856907657 0 0 0
37 11 4 0 -1.4027496056003759 2.376159364238939 -0.059983769989373235 0 0 1
28 8 4 0 -2.405726422103179 0.9502250040595959 1.4301906828232112 0 0 1
26 8 2 0 -2.166698243635235 1.324919579849827 1.332161460653234 0 0 1
1 1 1 0 -2.88844775685068 0.5821815676509644 0.8491314299499535 0 0 0
13 3 4 0 -2.534307560152172 0.2407705675851132 0.22761164325063607 0 0 0
11 3 2 0 -2.050358741605977 0.33218741535839885 0.20025750371154177 0 0 0
2 1 3 0 -2.678269235183688 0.8372459871263394 1.165433794137139 0 0 0
5 1 3 0 -2.5921698122815644 0.5195406518618164 0.46594623963039167 0 0 0
3 1 3 0 -3.0010987599816663 0.18342153165661892 1.0326144788589415 0 0 0
12 3 4 0 -1.5951310264893028 0.42318023419816886 0.17602636607371921 0 0 0
47 15 2 0 -0.9548155750584292 0.5139736646564018 0.2352160766796539 0 0 0
39 12 4 0 -0.40306282457481807 0.6343620756522771 0.8202378669249059 0 0 0
48 15 4 0 -0.6150268548476718 0.44203804556419385 0.5484342223322421 0 0 0
38 12 2 0 -0.29773579261949895 0.6873009531646126 1.2634535821436412 0 0 0
27 8 4 0 -1.9251215822732053 1.699813847736506 1.2407732657893378 0 0 1
43 13 4 0 -2.064164212608454 1.9777844145632697 0.9461027629234233 0 0 1
41 13 2 0 -1.850603065745628 2.080648845394542 0.5799705302415511 0 0 1
7 2 3 0 -0.04352120831858966 1.1100237437394067 1.7281731798898832 0 0 0
42 13 4 0 -1.6326626778545568 2.187421577733574 0.18347436425394092 0 0 1
68 22 2 0 -2.1427529489570833 1.5047091195656004 2.507008484921896 1 0 0
70 22 4 0 -1.7163377773791109 1.3350243315405477 2.5546682887235264 1 0 0
8 2 3 0 -0.239959779948556 1.7107807620208209 2.090883321316573 0 0 0
15 4 4 0 -0.5983100165018768 1.5387358284032049 2.1691013571937106 0 -1 0
16 4 4 0 -1.4783303967889179 1.6235749412180738 2.354962984849817 0 -1 0
14 4 2 0 -1.0343131464297357 1.5781709404531459 2.2592424054649958 0 -1 0
73 23 4 0 -2.7227603230203075 1.750128657258418 2.0774125171914575 1 0 0
69 22 4 0 -2.5811443920923467 1.6858482134119568 2.461904059362418 1 0 0
40 12 4 0 -0.21008269556537126 0.7432662275602172 1.6817699966196944 0 0 0
71 23 2 0 -3.0316854960804624 2.0789340509626526 1.999588345780914 1 0 0
56 18 2 0 2.493960386337467 -1.9163679526238815 -2.04542843174968 0 0 1
57 18 4 0 2.720117928777117 -1.9475589370557644 -2.4326846599325584 0 0 1
31 9 4 0 2.9444274955269383 -2.1745696768046385 -2.671720175019476 0 0 1
58 18 4 0 2.2824225592201857 -1.891973584203329 -1.6387244167636545 0 0 1
29 9 2 0 2.836297971032965 -2.4606065677304008 -3.0054543535652773 0 0 1
44 14 2 0 2.0835820802721883 -1.7684480210179907 -1.04279941265914 0 0 0
45 14 4 0 1.896640717403327 -1.9736222874715033 -0.6874643527283614 0 0 0
55 17 4 0 2.197449419152857 -1.932916249900236 -0.41050780269488957 0 0 1
46 14 4 0 2.266572866441084 -1.5784599109613582 -1.4070652805136536 0 0 0
54 17 4 0 1.8972188399797327 -1.9019509089674795 0.46358032290672985 0 0 1
53 17 2 0 2.0569358717988853 -1.9138614657103856 0.01644887410866294 0 0 1
63 20 4 0 1.8014396714014649 -1.6512365800568294 0.7545867407157791 0 0 0
62 20 2 0 1.8661195162410749 -1.2191057592711587 0.877751026870649 0 0 0
64 20 4 0 1.9366189809542174 -0.8141380880155156 1.0037594151689644 0 0 0
17 5 2 0 2.7008034816853903 -0.4986817546690447 1.0086146508482488 -1 0 0
25 7 4 0 2.366639509676831 -2.7023242252296935 2.5413450900208043 0 0 0
19 5 4 0 2.3352978451403703 -0.7835208964448513 0.9566418743728735 -1 0 0
30 9 4 0 2.7316334140274896 -2.736818161494687 2.7563494855330983 0 0 0
23 7 2 0 2.454339026115893 -3.015994555411075 2.2692120777313205 0 0 0
34 10 4 0 0.04523212888246439 0.3186949696840779 -2.850050264964767 0 0 1
61 19 4 0 1.700972650389409 0.40112102195591054 0.991310218905426 0 0 1
4 1 3 0 2.838779039819859 0.7855216551666471 0.7095972037444284 -1 0 0
59 19 2 0 2.087748982862313 0.5293892447933969 0.7906634938954529 0 0 1
60 19 4 0 2.477852687650271 0.6556508279143445 0.6004385266495773 0 0 1
20 6 2 0 0.7536142080506976 2.289426221820521 1.6976593135869669 0 -1 0
22 6 4 0 0.9492817215421576 2.683672455544754 1.752898282170155 0 -1 0
72 23 4 0 2.7618838079191548 2.4240304575966096 1.932750271196193 0 0 0
6 2 1 0 0.08163021006988834 1.4229303303672263 2.0328470558007443 0 0 0
9 2 3 0 0.18915913537127496 1.1925030266283596 2.4513039682834616 0 0 0
33 10 4 0 0.3630628855626068 0.90882166144846 2.6848110704443515 0 0 0
24 7 4 0 2.5472285243876294 2.7417911332269167 1.9826858801189746 0 -1 0
32 10 2 0 0.19767966730851227 0.6166700391071607 2.9630149271394606 0 0 0
10 2 3 0 0.4320967799566236 1.6341762659549623 1.8866343309155535 0 0 0
21 6 4 0 0.562409793302509 1.9025516283262809 1.6403012669327917 0 -1 0

Velocities

74 -0.14811004451043114 -0.1629062705953692 0.09413168562539756
79 -0.8680937273823662 0.2664241904769976 0.40077465639971777
75 -0.14753579160975452 0.13858258951071734 0.44523503027558015
77 0.39415058332162883 0.1754595373883842 -0.05430033699781946
78 1.485772934038895 0.6520895940034819 0.013018532817235185
67 -0.1953807097258535 -0.13457310804885142 -1.0285493034961737
65 0.23913290308921034 0.21512217328851535 0.12823914912841664
51 -0.6692137250224721 -0.43085075831077924 -0.25131112922130866
50 -0.037112593061688376 -0.04763255622663827 -0.1613620836373033
76 0.7455512742883352 -0.958552860677544 -0.7599097835923894
52 -0.3044148082004134 0.2722382062462204 -1.1172401635005764
36 0.006051371381453945 -0.17943055224204052 -0.3624200734029855
18 0.8301686510510033 -0.8286864350085472 1.3339401777427977
66 -0.5928798955951693 0.2755492940401264 0.47905453036841766
35 0.02365794540971647 -0.15286673361293004 -0.1736087278068011
49 0.7368220349287741 -0.05906644513942434 -0.7303522790351218
37 -0.08580703913817486 0.23115345504778861 -1.1090763011048483
28 -0.2502501078260722 -0.8208235256884518 0.09137843540829553
26 0.10732353324574186 -0.13734176247919674 -0.35123533061622897
1 -0.0018101703872545243 -0.5320195988609315 -0.20532063408023324
13 -0.30663565284105554 0.5335536140619455 -0.5568332531192898
11 0.2545053102598529 -0.2163037131468741 -0.4383953621298423
2 -0.8947286627069325 0.6435590331792832 0.44026399060905896
5 -0.2117893923267611 -0.3089955862079785 0.7335661173406334
3 -0.8564739489717533 1.9340180080193927 0.6889621670747764
12 -0.8084454780326128 1.1145163657511126 -0.4687588538517653
47 -0.10534032144269995 -0.1223394493968892 0.1175167128481957
39 -0.8182351381639476 -1.611198427796871 0.7154800444800725
48 0.6229960647693875 0.4528314806665006 -0.27526999838669125
38 0.09409689637989825 -0.22464851433026461 -0.18790697647224755
27 0.7372788596748965 -0.7541899989500807 0.09016951794230711
43 0.646851556883835 0.021889784016155826 -0.018524350490454367
41 -0.22675537497070572 -0.12450530081585601 -0.23962039639644495
7 -0.6551180381342702 -0.7795439841465526 -0.2902011437267533
42 -0.10050021312838726 0.30733834835824625 -1.5233324412195517
68 0.11249831077646345 0.22802653537122122 0.047855706484983974
70 -0.9743527214185602 -0.28488834701817456 -0.5613021579279702
8 -0.3691731263516673 0.06897811540319602 0.1830873650969831
15 0.4369735743219768 -1.1012742106052742 0.36578235007330084
16 0.7594221296440719 0.2679766548908991 0.4466122485847766
14 0.23327110864198236 -0.19195454125025857 0.38647850758102514
73 0.3939979284603723 0.5419083148456398 -0.017250766032494716
69 0.43888265288354805 0.8701990343960595 -0.06718505421732197
40 -0.5531363777633397 0.665510057657086 -0.2029784464345434
71 0.03571974676881322 0.04741233535847181 -0.032163989630654505
56 0.0940083184458799 0.11366213789176904 0.0156997593965849
57 0.8919029725334126 -0.8909114177217154 -0.697440876451348
31 -0.14516633754410993 -0.7953599355532814 -1.238641317467317
58 0.040408537678569834 0.17991218934515954 -0.9313675924659618
29 0.1386099812416836 -0.05745676386444389 -0.24201055522825468
44 -0.44412413567094744 -0.2130720679224451 0.012974417784246094
45 -0.01923081147306656 0.7844781835934921 -0.5781074656891448
55 -0.17426040858856076 0.5952481162985753 -1.4155021667425396
46 0.09189836367338798 0.26408753406964525 0.9595426449233441
54 0.6909756196985299 0.09058039778657832 -0.7311883064175448
53 0.4530004448665878 -0.010799148247506066 0.19470029554305815
63 -0.2976390094927953 1.1038868757678453 1.0529663338248245
62 -0.20469048701860537 -0.36529017852465145 0.109460566743775
64 -0.5595482336032708 -0.5502325434821705 -0.10103755314391737
17 -0.023032890627650984 0.14283167248794454 -0.43555446201475867
25 -0.6897608097308785 0.08095500143826886 0.4732231805914414
19 0.04026757087298141 0.4124581535261971 0.7472066510542904
30 -0.48803634361362297 0.3301886713791251 -0.3909856165850811
23 -0.10804521657512561 0.1874789561944146 0.34148708549669743
34 0.942076185980339 0.8117432174490039 -0.22254945527088654
61 -0.020476146412204393 -0.24662074336556208 0.22318947259984506
4 -0.13067714173955103 0.9137931894350638 0.4018689263737523
59 0.0327329652903533 -0.29251149137443233 -0.09119522652068045
60 1.5685758587001297 0.05929165370383344 0.38549631881334184
20 0.2335415390758217 -0.0069874730346411625 0.29524787681514736
22 -0.7187578405703743 0.2641184744644692 -0.46219504593534927
72 0.8005651951720806 -0.5544880742698998 -0.9686546340283557
6 -0.5530824257221838 0.07152349949113912 -0.1656188552003982
9 0.16492390939568316 -0.09058536134485437 0.21505320263966174
33 0.3508249648492649 -0.9410058707037641 -0.22733544855880738
24 0.6518462609181017 0.08983123822006092 -0.5730663872094064
32 -0.17878126591920346 0.03348408818698323 0.24167349003290425
10 -0.45466454488009606 0.215521823639562 0.11644989773300804
21 1.1398133435036162 0.1217115416520787 0.26015798993572925

Bonds

1 1 74 75
2 1 74 76
3 1 77 78
4 1 77 79
5 1 65 66
6 1 65 67
7 1 50 51
8 1 50 52
9 1 35 36
10 1 35 37
11 1 26 27
12 1 26 28
13 1 1 2
14 1 1 3
15 1 1 4
16 1 1 5
17 1 11 12
18 1 11 13
19 1 47 48
20 1 47 49
21 1 38 39
22 1 38 40
23 1 41 42
24 1 41 43
25 1 68 69
26 1 68 70
27 1 14 15
28 1 14 16
29 1 71 72
30 1 71 73
31 1 56 57
32 1 56 58
33 1 29 30
34 1 29 31
35 1 44 45
36 1 44 46
37 1 53 54
38 1 53 55
39 1 62 63
40 1 62 64
41 1 17 18
42 1 17 19
43 1 23 24
44 1 23 25
45 1 59 60
46 1 59 61
47 1 20 21
48 1 20 22
49 1 6 7
50 1 6 8
51 1 6 9
52 1 6 10
53 1 32 33
54 1 32 34

Angles

1 1 75 74 76
2 1 78 77 79
3 1 66 65 67
4 1 51 50 52
5 1 36 35 37
6 1 27 26 28
7 2 2 1 3
8 2 2 1 4
9 2 2 1 5
10 2 3 1 4
11 2 3 1 5
12 2 4 1 5
13 1 12 11 13
14 1 48 47 49
15 1 39 38 40
16 1 42 41 43
17 1 69 68 70
18 1 15 14 16
19 1 72 71 73
20 1 57 56 58
21 1 30 29 31
22 1 45 44 46
23 1 54 53 55
24 1 63 62 64
25 1 18 17 19
26 1 24 23 25
27 1 60 59 61
28 1 21 20 22
29 2 7 6 8
30 2 7 6 9
31 2 7 6 10
32 2 8 6 9
33 2 8 6 10
34 2 9 6 10
35 1 33 32 34
