LAMMPS data file via write_data, version 19 Nov 2024, timestep = 100000, units = lj

79 atoms
4 atom types
54 bonds
1 bond types
35 angles
2 angle types

-3.045986 3.045986 xlo xhi
-3.045986 3.045986 ylo yhi
-3.045986 3.045986 zlo zhi
-1.120259440767768e-11 0 0 xy xz yz

Masses

1 1
2 1
3 0.1
4 0.1

Bond Coeffs # harmonic/omp

1 100 0.45

Angle Coeffs # harmonic/omp

1 100 180
2 100 109.471

Atoms # full

35 11 2 0 -1.7227530448446546 -2.9402788707325924 -0.6980024763866748 0 1 1
36 11 4 0 -1.325007477194396 -2.733373581122658 -0.7038998607445026 0 1 1
50 16 2 0 -0.6665504432718063 -2.389026872429121 -1.0641153044358387 1 0 1
52 16 4 0 -1.0673299383594106 -2.5384083137903874 -0.9433295357226714 1 0 1
51 16 4 0 -0.2517905487065901 -2.239126144939663 -1.188816640526718 1 0 1
56 18 2 0 -3.014531621904002 -1.4820541670406655 -1.0194883896096787 1 0 1
58 18 4 0 -2.7017678970219983 -1.2975549525718206 -0.7221936011315733 1 0 1
46 14 4 0 -2.5351276076332527 -1.0764143880939847 -0.44092809156326496 1 0 0
44 14 2 0 -2.106507429150298 -1.0849668504482732 -0.2955192224566905 1 0 0
45 14 4 0 -1.7110429197759789 -1.0952911012415465 -0.15534734285658391 1 0 0
55 17 4 0 -1.329713179584942 -0.997176972663206 -0.16879858542659676 1 0 1
48 15 4 0 -2.454012659366243 -0.0022933999583849562 1.3307272031195012 1 0 0
63 20 4 0 -0.6161134505226151 -0.34956262326791165 0.40255502202780935 1 0 0
54 17 4 0 -0.9280543736591018 -0.5832617120307746 0.5315137811395436 1 0 1
53 17 2 0 -1.1385787165134817 -0.8041805094287868 0.16491258903045392 1 0 1
39 12 4 0 -2.2914714403330527 -0.13526275389207676 1.6759188299127805 1 0 0
14 4 2 0 -2.782097024822643 1.3337472900476275 -2.949447948013553 1 -1 1
32 10 2 0 -2.8281431213036967 0.08544663065075708 -2.760398489297516 1 0 1
33 10 4 0 -2.497663355572157 0.4095951542829832 -2.7536111253687494 1 0 1
9 2 3 0 -2.1280508566345624 0.432440737355857 -2.877051016359023 1 0 1
10 2 3 0 -1.5323968363645746 0.862258877138669 -2.8769677253368795 1 0 1
22 6 4 0 -0.5211984875396296 0.6150952572566477 -2.4666599615190283 1 -1 1
20 6 2 0 -0.8400443355792069 0.7636005900156837 -2.7468344975003602 1 -1 1
21 6 4 0 -1.1598333409918988 0.9101125023139578 -3.0297029463915286 1 -1 1
42 13 4 0 -2.297313727193524 2.6701756801273238 -0.45837989263972734 1 0 1
41 13 2 0 -2.680079064823222 2.5318200552521333 -0.2637950423939852 1 0 1
37 11 4 0 -2.119375972429182 2.9511082540629934 -0.6814814430460161 0 0 1
47 15 2 0 -2.73137501098147 0.12466778691869962 0.9890798596111772 1 0 0
49 15 4 0 -3.002987695419389 0.24224141360109464 0.6454029564143489 1 0 0
64 20 4 0 -0.21669467713224755 0.4566020809789988 0.6383175462824155 1 0 0
62 20 2 0 -0.4218447888162675 0.04421621409041476 0.5226785695065681 1 0 0
38 12 2 0 -2.093779393954105 0.028651292596211686 2.0610955030112263 1 0 0
6 2 1 0 -1.8769705595851087 0.6934659093393316 2.9667967932240122 1 0 0
7 2 3 0 -1.7144823645351768 0.45736415406459185 2.6388752569973066 1 0 0
8 2 3 0 -2.1280231017507103 1.0398589284176945 2.7998563771004035 1 0 0
15 4 4 0 -2.4114306591302053 1.2735848436786892 2.937475688687459 1 -1 0
40 12 4 0 -1.9035595855863774 0.18234692036222722 2.42295446723805 1 0 0
75 24 4 0 0.7477960285745042 -1.5850591911461058 -1.6799397195526933 1 1 1
74 24 2 0 0.38670225635602273 -1.8264369257291615 -1.5403438329352783 1 1 1
23 7 2 0 1.6239284148185797 -2.8467846526133878 -2.056429831225213 1 0 1
25 7 4 0 1.7626816566063592 -2.426590111974699 -2.0469579654040815 1 0 1
29 9 2 0 2.3899485938720337 -1.935439412875197 -1.8154666559124035 0 0 1
30 9 4 0 2.046658573382383 -2.1800607507636776 -1.92349435344173 0 0 1
31 9 4 0 2.7441195168405326 -1.6848479505152247 -1.705938700274171 0 0 1
77 25 2 0 1.490696616453758 -1.2279125589278186 -1.8960811860307882 1 0 1
79 25 4 0 1.1160451106326006 -1.4674035039246731 -1.8033567644582338 1 0 1
78 25 4 0 1.8727966408837196 -0.9840378433412456 -1.9826753248451496 1 0 1
67 21 4 0 2.0294643130025563 -0.8919967600578476 -2.3501411889400883 1 0 1
65 21 2 0 2.2850170385459583 -0.5780323644513112 -2.5389727088057366 1 0 1
66 21 4 0 2.5370327739079386 -0.26833795708050445 -2.720245267640057 1 0 1
34 10 4 0 2.941901790090615 -0.21788805603381123 -2.7699121174316583 0 0 1
76 24 4 0 0.04118608479835517 -2.058177157252564 -1.401159461586096 1 1 1
57 18 4 0 2.7775386456815196 -1.6619432046487275 -1.3120536764938946 0 0 1
59 19 2 0 1.4970200267680438 -0.0712327853839283 -0.5372052702407948 1 0 1
61 19 4 0 1.2656568702578879 -0.46486175307100996 -0.520482738083702 1 0 1
68 22 2 0 2.20171311106063 1.339463675091876 -2.7616789971854523 1 0 1
70 22 4 0 2.6107215786561646 1.1420729253168664 -2.7575670665305294 1 0 1
16 4 4 0 2.9215539449583456 1.3921155344863383 -2.7411482729552215 0 -1 1
24 7 4 0 1.4945958132380603 2.8422883468544438 -2.0720170398768114 1 -1 1
69 22 4 0 1.7959174747706639 1.5276874486991492 -2.762440181410791 1 0 1
72 23 4 0 1.603387318188303 2.4765154099518156 -2.024669576713384 1 0 1
71 23 2 0 1.5758625541095048 2.151777801565431 -2.3409758895373827 1 0 1
73 23 4 0 1.5470943996110664 1.8222559760096981 -2.661054245138744 1 0 1
4 1 3 0 1.6323723161329937 0.5859622901993138 -0.2901951273321344 0 0 0
60 19 4 0 1.718690744422319 0.30091954673043864 -0.547867604067148 1 0 1
2 1 3 0 1.8751849950026953 1.2297686249493047 -0.016567674954797607 0 0 0
43 13 4 0 3.0236149563210217 2.3990994368996432 -0.055751965778015666 0 0 1
18 5 4 0 0.8096495207384988 0.8767863192727972 0.16042908789313737 0 0 0
17 5 2 0 0.42495100772417294 0.8311987780498513 0.3641016594719453 0 0 0
19 5 4 0 0.018675892342971956 0.7826230640931287 0.5870253524054707 0 0 0
3 1 3 0 1.16783210743003 1.0546969466819265 0.03767751623894089 0 0 0
13 3 4 0 1.8945574942203063 0.43895243615657975 0.6273522844137762 0 0 0
11 3 2 0 2.3000271848939446 0.2762003701753959 0.6266966547178252 0 0 0
12 3 4 0 2.713758981791682 0.11156848271111608 0.6267834599292721 0 0 0
5 1 3 0 1.662116569936945 0.6924258689542211 0.44358152578270005 0 0 0
1 1 1 0 1.585911633934944 0.8924410936241243 0.042589982826469974 0 0 0
28 8 4 0 1.9819043646282246 1.6154691477970635 0.031153615842041127 0 0 1
26 8 2 0 2.3151122740241643 1.9273862563695294 0.03534277659789353 0 0 1
27 8 4 0 2.647136761117469 2.230108036385694 0.03292760171079179 0 0 1

Velocities

35 0.005237394538721348 0.07007514932707895 -0.015598737015057863
36 0.3231238781964878 0.10989516478908602 0.717371129698405
50 0.025066892729127658 0.25994762161500395 -0.038926373839773334
52 -0.4432200836333426 0.34967887702246514 0.2898284518648195
51 -0.1700977515174433 0.8334091206233925 -0.41913410067882856
56 -0.2578257435397917 0.15946350955351749 0.08827139206992464
58 -0.4073766025752624 0.3874458988653006 0.6022242041733465
46 -0.12190706214055456 0.04169859846589284 -0.6862327358325907
44 0.18938420324700628 0.28761315425792583 -0.012646480141708685
45 -0.7455930370220162 0.1895723768758485 -0.22281265469542383
55 -0.5500786703215035 0.910980088719374 0.3493742920343022
48 -1.0862908754081353 -0.2917165173688061 0.5252533142890711
63 -0.010323402075228846 0.14704289467020965 0.6563089318038188
54 -0.4507982746073196 0.6000468851237634 -0.546288229776083
53 0.24319394793511565 -0.29705868464051854 -0.1551821693508161
39 -0.503189212172452 1.1655872088721382 0.17541950196131284
14 -0.3765264647013071 0.2957120188420827 0.0733842780211553
32 0.09525690731304191 -0.13372225375186916 0.27828580227092886
33 0.5904323862157309 0.1344008807051505 -0.40027578461333174
9 0.14649034627458718 -0.34446686824124484 -0.1050180430957658
10 0.2698280006352422 -0.17265382624761139 0.585636229909782
22 0.22873649659533324 0.41375777708717176 0.4733578258920681
20 0.0657759107919752 -0.05449339666818182 0.05664673882960093
21 -0.1364988625769673 -0.14232071785053857 -0.31377183322995
42 0.09687046657269507 0.36043894779157176 0.4228706645751744
41 0.0028181397810146044 -0.016550106266589627 0.013134029219568329
37 0.5992661041682679 0.4654299218407274 -0.11172694779043606
47 -0.1572558395670508 -0.16771671208794958 -0.07740437219006487
49 0.029675623624557057 0.3756036976726048 0.7933673235947765
64 -0.699363330913419 1.1076469278443724 0.2716234920745236
62 0.2296052380660787 0.20809468482596227 0.13574980642831297
38 0.1631317518986402 0.2319047713453583 -0.22966865610140372
6 0.28905879940580764 -0.2745926162405197 0.13894210052329575
7 -0.17125301838122628 -1.0510431813758443 0.38451949140290526
8 -0.5148371082687617 -0.06446379407653946 0.736666261850626
15 -0.24650561358471662 0.959361843471727 1.4021773024434427
40 -0.016171063954346976 -0.23024138719909332 0.861021874948336
75 0.5877513323088286 -0.7023798881660407 0.07958745655178565
74 -0.26954697233469144 0.08320915936003044 0.04522036149005174
23 0.22735361318271868 -0.049118284046202276 -0.03158428107016181
25 -0.1580755935638151 1.2728671658283055 0.9484400323011646
29 -0.16004598853483212 0.03776282949651412 0.04671522128398799
30 -0.27679996456889816 0.15064920525012315 -0.011827479663845905
31 -0.09408064615328668 -0.5579604687323079 -0.3836316706022869
77 0.33013209261757637 -0.09032433974376768 -0.19902433665525682
79 0.12872030471160326 -0.34655268631182823 -0.13264905761810303
78 0.20940309876963156 0.8610064927196633 0.21656242628270506
67 -0.3307536713323146 0.3391098911173578 -0.35864079182538033
65 -0.12330589044416315 -0.01868982571947463 -0.02551639306236896
66 0.9270133686304529 -0.12503831509028904 0.10793647857065185
34 0.2684963454699661 -0.3558672292075094 -0.8754898741946686
76 0.7053466084672202 0.5083375316953923 -0.8419744629923738
57 -0.5171743556851188 -0.6199193133218962 -0.37540321497005197
59 -0.00982989224788559 0.07550260347154286 0.18363322765465487
61 0.7898741245939849 -0.2879917796753808 0.45872688424918606
68 0.029995138815027113 -0.057326562866264634 -0.10541830921026447
70 0.10555194915967053 -0.05868885075998548 0.6001737335422825
16 0.26110455689473405 0.416189112083931 -1.1843510964136228
24 0.6408922914206111 0.298865042661119 -1.0464701236477203
69 -0.11143119252557246 0.2635836168855543 -0.6392942147443852
72 0.8974893452611978 0.7313980289480617 0.8428714536934745
71 -0.12509090597770492 0.20559428755260062 0.09365137687882487
73 -0.4181365894262269 -0.6866993837809428 -0.02350839261299348
4 -0.8361837995858742 -0.03877711032449399 -0.3916746049680991
60 0.2081708346561374 0.5112676173241624 0.31870815879288883
2 -0.5834073822433057 0.7459434250001453 0.5112470199809808
43 -0.30972475222284357 -0.32816971157849384 0.9168488422394334
18 -0.11796682902697465 0.2965464667049776 0.07975973053652131
17 -0.10863258354847849 -0.06025844729552742 -0.02937444823508218
19 -0.8903395650817911 1.2667706267025207 -0.23135180731997285
3 0.14249848644883806 -0.046412552246185707 0.24130719987034507
13 0.4241693425409664 0.43689382720808484 0.27561023164175447
11 0.10399442463275875 -0.31155686933464843 -0.11084675474461307
12 -0.7623931962976545 0.5080236586950094 0.12585235043716006
5 -0.43128693769606363 -0.22230721730520947 0.276076620928116
1 0.45078426116850745 0.15529444065483755 0.0884066987196921
28 -0.5364666394653678 -0.11207224035190923 0.4935354572096895
26 -0.306896128817442 0.17713543768805903 0.24674910072594392
27 -0.12556788886329887 -0.646271663221785 0.038080182628898604

Bonds

1 1 35 36
2 1 35 37
3 1 50 51
4 1 50 52
5 1 56 57
6 1 56 58
7 1 44 45
8 1 44 46
9 1 53 54
10 1 53 55
11 1 14 15
12 1 14 16
13 1 32 33
14 1 32 34
15 1 20 21
16 1 20 22
17 1 41 42
18 1 41 43
19 1 47 48
20 1 47 49
21 1 62 63
22 1 62 64
23 1 38 39
24 1 38 40
25 1 6 7
26 1 6 8
27 1 6 9
28 1 6 10
29 1 74 75
30 1 74 76
31 1 23 24
32 1 23 25
33 1 29 30
34 1 29 31
35 1 77 78
36 1 77 79
37 1 65 66
38 1 65 67
39 1 59 60
40 1 59 61
41 1 68 69
42 1 68 70
43 1 71 72
44 1 71 73
45 1 17 18
46 1 17 19
47 1 11 12
48 1 11 13
49 1 1 2
50 1 1 3
51 1 1 4
52 1 1 5
53 1 26 27
54 1 26 28

Angles

1 1 36 35 37
2 1 51 50 52
3 1 57 56 58
4 1 45 44 46
5 1 54 53 55
6 1 15 14 16
7 1 33 32 34
8 1 21 20 22
9 1 42 41 43
10 1 48 47 49
11 1 63 62 64
12 1 39 38 40
13 2 7 6 8
14 2 7 6 9
15 2 7 6 10
16 2 8 6 9
17 2 8 6 10
18 2 9 6 10
19 1 75 74 76
20 1 24 23 25
21 1 30 29 31
22 1 78 77 79
23 1 66 65 67
24 1 60 59 61
25 1 69 68 70
26 1 72 71 73
27 1 18 17 19
28 1 12 11 13
29 2 2 1 3
30 2 2 1 4
31 2 2 1 5
32 2 3 1 4
33 2 3 1 5
34 2 4 1 5
35 1 27 26 28
