ITEM: TIMESTEP
240500
ITEM: NUMBER OF ATOMS
4590
ITEM: BOX BOUNDS xy xz yz pp pp pp
-1.3798026600000000e+01 9.9985700000000008e+00 -3.7994565999999992e+00
-9.9985700000000008e+00 9.9985700000000008e+00 0.0000000000000000e+00
-9.9985700000000008e+00 9.9985700000000008e+00 0.0000000000000000e+00
ITEM: ATOMS id type xs ys zs
3556 2 0.162573 0.0777702 0.0279695
3558 4 0.167139 0.0714122 0.00448719
3557 4 0.158008 0.0841281 0.0514518
1147 2 0.420591 0.0616485 0.011933
1148 4 0.425592 0.0807603 0.0279967
2469 4 0.41803 0.00243719 0.0721629
2743 2 0.458874 0.023833 0.0595531
2745 4 0.48216 0.0261977 0.0496491
2744 4 0.435589 0.0214684 0.0694571
1086 4 0.491233 0.0465592 0.0518371
4155 4 0.172849 0.0858331 0.0645859
4153 2 0.195343 0.0986088 0.0722859
4154 4 0.217837 0.111384 0.0799858
2523 4 0.229517 0.102467 0.0686337
1825 2 0.339601 0.160843 0.00214547
1633 2 0.429873 0.0890491 0.0764815
1634 4 0.428657 0.0960482 0.052613
115 3 0.416817 0.128664 0.0277553
114 3 0.434449 0.099584 0.0337308
111 1 0.436866 0.121291 0.0257117
113 3 0.44356 0.122055 0.0034646
112 3 0.453337 0.134881 0.0380228
674 4 0.175239 0.235484 0.0463597
2162 4 0.316877 0.228743 0.0428095
2161 2 0.331751 0.212903 0.0354307
2786 4 0.370193 0.243758 0.0301494
2163 4 0.346625 0.197063 0.0280519
1827 4 0.342867 0.180105 0.0180827
2500 2 0.485737 0.215376 0.0619607
2633 4 0.471267 0.184038 0.0326099
2502 4 0.47357 0.196307 0.0482297
2632 2 0.486872 0.17119 0.0210162
3212 4 0.0405064 0.270161 0.00816699
3006 4 0.061568 0.27843 0.0125274
1047 4 0.07848 0.323085 0.0684403
3004 2 0.0861298 0.280814 0.00634167
3631 2 0.0807597 0.32937 0.0263734
3633 4 0.0783749 0.318298 0.0487902
1045 2 0.0943295 0.31158 0.0813836
905 4 0.129471 0.293508 0.00053865
675 4 0.159203 0.278784 0.0524447
673 2 0.167221 0.257134 0.0494022
2829 4 0.287094 0.26729 0.017449
2827 2 0.310037 0.26132 0.0143148
2828 4 0.33298 0.255351 0.0111806
3283 2 0.405283 0.330271 0.063622
2785 2 0.392633 0.25691 0.0227629
3284 4 0.417491 0.312152 0.0708265
2787 4 0.415074 0.270061 0.0153764
2934 4 0.435485 0.278413 0.0135509
704 4 0.0396676 0.387384 0.0826609
3632 4 0.0831445 0.340442 0.00395647
505 2 0.115191 0.387417 0.0774505
506 4 0.137794 0.399946 0.0697533
3849 4 0.149074 0.401069 0.0527149
3847 2 0.146876 0.415813 0.0331496
3368 4 0.240211 0.340016 0.00223625
323 4 0.224238 0.355646 0.0257128
322 2 0.234125 0.379421 0.0312886
3519 4 0.26031 0.388887 0.078489
3102 4 0.255199 0.3416 0.0150156
324 4 0.244013 0.403196 0.0368644
3517 2 0.283325 0.403407 0.0764796
3100 2 0.279597 0.341591 0.0204817
3101 4 0.303994 0.341583 0.0259478
3921 4 0.321916 0.353953 0.0253174
3518 4 0.306341 0.417926 0.0744701
3919 2 0.346716 0.359437 0.0197791
3920 4 0.371516 0.364921 0.0142407
160 3 0.391445 0.371615 0.020883
3285 4 0.393074 0.348391 0.0564175
156 1 0.412221 0.372971 0.030671
157 3 0.409612 0.362129 0.0509515
158 3 0.42208 0.395202 0.0341998
159 3 0.426193 0.362816 0.0171642
482 4 0.464619 0.413629 0.0704932
560 4 0.461646 0.393323 0.0711878
559 2 0.485313 0.390363 0.0657706
1053 4 0.0353825 0.491446 0.0262806
1655 4 0.0155201 0.485226 0.0316705
1051 2 0.0573902 0.49785 0.0386057
3744 4 0.0791018 0.424713 0.0552687
3742 2 0.100253 0.442254 0.05525
3743 4 0.121405 0.459795 0.0552313
4278 4 0.140761 0.461273 0.0500976
3848 4 0.144678 0.430557 0.0135843
4276 2 0.159861 0.476372 0.0616633
4277 4 0.178961 0.491471 0.0732291
2783 4 0.19833 0.498066 0.0749231
2547 4 0.281603 0.476455 0.0796897
4313 4 0.302566 0.480341 0.0782604
4312 2 0.309474 0.457973 0.0788429
4314 4 0.316382 0.435604 0.0794254
800 4 0.435306 0.436242 0.0168254
281 4 0.448498 0.433079 0.0025121
483 4 0.465477 0.462071 0.061304
481 2 0.465048 0.43785 0.0658986
4026 4 0.0230814 0.0297019 0.146639
3544 2 0.0241496 0.000506463 0.120674
3545 4 0.0331814 0.0200814 0.135295
2481 4 0.125373 0.0553373 0.141202
2479 2 0.148936 0.0606884 0.13181
2480 4 0.172499 0.0660395 0.122417
2331 4 0.279146 0.0285155 0.122141
1233 4 0.292425 0.0764299 0.142414
2330 4 0.320234 0.00831457 0.113526
2757 4 0.321401 0.0596977 0.163723
2329 2 0.29969 0.018415 0.117833
995 4 0.335264 0.0170645 0.101714
994 2 0.360512 0.0244349 0.10318
996 4 0.38576 0.0318054 0.104645
32 3 0.407351 0.0617402 0.143702
2468 4 0.40417 0.031762 0.107704
33 3 0.414969 0.0496976 0.109504
2467 2 0.4111 0.0170996 0.0899335
31 1 0.422808 0.0647759 0.126424
3510 4 0.397846 0.0446373 0.150949
3508 2 0.374071 0.0379757 0.15956
1635 4 0.43109 0.0820499 0.10035
35 3 0.443295 0.0612068 0.134038
359 4 0.462051 0.0668428 0.128577
358 2 0.483942 0.0698317 0.115866
51 1 0.0715544 0.158612 0.158512
530 4 0.0677656 0.0899362 0.159867
3588 4 0.0763448 0.0985973 0.142885
54 3 0.088681 0.158004 0.142997
3586 2 0.100408 0.102103 0.134794
3587 4 0.124471 0.105608 0.126702
2607 4 0.143798 0.114498 0.122537
2605 2 0.169006 0.120217 0.119275
2606 4 0.194214 0.125937 0.116012
2521 2 0.248005 0.0974839 0.0835536
2522 4 0.266494 0.0925008 0.0984735
351 4 0.243362 0.152618 0.165644
1231 2 0.287268 0.0918182 0.12444
1232 4 0.28211 0.107206 0.106466
250 2 0.371839 0.160027 0.121296
252 4 0.357545 0.143275 0.136166
2945 4 0.347318 0.136515 0.153242
34 3 0.424924 0.0864989 0.118521
52 3 0.0559906 0.170109 0.149459
618 4 0.106828 0.16743 0.141809
616 2 0.128862 0.179208 0.151536
617 4 0.150895 0.190986 0.161263
690 4 0.221389 0.2229 0.125058
15 3 0.193195 0.233801 0.15915
4479 4 0.211006 0.241673 0.16685
12 3 0.170304 0.201081 0.165805
688 2 0.245869 0.233389 0.121976
350 4 0.279703 0.184295 0.141605
357 4 0.298734 0.193834 0.143087
349 2 0.261532 0.168456 0.153624
554 4 0.28842 0.24316 0.109771
355 2 0.312386 0.198435 0.16408
689 4 0.270349 0.243878 0.118895
251 4 0.386132 0.176779 0.106426
1008 4 0.397247 0.195586 0.110516
1006 2 0.41296 0.216761 0.116854
1007 4 0.428673 0.237935 0.123191
3194 4 0.133335 0.251421 0.102479
1046 4 0.110179 0.300075 0.0943269
3195 4 0.126484 0.298553 0.107914
3193 2 0.12991 0.274987 0.105196
2780 4 0.232594 0.310557 0.157812
2779 2 0.257799 0.318458 0.156855
4478 4 0.231199 0.290385 0.163982
4477 2 0.221102 0.266029 0.165416
553 2 0.308159 0.249867 0.12524
2781 4 0.283003 0.326358 0.155898
555 4 0.327897 0.256573 0.140709
507 4 0.0925876 0.374887 0.0851477
705 4 0.0838415 0.382155 0.103476
703 2 0.0617546 0.384769 0.0930683
2994 4 0.133354 0.416383 0.123437
648 4 0.233875 0.401806 0.13639
647 4 0.245082 0.392516 0.0889968
646 2 0.239479 0.397161 0.112693
3149 4 0.335974 0.373607 0.13644
3148 2 0.359278 0.370207 0.142766
3150 4 0.382582 0.366806 0.149091
2616 4 0.401759 0.364305 0.151222
2614 2 0.427018 0.366384 0.149595
2615 4 0.452277 0.368463 0.147967
3819 4 0.465984 0.364105 0.135223
3817 2 0.490184 0.376132 0.134679
4256 4 0.0458688 0.449056 0.0853412
4160 4 0.0391435 0.49145 0.115366
4257 4 0.0291305 0.490585 0.0983567
4255 2 0.0374996 0.469821 0.091849
3542 4 0.0582372 0.439388 0.0939843
4159 2 0.0481765 0.498148 0.138171
3541 2 0.0623292 0.432733 0.117483
752 4 0.0674155 0.424702 0.161206
3543 4 0.0664212 0.426079 0.140982
4511 4 0.0948757 0.474709 0.140685
4510 2 0.119395 0.47574 0.146387
3963 4 0.0818892 0.463953 0.152732
4512 4 0.143914 0.476771 0.152088
2993 4 0.183522 0.431129 0.12974
2992 2 0.158438 0.423756 0.126589
263 4 0.187866 0.449343 0.13641
262 2 0.20422 0.464092 0.121443
264 4 0.220573 0.478842 0.106476
2546 4 0.237422 0.486275 0.0965394
2545 2 0.259512 0.481365 0.0881145
1577 4 0.400225 0.498731 0.0820774
529 2 0.0443789 0.0822516 0.169105
531 4 0.0209921 0.074567 0.178344
2487 4 0.000106563 0.0694308 0.179569
2430 4 0.0596147 0.00114298 0.247634
1070 4 0.338922 0.0125088 0.173424
2755 2 0.329589 0.0710607 0.185164
1069 2 0.313534 0.00644774 0.172391
3061 2 0.348234 0.0617682 0.237913
3509 4 0.350297 0.031314 0.168171
3062 4 0.351565 0.0758122 0.217237
2756 4 0.337777 0.0824236 0.206605
1071 4 0.288147 0.000386718 0.171358
372 4 0.000487807 0.167017 0.219032
53 3 0.060605 0.137033 0.163594
248 4 0.09477 0.16228 0.189321
2939 4 0.257482 0.141386 0.172078
2938 2 0.264532 0.126245 0.189323
2940 4 0.271581 0.111103 0.206568
2798 4 0.276604 0.111503 0.225789
2797 2 0.301331 0.119508 0.230541
2799 4 0.326057 0.127513 0.235294
2944 2 0.365017 0.130882 0.168772
2946 4 0.382715 0.125249 0.184302
2453 4 0.399417 0.128273 0.173106
2452 2 0.423453 0.13232 0.18132
2454 4 0.447488 0.136367 0.189534
659 4 0.466702 0.143898 0.188421
658 2 0.484885 0.164107 0.191745
370 2 0.00481202 0.18732 0.204446
371 4 0.00913623 0.207623 0.18986
2511 4 0.0156381 0.220175 0.206382
2509 2 0.026844 0.239902 0.219813
2472 4 0.0857441 0.245052 0.245417
55 3 0.0805122 0.16922 0.177432
1403 4 0.0812816 0.186869 0.248425
2470 2 0.10607 0.234019 0.246252
247 2 0.0944839 0.173623 0.21147
249 4 0.0941978 0.184965 0.233619
666 4 0.141093 0.229203 0.23324
664 2 0.157778 0.233127 0.21438
2471 4 0.126396 0.222987 0.247086
665 4 0.174464 0.237052 0.19552
13 3 0.185142 0.222683 0.194629
11 1 0.18918 0.215822 0.173116
513 4 0.229426 0.208524 0.181078
14 3 0.207718 0.205097 0.173102
511 2 0.254285 0.216954 0.184715
512 4 0.279144 0.225383 0.188352
735 4 0.296603 0.236449 0.195345
2463 4 0.305776 0.196445 0.250075
2461 2 0.317018 0.199858 0.227685
2462 4 0.32826 0.203271 0.205296
473 4 0.358993 0.173394 0.192469
356 4 0.326037 0.203037 0.185074
472 2 0.375114 0.195026 0.196071
474 4 0.391236 0.216658 0.199674
2510 4 0.0380499 0.259629 0.233245
1472 4 0.157325 0.328992 0.241773
733 2 0.320565 0.24903 0.196595
2573 4 0.299098 0.307002 0.226698
2572 2 0.303883 0.32781 0.212859
2840 4 0.288732 0.309056 0.243024
734 4 0.344527 0.261612 0.197844
2459 4 0.363794 0.266708 0.205692
2458 2 0.386736 0.280739 0.20984
2460 4 0.409678 0.294769 0.213987
2717 4 0.422481 0.281827 0.215417
2716 2 0.446424 0.284545 0.223721
2718 4 0.470368 0.287263 0.232024
3107 4 0.487448 0.299189 0.230047
411 4 0.0631224 0.375965 0.203707
753 4 0.0705318 0.381929 0.184546
409 2 0.058141 0.365041 0.22601
751 2 0.0689736 0.403315 0.172876
410 4 0.0531596 0.354118 0.248313
1471 2 0.18015 0.34402 0.24255
1473 4 0.202974 0.359047 0.243327
2909 4 0.211091 0.350831 0.228203
2908 2 0.230252 0.360161 0.212847
302 4 0.264582 0.379181 0.207836
2910 4 0.249412 0.36949 0.197491
2574 4 0.308668 0.348618 0.199019
301 2 0.289451 0.379014 0.205581
303 4 0.31432 0.378846 0.203327
1455 4 0.328208 0.380114 0.217987
1453 2 0.34953 0.388507 0.230855
1454 4 0.370851 0.396901 0.243723
3885 4 0.0103758 0.472808 0.234139
3813 4 0.0205789 0.444953 0.183756
2495 4 0.0723818 0.486205 0.229025
3884 4 0.0594437 0.468754 0.233492
3811 2 0.998848 0.428182 0.183742
3883 2 0.0349098 0.470781 0.233816
3962 4 0.0408956 0.448015 0.18111
3961 2 0.0613924 0.455984 0.166921
2494 2 0.0967537 0.488417 0.222198
2496 4 0.121126 0.490629 0.215371
2742 4 0.349386 0.466206 0.245064
2740 2 0.369652 0.458263 0.235686
2741 4 0.389918 0.450321 0.226309
391 2 0.488641 0.477787 0.245066
2339 4 0.208891 0.0239206 0.315565
725 4 0.225163 0.0263141 0.304085
724 2 0.22077 0.0138579 0.282499
726 4 0.216376 0.00140163 0.260914
3063 4 0.344903 0.0477242 0.25859
3554 4 0.329153 0.0329854 0.266117
3553 2 0.323718 0.0438194 0.287369
3555 4 0.318283 0.0546534 0.308621
898 2 0.0171454 0.144648 0.314528
899 4 0.0401989 0.159266 0.313906
2534 4 0.347027 0.163076 0.283649
2533 2 0.337384 0.143408 0.269384
2535 4 0.327742 0.12374 0.255119
2488 2 0.352139 0.153839 0.327066
2490 4 0.328731 0.140438 0.323841
2708 4 0.451204 0.165139 0.324723
580 2 0.414032 0.162946 0.330292
581 4 0.390587 0.161046 0.320874
683 4 0.0152411 0.174657 0.260151
1404 4 0.0332675 0.189105 0.260647
1402 2 0.0572746 0.187987 0.254536
1865 4 0.286403 0.205896 0.312236
1864 2 0.272262 0.214563 0.32958
527 4 0.287274 0.192864 0.259184
526 2 0.295674 0.203867 0.280732
528 4 0.304074 0.214869 0.30228
2489 4 0.375546 0.167241 0.330291
2838 4 0.363222 0.171467 0.271754
2836 2 0.366581 0.196432 0.271681
2837 4 0.36994 0.221397 0.271607
2707 2 0.476633 0.169223 0.325572
519 4 0.236189 0.255168 0.330042
517 2 0.254207 0.26695 0.314635
2841 4 0.271698 0.296581 0.289177
2839 2 0.280215 0.302819 0.266101
518 4 0.272225 0.278732 0.299228
109 3 0.337647 0.326872 0.324337
3807 4 0.411128 0.293105 0.302803
3805 2 0.425296 0.307549 0.28589
3806 4 0.439464 0.321994 0.268978
597 4 0.382352 0.363724 0.330718
595 2 0.403374 0.378809 0.322472
596 4 0.424396 0.393894 0.314226
110 3 0.362828 0.359242 0.327103
120 3 0.477207 0.403729 0.305605
119 3 0.443077 0.398203 0.322718
116 1 0.466477 0.401819 0.325792
2631 4 0.0029742 0.424273 0.325297
2960 4 0.293589 0.493133 0.270656
694 2 0.385148 0.429866 0.321937
696 4 0.399231 0.43786 0.301852
392 4 0.467801 0.46755 0.257848
1734 4 0.00807894 0.00821217 0.380968
3384 4 0.0263886 0.0131667 0.3758
3382 2 0.0487454 0.0107057 0.365892
3383 4 0.0711022 0.00824473 0.355984
427 2 0.172888 0.0344214 0.396349
428 4 0.185812 0.0369156 0.374809
2340 4 0.194916 0.0438503 0.35785
2338 2 0.201903 0.0338855 0.336708
2644 2 0.230162 0.0767617 0.367676
2929 2 0.269743 0.0542857 0.395027
2931 4 0.263905 0.0600197 0.371697
2645 4 0.244915 0.0611739 0.375946
256 2 0.399391 0.00305893 0.363458
257 4 0.374733 0.00439314 0.36178
3437 4 0.36065 0.00997077 0.349122
258 4 0.424049 0.00172473 0.365135
1217 4 0.494779 0.0187971 0.371347
1216 2 0.46955 0.0109422 0.37111
1218 4 0.444321 0.00308737 0.370874
3547 2 0.0413016 0.153273 0.404323
3548 4 0.016156 0.144892 0.403886
3549 4 0.0664472 0.161654 0.404759
266 4 0.081347 0.154033 0.413841
402 4 0.121997 0.143692 0.361496
400 2 0.142123 0.134077 0.354371
401 4 0.16225 0.124461 0.347245
3307 2 0.16315 0.155759 0.404706
3309 4 0.182713 0.14364 0.404265
2646 4 0.21541 0.0923496 0.359405
1743 4 0.240002 0.14257 0.40867
2642 4 0.243393 0.124476 0.416698
2643 4 0.289409 0.117643 0.402022
2641 2 0.266401 0.12106 0.40936
515 4 0.309392 0.124469 0.40581
514 2 0.333263 0.136759 0.402596
516 4 0.357135 0.149048 0.399381
312 4 0.377656 0.15225 0.394869
582 4 0.437476 0.164846 0.339711
3773 4 0.493344 0.126856 0.399565
3772 2 0.471128 0.127119 0.410937
3308 4 0.143587 0.167878 0.405147
1741 2 0.245065 0.167214 0.412874
1866 4 0.258121 0.22323 0.346924
2 3 0.27794 0.235681 0.402705
5 3 0.266862 0.198613 0.404302
1 1 0.283086 0.216145 0.411013
569 4 0.320556 0.225371 0.393862
3 3 0.304209 0.213655 0.402899
1742 4 0.250129 0.191859 0.417077
568 2 0.342301 0.237073 0.38351
570 4 0.364046 0.248776 0.373158
310 2 0.39889 0.169627 0.393579
311 4 0.420124 0.187003 0.392288
3268 2 0.459399 0.214805 0.3915
3270 4 0.439243 0.196906 0.396411
3269 4 0.479554 0.232703 0.386589
574 2 0.014748 0.302327 0.400103
575 4 0.0391148 0.313732 0.398591
231 4 0.0493148 0.29695 0.402847
229 2 0.0717975 0.29924 0.391278
230 4 0.0942801 0.30153 0.379709
2457 4 0.107481 0.28936 0.381504
2455 2 0.127966 0.30751 0.383855
2456 4 0.148452 0.32566 0.386206
438 4 0.158317 0.328647 0.402976
3376 2 0.29176 0.325539 0.409751
2667 4 0.268533 0.249337 0.410363
1221 4 0.383648 0.251808 0.370143
108 3 0.365408 0.331071 0.35079
1219 2 0.408621 0.259003 0.366119
1220 4 0.433593 0.266198 0.362096
384 4 0.455889 0.26898 0.36008
382 2 0.479508 0.280809 0.354739
1390 2 0.261979 0.397876 0.394719
1391 4 0.276436 0.406042 0.374922
1392 4 0.247521 0.389709 0.414516
3378 4 0.280505 0.338415 0.393269
107 3 0.336507 0.349806 0.353602
106 1 0.350718 0.341821 0.338838
3221 4 0.359447 0.374659 0.390899
3220 2 0.360924 0.39438 0.375697
3166 2 0.408383 0.387866 0.410786
3222 4 0.362401 0.414102 0.360495
3168 4 0.432293 0.396116 0.403173
118 3 0.472401 0.384268 0.337819
377 4 0.443005 0.414025 0.398395
2629 2 0.0221313 0.432548 0.341028
2630 4 0.0412884 0.440824 0.356759
3614 4 0.0527282 0.429006 0.367912
3615 4 0.0981304 0.454626 0.382101
3613 2 0.0754293 0.441816 0.375006
416 4 0.156267 0.459701 0.36237
417 4 0.197393 0.438323 0.361056
415 2 0.17683 0.449012 0.361713
2727 4 0.212762 0.451372 0.369361
464 4 0.271296 0.434735 0.354142
2726 4 0.261859 0.448508 0.364038
2725 2 0.23731 0.44994 0.3667
463 2 0.296551 0.442021 0.355663
3754 2 0.360257 0.496614 0.412187
680 4 0.342107 0.453986 0.356754
465 4 0.321805 0.449307 0.357184
679 2 0.366289 0.464673 0.361256
3755 4 0.336541 0.49979 0.40732
3756 4 0.383972 0.493439 0.417054
695 4 0.371066 0.421872 0.342023
681 4 0.390471 0.475361 0.365757
914 4 0.401203 0.46361 0.374899
913 2 0.425962 0.472983 0.371847
915 4 0.450722 0.482356 0.368794
3958 2 0.494927 0.485832 0.359527
378 4 0.472786 0.423315 0.358028
376 2 0.457895 0.41867 0.378211
3959 4 0.469942 0.485001 0.362368
117 3 0.473066 0.421309 0.337666
1800 4 0.0427445 0.0196239 0.44992
458 4 0.101137 0.999781 0.468644
1799 4 0.0817791 0.00130531 0.46883
1798 2 0.0622618 0.0104646 0.459375
457 2 0.125417 0.000747099 0.46204
429 4 0.159964 0.0319272 0.417888
1376 4 0.162414 0.00639263 0.470152
459 4 0.149697 0.00171346 0.455436
1375 2 0.18697 0.0172286 0.468863
1377 4 0.211526 0.0280646 0.467574
1600 2 0.245089 0.0274566 0.445774
1601 4 0.224317 0.0178346 0.458954
1602 4 0.265862 0.0370786 0.432594
2930 4 0.275581 0.0485517 0.418358
3095 4 0.349322 0.0653005 0.461791
3094 2 0.3715 0.0800233 0.467522
397 2 0.488013 0.075923 0.487835
2815 2 0.00326382 0.09813 0.446472
2817 4 0.0280685 0.102248 0.44089
452 4 0.0372614 0.0927639 0.425521
451 2 0.0620124 0.0917204 0.424248
1818 4 0.0759182 0.135858 0.49213
265 2 0.106383 0.160897 0.417696
1518 4 0.106664 0.0878685 0.425667
1516 2 0.131964 0.0900572 0.424592
453 4 0.0867635 0.0906769 0.422975
1517 4 0.157264 0.0922458 0.423518
2504 4 0.174752 0.095324 0.429479
2503 2 0.198739 0.105503 0.423543
2505 4 0.222726 0.115682 0.417608
3096 4 0.393677 0.094746 0.473252
1033 2 0.427732 0.10102 0.45056
1034 4 0.412272 0.0929239 0.469686
3774 4 0.448911 0.127382 0.422309
2735 4 0.448373 0.118806 0.495151
1035 4 0.443192 0.109117 0.431433
398 4 0.473568 0.0861349 0.471948
267 4 0.131419 0.167761 0.421552
613 2 0.219829 0.198396 0.451265
615 4 0.205245 0.20013 0.471259
614 4 0.234413 0.196662 0.431271
4 3 0.283639 0.217317 0.434184
3064 2 0.0171648 0.269714 0.473876
3066 4 0.0139615 0.269552 0.498677
3065 4 0.020368 0.269876 0.449075
710 4 0.0272203 0.329771 0.428933
431 4 0.0981371 0.320049 0.420677
2802 4 0.172202 0.259566 0.464756
2800 2 0.197135 0.261662 0.460419
2665 2 0.249423 0.252048 0.425618
2666 4 0.230314 0.254759 0.440873
2801 4 0.222069 0.263759 0.456081
3038 4 0.246162 0.299013 0.491053
3037 2 0.26832 0.293353 0.483751
3039 4 0.290479 0.287692 0.476449
3323 4 0.299553 0.307672 0.474393
3377 4 0.303016 0.312664 0.426232
3322 2 0.324401 0.317541 0.47421
3324 4 0.349249 0.32741 0.474027
3499 2 0.451367 0.314338 0.501339
4308 4 0.420626 0.293376 0.482332
1810 2 0.456087 0.279892 0.422211
4306 2 0.417566 0.287602 0.458084
4307 4 0.414507 0.281828 0.433835
1811 4 0.430771 0.275245 0.424784
3500 4 0.432732 0.311387 0.484316
1812 4 0.481403 0.284539 0.419639
2448 4 0.498399 0.284905 0.427255
510 4 0.0458937 0.394109 0.425234
414 4 0.00502413 0.401623 0.46149
2928 4 0.0169489 0.403822 0.478065
711 4 0.0155891 0.347175 0.47337
709 2 0.0214047 0.338473 0.451152
2926 2 0.0420533 0.412008 0.479966
508 2 0.0611828 0.381857 0.438067
432 4 0.0728383 0.354491 0.43801
509 4 0.0764719 0.369605 0.450901
430 2 0.0854877 0.33727 0.429343
436 2 0.170293 0.339053 0.423395
437 4 0.18227 0.349459 0.443813
2298 4 0.196546 0.366447 0.439065
2296 2 0.221229 0.376511 0.436743
2297 4 0.245912 0.386575 0.434422
3167 4 0.384474 0.379615 0.418399
3128 4 0.369597 0.33589 0.473468
3127 2 0.374279 0.350596 0.453335
3129 4 0.378962 0.365302 0.433201
2927 4 0.0671576 0.420195 0.481868
599 4 0.0835662 0.426595 0.471475
598 2 0.108772 0.429849 0.474644
600 4 0.133978 0.433102 0.477814
3538 2 0.176357 0.427996 0.478148
3539 4 0.152382 0.430554 0.482654
3540 4 0.200331 0.425438 0.473642
548 4 0.217628 0.425685 0.459797
549 4 0.264844 0.433668 0.441127
547 2 0.241236 0.429676 0.450462
1332 4 0.283606 0.436725 0.432777
3536 4 0.29986 0.492452 0.480021
2308 2 0.351791 0.426308 0.491969
1330 2 0.308734 0.44174 0.428826
3535 2 0.323336 0.490767 0.472531
240 4 0.352141 0.440551 0.426786
1331 4 0.333861 0.446755 0.424875
3537 4 0.346812 0.489081 0.465041
850 2 0.412975 0.458933 0.468028
2310 4 0.370819 0.433585 0.475817
851 4 0.437412 0.46952 0.464832
852 4 0.388539 0.448347 0.471224
238 2 0.375035 0.434569 0.423338
239 4 0.39793 0.428587 0.419891
1326 4 0.455889 0.469654 0.460169
1324 2 0.476821 0.459874 0.456987
1325 4 0.497753 0.450094 0.453805
2964 4 0.00212892 0.0491997 0.581814
3395 4 0.99889 0.0349724 0.566694
1130 4 0.18417 0.0077746 0.582226
2830 2 0.276315 0.0637648 0.52985
2832 4 0.258344 0.0469868 0.518663
953 4 0.313248 0.0809744 0.54906
2831 4 0.294286 0.0805429 0.541037
96 1 0.00422069 0.159627 0.572648
99 3 0.0033673 0.158705 0.549473
732 4 0.0145443 0.146631 0.541328
730 2 0.0303375 0.143852 0.522591
731 4 0.0461307 0.141073 0.503854
98 3 0.0266085 0.162053 0.579841
1817 4 0.106894 0.121455 0.526141
4580 4 0.103073 0.134034 0.541093
4579 2 0.122442 0.128232 0.554225
4581 4 0.141811 0.122431 0.567357
305 4 0.155959 0.138007 0.568589
1816 2 0.0914059 0.128657 0.509136
304 2 0.172587 0.126023 0.579733
50 3 0.285985 0.11509 0.581358
952 2 0.309039 0.0974508 0.566375
954 4 0.30483 0.113927 0.583691
3454 2 0.469936 0.158197 0.572217
2736 4 0.494955 0.128524 0.515276
2734 2 0.471664 0.123665 0.505213
3249 4 0.478794 0.166205 0.532335
2977 2 0.0103744 0.213244 0.541988
2979 4 0.0306918 0.213895 0.556718
375 4 0.0517541 0.213852 0.549867
373 2 0.0640602 0.222242 0.52889
374 4 0.0763662 0.230633 0.507912
912 4 0.209414 0.20077 0.565366
910 2 0.220609 0.19263 0.545452
911 4 0.231804 0.184489 0.525539
1701 4 0.250787 0.19412 0.521544
1699 2 0.274119 0.198333 0.531533
1700 4 0.29745 0.202546 0.541522
1145 4 0.307704 0.200275 0.557311
1144 2 0.302458 0.183044 0.575322
2132 4 0.348779 0.232429 0.561207
2131 2 0.372449 0.228998 0.556532
2133 4 0.396119 0.225566 0.551858
4434 4 0.415034 0.236636 0.549922
4432 2 0.422606 0.247174 0.527943
3455 4 0.472099 0.169873 0.550107
3247 2 0.499077 0.173531 0.517684
3380 4 0.00197684 0.307089 0.573109
2037 4 0.0303165 0.323399 0.530528
3488 4 0.0121578 0.271352 0.5183
3487 2 0.0298558 0.287845 0.530177
3489 4 0.0475539 0.304337 0.542054
3022 2 0.110663 0.299147 0.567487
3023 4 0.0892898 0.305739 0.575842
3024 4 0.132036 0.292555 0.559133
3263 4 0.18323 0.293649 0.513265
3116 4 0.189763 0.255798 0.543266
3115 2 0.211358 0.261769 0.556338
3262 2 0.207174 0.291549 0.507954
3264 4 0.231117 0.289449 0.502643
3117 4 0.232953 0.26774 0.56941
3354 4 0.251069 0.267052 0.576928
3352 2 0.273036 0.273081 0.564467
3353 4 0.295003 0.27911 0.552005
3501 4 0.470002 0.31729 0.518362
4433 4 0.430177 0.257713 0.505963
3474 4 0.485073 0.323873 0.532213
2035 2 0.0316157 0.347355 0.524149
2036 4 0.0329148 0.371311 0.517769
1191 4 0.219293 0.404389 0.559082
897 4 0.274034 0.410111 0.571593
2549 4 0.313888 0.416907 0.514537
929 4 0.355661 0.392863 0.570016
1017 4 0.371617 0.402511 0.579684
928 2 0.361897 0.401222 0.546914
930 4 0.368132 0.40958 0.523812
3026 4 0.42674 0.336396 0.543511
3027 4 0.45275 0.382482 0.552405
3025 2 0.439745 0.359439 0.547958
3092 4 0.0166146 0.469897 0.577765
2118 4 0.0311382 0.486503 0.571315
2116 2 0.0551247 0.482862 0.569613
2117 4 0.0791113 0.479221 0.567912
1906 2 0.109714 0.477715 0.577397
1908 4 0.0916068 0.491546 0.579373
1907 4 0.127821 0.463883 0.575422
2550 4 0.267551 0.428049 0.509182
1189 2 0.22423 0.422773 0.575967
2548 2 0.290719 0.422478 0.511859
2684 4 0.363031 0.480627 0.563432
767 4 0.353654 0.471107 0.548043
766 2 0.3678 0.476256 0.527421
2309 4 0.332764 0.419032 0.508122
768 4 0.381946 0.481404 0.506799
3572 4 0.401486 0.478592 0.509426
4440 4 0.0567149 0.0290158 0.663148
4438 2 0.0819271 0.0369682 0.663594
1129 2 0.208516 0.00535582 0.584219
1283 4 0.250112 0.00279905 0.600403
1282 2 0.267572 0.00829124 0.618445
1131 4 0.232863 0.00293704 0.586212
318 4 0.289598 0.0335024 0.634198
1284 4 0.285033 0.0137834 0.636486
316 2 0.31092 0.0500609 0.629656
317 4 0.332242 0.0666194 0.625113
2204 4 0.341085 0.0685052 0.605801
2203 2 0.365279 0.0805663 0.605765
797 4 0.485565 0.000295119 0.666189
468 4 0.0382269 0.165908 0.596916
466 2 0.0524435 0.165664 0.617451
467 4 0.0666601 0.165421 0.637986
306 4 0.189214 0.11404 0.590877
3825 4 0.191659 0.103976 0.6077
3823 2 0.216501 0.113027 0.604772
3824 4 0.241344 0.122079 0.601844
49 3 0.260947 0.119594 0.608319
47 3 0.284944 0.149261 0.594339
46 1 0.282675 0.127033 0.599929
48 3 0.298779 0.12478 0.616054
3008 4 0.312914 0.12374 0.601972
3007 2 0.337486 0.132309 0.607006
3009 4 0.362058 0.140879 0.612039
2588 4 0.380455 0.154549 0.610813
2587 2 0.399333 0.162098 0.627057
3014 4 0.449498 0.137114 0.595511
2205 4 0.389473 0.0926274 0.60573
3015 4 0.407745 0.102654 0.604103
3013 2 0.428621 0.119884 0.599807
2851 2 0.446327 0.155297 0.661211
3456 4 0.467774 0.14652 0.594327
3364 2 0.00168467 0.202243 0.617246
3104 4 0.00451232 0.235975 0.642617
3365 4 0.00718484 0.217419 0.636943
780 4 0.0570631 0.166978 0.655371
1194 4 0.221703 0.189743 0.645717
1146 4 0.297211 0.165814 0.593333
1192 2 0.240843 0.18988 0.629598
1193 4 0.259982 0.190017 0.613478
2354 4 0.272649 0.206641 0.618892
2353 2 0.293368 0.224662 0.620047
2355 4 0.314087 0.242682 0.621202
1212 4 0.313532 0.230198 0.664499
1210 2 0.337576 0.237042 0.656687
1211 4 0.361621 0.243887 0.648875
3476 4 0.374818 0.244682 0.665901
2589 4 0.418212 0.169648 0.643302
2852 4 0.438435 0.169199 0.643295
1178 4 0.00829711 0.255265 0.590523
3379 2 0.000928527 0.310192 0.597865
1165 2 0.0435549 0.291582 0.664834
1166 4 0.0531273 0.311971 0.651529
3387 4 0.125511 0.294925 0.610663
3385 2 0.148693 0.289132 0.612048
3386 4 0.171876 0.283338 0.613432
3140 4 0.179306 0.314587 0.63823
3139 2 0.203155 0.310408 0.637573
3141 4 0.227005 0.306229 0.636917
1215 4 0.244951 0.315723 0.630758
1213 2 0.268435 0.311133 0.627455
1214 4 0.291918 0.306544 0.624152
3159 4 0.309878 0.314962 0.615836
3157 2 0.335067 0.317843 0.618943
1227 4 0.330921 0.255238 0.613856
945 4 0.391758 0.284152 0.589856
1226 4 0.377402 0.267173 0.59377
1225 2 0.354161 0.261205 0.603813
3158 4 0.360257 0.320724 0.622049
3475 2 0.397962 0.259052 0.664495
3426 4 0.379514 0.330263 0.623839
943 2 0.416697 0.286218 0.594143
3164 4 0.461288 0.294308 0.592636
944 4 0.441636 0.288284 0.59843
3477 4 0.421106 0.273422 0.663089
3163 2 0.486018 0.293057 0.593075
1208 4 0.0992733 0.351534 0.66583
1207 2 0.11848 0.370403 0.660819
1209 4 0.137687 0.389272 0.655809
663 4 0.171909 0.336889 0.594138
2777 4 0.145831 0.404382 0.643894
2776 2 0.163063 0.400689 0.626867
2778 4 0.180294 0.396996 0.60984
661 2 0.180119 0.361621 0.595222
662 4 0.18833 0.386353 0.596307
1080 4 0.243803 0.412967 0.659256
1015 2 0.374268 0.410333 0.603404
3424 2 0.402614 0.342629 0.630298
3425 4 0.425713 0.354996 0.636756
3122 4 0.438379 0.353438 0.651537
3121 2 0.463559 0.36155 0.650763
3123 4 0.488739 0.369662 0.649989
1190 4 0.229166 0.441157 0.592853
1078 2 0.221597 0.419334 0.665282
895 2 0.294715 0.417935 0.585576
1204 2 0.342725 0.420935 0.654436
896 4 0.315396 0.425759 0.59956
1016 4 0.376919 0.418155 0.627124
2683 2 0.376025 0.484856 0.584849
2499 4 0.406248 0.497287 0.598431
1206 4 0.362 0.418435 0.639308
2685 4 0.389019 0.489085 0.606266
2497 2 0.431155 0.496977 0.599782
2498 4 0.456061 0.496668 0.601134
3292 2 0.0257586 0.00975471 0.678761
3293 4 0.0366891 0.0293937 0.665062
4439 4 0.107139 0.0449206 0.66404
3402 4 0.126013 0.0566312 0.670706
4164 4 0.162527 0.00526825 0.727046
3400 2 0.144592 0.0755621 0.677214
4162 2 0.155209 0.0135297 0.748907
3173 4 0.220273 0.0631225 0.674407
3172 2 0.241036 0.0729167 0.687521
1243 2 0.260676 0.00468533 0.716355
1073 4 0.273217 0.0759542 0.687256
4509 4 0.331885 0.0634562 0.722874
4507 2 0.352103 0.0691781 0.737922
2241 4 0.293557 0.0120791 0.731504
2239 2 0.316471 0.0132302 0.741933
1245 4 0.281175 0.0224185 0.720515
1072 2 0.29844 0.0830818 0.685096
2231 4 0.355705 0.0202061 0.74051
2230 2 0.380876 0.0252078 0.736836
2232 4 0.406048 0.0302095 0.733162
1082 4 0.421215 0.0364777 0.720532
1081 2 0.446515 0.0419243 0.723128
1083 4 0.471815 0.0473708 0.725724
4319 4 0.426453 0.00252332 0.673919
2114 4 0.491355 0.0485718 0.731623
4318 2 0.450789 0.00119921 0.678263
779 4 0.0133748 0.15802 0.681015
778 2 0.0352189 0.162499 0.668193
4238 4 0.101745 0.0934565 0.739429
950 4 0.0885935 0.162896 0.709864
3401 4 0.163171 0.0944929 0.683722
3174 4 0.261799 0.0827109 0.700635
1944 4 0.342113 0.0952708 0.690443
1074 4 0.323663 0.0902093 0.682936
1942 2 0.36732 0.0967132 0.689244
347 4 0.445825 0.122566 0.680227
1943 4 0.392527 0.0981556 0.688045
348 4 0.403173 0.104805 0.705575
346 2 0.424499 0.113685 0.692901
2853 4 0.454219 0.141396 0.679126
1064 4 0.132589 0.175468 0.69485
949 2 0.093953 0.18711 0.716053
951 4 0.0993125 0.211323 0.722242
2049 4 0.119432 0.214362 0.721206
2047 2 0.131919 0.236496 0.713041
1063 2 0.15755 0.183521 0.698213
1065 4 0.182512 0.191574 0.701575
825 4 0.200571 0.204996 0.705982
823 2 0.219831 0.197734 0.69388
824 4 0.23909 0.190472 0.681779
1229 4 0.305571 0.223011 0.682055
1230 4 0.25748 0.198996 0.676643
1228 2 0.281526 0.211004 0.679349
260 4 0.330508 0.23944 0.712768
4521 4 0.342218 0.241461 0.729446
4519 2 0.357712 0.24723 0.749057
3171 4 0.0139897 0.27186 0.681846
1167 4 0.0339824 0.271193 0.678138
1199 4 0.159671 0.27142 0.712969
2048 4 0.144406 0.25863 0.704875
1198 2 0.184575 0.271697 0.715711
1200 4 0.209479 0.271975 0.718452
1087 2 0.252897 0.271636 0.714401
1089 4 0.227856 0.269269 0.710552
1088 4 0.277939 0.274003 0.718249
261 4 0.295429 0.268199 0.718231
259 2 0.312969 0.25382 0.715499
3155 4 0.32218 0.332315 0.739205
3325 2 0.429718 0.311167 0.686768
3327 4 0.428034 0.290176 0.67338
2998 2 0.485328 0.319537 0.728929
3000 4 0.461613 0.322292 0.723447
2981 4 0.444077 0.318988 0.734625
3326 4 0.431401 0.332158 0.700156
1920 4 0.187595 0.417269 0.740607
2154 4 0.258615 0.413641 0.673291
3154 2 0.33449 0.354815 0.746579
1910 4 0.368907 0.392844 0.704499
1909 2 0.389744 0.391685 0.691068
1911 4 0.410582 0.390526 0.677637
3255 4 0.418235 0.392775 0.747619
3253 2 0.392979 0.38857 0.75068
3011 4 0.425826 0.397531 0.691355
3273 4 0.431344 0.381084 0.741572