ITEM: TIMESTEP
2787000
ITEM: NUMBER OF ATOMS
4590
ITEM: BOX BOUNDS xy xz yz pp pp pp
-9.9985700000000008e+00 9.9985700000000008e+00 0.0000000000000000e+00
-9.9985700000000008e+00 9.9985700000000008e+00 0.0000000000000000e+00
-9.9985700000000008e+00 9.9985700000000008e+00 0.0000000000000000e+00
ITEM: ATOMS id type xs ys zs
2786 4 0.380971 0.00124285 0.00789468
789 4 0.11279 0.103633 0.00410282
4355 4 0.117567 0.121435 0.0100579
673 2 0.0689481 0.245984 0.00723094
3908 4 0.988702 0.220837 0.0404751
674 4 0.0705089 0.252045 0.0314394
300 4 0.298952 0.178536 0.080863
298 2 0.322701 0.18635 0.0805532
474 4 0.287204 0.164165 0.0905283
299 4 0.346451 0.194164 0.0802433
3101 4 0.0291372 0.324265 0.0896771
2805 4 0.072684 0.270954 0.0326095
2803 2 0.0839165 0.293149 0.0300781
2804 4 0.0951491 0.315344 0.0275468
3335 4 0.309741 0.277596 0.0258055
2528 4 0.311089 0.273322 0.0450113
2527 2 0.289112 0.279113 0.0554364
2529 4 0.267135 0.284903 0.0658615
3334 2 0.324835 0.272584 0.00651225
1291 2 0.347963 0.333239 0.0212455
1292 4 0.370456 0.322847 0.0245958
974 4 0.388669 0.317282 0.016858
973 2 0.41146 0.316221 0.00662826
553 2 0.434778 0.309989 0.0722516
555 4 0.447454 0.291629 0.0835387
554 4 0.422102 0.32835 0.0609645
3218 4 0.0769421 0.361518 0.0686516
3100 2 0.043215 0.342777 0.0804954
3102 4 0.0572928 0.361289 0.0713138
3041 4 0.0162327 0.398015 0.00381028
3219 4 0.117941 0.349406 0.0945947
4358 4 0.115739 0.373709 0.0128813
3217 2 0.0974417 0.355462 0.0816232
915 4 0.132957 0.429099 0.0441066
387 4 0.312574 0.41396 0.0642096
1266 4 0.310587 0.355392 0.010548
1293 4 0.32547 0.343631 0.0178952
965 4 0.40652 0.340021 0.0656555
964 2 0.3817 0.341512 0.0682865
2511 4 0.347857 0.358217 0.0773138
966 4 0.35688 0.343002 0.0709176
4088 4 0.476169 0.385998 0.0564784
913 2 0.150303 0.44299 0.0555666
957 4 0.156818 0.474349 0.0672977
914 4 0.16765 0.45688 0.0670266
955 2 0.175324 0.491035 0.0693639
385 2 0.324635 0.431865 0.0515954
3663 4 0.361236 0.429486 0.0575444
3661 2 0.377162 0.422422 0.0754792
386 4 0.336696 0.449771 0.0389812
1319 4 0.343913 0.459125 0.0242624
1318 2 0.360939 0.477322 0.0222193
1320 4 0.377964 0.495519 0.0201761
560 4 0.468656 0.514762 0.0678839
559 2 0.486567 0.503273 0.054755
2452 2 0.0129039 0.0808668 0.147105
2454 4 0.033251 0.0697989 0.156522
3622 2 0.00554036 0.0296191 0.110173
3624 4 0.0265408 0.0428924 0.107345
1515 4 0.0454113 0.0456754 0.105088
1513 2 0.0636203 0.0475561 0.122121
3810 4 0.0454972 0.0826753 0.163462
1514 4 0.0818294 0.0494368 0.139154
2757 4 0.0988548 0.0501441 0.128925
2755 2 0.118182 0.0642897 0.121746
2756 4 0.13751 0.0784354 0.114567
3808 2 0.0662321 0.0964669 0.161212
3809 4 0.0869669 0.110259 0.158963
3484 2 0.122563 0.10714 0.154348
3510 4 0.164925 0.108457 0.168434
3485 4 0.100172 0.110865 0.14386
54 3 0.242386 0.151947 0.13821
51 1 0.249446 0.146259 0.159569
473 4 0.246787 0.158639 0.119452
472 2 0.266995 0.161402 0.10499
2512 2 0.310039 0.15468 0.166274
53 3 0.249658 0.12318 0.161958
2514 4 0.333504 0.147597 0.16133
1221 4 0.315063 0.215973 0.161205
294 4 0.355918 0.187144 0.0971132
293 4 0.403667 0.17744 0.108364
292 2 0.379792 0.182292 0.102739
2837 4 0.405775 0.190767 0.123566
2836 2 0.423649 0.200982 0.137757
2708 4 0.459244 0.214922 0.14218
2707 2 0.479785 0.219587 0.155653
2838 4 0.441523 0.211197 0.151947
704 4 0.0191872 0.272986 0.113214
690 4 0.109516 0.338836 0.108115
2969 4 0.199957 0.316561 0.147809
2968 2 0.220175 0.320455 0.133622
2970 4 0.240392 0.324349 0.119434
1029 4 0.257177 0.332256 0.111203
689 4 0.133568 0.341095 0.151901
688 2 0.121542 0.339965 0.130008
1289 4 0.203972 0.394805 0.0958984
1288 2 0.224909 0.387336 0.107346
1046 4 0.185049 0.399481 0.0995698
1290 4 0.245845 0.379867 0.118793
1027 2 0.275591 0.348408 0.116229
1028 4 0.294004 0.36456 0.121255
2510 4 0.306996 0.365836 0.105118
4277 4 0.302375 0.411809 0.14896
2741 4 0.282982 0.413667 0.140022
2509 2 0.327426 0.362026 0.0912161
3662 4 0.393087 0.415358 0.093414
3632 4 0.501113 0.36431 0.129211
322 2 0.107149 0.486133 0.147405
323 4 0.114584 0.46508 0.13615
1047 4 0.171221 0.446368 0.11011
1045 2 0.178135 0.422924 0.10484
854 4 0.252529 0.485998 0.15962
2740 2 0.287741 0.435337 0.128492
2742 4 0.292499 0.457007 0.116962
1803 4 0.288985 0.476813 0.114783
1801 2 0.273773 0.488881 0.130536
2475 4 0.403637 0.431469 0.0994018
2473 2 0.425719 0.434099 0.110833
2474 4 0.447801 0.436729 0.122264
648 4 0.466974 0.435742 0.115502
646 2 0.487376 0.447297 0.106817
4200 4 0.440966 0.464407 0.162326
4198 2 0.461645 0.477597 0.157474
3941 4 0.233991 0.00131929 0.206842
252 4 0.187544 0.0737354 0.259843
2891 4 0.17628 0.0604026 0.250258
758 4 0.296949 0.0150861 0.213246
759 4 0.249705 0.00889247 0.198069
757 2 0.273327 0.0119893 0.205658
1481 4 0.315256 0.019593 0.204763
1864 2 0.0102289 0.130913 0.238092
747 4 0.0267015 0.15329 0.218654
1649 4 0.0754243 0.0854905 0.253415
745 2 0.0367667 0.163745 0.198293
3504 4 0.0837969 0.103074 0.250414
3486 4 0.144953 0.103416 0.164835
250 2 0.210443 0.0821218 0.254324
3508 2 0.184654 0.123759 0.169781
3509 4 0.204383 0.139062 0.171129
1474 2 0.214751 0.157134 0.216087
251 4 0.233342 0.0905081 0.248804
1476 4 0.216096 0.14346 0.236977
52 3 0.234776 0.155186 0.174874
2513 4 0.286574 0.161763 0.171219
2533 2 0.269474 0.0955125 0.234216
2534 4 0.291285 0.0867466 0.225693
713 4 0.300404 0.0732577 0.213643
712 2 0.312612 0.0892737 0.198823
55 3 0.270274 0.154655 0.163361
714 4 0.324821 0.10529 0.184002
746 4 0.0468318 0.1742 0.177932
530 4 0.129318 0.236256 0.225988
1475 4 0.213406 0.170808 0.195196
2960 4 0.193731 0.216161 0.182019
2959 2 0.215212 0.203411 0.180931
3284 4 0.197663 0.234998 0.185931
2961 4 0.236693 0.19066 0.179842
1356 4 0.245983 0.187352 0.197162
1354 2 0.269721 0.180934 0.201692
1355 4 0.293459 0.174516 0.206222
1219 2 0.309802 0.23192 0.17973
2841 4 0.274223 0.219534 0.219008
1220 4 0.30454 0.247868 0.198255
2839 2 0.269453 0.218998 0.243546
3455 4 0.364774 0.220163 0.196317
3454 2 0.389057 0.218819 0.190509
3456 4 0.413339 0.217474 0.184701
2798 4 0.352098 0.228177 0.209799
2797 2 0.343293 0.244439 0.226628
3897 4 0.430504 0.209789 0.193602
3895 2 0.450077 0.222713 0.202268
3896 4 0.469649 0.235636 0.210933
255 4 0.476412 0.251895 0.219993
3270 4 0.506448 0.197902 0.23685
1104 4 0.0239994 0.312267 0.17504
529 2 0.116654 0.250411 0.209727
3015 4 0.0916152 0.276847 0.183956
3014 4 0.108661 0.321559 0.198484
3013 2 0.100138 0.299203 0.19122
531 4 0.10399 0.264566 0.193465
3283 2 0.189899 0.258752 0.18674
3285 4 0.182135 0.282506 0.187549
666 4 0.182388 0.295437 0.202705
664 2 0.190313 0.302443 0.225361
597 4 0.2522 0.263577 0.165084
595 2 0.267544 0.277322 0.179254
596 4 0.282889 0.291068 0.193425
3222 4 0.303265 0.289332 0.18936
3220 2 0.326936 0.287871 0.197281
3221 4 0.350607 0.286409 0.205202
2538 4 0.390867 0.335052 0.219831
2536 2 0.375946 0.318412 0.208622
2537 4 0.361024 0.301772 0.197413
2799 4 0.334487 0.260701 0.243457
736 2 0.492735 0.318027 0.199182
738 4 0.493708 0.299623 0.182284
737 4 0.491762 0.336432 0.21608
1103 4 0.0441005 0.356272 0.162382
1102 2 0.0340499 0.33427 0.168711
4276 2 0.3212 0.398012 0.157929
3059 4 0.262027 0.342802 0.237193
3060 4 0.283843 0.382487 0.258403
3058 2 0.272935 0.362645 0.247798
4278 4 0.340025 0.384215 0.166899
1512 4 0.358889 0.389509 0.159681
1510 2 0.382988 0.392471 0.16565
1511 4 0.407088 0.395433 0.171618
3904 2 0.427866 0.409021 0.20772
3906 4 0.439448 0.421649 0.225929
4511 4 0.473169 0.338274 0.241968
4510 2 0.448871 0.34133 0.247015
1862 4 0.00502912 0.425258 0.240273
1388 4 0.11497 0.484522 0.186184
1387 2 0.13679 0.490686 0.196724
1389 4 0.158609 0.49685 0.207264
2657 4 0.170469 0.496975 0.224104
2656 2 0.188282 0.507124 0.209789
3905 4 0.416285 0.396393 0.18951
1757 4 0.439309 0.430509 0.243568
4199 4 0.482325 0.490787 0.152622
1756 2 0.459363 0.420627 0.254766
733 2 0.0417292 0.00952665 0.299576
735 4 0.053779 0.0158125 0.278589
2552 4 0.073743 0.0138894 0.279139
734 4 0.0296794 0.00324084 0.320563
2551 2 0.0979976 0.0104781 0.284164
2553 4 0.122252 0.00706685 0.28919
2261 4 0.141003 0.0066172 0.29629
2260 2 0.160194 0.0223502 0.293226
2262 4 0.179385 0.0380833 0.290162
2127 4 0.196766 0.027494 0.289225
2125 2 0.21958 0.0377174 0.289677
2126 4 0.242394 0.0479409 0.290129
1676 4 0.259442 0.038208 0.295362
1675 2 0.283924 0.0432472 0.295997
1677 4 0.308406 0.0482863 0.296632
1695 4 0.325306 0.0444238 0.306542
1693 2 0.339047 0.0629075 0.316275
1694 4 0.352789 0.0813913 0.326007
43 3 0.399517 0.0611589 0.28608
44 3 0.436219 0.0710247 0.286215
1518 4 0.49086 0.0488213 0.299623
1516 2 0.470166 0.062835 0.300381
1517 4 0.449473 0.0768487 0.301138
1371 4 0.492031 0.0422207 0.280475
41 1 0.414671 0.0780524 0.281245
1648 2 0.0510617 0.0908884 0.254997
1650 4 0.026699 0.0962862 0.25658
1865 4 0.0134253 0.109847 0.251177
2890 2 0.156207 0.0749578 0.253487
3502 2 0.108161 0.106265 0.255038
3503 4 0.132526 0.109456 0.259661
2892 4 0.136134 0.0895129 0.256716
512 4 0.0982091 0.122824 0.30638
511 2 0.0789399 0.109306 0.314816
517 2 0.14035 0.129702 0.301668
518 4 0.117188 0.128745 0.311039
519 4 0.163512 0.130658 0.292298
3062 4 0.209471 0.154918 0.251968
3063 4 0.181735 0.13916 0.29048
3061 2 0.195603 0.147039 0.271224
2535 4 0.247663 0.104278 0.242739
42 3 0.413437 0.0829516 0.258804
45 3 0.409612 0.0967099 0.293285
2675 4 0.424256 0.101793 0.307054
2674 2 0.438717 0.113034 0.324075
3353 4 0.175547 0.193439 0.308374
3352 2 0.172603 0.194333 0.333187
1800 4 0.245325 0.221199 0.272969
1798 2 0.248308 0.234608 0.293861
1799 4 0.25129 0.248017 0.314754
2840 4 0.264682 0.218461 0.268084
1383 4 0.261576 0.238359 0.328966
452 4 0.437767 0.237908 0.299142
3588 4 0.127187 0.28094 0.268678
3586 2 0.149956 0.287584 0.276593
665 4 0.198238 0.309449 0.248017
1602 4 0.214517 0.254303 0.322324
3587 4 0.172724 0.294228 0.284507
1601 4 0.183473 0.286108 0.299403
1600 2 0.198995 0.270205 0.310864
3543 4 0.364368 0.262029 0.296579
3541 2 0.379657 0.278601 0.285772
3542 4 0.394946 0.295173 0.274965
110 3 0.410078 0.307011 0.283015
106 1 0.405929 0.329173 0.286219
2448 4 0.504785 0.241489 0.299807
451 2 0.448037 0.260662 0.300551
453 4 0.458307 0.283416 0.301959
3627 4 0.473498 0.288415 0.312185
3625 2 0.486653 0.300786 0.294889
3321 4 0.00857547 0.341046 0.287945
2601 4 0.0301364 0.337324 0.288067
2600 4 0.0597281 0.376298 0.29837
2599 2 0.0449322 0.356811 0.293218
2691 4 0.0632839 0.379729 0.279122
2690 4 0.102686 0.410522 0.279219
2689 2 0.0829848 0.395126 0.279171
270 4 0.278206 0.37442 0.310765
268 2 0.297679 0.382869 0.297552
269 4 0.317152 0.391318 0.284339
2579 4 0.333032 0.351747 0.301331
109 3 0.415443 0.341569 0.269065
108 3 0.383042 0.332919 0.286947
107 3 0.415189 0.335804 0.306205
2578 2 0.357923 0.349384 0.301418
2580 4 0.382814 0.34702 0.301506
416 4 0.399572 0.344107 0.313842
415 2 0.40998 0.357541 0.332183
3019 2 0.352072 0.39999 0.332063
4512 4 0.424573 0.344386 0.252062
1758 4 0.479416 0.410745 0.265963
1863 4 0.0204052 0.422927 0.2878
1861 2 0.0127171 0.424092 0.264036
3703 2 0.312332 0.473356 0.290309
3705 4 0.334305 0.479395 0.3006
3704 4 0.290359 0.467317 0.280018
3021 4 0.344313 0.408307 0.309797
1621 2 0.0468543 0.0232538 0.353273
1623 4 0.0515833 0.0325498 0.375998
513 4 0.0596707 0.0957889 0.323252
2237 4 0.0625964 0.0924875 0.341958
2236 2 0.0427027 0.0923136 0.357104
2238 4 0.022809 0.0921397 0.372249
1182 4 0.013861 0.0895291 0.389676
528 4 0.0124066 0.133747 0.426406
526 2 0.0372952 0.134598 0.424165
527 4 0.0621838 0.135449 0.421924
894 4 0.0773999 0.137248 0.409157
892 2 0.0933698 0.146553 0.392317
893 4 0.10934 0.155858 0.375477
722 4 0.12333 0.145002 0.382597
721 2 0.148034 0.148746 0.383536
723 4 0.172737 0.152491 0.384475
3327 4 0.17853 0.159805 0.400872
247 2 0.275739 0.118703 0.405007
249 4 0.292813 0.134646 0.396092
695 4 0.311113 0.140443 0.399131
694 2 0.316087 0.163504 0.390849
579 4 0.366701 0.0907312 0.337785
578 4 0.384594 0.0917992 0.384469
577 2 0.375647 0.0912652 0.361127
2676 4 0.453179 0.124275 0.341095
2814 4 0.460743 0.142638 0.346318
2812 2 0.452999 0.166408 0.346762
1782 4 0.00574598 0.178467 0.384715
306 4 0.0203092 0.192362 0.386411
304 2 0.0374563 0.20911 0.379294
305 4 0.0546034 0.225858 0.372177
2132 4 0.0744893 0.228357 0.375746
2131 2 0.092623 0.218504 0.389863
2133 4 0.110757 0.20865 0.403979
1697 4 0.205382 0.250887 0.339344
3354 4 0.169659 0.195228 0.358
1698 4 0.200748 0.236373 0.386974
1696 2 0.203065 0.24363 0.363159
4467 4 0.257577 0.170812 0.402354
1381 2 0.279119 0.248947 0.343296
936 4 0.336084 0.199009 0.377691
696 4 0.321062 0.186566 0.382566
428 4 0.388384 0.216903 0.350192
934 2 0.358021 0.209881 0.372613
935 4 0.379957 0.220753 0.367536
427 2 0.410784 0.208207 0.343276
429 4 0.433183 0.199512 0.33636
3065 4 0.426091 0.232697 0.397304
2813 4 0.445255 0.190178 0.347205
3064 2 0.450105 0.239149 0.39468
3066 4 0.474119 0.245601 0.392057
3473 4 0.492073 0.251487 0.398634
3708 4 0.0230325 0.272737 0.37873
3706 2 0.00237812 0.284972 0.371737
1143 4 0.147418 0.331996 0.412411
3323 4 0.310259 0.272747 0.347787
1382 4 0.296662 0.259534 0.357627
3322 2 0.332508 0.275618 0.35883
3324 4 0.354757 0.278488 0.369873
1446 4 0.393105 0.278758 0.362138
1444 2 0.414991 0.277853 0.35008
1445 4 0.436877 0.276948 0.338022
3020 4 0.35983 0.391672 0.35433
4268 4 0.395036 0.327144 0.360983
4267 2 0.378746 0.335008 0.378245
4269 4 0.362456 0.342871 0.395508
2457 4 0.365276 0.35347 0.412744
417 4 0.420387 0.370975 0.350525
948 4 0.406884 0.405847 0.398482
1632 4 0.0182678 0.482142 0.374857
1630 2 0.0281062 0.486755 0.397376
431 4 0.30711 0.413661 0.393648
430 2 0.318961 0.421483 0.414229
3755 4 0.48826 0.484551 0.388639
2765 4 0.129805 0.0566627 0.502124
1817 4 0.141059 0.0497394 0.486899
1816 2 0.157588 0.0452568 0.468681
1818 4 0.174117 0.0407742 0.450464
1998 4 0.178577 0.0238408 0.443177
1996 2 0.203194 0.0221327 0.44721
1997 4 0.227811 0.0204246 0.451243
3774 4 0.238214 0.0360415 0.458703
516 4 0.216828 0.0856526 0.481454
3772 2 0.255946 0.039302 0.476027
3773 4 0.273678 0.0425624 0.493352
3488 4 0.480281 0.101335 0.477581
3525 4 0.0611577 0.110807 0.44814
3523 2 0.0742129 0.122785 0.465783
575 4 0.10403 0.143838 0.485148
574 2 0.128799 0.141476 0.487614
3524 4 0.087268 0.134763 0.483427
576 4 0.153568 0.139114 0.49008
651 4 0.171844 0.139304 0.498007
3325 2 0.184668 0.155435 0.424714
828 4 0.251443 0.112209 0.429099
649 2 0.188778 0.142042 0.479814
650 4 0.205711 0.144779 0.461622
827 4 0.219736 0.095372 0.463912
3326 4 0.190805 0.151066 0.448555
826 2 0.235589 0.10379 0.446506
248 4 0.258664 0.10276 0.413921
1850 4 0.315847 0.0987501 0.489373
1849 2 0.32938 0.110335 0.471826
1851 4 0.342912 0.121921 0.45428
3236 4 0.355604 0.133417 0.444451
2982 4 0.379657 0.0922604 0.511281
2980 2 0.402241 0.0977332 0.50205
3235 2 0.366143 0.15356 0.45486
3489 4 0.430406 0.0995939 0.474375
2981 4 0.424824 0.103206 0.49282
3487 2 0.455343 0.100464 0.475978
2519 4 0.490036 0.103623 0.494237
504 4 0.138145 0.178522 0.487093
4465 2 0.259429 0.177413 0.426398
4466 4 0.261281 0.184015 0.450443
2810 4 0.274322 0.196764 0.458542
2809 2 0.283197 0.19475 0.481831
365 4 0.392398 0.174381 0.452848
3237 4 0.376682 0.173704 0.465268
364 2 0.410271 0.191276 0.448342
366 4 0.428145 0.208171 0.443837
383 4 0.446315 0.21311 0.435895
382 2 0.460794 0.228698 0.449031
384 4 0.475273 0.244287 0.462167
1141 2 0.161356 0.320175 0.429476
1142 4 0.175293 0.308354 0.44654
1821 4 0.184502 0.290449 0.449948
1819 2 0.195322 0.29775 0.471274
1820 4 0.206142 0.305052 0.4926
2355 4 0.373397 0.342694 0.474311
2375 4 0.471639 0.314258 0.509895
980 4 0.478151 0.314268 0.490583
2346 4 0.322437 0.419248 0.449828
2345 4 0.322635 0.387692 0.488622
2344 2 0.322536 0.40347 0.469225
2353 2 0.38118 0.330707 0.494827
2455 2 0.370638 0.34324 0.43492
2456 4 0.375999 0.33301 0.457096
1906 2 0.488168 0.408148 0.439598
946 2 0.425879 0.408114 0.414583
947 4 0.444874 0.41038 0.430684
1908 4 0.465236 0.40859 0.429643
1631 4 0.0379446 0.491368 0.419894
4428 4 0.00982855 0.493312 0.497986
4426 2 0.00169848 0.481106 0.477735
432 4 0.330812 0.429304 0.43481
3360 4 0.0447951 0.0145732 0.561933
3358 2 0.0325166 0.03335 0.550894
3359 4 0.0202382 0.0521268 0.539856
2764 2 0.144643 0.0514804 0.52157
2766 4 0.159482 0.0462982 0.541015
4370 4 0.164008 0.0402792 0.558898
2277 4 0.139159 0.0215453 0.585544
4369 2 0.188698 0.0435149 0.561173
4371 4 0.213387 0.0467506 0.563448
2604 4 0.228258 0.0538012 0.57459
2602 2 0.241554 0.0737073 0.581813
2178 4 0.279946 0.0541378 0.507902
2176 2 0.291397 0.0762804 0.505964
605 4 0.0233068 0.0901455 0.569959
1151 4 0.00841808 0.0935399 0.558665
1150 2 0.0147896 0.104489 0.537109
1152 4 0.0211611 0.115439 0.515552
4002 4 0.00624465 0.171524 0.504793
515 4 0.220106 0.10381 0.527933
2589 4 0.235925 0.115907 0.532421
514 2 0.218467 0.0947311 0.504694
2587 2 0.258459 0.125447 0.527286
3084 4 0.311322 0.0922466 0.551844
3082 2 0.290893 0.0976076 0.565227
374 4 0.287693 0.152714 0.529821
3083 4 0.270465 0.102969 0.57861
373 2 0.307911 0.166296 0.524167
2588 4 0.280994 0.134988 0.522152
2603 4 0.254849 0.0936135 0.589036
2177 4 0.302848 0.0984229 0.504026
1269 4 0.395404 0.153063 0.558524
1267 2 0.386284 0.130454 0.564078
1268 4 0.377164 0.107845 0.569632
467 4 0.379853 0.160899 0.547917
4182 4 0.376788 0.0885033 0.565498
1146 4 0.0229646 0.165048 0.514456
1144 2 0.0287714 0.184797 0.52865
1145 4 0.0345782 0.204546 0.542844
4581 4 0.0526658 0.206677 0.548432
4579 2 0.076905 0.207095 0.554554
4580 4 0.101144 0.207514 0.560677
502 2 0.156967 0.189099 0.499704
503 4 0.175789 0.199676 0.512315
3464 4 0.195324 0.202661 0.506929
3463 2 0.20556 0.191933 0.527062
3465 4 0.215795 0.181205 0.547195
732 4 0.234589 0.176626 0.54832
375 4 0.328128 0.179878 0.518512
730 2 0.25458 0.190746 0.553433
3131 4 0.300976 0.210805 0.507902
3130 2 0.299166 0.221292 0.530527
2811 4 0.292072 0.192736 0.50512
3132 4 0.297357 0.23178 0.553153
2231 4 0.296855 0.173116 0.595849
466 2 0.360618 0.174076 0.538887
468 4 0.341382 0.187253 0.529857
613 2 0.00144983 0.342147 0.525586
614 4 0.0252123 0.337814 0.519124
2104 2 0.191067 0.295347 0.532136
2106 4 0.177762 0.289817 0.552572
2105 4 0.204371 0.300878 0.511701
3141 4 0.263061 0.296591 0.567312
3139 2 0.284109 0.307112 0.55886
3140 4 0.305158 0.317633 0.550407
1249 2 0.343601 0.325223 0.560047
3027 4 0.361182 0.264912 0.589908
3426 4 0.381348 0.322828 0.54337
1250 4 0.367634 0.330467 0.555562
3424 2 0.401701 0.327482 0.557129
3425 4 0.422053 0.332135 0.570888
2376 4 0.422125 0.309662 0.504604
2374 2 0.446882 0.31196 0.50725
569 4 0.0451428 0.343007 0.519584
568 2 0.0665294 0.353406 0.527309
570 4 0.0879159 0.363805 0.535033
4432 2 0.124176 0.370974 0.541417
4434 4 0.148519 0.366713 0.537616
4433 4 0.0998336 0.375235 0.545219
1251 4 0.319568 0.319979 0.564532
1362 4 0.311724 0.39419 0.505741
1360 2 0.307593 0.390483 0.53012
1361 4 0.303462 0.386775 0.5545
3120 4 0.315849 0.376607 0.56487
3118 2 0.335659 0.376058 0.580117
2354 4 0.388962 0.31872 0.515344
930 4 0.431536 0.371147 0.527182
928 2 0.450395 0.367933 0.543281
929 4 0.469255 0.364719 0.55938
2926 2 0.0135263 0.474196 0.544827
2927 4 0.034018 0.487931 0.548905
1947 4 0.472209 0.509824 0.52506
604 2 0.00691915 0.0750148 0.581259
1991 4 0.0388119 0.067514 0.607863
1990 2 0.0540977 0.0807545 0.622567
4239 4 0.142343 0.0734291 0.622531
2276 4 0.148128 0.0665421 0.605434
2275 2 0.143644 0.0440437 0.595489
4237 2 0.126929 0.0837368 0.639304
4238 4 0.111514 0.0940444 0.656077
4181 4 0.359001 0.0588465 0.601621
3868 2 0.386961 0.0206897 0.637383
3869 4 0.390775 0.0403944 0.652296
4163 4 0.387799 0.0600462 0.656695
4180 2 0.367895 0.0736749 0.58356
1992 4 0.0693836 0.0939949 0.637272
2698 2 0.0209701 0.126122 0.62682
3115 2 0.0816466 0.159919 0.642054
3117 4 0.0807258 0.152578 0.61817
2193 4 0.0624725 0.108781 0.650799
2700 4 0.024308 0.108848 0.609054
2699 4 0.0176323 0.143396 0.644587
939 4 0.431778 0.139533 0.615347
937 2 0.44748 0.145548 0.633853
938 4 0.463182 0.151564 0.652358
3198 4 0.477619 0.146946 0.665293
3116 4 0.0825673 0.167259 0.665939
4346 4 0.108414 0.218544 0.574078
4345 2 0.120401 0.227595 0.594068
4347 4 0.132388 0.236647 0.614058
4420 2 0.245959 0.216828 0.614484
4421 4 0.229441 0.232007 0.625527
4422 4 0.262478 0.201649 0.603441
3262 2 0.266447 0.21016 0.668435
731 4 0.274572 0.204867 0.558545
2154 4 0.279383 0.242987 0.658905
3263 4 0.284031 0.224199 0.657531
2230 2 0.300951 0.180182 0.619481
2232 4 0.305047 0.187249 0.643113
458 4 0.325191 0.167496 0.64912
3096 4 0.356139 0.163568 0.650553
3094 2 0.37577 0.178789 0.647699
3095 4 0.395402 0.194009 0.644844
1194 4 0.389458 0.20945 0.657908
1192 2 0.399301 0.231545 0.664244
2265 4 0.478716 0.244925 0.638463
2263 2 0.500714 0.233126 0.639896
3157 2 0.247486 0.323308 0.59638
2152 2 0.302128 0.253302 0.657707
3159 4 0.255817 0.302323 0.585638
1079 4 0.334852 0.315228 0.621792
3025 2 0.355395 0.28734 0.599324
3026 4 0.349607 0.309768 0.60874
3365 4 0.428914 0.254407 0.672791
3366 4 0.469103 0.262167 0.644063
3364 2 0.449009 0.258287 0.658427
1324 2 0.0445232 0.409109 0.630493
1325 4 0.0213198 0.405487 0.62191
902 4 0.0200022 0.39427 0.605755
1326 4 0.0677265 0.412731 0.639076
2310 4 0.0860388 0.41633 0.646527
2308 2 0.106944 0.423202 0.658399
3158 4 0.239155 0.344294 0.607122
1078 2 0.322473 0.33693 0.62276
1080 4 0.310094 0.358633 0.623728
2413 2 0.325104 0.392491 0.633706
2414 4 0.305988 0.376826 0.629918
2415 4 0.344221 0.408156 0.637493
3119 4 0.355469 0.37551 0.595364
2015 4 0.367747 0.371696 0.610916
2014 2 0.389595 0.383506 0.608019
2016 4 0.411443 0.395315 0.605122
1178 4 0.422941 0.380804 0.601094
1177 2 0.447196 0.386721 0.602462
1179 4 0.471452 0.392637 0.60383
888 4 0.0185789 0.446535 0.660594
1166 4 0.00158308 0.435717 0.657568
2217 4 0.250746 0.507238 0.609881
4536 4 0.252128 0.490937 0.599338
4534 2 0.273782 0.492078 0.586888
1136 4 0.335955 0.423982 0.645697
1135 2 0.35107 0.442974 0.639692
1137 4 0.366185 0.461965 0.633687
3056 4 0.382897 0.449647 0.636138
3055 2 0.405873 0.459502 0.636534
4250 4 0.449182 0.479884 0.68384
3057 4 0.428849 0.469358 0.63693
444 4 0.135156 0.0806243 0.722305
4162 2 0.403798 0.060349 0.675907
4164 4 0.419797 0.0606517 0.69512
636 4 0.416913 0.0544372 0.714544
634 2 0.409432 0.0506162 0.738095
2191 2 0.0792532 0.102081 0.668082
442 2 0.121358 0.0950119 0.707213
2192 4 0.0960339 0.0953808 0.685364
443 4 0.107559 0.1094 0.69212
1256 4 0.158022 0.111137 0.740899
3281 4 0.167022 0.0976636 0.730497
3280 2 0.191825 0.100631 0.72938
3282 4 0.216627 0.103598 0.728262
99 3 0.23078 0.099067 0.715201
96 1 0.250457 0.106534 0.70543
97 3 0.259773 0.0893044 0.693367
98 3 0.245962 0.124184 0.691053
100 3 0.265104 0.113181 0.721552
1185 4 0.272014 0.13112 0.725957
1183 2 0.291738 0.145412 0.72031
1184 4 0.311463 0.159705 0.714664
3196 2 0.49163 0.164289 0.67661
2907 4 0.0190695 0.183592 0.692602
3143 4 0.0363071 0.195092 0.69437
3142 2 0.0568927 0.197049 0.708427
3144 4 0.0774784 0.199006 0.722484
3264 4 0.248863 0.196121 0.679338
2047 2 0.23454 0.203617 0.741455
2048 4 0.210037 0.208137 0.739364
459 4 0.321906 0.168525 0.699009
3103 2 0.30015 0.216032 0.745767
457 2 0.323549 0.168011 0.674065
3104 4 0.276595 0.20813 0.748584
2049 4 0.259042 0.199098 0.743545
1193 4 0.409144 0.25364 0.67058
1208 4 0.0744114 0.338848 0.730942
897 4 0.0920046 0.333677 0.739159
895 2 0.115519 0.330425 0.747015
896 4 0.139033 0.327173 0.75487
290 4 0.225503 0.280947 0.706331
289 2 0.244283 0.297401 0.704982
1904 4 0.204562 0.339109 0.753763
1903 2 0.181122 0.330784 0.751231
291 4 0.263062 0.313854 0.703633
2153 4 0.324874 0.263616 0.656509
2037 4 0.328401 0.321599 0.687158
2035 2 0.332727 0.299136 0.677063
4306 2 0.295199 0.335733 0.692799
4308 4 0.270693 0.332638 0.69668
4307 4 0.319705 0.338827 0.688917
2036 4 0.337053 0.276674 0.666968
1207 2 0.0498949 0.336233 0.735099
1209 4 0.0253784 0.333618 0.739256
951 4 0.00766572 0.325457 0.740541
3338 4 0.222611 0.348988 0.755588
3337 2 0.239364 0.362123 0.742472
3339 4 0.256116 0.375259 0.729357
3206 4 0.274823 0.376847 0.736958
3205 2 0.299708 0.378257 0.738944
3207 4 0.324593 0.379667 0.740931
3152 4 0.298486 0.4059 0.693969
2858 4 0.312581 0.39281 0.694076
2857 2 0.332919 0.406806 0.698034
2984 4 0.342408 0.386919 0.738419
2983 2 0.3658 0.386999 0.747251
2985 4 0.389192 0.387079 0.756083
886 2 0.0278022 0.457275 0.681205
887 4 0.0370256 0.468014 0.701815
3449 4 0.0561242 0.462527 0.698705
3448 2 0.0789003 0.46077 0.70887
3642 4 0.142577 0.44023 0.680705
2309 4 0.127849 0.430075 0.670271
3640 2 0.131227 0.445955 0.702236
3450 4 0.101676 0.459014 0.719035
3641 4 0.119878 0.45168 0.723768
1213 2 0.159717 0.46301 0.748749
1215 4 0.175559 0.444004 0.745139
3086 4 0.279763 0.470904 0.665804
3153 4 0.260825 0.426768 0.668533
3151 2 0.279655 0.416334 0.681251
3085 2 0.298937 0.482831 0.676541
2859 4 0.353258 0.420801 0.701992
1920 4 0.35914 0.437813 0.693818
1918 2 0.362044 0.458436 0.707654
1919 4 0.364949 0.479059 0.72149
4249 2 0.444825 0.47339 0.707589
4251 4 0.440467 0.466897 0.731339
846 4 0.205181 0.0186617 0.820831
844 2 0.222497 0.0366186 0.819136
2979 4 0.241415 0.0737634 0.810788
845 4 0.239813 0.0545755 0.81744
450 4 0.411783 0.994348 0.820545
635 4 0.401951 0.0467952 0.761646
2090 4 0.420178 0.012753 0.820349
2089 2 0.437315 0.0308985 0.818852
2091 4 0.454451 0.0490441 0.817356
1944 4 0.0182295 0.112422 0.776679
2987 4 0.0296789 0.112666 0.793303
2986 2 0.0478886 0.119162 0.777447
2988 4 0.0660984 0.125658 0.761591
1255 2 0.145481 0.126784 0.755834
1257 4 0.13294 0.142431 0.77077
3355 2 0.123446 0.120844 0.810497
3356 4 0.099524 0.116046 0.805027
2977 2 0.256897 0.0868983 0.825382
2978 4 0.272378 0.100033 0.839976
821 4 0.500462 0.111109 0.759969
1229 4 0.0118225 0.197696 0.781515
1228 2 0.0305427 0.209314 0.793337
1230 4 0.0492628 0.220931 0.80516
3387 4 0.0643665 0.21319 0.815997
3385 2 0.0826519 0.230235 0.816547
3386 4 0.100937 0.247281 0.817097
2198 4 0.167018 0.173477 0.776714
2199 4 0.193264 0.207202 0.750743
2197 2 0.180141 0.19034 0.763729
2760 4 0.168708 0.236539 0.830256
2758 2 0.193162 0.239849 0.826226
3105 4 0.323705 0.223933 0.74295
3380 4 0.333247 0.234507 0.758614
3381 4 0.38021 0.218586 0.752153
3379 2 0.356729 0.226547 0.755384
1905 4 0.157681 0.322459 0.748699
2796 4 0.119612 0.240612 0.820423
2794 2 0.126815 0.261605 0.808907
2795 4 0.134018 0.282599 0.797391
275 4 0.147325 0.317388 0.807403
274 2 0.125653 0.328793 0.80236
1010 4 0.218937 0.288357 0.781829
1009 2 0.235487 0.299012 0.797247
2759 4 0.217616 0.243158 0.822196
1011 4 0.252038 0.309667 0.812665
1281 4 0.26405 0.320099 0.800867
1279 2 0.289044 0.319415 0.800985
1280 4 0.314038 0.318731 0.801104
4091 4 0.314852 0.306283 0.783519
4090 2 0.337793 0.311356 0.774966
4092 4 0.360734 0.316429 0.766413
1613 4 0.377042 0.326608 0.762855
276 4 0.103981 0.340197 0.797317
2066 4 0.0958283 0.391966 0.832166
2065 2 0.0948696 0.374944 0.813876
2067 4 0.093911 0.357922 0.795586
1064 4 0.242307 0.392715 0.830089
884 4 0.324821 0.396208 0.784662
2999 4 0.314987 0.395907 0.863212
1063 2 0.260204 0.406194 0.818991
1065 4 0.278102 0.419673 0.807893
4521 4 0.407882 0.385144 0.749354
1612 2 0.38754 0.340071 0.781123
1614 4 0.398038 0.353535 0.799391
3170 4 0.347545 0.394268 0.818918
3169 2 0.368188 0.38238 0.811322
3171 4 0.388832 0.370492 0.803727
4519 2 0.42966 0.386362 0.761579
4520 4 0.451438 0.38758 0.773804
1191 4 0.464697 0.376619 0.761409
1189 2 0.488993 0.382181 0.759424
1214 4 0.143876 0.482015 0.752359
3296 4 0.194572 0.446317 0.750893
3295 2 0.219294 0.449373 0.753063
3297 4 0.244015 0.452429 0.755233
1121 4 0.255484 0.467731 0.763541
1120 2 0.280163 0.464095 0.765255
883 2 0.319813 0.419165 0.776113
885 4 0.314805 0.442122 0.767564
1122 4 0.304841 0.46046 0.76697
1896 4 0.153395 0.982571 0.854427
2564 4 0.240242 0.0185053 0.87619
88 3 0.22621 0.00863009 0.885943
2423 4 0.220531 0.0661666 0.88789
2565 4 0.27297 0.00128091 0.842532
2563 2 0.256606 0.0098931 0.859361
1841 4 0.485933 0.0686022 0.877691
1840 2 0.469028 0.0526383 0.886887
1842 4 0.452123 0.0366744 0.896083
2523 4 0.445066 0.018214 0.900466
2521 2 0.422087 0.00866292 0.902895
2687 4 0.502013 0.0804989 0.875473
657 4 0.15596 0.12607 0.834981
3357 4 0.147368 0.125642 0.815966
655 2 0.175342 0.118725 0.848964
656 4 0.194725 0.11138 0.862948
2424 4 0.207413 0.113431 0.87816
2422 2 0.213972 0.0897989 0.883025
780 4 0.221025 0.15108 0.884898
2596 2 0.309936 0.114933 0.844726
2598 4 0.286482 0.108701 0.850746
2597 4 0.333391 0.121165 0.838707
3138 4 0.33715 0.115132 0.901739
3136 2 0.353707 0.113577 0.883067
3137 4 0.370264 0.112023 0.864395
3362 4 0.390067 0.116389 0.864214
3361 2 0.411479 0.120722 0.876376
3134 4 0.491307 0.143444 0.908436
3363 4 0.432891 0.125055 0.888539
2996 4 0.443587 0.115326 0.902188
2995 2 0.46003 0.13415 0.90153
2997 4 0.476474 0.152975 0.900871
3479 4 0.028304 0.224427 0.877141
3478 2 0.0505058 0.215139 0.883924
3480 4 0.0727077 0.205851 0.890707
208 3 0.0157256 0.212502 0.869276
1422 4 0.151709 0.229217 0.838222
1421 4 0.141037 0.208868 0.882638
1420 2 0.146373 0.219042 0.86043
778 2 0.217012 0.16043 0.862058
779 4 0.213 0.169781 0.839218
2063 4 0.468054 0.197096 0.867967
2062 2 0.49282 0.200465 0.86866
3405 4 0.425199 0.243342 0.905006
3245 4 0.429509 0.224589 0.90285
1306 2 0.0495767 0.292291 0.901806
1308 4 0.0266302 0.299685 0.895174
210 3 0.0119504 0.249804 0.872743
750 4 0.088957 0.291641 0.91573
748 2 0.112271 0.300591 0.914487
749 4 0.135585 0.309541 0.913243
816 4 0.150538 0.321818 0.915393
3825 4 0.230384 0.253281 0.833272
814 2 0.164659 0.319291 0.894913
815 4 0.17878 0.316763 0.874434
3823 2 0.24144 0.257009 0.855387
2571 4 0.271919 0.261823 0.878577
2569 2 0.284796 0.274097 0.896147
3824 4 0.252497 0.260736 0.877502
3404 4 0.408497 0.282342 0.878534
2010 4 0.393192 0.295257 0.883138
2008 2 0.405859 0.316723 0.885124
3403 2 0.416848 0.262842 0.89177
1299 4 0.49557 0.312378 0.888536
1274 4 0.479329 0.303361 0.885183
1273 2 0.471026 0.288502 0.903498
3799 2 0.0743125 0.408999 0.855968
1153 2 0.0128283 0.416077 0.872248
1154 4 0.0369147 0.409411 0.873026