ITEM: TIMESTEP
2299500
ITEM: NUMBER OF ATOMS
4590
ITEM: BOX BOUNDS xy xz yz pp pp pp
-1.0198541399999996e+01 9.9985700000000008e+00 -1.9997139999999547e-01
-9.9985700000000008e+00 9.9985700000000008e+00 0.0000000000000000e+00
-9.9985700000000008e+00 9.9985700000000008e+00 0.0000000000000000e+00
ITEM: ATOMS id type xs ys zs
486 4 0.206009 0.052651 0.0314202
484 2 0.223851 0.0484878 0.0483904
485 4 0.241694 0.0443246 0.0653605
1926 4 0.255352 0.0299803 0.0700777
1924 2 0.279179 0.0357727 0.0649105
1925 4 0.303006 0.0415651 0.0597433
1437 4 0.31386 0.0562651 0.0680379
1435 2 0.334128 0.0560767 0.0826771
2786 4 0.493752 0.0635085 0.0804053
1899 4 0.111718 0.0915469 0.0440119
1897 2 0.133825 0.101337 0.0373084
4184 4 0.176473 0.112567 0.0321774
1898 4 0.155932 0.111127 0.030605
4183 2 0.198851 0.120129 0.0237735
3486 4 0.222308 0.0952861 0.0612939
4185 4 0.221229 0.127691 0.0153696
1109 4 0.223919 0.10959 0.0070779
1108 2 0.24702 0.100587 0.00456581
2883 4 0.237736 0.138904 0.0175883
2881 2 0.258677 0.151453 0.0234539
3484 2 0.246048 0.0961886 0.069119
1110 4 0.270121 0.0915846 0.00205371
67 3 0.287022 0.102336 0.00682809
4505 4 0.334193 0.127995 0.00887028
4504 2 0.357112 0.137441 0.0127424
960 4 0.398874 0.150261 0.0245056
958 2 0.422927 0.156119 0.0283944
4506 4 0.380031 0.146887 0.0166145
959 4 0.44698 0.161977 0.0322832
1567 2 0.492011 0.502474 0.433401
572 4 0.102594 0.182457 0.0112813
2882 4 0.279619 0.164003 0.0293196
3215 4 0.466284 0.170359 0.0321437
3214 2 0.486448 0.181818 0.0417317
117 3 0.404715 0.485245 0.440036
3899 4 0.170706 0.49087 0.34057
3211 2 0.0738951 0.287598 0.0219989
3212 4 0.0749811 0.281894 0.0463168
2967 4 0.126085 0.285321 0.0607031
2966 4 0.170914 0.301627 0.0761873
2965 2 0.1485 0.293474 0.0684452
2011 2 0.344535 0.281187 0.0081405
2969 4 0.364603 0.311639 0.0664591
2634 4 0.343854 0.314138 0.0658582
2013 4 0.327902 0.262804 0.00405583
2012 4 0.361168 0.299571 0.0122252
2975 4 0.365428 0.318069 0.00618281
2974 2 0.384531 0.330745 0.0164002
2968 2 0.387152 0.301061 0.0665752
2970 4 0.409702 0.290483 0.0666913
966 4 0.429706 0.292249 0.0666991
964 2 0.452585 0.301766 0.0706373
965 4 0.475464 0.311283 0.0745756
1293 4 0.494608 0.310667 0.0689116
334 2 0.0187694 0.411847 0.0346096
336 4 0.0377449 0.425206 0.0441848
326 4 0.118001 0.359836 0.0539112
671 4 0.0816145 0.385062 0.0187918
325 2 0.139595 0.352395 0.0438965
670 2 0.0921333 0.401628 0.00318428
327 4 0.161189 0.344953 0.0338818
782 4 0.169658 0.363218 0.0354217
781 2 0.1866 0.381463 0.0320344
783 4 0.203542 0.399707 0.028647
638 4 0.216958 0.412095 0.0336449
637 2 0.241713 0.415333 0.0317758
2459 4 0.285095 0.410671 0.029915
639 4 0.266468 0.418572 0.0299067
756 4 0.296447 0.401145 0.0162944
2458 2 0.300929 0.404979 0.0483618
2460 4 0.316763 0.399288 0.0668086
143 3 0.336624 0.393754 0.0610368
141 1 0.350775 0.389943 0.0789965
144 3 0.361941 0.369936 0.0760051
4089 4 0.304891 0.387408 0.0777844
2976 4 0.403635 0.34342 0.0266177
3335 4 0.420546 0.348761 0.0164982
4437 4 0.380424 0.388257 0.998041
3334 2 0.434445 0.364294 0.0304647
3336 4 0.448343 0.379827 0.0444313
555 4 0.466121 0.387519 0.0522476
553 2 0.466885 0.385079 0.0771195
1134 4 0.0548128 0.418008 0.0510781
1133 4 0.10431 0.42497 0.0541263
1132 2 0.0795612 0.421489 0.0526022
3430 2 0.216023 0.497859 0.0150465
221 1 0.263116 0.498025 0.0450742
3431 4 0.237632 0.49641 0.0275171
1289 4 0.262541 0.476582 0.0730523
225 3 0.274008 0.483148 0.0583185
222 3 0.255773 0.487314 0.0260458
4585 2 0.404962 0.431115 0.0774767
4586 4 0.42664 0.442605 0.0721683
1047 4 0.445418 0.448101 0.0807216
4587 4 0.383284 0.419625 0.0827852
1045 2 0.470037 0.451228 0.0774254
1046 4 0.494655 0.454356 0.0741293
124 3 0.018238 0.0241934 0.126282
121 1 0.0389278 0.0140248 0.127929
123 3 0.0433749 0.0087387 0.15007
122 3 0.0551304 0.0286593 0.120367
3546 4 0.0742621 0.0265329 0.119056
3544 2 0.0982606 0.0291365 0.112443
3545 4 0.122259 0.0317402 0.10583
3876 4 0.141202 0.0286397 0.113518
3874 2 0.150392 0.0116596 0.129306
405 4 0.349807 0.0401189 0.159212
403 2 0.354923 0.0516206 0.137581
404 4 0.360039 0.0631223 0.11595
1436 4 0.354395 0.0558883 0.0973164
258 4 0.419927 0.00210998 0.119148
1286 4 0.399985 0.998142 0.120293
256 2 0.44144 0.0149279 0.117253
257 4 0.462953 0.0277458 0.115359
2787 4 0.478156 0.0218225 0.103484
2785 2 0.485954 0.0426655 0.0919448
2941 2 0.0182467 0.133603 0.130294
2943 4 0.0389139 0.147669 0.127845
32 3 0.0566509 0.153805 0.133538
35 3 0.0816683 0.153823 0.161232
31 1 0.0658697 0.166198 0.150651
3485 4 0.269788 0.0970911 0.0769441
1070 4 0.289287 0.100294 0.0830901
1069 2 0.296475 0.109794 0.105105
1071 4 0.303663 0.119293 0.127119
2756 4 0.318221 0.124882 0.139407
2755 2 0.340194 0.120685 0.150492
2757 4 0.362167 0.116488 0.161578
1816 2 0.498976 0.0844894 0.377377
2936 4 0.097964 0.164203 0.152967
33 3 0.0755722 0.185409 0.141768
371 4 0.0963429 0.184029 0.142532
370 2 0.10064 0.201221 0.124852
372 4 0.104937 0.218414 0.107171
2935 2 0.120479 0.166062 0.163721
2945 4 0.362044 0.212766 0.153471
2775 4 0.379484 0.206602 0.144258
2773 2 0.403313 0.212295 0.149516
2774 4 0.427143 0.217988 0.154775
395 4 0.470988 0.195736 0.118585
394 2 0.485628 0.181689 0.133055
1103 4 0.036423 0.313985 0.154764
690 4 0.0361553 0.333631 0.148224
1102 2 0.0608558 0.311565 0.150161
1104 4 0.0852885 0.309144 0.145558
1511 4 0.100652 0.32218 0.148879
708 4 0.185253 0.256429 0.110687
706 2 0.202481 0.272102 0.101302
707 4 0.219709 0.287775 0.0919167
1029 4 0.225909 0.306561 0.0944184
1027 2 0.243195 0.324651 0.0967313
283 2 0.260767 0.290616 0.143172
285 4 0.260373 0.310948 0.157713
284 4 0.261162 0.270284 0.128631
2633 4 0.307308 0.296002 0.0950037
2632 2 0.325581 0.30507 0.0804309
762 4 0.414034 0.268143 0.138318
760 2 0.432135 0.284881 0.133473
761 4 0.450235 0.301619 0.128628
2718 4 0.470589 0.302897 0.128186
2716 2 0.487293 0.321234 0.13219
688 2 0.0138515 0.344708 0.147976
1510 2 0.123292 0.332927 0.150287
1512 4 0.145932 0.343674 0.151695
2511 4 0.161585 0.350136 0.164236
1028 4 0.260481 0.342742 0.0990441
4088 4 0.279263 0.348665 0.0968288
142 3 0.366243 0.407084 0.0801568
4087 2 0.292077 0.368036 0.0873066
524 4 0.364126 0.356912 0.0906865
145 3 0.338789 0.389256 0.0983534
523 2 0.381406 0.350708 0.107597
525 4 0.398686 0.344505 0.124508
288 4 0.417233 0.349027 0.11754
286 2 0.43891 0.361675 0.118444
287 4 0.460586 0.374323 0.119348
554 4 0.46765 0.382639 0.101991
1319 4 0.130974 0.490458 0.158663
2742 4 0.113921 0.496857 0.152322
1318 2 0.155152 0.484751 0.160965
3150 4 0.188981 0.474826 0.146056
3148 2 0.209601 0.488964 0.143614
1320 4 0.179329 0.479044 0.163267
1288 2 0.276055 0.462771 0.0888017
1290 4 0.289569 0.448961 0.104551
4277 4 0.294973 0.450907 0.123326
4276 2 0.308585 0.467321 0.136552
4278 4 0.322197 0.483736 0.149778
102 3 0.340914 0.491437 0.146857
1488 4 0.433199 0.463998 0.138456
1486 2 0.454078 0.477349 0.142527
1487 4 0.474957 0.4907 0.146599
4257 4 0.493642 0.487869 0.139252
4155 4 0.0718119 0.0317821 0.194019
4153 2 0.0742484 0.0555886 0.186698
4154 4 0.0766848 0.0793951 0.179376
3063 4 0.224958 0.0487123 0.245509
3061 2 0.229599 0.0555055 0.221884
3062 4 0.234239 0.0622986 0.198259
2646 4 0.24477 0.00519378 0.225886
1688 4 0.258705 0.0136765 0.235098
1687 2 0.278682 0.0281185 0.23027
1689 4 0.298659 0.0425605 0.225442
3555 4 0.308614 0.0596976 0.230283
3553 2 0.332928 0.0644812 0.226616
3554 4 0.357243 0.0692649 0.222949
588 4 0.377411 0.0728636 0.221202
2753 4 0.0394238 0.165039 0.181107
2461 2 0.201251 0.102667 0.238139
2463 4 0.219103 0.114696 0.225251
586 2 0.397331 0.0879594 0.223749
587 4 0.417251 0.103055 0.226295
3269 4 0.435233 0.110488 0.22525
3268 2 0.456985 0.11844 0.215645
3270 4 0.478738 0.126391 0.20604
488 4 0.489787 0.131158 0.190818
1232 4 0.00557808 0.211973 0.202731
34 3 0.0490893 0.171867 0.165577
2754 4 0.0175873 0.209359 0.187424
2752 2 0.0285055 0.187199 0.184265
641 4 0.0917467 0.236721 0.182151
311 4 0.159688 0.172645 0.18524
2937 4 0.142993 0.167921 0.174475
530 4 0.191542 0.191612 0.241145
310 2 0.177293 0.178419 0.202089
312 4 0.194898 0.184193 0.218939
529 2 0.17495 0.208285 0.249289
1356 4 0.210997 0.184534 0.230163
1354 2 0.235878 0.187022 0.231231
1355 4 0.26076 0.18951 0.232299
1220 4 0.274601 0.179922 0.243867
2944 2 0.356088 0.225825 0.173906
2946 4 0.350131 0.238884 0.194342
684 4 0.364546 0.252254 0.196924
2572 2 0.0149036 0.284674 0.194989
2573 4 0.0273043 0.299066 0.211356
245 4 0.0287655 0.317596 0.217545
244 2 0.0416024 0.328172 0.236287
640 2 0.104448 0.257778 0.187226
642 4 0.117149 0.278836 0.192301
1764 4 0.126493 0.28246 0.209298
1762 2 0.148146 0.292411 0.201448
1763 4 0.1698 0.302362 0.193599
2909 4 0.182036 0.300273 0.178182
2908 2 0.206311 0.306494 0.17866
3106 2 0.255659 0.3093 0.206139
3107 4 0.272721 0.295219 0.217583
3108 4 0.238597 0.32338 0.194695
2910 4 0.230586 0.312715 0.179137
4511 4 0.291785 0.299913 0.223626
4510 2 0.315147 0.300097 0.232541
4512 4 0.338509 0.30028 0.241457
682 2 0.376926 0.267054 0.21294
683 4 0.389306 0.281855 0.228956
621 4 0.409212 0.282436 0.227853
619 2 0.430236 0.269156 0.226762
620 4 0.45126 0.255875 0.225672
2509 2 0.17979 0.365125 0.172871
2510 4 0.197994 0.380114 0.181505
3960 4 0.216117 0.381632 0.18969
3958 2 0.239575 0.390398 0.191177
3959 4 0.263032 0.399163 0.192664
3221 4 0.274305 0.383503 0.193976
3220 2 0.296879 0.377213 0.202529
3222 4 0.319454 0.370923 0.211082
110 3 0.357614 0.352445 0.231768
106 1 0.348693 0.341473 0.249674
3818 4 0.36762 0.370569 0.227648
2580 4 0.421621 0.370682 0.191861
3817 2 0.385133 0.374646 0.210233
3819 4 0.402647 0.378722 0.192818
2578 2 0.437793 0.352354 0.187198
2579 4 0.453966 0.334026 0.182535
1412 4 0.0309408 0.489295 0.236869
1411 2 0.0196156 0.478653 0.21722
1802 4 0.0515045 0.430516 0.223264
1801 2 0.063162 0.447807 0.209324
2741 4 0.0797498 0.481679 0.185684
2740 2 0.0968355 0.489268 0.169003
1803 4 0.0748196 0.465099 0.195384
2694 4 0.190273 0.491723 0.232822
2692 2 0.16717 0.498379 0.239462
3705 4 0.207365 0.498076 0.242039
581 4 0.278172 0.43019 0.243301
1418 4 0.348305 0.49625 0.186534
1676 4 0.108392 0.0391456 0.282761
3648 4 0.0623269 0.0144856 0.337921
2126 4 0.117901 0.0224134 0.277776
1675 2 0.11962 0.0584983 0.294115
1677 4 0.130847 0.077851 0.305469
2125 2 0.136847 0.00853155 0.286037
15 3 0.177414 0.0573818 0.293917
2846 4 0.194465 0.0469668 0.297338
11 1 0.17046 0.0786935 0.290299
2845 2 0.208067 0.0399746 0.277607
2847 4 0.22167 0.0329825 0.257875
517 2 0.275903 0.0476813 0.325807
518 4 0.299026 0.0539446 0.318443
577 2 0.331964 0.0742628 0.302689
578 4 0.312173 0.0675667 0.31652
746 4 0.0160271 0.0857229 0.244571
428 4 0.0196944 0.102603 0.308277
427 2 0.0295345 0.116674 0.326529
1127 4 0.0282225 0.0897409 0.258872
1126 2 0.0447322 0.105573 0.269224
1128 4 0.0612418 0.121405 0.279577
1693 2 0.0852937 0.111699 0.310527
1694 4 0.078273 0.117678 0.287304
14 3 0.147801 0.0803179 0.294949
2462 4 0.1834 0.0906373 0.251026
726 4 0.184905 0.112255 0.298124
13 3 0.182516 0.0934323 0.303691
12 3 0.173997 0.0842157 0.268241
724 2 0.181668 0.130535 0.314838
725 4 0.178431 0.148814 0.331552
44 3 0.272126 0.155102 0.326967
579 4 0.351755 0.0809589 0.288857
18 3 0.330748 0.128122 0.26437
17 3 0.352236 0.133063 0.294843
20 3 0.348749 0.0990527 0.2798
16 1 0.35006 0.121324 0.275168
1517 4 0.372391 0.131816 0.296554
19 3 0.36857 0.125743 0.261829
1516 2 0.375471 0.14416 0.318096
2678 4 0.378405 0.13439 0.277295
2677 2 0.400141 0.144547 0.26995
2679 4 0.421878 0.154704 0.262604
734 4 0.440072 0.163887 0.265497
735 4 0.485691 0.150624 0.280715
733 2 0.462881 0.157256 0.273106
2841 4 0.0417905 0.218494 0.255641
2839 2 0.0185234 0.227346 0.25449
2814 4 0.0602901 0.188317 0.327783
2676 4 0.0780542 0.197824 0.331945
2674 2 0.0955257 0.210887 0.319543
2675 4 0.112997 0.223951 0.30714
666 4 0.1187 0.243943 0.308858
664 2 0.136555 0.240022 0.29184
531 4 0.158358 0.224957 0.257434
665 4 0.15441 0.236101 0.274823
3708 4 0.268619 0.240106 0.301417
1219 2 0.294851 0.189373 0.255252
1221 4 0.315101 0.198824 0.266637
3455 4 0.328048 0.215625 0.265267
3454 2 0.349124 0.224553 0.275515
3456 4 0.370199 0.233482 0.285763
3895 2 0.390727 0.246416 0.308046
3896 4 0.386034 0.245465 0.283504
3897 4 0.39542 0.247366 0.332589
3014 4 0.476398 0.250687 0.304808
2661 4 0.18551 0.319034 0.288603
3020 4 0.231789 0.292185 0.323712
3706 2 0.290516 0.25234 0.3026
269 4 0.234075 0.308066 0.31337
268 2 0.250944 0.310463 0.295048
270 4 0.267812 0.312861 0.276726
3707 4 0.312412 0.264575 0.303783
109 3 0.3453 0.319084 0.244465
438 4 0.310614 0.268879 0.323923
231 4 0.440447 0.319549 0.329639
494 4 0.439501 0.312957 0.274288
493 2 0.461945 0.313859 0.285288
495 4 0.48439 0.314761 0.296288
410 4 0.50025 0.316701 0.309297
246 4 0.0544394 0.338747 0.255029
339 4 0.0559743 0.367052 0.31618
337 2 0.0586363 0.357736 0.293141
338 4 0.0612984 0.348421 0.270101
2489 4 0.0405253 0.364928 0.327915
2659 2 0.200338 0.338891 0.292717
2660 4 0.215165 0.358747 0.296832
417 4 0.279025 0.329961 0.277462
1862 4 0.21831 0.369237 0.313825
1861 2 0.239192 0.376524 0.302033
1863 4 0.260074 0.383812 0.290241
582 4 0.258129 0.395814 0.273815
580 2 0.268151 0.413002 0.258558
415 2 0.297619 0.345901 0.271872
416 4 0.316213 0.361842 0.266282
107 3 0.328458 0.350811 0.255029
108 3 0.362906 0.343428 0.267925
297 4 0.50001 0.165275 0.328823
262 2 0.0287429 0.484822 0.311737
264 4 0.00768778 0.472065 0.306787
2657 4 0.0748963 0.447345 0.32076
2656 2 0.0922852 0.465026 0.324799
2658 4 0.109674 0.482707 0.328838
2516 4 0.291602 0.461804 0.338408
4032 4 0.312316 0.456313 0.336406
4031 4 0.352816 0.459612 0.307211
4030 2 0.332566 0.457963 0.321808
302 4 0.371385 0.461484 0.301658
301 2 0.394897 0.464096 0.293485
3686 4 0.438747 0.467651 0.279404
303 4 0.418408 0.466708 0.285313
3685 2 0.462489 0.472468 0.273036
3687 4 0.486232 0.477284 0.266667
3647 4 0.015411 0.996698 0.337784
3646 2 0.0388689 0.00559178 0.337852
813 4 0.210041 0.0491673 0.400396
1864 2 0.233274 0.0606571 0.356053
519 4 0.252781 0.0414181 0.333171
1865 4 0.24487 0.0392211 0.350937
1866 4 0.221678 0.0820931 0.36117
4012 2 0.345523 0.0274143 0.404098
4013 4 0.326758 0.019562 0.418738
1837 2 0.39169 0.00724078 0.343416
1838 4 0.415575 0.0148487 0.342769
4014 4 0.364288 0.0352667 0.389458
3549 4 0.378492 0.0453591 0.379175
3547 2 0.398987 0.0568223 0.38803
3548 4 0.419483 0.0682855 0.396886
3029 4 0.421988 0.0829817 0.384675
1217 4 0.433012 0.0226359 0.34976
1216 2 0.45698 0.0167571 0.353412
1218 4 0.480948 0.0108782 0.357064
1818 4 0.47866 0.0928973 0.389139
247 2 0.00609475 0.137905 0.381503
249 4 0.0255133 0.142906 0.366503
429 4 0.0393745 0.130744 0.344781
1851 4 0.0430308 0.133297 0.363711
1695 4 0.0923144 0.10572 0.333749
1849 2 0.0672653 0.130038 0.368778
1850 4 0.0914999 0.126778 0.373846
2177 4 0.0932934 0.144421 0.38522
2176 2 0.118197 0.142674 0.386257
2178 4 0.1431 0.140927 0.387293
42 3 0.261322 0.121735 0.340739
41 1 0.278494 0.137203 0.340202
45 3 0.282862 0.144368 0.361388
43 3 0.297322 0.127223 0.331227
1518 4 0.37855 0.156505 0.339637
1781 4 0.383061 0.142751 0.353646
1780 2 0.379165 0.155442 0.374811
1782 4 0.375269 0.168133 0.395976
3028 2 0.444103 0.0906344 0.393673
3030 4 0.466217 0.0982872 0.402671
296 4 0.454218 0.154732 0.34621
295 2 0.477114 0.160003 0.337516
2813 4 0.0321659 0.155115 0.352803
1767 4 0.0198349 0.222879 0.395886
2354 4 0.027822 0.217552 0.4137
2812 2 0.046228 0.171716 0.340293
2765 4 0.227941 0.184506 0.411945
3066 4 0.248885 0.225027 0.365547
3064 2 0.270448 0.218955 0.354558
3065 4 0.29201 0.212883 0.34357
2448 4 0.311664 0.2122 0.343839
2446 2 0.32719 0.231889 0.34224
2447 4 0.342716 0.251578 0.340641
306 4 0.360269 0.177302 0.387326
304 2 0.358207 0.197576 0.401784
305 4 0.356145 0.21785 0.416241
254 4 0.388163 0.22639 0.398159
253 2 0.393332 0.233356 0.374693
255 4 0.398501 0.240321 0.351227
3276 4 0.432466 0.195328 0.406734
526 2 0.468402 0.192602 0.393142
527 4 0.487696 0.20035 0.379146
528 4 0.449108 0.184855 0.407139
2849 4 0.102432 0.324824 0.408841
3021 4 0.185346 0.29536 0.341899
3019 2 0.208567 0.293772 0.332806
436 2 0.316488 0.285343 0.341854
437 4 0.322362 0.301806 0.359785
344 4 0.331149 0.305042 0.37794
2652 4 0.353535 0.266436 0.347498
343 2 0.340918 0.299466 0.400246
2650 2 0.371531 0.283621 0.350991
230 4 0.399849 0.318188 0.358822
2651 4 0.389526 0.300806 0.354484
229 2 0.420148 0.318868 0.34423
200 3 0.213598 0.431498 0.474586
2488 2 0.0208309 0.34995 0.332256
4068 4 0.129515 0.385026 0.386166
4 3 0.11322 0.379462 0.396191
3 3 0.100529 0.344467 0.404404
4066 2 0.149017 0.400569 0.383115
1 1 0.100857 0.366658 0.411183
2 3 0.0792777 0.374399 0.41163
2666 4 0.174162 0.325485 0.402377
4067 4 0.16852 0.416112 0.380064
3755 4 0.248265 0.406687 0.4148
3613 2 0.0325594 0.444131 0.398569
3614 4 0.0516476 0.449163 0.38316
3770 4 0.0621045 0.442328 0.368096
3615 4 0.0134712 0.439099 0.413978
3898 2 0.147796 0.481279 0.337001
3900 4 0.124885 0.471689 0.333431
3771 4 0.108539 0.431749 0.383023
3769 2 0.0853218 0.437039 0.375559
1573 2 0.206045 0.434807 0.365769
1575 4 0.185144 0.422466 0.372187
1574 4 0.226945 0.447148 0.359352
2515 2 0.268019 0.459153 0.346361
2517 4 0.244436 0.456502 0.354315
2296 2 0.372041 0.426346 0.406947
2297 4 0.382924 0.438004 0.387624
1775 4 0.402 0.442072 0.393005
1774 2 0.414291 0.46087 0.38181
1776 4 0.426582 0.479669 0.370615
413 4 0.439474 0.488143 0.357521
412 2 0.463415 0.495184 0.359933
1413 4 0.00829044 0.468011 0.197571
811 2 0.216437 0.0499004 0.424558
2962 2 0.215269 0.0255344 0.485213
2963 4 0.218606 0.0362727 0.462865
812 4 0.222834 0.0506335 0.448721
4388 4 0.318786 0.00151789 0.417409
1700 4 0.126898 0.163576 0.497372
2519 4 0.36722 0.164581 0.486687
2518 2 0.377139 0.158529 0.464574
2520 4 0.387057 0.152478 0.442461
3275 4 0.401423 0.163717 0.430344
2353 2 0.0510372 0.226658 0.416449
2355 4 0.0742524 0.235764 0.419197
399 4 0.131905 0.17019 0.479242
397 2 0.154416 0.174377 0.469105
2766 4 0.190231 0.185925 0.444739
398 4 0.176928 0.178564 0.458968
2764 2 0.209086 0.185215 0.428342
1471 2 0.278896 0.223317 0.448778
1473 4 0.258814 0.222607 0.463666
1472 4 0.298978 0.224026 0.433889
3352 2 0.324934 0.240215 0.498627
3353 4 0.340568 0.239723 0.479124
2132 4 0.372906 0.217653 0.427111
2133 4 0.358904 0.234771 0.471909
2131 2 0.365905 0.226212 0.44951
3274 2 0.416945 0.179522 0.418539
1839 4 0.367804 0.999633 0.344062
2850 4 0.0832525 0.292819 0.442319
2848 2 0.0928423 0.308822 0.42558
2374 2 0.289417 0.321876 0.463421
2375 4 0.302533 0.330707 0.443992
2376 4 0.276301 0.313045 0.482851
936 4 0.280555 0.300637 0.49649
695 4 0.342265 0.259817 0.479676
345 4 0.350687 0.29389 0.422553
694 2 0.344103 0.276258 0.460912
696 4 0.34594 0.292698 0.442148
5 3 0.109885 0.368372 0.432027
2492 4 0.123673 0.356541 0.438117
2491 2 0.132758 0.357644 0.461389
2493 4 0.141844 0.358747 0.484662
929 4 0.0934594 0.364678 0.474985
2667 4 0.137658 0.33828 0.433923
263 4 0.0497981 0.497578 0.316687
2665 2 0.15591 0.331882 0.41815
3024 4 0.150278 0.34492 0.497469
1225 2 0.246481 0.404006 0.495532
2298 4 0.361157 0.414687 0.426269
709 2 0.497526 0.402438 0.493592
711 4 0.485276 0.381454 0.499909
2139 4 0.0237985 0.445175 0.488109
4360 2 0.129529 0.488462 0.423332
4361 4 0.121009 0.467822 0.434737
1163 4 0.130849 0.451478 0.433249
1162 2 0.15019 0.441297 0.445227
4105 2 0.178642 0.491064 0.490162
197 3 0.180923 0.445484 0.463613
4106 4 0.194914 0.472836 0.494871
1164 4 0.169532 0.431117 0.457206
199 3 0.206504 0.468038 0.479769
196 1 0.203464 0.449775 0.465745
198 3 0.212276 0.454443 0.444773
3754 2 0.235182 0.422064 0.429413
4244 4 0.263431 0.47571 0.445126
1226 4 0.248763 0.426148 0.484099
3756 4 0.222099 0.437441 0.444025
4243 2 0.268532 0.496039 0.431417
2574 4 0.00250297 0.270283 0.178623
2473 2 0.405615 0.498707 0.12222
2474 4 0.428255 0.493878 0.112888
2609 4 0.0588894 0.308417 0.994479
3147 4 0.148958 0.0824681 0.530937
3145 2 0.162426 0.0651381 0.542717
3146 4 0.175893 0.047808 0.554498
911 4 0.194426 0.0413056 0.55739
910 2 0.208476 0.0289504 0.540909
2964 4 0.211931 0.014796 0.507561
912 4 0.222527 0.0165953 0.524428
3358 2 0.27859 0.0316927 0.575649
3359 4 0.287908 0.0177396 0.557182
1150 2 0.476752 0.00375629 0.517417
1151 4 0.452344 0.00893325 0.517774
1152 4 0.501159 0.998579 0.517059
3084 4 0.500815 0.0659992 0.571497
2982 4 0.483702 0.0748547 0.577309
99 3 0.0549693 0.0840868 0.576317
1743 4 0.0606001 0.0981609 0.563292
1741 2 0.0752475 0.107477 0.545221
1742 4 0.0898949 0.116792 0.527149
1701 4 0.100633 0.134638 0.528816
1699 2 0.113765 0.149107 0.513094
3413 4 0.15535 0.0958394 0.516573
3412 2 0.175399 0.110874 0.518362
3414 4 0.195448 0.125909 0.52015
731 4 0.193026 0.146276 0.515882
730 2 0.208952 0.152357 0.534226
3487 2 0.361115 0.154471 0.527543
3489 4 0.355147 0.141368 0.548024
266 4 0.485563 0.109948 0.518709
2980 2 0.48583 0.0902684 0.55772
2981 4 0.487957 0.105682 0.538132
732 4 0.224878 0.158437 0.55257
3465 4 0.237091 0.17295 0.558765
3463 2 0.252197 0.193026 0.558705
3464 4 0.267302 0.213103 0.558645
503 4 0.281972 0.225207 0.560965
3354 4 0.3093 0.240707 0.518129
957 4 0.466815 0.490304 0.947083
2174 4 0.023094 0.314723 0.560973
2173 2 0.045078 0.311106 0.549695
1952 4 0.00303893 0.311202 0.555049
2175 4 0.067062 0.307488 0.538416
2172 4 0.0848078 0.310634 0.528963
2170 2 0.102748 0.317187 0.545172
2171 4 0.120688 0.323739 0.561382
1205 4 0.179256 0.303705 0.554015
1204 2 0.169793 0.302891 0.577148
934 2 0.284241 0.310504 0.519183
502 2 0.276737 0.249439 0.56379
935 4 0.287928 0.320371 0.541875
3130 2 0.264252 0.315567 0.575434
3131 4 0.266416 0.290684 0.574977
504 4 0.271503 0.273671 0.566615
1620 4 0.484417 0.48422 0.956133
1074 4 0.999798 0.167779 0.803721
3700 2 0.0263942 0.392164 0.522862
3702 4 0.0497273 0.399216 0.517007
2927 4 0.0629267 0.413541 0.522519
3701 4 0.00306104 0.385111 0.528718
930 4 0.089315 0.374187 0.523897
3425 4 0.10869 0.372909 0.527299
3424 2 0.122608 0.384738 0.54447
3426 4 0.136527 0.396566 0.561641
1250 4 0.133836 0.400762 0.580559
3022 2 0.169527 0.351502 0.512094
3023 4 0.188776 0.358084 0.52672
981 4 0.208215 0.353756 0.532095
3132 4 0.262089 0.34045 0.575891
558 4 0.24698 0.402886 0.568646
3177 4 0.237061 0.387757 0.578709
979 2 0.228564 0.368279 0.529623
980 4 0.248912 0.382802 0.527151
1227 4 0.244199 0.381865 0.506965
2801 4 0.300724 0.425218 0.542815
2800 2 0.309098 0.405667 0.529796
2802 4 0.317472 0.386116 0.516776
3056 4 0.433991 0.401721 0.580146
2685 4 0.00986606 0.445918 0.58587
2137 2 0.00364002 0.446484 0.502826
2926 2 0.0788883 0.432285 0.517513
3683 4 0.114019 0.4481 0.520164
2928 4 0.09485 0.451028 0.512508
3682 2 0.138415 0.446789 0.525425
1249 2 0.153593 0.415452 0.585547
1251 4 0.173349 0.430141 0.590536
3684 4 0.162811 0.445479 0.530685
3695 4 0.173046 0.460533 0.535729
3694 2 0.196879 0.453232 0.536348
3696 4 0.220711 0.445931 0.536966
2309 4 0.208244 0.484358 0.581727
1947 4 0.215503 0.495036 0.566399
556 2 0.264974 0.417297 0.558701
557 4 0.282967 0.431708 0.548756
3055 2 0.446111 0.421229 0.570025
3057 4 0.45823 0.440738 0.559905
432 4 0.453229 0.448179 0.542742
430 2 0.47055 0.460484 0.529399
431 4 0.487871 0.472789 0.516057
2348 4 0.496346 0.482916 0.500617
3094 2 0.0205314 0.072906 0.647166
3096 4 0.0353169 0.0711006 0.627097
98 3 0.0365191 0.0793401 0.60923
3420 4 0.0375791 0.00461511 0.640064
2290 2 0.0887787 0.000744894 0.629307
2292 4 0.103166 0.00574175 0.649173
3360 4 0.269273 0.0456458 0.594117
374 4 0.264387 0.0617152 0.605993
373 2 0.280648 0.0755684 0.619159
316 2 0.373272 0.00721655 0.63387
317 4 0.398071 0.010637 0.634318
2204 4 0.417863 0.00928338 0.633749
2203 2 0.43899 0.0205207 0.626183
2205 4 0.460118 0.031758 0.618616
4180 2 0.448595 0.075256 0.663755
4223 4 0.00580093 0.144884 0.61652
4222 2 0.0293924 0.137011 0.614812
4224 4 0.0529839 0.129137 0.613104
97 3 0.0535619 0.112069 0.601352
96 1 0.054904 0.0892472 0.598939
100 3 0.0741005 0.0819845 0.608666
459 4 0.0883024 0.0954964 0.604886
457 2 0.108421 0.110226 0.601824
458 4 0.12854 0.124956 0.598763
2589 4 0.138681 0.135028 0.612761
2587 2 0.151617 0.148832 0.596304
4239 4 0.178894 0.0774229 0.666944
375 4 0.296909 0.0894216 0.632325
468 4 0.313174 0.0908275 0.644207
466 2 0.33115 0.0998335 0.65918
1269 4 0.365526 0.100117 0.66679
4181 4 0.472024 0.0821311 0.658077
2230 2 0.446383 0.142546 0.633779
2232 4 0.436678 0.126556 0.650465
2240 4 0.478111 0.10083 0.65837
2231 4 0.456089 0.158535 0.617093
3477 4 0.129716 0.208998 0.656228
3475 2 0.150299 0.221884 0.649843
2588 4 0.164552 0.162637 0.579847
3476 4 0.170882 0.234771 0.643459
2413 2 0.28294 0.247829 0.645585
2415 4 0.265235 0.236087 0.658926
3116 4 0.463283 0.175654 0.607633
3115 2 0.482762 0.19152 0.607182
4422 4 0.00743268 0.277853 0.612772
2497 2 0.167035 0.274301 0.627653
2499 4 0.157885 0.296362 0.620534
2498 4 0.176185 0.252241 0.634772
1206 4 0.160329 0.302077 0.600281
2414 4 0.300645 0.259572 0.632244
1080 4 0.30999 0.276845 0.629661
1078 2 0.330835 0.290486 0.632868
1079 4 0.35168 0.304127 0.636075
3026 4 0.359948 0.321357 0.643639
3496 2 0.00251301 0.394938 0.626918
3498 4 0.00463557 0.391446 0.651582
3175 2 0.247954 0.375932 0.597791
3176 4 0.258846 0.364108 0.616873
944 4 0.279044 0.363854 0.622303
943 2 0.292318 0.384604 0.627188
945 4 0.305593 0.405354 0.632074
3183 4 0.32305 0.414786 0.632321
3025 2 0.379936 0.331531 0.632407
3027 4 0.399925 0.341706 0.621174
3264 4 0.410491 0.400871 0.664076
3158 4 0.418662 0.352766 0.622491
3157 2 0.442463 0.360646 0.623074
3159 4 0.466265 0.368525 0.623657
3141 4 0.483158 0.377281 0.629043
903 4 0.0270877 0.447516 0.575739
901 2 0.0489546 0.455295 0.585221
902 4 0.0708214 0.463074 0.594703
1325 4 0.0907532 0.46437 0.593561
1324 2 0.115583 0.466428 0.591222
1326 4 0.140412 0.468486 0.588884
2308 2 0.183692 0.480471 0.584751
2310 4 0.159139 0.476584 0.587775
1911 4 0.203454 0.457152 0.646346
1909 2 0.219289 0.465751 0.628934
1910 4 0.235125 0.47435 0.611521
3181 2 0.347164 0.420956 0.63525
3182 4 0.371278 0.427126 0.638178
2034 4 0.42056 0.416048 0.653979
2033 4 0.382182 0.443973 0.638932
2032 2 0.401371 0.430011 0.646455
348 4 0.0151394 0.0656552 0.683022
3095 4 0.00574583 0.0747114 0.667236
1992 4 0.0338082 0.0698638 0.682182
3001 2 0.0459727 0.0172405 0.669757
1990 2 0.0561979 0.0783009 0.689697
3002 4 0.0611317 0.0340748 0.680578
3313 2 0.123759 0.0621762 0.690032
3315 4 0.110543 0.0832116 0.688478
3314 4 0.136976 0.0411407 0.691587
3936 4 0.145332 0.0242754 0.698341
3934 2 0.15484 0.0134215 0.677972
3408 4 0.315014 0.0100221 0.708379
4182 4 0.425166 0.0683808 0.669433
1268 4 0.405803 0.0708882 0.666069
1267 2 0.385665 0.0855028 0.66643
846 4 0.48473 0.0665794 0.734958
1971 4 0.476349 0.0587157 0.75312
4020 4 0.381446 0.470451 0.986205
443 4 0.999039 0.149366 0.683106
1991 4 0.0785875 0.0867381 0.697213
2192 4 0.0969961 0.0955712 0.696208
2191 2 0.10322 0.119811 0.694849
2193 4 0.109443 0.14405 0.693491
2853 4 0.153593 0.138663 0.686979
858 4 0.168585 0.142171 0.702963
2851 2 0.161086 0.116008 0.679747
2852 4 0.16858 0.0933522 0.672516
856 2 0.170228 0.157729 0.72248
4237 2 0.202671 0.0804746 0.674157
4238 4 0.226447 0.0835263 0.681369
2276 4 0.237785 0.0882112 0.666516
2275 2 0.253788 0.107428 0.664077
2277 4 0.269791 0.126644 0.661639
467 4 0.349125 0.10884 0.674153
2627 4 0.358872 0.125745 0.682943
2626 2 0.377039 0.137114 0.695981
2628 4 0.395206 0.148483 0.70902
2906 4 0.412171 0.160253 0.705874
2905 2 0.433527 0.171983 0.711918
442 2 0.00585763 0.161799 0.703741
444 4 0.0126764 0.174233 0.724375
3281 4 0.0139526 0.168339 0.743376
857 4 0.171871 0.173287 0.741997
1228 2 0.331301 0.223939 0.754894
1230 4 0.345026 0.236128 0.737818
2907 4 0.454882 0.183714 0.717963
3143 4 0.473059 0.182844 0.708984
3380 4 0.0204968 0.311972 0.663007
3379 2 0.00425991 0.293005 0.665823
3105 4 0.0318122 0.284063 0.745395
3103 2 0.0135195 0.268694 0.753141
3163 2 0.18404 0.319476 0.727131
3165 4 0.183464 0.318048 0.702174
3164 4 0.184617 0.320904 0.752087
290 4 0.200576 0.313719 0.693286
289 2 0.224891 0.30824 0.692161
291 4 0.249207 0.302761 0.691036
4308 4 0.264567 0.305734 0.701325
4306 2 0.286932 0.316223 0.705758
4307 4 0.309297 0.326711 0.710192
2037 4 0.328316 0.332706 0.705067
3120 4 0.00454955 0.394889 0.672446
1191 4 0.0186574 0.403538 0.685601
1189 2 0.0412403 0.411732 0.692795
2035 2 0.35021 0.340548 0.695698
3262 2 0.399025 0.381053 0.674347
2036 4 0.372105 0.348389 0.68633
3263 4 0.387558 0.361236 0.684619
1190 4 0.0638232 0.419926 0.699989
536 4 0.0782572 0.432845 0.70083
535 2 0.102452 0.436478 0.695508
537 4 0.126648 0.440111 0.690185
3093 4 0.145575 0.431592 0.693129
3091 2 0.169634 0.425986 0.689633
3092 4 0.193693 0.42038 0.686137
1140 4 0.212221 0.423187 0.696164
1139 4 0.259112 0.426975 0.679101
1138 2 0.235666 0.425081 0.687633
4250 4 0.274681 0.426723 0.690904
4249 2 0.299517 0.427425 0.69377
4251 4 0.324353 0.428126 0.696637
1920 4 0.467483 0.441175 0.687073
1918 2 0.49001 0.442189 0.697896
4232 4 0.0883192 0.0668277 0.826157
2948 4 0.367227 0.0380554 0.776963
2947 2 0.388321 0.0516767 0.776311
2949 4 0.409415 0.0652981 0.77566
1970 4 0.429248 0.0641488 0.768856
1969 2 0.452798 0.0614322 0.760988
3312 4 0.469491 0.0730419 0.820634
821 4 0.175932 0.17402 0.76207
1235 4 0.266179 0.156637 0.789048
3374 4 0.274896 0.165536 0.804624
3373 2 0.29892 0.160493 0.800136
2789 4 0.34278 0.156325 0.797928
3375 4 0.322945 0.155451 0.795648
2788 2 0.352878 0.150063 0.819898
3311 4 0.458162 0.120902 0.812225
3310 2 0.463827 0.0969719 0.81643
3280 2 0.00603013 0.190676 0.751118
1422 4 0.0108525 0.238884 0.82102
1072 2 0.0241063 0.173263 0.801094
2988 4 0.0162147 0.23727 0.801882
1073 4 0.0484143 0.178747 0.798467
2986 2 0.0396749 0.244692 0.806702
4029 4 0.063165 0.17025 0.787514
4028 4 0.110592 0.184191 0.779134
4027 2 0.0868786 0.177221 0.783324
822 4 0.130677 0.189369 0.776324
820 2 0.153304 0.181694 0.769197
1234 2 0.24618 0.171438 0.788577
1236 4 0.226182 0.186239 0.788105
1229 4 0.317576 0.211751 0.771969
779 4 0.390175 0.216146 0.763349
3356 4 0.403877 0.202356 0.76574
3355 2 0.426346 0.191665 0.76682