ITEM: TIMESTEP
689000
ITEM: NUMBER OF ATOMS
4590
ITEM: BOX BOUNDS xy xz yz pp pp pp
-1.4397940800000001e+01 9.9985700000000008e+00 -4.3993707999999998e+00
-9.9985700000000008e+00 9.9985700000000008e+00 0.0000000000000000e+00
-9.9985700000000008e+00 9.9985700000000008e+00 0.0000000000000000e+00
ITEM: ATOMS id type xs ys zs
1287 4 0.0133632 0.00875397 0.0336633
2004 4 0.0259721 0.00519805 0.0185977
3545 4 0.1073 0.0360947 0.0676372
3544 2 0.111373 0.0479129 0.0456523
3546 4 0.115445 0.0597311 0.0236674
405 4 0.142144 0.0522014 0.0638505
1021 2 0.151887 0.0285189 0.00631257
1023 4 0.150608 0.0367805 0.0297079
403 2 0.158129 0.0643168 0.0811994
4026 4 0.191357 0.00603776 0.0426675
1539 4 0.169523 0.00188432 0.0634366
2523 4 0.220402 0.0642158 0.0709502
4024 2 0.216458 0.00679574 0.0409564
4025 4 0.241558 0.00755372 0.0392454
2792 4 0.252957 0.062507 0.00823179
2791 2 0.267582 0.0455372 0.00863162
2521 2 0.220789 0.0709167 0.0468857
2793 4 0.282207 0.0285675 0.00903145
3623 4 0.282263 0.00546948 0.0491375
4504 2 0.433725 0.0424952 0.00650501
4506 4 0.41401 0.0510626 0.997273
4505 4 0.453439 0.0339277 0.015737
1110 4 0.470373 0.0461667 0.0236457
1108 2 0.480544 0.0576922 0.0444795
2480 4 0.484186 0.0517477 0.0746078
1109 4 0.490715 0.0692177 0.0653133
2670 4 0.0351049 0.159834 0.0107343
394 2 0.0629222 0.158344 0.0347455
395 4 0.0396093 0.161928 0.0291378
2668 2 0.014788 0.169852 0.0149322
396 4 0.0862351 0.15476 0.0403531
3289 2 0.15585 0.12525 0.0679779
3291 4 0.155018 0.105538 0.0530001
4353 4 0.15671 0.104257 0.0341414
4351 2 0.164807 0.110013 0.0107877
2522 4 0.221176 0.0776177 0.0228212
1232 4 0.267283 0.106263 0.0406687
1231 2 0.285741 0.115337 0.0241802
1233 4 0.304198 0.124411 0.00769175
2968 2 0.42973 0.164984 0.0807283
2634 4 0.995509 0.199152 0.0235841
2633 4 0.0243917 0.233918 0.0525868
2632 2 0.00995037 0.216535 0.0380854
2502 4 0.0434255 0.230925 0.0503773
2500 2 0.0646647 0.233518 0.0642068
2501 4 0.0859038 0.23611 0.0780363
4542 4 0.163667 0.177445 0.0442271
4540 2 0.182983 0.187139 0.0288664
4541 4 0.202299 0.196832 0.0135058
1307 4 0.189027 0.201104 1.31308e-05
3909 4 0.251298 0.234328 0.998486
3983 4 0.345797 0.230357 0.0181034
3982 2 0.366299 0.249097 0.0157097
2969 4 0.445517 0.176723 0.0630363
2554 2 0.460133 0.185401 0.0243718
2555 4 0.458999 0.182226 0.0491691
3907 2 0.244934 0.252502 0.0121794
3908 4 0.23857 0.270675 0.025873
690 4 0.253433 0.281767 0.0361709
689 4 0.29732 0.306662 0.0563131
688 2 0.275376 0.294215 0.046242
554 4 0.319156 0.310267 0.0552501
553 2 0.343774 0.318444 0.0491155
3984 4 0.386801 0.267838 0.0133159
675 4 0.398333 0.257505 0.0240717
555 4 0.368392 0.32662 0.042981
673 2 0.422923 0.260728 0.0307415
674 4 0.447514 0.263951 0.0374114
3195 4 0.464676 0.275798 0.0327417
3193 2 0.489888 0.280237 0.0370024
2288 4 0.0591188 0.374594 0.0267889
2287 2 0.0700374 0.363565 0.0448289
2289 4 0.080956 0.352535 0.0628689
752 4 0.299387 0.389184 0.0750777
2609 4 0.384856 0.340826 0.0469029
2608 2 0.410245 0.343917 0.0446348
2610 4 0.435633 0.347008 0.0423667
639 4 0.452544 0.345779 0.0529538
637 2 0.471654 0.35423 0.0689594
855 4 0.383321 0.49549 0.0604774
853 2 0.376612 0.48155 0.0809126
507 4 0.435998 0.449432 0.0519153
505 2 0.429476 0.458284 0.0301188
506 4 0.422955 0.467136 0.00832229
705 4 0.448694 0.463488 0.0628165
3849 4 0.474748 0.435922 0.0233032
703 2 0.47183 0.461079 0.0705186
3847 2 0.49207 0.434369 0.00567474
704 4 0.494966 0.458671 0.0782208
2452 2 0.0247975 0.0153458 0.153504
2453 4 0.0350686 0.0020939 0.136901
578 4 0.101727 0.0431328 0.119268
577 2 0.114258 0.0580528 0.137074
579 4 0.126789 0.0729728 0.15488
2730 4 0.143298 0.0125858 0.156864
1571 4 0.155566 0.998486 0.157313
404 4 0.174115 0.0764321 0.0985484
624 4 0.270977 0.0358227 0.10987
622 2 0.266328 0.0555576 0.122315
623 4 0.261679 0.0752925 0.13476
654 4 0.221166 0.08175 0.156592
122 3 0.420619 0.0710508 0.146862
633 4 0.404338 0.0592979 0.155327
546 4 0.365821 0.078216 0.162605
631 2 0.398514 0.03822 0.168725
121 1 0.444073 0.0744426 0.145451
124 3 0.449756 0.0556791 0.135961
1070 4 0.459428 0.0413083 0.129119
1069 2 0.460564 0.0278624 0.149798
2481 4 0.471716 0.0296829 0.118833
2479 2 0.477951 0.0407153 0.0967202
123 3 0.453239 0.0778397 0.166805
3290 4 0.156681 0.144961 0.0829558
4172 4 0.171944 0.149197 0.0971089
4171 2 0.196383 0.161595 0.0974656
1437 4 0.19078 0.0849627 0.107151
1435 2 0.202822 0.091136 0.128898
1436 4 0.214864 0.0973094 0.150645
1584 4 0.355447 0.121695 0.14154
2942 4 0.374038 0.129656 0.134311
3053 4 0.339441 0.164717 0.167058
2941 2 0.391001 0.132155 0.115615
2970 4 0.413942 0.153244 0.0984204
2943 4 0.407963 0.134654 0.0969177
125 3 0.452158 0.0927275 0.132497
567 4 0.471639 0.0933027 0.124703
565 2 0.49385 0.0970896 0.1123
4077 4 0.0899217 0.233152 0.0966471
4075 2 0.101038 0.223249 0.115365
4076 4 0.112154 0.213346 0.134082
236 4 0.130046 0.20876 0.128708
235 2 0.154948 0.218474 0.132256
1764 4 0.199576 0.226485 0.141707
237 4 0.17985 0.228189 0.135805
4173 4 0.220821 0.173993 0.0978224
1762 2 0.210763 0.242671 0.159173
3558 4 0.240994 0.175086 0.0985012
3556 2 0.256848 0.177342 0.118103
3557 4 0.272702 0.179598 0.137705
708 4 0.351368 0.182054 0.160847
706 2 0.361547 0.181668 0.138051
707 4 0.371727 0.181281 0.115255
836 4 0.441573 0.233043 0.137989
835 2 0.444174 0.213197 0.12447
837 4 0.446775 0.193351 0.110951
4511 4 0.131008 0.3328 0.158121
621 4 0.277563 0.320346 0.103353
620 4 0.260497 0.281357 0.133496
619 2 0.26903 0.300852 0.118425
2774 4 0.341416 0.304988 0.0999498
2773 2 0.360552 0.303937 0.115728
2775 4 0.379689 0.302886 0.131507
2592 4 0.381103 0.284605 0.136954
2590 2 0.402642 0.291498 0.150249
2591 4 0.424181 0.298392 0.163544
2458 2 0.0139893 0.385962 0.154663
2459 4 0.0154916 0.40514 0.170475
2460 4 0.012487 0.366784 0.138852
3786 4 0.208738 0.409338 0.149681
1578 4 0.189514 0.412624 0.144422
751 2 0.308678 0.386426 0.0978726
753 4 0.317969 0.383668 0.120668
3348 4 0.304938 0.385944 0.164939
638 4 0.490763 0.362682 0.084965
3491 4 0.0337203 0.476061 0.128064
3490 2 0.00903449 0.464694 0.126115
561 4 0.0506583 0.479384 0.119405
559 2 0.0623755 0.463156 0.130724
560 4 0.0740927 0.446927 0.142042
482 4 0.0891177 0.437974 0.148555
481 2 0.114148 0.442836 0.153793
483 4 0.139178 0.447698 0.159031
1576 2 0.172796 0.42617 0.151748
1577 4 0.156078 0.439716 0.159074
3784 2 0.232941 0.420548 0.144479
1311 4 0.281444 0.48355 0.138906
3785 4 0.257144 0.431757 0.139277
4161 4 0.262742 0.477691 0.147297
3596 4 0.276679 0.438856 0.138823
3595 2 0.30053 0.449588 0.145767
2782 2 0.358419 0.494083 0.165083
287 4 0.320951 0.425101 0.112821
286 2 0.344672 0.436416 0.10601
3597 4 0.32438 0.460319 0.152712
2784 4 0.340981 0.472544 0.165117
288 4 0.368392 0.447732 0.0991991
854 4 0.369903 0.46761 0.101348
411 4 0.431873 0.470836 0.137484
270 4 0.427386 0.473408 0.156697
409 2 0.444946 0.485263 0.119622
410 4 0.458019 0.49969 0.101759
3543 4 0.487201 0.436706 0.121844
2454 4 0.0145264 0.0285977 0.170108
629 4 0.00412923 0.018967 0.185342
297 4 0.123258 0.0253519 0.237299
2728 2 0.124824 0.00166306 0.172599
295 2 0.133568 0.0497865 0.239249
296 4 0.143877 0.0742211 0.241198
1356 4 0.163258 0.0820772 0.248348
652 2 0.218783 0.072768 0.179923
653 4 0.216401 0.0637861 0.203253
1474 2 0.230478 0.000416139 0.251094
349 2 0.251348 0.0810573 0.250353
2462 4 0.286146 0.0742603 0.232032
2461 2 0.301409 0.0669633 0.215079
2463 4 0.316672 0.0596662 0.198126
544 2 0.35104 0.0696853 0.182249
545 4 0.336259 0.0611546 0.201893
632 4 0.39269 0.0171421 0.182123
1071 4 0.4617 0.0144164 0.170478
2486 4 0.48088 0.0233037 0.175271
2485 2 0.498422 0.0257899 0.193442
2752 2 0.496905 0.0766165 0.173266
2753 4 0.473546 0.0810302 0.169563
4154 4 0.131459 0.0889865 0.168694
4153 2 0.15 0.109354 0.172251
1354 2 0.188474 0.0858778 0.2443
4155 4 0.168542 0.129722 0.175809
618 4 0.188919 0.133806 0.172574
616 2 0.203534 0.145873 0.190919
617 4 0.218148 0.157941 0.209264
350 4 0.274304 0.0754792 0.247312
1355 4 0.213689 0.0896783 0.240252
247 2 0.263497 0.124958 0.210465
249 4 0.247257 0.103442 0.215929
248 4 0.279736 0.146474 0.205002
3054 4 0.298781 0.153929 0.197366
1582 2 0.354575 0.123678 0.16643
1583 4 0.353703 0.125661 0.191321
3052 2 0.319111 0.159323 0.182212
2572 2 0.00989868 0.185785 0.234415
2573 4 0.0354573 0.192553 0.234601
2838 4 0.0422631 0.208166 0.221845
2836 2 0.0654074 0.210747 0.211413
2837 4 0.0885518 0.213329 0.20098
932 4 0.237294 0.252235 0.183506
55 3 0.266243 0.206875 0.190941
53 3 0.284011 0.214327 0.224137
51 1 0.285576 0.206137 0.202689
52 3 0.287954 0.184327 0.204098
54 3 0.30458 0.218694 0.191874
762 4 0.323959 0.22735 0.188174
760 2 0.349261 0.235319 0.185505
761 4 0.374564 0.243287 0.182837
2676 4 0.475526 0.236623 0.241685
734 4 0.0123555 0.274509 0.236
4512 4 0.145638 0.320352 0.203333
2994 4 0.15522 0.312664 0.217227
4510 2 0.138323 0.326576 0.180727
2992 2 0.180161 0.317369 0.222842
1763 4 0.221949 0.258858 0.176638
2993 4 0.205102 0.322073 0.228457
931 2 0.260964 0.257453 0.193032
933 4 0.284633 0.262672 0.202558
518 4 0.293697 0.279631 0.213308
517 2 0.309219 0.270858 0.228916
642 4 0.394994 0.245942 0.176861
640 2 0.417527 0.255999 0.187402
641 4 0.440061 0.266057 0.197942
1455 4 0.213812 0.375513 0.231332
1453 2 0.233651 0.370994 0.218265
1454 4 0.25349 0.366475 0.205198
303 4 0.200027 0.379551 0.244455
3346 2 0.309684 0.370251 0.182592
3347 4 0.314431 0.354557 0.200246
263 4 0.385588 0.369965 0.178747
262 2 0.397325 0.39413 0.178726
145 3 0.469752 0.417035 0.209303
4159 2 0.248324 0.469925 0.167381
4160 4 0.233907 0.462158 0.187465
264 4 0.409062 0.418295 0.178705
268 2 0.428184 0.452885 0.169953
269 4 0.428982 0.432361 0.183209
143 3 0.449995 0.437086 0.188531
142 3 0.452329 0.441519 0.22583
141 1 0.463999 0.437271 0.207062
144 3 0.483621 0.453973 0.204798
2714 4 0.185928 0.0514115 0.275275
2713 2 0.172832 0.0298122 0.265839
2715 4 0.159737 0.00821294 0.256403
1476 4 0.230331 0.0144354 0.271544
724 2 0.233873 0.015911 0.325311
2339 4 0.265336 0.0172892 0.313204
725 4 0.258539 0.0191607 0.331713
726 4 0.209208 0.0126613 0.318908
351 4 0.228392 0.0866354 0.253393
2338 2 0.289733 0.0187792 0.319807
2340 4 0.314131 0.0202692 0.326411
428 4 0.333764 0.0296615 0.323468
427 2 0.343365 0.0457288 0.305295
429 4 0.352965 0.0617962 0.287123
1850 4 0.370323 0.0600256 0.278247
1849 2 0.387609 0.081666 0.278256
1851 4 0.404895 0.103306 0.278264
19 3 0.412045 0.117025 0.293264
16 1 0.419451 0.127313 0.313416
2535 4 0.448465 0.151513 0.292905
20 3 0.436743 0.145422 0.309723
17 3 0.401438 0.134179 0.323456
2533 2 0.441295 0.167707 0.277165
2799 4 0.466609 0.146324 0.287021
2797 2 0.490492 0.156433 0.27968
2708 4 0.03766 0.212294 0.289404
2707 2 0.0603564 0.212535 0.278802
2709 4 0.0830529 0.212776 0.2682
2678 4 0.205618 0.24493 0.310691
2677 2 0.219006 0.241059 0.330875
2534 4 0.434125 0.183901 0.261425
2674 2 0.464758 0.21447 0.25167
2675 4 0.45399 0.192318 0.261656
712 2 0.00969775 0.285709 0.273708
714 4 0.0197749 0.286817 0.250745
1472 4 0.0775308 0.329594 0.25663
519 4 0.324741 0.262084 0.244524
1866 4 0.336612 0.255145 0.258066
1864 2 0.349338 0.250665 0.278489
1865 4 0.362064 0.246185 0.298912
1061 4 0.499036 0.259621 0.280375
1471 2 0.0928048 0.343083 0.273711
1473 4 0.108079 0.356572 0.290793
2909 4 0.116486 0.350197 0.306764
2908 2 0.140055 0.36466 0.306148
2910 4 0.163624 0.379124 0.305533
302 4 0.171016 0.374791 0.285638
301 2 0.185522 0.377171 0.265047
2897 4 0.423565 0.341519 0.275073
2898 4 0.373443 0.330646 0.28529
2896 2 0.398504 0.336082 0.280182
2691 4 0.437996 0.348017 0.260565
596 4 0.450497 0.368274 0.309569
2689 2 0.461889 0.34586 0.25539
595 2 0.475829 0.377051 0.30883
2690 4 0.485781 0.343703 0.250215
597 4 0.501161 0.385828 0.308091
2561 4 0.130454 0.503105 0.273675
2560 2 0.149852 0.49881 0.259786
2562 4 0.16925 0.494515 0.245897
1630 2 0.3386 0.454208 0.324291
1631 4 0.362654 0.464006 0.317244
1632 4 0.314547 0.444411 0.331338
1575 4 0.382644 0.470391 0.313475
1574 4 0.396825 0.450393 0.271576
1573 2 0.389735 0.460392 0.292526
2816 4 0.0989866 0.141395 0.368853
2817 4 0.078818 0.0993081 0.393558
2815 2 0.0889023 0.120352 0.381205
43 3 0.113657 0.158133 0.370968
452 4 0.0906842 0.0997326 0.410808
42 3 0.122556 0.153906 0.406998
2236 2 0.18098 0.1599 0.374079
2237 4 0.20654 0.164566 0.372841
1518 4 0.218534 0.106079 0.378955
2238 4 0.15542 0.155234 0.375316
2598 4 0.217765 0.153039 0.383222
1516 2 0.240806 0.116677 0.36822
2596 2 0.231364 0.159249 0.404125
1517 4 0.263078 0.127275 0.357484
2504 4 0.27762 0.142244 0.352532
3548 4 0.26196 0.105535 0.423064
3547 2 0.286666 0.117119 0.423236
2503 2 0.301182 0.145738 0.362196
2505 4 0.324745 0.149231 0.371861
3146 4 0.33903 0.165174 0.374727
18 3 0.426923 0.112301 0.327451
516 4 0.493465 0.127262 0.395708
514 2 0.501828 0.151981 0.398064
1033 2 0.498746 0.0973185 0.409931
3199 2 0.0150141 0.202934 0.396745
569 4 0.0430981 0.23645 0.41058
3201 4 0.0279356 0.219487 0.413025
568 2 0.0635706 0.244646 0.396107
1219 2 0.111639 0.226631 0.390174
1220 4 0.123367 0.207487 0.392321
41 1 0.127131 0.167819 0.388742
44 3 0.122027 0.188259 0.394071
1221 4 0.0999119 0.245775 0.388028
45 3 0.149696 0.170713 0.383315
2679 4 0.232394 0.237188 0.35106
3377 4 0.247904 0.231171 0.405645
3376 2 0.24874 0.239285 0.382013
3378 4 0.249577 0.247399 0.358382
3145 2 0.364103 0.17536 0.374406
3147 4 0.389177 0.185546 0.374084
575 4 0.4077 0.245 0.407568
2613 4 0.404423 0.201229 0.37055
2611 2 0.426777 0.217493 0.373406
2654 4 0.468719 0.23846 0.379212
2612 4 0.449131 0.233756 0.376261
1741 2 0.475273 0.191949 0.412938
1742 4 0.498684 0.189838 0.405816
3806 4 0.00775511 0.322679 0.361736
722 4 0.0196136 0.313011 0.370718
570 4 0.0840431 0.252842 0.381634
723 4 0.0692469 0.321513 0.358587
721 2 0.0444302 0.317262 0.364652
576 4 0.393763 0.286798 0.392789
574 2 0.400731 0.265899 0.400179
345 4 0.386714 0.295463 0.408462
2653 2 0.477103 0.263208 0.381237
2655 4 0.485486 0.287956 0.383262
3959 4 0.041431 0.390243 0.407332
3960 4 0.0863509 0.407911 0.384863
3958 2 0.0638909 0.399077 0.396098
4434 4 0.123586 0.392174 0.414435
436 2 0.155028 0.379189 0.390128
437 4 0.136655 0.389698 0.399448
438 4 0.173401 0.368679 0.380808
2298 4 0.195616 0.374971 0.380731
2297 4 0.242429 0.396792 0.36462
1391 4 0.251034 0.402138 0.345579
2296 2 0.219023 0.385882 0.372675
3129 4 0.32778 0.390045 0.402751
3615 4 0.331363 0.402733 0.385182
3613 2 0.345229 0.412134 0.365242
2725 2 0.0590801 0.461677 0.403208
695 4 0.015977 0.460413 0.355779
464 4 0.0266985 0.447502 0.415758
694 2 0.00354755 0.478926 0.352597
3707 4 0.102373 0.424291 0.386612
2402 4 0.11649 0.480959 0.348387
2401 2 0.0955547 0.470738 0.361484
2403 4 0.0746195 0.460517 0.374582
2727 4 0.0722402 0.476095 0.385388
3706 2 0.127778 0.429091 0.389653
3708 4 0.153184 0.433891 0.392694
1446 4 0.152546 0.436623 0.413472
1390 2 0.273767 0.417577 0.34198
1392 4 0.2965 0.433015 0.338381
3614 4 0.359096 0.421536 0.345302
2631 4 0.43026 0.427916 0.339279
2630 4 0.379991 0.424309 0.345596
2629 2 0.405126 0.426112 0.342437
1401 4 0.448576 0.424935 0.3358
1399 2 0.473991 0.43321 0.335672
1977 4 0.0364458 0.0297882 0.422417
1976 4 0.0855304 0.037987 0.436487
1975 2 0.0609881 0.0338876 0.429452
2543 4 0.10278 0.0302506 0.439654
2542 2 0.116629 0.0156403 0.450633
2544 4 0.130479 0.00103008 0.461612
4563 4 0.187026 0.038832 0.483509
3030 4 0.204672 0.049691 0.47866
3028 2 0.223923 0.0588645 0.463037
3029 4 0.243174 0.068038 0.447414
3396 4 0.306501 0.025602 0.472129
3394 2 0.324404 0.0288565 0.489995
1799 4 0.355657 0.0640705 0.461545
458 4 0.466211 0.0738645 0.479917
457 2 0.46748 0.070832 0.455174
1146 4 0.472809 0.0781468 0.498724
1034 4 0.489078 0.0775683 0.424311
459 4 0.468749 0.0677996 0.43043
894 4 0.134412 0.150135 0.423473
451 2 0.105781 0.0986727 0.430533
453 4 0.120878 0.0976128 0.450257
892 2 0.147086 0.157162 0.444733
399 4 0.127939 0.0817375 0.455486
397 2 0.152838 0.0905034 0.450935
398 4 0.177737 0.0992692 0.446384
3096 4 0.194572 0.104535 0.434252
3095 4 0.24509 0.113936 0.426189
3094 2 0.219831 0.109236 0.430221
3549 4 0.311373 0.128703 0.423408
2930 4 0.324161 0.144582 0.428803
2931 4 0.374468 0.146316 0.426518
2929 2 0.349314 0.145449 0.427661
2642 4 0.391737 0.141474 0.433817
1798 2 0.369471 0.0835941 0.473931
1800 4 0.383284 0.103118 0.486317
2641 2 0.409631 0.141509 0.451289
2589 4 0.435001 0.100954 0.475877
2587 2 0.442214 0.121091 0.490435
2643 4 0.427525 0.141544 0.46876
2 3 0.0337613 0.245594 0.455792
1 1 0.0235649 0.242615 0.435074
4 3 0.0178909 0.219914 0.430322
3065 4 0.130303 0.245477 0.443748
383 4 0.132768 0.226901 0.447153
382 2 0.148754 0.21795 0.432231
4002 4 0.132284 0.215571 0.497897
4000 2 0.157537 0.21858 0.494523
384 4 0.164741 0.209 0.417309
893 4 0.159759 0.164189 0.465993
1781 4 0.171797 0.179078 0.454306
4001 4 0.18279 0.22159 0.491148
2132 4 0.180984 0.231787 0.475429
2131 2 0.195963 0.247524 0.459781
1780 2 0.194898 0.188124 0.464191
1782 4 0.217998 0.197171 0.474076
2673 4 0.232252 0.208597 0.462476
2672 4 0.256856 0.220421 0.419154
2597 4 0.244964 0.16546 0.425029
2671 2 0.244554 0.214509 0.440815
2810 4 0.260464 0.179095 0.43201
2809 2 0.285555 0.180808 0.428626
2811 4 0.310647 0.182522 0.425241
1818 4 0.31624 0.18437 0.444869
1816 2 0.34107 0.192163 0.450358
1817 4 0.3659 0.199955 0.455847
266 4 0.371647 0.194056 0.47238
1743 4 0.451863 0.19406 0.42006
265 2 0.396443 0.20355 0.47679
267 4 0.421239 0.213044 0.481199
2765 4 0.439525 0.210751 0.479626
2766 4 0.465131 0.190858 0.444898
2764 2 0.452328 0.200805 0.462262
2697 4 0.499547 0.209456 0.441214
5 3 0.0043317 0.251154 0.43524
2667 4 0.045422 0.259924 0.467512
3 3 0.0388672 0.253643 0.41923
3473 4 0.0782025 0.301616 0.462772
3472 2 0.0659479 0.320317 0.465511
2665 2 0.0669334 0.259402 0.480051
4307 4 0.0943974 0.300866 0.451248
2666 4 0.0884447 0.25888 0.49259
3064 2 0.11853 0.253621 0.463109
3066 4 0.106758 0.261765 0.48247
4306 2 0.118157 0.309852 0.459611
4308 4 0.141918 0.318838 0.467974
3488 4 0.251157 0.316182 0.440602
2133 4 0.210942 0.263261 0.444132
3489 4 0.220867 0.274495 0.458406
3487 2 0.236012 0.295338 0.449504
343 2 0.385032 0.305297 0.431127
344 4 0.38335 0.315131 0.453791
3024 4 0.352975 0.276417 0.493083
913 2 0.00659755 0.383606 0.433543
915 4 0.0308184 0.389401 0.425475
3474 4 0.0536932 0.339018 0.46825
3499 2 0.073963 0.376164 0.473525
3501 4 0.0535975 0.357788 0.468934
3500 4 0.0943286 0.394541 0.478117
4433 4 0.103911 0.397687 0.459535
4432 2 0.113748 0.39493 0.436985
1191 4 0.145438 0.326659 0.487006
1821 4 0.246117 0.421356 0.44726
508 2 0.268833 0.403128 0.475914
510 4 0.2808 0.389471 0.490561
509 4 0.256865 0.416784 0.461268
3127 2 0.320499 0.393779 0.426108
3128 4 0.313217 0.397513 0.449466
2156 4 0.465085 0.391236 0.460215
774 4 0.0622667 0.491818 0.429717
463 2 0.00256696 0.436385 0.421354
2726 4 0.0459201 0.447259 0.421028
1820 4 0.208242 0.431678 0.419287
1444 2 0.176821 0.44123 0.421403
1445 4 0.201095 0.445837 0.429334
1819 2 0.227179 0.426517 0.433274
414 4 0.438515 0.450307 0.464717
2926 2 0.416679 0.426404 0.490238
2928 4 0.41972 0.439479 0.468926
413 4 0.456755 0.499769 0.464528
412 2 0.447635 0.475038 0.464623
2155 2 0.48181 0.412458 0.454789
2157 4 0.498536 0.433681 0.449363
2603 4 0.0325637 0.0290573 0.528646
2602 2 0.052798 0.0382522 0.543102
2604 4 0.0730324 0.0474471 0.557559
389 4 0.090508 0.0590302 0.562561
388 2 0.1142 0.068275 0.554156
218 3 0.0715758 0.0104777 0.555906
216 1 0.0693372 0.00536389 0.578512
390 4 0.137892 0.0775199 0.545751
3249 4 0.145777 0.0815865 0.527515
3247 2 0.170215 0.0797573 0.529693
3248 4 0.194654 0.0779282 0.531871
4562 4 0.171388 0.0248224 0.529842
4561 2 0.179207 0.0318272 0.506676
952 2 0.215811 0.0608893 0.545754
954 4 0.227457 0.0418935 0.542026
3395 4 0.342308 0.0321111 0.507861
2964 4 0.341658 0.036284 0.52634
2962 2 0.366001 0.0406672 0.534048
2963 4 0.390344 0.0450505 0.541755
2973 4 0.397258 0.0574886 0.557141
2971 2 0.417552 0.0521441 0.568788
4464 4 0.450577 0.0261838 0.548409
1997 4 0.467621 0.0347853 0.557905
1996 2 0.489685 0.0271193 0.556388
4462 2 0.434157 0.00555871 0.540755
2720 4 0.0201192 0.129257 0.55807
938 4 0.0378034 0.125938 0.564795
937 2 0.0629072 0.135995 0.564972
939 4 0.088011 0.146053 0.565149
99 3 0.133414 0.136157 0.549047
96 1 0.129075 0.151444 0.564712
97 3 0.107157 0.1545 0.561637
2832 4 0.150206 0.128035 0.545104
2830 2 0.175327 0.134323 0.540395
2831 4 0.200448 0.140612 0.535686
4580 4 0.213737 0.129214 0.538064
953 4 0.204165 0.0798852 0.549483
4579 2 0.237721 0.139925 0.544601
4581 4 0.261705 0.150635 0.551138
305 4 0.259565 0.142108 0.569989
3009 4 0.355899 0.122593 0.546879
731 4 0.370744 0.172275 0.501926
3007 2 0.37822 0.138765 0.550282
3008 4 0.400542 0.154936 0.553686
48 3 0.42207 0.153754 0.548032
47 3 0.443231 0.153891 0.516949
2588 4 0.449426 0.141228 0.504993
1180 2 0.432327 0.142594 0.578833
1182 4 0.444435 0.157618 0.56089
1144 2 0.489385 0.090514 0.515465
3824 4 0.464156 0.165981 0.556459
100 3 0.144157 0.17137 0.562036
3525 4 0.164292 0.175247 0.556923
3523 2 0.183398 0.194713 0.55177
3524 4 0.202504 0.214178 0.546617
1228 2 0.237205 0.253625 0.573318
1230 4 0.219151 0.240082 0.587964
730 2 0.348559 0.179238 0.50569
732 4 0.326373 0.186201 0.509453
46 1 0.429974 0.165623 0.52881
50 3 0.411954 0.168245 0.515929
49 3 0.443248 0.186376 0.534459
3823 2 0.484417 0.185138 0.557302
3825 4 0.504678 0.204295 0.558146
3412 2 0.0415115 0.310052 0.578745
3413 4 0.0388362 0.294881 0.558881
2990 4 0.0376692 0.300544 0.539434
2989 2 0.0590113 0.297047 0.528297
2991 4 0.0803534 0.29355 0.517161
947 4 0.0927146 0.303014 0.531521
946 2 0.113403 0.295569 0.539965
948 4 0.134092 0.288125 0.548408
3354 4 0.153128 0.254813 0.579342
2376 4 0.131902 0.249483 0.579567
3352 2 0.174951 0.27213 0.580243
3192 4 0.2141 0.297647 0.570416
3353 4 0.196775 0.289447 0.581145
1229 4 0.255258 0.267169 0.558671
2354 4 0.273699 0.276887 0.558102
2353 2 0.288393 0.266995 0.542523
2355 4 0.303087 0.257103 0.526944
3023 4 0.322114 0.254092 0.529538
3022 2 0.337544 0.265254 0.511311
3264 4 0.459029 0.255726 0.526024
3262 2 0.476555 0.260765 0.544198
3263 4 0.49408 0.265804 0.562372
3140 4 0.106209 0.36444 0.576672
3139 2 0.0995708 0.384503 0.586696
1190 4 0.149229 0.356169 0.527288
897 4 0.149367 0.358598 0.546177
895 2 0.172583 0.361496 0.556521
1189 2 0.147333 0.341414 0.507147
896 4 0.1958 0.364394 0.566865
3158 4 0.20606 0.352676 0.558123
3157 2 0.228129 0.368215 0.564113
3159 4 0.250199 0.383754 0.570103
2777 4 0.263503 0.373399 0.577602
2776 2 0.278903 0.39484 0.584767
600 4 0.359878 0.396655 0.555074
3426 4 0.364167 0.409583 0.571651
598 2 0.376303 0.400325 0.535895
599 4 0.392728 0.403996 0.516717
2927 4 0.413639 0.413329 0.51155
2309 4 0.475916 0.376758 0.536775
2308 2 0.500383 0.379251 0.529929
3535 2 0.0187733 0.440859 0.525344
3536 4 0.041963 0.441951 0.535209
3056 4 0.0596247 0.449434 0.526424
2700 4 0.996892 0.440979 0.580106
3055 2 0.0705695 0.473807 0.526397
217 3 0.0679618 0.0243944 0.590176
2191 2 0.181358 0.00717971 0.648647
2192 4 0.204872 0.0208758 0.64448
1097 4 0.307439 0.0791519 0.620976
1096 2 0.322798 0.0839063 0.640919
2281 2 0.324554 0.0088906 0.653195
2282 4 0.348151 0.016693 0.643944
2144 4 0.363767 0.0246113 0.656727
2143 2 0.380168 0.0441058 0.666648
2972 4 0.437845 0.0467995 0.580436
878 4 0.447383 0.0539442 0.597971
877 2 0.470094 0.0691564 0.602305
778 2 0.0614195 0.143876 0.659902
780 4 0.0670254 0.12906 0.641817
467 4 0.0865171 0.127383 0.633278
466 2 0.0993229 0.13308 0.611848
468 4 0.112129 0.138777 0.590417
98 3 0.130912 0.143329 0.586146
304 2 0.280362 0.14245 0.583976
3366 4 0.297224 0.130307 0.613643
306 4 0.30116 0.142793 0.597964
3364 2 0.317831 0.136219 0.628391
3104 4 0.333036 0.149904 0.660476
1098 4 0.338157 0.0886607 0.660861
3365 4 0.338438 0.142132 0.643138
1181 4 0.420219 0.127569 0.596776
606 4 0.459721 0.116538 0.639333
879 4 0.492806 0.0843687 0.60664
604 2 0.472719 0.121976 0.617971
2135 4 0.496974 0.160675 0.651419
605 4 0.485718 0.127414 0.59661
3385 2 0.0162373 0.199031 0.647219
3387 4 0.0405773 0.19711 0.644337
1269 4 0.0555707 0.210412 0.636982
1267 2 0.077639 0.227412 0.636486
2375 4 0.0862503 0.242438 0.602064
1268 4 0.0997072 0.244413 0.635989
2374 2 0.109076 0.245961 0.590816
649 2 0.222222 0.173826 0.655993
651 4 0.245962 0.181426 0.647026
1212 4 0.258505 0.244736 0.598073
1210 2 0.26286 0.230985 0.617608
1211 4 0.267216 0.217235 0.637143
3476 4 0.280359 0.231288 0.648456
858 4 0.26414 0.198057 0.64382
856 2 0.288208 0.195094 0.646128
3475 2 0.296919 0.24957 0.660021
857 4 0.312276 0.192132 0.648437
1185 4 0.328618 0.204551 0.644889
1183 2 0.34503 0.20092 0.66266
2492 4 0.000929107 0.303529 0.597317
3414 4 0.0441867 0.325224 0.598608
584 4 0.064476 0.329136 0.604936
583 2 0.0823576 0.321705 0.618687
585 4 0.100239 0.314274 0.632438
3026 4 0.11109 0.304846 0.645628
3025 2 0.110377 0.282455 0.63533
3027 4 0.109665 0.260064 0.625032
3191 4 0.256046 0.325775 0.591174
3190 2 0.235073 0.311711 0.580795
3380 4 0.261835 0.304531 0.630884
1165 2 0.273234 0.329036 0.657472
1166 4 0.278636 0.316237 0.637627
3379 2 0.263539 0.284115 0.617848
3381 4 0.265243 0.263698 0.604812
841 2 0.0386568 0.402596 0.640237
842 4 0.0498233 0.399855 0.662127
843 4 0.0274903 0.405337 0.618348
3141 4 0.0929322 0.404566 0.59672
291 4 0.27625 0.336611 0.594107
289 2 0.300697 0.348799 0.595802
290 4 0.325145 0.360987 0.597497
1080 4 0.343063 0.353721 0.596819
2778 4 0.294304 0.41628 0.591933
1078 2 0.356702 0.375597 0.60511
1918 2 0.374212 0.412021 0.650144
1919 4 0.38173 0.41127 0.626362
1079 4 0.37034 0.397473 0.613401
2698 2 0.0210828 0.446582 0.588273
2699 4 0.0452739 0.452185 0.59644
992 4 0.0655722 0.456626 0.591283
993 4 0.0925693 0.421037 0.586681
991 2 0.0790707 0.438831 0.588982
3321 4 0.29757 0.431265 0.603187
3319 2 0.304108 0.455832 0.607698
3320 4 0.310646 0.480399 0.612209
3424 2 0.364215 0.428519 0.587452
3425 4 0.364262 0.447454 0.603252
2594 4 0.480294 0.495325 0.608114
342 4 0.00808484 0.0435438 0.665848
340 2 0.0325226 0.0497032 0.673225
435 4 0.0636367 0.0454547 0.664542
341 4 0.0569603 0.0558625 0.680603
3080 4 0.0459575 0.0124649 0.735454
3079 2 0.0584171 0.0328359 0.723348
3081 4 0.0708768 0.0532069 0.711242
433 2 0.0872209 0.0415991 0.668198
4239 4 0.0887678 0.0625399 0.720424
434 4 0.110805 0.0377435 0.671854
3402 4 0.11716 0.0268517 0.68645
3400 2 0.135077 0.0153398 0.677821
3294 4 0.198755 0.0129517 0.690249
3292 2 0.221533 0.0284921 0.693232
3293 4 0.244311 0.0440326 0.696214
4439 4 0.264984 0.0475876 0.696897
1259 4 0.245325 0.084751 0.724379
4438 2 0.283934 0.035657 0.701063
4440 4 0.302884 0.0237265 0.705228
4163 4 0.30512 0.0207555 0.725048
4162 2 0.32529 0.0102075 0.722205
4164 4 0.34546 0.999659 0.719362
2145 4 0.39657 0.0636003 0.67657
1243 2 0.417999 0.055735 0.71384
1245 4 0.406919 0.0620533 0.693109
1244 4 0.429079 0.0494167 0.73457
3017 4 0.495041 0.0734695 0.746964
3355 2 0.489677 0.00644919 0.738388
779 4 0.0558136 0.158692 0.677986
4238 4 0.119039 0.107347 0.729161
4237 2 0.103904 0.0849435 0.724792
826 2 0.201278 0.159368 0.704276
650 4 0.198481 0.166225 0.66496
828 4 0.205418 0.146474 0.724531
1258 2 0.225434 0.0847298 0.739534
2628 4 0.264825 0.0855023 0.730758
2626 2 0.283736 0.100324 0.718087
3461 4 0.343498 0.101851 0.675984
2627 4 0.302648 0.115146 0.705415
3105 4 0.321339 0.122494 0.701916
3103 2 0.327187 0.136199 0.681196
3460 2 0.367823 0.0993516 0.676422
3462 4 0.392148 0.096852 0.67686
1005 4 0.448879 0.105537 0.750448
3642 4 0.00986751 0.25183 0.670033
4519 2 0.00475635 0.194394 0.709766
4520 4 0.0277981 0.208369 0.704179
1236 4 0.0445551 0.202741 0.699009
1234 2 0.0681696 0.200306 0.705011
557 4 0.0291247 0.248472 0.669956
556 2 0.0521768 0.247262 0.678899
1235 4 0.0917841 0.197871 0.711012
3374 4 0.112137 0.201087 0.715082
3373 2 0.136825 0.199896 0.713974
3375 4 0.161514 0.198704 0.712867
827 4 0.197137 0.172262 0.684021
822 4 0.195524 0.245899 0.671546
820 2 0.195652 0.228222 0.688766
821 4 0.195779 0.210545 0.705987
1184 4 0.361442 0.197289 0.68043
2981 4 0.389454 0.243901 0.6902
558 4 0.0752289 0.246053 0.687842
3119 4 0.0444954 0.294769 0.750597
2999 4 0.113866 0.300852 0.751762
2998 2 0.130288 0.293929 0.735786
3000 4 0.146709 0.287007 0.71981
3272 4 0.167438 0.289358 0.722135
3271 2 0.188969 0.305494 0.715693
3273 4 0.2105 0.32163 0.70925
3170 4 0.204234 0.327716 0.692565
3327 4 0.326562 0.260403 0.68111
3477 4 0.31348 0.267852 0.671587
3326 4 0.37231 0.248076 0.680419
3325 2 0.349436 0.254239 0.680764
1198 2 0.373865 0.27388 0.739016
1200 4 0.359823 0.283935 0.722896
2048 4 0.402014 0.254095 0.752115
3205 2 0.47681 0.283487 0.672564
3206 4 0.451886 0.283389 0.670308
2980 2 0.41146 0.257675 0.681517
2982 4 0.433466 0.271449 0.672835
1209 4 0.163014 0.396315 0.724347
1207 2 0.168999 0.397609 0.700037
1208 4 0.174985 0.398904 0.675726
3171 4 0.250406 0.347275 0.673455
3169 2 0.22732 0.337496 0.68301
1167 4 0.267833 0.341836 0.677317
1920 4 0.366693 0.412772 0.673926
1087 2 0.389415 0.353948 0.737847
1089 4 0.373638 0.345343 0.718916
4349 4 0.395416 0.475806 0.721337
4348 2 0.415934 0.49217 0.712898
192 3 0.99961 0.0400108 0.766353
193 3 0.0233064 0.0682528 0.783944
4509 4 0.0400658 0.0596067 0.785562
191 1 0.00135803 0.0609191 0.77551
4507 2 0.0608931 0.0654305 0.800027
4508 4 0.0817205 0.0712543 0.814491
3188 4 0.10006 0.0685199 0.818086
1969 2 0.0774151 0.0122736 0.777017
1971 4 0.100786 0.0221122 0.785887
3002 4 0.120123 0.0350947 0.786388
3001 2 0.14344 0.0468523 0.793952
3003 4 0.166757 0.0586098 0.801516
3252 4 0.184773 0.0687649 0.810229
3250 2 0.204607 0.0578525 0.81365
3251 4 0.224441 0.0469402 0.817072
2565 4 0.238495 0.0633419 0.810968
2563 2 0.262313 0.059491 0.812379
1248 4 0.292157 0.0444977 0.827157
2564 4 0.28613 0.05564 0.813789
1246 2 0.310863 0.0372877 0.814453
1247 4 0.32957 0.0300776 0.801749
636 4 0.331868 0.0772433 0.768423
634 2 0.345157 0.0593703 0.77145
1203 4 0.418307 0.0509722 0.751586
635 4 0.358446 0.0414973 0.774476
1202 4 0.376902 0.0424952 0.781006
1201 2 0.397605 0.0467337 0.766296
87 3 0.174808 0.117317 0.829656