ITEM: TIMESTEP
158500
ITEM: NUMBER OF ATOMS
4590
ITEM: BOX BOUNDS xy xz yz pp pp pp
-9.9985700000000008e+00 1.3398083800000002e+01 3.3995138000000011e+00
-9.9985700000000008e+00 9.9985700000000008e+00 0.0000000000000000e+00
-9.9985700000000008e+00 9.9985700000000008e+00 0.0000000000000000e+00
ITEM: ATOMS id type xs ys zs
3557 4 0.00961388 0.0713238 0.0538285
114 3 0.186416 0.0733086 0.0508357
4352 4 0.155518 0.0725701 0.0097792
1149 4 0.313105 0.0574185 0.00818997
1147 2 0.318377 0.0720634 0.0269108
2743 2 0.358083 0.0218148 0.0665887
30 3 0.357865 0.00243568 0.015214
2744 4 0.338571 0.0236616 0.0825003
2745 4 0.377596 0.0199681 0.0506771
1086 4 0.378394 0.0370435 0.0383114
1084 2 0.377913 0.0499288 0.0169519
532 2 0.410308 0.00376925 0.0491341
534 4 0.386582 0.00265765 0.0419209
533 4 0.434033 0.00488084 0.0563473
567 4 0.426704 0.0493588 0.0628265
565 2 0.430797 0.070857 0.072975
4155 4 0.0166301 0.0842178 0.0648045
4153 2 0.0407524 0.0846232 0.0584956
1827 4 0.0211654 0.147203 0.0364608
1825 2 0.0426159 0.132951 0.0287154
1826 4 0.0640664 0.118699 0.02097
4154 4 0.0648746 0.0850286 0.0521867
2523 4 0.077235 0.0895412 0.0656949
2521 2 0.101295 0.0931062 0.0677069
2501 4 0.0959145 0.161939 0.0647284
2522 4 0.125355 0.0966713 0.0697188
115 3 0.168606 0.0823458 0.0181072
112 3 0.168262 0.108307 0.0446091
111 1 0.180939 0.0898326 0.0347659
113 3 0.200577 0.0958041 0.0260382
450 4 0.218495 0.103152 0.0207192
3983 4 0.234094 0.116049 0.0191852
3982 2 0.252747 0.127952 0.0266679
3984 4 0.2714 0.139855 0.0341505
2669 4 0.288116 0.148402 0.0293289
1633 2 0.307609 0.094058 0.0798588
1148 4 0.323649 0.0867082 0.0456317
1634 4 0.319665 0.101139 0.0598787
2668 2 0.307906 0.160142 0.025753
740 4 0.457847 0.1505 0.0370998
566 4 0.434889 0.0923552 0.0831235
739 2 0.476365 0.157756 0.0235941
741 4 0.494884 0.165011 0.0100884
1007 4 0.0258615 0.215346 0.074024
2622 4 0.0927619 0.244126 0.0312527
2500 2 0.111683 0.177436 0.0579203
2620 2 0.0991639 0.23742 0.00774699
2502 4 0.127452 0.192933 0.0511121
2633 4 0.142681 0.180452 0.0412184
2632 2 0.150979 0.177386 0.0176536
2591 4 0.23921 0.197717 0.080031
2670 4 0.327695 0.171881 0.022177
395 4 0.349076 0.16934 0.0266309
394 2 0.353473 0.172166 0.0509908
396 4 0.357871 0.174992 0.0753506
2774 4 0.338057 0.178639 0.0818302
3211 2 0.4692 0.237734 0.0298363
3213 4 0.457249 0.218587 0.0350674
1290 4 0.0186678 0.301956 0.0523722
782 4 0.00288728 0.293365 0.0455044
1288 2 0.0434163 0.295654 0.0573571
1289 4 0.0681648 0.289351 0.062342
639 4 0.0853866 0.294569 0.0693739
637 2 0.107592 0.30281 0.0693452
638 4 0.129798 0.31105 0.0693166
1094 4 0.147154 0.31364 0.0796332
3632 4 0.433626 0.291007 0.0600563
3631 2 0.448235 0.305173 0.0484384
3212 4 0.481151 0.256881 0.0246053
3633 4 0.462843 0.319338 0.0368206
1047 4 0.479583 0.313763 0.0472252
1045 2 0.500494 0.315468 0.0603702
611 4 0.271588 0.370719 0.0739789
704 4 0.287275 0.377257 0.064519
703 2 0.312469 0.375936 0.0645831
705 4 0.337662 0.374614 0.0646473
507 4 0.345636 0.391512 0.0683022
505 2 0.353723 0.411367 0.0782807
1053 4 0.0543319 0.446616 0.0416553
1051 2 0.0691787 0.464134 0.042422
1052 4 0.0840254 0.481652 0.0431886
2904 4 0.0936499 0.494912 0.0518085
2902 2 0.108653 0.492103 0.0719653
3744 4 0.178101 0.435776 0.00594102
3742 2 0.198068 0.440538 0.0190108
4276 2 0.210229 0.459888 0.0747264
3743 4 0.218036 0.445301 0.0320805
4278 4 0.217116 0.453404 0.0512812
4375 2 0.282209 0.485321 0.000986629
3849 4 0.298484 0.443661 0.0612298
3847 2 0.314077 0.454975 0.0474328
3848 4 0.32967 0.466289 0.0336359
4436 4 0.302041 0.442958 0.00789186
4376 4 0.294125 0.462693 0.00791721
324 4 0.421818 0.419309 0.0556526
322 2 0.424534 0.439102 0.0416373
323 4 0.427249 0.458896 0.0276219
4312 2 0.372254 0.490698 0.0654261
2481 4 0.0130223 0.0517711 0.164685
1232 4 0.187357 0.036231 0.152015
1231 2 0.174075 0.0583367 0.145247
1233 4 0.160793 0.0804424 0.138479
994 2 0.263135 0.0318799 0.109156
995 4 0.259384 0.00978535 0.100175
996 4 0.266886 0.0539744 0.118137
3510 4 0.245367 0.0783096 0.148955
3508 2 0.244046 0.0578364 0.162482
2330 4 0.256255 0.000361568 0.117729
33 3 0.283858 0.0539209 0.129117
2468 4 0.319046 0.0127775 0.138224
2467 2 0.319789 0.015719 0.113425
31 1 0.280103 0.0771074 0.128247
2469 4 0.320533 0.0186605 0.0886265
521 4 0.468174 0.023769 0.130656
520 2 0.478423 0.0281295 0.152687
252 4 0.0452273 0.160239 0.163497
34 3 0.276599 0.0842293 0.106283
3216 4 0.2348 0.128248 0.136921
3214 2 0.247894 0.144403 0.126278
32 3 0.261049 0.0851535 0.14056
3215 4 0.260988 0.160559 0.115635
1635 4 0.295553 0.0869766 0.0998388
35 3 0.298217 0.085055 0.137
359 4 0.316189 0.091154 0.136243
358 2 0.335314 0.101592 0.127329
360 4 0.354439 0.11203 0.118416
578 4 0.370008 0.115985 0.106498
577 2 0.393488 0.109992 0.0972904
579 4 0.416967 0.103999 0.088083
1008 4 0.0135597 0.185862 0.110516
1006 2 0.0197106 0.200604 0.0922701
251 4 0.0197952 0.190562 0.12929
250 2 0.0325113 0.175401 0.146394
4077 4 0.177339 0.183548 0.0856904
4075 2 0.201421 0.186621 0.0889108
4076 4 0.225502 0.189694 0.0921312
2590 2 0.258027 0.184785 0.0935127
308 4 0.240792 0.242562 0.123658
2592 4 0.276844 0.171853 0.106994
2775 4 0.295172 0.168075 0.101649
2773 2 0.316615 0.173357 0.0917397
2288 4 0.261252 0.248078 0.123686
2941 2 0.418143 0.211571 0.152992
2943 4 0.433083 0.219372 0.135679
2970 4 0.449646 0.210687 0.125079
2968 2 0.471179 0.220118 0.126066
2969 4 0.492712 0.229548 0.127052
2529 4 0.021352 0.302315 0.154052
2527 2 0.00296245 0.309903 0.137463
2897 4 0.0355655 0.309863 0.163886
524 4 0.129436 0.273643 0.126384
523 2 0.152932 0.273364 0.11771
309 4 0.194947 0.262378 0.106228
525 4 0.176429 0.273086 0.109035
1093 2 0.171288 0.312586 0.0867195
1095 4 0.195422 0.311532 0.0938058
307 2 0.217869 0.25247 0.114943
1158 4 0.218041 0.30434 0.0991439
1156 2 0.232787 0.310264 0.117636
2287 2 0.275817 0.265073 0.118054
1157 4 0.247533 0.316187 0.136127
1586 4 0.260914 0.328169 0.133458
713 4 0.272221 0.261943 0.158076
2289 4 0.290383 0.282067 0.112421
959 4 0.307298 0.29192 0.10901
958 2 0.319605 0.311384 0.110585
960 4 0.331913 0.330848 0.112161
245 4 0.386094 0.317984 0.163429
620 4 0.10859 0.361403 0.162807
1512 4 0.117355 0.377843 0.157849
287 4 0.179246 0.352591 0.133724
4255 2 0.184811 0.416082 0.113825
286 2 0.199497 0.360936 0.12445
4256 4 0.207077 0.405101 0.104419
288 4 0.219747 0.36928 0.115176
3542 4 0.219006 0.409382 0.118238
612 4 0.226426 0.372271 0.0959425
610 2 0.249007 0.371495 0.0849607
1585 2 0.276034 0.339699 0.147617
1587 4 0.291155 0.35123 0.161777
2994 4 0.292657 0.415579 0.148386
2569 2 0.360766 0.340331 0.139952
2993 4 0.340668 0.39235 0.152824
2571 4 0.343708 0.34237 0.121466
2992 2 0.316662 0.403965 0.150605
2570 4 0.377824 0.338291 0.158439
648 4 0.356055 0.402859 0.155873
2889 4 0.0011647 0.457397 0.152032
4161 4 0.110431 0.442512 0.101743
2903 4 0.123656 0.489294 0.0921221
4159 2 0.128741 0.43671 0.118814
1311 4 0.112764 0.487403 0.135887
4257 4 0.162545 0.427063 0.123231
4160 4 0.14705 0.430908 0.135885
3963 4 0.169312 0.466593 0.15689
4511 4 0.189088 0.465261 0.155029
4277 4 0.203343 0.466372 0.0981715
4510 2 0.201711 0.460177 0.133556
4512 4 0.214334 0.455094 0.112084
2783 4 0.141766 0.496988 0.118511
2782 2 0.164762 0.499364 0.110027
3541 2 0.241317 0.417291 0.116498
3543 4 0.263629 0.425199 0.114759
263 4 0.286869 0.434626 0.150211
262 2 0.287614 0.451382 0.132003
2547 4 0.341012 0.492299 0.0863528
264 4 0.288358 0.468138 0.113796
2546 4 0.298338 0.476868 0.10087
2545 2 0.319675 0.484584 0.0936113
506 4 0.36181 0.431223 0.0882592
4314 4 0.358808 0.480895 0.082766
646 2 0.372289 0.418691 0.151826
647 4 0.388524 0.434522 0.14778
3519 4 0.395433 0.440588 0.129961
3517 2 0.379941 0.456615 0.115633
3518 4 0.36445 0.472643 0.101305
1577 4 0.368752 0.499939 0.128738
2480 4 0.0334281 0.00404006 0.173132
2479 2 0.0232252 0.0279056 0.168908
2756 4 0.193497 0.0638171 0.184031
2755 2 0.203099 0.0427452 0.196069
2757 4 0.212702 0.0216732 0.208106
1797 4 0.198359 0.0118409 0.213002
1795 2 0.203912 0.00426635 0.236445
3062 4 0.174233 0.0733185 0.188386
1070 4 0.239123 0.0206554 0.186678
3509 4 0.242724 0.0373631 0.176008
1069 2 0.258742 0.00270735 0.192022
1850 4 0.343318 0.0458243 0.227041
1849 2 0.350732 0.0638938 0.240779
545 4 0.351835 0.0278051 0.222394
544 2 0.370884 0.0231383 0.205959
546 4 0.389933 0.0184716 0.189523
691 2 0.479934 0.0369217 0.234763
693 4 0.480345 0.0240644 0.213392
522 4 0.488673 0.0324901 0.174718
2945 4 0.059881 0.145588 0.166652
2798 4 0.0797559 0.135653 0.213883
2797 2 0.0890507 0.121521 0.233323
2944 2 0.0741054 0.148251 0.186719
2946 4 0.0883298 0.150914 0.206786
2453 4 0.0997776 0.160622 0.217537
3554 4 0.161887 0.0923645 0.247125
3063 4 0.157415 0.100635 0.228464
3061 2 0.165824 0.0869769 0.208425
659 4 0.18664 0.128473 0.197558
658 2 0.184761 0.15051 0.185892
1763 4 0.467569 0.0939153 0.204368
1762 2 0.491444 0.0970894 0.200002
487 2 0.492397 0.150891 0.245647
2940 4 0.00148471 0.199306 0.192415
474 4 0.00801588 0.24239 0.210729
2452 2 0.0913767 0.183556 0.226423
640 2 0.104525 0.240737 0.202454
2454 4 0.0829759 0.20649 0.235308
1103 4 0.0632662 0.247021 0.201779
660 4 0.182882 0.172546 0.174226
642 4 0.128243 0.231 0.209057
761 4 0.143301 0.228177 0.222148
760 2 0.164387 0.217698 0.210203
762 4 0.185474 0.207219 0.198259
933 4 0.198181 0.220623 0.201945
931 2 0.216977 0.230326 0.212574
932 4 0.235774 0.24003 0.223203
2942 4 0.403204 0.203769 0.170305
3054 4 0.402927 0.18366 0.223387
3053 4 0.386748 0.195623 0.176938
3052 2 0.394837 0.189641 0.200162
2579 4 0.410849 0.195007 0.237461
1104 4 0.0138923 0.259567 0.212341
1102 2 0.0385792 0.253294 0.20706
641 4 0.0808071 0.250475 0.195852
2896 2 0.0532803 0.316635 0.178833
2898 4 0.070995 0.323406 0.19378
621 4 0.0874723 0.332154 0.193864
712 2 0.289218 0.262634 0.176291
714 4 0.306215 0.263324 0.194507
338 4 0.309706 0.280753 0.202234
337 2 0.333646 0.282035 0.195917
339 4 0.357587 0.283316 0.1896
244 2 0.381172 0.296442 0.17278
246 4 0.376251 0.2749 0.182132
1471 2 0.484422 0.332001 0.242641
3106 2 0.014069 0.340767 0.223609
326 4 0.00551235 0.354492 0.180588
3108 4 0.0303951 0.351741 0.210426
619 2 0.0980313 0.346778 0.178336
1510 2 0.134211 0.390315 0.168317
1511 4 0.151067 0.402786 0.178784
752 4 0.294318 0.344981 0.180514
751 2 0.300465 0.355809 0.201589
753 4 0.306612 0.366637 0.222663
411 4 0.305692 0.360422 0.241744
2888 4 0.0101574 0.421841 0.187073
2887 2 0.00566107 0.439619 0.169552
2494 2 0.015618 0.475809 0.235239
2919 4 0.0290089 0.418923 0.196155
2496 4 0.0364884 0.480741 0.223855
2917 2 0.05156 0.41975 0.206623
3861 4 0.0555321 0.480805 0.216845
2918 4 0.0741111 0.420577 0.217091
3859 2 0.0793947 0.482966 0.211064
3812 4 0.0873178 0.432681 0.217019
3860 4 0.103257 0.485127 0.205283
3811 2 0.111276 0.432338 0.209679
3813 4 0.135233 0.431996 0.202339
1412 4 0.119811 0.495139 0.210199
3962 4 0.146709 0.439748 0.189171
3961 2 0.158011 0.453171 0.173031
4586 4 0.451262 0.482739 0.189257
2740 2 0.461182 0.484081 0.241921
2742 4 0.471843 0.492666 0.221807
392 4 0.483939 0.480332 0.209179
2490 4 0.0776589 0.0621738 0.288926
2488 2 0.0756448 0.0791699 0.307244
3555 4 0.163685 0.0595932 0.284709
3553 2 0.162786 0.0759788 0.265917
2339 4 0.207795 0.0214855 0.32762
724 2 0.223749 0.0126949 0.292303
725 4 0.223267 0.023111 0.314998
726 4 0.22423 0.00227872 0.269609
1851 4 0.358146 0.0819634 0.254517
692 4 0.479522 0.0497791 0.256134
1407 4 0.486251 0.0565842 0.272536
581 4 0.0726587 0.115189 0.318226
580 2 0.0791407 0.137886 0.319989
582 4 0.0856226 0.160583 0.321752
2799 4 0.0983455 0.107388 0.252764
2535 4 0.100603 0.113418 0.272394
2489 4 0.0736307 0.0961659 0.325562
2533 2 0.121496 0.120717 0.281447
2534 4 0.14239 0.128017 0.2905
3773 4 0.190351 0.148601 0.331057
2846 4 0.294844 0.097878 0.275979
2845 2 0.315117 0.108462 0.281079
2847 4 0.33539 0.119045 0.286178
19 3 0.366489 0.0985982 0.251055
17 3 0.357355 0.11822 0.282583
16 1 0.374639 0.104828 0.271421
18 3 0.382096 0.0859904 0.284284
20 3 0.391969 0.116423 0.268001
1464 4 0.406176 0.12809 0.264615
489 4 0.469927 0.14719 0.254475
1462 2 0.428835 0.13518 0.262284
1463 4 0.451493 0.142271 0.259953
2838 4 0.0100983 0.177343 0.268346
2836 2 0.0259591 0.19333 0.2634
2837 4 0.0418199 0.209316 0.258453
2708 4 0.0997927 0.171478 0.322589
2707 2 0.124398 0.172742 0.319839
2709 4 0.149003 0.174005 0.317088
3201 4 0.154021 0.188386 0.331296
3269 4 0.136072 0.240382 0.328826
2675 4 0.232431 0.185339 0.305046
2674 2 0.247979 0.179189 0.285628
2652 4 0.1928 0.250241 0.311641
2676 4 0.263526 0.173038 0.266211
1061 4 0.280646 0.180362 0.271418
1060 2 0.302046 0.188336 0.2648
1062 4 0.323445 0.196311 0.258181
706 2 0.319234 0.237673 0.265289
708 4 0.330346 0.215119 0.25732
2659 2 0.384481 0.228365 0.312719
2660 4 0.389315 0.23645 0.289887
2580 4 0.397547 0.221054 0.279216
2578 2 0.404198 0.208031 0.258338
3147 4 0.480097 0.184173 0.330831
2613 4 0.486191 0.202905 0.332604
2651 4 0.142881 0.254815 0.319699
2650 2 0.16784 0.252528 0.31567
3235 2 0.167615 0.308902 0.312907
3236 4 0.171499 0.297523 0.290728
2601 4 0.199264 0.261139 0.296809
2599 2 0.220851 0.262526 0.308932
2600 4 0.242439 0.263912 0.321056
1584 4 0.262153 0.264298 0.318221
1582 2 0.283636 0.264397 0.305458
1583 4 0.30512 0.264496 0.292695
707 4 0.308122 0.260228 0.273258
410 4 0.290336 0.323043 0.266889
231 4 0.415231 0.298369 0.320997
409 2 0.298014 0.341733 0.254316
1472 4 0.465156 0.340254 0.258067
2961 4 0.315279 0.463837 0.253974
2959 2 0.33509 0.475954 0.254162
2960 4 0.354901 0.488071 0.254349
2741 4 0.450522 0.475496 0.262036
681 4 0.461945 0.453299 0.330961
3384 4 0.00690177 0.0145095 0.402239
3382 2 0.025663 0.0228159 0.390023
3383 4 0.0444243 0.0311222 0.377807
2644 2 0.0413801 0.0789978 0.350951
2646 4 0.0163399 0.0808608 0.347718
2645 4 0.0664204 0.0771347 0.354185
2931 4 0.0753663 0.0769571 0.372193
428 4 0.175075 0.00266091 0.364978
2338 2 0.200275 0.00639731 0.34482
1600 2 0.207428 0.0473075 0.413625
1602 4 0.220103 0.0570023 0.395569
257 4 0.402196 0.00218529 0.356392
256 2 0.424276 0.00737946 0.364812
258 4 0.446357 0.0125736 0.373231
1218 4 0.460868 0.0186856 0.384614
1216 2 0.484388 0.0234225 0.387937
515 4 0.0373224 0.123581 0.399943
514 2 0.0564379 0.135033 0.392842
2929 2 0.0954243 0.0884331 0.369177
2930 4 0.115482 0.0999091 0.366161
516 4 0.0755533 0.146485 0.385741
312 4 0.0891456 0.157253 0.379976
3774 4 0.174726 0.119442 0.366083
3772 2 0.182538 0.134021 0.34857
1128 4 0.209266 0.146457 0.339701
1126 2 0.232536 0.15133 0.344253
1127 4 0.255806 0.156202 0.348805
3146 4 0.45201 0.164874 0.364659
310 2 0.0927791 0.177848 0.367724
311 4 0.0964125 0.198443 0.355471
3270 4 0.101766 0.212681 0.343359
446 4 0.064379 0.249928 0.397849
3268 2 0.118919 0.226531 0.336093
3199 2 0.175876 0.196755 0.334937
255 4 0.21104 0.217833 0.335178
3200 4 0.197732 0.205125 0.338578
253 2 0.235848 0.208637 0.335696
872 4 0.237171 0.190691 0.37369
871 2 0.239085 0.198016 0.397386
2678 4 0.264967 0.216783 0.342431
254 4 0.260657 0.199441 0.336213
2677 2 0.287913 0.20889 0.352237
2679 4 0.310858 0.200996 0.362042
2597 4 0.322789 0.212147 0.371772
2661 4 0.379648 0.22028 0.33555
2596 2 0.344845 0.213692 0.360607
2598 4 0.366901 0.215238 0.349442
2765 4 0.443793 0.174729 0.380361
2764 2 0.443875 0.195198 0.394273
2766 4 0.443956 0.215666 0.408184
2697 4 0.463458 0.219999 0.410939
3145 2 0.466053 0.174524 0.347745
2695 2 0.454986 0.244568 0.409188
445 2 0.0457298 0.268219 0.404857
678 4 0.0800626 0.252574 0.385658
447 4 0.0270805 0.28651 0.411865
3237 4 0.163732 0.32028 0.335085
677 4 0.128459 0.259111 0.388298
676 2 0.104261 0.255842 0.386978
476 4 0.227941 0.322956 0.385409
576 4 0.317976 0.308829 0.407233
229 2 0.406053 0.315749 0.337861
230 4 0.396875 0.333128 0.354724
2696 4 0.446514 0.269138 0.407436
2584 2 0.00463391 0.364478 0.345555
2585 4 0.028057 0.369038 0.349895
1758 4 0.0407193 0.384178 0.348479
1756 2 0.0633583 0.391432 0.350114
1757 4 0.0859974 0.398687 0.351748
2631 4 0.104851 0.401107 0.347179
345 4 0.11196 0.362649 0.416399
2629 2 0.128343 0.406399 0.345685
343 2 0.127678 0.379374 0.415416
344 4 0.143397 0.396098 0.414433
2630 4 0.151835 0.41169 0.34419
477 4 0.22697 0.366889 0.408396
413 4 0.21208 0.382047 0.406142
475 2 0.227455 0.344923 0.396903
508 2 0.331648 0.414749 0.404159
509 4 0.313935 0.401645 0.411631
2457 4 0.404391 0.340916 0.370899
2455 2 0.427106 0.347013 0.375787
431 4 0.393514 0.363805 0.412198
1332 4 0.439631 0.388448 0.395601
2456 4 0.449821 0.353109 0.380674
437 4 0.493414 0.357301 0.408019
1330 2 0.454766 0.40549 0.392501
438 4 0.466102 0.350547 0.367458
436 2 0.479758 0.353924 0.387738
3614 4 0.166583 0.418919 0.353201
4200 4 0.165985 0.488863 0.414606
3613 2 0.190335 0.42361 0.353903
3317 4 0.207599 0.461193 0.405469
3615 4 0.214087 0.428302 0.354605
416 4 0.233466 0.429076 0.360509
415 2 0.254512 0.439134 0.362994
3316 2 0.219357 0.480176 0.411815
417 4 0.275559 0.449192 0.36548
2958 4 0.249166 0.496403 0.408059
2727 4 0.290721 0.458778 0.360484
2725 2 0.3148 0.461271 0.356178
2726 4 0.33888 0.463764 0.351873
510 4 0.349361 0.427854 0.396687
464 4 0.349336 0.476699 0.358906
463 2 0.374341 0.469163 0.356556
465 4 0.399347 0.461626 0.354206
680 4 0.417168 0.448627 0.351016
1067 4 0.421924 0.486761 0.400561
913 2 0.497494 0.467138 0.346245
914 4 0.476192 0.457852 0.342316
1331 4 0.469902 0.422532 0.389401
240 4 0.486493 0.432338 0.392035
1066 2 0.440668 0.494419 0.413396
679 2 0.439556 0.450963 0.340989
459 4 0.122233 0.016296 0.441905
457 2 0.103027 0.00363177 0.438972
1376 4 0.139625 0.016058 0.454781
1375 2 0.158021 0.0269719 0.444985
1601 4 0.194752 0.0376126 0.431682
1377 4 0.176417 0.0378858 0.435189
3094 2 0.21321 0.0771657 0.478911
3668 4 0.490881 0.00673688 0.47684
2643 4 0.0278739 0.119399 0.416536
2641 2 0.0069837 0.109844 0.421731
3248 4 0.182582 0.15166 0.485552
4002 4 0.20226 0.143208 0.481881
3096 4 0.215687 0.0857395 0.455755
4000 2 0.226027 0.132572 0.476418
1034 4 0.234219 0.0914799 0.455969
4001 4 0.249794 0.121936 0.470954
2735 4 0.262676 0.122915 0.486772
1033 2 0.257624 0.0914546 0.447161
1035 4 0.281029 0.0914293 0.438353
398 4 0.289549 0.103533 0.448887
397 2 0.306156 0.109845 0.465403
399 4 0.322763 0.116157 0.481918
4224 4 0.217341 0.188524 0.468651
873 4 0.241 0.205342 0.421083
4222 2 0.227032 0.203067 0.452349
4223 4 0.236722 0.21761 0.436047
2810 4 0.284021 0.191381 0.427528
1141 2 0.279141 0.225163 0.490943
1142 4 0.282143 0.205158 0.475949
2809 2 0.299892 0.189418 0.447019
2811 4 0.315764 0.187455 0.46651
2720 4 0.330034 0.17912 0.480432
2719 2 0.350845 0.188361 0.486663
2721 4 0.371656 0.197602 0.492895
2672 4 0.381945 0.189867 0.47552
4421 4 0.469177 0.168525 0.478632
2671 2 0.406188 0.190724 0.480966
2673 4 0.430431 0.19158 0.486412
4420 2 0.492283 0.174722 0.480391
3275 4 0.0155349 0.30171 0.419587
947 4 0.0758634 0.252978 0.474422
946 2 0.0912961 0.269989 0.474612
948 4 0.106729 0.286999 0.474803
3192 4 0.102803 0.302315 0.487383
3190 2 0.1179 0.318592 0.493796
574 2 0.32554 0.326694 0.421148
3065 4 0.394245 0.31589 0.43763
3064 2 0.408649 0.31362 0.458209
3066 4 0.423054 0.311351 0.478788
3488 4 0.427468 0.298348 0.494303
2850 4 0.0013952 0.414725 0.494543
2814 4 0.00680915 0.407106 0.474931
3191 4 0.132996 0.334869 0.50021
412 2 0.212159 0.401957 0.420866
2171 4 0.228378 0.351478 0.489065
2170 2 0.249166 0.354244 0.476194
2172 4 0.269953 0.357011 0.463324
711 4 0.278494 0.360013 0.445566
709 2 0.288687 0.378521 0.435333
575 4 0.333105 0.344558 0.435064
710 4 0.298881 0.397028 0.425099
432 4 0.349011 0.355289 0.429994
430 2 0.371262 0.359547 0.421096
2297 4 0.457453 0.379433 0.472954
2296 2 0.479031 0.387218 0.466621
2812 2 0.0055037 0.418831 0.452857
2813 4 0.00419825 0.430555 0.430784
3441 4 0.170754 0.465732 0.496854
414 4 0.212237 0.421866 0.43559
2928 4 0.206872 0.437931 0.448142
3318 4 0.231116 0.499159 0.418161
2926 2 0.22559 0.446037 0.460616
2927 4 0.244308 0.454144 0.47309
599 4 0.260792 0.448401 0.484253
598 2 0.285598 0.442896 0.479243
3540 4 0.357595 0.440412 0.458972
3538 2 0.339187 0.430143 0.469627
600 4 0.310403 0.437391 0.474233
3539 4 0.320779 0.419874 0.480283
549 4 0.392351 0.477075 0.434252
547 2 0.381538 0.45711 0.439228
548 4 0.370726 0.437145 0.444204
2832 4 0.0291845 0.0638832 0.518018
2830 2 0.0297379 0.0756664 0.539923
3095 4 0.210734 0.0685919 0.502067
390 4 0.403365 0.0666626 0.553543
320 4 0.412601 0.0504915 0.564644
2831 4 0.0302914 0.0874496 0.561827
952 2 0.0419341 0.109604 0.579856
953 4 0.048618 0.0877742 0.568032
3456 4 0.139063 0.160819 0.581621
3014 4 0.141309 0.141931 0.574844
3247 2 0.172993 0.166543 0.504363
2734 2 0.269405 0.119573 0.510773
2603 4 0.274068 0.134454 0.54396
2736 4 0.276133 0.116231 0.534775
2602 2 0.297519 0.132136 0.553351
2604 4 0.320969 0.129817 0.562742
388 2 0.395172 0.08811 0.541522
444 4 0.349364 0.159044 0.534441
442 2 0.367869 0.141626 0.525486
443 4 0.386373 0.124209 0.51653
389 4 0.38698 0.109557 0.5295
3249 4 0.163404 0.181426 0.523174
3454 2 0.145761 0.169097 0.559463
3455 4 0.152458 0.177374 0.537305
1143 4 0.276139 0.245167 0.505938
585 4 0.187276 0.293288 0.558482
583 2 0.192026 0.306669 0.578401
3021 4 0.241318 0.281206 0.554084
3020 4 0.275476 0.254376 0.524004
3019 2 0.258397 0.267791 0.539044
3487 2 0.437379 0.289868 0.516247
3489 4 0.44729 0.281388 0.538191
3024 4 0.457484 0.28969 0.551334
3022 2 0.476456 0.285388 0.567885
3023 4 0.495427 0.281086 0.584437
291 4 0.140317 0.351356 0.508068
289 2 0.15926 0.364329 0.504966
290 4 0.178204 0.377303 0.501864
2037 4 0.378733 0.336982 0.570305
2036 4 0.34242 0.350101 0.536144
2035 2 0.360576 0.343541 0.553225
3380 4 0.396985 0.334128 0.579798
2548 2 0.487877 0.390461 0.525292
2550 4 0.474873 0.400822 0.545077
3439 2 0.186248 0.481184 0.504473
3440 4 0.201742 0.496635 0.512093
2683 2 0.339387 0.49989 0.568277
2203 2 0.153232 0.0832055 0.626598
1998 4 0.162815 0.00827728 0.624901
2204 4 0.169409 0.0617059 0.629075
1130 4 0.173434 0.02319 0.619325
1129 2 0.195757 0.0291629 0.61263
1131 4 0.21808 0.0351359 0.605935
1283 4 0.235114 0.0370772 0.595173
1282 2 0.255044 0.0393733 0.609561
1284 4 0.274974 0.0416694 0.623948
318 4 0.27425 0.0579511 0.634906
316 2 0.267266 0.08251 0.638667
1181 4 0.364554 0.0604341 0.590554
1180 2 0.363315 0.0702593 0.613543
319 2 0.414899 0.0413319 0.587897
321 4 0.417197 0.0321724 0.611151
1182 4 0.362076 0.0800846 0.636531
50 3 0.0170311 0.141175 0.585412
46 1 0.0100375 0.153011 0.60422
48 3 0.0284435 0.154043 0.618079
954 4 0.0352502 0.131434 0.591679
3008 4 0.0430388 0.141545 0.607147
3007 2 0.0644815 0.147965 0.615875
3009 4 0.0859242 0.154385 0.624604
3015 4 0.134793 0.124798 0.620869
2205 4 0.137056 0.104705 0.624121
3013 2 0.138051 0.133365 0.597857
346 2 0.195939 0.131374 0.6472
348 4 0.198139 0.107338 0.653825
1943 4 0.180428 0.105626 0.661382
347 4 0.19374 0.155411 0.640576
317 4 0.260283 0.107069 0.642429
2135 4 0.346753 0.0927434 0.643825
2134 2 0.333018 0.0883304 0.663722
340 2 0.491801 0.107954 0.626113
341 4 0.482617 0.113819 0.648999
435 4 0.484907 0.132441 0.647201
433 2 0.487536 0.150063 0.664024
47 3 0.000325441 0.1744 0.598325
2588 4 0.0836451 0.174705 0.628143
2587 2 0.107802 0.177632 0.631108
2016 4 0.100976 0.234486 0.628869
2014 2 0.125275 0.23005 0.636019
2589 4 0.131958 0.180558 0.634072
2852 4 0.141722 0.1946 0.640596
2015 4 0.149575 0.225615 0.643168
2853 4 0.187228 0.169885 0.627042
2851 2 0.164475 0.182243 0.633819
981 4 0.159864 0.229778 0.627235
979 2 0.172954 0.248432 0.623655
1179 4 0.455448 0.209978 0.61518
1177 2 0.471983 0.225937 0.615192
1178 4 0.488518 0.241896 0.615205
584 4 0.196776 0.320051 0.59832
980 4 0.186045 0.267085 0.620075
1136 4 0.1997 0.274544 0.631631
2376 4 0.209347 0.330439 0.585611
1135 2 0.219858 0.284461 0.62458
1137 4 0.240015 0.294378 0.61753
1165 2 0.439106 0.310992 0.623846
1166 4 0.419356 0.328885 0.628929
1167 4 0.458857 0.293099 0.618763
2375 4 0.22308 0.351288 0.627653
1952 4 0.213118 0.347795 0.64413
2374 2 0.216214 0.340864 0.606632
1209 4 0.335596 0.410234 0.636929
3379 2 0.416286 0.346448 0.583755
3381 4 0.435587 0.358767 0.587712
1191 4 0.377139 0.388846 0.586589
1189 2 0.39355 0.397954 0.601412
2777 4 0.44722 0.368456 0.600965
1190 4 0.409961 0.407062 0.616234
2776 2 0.470833 0.356538 0.605106
2778 4 0.494445 0.344621 0.609247
4129 2 0.115343 0.492471 0.658603
1207 2 0.326961 0.43445 0.632641
1208 4 0.318326 0.458665 0.628354
2685 4 0.343555 0.490946 0.591475
896 4 0.415822 0.423183 0.624925
2499 4 0.360719 0.48393 0.600559
2497 2 0.385881 0.481632 0.603067
2498 4 0.411043 0.479334 0.605574
895 2 0.437176 0.423491 0.612008
1883 4 0.431266 0.481597 0.60451
897 4 0.45853 0.423798 0.59909
1882 2 0.445958 0.494256 0.591049
3173 4 0.0511026 0.0789887 0.710933
3172 2 0.0691764 0.0588195 0.70896
3174 4 0.0872502 0.0386503 0.706987
1073 4 0.126128 0.0440753 0.717873
1072 2 0.136759 0.0587416 0.702451
1074 4 0.14739 0.0734078 0.687028
3188 4 0.173969 0.0708357 0.739099
4508 4 0.188037 0.0675495 0.725768
4507 2 0.20349 0.0456144 0.723206
1944 4 0.164134 0.0770986 0.696593
4509 4 0.218943 0.0236794 0.720643
2089 2 0.331074 0.0828131 0.726762
2231 4 0.3456 0.00831769 0.726312
2230 2 0.359568 0.025372 0.733372
2240 4 0.327843 0.00100935 0.731989
2232 4 0.373536 0.0424263 0.740433
1082 4 0.379369 0.0573473 0.730121
1081 2 0.40067 0.0671292 0.731586
1083 4 0.421971 0.0769111 0.733051
2145 4 0.430898 0.00635384 0.741735
2143 2 0.448906 0.0187546 0.733565
2144 4 0.466914 0.0311553 0.725396
2113 2 0.465161 0.0753908 0.749484
4319 4 0.483889 0.040559 0.723099
2114 4 0.441192 0.0755536 0.742277
4318 2 0.499586 0.0505695 0.708191
1942 2 0.172281 0.0913624 0.678988
2997 4 0.253931 0.125834 0.73455
2995 2 0.256023 0.14583 0.74852
2091 4 0.324369 0.0879549 0.702998
2136 4 0.319283 0.0839175 0.683619
3315 4 0.325871 0.145461 0.692297
3313 2 0.338925 0.140797 0.713583
3462 4 0.315677 0.162488 0.697958
3314 4 0.35198 0.136133 0.734869
3420 4 0.366365 0.137137 0.75018
3418 2 0.387652 0.146346 0.745917
3419 4 0.408938 0.155554 0.741654
3461 4 0.287019 0.206484 0.687162
3460 2 0.301348 0.184486 0.69256
3640 2 0.360101 0.242646 0.725096
3641 4 0.379694 0.232499 0.710849
1268 4 0.381751 0.243506 0.695068
1267 2 0.40517 0.247355 0.689513
977 4 0.421326 0.169513 0.745848
434 4 0.490164 0.167685 0.680848
3337 2 0.221287 0.322131 0.725386
3339 4 0.209109 0.318973 0.746683
3338 4 0.233465 0.325288 0.70409
1953 4 0.218838 0.330001 0.690786
3642 4 0.340509 0.252793 0.739342
1269 4 0.428589 0.251204 0.683959
3170 4 0.42571 0.269525 0.689171
3169 2 0.437723 0.285916 0.700897
3171 4 0.449737 0.302306 0.712623
3320 4 0.135051 0.385543 0.687952
3319 2 0.158355 0.37333 0.682915
3321 4 0.18166 0.361116 0.677877
1951 2 0.215978 0.338898 0.667458
1919 4 0.427934 0.369565 0.734617
1079 4 0.440857 0.375008 0.719958
1918 2 0.406164 0.369604 0.746927
1078 2 0.458978 0.386289 0.710141
1080 4 0.477099 0.39757 0.700323
2154 4 0.48893 0.400892 0.683932
4131 4 0.100099 0.479538 0.671
971 4 0.328849 0.469323 0.690053
970 2 0.334477 0.461665 0.713459
4407 4 0.330893 0.480343 0.674245
972 4 0.340104 0.454006 0.736864
4405 2 0.346394 0.496417 0.668386
4350 4 0.353245 0.462364 0.747242
4028 4 0.169909 0.0592886 0.793941
4027 2 0.190815 0.0526731 0.80773
3579 4 0.202014 0.00505866 0.814164
4029 4 0.21172 0.0460576 0.821518
1895 4 0.229526 0.0342445 0.8241
1246 2 0.243087 0.0106025 0.803169
1247 4 0.222898 0.00223811 0.81256
1248 4 0.263277 0.0189668 0.793779
455 4 0.262803 0.0383905 0.801582
454 2 0.281576 0.0412938 0.817251
2090 4 0.337779 0.0776714 0.750527
2197 2 0.3897 0.0458111 0.830098
2198 4 0.407328 0.0283202 0.819877
3356 4 0.411736 0.0203714 0.80172
3355 2 0.436499 0.0160682 0.796324
3357 4 0.461263 0.011765 0.790928
2115 4 0.489131 0.0752281 0.75669
3343 2 0.0419867 0.0935899 0.813611
3252 4 0.00415475 0.158446 0.828372
3344 4 0.02162 0.0940282 0.828213
3345 4 0.0623535 0.0931516 0.79901
3099 4 0.0740836 0.105619 0.806944
3097 2 0.0953059 0.11526 0.803844
3098 4 0.116528 0.124901 0.800743
846 4 0.130392 0.128162 0.787481
844 2 0.139394 0.148949 0.793474
3187 2 0.179751 0.0846871 0.758259
3189 4 0.185532 0.0985384 0.77742
3002 4 0.206264 0.0970419 0.774365
3001 2 0.217127 0.113819 0.78684
3134 4 0.238305 0.139577 0.814113
3003 4 0.227989 0.130596 0.799316
3133 2 0.236142 0.155862 0.833077
3197 4 0.298241 0.147246 0.759207
3196 2 0.318519 0.143531 0.77422
3198 4 0.338797 0.139816 0.789234
3296 4 0.349974 0.122302 0.7977
3295 2 0.37233 0.130043 0.795479
3297 4 0.394685 0.137785 0.793258
1273 2 0.400719 0.160956 0.826973
1274 4 0.391616 0.152074 0.806149
3371 4 0.125237 0.244282 0.818804
845 4 0.148397 0.169737 0.799466
3017 4 0.160057 0.179572 0.789268
3016 2 0.179623 0.190502 0.782432
3018 4 0.199188 0.201433 0.775596
4220 4 0.248231 0.225697 0.774713
2996 4 0.258115 0.165826 0.762491
4219 2 0.272182 0.213813 0.776433
4221 4 0.296133 0.201928 0.778153
3416 4 0.306135 0.199646 0.795291
3415 2 0.321827 0.210675 0.809255
3417 4 0.337518 0.221704 0.823218
2883 4 0.353003 0.232181 0.822363
2881 2 0.377202 0.230124 0.815141
976 2 0.444855 0.173607 0.750494
978 4 0.468384 0.177701 0.75514
2882 4 0.401401 0.228067 0.807919
2277 4 0.487115 0.184018 0.755083
3373 2 0.0181423 0.286551 0.785409
3375 4 0.00751525 0.26886 0.774169
3374 4 0.0287694 0.304241 0.796649
848 4 0.027526 0.321366 0.786479
558 4 0.221403 0.322208 0.761642
556 2 0.239953 0.309802 0.775818
557 4 0.258502 0.297397 0.789995
4182 4 0.272538 0.280181 0.788064
4180 2 0.294494 0.27128 0.799379
4181 4 0.316451 0.262378 0.810693
2906 4 0.320115 0.280679 0.819637
2905 2 0.34124 0.290823 0.820062
2907 4 0.362365 0.300968 0.820486
1299 4 0.379614 0.298922 0.809866
1297 2 0.398836 0.311565 0.812804
1298 4 0.418058 0.324207 0.815741
998 4 0.436838 0.331446 0.819359
3389 4 0.0157581 0.401575 0.772828
847 2 0.0269972 0.343976 0.776333
849 4 0.0264684 0.366587 0.766186
3388 2 0.039092 0.404183 0.765546
3390 4 0.062426 0.406791 0.758265
535 2 0.107726 0.363977 0.810477
537 4 0.0914884 0.371389 0.791878
536 4 0.123964 0.356565 0.829075
1013 4 0.267174 0.360497 0.819556