ITEM: TIMESTEP
2138500
ITEM: NUMBER OF ATOMS
4590
ITEM: BOX BOUNDS xy xz yz pp pp pp
-9.9985700000000008e+00 9.9985700000000008e+00 0.0000000000000000e+00
-9.9985700000000008e+00 9.9985700000000008e+00 0.0000000000000000e+00
-9.9985700000000008e+00 9.9985700000000008e+00 0.0000000000000000e+00
ITEM: ATOMS id type xs ys zs
3485 4 0.018035 0.0631044 0.062997
1109 4 0.0113585 0.00992452 0.0140431
3484 2 0.0146878 0.0421811 0.0762714
1108 2 0.0202869 0.0297655 0.00172248
1925 4 0.186635 0.0204286 0.0587722
1924 2 0.171871 0.00223363 0.0500439
1006 2 0.385169 0.0556579 0.064344
1008 4 0.373157 0.0412216 0.0478365
1007 4 0.397181 0.0700943 0.0808515
4504 2 0.999043 0.137412 0.00619636
787 2 0.332484 0.126821 0.00340463
3234 4 0.34399 0.145484 0.0412153
788 4 0.333468 0.138734 0.0253658
3982 2 0.429144 0.0895831 0.0758682
113 3 0.466942 0.113503 0.00695504
1168 2 0.487272 0.0923529 0.0695658
1169 4 0.464078 0.0890183 0.0782897
3984 4 0.450433 0.0941189 0.0635637
114 3 0.430962 0.124804 0.00225003
300 4 0.0412164 0.208607 0.0730267
298 2 0.0167357 0.204932 0.076544
1262 4 0.0587509 0.194459 0.000625915
631 2 0.145487 0.17186 0.0751503
632 4 0.137969 0.170235 0.051359
2501 4 0.196898 0.207523 0.00569965
736 2 0.188869 0.246319 0.0711204
738 4 0.213345 0.243928 0.0666024
3232 2 0.361156 0.162571 0.0350032
3233 4 0.378321 0.179658 0.0287912
3193 2 0.0182622 0.298837 0.0701169
3194 4 0.0395526 0.295632 0.0828302
2804 4 0.116709 0.253326 0.0205386
2803 2 0.104095 0.264487 0.00205889
2961 4 0.140095 0.260383 0.0696178
2959 2 0.116485 0.257507 0.0773295
4088 4 0.157277 0.331796 0.0635353
2609 4 0.161268 0.315672 0.996118
2608 2 0.141102 0.329662 0.000897368
1028 4 0.228267 0.25546 0.0589861
1027 2 0.245687 0.263749 0.0748917
3211 2 0.202519 0.317528 0.00160908
3212 4 0.226821 0.318039 0.995749
3213 4 0.178217 0.317016 0.00746951
4437 4 0.274976 0.331854 0.00903313
637 2 0.0468196 0.370055 0.0663375
638 4 0.0247121 0.362763 0.075463
639 4 0.068927 0.377348 0.057212
2459 4 0.0796417 0.372292 0.0398226
2458 2 0.0995411 0.384599 0.0486391
2460 4 0.119441 0.396907 0.0574557
143 3 0.134081 0.409345 0.0637524
4089 4 0.157412 0.37809 0.0824456
4087 2 0.157344 0.354943 0.0729905
2610 4 0.120937 0.343651 0.00567699
4416 4 0.31905 0.376908 0.0186196
4436 4 0.298727 0.375406 0.0153476
4435 2 0.286852 0.35363 0.0121904
2976 4 0.405394 0.345136 0.0138176
3335 4 0.402919 0.351668 0.0324455
3334 2 0.381436 0.345178 0.0434699
3112 2 0.402956 0.395013 0.0060871
4414 2 0.339494 0.388611 0.0102366
3336 4 0.359953 0.338687 0.0544944
555 4 0.350308 0.353047 0.063355
4415 4 0.359938 0.400315 0.00185354
3113 4 0.426254 0.392307 0.0147521
906 4 0.442715 0.398912 0.00458153
904 2 0.464187 0.400201 0.0173269
905 4 0.48566 0.401489 0.0300722
4586 4 0.0718376 0.444428 0.0832932
1047 4 0.0738264 0.462059 0.0745483
1045 2 0.0914236 0.479196 0.0698731
1046 4 0.109021 0.496333 0.0651978
387 4 0.124671 0.492919 0.051761
1985 4 0.31282 0.492856 0.0536544
1984 2 0.293411 0.493378 0.0379002
1986 4 0.274002 0.493899 0.0221461
352 2 0.406451 0.491613 0.0390268
353 4 0.38899 0.487887 0.0565313
4478 4 0.500205 0.480598 0.0508463
4477 2 0.491709 0.499905 0.0642696
282 4 0.443843 0.498305 0.0219416
124 3 0.0602949 0.00181851 0.120766
1515 4 0.99849 0.00954021 0.098342
3486 4 0.0113407 0.0212579 0.0895458
3545 4 0.146767 0.0453394 0.128241
3544 2 0.12775 0.0336385 0.116989
3546 4 0.108732 0.0219375 0.105737
122 3 0.0899194 0.0184447 0.104683
396 4 0.0845918 0.0737984 0.13998
1437 4 0.160911 0.0540924 0.11702
404 4 0.219687 0.0333023 0.0884658
1436 4 0.204815 0.0465798 0.0942867
403 2 0.238042 0.0450226 0.10075
1435 2 0.182863 0.0503361 0.105653
2786 4 0.316379 0.0493363 0.0902589
405 4 0.256398 0.056743 0.113035
2606 4 0.274599 0.0624459 0.116618
2605 2 0.290729 0.0631747 0.135708
2607 4 0.30686 0.0639035 0.154799
2808 4 0.323608 0.0743889 0.157193
3983 4 0.407855 0.0850473 0.0881727
2785 2 0.331432 0.0323756 0.100792
257 4 0.365018 0.00946869 0.106452
2787 4 0.346484 0.0154149 0.111325
256 2 0.389885 0.0069515 0.105768
258 4 0.414752 0.00443432 0.105084
3809 4 0.425685 0.01851 0.113611
3808 2 0.434748 0.0225355 0.136564
3810 4 0.443811 0.0265609 0.159517
2755 2 0.0228812 0.122916 0.145745
2757 4 0.0438856 0.124196 0.159249
395 4 0.0547029 0.113113 0.147837
2756 4 0.00187682 0.121636 0.132242
394 2 0.0696474 0.0934556 0.143908
488 4 0.143808 0.097913 0.120097
487 2 0.123037 0.091111 0.13224
489 4 0.102265 0.0843089 0.144383
3270 4 0.159997 0.0906455 0.130072
3268 2 0.176374 0.093642 0.148726
3269 4 0.192751 0.0966385 0.167381
2709 4 0.170206 0.164444 0.0983169
1463 4 0.28062 0.153461 0.15619
2754 4 0.457495 0.162527 0.173152
737 4 0.164393 0.24871 0.0756385
633 4 0.153004 0.173484 0.0989415
474 4 0.129845 0.211764 0.152262
2838 4 0.217841 0.18058 0.139773
2708 4 0.213749 0.176151 0.119945
2707 2 0.191978 0.170297 0.109131
2836 2 0.208308 0.182818 0.16278
2967 4 0.316436 0.244119 0.106692
2753 4 0.500016 0.176408 0.150792
2752 2 0.478756 0.169467 0.161972
2528 4 0.0484193 0.283839 0.0968619
2527 2 0.064613 0.264789 0.0971128
1104 4 0.0612783 0.319079 0.120514
1102 2 0.0372446 0.320903 0.127166
1103 4 0.0132108 0.322727 0.133818
2529 4 0.0808067 0.245739 0.0973638
1511 4 0.0809042 0.324458 0.11703
2960 4 0.0928743 0.254631 0.0850411
1029 4 0.263108 0.272038 0.0907974
2966 4 0.27627 0.260532 0.0818325
2965 2 0.296353 0.252325 0.0942622
3106 2 0.341046 0.299525 0.144725
3107 4 0.345432 0.298321 0.120139
708 4 0.41065 0.277397 0.139138
706 2 0.42031 0.287513 0.159863
2634 4 0.464398 0.263539 0.0955726
2633 4 0.429187 0.27462 0.129308
2632 2 0.446793 0.26908 0.11244
2969 4 0.482172 0.254676 0.098621
690 4 0.00385146 0.33342 0.148041
783 4 0.0168849 0.348507 0.086219
1510 2 0.0988841 0.341221 0.121603
141 1 0.140434 0.40661 0.0859015
145 3 0.140678 0.384472 0.0912381
1512 4 0.116864 0.357984 0.126177
2511 4 0.125529 0.363146 0.146076
2509 2 0.124434 0.383496 0.160563
4587 4 0.106367 0.411787 0.0988807
142 3 0.125292 0.417485 0.0993774
144 3 0.161463 0.415807 0.0893047
2578 2 0.297498 0.348287 0.134857
2579 4 0.313989 0.350079 0.116148
554 4 0.327692 0.363084 0.106812
2580 4 0.281007 0.346495 0.153565
553 2 0.339 0.358065 0.0850836
2547 4 0.994359 0.482992 0.0982467
2590 2 0.0401927 0.479694 0.139932
2591 4 0.0232274 0.472341 0.156762
2592 4 0.057158 0.487047 0.123101
3492 4 0.0734023 0.49855 0.124529
3596 4 0.00951325 0.477809 0.143205
524 4 0.167194 0.426667 0.104739
4585 2 0.0891025 0.428107 0.0910869
288 4 0.224363 0.433757 0.143238
523 2 0.186882 0.427578 0.120127
525 4 0.206569 0.428489 0.135514
286 2 0.245796 0.435867 0.130535
2614 2 0.237935 0.494088 0.141364
2615 4 0.243988 0.478456 0.159916
3882 4 0.253084 0.460869 0.162995
287 4 0.267229 0.437977 0.117832
751 2 0.30947 0.434277 0.124821
752 4 0.284983 0.439084 0.126386
753 4 0.333958 0.42947 0.123256
2780 4 0.424826 0.492468 0.152819
2779 2 0.421324 0.501773 0.129876
3061 2 0.0598414 0.0530298 0.244616
1689 4 0.142679 0.0191472 0.25113
3062 4 0.0780928 0.0473259 0.228506
3876 4 0.158693 0.0250754 0.190463
3874 2 0.172271 0.00619307 0.181283
3553 2 0.169506 0.0536033 0.246111
588 4 0.190827 0.0754686 0.222688
3554 4 0.180925 0.0750447 0.24019
586 2 0.192663 0.0759379 0.197757
587 4 0.194498 0.0764072 0.172825
349 2 0.491088 0.0434476 0.23418
350 4 0.474702 0.0619784 0.23783
713 4 0.0548057 0.137255 0.213927
2534 4 0.0678141 0.126746 0.224433
712 2 0.0400334 0.14255 0.19446
714 4 0.0252611 0.147845 0.174994
2533 2 0.0858675 0.144045 0.224446
2535 4 0.103921 0.161345 0.224458
52 3 0.122861 0.168673 0.224409
641 4 0.301244 0.162893 0.212698
1462 2 0.291871 0.163518 0.176127
3236 4 0.327319 0.147706 0.237056
3588 4 0.378212 0.161815 0.17986
1231 2 0.414844 0.169348 0.170008
2806 2 0.333673 0.0887878 0.174984
3586 2 0.36762 0.139756 0.184998
3587 4 0.357028 0.117696 0.190137
2807 4 0.343739 0.103187 0.192776
1232 4 0.438635 0.1625 0.166504
472 2 0.133489 0.211403 0.176996
473 4 0.137133 0.211042 0.20173
2574 4 0.138225 0.213435 0.221042
54 3 0.121959 0.205931 0.229277
2572 2 0.145595 0.23607 0.228696
51 1 0.124454 0.185507 0.240004
2513 4 0.16359 0.18811 0.242001
53 3 0.145289 0.184384 0.250155
2512 2 0.179764 0.190842 0.22313
2514 4 0.195939 0.193574 0.204259
2837 4 0.198776 0.185056 0.185787
1464 4 0.303121 0.173574 0.196064
640 2 0.302102 0.181227 0.229677
1762 2 0.28862 0.235243 0.225429
642 4 0.30296 0.199562 0.246656
1764 4 0.295984 0.21275 0.233492
1233 4 0.391053 0.176195 0.173513
664 2 0.466496 0.212582 0.213627
666 4 0.480646 0.220759 0.23255
665 4 0.452346 0.204404 0.194703
2675 4 0.479195 0.208442 0.247786
2601 4 0.0213124 0.283832 0.24482
244 2 0.142878 0.289971 0.250443
2573 4 0.152966 0.258704 0.23635
245 4 0.154747 0.279082 0.231318
2841 4 0.209922 0.326705 0.209329
2839 2 0.217705 0.318238 0.23153
2840 4 0.225488 0.30977 0.253732
1763 4 0.281255 0.257736 0.217365
2909 4 0.299937 0.264418 0.21327
2908 2 0.315569 0.278986 0.200285
3818 4 0.294852 0.325111 0.213345
2910 4 0.331202 0.293553 0.187301
3108 4 0.33666 0.300728 0.169312
707 4 0.42997 0.297628 0.180588
284 4 0.491912 0.294914 0.191402
283 2 0.467485 0.30025 0.191545
285 4 0.443058 0.305587 0.191688
372 4 0.494902 0.281481 0.175262
3221 4 0.0790039 0.40411 0.248614
3960 4 0.115427 0.392983 0.190945
2510 4 0.12334 0.403846 0.175049
3958 2 0.103178 0.393635 0.212734
3959 4 0.0909303 0.394288 0.234522
110 3 0.303717 0.338693 0.225393
3817 2 0.288031 0.338672 0.193477
3819 4 0.281211 0.352234 0.173608
106 1 0.313141 0.350896 0.242154
108 3 0.318562 0.372093 0.23443
4511 4 0.35126 0.335106 0.250922
109 3 0.33219 0.340206 0.249983
3220 2 0.06305 0.42263 0.243354
1390 2 0.0236486 0.466585 0.235672
1392 4 0.0192422 0.489989 0.228055
3884 4 0.00725976 0.495623 0.212474
3222 4 0.0470961 0.44115 0.238094
1391 4 0.0280551 0.44318 0.24329
1559 4 0.158174 0.478714 0.16098
2043 4 0.156943 0.476142 0.181506
2817 4 0.209157 0.479388 0.219635
2041 2 0.177088 0.483068 0.194598
2042 4 0.197232 0.489993 0.20769
3880 2 0.251652 0.460715 0.187957
2815 2 0.211239 0.469175 0.242362
3784 2 0.271679 0.475179 0.236013
3785 4 0.270586 0.462199 0.214671
3881 4 0.250221 0.460561 0.212919
2141 4 0.421727 0.489692 0.172788
2140 2 0.431282 0.473434 0.189207
2142 4 0.440836 0.457175 0.205626
279 4 0.450028 0.440951 0.208479
277 2 0.451634 0.446356 0.232839
3063 4 0.04159 0.0587337 0.260726
18 3 0.00585015 0.0750783 0.270863
20 3 0.0426107 0.0777485 0.263167
3555 4 0.158086 0.0321618 0.252032
517 2 0.147174 0.0670681 0.336552
19 3 0.0201385 0.107193 0.256409
2677 2 0.00687804 0.141834 0.265433
16 1 0.0242846 0.089163 0.270414
17 3 0.028168 0.0970091 0.291686
1517 4 0.0247218 0.11688 0.288475
1516 2 0.0347438 0.123857 0.310294
2678 4 0.0139635 0.118746 0.271905
577 2 0.139903 0.126049 0.325256
578 4 0.155008 0.107342 0.318397
1797 4 0.0898916 0.169877 0.297838
518 4 0.151727 0.0883819 0.324296
3237 4 0.331826 0.135152 0.285251
3235 2 0.329572 0.141429 0.261153
365 4 0.346132 0.124884 0.295564
364 2 0.341906 0.13259 0.318972
1796 4 0.0495713 0.191689 0.277859
1795 2 0.0697314 0.180783 0.287849
1799 4 0.148639 0.178199 0.299105
55 3 0.108063 0.182865 0.255593
1798 2 0.131981 0.194155 0.308755
1800 4 0.115323 0.21011 0.318406
2917 2 0.217209 0.236292 0.308315
2919 4 0.197888 0.222009 0.315235
2674 2 0.490833 0.194824 0.26523
1602 4 0.0801572 0.253343 0.307754
1601 4 0.0366456 0.273022 0.292915
1600 2 0.0584014 0.263183 0.300335
338 4 0.112789 0.302616 0.277904
2798 4 0.0968591 0.258458 0.320282
246 4 0.131009 0.30086 0.269567
337 2 0.0980361 0.318564 0.265526
2659 2 0.16777 0.330906 0.306198
2660 4 0.143823 0.337278 0.309534
2918 4 0.23653 0.250576 0.301395
677 4 0.220947 0.306491 0.274043
678 4 0.239148 0.269895 0.302856
676 2 0.230047 0.288193 0.28845
2661 4 0.191717 0.324535 0.302861
3708 4 0.365134 0.291674 0.334302
494 4 0.401487 0.325948 0.294956
4512 4 0.383606 0.324657 0.287602
410 4 0.469237 0.323388 0.305389
339 4 0.0832833 0.334512 0.253148
2490 4 0.0670427 0.34286 0.306434
2488 2 0.0476732 0.353143 0.294422
2489 4 0.0283036 0.363425 0.282411
581 4 0.0225028 0.381624 0.27463
580 2 0.00777384 0.399938 0.283164
1863 4 0.0806378 0.359804 0.30897
1862 4 0.129835 0.350875 0.309719
1861 2 0.105236 0.355339 0.309345
269 4 0.19955 0.338627 0.315169
268 2 0.219983 0.350216 0.306603
270 4 0.240415 0.361805 0.298036
417 4 0.245866 0.364479 0.27981
107 3 0.298102 0.352902 0.259444
415 2 0.270625 0.360992 0.279903
416 4 0.295384 0.357506 0.279996
4510 2 0.367433 0.329882 0.269262
495 4 0.450201 0.335538 0.300927
493 2 0.425844 0.330743 0.297941
409 2 0.486787 0.34064 0.309812
1576 2 0.0173106 0.492613 0.289634
3687 4 0.00220492 0.43584 0.292956
1578 4 0.995428 0.480689 0.291669
2816 4 0.213321 0.458963 0.26509
669 4 0.201306 0.459338 0.282309
667 2 0.215733 0.449068 0.29996
668 4 0.23016 0.438798 0.317612
2507 4 0.243427 0.436651 0.333246
854 4 0.257182 0.488712 0.269069
3786 4 0.272773 0.488159 0.257356
773 4 0.497502 0.486026 0.285052
278 4 0.453239 0.45176 0.257198
774 4 0.456806 0.458002 0.277353
772 2 0.477154 0.472014 0.281203
1377 4 0.997938 0.0286599 0.348418
1375 2 0.0194427 0.0319698 0.360738
1376 4 0.0409475 0.0352797 0.373057
2715 4 0.0429729 0.015379 0.379052
1866 4 0.137363 0.0253992 0.399975
1864 2 0.140414 0.0254805 0.375158
1865 4 0.143465 0.0255619 0.350342
519 4 0.142621 0.0457543 0.348807
2553 4 0.228576 0.0250412 0.354983
2261 4 0.241032 0.0102695 0.353858
2551 2 0.238091 0.0481312 0.35376
2552 4 0.247605 0.0712213 0.352536
400 2 0.385815 0.0698109 0.394609
402 4 0.366964 0.0743519 0.378824
401 4 0.404667 0.0652699 0.410395
1623 4 0.352619 0.0799731 0.390801
1216 2 0.486557 0.999761 0.368943
1218 4 0.487261 0.0186391 0.385324
3665 4 0.496623 0.0146727 0.402609
3664 2 0.483664 0.0329254 0.413748
1518 4 0.0447657 0.130835 0.332112
296 4 0.0636273 0.129677 0.34042
295 2 0.0789694 0.149388 0.339289
579 4 0.124798 0.144757 0.332114
3548 4 0.236678 0.117749 0.393831
3547 2 0.246902 0.0991816 0.380567
3029 4 0.225672 0.103797 0.403825
3028 2 0.206633 0.114053 0.416376
3549 4 0.257125 0.0806145 0.367303
1622 4 0.316959 0.102129 0.363631
1621 2 0.334789 0.0910513 0.377216
366 4 0.33768 0.140297 0.34238
383 4 0.35001 0.142054 0.359407
382 2 0.361548 0.148089 0.380753
384 4 0.373086 0.154124 0.402099
3324 4 0.0501033 0.198735 0.410253
681 4 0.059355 0.248815 0.415994
297 4 0.0943115 0.169099 0.338158
3807 4 0.191669 0.199597 0.383757
1698 4 0.201321 0.218437 0.381808
1696 2 0.195821 0.222323 0.357728
1697 4 0.190321 0.226208 0.333648
3805 2 0.191423 0.18545 0.404373
2655 4 0.0641764 0.251379 0.396541
1060 2 0.00723992 0.299625 0.369542
1062 4 0.030336 0.293581 0.376974
451 2 0.0638948 0.321855 0.354658
2654 4 0.0304276 0.274774 0.368003
2653 2 0.047302 0.263077 0.382272
568 2 0.0523677 0.319851 0.414514
453 4 0.0779744 0.301985 0.360325
570 4 0.0750548 0.330312 0.415535
2797 2 0.0920296 0.271246 0.341218
2799 4 0.0872001 0.284034 0.362155
2 3 0.100277 0.319163 0.39971
3019 2 0.187988 0.330037 0.394659
3021 4 0.20374 0.328104 0.375338
3020 4 0.172235 0.331969 0.413979
3707 4 0.408906 0.269349 0.343599
3706 2 0.38702 0.280512 0.338951
229 2 0.495769 0.299514 0.357076
438 4 0.423172 0.27246 0.357342
437 4 0.456148 0.305692 0.374918
436 2 0.43966 0.289076 0.36613
231 4 0.47437 0.308472 0.366403
344 4 0.489354 0.261784 0.386463
343 2 0.493866 0.270617 0.409416
452 4 0.0498152 0.341726 0.348991
2666 4 0.0677302 0.409118 0.401657
2665 2 0.0859061 0.391949 0.401865
2667 4 0.104082 0.37478 0.402074
1 1 0.104982 0.33423 0.416443
3 3 0.109173 0.354964 0.406906
2296 2 0.0690199 0.449692 0.389805
2298 4 0.0665593 0.469446 0.374674
2297 4 0.0714804 0.429939 0.404936
2506 2 0.253462 0.441015 0.355729
2508 4 0.263497 0.445378 0.378211
3167 4 0.489609 0.455537 0.377579
3168 4 0.44975 0.483601 0.366424
3166 2 0.46968 0.469569 0.372002
813 4 0.0545298 0.0383988 0.451775
2963 4 0.0172055 0.0761041 0.467091
811 2 0.0359308 0.0487682 0.46488
812 4 0.0173317 0.0591376 0.477984
3051 4 0.412232 0.0739932 0.426933
3049 2 0.432106 0.0589077 0.425307
3666 4 0.470704 0.0511782 0.424886
3050 4 0.45198 0.0438222 0.423681
3957 4 0.072059 0.0842473 0.484206
2518 2 0.00736794 0.149279 0.461328
2520 4 0.0099712 0.149974 0.43647
2519 4 0.00476469 0.148584 0.486187
3488 4 0.0195831 0.160422 0.49328
1817 4 0.137463 0.154095 0.454415
1816 2 0.153889 0.137151 0.446152
2824 2 0.15283 0.106775 0.501434
2825 4 0.13007 0.0982559 0.495552
3956 4 0.116005 0.108091 0.485155
1818 4 0.170316 0.120207 0.43789
3955 2 0.0940321 0.0961693 0.48468
1143 4 0.133478 0.166319 0.469096
3030 4 0.187595 0.124309 0.428928
2695 2 0.213027 0.132275 0.490383
2696 4 0.233006 0.140277 0.477654
4000 2 0.271696 0.130555 0.497063
4001 4 0.248733 0.135651 0.488584
663 4 0.369987 0.160893 0.42059
3326 4 0.351022 0.126102 0.491107
3322 2 0.0593722 0.196155 0.433331
3323 4 0.0686411 0.193576 0.45641
1142 4 0.0899295 0.188044 0.457591
1141 2 0.111704 0.177181 0.463344
3806 4 0.191176 0.171303 0.424989
357 4 0.190753 0.18228 0.441525
355 2 0.200475 0.190788 0.462933
356 4 0.210197 0.199296 0.484341
576 4 0.22133 0.213766 0.490063
661 2 0.380075 0.18365 0.422942
662 4 0.390164 0.206407 0.425293
1766 4 0.376187 0.219778 0.419112
1765 2 0.357011 0.235041 0.424062
1767 4 0.337834 0.250304 0.429012
569 4 0.0296805 0.309389 0.413493
614 4 0.010715 0.302025 0.421069
2340 4 0.0218605 0.263791 0.463286
680 4 0.0405311 0.257425 0.461517
679 2 0.0499431 0.25312 0.438755
2492 4 0.131938 0.332027 0.445814
5 3 0.123289 0.327144 0.427988
4 3 0.0866968 0.335601 0.430661
2491 2 0.154292 0.320846 0.446483
2493 4 0.176646 0.309664 0.447152
2848 2 0.205449 0.288327 0.46896
2849 4 0.186219 0.303927 0.465492
2850 4 0.224679 0.272728 0.472428
2355 4 0.322373 0.265265 0.491234
2353 2 0.333326 0.261568 0.469063
2354 4 0.344279 0.25787 0.446892
345 4 0.498378 0.27945 0.432368
3023 4 0.0589663 0.396025 0.490969
3024 4 0.0681285 0.348798 0.477312
3022 2 0.0635474 0.372411 0.48414
711 4 0.207273 0.402721 0.46937
2349 4 0.116736 0.483366 0.474843
2347 2 0.131086 0.472849 0.492411
709 2 0.227524 0.417343 0.470486
710 4 0.247775 0.431966 0.471602
1812 4 0.267197 0.434146 0.468867
1810 2 0.284746 0.430413 0.486282
1269 4 0.151477 0.0484522 0.573118
3358 2 0.169486 0.0329549 0.534646
3360 4 0.156878 0.0394027 0.555253
1267 2 0.165598 0.0687707 0.576715
3359 4 0.182094 0.026507 0.514039
1210 2 0.238533 0.0352661 0.561038
1212 4 0.249699 0.0293699 0.539458
804 4 0.266611 0.00486268 0.504391
2205 4 0.443159 0.0320561 0.585909
3487 2 0.0249475 0.151161 0.515878
3489 4 0.030312 0.1419 0.538475
266 4 0.0472146 0.136053 0.548394
265 2 0.0689058 0.145434 0.55656
267 4 0.090597 0.154815 0.564727
2981 4 0.0969355 0.143045 0.578749
2980 2 0.119248 0.153715 0.582419
2697 4 0.193048 0.124274 0.503111
1268 4 0.179719 0.0890891 0.580312
2826 4 0.175589 0.115294 0.507315
3327 4 0.309464 0.131701 0.518354
3325 2 0.330243 0.128902 0.504731
4002 4 0.29466 0.125459 0.505542
650 4 0.3575 0.139905 0.504655
649 2 0.380962 0.146468 0.510284
651 4 0.404423 0.15303 0.515913
3460 2 0.474591 0.129747 0.577284
3461 4 0.487518 0.140229 0.558623
3039 4 0.0777318 0.203923 0.543777
3037 2 0.0811603 0.22854 0.541057
2568 4 0.0805606 0.207412 0.578898
574 2 0.226807 0.222814 0.51272
575 4 0.232284 0.231861 0.535376
3524 4 0.236979 0.216127 0.547427
3523 2 0.257279 0.211562 0.561293
3525 4 0.277579 0.206998 0.575159
1181 4 0.41203 0.16895 0.52633
1180 2 0.41239 0.193197 0.532423
1182 4 0.41275 0.217445 0.538516
2991 4 0.0755444 0.269108 0.545454
2175 4 0.0407695 0.310033 0.559485
3038 4 0.0845888 0.253158 0.538338
2989 2 0.0843649 0.291066 0.553528
2990 4 0.0931854 0.313025 0.561601
2171 4 0.111966 0.311919 0.568757
4422 4 0.205508 0.24914 0.572677
1205 4 0.276521 0.313248 0.558323
1204 2 0.256216 0.327528 0.555324
2376 4 0.384554 0.316792 0.553581
936 4 0.393359 0.303439 0.542205
2374 2 0.365711 0.323619 0.538631
934 2 0.41226 0.287368 0.545312
935 4 0.43116 0.271297 0.548418
503 4 0.449981 0.276671 0.550345
502 2 0.462773 0.286642 0.569374
510 4 0.495961 0.33273 0.521685
2173 2 0.0239869 0.328153 0.555583
2174 4 0.00720425 0.346272 0.551681
979 2 0.0594031 0.411799 0.528695
981 4 0.0485259 0.401115 0.508878
2170 2 0.107043 0.334543 0.578197
2499 4 0.224767 0.348719 0.567949
1206 4 0.235911 0.341807 0.552325
1907 4 0.307635 0.42694 0.522938
1906 2 0.329043 0.415725 0.52935
2375 4 0.346867 0.330445 0.52368
1908 4 0.350451 0.40451 0.535761
3500 4 0.488288 0.334528 0.539895
3501 4 0.457133 0.372396 0.549701
3499 2 0.47271 0.353462 0.544798
980 4 0.0702804 0.422484 0.548512
2801 4 0.0897545 0.424346 0.539958
2800 2 0.0977 0.446815 0.547519
2802 4 0.105645 0.469285 0.555081
431 4 0.15507 0.445981 0.515904
430 2 0.162386 0.437028 0.538074
2348 4 0.145436 0.462332 0.50998
3057 4 0.184262 0.43755 0.569152
432 4 0.169703 0.428075 0.560244
3055 2 0.207414 0.431728 0.576588
1811 4 0.302294 0.426681 0.503697
2156 4 0.474249 0.443529 0.554867
2155 2 0.497055 0.44119 0.544889
2115 4 0.0188131 0.0301835 0.609896
2113 2 0.00842377 0.0286612 0.632588
1283 4 0.0266242 0.0143697 0.600195
1211 4 0.227367 0.0411623 0.582619
340 2 0.218795 0.0263826 0.611615
341 4 0.229494 0.0469474 0.602244
342 4 0.208097 0.00581779 0.620985
2204 4 0.398527 0.0432722 0.605475
316 2 0.374829 0.0145386 0.617426
318 4 0.35378 0.00110967 0.616086
317 4 0.395878 0.0279676 0.618765
2203 2 0.420843 0.0376641 0.595692
3084 4 0.446891 0.0161643 0.596853
2971 2 0.476083 0.0164682 0.66278
2973 4 0.454322 0.0287589 0.66355
2972 4 0.497843 0.00417758 0.662009
375 4 0.0593104 0.0948194 0.60614
373 2 0.0796898 0.0967273 0.59178
468 4 0.0450223 0.0821781 0.608343
466 2 0.0296821 0.0979362 0.620241
467 4 0.014342 0.113694 0.632138
2982 4 0.141561 0.164386 0.586088
374 4 0.100069 0.0986353 0.577419
3364 2 0.134699 0.161988 0.659699
3366 4 0.111955 0.151803 0.65766
4182 4 0.188851 0.10528 0.590573
4180 2 0.200688 0.106194 0.612578
4181 4 0.212525 0.107108 0.634584
2240 4 0.214128 0.113428 0.652593
2239 2 0.235111 0.126935 0.654158
879 4 0.321146 0.0904351 0.664192
2241 4 0.256095 0.140442 0.655722
877 2 0.333563 0.100019 0.64472
1098 4 0.359831 0.120084 0.614013
1096 2 0.383219 0.120926 0.622812
878 4 0.34598 0.109602 0.625248
1097 4 0.406608 0.121767 0.631612
3870 4 0.401751 0.123791 0.650855
3462 4 0.461665 0.119265 0.595945
3304 2 0.0709249 0.213092 0.655343
3306 4 0.0912707 0.207318 0.642005
2567 4 0.100975 0.207093 0.624548
2566 2 0.0907678 0.207252 0.601723
3365 4 0.157443 0.172174 0.661737
1193 4 0.17453 0.165033 0.670973
1192 2 0.194986 0.179412 0.670883
2832 4 0.256273 0.233215 0.598118
2831 4 0.27228 0.238763 0.645168
2830 2 0.264276 0.235989 0.621643
3477 4 0.307883 0.191792 0.651778
1185 4 0.265069 0.227283 0.661085
3475 2 0.332251 0.196329 0.648489
3476 4 0.356618 0.200866 0.6452
3130 2 0.376782 0.230282 0.650472
3132 4 0.367768 0.208935 0.659867
4420 2 0.193767 0.254516 0.594088
4421 4 0.182027 0.259892 0.6155
3191 4 0.187447 0.27546 0.626776
3190 2 0.178789 0.264515 0.647523
3165 4 0.225044 0.322157 0.643803
290 4 0.241785 0.314785 0.632409
289 2 0.265733 0.320395 0.627916
1919 4 0.306354 0.315385 0.628364
291 4 0.289682 0.326006 0.623423
1918 2 0.323874 0.325713 0.64291
3158 4 0.382302 0.325923 0.589055
3131 4 0.385795 0.251628 0.641078
3027 4 0.343391 0.300495 0.632248
3025 2 0.361476 0.283312 0.630573
3026 4 0.379562 0.266128 0.628897
3157 2 0.381008 0.33356 0.612829
504 4 0.475566 0.296613 0.588404
1079 4 0.494805 0.289008 0.590605
3183 4 0.0505983 0.415209 0.619136
945 4 0.0520157 0.414262 0.598976
2172 4 0.102119 0.357167 0.587636
2497 2 0.213338 0.346409 0.590067
2498 4 0.20191 0.344099 0.612186
4308 4 0.273625 0.338937 0.664958
1920 4 0.341393 0.336041 0.657456
3159 4 0.379715 0.341196 0.636603
3141 4 0.386998 0.35849 0.62975
3139 2 0.39862 0.380221 0.633981
3140 4 0.410242 0.401951 0.638213
7 3 0.429831 0.397563 0.641822
6 1 0.449906 0.406509 0.648616
10 3 0.464333 0.406804 0.630997
2324 4 0.482715 0.415427 0.628446
9 3 0.458551 0.393414 0.665709
943 2 0.0278511 0.418126 0.593846
3181 2 0.0581372 0.426383 0.640194
3182 4 0.0656762 0.437557 0.661253
2033 4 0.0812225 0.447739 0.654332
944 4 0.00368661 0.42199 0.588715
2032 2 0.106011 0.450912 0.65353
2034 4 0.130799 0.454085 0.652728
3264 4 0.14846 0.447717 0.658913
4535 4 0.131888 0.499587 0.64214
4148 4 0.140778 0.493709 0.625056
3056 4 0.230566 0.425905 0.584023
2106 4 0.291724 0.440191 0.626312
2104 2 0.31665 0.439514 0.62446
2105 4 0.341576 0.438838 0.622609
3737 4 0.39611 0.439358 0.612486
3738 4 0.351466 0.454911 0.628786
3736 2 0.373788 0.447135 0.620636
8 3 0.446288 0.42812 0.656249
3070 2 0.445866 0.458285 0.627847
3071 4 0.44364 0.435226 0.637255
3072 4 0.448093 0.481344 0.618439
4412 4 0.462266 0.495073 0.622535
3313 2 0.0446194 0.00920158 0.74701
845 4 0.0807198 0.0732336 0.681084
2292 4 0.0689051 0.998918 0.713562
844 2 0.0903099 0.0629996 0.701783
846 4 0.0999 0.0527657 0.722483
1971 4 0.0976913 0.0603227 0.74138
2597 4 0.3081 0.0779354 0.670945
2598 4 0.27143 0.069156 0.703792
2596 2 0.289765 0.0735457 0.687369
3458 4 0.433057 0.0452224 0.725958
3457 2 0.438846 0.0425348 0.701783
3459 4 0.444636 0.0398473 0.677608
636 4 0.449955 0.0663174 0.733516
634 2 0.473022 0.0642367 0.742939
2627 4 0.019726 0.163404 0.745878
2977 2 0.0909357 0.11535 0.674167
2978 4 0.100497 0.137159 0.666539
2979 4 0.0813747 0.0935422 0.681795
1943 4 0.263299 0.0877348 0.706134
1942 2 0.262022 0.0954555 0.729882
3868 2 0.404379 0.12266 0.675694
3869 4 0.407008 0.121529 0.700534
3305 4 0.0505791 0.218866 0.668681
2265 4 0.0424839 0.210559 0.684798
2263 2 0.0188146 0.213334 0.692365
3380 4 0.122705 0.23862 0.714913
3379 2 0.139766 0.241043 0.696796
3381 4 0.156828 0.243466 0.678679
1194 4 0.215441 0.193791 0.670792
1184 4 0.234489 0.190075 0.674548
1183 2 0.249779 0.208679 0.667817
443 4 0.468697 0.191109 0.745836
442 2 0.445241 0.199465 0.748116
3192 4 0.170132 0.253569 0.668269
3163 2 0.212504 0.320506 0.665371
3164 4 0.199964 0.318856 0.68694
259 2 0.205101 0.32492 0.723737
261 4 0.200397 0.319926 0.747781
1088 4 0.34881 0.284692 0.741121
2415 4 0.49924 0.27443 0.694145
3618 4 0.00965215 0.405458 0.747082
3616 2 0.0113543 0.410053 0.722563
3617 4 0.0130564 0.414648 0.698045
260 4 0.209806 0.329913 0.699693
2037 4 0.236754 0.388297 0.688162
2035 2 0.218544 0.403844 0.680959
1614 4 0.217464 0.350814 0.747815
4307 4 0.255794 0.380505 0.686287
4306 2 0.26471 0.359721 0.675623
3153 4 0.456298 0.381204 0.682518
3152 4 0.468611 0.357928 0.725032
3151 2 0.462454 0.369566 0.703775
2858 4 0.461911 0.339158 0.730498
3262 2 0.165456 0.433422 0.6704
3263 4 0.182453 0.419127 0.681887
2036 4 0.200333 0.419391 0.673756
4060 2 0.246058 0.492544 0.682471
4062 4 0.225274 0.481105 0.690366
4577 4 0.17953 0.462859 0.723037
4576 2 0.195656 0.465248 0.704079
4578 4 0.211783 0.467638 0.685121
3315 4 0.0254686 0.0153426 0.761867
1969 2 0.116376 0.073628 0.751332
1970 4 0.135061 0.0869334 0.761283
4164 4 0.441856 0.0758974 0.749102
635 4 0.496088 0.062156 0.752362
2626 2 0.99824 0.158551 0.75771
2949 4 0.146657 0.100505 0.769679
2947 2 0.156708 0.109054 0.790918
2948 4 0.16676 0.117602 0.812157
2199 4 0.273071 0.11939 0.760224
1944 4 0.260744 0.103176 0.753629
2197 2 0.295881 0.117879 0.770353
2198 4 0.318692 0.116368 0.780482
1259 4 0.334208 0.115359 0.767998
1258 2 0.356181 0.113059 0.779706
1260 4 0.378154 0.110759 0.791413
2136 4 0.386104 0.108341 0.809826
2134 2 0.40287 0.126883 0.810379
4163 4 0.421711 0.119825 0.76196
4162 2 0.431784 0.097861 0.755531
2135 4 0.419635 0.145426 0.810932
825 4 0.422645 0.164815 0.813784
2794 2 0.0220636 0.202246 0.81228
2796 4 0.0464925 0.206111 0.808605
275 4 0.0662618 0.213108 0.811215
274 2 0.0898647 0.21748 0.804218
276 4 0.113468 0.221852 0.797221
471 4 0.221842 0.204526 0.825179
469 2 0.242159 0.210321 0.811806
3104 4 0.313833 0.23556 0.7558
470 4 0.262476 0.216115 0.798433
3387 4 0.314767 0.218599 0.764848
3386 4 0.273301 0.202889 0.787969
3385 2 0.294034 0.210744 0.776409
3280 2 0.40082 0.232713 0.779361
3282 4 0.384426 0.244978 0.793714
823 2 0.443175 0.169939 0.800463
3281 4 0.417214 0.220449 0.765008
3081 4 0.480426 0.170372 0.796393
444 4 0.421785 0.207821 0.750396
824 4 0.463704 0.175063 0.787141
37 3 0.20404 0.315872 0.793878
39 3 0.1858 0.322242 0.761638
611 4 0.217965 0.319918 0.80924
36 1 0.192114 0.331513 0.78195
610 2 0.212313 0.32291 0.833412
40 3 0.173635 0.337515 0.79383
3103 2 0.332819 0.250404 0.749134
1422 4 0.291144 0.272141 0.819171
2988 4 0.291874 0.265704 0.799965
2986 2 0.294513 0.286012 0.785619
2987 4 0.297151 0.30632 0.771272
3105 4 0.351804 0.265247 0.742468
1087 2 0.362915 0.300262 0.75468
1089 4 0.377019 0.315831 0.768239
1255 2 0.384874 0.290615 0.803615
1256 4 0.381776 0.309216 0.787195
1257 4 0.387972 0.272015 0.820035
3297 4 0.454218 0.319904 0.79075
3296 4 0.496328 0.302723 0.811543
3295 2 0.475273 0.311313 0.801146
2859 4 0.44365 0.321014 0.773371
2857 2 0.452781 0.330086 0.751934
1014 4 0.167384 0.399676 0.806399
1012 2 0.167604 0.37473 0.808093
2864 4 0.149651 0.405568 0.813576
2863 2 0.127867 0.409813 0.825092
1013 4 0.167824 0.349785 0.809788
1612 2 0.235186 0.364567 0.758859
38 3 0.20558 0.350063 0.778346
1613 4 0.252907 0.37832 0.769904
4092 4 0.251753 0.396757 0.775901
4090 2 0.270507 0.402873 0.791265
4091 4 0.28926 0.40899 0.806629
1121 4 0.000269188 0.441509 0.794798
1120 2 0.0177902 0.457644 0.787192
3243 4 0.0452984 0.488663 0.770608
3241 2 0.065737 0.49833 0.781285
1122 4 0.0353112 0.47378 0.779586
4431 4 0.00179942 0.420883 0.793663
792 4 0.098924 0.495928 0.802789
790 2 0.117903 0.48042 0.807735
791 4 0.136882 0.464912 0.812682
2865 4 0.106084 0.414058 0.836608
4189 2 0.167113 0.493709 0.774552
2379 4 0.179679 0.487528 0.803513
2377 2 0.178749 0.488422 0.828484
4190 4 0.187816 0.485864 0.786172
1280 4 0.298273 0.4271 0.803558
1279 2 0.321654 0.434603 0.808271
1281 4 0.345035 0.442106 0.812985
4367 4 0.388779 0.481984 0.763882
4366 2 0.408427 0.488931 0.777698
4368 4 0.428075 0.495878 0.791513
1759 2 0.0692642 0.0583996 0.909205
1760 4 0.0806012 0.0800881 0.904079
2320 2 0.302642 0.0721928 0.880025
4338 4 0.32392 0.0401365 0.863072