ITEM: TIMESTEP
1916500
ITEM: NUMBER OF ATOMS
4590
ITEM: BOX BOUNDS xy xz yz pp pp pp
-9.9985700000000008e+00 1.6597626200000008e+01 6.5990562000000068e+00
-9.9985700000000008e+00 9.9985700000000008e+00 0.0000000000000000e+00
-9.9985700000000008e+00 9.9985700000000008e+00 0.0000000000000000e+00
ITEM: ATOMS id type xs ys zs
1108 2 0.0315829 0.0425349 0.999875
1109 4 0.0489455 0.051069 0.0119236
1926 4 0.0585262 0.0596654 0.025277
124 3 0.0537057 0.0391188 0.0832584
1924 2 0.0826533 0.0588849 0.0178728
1925 4 0.10678 0.0581043 0.0104685
1006 2 0.278764 0.0727615 0.0139883
2855 4 0.244476 0.0307063 0.055271
2856 4 0.289677 0.020824 0.0298908
2854 2 0.267076 0.0257651 0.0425809
1007 4 0.299132 0.0722807 0.0287039
702 4 0.249049 0.0224271 0.0739561
258 4 0.304578 0.0325002 0.0862993
2787 4 0.319846 0.0240687 0.0711671
4096 2 0.406733 0.995656 0.0284596
2785 2 0.332927 0.0266792 0.0505765
4259 4 0.341743 0.0442738 0.0159711
2786 4 0.346008 0.0292898 0.0299859
3808 2 0.400397 0.0133153 0.0820179
913 2 0.496898 0.311641 0.130395
4098 4 0.416981 0.00175369 0.00753787
631 2 0.0338256 0.138163 0.0396528
632 4 0.0140117 0.15336 0.0264155
633 4 0.0536396 0.122966 0.0528901
789 4 0.161194 0.119834 0.00464215
787 2 0.179174 0.130714 0.0110887
788 4 0.197153 0.141593 0.0175353
114 3 0.215445 0.12933 0.0267431
3234 4 0.198233 0.16049 0.0133743
111 1 0.229928 0.142762 0.0271946
112 3 0.218898 0.162392 0.0161003
113 3 0.23399 0.147695 0.0491421
115 3 0.250738 0.132154 0.016876
1634 4 0.266605 0.139157 0.0225535
3983 4 0.303479 0.0849679 0.0418368
3982 2 0.322308 0.0842468 0.0585411
1633 2 0.289128 0.1439 0.0178176
1635 4 0.311652 0.148642 0.0130818
3984 4 0.341137 0.0835257 0.0752453
3921 4 0.327759 0.153921 0.0192764
1169 4 0.35966 0.0869843 0.0796318
1168 2 0.374759 0.10187 0.0814072
3919 2 0.350249 0.158967 0.0233112
3920 4 0.372739 0.164013 0.0273461
924 4 0.394665 0.15723 0.0284033
2634 4 0.216491 0.193628 0.0612657
2969 4 0.220683 0.204177 0.046269
2968 2 0.218255 0.227654 0.0395091
922 2 0.413481 0.167752 0.0326084
923 4 0.432298 0.178274 0.0368136
2828 4 0.386552 0.232743 0.00636094
3335 4 0.0803626 0.302132 0.0750649
2976 4 0.0985461 0.306833 0.0776771
2974 2 0.117839 0.291877 0.0637002
2975 4 0.137132 0.276921 0.0497233
2970 4 0.215826 0.251132 0.0327493
966 4 0.213781 0.268137 0.0435419
964 2 0.22256 0.2859 0.0533034
965 4 0.231339 0.303663 0.0630649
973 2 0.252798 0.330106 0.017408
2827 2 0.389428 0.25421 0.99829
2770 2 0.437058 0.304715 0.0267578
2772 4 0.438539 0.297464 0.0506696
3042 4 0.451473 0.28302 0.0616566
3102 4 0.473256 0.279106 0.022991
2771 4 0.435576 0.311966 0.00284606
3040 2 0.435648 0.288654 0.0816163
3100 2 0.496107 0.279697 0.0326717
3114 4 0.0232067 0.366224 0.0466898
3112 2 0.0449313 0.372293 0.0416551
3113 4 0.0666559 0.378363 0.0366204
906 4 0.0767303 0.390156 0.0303491
904 2 0.0947543 0.399385 0.0401507
905 4 0.112778 0.408615 0.0499522
1593 4 0.133675 0.403835 0.0440567
1293 4 0.223912 0.40488 0.0501294
1291 2 0.233001 0.38221 0.0397062
1292 4 0.24209 0.359539 0.0292831
974 4 0.248321 0.342794 0.0389513
1133 4 0.350114 0.406011 0.0379442
1132 2 0.36963 0.398317 0.0212771
1134 4 0.389145 0.390624 0.00461008
1055 4 0.477305 0.36584 0.01109
3347 4 0.491908 0.350773 0.049905
2161 2 0.0678436 0.495645 0.00727626
2162 4 0.0791365 0.50004 0.0283354
1591 2 0.151078 0.414262 0.0531127
3743 4 0.0972292 0.484955 0.0300068
3742 2 0.116725 0.48496 0.0456605
3744 4 0.13622 0.484964 0.0613143
1592 4 0.16848 0.424689 0.0621687
2898 4 0.136579 0.481884 0.0813341
4314 4 0.171896 0.442376 0.0564391
4312 2 0.197904 0.432706 0.0531147
4313 4 0.223912 0.423036 0.0497904
225 3 0.381141 0.495376 0.0325841
1289 4 0.371279 0.49429 0.0510393
1655 4 0.43369 0.445332 0.0411054
1654 2 0.449646 0.459411 0.0395067
1656 4 0.465602 0.473489 0.037908
184 3 0.477103 0.484759 0.0316255
181 1 0.480761 0.497273 0.0137047
125 3 0.0670094 0.00165522 0.0868984
121 1 0.0686735 0.0213064 0.095027
123 3 0.0629104 0.0232755 0.117574
122 3 0.0914294 0.0216378 0.0925308
3546 4 0.10387 0.0332794 0.0866887
3544 2 0.119448 0.0465517 0.0938085
3545 4 0.135027 0.0598241 0.100928
489 4 0.117433 0.0196824 0.145426
487 2 0.132343 0.0347322 0.147335
1539 4 0.203435 0.00651736 0.105067
1437 4 0.15208 0.0656592 0.107078
488 4 0.147252 0.049782 0.149244
3270 4 0.146114 0.0647457 0.16113
701 4 0.221456 0.0094782 0.110256
700 2 0.235253 0.0159527 0.0921059
1435 2 0.170532 0.0725994 0.119193
1436 4 0.188984 0.0795397 0.131308
256 2 0.311615 0.0220378 0.108724
257 4 0.318652 0.0115755 0.131149
1287 4 0.458622 0.0247052 0.0818536
3810 4 0.4104 0.0260267 0.0982063
759 4 0.407206 0.0459653 0.103227
757 2 0.424084 0.0559747 0.114077
758 4 0.440962 0.0659842 0.124928
394 2 0.00334188 0.124287 0.123317
396 4 0.0290331 0.114346 0.118407
404 4 0.200502 0.0905522 0.137358
403 2 0.223183 0.0938709 0.14435
3586 2 0.226666 0.153243 0.14814
405 4 0.245864 0.0971896 0.151342
2606 4 0.261542 0.104253 0.156564
3588 4 0.246918 0.152335 0.133099
1233 4 0.262989 0.157568 0.139514
2605 2 0.284572 0.108233 0.160656
1231 2 0.280755 0.161512 0.123827
2754 4 0.309974 0.171899 0.0936158
2752 2 0.335011 0.167174 0.100802
2607 4 0.307602 0.112214 0.164748
1232 4 0.298521 0.165456 0.108141
1170 4 0.389858 0.116756 0.0831825
3510 4 0.402933 0.12784 0.087351
35 3 0.409159 0.147726 0.133032
2936 4 0.418186 0.152826 0.149082
3508 2 0.424571 0.134844 0.0857504
3509 4 0.446209 0.141848 0.0841498
34 3 0.370126 0.159543 0.126425
2935 2 0.444419 0.146709 0.147892
31 1 0.388912 0.165101 0.1355
2937 4 0.470652 0.140591 0.146701
2942 4 0.462352 0.148187 0.0854131
311 4 0.483326 0.137572 0.162514
2836 2 0.0366802 0.207004 0.161964
2838 4 0.049308 0.217079 0.145557
2707 2 0.0363589 0.234009 0.115041
2708 4 0.0348802 0.216707 0.131599
2709 4 0.0378375 0.25131 0.0984821
641 4 0.155541 0.196105 0.15243
640 2 0.172376 0.206618 0.162548
2632 2 0.213356 0.196579 0.0860004
2633 4 0.210222 0.19953 0.110735
708 4 0.211202 0.211432 0.12536
706 2 0.228833 0.217942 0.139201
707 4 0.246464 0.224452 0.153041
285 4 0.265852 0.21251 0.1517
2753 4 0.360048 0.162449 0.107987
33 3 0.384815 0.170292 0.15799
32 3 0.391106 0.183507 0.124456
762 4 0.407548 0.18531 0.115753
760 2 0.412191 0.205374 0.125541
371 4 0.370847 0.188176 0.161493
761 4 0.416833 0.225437 0.135329
2941 2 0.461628 0.172098 0.0839587
2943 4 0.460903 0.196008 0.0825042
3334 2 0.0575622 0.312526 0.0869784
3107 4 0.0220733 0.316015 0.109999
3106 2 0.0271031 0.299314 0.128601
3108 4 0.0321329 0.282614 0.147204
3336 4 0.0347618 0.322921 0.098892
2910 4 0.0343868 0.293654 0.163098
2717 4 0.345339 0.263253 0.1572
2775 4 0.407801 0.294547 0.158996
2773 2 0.407622 0.302173 0.135299
2774 4 0.407443 0.309799 0.111601
3041 4 0.419823 0.294288 0.101576
915 4 0.492433 0.300726 0.151395
3518 4 0.155696 0.401808 0.141387
506 4 0.16556 0.398105 0.123555
505 2 0.184783 0.385962 0.107865
507 4 0.204007 0.37382 0.0921747
705 4 0.221862 0.378817 0.0948876
703 2 0.24245 0.387424 0.0934033
704 4 0.263039 0.396031 0.091919
3563 4 0.267634 0.413482 0.0881026
335 4 0.327534 0.418465 0.115874
2402 4 0.446547 0.365871 0.16539
2780 4 0.0151392 0.458272 0.131494
2141 4 0.00895306 0.441814 0.134307
3892 2 0.0537271 0.497219 0.0886935
2779 2 0.0371127 0.463507 0.125488
2781 4 0.0590863 0.468741 0.119482
3893 4 0.0570434 0.475234 0.0999321
3517 2 0.137902 0.421175 0.130429
3519 4 0.120109 0.440542 0.119471
2897 4 0.135919 0.44374 0.110834
2896 2 0.136249 0.462812 0.096084
3754 2 0.47703 0.449074 0.491562
1319 4 0.232301 0.48504 0.149992
2742 4 0.227205 0.468912 0.154174
3562 2 0.290382 0.411338 0.0997125
334 2 0.351441 0.42078 0.112527
3564 4 0.313131 0.409194 0.111322
336 4 0.375348 0.423094 0.109181
3150 4 0.373356 0.443019 0.112519
3148 2 0.39747 0.438243 0.122237
3149 4 0.421583 0.433468 0.131954
1487 4 0.445442 0.48339 0.128802
4256 4 0.475242 0.482939 0.156887
3554 4 0.13242 0.0784012 0.259388
1689 4 0.184923 0.0348994 0.196027
586 2 0.164846 0.0620943 0.238479
588 4 0.178958 0.0615782 0.217729
3268 2 0.162635 0.0590734 0.180583
3269 4 0.179156 0.053401 0.200035
1687 2 0.194192 0.0107426 0.202348
3062 4 0.0370136 0.122718 0.229883
3587 4 0.206413 0.154151 0.163181
2808 4 0.314933 0.127095 0.169983
2806 2 0.33468 0.132696 0.181273
2807 4 0.354427 0.138297 0.192564
2512 2 0.999755 0.187768 0.209248
2514 4 0.0173199 0.195931 0.197076
2837 4 0.0240525 0.196929 0.178372
1463 4 0.110277 0.169893 0.176067
1764 4 0.084283 0.201075 0.23965
1762 2 0.108029 0.192663 0.250358
1464 4 0.137046 0.201198 0.164051
1462 2 0.123661 0.185545 0.170059
642 4 0.189211 0.217132 0.172666
665 4 0.203942 0.213884 0.185131
664 2 0.215536 0.21422 0.207223
666 4 0.227129 0.214557 0.229316
2675 4 0.222708 0.204271 0.244828
283 2 0.285092 0.202918 0.168276
372 4 0.323704 0.198743 0.183477
284 4 0.304332 0.193326 0.184853
370 2 0.347275 0.193459 0.172485
530 4 0.38324 0.193365 0.2165
621 4 0.387984 0.240219 0.167565
529 2 0.373738 0.208358 0.235984
619 2 0.409729 0.240186 0.179927
620 4 0.431475 0.240152 0.192289
2946 4 0.448063 0.247036 0.192568
2909 4 0.0206728 0.289005 0.210496
2908 2 0.0275298 0.29133 0.186797
446 4 0.187478 0.304843 0.229401
445 2 0.200478 0.315935 0.244387
933 4 0.284938 0.335479 0.223435
2537 4 0.303137 0.319887 0.228197
2718 4 0.348601 0.261433 0.207103
2716 2 0.34697 0.262343 0.182152
2536 2 0.322629 0.299365 0.221698
2538 4 0.34212 0.278844 0.215199
2690 4 0.375059 0.305696 0.219614
2689 2 0.368877 0.321315 0.200116
597 4 0.41677 0.311831 0.211986
595 2 0.437899 0.29987 0.225658
2944 2 0.469169 0.254875 0.19101
596 4 0.459027 0.287909 0.23933
2945 4 0.490274 0.262714 0.189452
2670 4 0.50093 0.273074 0.178827
931 2 0.259081 0.340078 0.226849
932 4 0.233224 0.344676 0.230264
2691 4 0.362696 0.336933 0.180618
2403 4 0.446128 0.339067 0.206578
2401 2 0.446338 0.352469 0.185984
1387 2 0.118182 0.427032 0.216798
1389 4 0.0929285 0.430196 0.22219
1388 4 0.143435 0.423868 0.211405
1802 4 0.158058 0.423965 0.225062
1801 2 0.172868 0.430637 0.207994
1803 4 0.187677 0.437308 0.190926
2741 4 0.19946 0.442702 0.176294
2740 2 0.213332 0.455807 0.165234
105 3 0.320573 0.480922 0.176104
4255 2 0.46246 0.499584 0.174063
3553 2 0.112717 0.0710272 0.268377
3555 4 0.0930142 0.0636531 0.277367
587 4 0.150735 0.0626104 0.259228
248 4 0.474532 0.0400603 0.292246
247 2 0.492553 0.0400465 0.27491
3061 2 0.0299647 0.124622 0.253973
3063 4 0.0229157 0.126526 0.278063
296 4 0.032597 0.124958 0.295782
295 2 0.0475288 0.138618 0.303574
297 4 0.0624605 0.152278 0.311365
577 2 0.00607552 0.213178 0.33498
3235 2 0.0803894 0.203479 0.325873
3236 4 0.0695566 0.224099 0.312318
1763 4 0.131775 0.184251 0.261066
2674 2 0.22595 0.188348 0.264
2676 4 0.229193 0.172424 0.283172
2814 4 0.255199 0.227778 0.28045
531 4 0.364235 0.223352 0.255468
3896 4 0.485667 0.217778 0.313798
3895 2 0.486581 0.241117 0.316297
447 4 0.213477 0.327027 0.259372
2813 4 0.23998 0.275052 0.296752
3632 4 0.239041 0.327796 0.280756
2812 2 0.24759 0.251415 0.288601
3631 2 0.25913 0.326212 0.296242
3474 4 0.27018 0.340347 0.321992
3059 4 0.371357 0.304987 0.279192
3058 2 0.382336 0.319871 0.291487
3060 4 0.393315 0.334754 0.303782
3897 4 0.487496 0.264456 0.318796
723 4 0.47907 0.280738 0.329753
4512 4 0.00816193 0.37444 0.270404
494 4 0.0181977 0.361062 0.255665
493 2 0.0422193 0.363635 0.255655
495 4 0.066241 0.366209 0.255645
410 4 0.0864981 0.365335 0.254617
409 2 0.111764 0.364494 0.254438
3811 2 0.118835 0.391797 0.326141
411 4 0.137031 0.363654 0.25426
2657 4 0.140585 0.411611 0.306351
3633 4 0.279219 0.324627 0.311728
3543 4 0.403251 0.333976 0.322639
3541 2 0.426273 0.337238 0.328453
3542 4 0.449295 0.3405 0.334268
3626 4 0.456309 0.354557 0.340238
264 4 0.0151808 0.496917 0.265381
3812 4 0.124702 0.40311 0.306016
2658 4 0.144896 0.446813 0.274603
2656 2 0.14274 0.429212 0.290477
3900 4 0.153083 0.458269 0.262799
3898 2 0.150751 0.4824 0.25946
1757 4 0.223399 0.437158 0.306938
1400 4 0.203127 0.439161 0.312627
1756 2 0.239593 0.442156 0.290151
1758 4 0.255787 0.447154 0.273364
4476 4 0.419439 0.496874 0.26186
4031 4 0.418198 0.478049 0.265077
2516 4 0.391453 0.449381 0.309797
4030 2 0.405257 0.46463 0.277053
4032 4 0.392316 0.451211 0.28903
2515 2 0.374511 0.454787 0.328933
3906 4 0.439543 0.446455 0.252274
3904 2 0.464131 0.446085 0.257418
302 4 0.493186 0.444621 0.282588
3905 4 0.488719 0.445716 0.262561
1034 4 0.0557233 0.00844438 0.368544
3955 2 0.00776893 0.05252 0.394692
3956 4 0.0283674 0.0588099 0.403148
1033 2 0.0797987 0.00994584 0.364161
2825 4 0.0486085 0.0537058 0.411169
2262 4 0.122115 0.0163037 0.360666
2260 2 0.148011 0.0128529 0.360054
1035 4 0.103874 0.0114473 0.359778
2261 4 0.173906 0.00940206 0.359441
2553 4 0.190016 0.0163901 0.361037
2551 2 0.210277 0.0235824 0.353217
2552 4 0.230537 0.0307747 0.345397
1622 4 0.24723 0.0385617 0.346388
1621 2 0.271767 0.0389319 0.342271
1623 4 0.296305 0.0393021 0.338153
402 4 0.302705 0.0464109 0.354874
400 2 0.315234 0.0587511 0.368921
401 4 0.327763 0.0710913 0.382968
3049 2 0.353947 0.0834053 0.388677
3050 4 0.379321 0.0802092 0.383822
1217 4 0.463795 0.00503127 0.354616
3666 4 0.388723 0.0795116 0.401733
3664 2 0.409032 0.0583577 0.401557
1216 2 0.451223 0.0236551 0.370012
1218 4 0.43865 0.042279 0.385408
3665 4 0.429342 0.0372038 0.40138
3756 4 0.462797 0.444218 0.472832
1864 2 0.0380703 0.116015 0.359314
1865 4 0.0308803 0.095636 0.363344
1866 4 0.0452603 0.136394 0.355283
519 4 0.0416024 0.150203 0.371144
3029 4 0.0482848 0.13992 0.403973
364 2 0.0766861 0.149989 0.406058
366 4 0.0890252 0.16491 0.395831
383 4 0.106223 0.171732 0.394549
3051 4 0.328574 0.0866014 0.393531
2237 4 0.37161 0.145782 0.381382
2236 2 0.374626 0.146298 0.406177
517 2 0.0425559 0.171723 0.361285
518 4 0.0435093 0.193243 0.351426
578 4 0.0287851 0.209223 0.347284
3237 4 0.0912223 0.182859 0.339429
384 4 0.12746 0.203643 0.372793
382 2 0.116842 0.187687 0.383671
663 4 0.13443 0.212414 0.387178
661 2 0.13615 0.224859 0.408067
3064 2 0.324454 0.223223 0.369871
3065 4 0.317784 0.242113 0.353496
2765 4 0.336553 0.21697 0.398419
3066 4 0.331123 0.204333 0.386246
1765 2 0.0531079 0.251893 0.409796
1766 4 0.0529816 0.266288 0.389881
3708 4 0.0694451 0.254785 0.379082
3706 2 0.0934161 0.254366 0.371532
3707 4 0.117387 0.253947 0.363981
438 4 0.129868 0.262061 0.354508
436 2 0.155906 0.25712 0.356755
437 4 0.181943 0.252179 0.359003
231 4 0.194786 0.261653 0.351036
229 2 0.218148 0.265511 0.349183
230 4 0.241509 0.269369 0.347331
2448 4 0.30266 0.290019 0.361795
2650 2 0.275171 0.279122 0.35166
2652 4 0.301092 0.275107 0.349626
2651 4 0.249251 0.283138 0.353694
2446 2 0.324215 0.294647 0.35337
2447 4 0.34577 0.299274 0.344945
722 4 0.482411 0.290726 0.378301
946 2 0.461083 0.301909 0.411036
721 2 0.48074 0.285732 0.354027
947 4 0.479156 0.286012 0.396618
3813 4 0.112967 0.380484 0.346267
3472 2 0.284705 0.348653 0.338057
1444 2 0.29161 0.369736 0.396239
3473 4 0.299231 0.356959 0.354122
1445 4 0.29782 0.361164 0.372995
1163 4 0.439294 0.377557 0.395565
3625 2 0.482003 0.350501 0.344182
3168 4 0.00361115 0.419731 0.345279
3166 2 0.00901523 0.429204 0.366789
3167 4 0.0144193 0.438676 0.3883
599 4 0.0325471 0.444662 0.384141
598 2 0.0537281 0.438798 0.398986
600 4 0.0749091 0.432934 0.413831
3128 4 0.0880567 0.44187 0.422041
4268 4 0.136956 0.498065 0.384564
4269 4 0.126079 0.45676 0.370633
4267 2 0.131517 0.477412 0.377599
1401 4 0.21827 0.424663 0.359353
1399 2 0.210698 0.431912 0.33599
2631 4 0.213386 0.432052 0.378341
2629 2 0.22832 0.44285 0.391241
2630 4 0.243254 0.453649 0.404141
3614 4 0.254557 0.464439 0.412188
1575 4 0.368225 0.466381 0.407961
2517 4 0.357569 0.460192 0.348069
1573 2 0.371117 0.46286 0.383267
1574 4 0.374008 0.459338 0.358573
2963 4 0.0734497 0.99775 0.470861
2824 2 0.0611662 0.0698477 0.417859
2962 2 0.0852417 0.0154696 0.470618
2964 4 0.0970337 0.033189 0.470375
3548 4 0.17067 0.0723043 0.481864
3547 2 0.165424 0.0655607 0.458975
3549 4 0.160178 0.058817 0.436087
3396 4 0.425428 0.0776657 0.476347
3394 2 0.443084 0.0670968 0.458663
3395 4 0.46074 0.0565279 0.440979
3030 4 0.0120281 0.135039 0.436269
3028 2 0.0301564 0.13748 0.420121
3426 4 0.437957 0.434988 0.500222
365 4 0.064347 0.135069 0.416284
2826 4 0.0737239 0.0859895 0.424549
2697 4 0.0836198 0.0991406 0.432214
2695 2 0.101008 0.108146 0.443597
2696 4 0.118396 0.117151 0.45498
4001 4 0.121568 0.127207 0.47015
4000 2 0.144597 0.128468 0.478748
3327 4 0.168502 0.148068 0.492194
4002 4 0.167626 0.129728 0.487346
2238 4 0.377641 0.146813 0.430971
828 4 0.391945 0.127608 0.434161
826 2 0.410654 0.12529 0.451417
827 4 0.429364 0.122971 0.468674
516 4 0.430988 0.137343 0.480607
1701 4 0.471105 0.153415 0.47603
2355 4 0.0704988 0.209413 0.481603
2353 2 0.057553 0.217623 0.460319
1767 4 0.0532343 0.237498 0.42971
2354 4 0.0446073 0.225833 0.439035
662 4 0.137871 0.237304 0.428956
2764 2 0.348585 0.220967 0.419178
2766 4 0.360617 0.224964 0.439937
398 4 0.373262 0.209428 0.451712
397 2 0.397989 0.20466 0.459858
399 4 0.422716 0.199892 0.468004
1699 2 0.455056 0.174228 0.465651
1700 4 0.439006 0.195041 0.455272
344 4 0.185109 0.278585 0.430025
343 2 0.210852 0.272228 0.43509
696 4 0.235225 0.259954 0.461027
345 4 0.236596 0.26587 0.440156
694 2 0.25406 0.265224 0.474223
695 4 0.272894 0.270494 0.487419
1473 4 0.288098 0.258029 0.497724
254 4 0.416446 0.310141 0.483237
253 2 0.421713 0.312195 0.459037
255 4 0.42698 0.31425 0.434838
948 4 0.443009 0.317807 0.425455
1361 4 0.0739684 0.418037 0.497893
376 2 0.172232 0.404907 0.437224
378 4 0.194144 0.401311 0.450741
377 4 0.15032 0.408503 0.423708
1446 4 0.2854 0.378307 0.419483
2456 4 0.280255 0.395255 0.430959
2455 2 0.264291 0.418644 0.434144
196 1 0.434968 0.416268 0.466281
3319 2 0.335275 0.383687 0.483422
3321 4 0.351418 0.388345 0.466366
2927 4 0.369583 0.382795 0.459086
2928 4 0.413413 0.388843 0.478167
2926 2 0.391498 0.385819 0.468626
200 3 0.424108 0.400831 0.47136
1162 2 0.445086 0.384199 0.41831
1164 4 0.450878 0.390841 0.441054
197 3 0.452422 0.407357 0.450819
3127 2 0.114342 0.434942 0.420933
3129 4 0.140627 0.428013 0.419824
2345 4 0.141156 0.425544 0.490166
876 4 0.193147 0.439749 0.509366
4362 4 0.361807 0.453079 0.417802
198 3 0.445023 0.421912 0.485374
2457 4 0.248326 0.442032 0.437329
199 3 0.41882 0.435204 0.457235
3613 2 0.275229 0.46664 0.424933
2139 4 0.286278 0.480891 0.501492
3615 4 0.295902 0.468841 0.437679
4361 4 0.314942 0.471552 0.440104
4360 2 0.338375 0.462315 0.428953
987 4 0.118315 0.0702345 0.0041055
1283 4 0.0167801 0.0242617 0.582041
340 2 0.161278 0.0622541 0.555797
342 4 0.170085 0.0378377 0.550464
3359 4 0.1867 0.0250776 0.541976
3358 2 0.211356 0.0220558 0.534472
3360 4 0.236011 0.0190341 0.526967
2283 4 0.24756 0.0154737 0.544327
1130 4 0.491086 0.038346 0.53653
1996 2 0.494033 0.0744191 0.551252
1212 4 0.116724 0.113782 0.508051
1210 2 0.131132 0.108588 0.528956
1211 4 0.14554 0.103393 0.549862
341 4 0.15247 0.0866704 0.56113
3325 2 0.185949 0.150576 0.509074
3326 4 0.203396 0.153084 0.525954
650 4 0.218406 0.161776 0.530106
649 2 0.230402 0.164074 0.55149
3462 4 0.377606 0.0970688 0.528207
3460 2 0.399102 0.104344 0.529315
3461 4 0.420598 0.111618 0.530422
515 4 0.433658 0.123471 0.528613
514 2 0.432323 0.130407 0.50461
1997 4 0.498736 0.0903297 0.567774
2982 4 0.00512912 0.189682 0.575253
3524 4 0.0170688 0.1979 0.587382
651 4 0.242398 0.166372 0.572873
3354 4 0.345574 0.232359 0.577074
2777 4 0.483561 0.220534 0.561916
2776 2 0.493645 0.237563 0.571328
2374 2 0.0903061 0.279939 0.547335
2375 4 0.0964233 0.264739 0.527512
2376 4 0.0841889 0.295139 0.567157
936 4 0.0964054 0.308466 0.570146
934 2 0.0825869 0.332787 0.569805
3501 4 0.162933 0.271431 0.540258
3499 2 0.165054 0.292402 0.530074
3500 4 0.167175 0.313372 0.519891
510 4 0.187941 0.310048 0.523386
1471 2 0.305713 0.266988 0.508759
1472 4 0.323328 0.275946 0.519794
3352 2 0.34441 0.255037 0.568649
3353 4 0.343246 0.277714 0.560225
4434 4 0.394084 0.313699 0.544603
935 4 0.0687684 0.357108 0.569464
508 2 0.196152 0.329629 0.518239
1820 4 0.200318 0.363174 0.527111
1819 2 0.196274 0.387835 0.526591
509 4 0.204364 0.34921 0.513092
1821 4 0.192231 0.412496 0.526072
4433 4 0.357051 0.342132 0.514144
4432 2 0.375568 0.327916 0.529373
3536 4 0.400827 0.363318 0.566679
3535 2 0.423447 0.368561 0.568866
3537 4 0.446066 0.373805 0.571052
2156 4 0.0257291 0.456043 0.522912
2157 4 0.0559463 0.414257 0.500893
2155 2 0.0408377 0.43515 0.511903
1360 2 0.097932 0.420324 0.494901
2344 2 0.157388 0.43451 0.503453
2346 4 0.17362 0.443475 0.51674
1362 4 0.121896 0.422611 0.491909
1041 4 0.337353 0.444891 0.581382
3700 2 0.336509 0.478265 0.563195
3701 4 0.327996 0.458961 0.568763
4210 2 0.500601 0.247927 0.922643
3702 4 0.345023 0.497569 0.557628
930 4 0.409126 0.449519 0.552225
928 2 0.397724 0.457243 0.574296
3425 4 0.430798 0.443362 0.549327
3424 2 0.434377 0.439175 0.524774
3755 4 0.491264 0.45393 0.510293
2115 4 0.0278223 0.0108213 0.596141
2113 2 0.037321 0.0049215 0.619236
1267 2 0.129437 0.0676465 0.63226
1268 4 0.107796 0.0606956 0.634256
1269 4 0.151078 0.0745974 0.630265
2596 2 0.218045 0.075557 0.6677
318 4 0.407584 0.00279502 0.638071
316 2 0.409209 0.0257021 0.642084
317 4 0.410833 0.0486092 0.646098
2204 4 0.426535 0.0576922 0.64789
2203 2 0.441629 0.0716141 0.641278
4182 4 0.0375892 0.083352 0.666256
2597 4 0.204351 0.0986868 0.66039
879 4 0.217081 0.1054 0.649511
877 2 0.233375 0.109337 0.632186
878 4 0.24967 0.113274 0.614862
1098 4 0.270317 0.102721 0.615967
1096 2 0.29023 0.106376 0.628844
1097 4 0.310142 0.110031 0.641721
3870 4 0.319512 0.114455 0.657485
2205 4 0.456723 0.0855361 0.634665
3308 4 0.471157 0.100924 0.597794
3307 2 0.476128 0.12201 0.603981
3309 4 0.4811 0.143095 0.610168
4223 4 0.478155 0.161592 0.620008
3523 2 0.0360578 0.208091 0.592042
3525 4 0.0550468 0.218283 0.596701
2832 4 0.0732401 0.207213 0.606821
2830 2 0.0796914 0.214621 0.628984
2831 4 0.0861428 0.222028 0.651146
3477 4 0.0939697 0.20666 0.663907
1181 4 0.240995 0.172493 0.592291
1180 2 0.257181 0.180561 0.606604
1182 4 0.273367 0.188628 0.620917
3464 4 0.333181 0.230528 0.658285
3463 2 0.345557 0.206079 0.661268
3465 4 0.357933 0.181631 0.66425
3824 4 0.489458 0.247804 0.660946
3027 4 0.0110109 0.259563 0.63965
3025 2 0.0318174 0.267507 0.643285
3026 4 0.0526239 0.27545 0.64692
3131 4 0.0647109 0.277309 0.630606
3130 2 0.0882763 0.280572 0.633307
3132 4 0.111842 0.283835 0.636007
503 4 0.114115 0.296322 0.648409
502 2 0.137633 0.297389 0.655775
4112 4 0.409586 0.312692 0.655385
4111 2 0.427049 0.324817 0.659562
3140 4 0.00866041 0.395793 0.61786
7 3 0.022173 0.402858 0.627478
6 1 0.0418065 0.40451 0.638399
9 3 0.0435131 0.394026 0.659024
10 3 0.0612789 0.394418 0.625899
2324 4 0.0812597 0.397592 0.625746
2323 2 0.09279 0.415308 0.628808
1167 4 0.253216 0.335854 0.644613
1165 2 0.258629 0.356625 0.638034
1166 4 0.264042 0.377396 0.631455
2684 4 0.255929 0.396599 0.62704
2683 2 0.274896 0.403634 0.615971
1017 4 0.356457 0.33098 0.593241
1015 2 0.374271 0.341543 0.585498
1040 4 0.308455 0.41598 0.595072
2685 4 0.293863 0.410668 0.604902
4113 4 0.444513 0.336942 0.663738
993 4 0.459562 0.338184 0.651516
1016 4 0.392086 0.352105 0.577756
557 4 0.435955 0.410996 0.643358
991 2 0.480875 0.345767 0.650769
992 4 0.502187 0.353349 0.650023
1619 4 0.468742 0.474352 0.989097
3070 2 0.0233145 0.456191 0.662443
8 3 0.0395304 0.426949 0.64133
3071 4 0.03996 0.432951 0.660318
2325 4 0.10432 0.433025 0.63187
3254 4 0.119572 0.44117 0.629859
3253 2 0.142158 0.441743 0.640162
3255 4 0.164744 0.442317 0.650465
1039 2 0.322904 0.430435 0.588227
1911 4 0.378551 0.421096 0.612402
929 4 0.386321 0.464968 0.596367
1910 4 0.418493 0.425907 0.639842
1909 2 0.398522 0.423501 0.626122
556 2 0.454163 0.420685 0.634806
558 4 0.472371 0.430373 0.626253
3177 4 0.487901 0.436862 0.631352
4180 2 0.0576855 0.0787158 0.68235
4181 4 0.0777818 0.0740796 0.698443
3314 4 0.0730017 0.0268568 0.708991
3313 2 0.0929748 0.0258498 0.69355
3315 4 0.112948 0.0248428 0.67811
2241 4 0.136772 0.087444 0.702332
2598 4 0.23174 0.0524272 0.67501
3458 4 0.322235 0.0497617 0.693622
3457 2 0.344241 0.0346031 0.683315
3459 4 0.366248 0.0194445 0.673008
4164 4 0.378522 0.0177808 0.690092
4162 2 0.403098 0.00495745 0.696936
634 2 0.474382 0.0120938 0.726376
636 4 0.498317 0.014855 0.725902
1194 4 0.0165562 0.166358 0.688805
2240 4 0.0907502 0.081724 0.689188
2239 2 0.113761 0.084584 0.69576
1943 4 0.138636 0.10133 0.71666
1942 2 0.160753 0.10625 0.710547
1944 4 0.18287 0.11117 0.704434
2199 4 0.18852 0.127645 0.703383
2197 2 0.209541 0.135126 0.707564
2198 4 0.230561 0.142607 0.711746
1259 4 0.243558 0.151789 0.719262
1258 2 0.266085 0.155678 0.725829
1260 4 0.288612 0.159567 0.732396
3868 2 0.317945 0.109056 0.681668
3869 4 0.316377 0.103657 0.705851
4029 4 0.439762 0.158992 0.746087
1184 4 0.0227287 0.178216 0.699067
1183 2 0.0453247 0.182659 0.704213
1185 4 0.0679207 0.187101 0.709359
3475 2 0.0891386 0.200719 0.687226
3104 4 0.0980285 0.18791 0.726779
3476 4 0.0843075 0.194779 0.710545
3387 4 0.0927467 0.195491 0.745092
3103 2 0.122125 0.189127 0.731633
3105 4 0.146222 0.190343 0.736487
3282 4 0.143735 0.211089 0.73887
3280 2 0.166183 0.214479 0.731232
3281 4 0.188631 0.217868 0.723594
444 4 0.208065 0.214895 0.73138
1088 4 0.0879465 0.322158 0.696356
1087 2 0.093572 0.298939 0.705406
1089 4 0.0991976 0.275719 0.714456
3295 2 0.140099 0.313299 0.743085
3296 4 0.153373 0.324748 0.728825
504 4 0.161151 0.298457 0.66314
1079 4 0.172037 0.308091 0.674564
1078 2 0.198339 0.300775 0.675586
1080 4 0.22464 0.293458 0.676607
1179 4 0.241021 0.299159 0.683498
1177 2 0.26112 0.308467 0.6848
1178 4 0.281218 0.317776 0.686102
842 4 0.323129 0.325933 0.732777
1230 4 0.454441 0.270986 0.733448
1228 2 0.441302 0.257859 0.745599
3823 2 0.494691 0.258551 0.681745
185 3 0.478766 0.486984 0.994116
3152 4 0.0610322 0.389892 0.716669
3151 2 0.0529061 0.384613 0.694309
3153 4 0.0447799 0.379335 0.67195
2858 4 0.0683668 0.376679 0.730926
2415 4 0.120737 0.361928 0.694277
2413 2 0.105113 0.348836 0.701759
2414 4 0.0894876 0.335743 0.70924
2857 2 0.0595211 0.392874 0.749653
1215 4 0.152496 0.333786 0.710839
1214 4 0.187314 0.358708 0.70565
1213 2 0.169905 0.346247 0.708245
3642 4 0.204641 0.364343 0.701035
2016 4 0.280497 0.337839 0.683086
3640 2 0.221047 0.377704 0.697375
3641 4 0.237452 0.391066 0.693715
950 4 0.256774 0.391789 0.699503
949 2 0.271096 0.401103 0.714861
2015 4 0.327182 0.344187 0.69208
2014 2 0.303839 0.341013 0.687583
902 4 0.350064 0.369763 0.68949
901 2 0.359122 0.389362 0.68961
951 4 0.285417 0.410417 0.730219
903 4 0.36818 0.408962 0.68973
3093 4 0.498315 0.408057 0.752395
536 4 0.491942 0.353231 0.740668
535 2 0.486683 0.377584 0.745606
537 4 0.481425 0.401937 0.750545
3072 4 0.00666895 0.47943 0.664567
1209 4 0.289292 0.426194 0.737839
1207 2 0.304981 0.438446 0.747099
895 2 0.345376 0.465948 0.739527
1208 4 0.320669 0.450698 0.756358
1903 2 0.393495 0.423765 0.743234
1905 4 0.374123 0.444893 0.73823
896 4 0.368791 0.463949 0.72936
1620 4 0.424761 0.478989 0.963074
2075 4 0.409891 0.00964393 0.760531
3252 4 0.413316 0.00323752 0.823998
3344 4 0.423369 0.00562199 0.807003
3343 2 0.441966 0.0168429 0.805579
3345 4 0.460562 0.0280637 0.804155
2947 2 0.0175741 0.0861109 0.779944
2948 4 0.0408669 0.085439 0.78956
471 4 0.030483 0.151751 0.816852
209 3 0.0182002 0.143566 0.826337
469 2 0.0412938 0.156817 0.795788
470 4 0.0521046 0.161884 0.774724
4508 4 0.111748 0.169734 0.82226
2135 4 0.275973 0.154137 0.808248
825 4 0.285531 0.1423 0.82301
823 2 0.307309 0.149114 0.821796
824 4 0.329088 0.155928 0.820582
3081 4 0.344363 0.141829 0.813201
3079 2 0.358319 0.154153 0.801016
2091 4 0.40764 0.10513 0.779236
3080 4 0.372274 0.166477 0.78883
1074 4 0.383479 0.151125 0.77667
1072 2 0.405818 0.155172 0.769718
2089 2 0.430355 0.0988398 0.766602
1073 4 0.428156 0.15922 0.762767
2090 4 0.45307 0.0925493 0.753968
4027 2 0.461212 0.165432 0.751372
2193 4 0.473699 0.0906865 0.755133
2191 2 0.490647 0.0961558 0.770741
3189 4 0.0984952 0.159409 0.82838
1422 4 0.0263124 0.241441 0.814638
3386 4 0.0590915 0.177913 0.770293
3385 2 0.0759191 0.186702 0.757693
2988 4 0.0443156 0.233971 0.804783
2986 2 0.0565627 0.250996 0.800759
443 4 0.230135 0.20166 0.776238
2136 4 0.232188 0.186952 0.789868
442 2 0.2191 0.208278 0.753809
2134 2 0.25408 0.170545 0.799058
4028 4 0.482661 0.171872 0.756658
1010 4 0.435244 0.231788 0.77235
1009 2 0.447779 0.232762 0.793774
1011 4 0.460314 0.233735 0.815197
780 4 0.481186 0.230305 0.812956
822 4 0.49277 0.179189 0.76953
778 2 0.495514 0.24596 0.813251
2987 4 0.0688097 0.268021 0.796736
3297 4 0.126825 0.30185 0.757344
1256 4 0.0864267 0.272581 0.791426
1255 2 0.0984268 0.28438 0.77615
1257 4 0.110427 0.296179 0.760874
990 4 0.227562 0.331916 0.778137
988 2 0.247166 0.321691 0.794175
989 4 0.266771 0.311465 0.810212
1306 2 0.339946 0.290016 0.791565
1307 4 0.317003 0.295524 0.779377
1308 4 0.362889 0.284509 0.803753
3761 4 0.361349 0.293526 0.821342
1229 4 0.428164 0.244732 0.75775
2859 4 0.0506753 0.409068 0.76838
1064 4 0.13961 0.365924 0.807838
1063 2 0.161334 0.371198 0.814677
1065 4 0.183057 0.376473 0.821517
2999 4 0.184763 0.394839 0.823405
2998 2 0.207365 0.400002 0.820621
3000 4 0.229967 0.405166 0.817836
2904 4 0.281969 0.360949 0.820288
4548 4 0.330321 0.333774 0.791069
841 2 0.331991 0.331835 0.754537
843 4 0.340853 0.337737 0.776297
4546 2 0.314546 0.340366 0.810988
1904 4 0.412867 0.402637 0.748239
4367 4 0.0484601 0.492887 0.818948
3170 4 0.23222 0.421187 0.827205
1638 4 0.214226 0.465608 0.835497
897 4 0.32196 0.467947 0.749694
4430 4 0.478634 0.435503 0.827522
2066 4 0.458436 0.449268 0.826544
4429 2 0.501382 0.430256 0.815035
449 4 0.152128 0.0683217 0.908503
2322 4 0.158625 0.070539 0.89034
2320 2 0.179785 0.0724981 0.878265
2321 4 0.200946 0.0744573 0.866189
4126 2 0.223791 0.00517587 0.869955
4127 4 0.24682 0.0097227 0.86828
4336 2 0.227091 0.0856784 0.865098
4337 4 0.25338 0.0775718 0.866452
998 4 0.305529 0.0747264 0.86169
3251 4 0.3759 0.998256 0.854824
997 2 0.315171 0.0759836 0.884548
999 4 0.324812 0.0772407 0.907406