ITEM: TIMESTEP
2029500
ITEM: NUMBER OF ATOMS
4590
ITEM: BOX BOUNDS xy xz yz pp pp pp
-9.9985700000000008e+00 9.9985700000000008e+00 0.0000000000000000e+00
-9.9985700000000008e+00 9.9985700000000008e+00 0.0000000000000000e+00
-9.9985700000000008e+00 9.9985700000000008e+00 0.0000000000000000e+00
ITEM: ATOMS id type xs ys zs
67 3 0.0246383 0.056437 0.0139153
1110 4 0.0434765 0.0606413 0.0237655
1108 2 0.0516161 0.0374478 0.0191844
1109 4 0.0597558 0.0142544 0.0146034
66 1 0.00669741 0.0705769 0.0112087
2894 4 0.0504451 0.996678 0.0182543
125 3 0.0729954 0.00699399 0.0798477
124 3 0.0924276 0.0384409 0.072696
1925 4 0.126089 0.0132255 0.00804473
3544 2 0.15256 0.0188386 0.0755938
90 3 0.239899 0.0277904 0.993144
3545 4 0.176534 0.0250267 0.0721088
89 3 0.236973 0.0629265 0.00635483
1008 4 0.358916 0.031325 0.0554315
1006 2 0.372031 0.0524973 0.0532083
2786 4 0.343069 0.0292491 0.0681945
1007 4 0.385146 0.0736697 0.050985
3983 4 0.398886 0.0802205 0.0645274
4259 4 0.360934 0.0306628 0.00448433
4394 4 0.380137 0.0394648 0.999936
300 4 0.0615191 0.166261 0.0527215
298 2 0.0518919 0.143248 0.0544282
299 4 0.0422648 0.120235 0.0561348
4505 4 0.0159254 0.103805 0.0338584
70 3 0.0126456 0.0915733 0.0177218
113 3 0.400528 0.124515 0.0167247
3234 4 0.337726 0.159465 0.00802234
3982 2 0.422773 0.0874743 0.063125
3984 4 0.446661 0.0947281 0.0617225
1168 2 0.47178 0.116007 0.0802009
1169 4 0.448173 0.11095 0.0736949
2803 2 0.0942843 0.251787 0.00546121
2804 4 0.115293 0.239756 0.0117134
2500 2 0.148505 0.178397 0.0102787
2501 4 0.167204 0.19133 0.0206826
633 4 0.197437 0.192308 0.0822961
738 4 0.185337 0.250351 0.0558574
632 4 0.177402 0.197921 0.0368232
631 2 0.187419 0.195114 0.0595597
3232 2 0.347013 0.182265 0.00364942
3193 2 0.0215108 0.278447 0.0821941
2528 4 0.0857227 0.280268 0.064951
2527 2 0.0834174 0.304612 0.0597313
3195 4 0.997683 0.283122 0.0762314
2529 4 0.0811121 0.328956 0.0545117
3213 4 0.145845 0.319632 0.0575697
3211 2 0.159829 0.330034 0.039641
736 2 0.180029 0.251947 0.0802392
1028 4 0.229083 0.294148 0.0345483
1027 2 0.231307 0.293256 0.0594368
3006 4 0.220055 0.300563 0.0184465
3004 2 0.237667 0.315804 0.00935064
2976 4 0.403442 0.327473 0.0515133
3335 4 0.384181 0.331162 0.049
2974 2 0.420586 0.3098 0.0471598
2975 4 0.437729 0.292127 0.0428063
2968 2 0.494996 0.253815 0.0731957
1455 4 0.018617 0.344966 0.998069
781 2 0.0338064 0.363962 0.073572
2459 4 0.0692273 0.383443 0.061836
782 4 0.0535534 0.37919 0.0754054
2458 2 0.0776643 0.396799 0.0812175
783 4 0.0140594 0.348734 0.0717386
2610 4 0.0918526 0.363034 0.0181515
2608 2 0.11355 0.355617 0.0281215
2609 4 0.135248 0.3482 0.0380916
4088 4 0.155583 0.334695 0.0831014
3212 4 0.173813 0.340436 0.0217122
4436 4 0.308303 0.373563 0.0039689
4435 2 0.287192 0.360486 0.00105643
4416 4 0.322544 0.383102 0.013202
3334 2 0.373314 0.34246 0.0684793
3113 4 0.426245 0.393738 0.994102
2547 4 0.0133374 0.483088 0.0599074
1047 4 0.0895967 0.464025 0.0715539
1045 2 0.094898 0.481911 0.054906
1046 4 0.100199 0.499798 0.0382581
4477 2 0.491142 0.495031 0.00272173
4479 4 0.466292 0.49626 0.0002454
3484 2 0.00697724 0.0377932 0.126423
3485 4 0.018086 0.0190843 0.114104
3623 4 0.062915 0.00574681 0.09664
3546 4 0.128586 0.0126505 0.0790787
122 3 0.110027 0.00534936 0.075505
123 3 0.0956139 0.0211716 0.106401
121 1 0.0925903 0.0179698 0.0836191
489 4 0.159431 0.0601257 0.139819
1437 4 0.196419 0.0183605 0.0722871
487 2 0.172994 0.0458084 0.155189
1435 2 0.217645 0.021852 0.0850333
1436 4 0.238871 0.0253434 0.0977794
404 4 0.250442 0.0163345 0.111858
403 2 0.265854 0.0325647 0.123005
405 4 0.281265 0.0487949 0.134151
2606 4 0.283633 0.0442913 0.154135
2605 2 0.303274 0.0569676 0.163008
2787 4 0.348255 0.998869 0.107576
258 4 0.349425 0.0050617 0.126285
2785 2 0.345662 0.014059 0.087885
2808 4 0.335885 0.0806066 0.160687
759 4 0.437263 0.00608797 0.0944742
757 2 0.452615 0.0148547 0.112156
758 4 0.467968 0.0236213 0.129837
1070 4 0.990971 0.127352 0.13723
2756 4 0.0572917 0.134214 0.155877
1069 2 0.0144934 0.128478 0.145634
1071 4 0.0380157 0.129604 0.154038
2755 2 0.0776309 0.120786 0.150294
396 4 0.152901 0.0804307 0.143099
2757 4 0.0979701 0.107358 0.14471
395 4 0.115733 0.112961 0.135288
394 2 0.134317 0.0966957 0.139193
1170 4 0.495387 0.121064 0.0867068
474 4 0.117957 0.226747 0.147715
472 2 0.133662 0.231217 0.166651
2838 4 0.185394 0.187492 0.15041
2708 4 0.200471 0.195787 0.139313
2707 2 0.194029 0.200839 0.115687
2709 4 0.187587 0.205891 0.0920611
1463 4 0.339009 0.20811 0.101752
1462 2 0.32995 0.214921 0.124039
1464 4 0.32089 0.221732 0.146327
3587 4 0.372289 0.158944 0.131673
3586 2 0.385475 0.173246 0.147383
641 4 0.332716 0.209843 0.158517
2754 4 0.481586 0.175708 0.172108
3194 4 0.0453388 0.273772 0.0881569
1103 4 0.0225479 0.292553 0.128123
1102 2 0.0415701 0.296292 0.143915
1104 4 0.0605923 0.30003 0.159706
690 4 0.00575734 0.281533 0.13104
2959 2 0.151844 0.270585 0.131233
2960 4 0.141677 0.273376 0.153906
1029 4 0.23353 0.292364 0.0843254
2961 4 0.162011 0.267794 0.108561
737 4 0.17472 0.253542 0.104621
2966 4 0.225725 0.292143 0.102267
2965 2 0.226033 0.312178 0.117223
2967 4 0.226341 0.332213 0.132178
3106 2 0.35314 0.315393 0.158205
3107 4 0.365912 0.323464 0.138282
2969 4 0.488422 0.270239 0.0908663
708 4 0.425521 0.291244 0.146952
2633 4 0.440074 0.288577 0.134603
2634 4 0.474027 0.27054 0.102626
2632 2 0.457051 0.279558 0.118615
4087 2 0.152102 0.357294 0.0932187
4089 4 0.148621 0.379893 0.103336
143 3 0.143223 0.39594 0.138342
141 1 0.14684 0.418841 0.137406
144 3 0.167748 0.423194 0.128332
2578 2 0.297803 0.380538 0.142596
2579 4 0.30669 0.387675 0.120342
554 4 0.305571 0.381718 0.101858
2580 4 0.288915 0.3734 0.16485
553 2 0.32651 0.373728 0.0907728
555 4 0.34745 0.365737 0.079688
3336 4 0.362446 0.353758 0.0879586
2460 4 0.0861013 0.410154 0.100599
2592 4 0.0337956 0.474546 0.151384
3492 4 0.024268 0.491948 0.1549
4586 4 0.104975 0.465716 0.0827939
4585 2 0.116241 0.457408 0.103512
4587 4 0.127506 0.449099 0.12423
142 3 0.130776 0.428365 0.123975
145 3 0.14542 0.427792 0.158299
525 4 0.205514 0.455368 0.0908585
288 4 0.213891 0.454045 0.110394
524 4 0.165741 0.432745 0.111038
523 2 0.185627 0.444056 0.100948
286 2 0.235628 0.466338 0.111643
287 4 0.257365 0.478631 0.112892
753 4 0.273651 0.467762 0.12176
751 2 0.287581 0.461718 0.141625
752 4 0.30151 0.455674 0.16149
3882 4 0.297288 0.473104 0.169916
2141 4 0.438967 0.49564 0.148731
1689 4 0.153109 0.0333129 0.225521
1687 2 0.152161 0.00849199 0.222654
3555 4 0.141419 0.0392332 0.2405
3553 2 0.157125 0.0576885 0.24666
488 4 0.186557 0.0314912 0.17056
3270 4 0.19527 0.0439433 0.183719
3268 2 0.214738 0.0438067 0.199409
3269 4 0.234205 0.0436702 0.2151
587 4 0.23068 0.0612626 0.225379
2607 4 0.322915 0.069644 0.171881
2806 2 0.356166 0.0684704 0.168847
2807 4 0.376447 0.0563341 0.177007
712 2 0.0356025 0.131577 0.212962
713 4 0.0403079 0.123167 0.236034
734 4 0.984657 0.161668 0.226841
714 4 0.0308971 0.139987 0.18989
3062 4 0.10815 0.104073 0.231782
586 2 0.23426 0.0846681 0.233413
588 4 0.23784 0.108074 0.241447
666 4 0.396554 0.163642 0.255329
1600 2 0.0451039 0.243532 0.235827
2512 2 0.146972 0.182552 0.227963
2837 4 0.170079 0.186877 0.198011
2514 4 0.150795 0.17975 0.203412
2574 4 0.151641 0.254429 0.190706
473 4 0.149366 0.235687 0.185587
2572 2 0.154865 0.248374 0.21475
2573 4 0.158089 0.242318 0.238795
2836 2 0.177736 0.187185 0.17421
3588 4 0.398661 0.187547 0.163092
1233 4 0.416963 0.182553 0.168626
664 2 0.399444 0.183391 0.240269
642 4 0.369001 0.208759 0.192911
640 2 0.350859 0.209301 0.175714
665 4 0.402333 0.20314 0.225209
1762 2 0.353715 0.25157 0.239577
1764 4 0.364568 0.229345 0.235906
1231 2 0.441316 0.184742 0.173853
1232 4 0.465669 0.186931 0.179079
284 4 0.484523 0.231849 0.204316
283 2 0.464155 0.246002 0.20115
372 4 0.498295 0.217887 0.199296
1511 4 0.0753042 0.299021 0.173071
339 4 0.0472477 0.283982 0.222772
337 2 0.0676973 0.297682 0.218376
1601 4 0.0441843 0.263888 0.221337
1510 2 0.0877899 0.319106 0.164954
338 4 0.0881469 0.311381 0.21398
246 4 0.105386 0.321872 0.217316
244 2 0.128061 0.313959 0.224274
245 4 0.150736 0.306046 0.231232
2841 4 0.156846 0.297984 0.214887
2839 2 0.18082 0.298608 0.22196
2840 4 0.204794 0.299233 0.229033
677 4 0.215285 0.283528 0.236386
2908 2 0.330738 0.295892 0.216624
2910 4 0.329543 0.300961 0.192168
2909 4 0.331934 0.290823 0.241079
3108 4 0.340369 0.307322 0.178128
1763 4 0.342862 0.273794 0.243247
285 4 0.443786 0.260154 0.197984
707 4 0.431069 0.273055 0.193201
706 2 0.428295 0.28215 0.170077
1512 4 0.100276 0.339192 0.156837
2511 4 0.136632 0.342242 0.193193
3960 4 0.15083 0.40185 0.224008
2509 2 0.138502 0.364818 0.203777
2510 4 0.140372 0.387394 0.214361
3958 2 0.13893 0.400159 0.245934
3819 4 0.275369 0.361036 0.172848
3817 2 0.282107 0.356756 0.196544
3818 4 0.288844 0.352476 0.220239
110 3 0.293692 0.345336 0.23794
106 1 0.306115 0.360623 0.249369
109 3 0.324271 0.367258 0.236533
4511 4 0.333487 0.351433 0.227309
4510 2 0.357267 0.347607 0.234025
4512 4 0.381046 0.343781 0.240741
494 4 0.396725 0.347078 0.227551
493 2 0.419639 0.349131 0.237345
3961 2 0.0569583 0.502108 0.195625
2590 2 0.023492 0.456682 0.165522
2591 4 0.0131885 0.438818 0.17966
3884 4 0.0035334 0.453169 0.226074
3883 2 0.0205616 0.471233 0.223093
3885 4 0.0375899 0.489298 0.220112
3963 4 0.0416709 0.48321 0.201489
2042 4 0.158224 0.485915 0.232723
1559 4 0.154246 0.498453 0.169365
2041 2 0.162105 0.492169 0.208827
2043 4 0.165987 0.498423 0.184931
3880 2 0.306453 0.487851 0.187907
2142 4 0.430475 0.483264 0.196433
2140 2 0.434721 0.489452 0.172582
279 4 0.446916 0.490856 0.204862
277 2 0.456869 0.487854 0.227602
774 4 0.4856 0.490966 0.246763
3646 2 0.0933855 0.0067342 0.30727
20 3 0.0144245 0.0775019 0.311281
3872 4 0.13135 0.00796819 0.295093
3648 4 0.117408 0.0133016 0.309504
3554 4 0.17283 0.0761438 0.25282
546 4 0.291673 0.00508901 0.280547
2678 4 0.00167193 0.117683 0.274619
2534 4 0.0444598 0.13593 0.251116
19 3 0.0117607 0.106769 0.287744
16 1 0.0147567 0.100225 0.309804
2533 2 0.0644784 0.148962 0.258506
17 3 0.0351154 0.108 0.317167
1517 4 0.0488572 0.121509 0.313444
2535 4 0.0844971 0.161994 0.265897
3061 2 0.0975925 0.106166 0.254351
3063 4 0.0870348 0.108259 0.276919
295 2 0.121384 0.121384 0.302085
296 4 0.102819 0.114436 0.286846
297 4 0.13995 0.128332 0.317325
55 3 0.126971 0.165005 0.299117
52 3 0.102619 0.155122 0.272618
3236 4 0.289308 0.15517 0.291465
3235 2 0.294381 0.166779 0.313021
2675 4 0.411088 0.150612 0.246707
2674 2 0.435086 0.145377 0.251382
2676 4 0.459085 0.140142 0.256057
2814 4 0.464435 0.144367 0.274821
2812 2 0.486918 0.155229 0.273511
1602 4 0.0460235 0.223175 0.250317
1796 4 0.0649357 0.217969 0.248424
2612 4 0.029172 0.184391 0.28881
1795 2 0.0767924 0.212441 0.269732
2611 2 0.00551015 0.191744 0.292162
2513 4 0.14315 0.185355 0.252513
2797 2 0.0879341 0.240288 0.322907
53 3 0.128453 0.181411 0.26526
1797 4 0.0886492 0.206913 0.29104
51 1 0.114543 0.172615 0.281616
54 3 0.0996696 0.188851 0.288936
1800 4 0.145245 0.232606 0.301387
1798 2 0.148111 0.222716 0.324172
2798 4 0.0898482 0.226574 0.302087
3237 4 0.299453 0.178387 0.334577
1062 4 0.0381566 0.3161 0.33495
1861 2 0.118497 0.328102 0.304983
1862 4 0.140131 0.334496 0.294202
1863 4 0.0968625 0.321707 0.315764
2660 4 0.156156 0.323247 0.292323
2917 2 0.22511 0.244682 0.318556
2918 4 0.223026 0.249348 0.29408
678 4 0.231817 0.256803 0.275285
676 2 0.223551 0.270166 0.255836
268 2 0.236802 0.310614 0.305812
2661 4 0.20152 0.304099 0.283589
269 4 0.213027 0.311505 0.298123
2659 2 0.178838 0.313673 0.287956
270 4 0.260577 0.309723 0.313501
417 4 0.27061 0.326514 0.312981
415 2 0.289925 0.332559 0.298299
437 4 0.440872 0.286895 0.337634
2488 2 0.0686795 0.354905 0.3074
2489 4 0.0560492 0.37545 0.3008
580 2 0.0131768 0.385424 0.291373
581 4 0.0351831 0.374818 0.296704
3222 4 0.0658991 0.419272 0.289195
2490 4 0.0813099 0.33436 0.314
3959 4 0.12703 0.398468 0.267859
3221 4 0.11133 0.411574 0.269765
3220 2 0.0886143 0.415423 0.27948
416 4 0.30924 0.338604 0.283616
108 3 0.293048 0.379034 0.254723
107 3 0.313849 0.351084 0.26882
410 4 0.441226 0.357087 0.266672
495 4 0.442552 0.351185 0.247139
411 4 0.478367 0.349483 0.299283
446 4 0.490404 0.346509 0.313965
409 2 0.459796 0.353285 0.282977
1392 4 0.0369162 0.472484 0.28826
1390 2 0.0426193 0.448474 0.292278
1391 4 0.0483224 0.424463 0.296296
1577 4 0.0214408 0.483482 0.290518
1576 2 0.998226 0.492704 0.291625
669 4 0.225641 0.479009 0.26877
667 2 0.217999 0.482167 0.292367
2816 4 0.213348 0.485047 0.253011
668 4 0.210357 0.485325 0.315964
2507 4 0.220662 0.481458 0.332998
278 4 0.466822 0.484852 0.250342
1376 4 0.0361041 0.0158562 0.395517
1375 2 0.0145324 0.0235324 0.385472
1377 4 0.992961 0.0312086 0.375426
2261 4 0.209826 0.00341312 0.388127
2553 4 0.212628 0.021213 0.393873
2551 2 0.236922 0.0201431 0.399691
2552 4 0.261216 0.0190731 0.405508
1622 4 0.283796 0.0704626 0.400007
1623 4 0.313714 0.0432472 0.370596
1621 2 0.298755 0.0568549 0.385301
3549 4 0.263912 0.0674461 0.401697
402 4 0.334002 0.0427899 0.3715
400 2 0.354787 0.0551038 0.377944
401 4 0.375573 0.0674178 0.384387
3051 4 0.386343 0.0577548 0.397243
3049 2 0.406786 0.0481689 0.407986
3050 4 0.427228 0.0385829 0.418729
1518 4 0.0817154 0.125106 0.350968
1516 2 0.0652863 0.123307 0.332206
1866 4 0.114623 0.0920873 0.34893
1864 2 0.138495 0.099267 0.350868
1865 4 0.162367 0.106447 0.352806
1817 4 0.135209 0.155429 0.408468
1816 2 0.15947 0.161179 0.410357
518 4 0.18866 0.161106 0.343641
519 4 0.176079 0.11285 0.339911
517 2 0.182369 0.136978 0.341776
3028 2 0.214082 0.141662 0.402896
3029 4 0.234632 0.128208 0.407577
3548 4 0.241005 0.111736 0.397893
3030 4 0.193532 0.155115 0.398215
1818 4 0.18373 0.166929 0.412245
3547 2 0.252459 0.0895911 0.399795
365 4 0.258325 0.150367 0.374731
364 2 0.279685 0.160523 0.382845
3275 4 0.0119303 0.179388 0.407485
3324 4 0.0305932 0.17338 0.403489
1799 4 0.150978 0.212826 0.346957
579 4 0.156297 0.208287 0.365574
2799 4 0.0860201 0.254001 0.343727
577 2 0.165141 0.185305 0.361239
2919 4 0.227194 0.240016 0.343031
578 4 0.173984 0.162323 0.356904
3807 4 0.18477 0.212179 0.392913
1698 4 0.192933 0.230922 0.396702
1696 2 0.203771 0.228701 0.374279
1697 4 0.214609 0.22648 0.351855
366 4 0.301044 0.170679 0.390958
662 4 0.374799 0.239808 0.412131
661 2 0.360754 0.21951 0.41612
344 4 0.454341 0.233199 0.422144
452 4 0.0442544 0.30225 0.322482
453 4 0.0753249 0.271156 0.346327
2655 4 0.061413 0.262207 0.415973
2653 2 0.0487648 0.267585 0.395086
2654 4 0.0361166 0.272963 0.374198
451 2 0.0597897 0.286703 0.334404
570 4 0.0503838 0.329444 0.398928
569 4 0.0096109 0.311211 0.42142
568 2 0.0299974 0.320328 0.410174
1060 2 0.0152184 0.319961 0.344122
2 3 0.094104 0.318914 0.392625
3706 2 0.379084 0.275662 0.380457
3707 4 0.381429 0.267984 0.356777
438 4 0.397622 0.263332 0.346295
3708 4 0.376739 0.283339 0.404137
436 2 0.419247 0.275114 0.341964
230 4 0.497111 0.289137 0.346889
231 4 0.451388 0.270352 0.339318
229 2 0.474249 0.279744 0.343104
1775 4 0.0111923 0.429833 0.362302
2508 4 0.255716 0.471528 0.367252
2506 2 0.238189 0.476493 0.350125
3168 4 0.422123 0.441308 0.372307
3167 4 0.465403 0.418524 0.382726
3166 2 0.443763 0.429916 0.377516
598 2 0.499154 0.442832 0.398995
599 4 0.480835 0.430813 0.386947
2714 4 0.0848863 0.00649343 0.422722
2715 4 0.0422931 0.031317 0.431103
813 4 0.0657253 0.0379446 0.488565
2963 4 0.0335709 0.0834243 0.47491
2962 2 0.0508962 0.0717547 0.461168
2713 2 0.0635897 0.0189052 0.426912
2964 4 0.0682215 0.0600851 0.447426
3665 4 0.469209 0.00989136 0.424456
3664 2 0.452365 0.0273171 0.430605
3666 4 0.435521 0.0447429 0.436754
3957 4 0.0685328 0.118423 0.420239
2520 4 0.0525153 0.148797 0.459487
2518 2 0.047332 0.16385 0.478768
2519 4 0.0421487 0.178902 0.498049
2824 2 0.130469 0.102992 0.468191
2825 4 0.108134 0.0996714 0.457455
3956 4 0.106668 0.11861 0.452586
3955 2 0.0876003 0.118516 0.436412
2826 4 0.152804 0.106313 0.478928
2697 4 0.170562 0.104012 0.486579
2695 2 0.195465 0.101908 0.485811
2696 4 0.220369 0.0998042 0.485042
4001 4 0.236249 0.0887466 0.478479
4000 2 0.260043 0.0875489 0.486069
4002 4 0.283836 0.0863511 0.493659
3327 4 0.301642 0.0764098 0.498442
681 4 0.0528762 0.241823 0.423218
3322 2 0.0528 0.177907 0.414051
3323 4 0.0750068 0.182434 0.424613
2338 2 0.0132289 0.209589 0.48477
2340 4 0.0329184 0.219429 0.472909
680 4 0.0218067 0.219337 0.455308
679 2 0.0373414 0.23058 0.439263
1142 4 0.0817235 0.17987 0.443778
1141 2 0.104477 0.185308 0.452603
1143 4 0.127231 0.190747 0.461429
357 4 0.13206 0.19861 0.478324
355 2 0.153311 0.194175 0.49073
3806 4 0.16739 0.211646 0.439801
3805 2 0.17608 0.211913 0.416357
576 4 0.194206 0.18977 0.508361
356 4 0.174563 0.18974 0.503136
383 4 0.293593 0.178855 0.408678
382 2 0.311743 0.193609 0.417515
384 4 0.329893 0.208364 0.426351
663 4 0.346709 0.199212 0.42011
343 2 0.459114 0.243533 0.444407
345 4 0.463888 0.253868 0.466669
614 4 0.998156 0.296319 0.416079
4 3 0.0630641 0.323015 0.413419
1 1 0.0861435 0.325406 0.413208
2491 2 0.115437 0.297939 0.453843
5 3 0.0954611 0.312294 0.42933
2492 4 0.104707 0.319023 0.445749
2493 4 0.126167 0.276855 0.461937
2850 4 0.17704 0.276741 0.469901
2848 2 0.199318 0.288089 0.470222
2849 4 0.221596 0.299437 0.470543
3021 4 0.238112 0.291722 0.462327
3019 2 0.250109 0.309658 0.449697
2355 4 0.274197 0.261999 0.420921
3020 4 0.262107 0.327594 0.437067
1767 4 0.330041 0.273701 0.439328
2354 4 0.313054 0.282706 0.44463
2353 2 0.293625 0.272352 0.432775
1766 4 0.376179 0.272346 0.420088
1765 2 0.35311 0.273024 0.429708
694 2 0.491756 0.274306 0.485942
696 4 0.478897 0.266231 0.466078
2665 2 0.0818276 0.385484 0.436949
4068 4 0.00547544 0.344297 0.476527
3022 2 0.0240659 0.361769 0.495817
3024 4 0.024919 0.346908 0.475727
2666 4 0.0741276 0.405026 0.450514
2667 4 0.0895275 0.365943 0.423383
3 3 0.0918408 0.347612 0.416791
709 2 0.258637 0.417713 0.449313
710 4 0.275153 0.410419 0.466609
2297 4 0.0713296 0.425824 0.451442
2296 2 0.0823877 0.447237 0.458105
2298 4 0.0934459 0.46865 0.464767
711 4 0.24212 0.425008 0.432016
1812 4 0.274035 0.409077 0.485982
1810 2 0.288534 0.426597 0.496374
812 4 0.0466926 0.0315035 0.534358
811 2 0.0562089 0.0347241 0.511462
1269 4 0.156826 0.0749508 0.567705
3360 4 0.179811 0.0749551 0.536389
3358 2 0.188612 0.0523386 0.542407
3359 4 0.197413 0.0297222 0.548425
1210 2 0.286851 0.0658007 0.585895
3395 4 0.476907 0.0128687 0.516506
3394 2 0.481071 0.0362399 0.508656
3396 4 0.485236 0.0596111 0.500805
375 4 0.0314213 0.104907 0.532105
373 2 0.0480937 0.103966 0.513494
468 4 0.0218837 0.113247 0.547836
466 2 0.0194317 0.114021 0.572708
266 4 0.0736702 0.159291 0.567041
3487 2 0.049827 0.156873 0.534387
3489 4 0.0609341 0.147923 0.554923
3488 4 0.0387198 0.165823 0.513851
374 4 0.0647662 0.103026 0.494884
1212 4 0.288606 0.0843157 0.569183
3325 2 0.320589 0.0902767 0.50704
3326 4 0.339536 0.104144 0.515637
650 4 0.340942 0.122927 0.50949
649 2 0.348084 0.145053 0.51869
3038 4 0.0818967 0.226056 0.576684
3037 2 0.0579906 0.229235 0.570084
3039 4 0.0340844 0.232414 0.563484
2991 4 0.0895454 0.241411 0.565274
2339 4 0.993539 0.19975 0.496631
265 2 0.0921294 0.176123 0.568099
267 4 0.110589 0.192956 0.569157
2981 4 0.12698 0.18471 0.559145
2980 2 0.151518 0.185743 0.563837
2989 2 0.109376 0.24174 0.550049
2982 4 0.176056 0.186776 0.568529
574 2 0.217862 0.189367 0.516449
3524 4 0.19053 0.200375 0.571485
575 4 0.241517 0.188965 0.524537
651 4 0.355225 0.167179 0.527891
1181 4 0.369658 0.175537 0.53826
1180 2 0.394371 0.171949 0.53951
1182 4 0.419085 0.168362 0.540761
3461 4 0.499211 0.167927 0.518306
2990 4 0.129207 0.242069 0.534824
2171 4 0.132236 0.261214 0.534159
2170 2 0.138943 0.284095 0.541687
2172 4 0.145651 0.306975 0.549215
2374 2 0.353256 0.324872 0.55644
2376 4 0.369157 0.305591 0.555674
936 4 0.375521 0.292949 0.571843
3501 4 0.436516 0.300638 0.516185
3499 2 0.454159 0.317901 0.52018
979 2 0.0222619 0.406529 0.530883
981 4 0.0233367 0.381969 0.535447
3023 4 0.0232129 0.37663 0.515908
2800 2 0.106489 0.409343 0.50684
2349 4 0.146339 0.392138 0.506721
2802 4 0.127119 0.39525 0.505846
2347 2 0.167666 0.404671 0.510364
2498 4 0.220103 0.338128 0.557898
2497 2 0.239431 0.340358 0.573602
431 4 0.208239 0.416276 0.516845
2375 4 0.337355 0.344153 0.557206
3500 4 0.471801 0.335163 0.524174
510 4 0.478957 0.354568 0.524435
980 4 0.0211871 0.431089 0.526319
1227 4 0.00228499 0.432281 0.525204
2801 4 0.085859 0.423436 0.507833
2348 4 0.188993 0.417205 0.514007
430 2 0.213781 0.427765 0.538351
432 4 0.219322 0.439255 0.559857
3057 4 0.231926 0.454743 0.555868
3055 2 0.231871 0.469145 0.576307
1811 4 0.303033 0.444117 0.506766
1907 4 0.316248 0.434312 0.518973
1906 2 0.331896 0.440516 0.537462
1908 4 0.347544 0.44672 0.555951
2113 2 0.0296864 0.00548402 0.66141
2115 4 0.0338153 0.000308962 0.637299
342 4 0.23056 0.00604064 0.600976
340 2 0.249331 0.022496 0.602409
341 4 0.268102 0.0389514 0.603842
1211 4 0.285096 0.0472858 0.602607
2597 4 0.335464 0.0619867 0.661315
2596 2 0.316672 0.0481023 0.652411
2598 4 0.297881 0.0342179 0.643507
316 2 0.38993 0.0315147 0.599109
879 4 0.340106 0.0810442 0.656141
318 4 0.366181 0.0285024 0.606325
2333 4 0.364828 0.0312434 0.62564
2332 2 0.350113 0.0111075 0.627432
317 4 0.41368 0.034527 0.591894
877 2 0.361086 0.0832706 0.642722
3458 4 0.436638 0.0477575 0.642655
3457 2 0.417107 0.0410479 0.656751
2204 4 0.422724 0.0189031 0.59825
2203 2 0.442065 0.00604755 0.607515
467 4 0.0169796 0.114795 0.597579
2977 2 0.073554 0.167038 0.664772
2232 4 0.997469 0.112084 0.602664
1267 2 0.159446 0.0889179 0.588278
1268 4 0.162066 0.102885 0.608851
4182 4 0.179202 0.0991148 0.617947
4180 2 0.187273 0.10338 0.641225
4181 4 0.195344 0.107645 0.664503
878 4 0.382066 0.0854971 0.629303
1098 4 0.392397 0.0907062 0.646983
1096 2 0.40933 0.105939 0.657299
2566 2 0.0701558 0.231656 0.648178
2567 4 0.0466344 0.224444 0.652641
3306 4 0.0410726 0.211507 0.666631
2978 4 0.0911174 0.175368 0.649046
3366 4 0.109442 0.167491 0.657122
3381 4 0.161117 0.247138 0.666932
3523 2 0.208122 0.212473 0.584499
3525 4 0.225714 0.224571 0.597513
2832 4 0.234494 0.217154 0.614934
2830 2 0.232789 0.202709 0.635271
2831 4 0.231085 0.188264 0.655609
1185 4 0.214995 0.194136 0.665506
3477 4 0.27348 0.185407 0.618443
3475 2 0.295697 0.188816 0.629396
3476 4 0.317913 0.192225 0.64035
2568 4 0.0936772 0.238869 0.643714
3192 4 0.177983 0.257817 0.664977
3191 4 0.219119 0.282235 0.650404
4421 4 0.230543 0.28209 0.633632
4420 2 0.249195 0.288734 0.618361
3190 2 0.198551 0.270026 0.657691
4422 4 0.267846 0.295379 0.603091
1919 4 0.276414 0.297958 0.584609
1918 2 0.299973 0.29709 0.59294
1920 4 0.323532 0.296223 0.601271
3027 4 0.330777 0.293554 0.620194
3025 2 0.3279 0.276415 0.63817
3026 4 0.325022 0.259276 0.656147
934 2 0.396305 0.294279 0.585679
935 4 0.417089 0.295609 0.599514
503 4 0.426229 0.299117 0.616657
502 2 0.449157 0.290505 0.611627
504 4 0.472085 0.281892 0.606597
1079 4 0.486169 0.270661 0.617676
2415 4 0.45536 0.319812 0.66139
1952 4 0.0215384 0.343011 0.604709
2174 4 0.0391636 0.3394 0.613852
2173 2 0.0544775 0.358069 0.620344
945 4 0.0238787 0.39676 0.616309
2175 4 0.0697913 0.376738 0.626837
3183 4 0.0440221 0.400557 0.617675
943 2 0.00197152 0.40881 0.616556
290 4 0.21606 0.335951 0.660995
289 2 0.237953 0.335971 0.648916
2035 2 0.211107 0.400077 0.645102
2036 4 0.186583 0.396762 0.648675
2037 4 0.235631 0.403391 0.641529
2499 4 0.25876 0.342588 0.589307
4307 4 0.25268 0.400545 0.632864
3263 4 0.177539 0.414415 0.651659
291 4 0.259847 0.335992 0.636838
1205 4 0.321212 0.381056 0.606205
1206 4 0.279662 0.364663 0.583718
1204 2 0.300437 0.37286 0.594961
4306 2 0.269686 0.417453 0.639943
3158 4 0.339553 0.383625 0.609634
3157 2 0.358592 0.386174 0.62564
3159 4 0.377631 0.388722 0.641647
3141 4 0.387762 0.371923 0.638148
3139 2 0.412656 0.374263 0.638063
3140 4 0.43755 0.376603 0.637978
7 3 0.441058 0.396586 0.636923
6 1 0.460724 0.407993 0.640432
10 3 0.476517 0.400361 0.625906
2324 4 0.488289 0.384483 0.624074
9 3 0.467673 0.404418 0.662279
3181 2 0.059884 0.412746 0.632675
3182 4 0.0757459 0.424934 0.647675
2033 4 0.0855376 0.44112 0.649887
3262 2 0.165377 0.435884 0.647616
3264 4 0.153216 0.457354 0.643574
2032 2 0.109319 0.447778 0.645977
2034 4 0.1331 0.454437 0.642067
3056 4 0.231816 0.483547 0.596746
4308 4 0.286692 0.43436 0.647023
2106 4 0.299101 0.445376 0.636793
2104 2 0.323283 0.449885 0.632306
3737 4 0.409723 0.45835 0.6153
2105 4 0.347464 0.454393 0.62782
3738 4 0.360482 0.46669 0.617845
3736 2 0.385103 0.46252 0.616572
8 3 0.457001 0.430623 0.636906
3070 2 0.452443 0.462807 0.622356
3071 4 0.44289 0.444534 0.636498
3072 4 0.461995 0.481081 0.608214
4412 4 0.474909 0.491318 0.596236
3314 4 0.0695126 0.996878 0.757612
3419 4 0.0121169 0.024443 0.679463
2114 4 0.0255575 0.0106591 0.685522
2292 4 0.075043 0.997041 0.737547
4162 2 0.409301 0.0595177 0.719127
4163 4 0.398183 0.081405 0.723872
4164 4 0.420419 0.0376303 0.714382
3459 4 0.397577 0.0343384 0.670847
636 4 0.488853 0.0458183 0.725662
1024 2 0.500641 0.00174284 0.692097
2971 2 0.438347 0.998334 0.68585
2973 4 0.41624 0.00494133 0.695481
2979 4 0.0559906 0.158707 0.680499
1971 4 0.0861957 0.0973627 0.730126
845 4 0.0555618 0.139729 0.690057
846 4 0.0694223 0.103034 0.721073
844 2 0.0624921 0.121382 0.705565
1193 4 0.149282 0.133837 0.693743
3364 2 0.129574 0.157374 0.667962
3365 4 0.149707 0.147257 0.678801
1969 2 0.101105 0.099128 0.750121
1192 2 0.173051 0.140738 0.697295
2240 4 0.206034 0.106571 0.680768
2239 2 0.2263 0.113108 0.693873
1194 4 0.19682 0.147639 0.700847
2241 4 0.246567 0.119645 0.706977
1184 4 0.210814 0.148892 0.686392
2199 4 0.326863 0.0972879 0.713874
1943 4 0.265147 0.122321 0.699312
1942 2 0.286394 0.110449 0.705043
1944 4 0.30764 0.0985779 0.710773
2197 2 0.340699 0.0859773 0.731362
1097 4 0.426263 0.121171 0.667615
3870 4 0.42646 0.11192 0.685252
3868 2 0.441452 0.110636 0.705221
3869 4 0.456445 0.109353 0.72519
3305 4 0.0182925 0.203499 0.710423
3304 2 0.0296826 0.207503 0.688527
2265 4 0.00518674 0.208357 0.723742
3379 2 0.157049 0.234329 0.688017
3380 4 0.152981 0.221521 0.709101
1183 2 0.212904 0.171514 0.675949
3387 4 0.283528 0.207917 0.750938
3104 4 0.29974 0.199192 0.743433
3103 2 0.323877 0.197911 0.749831
3281 4 0.404842 0.212743 0.728714
3280 2 0.385991 0.203954 0.742592
3130 2 0.352895 0.250471 0.683196
3132 4 0.374102 0.240577 0.692002
444 4 0.411431 0.228552 0.71819
442 2 0.432529 0.234914 0.730005
443 4 0.453628 0.241277 0.741819
3163 2 0.211173 0.32418 0.698235
260 4 0.202778 0.316263 0.736976
3165 4 0.21161 0.31977 0.673627
3131 4 0.331687 0.260365 0.674391
1089 4 0.344623 0.295746 0.723555
1088 4 0.393417 0.284806 0.723947
1087 2 0.36902 0.290276 0.723751
2414 4 0.47553 0.280804 0.685312
2413 2 0.465445 0.300308 0.673351
3296 4 0.458633 0.302731 0.748323
3618 4 0.0312749 0.412235 0.676349
3616 2 0.00632594 0.411696 0.677907
2985 4 0.99641 0.39246 0.757989
3164 4 0.210737 0.32859 0.722843
2859 4 0.413119 0.33813 0.727367
2857 2 0.437224 0.344343 0.725012
3153 4 0.461982 0.405958 0.68089
3152 4 0.46653 0.369813 0.715148
2858 4 0.461329 0.350556 0.722658
3151 2 0.464256 0.387885 0.698019
4577 4 0.149359 0.490313 0.716545
4576 2 0.168095 0.48476 0.700947
4578 4 0.186832 0.479207 0.685349
4062 4 0.202803 0.492236 0.684873
4060 2 0.220752 0.501067 0.699874
3313 2 0.0491117 0.0100356 0.763602
3315 4 0.0287107 0.0231931 0.769592
3343 2 0.415212 0.00115941 0.828317
4337 4 0.3354 0.0477295 0.808577
1259 4 0.365983 0.080978 0.76443
2198 4 0.354536 0.0746667 0.748849
3345 4 0.432616 0.0176418 0.8212
2835 4 0.450034 0.012965 0.811311
2948 4 0.139477 0.0945929 0.818752
1970 4 0.116014 0.100893 0.770115
2949 4 0.10532 0.108605 0.785022
2947 2 0.122399 0.101599 0.801887
1258 2 0.371419 0.100781 0.778695
1260 4 0.376854 0.120583 0.79296
2136 4 0.383826 0.140431 0.794063
2134 2 0.402143 0.157118 0.790708
2996 4 0.0108919 0.16465 0.814944
2795 4 0.0581099 0.209385 0.820827
470 4 0.237187 0.169962 0.777254
469 2 0.230294 0.17448 0.80086
471 4 0.2234 0.178998 0.824466
3031 2 0.232249 0.224185 0.82548
3032 4 0.230807 0.248214 0.83224
3386 4 0.247739 0.187427 0.779224
3385 2 0.265633 0.197672 0.765081
3105 4 0.348015 0.19663 0.75623
3282 4 0.367141 0.195164 0.756471
824 4 0.47902 0.165383 0.766985
823 2 0.454184 0.167905 0.768399
825 4 0.429348 0.170427 0.769813
2135 4 0.420459 0.173806 0.787353
274 2 0.0778859 0.286396 0.823713
276 4 0.0913922 0.291591 0.803323
611 4 0.131677 0.313824 0.820426
1421 4 0.247476 0.2586 0.830586
2988 4 0.316406 0.266055 0.828749
1420 2 0.271976 0.263478 0.829532
1422 4 0.296477 0.268356 0.828478
2987 4 0.355633 0.289664 0.808633
1256 4 0.375537 0.287489 0.815902
1255 2 0.393713 0.291367 0.799174
2986 2 0.33602 0.27786 0.818691
1257 4 0.411888 0.295244 0.782447
3297 4 0.413989 0.286649 0.764106
1215 4 0.476168 0.309002 0.753944
3295 2 0.436311 0.29469 0.756215
1213 2 0.488679 0.322298 0.771029
1014 4 0.109491 0.398757 0.813679
1012 2 0.105487 0.378255 0.827421
40 3 0.149193 0.371858 0.80077
37 3 0.160935 0.343879 0.8225
2864 4 0.106122 0.417486 0.8218
750 4 0.14795 0.348794 0.837429
39 3 0.164524 0.341205 0.785182
259 2 0.189935 0.330343 0.753163
261 4 0.177093 0.344423 0.76935
36 1 0.165106 0.355756 0.803247
38 3 0.186084 0.36554 0.804865
1614 4 0.19692 0.361029 0.788485
1612 2 0.21676 0.372849 0.778902
1613 4 0.2366 0.38467 0.76932
4092 4 0.237905 0.403877 0.77147
4090 2 0.256236 0.411335 0.786753
4091 4 0.274566 0.418792 0.802036
1214 4 0.50119 0.335593 0.788113
1122 4 0.0461549 0.466657 0.824556
1120 2 0.0232422 0.456923 0.826889
3243 4 0.0592752 0.464726 0.810407
3241 2 0.0776723 0.476794 0.798528
3242 4 0.0960693 0.488861 0.786649
2377 2 0.182221 0.484527 0.814654
4481 4 0.219035 0.495518 0.82313
2378 4 0.20591 0.479695 0.821033
1280 4 0.287769 0.426895 0.813184
4367 4 0.448259 0.468767 0.796365
4366 2 0.437831 0.476552 0.817716
4128 4 0.146541 0.0118169 0.890432
4126 2 0.166952 0.0261228 0.888446
2342 4 0.119309 0.0880241 0.905157
4127 4 0.187363 0.0404287 0.88646