ITEM: TIMESTEP
2730500
ITEM: NUMBER OF ATOMS
4590
ITEM: BOX BOUNDS xy xz yz pp pp pp
-1.7797454600000009e+01 9.9985700000000008e+00 -7.7988846000000080e+00
-9.9985700000000008e+00 9.9985700000000008e+00 0.0000000000000000e+00
-9.9985700000000008e+00 9.9985700000000008e+00 0.0000000000000000e+00
ITEM: ATOMS id type xs ys zs
1294 2 0.00908926 0.0160084 0.0234938
1295 4 0.0312005 0.0234741 0.0093222
2786 4 0.403009 0.0128623 0.00979338
2606 4 0.399825 0.000430144 0.025899
789 4 0.0972979 0.12406 0.00335888
300 4 0.305618 0.152758 0.0706536
298 2 0.330579 0.157911 0.0791303
1761 4 0.476401 0.11123 0.0208956
307 2 0.0111265 0.222403 0.0152988
309 4 0.0257531 0.209928 0.0247638
673 2 0.0704174 0.240439 0.0207939
675 4 0.0465666 0.221763 0.0221908
4436 4 0.00340736 0.254955 0.00348383
3101 4 0.0129511 0.331211 0.0576209
674 4 0.0942683 0.259115 0.019397
2805 4 0.103268 0.263471 0.0357805
2803 2 0.114491 0.280416 0.0535777
2804 4 0.125714 0.297362 0.0713749
2527 2 0.289543 0.279934 0.0719382
2528 4 0.309959 0.282966 0.0562508
3335 4 0.318818 0.275704 0.0416734
3334 2 0.343222 0.277226 0.0491535
3336 4 0.367625 0.278747 0.0566336
555 4 0.431983 0.288843 0.0271893
553 2 0.439832 0.299365 0.0495603
554 4 0.44768 0.309887 0.0719312
1692 4 0.440428 0.322633 0.00714817
3195 4 0.496973 0.267838 0.00552297
3218 4 0.0743035 0.336118 0.0521788
3100 2 0.039678 0.340205 0.0598945
3102 4 0.066405 0.349199 0.0621681
915 4 0.126033 0.39773 0.0486463
3217 2 0.100692 0.342618 0.0484438
913 2 0.140353 0.406433 0.069384
4358 4 0.142886 0.367429 0.0436355
3219 4 0.12708 0.349118 0.0447088
4357 2 0.154229 0.360935 0.023875
4359 4 0.165571 0.354441 0.00411457
387 4 0.276253 0.393414 0.0576132
385 2 0.298732 0.395731 0.0700348
3663 4 0.340301 0.412738 0.0816208
386 4 0.321212 0.398047 0.0824564
1292 4 0.363834 0.346166 0.0203172
974 4 0.380242 0.364236 0.014921
973 2 0.394368 0.354432 0.0293044
3661 2 0.366111 0.415094 0.081898
1291 2 0.342788 0.338198 0.00482901
975 4 0.408494 0.344628 0.0436878
4088 4 0.430634 0.368439 0.0853063
4087 2 0.456705 0.37174 0.0856382
4089 4 0.482775 0.375042 0.0859701
3074 4 0.499532 0.350426 0.00523043
3040 2 0.00990977 0.445367 0.0107968
3041 4 0.0307355 0.463814 0.000842738
956 4 0.188847 0.485229 0.0457151
955 2 0.177588 0.471373 0.0656876
4414 2 0.177462 0.441658 0.00148809
2088 4 0.207534 0.464504 0.0209156
4415 4 0.18873 0.447478 0.0240792
2086 2 0.227141 0.4847 0.0119871
1320 4 0.316231 0.464281 0.0271686
1318 2 0.324812 0.459201 0.0492547
1319 4 0.333394 0.454121 0.0713408
2742 4 0.324577 0.436039 0.0817073
3662 4 0.391921 0.41745 0.0821751
2546 4 0.492513 0.480855 0.0473059
561 4 0.484338 0.48667 0.0646301
2454 4 0.0132009 0.0412641 0.149998
3623 4 0.00124757 0.00348003 0.102956
3810 4 0.0329212 0.0524367 0.155341
3622 2 0.0268986 0.00759582 0.108439
3624 4 0.0525497 0.0117116 0.113921
1515 4 0.0634532 0.0259514 0.128054
1513 2 0.0872789 0.0418666 0.120212
1514 4 0.111105 0.0577818 0.112369
2757 4 0.128045 0.056925 0.12273
2755 2 0.154207 0.062883 0.127362
2756 4 0.180368 0.0688409 0.131994
654 4 0.500099 0.0647704 0.102844
474 4 0.291586 0.144604 0.0851407
54 3 0.259804 0.145482 0.145055
473 4 0.261147 0.142307 0.125422
472 2 0.276367 0.143456 0.105282
51 1 0.268079 0.141382 0.165649
55 3 0.292053 0.153267 0.167498
2513 4 0.309809 0.159777 0.157505
53 3 0.263626 0.118714 0.167957
292 2 0.366834 0.152635 0.126316
293 4 0.376352 0.154603 0.149656
294 4 0.357315 0.150667 0.102976
299 4 0.35554 0.163064 0.087607
3283 2 0.200185 0.242678 0.149476
3284 4 0.192975 0.218192 0.144991
2960 4 0.19076 0.199233 0.142283
2959 2 0.210519 0.192754 0.151588
2961 4 0.230277 0.186276 0.160894
2512 2 0.334949 0.176312 0.159062
2836 2 0.408144 0.208019 0.16524
2514 4 0.36009 0.192846 0.160618
2838 4 0.434553 0.213109 0.166896
2708 4 0.455729 0.217388 0.160564
2707 2 0.482079 0.221896 0.160192
703 2 0.0123216 0.275813 0.0878532
704 4 0.0231006 0.285797 0.109719
690 4 0.115441 0.327875 0.145307
3285 4 0.207394 0.267164 0.153961
597 4 0.222517 0.282584 0.162883
2969 4 0.171428 0.314312 0.145302
2968 2 0.197465 0.327349 0.141269
2529 4 0.269127 0.276902 0.0876256
1027 2 0.258384 0.329162 0.11978
1028 4 0.277111 0.321818 0.10953
2510 4 0.293806 0.320512 0.117931
2509 2 0.318514 0.33255 0.109001
2896 2 0.00392315 0.38374 0.152506
2897 4 0.0129246 0.40767 0.159747
914 4 0.154674 0.415136 0.0901216
1047 4 0.167266 0.403845 0.0853015
688 2 0.133332 0.340965 0.128266
689 4 0.151223 0.354054 0.111225
1045 2 0.182265 0.401757 0.104557
1029 4 0.239657 0.336506 0.13003
1288 2 0.243115 0.410433 0.133387
1289 4 0.217257 0.400203 0.126884
1046 4 0.197264 0.399669 0.123812
2970 4 0.223501 0.340385 0.137235
966 4 0.3631 0.358508 0.106719
2511 4 0.343222 0.344588 0.10007
1512 4 0.390879 0.408037 0.161947
964 2 0.388569 0.360907 0.102532
965 4 0.414038 0.363305 0.0983459
3632 4 0.480547 0.32912 0.153514
4313 4 0.0093613 0.424588 0.161945
323 4 0.134596 0.472055 0.129103
322 2 0.14677 0.490542 0.14519
957 4 0.16633 0.457518 0.0856602
1290 4 0.268974 0.420663 0.139889
4277 4 0.289426 0.431083 0.139949
4257 4 0.381296 0.494292 0.110962
1801 2 0.314943 0.475832 0.141264
1803 4 0.311832 0.46451 0.119008
2741 4 0.301447 0.44419 0.123445
2740 2 0.313012 0.440114 0.102576
4276 2 0.304565 0.42105 0.15266
1802 4 0.318054 0.487154 0.163519
2475 4 0.406321 0.41991 0.0967855
2473 2 0.431674 0.420925 0.0956475
2474 4 0.457027 0.42194 0.0945095
648 4 0.471225 0.437746 0.104675
646 2 0.495952 0.438593 0.0992695
3808 2 0.0543068 0.0658862 0.168899
3809 4 0.0756924 0.0793358 0.182457
758 4 0.328432 0.00774054 0.196342
2646 4 0.482544 0.000842483 0.193618
745 2 0.0102577 0.162503 0.232783
747 4 0.00349797 0.139179 0.241484
1866 4 0.0219823 0.136508 0.239512
1864 2 0.0126089 0.11319 0.248532
3485 4 0.0960393 0.0890724 0.188682
3484 2 0.122079 0.100591 0.183369
3486 4 0.148119 0.112109 0.178056
3510 4 0.165188 0.128619 0.178757
3508 2 0.191724 0.137981 0.182477
3509 4 0.218261 0.147343 0.186197
1476 4 0.237858 0.160083 0.238666
1474 2 0.238495 0.154871 0.214357
250 2 0.211869 0.0967617 0.246801
1475 4 0.239132 0.14966 0.190048
3062 4 0.22286 0.156926 0.25235
251 4 0.237971 0.104034 0.241234
52 3 0.256107 0.14788 0.182277
2535 4 0.249474 0.110487 0.224919
2533 2 0.274497 0.125481 0.219201
2534 4 0.29952 0.140475 0.213484
713 4 0.319768 0.147038 0.207676
712 2 0.346595 0.156199 0.206958
714 4 0.373422 0.165361 0.20624
746 4 0.0170175 0.185827 0.224081
530 4 0.0921142 0.231207 0.215364
1356 4 0.246313 0.204635 0.165975
1354 2 0.269552 0.221492 0.173933
2840 4 0.261346 0.213877 0.239247
2839 2 0.286245 0.228118 0.232307
1355 4 0.292791 0.238349 0.18189
1220 4 0.312456 0.240258 0.179043
2841 4 0.311144 0.242358 0.225368
1219 2 0.326264 0.225375 0.183405
1221 4 0.340071 0.210492 0.187768
2798 4 0.331311 0.246248 0.230952
2837 4 0.381735 0.20293 0.163584
3455 4 0.352953 0.217301 0.203465
3454 2 0.37428 0.216867 0.216227
3456 4 0.395607 0.216433 0.22899
3895 2 0.427961 0.209729 0.244774
3897 4 0.405484 0.214835 0.245392
3896 4 0.450439 0.204623 0.244155
253 2 0.493614 0.222262 0.2377
255 4 0.468944 0.220194 0.244873
1103 4 0.0797919 0.326669 0.180847
3014 4 0.0809342 0.311322 0.170397
3013 2 0.0989118 0.302805 0.180345
3015 4 0.116889 0.294287 0.190293
531 4 0.112453 0.280035 0.204644
529 2 0.102284 0.255621 0.210004
665 4 0.18697 0.269378 0.232433
664 2 0.167991 0.274826 0.220178
666 4 0.149013 0.280273 0.207924
595 2 0.242043 0.280395 0.177202
596 4 0.26157 0.278206 0.191521
3220 2 0.304382 0.297344 0.1875
3222 4 0.279704 0.292378 0.196632
3221 4 0.329059 0.30231 0.178369
2537 4 0.346543 0.300742 0.187656
2536 2 0.366685 0.319134 0.198552
2797 2 0.349947 0.259894 0.24713
737 4 0.477101 0.278302 0.24861
736 2 0.491008 0.289464 0.228378
1102 2 0.0627309 0.332126 0.19592
1104 4 0.0456699 0.337582 0.210993
4278 4 0.319704 0.411017 0.16537
3904 2 0.398111 0.400331 0.236539
3905 4 0.397745 0.406566 0.212487
2538 4 0.386828 0.337526 0.209447
1510 2 0.391456 0.415173 0.185809
4511 4 0.49272 0.352434 0.248911
1388 4 0.102743 0.497708 0.193854
1387 2 0.117814 0.483555 0.192894
1389 4 0.132885 0.469403 0.191934
2657 4 0.147774 0.465546 0.203112
2658 4 0.197269 0.499429 0.209157
2656 2 0.172522 0.482487 0.206134
1511 4 0.392032 0.422309 0.209671
4200 4 0.444973 0.471911 0.229519
4198 2 0.462506 0.490118 0.215924
1648 2 0.0213889 0.0664564 0.263227
1649 4 0.0423459 0.0615209 0.272016
1650 4 0.0004319 0.0713919 0.254438
3504 4 0.0529616 0.0621766 0.255699
2261 4 0.0932134 0.002713 0.27341
735 4 0.0625417 0.0255418 0.314173
2552 4 0.0505673 0.0256547 0.29764
3502 2 0.0764829 0.0590792 0.257713
2551 2 0.060327 0.0116717 0.283561
2892 4 0.120594 0.0584941 0.262678
3503 4 0.100004 0.0559818 0.259727
2260 2 0.119722 0.0112202 0.269535
2890 2 0.147311 0.068626 0.264745
2127 4 0.167622 0.0286492 0.267414
2262 4 0.146231 0.0197274 0.265661
2891 4 0.174028 0.0787579 0.266813
2125 2 0.191524 0.0295727 0.275789
2126 4 0.215426 0.0304962 0.284165
1675 2 0.263158 0.0488741 0.29174
1676 4 0.23792 0.037613 0.283749
1491 4 0.255997 0.0141978 0.271936
1677 4 0.288395 0.0601352 0.29973
1693 2 0.33521 0.0700128 0.315774
1695 4 0.310738 0.0684259 0.308448
1694 4 0.359683 0.0715997 0.3231
579 4 0.381784 0.0757522 0.328741
1371 4 0.49748 0.0231201 0.332465
1518 4 0.45448 0.0354319 0.304948
1516 2 0.462572 0.0599154 0.309806
1865 4 0.00323546 0.0898722 0.257552
511 2 0.102742 0.0990422 0.324202
518 4 0.141135 0.117366 0.319719
512 4 0.12254 0.107022 0.307377
252 4 0.185767 0.0894895 0.252369
517 2 0.156653 0.113511 0.301813
519 4 0.172171 0.109657 0.283907
3063 4 0.190373 0.125752 0.285751
3061 2 0.206616 0.141339 0.26905
44 3 0.442951 0.0911303 0.318742
41 1 0.429373 0.100449 0.331203
42 3 0.431193 0.12053 0.321729
43 3 0.405461 0.0863079 0.331117
1517 4 0.470664 0.0843989 0.314665
2678 4 0.465033 0.0976276 0.32478
2677 2 0.490669 0.10914 0.331524
1800 4 0.255846 0.214304 0.258578
1798 2 0.253769 0.220525 0.282373
1383 4 0.251338 0.224516 0.325713
1799 4 0.251693 0.226747 0.306168
3353 4 0.188696 0.18936 0.328331
2601 4 0.000972509 0.33501 0.252123
3588 4 0.10197 0.268606 0.294409
3586 2 0.128703 0.278104 0.292243
1601 4 0.173228 0.299707 0.279996
3587 4 0.155435 0.287602 0.290077
1600 2 0.190973 0.297068 0.296297
1697 4 0.193166 0.280131 0.323269
1602 4 0.208719 0.294429 0.312598
3058 2 0.289829 0.324749 0.256197
3060 4 0.310597 0.317146 0.258228
3059 4 0.269062 0.332351 0.254165
3543 4 0.322255 0.279155 0.303588
3542 4 0.372679 0.287625 0.289145
2799 4 0.368584 0.273539 0.263307
3541 2 0.347467 0.28339 0.296367
452 4 0.401645 0.246427 0.328688
110 3 0.390613 0.302515 0.284698
451 2 0.409839 0.260763 0.308367
3627 4 0.438506 0.289074 0.284713
453 4 0.418033 0.275098 0.288047
106 1 0.405214 0.322986 0.277227
109 3 0.419484 0.320545 0.259885
107 3 0.41978 0.33443 0.294435
3625 2 0.464173 0.298378 0.291989
3626 4 0.489841 0.307683 0.299264
2689 2 0.0816785 0.403257 0.277802
2691 4 0.0616149 0.388757 0.263403
2600 4 0.0465366 0.37504 0.253243
2599 2 0.0237545 0.355025 0.252683
270 4 0.23436 0.357722 0.267666
268 2 0.248182 0.381585 0.261721
269 4 0.262005 0.405447 0.255776
3906 4 0.398477 0.394095 0.26059
2578 2 0.366975 0.346926 0.289317
2579 4 0.344501 0.351987 0.290687
3019 2 0.368051 0.407561 0.297613
108 3 0.391523 0.335092 0.269959
2580 4 0.389448 0.341864 0.287947
3020 4 0.35874 0.382827 0.293967
1757 4 0.416522 0.403802 0.267677
416 4 0.40946 0.34714 0.297105
415 2 0.419693 0.359169 0.318313
4512 4 0.441579 0.330667 0.263331
4510 2 0.467149 0.34155 0.256121
1756 2 0.442133 0.411447 0.27507
1862 4 0.0116782 0.444513 0.252659
1391 4 0.0626681 0.50125 0.270419
1863 4 0.0357253 0.420756 0.281409
1861 2 0.0237018 0.432635 0.267034
2690 4 0.101742 0.417757 0.292201
3704 4 0.270897 0.46972 0.333106
3021 4 0.377361 0.432295 0.301259
1758 4 0.467744 0.419092 0.282463
2922 4 0.486842 0.425669 0.293671
2238 4 0.0500629 0.0797422 0.402405
733 2 0.0723755 0.0322259 0.337157
734 4 0.0822093 0.0389101 0.360141
1621 2 0.120752 0.0557491 0.378674
1622 4 0.0949243 0.0408248 0.3772
1623 4 0.14658 0.0706734 0.380148
577 2 0.376928 0.0555257 0.343124
578 4 0.372071 0.0352992 0.357507
3872 4 0.488928 0.032186 0.390623
3276 4 0.00229581 0.139861 0.414567
528 4 0.021854 0.148497 0.406107
526 2 0.0451133 0.153699 0.393966
527 4 0.0683725 0.1589 0.381826
894 4 0.0864176 0.156018 0.385912
2236 2 0.0607642 0.0860122 0.379652
1182 4 0.0403782 0.0912032 0.410672
2237 4 0.0714654 0.0922821 0.356898
513 4 0.0829437 0.0910628 0.341027
892 2 0.109341 0.153572 0.378905
893 4 0.132264 0.151126 0.371899
722 4 0.143505 0.142329 0.383355
721 2 0.169454 0.149565 0.389516
723 4 0.195404 0.1568 0.395676
3327 4 0.213598 0.154185 0.400251
249 4 0.278954 0.14546 0.41034
428 4 0.360586 0.159372 0.346102
3235 2 0.337217 0.156045 0.414359
427 2 0.387003 0.167909 0.350498
2675 4 0.457734 0.118385 0.352822
2674 2 0.467977 0.141264 0.362821
45 3 0.437719 0.104029 0.352594
2676 4 0.47822 0.164144 0.372819
1782 4 0.0102172 0.196844 0.365972
306 4 0.0284857 0.198333 0.357506
304 2 0.051924 0.194973 0.358678
305 4 0.0753623 0.191612 0.35985
2132 4 0.0917158 0.19628 0.347775
2131 2 0.110873 0.208757 0.364063
2133 4 0.130029 0.221234 0.380351
1381 2 0.262453 0.243546 0.341507
3354 4 0.214121 0.225549 0.360936
3352 2 0.201408 0.207455 0.344633
695 4 0.263964 0.177456 0.367166
694 2 0.290064 0.187008 0.361395
936 4 0.336544 0.197283 0.357488
696 4 0.316164 0.19656 0.355624
934 2 0.362036 0.212743 0.354772
935 4 0.387529 0.228204 0.352057
3237 4 0.354127 0.164333 0.395139
429 4 0.413419 0.176446 0.354893
365 4 0.375475 0.172334 0.396738
3065 4 0.406562 0.243899 0.348092
364 2 0.395771 0.174398 0.412263
2813 4 0.429772 0.191654 0.364204
2814 4 0.473863 0.180367 0.368865
2812 2 0.451818 0.186011 0.366535
1143 4 0.128526 0.280472 0.407139
1696 2 0.190916 0.272511 0.347073
1698 4 0.188666 0.264891 0.370876
1382 4 0.273568 0.262575 0.3573
3323 4 0.294592 0.26469 0.355262
3322 2 0.320437 0.279074 0.352286
1446 4 0.363271 0.292971 0.36012
3324 4 0.346281 0.293458 0.34931
3064 2 0.431542 0.249944 0.356859
1444 2 0.385671 0.293698 0.348479
1445 4 0.408071 0.294425 0.336839
3066 4 0.456522 0.255988 0.365625
3473 4 0.477739 0.257431 0.364968
4268 4 0.39472 0.390199 0.372559
4269 4 0.412285 0.368588 0.409411
4267 2 0.403502 0.379394 0.390985
417 4 0.429926 0.371198 0.339521
438 4 0.473188 0.379772 0.350829
2457 4 0.415396 0.352648 0.402091
436 2 0.492681 0.371094 0.355974
1632 4 0.00146826 0.49197 0.399277
1630 2 0.0270858 0.496479 0.393311
4179 4 0.0682495 0.496302 0.377783
3705 4 0.294647 0.485871 0.377098
3703 2 0.282772 0.477795 0.355102
3755 4 0.439094 0.48068 0.407683
1816 2 0.117044 0.0357005 0.456257
1817 4 0.110654 0.0399198 0.479556
2765 4 0.117468 0.0313231 0.494556
1818 4 0.123434 0.0314812 0.432959
1998 4 0.137547 0.00694018 0.438317
1996 2 0.162709 0.0106217 0.445296
1997 4 0.187871 0.0143031 0.452274
3773 4 0.233478 0.0562325 0.494368
3772 2 0.220761 0.0405082 0.476077
3774 4 0.208044 0.024784 0.457785
1180 2 0.0158293 0.0848078 0.420566
3525 4 0.0236109 0.118246 0.485823
3523 2 0.0486678 0.11893 0.482631
3524 4 0.0737248 0.119615 0.47944
574 2 0.115183 0.124409 0.468738
575 4 0.0907266 0.12524 0.465513
651 4 0.156497 0.12746 0.484773
576 4 0.139639 0.123577 0.471963
827 4 0.19295 0.097874 0.482399
650 4 0.198647 0.13978 0.45388
649 2 0.177572 0.13362 0.469326
826 2 0.213233 0.0996254 0.466973
3326 4 0.207224 0.128526 0.443019
3325 2 0.210411 0.141355 0.421635
248 4 0.250256 0.105561 0.437472
828 4 0.233516 0.101377 0.451548
247 2 0.264605 0.12551 0.423906
1849 2 0.311084 0.138583 0.462398
1850 4 0.294056 0.118968 0.474749
2177 4 0.272683 0.110861 0.470328
3236 4 0.320308 0.147758 0.433579
2176 2 0.261559 0.0915719 0.485824
1851 4 0.328112 0.158197 0.450048
3488 4 0.461901 0.124284 0.493735
2519 4 0.477158 0.119224 0.501487
4467 4 0.182456 0.182095 0.455043
4465 2 0.205733 0.187438 0.467185
2810 4 0.251123 0.201173 0.47861
4466 4 0.229011 0.192781 0.479328
2809 2 0.263803 0.213697 0.498798
383 4 0.433671 0.18422 0.439282
366 4 0.416068 0.176462 0.427787
384 4 0.470303 0.22745 0.454808
382 2 0.451987 0.205835 0.447045
2736 4 0.00694944 0.287708 0.496206
1141 2 0.128936 0.272664 0.43064
1142 4 0.129347 0.264856 0.454141
1819 2 0.165863 0.264589 0.470047
1821 4 0.14055 0.253796 0.462086
2105 4 0.205648 0.271501 0.488412
1820 4 0.191175 0.275381 0.478008
2354 4 0.316578 0.276904 0.475536
2353 2 0.343089 0.285802 0.479428
2355 4 0.3696 0.2947 0.48332
2375 4 0.465435 0.334084 0.488979
2456 4 0.42793 0.330628 0.44171
614 4 0.0247506 0.33103 0.49897
569 4 0.0454317 0.33922 0.492957
431 4 0.343846 0.417041 0.459744
2346 4 0.277859 0.406328 0.477818
948 4 0.4364 0.408973 0.452617
2455 2 0.421663 0.341638 0.421901
946 2 0.461329 0.408787 0.452386
980 4 0.483073 0.352058 0.484659
947 4 0.486259 0.408601 0.452156
4426 2 0.00706412 0.485725 0.462705
1567 2 0.0551004 0.494925 0.492413
4428 4 0.0290196 0.485164 0.474245
430 2 0.320405 0.418544 0.466503
432 4 0.296965 0.420047 0.473261
198 3 0.496862 0.481176 0.421544
3756 4 0.486864 0.491966 0.429875
3754 2 0.462979 0.486323 0.418779
2764 2 0.126618 0.0363632 0.517969
4370 4 0.146728 0.0433173 0.558507
2766 4 0.135769 0.0414033 0.541381
4369 2 0.170144 0.0574758 0.568732
2604 4 0.210139 0.0730766 0.567493
4371 4 0.19356 0.0716344 0.578957
2178 4 0.250434 0.0722828 0.50132
2982 4 0.349594 0.0690598 0.501774
4002 4 0.00291312 0.155252 0.516524
1152 4 0.0027574 0.124016 0.539124
1150 2 0.025043 0.119351 0.534396
1151 4 0.0473286 0.114686 0.529667
3359 4 0.0670449 0.115549 0.539022
1146 4 0.0223971 0.159502 0.52437
3360 4 0.071077 0.0878644 0.577937
3358 2 0.069061 0.101707 0.558479
515 4 0.204201 0.119333 0.534376
514 2 0.193098 0.102725 0.516267
2589 4 0.220333 0.133179 0.541573
516 4 0.181996 0.0861173 0.498157
2602 2 0.231987 0.0832118 0.553273
2587 2 0.246861 0.142656 0.545328
2603 4 0.253836 0.0933469 0.539052
2588 4 0.273388 0.152132 0.549083
3083 4 0.269872 0.0870447 0.540239
3082 2 0.294263 0.0888715 0.532418
2980 2 0.374178 0.0865885 0.503502
3084 4 0.318654 0.0906983 0.524596
467 4 0.392406 0.162496 0.578712
1269 4 0.393823 0.148237 0.566863
1267 2 0.394783 0.127361 0.577184
466 2 0.36985 0.163951 0.569313
2981 4 0.398761 0.104117 0.50523
3489 4 0.41348 0.0969124 0.511815
3487 2 0.43769 0.110598 0.502775
1144 2 0.0416785 0.17807 0.536009
1145 4 0.0609599 0.196638 0.547648
4581 4 0.0767787 0.202484 0.56096
4579 2 0.0980638 0.211326 0.576088
504 4 0.13277 0.205808 0.51004
502 2 0.155316 0.202362 0.516566
503 4 0.177862 0.198917 0.523092
3464 4 0.191122 0.20492 0.508632
3463 2 0.210003 0.201042 0.522569
3465 4 0.228884 0.197163 0.536506
732 4 0.243093 0.211858 0.544873
730 2 0.254336 0.230839 0.560688
2811 4 0.276483 0.22622 0.518987
374 4 0.293203 0.165614 0.554931
373 2 0.319309 0.17197 0.549773
3131 4 0.286079 0.218948 0.532598
3130 2 0.306467 0.224166 0.548757
3132 4 0.326856 0.229384 0.564916
2231 4 0.317478 0.239192 0.576595
375 4 0.345414 0.178326 0.544616
468 4 0.347293 0.165406 0.559914
2104 2 0.21892 0.269995 0.509169
731 4 0.26558 0.249821 0.576504
2106 4 0.232192 0.268489 0.529926
3139 2 0.265778 0.307592 0.560794
3140 4 0.284213 0.313509 0.542626
1251 4 0.295656 0.304102 0.552785
3141 4 0.247343 0.301674 0.578962
1249 2 0.321735 0.315724 0.547698
1250 4 0.347814 0.327346 0.542611
3426 4 0.368301 0.329098 0.545068
2376 4 0.428476 0.314022 0.524327
2374 2 0.446956 0.324053 0.506653
613 2 0.00551154 0.332595 0.514094
568 2 0.0680004 0.341526 0.505218
570 4 0.0905692 0.343833 0.517478
4433 4 0.112096 0.352102 0.519384
4432 2 0.137312 0.353104 0.522192
4434 4 0.162528 0.354105 0.525001
2345 4 0.269507 0.38387 0.522498
1362 4 0.270594 0.365805 0.527412
1360 2 0.291466 0.370332 0.542893
1361 4 0.312337 0.374859 0.558373
3120 4 0.310842 0.385037 0.573995
2344 2 0.273683 0.395099 0.500158
3424 2 0.394314 0.342212 0.549126
3425 4 0.420327 0.355327 0.553184
930 4 0.436097 0.358637 0.565798
928 2 0.457551 0.359755 0.552301
929 4 0.479006 0.360873 0.538803
2928 4 0.0190619 0.433431 0.545017
2926 2 0.0353935 0.454552 0.53436
1568 4 0.0668841 0.486998 0.510881
2927 4 0.0517252 0.475673 0.523703
1947 4 0.405638 0.457293 0.524941
1946 4 0.41811 0.496778 0.555489
1945 2 0.411874 0.477035 0.540215
1910 4 0.43047 0.494363 0.569773
606 4 0.0107889 0.0445695 0.590242
604 2 0.0349695 0.0627198 0.592051
605 4 0.0591501 0.0808701 0.593861
4239 4 0.128405 0.0694528 0.641042
2276 4 0.130617 0.0525958 0.646286
2275 2 0.136825 0.0444773 0.624574
2277 4 0.143033 0.0363588 0.602862
770 4 0.381444 0.00281512 0.63622
3870 4 0.388383 0.0224251 0.639425
3868 2 0.393666 0.0351686 0.660936
2700 4 0.00964701 0.158584 0.604655
2698 2 0.00466066 0.134824 0.59815
2699 4 0.999674 0.111064 0.591645
3117 4 0.0632925 0.10808 0.640834
3115 2 0.073144 0.12857 0.626625
3116 4 0.0829956 0.14906 0.612416
1990 2 0.0152465 0.105326 0.666975
4238 4 0.121303 0.109812 0.62233
4237 2 0.124854 0.0896323 0.631686
458 4 0.333907 0.160132 0.657592
3096 4 0.334929 0.164556 0.639107
4181 4 0.358609 0.0899036 0.637653
4180 2 0.367517 0.090655 0.614192
4182 4 0.376425 0.0914063 0.590731
939 4 0.384553 0.107904 0.657288
1268 4 0.395742 0.106485 0.587506
937 2 0.406063 0.128277 0.652177
938 4 0.427574 0.14865 0.647066
3198 4 0.448544 0.158415 0.643864
2832 4 0.478942 0.135076 0.633663
2830 2 0.49532 0.141807 0.65343
4580 4 0.119349 0.220167 0.591217
4346 4 0.137476 0.216322 0.588624
4345 2 0.162741 0.230212 0.594814
4347 4 0.188006 0.244103 0.601004
4422 4 0.257142 0.247298 0.595353
4420 2 0.236702 0.248675 0.60889
2230 2 0.315278 0.238204 0.601513
2232 4 0.313077 0.237216 0.626431
3094 2 0.355386 0.185571 0.633341
3095 4 0.375843 0.206586 0.627575
1194 4 0.397476 0.220181 0.628785
1192 2 0.4126 0.231186 0.648451
3196 2 0.470986 0.178783 0.643489
3197 4 0.493428 0.199151 0.643114
3365 4 0.447929 0.254001 0.661913
3158 4 0.184577 0.28423 0.608376
3157 2 0.210436 0.291583 0.601855
4421 4 0.216261 0.250053 0.622427
3159 4 0.236295 0.298936 0.595333
3027 4 0.356475 0.289402 0.587986
3026 4 0.33389 0.306776 0.624548
1079 4 0.327204 0.321049 0.624193
3025 2 0.345182 0.298089 0.606267
2037 4 0.336815 0.32922 0.670063
3364 2 0.472883 0.253914 0.661031
3366 4 0.497836 0.253826 0.66015
1325 4 0.0249143 0.406305 0.620287
902 4 0.00319255 0.400238 0.617829
1324 2 0.0478387 0.408878 0.632036
1326 4 0.070763 0.411452 0.643786
2308 2 0.0955715 0.408726 0.663795
2310 4 0.0922525 0.413687 0.639859
3153 4 0.259951 0.398894 0.664934
1078 2 0.310808 0.332826 0.630972
2415 4 0.28967 0.397984 0.622946
2413 2 0.283385 0.373929 0.629024
1136 4 0.310983 0.406756 0.626183
2414 4 0.277099 0.349874 0.635102
1080 4 0.294412 0.344602 0.637752
3118 2 0.325352 0.375174 0.587814
3119 4 0.339862 0.365311 0.601633
2015 4 0.359296 0.378761 0.598364
2014 2 0.382886 0.381206 0.608696
2016 4 0.406477 0.383651 0.619027
1178 4 0.428872 0.394762 0.617252
2436 4 0.0462043 0.463031 0.655754
2434 2 0.0646057 0.486109 0.653703
2216 4 0.214361 0.492392 0.654412
2215 2 0.238575 0.494225 0.646069
4536 4 0.258626 0.497278 0.618032
2217 4 0.26279 0.496058 0.637726
4534 2 0.261168 0.498292 0.593141
1135 2 0.32983 0.425366 0.638206
1137 4 0.348677 0.443975 0.650229
3056 4 0.399683 0.435985 0.627516
3055 2 0.419869 0.457853 0.624184
3057 4 0.440056 0.47972 0.620853
1177 2 0.441303 0.419515 0.619435
1179 4 0.453734 0.444268 0.621619
444 4 0.123678 0.0689884 0.708489
4162 2 0.404662 0.0540296 0.720312
4163 4 0.410003 0.060692 0.696369
4164 4 0.399322 0.0473673 0.744255
636 4 0.381353 0.0307595 0.745354
3869 4 0.398949 0.0479121 0.682446
1992 4 0.0420069 0.116108 0.666529
2193 4 0.0442992 0.103987 0.680596
2191 2 0.0628382 0.0963123 0.690728
443 4 0.0954434 0.0984238 0.716046
2192 4 0.0813772 0.0886381 0.70086
442 2 0.10956 0.0837061 0.712268
1255 2 0.138219 0.131555 0.745479
1256 4 0.15485 0.11964 0.739959
1257 4 0.121588 0.14347 0.750998
3281 4 0.156232 0.101872 0.747041
3280 2 0.178641 0.103731 0.734731
3282 4 0.20105 0.10559 0.722421
99 3 0.219721 0.11613 0.715524
98 3 0.251503 0.123235 0.692023
96 1 0.239289 0.110422 0.709971
97 3 0.231204 0.0882232 0.703967
100 3 0.254264 0.113707 0.727869
1185 4 0.273942 0.114873 0.732785
1183 2 0.296498 0.115871 0.72126
457 2 0.330773 0.142135 0.674509
1184 4 0.319053 0.116868 0.709734
459 4 0.32764 0.124139 0.691427
2907 4 0.0197974 0.178373 0.700517
2905 2 0.00113935 0.184403 0.688375
3143 4 0.0371797 0.183714 0.712367
3142 2 0.063118 0.197553 0.70894
3144 4 0.0890563 0.211393 0.705514
2198 4 0.146044 0.222325 0.738407
3264 4 0.213559 0.243575 0.688651
3262 2 0.237865 0.246194 0.679925
2154 4 0.270989 0.241403 0.685871
3263 4 0.262171 0.248812 0.671199
3379 2 0.325437 0.241708 0.743865
3380 4 0.304662 0.249293 0.741768
3381 4 0.346211 0.234123 0.745962
1193 4 0.427724 0.24219 0.668118
895 2 0.0797567 0.326465 0.712639
897 4 0.0550709 0.32589 0.70749
896 4 0.104442 0.327041 0.717787
290 4 0.228486 0.289831 0.732153
289 2 0.248788 0.311377 0.727752
4308 4 0.282455 0.335441 0.707264
4306 2 0.300078 0.329398 0.693499
4307 4 0.317701 0.323354 0.679735
2152 2 0.295859 0.258578 0.685869
2153 4 0.320729 0.275753 0.685866
2035 2 0.338789 0.307131 0.675074
2036 4 0.340763 0.285041 0.680086
1209 4 0.00741582 0.351543 0.727673
1207 2 0.0268592 0.345395 0.717168
1208 4 0.0463026 0.339246 0.706664
2309 4 0.0988904 0.403764 0.687732
3642 4 0.114132 0.407208 0.701462
1905 4 0.122546 0.336536 0.727926
1903 2 0.149111 0.348722 0.726983
1904 4 0.175677 0.360907 0.72604
3338 4 0.194901 0.357222 0.724937
3337 2 0.220157 0.358563 0.728353
3339 4 0.245413 0.359903 0.73177
3151 2 0.279955 0.410757 0.680683
291 4 0.269091 0.332923 0.723351
3206 4 0.266821 0.367203 0.724865
3205 2 0.29263 0.370374 0.721497
2984 4 0.339064 0.378356 0.712065
3207 4 0.318439 0.373545 0.718129
883 2 0.340637 0.408088 0.750685
2985 4 0.386637 0.378361 0.727485
2983 2 0.36285 0.378358 0.719775
4521 4 0.40887 0.387952 0.726636
4519 2 0.432623 0.393138 0.737865
4520 4 0.456377 0.398324 0.749094
886 2 0.0335104 0.443002 0.704557
888 4 0.0148258 0.430616 0.687829
887 4 0.052195 0.455387 0.721286
3450 4 0.108136 0.45102 0.734318
3448 2 0.0895197 0.460558 0.72838
3449 4 0.0709029 0.470096 0.722443
3641 4 0.110765 0.434007 0.741358
3640 2 0.112449 0.420607 0.72141
1213 2 0.179935 0.425812 0.748159
1215 4 0.200315 0.446487 0.741374
3086 4 0.29266 0.477319 0.714866
3296 4 0.220856 0.45591 0.742615
3085 2 0.297371 0.496934 0.699641
3295 2 0.238963 0.445989 0.749234
2858 4 0.318305 0.436399 0.690639
3152 4 0.299958 0.42262 0.696432
2857 2 0.344494 0.440893 0.693445
885 4 0.321131 0.417473 0.751337
2859 4 0.370683 0.445387 0.696252
1918 2 0.404356 0.445032 0.724125
1920 4 0.381775 0.439936 0.710891
1919 4 0.426936 0.450128 0.737359
1139 4 0.447618 0.494261 0.681913
844 2 0.194024 0.0596239 0.815018
845 4 0.215084 0.0767495 0.803833
846 4 0.172964 0.0424983 0.826203
2979 4 0.227985 0.0685132 0.814355
2563 2 0.251104 0.00821263 0.819968
2977 2 0.254519 0.0807981 0.815598
2598 4 0.294045 0.0828385 0.812914
635 4 0.386247 0.0305844 0.795114
634 2 0.3838 0.030672 0.770234
2091 4 0.391965 0.0483676 0.801871
2089 2 0.413317 0.0604468 0.816096
2090 4 0.434669 0.072526 0.83032
1943 4 0.00316571 0.105475 0.795134
1942 2 0.0286667 0.12112 0.793111
1944 4 0.0541677 0.136765 0.791087
2987 4 0.06911 0.127406 0.793189
2986 2 0.0955747 0.140217 0.793629
2988 4 0.122039 0.153028 0.794069
2978 4 0.281053 0.0930829 0.816841
2596 2 0.318904 0.0869252 0.821112
2597 4 0.343763 0.0910119 0.829309
1229 4 0.998541 0.175929 0.780938
1228 2 0.0217643 0.195392 0.77953
3387 4 0.0636947 0.228884 0.784925
3385 2 0.0900261 0.239801 0.789257
1230 4 0.0449873 0.214856 0.778121
3386 4 0.116358 0.250717 0.793589
2197 2 0.156344 0.215447 0.758639
2199 4 0.166644 0.208569 0.778871
3356 4 0.158224 0.172964 0.828916
2048 4 0.18253 0.20568 0.790704
2758 2 0.197067 0.245875 0.803977
3104 4 0.241733 0.207708 0.760421
2759 4 0.209747 0.229855 0.807186
2047 2 0.202071 0.20294 0.776814
2049 4 0.221612 0.2002 0.762925
3825 4 0.227683 0.247058 0.812951
3103 2 0.267407 0.223029 0.758854
3823 2 0.244479 0.24598 0.831052
3105 4 0.293081 0.238349 0.757288
3080 4 0.491036 0.182977 0.82003
275 4 0.136088 0.304715 0.817128
274 2 0.111356 0.296028 0.807425
276 4 0.086624 0.287341 0.797723
2796 4 0.135829 0.265154 0.794288
2795 4 0.181873 0.291614 0.81719
2794 2 0.158851 0.278384 0.805739
2760 4 0.184387 0.261894 0.800768
1010 4 0.220108 0.312249 0.793239
1011 4 0.266968 0.312813 0.81127
1009 2 0.243538 0.312531 0.802254
1279 2 0.311483 0.313458 0.800381
1281 4 0.287768 0.314127 0.807441
4091 4 0.350949 0.312497 0.805559
1280 4 0.335199 0.312789 0.79332
4090 2 0.377082 0.32374 0.810639
2066 4 0.0806346 0.409974 0.799513
2065 2 0.094615 0.403289 0.782039
2067 4 0.108595 0.396604 0.764566
1214 4 0.159555 0.405137 0.754944
1063 2 0.259903 0.383291 0.830353
2999 4 0.306146 0.394549 0.827528
1122 4 0.308046 0.410528 0.767625
1065 4 0.286446 0.39457 0.827599
2998 2 0.31702 0.390253 0.806332
3000 4 0.327893 0.385956 0.785137
3170 4 0.361752 0.390524 0.766336
3169 2 0.378988 0.385038 0.781157
3171 4 0.396224 0.379551 0.795977
3273 4 0.399715 0.385136 0.815357
884 4 0.360143 0.398703 0.750033
4092 4 0.403214 0.334983 0.81572
1613 4 0.412964 0.342402 0.799214
1191 4 0.472333 0.397226 0.760148
1614 4 0.465471 0.352144 0.793435
1612 2 0.439218 0.347273 0.796325
3847 2 0.0655182 0.476899 0.803279
3849 4 0.0602061 0.452377 0.80568
3800 4 0.0929395 0.422824 0.813267
3799 2 0.0719351 0.428079 0.821398
3801 4 0.0509306 0.433333 0.829528
3297 4 0.25707 0.436069 0.755852
1121 4 0.2685 0.428632 0.766771
1120 2 0.288273 0.41958 0.767198
88 3 0.243465 0.00461947 0.854016
89 3 0.231776 0.00679539 0.889828
2564 4 0.242073 0.0170602 0.839743
1003 2 0.385781 0.0537927 0.909809
1004 4 0.397879 0.0525854 0.888228
1842 4 0.423777 0.0127385 0.904388
2523 4 0.405847 0.00232079 0.914978
2687 4 0.492141 0.0547382 0.886675
1841 4 0.472953 0.0463947 0.896113
1840 2 0.448365 0.0295666 0.90025
657 4 0.159673 0.123369 0.879391
3357 4 0.160496 0.160792 0.876909
655 2 0.179788 0.114788 0.878346
2424 4 0.20899 0.0927105 0.877245