ITEM: TIMESTEP
724000
ITEM: NUMBER OF ATOMS
4590
ITEM: BOX BOUNDS xy xz yz pp pp pp
-9.9985700000000008e+00 1.9597197200000004e+01 9.5986272000000028e+00
-9.9985700000000008e+00 9.9985700000000008e+00 0.0000000000000000e+00
-9.9985700000000008e+00 9.9985700000000008e+00 0.0000000000000000e+00
ITEM: ATOMS id type xs ys zs
2004 4 0.0542051 0.999754 0.00248003
3544 2 0.108218 0.0579038 0.0754326
3546 4 0.0953878 0.0592197 0.0536466
1539 4 0.13408 0.000619647 0.0533663
1023 4 0.131108 0.0130346 0.0371793
1021 2 0.143973 0.0226459 0.0221018
1022 4 0.156837 0.0322572 0.00702427
922 2 0.19302 0.0451645 0.00761441
924 4 0.170912 0.0402086 0.00662019
4026 4 0.232722 0.046537 0.0639345
4024 2 0.228457 0.0263461 0.0591688
2523 4 0.224458 0.0660465 0.0582186
2521 2 0.24272 0.0687375 0.0428688
2522 4 0.260982 0.0714285 0.0275191
4025 4 0.224191 0.00615519 0.0544031
923 4 0.215129 0.0501204 0.00860864
2792 4 0.278024 0.060373 0.0158244
1110 4 0.45968 0.0434089 0.00925653
1108 2 0.462416 0.0437008 0.0340924
1109 4 0.465153 0.0439928 0.0589283
2480 4 0.458284 0.0418773 0.0768611
2670 4 0.0583898 0.135244 0.0314971
395 4 0.0689489 0.129552 0.0493836
394 2 0.0856634 0.124357 0.0692822
2668 2 0.0409798 0.159572 0.0321655
3291 4 0.128314 0.155114 0.0422866
3289 2 0.144299 0.160834 0.0578317
4353 4 0.129311 0.144325 0.0268018
4351 2 0.146544 0.127486 0.0107432
3290 4 0.160284 0.166553 0.0733768
1231 2 0.283182 0.1149 0.00937533
1233 4 0.305518 0.113754 0.0215924
2554 2 0.45402 0.147443 0.0235873
2555 4 0.446425 0.154031 0.0472965
2669 4 0.0235697 0.1839 0.0328339
2634 4 0.0246578 0.201296 0.0270883
2632 2 0.0310789 0.212594 0.0459902
2633 4 0.0374999 0.223891 0.064892
2502 4 0.0445639 0.238572 0.0659042
2500 2 0.0618672 0.248953 0.0704616
4542 4 0.181906 0.171435 0.0374477
4540 2 0.19066 0.178137 0.0165439
4172 4 0.169493 0.180319 0.0744391
2969 4 0.431223 0.168067 0.0572998
2968 2 0.41194 0.167559 0.0729076
837 4 0.442214 0.224901 0.0524134
835 2 0.454184 0.237708 0.0639447
2501 4 0.0791704 0.259333 0.0750189
3907 2 0.259619 0.26184 0.0229993
3908 4 0.263151 0.272801 0.0436809
690 4 0.265414 0.281112 0.0606122
688 2 0.287655 0.285885 0.0598393
3909 4 0.256088 0.250879 0.00231764
689 4 0.309895 0.290659 0.0590665
554 4 0.321789 0.30099 0.0610823
3983 4 0.350075 0.270476 0.0347088
553 2 0.337188 0.312806 0.0546321
3982 2 0.374273 0.267407 0.0247393
555 4 0.352586 0.324623 0.0481819
836 4 0.466153 0.250515 0.0754761
3984 4 0.39847 0.264337 0.0147698
675 4 0.410957 0.272504 0.00680619
673 2 0.430183 0.278013 0.0176004
2610 4 0.408356 0.339551 0.0482463
674 4 0.449409 0.283522 0.0283947
2609 4 0.36923 0.324356 0.0589747
2608 2 0.388793 0.331953 0.0536105
3195 4 0.454628 0.284593 0.0468101
3193 2 0.479176 0.282192 0.0552993
2287 2 0.119938 0.355385 0.0442536
2288 4 0.108015 0.361144 0.0217118
2289 4 0.13186 0.349627 0.0667954
3041 4 0.245298 0.369378 0.00504857
751 2 0.341403 0.37833 0.0800403
753 4 0.343956 0.39885 0.0729479
639 4 0.428906 0.337729 0.0532391
637 2 0.440562 0.35277 0.0467037
638 4 0.452217 0.36781 0.0401684
1094 4 0.470122 0.371892 0.0364815
1093 2 0.497455 0.357811 0.0383793
854 4 0.349184 0.458812 0.0716937
853 2 0.357905 0.47558 0.0637701
855 4 0.366627 0.492348 0.0558465
506 4 0.381589 0.494305 0.0434251
505 2 0.408115 0.477376 0.0434639
507 4 0.434641 0.460447 0.0435027
363 4 0.464507 0.420198 0.00496389
705 4 0.443916 0.472978 0.0462667
703 2 0.465544 0.466935 0.0616917
3849 4 0.483371 0.420638 0.0119151
704 4 0.487173 0.460892 0.0771167
1287 4 0.00864857 0.0252597 0.0869253
2452 2 0.0335693 0.00479517 0.156296
578 4 0.105911 0.0709089 0.152776
3545 4 0.121049 0.0565878 0.0972186
577 2 0.121237 0.0810502 0.142073
405 4 0.135357 0.0638869 0.0955171
403 2 0.156836 0.0694763 0.0923267
404 4 0.178314 0.0750657 0.0891363
1437 4 0.190865 0.066796 0.105626
1435 2 0.209569 0.0580411 0.124017
3623 4 0.274442 0.0148202 0.1076
1436 4 0.228272 0.0492862 0.142408
623 4 0.252605 0.0646497 0.139924
622 2 0.268942 0.0452091 0.125847
3622 2 0.258687 0.00243672 0.108593
624 4 0.285279 0.0257685 0.111771
2481 4 0.433244 0.0179538 0.101243
631 2 0.415818 0.0461278 0.164654
2479 2 0.445764 0.0299155 0.089052
633 4 0.429036 0.0509544 0.145665
122 3 0.431181 0.0614272 0.129133
1069 2 0.474002 0.00495436 0.165046
121 1 0.454094 0.0596162 0.135452
124 3 0.470553 0.0371425 0.136532
123 3 0.452029 0.069468 0.156291
125 3 0.462104 0.0702063 0.12012
567 4 0.480072 0.0724731 0.113007
1071 4 0.498991 0.0021118 0.157368
565 2 0.497294 0.0827483 0.107642
396 4 0.102378 0.119162 0.0891808
579 4 0.136563 0.0911915 0.13137
4154 4 0.140491 0.100414 0.146485
4153 2 0.146778 0.118089 0.15621
4155 4 0.153064 0.135765 0.165935
3557 4 0.241537 0.164705 0.167058
1584 4 0.375678 0.126685 0.154639
2942 4 0.383045 0.137429 0.144582
2941 2 0.390157 0.142761 0.12215
2943 4 0.397269 0.148094 0.099717
1582 2 0.3976 0.106086 0.162124
4076 4 0.120251 0.243439 0.12931
236 4 0.137773 0.239021 0.140072
4171 2 0.187261 0.18178 0.0912299
235 2 0.165243 0.225866 0.142205
4173 4 0.205029 0.183241 0.108021
237 4 0.192713 0.21271 0.144338
3556 2 0.227898 0.175696 0.146215
3558 4 0.214259 0.186687 0.125372
1764 4 0.207022 0.219962 0.146542
1762 2 0.224797 0.227911 0.156332
2970 4 0.392656 0.167052 0.0885153
2717 4 0.0118655 0.321716 0.145744
4077 4 0.0961115 0.260586 0.0851104
4075 2 0.108181 0.252012 0.10721
621 4 0.26692 0.281325 0.122695
619 2 0.2936 0.270688 0.115869
620 4 0.32028 0.260052 0.109044
2774 4 0.321445 0.322569 0.103966
2773 2 0.343914 0.320755 0.116432
2775 4 0.366382 0.318942 0.128898
2592 4 0.38051 0.303477 0.137885
2590 2 0.407637 0.297587 0.137918
2591 4 0.434764 0.291696 0.137951
2460 4 0.0073714 0.340958 0.152119
2458 2 0.0133878 0.360193 0.15688
2459 4 0.0194042 0.379428 0.161642
560 4 0.103114 0.418112 0.126765
1578 4 0.229382 0.415219 0.149827
752 4 0.338851 0.35781 0.0871327
3786 4 0.248758 0.413236 0.157996
287 4 0.33821 0.408534 0.0913655
3490 2 0.0154389 0.466193 0.134471
3491 4 0.0383928 0.469887 0.134147
561 4 0.0534994 0.451745 0.142552
559 2 0.0783066 0.434929 0.134658
482 4 0.118837 0.42293 0.130078
481 2 0.138821 0.424307 0.144117
483 4 0.158804 0.425684 0.158157
1577 4 0.175023 0.427952 0.146534
1576 2 0.202203 0.421586 0.14818
3784 2 0.265009 0.42512 0.156617
3785 4 0.281261 0.437004 0.155237
3596 4 0.300101 0.43777 0.148954
1311 4 0.27439 0.500488 0.111389
286 2 0.340445 0.430072 0.0895699
288 4 0.34268 0.45161 0.0877743
3595 2 0.315024 0.450218 0.154739
3597 4 0.329948 0.462667 0.160525
2782 2 0.360481 0.479824 0.164034
1560 4 0.394153 0.495442 0.155428
2783 4 0.381894 0.485319 0.159963
409 2 0.463065 0.488195 0.148246
3543 4 0.484085 0.438387 0.166304
410 4 0.469529 0.46376 0.148881
2454 4 0.0104806 0.0186929 0.169043
1475 4 0.201176 0.998452 0.223679
297 4 0.127491 0.0766812 0.188844
295 2 0.140765 0.0809636 0.208128
296 4 0.154038 0.085246 0.227412
1356 4 0.164028 0.0749281 0.2437
1474 2 0.211784 0.0125895 0.234758
653 4 0.214818 0.0432707 0.170888
1476 4 0.222393 0.0267272 0.245838
654 4 0.262091 0.0429728 0.187603
652 2 0.238454 0.0431218 0.179245
349 2 0.260579 0.0442687 0.246862
350 4 0.287817 0.0363036 0.243191
2462 4 0.298883 0.0465566 0.236478
2461 2 0.312583 0.0556026 0.221717
2463 4 0.326282 0.0646485 0.206957
545 4 0.325306 0.064416 0.186394
544 2 0.352997 0.0532109 0.185063
546 4 0.380688 0.0420058 0.183732
632 4 0.4026 0.0413012 0.183642
1070 4 0.449012 0.00779691 0.172724
2753 4 0.459032 0.0736122 0.17457
2752 2 0.478291 0.0823051 0.173814
529 2 0.00815663 0.0931278 0.221271
531 4 0.0336983 0.0898827 0.214993
618 4 0.170566 0.138229 0.171302
616 2 0.155587 0.153942 0.189273
247 2 0.277812 0.134349 0.242937
248 4 0.291794 0.13784 0.223759
3054 4 0.309583 0.126745 0.212492
3052 2 0.318058 0.140454 0.197979
3053 4 0.326532 0.154163 0.183467
708 4 0.349589 0.146559 0.185901
706 2 0.358895 0.163559 0.180321
1583 4 0.419522 0.0854875 0.16961
2754 4 0.49755 0.0909981 0.173058
2572 2 0.0168993 0.215554 0.242023
2573 4 0.0340048 0.221809 0.228541
2838 4 0.0474397 0.226631 0.217365
2836 2 0.0673115 0.225814 0.20171
2837 4 0.0871832 0.224997 0.186055
617 4 0.140607 0.169655 0.207244
1763 4 0.242571 0.235861 0.166123
55 3 0.314505 0.173589 0.182954
53 3 0.274508 0.19819 0.178733
51 1 0.297287 0.1947 0.187726
52 3 0.294907 0.19734 0.21055
54 3 0.304792 0.210209 0.179101
762 4 0.320334 0.212691 0.189786
760 2 0.328508 0.229263 0.180277
707 4 0.368202 0.180558 0.174742
761 4 0.336683 0.245835 0.170769
642 4 0.348254 0.251828 0.183797
640 2 0.371532 0.247373 0.196385
641 4 0.39481 0.242918 0.208972
2674 2 0.412289 0.211636 0.239242
2676 4 0.40801 0.225096 0.218283
714 4 0.00672088 0.266508 0.244969
4512 4 0.162163 0.318878 0.22767
2994 4 0.171986 0.309077 0.211004
932 4 0.244093 0.252621 0.167257
2992 2 0.196137 0.303819 0.222398
2993 4 0.220287 0.298561 0.233791
4510 2 0.138061 0.331548 0.215842
933 4 0.266333 0.268164 0.204365
931 2 0.255213 0.260392 0.185811
518 4 0.283781 0.264956 0.216045
517 2 0.304518 0.27102 0.221448
3347 4 0.299635 0.323586 0.180189
519 4 0.325255 0.277084 0.226852
1866 4 0.333728 0.266383 0.243215
2691 4 0.464275 0.327374 0.235484
2689 2 0.484469 0.332398 0.226053
4511 4 0.113958 0.344219 0.204015
303 4 0.1962 0.348675 0.220611
301 2 0.181684 0.35626 0.241808
1455 4 0.208154 0.358896 0.225618
1453 2 0.231064 0.362463 0.223119
1454 4 0.253973 0.36603 0.220621
3348 4 0.262795 0.365348 0.201974
3346 2 0.281215 0.344467 0.191082
264 4 0.43017 0.399049 0.171067
263 4 0.427474 0.382217 0.216906
262 2 0.428822 0.390633 0.193987
269 4 0.443432 0.410033 0.172613
4475 4 0.106525 0.489214 0.226387
2784 4 0.339068 0.474329 0.168105
268 2 0.46228 0.418723 0.177063
270 4 0.481128 0.427412 0.181513
143 3 0.484145 0.43433 0.217459
2715 4 0.136884 0.0144231 0.278736
3555 4 0.122554 0.00798713 0.270456
1354 2 0.189529 0.0665776 0.25337
2714 4 0.185573 0.00747111 0.298625
2713 2 0.161229 0.0109471 0.28868
726 4 0.220344 0.0183113 0.319324
1355 4 0.21503 0.058227 0.26304
351 4 0.233341 0.0522337 0.250533
724 2 0.243315 0.0210463 0.324617
2339 4 0.269249 0.0384839 0.323396
725 4 0.266285 0.0237813 0.329909
2338 2 0.284267 0.0512743 0.327133
428 4 0.304543 0.0733889 0.315113
427 2 0.324144 0.0804859 0.308371
2340 4 0.299285 0.0640647 0.33087
249 4 0.263829 0.130857 0.262116
1517 4 0.276284 0.14647 0.33139
429 4 0.343746 0.0875828 0.30163
1850 4 0.361762 0.0912195 0.299572
1849 2 0.378727 0.101801 0.294349
1851 4 0.395692 0.112383 0.289127
19 3 0.403151 0.12096 0.277097
17 3 0.420948 0.122278 0.309827
16 1 0.425578 0.11543 0.287908
20 3 0.438106 0.12589 0.277843
18 3 0.43975 0.0924453 0.28741
2535 4 0.448933 0.139501 0.272318
2533 2 0.428373 0.162368 0.269088
2799 4 0.4698 0.1395 0.264782
2797 2 0.49221 0.143514 0.260687
473 4 0.00113379 0.190501 0.258426
2708 4 0.0403272 0.235832 0.290259
2707 2 0.0589403 0.213368 0.282563
2709 4 0.0775534 0.190904 0.274868
2677 2 0.209778 0.243691 0.331383
2675 4 0.416568 0.198176 0.2602
2534 4 0.407813 0.185235 0.265858
1865 4 0.380236 0.249504 0.270431
3235 2 0.999765 0.278181 0.326474
3237 4 0.0142209 0.265082 0.306805
712 2 0.0101826 0.271685 0.268697
713 4 0.0136443 0.276862 0.292425
2678 4 0.192547 0.249302 0.311829
1864 2 0.356982 0.257943 0.256823
2897 4 0.461214 0.321251 0.251682
2896 2 0.440436 0.330962 0.268148
695 4 0.00793613 0.414784 0.325956
723 4 0.0167061 0.331146 0.332725
1472 4 0.0560639 0.374865 0.280593
1471 2 0.0817522 0.372839 0.277398
1473 4 0.10744 0.370812 0.274203
2909 4 0.114206 0.374507 0.292149
2908 2 0.135575 0.377814 0.282807
2910 4 0.156944 0.381121 0.273465
302 4 0.167167 0.363846 0.263006
1392 4 0.294093 0.39805 0.329183
1632 4 0.307474 0.40772 0.32921
2898 4 0.419659 0.340673 0.284614
596 4 0.449805 0.366047 0.312653
595 2 0.470035 0.373334 0.315664
597 4 0.490265 0.380622 0.318674
1630 2 0.324274 0.417523 0.321049
1631 4 0.341073 0.427326 0.312888
1575 4 0.346799 0.441639 0.307808
1573 2 0.352128 0.458425 0.294994
1574 4 0.357457 0.475212 0.28218
142 3 0.499663 0.427592 0.252335
1400 4 0.48724 0.4659 0.320673
2817 4 0.113227 0.0992051 0.404454
2815 2 0.121692 0.111328 0.387895
2816 4 0.130158 0.12345 0.371337
43 3 0.141425 0.130296 0.38252
42 3 0.147232 0.152405 0.4081
41 1 0.144255 0.149793 0.38564
45 3 0.164636 0.148492 0.374387
2238 4 0.169194 0.164892 0.373803
2236 2 0.193297 0.164394 0.381247
2598 4 0.233258 0.168333 0.38147
1518 4 0.268814 0.109219 0.35308
1516 2 0.272549 0.127845 0.342235
2504 4 0.292751 0.147976 0.34065
2596 2 0.256769 0.167857 0.390573
2503 2 0.30689 0.157008 0.354875
2505 4 0.321028 0.16604 0.369099
3146 4 0.342933 0.162457 0.365125
516 4 0.487614 0.115043 0.37112
514 2 0.496165 0.132743 0.375731
1033 2 0.488215 0.087482 0.399075
1035 4 0.483508 0.0992087 0.377011
3201 4 0.998845 0.232359 0.408868
569 4 0.016735 0.234177 0.403143
568 2 0.041393 0.224431 0.391698
570 4 0.066051 0.214685 0.380253
1221 4 0.0722792 0.216478 0.360769
44 3 0.123293 0.168047 0.378133
1219 2 0.0981872 0.198566 0.362928
1220 4 0.124095 0.180653 0.365088
894 4 0.150568 0.168941 0.406173
384 4 0.151728 0.241239 0.395219
2597 4 0.28028 0.167381 0.399677
2237 4 0.217401 0.163896 0.38869
3376 2 0.229786 0.227659 0.384306
3378 4 0.239726 0.221321 0.361124
2679 4 0.22701 0.23808 0.350936
3377 4 0.219846 0.233997 0.407488
2810 4 0.279258 0.184273 0.407617
3145 2 0.360654 0.172878 0.365663
3147 4 0.378374 0.183299 0.366201
2613 4 0.392572 0.193346 0.365912
2611 2 0.402513 0.210472 0.367343
575 4 0.370966 0.236117 0.395428
2612 4 0.412455 0.227598 0.368774
2654 4 0.429869 0.228734 0.359381
2653 2 0.445144 0.23974 0.368405
2655 4 0.460419 0.250746 0.377429
3 3 0.0175572 0.252293 0.408537
722 4 0.0158834 0.304953 0.373163
721 2 0.0162948 0.31805 0.352944
574 2 0.371773 0.25752 0.402086
576 4 0.37258 0.278923 0.408743
345 4 0.36529 0.298545 0.412571
915 4 0.0333408 0.382586 0.40121
913 2 0.0193869 0.370303 0.41017
3959 4 0.0422679 0.394463 0.39303
3958 2 0.0616737 0.402735 0.396238
3960 4 0.0810796 0.411007 0.399446
436 2 0.187013 0.373588 0.407228
438 4 0.190688 0.379445 0.383801
2298 4 0.202449 0.370678 0.36703
2296 2 0.221798 0.377689 0.359274
2297 4 0.241146 0.384699 0.351518
1391 4 0.259645 0.377396 0.339489
1390 2 0.276869 0.387723 0.334336
3129 4 0.358002 0.412319 0.397327
3615 4 0.369006 0.40497 0.380117
3127 2 0.340171 0.405422 0.408758
464 4 0.00767389 0.476722 0.407466
2726 4 0.0158857 0.469017 0.388178
3707 4 0.0765414 0.429124 0.392636
2725 2 0.041564 0.467289 0.386001
2727 4 0.0672423 0.465561 0.383823
2403 4 0.0872936 0.466397 0.38934
2401 2 0.101431 0.467036 0.36894
3706 2 0.0981352 0.429883 0.404572
3708 4 0.119729 0.430642 0.416508
1446 4 0.136315 0.43199 0.407003
2402 4 0.115568 0.467675 0.34854
3613 2 0.378883 0.420115 0.370026
2155 2 0.443709 0.420045 0.414183
3614 4 0.388759 0.43526 0.359935
2630 4 0.393459 0.447741 0.370299
2629 2 0.413685 0.450643 0.358076
2631 4 0.43391 0.453545 0.345854
2157 4 0.463742 0.42293 0.401608
1399 2 0.470667 0.45936 0.334596
1401 4 0.454093 0.45282 0.348518
1361 4 0.480602 0.42838 0.403934
1977 4 0.0626868 0.0684167 0.462358
1975 2 0.0858941 0.0483727 0.456128
1976 4 0.109101 0.0283287 0.449898
2543 4 0.103176 0.0155417 0.439899
3030 4 0.207786 0.0358991 0.47927
3028 2 0.232134 0.0349973 0.472028
3029 4 0.256482 0.0340955 0.464785
2589 4 0.438849 0.0745945 0.478127
457 2 0.474276 0.0689564 0.455529
458 4 0.458553 0.0734373 0.476044
1034 4 0.492923 0.0757553 0.42114
459 4 0.49 0.0644756 0.435013
452 4 0.110433 0.106668 0.423895
451 2 0.117297 0.109125 0.447442
453 4 0.124161 0.111582 0.470989
399 4 0.145157 0.107512 0.474585
397 2 0.172865 0.0960211 0.473774
398 4 0.200572 0.0845299 0.472964
3096 4 0.223139 0.110335 0.439379
3094 2 0.246143 0.112088 0.432064
3095 4 0.269147 0.113841 0.42475
3548 4 0.291065 0.103947 0.426772
3547 2 0.306734 0.116174 0.423333
2642 4 0.378373 0.0976443 0.424506
1800 4 0.347861 0.0842717 0.473933
3549 4 0.322403 0.128401 0.419894
2930 4 0.326 0.135879 0.437927
2929 2 0.3375 0.151743 0.440784
1799 4 0.355165 0.126072 0.471808
1798 2 0.351513 0.105172 0.47287
2641 2 0.392397 0.111598 0.425542
2643 4 0.406421 0.125552 0.426577
2587 2 0.425962 0.0977234 0.487456
2588 4 0.413075 0.120852 0.496786
2666 4 0.058882 0.24122 0.473531
892 2 0.144382 0.18424 0.425915
893 4 0.138195 0.19954 0.445657
383 4 0.127878 0.245464 0.440015
1781 4 0.151706 0.205418 0.457912
1780 2 0.178054 0.20157 0.454739
382 2 0.139803 0.243352 0.417617
2132 4 0.188047 0.243963 0.495057
1782 4 0.204403 0.197721 0.451566
2673 4 0.223977 0.196555 0.460331
2671 2 0.227793 0.209258 0.441212
2672 4 0.23161 0.221962 0.422093
2931 4 0.348999 0.167607 0.443641
2809 2 0.288356 0.197108 0.422705
2811 4 0.297453 0.209943 0.437792
1818 4 0.315182 0.204462 0.449906
1816 2 0.331095 0.21395 0.460687
1817 4 0.347008 0.223438 0.471468
266 4 0.361052 0.234887 0.49501
265 2 0.38352 0.232208 0.481998
267 4 0.405988 0.229529 0.468986
1743 4 0.463961 0.187182 0.424695
2765 4 0.412112 0.22399 0.449913
2764 2 0.430587 0.202163 0.440704
2766 4 0.449061 0.180336 0.431495
1741 2 0.486778 0.190926 0.422394
2667 4 0.0129735 0.266145 0.446564
2665 2 0.0359278 0.253682 0.460047
3066 4 0.0714969 0.25116 0.474847
3064 2 0.0953015 0.250756 0.466629
3065 4 0.119106 0.250352 0.458411
2991 4 0.0857705 0.304235 0.497272
3473 4 0.0803189 0.319715 0.466767
4307 4 0.0932994 0.312594 0.483551
4306 2 0.113116 0.319032 0.491231
4308 4 0.132933 0.325471 0.498911
2131 2 0.185771 0.264666 0.483315
2133 4 0.183496 0.285368 0.471573
3489 4 0.183551 0.301213 0.480759
3487 2 0.202121 0.30372 0.465662
3488 4 0.220691 0.306227 0.450564
3022 2 0.34444 0.295681 0.489183
3024 4 0.353783 0.307634 0.473217
343 2 0.38195 0.303237 0.42824
344 4 0.398609 0.307928 0.443909
914 4 0.00543299 0.358019 0.41913
3472 2 0.0682397 0.341214 0.454124
3474 4 0.0561605 0.362714 0.441481
3501 4 0.065268 0.372781 0.450111
3499 2 0.0777257 0.388053 0.450732
3500 4 0.0901835 0.403325 0.451352
4433 4 0.107027 0.39536 0.438311
4432 2 0.134735 0.385458 0.437925
4434 4 0.162444 0.375555 0.437539
437 4 0.183339 0.36773 0.430654
3128 4 0.32234 0.398526 0.420189
850 2 0.00176116 0.421528 0.497212
465 4 0.0079472 0.453917 0.450672
463 2 0.00781054 0.46532 0.429069
852 4 0.0254936 0.423471 0.493603
1444 2 0.156256 0.436585 0.417661
1820 4 0.188231 0.42517 0.440466
1821 4 0.211668 0.447338 0.469588
509 4 0.223679 0.432829 0.483799
1445 4 0.176197 0.44118 0.428319
1819 2 0.19995 0.436254 0.455027
508 2 0.243797 0.425502 0.501001
2928 4 0.407076 0.439858 0.493362
413 4 0.42008 0.478941 0.452886
412 2 0.421246 0.460007 0.467166
414 4 0.422412 0.441073 0.481446
2156 4 0.423677 0.417159 0.426759
477 4 0.438538 0.482568 0.453189
217 3 0.0459625 0.0175501 0.580258
2603 4 0.0765381 0.0150188 0.526391
2602 2 0.0787544 0.0324356 0.540882
2604 4 0.0809707 0.0498523 0.555373
389 4 0.0759214 0.0671865 0.565543
4562 4 0.170189 0.0387918 0.519771
4561 2 0.197281 0.031656 0.516011
954 4 0.206266 0.030287 0.567684
3248 4 0.16956 0.0693339 0.554785
3247 2 0.14198 0.0824675 0.554991
953 4 0.199414 0.0770882 0.575849
952 2 0.20284 0.0536876 0.571766
4563 4 0.224372 0.0245201 0.512251
3395 4 0.346112 0.0304039 0.514002
3394 2 0.320765 0.032289 0.509085
3396 4 0.295417 0.034174 0.504167
2964 4 0.369747 0.0230768 0.514498
2962 2 0.385751 0.0274809 0.531157
2963 4 0.401755 0.031885 0.547816
2973 4 0.409888 0.0437966 0.540934
2971 2 0.41031 0.0636552 0.552412
388 2 0.0840007 0.0854385 0.562632
2719 2 0.0228493 0.138583 0.54505
2720 4 0.0498029 0.130084 0.550501
390 4 0.09208 0.10369 0.559722
938 4 0.0531832 0.14743 0.549911
937 2 0.0724688 0.156085 0.550831
3249 4 0.114401 0.0956012 0.555197
96 1 0.131644 0.160366 0.558932
98 3 0.132809 0.145796 0.576024
939 4 0.0917545 0.16474 0.551752
97 3 0.111705 0.163719 0.545444
99 3 0.153143 0.151208 0.546204
2832 4 0.162265 0.137442 0.532415
2830 2 0.188121 0.12441 0.523982
2831 4 0.213978 0.111378 0.515549
4580 4 0.228171 0.120114 0.514651
4579 2 0.242178 0.129142 0.529049
4581 4 0.256186 0.13817 0.543447
305 4 0.263808 0.151904 0.547643
304 2 0.279859 0.149039 0.567683
3009 4 0.353355 0.116717 0.535399
3007 2 0.359366 0.131354 0.519875
3008 4 0.365376 0.14599 0.50435
2972 4 0.410731 0.0835137 0.563891
731 4 0.364501 0.164082 0.509646
47 3 0.411585 0.135748 0.508668
1182 4 0.414551 0.146957 0.565228
48 3 0.412639 0.142385 0.545419
46 1 0.424137 0.141296 0.525004
49 3 0.448458 0.124995 0.525739
50 3 0.423698 0.161509 0.520075
4467 4 0.476025 0.150353 0.579575
4465 2 0.48354 0.140388 0.556806
1145 4 0.492196 0.114559 0.521991
4466 4 0.491055 0.130423 0.534037
100 3 0.128705 0.180325 0.567661
4002 4 0.163417 0.206126 0.503601
4000 2 0.166285 0.227427 0.503775
4001 4 0.169153 0.248728 0.50395
732 4 0.366113 0.203945 0.531584
730 2 0.365307 0.184013 0.520615
3824 4 0.471664 0.203931 0.573946
3823 2 0.482426 0.220488 0.574935
3825 4 0.493189 0.237046 0.575925
2989 2 0.0606816 0.314985 0.507875
2990 4 0.0355926 0.325735 0.518479
2374 2 0.112837 0.25577 0.571791
947 4 0.101161 0.28929 0.50722
946 2 0.118606 0.278165 0.526059
948 4 0.136051 0.26704 0.544897
2376 4 0.118924 0.263099 0.5499
1191 4 0.136938 0.320448 0.516591
1229 4 0.281344 0.25291 0.540943
1230 4 0.24357 0.288367 0.569451
1228 2 0.262457 0.270639 0.555197
2354 4 0.292141 0.263237 0.534079
2353 2 0.308214 0.274645 0.528535
3192 4 0.243095 0.306299 0.57725
3190 2 0.257507 0.319547 0.581523
2355 4 0.324286 0.286052 0.52299
3023 4 0.335097 0.283729 0.505148
3413 4 0.0411732 0.339414 0.528596
3412 2 0.0431935 0.354157 0.546625
3414 4 0.0452137 0.368901 0.564654
1189 2 0.143652 0.338617 0.524128
1190 4 0.150366 0.356786 0.531666
897 4 0.166551 0.361864 0.536714
895 2 0.182747 0.364121 0.554644
896 4 0.198944 0.366378 0.572575
3157 2 0.231465 0.377292 0.564889
3158 4 0.218991 0.365452 0.577351
3159 4 0.243939 0.389132 0.552427
2777 4 0.247989 0.405674 0.552148
291 4 0.286517 0.335238 0.574935
2776 2 0.271535 0.408353 0.550981
2778 4 0.295081 0.411032 0.549815
289 2 0.289308 0.355524 0.582469
600 4 0.352434 0.392391 0.516933
598 2 0.375265 0.39604 0.519681
599 4 0.398097 0.399689 0.52243
2927 4 0.413964 0.405566 0.528477
2309 4 0.495431 0.395686 0.519194
3537 4 0.02929 0.434979 0.508503
3535 2 0.0468516 0.439651 0.523034
3536 4 0.0644133 0.444324 0.537564
2699 4 0.0531357 0.462587 0.580731
3056 4 0.0864731 0.440511 0.541111
3055 2 0.101974 0.45079 0.531013
3057 4 0.117475 0.461069 0.520916
3440 4 0.117365 0.479316 0.525692
3439 2 0.103446 0.500414 0.512821
510 4 0.263915 0.418174 0.518203
3426 4 0.296344 0.42704 0.554459
3424 2 0.31502 0.432919 0.565791
3425 4 0.333697 0.438799 0.577123
2926 2 0.41052 0.422712 0.51092
340 2 0.04404 0.0148504 0.647093
342 4 0.0175611 0.0185912 0.648473
4347 4 0.00749222 0.0293983 0.631448
341 4 0.0705189 0.0111096 0.645712
435 4 0.0756425 0.0267331 0.642959
434 4 0.102324 0.0541895 0.655532
433 2 0.0889831 0.0404613 0.649246
3402 4 0.122183 0.054424 0.654948
3400 2 0.1474 0.0361092 0.650485
3401 4 0.172617 0.0177944 0.646022
2193 4 0.190561 0.0185453 0.637363
2191 2 0.212271 0.0217483 0.645993
2192 4 0.233981 0.0249513 0.654622
2019 4 0.241103 0.0339954 0.640214
2017 2 0.266746 0.0222939 0.630875
2018 4 0.292389 0.0105924 0.621537
2283 4 0.312179 0.00411376 0.629595
2281 2 0.330994 0.00788056 0.643222
2282 4 0.349809 0.0116474 0.65685
878 4 0.407077 0.0868239 0.583124
3313 2 0.492259 0.0826672 0.644002
778 2 0.0571461 0.129219 0.648917
780 4 0.0805468 0.122549 0.635776
779 4 0.0337453 0.135888 0.662057
467 4 0.0918637 0.132521 0.626438
466 2 0.107525 0.137825 0.610142
468 4 0.123186 0.143129 0.593846
651 4 0.222365 0.154262 0.627791
649 2 0.217401 0.156785 0.652383
306 4 0.29591 0.146174 0.587722
3366 4 0.298886 0.157626 0.603189
1096 2 0.339833 0.0894724 0.642378
1097 4 0.340479 0.0902717 0.617409
3364 2 0.303423 0.168403 0.623555
1098 4 0.339186 0.0886731 0.667348
1180 2 0.407213 0.147657 0.589221
1181 4 0.399875 0.148357 0.613214
877 2 0.426385 0.0910086 0.595505
879 4 0.445693 0.0951933 0.607885
605 4 0.471856 0.136801 0.59066
3315 4 0.466361 0.100535 0.646426
606 4 0.464447 0.111858 0.629428
604 2 0.468152 0.12433 0.610044
2134 2 0.476689 0.155744 0.651284
2135 4 0.46841 0.160612 0.62749
3386 4 0.000140292 0.204727 0.632907
3385 2 0.0278469 0.194487 0.631975
3387 4 0.0555534 0.184248 0.631042
1269 4 0.0681252 0.187351 0.616809
3525 4 0.129622 0.186759 0.586836
1267 2 0.0881363 0.190507 0.629132
1268 4 0.108147 0.193663 0.641455
3523 2 0.145936 0.198623 0.586669
3524 4 0.16225 0.210488 0.586503
822 4 0.192982 0.236045 0.664239
1211 4 0.288319 0.201922 0.586518
3365 4 0.307959 0.17918 0.643921
1212 4 0.286602 0.240753 0.613097
1210 2 0.28746 0.221338 0.599807
1185 4 0.31681 0.224301 0.619952
1183 2 0.340157 0.204974 0.627278
3381 4 0.299951 0.245425 0.624778
1184 4 0.363505 0.185647 0.634604
2375 4 0.10675 0.248441 0.593682
3027 4 0.0971985 0.258572 0.658204
2492 4 0.0227127 0.323757 0.622219
3025 2 0.093966 0.274863 0.639799
585 4 0.0797979 0.311301 0.620299
3026 4 0.0907335 0.291154 0.621394
3354 4 0.132393 0.307957 0.599599
3353 4 0.15993 0.258269 0.595324
3352 2 0.146161 0.283113 0.597461
1166 4 0.274898 0.303554 0.659238
3191 4 0.271919 0.332794 0.585796
3379 2 0.288897 0.268918 0.633333
3380 4 0.277843 0.292412 0.641888
3326 4 0.38155 0.27219 0.66534
3264 4 0.460185 0.253499 0.614116
3262 2 0.468039 0.271377 0.60816
3263 4 0.475892 0.289255 0.602205
3117 4 0.492613 0.294103 0.60026
3207 4 0.485285 0.287949 0.665329
583 2 0.0775026 0.333961 0.626468
584 4 0.0752072 0.356621 0.632637
3140 4 0.130407 0.358583 0.605077
3139 2 0.124646 0.38181 0.612602
3141 4 0.118886 0.405037 0.620128
290 4 0.292098 0.375809 0.590003
1080 4 0.292053 0.383261 0.60745
1078 2 0.317679 0.381522 0.610197
1079 4 0.343305 0.379783 0.612944
1919 4 0.358355 0.387473 0.614854
1918 2 0.3614 0.406277 0.626075
2698 2 0.0291695 0.4618 0.586383
2700 4 0.00520325 0.461013 0.592034
842 4 0.0126752 0.435254 0.657137
992 4 0.0691979 0.451719 0.593053
991 2 0.0941391 0.436278 0.601967
993 4 0.11908 0.420837 0.610882
1920 4 0.364445 0.42508 0.637296
3320 4 0.299172 0.46819 0.635046
3319 2 0.315007 0.455578 0.6158
3321 4 0.330842 0.442966 0.596553
3079 2 0.0561918 0.0764721 0.742603
3081 4 0.0674664 0.0700837 0.719865
4239 4 0.0718708 0.0746558 0.700728
4237 2 0.0995051 0.062946 0.702586
4238 4 0.127139 0.0512361 0.704444
3294 4 0.190312 0.059057 0.678332
3292 2 0.210794 0.061633 0.690451
3293 4 0.231276 0.0642091 0.70257
4439 4 0.249328 0.0501666 0.695098
4438 2 0.274218 0.0459479 0.704294
4440 4 0.299108 0.0417291 0.71349
4163 4 0.307653 0.0451113 0.730093
2144 4 0.340215 0.0275401 0.668897
4162 2 0.330018 0.023135 0.7317
2143 2 0.364214 0.0294775 0.669011
4319 4 0.365707 0.00563613 0.744231
2145 4 0.388212 0.031415 0.669125
1245 4 0.405304 0.0338657 0.678498
1203 4 0.418152 0.0484733 0.739256
1243 2 0.410634 0.0437791 0.699116
1244 4 0.415964 0.0536925 0.719735
2232 4 0.0128802 0.100184 0.712579
1260 4 0.202554 0.0866227 0.751902
650 4 0.212437 0.159307 0.676974
1259 4 0.243961 0.0926392 0.729486
826 2 0.179709 0.159873 0.705489
1258 2 0.223257 0.0896309 0.740694
827 4 0.195083 0.162899 0.687244
828 4 0.164335 0.156846 0.723735
2628 4 0.250145 0.106585 0.73322
2626 2 0.259719 0.112498 0.712335
2627 4 0.269292 0.118411 0.69145
3105 4 0.284678 0.119808 0.678382
3103 2 0.291166 0.13912 0.676388
3104 4 0.297653 0.158432 0.674395
3461 4 0.353918 0.08586 0.682229
3460 2 0.347887 0.104958 0.698061
3462 4 0.341855 0.124055 0.713892
3017 4 0.482129 0.0833554 0.746893
2136 4 0.484969 0.150875 0.675079
2091 4 0.498564 0.13228 0.681504
4520 4 0.0255314 0.177877 0.681524
1236 4 0.0335427 0.185563 0.695428
1234 2 0.0521115 0.18426 0.712792
4519 2 0.00503926 0.172322 0.689141
558 4 0.090964 0.249719 0.672698
1235 4 0.0706803 0.182956 0.730157
3374 4 0.0746109 0.196252 0.720061
3373 2 0.0922307 0.206769 0.719201
3375 4 0.109851 0.217287 0.718341
821 4 0.192923 0.211823 0.706399
820 2 0.192952 0.223934 0.685319
858 4 0.274967 0.20122 0.726751
857 4 0.296698 0.17323 0.686149
856 2 0.285832 0.187225 0.70645
3476 4 0.296071 0.249291 0.681682
2982 4 0.454931 0.249858 0.671452
846 4 0.479614 0.19194 0.742644
2048 4 0.431342 0.253004 0.743371
1943 4 0.458755 0.200885 0.748722
3640 2 0.0087976 0.259412 0.687404
3642 4 0.035229 0.251068 0.68015
557 4 0.0431693 0.257242 0.694877
556 2 0.0670667 0.253481 0.683787
3119 4 0.0481436 0.30643 0.728312
3118 2 0.0737442 0.287774 0.728514
3153 4 0.0383152 0.300821 0.743321
3120 4 0.0993447 0.269117 0.728715
2999 4 0.115807 0.274247 0.729138
2998 2 0.138873 0.274436 0.719708
3000 4 0.161939 0.274625 0.710279
3272 4 0.178288 0.281266 0.709003
3271 2 0.185911 0.298947 0.716288
3273 4 0.193535 0.316627 0.723572
1165 2 0.256366 0.323853 0.670894
3475 2 0.310798 0.261431 0.68912
3477 4 0.325525 0.273572 0.696557
3327 4 0.337129 0.265938 0.679929
3325 2 0.359339 0.269064 0.672634
1200 4 0.365582 0.29193 0.735497
2980 2 0.428408 0.253789 0.669785
2981 4 0.401885 0.25772 0.668119
1198 2 0.389106 0.273906 0.744391
3206 4 0.457907 0.263708 0.685105
2047 2 0.449034 0.263001 0.747775
3205 2 0.471596 0.275828 0.675217
1010 4 0.490649 0.296069 0.680818
3170 4 0.199013 0.331431 0.720122
1208 4 0.141955 0.408089 0.724945
1207 2 0.168621 0.403867 0.725449
3169 2 0.213906 0.342282 0.709955
1209 4 0.195287 0.399644 0.725953
1167 4 0.237834 0.344153 0.68255
3171 4 0.228799 0.353134 0.699789
1089 4 0.400922 0.362408 0.732338
3389 4 0.488597 0.379845 0.708254
1910 4 0.453029 0.440443 0.719793
1909 2 0.462513 0.438805 0.743178
191 1 0.00525196 0.0543924 0.790257
193 3 0.0240411 0.0588765 0.799187
4509 4 0.0460332 0.0542467 0.803209
192 3 0.0155818 0.0333578 0.780948
3468 4 0.0101428 0.0177959 0.787485
1969 2 0.0677736 0.00321583 0.809697
1970 4 0.0410947 0.00875345 0.805511
4507 2 0.0635753 0.0623167 0.81328
4508 4 0.0811173 0.0703868 0.823352
3080 4 0.0449172 0.0828604 0.76534
3002 4 0.153987 0.0297968 0.803353
3001 2 0.164574 0.0415169 0.818352
3003 4 0.175161 0.0532369 0.833352
3252 4 0.180887 0.061389 0.818524
3250 2 0.19916 0.0678376 0.807256
3251 4 0.217434 0.0742861 0.795988
2565 4 0.231251 0.0750454 0.810097
2563 2 0.258606 0.0654446 0.814041