ITEM: TIMESTEP
590500
ITEM: NUMBER OF ATOMS
4590
ITEM: BOX BOUNDS xy xz yz pp pp pp
-1.3798026600000014e+01 9.9985700000000008e+00 -3.7994566000000134e+00
-9.9985700000000008e+00 9.9985700000000008e+00 0.0000000000000000e+00
-9.9985700000000008e+00 9.9985700000000008e+00 0.0000000000000000e+00
ITEM: ATOMS id type xs ys zs
3291 4 0.0640295 0.0818726 0.00151671
3546 4 0.0637711 0.0277033 0.0322793
3544 2 0.0874026 0.0314512 0.041544
3545 4 0.111034 0.0351991 0.0508086
405 4 0.130518 0.0316732 0.0548048
403 2 0.147882 0.0520817 0.059983
404 4 0.165245 0.0724902 0.0651612
624 4 0.172629 0.0654179 0.0813486
1021 2 0.150915 0.00678747 0.0146391
1023 4 0.173188 0.021649 0.0197421
4026 4 0.181292 0.011097 0.0331065
4024 2 0.199876 0.0242893 0.0469861
4025 4 0.218461 0.0374817 0.0608658
3624 4 0.235908 0.0463263 0.0700689
3622 2 0.258365 0.0473848 0.0587232
3623 4 0.280822 0.0484434 0.0473775
2479 2 0.435813 0.0470452 0.07566
1108 2 0.480931 0.0487411 0.0421837
1110 4 0.483585 0.0495784 0.0173191
1109 4 0.478277 0.0479038 0.0670484
2480 4 0.458857 0.0448644 0.0672871
4505 4 0.464846 0.0430421 0.0103463
4542 4 0.999865 0.16239 0.00802874
3290 4 0.0323072 0.0856974 0.0393735
4172 4 0.0325301 0.100618 0.0513537
4171 2 0.0399743 0.118658 0.0681952
3289 2 0.0481683 0.083785 0.0204451
2521 2 0.122399 0.101089 0.0659981
2522 4 0.139439 0.110289 0.0484849
1232 4 0.154802 0.123433 0.0427178
1231 2 0.175018 0.137584 0.0318661
1233 4 0.195233 0.151735 0.0210143
3909 4 0.00352148 0.217788 0.998995
1826 4 0.0199581 0.233541 0.00151491
1825 2 0.0426069 0.244465 0.0106035
2787 4 0.180002 0.23656 0.00597205
2968 2 0.249829 0.171832 0.0807788
2969 4 0.267737 0.180119 0.0637573
2555 4 0.277708 0.194343 0.0501654
2554 2 0.294132 0.189508 0.0328149
2556 4 0.310556 0.184674 0.0154643
781 2 0.344306 0.230056 0.0671078
783 4 0.328047 0.211196 0.0566752
782 4 0.360564 0.248916 0.0775404
1288 2 0.401348 0.235628 0.0472192
1289 4 0.408172 0.21629 0.0590919
553 2 0.0149101 0.288028 0.0747392
3306 4 0.0183091 0.289038 0.0029886
1827 4 0.0652558 0.255388 0.019692
611 4 0.0389031 0.294107 0.00108968
610 2 0.0624871 0.301672 0.00989217
612 4 0.0860712 0.309236 0.0186947
3983 4 0.0827403 0.267319 0.0237188
1158 4 0.106166 0.318157 0.0255593
555 4 0.0385651 0.300432 0.0789493
3982 2 0.107312 0.270467 0.0300845
3984 4 0.131884 0.273615 0.0364503
1156 2 0.131549 0.324489 0.026179
675 4 0.149891 0.275592 0.0451811
673 2 0.172053 0.28743 0.0545911
1157 4 0.156933 0.330821 0.0267986
674 4 0.194214 0.299269 0.0640012
3195 4 0.214379 0.303072 0.0680461
3193 2 0.238682 0.31383 0.0643106
3194 4 0.262986 0.324589 0.0605751
3006 4 0.334736 0.319505 0.00107481
1290 4 0.394523 0.254967 0.0353464
3212 4 0.341061 0.330746 0.0165206
2163 4 0.358677 0.271102 0.0267357
2161 2 0.379625 0.28271 0.0149384
524 4 0.37436 0.263785 0.0831382
2162 4 0.400572 0.294318 0.00314111
2827 2 0.434854 0.313435 0.00333718
2829 4 0.456003 0.32127 0.0166527
3102 4 0.475009 0.319788 0.018795
3849 4 0.0323071 0.412183 0.0075983
3742 2 0.139212 0.409946 0.0400419
3743 4 0.151774 0.396646 0.0251889
1586 4 0.178165 0.336836 0.0285266
1585 2 0.202825 0.345704 0.0242035
1587 4 0.227485 0.354571 0.0198804
3150 4 0.221978 0.401493 0.0417594
2571 4 0.246376 0.351552 0.0169205
3148 2 0.247176 0.407859 0.0387267
3149 4 0.272375 0.414226 0.0356939
2569 2 0.271494 0.358305 0.0135289
4479 4 0.278271 0.332946 0.0719973
2570 4 0.296611 0.365058 0.0101374
3818 4 0.348976 0.393691 0.0815035
2547 4 0.350858 0.399993 0.0622513
3211 2 0.356413 0.338828 0.0357289
2545 2 0.368907 0.410774 0.046348
3213 4 0.371765 0.346911 0.0549372
4088 4 0.390623 0.359051 0.0575568
4087 2 0.413485 0.371896 0.0509876
4089 4 0.436348 0.384741 0.0444184
353 4 0.453303 0.395417 0.0517931
352 2 0.471622 0.412576 0.0415954
4256 4 0.108212 0.424413 0.0631354
3744 4 0.12665 0.423246 0.054895
387 4 0.145314 0.459562 0.00914909
385 2 0.167396 0.474653 0.0144651
4278 4 0.183669 0.445945 0.0197469
4276 2 0.200871 0.431937 0.0256098
386 4 0.189478 0.489743 0.0197811
4277 4 0.218073 0.41793 0.0314726
607 2 0.273707 0.487582 0.0171702
608 4 0.285082 0.476126 0.0347856
648 4 0.24346 0.418683 0.0803234
4314 4 0.293044 0.469875 0.0511716
4312 2 0.311216 0.469101 0.0681717
2546 4 0.386957 0.421556 0.0304447
354 4 0.489941 0.429735 0.0313976
578 4 0.086188 0.0399312 0.115233
577 2 0.104192 0.0602612 0.111781
579 4 0.122195 0.0805913 0.10833
622 2 0.175075 0.0773865 0.103301
3502 2 0.224821 0.00961112 0.14398
3504 4 0.233236 0.032505 0.134786
125 3 0.355653 0.0520716 0.140009
2481 4 0.412768 0.0492259 0.084033
121 1 0.369797 0.0433092 0.153863
124 3 0.382328 0.0304531 0.14166
123 3 0.384331 0.0603823 0.164792
3509 4 0.453976 0.023153 0.125846
3508 2 0.478019 0.0355619 0.124857
1070 4 0.436505 0.00971759 0.132759
4173 4 0.0474184 0.136697 0.0850366
3558 4 0.0671547 0.144507 0.0882623
3556 2 0.0776655 0.162763 0.103829
2523 4 0.10536 0.0918887 0.0835114
4155 4 0.0819948 0.122754 0.122473
4153 2 0.0838539 0.107705 0.103071
4154 4 0.0857129 0.0926555 0.0836692
1437 4 0.13037 0.0986044 0.113611
1435 2 0.141503 0.0985342 0.135993
623 4 0.177521 0.0893552 0.125253
1436 4 0.152635 0.098464 0.158375
1584 4 0.204535 0.1558 0.15988
2970 4 0.231921 0.163546 0.0978003
567 4 0.374475 0.10288 0.115149
565 2 0.398609 0.108815 0.122938
566 4 0.422743 0.11475 0.130726
659 4 0.433588 0.119974 0.14703
658 2 0.453623 0.110728 0.138979
660 4 0.473658 0.101483 0.130929
3216 4 0.494413 0.109928 0.130809
3557 4 0.0881764 0.181019 0.119395
3054 4 0.0984018 0.193712 0.133066
3052 2 0.12092 0.207206 0.139769
3053 4 0.143438 0.220699 0.146472
708 4 0.162028 0.226342 0.154051
2942 4 0.216676 0.169309 0.149928
2941 2 0.216372 0.171652 0.125046
706 2 0.184092 0.218331 0.156217
2943 4 0.216068 0.173995 0.100164
707 4 0.206156 0.21032 0.158384
837 4 0.285522 0.233726 0.0993705
245 4 0.454065 0.214769 0.13141
246 4 0.436146 0.170134 0.151887
244 2 0.445106 0.192452 0.141649
2773 2 0.021106 0.26263 0.138181
2609 4 0.0482982 0.31424 0.0932593
2592 4 0.0552371 0.274507 0.154496
2775 4 0.0419106 0.257673 0.149482
2608 2 0.0600237 0.33389 0.106495
2590 2 0.0773733 0.266698 0.157006
2591 4 0.0995096 0.25889 0.159515
836 4 0.322322 0.271517 0.0853989
4477 2 0.293502 0.327242 0.0900657
2781 4 0.307447 0.310759 0.125625
4478 4 0.308733 0.321538 0.108134
2779 2 0.315542 0.293276 0.139379
2780 4 0.323637 0.275793 0.153132
835 2 0.303922 0.252621 0.0923847
2840 4 0.272591 0.279623 0.157339
523 2 0.382698 0.285906 0.0940343
525 4 0.391037 0.308028 0.10493
2580 4 0.390297 0.304663 0.12536
2578 2 0.402095 0.323117 0.140054
751 2 0.00652145 0.410548 0.129323
262 2 0.0253024 0.376499 0.162957
263 4 0.00683853 0.359256 0.153099
3543 4 0.0482842 0.403652 0.155478
753 4 0.0206594 0.414722 0.150051
2610 4 0.0717493 0.35354 0.119731
639 4 0.091319 0.357876 0.114846
637 2 0.115663 0.369501 0.11459
3541 2 0.0677044 0.413028 0.14044
1095 4 0.185562 0.341215 0.0968303
638 4 0.140008 0.381126 0.114333
1094 4 0.152994 0.37228 0.104291
1093 2 0.169278 0.356748 0.10056
2616 4 0.25512 0.401073 0.12478
2528 4 0.252035 0.35532 0.0961427
2614 2 0.271734 0.401084 0.143467
2527 2 0.271469 0.37412 0.0916526
3817 2 0.326944 0.397801 0.0908776
2529 4 0.290902 0.39292 0.0871625
3819 4 0.304913 0.401911 0.100252
325 2 0.335379 0.408307 0.163028
2615 4 0.288349 0.401095 0.162154
326 4 0.310001 0.403374 0.161157
327 4 0.360757 0.413239 0.164899
2579 4 0.413893 0.34157 0.154748
4255 2 0.09634 0.427087 0.0846938
3593 4 0.0732386 0.485132 0.163076
3592 2 0.0929069 0.492962 0.147801
3542 4 0.0871246 0.422404 0.125402
4257 4 0.0844681 0.429761 0.106252
3906 4 0.178457 0.499208 0.136629
3519 4 0.187629 0.445322 0.149623
3517 2 0.206048 0.455763 0.133937
3518 4 0.224467 0.466204 0.11825
647 4 0.2216 0.453312 0.10252
646 2 0.23253 0.435997 0.0914219
4313 4 0.329387 0.468327 0.0851718
1593 4 0.3321 0.46192 0.104261
1591 2 0.356608 0.466117 0.110997
1592 4 0.381115 0.470313 0.117734
1656 4 0.390488 0.455703 0.110915
1654 2 0.413285 0.462106 0.100032
2473 2 0.403711 0.430484 0.153843
1655 4 0.436083 0.468509 0.0891487
2475 4 0.42565 0.442 0.14372
2474 4 0.381772 0.418968 0.163966
103 3 0.435964 0.427703 0.138839
104 3 0.451335 0.463962 0.131241
101 1 0.455951 0.443491 0.138097
102 3 0.465304 0.445824 0.159176
105 3 0.470985 0.436669 0.123764
3492 4 0.490846 0.444168 0.1212
297 4 0.030801 0.0361717 0.220289
295 2 0.0546167 0.0443214 0.228222
296 4 0.0784323 0.0524711 0.236156
1356 4 0.0966215 0.0635205 0.236025
1354 2 0.120938 0.0690029 0.243333
2714 4 0.139585 0.0139083 0.243297
546 4 0.239553 0.0466925 0.214973
544 2 0.256215 0.0577302 0.232038
545 4 0.272877 0.0687679 0.249103
1476 4 0.253077 0.014772 0.249207
631 2 0.33328 0.00461042 0.197505
1850 4 0.292215 0.0743949 0.241628
633 4 0.347081 0.023102 0.184185
122 3 0.357024 0.0299367 0.169536
2753 4 0.400611 0.0678054 0.177094
2752 2 0.420888 0.0671685 0.191541
2487 4 0.403227 0.011784 0.222513
2892 4 0.406763 0.0250035 0.237553
2754 4 0.441165 0.0665316 0.205987
618 4 0.0126069 0.138743 0.184333
616 2 0.0346599 0.14992 0.194486
617 4 0.056713 0.161097 0.204639
55 3 0.0668093 0.163012 0.221909
653 4 0.126737 0.125572 0.205249
247 2 0.12073 0.15822 0.193668
249 4 0.131494 0.138215 0.190087
652 2 0.13486 0.108989 0.190314
654 4 0.142984 0.092406 0.175379
1582 2 0.190139 0.166125 0.175724
2939 4 0.294474 0.160121 0.171747
2938 2 0.307351 0.165859 0.193039
357 4 0.415211 0.157344 0.222468
512 4 0.48911 0.142147 0.18924
511 2 0.488916 0.166328 0.185053
1763 4 0.000857644 0.219656 0.198615
932 4 0.021188 0.225232 0.203246
931 2 0.0451917 0.221903 0.200571
933 4 0.0691954 0.218575 0.197896
762 4 0.0854439 0.223615 0.211295
54 3 0.0796616 0.199865 0.226937
51 1 0.0846281 0.178611 0.229301
52 3 0.10363 0.177261 0.216793
760 2 0.109556 0.235801 0.21256
248 4 0.109966 0.178225 0.197249
1583 4 0.175744 0.17645 0.191567
1102 2 0.246244 0.235263 0.23377
1104 4 0.242218 0.211154 0.240375
2940 4 0.320228 0.171596 0.21433
2798 4 0.335551 0.185274 0.217945
2797 2 0.332594 0.177238 0.241579
371 4 0.416407 0.224829 0.227497
356 4 0.447582 0.198779 0.236024
355 2 0.431397 0.178062 0.229246
370 2 0.430737 0.247627 0.229838
513 4 0.488721 0.190508 0.180865
517 2 0.0887967 0.277007 0.237172
518 4 0.103296 0.288853 0.218873
761 4 0.133668 0.247986 0.213825
642 4 0.14426 0.260981 0.22851
640 2 0.156799 0.282619 0.23778
641 4 0.169338 0.304258 0.24705
1103 4 0.25027 0.259372 0.227165
2841 4 0.254715 0.277217 0.204153
2839 2 0.263653 0.27842 0.180746
372 4 0.445067 0.270424 0.232179
270 4 0.0138627 0.415445 0.168143
264 4 0.0437662 0.393742 0.172816
494 4 0.240989 0.359335 0.244757
493 2 0.265261 0.363944 0.237237
1512 4 0.309949 0.37086 0.225612
495 4 0.289533 0.368552 0.229716
1510 2 0.334671 0.379915 0.221855
1511 4 0.359393 0.38897 0.218098
141 1 0.0382908 0.451238 0.239843
143 3 0.0189262 0.44995 0.22676
269 4 0.0119744 0.445868 0.207083
268 2 0.0129185 0.430657 0.187613
144 3 0.0574452 0.453581 0.22632
4587 4 0.0771236 0.455003 0.224039
4585 2 0.0856624 0.478678 0.217085
3963 4 0.228964 0.458213 0.231785
3813 4 0.282937 0.472814 0.213186
3962 4 0.279578 0.462985 0.229113
3961 2 0.254271 0.460599 0.230449
3811 2 0.304441 0.489096 0.208589
2959 2 0.456125 0.433969 0.247195
2961 4 0.467309 0.42277 0.229236
736 2 0.498518 0.43892 0.20087
737 4 0.479092 0.423548 0.211662
351 4 0.155839 0.0601929 0.24958
2715 4 0.140862 0.0145249 0.293287
1797 4 0.149553 0.00369629 0.308406
1355 4 0.145255 0.0744853 0.25064
2713 2 0.140223 0.0142166 0.268292
349 2 0.179094 0.0652863 0.259705
350 4 0.20235 0.0703797 0.269829
2462 4 0.219924 0.0795741 0.278331
2340 4 0.305588 0.00789784 0.325684
18 3 0.317271 0.0536949 0.318385
16 1 0.327314 0.0756592 0.313746
19 3 0.323393 0.0806546 0.291616
20 3 0.350115 0.0787701 0.317708
427 2 0.347412 0.0275894 0.332748
428 4 0.323988 0.0138065 0.33428
1849 2 0.298255 0.0729316 0.265776
1851 4 0.304294 0.0714683 0.289924
2890 2 0.421712 0.042204 0.251442
429 4 0.370837 0.0413722 0.331216
2891 4 0.43666 0.0594046 0.265331
381 4 0.457016 0.0637378 0.263398
379 2 0.482267 0.0714375 0.263302
2461 2 0.24415 0.0906939 0.274789
2463 4 0.268376 0.101814 0.271247
2534 4 0.276755 0.119666 0.265848
2533 2 0.298705 0.135605 0.269474
2535 4 0.320654 0.151543 0.2731
17 3 0.317812 0.089643 0.327375
2679 4 0.00686332 0.241578 0.32396
3378 4 0.0258406 0.237964 0.319982
1864 2 0.0904336 0.242122 0.280207
53 3 0.0890953 0.174651 0.25156
1865 4 0.107415 0.228122 0.286793
2674 2 0.20691 0.218149 0.286321
2675 4 0.186053 0.206483 0.274419
2676 4 0.227766 0.229816 0.298222
1061 4 0.243007 0.219295 0.301337
1062 4 0.286423 0.222157 0.32692
1060 2 0.264715 0.220726 0.314129
2660 4 0.306001 0.223959 0.323424
2659 2 0.325627 0.243126 0.324944
2799 4 0.329637 0.169203 0.265213
402 4 0.49261 0.182589 0.315055
519 4 0.0742977 0.265161 0.255471
2898 4 0.0463538 0.30547 0.26065
2896 2 0.0687927 0.31322 0.271855
1866 4 0.0734525 0.256123 0.27362
2897 4 0.0912316 0.32097 0.283059
2691 4 0.109841 0.33092 0.283274
231 4 0.347535 0.32537 0.310559
678 4 0.360802 0.275875 0.320832
676 2 0.380807 0.272639 0.307065
677 4 0.400812 0.269404 0.293298
2661 4 0.345253 0.262294 0.326465
2651 4 0.419494 0.264895 0.299806
2650 2 0.438404 0.268984 0.283083
1696 2 0.476733 0.319907 0.328299
2652 4 0.457313 0.273074 0.26636
2601 4 0.472822 0.288285 0.266338
1697 4 0.483639 0.329434 0.30575
2599 2 0.497051 0.294999 0.273634
1401 4 0.0519988 0.394186 0.319238
2629 2 0.0104366 0.384849 0.328571
2631 4 0.0349878 0.39578 0.329344
1399 2 0.0666995 0.416887 0.31783
597 4 0.122285 0.389253 0.32974
106 1 0.159006 0.4053 0.30962
107 3 0.160737 0.39934 0.287588
110 3 0.138035 0.395894 0.317504
2689 2 0.134619 0.336838 0.277736
108 3 0.175729 0.39768 0.321875
2690 4 0.159396 0.342756 0.272198
3222 4 0.191943 0.41076 0.320544
2538 4 0.17529 0.338811 0.260308
2537 4 0.224493 0.359707 0.256056
2536 2 0.199892 0.349259 0.258182
3220 2 0.215012 0.410305 0.311121
3221 4 0.238082 0.40985 0.301699
229 2 0.335303 0.338815 0.325585
1758 4 0.492436 0.34782 0.297176
145 3 0.0366762 0.43249 0.252623
142 3 0.0401799 0.46963 0.253567
1415 4 0.100128 0.447184 0.307775
1400 4 0.0814002 0.439587 0.316422
1414 2 0.0943794 0.469924 0.310357
1416 4 0.0886304 0.492664 0.312939
3629 4 0.146534 0.45686 0.325357
109 3 0.162037 0.428421 0.31102
4178 4 0.192027 0.487513 0.309975
3628 2 0.168338 0.473377 0.327345
3630 4 0.190143 0.489894 0.329332
4177 2 0.214547 0.497545 0.299995
416 4 0.249308 0.422636 0.289309
415 2 0.272949 0.426475 0.280063
417 4 0.29659 0.430315 0.270816
2741 4 0.397427 0.423729 0.303254
2740 2 0.413737 0.426916 0.28406
2742 4 0.430047 0.430103 0.264866
593 4 0.385646 0.467916 0.332013
2960 4 0.444941 0.445169 0.265154
1975 2 0.0511749 0.0104763 0.411447
1976 4 0.075353 0.0211734 0.406938
2543 4 0.0903179 0.0113299 0.403827
2542 2 0.109628 0.00333435 0.415113
2847 4 0.431933 0.0786746 0.342376
693 4 0.451573 0.0792112 0.344941
1128 4 0.45459 0.0615111 0.400546
692 4 0.496768 0.0648973 0.345184
2520 4 0.433954 0.00695038 0.386159
2518 2 0.448153 0.0269403 0.396995
691 2 0.47417 0.0720542 0.345062
2519 4 0.462351 0.0469302 0.407831
4223 4 0.483167 0.0488702 0.412716
1518 4 0.0335219 0.0849993 0.373994
2237 4 0.0147879 0.156328 0.401116
2598 4 0.0323872 0.163062 0.407762
1516 2 0.0574418 0.097607 0.372281
399 4 0.00586991 0.103641 0.41498
1517 4 0.0813618 0.110215 0.370569
2504 4 0.0998243 0.122891 0.373261
2503 2 0.117203 0.132297 0.390395
2505 4 0.134582 0.141704 0.40753
3146 4 0.153642 0.151246 0.41023
2931 4 0.229582 0.133735 0.416835
2642 4 0.244789 0.133925 0.403567
2641 2 0.26898 0.144043 0.39838
2643 4 0.293172 0.154161 0.393193
1743 4 0.306712 0.167294 0.404116
514 2 0.381163 0.15471 0.412246
2846 4 0.409044 0.117417 0.351573
2845 2 0.420489 0.098046 0.346974
1126 2 0.45487 0.0858959 0.397138
1127 4 0.455151 0.110281 0.393731
3269 4 0.470819 0.124917 0.392855
3268 2 0.493485 0.134576 0.382957
3376 2 0.0366752 0.234196 0.341835
2671 2 0.0290064 0.223184 0.401709
2672 4 0.0415929 0.235112 0.382308
3377 4 0.0475098 0.230427 0.363688
1741 2 0.33208 0.173924 0.404292
515 4 0.376373 0.177287 0.406501
1742 4 0.357448 0.180555 0.404467
575 4 0.0914473 0.289297 0.381653
574 2 0.108758 0.279697 0.394572
576 4 0.126068 0.270097 0.40749
2653 2 0.239096 0.27584 0.41179
2655 4 0.238239 0.292874 0.39395
1698 4 0.469827 0.31038 0.350848
595 2 0.11029 0.371196 0.344767
596 4 0.098296 0.353139 0.359793
2814 4 0.332889 0.37292 0.394297
2812 2 0.320819 0.360626 0.374822
2813 4 0.308749 0.348331 0.355347
230 4 0.323072 0.352261 0.34061
2516 4 0.338664 0.383821 0.412316
2456 4 0.416629 0.352844 0.407059
2656 2 0.492459 0.397526 0.334566
2658 4 0.479461 0.379373 0.348865
2455 2 0.44198 0.359655 0.407306
2457 4 0.467331 0.366465 0.407554
680 4 0.483536 0.360861 0.4004
3897 4 0.121021 0.495014 0.34333
1360 2 0.0702079 0.469954 0.407034
3895 2 0.110893 0.487987 0.365656
3896 4 0.100765 0.480959 0.387983
1362 4 0.0854656 0.488341 0.394839
3626 4 0.26506 0.433248 0.351785
3625 2 0.289495 0.442493 0.356827
3627 4 0.31393 0.451739 0.361868
1861 2 0.349054 0.473913 0.346252
1863 4 0.326286 0.469126 0.35741
3167 4 0.325382 0.435849 0.410181
3166 2 0.350679 0.442871 0.408892
549 4 0.305066 0.430454 0.413594
1862 4 0.371821 0.478701 0.335094
3168 4 0.375975 0.449894 0.407604
377 4 0.395719 0.44873 0.411704
594 4 0.432569 0.490093 0.345611
376 2 0.420406 0.457276 0.407204
592 2 0.409107 0.479004 0.338812
2507 4 0.44622 0.481422 0.35697
378 4 0.445092 0.465822 0.402703
2506 2 0.471399 0.487122 0.360445
117 3 0.464287 0.460458 0.399349
2508 4 0.496578 0.492821 0.363921
119 3 0.497549 0.45425 0.385641
118 3 0.473483 0.42655 0.40363
116 1 0.482 0.449365 0.402984
4563 4 0.161949 0.0412554 0.489008
3030 4 0.158389 0.0551199 0.476648
3028 2 0.174091 0.0718157 0.462885
1799 4 0.304167 0.056891 0.482709
1798 2 0.293687 0.0434138 0.463194
1800 4 0.283208 0.0299365 0.443679
1034 4 0.330695 0.0811739 0.43115
459 4 0.387285 0.0582665 0.490459
457 2 0.367586 0.0682005 0.498239
4222 2 0.500314 0.069682 0.416961
397 2 0.0258928 0.0994228 0.428161
398 4 0.0459157 0.0952048 0.441341
3096 4 0.064895 0.0967012 0.451933
3094 2 0.0888228 0.10778 0.457053
3095 4 0.112751 0.118859 0.462172
3548 4 0.13361 0.116653 0.463391
2929 2 0.211269 0.114654 0.42357
3029 4 0.189793 0.0885116 0.449122
3145 2 0.173324 0.16738 0.419652
3547 2 0.158431 0.125637 0.460199
3549 4 0.183253 0.134621 0.457007
266 4 0.201837 0.14658 0.456549
2930 4 0.192956 0.0955725 0.430306
265 2 0.225669 0.159297 0.458748
2587 2 0.278677 0.0998913 0.485231
2589 4 0.294751 0.0923235 0.469069
1033 2 0.351296 0.0990502 0.428044
1035 4 0.371896 0.116926 0.424938
516 4 0.385953 0.132133 0.417991
1700 4 0.470947 0.134312 0.4438
1699 2 0.478248 0.159163 0.444779
1782 4 0.0162297 0.199971 0.437117
2673 4 0.01642 0.211256 0.42111
2596 2 0.0500594 0.176352 0.422564
2597 4 0.0677317 0.189643 0.437367
2810 4 0.0807384 0.200363 0.451492
2809 2 0.105281 0.198932 0.44878
1818 4 0.13305 0.182334 0.457794
2811 4 0.129824 0.1975 0.446068
1816 2 0.151597 0.180304 0.473999
1817 4 0.170144 0.178274 0.490204
3147 4 0.193006 0.183514 0.429075
2613 4 0.203156 0.198108 0.416805
2611 2 0.21884 0.218528 0.425103
2612 4 0.234525 0.238948 0.4334
267 4 0.2495 0.172015 0.460948
2765 4 0.268225 0.181559 0.463266
2764 2 0.292868 0.19218 0.462545
2766 4 0.31751 0.2028 0.461825
2697 4 0.333271 0.198923 0.451551
2696 4 0.367158 0.19488 0.487376
2695 2 0.350214 0.196901 0.469464
1701 4 0.48555 0.184014 0.445759
344 4 0.118135 0.250814 0.473825
345 4 0.118264 0.262587 0.425269
343 2 0.118199 0.2567 0.449547
2654 4 0.239953 0.258806 0.42963
3037 2 0.308669 0.282556 0.472736
3038 4 0.303151 0.302217 0.460367
3039 4 0.314187 0.262896 0.485106
710 4 0.413657 0.3327 0.482223
446 4 0.4421 0.293497 0.450754
445 2 0.463906 0.300741 0.43829
447 4 0.485712 0.307984 0.425826
3275 4 0.496337 0.294804 0.422264
3540 4 0.247235 0.410999 0.451092
3538 2 0.226774 0.414975 0.438475
2802 4 0.33969 0.337859 0.433391
2800 2 0.314655 0.337545 0.434544
2801 4 0.28962 0.33723 0.435698
431 4 0.354935 0.33434 0.42097
2515 2 0.353899 0.393313 0.431149
2517 4 0.369134 0.402805 0.449981
430 2 0.379366 0.345597 0.422205
432 4 0.403797 0.356854 0.42344
709 2 0.428031 0.355596 0.482911
711 4 0.442406 0.378492 0.483598
2171 4 0.457703 0.381769 0.496562
2170 2 0.481739 0.379377 0.492124
1361 4 0.0549503 0.451567 0.419229
2157 4 0.0337929 0.450681 0.421791
2155 2 0.0346346 0.45925 0.445267
2156 4 0.0354762 0.46782 0.468743
3539 4 0.206312 0.418951 0.425857
547 2 0.28195 0.424036 0.423819
548 4 0.258835 0.417619 0.434044
2385 4 0.408083 0.467028 0.498448
2383 2 0.394352 0.484909 0.494973
120 3 0.492194 0.456198 0.422804
1331 4 0.466694 0.469458 0.470017
240 4 0.49674 0.468409 0.492112
1330 2 0.447407 0.471677 0.485243
2604 4 0.0114146 0.0471571 0.568414
2832 4 0.0308417 0.0808357 0.518072
388 2 0.0406846 0.0638905 0.580119
390 4 0.0641756 0.0749494 0.573384
3249 4 0.0713072 0.059181 0.563939
3247 2 0.0932712 0.0602254 0.551677
3248 4 0.115235 0.0612697 0.539415
953 4 0.124897 0.080368 0.541033
3009 4 0.207682 0.0757071 0.573298
4562 4 0.157946 0.0363624 0.53868
4561 2 0.159948 0.0388089 0.513844
3396 4 0.23183 0.0463 0.507315
3394 2 0.254758 0.0427659 0.514779
3395 4 0.277687 0.0392318 0.522244
2964 4 0.277359 0.035626 0.542278
2962 2 0.300636 0.0353533 0.551271
2963 4 0.323912 0.0350806 0.560265
2973 4 0.340573 0.0341623 0.571999
458 4 0.347888 0.0781344 0.506018
4462 2 0.445356 0.0632215 0.561133
4463 4 0.451024 0.0421078 0.570389
1997 4 0.460583 0.0382708 0.554928
1996 2 0.475797 0.0238877 0.564736
1998 4 0.491011 0.00950455 0.574545
98 3 0.000772974 0.140029 0.580253
99 3 0.00863162 0.156009 0.546109
2830 2 0.0437846 0.0983835 0.53307
2831 4 0.0567275 0.115931 0.548067
4580 4 0.0663395 0.135802 0.546878
4579 2 0.0840803 0.130589 0.562599
4581 4 0.101821 0.125377 0.57832
732 4 0.088621 0.152932 0.504047
305 4 0.122372 0.12487 0.581976
952 2 0.148839 0.0853026 0.53257
954 4 0.172781 0.0902371 0.524106
3007 2 0.218146 0.0856473 0.552018
50 3 0.223728 0.12439 0.50395
3008 4 0.22861 0.0955875 0.530738
49 3 0.247172 0.149479 0.524912
48 3 0.24304 0.112319 0.532326
46 1 0.243641 0.128228 0.515609
47 3 0.261336 0.126793 0.501318
2588 4 0.262602 0.107459 0.501393
911 4 0.328211 0.152613 0.581251
1146 4 0.34036 0.10788 0.535504
1144 2 0.35381 0.130832 0.531533
1145 4 0.36726 0.153784 0.527561
605 4 0.341718 0.142491 0.573953
4464 4 0.439687 0.0843351 0.551876
4465 2 0.391066 0.132711 0.580556
4466 4 0.407722 0.153952 0.576714
100 3 0.00901391 0.177505 0.576799
2353 2 0.0216885 0.230568 0.545907
2355 4 0.0440236 0.246437 0.545612
3525 4 0.0279956 0.18652 0.573069
3023 4 0.0609166 0.244488 0.535931
730 2 0.106765 0.167662 0.51719
731 4 0.124909 0.182392 0.530333
3824 4 0.251459 0.167252 0.515072
3823 2 0.259653 0.178034 0.536777
3825 4 0.267848 0.188817 0.558483
1137 4 0.280357 0.204737 0.563714
1135 2 0.301348 0.217571 0.574496
910 2 0.33224 0.170043 0.563339
912 4 0.336269 0.187474 0.545427
3309 4 0.356018 0.195932 0.544775
3307 2 0.367834 0.200082 0.522722
3308 4 0.379651 0.204231 0.500669
1214 4 0.496048 0.241224 0.58075
3022 2 0.0776154 0.265158 0.541835
3024 4 0.0943143 0.285827 0.547738
3264 4 0.202484 0.280385 0.537583
3262 2 0.224357 0.272051 0.539921
3263 4 0.246231 0.263717 0.542258
2035 2 0.260212 0.325813 0.522725
2036 4 0.251353 0.30744 0.506638
3117 4 0.261754 0.254781 0.546658
3115 2 0.279805 0.272305 0.556727
3116 4 0.297856 0.28983 0.566795
1227 4 0.333418 0.319846 0.577942
4421 4 0.350188 0.256604 0.509511
4420 2 0.372997 0.264895 0.519785
4422 4 0.395807 0.273185 0.530059
1143 4 0.409045 0.290638 0.525458
1141 2 0.429711 0.30872 0.524302
1142 4 0.450378 0.326802 0.523146
3323 4 0.46544 0.317646 0.516832
3322 2 0.490068 0.325912 0.511811
2308 2 0.106771 0.370112 0.520682
2310 4 0.126316 0.386655 0.5116
2309 4 0.0872269 0.353568 0.529765
930 4 0.146434 0.387224 0.514062
928 2 0.170261 0.389669 0.522631
929 4 0.194087 0.392115 0.5312
1017 4 0.200104 0.396811 0.550134
1015 2 0.199934 0.406128 0.573256
2037 4 0.269071 0.344186 0.538812
1225 2 0.352211 0.335642 0.566704
1226 4 0.371004 0.351437 0.555466
3122 4 0.39087 0.358996 0.561174
3121 2 0.398621 0.377349 0.577611
3183 4 0.450594 0.406442 0.571981
3181 2 0.472925 0.405934 0.583024
2497 2 0.147655 0.494205 0.568637
2498 4 0.165754 0.485226 0.580978
3497 4 0.305211 0.496968 0.578746
1325 4 0.413192 0.422294 0.538432
2117 4 0.436721 0.468337 0.572982
1332 4 0.428121 0.473896 0.500469
1324 2 0.437248 0.434007 0.535052
1326 4 0.461304 0.44572 0.531672
1908 4 0.456962 0.476695 0.572884
851 4 0.47321 0.44095 0.516233
1906 2 0.481019 0.480664 0.564736
850 2 0.497101 0.436867 0.515988
389 4 0.0171935 0.0528316 0.586854
433 2 0.0308327 0.0209496 0.658465
434 4 0.0485439 0.0122919 0.645216
3400 2 0.0886465 0.0278102 0.65801
3402 4 0.0633596 0.020873 0.656412
3401 4 0.113933 0.0347474 0.659609
2193 4 0.125152 0.0456083 0.64592
2191 2 0.149718 0.0458824 0.641006
2192 4 0.174285 0.0461565 0.636092
1097 4 0.195062 0.049563 0.641338
1096 2 0.22015 0.058228 0.640563
1098 4 0.245238 0.066893 0.639788
3461 4 0.26286 0.0640766 0.650437
2017 2 0.253932 0.00110104 0.618193
2018 4 0.264874 0.0099288 0.639673
3460 2 0.282187 0.0808264 0.659601
2283 4 0.274598 0.0102635 0.656522
2971 2 0.356184 0.0481323 0.58819
2281 2 0.295376 0.0280839 0.658787
2282 4 0.316154 0.0459043 0.661052
2972 4 0.371796 0.0621023 0.604381
878 4 0.383276 0.0806404 0.61014
4079 4 0.415853 0.0109983 0.599704
858 4 0.0858276 0.149766 0.659056
856 2 0.109921 0.151501 0.651477
857 4 0.134015 0.153236 0.643898
304 2 0.146409 0.122943 0.587067
306 4 0.170447 0.121017 0.592158
3366 4 0.188658 0.134585 0.589041
3365 4 0.219508 0.16178 0.62223
3364 2 0.204083 0.148182 0.605635
3104 4 0.212348 0.156005 0.639308
3103 2 0.202158 0.159882 0.661461
1181 4 0.275592 0.134112 0.613517
1180 2 0.293876 0.150007 0.625329
606 4 0.327234 0.0987438 0.59738
604 2 0.334476 0.120618 0.585667
2136 4 0.371724 0.15018 0.63506
2134 2 0.352212 0.162371 0.635358
2091 4 0.370423 0.146778 0.654304
1182 4 0.312161 0.165903 0.637141
4467 4 0.37441 0.111471 0.584397
877 2 0.40513 0.0867809 0.62277
879 4 0.426984 0.0929214 0.635399
3315 4 0.440207 0.0957948 0.650956
1211 4 0.0118691 0.21661 0.625581
1210 2 0.0122831 0.241097 0.622823
3476 4 0.023811 0.213018 0.63955
3475 2 0.0429775 0.214438 0.655862
3523 2 0.0370277 0.201786 0.591898
3524 4 0.0460598 0.217053 0.610726
3327 4 0.0911666 0.199364 0.618175
1185 4 0.145308 0.171637 0.639623
3325 2 0.102599 0.215649 0.635217
3326 4 0.114032 0.231934 0.65226
1183 2 0.158687 0.189907 0.653524
980 4 0.319637 0.23525 0.604467
1136 4 0.322339 0.230405 0.585279
979 2 0.343762 0.236338 0.611669
2135 4 0.332701 0.174562 0.635655
981 4 0.367888 0.237425 0.618871
2015 4 0.38387 0.232888 0.60766
2014 2 0.402082 0.233823 0.624954
2016 4 0.420294 0.234758 0.642248
1213 2 0.499558 0.248777 0.604495
3379 2 0.0108317 0.289972 0.650357
3381 4 0.0193597 0.271349 0.638834
1212 4 0.0126971 0.265584 0.620064
3380 4 0.00230361 0.308595 0.661879
945 4 0.292967 0.318742 0.604567
943 2 0.305119 0.308743 0.622671
944 4 0.31727 0.298744 0.640774
3164 4 0.336241 0.305593 0.644576
3163 2 0.360969 0.306374 0.640058
3165 4 0.385697 0.307154 0.635541
935 4 0.405238 0.312498 0.638589
934 2 0.426696 0.313642 0.625447
936 4 0.448154 0.314786 0.612305
275 4 0.468318 0.320088 0.614743
274 2 0.486636 0.316378 0.598947
1080 4 0.0207502 0.366933 0.616153
1078 2 0.0277911 0.37528 0.639083
1079 4 0.0348319 0.383627 0.662012
1952 4 0.149408 0.376925 0.617841
1951 2 0.1679 0.365966 0.626883
1953 4 0.186392 0.355006 0.635925
2152 2 0.143072 0.401302 0.651945
2154 4 0.142912 0.382799 0.635465
3338 4 0.189988 0.350974 0.655247
1016 4 0.199763 0.415445 0.596377
3123 4 0.406371 0.395702 0.594048
3182 4 0.495255 0.405425 0.594066
1883 4 0.180393 0.499863 0.587961
1138 2 0.187601 0.476432 0.651149
1140 4 0.212573 0.485739 0.650757
1206 4 0.20398 0.417844 0.616198
1139 4 0.162629 0.467125 0.651541
1205 4 0.241797 0.418993 0.649149
1204 2 0.222889 0.418419 0.632673
3496 2 0.286506 0.482635 0.591566
1249 2 0.239608 0.480937 0.62885
3498 4 0.267802 0.468302 0.604386
1250 4 0.250881 0.464822 0.616201
1251 4 0.228335 0.497052 0.641498
3093 4 0.35843 0.478408 0.6431
3091 2 0.368526 0.465808 0.625482
2116 2 0.415421 0.467105 0.586394
3092 4 0.378622 0.453208 0.607863
2118 4 0.394121 0.465873 0.599807
435 4 0.0131214 0.0296073 0.671715
3294 4 0.206918 0.0729068 0.724729
3293 4 0.224553 0.0359059 0.701855
3292 2 0.215736 0.0544064 0.713292
4439 4 0.237181 0.0231175 0.696775
4438 2 0.248164 0.0115741 0.714616
636 4 0.261387 0.0632552 0.737152
634 2 0.285125 0.0688218 0.746086
1074 4 0.252902 0.0801719 0.737155
4440 4 0.259148 3.07146e-05 0.732457
2144 4 0.332888 0.058939 0.665991
4162 2 0.300846 0.0107009 0.741273
4164 4 0.323179 0.0258233 0.745492
2143 2 0.356301 0.0614481 0.675624
1201 2 0.374761 0.0482507 0.747607
2145 4 0.379715 0.0639573 0.685257
1203 4 0.39012 0.0674296 0.736646
1243 2 0.403835 0.0708279 0.704029
1244 4 0.408731 0.0721281 0.728562
1245 4 0.39894 0.0695276 0.679496
779 4 0.00441947 0.107828 0.685172
826 2 0.036066 0.153802 0.73134
828 4 0.0279169 0.133872 0.745796
651 4 0.0760064 0.150638 0.676443
649 2 0.0585148 0.1646 0.681386
1258 2 0.106399 0.130734 0.730654
1259 4 0.113102 0.118677 0.710681
2628 4 0.131343 0.129192 0.706239
1260 4 0.0996961 0.142791 0.750627
2626 2 0.155263 0.138131 0.699064
2627 4 0.179183 0.147069 0.691888
3105 4 0.191967 0.16376 0.683614
1944 4 0.282544 0.138101 0.704505
1942 2 0.302173 0.144099 0.720233
3462 4 0.301515 0.0975763 0.668764
1943 4 0.321802 0.150097 0.73596
844 2 0.350363 0.14934 0.747621
845 4 0.370316 0.138647 0.742377
2089 2 0.378808 0.130341 0.669222
3017 4 0.41232 0.121383 0.748734
3016 2 0.401921 0.119237 0.725914
2090 4 0.387192 0.113903 0.68414
3018 4 0.391521 0.117091 0.703094
3313 2 0.457831 0.0943295 0.66835
3314 4 0.475455 0.0928642 0.685743
3420 4 0.492464 0.0918019 0.696802
3477 4 0.062144 0.215858 0.672174
650 4 0.0410231 0.178561 0.686329
821 4 0.0233202 0.187888 0.683524