ITEM: TIMESTEP
2857500
ITEM: NUMBER OF ATOMS
4590
ITEM: BOX BOUNDS xy xz yz pp pp pp
-9.9985700000000008e+00 9.9985700000000008e+00 0.0000000000000000e+00
-9.9985700000000008e+00 9.9985700000000008e+00 0.0000000000000000e+00
-9.9985700000000008e+00 9.9985700000000008e+00 0.0000000000000000e+00
ITEM: ATOMS id type xs ys zs
658 2 0.447383 0.0231397 0.996523
659 4 0.422602 0.0263701 0.997335
998 4 0.070064 0.154185 0.0199241
4356 4 0.0840726 0.140587 0.0234588
4354 2 0.106584 0.129899 0.0214092
4355 4 0.129095 0.11921 0.0193596
789 4 0.144476 0.111459 0.00860014
2768 4 0.0182638 0.191754 0.998679
674 4 0.131498 0.25558 0.0148356
2805 4 0.140981 0.272754 0.0124731
2803 2 0.146167 0.295493 0.0214872
2804 4 0.151353 0.318232 0.0305013
3217 2 0.103767 0.330912 0.0731631
3219 4 0.123929 0.330089 0.0879281
673 2 0.109261 0.254736 0.00343235
2528 4 0.312573 0.265105 0.0757017
3335 4 0.307582 0.256244 0.0587828
3334 2 0.29511 0.259252 0.0373216
3336 4 0.282637 0.262259 0.0158604
555 4 0.432558 0.286454 0.0633101
3102 4 0.0723643 0.347285 0.0654663
3101 4 0.0328908 0.377946 0.0638824
3100 2 0.0526275 0.362616 0.0646744
3218 4 0.0836058 0.331736 0.0583981
4358 4 0.151242 0.35829 0.0161041
4357 2 0.139436 0.363448 0.994675
1028 4 0.284404 0.37008 0.0821315
1266 4 0.32927 0.35824 0.00323857
1293 4 0.341251 0.345124 0.0106153
1291 2 0.363432 0.356373 0.00803911
4480 2 0.0547378 0.491159 0.067628
4481 4 0.0572876 0.467483 0.0752508
915 4 0.102199 0.444122 0.0573364
913 2 0.1079 0.433112 0.0790491
386 4 0.340021 0.486201 0.00405462
385 2 0.35079 0.469756 0.0195067
387 4 0.361559 0.45331 0.0349588
3663 4 0.379313 0.449426 0.0407172
3661 2 0.402257 0.448861 0.0506399
3662 4 0.4252 0.448296 0.0605627
2475 4 0.43094 0.442078 0.0789888
3624 4 0.0246382 0.0390977 0.10128
1515 4 0.0404988 0.0505424 0.101612
1513 2 0.0649503 0.0477794 0.106051
3622 2 0.00562474 0.0246212 0.108636
3810 4 0.0676957 0.0814043 0.15037
2756 4 0.135237 0.0623521 0.0765678
1514 4 0.0894019 0.0450165 0.11049
2757 4 0.0970436 0.0356203 0.0946626
2755 2 0.11614 0.0489862 0.0856152
4026 4 0.365258 0.998101 0.154264
2454 4 0.0521528 0.0921745 0.147784
2452 2 0.0312356 0.0975505 0.135185
2453 4 0.0103184 0.102927 0.122585
746 4 0.0321023 0.160426 0.150585
52 3 0.218772 0.150066 0.160795
51 1 0.241347 0.145927 0.159259
54 3 0.249495 0.155853 0.139934
53 3 0.244727 0.122986 0.158412
472 2 0.289162 0.146303 0.121703
300 4 0.326352 0.135211 0.10075
473 4 0.265485 0.147789 0.1296
474 4 0.312839 0.144817 0.113806
2512 2 0.335016 0.164829 0.158295
298 2 0.343343 0.152749 0.0953729
294 4 0.371243 0.167743 0.107853
2514 4 0.354545 0.173466 0.145286
2943 4 0.471934 0.159426 0.116046
2941 2 0.488645 0.141299 0.111877
703 2 0.0126816 0.236433 0.0828842
704 4 0.0349131 0.230076 0.0924001
299 4 0.360334 0.170287 0.089996
292 2 0.389599 0.184716 0.108269
293 4 0.407956 0.201689 0.108686
2837 4 0.417511 0.210195 0.123056
2836 2 0.44087 0.218906 0.124969
2708 4 0.471275 0.21534 0.141635
2707 2 0.494798 0.211251 0.149063
2838 4 0.46423 0.227617 0.126883
3014 4 0.121426 0.328881 0.159707
688 2 0.13841 0.324721 0.122541
689 4 0.137129 0.326285 0.147463
2969 4 0.15135 0.28124 0.146355
690 4 0.13969 0.323158 0.0976187
2968 2 0.175428 0.286554 0.142204
2970 4 0.199506 0.291867 0.138053
2527 2 0.30085 0.274845 0.0955237
2529 4 0.289128 0.284585 0.115346
965 4 0.39785 0.307331 0.114799
964 2 0.377121 0.316217 0.125592
554 4 0.398311 0.302284 0.0961325
966 4 0.356391 0.325104 0.136384
2538 4 0.349037 0.344148 0.140616
2536 2 0.339153 0.334801 0.161595
553 2 0.415434 0.294369 0.0797213
1289 4 0.192341 0.392893 0.102735
1288 2 0.207608 0.373095 0.102319
1046 4 0.179232 0.404633 0.110144
1290 4 0.222874 0.353298 0.101904
1029 4 0.242404 0.352558 0.102862
1027 2 0.263404 0.361319 0.0924966
2510 4 0.326069 0.385416 0.103515
2741 4 0.265626 0.397066 0.105352
4276 2 0.326132 0.390036 0.168067
2511 4 0.366989 0.359246 0.0916228
2509 2 0.346529 0.372331 0.0975691
1512 4 0.361278 0.378975 0.149449
1510 2 0.381964 0.386332 0.161414
4278 4 0.349487 0.392491 0.159483
4088 4 0.459253 0.36326 0.100698
4087 2 0.479904 0.376932 0.097262
914 4 0.113601 0.422102 0.100762
1045 2 0.156743 0.413873 0.104311
1047 4 0.134253 0.423113 0.0984785
323 4 0.122376 0.485699 0.142489
957 4 0.155465 0.487101 0.0890133
1802 4 0.248981 0.473118 0.160987
2740 2 0.260938 0.420749 0.111855
2742 4 0.256251 0.444433 0.118358
1803 4 0.26693 0.462177 0.115612
1801 2 0.257956 0.467647 0.138299
2473 2 0.448976 0.445575 0.0959498
2474 4 0.467011 0.449072 0.112911
648 4 0.477833 0.465581 0.113199
4199 4 0.491697 0.475166 0.163929
646 2 0.502123 0.468233 0.107894
3808 2 0.0852898 0.0818897 0.16813
3809 4 0.102884 0.0823751 0.18589
3503 4 0.122988 0.0627186 0.252779
3942 4 0.211926 0.031798 0.169704
3940 2 0.227293 0.0201348 0.185611
3941 4 0.242661 0.00847147 0.201517
250 2 0.217029 0.0815588 0.236021
251 4 0.239517 0.0754168 0.226979
757 2 0.286914 0.0042944 0.193772
758 4 0.310849 0.00208983 0.186882
1481 4 0.318139 0.0157372 0.174594
713 4 0.322745 0.076106 0.22175
712 2 0.333678 0.06508 0.202152
349 2 0.390993 0.00264167 0.198434
1482 4 0.367435 0.00771137 0.172113
1480 2 0.342787 0.0117243 0.173354
714 4 0.34461 0.054054 0.182553
350 4 0.400314 0.0256987 0.195847
2645 4 0.402123 0.0368568 0.212613
2646 4 0.44927 0.0519631 0.219662
2644 2 0.425697 0.0444099 0.216137
1866 4 0.00581472 0.142008 0.205988
745 2 0.0183362 0.158327 0.171352
1864 2 0.0178387 0.137785 0.2275
1865 4 0.0298628 0.133563 0.249012
747 4 0.00457008 0.156229 0.19212
3485 4 0.122539 0.0860824 0.185847
3486 4 0.141654 0.130284 0.199324
3484 2 0.132097 0.108183 0.192585
3510 4 0.15939 0.137254 0.19332
3509 4 0.20042 0.150706 0.168092
3508 2 0.179905 0.14398 0.180706
1475 4 0.234295 0.154416 0.232045
1355 4 0.254889 0.15662 0.196685
252 4 0.194542 0.0877008 0.245063
2534 4 0.302914 0.0688297 0.224135
2533 2 0.279434 0.0774189 0.224452
55 3 0.251832 0.154657 0.177494
2535 4 0.255954 0.0860081 0.22477
2513 4 0.315487 0.156193 0.171304
530 4 0.0714683 0.239056 0.207234
2961 4 0.233248 0.204977 0.199449
2960 4 0.20644 0.247189 0.199857
2959 2 0.219844 0.226083 0.199653
1356 4 0.245361 0.201735 0.216042
1354 2 0.250125 0.179177 0.206364
3284 4 0.186847 0.249693 0.200546
1219 2 0.305604 0.236801 0.215748
1221 4 0.293521 0.215825 0.22201
3455 4 0.370704 0.209287 0.22542
3454 2 0.393785 0.203986 0.217399
2798 4 0.35456 0.208913 0.237878
3456 4 0.416866 0.198685 0.209379
3897 4 0.43478 0.196953 0.218764
3895 2 0.458243 0.190896 0.224929
3896 4 0.481706 0.184839 0.231093
1104 4 0.00455609 0.318088 0.217287
529 2 0.0758279 0.260653 0.195414
531 4 0.0801875 0.282251 0.183594
3013 2 0.101877 0.315804 0.168193
3015 4 0.0823277 0.302727 0.176679
3285 4 0.18388 0.299174 0.207143
666 4 0.191033 0.295755 0.225653
3283 2 0.185364 0.274433 0.203845
664 2 0.189262 0.307327 0.247746
2841 4 0.255825 0.255916 0.215481
1220 4 0.317686 0.257777 0.209486
597 4 0.284071 0.301296 0.173725
2839 2 0.25452 0.246501 0.238608
596 4 0.261502 0.263744 0.197836
595 2 0.272787 0.28252 0.18578
3222 4 0.329708 0.274983 0.215374
3220 2 0.332418 0.298767 0.208152
3221 4 0.335129 0.322551 0.200929
736 2 0.473218 0.271373 0.219691
737 4 0.458122 0.272348 0.239601
738 4 0.488313 0.270397 0.199782
4511 4 0.469697 0.322541 0.198658
237 4 0.490597 0.28679 0.18874
1103 4 0.00818412 0.355564 0.184376
1102 2 0.0063701 0.336826 0.200831
4277 4 0.302776 0.387582 0.176652
3059 4 0.282101 0.407945 0.231474
3058 2 0.288027 0.406679 0.207215
3060 4 0.293954 0.405413 0.182957
270 4 0.277787 0.392429 0.245174
2537 4 0.32927 0.325454 0.182574
1511 4 0.40265 0.393688 0.173379
3905 4 0.410677 0.398935 0.191321
3904 2 0.418502 0.380706 0.206541
3906 4 0.426328 0.362477 0.22176
4510 2 0.448651 0.335402 0.202766
4512 4 0.427604 0.348262 0.206875
1862 4 0.990842 0.440215 0.240958
1861 2 0.00882684 0.427515 0.252808
855 4 0.22446 0.464562 0.209547
2657 4 0.173867 0.48584 0.23353
2656 2 0.190877 0.470156 0.22405
2658 4 0.207887 0.454472 0.214569
853 2 0.239978 0.473709 0.192206
854 4 0.255496 0.482856 0.174865
4198 2 0.471306 0.483336 0.175871
4200 4 0.450915 0.491505 0.187814
3504 4 0.0744664 0.074798 0.252081
733 2 0.0458691 0.0197838 0.299112
734 4 0.0208845 0.0207321 0.299325
1622 4 0.011456 0.033044 0.311909
735 4 0.0708538 0.0188354 0.298898
2892 4 0.143357 0.0652684 0.257863
3502 2 0.0987273 0.0687583 0.25243
2890 2 0.167055 0.0726841 0.260797
2552 4 0.0879545 0.00984583 0.307105
2553 4 0.130123 0.0355967 0.299396
2551 2 0.109039 0.0227213 0.303251
2261 4 0.150177 0.0305932 0.297815
2260 2 0.173427 0.0215869 0.295936
2262 4 0.196678 0.0125806 0.294057
2127 4 0.211404 0.0249171 0.285607
2125 2 0.236349 0.0247524 0.287316
2891 4 0.190753 0.0800998 0.263732
2126 4 0.261294 0.0245877 0.289026
1676 4 0.2682 0.038299 0.302475
1675 2 0.278901 0.0446637 0.324159
43 3 0.424104 0.0641974 0.330539
41 1 0.430029 0.0837821 0.319595
1516 2 0.482469 0.0834 0.285833
1517 4 0.46535 0.0798635 0.303711
44 3 0.445045 0.0790936 0.302538
1649 4 0.068688 0.0886422 0.264588
1648 2 0.0519114 0.107132 0.26595
1650 4 0.0351348 0.125622 0.267312
517 2 0.127785 0.104529 0.305532
518 4 0.103713 0.104852 0.31229
519 4 0.151856 0.104205 0.298775
512 4 0.107876 0.116505 0.326996
1474 2 0.224945 0.140125 0.250308
3063 4 0.166566 0.104854 0.313939
1476 4 0.215594 0.125834 0.268571
3062 4 0.205271 0.118805 0.285513
3061 2 0.185919 0.111829 0.299726
42 3 0.411132 0.0932163 0.310482
578 4 0.399508 0.0869346 0.325687
2678 4 0.485126 0.103592 0.315883
1518 4 0.499587 0.0869364 0.267955
45 3 0.439349 0.0984143 0.334349
3353 4 0.127141 0.197106 0.307973
3352 2 0.141896 0.176922 0.308281
3354 4 0.15665 0.156739 0.30859
1800 4 0.248309 0.218042 0.267229
1798 2 0.2627 0.223775 0.286856
1383 4 0.270218 0.225684 0.324728
1799 4 0.277092 0.229507 0.306483
2799 4 0.318518 0.208505 0.272542
2840 4 0.253215 0.237086 0.261734
2797 2 0.336539 0.208709 0.25521
935 4 0.358909 0.183681 0.333221
452 4 0.464497 0.21641 0.286058
451 2 0.451358 0.23691 0.291742
3588 4 0.162175 0.295524 0.32686
3586 2 0.167354 0.30607 0.304788
3587 4 0.172533 0.316616 0.282717
665 4 0.187491 0.318899 0.26984
3543 4 0.356733 0.258519 0.280037
3541 2 0.370052 0.277044 0.26981
3542 4 0.383372 0.295569 0.259584
110 3 0.38884 0.315166 0.261914
106 1 0.403239 0.326641 0.275318
107 3 0.412062 0.3123 0.290991
453 4 0.43822 0.257411 0.297426
109 3 0.42055 0.335456 0.262628
3626 4 0.475855 0.307482 0.268905
3627 4 0.450518 0.271666 0.292908
3625 2 0.463186 0.289574 0.280906
2490 4 0.489925 0.317008 0.257645
2601 4 0.00360316 0.330658 0.286664
2600 4 0.0371987 0.367671 0.285199
2599 2 0.0204009 0.349165 0.285931
2691 4 0.0544925 0.377073 0.290924
2689 2 0.0774572 0.384922 0.29694
2690 4 0.100422 0.392772 0.302956
268 2 0.267416 0.369979 0.248862
269 4 0.257045 0.347528 0.252551
3021 4 0.334066 0.401753 0.316842
2580 4 0.351586 0.342515 0.299036
108 3 0.391962 0.343706 0.286273
2579 4 0.327842 0.386101 0.305134
2578 2 0.339714 0.364308 0.302085
416 4 0.405511 0.357231 0.293385
415 2 0.402864 0.373136 0.312495
417 4 0.400217 0.389042 0.331605
1757 4 0.486449 0.360993 0.25417
1756 2 0.493953 0.383889 0.260854
1863 4 0.0268112 0.414815 0.264659
1829 4 0.084106 0.485388 0.330102
3019 2 0.314727 0.415967 0.309836
3020 4 0.295387 0.430182 0.302829
3704 4 0.279171 0.481695 0.267202
3703 2 0.280996 0.459265 0.2781
3705 4 0.282821 0.436836 0.288998
1621 2 0.00728628 0.0352838 0.336461
1623 4 0.0031166 0.0375236 0.361012
2238 4 0.0282384 0.0918314 0.393169
1182 4 0.023992 0.0904928 0.414091
1677 4 0.289603 0.0510283 0.345842
1695 4 0.297206 0.0693276 0.350475
1693 2 0.31871 0.0817411 0.347533
4262 4 0.372682 0.0211518 0.338983
2237 4 0.0584107 0.118851 0.363839
2236 2 0.0433245 0.105341 0.378504
894 4 0.0650902 0.149576 0.404596
527 4 0.0494869 0.153254 0.392211
526 2 0.0352484 0.159661 0.41174
513 4 0.0727856 0.106528 0.361199
511 2 0.0903309 0.111517 0.344098
892 2 0.0868768 0.139408 0.39773
893 4 0.108663 0.12924 0.390864
722 4 0.122564 0.139143 0.381198
721 2 0.144435 0.151119 0.383046
723 4 0.166306 0.163095 0.384894
3327 4 0.178174 0.167878 0.400317
3325 2 0.19001 0.152291 0.415878
248 4 0.235717 0.129014 0.403401
247 2 0.256121 0.129073 0.38895
249 4 0.276525 0.129132 0.374499
695 4 0.289107 0.12948 0.389531
694 2 0.307532 0.137483 0.374642
696 4 0.325957 0.145485 0.359754
936 4 0.344702 0.139986 0.352959
1694 4 0.340214 0.0941546 0.344592
579 4 0.35874 0.0987116 0.352145
577 2 0.379124 0.0928231 0.338916
934 2 0.351806 0.161834 0.34309
2677 2 0.496232 0.109549 0.337479
2675 4 0.435387 0.100404 0.35326
2674 2 0.436436 0.125377 0.353947
2676 4 0.437486 0.150349 0.354633
2814 4 0.456156 0.155389 0.362216
1782 4 0.00549641 0.185522 0.351308
306 4 0.00759457 0.202212 0.339239
304 2 0.028442 0.212028 0.348946
305 4 0.0492895 0.221844 0.358653
2132 4 0.0667484 0.227152 0.349154
2131 2 0.0829187 0.208931 0.354788
2133 4 0.0990891 0.190711 0.360421
1698 4 0.171615 0.219097 0.363938
1696 2 0.177594 0.243005 0.368161
4467 4 0.292864 0.218119 0.403623
1381 2 0.270162 0.246404 0.338725
428 4 0.371394 0.197785 0.342146
427 2 0.395592 0.199306 0.348255
429 4 0.419791 0.200827 0.354363
2812 2 0.447204 0.178735 0.362234
2813 4 0.438251 0.202081 0.362252
3065 4 0.432589 0.257112 0.369756
1601 4 0.201924 0.316288 0.345878
1602 4 0.195686 0.267429 0.354515
1600 2 0.198805 0.291858 0.350196
1697 4 0.183573 0.266914 0.372384
1382 4 0.270107 0.267123 0.352722
3323 4 0.286063 0.270236 0.362058
3322 2 0.310612 0.274938 0.362722
3324 4 0.335161 0.279639 0.363385
4268 4 0.375358 0.301953 0.361954
4267 2 0.371245 0.313561 0.383715
4269 4 0.367132 0.32517 0.405475
1446 4 0.385928 0.298808 0.345077
3064 2 0.455805 0.258125 0.378987
3066 4 0.47902 0.259138 0.388218
3473 4 0.494282 0.271433 0.38537
1445 4 0.431239 0.317754 0.335658
1444 2 0.408584 0.308281 0.340367
447 4 0.999183 0.389125 0.374727
2457 4 0.370856 0.343825 0.402146
948 4 0.408148 0.393433 0.368203
438 4 0.492796 0.369972 0.383699
946 2 0.432063 0.392358 0.375421
947 4 0.455979 0.391283 0.382639
1908 4 0.461794 0.388565 0.401737
1632 4 0.0412599 0.489087 0.37891
1828 2 0.0714299 0.484151 0.351619
1830 4 0.0587538 0.482913 0.373136
3754 2 0.483647 0.479462 0.396567
3755 4 0.462609 0.471026 0.386012
1816 2 0.15253 0.0666877 0.475707
1817 4 0.132332 0.068117 0.490376
1818 4 0.172729 0.0652584 0.461038
1998 4 0.18251 0.0562434 0.446384
1996 2 0.207183 0.052519 0.44478
1997 4 0.231855 0.0487947 0.443175
3774 4 0.241098 0.0606871 0.457315
516 4 0.222121 0.0903081 0.469315
3772 2 0.262049 0.0534493 0.468885
2176 2 0.306855 0.0751505 0.493052
3773 4 0.283 0.0462115 0.480454
2178 4 0.285319 0.0625535 0.491412
3646 2 0.399629 0.00371815 0.484826
3648 4 0.424096 0.0033473 0.489968
2503 2 0.455842 0.0110031 0.484301
2504 4 0.476794 0.00440196 0.472361
2505 4 0.434889 0.0176042 0.496241
3276 4 0.0286094 0.15822 0.448061
3524 4 0.0809027 0.139721 0.4829
575 4 0.0981145 0.128436 0.48703
574 2 0.117057 0.125926 0.470905
651 4 0.147069 0.109933 0.465808
576 4 0.136 0.123415 0.454779
649 2 0.167872 0.117436 0.454141
650 4 0.188676 0.12494 0.442474
827 4 0.228054 0.10409 0.457041
3326 4 0.201847 0.136703 0.431438
826 2 0.22731 0.107302 0.432256
828 4 0.226566 0.110514 0.407471
514 2 0.232425 0.0949286 0.491624
1850 4 0.346375 0.0954706 0.48633
1849 2 0.345662 0.11195 0.467537
1851 4 0.344949 0.128428 0.448745
3236 4 0.347549 0.141406 0.432851
3235 2 0.372085 0.146077 0.434003
3237 4 0.396621 0.150747 0.435155
4001 4 0.99755 0.202958 0.487268
528 4 0.0210099 0.166068 0.43127
3275 4 0.013942 0.196681 0.476459
3274 2 0.0212757 0.177451 0.46226
502 2 0.171429 0.236425 0.500029
2811 4 0.247728 0.223751 0.495122
4465 2 0.291416 0.231277 0.424834
4466 4 0.289968 0.244435 0.446046
2810 4 0.273929 0.239645 0.455604
2809 2 0.260828 0.231698 0.475363
365 4 0.393908 0.170101 0.435177
364 2 0.405982 0.191927 0.436926
366 4 0.418056 0.213752 0.438675
383 4 0.411733 0.229565 0.448921
382 2 0.426437 0.233346 0.468788
3708 4 0.0302029 0.276543 0.412747
3706 2 0.0056418 0.276931 0.417416
504 4 0.161233 0.254918 0.486642
1142 4 0.148357 0.334228 0.461605
1821 4 0.154533 0.317509 0.451175
1819 2 0.175259 0.304511 0.456342
1820 4 0.195985 0.291513 0.461508
2105 4 0.201549 0.288614 0.481042
2104 2 0.19758 0.29008 0.505686
384 4 0.441141 0.237128 0.488655
570 4 0.0688939 0.343641 0.504179
1141 2 0.148255 0.356035 0.449372
1143 4 0.148153 0.377842 0.437139
4432 2 0.0855675 0.379962 0.494217
4434 4 0.104019 0.396165 0.48951
2344 2 0.283366 0.415701 0.489073
2456 4 0.380138 0.364416 0.446761
2353 2 0.403306 0.375835 0.478919
2455 2 0.375497 0.35412 0.424454
2355 4 0.394596 0.363894 0.458751
1907 4 0.48776 0.396075 0.443809
981 4 0.501393 0.351482 0.44956
980 4 0.495007 0.361794 0.498074
1906 2 0.474777 0.39232 0.422773
979 2 0.4982 0.356638 0.473817
1811 4 0.491088 0.409275 0.457535
4427 4 0.996036 0.456614 0.491802
2346 4 0.28089 0.431901 0.470189
432 4 0.295421 0.444846 0.464365
430 2 0.303123 0.441917 0.440757
431 4 0.310825 0.438988 0.41715
1947 4 0.410403 0.488319 0.491227
3358 2 0.0361747 0.0192716 0.548369
3360 4 0.0136362 0.0201016 0.537575
3359 4 0.0587133 0.0184415 0.559163
2276 4 0.0751037 0.0191021 0.57179
2765 4 0.136211 0.0750311 0.507795
4371 4 0.208084 0.0545045 0.589378
2177 4 0.328392 0.0877474 0.494691
4180 2 0.370569 0.0518336 0.558378
2982 4 0.402249 0.0532193 0.530683
4181 4 0.383744 0.0528222 0.537149
4182 4 0.357395 0.050845 0.579607
2980 2 0.425577 0.0576986 0.538487
2981 4 0.448905 0.062178 0.546292
3489 4 0.457989 0.0793139 0.550309
1150 2 0.0212661 0.1262 0.549586
1152 4 0.0417203 0.137973 0.541326
3525 4 0.0542008 0.142588 0.525085
3523 2 0.0675518 0.141154 0.503993
1151 4 0.000811869 0.114428 0.557845
2764 2 0.144291 0.092014 0.524271
2766 4 0.152371 0.108997 0.540747
515 4 0.242728 0.0995491 0.513932
2589 4 0.249879 0.117246 0.520291
2587 2 0.268222 0.113345 0.536829
2588 4 0.286565 0.109445 0.553367
3084 4 0.299893 0.101776 0.567256
2232 4 0.279415 0.168051 0.552232
2230 2 0.278164 0.158502 0.575307
1269 4 0.352096 0.136724 0.557497
467 4 0.357076 0.150022 0.543683
466 2 0.347423 0.167255 0.528352
1267 2 0.36672 0.129158 0.576314
3487 2 0.471522 0.0914802 0.533161
3488 4 0.485055 0.103646 0.516014
2832 4 0.479896 0.168121 0.593347
1146 4 0.0351061 0.237362 0.529255
4002 4 0.0222883 0.222263 0.526205
1144 2 0.0528996 0.223401 0.539918
1145 4 0.0706931 0.20944 0.55058
4000 2 0.00991903 0.21261 0.506737
4581 4 0.0904673 0.210213 0.547603
4579 2 0.111902 0.222828 0.550176
4580 4 0.133336 0.235443 0.55275
4346 4 0.134943 0.231967 0.57256
3463 2 0.202464 0.189058 0.532858
3465 4 0.222029 0.176623 0.542228
732 4 0.234593 0.190316 0.532965
3464 4 0.182899 0.201492 0.523488
4420 2 0.244473 0.239548 0.578099
503 4 0.181625 0.217931 0.513416
374 4 0.283988 0.188343 0.499656
730 2 0.258603 0.18918 0.52608
731 4 0.282614 0.188044 0.519195
3132 4 0.325332 0.245256 0.538928
373 2 0.308306 0.194135 0.500176
375 4 0.332625 0.199927 0.500696
468 4 0.33777 0.184488 0.513022
569 4 0.0370919 0.306772 0.515584
614 4 0.0213112 0.318606 0.518474
568 2 0.0529929 0.325207 0.509882
4421 4 0.252244 0.25731 0.56231
2106 4 0.193611 0.291545 0.530329
3141 4 0.237082 0.274536 0.561532
3159 4 0.208286 0.28351 0.571998
3139 2 0.257386 0.288473 0.55721
3130 2 0.321186 0.247297 0.514355
3131 4 0.31704 0.249339 0.489782
3140 4 0.27769 0.302411 0.552888
1251 4 0.285584 0.29457 0.569291
1249 2 0.310118 0.299008 0.57118
1250 4 0.334652 0.303446 0.573069
3424 2 0.370858 0.326598 0.568658
3426 4 0.34717 0.318734 0.570147
4433 4 0.0671162 0.363758 0.498925
1360 2 0.303674 0.382622 0.544461
1361 4 0.314418 0.375556 0.565905
3120 4 0.330857 0.382694 0.561239
1362 4 0.292931 0.389687 0.523017
2345 4 0.285843 0.399502 0.507958
3425 4 0.394547 0.334461 0.567168
929 4 0.404126 0.337641 0.548551
928 2 0.40952 0.355594 0.532003
3118 2 0.349933 0.385563 0.577147
2354 4 0.412017 0.387775 0.499087
930 4 0.414914 0.373546 0.515455
2376 4 0.462631 0.345087 0.54459
2374 2 0.481037 0.355272 0.531073
2375 4 0.499442 0.365456 0.517557
2927 4 0.00997771 0.46638 0.567406
2926 2 0.000980452 0.445455 0.557091
4426 2 0.994086 0.4781 0.50444
1945 2 0.418697 0.495054 0.513834
2275 2 0.0851204 0.0299915 0.591946
4239 4 0.157077 0.0648555 0.608846
2277 4 0.0951371 0.040881 0.612102
4238 4 0.109598 0.0525351 0.618581
4237 2 0.133338 0.0586953 0.613713
4370 4 0.158127 0.0561616 0.590885
4369 2 0.183106 0.055333 0.590132
2604 4 0.21772 0.0695623 0.598234
2602 2 0.242137 0.0683431 0.603479
2603 4 0.266555 0.0671238 0.608724
3083 4 0.27642 0.0820661 0.606768
3868 2 0.348398 0.0210004 0.648707
3869 4 0.365948 0.0379947 0.654036
4163 4 0.379757 0.0517091 0.651365
3870 4 0.330848 0.00400614 0.643377
2193 4 0.0797077 0.0922673 0.656399
1990 2 0.0572928 0.119159 0.631535
1991 4 0.0430762 0.129319 0.613651
1992 4 0.0715095 0.108999 0.64942
3082 2 0.288156 0.0919211 0.587012
3264 4 0.283983 0.159155 0.613583
2231 4 0.276913 0.148954 0.598382
1268 4 0.381344 0.121592 0.595131
3196 2 0.495498 0.130529 0.651498
938 4 0.460776 0.146797 0.653267
3198 4 0.480381 0.149776 0.646376
4345 2 0.144611 0.23923 0.594445
4422 4 0.236702 0.221785 0.593889
3262 2 0.284896 0.17407 0.63363
2152 2 0.271819 0.224125 0.662282
3263 4 0.285809 0.188985 0.653677
2154 4 0.282712 0.202387 0.668111
2153 4 0.260925 0.245864 0.656453
1192 2 0.413583 0.246822 0.65842
1194 4 0.399438 0.230052 0.670414
4347 4 0.154279 0.246494 0.616331
3157 2 0.199315 0.303948 0.583267
3158 4 0.190344 0.324386 0.594536
1079 4 0.334595 0.318882 0.6265
3026 4 0.354311 0.31581 0.625173
3025 2 0.364897 0.302689 0.643638
3364 2 0.466773 0.252272 0.641285
3366 4 0.491406 0.255297 0.638248
3365 4 0.442139 0.249246 0.644321
1193 4 0.427729 0.263592 0.646425
902 4 0.0325554 0.376397 0.610154
1325 4 0.0395278 0.394886 0.613905
1324 2 0.0557615 0.403231 0.630993
901 2 0.00796201 0.37922 0.606634
2310 4 0.090527 0.408518 0.640719
1078 2 0.32236 0.340677 0.625801
1080 4 0.310125 0.362471 0.625102
2414 4 0.311957 0.381904 0.623248
2413 2 0.326097 0.399373 0.634206
3119 4 0.36901 0.388432 0.593054
2415 4 0.340237 0.416842 0.645163
2015 4 0.380665 0.374563 0.597374
2014 2 0.403298 0.384517 0.601098
2016 4 0.42593 0.394471 0.604822
1178 4 0.419032 0.412234 0.607817
1569 4 0.0600426 0.497663 0.588641
1326 4 0.0719953 0.411575 0.648081
2308 2 0.109122 0.420441 0.652434
2309 4 0.127717 0.432365 0.664148
2217 4 0.243042 0.498006 0.598034
3087 4 0.298896 0.491213 0.643206
3085 2 0.27586 0.499175 0.637626
4536 4 0.256895 0.500305 0.58445
1136 4 0.348571 0.433023 0.636527
1135 2 0.371125 0.443672 0.634756
1137 4 0.393678 0.454321 0.632984
3056 4 0.388692 0.473847 0.638027
3055 2 0.407805 0.489375 0.642362
1177 2 0.440316 0.422513 0.615976
1179 4 0.461599 0.432792 0.624134
3057 4 0.426918 0.504903 0.646696
3282 4 0.200093 0.0611789 0.721501
3280 2 0.182544 0.0711353 0.736269
99 3 0.219225 0.0560317 0.725949
96 1 0.238104 0.0581255 0.712622
98 3 0.231872 0.0611491 0.690476
97 3 0.250551 0.0388518 0.714279
100 3 0.250653 0.0757858 0.719644
4162 2 0.377735 0.0609112 0.674526
634 2 0.390181 0.0756444 0.728938
635 4 0.395375 0.0653438 0.751122
4164 4 0.375714 0.0701134 0.697686
3116 4 0.0677195 0.153995 0.695684
1943 4 0.00607627 0.138706 0.74174
442 2 0.104128 0.0850496 0.727306
443 4 0.117468 0.0788388 0.70709
2192 4 0.118765 0.0858687 0.686965
2191 2 0.0992363 0.089068 0.671682
3115 2 0.0879101 0.157436 0.710026
3117 4 0.108101 0.160877 0.724368
1185 4 0.26513 0.076103 0.706129
1183 2 0.277344 0.0971557 0.700403
1184 4 0.289559 0.118208 0.694676
459 4 0.310608 0.119032 0.695433
457 2 0.310269 0.143684 0.699597
636 4 0.384987 0.0859451 0.706755
937 2 0.447523 0.153838 0.673266
3143 4 0.0203733 0.213857 0.71537
3142 2 0.0302675 0.22054 0.737339
2907 4 0.0102061 0.209099 0.698662
458 4 0.30993 0.168337 0.703762
3095 4 0.386903 0.214747 0.675554
3096 4 0.406117 0.210378 0.721517
3094 2 0.39651 0.212562 0.698535
939 4 0.43427 0.16088 0.693265
821 4 0.49982 0.180842 0.732026
1903 2 0.183272 0.329644 0.744541
290 4 0.201843 0.319593 0.698406
289 2 0.224578 0.328575 0.703664
2035 2 0.32969 0.315083 0.691766
2037 4 0.306157 0.32097 0.685706
2036 4 0.353224 0.309196 0.697826
3027 4 0.375482 0.289568 0.662103
1165 2 0.993298 0.388502 0.700646
1166 4 0.0178508 0.3901 0.696197
1207 2 0.070739 0.346974 0.736176
888 4 0.0344128 0.402555 0.695148
1208 4 0.0824559 0.338513 0.715772
896 4 0.150743 0.33773 0.721054
897 4 0.102102 0.334881 0.709798
895 2 0.126422 0.336306 0.715426
1905 4 0.165107 0.327118 0.727546
291 4 0.247313 0.337558 0.708922
4307 4 0.280748 0.377601 0.685096
2984 4 0.32989 0.347885 0.722025
4308 4 0.243451 0.357609 0.711741
4306 2 0.2621 0.367605 0.698419
3207 4 0.310257 0.346476 0.728507
3153 4 0.271868 0.402536 0.721336
3205 2 0.292801 0.340464 0.74537
2858 4 0.336811 0.419571 0.717964
2983 2 0.350275 0.357275 0.733048
2985 4 0.370659 0.366666 0.74407
1191 4 0.439016 0.383828 0.754361
886 2 0.0495411 0.417855 0.707885
887 4 0.0646694 0.433156 0.720622
3449 4 0.0697563 0.452626 0.721607
3642 4 0.145125 0.440873 0.669723
3448 2 0.0941054 0.458001 0.719764
3640 2 0.141901 0.448604 0.693282
3450 4 0.118455 0.463376 0.717921
3641 4 0.138677 0.456335 0.716842
1918 2 0.322784 0.479934 0.667857
3151 2 0.294651 0.412297 0.718039
3152 4 0.317433 0.422059 0.714742
1122 4 0.319514 0.459241 0.746336
1120 2 0.296497 0.468802 0.748335
3297 4 0.256495 0.476276 0.739321
1919 4 0.308358 0.498057 0.658443
1920 4 0.33721 0.46181 0.67727
2857 2 0.342072 0.431331 0.696534
2859 4 0.347333 0.443091 0.675105
2183 4 0.0744571 0.997827 0.760073
3281 4 0.164995 0.0810918 0.751037
3408 4 0.129862 0.991174 0.796468
844 2 0.225027 0.0578151 0.770661
846 4 0.225877 0.0330548 0.774035
845 4 0.224176 0.0825754 0.767288
2979 4 0.237331 0.080456 0.831141
448 2 0.407963 0.00884787 0.812829
2091 4 0.414878 0.0673353 0.756159
2089 2 0.409273 0.0535206 0.776232
2090 4 0.403668 0.0397059 0.796304
450 4 0.419621 0.0282745 0.802251
1942 2 0.0248996 0.128277 0.754473
1944 4 0.0437229 0.117847 0.767205
2987 4 0.0392011 0.0985119 0.766857
2986 2 0.0614542 0.0876078 0.763524
3410 4 0.0227286 0.167893 0.795319
3409 2 0.00542857 0.151348 0.802539
1256 4 0.162532 0.0972594 0.761726
2988 4 0.0837073 0.0767037 0.760192
444 4 0.0907892 0.0912604 0.747522
1255 2 0.169788 0.120811 0.765951
1257 4 0.177043 0.144363 0.770175
2198 4 0.195026 0.148272 0.763048
2977 2 0.260248 0.0893628 0.826591
2978 4 0.283164 0.0982696 0.822041
3144 4 0.0401616 0.227224 0.759308
1229 4 0.0419353 0.173454 0.797536
1228 2 0.046139 0.193962 0.783864
1230 4 0.0503427 0.214471 0.770192
3385 2 0.0962456 0.218731 0.821428
3386 4 0.114878 0.222645 0.80522
2796 4 0.125078 0.236371 0.793908
2197 2 0.204691 0.171137 0.760055
2199 4 0.214356 0.194002 0.757062
2048 4 0.225756 0.211533 0.763787
2047 2 0.248335 0.222269 0.764164
3104 4 0.286357 0.244798 0.757852
2049 4 0.270913 0.233005 0.764541
3103 2 0.303067 0.228512 0.766838
3105 4 0.319778 0.212227 0.775823
3380 4 0.337252 0.206801 0.76971
3381 4 0.379556 0.228413 0.754089
3379 2 0.358404 0.217607 0.761899
2794 2 0.130088 0.260516 0.798048
2795 4 0.135097 0.284662 0.802187
275 4 0.14834 0.29853 0.807598
274 2 0.142807 0.322795 0.805193
1904 4 0.201438 0.332169 0.761535
2760 4 0.196102 0.257788 0.815715
1010 4 0.179096 0.262713 0.804874
1009 2 0.19425 0.26491 0.785108
1011 4 0.209403 0.267106 0.765341
1281 4 0.226184 0.276068 0.761853
1279 2 0.250692 0.281017 0.762039
1280 4 0.275201 0.285966 0.762224
4091 4 0.283325 0.286236 0.779502
4090 2 0.305437 0.297884 0.780228
4092 4 0.32755 0.309533 0.780955
1613 4 0.343049 0.307571 0.795418
1612 2 0.361124 0.324736 0.793457
1209 4 0.0590222 0.355434 0.75658
951 4 0.0437357 0.367951 0.76003
949 2 0.0206241 0.375725 0.765564
950 4 0.997512 0.383499 0.771098
276 4 0.137273 0.347059 0.802788
2065 2 0.111545 0.372622 0.809847
2067 4 0.11676 0.350047 0.800447
2066 4 0.10633 0.395196 0.819248
3337 2 0.223983 0.36402 0.778178
3338 4 0.21042 0.343153 0.77576
3339 4 0.237546 0.384886 0.780596
3206 4 0.275345 0.334452 0.762233
1065 4 0.277679 0.417569 0.804524
1063 2 0.280772 0.401504 0.823432
4519 2 0.406455 0.362397 0.754934
4521 4 0.38199 0.360022 0.759516
884 4 0.355155 0.4159 0.769079
1614 4 0.379198 0.341901 0.791495
3170 4 0.346398 0.398523 0.776053
3169 2 0.361307 0.380122 0.784071
3171 4 0.376216 0.36172 0.792088
4520 4 0.430921 0.364772 0.750351
1190 4 0.486616 0.399145 0.753801
1189 2 0.462816 0.391487 0.754081
3165 4 0.495856 0.386875 0.766412
1214 4 0.193982 0.426432 0.809374
3295 2 0.238556 0.467893 0.754588
1213 2 0.20314 0.434182 0.787436
3296 4 0.220617 0.459509 0.769856
1215 4 0.212298 0.441932 0.765499
1121 4 0.273481 0.478364 0.750333
885 4 0.31993 0.43982 0.742854
883 2 0.337542 0.42786 0.755966
4134 4 0.416413 0.503004 0.767557
3018 4 0.00939547 0.0357248 0.916599
3016 2 0.0104025 0.0107512 0.915896
2564 4 0.227462 0.0175749 0.844517
1895 4 0.21677 0.012291 0.859736
87 3 0.211632 0.0266817 0.87311
86 1 0.225596 0.0370642 0.888155
88 3 0.219068 0.0592178 0.890395
2423 4 0.225993 0.0784826 0.847387
89 3 0.223979 0.0262234 0.908607
90 3 0.24701 0.0360113 0.880475
2422 2 0.208227 0.0894326 0.861158
258 4 0.297524 0.0124546 0.913534
2565 4 0.274829 0.00233613 0.849503
2563 2 0.251145 0.00995551 0.84701
1005 4 0.36104 0.041826 0.9239
1004 4 0.347679 0.014916 0.883924
1003 2 0.35436 0.028371 0.903912
2522 4 0.426529 0.0122908 0.864144
1840 2 0.470527 0.0673962 0.906548
1842 4 0.453186 0.0657425 0.888611
2523 4 0.439542 0.059359 0.874914
2521 2 0.433036 0.0358249 0.869529
1841 4 0.487869 0.0690498 0.924484
3355 2 0.139497 0.150407 0.852146
3357 4 0.129337 0.131803 0.865407
657 4 0.141414 0.127858 0.881204
655 2 0.15954 0.111089 0.885129
656 4 0.177666 0.0943199 0.889055
2424 4 0.190462 0.100383 0.87493
2598 4 0.293956 0.098406 0.83941
2596 2 0.300723 0.114665 0.857159
2597 4 0.307489 0.130924 0.874908
3138 4 0.323267 0.125355 0.903951
3361 2 0.40565 0.115529 0.905908
3137 4 0.366807 0.100826 0.902108
3136 2 0.345037 0.11309 0.90303
1305 4 0.494095 0.0988667 0.876188
3363 4 0.428706 0.123913 0.90108
3479 4 0.0277919 0.216277 0.864485