ITEM: TIMESTEP
2047500
ITEM: NUMBER OF ATOMS
4590
ITEM: BOX BOUNDS xy xz yz pp pp pp
-9.9985700000000008e+00 9.9985700000000008e+00 0.0000000000000000e+00
-9.9985700000000008e+00 9.9985700000000008e+00 0.0000000000000000e+00
-9.9985700000000008e+00 9.9985700000000008e+00 0.0000000000000000e+00
ITEM: ATOMS id type xs ys zs
67 3 0.0324584 0.0621511 0.00949486
1110 4 0.0505209 0.0524025 0.00446748
1108 2 0.0503268 0.0276235 0.00780489
1109 4 0.0501327 0.00284441 0.0111423
66 1 0.0137389 0.0743362 0.00399512
125 3 0.0703194 0.997257 0.0862096
69 3 0.995292 0.064849 0.0143924
1925 4 0.154754 0.0236622 0.0198691
3544 2 0.142572 0.0332935 0.0845221
122 3 0.0998114 0.0179175 0.0763988
3545 4 0.165161 0.0409329 0.0920434
89 3 0.246559 0.0673783 0.0217743
1437 4 0.183703 0.0493732 0.0921745
1435 2 0.206018 0.0381225 0.0929692
1436 4 0.228334 0.0268718 0.0937638
1008 4 0.364499 0.0397562 0.0589713
1006 2 0.384644 0.054297 0.0561498
2786 4 0.359339 0.0377119 0.077521
3809 4 0.398042 0.0156741 0.0633379
3808 2 0.415586 0.00703202 0.0789171
1007 4 0.404789 0.0688377 0.0533283
298 2 0.0562246 0.136389 0.0567871
299 4 0.035375 0.122904 0.0538495
70 3 0.0164368 0.0958228 0.0110447
300 4 0.0770741 0.149875 0.0597246
3983 4 0.400768 0.0869243 0.0626535
3234 4 0.342442 0.145911 0.0100473
788 4 0.355473 0.130838 0.00460288
115 3 0.417535 0.0800236 0.996891
113 3 0.452633 0.0900548 0.0061193
3982 2 0.421783 0.0992632 0.0570572
3984 4 0.442798 0.111602 0.0514608
1169 4 0.452329 0.109525 0.0693714
2500 2 0.132645 0.196011 0.0164669
2501 4 0.135054 0.187135 0.0397174
632 4 0.152241 0.185285 0.0490622
631 2 0.171687 0.174966 0.060917
633 4 0.191133 0.164646 0.0727718
738 4 0.181611 0.238114 0.0550191
3232 2 0.337993 0.170417 0.0122528
3233 4 0.333544 0.194923 0.0144584
3195 4 0.00731805 0.276342 0.0469786
2528 4 0.0658401 0.271286 0.0770537
3193 2 0.0284117 0.280566 0.0597222
3194 4 0.0495054 0.28479 0.0724658
674 4 0.994186 0.291211 0.055016
2804 4 0.1275 0.243531 0.0122279
2527 2 0.0850914 0.287241 0.0770368
2529 4 0.104343 0.303197 0.0770199
2803 2 0.111234 0.256151 0.998037
736 2 0.168351 0.24759 0.0739813
1028 4 0.221297 0.293302 0.0386282
1027 2 0.23469 0.289526 0.0594012
3006 4 0.233754 0.29806 0.0245165
3004 2 0.244677 0.317051 0.0124661
2976 4 0.409675 0.320008 0.059928
3335 4 0.404586 0.330078 0.0762987
2974 2 0.405248 0.305262 0.0402273
2975 4 0.400821 0.290515 0.0205266
2968 2 0.491758 0.263602 0.06923
781 2 0.0325929 0.378043 0.07756
639 4 0.0808414 0.390136 0.0102156
783 4 0.0122271 0.364614 0.083047
3213 4 0.148817 0.350714 0.0317668
2610 4 0.094352 0.374975 0.00852225
2608 2 0.114254 0.369164 0.0224985
2609 4 0.134156 0.363353 0.0364747
3211 2 0.16625 0.346121 0.0144401
3212 4 0.183682 0.341528 0.997113
3005 4 0.2556 0.336042 0.000415792
3334 2 0.388032 0.347379 0.0834978
4414 2 0.341643 0.405305 0.00544254
4415 4 0.359536 0.422696 0.00704573
1047 4 0.0857806 0.461767 0.0670528
1045 2 0.0916552 0.480151 0.0511569
1046 4 0.0975298 0.498536 0.0352609
288 4 0.224343 0.44861 0.0617146
525 4 0.208129 0.442945 0.0731654
3114 4 0.378665 0.422416 0.00577712
124 3 0.0705122 0.0342179 0.0933853
3484 2 0.0167416 0.0427757 0.122551
3485 4 0.0305473 0.0307655 0.139591
3546 4 0.119983 0.0256541 0.0770007
121 1 0.0833651 0.0149354 0.0922032
123 3 0.0933535 0.0108029 0.112735
489 4 0.143033 0.0526072 0.141765
396 4 0.130329 0.0685552 0.137845
487 2 0.163076 0.0387351 0.147335
404 4 0.235219 0.0446149 0.100079
3270 4 0.193395 0.0333081 0.16827
403 2 0.255043 0.052176 0.113308
405 4 0.274868 0.0597371 0.126537
2606 4 0.292635 0.0694223 0.125924
2605 2 0.306976 0.0632722 0.145461
258 4 0.326627 0.00182458 0.12473
2787 4 0.337006 0.00514485 0.108202
2785 2 0.348173 0.0214284 0.0928617
758 4 0.461535 0.981927 0.142933
1069 2 0.00656977 0.128866 0.12623
1071 4 0.0185083 0.120319 0.146469
2755 2 0.0535052 0.11516 0.154281
2756 4 0.0306377 0.121441 0.162205
2757 4 0.0763727 0.108879 0.146356
395 4 0.0875373 0.0939998 0.142555
394 2 0.108933 0.0812775 0.1402
2806 2 0.349943 0.0853705 0.171573
3587 4 0.374394 0.143053 0.155353
3586 2 0.39071 0.15875 0.165963
2807 4 0.371668 0.0972969 0.168259
1168 2 0.475361 0.111168 0.0789636
1170 4 0.498393 0.11281 0.0885557
474 4 0.110634 0.217297 0.158648
2838 4 0.191141 0.198152 0.149346
2708 4 0.195414 0.197258 0.130052
2707 2 0.19885 0.184288 0.108953
2709 4 0.202285 0.171317 0.0878545
1463 4 0.295483 0.236188 0.139702
1462 2 0.306628 0.216775 0.150844
1464 4 0.317773 0.197362 0.161985
2754 4 0.483685 0.192586 0.151897
1103 4 0.0169954 0.314023 0.116315
1102 2 0.0411668 0.30848 0.11951
1104 4 0.0653382 0.302937 0.122705
690 4 0.00118195 0.319046 0.127073
1511 4 0.0670436 0.318643 0.138089
2959 2 0.140536 0.274418 0.120421
2960 4 0.139633 0.2954 0.13399
1510 2 0.0863144 0.325601 0.152421
2961 4 0.141439 0.253436 0.106852
1512 4 0.105585 0.332559 0.166754
737 4 0.155091 0.257067 0.0929436
2965 2 0.26062 0.293776 0.110413
2966 4 0.254609 0.274461 0.095717
1029 4 0.248084 0.285749 0.0801743
2967 4 0.266631 0.31309 0.12511
3106 2 0.370176 0.311691 0.160044
3107 4 0.394989 0.313986 0.157992
2969 4 0.473281 0.278911 0.0762596
708 4 0.444944 0.293512 0.149316
2633 4 0.446586 0.291478 0.129911
2634 4 0.480319 0.28155 0.0943543
2632 2 0.463453 0.286514 0.112132
706 2 0.443853 0.271825 0.161712
2459 4 0.0705737 0.395252 0.0832569
782 4 0.0529587 0.391471 0.072073
4088 4 0.155436 0.330638 0.104612
2458 2 0.0849724 0.384965 0.100921
4087 2 0.153533 0.354504 0.111822
4089 4 0.15163 0.37837 0.119032
143 3 0.159102 0.394726 0.110337
2460 4 0.0993711 0.374677 0.118586
145 3 0.150767 0.406095 0.14525
2578 2 0.296793 0.366679 0.135094
2579 4 0.309369 0.379678 0.11783
554 4 0.320634 0.384161 0.101891
2580 4 0.284216 0.353679 0.152357
3819 4 0.28561 0.361564 0.170786
3336 4 0.371477 0.36468 0.090697
553 2 0.345193 0.384109 0.0971971
555 4 0.369752 0.384056 0.0925028
3492 4 0.0329603 0.492161 0.154895
4586 4 0.0974602 0.469332 0.0819848
141 1 0.153855 0.412923 0.123745
4585 2 0.112471 0.453195 0.0937944
4587 4 0.127481 0.437058 0.105604
142 3 0.134448 0.422528 0.115984
2043 4 0.178985 0.494686 0.168891
144 3 0.170902 0.428637 0.122798
524 4 0.169772 0.429101 0.102112
523 2 0.18895 0.436023 0.0876385
286 2 0.241262 0.453935 0.0793374
287 4 0.258182 0.45926 0.0969603
753 4 0.262055 0.456 0.115422
751 2 0.279797 0.456897 0.133018
752 4 0.297539 0.457794 0.150613
3882 4 0.313576 0.467249 0.15758
2141 4 0.442175 0.495287 0.129492
2140 2 0.446247 0.484765 0.151805
1689 4 0.142711 0.0178141 0.23992
488 4 0.183119 0.0248629 0.152904
3268 2 0.214017 0.0445034 0.176907
3269 4 0.234638 0.0556988 0.185543
587 4 0.231725 0.066564 0.203011
586 2 0.228372 0.072213 0.227136
588 4 0.22502 0.0778619 0.251261
2808 4 0.328218 0.0734442 0.174887
2607 4 0.321317 0.057122 0.164998
712 2 0.0295707 0.12932 0.225883
713 4 0.0393308 0.148235 0.239004
714 4 0.0198106 0.110406 0.212761
666 4 0.39772 0.15439 0.260536
664 2 0.387541 0.172087 0.246101
472 2 0.125422 0.229497 0.174699
2512 2 0.151234 0.18594 0.223698
2514 4 0.164702 0.18293 0.202848
473 4 0.140211 0.241697 0.190749
2513 4 0.137766 0.188949 0.244548
2574 4 0.145059 0.229942 0.206758
2837 4 0.1834 0.178137 0.194514
2836 2 0.18727 0.188145 0.17193
641 4 0.330441 0.183231 0.16608
640 2 0.346207 0.194601 0.181807
3588 4 0.407027 0.174447 0.176573
642 4 0.361974 0.205971 0.197533
665 4 0.377361 0.189784 0.231666
1762 2 0.359369 0.259548 0.229752
1764 4 0.37327 0.239072 0.233317
1233 4 0.425658 0.176289 0.18378
1232 4 0.468078 0.194747 0.164792
1231 2 0.446868 0.185518 0.174286
283 2 0.476628 0.236571 0.185842
285 4 0.451748 0.238653 0.187193
707 4 0.442763 0.250139 0.174108
339 4 0.0411246 0.294481 0.244812
337 2 0.0631903 0.29149 0.233438
338 4 0.0852559 0.288499 0.222065
2572 2 0.153379 0.243111 0.226317
2573 4 0.161699 0.25628 0.245876
246 4 0.100996 0.290484 0.208693
244 2 0.12256 0.303104 0.209638
245 4 0.144124 0.315725 0.210583
2841 4 0.164076 0.316614 0.213013
2839 2 0.182831 0.300081 0.21267
2840 4 0.201585 0.283549 0.212326
677 4 0.205106 0.284038 0.23299
2909 4 0.336675 0.298782 0.229313
2908 2 0.338908 0.30584 0.205431
2910 4 0.341141 0.312897 0.181548
3108 4 0.345362 0.309397 0.162096
1763 4 0.345467 0.280023 0.226188
2511 4 0.119179 0.334255 0.181485
3960 4 0.145287 0.377814 0.219352
2509 2 0.131312 0.354612 0.189459
2510 4 0.143444 0.374969 0.197432
3958 2 0.13331 0.386372 0.239563
3817 2 0.292089 0.360432 0.194909
3818 4 0.298567 0.359299 0.219033
110 3 0.318354 0.355613 0.221983
106 1 0.318926 0.355158 0.244746
108 3 0.320894 0.376735 0.253049
109 3 0.336797 0.342234 0.251959
4511 4 0.35269 0.346789 0.240039
4510 2 0.376006 0.346292 0.231021
4512 4 0.399322 0.345794 0.222003
494 4 0.417379 0.341393 0.21468
493 2 0.434512 0.345109 0.232508
2591 4 0.00867947 0.43895 0.180519
2592 4 0.0383895 0.472367 0.15813
2590 2 0.0235345 0.455658 0.169325
3883 2 0.0274029 0.481568 0.235423
3885 4 0.0251184 0.500599 0.219369
2817 4 0.200468 0.509441 0.226319
2042 4 0.190091 0.494457 0.21765
2041 2 0.184538 0.494572 0.19327
3881 4 0.326141 0.496765 0.195942
3880 2 0.319859 0.482007 0.176761
2142 4 0.450318 0.474244 0.174119
279 4 0.441239 0.480925 0.191174
277 2 0.460266 0.487409 0.206044
774 4 0.494866 0.506896 0.217295
278 4 0.479294 0.493892 0.220914
3062 4 0.0832447 0.075707 0.253511
20 3 0.0285793 0.0883053 0.279087
3647 4 0.0737811 0.0179614 0.333641
3555 4 0.157904 0.0247942 0.25184
3872 4 0.110778 0.00706732 0.280747
3646 2 0.0872077 0.00871066 0.314684
3553 2 0.16924 0.0444404 0.262362
3554 4 0.180576 0.0640867 0.272885
2534 4 0.0436655 0.143272 0.257702
16 1 0.013947 0.100854 0.291215
2533 2 0.0663257 0.149815 0.266003
17 3 0.0256692 0.113824 0.306165
1517 4 0.0431958 0.12324 0.309644
1516 2 0.0533949 0.109484 0.327862
2535 4 0.0889859 0.156357 0.274304
3061 2 0.0903142 0.0921388 0.270981
3063 4 0.0973838 0.108571 0.288451
295 2 0.112142 0.133317 0.318351
296 4 0.111432 0.116473 0.299885
52 3 0.0976667 0.169471 0.261577
2675 4 0.417109 0.150271 0.266678
2674 2 0.441964 0.147867 0.265385
2676 4 0.466818 0.145463 0.264092
2814 4 0.481123 0.151094 0.275871
1602 4 0.0310649 0.235713 0.265711
1796 4 0.0512718 0.237269 0.26991
2612 4 0.0122277 0.196891 0.253464
1795 2 0.0711891 0.226596 0.280613
55 3 0.118039 0.166817 0.292735
2797 2 0.0997548 0.246218 0.322576
53 3 0.130484 0.18764 0.26394
1797 4 0.0911064 0.215924 0.291317
51 1 0.11179 0.180729 0.275822
54 3 0.100626 0.199154 0.284443
1800 4 0.119463 0.21593 0.33089
2798 4 0.0965822 0.226368 0.307706
2919 4 0.218693 0.253554 0.333835
3236 4 0.294307 0.17769 0.302654
3235 2 0.294616 0.159077 0.319345
1600 2 0.0288329 0.259946 0.259972
1601 4 0.0266008 0.28418 0.254233
452 4 0.0705702 0.31597 0.334138
1062 4 0.0395058 0.312435 0.344857
1861 2 0.116425 0.325747 0.295312
1862 4 0.132955 0.309374 0.286154
2660 4 0.15015 0.318682 0.287479
2917 2 0.225213 0.256477 0.309873
2918 4 0.231732 0.259399 0.285912
678 4 0.231671 0.256313 0.265026
676 2 0.218388 0.270175 0.249008
268 2 0.234473 0.322529 0.317386
2661 4 0.191615 0.314694 0.315147
269 4 0.210262 0.318613 0.322248
2659 2 0.170883 0.316688 0.301313
270 4 0.258685 0.326445 0.312525
417 4 0.265105 0.316611 0.296442
415 2 0.283922 0.323738 0.2816
416 4 0.30274 0.330866 0.266758
582 4 0.99875 0.39683 0.28739
2488 2 0.0656118 0.358397 0.310463
2489 4 0.0425489 0.365295 0.303703
580 2 0.0147688 0.385314 0.302751
581 4 0.030788 0.373798 0.318111
1863 4 0.0998957 0.342119 0.304471
2490 4 0.0886748 0.351499 0.317223
3959 4 0.121333 0.394931 0.259774
3221 4 0.11783 0.395634 0.278899
3220 2 0.0965196 0.408466 0.276376
107 3 0.299397 0.345907 0.252632
495 4 0.451645 0.348824 0.250336
410 4 0.460604 0.349657 0.268462
409 2 0.481012 0.360268 0.278265
3222 4 0.075209 0.421299 0.273852
1576 2 0.997186 0.493946 0.293209
3884 4 0.0296874 0.462536 0.251478
1392 4 0.036127 0.462106 0.270842
1390 2 0.0507157 0.444268 0.280544
1391 4 0.0653044 0.426429 0.290247
1577 4 0.994927 0.469757 0.299127
669 4 0.213953 0.498497 0.282996
667 2 0.221702 0.487402 0.30402
668 4 0.229451 0.476306 0.325044
1377 4 0.0181002 0.0252012 0.36248
1376 4 0.029984 0.0380229 0.409332
1375 2 0.0240421 0.0316121 0.385906
1866 4 0.140986 0.0724057 0.369701
1864 2 0.16169 0.0754062 0.356008
2551 2 0.267915 0.999597 0.378401
2552 4 0.289971 0.00010771 0.390166
1622 4 0.284033 0.0518296 0.387417
1623 4 0.331217 0.0561947 0.371438
1621 2 0.307625 0.0540121 0.379428
3549 4 0.269362 0.0604546 0.398325
4014 4 0.288978 0.0144131 0.405635
402 4 0.341038 0.0503179 0.389522
400 2 0.361203 0.0508174 0.404297
401 4 0.381369 0.0513168 0.419072
3274 2 0.997687 0.16291 0.410335
1518 4 0.0635941 0.0957279 0.346081
2964 4 0.0635151 0.0843266 0.408786
297 4 0.112852 0.150161 0.336816
1817 4 0.139351 0.136056 0.403375
1816 2 0.160955 0.148195 0.406706
1865 4 0.182394 0.0784067 0.342314
518 4 0.200672 0.134634 0.336281
519 4 0.186073 0.0880401 0.325479
517 2 0.193373 0.111337 0.33088
3028 2 0.217617 0.139303 0.400355
3029 4 0.235407 0.121733 0.400259
3548 4 0.244684 0.103641 0.403492
578 4 0.187402 0.149185 0.338031
1818 4 0.182559 0.160333 0.410037
3030 4 0.199827 0.156873 0.400451
3547 2 0.257023 0.082048 0.400909
365 4 0.296281 0.129514 0.351862
364 2 0.295067 0.141063 0.374006
3237 4 0.294925 0.140464 0.336037
366 4 0.293853 0.152612 0.39615
3275 4 0.017655 0.172397 0.398652
3324 4 0.0375276 0.169017 0.400823
3322 2 0.0613831 0.174082 0.406342
1798 2 0.141597 0.210094 0.340952
3323 4 0.0852386 0.179146 0.411861
1799 4 0.16373 0.204259 0.351014
579 4 0.182865 0.197865 0.348537
577 2 0.185134 0.173525 0.343284
3807 4 0.184604 0.214607 0.396302
1698 4 0.198734 0.229625 0.392895
1696 2 0.21023 0.235461 0.371471
1697 4 0.221726 0.241297 0.350047
383 4 0.292648 0.171279 0.402561
382 2 0.3082 0.189842 0.408783
663 4 0.340198 0.199937 0.404395
384 4 0.323753 0.208406 0.415005
662 4 0.371797 0.238694 0.404778
661 2 0.355998 0.219316 0.404587
451 2 0.0788415 0.293479 0.341273
569 4 0.00598474 0.327418 0.415605
2655 4 0.0413624 0.248586 0.400809
2653 2 0.0426526 0.263842 0.381041
2654 4 0.0439428 0.279099 0.361273
570 4 0.0555267 0.332904 0.411572
568 2 0.0307557 0.330161 0.413588
1060 2 0.0148871 0.313981 0.340767
2799 4 0.102927 0.266068 0.337446
453 4 0.0871128 0.270987 0.348409
2 3 0.0965423 0.323286 0.394705
3706 2 0.370255 0.306857 0.369796
3707 4 0.389426 0.293492 0.360906
438 4 0.405232 0.283835 0.354731
3708 4 0.351084 0.320222 0.378687
437 4 0.453475 0.28748 0.367381
436 2 0.429353 0.285657 0.361056
231 4 0.464827 0.304446 0.369406
229 2 0.488484 0.296576 0.367511
1774 2 0.00527962 0.449213 0.379048
1775 4 0.0290331 0.442665 0.374794
2507 4 0.24385 0.478408 0.339812
2508 4 0.243481 0.452747 0.382732
2506 2 0.243666 0.465577 0.361272
3167 4 0.472919 0.433674 0.380677
599 4 0.489853 0.436819 0.370229
3168 4 0.438868 0.458454 0.353709
3166 2 0.455894 0.446064 0.367193
2715 4 0.0370877 0.025482 0.423261
813 4 0.0709153 0.0308519 0.481956
2962 2 0.0475127 0.0731571 0.424418
2713 2 0.0590873 0.013788 0.425364
2714 4 0.081087 0.00209405 0.427468
2963 4 0.0315103 0.0619875 0.440049
811 2 0.0469559 0.0304513 0.489095
812 4 0.0229965 0.0300506 0.496235
4389 4 0.354627 0.988509 0.480501
3051 4 0.399547 0.0626827 0.419095
3049 2 0.41688 0.0509657 0.432787
3050 4 0.434214 0.0392487 0.446479
3664 2 0.463807 0.0148021 0.430432
3666 4 0.45105 0.0350202 0.437757
3396 4 0.465934 0.0639463 0.495527
3394 2 0.473648 0.0434542 0.507601
3957 4 0.0726111 0.144471 0.449743
2518 2 0.0577555 0.155187 0.480633
3955 2 0.0891426 0.126569 0.444142
2824 2 0.144349 0.111131 0.460986
2825 4 0.121852 0.114083 0.450483
3956 4 0.105674 0.108666 0.43854
2826 4 0.166846 0.10818 0.47149
2697 4 0.184727 0.115993 0.466007
2695 2 0.208965 0.119936 0.470714
2696 4 0.233203 0.12388 0.475421
4001 4 0.252486 0.123737 0.4732
4000 2 0.264538 0.106722 0.486998
4002 4 0.276591 0.0897061 0.500796
3327 4 0.295413 0.0964745 0.50279
2520 4 0.0664175 0.160624 0.457816
2338 2 0.999681 0.215169 0.476421
2340 4 0.0142689 0.215509 0.456116
680 4 0.0151117 0.226071 0.439452
679 2 0.0326525 0.240782 0.429397
1142 4 0.10225 0.187858 0.417702
1141 2 0.107572 0.182472 0.441532
1143 4 0.112895 0.177087 0.465362
357 4 0.13033 0.185022 0.468903
355 2 0.149619 0.188787 0.484362
3806 4 0.160659 0.193503 0.4348
3805 2 0.172631 0.204055 0.415551
356 4 0.168908 0.192552 0.49982
576 4 0.18661 0.196136 0.49425
574 2 0.205863 0.203507 0.508399
344 4 0.468664 0.210298 0.430963
343 2 0.471067 0.23352 0.439917
4 3 0.0626377 0.314767 0.40851
681 4 0.0501934 0.255493 0.419342
1 1 0.0846869 0.319426 0.414036
2491 2 0.126309 0.308443 0.453327
5 3 0.0938467 0.301718 0.425044
2492 4 0.104651 0.309814 0.440908
2493 4 0.147968 0.307071 0.465746
2848 2 0.19445 0.285633 0.491079
2849 4 0.213207 0.290442 0.475261
3021 4 0.218918 0.275295 0.463442
3019 2 0.234949 0.289416 0.45045
2355 4 0.282335 0.269709 0.455118
3020 4 0.25098 0.303536 0.437458
2354 4 0.331039 0.281049 0.455382
2353 2 0.306687 0.275379 0.45525
1766 4 0.362514 0.256932 0.406819
1767 4 0.341324 0.288283 0.439511
1765 2 0.351919 0.272608 0.423165
696 4 0.493962 0.255404 0.447988
345 4 0.473469 0.256742 0.44887
4068 4 0.00756419 0.36363 0.465755
3024 4 0.0256359 0.359889 0.473073
3022 2 0.0344232 0.373696 0.491977
2666 4 0.10101 0.405564 0.433893
2665 2 0.0938843 0.381619 0.434917
3 3 0.0856758 0.3384 0.427357
2667 4 0.0867591 0.357674 0.435942
1810 2 0.308775 0.41149 0.496877
1812 4 0.290209 0.415606 0.480643
2296 2 0.0924495 0.438024 0.454845
2298 4 0.0935885 0.452637 0.475103
2297 4 0.0913104 0.423411 0.434588
711 4 0.242779 0.422795 0.461329
710 4 0.288529 0.436275 0.476364
709 2 0.265654 0.429535 0.468846
3358 2 0.181476 0.0477942 0.53674
3359 4 0.194369 0.0269448 0.541666
1212 4 0.302156 0.0677969 0.570356
3395 4 0.481361 0.0229622 0.519674
374 4 0.0861085 0.079836 0.53602
375 4 0.0397313 0.0984879 0.537448
373 2 0.0629199 0.089162 0.536734
468 4 0.0224543 0.105892 0.545906
466 2 0.00673614 0.105236 0.56534
3487 2 0.058405 0.144454 0.539474
3489 4 0.0673342 0.152488 0.561404
3488 4 0.0494758 0.13642 0.517544
2519 4 0.0490936 0.149751 0.50345
1269 4 0.155825 0.103833 0.567563
266 4 0.0835108 0.163249 0.569147
3360 4 0.168583 0.0686435 0.531815
3325 2 0.315619 0.105552 0.514388
3326 4 0.335825 0.114629 0.525987
650 4 0.335077 0.133627 0.530409
649 2 0.352609 0.151003 0.526426
3037 2 0.0634232 0.224914 0.558493
3039 4 0.04429 0.208957 0.556381
3038 4 0.0825564 0.240872 0.560605
265 2 0.10044 0.179955 0.561433
267 4 0.117369 0.196662 0.55372
2981 4 0.131393 0.191223 0.540189
2980 2 0.156249 0.192619 0.542518
2991 4 0.0979376 0.2528 0.554426
2982 4 0.181105 0.194015 0.544846
3524 4 0.230063 0.217623 0.540956
575 4 0.225115 0.210877 0.522548
3523 2 0.237551 0.226585 0.563065
651 4 0.370142 0.168379 0.522443
1181 4 0.385684 0.17805 0.530821
1180 2 0.407876 0.186229 0.538933
1182 4 0.430068 0.194408 0.547046
2989 2 0.119161 0.264959 0.549239
2990 4 0.140383 0.277118 0.544051
2171 4 0.153269 0.287953 0.55505
2170 2 0.148766 0.312527 0.554043
2172 4 0.144262 0.337101 0.553036
2850 4 0.175692 0.280825 0.506897
1920 4 0.315717 0.301257 0.594993
2374 2 0.335765 0.315161 0.561162
2376 4 0.358113 0.317551 0.550205
936 4 0.367757 0.303329 0.561448
934 2 0.388338 0.304017 0.57563
3501 4 0.443067 0.298516 0.537755
3499 2 0.456328 0.317536 0.528397
979 2 0.0290176 0.389121 0.545465
981 4 0.0440621 0.378191 0.52875
980 4 0.0139731 0.400052 0.56218
3023 4 0.0432105 0.387504 0.51088
2800 2 0.100116 0.39913 0.497406
2349 4 0.139676 0.40977 0.508702
2801 4 0.0755594 0.394564 0.498559
2802 4 0.124672 0.403696 0.496252
2347 2 0.164053 0.415017 0.510553
2348 4 0.18843 0.420265 0.512403
431 4 0.199794 0.411779 0.526577
2375 4 0.313418 0.312771 0.57212
1811 4 0.327341 0.407373 0.513111
3500 4 0.469588 0.336557 0.519039
510 4 0.474903 0.352854 0.510756
508 2 0.499243 0.350312 0.515885
430 2 0.208014 0.430424 0.541068
432 4 0.216235 0.449069 0.555559
3057 4 0.211762 0.454926 0.574717
3055 2 0.213237 0.477382 0.585613
1907 4 0.329888 0.427545 0.51395
1906 2 0.344111 0.446431 0.522087
1908 4 0.358334 0.465317 0.530224
1210 2 0.288712 0.0566119 0.588226
340 2 0.257305 0.00900641 0.603884
341 4 0.264942 0.0301903 0.614752
1211 4 0.275269 0.0454269 0.606096
2596 2 0.316762 0.0458017 0.648577
2597 4 0.337345 0.0536439 0.636744
879 4 0.33852 0.0714858 0.628307
316 2 0.393124 0.0288328 0.601943
318 4 0.369337 0.0244324 0.608266
2333 4 0.373287 0.00913922 0.619898
877 2 0.360324 0.0733141 0.616207
3457 2 0.400233 0.0461016 0.663534
3458 4 0.391422 0.064056 0.648527
878 4 0.382129 0.0751424 0.604107
317 4 0.416912 0.0332331 0.59562
2204 4 0.435476 0.0255674 0.591008
2203 2 0.450351 0.00832253 0.601329
1025 4 0.474503 0.994788 0.677411
2971 2 0.440616 0.00390853 0.664149
1267 2 0.154539 0.117116 0.588708
2978 4 0.0956071 0.157675 0.648865
3366 4 0.110903 0.15708 0.660711
3364 2 0.134582 0.151423 0.66641
1268 4 0.153254 0.130398 0.609853
4182 4 0.162798 0.12962 0.627344
4180 2 0.176903 0.117991 0.644402
4181 4 0.191009 0.106362 0.661461
1098 4 0.408733 0.104503 0.619131
1096 2 0.415837 0.102819 0.643045
2567 4 0.055803 0.20883 0.643127
3306 4 0.046807 0.197624 0.656072
2566 2 0.0784836 0.218044 0.648216
2568 4 0.101164 0.227257 0.653306
2830 2 0.246319 0.222915 0.626443
2831 4 0.241568 0.216355 0.650098
2832 4 0.25107 0.229476 0.602788
3525 4 0.245039 0.235546 0.585174
3477 4 0.295258 0.182603 0.596954
3475 2 0.310575 0.190494 0.615074
3476 4 0.325891 0.198385 0.633193
3130 2 0.351379 0.246461 0.662057
3132 4 0.355961 0.222584 0.656221
2174 4 0.0345794 0.325349 0.582953
1951 2 0.997464 0.329834 0.58787
3192 4 0.179467 0.249669 0.647664
3191 4 0.222392 0.267581 0.629296
4421 4 0.234342 0.257097 0.615947
4420 2 0.24913 0.275934 0.608758
3190 2 0.200929 0.258625 0.63848
289 2 0.243105 0.327656 0.637688
290 4 0.227867 0.326152 0.657455
1919 4 0.267318 0.313838 0.595115
4422 4 0.263919 0.294771 0.601569
1918 2 0.291518 0.307548 0.595054
3027 4 0.326113 0.308346 0.615878
291 4 0.258343 0.32916 0.617921
935 4 0.408919 0.304704 0.589812
3025 2 0.335091 0.291629 0.63216
3026 4 0.34407 0.274913 0.648442
3131 4 0.346798 0.270339 0.667892
503 4 0.424812 0.315441 0.595006
502 2 0.447029 0.304176 0.592842
504 4 0.469246 0.292911 0.590678
1079 4 0.475086 0.280486 0.603135
1078 2 0.492834 0.290705 0.617479
2173 2 0.0565858 0.336975 0.585348
1952 4 0.0203055 0.324876 0.59675
3183 4 0.0289673 0.421254 0.643487
2175 4 0.0785922 0.348601 0.587743
2499 4 0.259637 0.377789 0.591176
2498 4 0.225823 0.340953 0.590518
2497 2 0.24273 0.359371 0.590847
2035 2 0.212338 0.40355 0.669881
2036 4 0.194633 0.421176 0.670898
1206 4 0.266035 0.392044 0.579079
4307 4 0.250038 0.387512 0.669107
1205 4 0.306205 0.393899 0.608806
1204 2 0.28612 0.392972 0.593943
4306 2 0.270018 0.396438 0.65701
3158 4 0.325807 0.387681 0.611369
4308 4 0.289997 0.405363 0.644912
2106 4 0.302176 0.415813 0.633095
3157 2 0.349176 0.379174 0.613965
3159 4 0.372544 0.370667 0.61656
3141 4 0.380758 0.388124 0.621264
3139 2 0.404841 0.385723 0.627542
3140 4 0.428925 0.383323 0.63382
7 3 0.440818 0.391432 0.647605
6 1 0.458851 0.405543 0.649808
10 3 0.477468 0.395251 0.641675
2324 4 0.484572 0.390803 0.623277
9 3 0.461752 0.410553 0.672278
945 4 0.0130155 0.427529 0.632566
3181 2 0.0534286 0.425672 0.646187
3182 4 0.0778899 0.430089 0.648887
943 2 0.995754 0.429946 0.614639
4536 4 0.100133 0.496897 0.646852
2033 4 0.0944038 0.422368 0.640224
3264 4 0.151827 0.454342 0.64261
2032 2 0.113003 0.438911 0.642587
2034 4 0.131602 0.455453 0.644949
3263 4 0.194933 0.438858 0.662682
3262 2 0.17338 0.4466 0.652646
3056 4 0.214712 0.499838 0.59651
2104 2 0.318873 0.4305 0.621663
2105 4 0.33557 0.445187 0.61023
3737 4 0.398047 0.439288 0.60281
3738 4 0.348942 0.444637 0.595016
3736 2 0.373494 0.441963 0.598913
8 3 0.454677 0.424975 0.637835
3070 2 0.456567 0.459239 0.609816
3071 4 0.451484 0.440023 0.624984
3072 4 0.461649 0.478455 0.594647
4412 4 0.47297 0.494647 0.597353
2292 4 0.0766018 0.00648462 0.711032
3313 2 0.059111 0.0140734 0.747694
2114 4 0.0152197 0.00353751 0.688126
2598 4 0.296179 0.0379596 0.66041
2199 4 0.316971 0.0822719 0.72324
1944 4 0.310943 0.0922156 0.707347
3459 4 0.409043 0.0281472 0.67854
4162 2 0.410762 0.047782 0.721078
4163 4 0.399339 0.0699955 0.722202
2973 4 0.41912 0.0163608 0.666985
4164 4 0.422184 0.0255684 0.719955
636 4 0.471164 0.0582286 0.741399
634 2 0.495519 0.0531085 0.74381
2977 2 0.0786807 0.147281 0.664052
2979 4 0.0617542 0.136887 0.67924
845 4 0.0619971 0.121753 0.690743
844 2 0.077634 0.104899 0.700573
846 4 0.093271 0.0880452 0.710402
1971 4 0.098758 0.0921001 0.729166
1193 4 0.164426 0.137779 0.689397
3365 4 0.158261 0.145766 0.672109
1192 2 0.180658 0.153875 0.69953
2240 4 0.195541 0.107332 0.681129
2239 2 0.21936 0.103402 0.687644
1194 4 0.196889 0.16997 0.709663
2241 4 0.243178 0.0994733 0.69416
1943 4 0.261521 0.0949439 0.700219
1942 2 0.286232 0.0935797 0.703783
2197 2 0.319443 0.0847246 0.748001
1097 4 0.422942 0.101135 0.666958
3870 4 0.426551 0.0843382 0.674733
3868 2 0.439201 0.0951256 0.69341
3869 4 0.45185 0.105913 0.712087
3305 4 0.0201284 0.198647 0.698356
3304 2 0.0334677 0.198136 0.677214
2265 4 0.0244745 0.218531 0.704483
2263 2 0.00632604 0.217941 0.721672
3380 4 0.165258 0.236887 0.70798
3379 2 0.168395 0.23592 0.683193
1184 4 0.201832 0.174781 0.689582
1185 4 0.231237 0.20142 0.659144
1183 2 0.216535 0.1881 0.674363
3387 4 0.290524 0.203743 0.755515
3104 4 0.304812 0.214148 0.747394
3103 2 0.329223 0.216062 0.74233
3281 4 0.40728 0.18972 0.730302
3280 2 0.382788 0.194756 0.73031
3105 4 0.353634 0.217975 0.737266
3282 4 0.358297 0.199792 0.730318
444 4 0.415185 0.207066 0.725444
442 2 0.435184 0.220664 0.731795
3381 4 0.171532 0.234952 0.658406
3163 2 0.209877 0.31811 0.69269
260 4 0.202299 0.313534 0.733008
3164 4 0.208971 0.307265 0.715201
1089 4 0.366301 0.308702 0.731131
1088 4 0.379858 0.260773 0.726687
1087 2 0.373079 0.284738 0.728909
2415 4 0.46094 0.289784 0.668542
2413 2 0.470301 0.312257 0.67424
2859 4 0.439496 0.334091 0.74904
2414 4 0.479663 0.334731 0.679938
2037 4 0.230043 0.385924 0.668863
3165 4 0.210784 0.328955 0.670178
2857 2 0.452029 0.350009 0.734386
3153 4 0.480123 0.410276 0.68288
3152 4 0.459624 0.384827 0.720734
2858 4 0.464562 0.365927 0.719732
3151 2 0.469874 0.397552 0.701807
3618 4 0.0196903 0.41898 0.7053
3616 2 0.995672 0.4216 0.711738
2434 2 0.993901 0.494308 0.684694
4576 2 0.188557 0.480629 0.713364
4578 4 0.191604 0.475007 0.689192
4062 4 0.20417 0.483322 0.675679
4577 4 0.18551 0.486251 0.737536
3315 4 0.0455756 0.0248708 0.765733
4337 4 0.302664 0.0346177 0.811549
4336 2 0.29967 0.0480193 0.832445
3343 2 0.414626 0.00532153 0.822143
3345 4 0.437767 0.0107125 0.814356
2835 4 0.443559 0.029929 0.820311
1969 2 0.0944589 0.0889803 0.753599
2948 4 0.139668 0.108875 0.819941
1970 4 0.0901597 0.0858605 0.778032
2949 4 0.100916 0.0980235 0.790255
2947 2 0.120292 0.103449 0.805098
2198 4 0.321914 0.0871772 0.772761
1259 4 0.330945 0.0926716 0.789963
1258 2 0.350902 0.107719 0.790635
1260 4 0.37086 0.122767 0.791307
2136 4 0.384958 0.13556 0.798943
2134 2 0.397735 0.148117 0.7815
2135 4 0.410512 0.160674 0.764057
3081 4 0.493697 0.161737 0.751176
825 4 0.430352 0.167115 0.765965
823 2 0.455154 0.163958 0.765712
2795 4 0.038886 0.199966 0.816846
2794 2 0.0406872 0.223454 0.825229
2796 4 0.0424884 0.246942 0.833612
470 4 0.251391 0.174083 0.784611
469 2 0.232339 0.182096 0.798682
471 4 0.213287 0.19011 0.812753
3031 2 0.224024 0.239877 0.829305
210 3 0.212405 0.172502 0.834791
3386 4 0.255214 0.16955 0.764723
3385 2 0.272869 0.186646 0.760119
443 4 0.455182 0.234263 0.738147
824 4 0.479957 0.160802 0.76546
274 2 0.0720528 0.268727 0.811199
276 4 0.0832576 0.283838 0.794729
275 4 0.060848 0.253615 0.827668
611 4 0.160476 0.323251 0.835789
610 2 0.149565 0.304817 0.822892
612 4 0.138655 0.286383 0.809995
259 2 0.194053 0.327901 0.751737
3032 4 0.230253 0.253173 0.809067
39 3 0.171812 0.331731 0.783716
1421 4 0.249194 0.254126 0.817344
2988 4 0.309529 0.275045 0.794466
1420 2 0.270336 0.265807 0.81088
1422 4 0.291477 0.277487 0.804417
2986 2 0.331062 0.286911 0.799022
2987 4 0.352594 0.298777 0.803578
1256 4 0.364675 0.301721 0.819327
1255 2 0.388212 0.300936 0.810926
1257 4 0.411749 0.30015 0.802525
3297 4 0.417297 0.302521 0.783737
3296 4 0.461428 0.285733 0.767264
1215 4 0.479078 0.293978 0.759927
3295 2 0.439362 0.294127 0.775501
1213 2 0.494575 0.312479 0.766462
1014 4 0.128461 0.400884 0.816177
1012 2 0.112184 0.382255 0.812542
40 3 0.152549 0.358763 0.801486
1013 4 0.0959074 0.363626 0.808907
37 3 0.182626 0.343709 0.81766
36 1 0.173308 0.350216 0.797661
261 4 0.185807 0.342268 0.770467
38 3 0.18686 0.36637 0.787975
1614 4 0.191425 0.362351 0.768935
1612 2 0.210776 0.378183 0.769158
1613 4 0.230128 0.394016 0.769382
4092 4 0.241964 0.408608 0.761198
4090 2 0.254015 0.41109 0.782964
1280 4 0.280062 0.420608 0.816234
1122 4 0.052 0.453887 0.801605
1120 2 0.0286992 0.446712 0.807153
3243 4 0.060472 0.472105 0.801878
3241 2 0.0812424 0.485233 0.80651
1121 4 0.00539831 0.439537 0.812701
2864 4 0.129054 0.420689 0.814352
3242 4 0.102013 0.49836 0.811142
2379 4 0.162522 0.498381 0.785697
2377 2 0.175753 0.488443 0.804441
2378 4 0.188984 0.478505 0.823185
4480 2 0.249076 0.489487 0.832664
4481 4 0.244615 0.464902 0.831736
4091 4 0.266066 0.413572 0.804731
4368 4 0.413628 0.473873 0.810308
4367 4 0.42034 0.427108 0.793914
4366 2 0.416984 0.450491 0.802111
4214 4 0.411831 0.493285 0.814932
2343 4 0.0940255 0.0816992 0.907846
4126 2 0.163234 0.018014 0.907896
4127 4 0.161285 0.0427422 0.911045
2320 2 0.299888 0.0532318 0.892237
4338 4 0.296677 0.0614209 0.85334
2321 4 0.304801 0.0516178 0.867773
4171 2 0.399474 0.0448674 0.893644
4173 4 0.381433 0.0590519 0.88372
2833 2 0.463866 0.0320788 0.834739
1896 4 0.500821 0.0275548 0.856304
1202 4 0.428067 0.0223006 0.918739
2834 4 0.484172 0.0342287 0.849168
4172 4 0.417516 0.0306828 0.903568
1201 2 0.434885 0.00105488 0.907455
1091 4 0.468658 0.0638075 0.909158
3174 4 0.478781 0.0731358 0.896303
2341 2 0.113615 0.0945365 0.89909
2342 4 0.133204 0.107374 0.890334