ITEM: TIMESTEP
2842000
ITEM: NUMBER OF ATOMS
4590
ITEM: BOX BOUNDS xy xz yz pp pp pp
-9.9985700000000008e+00 9.9985700000000008e+00 0.0000000000000000e+00
-9.9985700000000008e+00 9.9985700000000008e+00 0.0000000000000000e+00
-9.9985700000000008e+00 9.9985700000000008e+00 0.0000000000000000e+00
ITEM: ATOMS id type xs ys zs
2606 4 0.378559 0.999304 0.00274226
658 2 0.462111 0.0286152 0.0211564
659 4 0.448937 0.0154323 0.0378254
660 4 0.475284 0.0417981 0.00448738
4356 4 0.0840226 0.1642 0.00460273
2768 4 0.0173022 0.163198 0.00328454
998 4 0.0687803 0.152591 0.997901
4354 2 0.100307 0.145541 0.00116276
4355 4 0.116591 0.126881 0.997723
789 4 0.119436 0.110844 0.00934308
1761 4 0.477342 0.153844 0.0257039
1759 2 0.496554 0.142482 0.0144355
705 4 0.00431587 0.230727 0.0654059
294 4 0.37279 0.174042 0.0752051
703 2 0.015507 0.252457 0.0706734
704 4 0.0266981 0.274188 0.0759408
673 2 0.0988494 0.257466 0.00620144
674 4 0.116272 0.263051 0.0232446
2805 4 0.126553 0.275824 0.0115345
2803 2 0.133071 0.297042 0.0230473
2804 4 0.13959 0.318259 0.0345602
3217 2 0.0988396 0.332661 0.0821596
2528 4 0.307692 0.246421 0.058679
3335 4 0.302139 0.253285 0.0401753
3334 2 0.291496 0.273076 0.0292108
3336 4 0.280853 0.292868 0.0182462
555 4 0.432478 0.2871 0.0798333
3101 4 0.0160559 0.343183 0.0551416
3218 4 0.0751073 0.332833 0.074291
3100 2 0.0406762 0.34445 0.0593158
3102 4 0.0652966 0.345716 0.0634901
4358 4 0.127534 0.392245 0.0283533
915 4 0.104559 0.411011 0.0552459
4357 2 0.126042 0.380901 0.00612128
2511 4 0.34305 0.357006 0.0820508
4481 4 0.0533181 0.478018 0.0293702
913 2 0.116604 0.423726 0.0730902
3662 4 0.406055 0.43979 0.0802877
386 4 0.34276 0.486474 0.0214248
385 2 0.350601 0.466677 0.0345309
387 4 0.358442 0.446879 0.0476369
3663 4 0.374654 0.435488 0.0416068
3661 2 0.390355 0.437639 0.0609473
2475 4 0.4246 0.436566 0.0769551
3622 2 0.00748241 0.0229358 0.115969
3624 4 0.0299923 0.0306243 0.108263
1515 4 0.0470051 0.0336062 0.0996881
1513 2 0.0716561 0.037707 0.0988326
1514 4 0.096307 0.0418079 0.0979771
2757 4 0.106676 0.0556311 0.0887218
2755 2 0.124438 0.0721985 0.0946567
4025 4 0.396001 0.01184 0.107309
4024 2 0.379257 0.00570155 0.124835
2454 4 0.0536572 0.105386 0.137874
2452 2 0.0320426 0.0996358 0.126697
3810 4 0.0572664 0.0929483 0.153797
2453 4 0.0104279 0.0938851 0.115521
633 4 0.00273907 0.104775 0.0994399
3808 2 0.0784845 0.0920624 0.166996
2756 4 0.1422 0.0887659 0.100592
52 3 0.223482 0.141037 0.154395
51 1 0.24619 0.144703 0.154697
3509 4 0.207203 0.134269 0.164014
53 3 0.257027 0.124403 0.15767
54 3 0.252527 0.154181 0.134488
472 2 0.28112 0.16325 0.110442
474 4 0.299986 0.155576 0.0959394
300 4 0.317976 0.148422 0.087367
2513 4 0.308866 0.162251 0.163195
299 4 0.365315 0.164023 0.0914243
298 2 0.341646 0.156222 0.0893956
2943 4 0.486617 0.165327 0.0938872
2941 2 0.495562 0.142522 0.0988998
473 4 0.262253 0.170924 0.124945
2512 2 0.32655 0.172722 0.148954
2514 4 0.344234 0.183194 0.134713
292 2 0.391901 0.176141 0.091191
293 4 0.411013 0.178241 0.107177
2837 4 0.423361 0.191554 0.117297
2836 2 0.438605 0.204689 0.132139
2708 4 0.473092 0.214454 0.148223
2707 2 0.493838 0.220385 0.160857
2838 4 0.45385 0.217823 0.146981
3014 4 0.130407 0.312763 0.160889
688 2 0.137051 0.331116 0.124366
3013 2 0.108875 0.300727 0.164975
3219 4 0.122572 0.332488 0.0900283
689 4 0.141201 0.318643 0.145635
2969 4 0.17587 0.305862 0.152106
2968 2 0.198103 0.294698 0.149604
2970 4 0.220337 0.283534 0.147103
2527 2 0.305551 0.244751 0.0835352
2529 4 0.303411 0.243081 0.108391
597 4 0.274425 0.29337 0.159868
553 2 0.409099 0.295318 0.0831669
965 4 0.374467 0.311699 0.10166
964 2 0.362712 0.318269 0.122726
554 4 0.385721 0.303535 0.0865006
966 4 0.350957 0.324838 0.143793
690 4 0.132902 0.343589 0.103096
1045 2 0.165607 0.41431 0.0995507
1289 4 0.194382 0.392393 0.117931
1288 2 0.210154 0.375049 0.109235
1046 4 0.185926 0.399998 0.10229
1290 4 0.225925 0.357706 0.100539
1029 4 0.243169 0.366861 0.0984452
1028 4 0.286725 0.343569 0.0906298
1027 2 0.264947 0.355215 0.0945375
2510 4 0.301842 0.373154 0.10533
2509 2 0.322446 0.36508 0.0936902
4277 4 0.297346 0.401035 0.159243
2741 4 0.304206 0.412267 0.0954871
2538 4 0.335927 0.335932 0.143045
4088 4 0.461964 0.373882 0.0944309
4087 2 0.48653 0.378457 0.0953241
1418 4 0.0156544 0.465968 0.0976392
1417 2 0.00718179 0.488829 0.103186
1047 4 0.145288 0.428621 0.0968114
914 4 0.128649 0.436441 0.0909346
322 2 0.100063 0.492042 0.148657
323 4 0.116622 0.473556 0.145617
957 4 0.172429 0.478678 0.0846772
1802 4 0.254395 0.483177 0.157038
2740 2 0.291301 0.430604 0.106549
2742 4 0.278395 0.448941 0.117612
1803 4 0.268851 0.46541 0.112585
1801 2 0.261623 0.474293 0.134812
2473 2 0.443546 0.449592 0.0867822
2474 4 0.462492 0.462617 0.0966093
648 4 0.473371 0.479732 0.0961021
646 2 0.497828 0.475427 0.0931786
1649 4 0.0601745 0.0704074 0.247525
3503 4 0.118543 0.0791795 0.238336
2892 4 0.135036 0.0682212 0.240275
3942 4 0.22934 0.0356815 0.187751
3940 2 0.241742 0.014309 0.191575
757 2 0.294621 0.999624 0.205151
758 4 0.318025 0.00840695 0.205688
1480 2 0.352655 0.00377581 0.18104
712 2 0.332677 0.0795569 0.201016
714 4 0.352735 0.0685939 0.190882
1481 4 0.336647 0.00399233 0.200246
350 4 0.42136 0.0162717 0.19828
2645 4 0.430329 0.0328567 0.189306
2646 4 0.458758 0.0401861 0.229787
2644 2 0.444543 0.0365214 0.209546
1866 4 0.00501219 0.146101 0.229065
745 2 0.0278492 0.161982 0.195401
747 4 0.01732 0.155441 0.217116
3809 4 0.0997025 0.0911764 0.180195
3486 4 0.148971 0.125237 0.20018
3484 2 0.13423 0.106647 0.192287
3485 4 0.119489 0.0880559 0.184394
3510 4 0.162427 0.128662 0.185566
55 3 0.251282 0.158813 0.171833
3508 2 0.184815 0.131466 0.17479
1474 2 0.223514 0.139439 0.241901
1475 4 0.21863 0.129145 0.219644
251 4 0.240117 0.0936783 0.249297
713 4 0.312619 0.0905198 0.211151
2535 4 0.255627 0.0925976 0.237129
2534 4 0.303845 0.0830443 0.227934
1355 4 0.259211 0.169148 0.186651
2533 2 0.279736 0.0878209 0.232531
746 4 0.0383784 0.168523 0.173685
2961 4 0.223225 0.217496 0.198901
2960 4 0.180484 0.242656 0.192506
2959 2 0.201854 0.230076 0.195704
1356 4 0.242905 0.215613 0.195358
1354 2 0.251058 0.192381 0.191005
1219 2 0.317353 0.232515 0.21446
1221 4 0.313987 0.20789 0.217199
3455 4 0.37838 0.204265 0.224541
3454 2 0.400142 0.208199 0.212874
2798 4 0.374709 0.211786 0.243581
3543 4 0.370015 0.246414 0.237778
2797 2 0.351439 0.20952 0.252443
3456 4 0.421904 0.212134 0.201208
3897 4 0.439577 0.214936 0.208513
3895 2 0.464178 0.216834 0.21256
3896 4 0.488779 0.218733 0.216608
531 4 0.0754575 0.274882 0.177409
3015 4 0.0873431 0.288691 0.16906
530 4 0.0870799 0.251658 0.220143
529 2 0.0812687 0.26327 0.198776
3284 4 0.167829 0.256155 0.195831
3285 4 0.178807 0.302864 0.209916
666 4 0.190226 0.315148 0.221061
3283 2 0.173318 0.27951 0.202874
664 2 0.178151 0.32273 0.241601
2536 2 0.329559 0.32824 0.165967
2839 2 0.249451 0.257554 0.234291
2841 4 0.257486 0.271085 0.214862
1220 4 0.320718 0.257139 0.211721
596 4 0.271212 0.266304 0.201795
595 2 0.272819 0.279837 0.180831
2537 4 0.323191 0.320549 0.18889
3222 4 0.329554 0.268653 0.225414
3220 2 0.333308 0.287125 0.208985
3221 4 0.337063 0.305596 0.192556
736 2 0.471114 0.282536 0.211486
737 4 0.462239 0.270896 0.231758
738 4 0.47999 0.294176 0.191214
4511 4 0.463765 0.313823 0.219445
237 4 0.498181 0.296802 0.182734
1104 4 0.0416032 0.332693 0.196031
1102 2 0.0191254 0.337366 0.186126
4276 2 0.320471 0.402705 0.168606
3059 4 0.266874 0.395427 0.22773
3058 2 0.281926 0.389969 0.208524
3060 4 0.296978 0.384512 0.189319
270 4 0.257471 0.395443 0.2454
4278 4 0.343596 0.404375 0.177968
1512 4 0.358073 0.404344 0.164602
1510 2 0.379175 0.395711 0.174867
1511 4 0.400276 0.387078 0.185133
3905 4 0.395296 0.385949 0.204318
3904 2 0.405708 0.369502 0.22001
4510 2 0.449493 0.333407 0.225611
4512 4 0.435221 0.35299 0.231777
3906 4 0.416121 0.353055 0.235703
1389 4 0.168701 0.488899 0.215705
855 4 0.238099 0.473387 0.219787
2657 4 0.177919 0.474466 0.222886
2656 2 0.201959 0.468189 0.225699
2658 4 0.225998 0.461913 0.228512
853 2 0.249084 0.476006 0.197479
854 4 0.26007 0.478625 0.175171
4200 4 0.476303 0.492512 0.191485
4198 2 0.489596 0.481741 0.173253
3504 4 0.0758613 0.0625114 0.258366
733 2 0.0499757 0.0243395 0.294872
734 4 0.0316253 0.0367284 0.306489
1622 4 0.0210459 0.0391809 0.323401
735 4 0.0683262 0.0119507 0.283255
3502 2 0.0972021 0.0708455 0.248351
2890 2 0.156083 0.0706006 0.253561
2552 4 0.0837329 0.0200073 0.291424
2553 4 0.1305 0.0323488 0.304124
2551 2 0.107116 0.0261781 0.297774
2261 4 0.149896 0.0375352 0.306367
2260 2 0.169205 0.0310955 0.291844
2262 4 0.188514 0.0246557 0.277322
2127 4 0.206326 0.0290171 0.289555
2125 2 0.231009 0.031644 0.292566
2891 4 0.177131 0.0729799 0.266847
252 4 0.196806 0.0721784 0.262049
2126 4 0.255692 0.0342708 0.295576
1676 4 0.27059 0.0416585 0.305472
1675 2 0.287759 0.0542686 0.318564
1677 4 0.304928 0.0668787 0.331656
42 3 0.412637 0.0628079 0.291016
43 3 0.428003 0.0604589 0.325236
41 1 0.424805 0.0742372 0.306842
44 3 0.445302 0.0801505 0.297715
1516 2 0.475749 0.0859726 0.285914
1518 4 0.493876 0.0765338 0.27151
1648 2 0.0450688 0.0891033 0.254414
1864 2 0.0140412 0.135165 0.249657
1650 4 0.0299631 0.107799 0.261303
1865 4 0.0230702 0.124228 0.27025
512 4 0.122186 0.13122 0.323026
517 2 0.149157 0.116082 0.302258
518 4 0.126094 0.114788 0.311831
519 4 0.17222 0.117376 0.292686
3063 4 0.189804 0.114279 0.304779
1476 4 0.228398 0.149733 0.264158
250 2 0.218461 0.0829283 0.255673
3062 4 0.224369 0.141251 0.280728
3061 2 0.207086 0.127765 0.292754
45 3 0.413371 0.0929349 0.313032
2675 4 0.419793 0.106721 0.326285
1517 4 0.457622 0.0954115 0.300318
3353 4 0.142827 0.191101 0.298692
3352 2 0.148321 0.190912 0.323083
2840 4 0.241415 0.244022 0.253721
1800 4 0.254711 0.232116 0.264964
1798 2 0.260263 0.24163 0.287411
2799 4 0.328168 0.207253 0.261305
1383 4 0.271134 0.242424 0.326659
452 4 0.476562 0.215528 0.308272
451 2 0.466964 0.2306 0.290782
453 4 0.457366 0.245672 0.273291
3321 4 0.0127538 0.323922 0.286764
3588 4 0.131922 0.310059 0.30708
3586 2 0.150297 0.31224 0.290264
3587 4 0.168672 0.314421 0.273448
665 4 0.166076 0.330312 0.26214
1601 4 0.174365 0.305519 0.332859
1799 4 0.265814 0.251144 0.309858
109 3 0.411767 0.324395 0.256827
3541 2 0.375925 0.26315 0.255389
3542 4 0.381835 0.279886 0.273
110 3 0.386098 0.299189 0.267939
106 1 0.399302 0.316461 0.274719
107 3 0.413668 0.309046 0.291083
2580 4 0.343838 0.32872 0.27738
3626 4 0.480179 0.306208 0.264921
3627 4 0.451817 0.265326 0.269928
3625 2 0.465998 0.285767 0.267425
2490 4 0.497021 0.313723 0.257714
2601 4 0.0131233 0.343362 0.282884
2600 4 0.0466838 0.379467 0.291308
2599 2 0.0299036 0.361414 0.287096
2691 4 0.0634115 0.388916 0.285572
2689 2 0.078886 0.404919 0.296958
268 2 0.264282 0.379487 0.263405
269 4 0.271093 0.36353 0.28141
3019 2 0.325539 0.397686 0.318037
3020 4 0.311067 0.416578 0.310366
108 3 0.386186 0.333512 0.283415
3021 4 0.340011 0.378795 0.325708
2579 4 0.343006 0.364821 0.311974
2578 2 0.343422 0.346771 0.294677
416 4 0.396438 0.348943 0.291993
415 2 0.401653 0.370684 0.303188
417 4 0.406868 0.392425 0.314383
1757 4 0.460348 0.367409 0.256249
1756 2 0.475993 0.382904 0.268095
1758 4 0.491637 0.398399 0.279941
1861 2 0.00554625 0.432224 0.259428
1863 4 0.00996183 0.419395 0.280431
2690 4 0.0943605 0.420921 0.308344
3704 4 0.296617 0.476245 0.281003
3703 2 0.298764 0.4543 0.292793
3705 4 0.300911 0.432355 0.304583
1621 2 0.0195069 0.0445912 0.347764
1623 4 0.0179678 0.0500015 0.372127
1695 4 0.301286 0.0605374 0.35122
2237 4 0.0736605 0.102706 0.360706
2236 2 0.0503746 0.102141 0.369796
2238 4 0.0270887 0.101575 0.378885
1182 4 0.00910183 0.0953919 0.385785
894 4 0.0668677 0.142102 0.386191
527 4 0.0500756 0.138933 0.396619
1782 4 0.00717596 0.162554 0.351149
526 2 0.03397 0.141418 0.415582
511 2 0.104866 0.123132 0.339143
513 4 0.0875447 0.115044 0.355261
892 2 0.0913642 0.142745 0.391162
893 4 0.115861 0.143387 0.396132
722 4 0.127914 0.151828 0.381195
721 2 0.152719 0.152752 0.3842
723 4 0.177524 0.153677 0.387206
3327 4 0.19131 0.150213 0.400101
248 4 0.233223 0.11862 0.412747
247 2 0.24719 0.120731 0.392116
1693 2 0.313705 0.0811625 0.35797
249 4 0.261156 0.122842 0.371485
695 4 0.274862 0.130694 0.382799
694 2 0.296612 0.140954 0.375955
936 4 0.314587 0.156152 0.3496
1694 4 0.326124 0.101788 0.364719
696 4 0.318362 0.151215 0.369111
579 4 0.34279 0.0980404 0.354563
578 4 0.391827 0.106999 0.358538
577 2 0.367309 0.10252 0.35655
2674 2 0.437363 0.122449 0.334599
2814 4 0.46058 0.156997 0.34473
2676 4 0.454933 0.138177 0.342913
306 4 0.00898944 0.181288 0.343201
304 2 0.0257897 0.191362 0.35874
305 4 0.0425901 0.201436 0.374278
2132 4 0.0613251 0.204753 0.378533
2131 2 0.083368 0.195736 0.386148
3354 4 0.153815 0.190722 0.347475
2133 4 0.105411 0.186719 0.393764
1698 4 0.20425 0.217816 0.386311
1696 2 0.191445 0.233163 0.371288
934 2 0.331934 0.173738 0.345723
4467 4 0.277392 0.231975 0.380795
4465 2 0.273138 0.233408 0.405392
428 4 0.366288 0.200572 0.347022
935 4 0.34928 0.191324 0.341847
427 2 0.39114 0.202609 0.345178
429 4 0.415992 0.204645 0.343334
2812 2 0.446098 0.177042 0.348425
2813 4 0.431615 0.197086 0.35212
3064 2 0.452784 0.238081 0.380422
3066 4 0.47706 0.243495 0.377861
3065 4 0.428508 0.232666 0.382982
3708 4 0.0157643 0.261255 0.387979
1602 4 0.18736 0.257798 0.340243
1600 2 0.180862 0.281658 0.336551
1697 4 0.17864 0.248511 0.356264
1381 2 0.279654 0.251952 0.34815
1382 4 0.288173 0.26148 0.36964
3323 4 0.30296 0.274811 0.372568
3322 2 0.312964 0.294983 0.361696
3324 4 0.322968 0.315155 0.350824
4268 4 0.395564 0.319925 0.354501
4267 2 0.38269 0.316934 0.375726
4269 4 0.369817 0.313943 0.396952
1446 4 0.413821 0.318772 0.363249
2457 4 0.36749 0.333409 0.403227
3473 4 0.495417 0.247385 0.384157
1445 4 0.455689 0.307774 0.33821
1444 2 0.434755 0.313273 0.35073
447 4 0.00674218 0.391657 0.348457
948 4 0.4161 0.394002 0.377329
1908 4 0.464261 0.41096 0.412428
946 2 0.435492 0.406631 0.386799
947 4 0.454883 0.419259 0.396268
1828 2 0.079687 0.495907 0.352782
1829 4 0.0991771 0.48444 0.342113
431 4 0.306055 0.454342 0.402816
3755 4 0.493155 0.473525 0.380342
434 4 0.998428 0.0197769 0.472867
433 2 0.00151594 0.0102547 0.495779
1816 2 0.156064 0.0520969 0.461467
1818 4 0.164935 0.0371252 0.443513
1817 4 0.147193 0.0670685 0.479421
2765 4 0.154824 0.0591067 0.495245
1998 4 0.183099 0.0421881 0.434358
1996 2 0.207279 0.046067 0.439402
1997 4 0.231459 0.0499459 0.444447
3774 4 0.238655 0.0522435 0.462003
1976 4 0.253719 0.00688046 0.435963
3772 2 0.254888 0.0519397 0.481017
2178 4 0.289258 0.0555027 0.492667
2176 2 0.305003 0.0748941 0.491555
3125 4 0.486448 0.0109673 0.495029
2503 2 0.440861 0.00722734 0.491321
2504 4 0.464824 0.00825954 0.498384
2505 4 0.416898 0.00619514 0.484257
3274 2 0.000829466 0.161486 0.453708
528 4 0.0178644 0.143902 0.434546
575 4 0.0922492 0.113113 0.490016
574 2 0.114075 0.110456 0.47811
651 4 0.153521 0.111287 0.475712
576 4 0.1359 0.107799 0.466205
3325 2 0.199562 0.133785 0.417049
516 4 0.237466 0.0871409 0.489689
649 2 0.173393 0.111849 0.460548
650 4 0.193266 0.11241 0.445383
827 4 0.245744 0.0893955 0.471789
3326 4 0.207813 0.117357 0.433997
826 2 0.235592 0.0992071 0.451153
828 4 0.225439 0.109019 0.430517
1850 4 0.325626 0.1061 0.475072
2177 4 0.320749 0.0942855 0.490442
1849 2 0.346878 0.110389 0.462614
1851 4 0.36813 0.114677 0.450157
3236 4 0.382047 0.122165 0.461519
3235 2 0.400009 0.134552 0.449308
3237 4 0.417971 0.14694 0.437097
365 4 0.413909 0.166999 0.436743
3275 4 0.00147087 0.170659 0.47696
4466 4 0.268884 0.234841 0.429989
2810 4 0.285758 0.225596 0.433047
2809 2 0.282079 0.224842 0.457767
2811 4 0.278399 0.224088 0.482487
3131 4 0.292401 0.238757 0.484792
468 4 0.352053 0.167598 0.499661
375 4 0.337364 0.180011 0.499073
364 2 0.418852 0.190665 0.430365
366 4 0.423795 0.214332 0.423988
383 4 0.433419 0.219448 0.439996
382 2 0.446035 0.229856 0.45891
384 4 0.458652 0.240263 0.477823
569 4 0.0395298 0.315912 0.490502
614 4 0.0231664 0.324339 0.499341
1821 4 0.191935 0.314845 0.444054
1819 2 0.206608 0.300027 0.457849
1820 4 0.221282 0.285208 0.471644
2105 4 0.224324 0.279136 0.490669
568 2 0.0538336 0.335753 0.495693
570 4 0.0681375 0.355593 0.500884
1143 4 0.1424 0.339642 0.439816
4433 4 0.0859426 0.365396 0.502231
4432 2 0.0974015 0.382594 0.488155
4434 4 0.10886 0.399791 0.47408
1142 4 0.191897 0.333702 0.435866
1141 2 0.167149 0.336672 0.437841
2344 2 0.297512 0.412867 0.482812
2455 2 0.369857 0.339674 0.427316
2355 4 0.380857 0.364119 0.45219
2353 2 0.389355 0.368796 0.475236
2456 4 0.372225 0.34594 0.451406
1906 2 0.478025 0.415798 0.432734
980 4 0.470104 0.339304 0.490512
979 2 0.486975 0.351365 0.476544
432 4 0.303218 0.427415 0.444861
430 2 0.304637 0.440879 0.423839
2346 4 0.292591 0.422776 0.460389
1811 4 0.490098 0.438652 0.459806
1907 4 0.491789 0.420636 0.45304
3358 2 0.0335105 0.0225192 0.545299
3360 4 0.0379416 0.0234242 0.520707
3359 4 0.0290793 0.0216143 0.56989
2276 4 0.0867207 0.0229959 0.562733
2764 2 0.147095 0.0753342 0.512625
4239 4 0.164363 0.066893 0.583399
2275 2 0.0951601 0.042823 0.575415
3773 4 0.271122 0.0516359 0.500032
4180 2 0.364154 0.0667547 0.550022
2982 4 0.394065 0.0525055 0.527715
4181 4 0.382088 0.0660521 0.532612
4182 4 0.346221 0.0674573 0.567432
2980 2 0.417691 0.060674 0.528212
2981 4 0.441318 0.0688426 0.528708
1150 2 0.0175633 0.126661 0.559429
1152 4 0.0394379 0.130469 0.547932
3525 4 0.0516146 0.115425 0.541643
3523 2 0.0644247 0.11883 0.520442
3524 4 0.0772347 0.122235 0.49924
2766 4 0.139365 0.0915617 0.530006
514 2 0.237013 0.102373 0.509512
515 4 0.23656 0.117605 0.529336
2589 4 0.253138 0.1263 0.537086
2587 2 0.27768 0.1276 0.532484
2588 4 0.302222 0.128901 0.527883
2232 4 0.282129 0.149822 0.570831
3084 4 0.317261 0.115403 0.575626
3082 2 0.302268 0.0963492 0.581736
1269 4 0.376243 0.138613 0.55414
467 4 0.377239 0.153128 0.540367
466 2 0.364646 0.160363 0.520014
1267 2 0.385989 0.120971 0.568937
3489 4 0.439119 0.0854079 0.519775
3488 4 0.482138 0.110905 0.519446
3487 2 0.460628 0.0981566 0.51961
2519 4 0.493653 0.0941595 0.515645
1146 4 0.0271985 0.215312 0.535825
4002 4 0.0142181 0.203815 0.525006
1144 2 0.0496407 0.213137 0.546633
1145 4 0.0720829 0.210962 0.557441
4000 2 0.00222834 0.189448 0.508422
4581 4 0.0900766 0.210285 0.549388
4579 2 0.105167 0.226803 0.560552
504 4 0.126203 0.230157 0.525778
502 2 0.14996 0.228177 0.518237
4580 4 0.120257 0.243321 0.571716
503 4 0.173717 0.226198 0.510697
3463 2 0.195599 0.19645 0.51424
3465 4 0.217448 0.186093 0.520608
732 4 0.233442 0.19544 0.513601
3464 4 0.17375 0.206806 0.507871
374 4 0.289035 0.18431 0.511181
373 2 0.313199 0.182161 0.505127
730 2 0.256779 0.191327 0.52158
731 4 0.280116 0.187214 0.529558
3130 2 0.305597 0.247342 0.504217
4421 4 0.27233 0.208022 0.576291
2106 4 0.202256 0.288208 0.534618
2104 2 0.21329 0.283672 0.512643
3141 4 0.233817 0.29793 0.564891
3159 4 0.226785 0.30896 0.579291
3132 4 0.318793 0.255928 0.523642
3139 2 0.257385 0.294895 0.55711
3140 4 0.280952 0.291861 0.549329
1251 4 0.294653 0.288902 0.562558
1249 2 0.316323 0.301077 0.565275
3424 2 0.378633 0.322456 0.563079
1250 4 0.337993 0.313252 0.567991
3426 4 0.357379 0.31334 0.572586
1360 2 0.306506 0.384683 0.5344
1361 4 0.322021 0.37717 0.552511
3120 4 0.31965 0.3733 0.571539
1362 4 0.290991 0.392196 0.516288
2345 4 0.302434 0.402959 0.505235
3425 4 0.399886 0.331571 0.553572
3118 2 0.34149 0.364777 0.580231
930 4 0.407607 0.381253 0.5145
929 4 0.411872 0.337948 0.539145
928 2 0.409739 0.359601 0.526822
2354 4 0.397853 0.373472 0.498282
2376 4 0.489198 0.342188 0.556947
2374 2 0.482971 0.342463 0.532733
2375 4 0.476745 0.342739 0.508518
2926 2 0.00764776 0.453713 0.565906
2927 4 0.0100495 0.478474 0.56842
1569 4 0.0506353 0.482987 0.576781
2928 4 0.00524604 0.428952 0.563392
1947 4 0.399542 0.493415 0.507448
2193 4 0.0937366 0.0796136 0.639438
2277 4 0.103599 0.0626502 0.588098
4238 4 0.117416 0.0704884 0.600248
4237 2 0.14089 0.0686907 0.591824
4370 4 0.169107 0.0561972 0.598939
4369 2 0.192986 0.0488346 0.599828
2604 4 0.226013 0.0602421 0.604884
4371 4 0.216865 0.0414719 0.600718
2602 2 0.247335 0.0714978 0.598258
3083 4 0.287275 0.0772951 0.587846
2603 4 0.268656 0.0827535 0.591633
3868 2 0.356925 0.0220981 0.651169
3869 4 0.365701 0.0449724 0.646174
4163 4 0.369886 0.0614814 0.656144
3870 4 0.34815 0.999224 0.656164
1990 2 0.0692265 0.105132 0.613765
1991 4 0.0512583 0.113819 0.598703
2700 4 0.9986 0.145507 0.622587
1992 4 0.0871948 0.0964446 0.628827
2191 2 0.0981786 0.0875593 0.662725
2231 4 0.280372 0.156945 0.620297
2230 2 0.28125 0.153384 0.595564
3264 4 0.298782 0.160735 0.628496
1268 4 0.395735 0.103329 0.583734
938 4 0.453873 0.14372 0.659835
3198 4 0.468675 0.134152 0.650884
3196 2 0.489757 0.13421 0.664327
4347 4 0.152825 0.248703 0.6173
4422 4 0.235835 0.197291 0.608752
4420 2 0.254083 0.202657 0.592521
3262 2 0.289553 0.178484 0.643494
2152 2 0.290453 0.232897 0.659141
3263 4 0.280324 0.196234 0.658492
2154 4 0.274794 0.214085 0.664245
1194 4 0.401368 0.226048 0.669494
1192 2 0.420109 0.23664 0.656775
3364 2 0.480823 0.238371 0.655597
3365 4 0.458133 0.244756 0.647255
1193 4 0.438851 0.247231 0.644056
4345 2 0.134815 0.253022 0.600502
4346 4 0.116805 0.257342 0.583703
3157 2 0.214345 0.32245 0.596275
1079 4 0.325594 0.305264 0.637598
2153 4 0.306113 0.251709 0.654037
1078 2 0.318734 0.328958 0.633511
3026 4 0.342108 0.301919 0.646911
3027 4 0.391026 0.306552 0.656197
3025 2 0.366567 0.304235 0.651554
902 4 0.0130697 0.406069 0.606585
1325 4 0.0290115 0.401305 0.618468
1324 2 0.0521035 0.399988 0.627966
1326 4 0.0751955 0.398671 0.637464
2310 4 0.0843934 0.411991 0.647994
3158 4 0.201905 0.33594 0.613259
1080 4 0.311874 0.352653 0.629423
2414 4 0.312301 0.374038 0.626567
2413 2 0.331139 0.388674 0.634056
4307 4 0.290531 0.389517 0.661278
3119 4 0.363331 0.356253 0.588923
2415 4 0.349978 0.403309 0.641545
2015 4 0.381648 0.348514 0.596564
2014 2 0.399694 0.364734 0.602599
2016 4 0.41774 0.380954 0.608633
1178 4 0.428587 0.39959 0.610051
1177 2 0.450369 0.398362 0.622268
1179 4 0.47215 0.397134 0.634484
2308 2 0.10453 0.425582 0.65391
2309 4 0.124666 0.439173 0.659827
1136 4 0.349971 0.423599 0.636478
1135 2 0.370748 0.43243 0.647227
1137 4 0.391525 0.441261 0.657975
3055 2 0.415144 0.470919 0.66357
3057 4 0.434713 0.484864 0.656658
3282 4 0.216252 0.0631706 0.746061
3280 2 0.19379 0.07321 0.741601
99 3 0.230608 0.0724809 0.735028
96 1 0.241649 0.0711757 0.714661
97 3 0.249082 0.0496229 0.7116
3281 4 0.171329 0.0832494 0.737141
98 3 0.227118 0.07662 0.697409
4162 2 0.379321 0.0757261 0.6744
634 2 0.403433 0.0792029 0.733007
635 4 0.414691 0.0716874 0.75403
3116 4 0.0861275 0.1381 0.70729
444 4 0.100979 0.0912912 0.750722
442 2 0.107841 0.0904666 0.726692
2192 4 0.102621 0.095505 0.686013
443 4 0.114703 0.089642 0.702662
3115 2 0.0921975 0.157479 0.692702
1256 4 0.171213 0.101752 0.742906
100 3 0.259479 0.0853444 0.714566
1185 4 0.250209 0.10095 0.707221
1183 2 0.265461 0.11805 0.697212
1184 4 0.280712 0.13515 0.687203
459 4 0.282129 0.1484 0.702547
457 2 0.29984 0.165968 0.700852
636 4 0.392176 0.0867184 0.711984
4164 4 0.388755 0.0899708 0.692655
937 2 0.440947 0.162318 0.670428
3143 4 0.0159483 0.22124 0.725446
3142 2 0.0326184 0.215064 0.743029
3117 4 0.0982674 0.176857 0.678113
2199 4 0.215839 0.186718 0.742379
458 4 0.317551 0.183536 0.699158
3095 4 0.394569 0.237705 0.684915
3096 4 0.391842 0.197428 0.71443
3094 2 0.393206 0.217567 0.699672
3381 4 0.379226 0.240572 0.748687
939 4 0.42802 0.180916 0.681022
821 4 0.484819 0.175455 0.731627
897 4 0.0999826 0.320131 0.730832
895 2 0.122067 0.329743 0.724117
1905 4 0.154937 0.332382 0.733483
290 4 0.213608 0.324809 0.711262
2035 2 0.32562 0.324516 0.694603
2036 4 0.329556 0.306935 0.711941
2984 4 0.337452 0.332578 0.743192
1166 4 0.0196067 0.396074 0.686897
1209 4 0.0395621 0.351943 0.746216
1207 2 0.0617328 0.340842 0.742994
951 4 0.0217078 0.354372 0.737319
888 4 0.0310333 0.410016 0.695279
896 4 0.144151 0.339355 0.717402
1208 4 0.0839036 0.32974 0.739772
289 2 0.229176 0.342859 0.703709
291 4 0.244744 0.360909 0.696157
1903 2 0.177499 0.332326 0.744259
2037 4 0.321683 0.342097 0.677265
4308 4 0.265221 0.362869 0.695191
4306 2 0.277876 0.376193 0.678234
3207 4 0.319524 0.340058 0.747158
3151 2 0.296925 0.409403 0.730633
3152 4 0.319728 0.399553 0.727771
2858 4 0.332876 0.414015 0.72438
2983 2 0.353908 0.350244 0.736689
2985 4 0.370364 0.36791 0.730185
4521 4 0.390322 0.362496 0.729704
4519 2 0.410216 0.37624 0.736072
4520 4 0.43011 0.389984 0.74244
886 2 0.0450217 0.423304 0.711184
887 4 0.0590101 0.436592 0.727088
3449 4 0.0630319 0.452906 0.738285
3448 2 0.0851068 0.457774 0.7276
3642 4 0.138951 0.438736 0.675117
3640 2 0.132849 0.448134 0.69747
3450 4 0.107182 0.462642 0.716915
3641 4 0.126747 0.457533 0.719822
3153 4 0.274122 0.419253 0.733494
3087 4 0.258182 0.482266 0.668031
1121 4 0.280122 0.488836 0.750223
1120 2 0.298295 0.471662 0.750225
3056 4 0.395575 0.456973 0.670481
2857 2 0.340898 0.426767 0.704424
2859 4 0.34892 0.43952 0.684468
1920 4 0.353478 0.458239 0.684035
1918 2 0.347887 0.480838 0.674913
844 2 0.217704 0.0500283 0.800981
846 4 0.206739 0.0334309 0.785833
845 4 0.228669 0.0666257 0.81613
2979 4 0.236813 0.0810624 0.827963
2565 4 0.262156 0.998719 0.831848
450 4 0.416487 0.00737288 0.791467
2091 4 0.430876 0.0600857 0.753459
2090 4 0.421526 0.0151317 0.773268
2089 2 0.426201 0.0376087 0.763364
2988 4 0.0811535 0.0910344 0.7574
1942 2 0.0112901 0.112257 0.788365
1944 4 0.0230975 0.0918435 0.796675
2987 4 0.0402033 0.089388 0.786056
2986 2 0.0606784 0.0902112 0.771728
1943 4 0.999483 0.132671 0.780055
1255 2 0.174908 0.120674 0.758828
1257 4 0.178604 0.139596 0.774749
2198 4 0.186412 0.151012 0.761349
2977 2 0.261033 0.087231 0.828692
2978 4 0.285253 0.0933996 0.829421
3144 4 0.0492886 0.208887 0.760612
1229 4 0.0171479 0.189992 0.807801
1228 2 0.0364152 0.199692 0.795157
1230 4 0.0556825 0.209393 0.782514
3387 4 0.077299 0.206815 0.828129
3410 4 0.00854981 0.189186 0.789198
3385 2 0.093386 0.218176 0.812723
3386 4 0.109473 0.229537 0.797318
2796 4 0.124226 0.239277 0.787508
2048 4 0.214992 0.201203 0.756796
2197 2 0.201125 0.168865 0.751864
2047 2 0.234122 0.212321 0.768442
3104 4 0.274369 0.222728 0.781725
2049 4 0.253251 0.223439 0.780088
3103 2 0.298696 0.227202 0.778068
3105 4 0.323024 0.231675 0.774411
3380 4 0.331893 0.226893 0.757239
3379 2 0.355559 0.233732 0.752963
2794 2 0.120408 0.262891 0.794788
2795 4 0.116591 0.286506 0.802068
275 4 0.117026 0.304018 0.812301
274 2 0.112312 0.326437 0.802286
2760 4 0.18411 0.258126 0.823439
1010 4 0.187627 0.273303 0.812459
1009 2 0.202839 0.280842 0.794103
1011 4 0.21805 0.288382 0.775747
1281 4 0.236865 0.282488 0.772476
1279 2 0.258217 0.295218 0.775162
1280 4 0.279569 0.307948 0.777848
4091 4 0.287251 0.291848 0.785517
4090 2 0.311748 0.293907 0.780952
4092 4 0.336245 0.295967 0.776386
1613 4 0.351419 0.292575 0.788531
1612 2 0.360119 0.31518 0.782323
276 4 0.107598 0.348857 0.792272
2065 2 0.0953806 0.382222 0.809429
2067 4 0.0939309 0.364464 0.791887
2066 4 0.0968304 0.39998 0.826972
1904 4 0.200061 0.332269 0.755036
3337 2 0.22666 0.343282 0.767273
3338 4 0.201933 0.345155 0.770475
3205 2 0.295441 0.342672 0.753354
3206 4 0.271358 0.345286 0.75955
3339 4 0.251387 0.341409 0.764072
1065 4 0.272822 0.382639 0.789066
1063 2 0.277105 0.366836 0.807964
1064 4 0.281389 0.351033 0.826861
1614 4 0.368819 0.337784 0.776115
884 4 0.3419 0.406155 0.791692
3170 4 0.355652 0.397697 0.778873
3169 2 0.362262 0.374565 0.785683
3171 4 0.368872 0.351432 0.792493
3000 4 0.343364 0.391395 0.830217
1190 4 0.472418 0.410725 0.785968
1191 4 0.434551 0.387679 0.762822
1189 2 0.453485 0.399202 0.774395
3165 4 0.488115 0.400546 0.793512
1214 4 0.17065 0.431993 0.792585
3295 2 0.242308 0.469423 0.764491
1213 2 0.188738 0.448272 0.786839
3296 4 0.224822 0.455591 0.775809
1215 4 0.206826 0.464551 0.781092
1122 4 0.316468 0.454489 0.750227
3297 4 0.259794 0.483255 0.753173
885 4 0.326111 0.445528 0.765213
4134 4 0.408136 0.502432 0.774538
883 2 0.334006 0.425842 0.778453
3532 2 0.496052 0.494852 0.819812
3534 4 0.475691 0.486624 0.831766
3018 4 0.00771394 0.0303197 0.91142
3016 2 0.0154249 0.00680097 0.90787
87 3 0.23044 0.00455423 0.901076
86 1 0.226866 0.0252349 0.910493
88 3 0.231032 0.0415626 0.894541
2423 4 0.232072 0.0746324 0.87082
2422 2 0.209028 0.0794769 0.879226
1004 4 0.375957 0.0233748 0.902014
1003 2 0.35566 0.0378723 0.903764
2522 4 0.425092 0.0071644 0.859021
1840 2 0.473332 0.0701183 0.903896
1842 4 0.454466 0.0571637 0.893824
2523 4 0.453922 0.0389335 0.884717
2521 2 0.439507 0.023049 0.871869
1841 4 0.492198 0.0830729 0.913969
3355 2 0.127303 0.147014 0.851645
3357 4 0.124201 0.125055 0.863192
657 4 0.141427 0.124021 0.875932
655 2 0.163804 0.112869 0.875626
656 4 0.186181 0.101717 0.87532
2424 4 0.185983 0.0843214 0.887632
2598 4 0.290477 0.0896296 0.848587
2596 2 0.304562 0.107638 0.858711
2597 4 0.318647 0.125646 0.868836
3362 4 0.365683 0.119691 0.896169
3361 2 0.39003 0.119078 0.890506
3363 4 0.414376 0.118465 0.884844
3137 4 0.359927 0.12349 0.914073
2996 4 0.435255 0.121205 0.886142
2995 2 0.455099 0.128312 0.899591
3245 4 0.468296 0.168573 0.90677
2997 4 0.474944 0.135419 0.913041
210 3 0.00997398 0.243592 0.853393
3479 4 0.0339008 0.208937 0.86886
3478 2 0.0536086 0.201497 0.85539
3480 4 0.0733164 0.194057 0.84192
208 3 0.0143934 0.207612 0.863569
3356 4 0.130406 0.168974 0.840098
1421 4 0.122176 0.213933 0.906435
780 4 0.149941 0.171443 0.83552
779 4 0.195759 0.183087 0.851827
778 2 0.17285 0.177265 0.843674
3823 2 0.23686 0.230735 0.877366
3825 4 0.216559 0.220174 0.867291
2759 4 0.215335 0.228579 0.848988
2758 2 0.199723 0.243352 0.836214
2571 4 0.269582 0.229267 0.899361
2569 2 0.290777 0.217861 0.892589
2570 4 0.311972 0.206455 0.885817
3824 4 0.257161 0.241296 0.887442
2063 4 0.472493 0.211588 0.876266
2062 2 0.493816 0.207182 0.863972
3405 4 0.458015 0.222574 0.869228
3403 2 0.442427 0.241755 0.865444