ITEM: TIMESTEP
2634500
ITEM: NUMBER OF ATOMS
4590
ITEM: BOX BOUNDS xy xz yz pp pp pp
-1.6197683399999988e+01 9.9985700000000008e+00 -6.1991133999999875e+00
-9.9985700000000008e+00 9.9985700000000008e+00 0.0000000000000000e+00
-9.9985700000000008e+00 9.9985700000000008e+00 0.0000000000000000e+00
ITEM: ATOMS id type xs ys zs
2785 2 0.412207 0.0067281 0.0379554
2606 4 0.456911 0.0196227 0.0392446
2786 4 0.437653 0.0168247 0.032931
2605 2 0.478769 0.0128411 0.0415072
2607 4 0.500626 0.00605936 0.0437698
1760 4 0.21752 0.132 0.00645232
1071 4 0.218764 0.10596 0.0349228
1069 2 0.244649 0.112411 0.031303
1070 4 0.270534 0.118862 0.0276833
1109 4 0.287891 0.120908 0.037124
1108 2 0.313963 0.129034 0.0392269
1110 4 0.340035 0.137161 0.0413297
67 3 0.360076 0.137288 0.0372446
69 3 0.373522 0.130665 0.00365049
68 3 0.385219 0.11685 0.0352447
66 1 0.37923 0.134759 0.0260547
70 3 0.397411 0.153827 0.0281878
4505 4 0.41428 0.153908 0.040153
4504 2 0.438648 0.157149 0.0484489
4506 4 0.463016 0.160389 0.0567448
2773 2 0.112881 0.234063 0.0609713
2775 4 0.132283 0.238381 0.0442311
284 4 0.152067 0.238566 0.0486778
2774 4 0.0934785 0.229746 0.0777116
283 2 0.176308 0.238702 0.0549715
285 4 0.200549 0.238839 0.0612652
960 4 0.483175 0.169811 0.0565044
617 4 0.0126397 0.326769 0.0720248
1593 4 0.0386145 0.328509 0.0140116
1198 2 0.0874846 0.318201 0.0585513
1199 4 0.0919504 0.296034 0.0562532
2610 4 0.111645 0.294633 0.0498652
2608 2 0.134389 0.302561 0.0375843
2609 4 0.157133 0.310489 0.0253033
3213 4 0.174213 0.315763 0.0354709
3211 2 0.196826 0.313158 0.0438302
3212 4 0.219439 0.310554 0.0521895
1826 4 0.237041 0.304361 0.0569138
1825 2 0.226305 0.279849 0.0607261
1827 4 0.215569 0.255338 0.0645384
2632 2 0.309667 0.27816 0.0720946
2634 4 0.296818 0.261893 0.0547844
3369 4 0.293605 0.265865 0.0353347
3367 2 0.308654 0.26642 0.0152461
2974 2 0.422175 0.277753 0.0148833
2975 4 0.397939 0.270349 0.0054517
2976 4 0.446411 0.285157 0.024315
4437 4 0.465579 0.284344 0.0248247
4435 2 0.484633 0.292021 0.0418018
704 4 0.450969 0.330102 0.0791463
783 4 0.0253795 0.409851 0.00542546
145 3 0.0109175 0.385328 0.0778198
781 2 0.0042764 0.411598 0.0178209
1200 4 0.0830187 0.340367 0.0608493
2458 2 0.0763175 0.395587 0.0659294
2459 4 0.0849388 0.401379 0.042583
3042 4 0.102783 0.414436 0.014697
639 4 0.0886619 0.416397 0.028916
3744 4 0.101465 0.353443 0.0578366
3742 2 0.116265 0.369408 0.0743673
904 2 0.135561 0.361607 0.0145983
906 4 0.153887 0.372748 0.0313275
4586 4 0.173127 0.372868 0.027363
4585 2 0.197194 0.372492 0.0210237
4587 4 0.22126 0.372115 0.0146844
915 4 0.292516 0.350844 0.0829759
3101 4 0.349857 0.333897 0.0288022
3100 2 0.365747 0.340243 0.0485773
3102 4 0.381638 0.346588 0.0683524
3218 4 0.402649 0.356242 0.0667945
3217 2 0.428771 0.362838 0.0653869
3219 4 0.454892 0.369434 0.0639792
4358 4 0.471236 0.376297 0.052591
4357 2 0.492813 0.383471 0.0384773
638 4 0.0450422 0.421401 0.0080522
4481 4 0.0151416 0.474524 0.00909521
637 2 0.0668521 0.418899 0.0184841
1133 4 0.119978 0.499293 0.00574239
1132 2 0.144013 0.496748 0.00415564
1134 4 0.168047 0.494204 0.00256889
2087 4 0.265701 0.46607 0.0108263
2163 4 0.368479 0.497897 0.0568261
560 4 0.382518 0.498491 0.0434669
1319 4 0.398832 0.460619 0.0697429
1318 2 0.417067 0.454545 0.0561943
1320 4 0.435302 0.448472 0.0426458
1514 4 0.018199 0.0778914 0.134678
654 4 0.349206 0.0655697 0.147009
1481 4 0.390157 0.00466731 0.16219
1480 2 0.402561 0.0101162 0.140265
1482 4 0.414965 0.0155652 0.118341
298 2 0.0116691 0.144637 0.118834
2757 4 0.0314697 0.0873413 0.149376
292 2 0.0519965 0.158182 0.15929
299 4 0.0371795 0.153606 0.124135
2755 2 0.0477098 0.107669 0.138737
2756 4 0.0639498 0.127997 0.128099
2942 4 0.196988 0.141555 0.15617
2941 2 0.222909 0.145613 0.156858
370 2 0.267863 0.137434 0.123521
371 4 0.280784 0.120344 0.122445
372 4 0.254942 0.154525 0.124597
2943 4 0.248829 0.149671 0.157545
294 4 0.0522062 0.166963 0.136014
4075 2 0.26025 0.222647 0.159653
761 4 0.301591 0.230435 0.109587
2621 4 0.272883 0.167818 0.12075
2622 4 0.295368 0.213019 0.101108
2620 2 0.284125 0.190419 0.110929
33 3 0.300724 0.174099 0.157559
4077 4 0.275092 0.208639 0.151851
32 3 0.273281 0.191556 0.162894
2936 4 0.321854 0.178518 0.154287
2670 4 0.393668 0.230144 0.102403
2572 2 0.00992725 0.286563 0.134628
2573 4 0.020742 0.277837 0.153767
641 4 0.211955 0.275836 0.111076
640 2 0.216378 0.291382 0.130654
642 4 0.220801 0.306929 0.150233
1764 4 0.220818 0.324145 0.160556
2633 4 0.322515 0.294427 0.0894049
760 2 0.307979 0.250995 0.123818
708 4 0.322653 0.312365 0.0938574
706 2 0.330105 0.319051 0.117342
762 4 0.314367 0.271555 0.138048
707 4 0.337557 0.325737 0.140826
2669 4 0.412439 0.279393 0.0944673
2668 2 0.403053 0.254769 0.0984351
705 4 0.43283 0.281975 0.0923478
703 2 0.441899 0.306039 0.085747
1103 4 0.450166 0.332331 0.163166
690 4 0.461446 0.317935 0.163402
141 1 0.02437 0.384965 0.0961094
142 3 0.0266375 0.40394 0.108601
144 3 0.013823 0.366377 0.109148
2460 4 0.0676962 0.389796 0.0892758
143 3 0.0464469 0.384476 0.0894712
2718 4 0.143687 0.382959 0.10583
3743 4 0.131065 0.385373 0.090898
507 4 0.151376 0.349005 0.15199
2716 2 0.167447 0.388423 0.116243
2403 4 0.160089 0.345846 0.135807
2717 4 0.191206 0.393887 0.126656
4314 4 0.198587 0.409971 0.13847
2401 2 0.183743 0.343765 0.130292
2402 4 0.207397 0.341684 0.124777
752 4 0.226321 0.338891 0.128862
751 2 0.241922 0.354974 0.112929
2896 2 0.269987 0.406342 0.104901
2898 4 0.275364 0.386353 0.0953263
753 4 0.257524 0.371058 0.0969972
913 2 0.316045 0.360118 0.0935878
914 4 0.339573 0.369392 0.1042
1047 4 0.350611 0.383489 0.0913434
1045 2 0.373961 0.400661 0.0890347
387 4 0.417487 0.417203 0.0837349
1290 4 0.399183 0.412621 0.157523
4276 2 0.438691 0.410983 0.155387
4278 4 0.458947 0.401587 0.155053
688 2 0.484651 0.335127 0.160217
2779 2 0.0126066 0.423667 0.127457
2780 4 0.0382095 0.432762 0.122619
1413 4 0.0566257 0.442192 0.11525
1411 2 0.0727519 0.455268 0.132813
1412 4 0.0888782 0.468345 0.150376
323 4 0.131533 0.46733 0.126716
322 2 0.154152 0.479525 0.137743
1847 4 0.0965352 0.459883 0.166535
324 4 0.176771 0.491721 0.14877
4312 2 0.223098 0.419512 0.130128
4313 4 0.24761 0.429053 0.121786
2897 4 0.264611 0.42633 0.114476
1801 2 0.355243 0.485964 0.143597
1802 4 0.339555 0.496874 0.155535
2741 4 0.362545 0.469824 0.112913
2740 2 0.379466 0.460926 0.100313
1289 4 0.379868 0.451175 0.151474
1803 4 0.37093 0.475054 0.13166
1046 4 0.397312 0.417834 0.0867259
2742 4 0.396386 0.452029 0.087714
4277 4 0.418436 0.42038 0.155722
1288 2 0.389525 0.431898 0.154498
386 4 0.466885 0.420149 0.0956253
385 2 0.442186 0.418676 0.0896801
3663 4 0.488206 0.426759 0.0947158
2890 2 0.0326904 0.0398752 0.245834
2891 4 0.0488387 0.0310989 0.231973
252 4 0.058778 0.0251079 0.217339
250 2 0.0774987 0.0437182 0.206799
251 4 0.0962195 0.0623285 0.196259
652 2 0.360426 0.0591211 0.167228
653 4 0.371647 0.0526725 0.187448
1406 4 0.388023 0.068389 0.185622
1405 2 0.412182 0.0747654 0.195237
1407 4 0.436342 0.0811419 0.204853
2644 2 0.499445 0.0152142 0.222034
2472 4 0.455187 0.0764761 0.206017
2470 2 0.475672 0.0765218 0.19166
2471 4 0.496157 0.0765675 0.177303
3508 2 0.0112175 0.121182 0.190443
293 4 0.0517868 0.149401 0.182566
3509 4 0.036653 0.134016 0.190123
3270 4 0.158648 0.151341 0.200036
3268 2 0.172058 0.151248 0.221121
3269 4 0.185468 0.151155 0.242206
488 4 0.210698 0.155758 0.213421
35 3 0.264676 0.154938 0.169561
487 2 0.235931 0.15799 0.217657
489 4 0.261164 0.160222 0.221894
396 4 0.269771 0.160658 0.240789
2707 2 0.015304 0.239336 0.166899
2709 4 0.0374437 0.242669 0.179884
2533 2 0.0157294 0.176907 0.19009
2534 4 0.0404856 0.188398 0.196722
713 4 0.0607645 0.194488 0.201793
255 4 0.0167436 0.21736 0.247443
253 2 0.0427584 0.227244 0.248309
254 4 0.0687731 0.237128 0.249175
712 2 0.0822677 0.202857 0.215851
714 4 0.103771 0.211227 0.229909
4076 4 0.245408 0.236655 0.167456
31 1 0.281848 0.174847 0.170702
34 3 0.288988 0.179493 0.19271
2753 4 0.306796 0.187041 0.203365
2752 2 0.319532 0.206643 0.217386
2754 4 0.332268 0.226244 0.231408
2935 2 0.343496 0.183089 0.16826
1232 4 0.364222 0.224883 0.225063
933 4 0.382198 0.235858 0.216987
311 4 0.368574 0.178049 0.197857
2937 4 0.365138 0.187661 0.182233
1231 2 0.37444 0.221355 0.247081
310 2 0.393776 0.179672 0.194326
312 4 0.418979 0.181295 0.190794
3015 4 0.460781 0.240721 0.202008
246 4 0.0155139 0.287167 0.22074
338 4 0.0036021 0.285302 0.238158
244 2 0.0150515 0.28482 0.195848
245 4 0.014589 0.282473 0.170957
2945 4 0.0557746 0.252195 0.171069
2944 2 0.0746724 0.271587 0.180186
2946 4 0.0935701 0.290978 0.189303
2910 4 0.111308 0.295353 0.200699
2908 2 0.137458 0.30321 0.20173
2909 4 0.163609 0.311067 0.20276
1763 4 0.176327 0.309226 0.186803
1762 2 0.198573 0.316686 0.173679
931 2 0.376592 0.250578 0.199521
932 4 0.370986 0.265299 0.182054
1104 4 0.4021 0.308966 0.180148
1102 2 0.426133 0.320649 0.171657
3013 2 0.470832 0.260932 0.216234
3014 4 0.480883 0.281143 0.23046
505 2 0.134351 0.346684 0.170802
506 4 0.117326 0.344363 0.189615
1848 4 0.0835338 0.459891 0.214823
1846 2 0.0900345 0.459887 0.190679
1863 4 0.0812774 0.454202 0.234094
1388 4 0.110072 0.433204 0.244442
1387 2 0.129072 0.434224 0.227857
1389 4 0.148071 0.435243 0.211272
2657 4 0.167658 0.449027 0.215412
2656 2 0.192766 0.449985 0.218361
2658 4 0.217874 0.450943 0.221311
855 4 0.23383 0.462562 0.23016
853 2 0.259627 0.467379 0.23352
854 4 0.285425 0.472195 0.23688
4198 2 0.436164 0.464261 0.231933
4200 4 0.423582 0.441404 0.24045
483 4 0.442456 0.488681 0.203419
4199 4 0.448745 0.487117 0.223415
2892 4 0.0165421 0.0486516 0.259695
735 4 0.0110383 0.0464077 0.316024
3503 4 0.0114861 0.0598868 0.271941
2125 2 0.145876 0.000749231 0.283675
2127 4 0.121499 0.000509802 0.289552
2126 4 0.170252 0.000988661 0.277799
1677 4 0.23172 0.0158911 0.286402
1695 4 0.244774 0.0171997 0.302748
1675 2 0.206274 0.00315184 0.287279
1693 2 0.263447 0.0382364 0.308662
1694 4 0.28212 0.0592732 0.314577
1490 4 0.321463 0.00269767 0.292429
1517 4 0.318329 0.0612131 0.316145
1371 4 0.415185 0.0186804 0.2678
1369 2 0.432573 0.0140465 0.283591
544 2 0.494031 0.0257526 0.283114
545 4 0.471044 0.0150824 0.294253
1370 4 0.449962 0.00941263 0.299381
429 4 0.108217 0.16625 0.327204
2847 4 0.195082 0.163463 0.256124
394 2 0.288309 0.163488 0.25826
20 3 0.277618 0.154664 0.318232
2679 4 0.276716 0.114684 0.314773
2677 2 0.263374 0.093249 0.325768
16 1 0.296966 0.149598 0.31079
19 3 0.298523 0.151686 0.287699
1516 2 0.312524 0.0826288 0.319561
17 3 0.295255 0.127887 0.316498
18 3 0.316893 0.163729 0.32064
1518 4 0.306718 0.104044 0.322976
620 4 0.0841171 0.235612 0.260107
3108 4 0.179535 0.240773 0.272039
3106 2 0.201224 0.233633 0.270352
2845 2 0.210523 0.185806 0.263438
3107 4 0.222913 0.226492 0.268664
2846 4 0.225963 0.208149 0.270751
2462 4 0.243991 0.213639 0.28141
2461 2 0.269576 0.225719 0.279905
2463 4 0.295161 0.237799 0.2784
1796 4 0.316548 0.241044 0.279089
395 4 0.306848 0.166319 0.275731
1766 4 0.337039 0.17591 0.315933
1765 2 0.360633 0.192268 0.31212
1233 4 0.384658 0.217827 0.269099
1767 4 0.384226 0.208626 0.308307
677 4 0.403848 0.180082 0.271727
676 2 0.421959 0.179852 0.28889
678 4 0.440069 0.179623 0.306052
2918 4 0.437602 0.170747 0.32493
619 2 0.104952 0.255663 0.263179
621 4 0.125787 0.275714 0.266251
683 4 0.146239 0.282127 0.270926
682 2 0.165493 0.271423 0.269898
684 4 0.184747 0.260718 0.268869
1795 2 0.327232 0.251484 0.300553
1797 4 0.337916 0.261923 0.322017
3818 4 0.0300296 0.381144 0.298084
581 4 0.0195588 0.387379 0.312109
494 4 0.072001 0.362151 0.291321
3819 4 0.0614668 0.3528 0.306992
3817 2 0.0457482 0.366972 0.302538
493 2 0.0949933 0.368395 0.279371
495 4 0.117986 0.374639 0.267421
411 4 0.158019 0.409492 0.316529
409 2 0.147669 0.398667 0.295103
410 4 0.137318 0.387841 0.273677
446 4 0.165257 0.395858 0.323845
2689 2 0.267734 0.407913 0.253911
2691 4 0.282378 0.392348 0.251951
3321 4 0.334179 0.337724 0.286538
3320 4 0.300255 0.350404 0.316653
3319 2 0.317217 0.344064 0.301596
2600 4 0.366073 0.388353 0.254233
2601 4 0.351289 0.343082 0.275465
2599 2 0.358681 0.365718 0.264849
2661 4 0.00305006 0.451221 0.304131
2508 4 0.0671368 0.482049 0.302055
2506 2 0.0441131 0.465428 0.307493
2507 4 0.0210895 0.448808 0.312931
1861 2 0.0902505 0.47083 0.252372
1862 4 0.0992236 0.487458 0.270651
2690 4 0.25309 0.423479 0.25587
3704 4 0.350555 0.436679 0.327544
733 2 0.0225118 0.0564322 0.337347
734 4 0.0339852 0.0664568 0.358671
1622 4 0.0462264 0.0535761 0.360023
1621 2 0.0666601 0.0514483 0.37328
1623 4 0.0870938 0.0493206 0.386536
3668 4 0.124803 0.025181 0.398987
577 2 0.176044 0.068739 0.346061
578 4 0.158496 0.0492448 0.335441
3667 2 0.113464 0.000760549 0.395164
2678 4 0.250031 0.0718144 0.336763
3648 4 0.47292 0.0656604 0.402415
3646 2 0.451149 0.0499406 0.412036
3235 2 0.0251304 0.156333 0.383713
3236 4 0.000211757 0.143625 0.388565
428 4 0.0596099 0.152105 0.34578
427 2 0.0839136 0.159177 0.336492
2813 4 0.120045 0.156991 0.337296
42 3 0.2051 0.138055 0.339155
2674 2 0.182191 0.156979 0.380997
579 4 0.193592 0.0882332 0.356682
45 3 0.214806 0.141676 0.375295
2675 4 0.197232 0.142295 0.386061
43 3 0.205688 0.107751 0.359021
41 1 0.216343 0.130486 0.356102
44 3 0.239654 0.13431 0.35025
296 4 0.476024 0.156762 0.381716
295 2 0.489241 0.144018 0.368753
2447 4 0.040698 0.239572 0.339818
2446 2 0.0155662 0.238538 0.336898
935 4 0.0143712 0.194587 0.405948
2652 4 0.0429942 0.22097 0.337832
3237 4 0.0500491 0.169042 0.37886
2650 2 0.0678937 0.231106 0.344838
2651 4 0.0927931 0.241242 0.351843
365 4 0.0682418 0.177418 0.387986
364 2 0.0937169 0.187946 0.383402
230 4 0.0972888 0.23866 0.372853
366 4 0.119192 0.198474 0.378817
383 4 0.136733 0.211711 0.380829
2676 4 0.16715 0.171664 0.375932
2814 4 0.166665 0.17892 0.358129
382 2 0.158511 0.214934 0.394359
2812 2 0.143355 0.167956 0.347712
384 4 0.180288 0.218157 0.40789
661 2 0.3858 0.204957 0.410079
663 4 0.391516 0.208011 0.385725
2917 2 0.460122 0.173492 0.337101
2919 4 0.482641 0.176237 0.349271
1414 2 0.0550823 0.314413 0.343923
1415 4 0.0311886 0.317373 0.344835
1416 4 0.078976 0.311453 0.34301
2339 4 0.0329874 0.327753 0.400472
1061 4 0.0989837 0.320207 0.342397
229 2 0.116818 0.254098 0.385872
1060 2 0.124411 0.328805 0.348159
231 4 0.136347 0.269536 0.398891
3707 4 0.497253 0.312385 0.353187
2994 4 0.0322369 0.336638 0.341105
580 2 0.015286 0.387364 0.336746
2992 2 0.0115601 0.33532 0.355687
582 4 0.0110132 0.387349 0.361383
2338 2 0.0521577 0.34367 0.413479
445 2 0.179798 0.394321 0.343776
1062 4 0.149837 0.337404 0.35392
3813 4 0.18031 0.399296 0.374674
3811 2 0.18349 0.404519 0.399077
447 4 0.194339 0.392785 0.363708
2630 4 0.257141 0.346883 0.372281
2654 4 0.258702 0.364201 0.381939
2629 2 0.274065 0.347385 0.35374
2653 2 0.269122 0.387607 0.390145
2655 4 0.279541 0.411013 0.398351
2631 4 0.290989 0.347888 0.3352
2517 4 0.0864886 0.41735 0.413065
3703 2 0.367504 0.437543 0.34615
3705 4 0.384453 0.438408 0.364756
2178 4 0.105903 0.0762416 0.458322
3774 4 0.177255 0.0486352 0.474062
1997 4 0.16657 0.0288656 0.471382
1996 2 0.145897 0.0115442 0.461843
2981 4 0.195436 0.077643 0.498604
3772 2 0.200269 0.0449524 0.479367
3773 4 0.223282 0.0412696 0.484672
812 4 0.25215 0.00725478 0.490375
2963 4 0.270815 0.00805264 0.497726
3647 4 0.429378 0.0342207 0.421658
4388 4 0.465995 0.0148446 0.451344
4387 2 0.443744 0.00359012 0.463448
1817 4 0.00721262 0.0898343 0.47618
248 4 0.0113311 0.138606 0.445988
828 4 0.00138737 0.119826 0.449852
1816 2 0.0241853 0.0895812 0.457894
2765 4 0.0103591 0.0834258 0.494792
247 2 0.0358471 0.146733 0.454664
1818 4 0.0411581 0.089328 0.439608
249 4 0.0603631 0.15486 0.463339
1849 2 0.0932552 0.153851 0.472541
1850 4 0.107751 0.139617 0.480606
2176 2 0.104266 0.097826 0.467805
2177 4 0.10263 0.11941 0.477288
266 4 0.374047 0.0958411 0.447706
265 2 0.400029 0.105437 0.445759
3957 4 0.441532 0.107005 0.437622
267 4 0.426011 0.115034 0.443813
3955 2 0.46292 0.117787 0.45116
3956 4 0.484309 0.128569 0.464698
1851 4 0.0787592 0.168085 0.464476
355 2 0.252553 0.202398 0.456976
356 4 0.246788 0.216447 0.438938
3806 4 0.264156 0.191831 0.494395
357 4 0.258319 0.188348 0.475015
662 4 0.380084 0.201903 0.434433
679 2 0.130029 0.321766 0.434744
681 4 0.145768 0.30845 0.442035
2515 2 0.082509 0.396093 0.425969
2340 4 0.0713281 0.359586 0.426486
2516 4 0.0785295 0.374836 0.438873
680 4 0.114289 0.335082 0.427453
3812 4 0.186669 0.409743 0.423479
3199 2 0.231263 0.337922 0.485053
615 4 0.27171 0.356271 0.467009
3200 4 0.250164 0.350645 0.469574
613 2 0.292908 0.348704 0.463317
614 4 0.314105 0.341137 0.459625
569 4 0.325626 0.352875 0.472884
568 2 0.348604 0.355291 0.484074
4434 4 0.441139 0.373322 0.498836
4433 4 0.389594 0.352973 0.49248
570 4 0.371583 0.357708 0.495264
4432 2 0.415366 0.363147 0.495658
1632 4 0.0364838 0.489862 0.426675
1871 4 0.0190264 0.479425 0.438151
2927 4 0.115364 0.442721 0.488399
3702 4 0.101936 0.451036 0.49709
3770 4 0.231001 0.490239 0.425895
3754 2 0.462989 0.444311 0.456953
431 4 0.463143 0.424387 0.491075
1226 4 0.483429 0.475572 0.480143
1225 2 0.468105 0.488767 0.488753
3755 4 0.441965 0.428962 0.445772
3756 4 0.484013 0.459661 0.468133
4371 4 0.0148097 0.0824201 0.557206
4369 2 0.00474382 0.0703637 0.578178
2980 2 0.172599 0.0792526 0.507439
2982 4 0.149762 0.0808621 0.516274
2962 2 0.28985 0.0130433 0.514886
2964 4 0.308885 0.018034 0.532046
1096 2 0.48233 0.0549851 0.542131
1098 4 0.489414 0.0413359 0.5245
1097 4 0.475247 0.0686343 0.559762
373 2 0.0271119 0.154742 0.576541
2764 2 0.00481844 0.0854817 0.518932
375 4 0.0492872 0.154881 0.564907
2604 4 0.0348017 0.0853683 0.550396
2602 2 0.0602528 0.0883537 0.546552
468 4 0.0597627 0.153773 0.581008
2603 4 0.0857039 0.0913391 0.542707
3082 2 0.11752 0.0887352 0.540639
3083 4 0.0982001 0.0868285 0.557095
3084 4 0.13684 0.090642 0.524184
3489 4 0.211965 0.0933135 0.505955
398 4 0.230166 0.124701 0.537597
397 2 0.246387 0.147912 0.539828
3487 2 0.235473 0.0912195 0.512057
3488 4 0.258982 0.0891256 0.518158
2519 4 0.271915 0.107699 0.520356
2518 2 0.29698 0.108 0.521592
2520 4 0.322045 0.108301 0.522829
3413 4 0.340449 0.121422 0.52724
3412 2 0.364128 0.126254 0.516758
1471 2 0.461184 0.156953 0.546479
1472 4 0.461776 0.144367 0.567611
3414 4 0.387807 0.131087 0.506277
319 2 0.482567 0.111451 0.56984
320 4 0.482657 0.0894997 0.560054
321 4 0.482476 0.133402 0.579627
4224 4 0.200699 0.217383 0.560597
4222 2 0.220359 0.214013 0.574205
399 4 0.262609 0.171123 0.542059
1700 4 0.275412 0.186352 0.554868
1699 2 0.301571 0.193546 0.555779
3807 4 0.314708 0.211951 0.505896
3805 2 0.289432 0.201891 0.500146
1701 4 0.327731 0.200741 0.556691
584 4 0.341917 0.20906 0.541418
583 2 0.36625 0.207522 0.53872
585 4 0.390583 0.205985 0.536021
3039 4 0.405257 0.222223 0.545026
1473 4 0.460593 0.169538 0.525346
3037 2 0.429684 0.224886 0.537211
3038 4 0.45411 0.227549 0.529397
900 4 0.472398 0.237202 0.521201
2990 4 0.0482292 0.277666 0.547621
2989 2 0.0490142 0.298645 0.559964
2991 4 0.0497992 0.319624 0.572306
2586 4 0.163817 0.290786 0.534718
2584 2 0.178345 0.308217 0.519289
3201 4 0.212362 0.325199 0.500531
2585 4 0.192873 0.325649 0.50386
898 2 0.496501 0.25104 0.514789
3175 2 0.0335623 0.362552 0.57141
3177 4 0.0509867 0.361049 0.554007
558 4 0.060727 0.367673 0.537551
556 2 0.0817882 0.385475 0.529384
557 4 0.102849 0.403278 0.521218
1016 4 0.104522 0.371579 0.558002
3696 4 0.123891 0.382439 0.552414
1015 2 0.10143 0.365152 0.582141
3694 2 0.149147 0.39228 0.546473
3695 4 0.174402 0.402121 0.540532
1953 4 0.263886 0.365399 0.57835
1951 2 0.267274 0.342785 0.580723
432 4 0.440212 0.414198 0.535864
3153 4 0.449065 0.415138 0.580086
2344 2 0.482013 0.372936 0.516642
2346 4 0.459553 0.375927 0.508317
1039 2 0.0213808 0.436406 0.532774
1568 4 0.0401686 0.481277 0.512255
1041 4 0.0419093 0.428237 0.527612
1567 2 0.0245521 0.494158 0.503609
3701 4 0.0514423 0.432028 0.509342
1040 4 0.000852217 0.444574 0.537937
3700 2 0.0766892 0.441532 0.503216
2926 2 0.138423 0.452259 0.499807
3684 4 0.186103 0.422738 0.539199
2928 4 0.161481 0.461798 0.511215
3683 4 0.177838 0.465221 0.52382
3682 2 0.181971 0.44398 0.531509
2801 4 0.39721 0.499352 0.533096
1947 4 0.447838 0.46415 0.523243
430 2 0.451678 0.419293 0.513469
1945 2 0.460985 0.475985 0.543125
1946 4 0.474133 0.487819 0.563007
340 2 0.19813 0.00218333 0.662528
3870 4 0.269055 0.0174793 0.65056
3868 2 0.281902 0.0386869 0.662226
771 4 0.391509 0.0114513 0.638309
3313 2 0.488635 0.0666186 0.636694
3315 4 0.492738 0.0480396 0.650212
374 4 0.00493672 0.154604 0.588174
457 2 0.0116385 0.116388 0.637988
459 4 0.0237659 0.140642 0.634026
97 3 0.0402399 0.149864 0.664205
939 4 0.0549016 0.147025 0.65213
466 2 0.0848709 0.155387 0.585134
937 2 0.0789115 0.163302 0.652931
467 4 0.109979 0.157 0.58926
1269 4 0.11861 0.145001 0.597924
1268 4 0.143291 0.111935 0.611605
1267 2 0.130951 0.128468 0.604765
4182 4 0.16042 0.112028 0.601323
4180 2 0.18467 0.124087 0.59364
4181 4 0.208921 0.136146 0.585957
2853 4 0.254844 0.166378 0.655048
2241 4 0.351074 0.148031 0.611981
2568 4 0.344431 0.128044 0.615215
2566 2 0.355453 0.110913 0.623276
2239 2 0.346873 0.164152 0.628735
2567 4 0.366475 0.0937828 0.631337
3314 4 0.484532 0.0851975 0.623176
2078 4 0.481143 0.144659 0.646375
879 4 0.48774 0.148438 0.665433
2077 2 0.483455 0.137517 0.622845
2079 4 0.485767 0.130375 0.599314
98 3 0.0142523 0.166379 0.651083
3197 4 0.110027 0.235431 0.645615
3196 2 0.111975 0.212555 0.641123
3198 4 0.113923 0.18968 0.636631
938 4 0.102921 0.179578 0.653731
4223 4 0.240019 0.210644 0.587813
3191 4 0.252898 0.227753 0.587352
3190 2 0.269046 0.218261 0.600414
3192 4 0.285195 0.20877 0.613477
2852 4 0.29098 0.194111 0.623852
2851 2 0.272912 0.180245 0.63945
2240 4 0.342671 0.180272 0.645489
3537 4 0.0779759 0.333678 0.656603
2264 4 0.107623 0.251663 0.654319
1952 4 0.270663 0.32017 0.583096
2172 4 0.199907 0.285099 0.629147
2170 2 0.195951 0.291148 0.652697
2175 4 0.217317 0.282361 0.621605
2174 4 0.25422 0.303526 0.587957
2173 2 0.235769 0.292944 0.604781
943 2 0.003322 0.357923 0.623782
3176 4 0.0161378 0.364055 0.588814
944 4 0.00308555 0.36954 0.601976
945 4 0.00355845 0.346307 0.645588
4112 4 0.0602191 0.335769 0.664027
1017 4 0.0983387 0.358726 0.60628
2684 4 0.108674 0.40832 0.636792
3535 2 0.099189 0.348967 0.645645
3536 4 0.120402 0.364256 0.634686
1324 2 0.210646 0.411681 0.620002
1326 4 0.226007 0.403169 0.635126
2310 4 0.24028 0.399231 0.650328
3151 2 0.44936 0.413554 0.605027
3152 4 0.449655 0.411971 0.629969
2858 4 0.46707 0.412123 0.64
2857 2 0.489553 0.416644 0.652664
2157 4 0.000397597 0.455387 0.607615
2155 2 0.0189464 0.457242 0.624897
2156 4 0.0374952 0.459098 0.64218
1167 4 0.0543819 0.452868 0.647642
1165 2 0.0744797 0.470204 0.658029
2683 2 0.123642 0.425493 0.621388
2685 4 0.138611 0.442665 0.605985
902 4 0.190464 0.427017 0.587988
903 4 0.158857 0.45316 0.603487
901 2 0.17466 0.440088 0.595737
2215 2 0.208204 0.495532 0.609828
1325 4 0.195286 0.420194 0.604878
2216 4 0.183534 0.487639 0.618138
3737 4 0.171633 0.500036 0.620913
2308 2 0.261778 0.4189 0.65141
2309 4 0.283276 0.438568 0.652492
1138 2 0.426832 0.458956 0.645074
1140 4 0.439419 0.458616 0.623533
1911 4 0.453342 0.476603 0.618858
1909 2 0.464378 0.489188 0.598465
1139 4 0.414245 0.459296 0.666614
341 4 0.218357 0.0204441 0.671449
4162 2 0.280424 0.0796495 0.698863
4163 4 0.28114 0.0709455 0.675673
3869 4 0.294749 0.0598945 0.673891
2075 4 0.283398 0.00383695 0.738583
3579 4 0.303599 0.00420801 0.739901
636 4 0.2842 0.0798152 0.739398
2074 2 0.262918 0.00800881 0.750147
3002 4 0.483162 0.0509523 0.715427
3001 2 0.497692 0.0366801 0.70754
99 3 0.00919625 0.149949 0.685353
96 1 0.0255222 0.16215 0.670116
3282 4 0.00713518 0.149902 0.705121
821 4 0.173358 0.115558 0.745019
4164 4 0.279708 0.0883535 0.722052
1184 4 0.0276784 0.178578 0.749033
3364 2 0.0181824 0.229342 0.668586
100 3 0.0383114 0.181779 0.679519
1183 2 0.0318598 0.182452 0.724511
3366 4 0.0437094 0.235647 0.674042
1185 4 0.0360411 0.186326 0.699989
2265 4 0.0641346 0.240195 0.68215
2263 2 0.0858787 0.245929 0.668235
2832 4 0.151953 0.165962 0.701075
2830 2 0.177875 0.17006 0.701883
2831 4 0.203798 0.174158 0.702692
857 4 0.224644 0.175692 0.708885
856 2 0.241539 0.177036 0.690127
858 4 0.258434 0.17838 0.671369
993 4 0.00803471 0.318345 0.683347
2627 4 0.0101814 0.270756 0.73115
3477 4 0.0265928 0.286235 0.73254
3475 2 0.0443623 0.279069 0.719342
3476 4 0.0621318 0.271903 0.706144
2498 4 0.0820849 0.284764 0.710056
2497 2 0.104614 0.29676 0.698765
2499 4 0.127142 0.308755 0.687475
1206 4 0.140069 0.325394 0.680608
1204 2 0.161559 0.317954 0.682502
1205 4 0.183048 0.310514 0.684396
2171 4 0.191995 0.297196 0.676247
1208 4 0.316197 0.330348 0.747007
897 4 0.321122 0.317129 0.736664
895 2 0.346983 0.321383 0.734481
896 4 0.372844 0.325637 0.732297
4113 4 0.0114576 0.336275 0.674394
4111 2 0.0358384 0.336022 0.66921
3640 2 0.266703 0.408485 0.739172
3641 4 0.248276 0.386925 0.743914
950 4 0.237342 0.36776 0.74945
1905 4 0.387538 0.34258 0.728544
3297 4 0.39107 0.415477 0.743265
1903 2 0.413581 0.352035 0.729827
1904 4 0.439623 0.36149 0.731109
3338 4 0.452721 0.351721 0.726103
3337 2 0.478005 0.36188 0.720445
4483 2 0.0376077 0.435322 0.72008
4485 4 0.0130545 0.433315 0.713119
4484 4 0.0621609 0.437329 0.727041
2436 4 0.0672605 0.487841 0.713061
1166 4 0.0945774 0.48754 0.668416
888 4 0.115544 0.491427 0.667526
886 2 0.12973 0.499741 0.688052
4348 2 0.0938608 0.437259 0.744704
4349 4 0.0812449 0.436102 0.722942
3642 4 0.285129 0.430045 0.73443
1214 4 0.303448 0.435851 0.742535
1213 2 0.32865 0.444553 0.735975
1215 4 0.353851 0.453255 0.729415
3296 4 0.366612 0.450789 0.743786
3295 2 0.378841 0.433133 0.743525
4250 4 0.43113 0.457188 0.677496
4249 2 0.448853 0.469082 0.694428
4251 4 0.466576 0.480976 0.711361
845 4 0.0671292 0.0641409 0.819434
844 2 0.044414 0.0673832 0.826646
2977 2 0.111193 0.0717459 0.829638
2979 4 0.0878993 0.0733613 0.822129
2598 4 0.148869 0.0724103 0.821393
2184 4 0.12016 0.00517822 0.778019
2182 2 0.140465 0.00106797 0.789961
1995 4 0.10041 0.00137315 0.775935
3406 2 0.202335 0.00287805 0.785092
2076 4 0.242439 0.0121807 0.761711
3408 4 0.222941 0.00786009 0.769696
2091 4 0.274659 0.0379275 0.792727
635 4 0.282136 0.0534417 0.781443
634 2 0.283168 0.0666284 0.760421
2089 2 0.291509 0.0402906 0.811696
2090 4 0.308358 0.0426538 0.830666
450 4 0.483265 0.0182678 0.786041
448 2 0.460225 0.00138431 0.781235
2688 4 0.467089 0.0402101 0.808922
2686 2 0.451262 0.0293799 0.827694
1305 4 0.482773 0.0568979 0.815503
3081 4 0.131672 0.152942 0.802089
820 2 0.185107 0.137884 0.755189
2596 2 0.171261 0.0838824 0.809613
4028 4 0.20297 0.162463 0.784298
822 4 0.196856 0.16021 0.765359
4027 2 0.21456 0.15435 0.803283
2597 4 0.193654 0.0953546 0.797833
4029 4 0.226149 0.146238 0.822267
1073 4 0.244939 0.156923 0.832102
2343 4 0.336791 0.116226 0.814048
2341 2 0.348472 0.132766 0.831618
2063 4 0.0498726 0.193886 0.807495
2062 2 0.048941 0.203766 0.830114
3079 2 0.117946 0.168673 0.796461
3080 4 0.10422 0.184403 0.790832
3375 4 0.36459 0.191387 0.819212
3373 2 0.390402 0.198708 0.815049
2789 4 0.347244 0.194291 0.825557
3374 4 0.416214 0.206029 0.810885
1235 4 0.434122 0.221368 0.804736
1236 4 0.477599 0.210032 0.817542
1234 2 0.45586 0.2157 0.811139
471 4 0.493005 0.202509 0.82082
2711 4 0.0370168 0.30066 0.81477
2710 2 0.0528658 0.289734 0.803117
2712 4 0.0687149 0.278808 0.791465
1088 4 0.0890368 0.285794 0.786262
1087 2 0.109773 0.297674 0.800163
1089 4 0.13051 0.309554 0.814064
2639 4 0.168227 0.286885 0.812448
274 2 0.487779 0.290992 0.802601
276 4 0.461764 0.281263 0.801361
4546 2 0.01227 0.349209 0.801444
4548 4 0.0015207 0.342168 0.779034
4547 4 0.0230192 0.35625 0.823855
949 2 0.254663 0.359371 0.762018
951 4 0.271984 0.350982 0.774586
2067 4 0.28398 0.410801 0.833393
1209 4 0.293236 0.354148 0.778848
1207 2 0.304717 0.342248 0.762927
1121 4 0.405875 0.406699 0.749839
1120 2 0.429504 0.41232 0.760544
1064 4 0.469609 0.359257 0.793719
1063 2 0.49495 0.368647 0.787898
4331 4 0.0137716 0.491992 0.773754
792 4 0.121739 0.47998 0.813259
790 2 0.122952 0.46569 0.793532
4350 4 0.106477 0.438415 0.766467
791 4 0.124165 0.451401 0.773806
3849 4 0.11534 0.494857 0.822077
1155 4 0.161 0.421837 0.796166
1153 2 0.183863 0.430856 0.784284
1154 4 0.206726 0.439875 0.772402
3801 4 0.227731 0.448338 0.779722
3799 2 0.252146 0.446628 0.779841
3800 4 0.276561 0.444919 0.77996
2378 4 0.294682 0.493164 0.834433
2066 4 0.286425 0.432696 0.788644
2065 2 0.285203 0.421748 0.811018
1122 4 0.453132 0.417941 0.77125
885 4 0.471617 0.432701 0.775585
883 2 0.487129 0.421229 0.764184
846 4 0.0216988 0.0706256 0.833857
2978 4 0.134488 0.0701305 0.837148
986 4 0.325054 0.0545363 0.907225
1005 4 0.333844 0.0555929 0.889667
1003 2 0.319429 0.0452663 0.869847
1004 4 0.305014 0.0349397 0.850028
89 3 0.278185 0.00320548 0.906054
1841 4 0.420187 0.00171624 0.847794
2687 4 0.435434 0.0185497 0.846467
3138 4 0.0043951 0.122103 0.887249
3136 2 0.0276775 0.118042 0.889784
3137 4 0.05096 0.113982 0.892319
3362 4 0.0696807 0.112223 0.89714
3361 2 0.0945253 0.12073 0.904864
3363 4 0.11937 0.129237 0.912587
2996 4 0.138934 0.139605 0.909102
2995 2 0.164138 0.141411 0.905281
2997 4 0.189342 0.143218 0.90146
3134 4 0.210411 0.14877 0.902266
1262 4 0.217596 0.0892182 0.884197
3133 2 0.235646 0.154291 0.908699
1261 2 0.242255 0.103841 0.881682
1072 2 0.269025 0.154769 0.834893
1074 4 0.293111 0.152614 0.837683
1263 4 0.266914 0.118463 0.879167
193 3 0.280031 0.137103 0.872772
3135 4 0.26088 0.159812 0.915131
191 1 0.291187 0.151001 0.890046
194 3 0.275531 0.160161 0.900649
192 3 0.299261 0.138582 0.905301
3761 4 0.316373 0.132872 0.901936
3760 2 0.340781 0.140124 0.910966
1241 4 0.371491 0.149081 0.866081
2342 4 0.360152 0.149305 0.849188
1240 2 0.392286 0.14177 0.872398
1242 4 0.413081 0.134459 0.878716
739 2 0.436632 0.117799 0.859221
740 4 0.421293 0.132649 0.861855
741 4 0.451972 0.10295 0.856586
1092 4 0.466037 0.0912137 0.859414
1090 2 0.489308 0.107719 0.864233