ITEM: TIMESTEP
2369000
ITEM: NUMBER OF ATOMS
4590
ITEM: BOX BOUNDS xy xz yz pp pp pp
-9.9985700000000008e+00 1.7597483199999999e+01 7.5989131999999984e+00
-9.9985700000000008e+00 9.9985700000000008e+00 0.0000000000000000e+00
-9.9985700000000008e+00 9.9985700000000008e+00 0.0000000000000000e+00
ITEM: ATOMS id type xs ys zs
484 2 0.263863 0.0301632 0.0701218
485 4 0.287169 0.0333165 0.0739651
486 4 0.240557 0.02701 0.0662785
1926 4 0.300487 0.0369531 0.0593392
4183 2 0.300434 0.0803491 0.0149508
1924 2 0.319248 0.0410742 0.0733042
258 4 0.423057 0.0099905 0.055418
256 2 0.44712 0.00486598 0.0658983
257 4 0.471182 0.999741 0.0763786
2787 4 0.49153 0.00188661 0.0740525
1897 2 0.268692 0.0988174 0.0628867
4184 4 0.295556 0.089846 0.0380462
1898 4 0.27499 0.101254 0.0390734
1109 4 0.376729 0.0991396 0.0167303
1108 2 0.399406 0.103994 0.0161772
1110 4 0.422083 0.108848 0.0156241
67 3 0.442829 0.102433 0.0229424
70 3 0.473152 0.113761 0.0148516
66 1 0.449765 0.117169 0.0104982
69 3 0.435572 0.138835 0.016285
4505 4 0.490285 0.120605 0.0156137
2805 4 0.0197795 0.245667 0.0371041
2803 2 0.017778 0.242791 0.0617485
674 4 0.0226121 0.251571 0.0177092
2882 4 0.35518 0.175931 0.045114
2881 2 0.375196 0.183932 0.0505536
2883 4 0.395212 0.191933 0.0559932
3040 2 0.00648909 0.307495 0.0640571
673 2 0.0389767 0.264616 0.018362
3042 4 0.0244072 0.3161 0.0741666
675 4 0.0553412 0.277661 0.0190148
914 4 0.0406846 0.321119 0.0667863
307 2 0.0858435 0.295574 0.00601182
3195 4 0.0853666 0.294557 0.059339
3193 2 0.102627 0.290327 0.0783721
309 4 0.065237 0.287562 0.00728765
308 4 0.10645 0.303586 0.00473598
1826 4 0.119325 0.312452 0.0525462
1825 2 0.136907 0.324228 0.052502
1827 4 0.15449 0.336003 0.0524577
3212 4 0.304882 0.252247 0.0284567
3211 2 0.322381 0.263985 0.0307406
3213 4 0.33988 0.275723 0.0330246
2609 4 0.349032 0.289428 0.0274625
2608 2 0.355584 0.303294 0.0103398
2967 4 0.472645 0.29465 0.0820989
2965 2 0.480547 0.313784 0.0767281
2966 4 0.48845 0.332918 0.0713572
913 2 0.0454625 0.342428 0.0644739
915 4 0.0502404 0.363737 0.0621615
3101 4 0.170882 0.340988 0.0606279
3100 2 0.189225 0.351367 0.0651839
3102 4 0.207568 0.361746 0.0697399
1266 4 0.198527 0.389712 0.0214803
3218 4 0.226603 0.35949 0.0777228
3217 2 0.245761 0.369095 0.0812885
1264 2 0.21766 0.382266 0.00404618
3219 4 0.264919 0.3787 0.0848542
3562 2 0.354038 0.395907 0.0196502
3564 4 0.377531 0.391085 0.0311725
3563 4 0.330545 0.40073 0.00812777
335 4 0.385677 0.404117 0.0248667
670 2 0.485758 0.389946 0.0154006
672 4 0.473243 0.411486 0.003465
323 4 0.316119 0.437274 0.0646437
322 2 0.322747 0.453863 0.0511248
324 4 0.329375 0.470453 0.0376059
860 4 0.33914 0.467575 0.0206531
334 2 0.403562 0.415018 0.0294628
859 2 0.361244 0.473381 0.0213635
861 4 0.383347 0.479187 0.022074
2162 4 0.398855 0.484228 0.0313398
2161 2 0.420523 0.487409 0.0409167
336 4 0.421447 0.42592 0.0340589
1134 4 0.428716 0.438625 0.046545
1132 2 0.449748 0.431695 0.0619926
2163 4 0.442191 0.490591 0.0504936
1133 4 0.470781 0.424766 0.0774403
561 4 0.458432 0.497851 0.0508299
121 1 0.00372671 0.00391126 0.0862004
122 3 0.0157825 0.0160531 0.0963915
3546 4 0.0206908 0.0285384 0.108447
3544 2 0.0257723 0.0184016 0.131271
3545 4 0.0308538 0.00826473 0.154095
4155 4 0.165583 0.0409709 0.158835
1925 4 0.33801 0.0451953 0.0872693
1437 4 0.344397 0.0523235 0.102086
1435 2 0.345083 0.0684076 0.119982
1436 4 0.345769 0.0844916 0.137878
404 4 0.359422 0.0729663 0.151799
1329 4 0.458304 0.0377311 0.113534
1327 2 0.472762 0.021635 0.130753
1328 4 0.48722 0.00553886 0.147972
3508 2 0.132796 0.135998 0.163421
3509 4 0.151747 0.133342 0.146209
2942 4 0.170722 0.135651 0.147171
1899 4 0.262395 0.0963809 0.0867001
2941 2 0.196303 0.133449 0.144339
2943 4 0.221885 0.131248 0.141508
32 3 0.229318 0.142821 0.153083
31 1 0.240605 0.157819 0.157041
35 3 0.262743 0.14674 0.165671
2936 4 0.272522 0.158741 0.156399
3486 4 0.315908 0.139923 0.116326
371 4 0.265795 0.162697 0.136818
33 3 0.242603 0.167975 0.137018
370 2 0.278107 0.163262 0.115187
372 4 0.29042 0.163826 0.0935548
3484 2 0.342107 0.128074 0.120076
3485 4 0.368306 0.116225 0.123825
1070 4 0.387707 0.103951 0.117908
1069 2 0.413893 0.099472 0.115528
1071 4 0.440079 0.094993 0.113148
2756 4 0.458232 0.0979633 0.117411
2755 2 0.477281 0.0996527 0.132728
2757 4 0.496329 0.101342 0.148045
2804 4 0.0157764 0.239915 0.0863929
2959 2 0.215703 0.246359 0.160503
3194 4 0.119888 0.286097 0.0974052
2960 4 0.195312 0.250296 0.144608
2528 4 0.140674 0.27492 0.100093
2527 2 0.157936 0.268135 0.11916
2529 4 0.175199 0.26135 0.138227
690 4 0.392658 0.311158 0.158945
1103 4 0.409567 0.315365 0.164945
688 2 0.372481 0.332225 0.153181
505 2 0.034089 0.361477 0.161335
506 4 0.0411318 0.364385 0.137876
752 4 0.046749 0.406178 0.137056
751 2 0.0697848 0.410043 0.133926
753 4 0.0928206 0.413907 0.130796
704 4 0.284631 0.381233 0.0840318
703 2 0.299205 0.393908 0.0934447
689 4 0.352303 0.353292 0.147417
705 4 0.313778 0.406583 0.102858
3519 4 0.324913 0.415816 0.113735
3905 4 0.359563 0.364616 0.159667
1511 4 0.455248 0.340923 0.161227
1510 2 0.47351 0.351931 0.160733
2139 4 0.480831 0.458274 0.472738
1486 2 0.0234118 0.484224 0.157178
1488 4 0.0123109 0.466765 0.159603
1560 4 0.0641332 0.461193 0.102093
1558 2 0.082299 0.466321 0.116031
1559 4 0.100465 0.471449 0.129969
2043 4 0.09443 0.48506 0.145734
2041 2 0.111282 0.470686 0.16273
3882 4 0.202173 0.458088 0.140888
2615 4 0.207637 0.466063 0.125204
2614 2 0.218701 0.448558 0.107904
3880 2 0.215691 0.456823 0.162186
2616 4 0.229765 0.431053 0.0906034
3517 2 0.343849 0.422484 0.124679
3518 4 0.362784 0.429151 0.135624
1737 4 0.380357 0.432418 0.138615
1735 2 0.399537 0.441339 0.144633
1736 4 0.418717 0.45026 0.150651
1413 4 0.435741 0.456208 0.153219
1411 2 0.452146 0.46536 0.165306
2471 4 0.030597 0.0763306 0.210698
2470 2 0.0151947 0.0655488 0.222043
747 4 0.049734 0.072829 0.219441
4154 4 0.119351 0.0638156 0.182683
745 2 0.067703 0.0801401 0.231328
4153 2 0.142467 0.0523933 0.170759
2646 4 0.302774 0.00770314 0.23095
1688 4 0.316174 0.01956 0.229792
3063 4 0.317318 0.0655093 0.240339
1687 2 0.338129 0.0252156 0.226297
1689 4 0.360084 0.0308713 0.222802
3061 2 0.329175 0.0782073 0.226714
2847 4 0.304453 0.0575168 0.250678
3555 4 0.375962 0.0381474 0.220337
3553 2 0.394516 0.0457077 0.2099
3554 4 0.41307 0.053268 0.199464
588 4 0.428431 0.0638848 0.20213
586 2 0.445474 0.0754426 0.19646
3510 4 0.113845 0.138655 0.180632
2935 2 0.293874 0.160273 0.168302
3062 4 0.341032 0.0909053 0.213088
2754 4 0.255617 0.15566 0.232874
2752 2 0.248843 0.163971 0.209572
403 2 0.352641 0.0847201 0.173746
405 4 0.34586 0.096474 0.195693
587 4 0.462517 0.0870003 0.19079
3269 4 0.474213 0.0982438 0.194686
3268 2 0.493893 0.10388 0.18386
3587 4 0.120802 0.202329 0.233332
3586 2 0.141705 0.199786 0.248207
34 3 0.227081 0.173785 0.172137
1231 2 0.200202 0.199603 0.24525
1232 4 0.223669 0.19394 0.23347
2937 4 0.315227 0.161805 0.180205
2753 4 0.242069 0.172283 0.186269
2961 4 0.236094 0.242421 0.176399
737 4 0.248695 0.245011 0.192281
736 2 0.273165 0.246053 0.189866
311 4 0.329547 0.174852 0.184305
310 2 0.328775 0.19253 0.200957
530 4 0.332203 0.222933 0.230423
312 4 0.328002 0.210209 0.217609
738 4 0.297634 0.247095 0.187452
1356 4 0.449981 0.218939 0.215324
641 4 0.386824 0.251699 0.171868
1354 2 0.464018 0.210332 0.236185
236 4 0.0481687 0.27724 0.188495
3284 4 0.0275423 0.279776 0.187789
3283 2 0.00321672 0.291559 0.1974
235 2 0.0668187 0.286471 0.181495
237 4 0.0854687 0.295702 0.174496
2783 4 0.105255 0.294827 0.173249
2784 4 0.14012 0.31834 0.178681
2782 2 0.122688 0.306584 0.175965
2403 4 0.153483 0.328781 0.184678
2401 2 0.178723 0.31281 0.183063
2402 4 0.203962 0.296839 0.181448
2574 4 0.309983 0.258412 0.19126
2572 2 0.303026 0.279474 0.204696
2573 4 0.29607 0.300535 0.218132
245 4 0.303613 0.312323 0.228633
244 2 0.325969 0.30676 0.242215
640 2 0.393846 0.269014 0.183715
642 4 0.400868 0.28633 0.195562
1764 4 0.420878 0.284681 0.2022
1102 2 0.428022 0.32519 0.170974
1104 4 0.446477 0.335014 0.177003
1762 2 0.435619 0.287255 0.221474
1763 4 0.45036 0.289829 0.240748
2909 4 0.470726 0.281021 0.234658
2908 2 0.492167 0.285786 0.226794
2691 4 0.0174804 0.354142 0.202105
507 4 0.0270461 0.35857 0.184794
2600 4 0.224027 0.336951 0.251227
3904 2 0.360451 0.385892 0.169259
3906 4 0.36134 0.407169 0.17885
2042 4 0.128134 0.456312 0.179725
2817 4 0.141629 0.453 0.193629
2815 2 0.152549 0.460901 0.212837
669 4 0.176672 0.475335 0.243573
2816 4 0.163468 0.468802 0.232044
3881 4 0.229209 0.455558 0.183484
3785 4 0.238644 0.455202 0.20091
3784 2 0.243757 0.473378 0.213171
3786 4 0.24887 0.491555 0.225431
2779 2 0.300456 0.484088 0.191826
2780 4 0.291271 0.469651 0.206023
2140 2 0.309219 0.456214 0.242535
2141 4 0.296493 0.456562 0.220938
1846 2 0.498292 0.484575 0.201834
1847 4 0.479759 0.475945 0.193176
1412 4 0.468552 0.474513 0.177393
3648 4 0.0453223 0.0660259 0.295136
3646 2 0.0406124 0.0452647 0.30109
3647 4 0.0359024 0.0245036 0.307044
746 4 0.085672 0.0874512 0.243215
2126 4 0.191702 0.0117203 0.302018
1676 4 0.192583 0.0276696 0.312072
1675 2 0.198018 0.0483358 0.307432
2511 4 0.498431 0.379596 0.161622
1677 4 0.203453 0.0690021 0.302792
15 3 0.248651 0.070094 0.295122
2846 4 0.268513 0.0635054 0.287169
2845 2 0.286483 0.0605111 0.268923
1865 4 0.296571 0.0628066 0.31849
519 4 0.353094 0.0658011 0.3235
1217 4 0.430512 0.0172991 0.335945
1127 4 0.0801182 0.0984772 0.261767
1126 2 0.10577 0.0965524 0.262427
1128 4 0.131422 0.0946275 0.263087
1694 4 0.146789 0.103854 0.26654
1693 2 0.167071 0.0943439 0.282568
1695 4 0.187353 0.0848338 0.298597
14 3 0.212098 0.0958893 0.301178
429 4 0.184388 0.149538 0.318459
2461 2 0.231637 0.143361 0.273346
2813 4 0.198906 0.158348 0.320358
11 1 0.235833 0.092421 0.296296
12 3 0.236922 0.102145 0.276006
13 3 0.245381 0.102213 0.31262
2462 4 0.22916 0.121232 0.277465
726 4 0.252203 0.113706 0.326406
2463 4 0.234114 0.165491 0.269226
724 2 0.276578 0.112692 0.319431
725 4 0.300953 0.111677 0.312456
517 2 0.358789 0.081423 0.307819
518 4 0.364483 0.0970449 0.292138
578 4 0.37701 0.102557 0.304024
44 3 0.360551 0.144672 0.324645
577 2 0.40164 0.10302 0.300925
579 4 0.42627 0.103483 0.297827
20 3 0.43665 0.114895 0.291123
18 3 0.439724 0.141629 0.268147
16 1 0.449122 0.128595 0.286822
17 3 0.447317 0.142414 0.304886
19 3 0.47306 0.115955 0.283289
1517 4 0.467247 0.142902 0.305817
2678 4 0.479088 0.131922 0.290544
2137 2 0.462275 0.47324 0.488087
1516 2 0.474489 0.145561 0.329269
1797 4 0.0572549 0.236556 0.252772
1795 2 0.0338317 0.233844 0.257226
1796 4 0.0104084 0.231133 0.26168
2918 4 0.15877 0.210761 0.313346
3588 4 0.162607 0.197244 0.263082
678 4 0.148777 0.226757 0.301229
1233 4 0.176735 0.205266 0.25703
676 2 0.168549 0.230288 0.288309
677 4 0.188321 0.233819 0.27539
2840 4 0.210766 0.227242 0.278233
2839 2 0.224641 0.242148 0.282841
2675 4 0.295739 0.187566 0.324587
2674 2 0.273964 0.183004 0.331779
666 4 0.302848 0.185105 0.303931
529 2 0.336459 0.21814 0.254841
664 2 0.321182 0.195816 0.301017
531 4 0.340714 0.213348 0.27926
665 4 0.339517 0.206527 0.298103
1355 4 0.478055 0.201724 0.257046
1220 4 0.4821 0.218605 0.262792
3627 4 0.00661748 0.294592 0.310758
2993 4 0.0182557 0.29875 0.325843
2992 2 0.0302829 0.315538 0.32797
1799 4 0.0600065 0.252459 0.260984
1800 4 0.104369 0.258798 0.277507
1798 2 0.0821877 0.255629 0.269246
1601 4 0.119758 0.262992 0.287474
1600 2 0.117478 0.268023 0.311964
2798 4 0.227806 0.27006 0.301528
2841 4 0.238516 0.257053 0.28745
2797 2 0.226344 0.29154 0.312434
2799 4 0.224882 0.31302 0.32334
453 4 0.235204 0.325081 0.325923
2489 4 0.342895 0.271457 0.329628
339 4 0.347396 0.270969 0.310387
246 4 0.348325 0.301197 0.255798
337 2 0.355445 0.28008 0.290146
338 4 0.363494 0.28919 0.269905
2994 4 0.0423102 0.332327 0.330098
1415 4 0.051363 0.345532 0.337625
2601 4 0.172544 0.345069 0.260842
1062 4 0.140135 0.370123 0.330634
2599 2 0.198285 0.34101 0.256034
667 2 0.192804 0.482099 0.258728
668 4 0.208935 0.488864 0.273882
2142 4 0.321945 0.455866 0.264133
278 4 0.33404 0.435761 0.315432
279 4 0.319989 0.469402 0.278453
277 2 0.327015 0.452581 0.296942
1490 4 0.357231 0.00677063 0.345351
1866 4 0.315394 0.0455522 0.363795
1864 2 0.305983 0.0541794 0.341143
1476 4 0.00220133 0.103344 0.190525
1839 4 0.369809 0.0136476 0.334397
1837 2 0.396418 0.00710497 0.335059
4013 4 0.399006 0.0109278 0.419528
4388 4 0.377721 0.0166391 0.416704
1838 4 0.423028 0.000562373 0.335721
1216 2 0.453852 0.0193698 0.342176
1218 4 0.477191 0.0214404 0.348406
3548 4 0.473869 0.0713142 0.413846
3665 4 0.498944 0.0164583 0.34634
3029 4 0.490715 0.0760568 0.410936
366 4 0.0020857 0.142297 0.341151
383 4 0.0165562 0.148413 0.350386
2238 4 0.0842565 0.141652 0.416652
513 4 0.104572 0.118084 0.352691
1182 4 0.0763425 0.126447 0.421247
427 2 0.172889 0.139642 0.335617
2236 2 0.10787 0.142354 0.409275
428 4 0.16139 0.129746 0.352774
2237 4 0.131483 0.143057 0.401898
511 2 0.129348 0.117502 0.357366
512 4 0.154125 0.116921 0.362041
247 2 0.174825 0.13458 0.415383
248 4 0.148234 0.14242 0.412901
2812 2 0.218303 0.163793 0.331967
1851 4 0.209867 0.121612 0.400256
1849 2 0.233389 0.12486 0.398931
1850 4 0.256912 0.128108 0.397607
2814 4 0.237699 0.169237 0.343576
2177 4 0.257942 0.147216 0.399694
43 3 0.364738 0.130182 0.359756
41 1 0.375464 0.138525 0.34315
42 3 0.379325 0.157093 0.351224
45 3 0.396799 0.122781 0.337229
1518 4 0.481731 0.14822 0.352721
382 2 0.00657783 0.169648 0.363448
3807 4 0.108109 0.21149 0.40056
2917 2 0.165953 0.203001 0.336735
2919 4 0.173137 0.195241 0.360124
661 2 0.214778 0.216722 0.392582
663 4 0.190036 0.228524 0.383891
2676 4 0.252189 0.178441 0.338971
662 4 0.23952 0.204921 0.401274
2176 2 0.257692 0.170229 0.404535
2178 4 0.257442 0.193242 0.409376
1765 2 0.276676 0.237374 0.37545
1767 4 0.279393 0.231703 0.399796
1766 4 0.273959 0.243045 0.351105
1602 4 0.115198 0.273053 0.336454
1697 4 0.13348 0.27324 0.340796
1696 2 0.140717 0.279356 0.363075
1698 4 0.147953 0.285473 0.385355
1383 4 0.149459 0.294783 0.402586
3321 4 0.173898 0.32104 0.393038
451 2 0.259959 0.319727 0.334885
615 4 0.266088 0.270358 0.401138
613 2 0.265042 0.287346 0.418669
2488 2 0.318188 0.283458 0.338305
452 4 0.284713 0.314372 0.343848
2490 4 0.293482 0.295458 0.346981
1414 2 0.0742792 0.349701 0.340374
1416 4 0.0971955 0.35387 0.343122
1061 4 0.115242 0.342496 0.352656
1060 2 0.127689 0.35631 0.341645
3129 4 0.153447 0.417944 0.402599
3319 2 0.182532 0.33873 0.401781
3320 4 0.191167 0.35642 0.410523
2631 4 0.210469 0.349393 0.403384
2629 2 0.222863 0.364049 0.412749
1758 4 0.280579 0.372139 0.362089
1756 2 0.292768 0.388265 0.356644
1757 4 0.304957 0.404391 0.3512
1400 4 0.314145 0.400538 0.332319
3615 4 0.472449 0.369723 0.365711
3613 2 0.474434 0.391304 0.358249
2850 4 0.497454 0.405336 0.410274
3614 4 0.476419 0.412886 0.350787
2781 4 0.309642 0.498524 0.177628
2922 4 0.0240247 0.473431 0.337828
3127 2 0.169962 0.423061 0.386529
3128 4 0.186477 0.428178 0.370459
600 4 0.189712 0.438473 0.355038
598 2 0.211139 0.445217 0.357087
599 4 0.232566 0.451961 0.359136
3167 4 0.246331 0.454941 0.371672
3166 2 0.257611 0.46894 0.359276
3168 4 0.268892 0.48294 0.34688
1401 4 0.340839 0.432149 0.334134
1399 2 0.327492 0.416344 0.333226
3770 4 0.484121 0.424099 0.363848
812 4 0.255877 0.00833516 0.458771
811 2 0.269133 0.0234962 0.452967
813 4 0.282389 0.0386572 0.447164
2962 2 0.242483 0.999563 0.494399
2963 4 0.24539 0.997969 0.469552
2472 4 0.999792 0.0547669 0.233388
4387 2 0.366767 0.00713468 0.434667
1977 4 0.356571 0.00167457 0.47318
4014 4 0.439865 0.0272521 0.423927
4012 2 0.419435 0.0190899 0.421728
3549 4 0.45508 0.0356941 0.427526
3547 2 0.464475 0.0535041 0.420686
1150 2 0.458886 0.019872 0.484289
1152 4 0.464074 0.0151917 0.459965
2721 4 0.481363 0.0163104 0.451355
1181 4 0.0594487 0.143477 0.467096
1180 2 0.0678956 0.134962 0.444172
249 4 0.201416 0.12674 0.417864
399 4 0.297292 0.132078 0.48797
397 2 0.317594 0.139879 0.483174
398 4 0.337896 0.14768 0.478379
2766 4 0.352682 0.15027 0.466547
2764 2 0.36334 0.15597 0.445853
2765 4 0.373998 0.161671 0.42516
355 2 0.0682088 0.197888 0.478792
356 4 0.0568695 0.192931 0.499426
357 4 0.0795482 0.202845 0.458157
3806 4 0.0922011 0.210713 0.447864
3805 2 0.100155 0.211101 0.424212
826 2 0.13844 0.17535 0.492487
828 4 0.141407 0.19366 0.478652
2354 4 0.266799 0.216843 0.445424
2353 2 0.271017 0.212018 0.469842
2355 4 0.275235 0.207193 0.49426
1473 4 0.491467 0.198749 0.44894
679 2 0.00737942 0.259894 0.446641
681 4 0.0315539 0.260571 0.441368
2655 4 0.0447662 0.270503 0.435516
2654 4 0.076676 0.296234 0.425474
2653 2 0.0607211 0.283368 0.430495
948 4 0.0647309 0.315167 0.42834
946 2 0.0770463 0.330846 0.4216
1382 4 0.14353 0.296657 0.452286
1381 2 0.146495 0.29572 0.427436
3200 4 0.166862 0.322687 0.48612
614 4 0.263996 0.304334 0.4362
569 4 0.278059 0.311266 0.443642
568 2 0.286533 0.330497 0.441133
947 4 0.0893616 0.346525 0.414859
1906 2 0.0285087 0.386158 0.485252
1908 4 0.047586 0.38645 0.469223
3199 2 0.154188 0.345336 0.495901
377 4 0.139169 0.41532 0.414644
376 2 0.145178 0.411117 0.438894
378 4 0.151188 0.406914 0.463144
1286 4 0.412487 0.999838 0.0450195
2456 4 0.17156 0.40626 0.467195
2457 4 0.214028 0.419795 0.460075
2455 2 0.192794 0.413027 0.463635
2630 4 0.235257 0.378706 0.422113
4432 2 0.317627 0.358369 0.463772
570 4 0.295007 0.349729 0.438624
4433 4 0.316567 0.344718 0.443777
4434 4 0.318687 0.37202 0.483767
4268 4 0.263503 0.437266 0.437082
4267 2 0.24833 0.429601 0.452553
4269 4 0.233157 0.421935 0.468024
671 4 0.498274 0.368406 0.0273361
1512 4 0.491772 0.362939 0.160239
576 4 0.0383803 0.188664 0.495038
2346 4 0.318786 0.38632 0.498421
929 4 0.468915 0.352904 0.493271
912 4 0.23953 0.0172703 0.530667
910 2 0.246477 0.0373646 0.533628
911 4 0.253424 0.0574589 0.536589
3146 4 0.2692 0.0576048 0.524584
2964 4 0.239577 0.00115835 0.519245
3145 2 0.271654 0.0753975 0.539541
3359 4 0.395672 0.0889115 0.529427
1151 4 0.453698 0.0245524 0.508613
3460 2 0.0650852 0.146756 0.574047
3461 4 0.0908407 0.143685 0.570704
515 4 0.0922451 0.153366 0.555015
3462 4 0.0393298 0.149827 0.57739
514 2 0.103548 0.156186 0.533473
516 4 0.11485 0.159007 0.51193
99 3 0.176319 0.109759 0.577154
827 4 0.135473 0.157039 0.506322
1743 4 0.186085 0.123211 0.578347
1741 2 0.20261 0.123619 0.559725
1742 4 0.219135 0.124027 0.541102
1701 4 0.252882 0.134143 0.532393
1699 2 0.275281 0.131605 0.51977
3147 4 0.274107 0.0931903 0.554498
2588 4 0.269821 0.112471 0.560656
3413 4 0.308925 0.146448 0.551714
1700 4 0.297679 0.129067 0.507147
2587 2 0.264866 0.112135 0.585135
3412 2 0.329902 0.150377 0.541475
3360 4 0.368655 0.0985827 0.572582
3358 2 0.382163 0.0937471 0.551005
731 4 0.357402 0.169521 0.53604
3414 4 0.35088 0.154306 0.531236
3523 2 0.00625391 0.179148 0.561175
3525 4 0.0238877 0.168144 0.579151
574 2 0.019397 0.191724 0.512307
3039 4 0.0184691 0.236213 0.577208
585 4 0.0273825 0.239741 0.559156
583 2 0.037996 0.247266 0.539482
887 4 0.126862 0.497989 0.705601
730 2 0.373698 0.182449 0.538922
732 4 0.389993 0.195376 0.541803
3465 4 0.393246 0.213321 0.543226
3463 2 0.413675 0.220234 0.549998
3464 4 0.434103 0.227147 0.55677
503 4 0.444693 0.239915 0.552303
502 2 0.465052 0.244422 0.563151
504 4 0.485411 0.248929 0.574
134 3 0.488902 0.454167 0.986336
584 4 0.0486095 0.254791 0.519808
2989 2 0.213888 0.293806 0.517113
2991 4 0.235792 0.27436 0.511082
2990 4 0.191985 0.313252 0.523143
4422 4 0.268761 0.272913 0.575093
1951 2 0.319999 0.322875 0.54579
1952 4 0.345115 0.311486 0.553747
2174 4 0.356271 0.314474 0.568666
2173 2 0.377123 0.320648 0.561673
2175 4 0.397975 0.326823 0.55468
2170 2 0.43641 0.324873 0.54011
2171 4 0.463086 0.317519 0.539215
1205 4 0.46883 0.31152 0.558965
1204 2 0.479358 0.302934 0.581296
1907 4 0.00943137 0.385866 0.50128
1137 4 0.0743088 0.365656 0.561659
1135 2 0.0934669 0.375365 0.564645
1136 4 0.112625 0.385074 0.567631
2586 4 0.131916 0.383044 0.563426
2584 2 0.143016 0.378008 0.540723
2585 4 0.154115 0.372972 0.51802
1953 4 0.294883 0.334263 0.537833
2344 2 0.319458 0.403058 0.515614
2205 4 0.423525 0.00480813 0.619098
2172 4 0.409735 0.332227 0.541004
3497 4 0.40909 0.391147 0.57371
1040 4 0.414296 0.407931 0.57444
1020 4 0.470243 0.498232 0.643571
928 2 0.467585 0.369154 0.511646
930 4 0.466254 0.385404 0.530022
3425 4 0.481226 0.388055 0.544006
2345 4 0.32013 0.419795 0.532807
1362 4 0.311119 0.429049 0.5499
1361 4 0.298296 0.468939 0.579967
1360 2 0.304708 0.448994 0.564933
1039 2 0.422267 0.426784 0.56806
876 4 0.393784 0.48626 0.520916
874 2 0.410282 0.495598 0.509248
1041 4 0.430237 0.445637 0.561679
3701 4 0.434436 0.451065 0.542559
3700 2 0.45824 0.452474 0.53701
3702 4 0.482044 0.453883 0.531461
2927 4 0.491826 0.467489 0.531071
902 4 0.489687 0.469932 0.578538
3003 4 0.101662 0.0544467 0.6214
3001 2 0.118706 0.0359306 0.634898
3002 4 0.135749 0.0174145 0.648396
346 2 0.0671725 0.072867 0.656439
3935 4 0.160725 0.046692 0.614374
3934 2 0.174609 0.030381 0.631696
3936 4 0.188493 0.01407 0.649018
3095 4 0.135633 0.066248 0.652713
3094 2 0.139934 0.0818742 0.636094
2789 4 0.494484 0.135463 0.830441
2277 4 0.356814 0.0825006 0.631178
2275 2 0.349166 0.0797268 0.654454
3308 4 0.0633707 0.103623 0.626791
348 4 0.0648798 0.0937882 0.643969
3309 4 0.106162 0.0955323 0.597503
3307 2 0.0847666 0.0995778 0.612147
4222 2 0.122793 0.159555 0.605766
3096 4 0.144235 0.0975004 0.619475
98 3 0.157436 0.0968076 0.603801
4224 4 0.146099 0.147095 0.594583
97 3 0.158588 0.131465 0.606335
96 1 0.171239 0.109861 0.599803
100 3 0.191952 0.101902 0.611737
459 4 0.206368 0.0921686 0.625729
457 2 0.226067 0.101401 0.624547
458 4 0.245766 0.110632 0.623365
2589 4 0.259911 0.111799 0.609615
2852 4 0.313391 0.119303 0.649668
374 4 0.378774 0.107742 0.583768
373 2 0.383369 0.113122 0.607266
375 4 0.387963 0.118502 0.630764
468 4 0.399935 0.112097 0.647574
466 2 0.425401 0.110425 0.645163
467 4 0.450868 0.108752 0.642752
1269 4 0.464551 0.0895884 0.644993
1267 2 0.48519 0.0873057 0.660127
1185 4 0.00981788 0.189089 0.656558
3037 2 0.0140266 0.223502 0.596641
4223 4 0.0994877 0.172015 0.61695
2830 2 0.175268 0.180833 0.658315
2832 4 0.193303 0.184316 0.642879
3191 4 0.19829 0.199411 0.632793
3190 2 0.204317 0.220182 0.632808
3192 4 0.210344 0.240953 0.632822
3477 4 0.429436 0.23042 0.65258
1017 4 0.0391306 0.305885 0.60861
1015 2 0.0580351 0.316137 0.609128
1016 4 0.0769395 0.326388 0.609645
3535 2 0.109983 0.324866 0.625893
3537 4 0.135998 0.312048 0.629612
4112 4 0.157407 0.305077 0.633474
4111 2 0.169689 0.315123 0.649755
4113 4 0.181971 0.325168 0.666037
4420 2 0.245677 0.273892 0.585504
4421 4 0.222592 0.274871 0.595915
993 4 0.197454 0.325329 0.651851
3475 2 0.42842 0.252562 0.643626
3476 4 0.427404 0.274704 0.634671
2498 4 0.427365 0.293153 0.631942
2497 2 0.450901 0.294074 0.624607
2499 4 0.474437 0.294994 0.617272
1206 4 0.489887 0.294349 0.603627
3536 4 0.083968 0.337684 0.622173
2324 4 0.0723111 0.397375 0.655907
2323 2 0.0733524 0.402782 0.631692
2325 4 0.0743938 0.408189 0.607477
10 3 0.0818748 0.40835 0.666343
3254 4 0.0925786 0.413468 0.610538
991 2 0.212716 0.33811 0.644292
992 4 0.227977 0.350891 0.636734
1179 4 0.236577 0.404518 0.636257
1177 2 0.261817 0.400862 0.642814
1178 4 0.287057 0.397205 0.64937
2016 4 0.299407 0.404986 0.639776
2014 2 0.316237 0.409034 0.623301
3498 4 0.386612 0.391017 0.618354
3120 4 0.387945 0.375126 0.630582
3118 2 0.394744 0.371859 0.654741
2015 4 0.333066 0.413082 0.606827
3496 2 0.397851 0.391082 0.596032
3253 2 0.111905 0.421747 0.603352
3255 4 0.131232 0.430026 0.596166
3736 2 0.124305 0.453743 0.651671
3738 4 0.111134 0.443218 0.666488
3737 4 0.137477 0.464268 0.636853
2216 4 0.151982 0.472653 0.638247
2215 2 0.173222 0.475646 0.6275
2217 4 0.194462 0.478639 0.616753
4536 4 0.206497 0.488245 0.607462
4534 2 0.22384 0.494416 0.593338
2157 4 0.297463 0.473382 0.599344
2155 2 0.312352 0.487504 0.603276
1167 4 0.337213 0.429844 0.612425
1165 2 0.357085 0.438851 0.613609
1166 4 0.376958 0.447858 0.614792
2684 4 0.394688 0.452964 0.615772
2683 2 0.41863 0.455413 0.615031
2685 4 0.442572 0.457862 0.61429
903 4 0.461901 0.447524 0.60463
901 2 0.475794 0.458728 0.591584
4564 2 0.0293505 0.00813003 0.72512
4565 4 0.0133364 0.0149641 0.705158
3827 4 0.0711301 0.0607771 0.737108
3826 2 0.0696858 0.0563335 0.712703
3828 4 0.0682415 0.05189 0.688298
347 4 0.0694651 0.0519459 0.668908
1991 4 0.175311 0.0403685 0.690866
1990 2 0.16246 0.0641805 0.697478
3314 4 0.178927 0.0216155 0.696715
3313 2 0.20468 0.00859155 0.701484
3406 2 0.28621 0.0183409 0.725313
3407 4 0.274926 0.009912 0.743867
3408 4 0.297495 0.0267698 0.706759
2076 4 0.314374 0.0274911 0.69445
4239 4 0.334266 0.0641015 0.685772
4237 2 0.314168 0.0710157 0.70227
2074 2 0.326679 0.0127673 0.675388
4238 4 0.294071 0.0779299 0.718767
2276 4 0.341517 0.076953 0.67773
1992 4 0.149609 0.0879925 0.704089
2193 4 0.153651 0.104076 0.698024
2191 2 0.170128 0.11648 0.702745
2192 4 0.186605 0.128884 0.707466
443 4 0.189644 0.128692 0.726829
442 2 0.201657 0.145467 0.724441
2851 2 0.30832 0.136635 0.667627
2853 4 0.303248 0.153966 0.685585
856 2 0.318542 0.156073 0.719116
858 4 0.323038 0.149391 0.695102
857 4 0.314046 0.162756 0.743131
2831 4 0.157233 0.17735 0.673752
444 4 0.213671 0.162242 0.722054
3282 4 0.190829 0.227582 0.733818
3280 2 0.197154 0.202774 0.73346
3281 4 0.20348 0.177965 0.733103
821 4 0.303322 0.181144 0.743526
3640 2 0.00186792 0.330232 0.711078
3380 4 0.25644 0.270184 0.678178
3103 2 0.239152 0.262101 0.723544
3104 4 0.225054 0.271712 0.744128
3105 4 0.253249 0.25249 0.702959
3379 2 0.27195 0.282593 0.686059
3381 4 0.28746 0.295003 0.69394
2984 4 0.38957 0.327508 0.738705
3207 4 0.374055 0.332415 0.723648
3641 4 0.0211896 0.338848 0.717434
2858 4 0.0074378 0.39114 0.705012
950 4 0.0287746 0.350824 0.726062
3152 4 0.0185329 0.399637 0.694696
949 2 0.0479907 0.360692 0.72543
951 4 0.0672067 0.37056 0.724798
1209 4 0.0847741 0.357992 0.731893
3151 2 0.0364545 0.410956 0.692902
1207 2 0.109688 0.358223 0.732099
3071 4 0.11408 0.408847 0.699253
1208 4 0.134602 0.358453 0.732306
3070 2 0.136418 0.41426 0.698383
897 4 0.154778 0.353205 0.72986
8 3 0.0939675 0.415522 0.700205
895 2 0.175965 0.358797 0.722756
896 4 0.197152 0.36439 0.715653
1905 4 0.216394 0.356319 0.706486
1903 2 0.222029 0.376894 0.701918
1904 4 0.227663 0.39747 0.697349
3338 4 0.266273 0.349909 0.675643
3337 2 0.285644 0.351765 0.69043
3339 4 0.305016 0.353621 0.705217
3206 4 0.323693 0.356055 0.70849
3205 2 0.348874 0.344235 0.716069
2983 2 0.405362 0.340781 0.742562
3119 4 0.401543 0.368592 0.678899
4519 2 0.442881 0.376453 0.744905
4520 4 0.464687 0.381432 0.738675
4521 4 0.421075 0.371474 0.751135
1191 4 0.477434 0.387987 0.729392
1189 2 0.493488 0.39942 0.72054
3153 4 0.0543761 0.422275 0.691108
9 3 0.0589398 0.438746 0.685425
2434 2 0.0486951 0.494765 0.677026
6 1 0.0821651 0.424834 0.680625
7 3 0.0940533 0.437279 0.670717
2435 4 0.0725743 0.479321 0.684917
888 4 0.0826062 0.487598 0.697286
886 2 0.104734 0.492793 0.701444
3072 4 0.158756 0.419673 0.697513
4412 4 0.154016 0.43949 0.692824
4411 2 0.174055 0.447835 0.696924
4413 4 0.194095 0.45618 0.701024
4485 4 0.214076 0.455222 0.707433
4483 2 0.237785 0.455631 0.699984
4484 4 0.261495 0.45604 0.692536
4349 4 0.271026 0.449079 0.675412
4350 4 0.323949 0.437763 0.672497
4348 2 0.297488 0.443421 0.673955
132 3 0.484129 0.422625 0.998036
771 4 0.0484058 0.0652937 0.798301
1305 4 0.0455693 0.0664267 0.818099
770 4 0.0773236 0.0524765 0.756371
769 2 0.0628647 0.0588851 0.777336
2182 2 0.189166 0.00837186 0.800642
2183 4 0.212914 0.0112351 0.801064
2184 4 0.165419 0.0055086 0.80022
3038 4 0.00958409 0.21079 0.616073
2564 4 0.216626 0.0277728 0.806338
2563 2 0.239537 0.0247424 0.818275
1970 4 0.491939 0.0625641 0.76125
2948 4 0.45477 0.0417179 0.799358
2947 2 0.464246 0.0516281 0.780607
2949 4 0.473723 0.0615383 0.761855
1303 2 0.0233662 0.0829674 0.82801
131 1 0.488732 0.43344 0.979698
1073 4 0.185478 0.175526 0.806913
1236 4 0.397309 0.129094 0.794768
1234 2 0.411557 0.144123 0.795774
1235 4 0.425804 0.159151 0.79678
3374 4 0.445953 0.147923 0.80032
3373 2 0.47213 0.139214 0.805459
3375 4 0.498307 0.130505 0.810598
2135 4 0.00517067 0.174945 0.808099
825 4 0.0266171 0.170463 0.809794
823 2 0.0494655 0.172126 0.801363
3081 4 0.0910514 0.178509 0.794107
824 4 0.0723139 0.17379 0.792932
3079 2 0.105185 0.182245 0.813325
3080 4 0.119318 0.185981 0.832543
210 3 0.131897 0.236481 0.822874
1074 4 0.140768 0.169275 0.822555
471 4 0.141961 0.232134 0.804175
4029 4 0.205571 0.172806 0.800608
1072 2 0.163123 0.1724 0.814734
469 2 0.155228 0.246716 0.796506
4027 2 0.227048 0.177933 0.793524
4028 4 0.248524 0.18306 0.78644
822 4 0.263464 0.187549 0.776071
820 2 0.283393 0.184347 0.759799
842 4 0.00536828 0.310752 0.778
841 2 0.0278413 0.314704 0.783897
3480 4 0.0357309 0.277345 0.816791
2048 4 0.046433 0.270837 0.798099
3478 2 0.0360603 0.262659 0.836335
2047 2 0.0714064 0.270837 0.799322
4548 4 0.05659 0.322761 0.808238
2049 4 0.0963798 0.270837 0.800545
843 4 0.0503144 0.318655 0.789794
4546 2 0.0695829 0.328003 0.827555
470 4 0.168494 0.261299 0.788837
3386 4 0.181399 0.27146 0.783805
3385 2 0.200363 0.277584 0.772214
3387 4 0.219328 0.283708 0.760623
3228 4 0.265954 0.325 0.799178
2711 4 0.272787 0.311807 0.81384
2710 2 0.288599 0.309679 0.833728
883 2 0.00533057 0.410073 0.822657
2289 4 0.163259 0.399419 0.774151
2287 2 0.13874 0.416839 0.77531
1064 4 0.176833 0.405633 0.762151
1063 2 0.19628 0.407753 0.776661
3226 2 0.239214 0.333775 0.799781
3227 4 0.212474 0.342551 0.800384
1065 4 0.215727 0.409872 0.79117
2999 4 0.228114 0.412725 0.805984
2998 2 0.251132 0.412848 0.79633
3000 4 0.27415 0.412971 0.786677
2985 4 0.421154 0.354055 0.746419
2288 4 0.114222 0.434258 0.77647
3847 2 0.14941 0.487132 0.816146
3848 4 0.171945 0.46714 0.814614
3170 4 0.288973 0.417077 0.797562
3171 4 0.331755 0.429391 0.787734
3169 2 0.310364 0.423234 0.792648
3273 4 0.350411 0.431367 0.7852
3271 2 0.361791 0.444024 0.799445
3272 4 0.373171 0.45668 0.81369