ITEM: TIMESTEP
2424000
ITEM: NUMBER OF ATOMS
4590
ITEM: BOX BOUNDS xy xz yz pp pp pp
-9.9985700000000008e+00 1.9597197199999997e+01 9.5986271999999957e+00
-9.9985700000000008e+00 9.9985700000000008e+00 0.0000000000000000e+00
-9.9985700000000008e+00 9.9985700000000008e+00 0.0000000000000000e+00
ITEM: ATOMS id type xs ys zs
4183 2 0.368185 0.0784971 0.995099
2785 2 0.475502 0.0152699 0.0624086
2786 4 0.49916 0.0177371 0.0610031
2787 4 0.451845 0.0128026 0.0638141
3232 2 0.00319414 0.123401 0.0154222
3234 4 0.0252971 0.119439 0.0296138
2502 4 0.0467524 0.11427 0.0259478
2500 2 0.072665 0.101465 0.0175517
2501 4 0.0985776 0.0886602 0.00915569
4184 4 0.361873 0.091311 0.016569
1898 4 0.357754 0.107226 0.0274382
1897 2 0.366989 0.124223 0.0332495
1899 4 0.376224 0.14122 0.0390607
2621 4 0.108717 0.228997 0.0759833
2805 4 0.307957 0.244116 0.0154347
674 4 0.3203 0.247704 0.0293153
2968 2 0.0399444 0.272158 0.0702079
2970 4 0.0601473 0.271218 0.0549049
966 4 0.0736639 0.280669 0.0522917
964 2 0.0796628 0.300145 0.0490822
2969 4 0.0197415 0.273097 0.0855109
2620 2 0.111756 0.249049 0.0839039
965 4 0.0856618 0.319622 0.0458727
1293 4 0.0964005 0.330394 0.0440733
1291 2 0.123713 0.32125 0.0480812
1292 4 0.151025 0.312107 0.0520891
974 4 0.163422 0.318965 0.0415997
973 2 0.186051 0.321441 0.0344041
975 4 0.208681 0.323917 0.0272086
2803 2 0.281101 0.249424 0.0129541
2804 4 0.254246 0.254731 0.0104734
3040 2 0.286696 0.322773 0.0344367
3042 4 0.312629 0.306715 0.0403632
673 2 0.332627 0.258785 0.0154942
3195 4 0.379054 0.277527 0.0486041
675 4 0.344954 0.269867 0.00167306
309 4 0.349789 0.285722 0.000939415
307 2 0.377443 0.273236 0.0011637
3193 2 0.393047 0.27209 0.0701922
618 4 0.442541 0.274511 0.00574094
616 2 0.468516 0.271933 0.00316792
4435 2 0.0103359 0.332457 0.0292195
638 4 0.00482489 0.411182 0.0416755
637 2 0.0305228 0.408754 0.0458548
4436 4 0.026668 0.343335 0.0357227
639 4 0.0562207 0.406325 0.0500341
2459 4 0.0797182 0.398626 0.0513818
2458 2 0.0980401 0.405366 0.0621095
2460 4 0.116362 0.412105 0.0728373
143 3 0.13611 0.410495 0.0725035
555 4 0.13242 0.370094 0.0732994
3335 4 0.210542 0.341014 0.0220177
553 2 0.159735 0.357056 0.0767352
3041 4 0.260762 0.338832 0.0285102
3334 2 0.206961 0.364721 0.023558
3336 4 0.203381 0.388427 0.0250983
4586 4 0.223424 0.384379 0.0572049
4585 2 0.20517 0.403812 0.0701599
1148 4 0.260393 0.342396 0.00893089
1047 4 0.289831 0.371142 0.0576062
1045 2 0.285529 0.395087 0.0580077
904 2 0.321763 0.389634 0.0069638
914 4 0.325696 0.359478 0.0861544
905 4 0.337725 0.371998 0.0230251
1593 4 0.354075 0.35552 0.0157738
1591 2 0.373578 0.344162 0.998489
145 3 0.135693 0.444125 0.0787849
142 3 0.171037 0.413113 0.082328
3432 4 0.158918 0.477435 0.0617843
3430 2 0.181844 0.481028 0.0639303
3431 4 0.20477 0.484621 0.0660763
1046 4 0.281227 0.419031 0.0584093
222 3 0.225445 0.482683 0.0713361
387 4 0.296088 0.426435 0.0611163
221 1 0.230631 0.499708 0.079138
385 2 0.312302 0.428385 0.079206
4018 2 0.327268 0.482038 0.0225594
4020 4 0.305551 0.476819 0.0259156
4019 4 0.348984 0.487257 0.0192033
2285 4 0.287786 0.493226 0.0205954
486 4 0.290761 0.0185248 0.0938524
758 4 0.348669 0.0135082 0.136615
484 2 0.310304 0.025078 0.102064
1926 4 0.346246 0.0310384 0.0968768
485 4 0.329848 0.0316313 0.110276
757 2 0.335211 0.0163509 0.158315
1924 2 0.360706 0.0445423 0.0989536
1925 4 0.375165 0.0580462 0.10103
1437 4 0.393521 0.0625378 0.104513
1435 2 0.397222 0.0744908 0.124343
1329 4 0.475815 0.05445 0.144109
3508 2 0.291797 0.131732 0.157674
2942 4 0.334165 0.112738 0.145595
3509 4 0.313412 0.113685 0.146196
2941 2 0.34842 0.126465 0.144077
2943 4 0.362676 0.140191 0.142559
1436 4 0.400923 0.0864439 0.144173
404 4 0.415396 0.0938044 0.148683
32 3 0.375002 0.149424 0.149026
31 1 0.382757 0.165306 0.155384
403 2 0.423283 0.102918 0.168477
371 4 0.40721 0.165222 0.132643
372 4 0.429631 0.139342 0.0910381
2936 4 0.413643 0.163183 0.152861
370 2 0.41842 0.152282 0.111841
2935 2 0.438646 0.159538 0.161299
3486 4 0.469914 0.109498 0.124088
3484 2 0.483509 0.10921 0.145159
3485 4 0.497105 0.108922 0.166231
298 2 0.147158 0.213447 0.162364
299 4 0.170217 0.210047 0.149934
294 4 0.173284 0.218105 0.132633
292 2 0.191469 0.220431 0.116909
293 4 0.209654 0.222756 0.101185
34 3 0.36531 0.180313 0.169815
33 3 0.384996 0.176414 0.136471
2959 2 0.475416 0.247477 0.171408
2634 4 0.999859 0.275429 0.0881126
762 4 0.084896 0.267828 0.146786
761 4 0.0532497 0.313969 0.130007
760 2 0.0690728 0.290899 0.138397
2622 4 0.114796 0.269101 0.0918246
2670 4 0.114464 0.285826 0.100185
2668 2 0.112129 0.302413 0.118028
2669 4 0.109794 0.319 0.135871
287 4 0.174818 0.329372 0.139009
595 2 0.268579 0.289588 0.129815
597 4 0.265676 0.290475 0.15468
596 4 0.271482 0.288702 0.10495
3743 4 0.31413 0.315203 0.136754
3742 2 0.305225 0.326578 0.114756
2528 4 0.414194 0.264771 0.11157
3194 4 0.407039 0.266653 0.0917803
2527 2 0.420979 0.267749 0.134997
2529 4 0.427763 0.270727 0.158425
2960 4 0.448464 0.259926 0.165913
1028 4 0.0117588 0.368517 0.106367
4088 4 0.0237909 0.361345 0.123842
4087 2 0.0491004 0.350768 0.134038
4089 4 0.0744099 0.340192 0.144234
525 4 0.115666 0.38745 0.142609
523 2 0.119719 0.401886 0.125399
288 4 0.124866 0.368073 0.143309
286 2 0.149842 0.348722 0.141159
554 4 0.18705 0.344019 0.0801709
2718 4 0.208582 0.348268 0.137742
2716 2 0.234787 0.343841 0.142814
2717 4 0.260992 0.339415 0.147885
4312 2 0.274678 0.36791 0.155123
3744 4 0.296321 0.337954 0.092758
4314 4 0.274586 0.345535 0.157806
4313 4 0.27477 0.390285 0.152441
2897 4 0.292128 0.395234 0.154366
2896 2 0.306724 0.39529 0.134085
913 2 0.345772 0.348644 0.103081
506 4 0.382704 0.340293 0.129669
915 4 0.365848 0.33781 0.120007
505 2 0.38189 0.35212 0.151155
2898 4 0.32132 0.395347 0.113803
2402 4 0.453849 0.348857 0.150123
752 4 0.46893 0.356349 0.149008
751 2 0.474447 0.368641 0.130468
753 4 0.479964 0.380933 0.111927
2740 2 0.0589769 0.448986 0.153513
2742 4 0.079635 0.453695 0.144694
2741 4 0.0383188 0.444278 0.162332
141 1 0.145752 0.422312 0.0853195
524 4 0.123773 0.416323 0.10819
1319 4 0.0924107 0.457691 0.13263
1318 2 0.104105 0.473254 0.128668
144 3 0.140759 0.420879 0.107771
1320 4 0.115799 0.488817 0.124706
3150 4 0.132313 0.481686 0.139862
4587 4 0.186916 0.423245 0.083115
3148 2 0.159694 0.473358 0.142868
3149 4 0.187075 0.465031 0.145874
1289 4 0.205865 0.426004 0.0943575
2873 4 0.204171 0.470299 0.141869
1288 2 0.220142 0.437869 0.103605
2872 2 0.204818 0.487963 0.126708
225 3 0.254235 0.490922 0.087236
1290 4 0.234419 0.449733 0.112853
4277 4 0.247364 0.459143 0.1168
4276 2 0.26881 0.464551 0.121035
4278 4 0.290256 0.469959 0.125269
386 4 0.328517 0.430335 0.0972957
3663 4 0.327337 0.446733 0.105396
102 3 0.30796 0.474676 0.122977
104 3 0.330084 0.486605 0.14522
101 1 0.31938 0.488731 0.124241
105 3 0.337166 0.483014 0.108125
3661 2 0.354235 0.435451 0.111427
1419 4 0.327476 0.490472 0.164677
3662 4 0.381134 0.424169 0.117459
2475 4 0.349697 0.491395 0.11752
2473 2 0.370687 0.497899 0.118731
2541 4 0.469981 0.506569 0.0835001
1405 2 0.018683 0.0693209 0.224934
1407 4 0.0428333 0.0673577 0.215839
2472 4 0.0619296 0.0669726 0.210577
4155 4 0.167446 0.0754295 0.187985
4153 2 0.188578 0.0644824 0.203898
4154 4 0.20971 0.0535354 0.219812
1127 4 0.210521 0.0686734 0.23179
1126 2 0.219533 0.0834841 0.243871
759 4 0.321753 0.0191936 0.180014
2644 2 0.351405 0.0176174 0.24586
2645 4 0.332991 0.00893544 0.239545
1688 4 0.389973 0.0220661 0.24707
1687 2 0.402541 0.0351729 0.237183
1689 4 0.415108 0.0482798 0.227295
3555 4 0.430187 0.0535942 0.216914
3553 2 0.453993 0.0558254 0.215753
3554 4 0.4778 0.0580566 0.214592
588 4 0.49458 0.0603207 0.206191
2514 4 0.0181558 0.118398 0.211759
2837 4 0.00492365 0.109192 0.208156
2470 2 0.0663249 0.0831855 0.225207
2512 2 0.0222842 0.138435 0.205864
2471 4 0.0707203 0.0993983 0.239837
2513 4 0.0264126 0.158472 0.199968
53 3 0.0458391 0.159209 0.198547
51 1 0.0668099 0.156864 0.21034
52 3 0.0609496 0.160391 0.232686
55 3 0.0851958 0.135849 0.207483
1475 4 0.10291 0.134985 0.196411
1474 2 0.125714 0.119543 0.208651
1476 4 0.148519 0.104102 0.22089
747 4 0.153296 0.116928 0.231043
3510 4 0.270183 0.149778 0.169152
35 3 0.405092 0.155086 0.165891
3063 4 0.417912 0.11463 0.245982
405 4 0.43117 0.112031 0.188271
3061 2 0.427463 0.118113 0.223912
3062 4 0.437015 0.121597 0.201842
2937 4 0.463649 0.155893 0.169736
311 4 0.47102 0.170768 0.166747
2534 4 0.00290932 0.219199 0.238913
712 2 0.00420268 0.245638 0.216299
2533 2 0.021555 0.195267 0.240024
2535 4 0.0402006 0.171336 0.241134
54 3 0.0747448 0.172544 0.203027
473 4 0.0909423 0.177124 0.194647
472 2 0.104609 0.189309 0.184856
474 4 0.118276 0.201493 0.175065
4077 4 0.0830342 0.255769 0.183218
300 4 0.1241 0.216847 0.174794
3588 4 0.326108 0.1636 0.239816
3586 2 0.327262 0.185655 0.240766
3587 4 0.328416 0.207711 0.241715
2753 4 0.377926 0.18202 0.184735
2752 2 0.3859 0.184906 0.20774
2754 4 0.393875 0.187793 0.230744
1231 2 0.421571 0.196601 0.246161
1232 4 0.414806 0.185103 0.227664
310 2 0.47482 0.188267 0.17979
312 4 0.478619 0.205767 0.192833
530 4 0.483022 0.204651 0.21245
529 2 0.485204 0.205247 0.237324
714 4 0.0194187 0.252027 0.200483
4076 4 0.0367162 0.249481 0.188423
4075 2 0.0598752 0.252625 0.18582
3221 4 0.0261866 0.319079 0.201109
932 4 0.0972087 0.261875 0.191932
4511 4 0.0155195 0.335452 0.213981
931 2 0.122888 0.260307 0.193104
2580 4 0.11336 0.320646 0.205222
933 4 0.148568 0.258738 0.194276
2537 4 0.151055 0.275528 0.196717
2536 2 0.172853 0.28088 0.198389
2538 4 0.194651 0.286232 0.20006
3632 4 0.188321 0.303717 0.190897
3631 2 0.205688 0.310617 0.203144
3285 4 0.281837 0.28728 0.168447
3283 2 0.303855 0.292268 0.170526
3633 4 0.223054 0.317516 0.215391
3284 4 0.325873 0.297256 0.172605
236 4 0.34459 0.296945 0.175347
235 2 0.361013 0.303751 0.189173
237 4 0.377436 0.310558 0.202999
2783 4 0.392888 0.308526 0.216912
2782 2 0.412431 0.308606 0.201363
2784 4 0.431973 0.308686 0.185814
2401 2 0.450384 0.333078 0.16607
2403 4 0.446919 0.317298 0.182018
4510 2 0.0197763 0.338775 0.238062
2578 2 0.100474 0.342794 0.216604
2579 4 0.087589 0.364942 0.227986
2690 4 0.336019 0.370872 0.221568
507 4 0.381076 0.363947 0.172641
2689 2 0.35058 0.36435 0.200308
2691 4 0.365141 0.357827 0.179047
1801 2 0.0186532 0.418668 0.168753
1803 4 0.0369389 0.428442 0.17006
1389 4 0.00727855 0.452962 0.22983
2657 4 0.025652 0.449931 0.241529
2694 4 0.115245 0.488623 0.23874
3705 4 0.16441 0.493203 0.206354
1417 2 0.35161 0.491272 0.169517
1418 4 0.375744 0.492072 0.174357
3646 2 0.0525745 0.0616892 0.327843
2262 4 0.142377 0.00977525 0.301597
2127 4 0.161274 0.0119599 0.30217
2125 2 0.181756 0.0183677 0.30757
2126 4 0.202238 0.0247754 0.312969
1676 4 0.220842 0.0299813 0.309885
1675 2 0.222945 0.0513168 0.314083
1677 4 0.225048 0.0726524 0.31828
545 4 0.272041 0.0118638 0.276637
1370 4 0.272882 0.0052345 0.29546
546 4 0.31491 0.0125043 0.251417
544 2 0.293475 0.0121841 0.264027
1865 4 0.320714 0.0670264 0.306319
13 3 0.335629 0.0710552 0.297076
1864 2 0.312688 0.0651256 0.329593
2646 4 0.369819 0.0262993 0.252174
11 1 0.348978 0.0798233 0.284697
14 3 0.361355 0.0653942 0.267362
15 3 0.365548 0.0830478 0.298113
3665 4 0.499568 0.996458 0.318122
1218 4 0.486243 0.993974 0.330711
3648 4 0.0524039 0.0786276 0.311261
745 2 0.163104 0.122753 0.251837
365 4 0.1237 0.147181 0.333238
1695 4 0.232892 0.0866339 0.31679
746 4 0.172912 0.128578 0.272632
1128 4 0.228545 0.0982948 0.255952
1693 2 0.231387 0.0972665 0.294448
1694 4 0.229883 0.107899 0.272106
511 2 0.288653 0.129043 0.327233
512 4 0.299246 0.144839 0.320498
513 4 0.278061 0.113247 0.333969
2463 4 0.321941 0.160336 0.258388
428 4 0.303468 0.156692 0.308904
12 3 0.332764 0.100007 0.275798
2461 2 0.334351 0.135962 0.263914
2462 4 0.346761 0.111587 0.26944
427 2 0.322973 0.164787 0.312446
2846 4 0.370556 0.10682 0.263986
2845 2 0.397083 0.102733 0.261753
726 4 0.366431 0.0970725 0.30896
724 2 0.381424 0.10163 0.326546
2813 4 0.36134 0.159317 0.323207
2847 4 0.423611 0.0986453 0.259519
2812 2 0.385529 0.16059 0.326131
2814 4 0.409717 0.161863 0.329055
3236 4 0.0637802 0.183424 0.30487
3235 2 0.0865721 0.174841 0.319112
3237 4 0.109364 0.166258 0.333354
1796 4 0.240137 0.226193 0.271968
1795 2 0.266695 0.2124 0.278084
1797 4 0.293254 0.198606 0.284199
429 4 0.342478 0.172882 0.315987
678 4 0.386276 0.234375 0.320331
676 2 0.399934 0.223222 0.29955
1233 4 0.428335 0.208098 0.264657
677 4 0.413591 0.21207 0.278769
42 3 0.491805 0.16794 0.311202
531 4 0.487387 0.205844 0.262198
107 3 0.00314185 0.32455 0.308289
106 1 0.00943865 0.320501 0.286067
108 3 0.0300607 0.300061 0.284145
3014 4 0.11682 0.247635 0.283134
3013 2 0.132107 0.260434 0.281698
3015 4 0.147395 0.273234 0.280262
3059 4 0.153334 0.287155 0.286662
3058 2 0.166833 0.297373 0.300156
3060 4 0.180331 0.307591 0.313651
3543 4 0.201526 0.302204 0.308241
3541 2 0.22609 0.302155 0.313032
3542 4 0.250654 0.302105 0.317822
3626 4 0.267999 0.292967 0.330729
3625 2 0.289286 0.295703 0.320386
3627 4 0.310573 0.298438 0.310043
2993 4 0.315772 0.308913 0.323946
1799 4 0.328041 0.296676 0.2739
2992 2 0.340792 0.307099 0.330167
1798 2 0.355224 0.282329 0.27662
1800 4 0.382407 0.267982 0.27934
1601 4 0.383441 0.276747 0.297251
1600 2 0.402505 0.277718 0.312833
1602 4 0.421569 0.27869 0.328416
2840 4 0.433934 0.269961 0.284183
2839 2 0.457089 0.268054 0.295451
2841 4 0.480243 0.266147 0.306718
110 3 0.0147291 0.337106 0.277875
4512 4 0.024033 0.342098 0.262144
582 4 0.0239451 0.378028 0.270082
580 2 0.0445982 0.374867 0.285862
581 4 0.0652513 0.371705 0.301643
3818 4 0.0644548 0.368421 0.320269
3817 2 0.0916693 0.362041 0.321342
3819 4 0.118884 0.355662 0.322416
493 2 0.149888 0.360445 0.336586
495 4 0.171256 0.366147 0.333185
410 4 0.186237 0.366683 0.317783
409 2 0.210963 0.366715 0.314169
411 4 0.235688 0.366748 0.310555
446 4 0.242675 0.38063 0.314473
445 2 0.266706 0.382507 0.314669
447 4 0.290737 0.384385 0.314865
3813 4 0.309727 0.382821 0.324141
2600 4 0.496487 0.379107 0.30557
2656 2 0.0323419 0.436599 0.26268
2658 4 0.0390318 0.423267 0.283831
4032 4 0.307972 0.454273 0.331971
4030 2 0.316343 0.458967 0.309828
4031 4 0.324713 0.463661 0.287686
302 4 0.34548 0.462007 0.283519
301 2 0.372139 0.457457 0.281182
303 4 0.398797 0.452907 0.278845
3686 4 0.409524 0.462577 0.269949
3685 2 0.428265 0.471788 0.271921
3687 4 0.447005 0.480998 0.273894
1391 4 0.460891 0.488852 0.270846
1390 2 0.480748 0.49684 0.270491
3647 4 0.0527451 0.0447509 0.344424
1866 4 0.304662 0.0632249 0.352867
1839 4 0.380578 0.997686 0.346521
4014 4 0.467484 0.070675 0.415539
3549 4 0.485016 0.0747682 0.410419
364 2 0.148693 0.14697 0.335599
366 4 0.173686 0.146758 0.33796
383 4 0.178166 0.160302 0.350766
249 4 0.331429 0.141484 0.413907
725 4 0.396417 0.106188 0.344132
1851 4 0.342294 0.143298 0.398711
1849 2 0.361806 0.143484 0.414234
2676 4 0.430334 0.157135 0.337029
649 2 0.0428526 0.201594 0.417764
651 4 0.0615817 0.201382 0.401086
382 2 0.182274 0.180802 0.347544
384 4 0.186383 0.201303 0.344321
2918 4 0.368143 0.236189 0.330883
2919 4 0.370204 0.197328 0.357627
2917 2 0.369173 0.216759 0.344255
662 4 0.407342 0.198031 0.407394
2178 4 0.413387 0.179075 0.409175
2674 2 0.443119 0.170212 0.34656
2675 4 0.455905 0.183288 0.356091
663 4 0.446824 0.213212 0.398284
661 2 0.427083 0.205622 0.402839
44 3 0.49487 0.178568 0.346317
1142 4 0.191748 0.27253 0.400683
3323 4 0.196388 0.287003 0.391561
3322 2 0.213905 0.297513 0.389173
1141 2 0.168809 0.28269 0.414673
3324 4 0.231422 0.308023 0.386786
1446 4 0.230371 0.318608 0.370131
1444 2 0.251755 0.323109 0.377241
1445 4 0.27314 0.32761 0.384351
3473 4 0.294831 0.317799 0.386348
2994 4 0.365812 0.305284 0.336388
1415 4 0.371321 0.320781 0.334499
1697 4 0.422559 0.287555 0.345612
1696 2 0.444468 0.276167 0.360617
1414 2 0.386291 0.332339 0.342903
1698 4 0.466377 0.264778 0.375621
1383 4 0.464577 0.279851 0.386749
1381 2 0.485571 0.274695 0.402738
4 3 0.0151369 0.358996 0.396759
4068 4 0.0287814 0.363547 0.383286
4066 2 0.0509185 0.36651 0.375453
494 4 0.128519 0.354742 0.339988
4067 4 0.0730556 0.369474 0.36762
1575 4 0.0728472 0.386146 0.375637
1573 2 0.0944661 0.389133 0.366428
1574 4 0.116085 0.392121 0.357218
2517 4 0.123439 0.402701 0.372356
3755 4 0.15839 0.405249 0.405316
3472 2 0.304235 0.335149 0.383225
3474 4 0.313639 0.352499 0.380103
3811 2 0.316938 0.370959 0.3461
3812 4 0.324148 0.359098 0.368059
1416 4 0.401261 0.343897 0.351306
1061 4 0.408901 0.350907 0.366415
1060 2 0.433646 0.349962 0.372265
1062 4 0.458392 0.349016 0.378114
3321 4 0.474886 0.343901 0.364813
3319 2 0.492217 0.353211 0.372769
4361 4 0.0868718 0.468608 0.414832
3899 4 0.0973867 0.481572 0.366118
4360 2 0.0904039 0.466119 0.390062
4362 4 0.0939359 0.46363 0.365292
3898 2 0.0983473 0.498669 0.350342
2515 2 0.12956 0.420041 0.361591
2516 4 0.13568 0.437381 0.350826
3754 2 0.152928 0.426799 0.417017
2298 4 0.319827 0.453926 0.348444
2296 2 0.323004 0.471709 0.361551
2297 4 0.326181 0.489491 0.374657
412 2 0.411435 0.49277 0.350215
414 4 0.434091 0.473516 0.358847
2922 4 0.502626 0.457064 0.360832
2920 2 0.477135 0.45966 0.355299
2921 4 0.451644 0.462255 0.349766
812 4 0.262837 0.00451554 0.450971
2963 4 0.257343 0.011607 0.468654
2962 2 0.263197 0.0234603 0.487401
1977 4 0.384882 0.0202267 0.463495
4389 4 0.403769 0.019819 0.4665
4387 2 0.408607 0.0359703 0.452154
1975 2 0.379523 0.00634378 0.480463
4388 4 0.413445 0.0521217 0.437809
4013 4 0.42964 0.0570968 0.434205
2719 2 0.469278 0.00792702 0.459633
4012 2 0.448562 0.0638859 0.424872
2721 4 0.457463 0.0223144 0.479485
1152 4 0.468688 0.0285315 0.490404
3327 4 0.000955332 0.153589 0.449114
1181 4 0.184281 0.143569 0.454109
1180 2 0.207651 0.142574 0.444104
1182 4 0.231022 0.141579 0.434098
2238 4 0.237638 0.122227 0.428547
2236 2 0.265119 0.113647 0.426154
2237 4 0.2926 0.105067 0.42376
248 4 0.286833 0.141715 0.436746
826 2 0.285443 0.154332 0.479801
828 4 0.289261 0.15869 0.4559
247 2 0.309131 0.141599 0.425326
1850 4 0.381317 0.143669 0.429758
2177 4 0.400176 0.144571 0.429761
1699 2 0.409589 0.149043 0.497252
2176 2 0.406781 0.161823 0.419468
1700 4 0.427765 0.127874 0.486628
399 4 0.440425 0.135132 0.478096
397 2 0.45984 0.132366 0.461056
398 4 0.479256 0.1296 0.444016
2766 4 0.490598 0.132361 0.429323
650 4 0.0241236 0.201806 0.434443
3325 2 0.00920841 0.171831 0.447358
3326 4 0.0174615 0.190074 0.445601
356 4 0.236468 0.190162 0.477265
576 4 0.232495 0.191835 0.496938
355 2 0.243855 0.204706 0.462868
357 4 0.251243 0.219249 0.448472
3806 4 0.266839 0.210717 0.433746
3805 2 0.294361 0.197932 0.431646
3807 4 0.321883 0.185147 0.429547
2376 4 0.049633 0.3094 0.492632
1821 4 0.0756594 0.2943 0.471715
2374 2 0.0289531 0.332433 0.491194
1819 2 0.0955873 0.301857 0.475355
2734 2 0.132428 0.256344 0.500937
1820 4 0.115515 0.309414 0.478994
2735 4 0.132665 0.275613 0.488134
1143 4 0.14587 0.292851 0.428663
899 4 0.155132 0.268625 0.482576
509 4 0.129239 0.318543 0.479827
898 2 0.178396 0.264815 0.470279
508 2 0.147803 0.328048 0.47966
900 4 0.20166 0.261004 0.457983
2339 4 0.220039 0.260402 0.450888
2338 2 0.242318 0.263272 0.44332
2340 4 0.264597 0.266142 0.435751
680 4 0.286876 0.262363 0.436176
679 2 0.309038 0.266388 0.430842
681 4 0.331201 0.270414 0.425509
2655 4 0.331774 0.289813 0.42485
2653 2 0.347367 0.301052 0.432491
2654 4 0.36296 0.312292 0.440131
948 4 0.371051 0.32665 0.440045
2375 4 0.00827314 0.355465 0.489756
510 4 0.166366 0.337553 0.479493
1225 2 0.14673 0.407235 0.487443
3500 4 0.176417 0.349704 0.482668
3499 2 0.201661 0.345238 0.491131
3501 4 0.226905 0.340771 0.499594
946 2 0.385552 0.340205 0.440404
947 4 0.400053 0.35376 0.440763
1908 4 0.409236 0.366847 0.448312
1907 4 0.419384 0.404032 0.466592
1906 2 0.41431 0.38544 0.457452
3695 4 0.040494 0.437757 0.485233
3684 4 0.0192781 0.451664 0.490171
3694 2 0.0626139 0.418234 0.494262
1163 4 0.0723166 0.471786 0.429061
1162 2 0.0885805 0.469493 0.44881
1164 4 0.104844 0.467199 0.468558
1226 4 0.141981 0.426 0.471476
200 3 0.152072 0.436441 0.478365
197 3 0.119877 0.470121 0.479619
3756 4 0.147465 0.44835 0.428718
198 3 0.14132 0.458188 0.44763
196 1 0.143102 0.457872 0.470775
4105 2 0.179713 0.489773 0.488502
199 3 0.158602 0.46741 0.477432
4106 4 0.175368 0.473274 0.474269
4244 4 0.262567 0.472427 0.483173
4243 2 0.279405 0.483762 0.482582
4245 4 0.296243 0.495097 0.481992
2348 4 0.394713 0.488561 0.485531
1811 4 0.411224 0.423371 0.468679
1812 4 0.397952 0.469317 0.48636
1810 2 0.404588 0.446344 0.47752
2964 4 0.269051 0.0353137 0.506147
912 4 0.287322 0.0398397 0.511054
910 2 0.304919 0.0482923 0.520265
911 4 0.322516 0.0567448 0.529477
3146 4 0.336486 0.0642792 0.523644
3145 2 0.35554 0.0712985 0.532196
2588 4 0.375705 0.0783585 0.560567
3147 4 0.374594 0.0783179 0.540747
1151 4 0.47923 0.06181 0.516676
1150 2 0.473959 0.0451708 0.50354
3359 4 0.48303 0.0764451 0.524307
3525 4 0.185749 0.156208 0.574984
3462 4 0.202237 0.136438 0.575276
3460 2 0.22943 0.126722 0.580091
514 2 0.278267 0.13738 0.53119
516 4 0.271874 0.137396 0.507016
515 4 0.284661 0.137365 0.555364
1743 4 0.282898 0.0986848 0.559434
1741 2 0.297523 0.0866248 0.579475
827 4 0.281625 0.149974 0.503702
3358 2 0.479638 0.0875091 0.546647
3360 4 0.476246 0.098573 0.568987
2736 4 0.132192 0.237074 0.513739
3523 2 0.18299 0.171784 0.556002
3524 4 0.180231 0.18736 0.537019
575 4 0.192236 0.183616 0.518828
939 4 0.133638 0.23467 0.572853
574 2 0.212365 0.187725 0.507883
3038 4 0.222708 0.221398 0.557358
3037 2 0.246156 0.224281 0.556809
585 4 0.287909 0.208949 0.556635
3039 4 0.269603 0.227163 0.55626
583 2 0.305827 0.216575 0.546564
584 4 0.323745 0.224201 0.536493
1701 4 0.391414 0.170211 0.507876
2990 4 0.503429 0.275555 0.529666
980 4 0.00806259 0.368653 0.50449
558 4 0.0581143 0.368397 0.549443
3177 4 0.0536534 0.360371 0.565328
556 2 0.0694011 0.379086 0.533906
557 4 0.0806879 0.389776 0.51837
3696 4 0.0847337 0.398712 0.50329
2801 4 0.105366 0.411682 0.555999
2800 2 0.118958 0.404235 0.534334
2802 4 0.132549 0.396789 0.512668
1227 4 0.151479 0.38847 0.503411
2105 4 0.242804 0.347718 0.577604
711 4 0.233581 0.354482 0.503538
709 2 0.25961 0.344348 0.512173
710 4 0.285638 0.334215 0.520808
1135 2 0.464988 0.407905 0.577122
1137 4 0.476523 0.383026 0.574656
1947 4 0.132964 0.469352 0.57593
1910 4 0.131381 0.452569 0.578492
1945 2 0.155428 0.471691 0.567968
1946 4 0.177892 0.474029 0.560005
3056 4 0.261813 0.469517 0.581421
3055 2 0.282673 0.452488 0.568221
431 4 0.374163 0.406429 0.54518
3057 4 0.303533 0.435458 0.555021
432 4 0.320001 0.437215 0.546529
430 2 0.347082 0.421822 0.545855
1136 4 0.453453 0.432783 0.579587
341 4 0.10762 0.0397924 0.627179
340 2 0.132759 0.0209602 0.623813
346 2 0.135816 0.0771043 0.652023
3935 4 0.253042 0.0635385 0.651683
3934 2 0.263213 0.0493788 0.631354
3936 4 0.273384 0.0352191 0.611024
1742 4 0.312149 0.0745648 0.599516
458 4 0.351431 0.0760045 0.622994
2587 2 0.370842 0.0757676 0.584675
2589 4 0.365979 0.0731767 0.608783
2277 4 0.445265 0.0466773 0.610103
2275 2 0.440128 0.0569907 0.63288
2276 4 0.43499 0.067304 0.655657
1193 4 0.11162 0.130137 0.668134
1192 2 0.124552 0.139742 0.653127
348 4 0.129206 0.0884767 0.629786
3308 4 0.136642 0.0880564 0.610431
1194 4 0.137485 0.149346 0.63812
3309 4 0.156445 0.122411 0.608616
3307 2 0.146543 0.105234 0.609524
1184 4 0.145061 0.160745 0.651572
3003 4 0.195565 0.0968871 0.657339
3095 4 0.202549 0.109875 0.649361
3094 2 0.222039 0.117123 0.642645
3461 4 0.256624 0.117006 0.584907
3096 4 0.241529 0.124372 0.63593
98 3 0.257683 0.131047 0.6273
97 3 0.265715 0.160439 0.619642
99 3 0.287282 0.127854 0.601874
96 1 0.276176 0.137557 0.62194
100 3 0.293473 0.131355 0.638527
4224 4 0.283049 0.161785 0.608857
459 4 0.315943 0.122412 0.636126
457 2 0.333687 0.0992083 0.62956
2831 4 0.317323 0.138704 0.627676
2830 2 0.333053 0.151133 0.627514
2832 4 0.348782 0.163561 0.627353
374 4 0.489243 0.100881 0.582489
2264 4 0.0407516 0.21956 0.6414
2263 2 0.0437401 0.20647 0.662448
3197 4 0.0504817 0.229527 0.634467
3196 2 0.075598 0.228379 0.629949
3198 4 0.100714 0.22723 0.62543
937 2 0.127707 0.229657 0.595887
938 4 0.121776 0.224644 0.61892
4222 2 0.276002 0.186336 0.608883
4223 4 0.268955 0.210888 0.60891
3191 4 0.357471 0.175261 0.620462
3190 2 0.372036 0.187261 0.612214
3192 4 0.386602 0.199262 0.603965
2852 4 0.387455 0.179714 0.665324
1078 2 0.00701673 0.318789 0.640914
1079 4 0.0269504 0.326143 0.645447
3026 4 0.0325279 0.3301 0.66464
3025 2 0.0559262 0.332305 0.65993
3158 4 0.0977727 0.328209 0.643641
3140 4 0.208376 0.326087 0.613708
1017 4 0.356702 0.302147 0.583378
1015 2 0.375849 0.303889 0.598305
1016 4 0.394997 0.305631 0.613232
3536 4 0.40178 0.312005 0.629828
3535 2 0.41237 0.32854 0.632747
4113 4 0.491447 0.328845 0.661507
3027 4 0.0793246 0.33451 0.65522
3175 2 0.0532621 0.371097 0.587408
3176 4 0.0528708 0.381823 0.609488
944 4 0.0668224 0.390123 0.614432
943 2 0.0866605 0.394781 0.625212
3157 2 0.117746 0.334902 0.637097
945 4 0.106499 0.39944 0.635991
3141 4 0.158268 0.338659 0.633711
3183 4 0.119966 0.407517 0.643013
3159 4 0.137719 0.341594 0.630552
3181 2 0.131439 0.392433 0.662499
3139 2 0.183322 0.332373 0.62371
2106 4 0.201819 0.341158 0.600186
2104 2 0.222311 0.344438 0.588895
3537 4 0.422961 0.345076 0.635666
4111 2 0.464974 0.337287 0.654353
4112 4 0.4385 0.34573 0.647199
2310 4 0.0261481 0.466106 0.59495
1326 4 0.00573635 0.470881 0.602975
2308 2 0.0530435 0.452274 0.590098
2309 4 0.0799389 0.438442 0.585247
1911 4 0.113902 0.459618 0.625951
1909 2 0.122641 0.456094 0.602222
1140 4 0.124251 0.455775 0.643822
1138 2 0.13456 0.457931 0.666
634 2 0.0222221 0.0579113 0.739961
636 4 0.0252952 0.0578428 0.715143
4164 4 0.0178214 0.0587684 0.695518
3827 4 0.102532 0.0760038 0.725576
770 4 0.104006 0.076559 0.744816
3826 2 0.120984 0.0762938 0.70886
347 4 0.142427 0.0657318 0.674261
3828 4 0.139437 0.0765838 0.692143
1991 4 0.264665 0.0691005 0.664579
3001 2 0.20244 0.0772836 0.672652
3002 4 0.209316 0.0576801 0.687965
3314 4 0.222263 0.0451266 0.70224
3313 2 0.243819 0.0225342 0.702437
3315 4 0.265374 0.999942 0.702633
3406 2 0.28521 0.0278807 0.751743
3408 4 0.2779 0.0479305 0.736984
2076 4 0.318675 0.0423221 0.728628
2074 2 0.333253 0.0249916 0.711726
2075 4 0.34783 0.00766107 0.694825
4239 4 0.447743 0.0639992 0.671739
1026 4 0.462873 0.00111863 0.693732
4237 2 0.425796 0.0788478 0.685344
3364 2 0.0708022 0.154442 0.679662
3365 4 0.0903052 0.133996 0.669019
1990 2 0.266667 0.0859505 0.680053
1992 4 0.26867 0.1028 0.695527
2193 4 0.282231 0.109635 0.689173
2191 2 0.297966 0.121325 0.694909
2192 4 0.313701 0.133014 0.700644
443 4 0.332796 0.132086 0.70806
442 2 0.348243 0.144582 0.711085
444 4 0.36369 0.157079 0.71411
4238 4 0.403849 0.0936965 0.698948
3281 4 0.3835 0.157546 0.714738
857 4 0.45835 0.162798 0.750007
3366 4 0.0512991 0.174888 0.690304
2265 4 0.0467286 0.19338 0.683495
1183 2 0.152128 0.168421 0.672801
1185 4 0.159196 0.176097 0.69403
3280 2 0.391116 0.170037 0.731588
2851 2 0.406488 0.179968 0.681392
2853 4 0.425521 0.180222 0.69746
3282 4 0.398732 0.182528 0.748437
858 4 0.440041 0.186474 0.706511
856 2 0.449195 0.174636 0.728259
3263 4 0.102313 0.307311 0.746577
3262 2 0.112752 0.31256 0.725848
3264 4 0.123191 0.317809 0.705119
950 4 0.408197 0.334577 0.746641
3103 2 0.487224 0.25112 0.7459
2034 4 0.129174 0.332887 0.701563
2032 2 0.128612 0.355438 0.698203
2033 4 0.12805 0.37799 0.694843
3182 4 0.142911 0.377349 0.681986
4251 4 0.167612 0.39876 0.717841
1215 4 0.293341 0.363197 0.711701
3296 4 0.290542 0.38132 0.716069
1213 2 0.296716 0.349868 0.732639
3642 4 0.335529 0.344035 0.748489
3295 2 0.300755 0.396053 0.726529
3297 4 0.310968 0.410785 0.736989
3641 4 0.389831 0.330506 0.742821
3640 2 0.36268 0.337271 0.745655
2859 4 0.392314 0.409677 0.678802
949 2 0.4308 0.337918 0.741339
1920 4 0.373126 0.407591 0.67329
1209 4 0.465457 0.338959 0.720834
2857 2 0.416315 0.405067 0.690171
2858 4 0.440315 0.400456 0.701539
3152 4 0.452963 0.396069 0.718267
951 4 0.453402 0.34126 0.736038
1207 2 0.480222 0.348797 0.733026
3151 2 0.470556 0.40397 0.707999
993 4 0.498581 0.341172 0.670853
3153 4 0.48815 0.411871 0.697732
1208 4 0.494988 0.358635 0.745219
4249 2 0.161842 0.421385 0.708493
1139 4 0.14487 0.460086 0.688178
4250 4 0.156072 0.44401 0.699145
1918 2 0.349654 0.428698 0.671976
1919 4 0.326183 0.449804 0.670662
635 4 0.0191491 0.0579798 0.764779
2091 4 0.0252853 0.0406572 0.774701
2089 2 0.0254375 0.0477413 0.798415
2090 4 0.0255898 0.0548254 0.82213
1004 4 0.0195181 0.0741439 0.82452
769 2 0.113081 0.0689196 0.768002
1305 4 0.121344 0.0539122 0.809474
1303 2 0.100516 0.0633541 0.82592
456 4 0.117674 0.00223094 0.748046
771 4 0.122157 0.0612803 0.791187
2182 2 0.197452 0.0206386 0.775159
2183 4 0.199323 0.0418212 0.780778
2184 4 0.195581 0.999456 0.76954
2564 4 0.200165 0.056783 0.793576
2563 2 0.225556 0.0480693 0.803548
2565 4 0.250947 0.0393556 0.81352
3407 4 0.292521 0.00783089 0.766502
4337 4 0.272244 0.0290903 0.808726
2439 4 0.276331 0.00202259 0.770644
4336 2 0.290395 0.0301765 0.825319
2197 2 0.00616473 0.13632 0.795923
2198 4 0.0291213 0.137945 0.788233
1259 4 0.0380378 0.146851 0.776457
1258 2 0.0592305 0.151041 0.768139
1260 4 0.0804233 0.155232 0.759821
2136 4 0.0939573 0.14451 0.77391
2134 2 0.11475 0.151246 0.775524
2135 4 0.135542 0.157982 0.777138
825 4 0.154289 0.161201 0.780262
823 2 0.177782 0.162885 0.774624
824 4 0.201276 0.164568 0.768987
4541 4 0.218964 0.119542 0.818922
3081 4 0.221546 0.164547 0.765791
4029 4 0.365726 0.159519 0.825282
4027 2 0.381686 0.163064 0.807942
822 4 0.414472 0.163358 0.802559
820 2 0.432774 0.160386 0.78435
821 4 0.451077 0.157413 0.766142
2795 4 0.0504123 0.209752 0.830117
2794 2 0.0651175 0.223123 0.830615
275 4 0.0901392 0.238378 0.815667
2153 4 0.138595 0.232825 0.786823
2152 2 0.158895 0.238864 0.779716
3079 2 0.232912 0.177712 0.777586
3080 4 0.244278 0.190876 0.789382
2154 4 0.179195 0.244904 0.772608
1073 4 0.346341 0.173462 0.820972
4028 4 0.397645 0.166609 0.790601
471 4 0.363727 0.245298 0.796951
469 2 0.389043 0.238587 0.78736