ITEM: TIMESTEP
2046500
ITEM: NUMBER OF ATOMS
4590
ITEM: BOX BOUNDS xy xz yz pp pp pp
-9.9985700000000008e+00 9.9985700000000008e+00 0.0000000000000000e+00
-9.9985700000000008e+00 9.9985700000000008e+00 0.0000000000000000e+00
-9.9985700000000008e+00 9.9985700000000008e+00 0.0000000000000000e+00
ITEM: ATOMS id type xs ys zs
67 3 0.0406929 0.0728725 0.0039035
1110 4 0.0511107 0.0555425 0.00778297
1108 2 0.0464745 0.0310973 0.0102566
1109 4 0.0418384 0.00665219 0.0127303
66 1 0.0187189 0.0796749 0.00400386
125 3 0.0723654 0.000443356 0.086565
69 3 0.00637463 0.0649713 0.0170362
1925 4 0.148238 0.0105055 0.00762931
3544 2 0.144184 0.0342234 0.0819791
122 3 0.104074 0.0178367 0.0773496
3545 4 0.166815 0.0422532 0.0889495
89 3 0.244893 0.0623798 0.0206454
1437 4 0.183079 0.043209 0.0764411
1435 2 0.204602 0.0346798 0.0858852
1436 4 0.226125 0.0261506 0.0953294
1008 4 0.362476 0.0345397 0.0578306
1006 2 0.380829 0.0515105 0.0572235
2786 4 0.364672 0.0365495 0.0775298
3809 4 0.400615 0.0135086 0.0629003
3808 2 0.416889 0.00177393 0.0778223
1007 4 0.399182 0.0684814 0.0566165
298 2 0.0615842 0.14192 0.0530354
299 4 0.0418277 0.127792 0.0470965
70 3 0.0174153 0.100701 0.0126553
300 4 0.0813406 0.156048 0.0589744
3983 4 0.400087 0.0892081 0.0554249
3234 4 0.346727 0.144046 0.00964411
788 4 0.352699 0.125686 0.00525178
115 3 0.420712 0.082918 3.79725e-05
113 3 0.454524 0.0975428 0.00781785
3982 2 0.42225 0.100515 0.0579052
3984 4 0.444413 0.111822 0.0603854
1169 4 0.450292 0.1026 0.0778535
2500 2 0.129542 0.193483 0.0161831
2501 4 0.136459 0.187687 0.0395012
632 4 0.154362 0.189365 0.0457124
631 2 0.169807 0.177785 0.0616043
633 4 0.185251 0.166205 0.0774962
738 4 0.18338 0.247557 0.0483069
3232 2 0.341108 0.167733 0.0153513
3233 4 0.335489 0.191419 0.0210584
3195 4 0.0102612 0.286872 0.050138
2528 4 0.0669425 0.270229 0.076133
3193 2 0.0298035 0.284127 0.065492
3194 4 0.0493458 0.281381 0.0808459
674 4 0.991506 0.290886 0.0525336
2804 4 0.12423 0.24702 0.0133818
2527 2 0.08563 0.285303 0.0691504
2529 4 0.104317 0.300377 0.0621679
2803 2 0.107877 0.260354 0.999967
736 2 0.170706 0.25431 0.0687754
1028 4 0.229794 0.294941 0.0395445
1027 2 0.239574 0.288448 0.0616212
3006 4 0.233222 0.297591 0.0203567
3004 2 0.247095 0.317392 0.0139796
2976 4 0.402187 0.320348 0.0582595
3335 4 0.401125 0.327585 0.0769582
2974 2 0.408096 0.30634 0.0384092
2975 4 0.414004 0.292332 0.0185589
2968 2 0.49416 0.263479 0.0676383
781 2 0.0310117 0.379636 0.0829194
639 4 0.0803451 0.383594 0.00680112
783 4 0.00952747 0.367283 0.0795966
3213 4 0.152692 0.354648 0.0353708
2610 4 0.0943807 0.370119 0.00997641
2608 2 0.116297 0.368928 0.0219535
2609 4 0.138213 0.367737 0.0339306
3211 2 0.166558 0.343206 0.0179926
3212 4 0.180425 0.331763 0.000614455
3005 4 0.260968 0.337192 0.00760246
3334 2 0.388221 0.348551 0.0813285
4414 2 0.335959 0.406779 0.998766
4415 4 0.358688 0.417183 0.999336
1047 4 0.0954722 0.46481 0.06667
1045 2 0.0947097 0.483555 0.05014
1046 4 0.0939472 0.5023 0.0336099
288 4 0.222401 0.452732 0.0639406
525 4 0.206357 0.44069 0.0679493
3114 4 0.378783 0.415794 0.00598698
124 3 0.0760454 0.037351 0.0930421
3484 2 0.0126959 0.0466083 0.123941
3485 4 0.0271858 0.0356817 0.141141
3546 4 0.121554 0.0261935 0.0750088
121 1 0.0869275 0.016861 0.0926528
123 3 0.0958061 0.0122088 0.113579
489 4 0.143762 0.0560796 0.136947
396 4 0.134348 0.0731455 0.136557
487 2 0.16197 0.0431594 0.148203
404 4 0.239677 0.0405751 0.101052
3270 4 0.197725 0.0377549 0.167792
403 2 0.257405 0.0503179 0.115749
405 4 0.275132 0.0600608 0.130446
2606 4 0.291523 0.0699834 0.127988
2605 2 0.305035 0.060574 0.146805
258 4 0.325699 0.000336781 0.121039
2787 4 0.334055 0.0153839 0.110927
2785 2 0.349363 0.0259667 0.0942283
758 4 0.465336 0.995429 0.142429
1069 2 0.00715756 0.133115 0.126046
1071 4 0.0186473 0.133682 0.148246
2755 2 0.0517714 0.111958 0.156222
2756 4 0.0307502 0.124332 0.161715
2757 4 0.0727926 0.0995845 0.150729
395 4 0.0870658 0.0890211 0.140176
394 2 0.110707 0.0810833 0.138366
2806 2 0.350117 0.0812876 0.169151
3587 4 0.380124 0.136281 0.156915
3586 2 0.394455 0.154129 0.166978
2807 4 0.368 0.0987345 0.168166
1168 2 0.474537 0.107209 0.0818676
1170 4 0.498782 0.111818 0.0858816
474 4 0.107217 0.218133 0.159531
2838 4 0.193242 0.195098 0.150002
2708 4 0.192249 0.197544 0.129338
2707 2 0.195933 0.181794 0.110271
2709 4 0.199616 0.166044 0.091203
1463 4 0.293124 0.230167 0.137599
1462 2 0.305365 0.210944 0.147886
1464 4 0.317607 0.19172 0.158172
2754 4 0.480425 0.189004 0.153627
1103 4 0.0209367 0.321736 0.112458
1102 2 0.0409669 0.311439 0.123319
1104 4 0.0609971 0.301142 0.13418
690 4 0.00253417 0.31633 0.119766
1511 4 0.0719766 0.316389 0.13818
2959 2 0.140854 0.274805 0.119802
2960 4 0.134258 0.294623 0.133547
1510 2 0.0932396 0.322572 0.149793
2961 4 0.147451 0.254987 0.106057
1512 4 0.114503 0.328756 0.161405
737 4 0.158032 0.261063 0.0892438
2965 2 0.25333 0.299713 0.117453
2966 4 0.24585 0.279842 0.104248
1029 4 0.249354 0.281955 0.0836979
2967 4 0.26081 0.319583 0.130659
3106 2 0.367323 0.311915 0.16166
3107 4 0.391078 0.31299 0.153931
2969 4 0.474947 0.270943 0.0817935
708 4 0.441376 0.293527 0.151291
2633 4 0.450499 0.292181 0.134665
2634 4 0.478207 0.286469 0.09343
2632 2 0.464353 0.289325 0.114048
706 2 0.44018 0.270408 0.16074
2459 4 0.0720623 0.391997 0.0835951
782 4 0.0524959 0.391989 0.0862422
4088 4 0.156053 0.330055 0.0958896
2458 2 0.0893687 0.38525 0.100333
4087 2 0.154399 0.353403 0.104683
4089 4 0.152745 0.376751 0.113477
143 3 0.159052 0.395069 0.111819
2460 4 0.106675 0.378503 0.11707
145 3 0.152491 0.407047 0.146907
2578 2 0.29834 0.366446 0.134665
2579 4 0.309737 0.381091 0.117907
554 4 0.3225 0.385129 0.104558
2580 4 0.286944 0.351801 0.151422
3819 4 0.282909 0.364175 0.167503
3336 4 0.375318 0.369517 0.0856987
553 2 0.347269 0.384578 0.101185
555 4 0.372038 0.384028 0.097811
3492 4 0.0391872 0.488369 0.15063
4586 4 0.0981448 0.468739 0.0864511
141 1 0.152441 0.413033 0.124934
4585 2 0.11251 0.453498 0.100109
4587 4 0.126875 0.438258 0.113767
142 3 0.131157 0.419264 0.118827
2043 4 0.170555 0.496744 0.171469
144 3 0.166763 0.43098 0.121584
524 4 0.173252 0.425283 0.102118
523 2 0.189805 0.432987 0.0850334
286 2 0.240725 0.456175 0.080601
287 4 0.259048 0.459619 0.0972615
753 4 0.264913 0.456063 0.116509
751 2 0.282016 0.455537 0.13474
752 4 0.29912 0.45501 0.152971
3882 4 0.307784 0.46339 0.170585
2141 4 0.44673 0.492117 0.126602
2140 2 0.447194 0.485715 0.150768
1689 4 0.14387 0.0177147 0.236778
488 4 0.180178 0.0302392 0.159459
3268 2 0.217374 0.0493404 0.178032
3269 4 0.237024 0.0609259 0.188271
587 4 0.229942 0.0733269 0.202389
586 2 0.228929 0.0722097 0.227347
588 4 0.227916 0.0710925 0.252305
2808 4 0.332233 0.0638408 0.170135
2607 4 0.318547 0.0511645 0.165621
712 2 0.0344778 0.127154 0.223979
713 4 0.0405504 0.148297 0.235866
714 4 0.0284051 0.106012 0.212092
666 4 0.399207 0.150797 0.255603
664 2 0.388239 0.166086 0.239136
472 2 0.12678 0.227379 0.17206
2512 2 0.153489 0.185254 0.227813
2514 4 0.170187 0.178299 0.21055
473 4 0.146344 0.236625 0.184589
2513 4 0.136792 0.192209 0.245075
2574 4 0.143846 0.237073 0.204291
2837 4 0.182087 0.183875 0.19744
2836 2 0.187665 0.189486 0.173721
641 4 0.324011 0.176253 0.169251
640 2 0.339724 0.190144 0.182863
3588 4 0.408786 0.171977 0.177041
642 4 0.355438 0.204035 0.196475
665 4 0.377272 0.181375 0.22267
1762 2 0.358976 0.253843 0.233117
1764 4 0.369489 0.231431 0.2296
1233 4 0.423377 0.182906 0.185903
1232 4 0.467734 0.196198 0.167023
1231 2 0.445555 0.189552 0.176463
283 2 0.479016 0.236818 0.18369
285 4 0.455016 0.242436 0.179495
707 4 0.438983 0.24729 0.170188
339 4 0.0379238 0.295047 0.239949
337 2 0.0597356 0.291534 0.22824
338 4 0.0815474 0.288021 0.216532
2572 2 0.154322 0.245051 0.225547
2573 4 0.164798 0.25303 0.246803
246 4 0.0978749 0.298559 0.211989
244 2 0.12184 0.304967 0.215114
245 4 0.145806 0.311375 0.21824
2841 4 0.164473 0.319183 0.216492
2839 2 0.184285 0.304157 0.219116
2840 4 0.204097 0.289131 0.221741
677 4 0.208147 0.285466 0.240958
2909 4 0.338 0.292637 0.232711
2908 2 0.334657 0.298706 0.208687
2910 4 0.331313 0.304775 0.184662
3108 4 0.343568 0.310839 0.169388
1763 4 0.348463 0.276255 0.236634
2511 4 0.117368 0.3389 0.178108
3960 4 0.144393 0.382163 0.216643
2509 2 0.132663 0.355847 0.188308
2510 4 0.147959 0.372793 0.198508
3958 2 0.1369 0.388954 0.239511
3817 2 0.287275 0.360897 0.191903
3818 4 0.291641 0.357619 0.216304
110 3 0.306565 0.359981 0.228177
106 1 0.31752 0.356342 0.247809
108 3 0.325997 0.37634 0.25597
109 3 0.33477 0.341168 0.244554
4511 4 0.348983 0.346765 0.230851
4510 2 0.373866 0.349181 0.230363
4512 4 0.398748 0.351598 0.229875
494 4 0.411441 0.347442 0.215824
493 2 0.428646 0.351623 0.233478
2591 4 0.0061647 0.444432 0.179321
2592 4 0.0423352 0.476212 0.165817
2590 2 0.02425 0.460322 0.172569
3883 2 0.0242814 0.48053 0.232371
3885 4 0.0185536 0.499441 0.21705
2817 4 0.196332 0.510559 0.226649
2042 4 0.193487 0.493545 0.215793
2041 2 0.182021 0.495145 0.193631
3881 4 0.323423 0.505477 0.192602
3880 2 0.315604 0.484433 0.181593
2142 4 0.447658 0.479313 0.174934
279 4 0.436743 0.485794 0.189684
277 2 0.452391 0.491394 0.208364
774 4 0.483893 0.506958 0.221357
278 4 0.468039 0.496994 0.227045
3062 4 0.0870215 0.0746001 0.250362
20 3 0.022783 0.079806 0.277491
3647 4 0.0721324 0.0224302 0.331254
3555 4 0.155631 0.0221385 0.253637
3872 4 0.116294 0.0109626 0.281556
3646 2 0.0872007 0.0141868 0.313083
3553 2 0.163431 0.0432298 0.264569
3554 4 0.171232 0.0643212 0.275501
2534 4 0.042866 0.150025 0.255013
16 1 0.0119065 0.0966195 0.288338
2533 2 0.0658946 0.154764 0.263523
17 3 0.0270955 0.108811 0.300577
1517 4 0.0382408 0.1247 0.308571
1516 2 0.0525194 0.112604 0.325153
2535 4 0.0889232 0.159504 0.272033
3061 2 0.0934294 0.0880978 0.27041
3063 4 0.0998373 0.101595 0.290458
295 2 0.114474 0.131864 0.31929
296 4 0.109324 0.112769 0.303992
52 3 0.106759 0.162419 0.263702
2675 4 0.41945 0.150818 0.256231
2674 2 0.442817 0.146379 0.263942
2676 4 0.466184 0.141941 0.271652
2814 4 0.48135 0.153044 0.278593
1602 4 0.0289946 0.233167 0.265159
1796 4 0.0457396 0.229039 0.2741
2612 4 0.0191105 0.196559 0.26618
1795 2 0.0684276 0.222147 0.282032
55 3 0.122419 0.172179 0.296142
2797 2 0.0965398 0.247406 0.322991
53 3 0.133383 0.188943 0.264261
1797 4 0.0911157 0.215255 0.289964
51 1 0.115452 0.179892 0.275878
54 3 0.0989624 0.195959 0.278766
1800 4 0.12667 0.219379 0.330828
2798 4 0.0922834 0.231281 0.304362
2919 4 0.215996 0.247638 0.333367
3236 4 0.297339 0.182521 0.301877
3235 2 0.294562 0.16305 0.317315
1600 2 0.0299778 0.25761 0.259984
1601 4 0.0309611 0.282053 0.25481
452 4 0.0720804 0.325837 0.333951
1062 4 0.0366899 0.314885 0.345453
1861 2 0.114519 0.327233 0.29509
1862 4 0.131954 0.310343 0.289095
2660 4 0.150737 0.318695 0.284445
2917 2 0.223925 0.254701 0.310729
2918 4 0.231853 0.261764 0.288092
678 4 0.233069 0.252737 0.269391
676 2 0.220608 0.269101 0.255175
268 2 0.236316 0.319385 0.312881
2661 4 0.194117 0.316366 0.309216
269 4 0.211844 0.319634 0.318003
2659 2 0.172427 0.317531 0.296831
270 4 0.260788 0.319135 0.30776
417 4 0.265935 0.306426 0.292549
415 2 0.282848 0.316575 0.277183
416 4 0.299762 0.326724 0.261816
582 4 0.00270197 0.399153 0.285124
2488 2 0.0712957 0.355861 0.318761
2489 4 0.0492935 0.367524 0.316512
580 2 0.0185025 0.389046 0.301658
581 4 0.034303 0.378939 0.318193
1863 4 0.0970842 0.344122 0.301086
2490 4 0.0932979 0.344198 0.32101
3959 4 0.129408 0.395746 0.262378
3221 4 0.120594 0.400248 0.280151
3220 2 0.0975118 0.4084 0.27506
107 3 0.302795 0.347672 0.263208
495 4 0.445851 0.355805 0.251133
410 4 0.460551 0.354166 0.263801
409 2 0.482874 0.358801 0.274068
3222 4 0.0744295 0.416553 0.269968
1576 2 0.00177027 0.494779 0.295384
3884 4 0.0300092 0.461619 0.247692
1392 4 0.0317747 0.452699 0.26617
1390 2 0.0509168 0.439803 0.275787
1391 4 0.070059 0.426908 0.285404
1577 4 0.993509 0.471251 0.297224
669 4 0.2144 0.491074 0.281864
667 2 0.219218 0.484897 0.305609
668 4 0.224036 0.47872 0.329354
1377 4 0.0157427 0.034448 0.364572
1376 4 0.0332658 0.0374807 0.41131
1375 2 0.0245043 0.0359643 0.387941
1866 4 0.143566 0.0800125 0.370788
1864 2 0.164793 0.0768229 0.357965
2551 2 0.266424 0.00493288 0.376502
2552 4 0.287697 0.013767 0.386228
1622 4 0.281662 0.052626 0.395113
1623 4 0.328907 0.0472595 0.379625
1621 2 0.305284 0.0499427 0.387369
3549 4 0.270535 0.061272 0.409816
4014 4 0.284555 0.00379453 0.402993
402 4 0.343683 0.0464882 0.392481
400 2 0.36305 0.0514375 0.407501
401 4 0.382418 0.0563868 0.422521
3274 2 0.00258664 0.164902 0.407424
1518 4 0.066798 0.100508 0.341736
2964 4 0.0700077 0.0838588 0.406591
297 4 0.119624 0.15096 0.334588
1817 4 0.133789 0.138617 0.394869
1816 2 0.156642 0.146364 0.401419
1865 4 0.18602 0.0736333 0.345142
518 4 0.203032 0.136664 0.330268
519 4 0.18812 0.08899 0.332639
517 2 0.195576 0.112827 0.331453
3028 2 0.21618 0.137232 0.408333
3029 4 0.233276 0.11917 0.410925
3548 4 0.243331 0.1026 0.402556
578 4 0.191774 0.152008 0.338314
1818 4 0.179496 0.154111 0.40797
3030 4 0.199085 0.155293 0.405741
3547 2 0.256933 0.0819362 0.406186
365 4 0.295626 0.129726 0.347914
364 2 0.290445 0.142014 0.369065
3237 4 0.291785 0.143579 0.332753
366 4 0.285265 0.154302 0.390216
3275 4 0.0230994 0.171576 0.394779
3324 4 0.0417 0.169575 0.399838
3322 2 0.0647561 0.174632 0.408087
1798 2 0.145097 0.2131 0.346518
3323 4 0.0878122 0.179688 0.416336
1799 4 0.163525 0.206822 0.362209
579 4 0.180042 0.194955 0.361087
577 2 0.185908 0.173481 0.349701
3807 4 0.183904 0.221022 0.401812
1698 4 0.203692 0.221511 0.396167
1696 2 0.209613 0.233602 0.375097
1697 4 0.215533 0.245694 0.354027
383 4 0.287885 0.1688 0.405247
382 2 0.304415 0.187496 0.406808
663 4 0.338209 0.200901 0.399112
384 4 0.320945 0.206192 0.408369
662 4 0.366874 0.241825 0.397015
661 2 0.352541 0.221363 0.398064
451 2 0.080376 0.302463 0.337122
569 4 0.0050756 0.326 0.416119
2655 4 0.0415325 0.255415 0.398174
2653 2 0.0446681 0.269733 0.377916
2654 4 0.0478037 0.284051 0.357659
570 4 0.0550041 0.324102 0.414044
568 2 0.0300399 0.325051 0.415082
1060 2 0.0119181 0.314072 0.342153
2799 4 0.100796 0.263532 0.341621
453 4 0.0886716 0.27909 0.340294
2 3 0.0983582 0.321692 0.396931
3706 2 0.373024 0.307617 0.372559
3707 4 0.389855 0.294288 0.359745
438 4 0.406131 0.28472 0.361863
3708 4 0.356192 0.320947 0.385374
437 4 0.454125 0.291101 0.374377
436 2 0.430128 0.287911 0.36812
231 4 0.464567 0.307501 0.369617
229 2 0.487673 0.298357 0.366844
1774 2 0.00662454 0.446457 0.381946
1775 4 0.0305925 0.440105 0.378724
2507 4 0.239016 0.484308 0.342359
2508 4 0.245708 0.455293 0.382535
2506 2 0.242362 0.469801 0.362447
3167 4 0.470186 0.421019 0.382662
599 4 0.484695 0.434396 0.380941
3168 4 0.44265 0.452772 0.355564
3166 2 0.456418 0.436895 0.369113
2715 4 0.0381393 0.0287635 0.428182
813 4 0.0734285 0.034044 0.481005
2962 2 0.0546305 0.0772245 0.425158
2713 2 0.0598283 0.0165443 0.425851
2714 4 0.0815173 0.0043251 0.423519
2963 4 0.0392532 0.0705902 0.443724
811 2 0.0510332 0.030731 0.491619
812 4 0.0286378 0.0274181 0.502233
4389 4 0.354932 0.993274 0.479811
3051 4 0.39889 0.0669446 0.414372
3049 2 0.414368 0.0537066 0.428876
3050 4 0.429846 0.0404686 0.443381
3664 2 0.457924 0.0137979 0.431437
3666 4 0.448615 0.0360053 0.438171
3396 4 0.47153 0.0657937 0.494564
3394 2 0.477449 0.0448416 0.506859
3957 4 0.0749343 0.150705 0.44498
2518 2 0.0573839 0.152706 0.483061
3955 2 0.0882726 0.129892 0.441227
2824 2 0.139274 0.116612 0.459278
2825 4 0.11632 0.114648 0.449561
3956 4 0.101611 0.109078 0.437475
2826 4 0.162227 0.118577 0.468996
2697 4 0.182282 0.115699 0.466872
2695 2 0.206299 0.114518 0.473727
2696 4 0.230315 0.113337 0.480583
4001 4 0.249207 0.116323 0.47283
4000 2 0.262784 0.102362 0.488512
4002 4 0.276361 0.088401 0.504195
3327 4 0.296585 0.0884208 0.508773
2520 4 0.0633636 0.157932 0.459352
2338 2 0.000324279 0.216975 0.483527
2340 4 0.0161544 0.215125 0.464262
680 4 0.0137102 0.21898 0.441114
679 2 0.0247112 0.238039 0.429243
1142 4 0.100699 0.194134 0.423021
1141 2 0.107043 0.186616 0.446009
1143 4 0.113386 0.179097 0.468997
357 4 0.130174 0.187932 0.470407
355 2 0.151529 0.1914 0.482942
3806 4 0.15964 0.19004 0.43267
3805 2 0.171772 0.205531 0.417241
356 4 0.172884 0.194868 0.495477
576 4 0.189974 0.186995 0.48622
574 2 0.2045 0.199783 0.502051
344 4 0.46333 0.21582 0.427377
343 2 0.470751 0.235789 0.440468
4 3 0.0660393 0.306777 0.409001
681 4 0.0357121 0.257098 0.417372
1 1 0.0857403 0.317103 0.415609
2491 2 0.129908 0.305341 0.460354
5 3 0.0974962 0.303309 0.4294
2492 4 0.111577 0.300645 0.44401
2493 4 0.148238 0.310036 0.476699
2848 2 0.193276 0.289029 0.492278
2849 4 0.21454 0.291965 0.479457
3021 4 0.219182 0.277742 0.466342
3019 2 0.234148 0.289708 0.450279
2355 4 0.279706 0.25879 0.453954
3020 4 0.249113 0.301675 0.434217
2354 4 0.323046 0.282409 0.445918
2353 2 0.301376 0.2706 0.449936
1766 4 0.365029 0.254887 0.41297
1767 4 0.341795 0.288233 0.442107
1765 2 0.353412 0.27156 0.427539
696 4 0.497651 0.261357 0.450772
345 4 0.478171 0.255757 0.45356
4068 4 0.00906515 0.357281 0.458084
3024 4 0.0255544 0.360162 0.470056
3022 2 0.0315805 0.375925 0.488507
2666 4 0.0953104 0.403434 0.43036
2665 2 0.0934118 0.378508 0.430842
3 3 0.0809725 0.337018 0.42652
2667 4 0.0915133 0.353581 0.431325
1810 2 0.307212 0.407659 0.495418
1812 4 0.286691 0.410386 0.481396
2296 2 0.0986029 0.435927 0.456376
2298 4 0.109366 0.451883 0.472337
2297 4 0.0878403 0.419971 0.440415
711 4 0.24293 0.422807 0.452804
710 4 0.28609 0.431169 0.476638
709 2 0.26451 0.426988 0.464721
3358 2 0.183848 0.0568532 0.538288
3359 4 0.197891 0.0363058 0.535884
1212 4 0.301641 0.0677818 0.569533
3395 4 0.483368 0.0238896 0.519154
374 4 0.0795978 0.0813229 0.537313
375 4 0.0299476 0.0872308 0.538166
373 2 0.0547727 0.0842769 0.53774
468 4 0.0248832 0.104963 0.548878
466 2 0.00972084 0.104408 0.568752
3487 2 0.0618717 0.146216 0.547142
3489 4 0.0758795 0.149688 0.567561
3488 4 0.0478638 0.142744 0.526724
2519 4 0.0514041 0.147479 0.50677
1269 4 0.166143 0.105356 0.565855
266 4 0.0818516 0.169964 0.56736
3360 4 0.169805 0.0774006 0.540692
3325 2 0.315504 0.104397 0.512243
3326 4 0.334423 0.120373 0.515713
650 4 0.344423 0.130039 0.53125
649 2 0.354988 0.152641 0.529602
3037 2 0.0590606 0.224221 0.557053
3039 4 0.0385761 0.210841 0.551902
3038 4 0.079545 0.237601 0.562204
265 2 0.10385 0.181776 0.566033
267 4 0.125848 0.193588 0.564706
2981 4 0.132769 0.192104 0.545795
2980 2 0.157628 0.190761 0.548132
2991 4 0.0978868 0.241378 0.566429
2982 4 0.182486 0.189418 0.55047
3524 4 0.224719 0.211547 0.550799
575 4 0.219026 0.212571 0.517883
3523 2 0.235634 0.222582 0.570401
651 4 0.365553 0.175244 0.527954
1181 4 0.385218 0.180433 0.525896
1180 2 0.407582 0.185938 0.53563
1182 4 0.429946 0.191444 0.545363
2989 2 0.117348 0.255039 0.558697
2990 4 0.13681 0.2687 0.550965
2171 4 0.140891 0.288295 0.54981
2170 2 0.144039 0.312994 0.552101
2172 4 0.147186 0.337693 0.554392
2850 4 0.172011 0.286092 0.5051
1920 4 0.316525 0.303442 0.596519
2374 2 0.340762 0.316574 0.568364
2376 4 0.361761 0.317154 0.554804
936 4 0.374264 0.302277 0.559856
934 2 0.392426 0.302214 0.577041
3501 4 0.446441 0.293075 0.536755
3499 2 0.452896 0.316005 0.529155
979 2 0.0264875 0.393257 0.547732
981 4 0.0392089 0.39298 0.526208
980 4 0.013766 0.393533 0.569256
3023 4 0.0376066 0.391688 0.506957
2800 2 0.100672 0.39704 0.498538
2349 4 0.143018 0.407345 0.50159
2801 4 0.075915 0.39677 0.495041
2802 4 0.125428 0.39731 0.502035
2347 2 0.166631 0.411818 0.50849
2348 4 0.190244 0.416291 0.51539
431 4 0.207447 0.413146 0.524873
2375 4 0.319762 0.315994 0.581924
1811 4 0.327734 0.404931 0.50944
3500 4 0.459351 0.338935 0.521555
510 4 0.47137 0.352231 0.514931
508 2 0.496265 0.349948 0.5154
430 2 0.214244 0.432407 0.539296
432 4 0.221041 0.451668 0.553719
3057 4 0.209176 0.45537 0.569402
3055 2 0.213989 0.472844 0.586627
1907 4 0.336727 0.423239 0.513389
1906 2 0.348527 0.44323 0.52268
1908 4 0.360326 0.463222 0.53197
1210 2 0.285514 0.0554929 0.584163
340 2 0.25952 0.00805568 0.597464
341 4 0.27241 0.0260869 0.609036
1211 4 0.269386 0.043204 0.598794
2596 2 0.318352 0.040455 0.649925
2597 4 0.334121 0.0475377 0.631859
879 4 0.335005 0.0681052 0.628057
316 2 0.39238 0.0268485 0.603603
318 4 0.369299 0.0279396 0.613154
2333 4 0.3751 0.00765766 0.617674
877 2 0.357297 0.0738312 0.618286
3457 2 0.398192 0.0417948 0.658713
3458 4 0.390695 0.061659 0.645508
878 4 0.379589 0.0795573 0.608515
317 4 0.415462 0.0257573 0.594051
2204 4 0.434626 0.0319157 0.596239
2203 2 0.445773 0.0110289 0.60428
1025 4 0.47393 0.00816952 0.671808
2971 2 0.443647 0.00569438 0.658947
1267 2 0.159336 0.11555 0.587648
2978 4 0.0935101 0.153263 0.650466
3366 4 0.108677 0.159768 0.661812
3364 2 0.131633 0.153408 0.669412
1268 4 0.152528 0.125743 0.609441
4182 4 0.16311 0.117112 0.624413
4180 2 0.177819 0.117538 0.644628
4181 4 0.192528 0.117964 0.664843
1098 4 0.404704 0.108452 0.617561
1096 2 0.4128 0.105698 0.641056
2567 4 0.0558597 0.222168 0.643386
3306 4 0.0489588 0.208642 0.655937
2566 2 0.0806823 0.219186 0.643774
2568 4 0.105505 0.216204 0.644161
2830 2 0.250529 0.217954 0.626661
2831 4 0.243596 0.212215 0.649988
2832 4 0.257462 0.223694 0.603333
3525 4 0.246549 0.233618 0.590004
3477 4 0.302653 0.182194 0.594809
3475 2 0.315484 0.190524 0.614587
3476 4 0.328315 0.198854 0.634365
3130 2 0.349058 0.246629 0.661164
3132 4 0.351748 0.221969 0.658029
2174 4 0.03512 0.322025 0.587144
1951 2 0.00397063 0.330461 0.595762
3192 4 0.177721 0.254047 0.650558
3191 4 0.219364 0.271063 0.628716
4421 4 0.231944 0.260394 0.617173
4420 2 0.245877 0.279323 0.608645
3190 2 0.198542 0.262555 0.639637
289 2 0.242943 0.332324 0.6441
290 4 0.23135 0.330712 0.666195
1919 4 0.267992 0.312958 0.589119
4422 4 0.25981 0.298253 0.600116
1918 2 0.292258 0.3082 0.592819
3027 4 0.327041 0.312071 0.610779
291 4 0.254536 0.333936 0.622005
935 4 0.410587 0.302151 0.594226
3025 2 0.332196 0.297858 0.630694
3026 4 0.337352 0.283645 0.650608
3131 4 0.346367 0.271289 0.664299
503 4 0.423943 0.317405 0.593121
502 2 0.446144 0.305906 0.593338
504 4 0.468346 0.294407 0.593554
1079 4 0.475941 0.280085 0.604907
1078 2 0.49131 0.29146 0.621019
2173 2 0.0581904 0.331481 0.589022
1952 4 0.0264935 0.324393 0.604767
3183 4 0.0284077 0.423322 0.645214
2175 4 0.0812609 0.340938 0.5909
2499 4 0.247804 0.387286 0.592721
2498 4 0.228862 0.341067 0.590324
2497 2 0.238333 0.364177 0.591523
2035 2 0.212267 0.406225 0.664845
2036 4 0.195691 0.424655 0.661563
1206 4 0.263534 0.39438 0.583041
4307 4 0.247157 0.391831 0.659546
1205 4 0.306266 0.394716 0.609015
1204 2 0.2849 0.394548 0.596028
4306 2 0.270199 0.398875 0.652865
3158 4 0.321244 0.382213 0.608857
4308 4 0.29324 0.40592 0.646183
2106 4 0.309887 0.416386 0.636429
3157 2 0.34572 0.377652 0.611168
3159 4 0.370195 0.373091 0.61348
3141 4 0.385196 0.385199 0.617286
3139 2 0.406947 0.383165 0.629448
3140 4 0.428699 0.38113 0.64161
7 3 0.443597 0.394691 0.647342
6 1 0.45928 0.41151 0.647944
10 3 0.477643 0.40507 0.636114
2324 4 0.483129 0.391008 0.62312
9 3 0.465108 0.415542 0.670038
945 4 0.0190174 0.431351 0.629069
3181 2 0.0533423 0.421496 0.645516
3182 4 0.0782769 0.41967 0.645819
943 2 0.99925 0.437755 0.615161
4536 4 0.100811 0.501533 0.643985
2033 4 0.0974679 0.418895 0.644288
3264 4 0.147455 0.443954 0.647654
2032 2 0.11452 0.437069 0.642266
2034 4 0.131572 0.455244 0.640245
3263 4 0.196413 0.44443 0.657832
3262 2 0.171934 0.444192 0.652743
3056 4 0.218802 0.490318 0.603851
2104 2 0.319409 0.432507 0.619856
2105 4 0.32893 0.448629 0.603284
3737 4 0.395523 0.444874 0.59698
3738 4 0.345545 0.443191 0.596739
3736 2 0.370534 0.444032 0.596859
8 3 0.45012 0.430647 0.638549
3070 2 0.456681 0.461346 0.611219
3071 4 0.460427 0.439969 0.623636
3072 4 0.452935 0.482723 0.598802
4412 4 0.468401 0.491299 0.590879
2292 4 0.0808064 0.00877206 0.712671
3313 2 0.055584 0.0146731 0.741845
2114 4 0.0119855 0.00475084 0.686779
2598 4 0.302584 0.0333723 0.66799
2199 4 0.320779 0.0923591 0.721979
1944 4 0.310147 0.0867742 0.705946
3459 4 0.405689 0.0219305 0.671919
4162 2 0.406116 0.0433561 0.724914
4163 4 0.390077 0.062314 0.727839
2973 4 0.419502 0.00962234 0.664121
4164 4 0.422154 0.0243982 0.72199
636 4 0.473176 0.0629665 0.740344
634 2 0.497174 0.0559715 0.740946
2977 2 0.0751269 0.143663 0.664434
2979 4 0.0567437 0.134063 0.678401
845 4 0.0691949 0.122364 0.688151
844 2 0.0792583 0.103677 0.701368
846 4 0.0893217 0.0849896 0.714585
1971 4 0.0990979 0.0851523 0.73257
1193 4 0.159058 0.135662 0.693745
3365 4 0.154588 0.147047 0.677011
1192 2 0.176981 0.151839 0.700247
2240 4 0.195094 0.106594 0.680552
2239 2 0.219369 0.103517 0.685699
1194 4 0.194904 0.168015 0.706749
2241 4 0.243643 0.100441 0.690847
1943 4 0.261495 0.0924286 0.69586
1942 2 0.285821 0.0896014 0.700903
2197 2 0.320005 0.0893796 0.746793
1097 4 0.420896 0.102945 0.664552
3870 4 0.43354 0.0921575 0.673893
3868 2 0.443104 0.0961405 0.69665
3869 4 0.452668 0.100124 0.719406
3305 4 0.0195028 0.197642 0.694823
3304 2 0.0342308 0.203142 0.67538
2265 4 0.0136787 0.216806 0.69806
2263 2 0.00388349 0.21972 0.72088
3380 4 0.157105 0.222049 0.706824
3379 2 0.168282 0.235215 0.688743
1184 4 0.196375 0.175612 0.688414
1185 4 0.233534 0.198612 0.664103
1183 2 0.214955 0.187112 0.676258
3387 4 0.298056 0.198778 0.754426
3104 4 0.31094 0.207423 0.741015
3103 2 0.334494 0.215811 0.741123
3281 4 0.407376 0.188773 0.728306
3280 2 0.38429 0.198342 0.729113
3105 4 0.358049 0.2242 0.741232
3282 4 0.361203 0.20791 0.729919
444 4 0.420961 0.202248 0.721426
442 2 0.437124 0.217609 0.73274
3381 4 0.179458 0.248381 0.670662
3163 2 0.208193 0.322448 0.694948
260 4 0.195421 0.311645 0.733079
3164 4 0.200713 0.307811 0.713789
1089 4 0.372872 0.305004 0.739559
1088 4 0.382033 0.259213 0.72167
1087 2 0.377453 0.282109 0.730615
2415 4 0.465121 0.283825 0.671182
2413 2 0.468413 0.30821 0.675622
2859 4 0.433807 0.334075 0.748985
2414 4 0.471704 0.332595 0.680063
2037 4 0.228842 0.387794 0.668128
3165 4 0.215673 0.337085 0.676106
2857 2 0.450859 0.347154 0.736204
3153 4 0.477227 0.411258 0.685544
3152 4 0.459758 0.375313 0.715604
2858 4 0.467911 0.360234 0.723424
3151 2 0.468492 0.393286 0.700574
3618 4 0.026603 0.418961 0.708892
3616 2 0.00178022 0.420247 0.711603
2434 2 0.997847 0.492623 0.681528
4576 2 0.189029 0.4894 0.715056
4578 4 0.191288 0.477955 0.692941
4062 4 0.202668 0.489869 0.680238
4577 4 0.18677 0.500846 0.737172
3315 4 0.0492183 0.0193515 0.765568
4337 4 0.314175 0.0414967 0.805786
4336 2 0.306077 0.0479541 0.828544
3343 2 0.416569 0.00386535 0.821954
3345 4 0.439815 0.0129656 0.820535
2835 4 0.442582 0.0316277 0.825795
1969 2 0.0926465 0.0873299 0.756629
2948 4 0.143209 0.111643 0.815839
1970 4 0.0861951 0.0895074 0.780687
2949 4 0.103027 0.0980281 0.789367
2947 2 0.123118 0.104836 0.802603
2198 4 0.319231 0.0864002 0.771607
1259 4 0.328889 0.0944796 0.786204
1258 2 0.347608 0.110688 0.789676
1260 4 0.366327 0.126897 0.793148
2136 4 0.382144 0.137061 0.798737
2134 2 0.398626 0.145321 0.781846
2135 4 0.415109 0.153581 0.764955
3081 4 0.49894 0.157872 0.751565
825 4 0.431935 0.162683 0.770284
823 2 0.456202 0.163937 0.764391
2795 4 0.0394574 0.205419 0.816714
2794 2 0.0392488 0.229305 0.824106
2796 4 0.0390401 0.25319 0.831498
470 4 0.251084 0.175714 0.78172
469 2 0.233802 0.185356 0.797003
471 4 0.216521 0.194998 0.812286
3031 2 0.22295 0.238044 0.829183
210 3 0.211227 0.169068 0.841613
3386 4 0.258576 0.169619 0.764008
3385 2 0.278316 0.184198 0.759217
443 4 0.453287 0.23297 0.744055
824 4 0.480469 0.165191 0.758497
274 2 0.0694818 0.272891 0.813024
276 4 0.0794779 0.292076 0.800487
275 4 0.0594857 0.253706 0.825562
611 4 0.149705 0.321566 0.836007
610 2 0.144878 0.300571 0.823314
612 4 0.140051 0.279577 0.810622
259 2 0.193163 0.328737 0.751187
3032 4 0.233445 0.251356 0.810803
39 3 0.174629 0.337849 0.779876
1421 4 0.246253 0.266901 0.814388
2988 4 0.309382 0.26936 0.792724
1420 2 0.270274 0.271806 0.809478
1422 4 0.294296 0.276711 0.804567
2986 2 0.331202 0.280324 0.798101
2987 4 0.353021 0.291288 0.803478
1256 4 0.364415 0.301876 0.815944
1255 2 0.388823 0.300773 0.810633
1257 4 0.413231 0.29967 0.805321
3297 4 0.415688 0.295415 0.78647
3296 4 0.459831 0.289416 0.763751
1215 4 0.475843 0.300177 0.756346
3295 2 0.43776 0.292415 0.77511
1213 2 0.492147 0.314849 0.768351
1014 4 0.115846 0.401055 0.819479
1012 2 0.108996 0.377846 0.813181
40 3 0.153314 0.360339 0.801265
1013 4 0.102147 0.354638 0.806884
37 3 0.185419 0.346888 0.814726
36 1 0.174698 0.354628 0.795903
261 4 0.190905 0.34583 0.769296
38 3 0.186078 0.373192 0.787888
1614 4 0.194571 0.364225 0.771812
1612 2 0.214359 0.377525 0.764283
1613 4 0.234148 0.390826 0.756755
4092 4 0.239531 0.410171 0.761318
4090 2 0.252819 0.409551 0.782489
1280 4 0.273969 0.418437 0.819357
1122 4 0.0456281 0.456153 0.800273
1120 2 0.0234221 0.44707 0.807314
3243 4 0.0570734 0.473072 0.798892
3241 2 0.0796 0.483894 0.799673
1121 4 0.00121615 0.437986 0.814355
2864 4 0.117665 0.419496 0.814107
3242 4 0.102127 0.494717 0.800455
2379 4 0.167065 0.498771 0.779952
2377 2 0.174758 0.490037 0.802081
2378 4 0.182451 0.481303 0.82421
4480 2 0.251341 0.492013 0.831559
4481 4 0.241435 0.46914 0.833514
4091 4 0.266107 0.408931 0.80366
4368 4 0.411112 0.477441 0.814696
4367 4 0.422157 0.432788 0.795079
4366 2 0.416635 0.455115 0.804888
4214 4 0.418675 0.496213 0.818114
2343 4 0.0887587 0.0752713 0.90704
4126 2 0.164796 0.0186789 0.907176
4127 4 0.164581 0.0436272 0.905522
2320 2 0.300487 0.0583755 0.895287
4338 4 0.297979 0.0544116 0.851301
2321 4 0.304054 0.0555154 0.870705
4171 2 0.396512 0.0558088 0.893897
4173 4 0.379859 0.0720543 0.884734
2833 2 0.463812 0.0310491 0.838991
1896 4 0.500958 0.0168918 0.849608
1202 4 0.422697 0.0246311 0.911855
2834 4 0.485041 0.0304704 0.852187
4172 4 0.413165 0.0395633 0.90306
1201 2 0.436204 0.0049716 0.904355
1091 4 0.467406 0.062411 0.90898
3174 4 0.475523 0.0700223 0.891682
2341 2 0.107793 0.0888879 0.898237
2342 4 0.126827 0.102504 0.889435