ITEM: TIMESTEP
3041500
ITEM: NUMBER OF ATOMS
4590
ITEM: BOX BOUNDS xy xz yz pp pp pp
-9.9985700000000008e+00 9.9985700000000008e+00 0.0000000000000000e+00
-9.9985700000000008e+00 9.9985700000000008e+00 0.0000000000000000e+00
-9.9985700000000008e+00 9.9985700000000008e+00 0.0000000000000000e+00
ITEM: ATOMS id type xs ys zs
1514 4 0.140881 0.0806918 0.0785782
1287 4 0.250101 0.00949145 0.00316487
1285 2 0.23682 8.52477e-05 0.0221471
658 2 0.487308 0.0162118 0.0195836
660 4 0.477595 0.0314114 0.00226885
4354 2 0.0604073 0.125479 0.0480416
4356 4 0.0438997 0.134637 0.0644371
998 4 0.0266865 0.138197 0.0544417
4355 4 0.0769149 0.116321 0.0316461
997 2 0.0186122 0.160999 0.0481097
787 2 0.117542 0.119612 0.0173578
789 4 0.0956714 0.122606 0.0291009
788 4 0.139412 0.116618 0.00561473
2757 4 0.149993 0.0980629 0.071943
2756 4 0.19824 0.108202 0.063569
2755 2 0.174117 0.103132 0.067756
999 4 0.010538 0.1838 0.0417777
2768 4 0.00430749 0.200815 0.0341282
673 2 0.0898027 0.236667 0.00456418
3180 4 0.49517 0.223346 0.997741
3219 4 0.0354059 0.317632 0.0477541
3217 2 0.0509544 0.331896 0.0343386
690 4 0.0314833 0.307229 0.0636573
688 2 0.0447006 0.298671 0.0830804
2805 4 0.113246 0.271233 0.0128959
674 4 0.10572 0.252378 0.0157444
2803 2 0.133729 0.275908 0.999338
3335 4 0.306376 0.335399 0.0839374
2528 4 0.314762 0.319476 0.0902748
555 4 0.442629 0.294826 0.0567026
3218 4 0.0665028 0.346159 0.0209232
3102 4 0.0780236 0.353027 0.00714744
3100 2 0.0931971 0.364332 0.0234926
3101 4 0.108371 0.375636 0.0398378
913 2 0.128362 0.403469 0.0460765
914 4 0.115228 0.390777 0.0290007
4416 4 0.19888 0.417424 0.997993
3334 2 0.297991 0.338729 0.0606178
3336 4 0.289607 0.342058 0.0372982
1265 4 0.300643 0.357383 0.0289458
1264 2 0.321971 0.364571 0.0180554
2510 4 0.396575 0.403695 0.0497702
2509 2 0.395933 0.389654 0.0704496
1266 4 0.3433 0.371759 0.00716495
4569 4 0.470417 0.370338 0.999469
973 2 0.428753 0.380135 0.00457853
4567 2 0.484805 0.35015 0.996213
975 4 0.453412 0.377513 0.00778014
4480 2 0.997382 0.458271 0.0744663
915 4 0.141496 0.416161 0.0631523
1047 4 0.145784 0.431802 0.0765839
956 4 0.176209 0.474385 0.0179775
955 2 0.188482 0.473841 0.0397546
957 4 0.200756 0.473296 0.0615317
2741 4 0.216711 0.465931 0.0700996
3661 2 0.416536 0.432497 0.0132038
3663 4 0.396611 0.446694 0.00804301
385 2 0.386924 0.483971 0.0103011
387 4 0.402077 0.465358 0.00328919
2475 4 0.44501 0.411455 0.0342305
3662 4 0.436461 0.4183 0.0183647
648 4 0.482106 0.431374 0.0676665
2473 2 0.46243 0.427149 0.0429164
2474 4 0.479849 0.442843 0.0516023
2453 4 0.0831651 0.0659681 0.106107
633 4 0.0660453 0.0719347 0.0952455
3623 4 5.83673e-05 0.0543937 0.102746
2452 2 0.0875572 0.0625562 0.130484
2454 4 0.0919494 0.0591444 0.154862
1515 4 0.0996961 0.058037 0.09565
1513 2 0.120289 0.0693644 0.0871141
3810 4 0.100557 0.040502 0.155368
758 4 0.243027 0.040307 0.131925
757 2 0.225611 0.0430845 0.149649
1481 4 0.24276 0.0371111 0.112708
1480 2 0.265345 0.0264613 0.113995
4026 4 0.289944 0.00972889 0.13374
1482 4 0.287931 0.0158115 0.115282
4024 2 0.307881 0.0143417 0.150539
631 2 0.0527379 0.0925701 0.0999647
746 4 0.0425582 0.122999 0.121796
632 4 0.0394305 0.113205 0.104684
745 2 0.0426914 0.133213 0.144618
51 1 0.252538 0.147088 0.169426
54 3 0.257843 0.140417 0.147844
472 2 0.280553 0.113359 0.137062
473 4 0.274827 0.130823 0.154015
474 4 0.286279 0.0958949 0.120109
2514 4 0.283695 0.143219 0.167141
300 4 0.341056 0.145562 0.104392
294 4 0.408647 0.15343 0.106123
298 2 0.365867 0.1446 0.10734
299 4 0.390678 0.143638 0.110289
2943 4 0.477108 0.156677 0.112655
2941 2 0.47874 0.132718 0.105692
2942 4 0.480372 0.108759 0.0987285
654 4 0.479542 0.0955979 0.1132
55 3 0.247228 0.169234 0.16963
292 2 0.424433 0.171762 0.0998035
293 4 0.440219 0.190093 0.0934836
2837 4 0.445406 0.208787 0.0896092
2836 2 0.469442 0.204389 0.0949129
2838 4 0.493478 0.199991 0.100217
2708 4 0.492464 0.208427 0.117323
689 4 0.0579179 0.290113 0.102503
3014 4 0.0764025 0.291742 0.11266
3013 2 0.0778852 0.280185 0.134784
751 2 0.00487588 0.320165 0.148006
752 4 0.991457 0.299092 0.149042
3015 4 0.0793679 0.268629 0.156907
2969 4 0.236211 0.32387 0.128119
597 4 0.236709 0.325234 0.148199
595 2 0.228981 0.323758 0.171933
2968 2 0.22569 0.337737 0.110168
1220 4 0.294859 0.269825 0.14043
1219 2 0.315852 0.273782 0.153423
2527 2 0.332981 0.307147 0.10216
2529 4 0.3512 0.294819 0.114046
965 4 0.416936 0.318547 0.117518
553 2 0.433466 0.303698 0.0782083
554 4 0.424302 0.312571 0.099714
2898 4 0.00534958 0.350755 0.15985
2896 2 0.0075453 0.375572 0.157731
753 4 0.0182949 0.341237 0.14697
2897 4 0.00974102 0.400388 0.155612
2970 4 0.21517 0.351604 0.0922172
1289 4 0.176952 0.398584 0.124158
1288 2 0.198397 0.396875 0.136899
1290 4 0.219842 0.395167 0.149641
1029 4 0.239655 0.395297 0.144725
1027 2 0.252423 0.382085 0.161685
964 2 0.40843 0.340754 0.125243
966 4 0.399924 0.36296 0.132968
2538 4 0.385238 0.373444 0.142452
2536 2 0.367315 0.370229 0.159587
2511 4 0.395291 0.375614 0.091129
4481 4 0.0137597 0.463533 0.0926118
1418 4 0.0283979 0.473496 0.100357
1417 2 0.0276949 0.495967 0.1113
4313 4 0.00876149 0.420595 0.160409
1045 2 0.157278 0.423922 0.0973436
323 4 0.122103 0.462736 0.14694
322 2 0.112088 0.480321 0.132255
324 4 0.102074 0.497906 0.117569
1046 4 0.168773 0.416042 0.118103
1803 4 0.245471 0.474295 0.131147
2740 2 0.229515 0.466141 0.0915753
2742 4 0.242318 0.466351 0.113051
1801 2 0.247582 0.454936 0.146831
1869 4 0.330687 0.464201 0.0813796
1867 2 0.337821 0.482052 0.0973682
1868 4 0.344954 0.499903 0.113357
860 4 0.396251 0.457579 0.10029
859 2 0.416744 0.445016 0.107174
861 4 0.437236 0.432452 0.114059
3485 4 0.129537 0.0829315 0.184967
3809 4 0.137906 0.0241488 0.184323
3808 2 0.119231 0.0323254 0.169846
3484 2 0.150555 0.088123 0.197476
3941 4 0.21924 0.050719 0.183119
759 4 0.208194 0.0458619 0.167373
3940 2 0.219229 0.0701278 0.198883
712 2 0.298909 0.0467967 0.2319
714 4 0.311631 0.067041 0.224585
713 4 0.286186 0.0265524 0.239215
4025 4 0.325817 0.0189546 0.167338
349 2 0.386148 0.0345673 0.244176
351 4 0.38545 0.013994 0.229982
747 4 0.0428246 0.143427 0.167441
1864 2 0.0323331 0.128498 0.199188
1865 4 0.0337665 0.128072 0.224146
1650 4 0.0362787 0.136379 0.2438
1866 4 0.0308997 0.128924 0.174229
3486 4 0.171574 0.0933144 0.209986
3942 4 0.219218 0.0895366 0.214647
3510 4 0.187439 0.103749 0.20215
3508 2 0.201074 0.121393 0.190837
3509 4 0.214709 0.139037 0.179524
52 3 0.234458 0.134894 0.176746
1476 4 0.232081 0.103417 0.220705
1474 2 0.254307 0.112891 0.227141
2512 2 0.307141 0.151879 0.167862
1475 4 0.276534 0.122365 0.233577
53 3 0.27049 0.14312 0.183582
2513 4 0.330586 0.160539 0.168584
3268 2 0.442576 0.142153 0.228277
3269 4 0.458022 0.125324 0.218108
3270 4 0.42713 0.158982 0.238446
1355 4 0.230014 0.174695 0.178129
1356 4 0.184808 0.195427 0.183365
1354 2 0.207411 0.185061 0.180747
2961 4 0.187923 0.20998 0.197618
2959 2 0.18195 0.232532 0.206612
2798 4 0.32973 0.221361 0.257856
3456 4 0.384784 0.205433 0.233977
3454 2 0.361656 0.214553 0.236644
3897 4 0.395036 0.200671 0.25212
3455 4 0.338529 0.223673 0.23931
531 4 0.0819532 0.257964 0.174074
529 2 0.0929557 0.269413 0.193388
530 4 0.103958 0.280862 0.212702
3283 2 0.151387 0.277958 0.234054
3284 4 0.156447 0.261909 0.215561
2960 4 0.175977 0.255085 0.215606
596 4 0.221254 0.322282 0.195667
1800 4 0.233234 0.234813 0.241847
1221 4 0.336845 0.277739 0.166417
3222 4 0.298798 0.321154 0.250492
3220 2 0.303856 0.313336 0.227286
3221 4 0.308913 0.305518 0.204081
737 4 0.438869 0.282319 0.225291
452 4 0.437649 0.26218 0.228146
736 2 0.437434 0.305745 0.216665
451 2 0.442462 0.263265 0.252659
1028 4 0.265191 0.368873 0.178645
4278 4 0.272826 0.382124 0.191519
4276 2 0.297619 0.382956 0.194656
4277 4 0.322411 0.383788 0.197792
2537 4 0.349391 0.367014 0.176721
3060 4 0.337494 0.382184 0.212036
3058 2 0.338545 0.363723 0.228866
3059 4 0.339595 0.345261 0.245696
738 4 0.436 0.32917 0.20804
288 4 0.488539 0.342791 0.195469
4511 4 0.442866 0.335957 0.190255
4512 4 0.435226 0.385362 0.188976
4510 2 0.439046 0.36066 0.189615
3904 2 0.415548 0.399189 0.236663
3905 4 0.40958 0.409582 0.214719
2658 4 0.182226 0.496807 0.229226
855 4 0.195633 0.486735 0.239498
853 2 0.205533 0.464725 0.246037
854 4 0.215433 0.442715 0.252575
1802 4 0.249693 0.435577 0.162514
3705 4 0.280328 0.456255 0.218065
3704 4 0.26078 0.431797 0.179072
3703 2 0.270554 0.444026 0.198568
1512 4 0.39664 0.435564 0.153804
1510 2 0.396455 0.425935 0.176879
1335 4 0.402369 0.494245 0.200508
1333 2 0.389501 0.494191 0.221946
1950 4 0.357091 0.491951 0.237586
3930 4 0.414653 0.495447 0.184783
1334 4 0.376632 0.494138 0.243383
4198 2 0.485247 0.459219 0.170273
4200 4 0.465098 0.457396 0.184965
1511 4 0.396271 0.416306 0.199953
2552 4 0.0859565 0.0252384 0.34442
733 2 0.0482128 0.0413132 0.324552
735 4 0.0692001 0.0300783 0.3322
734 4 0.0272254 0.0525482 0.316905
2551 2 0.0964508 0.00672492 0.331294
2892 4 0.11859 0.0560428 0.274966
3503 4 0.100243 0.0610904 0.269201
2890 2 0.141368 0.0460752 0.277609
2261 4 0.140534 0.0116852 0.338533
2891 4 0.164147 0.0361077 0.280252
250 2 0.203883 0.0163399 0.284843
252 4 0.17947 0.0216327 0.283765
251 4 0.228296 0.0110471 0.285921
2535 4 0.243829 0.0243143 0.288119
3062 4 0.207261 0.0692159 0.242738
3061 2 0.196329 0.0857217 0.25801
2126 4 0.22964 0.0401661 0.322143
1676 4 0.245713 0.0265522 0.322532
2534 4 0.279544 0.0142276 0.254601
2533 2 0.261687 0.0192709 0.27136
1695 4 0.302464 0.0496135 0.335565
1677 4 0.284788 0.0571758 0.328534
1675 2 0.265251 0.041864 0.325533
350 4 0.386846 0.0551405 0.258369
2645 4 0.384395 0.0705908 0.270013
2644 2 0.407203 0.0798693 0.274355
1518 4 0.438314 0.0788629 0.293565
1516 2 0.451728 0.0624302 0.306801
1517 4 0.465142 0.0459974 0.320036
1648 2 0.0536355 0.129979 0.260622
1649 4 0.0709923 0.12358 0.277443
3504 4 0.0753426 0.10437 0.271964
513 4 0.0817875 0.120275 0.322662
3502 2 0.0877926 0.0827302 0.270582
517 2 0.16055 0.0981864 0.307683
518 4 0.143326 0.0893284 0.323497
511 2 0.10494 0.110917 0.323914
519 4 0.177773 0.107044 0.291868
3063 4 0.185397 0.102228 0.273282
2677 2 0.502627 0.101073 0.328967
3896 4 0.434097 0.169547 0.254645
2646 4 0.430011 0.0891479 0.278698
2132 4 0.0477853 0.180541 0.323287
2131 2 0.0725032 0.176955 0.324451
305 4 0.0408324 0.183704 0.305104
304 2 0.0244303 0.195757 0.290583
306 4 0.00802818 0.20781 0.276061
1782 4 0.991224 0.209969 0.320114
2133 4 0.0972212 0.173368 0.325616
3352 2 0.119405 0.201025 0.305303
3353 4 0.113961 0.186089 0.324602
3354 4 0.124849 0.215962 0.286005
1799 4 0.229633 0.236601 0.291693
1798 2 0.231434 0.235707 0.26677
1381 2 0.23542 0.238678 0.326475
1383 4 0.234889 0.224003 0.306236
2797 2 0.332112 0.215811 0.28212
2799 4 0.334495 0.21026 0.306383
3895 2 0.414566 0.185109 0.253382
2448 4 0.495294 0.22064 0.331514
254 4 0.489093 0.232453 0.316819
253 2 0.498029 0.249012 0.300352
3285 4 0.146326 0.294007 0.252548
3587 4 0.146524 0.332301 0.31802
665 4 0.150556 0.319251 0.302413
666 4 0.153438 0.312683 0.252923
664 2 0.151997 0.315967 0.277668
2840 4 0.280058 0.248143 0.249759
2839 2 0.299527 0.258658 0.261402
2841 4 0.318996 0.269173 0.273045
3543 4 0.334677 0.278236 0.28077
3541 2 0.35025 0.296861 0.28675
3542 4 0.365823 0.315486 0.29273
110 3 0.371512 0.333062 0.285067
453 4 0.447275 0.26435 0.277171
3627 4 0.454288 0.273126 0.293689
3625 2 0.445235 0.296302 0.296167
3626 4 0.436182 0.319477 0.298644
2599 2 0.00238224 0.337746 0.287176
2600 4 0.0245018 0.337605 0.275518
2691 4 0.0340714 0.354588 0.27292
2689 2 0.0437716 0.376667 0.266315
2690 4 0.0534717 0.398745 0.25971
3021 4 0.268749 0.420124 0.278374
269 4 0.279456 0.358388 0.280098
268 2 0.299471 0.353945 0.265787
2578 2 0.275212 0.413827 0.321315
2579 4 0.265052 0.418574 0.298967
107 3 0.401252 0.347437 0.302439
270 4 0.319486 0.349501 0.251475
106 1 0.378263 0.34678 0.301945
109 3 0.37022 0.368254 0.298392
108 3 0.370552 0.338698 0.322282
3906 4 0.421517 0.388796 0.258607
1758 4 0.447264 0.335999 0.295741
1757 4 0.433963 0.377238 0.270777
1756 2 0.440613 0.356618 0.283259
446 4 0.044474 0.433463 0.337588
3962 4 0.222165 0.502181 0.304362
3019 2 0.248639 0.433655 0.272236
3020 4 0.22853 0.447187 0.266098
1746 4 0.324883 0.494824 0.313712
1622 4 0.0081677 0.0509835 0.31303
2260 2 0.154544 0.0323492 0.337151
2262 4 0.168555 0.0530132 0.335769
2125 2 0.208311 0.0492763 0.331487
2127 4 0.186983 0.0583865 0.340831
1997 4 0.215721 0.0312267 0.402586
1693 2 0.326956 0.044883 0.337273
3772 2 0.253039 0.0431527 0.405962
3773 4 0.271104 0.0592349 0.412303
1694 4 0.351449 0.0401524 0.338982
579 4 0.370273 0.0474397 0.336036
577 2 0.389339 0.0633932 0.333369
578 4 0.408406 0.0793468 0.330703
2237 4 0.065538 0.109696 0.327783
2238 4 0.0206997 0.102481 0.348715
2236 2 0.0431188 0.106088 0.338249
892 2 0.0692112 0.139905 0.399375
526 2 0.0087293 0.137581 0.410061
893 4 0.0889034 0.136196 0.38442
527 4 0.0318318 0.146532 0.406692
512 4 0.128093 0.101558 0.325165
721 2 0.123199 0.145908 0.398119
722 4 0.100234 0.151801 0.390176
723 4 0.146163 0.140016 0.406061
650 4 0.157615 0.124203 0.410843
248 4 0.257643 0.119816 0.394338
828 4 0.245372 0.113007 0.40926
247 2 0.255085 0.140009 0.379817
42 3 0.415439 0.093783 0.343601
43 3 0.425705 0.110002 0.375916
44 3 0.447121 0.0826575 0.360487
2678 4 0.491903 0.109835 0.349785
41 1 0.433446 0.100868 0.35604
45 3 0.444995 0.116563 0.344253
2675 4 0.478627 0.123701 0.345149
2674 2 0.472746 0.147999 0.344657
1697 4 0.172912 0.223477 0.367644
1602 4 0.174638 0.238253 0.355145
1698 4 0.179445 0.181496 0.394021
1696 2 0.176179 0.202486 0.380832
3322 2 0.25364 0.239528 0.379586
1382 4 0.23595 0.253352 0.346713
3323 4 0.251455 0.246016 0.355537
249 4 0.252527 0.160203 0.365297
695 4 0.271644 0.16563 0.369368
694 2 0.284725 0.185788 0.362461
696 4 0.297806 0.205947 0.355553
936 4 0.309363 0.206981 0.33939
2811 4 0.324258 0.231749 0.403447
3324 4 0.255825 0.23304 0.403634
2809 2 0.335912 0.218274 0.420992
934 2 0.334041 0.206438 0.343376
935 4 0.358718 0.205894 0.347362
427 2 0.408833 0.220235 0.409305
429 4 0.407032 0.214702 0.384988
2676 4 0.466865 0.172296 0.344165
2814 4 0.451104 0.172476 0.356855
2813 4 0.420463 0.199267 0.385906
2812 2 0.435783 0.185871 0.37138
3586 2 0.14453 0.31435 0.335311
3588 4 0.142536 0.296398 0.352601
1601 4 0.159012 0.285658 0.352099
1600 2 0.166825 0.261956 0.353622
1444 2 0.391051 0.335113 0.42091
3065 4 0.472545 0.293815 0.41444
4268 4 0.466621 0.312174 0.420824
4267 2 0.442177 0.30694 0.421366
2580 4 0.285372 0.40908 0.343662
1446 4 0.380538 0.357516 0.417341
416 4 0.373504 0.347775 0.340403
415 2 0.381467 0.366282 0.35521
417 4 0.38943 0.38479 0.370017
948 4 0.389227 0.395417 0.385484
1907 4 0.460337 0.408871 0.40168
438 4 0.495316 0.387025 0.358497
1908 4 0.499811 0.390274 0.377254
1906 2 0.480074 0.399572 0.389467
4244 4 0.0508438 0.478308 0.403083
1871 4 0.0224176 0.430487 0.400197
445 2 0.0682012 0.440531 0.341086
447 4 0.0919284 0.4476 0.344583
1830 4 0.132569 0.400948 0.341973
1829 4 0.10935 0.444474 0.333781
1828 2 0.12096 0.422711 0.337877
431 4 0.311168 0.437336 0.406135
3770 4 0.332702 0.46644 0.38478
549 4 0.318408 0.479183 0.380134
946 2 0.395942 0.418683 0.379256
947 4 0.402657 0.441949 0.373028
3755 4 0.492152 0.472401 0.42486
3525 4 0.0313069 0.0886176 0.478143
3523 2 0.0533051 0.0870816 0.466357
1152 4 0.0265564 0.0702417 0.468893
1150 2 0.0115239 0.0562403 0.483147
1817 4 0.165197 0.0534552 0.502102
3774 4 0.234974 0.0270705 0.399621
1996 2 0.201503 0.0394012 0.421459
1818 4 0.172685 0.0460212 0.45322
1816 2 0.168941 0.0497382 0.477661
1998 4 0.187284 0.0475757 0.440332
2178 4 0.285978 0.0710589 0.410304
3646 2 0.389873 0.00978576 0.485382
3647 4 0.371356 0.996353 0.475289
3648 4 0.408391 0.0232189 0.495475
894 4 0.0495189 0.143614 0.414329
3524 4 0.0753033 0.0855456 0.45457
575 4 0.0855679 0.0968196 0.46702
574 2 0.108999 0.0967857 0.458295
576 4 0.132431 0.0967519 0.44957
651 4 0.15214 0.0953391 0.451312
649 2 0.154878 0.109771 0.431078
827 4 0.244665 0.0993726 0.457368
826 2 0.245019 0.10619 0.433314
4466 4 0.232529 0.163082 0.450497
3326 4 0.212993 0.160119 0.450107
2176 2 0.30523 0.0867972 0.41292
516 4 0.260765 0.0993632 0.469643
2177 4 0.324482 0.102536 0.415535
514 2 0.253541 0.111259 0.490415
1268 4 0.321 0.146335 0.498516
1850 4 0.342913 0.0974946 0.417534
1849 2 0.350726 0.115405 0.433136
1851 4 0.35854 0.133315 0.448737
3236 4 0.361632 0.137302 0.467739
3235 2 0.369038 0.154299 0.484514
4001 4 0.999959 0.224213 0.480574
4000 2 0.0211095 0.228513 0.493197
4002 4 0.0422603 0.232814 0.50582
3327 4 0.18981 0.182715 0.411992
3325 2 0.201402 0.171417 0.431049
503 4 0.204518 0.243128 0.46295
3464 4 0.189985 0.233376 0.471974
3463 2 0.190723 0.210139 0.481175
732 4 0.207595 0.188524 0.501327
3465 4 0.191461 0.186901 0.490377
4465 2 0.254815 0.172497 0.456813
4467 4 0.2771 0.181911 0.463129
2810 4 0.347566 0.204799 0.438537
428 4 0.410634 0.225768 0.433622
383 4 0.442387 0.198097 0.490633
382 2 0.466832 0.203092 0.488999
366 4 0.42606 0.203013 0.501853
384 4 0.491278 0.208088 0.487364
2655 4 0.00867967 0.309992 0.445648
2653 2 0.00299157 0.30328 0.422243
615 4 0.0161788 0.301598 0.462609
613 2 0.0268587 0.290806 0.482475
502 2 0.217834 0.259548 0.4496
504 4 0.23115 0.275969 0.43625
1445 4 0.401565 0.312709 0.424478
4269 4 0.417733 0.301707 0.421908
3064 2 0.495853 0.295746 0.423283
1141 2 0.168004 0.373774 0.496318
1143 4 0.159127 0.387707 0.477549
2354 4 0.394418 0.415184 0.475461
2353 2 0.406581 0.394943 0.467241
2355 4 0.418744 0.374703 0.459022
2456 4 0.421566 0.354925 0.4585
1812 4 0.445918 0.414858 0.468991
2457 4 0.444921 0.341125 0.500509
1811 4 0.458862 0.40744 0.42126
2455 2 0.433243 0.348025 0.479505
1810 2 0.45239 0.411149 0.445126
1870 2 0.00591892 0.434299 0.418595
4243 2 0.047577 0.494314 0.422012
2346 4 0.290405 0.429424 0.464182
432 4 0.287862 0.444988 0.449713
430 2 0.299515 0.441162 0.427924
2344 2 0.295425 0.428412 0.488656
3771 4 0.355889 0.484635 0.42518
3614 4 0.371122 0.4927 0.435802
3769 2 0.344295 0.475538 0.40498
3756 4 0.464825 0.510862 0.441436
3754 2 0.478488 0.491631 0.433148
3360 4 0.0564179 0.0213336 0.513917
3358 2 0.0731798 0.0373454 0.523289
435 4 0.0374717 0.0148704 0.516553
1991 4 0.0343187 0.0622204 0.578312
1151 4 0.996491 0.0422389 0.497401
3359 4 0.0899417 0.0533571 0.532662
2276 4 0.100673 0.0398519 0.5432
2275 2 0.112759 0.0427994 0.564889
2764 2 0.160674 0.0837731 0.527834
2765 4 0.170178 0.072219 0.5078
3082 2 0.229315 0.0715741 0.589578
3084 4 0.250467 0.076403 0.57715
2505 4 0.417548 0.0222119 0.512337
2503 2 0.435888 0.00598914 0.517403
2766 4 0.15117 0.0953273 0.547868
2588 4 0.243601 0.095108 0.570918
515 4 0.246317 0.123156 0.511186
2589 4 0.255124 0.111843 0.525224
2587 2 0.249362 0.103475 0.548071
1269 4 0.291103 0.126853 0.533549
1267 2 0.306051 0.136594 0.516032
467 4 0.342286 0.165989 0.542651
4182 4 0.386332 0.070092 0.572775
4180 2 0.409385 0.0796584 0.571281
2981 4 0.492536 0.114513 0.548696
4181 4 0.432438 0.0892248 0.569788
2980 2 0.472546 0.102502 0.557713
2982 4 0.452555 0.09049 0.56673
1146 4 0.0623685 0.232903 0.501159
1144 2 0.0843864 0.221675 0.504948
4580 4 0.115768 0.185408 0.56634
4581 4 0.102223 0.193869 0.518952
1145 4 0.106404 0.210448 0.508738
4579 2 0.108996 0.189638 0.542646
730 2 0.231003 0.184113 0.508932
731 4 0.25441 0.179702 0.516536
466 2 0.325968 0.17065 0.561013
374 4 0.264127 0.198257 0.51351
373 2 0.282374 0.195845 0.530435
375 4 0.30062 0.193432 0.54736
365 4 0.392225 0.167606 0.511967
364 2 0.409143 0.185309 0.50691
3237 4 0.376444 0.171296 0.50129
568 2 0.0639934 0.308474 0.525457
569 4 0.0486951 0.29079 0.516599
570 4 0.0792916 0.326157 0.534314
614 4 0.0375386 0.280014 0.502341
4433 4 0.0980308 0.33382 0.529303
2105 4 0.215298 0.298223 0.529346
2104 2 0.215694 0.29025 0.553041
1820 4 0.2034 0.312976 0.534328
2106 4 0.21609 0.282277 0.576737
1819 2 0.184732 0.32851 0.52838
3132 4 0.357678 0.304704 0.558202
3130 2 0.350086 0.328211 0.554333
2927 4 0.0187931 0.374727 0.576275
4432 2 0.116139 0.345509 0.541977
4434 4 0.134248 0.357198 0.554651
1142 4 0.17688 0.359841 0.515087
1821 4 0.166064 0.344044 0.522431
1250 4 0.329272 0.358824 0.536586
3139 2 0.255554 0.349666 0.580032
3140 4 0.265197 0.352827 0.55718
1251 4 0.282371 0.361763 0.553685
1249 2 0.305822 0.360293 0.545136
1362 4 0.300548 0.409784 0.522684
3131 4 0.342494 0.351718 0.550464
3424 2 0.362924 0.413226 0.569271
2376 4 0.445807 0.338891 0.536476
2374 2 0.467738 0.346517 0.527198
2375 4 0.489669 0.354143 0.517921
1179 4 0.482917 0.406189 0.574333
1568 4 0.0104243 0.489986 0.537755
1567 2 0.0351691 0.490161 0.53417
2345 4 0.300446 0.4274 0.51313
1360 2 0.304024 0.421811 0.544328
1361 4 0.3075 0.433839 0.565971
3120 4 0.298748 0.449859 0.575297
3425 4 0.369524 0.427197 0.549613
929 4 0.388168 0.422156 0.543764
928 2 0.389226 0.419125 0.518967
930 4 0.390285 0.416095 0.494169
2016 4 0.393617 0.471815 0.573035
1910 4 0.433497 0.475832 0.53655
1946 4 0.44367 0.458455 0.536361
1945 2 0.466321 0.462999 0.545928
1947 4 0.488971 0.467543 0.555495
1909 2 0.415926 0.483305 0.552693
1992 4 0.0355778 0.0779967 0.625749
1990 2 0.0349483 0.0701086 0.60203
2277 4 0.124844 0.0457469 0.586579
4238 4 0.138611 0.0572474 0.59536
4237 2 0.150719 0.0740877 0.609324
2604 4 0.212149 0.0383177 0.659827
2602 2 0.206335 0.0447281 0.636369
2603 4 0.200522 0.0511386 0.61291
3083 4 0.208162 0.0667452 0.602005
97 3 0.232505 0.0367049 0.658419
4163 4 0.403266 0.997009 0.669897
4162 2 0.391251 0.0188531 0.671814
2193 4 0.0407836 0.0918377 0.637949
2191 2 0.0553021 0.0984843 0.65719
4239 4 0.162827 0.0909281 0.623289
4369 2 0.155188 0.116059 0.652431
4370 4 0.152211 0.106089 0.629694
3264 4 0.294008 0.156617 0.619417
3096 4 0.407902 0.160679 0.668634
3196 2 0.487298 0.0962814 0.643937
3198 4 0.465592 0.100871 0.655468
938 4 0.447604 0.10671 0.64675
937 2 0.43502 0.125645 0.657158
4346 4 0.128478 0.186375 0.581981
4345 2 0.125028 0.184875 0.606701
4347 4 0.121578 0.183375 0.63142
4420 2 0.244556 0.214408 0.643895
4422 4 0.257766 0.19414 0.650212
4421 4 0.231347 0.234677 0.637578
3158 4 0.215968 0.243783 0.627337
468 4 0.30965 0.175311 0.579376
3263 4 0.265124 0.176427 0.65511
2231 4 0.311042 0.16653 0.617953
2230 2 0.326845 0.185906 0.617808
3262 2 0.279566 0.166522 0.637264
2232 4 0.342648 0.205282 0.617663
3094 2 0.404119 0.180368 0.653693
3095 4 0.400337 0.200057 0.638751
1194 4 0.394088 0.211875 0.624304
1192 2 0.40736 0.231505 0.616323
1193 4 0.420632 0.251136 0.608342
3365 4 0.436609 0.249666 0.594646
2265 4 0.496244 0.236127 0.626191
3364 2 0.459213 0.247622 0.605136
3366 4 0.481817 0.245577 0.615626
3159 4 0.210283 0.281514 0.595014
3157 2 0.213125 0.262648 0.611176
4306 2 0.232487 0.320675 0.619974
4307 4 0.244959 0.326589 0.599126
4308 4 0.220015 0.31476 0.640823
291 4 0.20749 0.307493 0.654209
3027 4 0.342462 0.282728 0.592779
3025 2 0.35975 0.296567 0.604388
3026 4 0.377038 0.310406 0.615997
1079 4 0.386499 0.326536 0.621517
1324 2 0.0415343 0.369299 0.640948
1325 4 0.0236214 0.377486 0.625544
902 4 0.0148563 0.393621 0.619395
1326 4 0.0594472 0.361111 0.656352
3642 4 0.124424 0.402639 0.663092
2310 4 0.0768834 0.354862 0.663118
2308 2 0.0945868 0.372213 0.666393
2309 4 0.11229 0.389564 0.669667
3141 4 0.245912 0.346506 0.602883
3426 4 0.356324 0.399255 0.588928
2414 4 0.321479 0.369679 0.635658
2413 2 0.33871 0.385545 0.644408
1080 4 0.391259 0.360154 0.658231
1078 2 0.388879 0.343345 0.639874
2415 4 0.35594 0.401411 0.653158
1177 2 0.485237 0.412399 0.598443
1178 4 0.487556 0.418609 0.622552
3302 4 0.0484333 0.494197 0.604622
3640 2 0.117971 0.425014 0.672197
3118 2 0.319156 0.450374 0.589735
3119 4 0.339564 0.450889 0.604173
2015 4 0.358044 0.456871 0.604846
2014 2 0.37583 0.464343 0.58894
3055 2 0.381348 0.488995 0.655186
2988 4 0.0736682 0.08151 0.745949
444 4 0.0723421 0.0971245 0.732623
98 3 0.229724 0.0507021 0.693189
96 1 0.244361 0.0420752 0.677385
846 4 0.242626 0.0436374 0.707192
3579 4 0.195418 0.998609 0.726062
99 3 0.254471 0.022873 0.685599
1185 4 0.273182 0.0698131 0.664604
100 3 0.260207 0.057584 0.672187
844 2 0.250502 0.0492888 0.73024
845 4 0.258378 0.0549402 0.753288
4164 4 0.379236 0.040697 0.673731
636 4 0.376798 0.0579321 0.684159
635 4 0.397703 0.0741526 0.726593
634 2 0.38725 0.0660424 0.705376
2091 4 0.411305 0.0802412 0.738495
2192 4 0.0698206 0.105131 0.67643
443 4 0.086701 0.103111 0.685097
3117 4 0.997192 0.139179 0.728625
442 2 0.0795216 0.100118 0.70886
3115 2 0.0110935 0.158285 0.736803
4371 4 0.158165 0.126029 0.675167
3280 2 0.239247 0.141796 0.720396
3281 4 0.234042 0.145723 0.744535
3282 4 0.244453 0.137869 0.696258
1183 2 0.29478 0.0817899 0.668516
1184 4 0.316378 0.0937666 0.672427
2154 4 0.261762 0.146627 0.701763
2152 2 0.284011 0.15224 0.691829
2153 4 0.30626 0.157852 0.681896
939 4 0.422437 0.14458 0.667565
459 4 0.333643 0.104029 0.668393
457 2 0.329533 0.127756 0.675123
458 4 0.325423 0.151484 0.681852
3116 4 0.0249948 0.177392 0.744981
3144 4 0.0265775 0.196633 0.737743
3143 4 0.00968843 0.232814 0.707636
3142 2 0.018133 0.214724 0.72269
290 4 0.214224 0.317924 0.702652
289 2 0.210857 0.312708 0.678431
1281 4 0.255705 0.286211 0.735992
1905 4 0.221867 0.320197 0.720353
1011 4 0.213467 0.24673 0.74007
1279 2 0.278835 0.284042 0.745238
1280 4 0.301964 0.281872 0.754484
1209 4 0.0672446 0.399377 0.745749
1207 2 0.0840552 0.387417 0.731623
1208 4 0.100866 0.375457 0.717498
895 2 0.134143 0.37279 0.712057
897 4 0.111831 0.375016 0.700992
896 4 0.156455 0.370565 0.723122
1903 2 0.214919 0.334228 0.739847
3153 4 0.296099 0.401403 0.703847
2037 4 0.311668 0.400589 0.691455
2035 2 0.329437 0.389807 0.705355
2036 4 0.347206 0.379025 0.719255
2984 4 0.366933 0.38209 0.714547
2983 2 0.381619 0.400528 0.72289
2985 4 0.396304 0.418965 0.731232
2859 4 0.412467 0.428266 0.733822
2435 4 0.00155763 0.489193 0.736365
888 4 0.00611561 0.411887 0.737422
886 2 0.0257283 0.427373 0.736561
887 4 0.0453409 0.442858 0.7357
3449 4 0.0556661 0.454192 0.722313
2434 2 0.997606 0.482967 0.712474
8 3 0.995185 0.45976 0.678661
3448 2 0.0760766 0.452255 0.708002
3450 4 0.0964871 0.450318 0.69369
3641 4 0.111518 0.447389 0.681303
3085 2 0.239436 0.469966 0.696006
3086 4 0.227348 0.491852 0.696321
3087 4 0.251524 0.448081 0.695692
3151 2 0.276129 0.416439 0.704366
1122 4 0.330013 0.422731 0.754033
3152 4 0.256158 0.431476 0.704884
1120 2 0.30876 0.43552 0.750878
3297 4 0.272326 0.462102 0.751398
1136 4 0.359748 0.410917 0.671632
1135 2 0.362044 0.433892 0.662038
1137 4 0.364341 0.456868 0.652444
3056 4 0.368222 0.471221 0.66689
3017 4 0.0373678 0.0494445 0.825286
90 3 0.308604 0.0312044 0.84627
2322 4 0.410947 0.0026855 0.799536
2089 2 0.430797 0.0705415 0.750789
449 4 0.425986 0.014945 0.806742
448 2 0.432748 0.0337188 0.791676
2090 4 0.450289 0.0608418 0.763084
450 4 0.439511 0.0524925 0.776609
1944 4 0.0246374 0.0990909 0.775967
2986 2 0.0587263 0.0947251 0.761026
2987 4 0.0437843 0.10794 0.776102
2422 2 0.15849 0.116927 0.806902
2424 4 0.137118 0.126577 0.815577
656 4 0.134127 0.119293 0.833928
1256 4 0.216373 0.135241 0.74865
2979 4 0.193172 0.109699 0.813397
1255 2 0.210273 0.152513 0.765669
2423 4 0.179863 0.107276 0.798226
3381 4 0.398369 0.164349 0.765531
3410 4 0.0167733 0.178641 0.798555
1229 4 0.0354334 0.175487 0.807937
1228 2 0.0547686 0.187 0.797038
1230 4 0.0741037 0.198513 0.786139
3387 4 0.0851755 0.21299 0.778827
2796 4 0.148521 0.234816 0.799124
3385 2 0.107067 0.223479 0.784822
3386 4 0.128959 0.233967 0.790817
2199 4 0.161279 0.187204 0.825721
1257 4 0.204173 0.169785 0.782689
2048 4 0.238219 0.202947 0.77489
2198 4 0.20156 0.183669 0.796297
2197 2 0.181419 0.185436 0.811009
1010 4 0.250448 0.260264 0.770891
3104 4 0.291359 0.17081 0.769287
2047 2 0.255234 0.184975 0.771332
2049 4 0.27225 0.167003 0.767774
3103 2 0.313792 0.17704 0.778408
3825 4 0.314043 0.220843 0.81364
2759 4 0.303442 0.229222 0.797567
2758 2 0.283421 0.243104 0.791946
2760 4 0.263399 0.256987 0.786324
3105 4 0.336224 0.18327 0.787529
3380 4 0.350613 0.176014 0.774692
3379 2 0.374491 0.170182 0.770111
2062 2 0.4749 0.225502 0.803612
2063 4 0.45084 0.232305 0.803447
2064 4 0.49896 0.218699 0.803778
209 3 0.995523 0.261722 0.826025
3479 4 0.0431468 0.2672 0.83171
210 3 0.998192 0.299148 0.829161
2794 2 0.154899 0.258988 0.799633
274 2 0.151862 0.317985 0.812111
276 4 0.156562 0.342397 0.814784
275 4 0.147161 0.293574 0.809438
2795 4 0.161278 0.28316 0.800142
1009 2 0.231957 0.253497 0.755481
4091 4 0.305635 0.297296 0.766995
4090 2 0.315301 0.29457 0.789893
4092 4 0.324966 0.291844 0.812792
1613 4 0.344217 0.290798 0.809594
1612 2 0.363058 0.306217 0.815289
1614 4 0.381899 0.321637 0.820983
3405 4 0.444835 0.245874 0.816954
3404 4 0.449244 0.294282 0.8287
3403 2 0.44704 0.270078 0.822827
951 4 0.0675727 0.402954 0.766262
949 2 0.0573064 0.398637 0.788649
950 4 0.0470401 0.394321 0.811036
4349 4 0.0286041 0.396805 0.814332
4348 2 0.0143178 0.387005 0.832361
3207 4 0.254948 0.371584 0.748318
1904 4 0.20797 0.348259 0.759341
3338 4 0.206915 0.357192 0.77727
3339 4 0.234202 0.397711 0.787968
3337 2 0.220559 0.377452 0.782619
1064 4 0.249325 0.408158 0.795368
3206 4 0.289427 0.362303 0.783331
3205 2 0.272188 0.366943 0.765825
885 4 0.32363 0.408587 0.766985
4521 4 0.344462 0.352482 0.754067
4520 4 0.392821 0.344717 0.74397
4519 2 0.368642 0.348599 0.749019
1191 4 0.40641 0.356677 0.754317
3170 4 0.37222 0.384468 0.800787
3169 2 0.380788 0.36215 0.808115
3171 4 0.389356 0.339833 0.815442
884 4 0.354048 0.391246 0.802688
883 2 0.338839 0.399917 0.784837
1189 2 0.41991 0.375543 0.763646
1190 4 0.43341 0.394408 0.772974
3165 4 0.449931 0.404852 0.767462
3242 4 0.052 0.490327 0.827185
3241 2 0.0419782 0.494777 0.804714
1213 2 0.214404 0.473881 0.796799
3296 4 0.239598 0.492221 0.774257
1215 4 0.234034 0.47457 0.781326
816 4 0.184426 0.465469 0.827819
1214 4 0.194775 0.473192 0.812271
1121 4 0.287508 0.448309 0.747722
1063 2 0.270801 0.418943 0.802272
1065 4 0.292276 0.429728 0.809176
3295 2 0.255962 0.477162 0.762828
4132 2 0.393434 0.495398 0.81045
2858 4 0.406819 0.467516 0.764291