ITEM: TIMESTEP
3131500
ITEM: NUMBER OF ATOMS
4590
ITEM: BOX BOUNDS xy xz yz pp pp pp
-9.9985700000000008e+00 9.9985700000000008e+00 0.0000000000000000e+00
-9.9985700000000008e+00 9.9985700000000008e+00 0.0000000000000000e+00
-9.9985700000000008e+00 9.9985700000000008e+00 0.0000000000000000e+00
ITEM: ATOMS id type xs ys zs
2893 2 0.0133704 0.0258255 0.00373902
659 4 0.450186 0.0630922 0.0291589
4354 2 0.0690056 0.128995 0.0307283
4356 4 0.0443239 0.131831 0.0279075
998 4 0.0317486 0.148802 0.0286671
997 2 0.0106712 0.14866 0.0152165
4355 4 0.0936872 0.126158 0.0335491
787 2 0.125223 0.1237 0.0134044
789 4 0.115432 0.129302 0.0357186
658 2 0.451413 0.086729 0.0372199
572 4 0.465847 0.120677 0.0319393
660 4 0.452641 0.110366 0.0452808
571 2 0.489555 0.127307 0.0363171
307 2 0.0262109 0.236228 0.00940843
673 2 0.0840052 0.230959 0.0179112
675 4 0.0592362 0.234193 0.0190295
309 4 0.0430533 0.221792 0.0209459
674 4 0.108774 0.227725 0.0167929
2805 4 0.11974 0.238382 0.00398828
3178 2 0.473151 0.243635 0.999707
690 4 0.100526 0.289367 0.0642278
3219 4 0.0852859 0.288025 0.0517903
3217 2 0.0863125 0.302266 0.0312641
2803 2 0.131725 0.258099 0.0136208
3218 4 0.087339 0.316506 0.0107379
4358 4 0.154666 0.28756 0.00991238
2804 4 0.14371 0.277816 0.0232533
2529 4 0.296576 0.281284 0.0802084
3180 4 0.492303 0.2597 0.999162
975 4 0.456669 0.333694 0.0204428
4569 4 0.465123 0.32671 0.0045712
3101 4 0.076581 0.385886 0.0137418
3100 2 0.079297 0.361034 0.013308
913 2 0.10625 0.404451 0.0412391
914 4 0.0879922 0.398111 0.0253761
915 4 0.124507 0.410792 0.0571022
3102 4 0.0820131 0.336182 0.0128742
3334 2 0.301652 0.357731 0.0648616
3336 4 0.297111 0.376869 0.0494248
1265 4 0.313375 0.379611 0.0389085
1264 2 0.332161 0.382811 0.0227214
3335 4 0.306194 0.338593 0.0802984
1292 4 0.411141 0.363873 0.0240783
1291 2 0.388129 0.368306 0.0153629
1293 4 0.365116 0.372738 0.00664743
1266 4 0.350947 0.386012 0.00653431
2511 4 0.397322 0.361949 0.062851
974 4 0.419624 0.360161 0.0411297
973 2 0.438147 0.346927 0.0307863
1047 4 0.112059 0.421682 0.0684057
955 2 0.189863 0.472283 0.0325294
957 4 0.207383 0.454458 0.0332268
2741 4 0.215975 0.450314 0.0509545
2740 2 0.233539 0.448234 0.0686277
956 4 0.172344 0.490109 0.031832
1318 2 0.370659 0.496345 0.0129718
1320 4 0.363634 0.493242 0.0367664
2474 4 0.446519 0.431544 0.0647813
2475 4 0.4558 0.435905 0.0158365
2473 2 0.451159 0.433724 0.0403089
647 4 0.460761 0.434011 0.0790237
631 2 0.0529459 0.0757496 0.0886786
2453 4 0.050271 0.0558471 0.124513
2452 2 0.0573806 0.0352081 0.136706
632 4 0.0316061 0.0647171 0.0956119
2454 4 0.0644903 0.0145691 0.148899
746 4 0.0480206 0.0720115 0.135125
633 4 0.0742858 0.0867821 0.0817453
3810 4 0.0832618 0.0137698 0.155287
3808 2 0.10805 0.0147674 0.158406
3485 4 0.146861 0.030884 0.161121
3809 4 0.132839 0.015765 0.161525
1481 4 0.284769 0.0364115 0.144149
1482 4 0.332481 0.0290907 0.157212
1480 2 0.308625 0.0327511 0.150681
758 4 0.283193 0.0473407 0.160684
4026 4 0.344113 0.0448549 0.163795
652 2 0.496993 0.053614 0.102125
654 4 0.481875 0.0702537 0.113067
745 2 0.0465298 0.0831643 0.157454
1515 4 0.0912564 0.086728 0.0930342
2757 4 0.144014 0.106896 0.107769
1514 4 0.129925 0.102354 0.120629
1513 2 0.11059 0.0945411 0.106831
2755 2 0.1645 0.107982 0.0934741
2756 4 0.184985 0.109068 0.0791796
52 3 0.251125 0.136744 0.149635
51 1 0.247272 0.155458 0.162444
474 4 0.30393 0.145513 0.127093
300 4 0.385594 0.116236 0.100351
298 2 0.396199 0.138701 0.097518
299 4 0.406803 0.161167 0.094685
2942 4 0.483547 0.0900256 0.109936
2943 4 0.453179 0.126548 0.0942924
2941 2 0.468363 0.108287 0.102114
54 3 0.235788 0.171057 0.149669
472 2 0.303828 0.167941 0.11604
473 4 0.303726 0.190368 0.104986
1220 4 0.3142 0.23826 0.153527
1219 2 0.324912 0.25306 0.136456
294 4 0.392967 0.17506 0.0994326
292 2 0.395703 0.197746 0.109584
293 4 0.39844 0.220432 0.119734
2836 2 0.501674 0.213318 0.124377
555 4 0.452207 0.243901 0.0958982
2838 4 0.496742 0.237819 0.125117
3014 4 0.0787964 0.256022 0.118774
689 4 0.089238 0.270184 0.109009
688 2 0.0948818 0.279776 0.0866184
3013 2 0.0830493 0.267576 0.140536
3015 4 0.0873022 0.279131 0.162299
2969 4 0.222113 0.323145 0.112297
597 4 0.215418 0.31575 0.128871
595 2 0.233897 0.298907 0.128756
596 4 0.252377 0.282064 0.128641
2527 2 0.295033 0.305499 0.0862486
2528 4 0.293491 0.329713 0.0922887
1221 4 0.335625 0.267859 0.119385
2538 4 0.331348 0.288716 0.122798
2536 2 0.346391 0.307444 0.129739
2537 4 0.361433 0.326171 0.13668
965 4 0.420709 0.292856 0.109126
964 2 0.418126 0.311322 0.125784
554 4 0.438719 0.287442 0.116465
553 2 0.445463 0.265671 0.106181
2669 4 0.00380192 0.338683 0.120142
752 4 0.0139321 0.337337 0.137355
751 2 0.00808037 0.359761 0.146744
2970 4 0.189517 0.35485 0.0914865
2968 2 0.205815 0.338997 0.101892
1288 2 0.214542 0.407279 0.129222
1290 4 0.226044 0.397264 0.109409
1289 4 0.203041 0.417294 0.149036
1029 4 0.246126 0.398494 0.110937
1027 2 0.263807 0.386066 0.123513
1028 4 0.281488 0.373639 0.136089
4278 4 0.2969 0.363101 0.127097
4276 2 0.299651 0.344327 0.143381
2510 4 0.364005 0.368169 0.0996212
4512 4 0.410557 0.33578 0.160392
2509 2 0.380664 0.365059 0.0812361
4510 2 0.406686 0.360447 0.159048
4511 4 0.402816 0.385113 0.157704
1512 4 0.41514 0.399915 0.15568
966 4 0.415542 0.329788 0.142442
1418 4 0.992527 0.468289 0.0959228
1417 2 4.59519e-05 0.485511 0.112417
1045 2 0.110611 0.435433 0.0892383
322 2 0.105048 0.467876 0.139645
324 4 0.100773 0.466537 0.115045
1046 4 0.109164 0.449185 0.110071
1803 4 0.243769 0.455717 0.101112
2742 4 0.251104 0.446153 0.0863008
1801 2 0.25122 0.46365 0.123622
1802 4 0.25867 0.471584 0.146133
1869 4 0.347156 0.441337 0.131926
1868 4 0.393856 0.458057 0.138273
1867 2 0.370506 0.449697 0.135099
859 2 0.393032 0.495414 0.111554
861 4 0.411036 0.48887 0.0954848
646 2 0.484687 0.43068 0.0854752
3484 2 0.155146 0.0524733 0.170632
3486 4 0.163431 0.0740626 0.180143
2891 4 0.161158 0.0255334 0.24336
251 4 0.21576 0.00732423 0.219236
252 4 0.16861 0.0225608 0.225975
250 2 0.192185 0.0149425 0.222606
2535 4 0.229195 0.0113053 0.204406
3942 4 0.200931 0.0598929 0.219281
3940 2 0.224612 0.0651952 0.213253
3941 4 0.248292 0.0704976 0.207225
759 4 0.258047 0.076999 0.19213
2533 2 0.252606 0.00646555 0.211733
757 2 0.27062 0.0621699 0.176407
2534 4 0.276017 0.00162576 0.219061
713 4 0.284327 0.014699 0.231516
712 2 0.291423 0.0372754 0.239588
714 4 0.298519 0.0598518 0.24766
4024 2 0.367762 0.0415906 0.171227
4025 4 0.391412 0.0383263 0.178659
349 2 0.387976 0.0679455 0.248155
351 4 0.379304 0.0672738 0.224712
544 2 0.493001 0.0151568 0.234328
747 4 0.0450389 0.0943172 0.179784
1866 4 0.0275662 0.096804 0.188439
1864 2 0.0340426 0.11634 0.202637
1865 4 0.040519 0.135875 0.216836
1650 4 0.0519692 0.136498 0.232937
3509 4 0.165881 0.0904497 0.190662
3510 4 0.156779 0.139098 0.183497
3508 2 0.16133 0.114774 0.18708
55 3 0.234863 0.149668 0.180642
1355 4 0.218845 0.161436 0.181996
1474 2 0.265319 0.146462 0.224114
1475 4 0.268053 0.130336 0.205202
2514 4 0.28088 0.11758 0.211728
2512 2 0.301976 0.104235 0.210291
53 3 0.267653 0.164234 0.169226
2513 4 0.323072 0.0908895 0.208854
1476 4 0.262585 0.162587 0.243027
3270 4 0.462449 0.164995 0.202012
1356 4 0.198263 0.201955 0.202862
1354 2 0.208554 0.181695 0.192429
2961 4 0.20819 0.218949 0.196537
2959 2 0.197664 0.241625 0.196114
1800 4 0.217832 0.227271 0.251394
3454 2 0.376886 0.225244 0.228702
3455 4 0.358344 0.240414 0.235857
3456 4 0.395429 0.210073 0.221547
3897 4 0.403518 0.19266 0.214225
3896 4 0.445282 0.165257 0.211839
3268 2 0.480953 0.17936 0.210755
3895 2 0.4244 0.178958 0.213032
1104 4 0.00379228 0.329168 0.193076
531 4 0.0980917 0.272129 0.178046
529 2 0.10227 0.296371 0.182522
530 4 0.106448 0.320613 0.186997
3285 4 0.134499 0.295681 0.221009
666 4 0.115734 0.297752 0.227479
3283 2 0.156502 0.284734 0.216404
664 2 0.10202 0.295247 0.248236
3284 4 0.178505 0.273787 0.211798
2960 4 0.187138 0.264301 0.195692
4277 4 0.302401 0.325552 0.159665
3222 4 0.267989 0.311802 0.200772
3220 2 0.274139 0.33582 0.197528
3543 4 0.362408 0.30868 0.212058
3541 2 0.366023 0.318713 0.234673
452 4 0.413342 0.289699 0.229917
737 4 0.41613 0.289122 0.210224
736 2 0.433554 0.303426 0.199407
738 4 0.450978 0.317729 0.18859
288 4 0.469347 0.313412 0.196925
2898 4 0.00804082 0.391964 0.172451
3221 4 0.280288 0.359837 0.194284
270 4 0.28722 0.365035 0.176898
268 2 0.282666 0.387593 0.186673
269 4 0.278112 0.410152 0.196448
3058 2 0.368151 0.394305 0.244966
3060 4 0.348104 0.406427 0.236228
1510 2 0.425132 0.41123 0.175613
286 2 0.4872 0.330917 0.197025
3904 2 0.4305 0.399603 0.228675
3905 4 0.434771 0.404512 0.204532
323 4 0.109323 0.469215 0.164244
855 4 0.178953 0.462899 0.212877
853 2 0.179709 0.44186 0.226366
854 4 0.180465 0.420821 0.239856
2658 4 0.19667 0.471767 0.208449
2656 2 0.191339 0.495346 0.202062
3704 4 0.253649 0.465546 0.163606
3705 4 0.27545 0.427077 0.186964
3703 2 0.264549 0.446311 0.175285
1333 2 0.416215 0.496318 0.224335
3929 4 0.473227 0.498009 0.168734
1511 4 0.435124 0.422544 0.195546
1335 4 0.434301 0.485557 0.210833
3930 4 0.434657 0.476647 0.19233
3928 2 0.453942 0.487328 0.180532
4200 4 0.498102 0.459866 0.217892
734 4 0.0281263 0.0500387 0.303075
733 2 0.0519378 0.0426221 0.30486
1622 4 0.0214898 0.0476245 0.322358
735 4 0.0757493 0.0352056 0.306645
2552 4 0.0935744 0.0377284 0.316414
2892 4 0.130425 0.0637684 0.253073
2890 2 0.145791 0.0446509 0.248216
1583 4 0.13112 0.0110298 0.281618
3503 4 0.12112 0.0800701 0.26009
3062 4 0.207257 0.0746058 0.279526
2125 2 0.220401 0.0467911 0.314236
2127 4 0.198419 0.0541447 0.30486
2262 4 0.190545 0.0677312 0.317559
2126 4 0.242383 0.0394375 0.323613
2260 2 0.172371 0.0633444 0.334163
350 4 0.396649 0.0686173 0.271597
2645 4 0.410152 0.0545944 0.266699
2644 2 0.425995 0.0441228 0.282962
1518 4 0.461332 0.038268 0.29873
1516 2 0.485856 0.0431382 0.298771
2646 4 0.441838 0.0336513 0.299226
1648 2 0.0681461 0.133886 0.251822
3502 2 0.111219 0.103009 0.261077
1649 4 0.0843229 0.131274 0.270708
3504 4 0.101319 0.125948 0.262063
517 2 0.148445 0.128877 0.314003
518 4 0.129073 0.129132 0.32981
512 4 0.113336 0.140186 0.326616
519 4 0.167817 0.128623 0.298196
3061 2 0.195459 0.0960357 0.284698
3063 4 0.183661 0.117466 0.28987
2814 4 0.411396 0.162132 0.334248
2678 4 0.464925 0.115851 0.302922
2675 4 0.455842 0.132773 0.300106
2674 2 0.436377 0.146417 0.307861
2677 2 0.478535 0.0996186 0.316206
2676 4 0.416912 0.160062 0.315616
2679 4 0.492145 0.0833866 0.329491
1782 4 0.00515233 0.241912 0.312794
2132 4 0.0539067 0.188989 0.319736
2131 2 0.073319 0.201212 0.329683
305 4 0.0347721 0.192001 0.313464
304 2 0.0154897 0.207907 0.31285
3354 4 0.154179 0.192564 0.325387
3352 2 0.129718 0.194799 0.330059
1600 2 0.172502 0.234081 0.313343
1798 2 0.239507 0.218105 0.259842
1601 4 0.171027 0.228954 0.288915
1799 4 0.261182 0.208939 0.26829
2839 2 0.299439 0.222494 0.286925
2841 4 0.319601 0.227762 0.300743
2840 4 0.279278 0.217226 0.273107
2448 4 0.468125 0.195266 0.303183
254 4 0.470336 0.215871 0.303212
253 2 0.474499 0.234295 0.28683
255 4 0.478662 0.25272 0.270448
2446 2 0.489562 0.188014 0.313815
3587 4 0.0839025 0.280329 0.284518
665 4 0.0883071 0.292741 0.268993
3586 2 0.102234 0.274081 0.300333
3588 4 0.120566 0.267833 0.316148
1383 4 0.233163 0.255093 0.308918
1381 2 0.249115 0.255223 0.328172
451 2 0.416461 0.289348 0.254723
2798 4 0.329844 0.305954 0.300124
2797 2 0.336851 0.287561 0.315544
3542 4 0.369637 0.328745 0.257289
2799 4 0.343857 0.269168 0.330965
453 4 0.419581 0.288997 0.27953
3627 4 0.431828 0.293326 0.294364
620 4 0.492197 0.265769 0.265281
3625 2 0.435978 0.316645 0.302379
2690 4 0.0652783 0.349314 0.253554
2600 4 0.0351175 0.360406 0.300049
2599 2 0.0102803 0.360206 0.302926
2691 4 0.0547213 0.364637 0.29997
2689 2 0.0599998 0.356976 0.276762
1830 4 0.128201 0.413453 0.310425
1828 2 0.113834 0.412771 0.330879
3020 4 0.17699 0.409965 0.255498
3021 4 0.211093 0.401512 0.291082
3019 2 0.194041 0.405739 0.27329
2579 4 0.223208 0.415788 0.296952
2578 2 0.245173 0.408185 0.306167
2580 4 0.267138 0.400583 0.315382
110 3 0.369446 0.342185 0.27201
3059 4 0.388198 0.382183 0.253704
107 3 0.404508 0.349291 0.282643
106 1 0.38274 0.356678 0.283493
109 3 0.381597 0.377772 0.273893
108 3 0.376026 0.357699 0.30568
416 4 0.35811 0.350117 0.313835
3626 4 0.440128 0.339963 0.310394
1758 4 0.440825 0.35826 0.300981
3906 4 0.42623 0.394695 0.252817
1757 4 0.435083 0.397761 0.270856
1756 2 0.437954 0.378011 0.285919
2921 4 0.502762 0.401311 0.260038
3686 4 0.0219948 0.49964 0.285414
303 4 0.0022793 0.503638 0.28087
1746 4 0.335028 0.495309 0.265343
2553 4 0.0911495 0.000896904 0.350152
812 4 0.143401 0.0437106 0.35952
811 2 0.152398 0.0266078 0.375386
2551 2 0.092362 0.0193126 0.333283
813 4 0.161396 0.009505 0.391252
2261 4 0.154197 0.0589576 0.350766
3774 4 0.214104 0.0643686 0.415306
1676 4 0.253769 0.0232461 0.327665
1675 2 0.269843 0.0349672 0.342812
1677 4 0.285917 0.0466883 0.357958
1695 4 0.303903 0.0527835 0.360373
1693 2 0.32709 0.0481588 0.352241
4263 4 0.358698 0.00152316 0.375289
579 4 0.35589 0.0587809 0.331203
578 4 0.405204 0.0517418 0.335591
1694 4 0.350278 0.0435342 0.344109
577 2 0.380547 0.0552613 0.333397
3871 2 0.488239 0.0343905 0.413378
3873 4 0.478046 0.0149211 0.401453
42 3 0.417821 0.0653141 0.33948
41 1 0.424555 0.0855331 0.34814
3414 4 0.485947 0.0680087 0.421502
1182 4 0.01324 0.122835 0.391569
2237 4 0.0727859 0.126108 0.373515
2238 4 0.0246863 0.112973 0.377335
2236 2 0.0487361 0.11954 0.375425
513 4 0.0808179 0.143942 0.364422
511 2 0.0970768 0.142064 0.345519
721 2 0.123415 0.15557 0.391067
723 4 0.142169 0.141969 0.400474
722 4 0.104661 0.169171 0.38166
650 4 0.156908 0.131447 0.409658
248 4 0.225383 0.126695 0.396374
247 2 0.249061 0.133953 0.392934
828 4 0.210275 0.132195 0.408172
695 4 0.274479 0.160113 0.381771
249 4 0.272739 0.141211 0.389493
694 2 0.298383 0.166663 0.385065
43 3 0.416408 0.10256 0.334644
45 3 0.447311 0.0862572 0.348678
44 3 0.416056 0.0876977 0.369622
892 2 0.0722062 0.170801 0.412319
893 4 0.090577 0.171289 0.395364
3353 4 0.105257 0.197034 0.33473
2133 4 0.0927313 0.213436 0.33963
1602 4 0.173977 0.239208 0.33777
1697 4 0.182044 0.230876 0.355326
1696 2 0.199988 0.234022 0.372453
3327 4 0.231468 0.241457 0.404349
1698 4 0.217931 0.237168 0.38958
3325 2 0.240036 0.220081 0.414088
936 4 0.326383 0.230245 0.370172
696 4 0.322288 0.173213 0.388359
3324 4 0.310061 0.240368 0.370042
2809 2 0.326374 0.214165 0.409811
2811 4 0.347896 0.202319 0.405152
934 2 0.341928 0.24314 0.355432
427 2 0.402744 0.234737 0.368267
429 4 0.397888 0.210347 0.365671
2813 4 0.38546 0.199871 0.354343
2812 2 0.398428 0.181002 0.344295
3322 2 0.290218 0.254797 0.365218
1382 4 0.265067 0.255353 0.347427
3323 4 0.270375 0.269225 0.360394
935 4 0.357472 0.256035 0.340692
1446 4 0.328158 0.276136 0.407606
428 4 0.407601 0.259127 0.370862
445 2 0.0961725 0.408291 0.383114
1829 4 0.099468 0.412089 0.351332
446 4 0.107821 0.397832 0.40261
415 2 0.364162 0.355006 0.337598
417 4 0.370214 0.359894 0.361361
948 4 0.390714 0.359569 0.361991
946 2 0.413265 0.356432 0.372324
438 4 0.497244 0.375684 0.333291
947 4 0.435817 0.353295 0.382657
1906 2 0.471396 0.368915 0.360475
1908 4 0.480398 0.364832 0.337508
1907 4 0.462395 0.372997 0.383442
1811 4 0.456438 0.387044 0.39695
1810 2 0.454158 0.40365 0.415503
4177 2 0.0730621 0.487339 0.368977
447 4 0.084524 0.418751 0.363619
4178 4 0.0878612 0.467344 0.371501
547 2 0.276615 0.492679 0.370959
431 4 0.271282 0.437329 0.401508
3770 4 0.308382 0.476564 0.368515
3769 2 0.319458 0.465623 0.38808
549 4 0.2921 0.478071 0.357845
3771 4 0.330535 0.454683 0.407646
3614 4 0.341359 0.437186 0.406217
3525 4 0.0377904 0.0324826 0.454287
3523 2 0.056641 0.0486527 0.451392
1150 2 0.00640843 0.0260326 0.484065
1152 4 0.0254975 0.0241396 0.468028
3524 4 0.0754916 0.0648228 0.448497
575 4 0.0904283 0.0667081 0.434691
2295 4 0.102921 0.0204795 0.423449
1816 2 0.151316 0.0566746 0.485212
574 2 0.112833 0.0755929 0.428041
1817 4 0.130655 0.0668474 0.49495
1997 4 0.207984 0.083644 0.446588
1818 4 0.171977 0.0465018 0.475473
1998 4 0.178453 0.0445058 0.456432
1996 2 0.193218 0.0640749 0.45151
3772 2 0.238277 0.0678126 0.420693
3773 4 0.262449 0.0712565 0.426079
2178 4 0.282063 0.0703364 0.432676
2176 2 0.302173 0.0847183 0.436412
3872 4 0.498431 0.0538599 0.425304
528 4 0.00350752 0.144661 0.462994
526 2 0.0236582 0.148783 0.448776
527 4 0.0438089 0.152905 0.434558
576 4 0.135239 0.0844777 0.42139
649 2 0.155699 0.108109 0.418552
651 4 0.15449 0.0847721 0.427447
2765 4 0.13077 0.0881112 0.495369
827 4 0.210675 0.102448 0.448368
826 2 0.210475 0.117321 0.42827
516 4 0.208474 0.104945 0.467788
514 2 0.213211 0.111958 0.491316
4467 4 0.25552 0.152793 0.470103
4465 2 0.248578 0.166567 0.450424
2177 4 0.322282 0.0991001 0.440148
467 4 0.318799 0.161868 0.457606
1850 4 0.33824 0.108217 0.433972
1849 2 0.353964 0.124526 0.444555
1851 4 0.369688 0.140835 0.455138
3236 4 0.373717 0.143723 0.473723
3235 2 0.395152 0.156122 0.477186
3412 2 0.497559 0.0899139 0.418261
365 4 0.426001 0.155122 0.492226
894 4 0.0538355 0.170314 0.429274
4000 2 0.0166787 0.237745 0.485845
1146 4 0.0369898 0.208575 0.504599
4002 4 0.0340375 0.219875 0.48798
3465 4 0.208916 0.223106 0.473874
732 4 0.214329 0.206234 0.481867
3463 2 0.21075 0.247658 0.46951
730 2 0.22738 0.202369 0.502841
466 2 0.310999 0.170164 0.479866
3326 4 0.248605 0.198705 0.423827
4466 4 0.241636 0.180341 0.430746
2810 4 0.304853 0.226011 0.41447
3237 4 0.416586 0.168521 0.480648
364 2 0.446991 0.167828 0.49704
366 4 0.467982 0.180533 0.501854
384 4 0.488432 0.245346 0.497101
2655 4 0.00867001 0.308179 0.451565
615 4 0.0237065 0.316488 0.462968
613 2 0.0369701 0.312097 0.483704
569 4 0.066167 0.297025 0.508907
3464 4 0.212583 0.272209 0.465146
503 4 0.20372 0.290235 0.469369
502 2 0.216571 0.308086 0.481258
504 4 0.229422 0.325938 0.493147
1445 4 0.363386 0.280909 0.442776
1444 2 0.345772 0.278523 0.425191
4269 4 0.381028 0.276321 0.450742
4267 2 0.405577 0.275669 0.446038
3066 4 0.473538 0.251861 0.484236
4268 4 0.430126 0.275018 0.441335
3065 4 0.449137 0.268054 0.4437
3064 2 0.461338 0.259958 0.463968
2926 2 0.0089561 0.3857 0.496852
2927 4 0.0133276 0.381812 0.472542
1141 2 0.188028 0.39482 0.500697
1143 4 0.189596 0.417639 0.490598
2346 4 0.260075 0.408538 0.458109
2376 4 0.457787 0.352427 0.475681
2457 4 0.442591 0.350221 0.48923
2374 2 0.481219 0.359447 0.480864
1871 4 0.0166584 0.42274 0.423023
4243 2 0.0485264 0.489836 0.448986
4244 4 0.054223 0.468741 0.461142
2344 2 0.250969 0.42332 0.476102
2345 4 0.241862 0.438103 0.494095
432 4 0.258 0.42351 0.447697
430 2 0.264641 0.430419 0.424603
984 4 0.374672 0.475075 0.44009
982 2 0.391781 0.49315 0.44249
3613 2 0.355489 0.446125 0.424808
3615 4 0.36962 0.455064 0.443399
1812 4 0.451877 0.420256 0.434057
1226 4 0.485092 0.500856 0.440521
3360 4 0.0571309 0.0111578 0.540348
3358 2 0.082059 0.012803 0.539319
435 4 0.0367665 0.0109856 0.540871
3359 4 0.106987 0.0144482 0.53829
2276 4 0.111805 0.0239634 0.555893
2275 2 0.131822 0.0225067 0.570807
3084 4 0.231165 0.0812847 0.57706
2588 4 0.231472 0.0778706 0.557104
4182 4 0.453884 0.0821853 0.586971
2764 2 0.135755 0.107702 0.510083
2766 4 0.140741 0.127293 0.524797
4346 4 0.13297 0.155056 0.551583
4345 2 0.156753 0.158348 0.544599
4580 4 0.114741 0.16268 0.550393
515 4 0.217947 0.118971 0.514844
2587 2 0.226325 0.0995853 0.545828
2589 4 0.221178 0.1213 0.534551
4347 4 0.180535 0.16164 0.537616
1269 4 0.311652 0.115204 0.547238
375 4 0.296307 0.163936 0.513942
1267 2 0.320925 0.130133 0.529453
1268 4 0.330199 0.145063 0.511668
4180 2 0.460615 0.0997058 0.570451
4181 4 0.467346 0.117226 0.553931
2982 4 0.477457 0.104131 0.542533
2980 2 0.492561 0.0963482 0.524189
1145 4 0.0712823 0.172177 0.504705
4581 4 0.080661 0.1836 0.520366
1144 2 0.0541361 0.190376 0.504652
4579 2 0.0977011 0.17314 0.535379
374 4 0.251227 0.182811 0.52454
731 4 0.240432 0.198504 0.523815
373 2 0.273767 0.173373 0.519241
468 4 0.303199 0.178459 0.502127
383 4 0.471899 0.199571 0.508596
382 2 0.480166 0.222459 0.502848
614 4 0.0502337 0.307707 0.50444
568 2 0.0873669 0.305217 0.519331
570 4 0.108567 0.313409 0.529755
4433 4 0.124684 0.324531 0.528856
2105 4 0.19527 0.308424 0.545102
2104 2 0.194355 0.295051 0.56621
2106 4 0.19344 0.281678 0.587317
1820 4 0.207673 0.326435 0.542678
3131 4 0.317507 0.322639 0.54453
3130 2 0.338129 0.309438 0.539467
3132 4 0.358752 0.296237 0.534404
2928 4 0.00458457 0.389588 0.521161
4432 2 0.131962 0.335898 0.549904
4434 4 0.13924 0.347265 0.570951
1142 4 0.18646 0.372 0.510797
1819 2 0.205703 0.343958 0.52495
1821 4 0.203732 0.361481 0.507223
1250 4 0.310803 0.336173 0.52895
1249 2 0.297217 0.352692 0.541901
1251 4 0.283631 0.369212 0.554852
3140 4 0.282623 0.369941 0.574644
3426 4 0.331459 0.373969 0.563695
2415 4 0.33788 0.36609 0.58187
3424 2 0.33681 0.398301 0.561567
2456 4 0.40876 0.379858 0.511087
2355 4 0.409685 0.399178 0.505274
2455 2 0.425675 0.36504 0.500159
1568 4 0.0159323 0.480164 0.544543
1567 2 0.0293196 0.495691 0.558856
1360 2 0.267796 0.442424 0.528534
1361 4 0.276997 0.447671 0.551184
3120 4 0.284523 0.464418 0.560563
3118 2 0.298694 0.470779 0.580157
1362 4 0.258595 0.437178 0.505885
2353 2 0.396027 0.419997 0.50756
929 4 0.341487 0.443818 0.560271
3425 4 0.342161 0.422633 0.559439
930 4 0.373881 0.451862 0.523032
928 2 0.357684 0.44784 0.541651
2354 4 0.382369 0.440815 0.509847
1910 4 0.400448 0.487026 0.560815
1946 4 0.419931 0.48242 0.557497
1945 2 0.439108 0.467231 0.562667
1947 4 0.458285 0.452042 0.567838
1178 4 0.481623 0.479087 0.577519
834 4 0.477062 0.499014 0.510625
2193 4 0.0690808 0.060265 0.63318
1990 2 0.0287177 0.0782538 0.637219
2191 2 0.0789626 0.0636009 0.655905
1992 4 0.0527138 0.0718327 0.634364
2277 4 0.151838 0.02105 0.585721
4238 4 0.147227 0.038789 0.594673
4237 2 0.151567 0.055902 0.61238
4239 4 0.155906 0.073015 0.630086
4370 4 0.14693 0.0760025 0.647627
3082 2 0.240106 0.0607753 0.588223
2603 4 0.256325 0.0364314 0.617935
2602 2 0.255655 0.0349847 0.642888
2604 4 0.254984 0.0335381 0.667842
3083 4 0.249047 0.0402658 0.599386
1991 4 0.0047217 0.0846748 0.640073
4369 2 0.16191 0.0874643 0.66404
3157 2 0.188303 0.243939 0.596625
4421 4 0.215389 0.222654 0.606437
3158 4 0.195676 0.2213 0.604261
4420 2 0.240339 0.224147 0.607107
3263 4 0.281886 0.214047 0.608042
4422 4 0.26529 0.225639 0.607778
3264 4 0.328147 0.221887 0.590747
3262 2 0.305016 0.217967 0.599394
2231 4 0.341883 0.209317 0.585149
2230 2 0.366428 0.213128 0.588014
2232 4 0.390973 0.216939 0.59088
1194 4 0.399419 0.20281 0.602798
3095 4 0.351104 0.179018 0.657936
3196 2 0.481407 0.185879 0.644093
1192 2 0.424344 0.2041 0.604322
1193 4 0.449268 0.20539 0.605846
3364 2 0.474108 0.228958 0.608509
3365 4 0.466165 0.20893 0.595822
2265 4 0.486411 0.253406 0.640097
3197 4 0.494861 0.168613 0.632007
3198 4 0.467954 0.203145 0.65618
2263 2 0.500059 0.246311 0.659809
1325 4 0.0520627 0.304025 0.632646
1324 2 0.0738097 0.31241 0.641699
902 4 0.0391644 0.319556 0.630997
901 2 0.0174493 0.327819 0.640236
1326 4 0.0955566 0.320795 0.650751
3159 4 0.180929 0.266578 0.58899
4308 4 0.237649 0.322533 0.651652
291 4 0.227759 0.306973 0.656142
3027 4 0.375183 0.284561 0.609139
3025 2 0.371613 0.307573 0.618241
3026 4 0.368043 0.330586 0.627343
3366 4 0.482051 0.248986 0.621196
2310 4 0.10165 0.330789 0.666612
2309 4 0.121617 0.376435 0.662311
2308 2 0.111633 0.353612 0.664462
3640 2 0.12272 0.412063 0.666468
4306 2 0.243209 0.341768 0.636676
4307 4 0.248769 0.361003 0.621701
3141 4 0.244944 0.373898 0.607284
3139 2 0.263783 0.371919 0.590964
2413 2 0.318599 0.360359 0.596724
2414 4 0.299319 0.354629 0.611577
1078 2 0.34976 0.356431 0.653828
1079 4 0.364404 0.348102 0.635352
10 3 0.0136465 0.422222 0.653974
3641 4 0.112719 0.434443 0.661537
3450 4 0.112162 0.453898 0.658168
4470 4 0.11672 0.489641 0.650011
3119 4 0.312865 0.47714 0.599751
2015 4 0.329082 0.480199 0.587038
1136 4 0.304862 0.445138 0.625945
1135 2 0.325505 0.454807 0.636221
1137 4 0.346148 0.464476 0.646496
3056 4 0.352485 0.45044 0.658689
2014 2 0.34413 0.496387 0.598728
1177 2 0.49107 0.468901 0.598308
443 4 0.0796839 0.0804028 0.690805
2192 4 0.0888445 0.0669369 0.678629
844 2 0.223908 0.0509113 0.686017
845 4 0.203097 0.0645721 0.688356
846 4 0.244719 0.0372504 0.683679
97 3 0.266049 0.0168734 0.669794
1183 2 0.308107 0.0580515 0.682288
1185 4 0.302006 0.0339943 0.679248
100 3 0.290349 0.0286697 0.695548
98 3 0.253492 0.0345763 0.700479
96 1 0.269557 0.0199572 0.692318
4164 4 0.395252 0.0631992 0.681434
4162 2 0.38332 0.0412363 0.680762
4163 4 0.371389 0.0192735 0.68009
2089 2 0.391832 0.0810825 0.747304
2988 4 0.122656 0.11196 0.735531
442 2 0.0948047 0.0925361 0.706596
444 4 0.109926 0.104669 0.722386
4371 4 0.176891 0.0989262 0.680454
1184 4 0.314208 0.0821087 0.685328
458 4 0.285492 0.132445 0.674749
457 2 0.303958 0.115775 0.677259
2153 4 0.266548 0.139093 0.678396
2152 2 0.262364 0.149971 0.700516
2154 4 0.25818 0.16085 0.722637
459 4 0.322423 0.0991042 0.679768
636 4 0.390515 0.0804038 0.67366
634 2 0.397613 0.0941208 0.693324
2091 4 0.396997 0.0964701 0.728286
635 4 0.40471 0.107838 0.712988
3280 2 0.238715 0.183154 0.744036
3282 4 0.253825 0.163474 0.740937
939 4 0.407352 0.205813 0.672725
3094 2 0.369826 0.191884 0.668384
3096 4 0.388548 0.20475 0.678833
3380 4 0.338624 0.177731 0.74392
937 2 0.430419 0.197849 0.667277
938 4 0.453486 0.189885 0.661829
4484 4 0.00297906 0.321947 0.743845
290 4 0.22065 0.321438 0.703482
289 2 0.224204 0.314206 0.679812
1280 4 0.323232 0.286424 0.749227
1281 4 0.352042 0.265345 0.714207
1279 2 0.337637 0.275884 0.731717
1166 4 0.0437854 0.397668 0.699608
1165 2 0.023791 0.385441 0.708322
1167 4 0.0037967 0.373214 0.717036
888 4 0.0415867 0.415607 0.704026
1207 2 0.0938311 0.375397 0.740314
3642 4 0.13272 0.389682 0.671399
1208 4 0.114295 0.36759 0.728254
895 2 0.138345 0.377643 0.709209
897 4 0.132638 0.373079 0.733121
896 4 0.144052 0.382208 0.685296
1905 4 0.226877 0.338139 0.710946
1903 2 0.222186 0.348103 0.733394
2035 2 0.31899 0.388724 0.691531
3207 4 0.305865 0.385842 0.743167
2037 4 0.305975 0.410066 0.692114
3205 2 0.309098 0.409641 0.75012
1080 4 0.335116 0.364761 0.672305
2036 4 0.332004 0.367382 0.690948
2984 4 0.362473 0.396922 0.696951
2983 2 0.38045 0.411475 0.706452
2859 4 0.411419 0.416726 0.727206
4520 4 0.384504 0.352994 0.747923
886 2 0.0503308 0.438976 0.702401
887 4 0.0590749 0.462345 0.700776
3449 4 0.0710592 0.463911 0.684832
2436 4 0.000942671 0.449854 0.684287
3448 2 0.0916105 0.458904 0.6715
3086 4 0.241897 0.494678 0.694143
3085 2 0.255089 0.476101 0.70444
3153 4 0.315329 0.421896 0.704103
3151 2 0.300213 0.441812 0.703937
3087 4 0.268282 0.457524 0.714737
3152 4 0.285096 0.461728 0.703771
2985 4 0.398426 0.426028 0.715953
1122 4 0.347569 0.47219 0.742989
3055 2 0.364787 0.460621 0.677931
3057 4 0.377088 0.470801 0.697172
4377 4 0.474197 0.47538 0.718075
2858 4 0.455028 0.428582 0.705795
2857 2 0.433223 0.422654 0.716501
4375 2 0.470097 0.461553 0.738501
450 4 0.394377 0.0476835 0.759891
448 2 0.381748 0.0299236 0.772149
449 4 0.369119 0.0121636 0.784408
2090 4 0.386666 0.0656949 0.766323
2522 4 0.438064 0.042207 0.81312
2521 2 0.458656 0.0283696 0.816234
2523 4 0.479247 0.0145323 0.819348
1260 4 0.0247937 0.114707 0.751668
1944 4 0.078106 0.108146 0.773711
1942 2 0.0544115 0.115643 0.770959
1943 4 0.0307171 0.123139 0.768207
3357 4 0.0817166 0.137918 0.824168
2424 4 0.14123 0.0947772 0.795596
2987 4 0.0957734 0.115536 0.777548
2986 2 0.109215 0.113748 0.75654
656 4 0.135013 0.107392 0.809606
655 2 0.111383 0.115544 0.810216
657 4 0.0877541 0.123697 0.810827
2422 2 0.16577 0.0977176 0.79938
2979 4 0.205729 0.0948866 0.792099
2423 4 0.19031 0.100658 0.803163
2977 2 0.229852 0.100249 0.795911
2978 4 0.253975 0.105612 0.799723
2048 4 0.261866 0.14894 0.819001
3381 4 0.37668 0.166675 0.774419
1229 4 0.0218038 0.211866 0.757024
1228 2 0.0458044 0.207148 0.76221
1230 4 0.069805 0.20243 0.767396
3387 4 0.0893653 0.205027 0.765304
3385 2 0.104029 0.217827 0.780999
3386 4 0.118693 0.230627 0.796694
2197 2 0.152284 0.183081 0.806475
2198 4 0.159694 0.174426 0.784218
2796 4 0.109355 0.245017 0.807675
2199 4 0.144874 0.191736 0.828732
3281 4 0.223606 0.202834 0.747134
1256 4 0.207118 0.211058 0.754929
1257 4 0.176023 0.184618 0.783821
1255 2 0.191571 0.197838 0.769375
1011 4 0.20451 0.24888 0.783205
1009 2 0.227085 0.250951 0.772656
1010 4 0.24966 0.253022 0.762108
2047 2 0.265676 0.17034 0.806644
3103 2 0.302186 0.188154 0.765665
3104 4 0.28423 0.194825 0.781736
2049 4 0.269486 0.19174 0.794286
2758 2 0.287474 0.250939 0.780171
3105 4 0.320143 0.181483 0.749594
3825 4 0.292293 0.240305 0.808573
2759 4 0.306184 0.244323 0.79538
2760 4 0.268763 0.257556 0.764962
3823 2 0.295977 0.235993 0.832926
3379 2 0.357652 0.172203 0.75917
2062 2 0.4604 0.22172 0.821376
2064 4 0.481714 0.211165 0.813663
809 4 0.492865 0.213519 0.797036
2063 4 0.439085 0.232275 0.829088
3479 4 0.0197335 0.295367 0.821151
208 3 0.00996337 0.287664 0.836829
2794 2 0.12044 0.267315 0.805402
274 2 0.123191 0.326569 0.812927
275 4 0.122436 0.301994 0.817472
2795 4 0.131526 0.289612 0.803129
4091 4 0.356523 0.297549 0.774555
4521 4 0.364985 0.309074 0.761741
4090 2 0.356985 0.29627 0.799522
4092 4 0.357447 0.294992 0.824488
4519 2 0.374745 0.331034 0.754832
3403 2 0.425789 0.268699 0.832361
3405 4 0.442987 0.250649 0.830461
1209 4 0.0733668 0.383205 0.752374
949 2 0.0439991 0.388076 0.782062
950 4 0.0342811 0.391847 0.80479
4349 4 0.0335193 0.390235 0.824874
951 4 0.0537171 0.384305 0.759334
276 4 0.123945 0.351145 0.808383
2067 4 0.118871 0.366027 0.820237
2065 2 0.137701 0.381613 0.814976
2066 4 0.156532 0.397199 0.809716
1904 4 0.217495 0.358067 0.755841
3338 4 0.207102 0.372445 0.76468
3339 4 0.227577 0.412642 0.786261
3337 2 0.217339 0.392543 0.77547
1064 4 0.244388 0.406682 0.793856
1191 4 0.385047 0.363844 0.76503
1189 2 0.405302 0.376744 0.771993
2010 4 0.469034 0.373272 0.78449
2008 2 0.475345 0.36652 0.807723
1190 4 0.425557 0.389645 0.778956