ITEM: TIMESTEP
144000
ITEM: NUMBER OF ATOMS
4590
ITEM: BOX BOUNDS xy xz yz pp pp pp
-1.2398226800000003e+01 9.9985700000000008e+00 -2.3996568000000025e+00
-9.9985700000000008e+00 9.9985700000000008e+00 0.0000000000000000e+00
-9.9985700000000008e+00 9.9985700000000008e+00 0.0000000000000000e+00
ITEM: ATOMS id type xs ys zs
4351 2 0.123339 0.0737449 0.0089053
4352 4 0.14668 0.0767429 0.0182894
115 3 0.165773 0.0772072 0.0218092
1147 2 0.309663 0.06803 0.021225
1148 4 0.319983 0.0724009 0.0438111
1149 4 0.299344 0.0636592 0.998639
1086 4 0.380018 0.0520883 0.041795
2745 4 0.383203 0.0465911 0.0611438
1084 2 0.385056 0.064787 0.0205446
2743 2 0.374397 0.0297605 0.0783441
532 2 0.417919 0.00245451 0.059625
2769 4 0.494928 0.0332856 0.0537527
533 4 0.435759 0.0214432 0.0643628
4155 4 0.0160917 0.0866113 0.0615435
4153 2 0.0408841 0.0930283 0.0641764
1826 4 0.0607887 0.151306 0.035025
4154 4 0.0656765 0.0994454 0.0668093
2523 4 0.0842567 0.0958774 0.0604173
2521 2 0.103313 0.101596 0.0763864
2501 4 0.094541 0.14758 0.0721341
1825 2 0.0404721 0.162523 0.0405094
111 1 0.177205 0.0957116 0.0313692
112 3 0.164016 0.11292 0.0308059
114 3 0.182186 0.0912933 0.0534714
113 3 0.196924 0.102099 0.0196044
450 4 0.214892 0.109284 0.0113975
3983 4 0.230164 0.118856 0.0219789
3982 2 0.25445 0.127507 0.0188406
3984 4 0.278737 0.136157 0.0157024
2669 4 0.295168 0.147132 0.020242
1633 2 0.301272 0.0966369 0.0664093
1634 4 0.320256 0.09176 0.0516297
2668 2 0.319176 0.145626 0.0263914
2670 4 0.343184 0.14412 0.0325409
395 4 0.352113 0.147285 0.0500902
394 2 0.352563 0.166238 0.0662961
740 4 0.453719 0.152407 0.0411663
739 2 0.474742 0.161787 0.0292803
1827 4 0.0201554 0.17374 0.0459938
1006 2 0.0172828 0.195951 0.0775646
2163 4 0.00322327 0.182702 0.0452816
2500 2 0.107137 0.168241 0.0623391
2502 4 0.119734 0.188902 0.0525441
2620 2 0.0882497 0.232617 0.00136424
2622 4 0.0640394 0.236507 0.000324421
4077 4 0.179515 0.167228 0.0491574
2633 4 0.123903 0.204035 0.0410824
2632 2 0.129482 0.19767 0.0177493
4075 2 0.197396 0.17645 0.0652433
2591 4 0.230126 0.183061 0.0689212
2590 2 0.254233 0.182765 0.0754196
4076 4 0.215278 0.185671 0.0813292
741 4 0.495766 0.171166 0.0173944
782 4 0.0105342 0.27982 0.0620462
1290 4 0.0220755 0.282774 0.0773027
3144 4 0.053751 0.320899 0.00294934
1288 2 0.0466294 0.286916 0.0718901
1289 4 0.0711833 0.291057 0.0664775
639 4 0.0896568 0.300939 0.0655138
637 2 0.11364 0.300726 0.0724942
638 4 0.137623 0.300512 0.0794746
3632 4 0.433957 0.282833 0.071229
3631 2 0.457417 0.285511 0.0621386
3633 4 0.480876 0.288189 0.0530481
1047 4 0.498887 0.302856 0.0510226
3211 2 0.480648 0.259733 0.0205174
3213 4 0.472 0.267709 0.0421807
2554 2 0.496793 0.25505 0.0746166
2556 4 0.486581 0.261315 0.0530359
2966 4 0.00149434 0.387572 0.0606438
3744 4 0.174159 0.413936 0.0127726
611 4 0.264729 0.383667 0.0658127
704 4 0.283153 0.381252 0.0724131
610 2 0.246462 0.371262 0.0795904
703 2 0.307621 0.380552 0.067736
705 4 0.33209 0.379851 0.0630589
507 4 0.341884 0.398068 0.0666174
324 4 0.415877 0.396405 0.0546891
322 2 0.425916 0.413476 0.0382591
1053 4 0.0332105 0.486394 0.0172307
1051 2 0.0519091 0.482196 0.0326846
1052 4 0.0706078 0.477998 0.0481385
2904 4 0.0902157 0.474329 0.0477458
2902 2 0.111196 0.475591 0.0615205
2903 4 0.132176 0.476852 0.0752953
2783 4 0.151946 0.480262 0.0783836
3742 2 0.184069 0.437553 0.0169393
3743 4 0.193978 0.46117 0.0211061
4278 4 0.203261 0.465935 0.0399413
4276 2 0.209104 0.468624 0.0641791
3849 4 0.312675 0.459393 0.0480669
4376 4 0.270348 0.445774 0.000105641
505 2 0.360317 0.415707 0.0735331
3847 2 0.337336 0.4573 0.0476296
3848 4 0.361997 0.455208 0.0471923
506 4 0.37875 0.433346 0.0804487
323 4 0.435955 0.430546 0.0218291
3544 2 0.00520108 0.0404488 0.10103
3546 4 0.0106033 0.0231741 0.084572
1232 4 0.181535 0.0582864 0.11985
1231 2 0.188893 0.0690222 0.141601
996 4 0.249054 0.0563788 0.0973002
994 2 0.234015 0.0350244 0.100977
33 3 0.254461 0.0623476 0.116097
3510 4 0.25183 0.0828505 0.159656
995 4 0.218976 0.0136701 0.104654
1233 4 0.196251 0.0797581 0.163351
3508 2 0.249851 0.0586121 0.165723
1427 4 0.317763 0.00767008 0.149148
2469 4 0.349125 0.999082 0.103552
566 4 0.411498 0.0750614 0.0910224
2744 4 0.36559 0.0129298 0.0955445
565 2 0.434735 0.0686749 0.0881577
522 4 0.489845 0.0093826 0.159668
567 4 0.457973 0.0622884 0.0852931
520 2 0.470084 0.0170117 0.14786
521 4 0.450323 0.0246407 0.136051
2605 2 0.0138558 0.132479 0.116434
2606 4 0.0287333 0.140049 0.0971278
2522 4 0.12237 0.107315 0.0923556
3216 4 0.218448 0.144389 0.140273
32 3 0.254716 0.0988963 0.123828
3214 2 0.236879 0.160058 0.12999
31 1 0.266903 0.0832579 0.114513
34 3 0.271092 0.0886791 0.0922306
1635 4 0.282288 0.101514 0.0811888
35 3 0.286711 0.0833282 0.125765
359 4 0.305366 0.0899821 0.115618
358 2 0.330099 0.0941743 0.12015
579 4 0.405847 0.0914207 0.10134
360 4 0.354831 0.0983666 0.124682
578 4 0.370994 0.111249 0.128197
577 2 0.38842 0.101335 0.114769
1007 4 0.0358599 0.196279 0.0943403
251 4 0.0200058 0.189979 0.140422
250 2 0.038684 0.190535 0.15711
660 4 0.200547 0.191771 0.161811
2592 4 0.27834 0.182468 0.081918
308 4 0.215397 0.249696 0.13322
3215 4 0.255309 0.175728 0.119707
2288 4 0.231399 0.250007 0.121479
2775 4 0.291855 0.189704 0.0946313
2773 2 0.316746 0.189159 0.0960628
396 4 0.353013 0.185191 0.0825019
2774 4 0.341638 0.188613 0.0974943
2941 2 0.432532 0.209096 0.148564
2943 4 0.4381 0.218168 0.125699
2970 4 0.456727 0.214386 0.125666
2968 2 0.479167 0.225794 0.11852
2969 4 0.501607 0.237201 0.111374
2529 4 0.0142079 0.325341 0.157985
524 4 0.113016 0.256281 0.120776
523 2 0.135666 0.255246 0.131044
307 2 0.191072 0.25091 0.128233
525 4 0.158316 0.254211 0.141312
1094 4 0.153512 0.295899 0.0931865
1093 2 0.177131 0.302591 0.100921
309 4 0.166746 0.252124 0.123245
1095 4 0.20075 0.309283 0.108656
1158 4 0.21971 0.317268 0.103834
2287 2 0.25199 0.266279 0.125084
1156 2 0.242589 0.32065 0.11426
2289 4 0.272582 0.282552 0.128689
959 4 0.292279 0.283853 0.1242
1157 4 0.265468 0.324031 0.124687
958 2 0.307789 0.303725 0.116584
960 4 0.323299 0.323597 0.108968
2569 2 0.364564 0.325916 0.125901
2571 4 0.343408 0.325589 0.112516
244 2 0.381498 0.298938 0.167426
245 4 0.393231 0.312288 0.14887
2570 4 0.38572 0.326244 0.139287
4161 4 0.106055 0.40456 0.142401
4159 2 0.126487 0.412691 0.128965
4255 2 0.17345 0.402463 0.0988929
4257 4 0.149797 0.406167 0.104439
287 4 0.182214 0.346015 0.139721
4256 4 0.197104 0.398759 0.093347
3542 4 0.213092 0.407416 0.103739
286 2 0.201963 0.355373 0.125913
288 4 0.221712 0.364732 0.112104
612 4 0.228196 0.358858 0.093368
1586 4 0.276262 0.340179 0.128883
1585 2 0.288746 0.349282 0.149194
2889 4 0.00558722 0.430241 0.160456
4160 4 0.146919 0.420822 0.115529
2784 4 0.186449 0.49749 0.112322
2782 2 0.169198 0.488876 0.095353
4511 4 0.201678 0.456333 0.154308
4277 4 0.214947 0.471313 0.088417
4510 2 0.209967 0.463724 0.131597
4512 4 0.218256 0.471116 0.108887
3541 2 0.237305 0.416625 0.106266
3543 4 0.261519 0.425834 0.108794
263 4 0.278359 0.443431 0.135774
262 2 0.289094 0.467148 0.136465
2994 4 0.286626 0.437302 0.153206
2992 2 0.301474 0.4201 0.15978
264 4 0.299829 0.490864 0.137156
2546 4 0.315848 0.49508 0.126656
2545 2 0.336166 0.490557 0.113635
2547 4 0.356484 0.486034 0.100614
4314 4 0.371936 0.481129 0.0891923
646 2 0.356615 0.420099 0.156949
647 4 0.376621 0.433002 0.146086
3519 4 0.392537 0.44275 0.137912
3517 2 0.39417 0.442191 0.112973
3518 4 0.395802 0.441632 0.0880331
2479 2 0.0173022 0.0321751 0.200608
2481 4 0.0227507 0.0566556 0.205033
2480 4 0.0118538 0.00769458 0.196183
2756 4 0.20087 0.0731315 0.204513
2755 2 0.203255 0.0493998 0.210395
2757 4 0.20564 0.0256681 0.216276
1797 4 0.225688 0.0296879 0.218666
1795 2 0.236775 0.0211545 0.238808
1070 4 0.233881 0.020784 0.179141
3509 4 0.247872 0.0343737 0.171791
1069 2 0.249705 0.00443299 0.185581
1850 4 0.329897 0.0533165 0.217173
1849 2 0.325448 0.0652204 0.238361
1426 2 0.300636 0.999392 0.166363
545 4 0.345097 0.0424574 0.222497
544 2 0.369734 0.0413208 0.225685
546 4 0.394371 0.0401843 0.228873
691 2 0.482958 0.0447392 0.216777
693 4 0.474706 0.0575984 0.197702
692 4 0.491211 0.0318799 0.235852
1407 4 0.491012 0.0497329 0.246284
2940 4 0.000504585 0.167308 0.205638
2945 4 0.0594715 0.159608 0.169411
2798 4 0.0622107 0.116651 0.21834
2944 2 0.0686062 0.162967 0.192598
2946 4 0.077741 0.166326 0.215785
2797 2 0.0814712 0.119206 0.234446
2799 4 0.100732 0.121762 0.250552
2453 4 0.0849221 0.16431 0.234213
3554 4 0.148102 0.098532 0.239279
3061 2 0.171155 0.0959353 0.20893
3063 4 0.154189 0.107448 0.221419
659 4 0.191547 0.15338 0.193553
3062 4 0.188121 0.0844221 0.19644
1463 4 0.426089 0.13236 0.250062
489 4 0.441795 0.143889 0.240982
487 2 0.465575 0.148518 0.23296
488 4 0.489356 0.153148 0.224937
1763 4 0.473519 0.0974154 0.241894
1762 2 0.489339 0.103498 0.222908
472 2 0.00563639 0.23943 0.227623
2838 4 0.0129716 0.186326 0.237133
2836 2 0.0354315 0.194432 0.227245
252 4 0.0573622 0.191091 0.173798
2837 4 0.0578915 0.202538 0.217356
2452 2 0.10951 0.172512 0.235086
640 2 0.127581 0.247444 0.186157
642 4 0.147161 0.240279 0.173664
761 4 0.161574 0.239471 0.186836
658 2 0.196047 0.172576 0.177682
760 2 0.184464 0.234246 0.193528
2454 4 0.134099 0.180714 0.235959
933 4 0.226062 0.237932 0.199629
762 4 0.207355 0.22902 0.20022
713 4 0.251397 0.246782 0.184896
2942 4 0.426964 0.200023 0.171429
2579 4 0.394438 0.214708 0.236312
3054 4 0.382113 0.211027 0.219107
3053 4 0.41889 0.200403 0.188449
3052 2 0.400501 0.205715 0.203778
2896 2 0.0494389 0.333583 0.172631
474 4 0.0198242 0.249162 0.208623
1104 4 0.0404451 0.253815 0.208387
2718 4 0.00856551 0.330847 0.224121
1102 2 0.0642932 0.253239 0.20112
1103 4 0.0881414 0.252664 0.193853
641 4 0.108001 0.254608 0.198649
2898 4 0.0742674 0.332376 0.172397
932 4 0.239041 0.260968 0.242823
931 2 0.232552 0.24945 0.221226
712 2 0.275322 0.254581 0.178905
714 4 0.299247 0.262379 0.172915
338 4 0.311603 0.260532 0.188221
337 2 0.332397 0.276993 0.18854
339 4 0.35319 0.293454 0.188858
246 4 0.369766 0.285588 0.185982
753 4 0.31887 0.329637 0.223677
1471 2 0.492408 0.321839 0.248028
2897 4 0.0246104 0.33479 0.172864
326 4 0.00905751 0.376207 0.204419
3107 4 0.0231962 0.345231 0.230453
3106 2 0.0423688 0.359538 0.219692
3108 4 0.0615414 0.373845 0.208932
621 4 0.0855519 0.350239 0.172427
619 2 0.103183 0.368148 0.180473
620 4 0.120815 0.386057 0.18852
1512 4 0.133758 0.393907 0.174933
2918 4 0.0847185 0.417859 0.222731
1510 2 0.158464 0.393854 0.17113
1511 4 0.18317 0.393801 0.167328
752 4 0.307846 0.361534 0.188143
2993 4 0.316322 0.402897 0.166355
648 4 0.336608 0.407196 0.167811
411 4 0.314531 0.340207 0.240065
1587 4 0.301231 0.358385 0.169505
751 2 0.313358 0.345586 0.20591
2888 4 0.0439518 0.412356 0.183687
2919 4 0.0466647 0.429126 0.194079
2887 2 0.0247695 0.421298 0.172071
3859 2 0.0643755 0.480732 0.217405
2496 4 0.0213097 0.472344 0.229639
3861 4 0.0409722 0.472113 0.224513
2917 2 0.0656916 0.423492 0.208405
2494 2 0.999073 0.464546 0.240159
3812 4 0.104501 0.422807 0.226687
3811 2 0.124846 0.439442 0.223247
3813 4 0.14519 0.456076 0.219808
3860 4 0.0877788 0.48935 0.210296
1412 4 0.106853 0.493987 0.202636
3963 4 0.189563 0.457288 0.171225
3961 2 0.177216 0.456442 0.193008
3962 4 0.164869 0.455595 0.214791
2961 4 0.307653 0.488358 0.246419
2740 2 0.449987 0.476554 0.23162
2742 4 0.462107 0.492737 0.215505
392 4 0.479357 0.482775 0.21206
2741 4 0.437866 0.460371 0.247736
2490 4 0.100049 0.064363 0.30433
2553 4 0.0920513 0.0157475 0.296955
3555 4 0.122511 0.061864 0.265871
3553 2 0.135306 0.080198 0.252575
1796 4 0.247861 0.012621 0.25895
724 2 0.232183 0.0222776 0.298341
725 4 0.218318 0.0268036 0.318268
726 4 0.246047 0.0177516 0.278413
2339 4 0.202856 0.0112403 0.3152
1851 4 0.320999 0.0771243 0.259549
19 3 0.339142 0.0856022 0.264552
581 4 0.0352909 0.137793 0.305214
580 2 0.059071 0.148209 0.3022
582 4 0.0828512 0.158625 0.299186
2535 4 0.107334 0.127566 0.267782
2488 2 0.101029 0.0885525 0.310359
2489 4 0.102009 0.112742 0.316388
2533 2 0.130005 0.129691 0.278653
2534 4 0.152676 0.131817 0.289524
2675 4 0.227115 0.141718 0.273096
2674 2 0.243483 0.162197 0.276601
2846 4 0.264191 0.113417 0.299144
2845 2 0.289161 0.113213 0.298482
2847 4 0.31413 0.113008 0.297819
17 3 0.328622 0.114939 0.283389
18 3 0.346086 0.0894045 0.301806
16 1 0.344917 0.100718 0.281705
20 3 0.365116 0.112844 0.277204
1464 4 0.381345 0.110735 0.266079
1462 2 0.403717 0.121547 0.25807
2708 4 0.0917641 0.179627 0.298598
2707 2 0.116498 0.179748 0.302359
2709 4 0.141231 0.179869 0.306119
3269 4 0.133272 0.236197 0.321868
2651 4 0.143618 0.243641 0.306598
3201 4 0.15732 0.177667 0.317213
2650 2 0.168081 0.247384 0.300722
3199 2 0.175681 0.190123 0.330835
2676 4 0.25985 0.182677 0.280105
1061 4 0.277313 0.180604 0.272528
254 4 0.262172 0.217106 0.332806
1060 2 0.297584 0.197732 0.272533
1062 4 0.317855 0.214861 0.272538
708 4 0.320076 0.234382 0.275797
2659 2 0.388912 0.211104 0.318334
2660 4 0.401375 0.21982 0.297868
2578 2 0.40395 0.214227 0.259407
2580 4 0.413462 0.213746 0.282501
3235 2 0.168671 0.306205 0.316664
3237 4 0.1608 0.328684 0.319523
3236 4 0.176541 0.283726 0.313806
2652 4 0.192543 0.251128 0.294847
2601 4 0.212427 0.253107 0.295125
2599 2 0.236799 0.262076 0.296552
2600 4 0.261171 0.271046 0.297978
1584 4 0.271257 0.283844 0.286852
1582 2 0.295005 0.29197 0.29322
1583 4 0.318753 0.300095 0.299589
707 4 0.35768 0.269228 0.288816
706 2 0.338878 0.251805 0.282307
231 4 0.393684 0.295908 0.311874
229 2 0.390334 0.308064 0.333189
409 2 0.300605 0.338881 0.260895
410 4 0.286679 0.337556 0.281725
1472 4 0.482512 0.336967 0.264126
2959 2 0.314168 0.481834 0.269426
2960 4 0.320684 0.47531 0.292434
464 4 0.356153 0.462808 0.329424
2646 4 0.017712 0.0804319 0.348208
3384 4 0.999533 0.00944009 0.370862
3382 2 0.0206113 0.0197768 0.382033
3383 4 0.0416897 0.0301136 0.393205
2929 2 0.0962495 0.0700781 0.363394
2930 4 0.109441 0.0528092 0.373088
428 4 0.175886 0.0156324 0.373565
2338 2 0.191639 0.00622701 0.337276
257 4 0.418773 0.996827 0.358394
258 4 0.458599 0.0213165 0.381639
1218 4 0.466691 0.0209072 0.401967
256 2 0.438686 0.00907152 0.370016
1216 2 0.487947 0.0285374 0.414347
2645 4 0.0655605 0.0910425 0.363003
2644 2 0.0416362 0.0857372 0.355605
516 4 0.058064 0.150443 0.398327
312 4 0.0630275 0.165077 0.386744
2931 4 0.0830585 0.087347 0.3537
514 2 0.0478741 0.133407 0.414717
3774 4 0.171251 0.131046 0.341773
3772 2 0.19522 0.132963 0.349387
3773 4 0.219189 0.13488 0.357001
1128 4 0.237908 0.138346 0.363471
1126 2 0.258444 0.149453 0.351935
1127 4 0.27898 0.16056 0.340399
1742 4 0.00357404 0.177725 0.396027
3268 2 0.112642 0.226725 0.334337
310 2 0.0736551 0.184772 0.373744
311 4 0.0842826 0.204468 0.360744
3270 4 0.0920115 0.217253 0.346805
3200 4 0.194043 0.202579 0.344457
253 2 0.23711 0.21295 0.33494
255 4 0.212048 0.208795 0.337074
2678 4 0.277898 0.220888 0.34633
872 4 0.233921 0.216356 0.378802
871 2 0.242708 0.209777 0.400942
2677 2 0.299268 0.218116 0.358433
2679 4 0.320638 0.215344 0.370536
2597 4 0.333216 0.215334 0.388335
2596 2 0.351509 0.212704 0.371844
2661 4 0.376449 0.202388 0.3388
2598 4 0.369802 0.210074 0.355352
3146 4 0.441016 0.175766 0.379922
2697 4 0.433816 0.238573 0.411579
2765 4 0.431844 0.173891 0.397972
2764 2 0.437271 0.197357 0.406201
2766 4 0.442697 0.220823 0.41443
3145 2 0.458158 0.176382 0.361661
3147 4 0.4753 0.176999 0.3434
2613 4 0.482316 0.195922 0.34253
447 4 0.0165565 0.272848 0.414189
445 2 0.039228 0.273468 0.403504
446 4 0.0618995 0.274088 0.392819
678 4 0.0720875 0.259104 0.399477
676 2 0.0969764 0.259908 0.402619
677 4 0.121865 0.260712 0.405761
476 4 0.22105 0.314053 0.383771
576 4 0.285698 0.304169 0.415858
230 4 0.386984 0.320219 0.354503
2457 4 0.403804 0.329791 0.3621
2695 2 0.443445 0.257605 0.397121
2696 4 0.453073 0.276637 0.382663
2585 4 0.0110742 0.377042 0.349665
1758 4 0.0315189 0.376633 0.350097
1756 2 0.0563499 0.382587 0.352949
2631 4 0.100871 0.386306 0.353765
1757 4 0.0811809 0.388541 0.3558
2629 2 0.124083 0.398517 0.351991
345 4 0.115165 0.340533 0.394535
2630 4 0.147296 0.410728 0.350217
343 2 0.115075 0.357773 0.412515
475 2 0.214072 0.336728 0.387886
477 4 0.207094 0.359403 0.392001
413 4 0.217542 0.367622 0.407301
509 4 0.301103 0.38671 0.410519
510 4 0.34036 0.397426 0.379793
508 2 0.320731 0.392068 0.395156
1332 4 0.440142 0.36994 0.391127
2455 2 0.426119 0.343932 0.362399
1330 2 0.45302 0.392104 0.396559
1331 4 0.465897 0.414269 0.401991
2456 4 0.448435 0.358074 0.362697
438 4 0.468087 0.359326 0.36824
240 4 0.48394 0.409555 0.39972
436 2 0.479205 0.348531 0.38707
437 4 0.490323 0.337737 0.4059
3896 4 0.235425 0.497703 0.351477
3614 4 0.161688 0.425586 0.354642
3687 4 0.169169 0.492425 0.364862
3685 2 0.192743 0.496907 0.356235
3613 2 0.186518 0.425965 0.357923
3318 4 0.220014 0.481605 0.39994
3615 4 0.211348 0.426344 0.361203
2958 4 0.230977 0.499149 0.403913
416 4 0.230358 0.425563 0.365673
3316 2 0.200691 0.48683 0.414078
415 2 0.253592 0.430146 0.375138
417 4 0.276827 0.434729 0.384604
2727 4 0.294477 0.444855 0.38521
2725 2 0.318224 0.451842 0.37803
2726 4 0.341971 0.458829 0.370849
463 2 0.375231 0.459608 0.344792
465 4 0.394308 0.456408 0.360161
680 4 0.414357 0.46028 0.356925
679 2 0.437081 0.457887 0.347442
681 4 0.459805 0.455493 0.337958
914 4 0.479283 0.459789 0.342708
1800 4 0.0108838 0.0281116 0.474582
458 4 0.0646073 0.0073392 0.453502
1798 2 0.0302247 0.0150626 0.470363
1799 4 0.0495657 0.00201365 0.466145
457 2 0.0887248 0.00656151 0.447304
459 4 0.112842 0.00578382 0.441107
1376 4 0.126062 0.0214741 0.436186
1375 2 0.150952 0.0215231 0.43375
1377 4 0.175843 0.0215722 0.431315
1601 4 0.194933 0.0326336 0.427663
1602 4 0.237615 0.0267597 0.451825
1600 2 0.216274 0.0296967 0.439744
1034 4 0.237866 0.0820818 0.440496
3096 4 0.228596 0.0722414 0.457717
3094 2 0.210802 0.0790617 0.472956
3668 4 0.492472 0.00254244 0.486899
2641 2 0.00102725 0.109967 0.457707
2643 4 0.0216072 0.112456 0.443297
515 4 0.0376841 0.116372 0.431107
3248 4 0.177716 0.142587 0.480151
3247 2 0.168129 0.157987 0.49619
3095 4 0.193008 0.085882 0.488195
4002 4 0.195931 0.142343 0.473014
4000 2 0.218833 0.134862 0.474684
4001 4 0.241735 0.127382 0.476355
2735 4 0.2572 0.119461 0.481672
1033 2 0.259755 0.0969464 0.440312
2734 2 0.274735 0.129666 0.497641
1035 4 0.281643 0.111811 0.440128
398 4 0.300868 0.11264 0.436542
397 2 0.318711 0.130103 0.44504
399 4 0.336555 0.147567 0.453538
4421 4 0.461513 0.151245 0.482296
4420 2 0.48584 0.159267 0.486157
4224 4 0.199805 0.180579 0.46646
4222 2 0.216427 0.190192 0.449328
4223 4 0.233049 0.199806 0.432196
873 4 0.251495 0.203199 0.423082
1142 4 0.272146 0.230906 0.481151
1141 2 0.267412 0.248464 0.497585
2810 4 0.292293 0.214535 0.427623
2809 2 0.2968 0.205061 0.450064
2811 4 0.301307 0.195587 0.472505
2720 4 0.319716 0.203854 0.47386
2719 2 0.343352 0.213818 0.478586
2721 4 0.366988 0.223781 0.483312
2672 4 0.378888 0.213381 0.494774
2671 2 0.3931 0.195628 0.488223
2673 4 0.407312 0.177875 0.481672
3275 4 0.000740835 0.264459 0.426392
947 4 0.0707048 0.25702 0.4897
946 2 0.0819188 0.27981 0.48388
948 4 0.0931328 0.302601 0.47806
3192 4 0.10744 0.303092 0.492125
574 2 0.308473 0.316851 0.419412
575 4 0.331249 0.329533 0.422966
3065 4 0.388834 0.311009 0.429115
3064 2 0.400671 0.305405 0.450026
3066 4 0.412507 0.299801 0.470938
3488 4 0.415292 0.296995 0.491398
2814 4 0.0221336 0.413545 0.483525
2850 4 0.0125855 0.397556 0.492704
344 4 0.114984 0.375014 0.430496
2171 4 0.218402 0.356572 0.487318
412 2 0.215531 0.385145 0.424656
414 4 0.21352 0.402668 0.442011
2170 2 0.237629 0.351915 0.472758
2172 4 0.256856 0.347258 0.458198
711 4 0.26222 0.341975 0.440584
710 4 0.296938 0.379956 0.428395
709 2 0.279579 0.360965 0.434489
432 4 0.345771 0.34271 0.431193
430 2 0.369758 0.351512 0.426511
431 4 0.393744 0.360313 0.421829
2297 4 0.456548 0.384206 0.468866
2296 2 0.476113 0.401683 0.465039
2298 4 0.495677 0.419159 0.461212
2812 2 0.0167462 0.428116 0.4645
2813 4 0.0113588 0.442686 0.445475
2928 4 0.203748 0.41796 0.446148
3317 4 0.181368 0.492055 0.428216
2926 2 0.216452 0.430106 0.464888
2927 4 0.229155 0.442252 0.483628
600 4 0.294833 0.424692 0.490632
3539 4 0.306535 0.443219 0.491609
598 2 0.271557 0.430714 0.487033
599 4 0.24828 0.436737 0.483435
3538 2 0.328057 0.437113 0.481986
3540 4 0.349579 0.431008 0.472363
547 2 0.364726 0.454641 0.440603
549 4 0.36811 0.474075 0.424906
548 4 0.361343 0.435207 0.4563
1067 4 0.40323 0.479076 0.416895
1066 2 0.426966 0.488059 0.422475
1068 4 0.450701 0.497042 0.428056
2832 4 0.0346348 0.0575617 0.540146
2830 2 0.0307887 0.0814095 0.543531
390 4 0.38914 0.0581795 0.553733
320 4 0.381486 0.0388102 0.55784
319 2 0.395839 0.029401 0.575072
388 2 0.390686 0.0808824 0.543323
2019 4 0.502943 0.000274596 0.574533
952 2 0.0419064 0.130365 0.56531
953 4 0.0439761 0.116888 0.544574
2831 4 0.0269427 0.105257 0.546916
2603 4 0.304854 0.140899 0.528911
2736 4 0.29227 0.139872 0.51361
2602 2 0.306965 0.120055 0.541929
2604 4 0.309076 0.0992118 0.554946
444 4 0.354275 0.147133 0.566447
442 2 0.366379 0.13049 0.554227
443 4 0.378483 0.113847 0.542006
389 4 0.392232 0.103585 0.532913
3249 4 0.158542 0.173388 0.512229
3456 4 0.144531 0.179212 0.580167
3455 4 0.15595 0.176989 0.531595
3454 2 0.15024 0.1781 0.555881
4433 4 0.00584818 0.268356 0.537492
3190 2 0.117451 0.321498 0.507142
585 4 0.17544 0.294034 0.549196
583 2 0.197999 0.304189 0.55736
584 4 0.220559 0.314344 0.565523
3019 2 0.238195 0.265502 0.545103
3021 4 0.222143 0.275651 0.560067
3020 4 0.254248 0.255353 0.53014
1143 4 0.262678 0.266022 0.514019
2376 4 0.225276 0.322139 0.582955
3487 2 0.43088 0.294573 0.51056
3489 4 0.446467 0.292151 0.529723
3024 4 0.450177 0.27422 0.537299
3022 2 0.469781 0.280119 0.552575
3023 4 0.489384 0.286017 0.567851
274 2 0.0162726 0.364717 0.573866
276 4 0.0371679 0.380289 0.578414
3191 4 0.127461 0.339904 0.52216
291 4 0.144147 0.347832 0.532632
289 2 0.162089 0.36465 0.523209
290 4 0.18003 0.381469 0.513787
2036 4 0.322739 0.3494 0.5529
2035 2 0.343599 0.348339 0.566448
2037 4 0.36446 0.347278 0.579997
3380 4 0.380707 0.358353 0.570689
3379 2 0.40367 0.350882 0.571011
3381 4 0.426632 0.343412 0.571333
2777 4 0.435068 0.36015 0.580889
2549 4 0.505468 0.387055 0.510087
2548 2 0.495202 0.403603 0.524273
3441 4 0.147097 0.48147 0.523563
3439 2 0.171349 0.488287 0.518126
3440 4 0.195601 0.495105 0.512689
3057 4 0.21467 0.503097 0.506122
2683 2 0.36073 0.466464 0.565969
2684 4 0.360906 0.47546 0.542657
767 4 0.367801 0.490677 0.53256
897 4 0.4638 0.428987 0.584191
2550 4 0.484936 0.42015 0.53846
2203 2 0.142738 0.0838132 0.615082
2204 4 0.154102 0.0631145 0.612858
1130 4 0.174319 0.0117631 0.610194
1129 2 0.198443 0.0215712 0.611744
1131 4 0.222567 0.0313794 0.613294
1283 4 0.229156 0.0504436 0.615964
1282 2 0.253248 0.060355 0.617507
1284 4 0.277341 0.0702663 0.619051
1182 4 0.345939 0.0733605 0.632135
1181 4 0.369265 0.0837934 0.588493
321 4 0.410193 0.0199919 0.592303
1180 2 0.357602 0.0785769 0.610314
50 3 0.0189689 0.143615 0.584604
46 1 0.0155835 0.155627 0.603342
48 3 0.035172 0.158654 0.615976
954 4 0.0398367 0.143841 0.586045
3008 4 0.0477215 0.150936 0.602521
3007 2 0.0702629 0.163415 0.607679
3014 4 0.139183 0.160273 0.585525
2205 4 0.131373 0.104512 0.617307
3013 2 0.140026 0.140618 0.600645
3015 4 0.140869 0.120964 0.615766
347 4 0.189 0.144217 0.631371
346 2 0.193897 0.12867 0.649749
348 4 0.198795 0.113124 0.668126
318 4 0.280007 0.0865885 0.631333
316 2 0.295444 0.106732 0.624268
317 4 0.310882 0.126875 0.617203
2135 4 0.355741 0.0866306 0.645832
342 4 0.483037 0.0983028 0.610217
340 2 0.4862 0.116694 0.62713
341 4 0.489364 0.135086 0.644042
435 4 0.486925 0.150878 0.65623
1146 4 0.00936913 0.197085 0.592786
47 3 0.00985306 0.17623 0.59723
2016 4 0.0938146 0.245813 0.629442
2014 2 0.117793 0.248169 0.621817
3009 4 0.0928044 0.175895 0.612837
2588 4 0.107736 0.189181 0.621363
2587 2 0.132811 0.190192 0.622585
2589 4 0.157885 0.191203 0.623806
2852 4 0.170654 0.196445 0.63884
2851 2 0.190993 0.18942 0.627563
2853 4 0.211331 0.182395 0.616285
1179 4 0.446794 0.18066 0.631441
1177 2 0.459036 0.203492 0.627751
1178 4 0.471279 0.226323 0.624062
3387 4 0.489485 0.238244 0.627247
981 4 0.158353 0.252658 0.605159
2015 4 0.141771 0.250525 0.614191
979 2 0.17735 0.26312 0.619337
980 4 0.196346 0.273582 0.633514
1136 4 0.213898 0.271968 0.624281
1135 2 0.237257 0.283294 0.620682
1137 4 0.260615 0.294619 0.617082
1167 4 0.44385 0.310498 0.642062
661 2 0.492535 0.31682 0.591531
2374 2 0.216469 0.331734 0.603786
1951 2 0.210025 0.336372 0.661496
2375 4 0.207661 0.34133 0.624616
1952 4 0.195818 0.339785 0.641498
1165 2 0.439179 0.334334 0.641511
1166 4 0.434507 0.358169 0.64096
2776 2 0.456177 0.357313 0.593422
2778 4 0.477286 0.354476 0.605954
662 4 0.484421 0.337427 0.600935
4061 4 0.135735 0.50352 0.657914
4060 2 0.15692 0.499253 0.646244
4062 4 0.178106 0.494987 0.634574
1209 4 0.309937 0.417425 0.621261
1191 4 0.356314 0.428269 0.593144
1207 2 0.3302 0.430908 0.611475
1208 4 0.350463 0.444391 0.601688
2685 4 0.360553 0.457468 0.58928
1189 2 0.380123 0.423093 0.591891
2499 4 0.377918 0.466972 0.597446
2497 2 0.398404 0.474271 0.611133
1190 4 0.403931 0.417916 0.590639
896 4 0.417447 0.422082 0.603699
2498 4 0.418891 0.48157 0.624821
1883 4 0.432722 0.488929 0.610387
895 2 0.440623 0.425535 0.593945
1882 2 0.453379 0.495465 0.596693
3172 2 0.0570142 0.0605332 0.713723
3173 4 0.0414514 0.0583156 0.733377
3174 4 0.072577 0.0627507 0.69407
1073 4 0.108369 0.0666839 0.74004
1072 2 0.11783 0.0636038 0.717257
1074 4 0.127292 0.0605238 0.694475
1944 4 0.142755 0.0721531 0.688032
3188 4 0.167208 0.0770121 0.738082
4508 4 0.180481 0.0636451 0.736097
4507 2 0.198514 0.0552069 0.722268
4509 4 0.216547 0.0467686 0.708439
2134 2 0.344295 0.0837115 0.668047
2089 2 0.330571 0.0688666 0.731403
2091 4 0.326604 0.0773788 0.708428
2136 4 0.332849 0.0807923 0.690263
2240 4 0.326433 0.00895139 0.72317
2231 4 0.342972 0.0160331 0.714637
2230 2 0.364175 0.0318314 0.716316
2232 4 0.385379 0.0476297 0.717995
1082 4 0.391684 0.0631407 0.732883
1081 2 0.415798 0.0641553 0.739848
1083 4 0.439912 0.0651698 0.746814
2143 2 0.468748 0.0252912 0.730811
2144 4 0.492884 0.0292421 0.737857
2145 4 0.444611 0.0213403 0.723764
2114 4 0.45968 0.0696211 0.741867
1942 2 0.165452 0.0833987 0.681474
1943 4 0.188149 0.0946442 0.674917
2997 4 0.224283 0.153751 0.735468
3313 2 0.338451 0.147011 0.720905
3314 4 0.354817 0.130538 0.72507
3462 4 0.311082 0.161504 0.701255
3315 4 0.322084 0.163483 0.716741
3420 4 0.374221 0.133481 0.727935
3418 2 0.397175 0.146078 0.725339
3419 4 0.420129 0.158676 0.722743
977 4 0.426229 0.153615 0.740273
3461 4 0.297515 0.195942 0.66961
3642 4 0.326464 0.246076 0.702581
3460 2 0.304299 0.178723 0.685433
3640 2 0.35124 0.244615 0.70188
3641 4 0.376016 0.243154 0.701179
1268 4 0.39367 0.243322 0.708552
433 2 0.488727 0.170341 0.671917
434 4 0.490528 0.189804 0.687604
3338 4 0.22783 0.320077 0.697713
3337 2 0.226936 0.308478 0.719858
3339 4 0.226042 0.296878 0.742003
1953 4 0.224231 0.33296 0.681494
1267 2 0.40747 0.263516 0.699172
1269 4 0.421271 0.283709 0.689793
3170 4 0.435637 0.296306 0.684016
3169 2 0.455125 0.296584 0.69972
3171 4 0.474613 0.296863 0.715424
3320 4 0.134858 0.389212 0.685159
3333 4 0.154799 0.409891 0.737061
3319 2 0.155184 0.377716 0.689837
3321 4 0.175509 0.366219 0.694514
1919 4 0.421031 0.383216 0.73095
1079 4 0.428798 0.37851 0.71261
1078 2 0.450058 0.387475 0.700888
1918 2 0.40684 0.369314 0.747536
1080 4 0.471318 0.396439 0.689165
2154 4 0.491387 0.397961 0.692087
4131 4 0.0763578 0.466178 0.675195
4130 4 0.119862 0.495354 0.668175
4129 2 0.0981099 0.480766 0.671685
4407 4 0.337429 0.495126 0.698575
971 4 0.33839 0.485571 0.715853
970 2 0.336493 0.473711 0.737859
3343 2 0.0385775 0.074981 0.824283
3345 4 0.0498089 0.0823612 0.80275
4028 4 0.173145 0.0437962 0.79237
4027 2 0.190178 0.0493198 0.810444
4029 4 0.207212 0.0548435 0.828518
1247 4 0.215626 0.00207402 0.816994
1895 4 0.227005 0.0618845 0.831068
1246 2 0.235723 0.0123733 0.804213
1248 4 0.25582 0.0226725 0.791431
455 4 0.27019 0.0180781 0.804563
2090 4 0.334538 0.0603545 0.754377
454 2 0.289056 0.0348549 0.812289
456 4 0.307923 0.0516318 0.820015
2198 4 0.409895 0.0278165 0.830602
3356 4 0.412158 0.028914 0.811867
2197 2 0.391196 0.0420897 0.832797
2199 4 0.372498 0.0563629 0.834991
3355 2 0.430991 0.0309572 0.795269
3357 4 0.449824 0.0330004 0.77867
3099 4 0.0671355 0.0960035 0.801201
3097 2 0.0872357 0.113117 0.798625
3098 4 0.107336 0.130231 0.79605
3187 2 0.173811 0.0862261 0.760667
846 4 0.127139 0.136118 0.798154
844 2 0.147632 0.152308 0.802504
3189 4 0.180414 0.0954401 0.783251
3002 4 0.200096 0.0964828 0.779818
2995 2 0.232987 0.164976 0.756564
3001 2 0.223623 0.102586 0.788085
3003 4 0.24715 0.10869 0.796353
3197 4 0.262086 0.120639 0.803674
3133 2 0.248027 0.161216 0.809301
3134 4 0.251224 0.156744 0.784985
3196 2 0.285783 0.115346 0.805936
3198 4 0.309479 0.110053 0.808197
3296 4 0.328576 0.112202 0.810894
3295 2 0.344395 0.133049 0.807254
3297 4 0.360214 0.153896 0.803613
1274 4 0.379928 0.162333 0.804696
976 2 0.447772 0.161078 0.75224
2113 2 0.474462 0.0850311 0.756715
2115 4 0.489244 0.100441 0.771563
3250 2 0.023394 0.170699 0.828121
3371 4 0.123539 0.237038 0.80383
3251 4 0.046313 0.181666 0.834304
845 4 0.168126 0.168499 0.806854
3017 4 0.183672 0.183451 0.809157
3016 2 0.20337 0.193139 0.795454
3018 4 0.223067 0.202827 0.781751
2996 4 0.241691 0.176201 0.77766
4220 4 0.242057 0.199963 0.778303
4219 2 0.265311 0.212189 0.777298
4221 4 0.288566 0.224414 0.776294
3416 4 0.299855 0.214518 0.787892
3415 2 0.323283 0.222722 0.795251
3417 4 0.346712 0.230925 0.80261
2883 4 0.349468 0.217827 0.819127
2881 2 0.370576 0.223644 0.832348
1273 2 0.397157 0.169608 0.822153
978 4 0.469314 0.168541 0.764206
2277 4 0.48765 0.176424 0.772124
3373 2 0.0185986 0.305312 0.793328
3375 4 0.012601 0.281297 0.787102
3374 4 0.0245962 0.329327 0.799554
822 4 0.00195947 0.278436 0.769261
3370 2 0.122445 0.252447 0.8233