ITEM: TIMESTEP
933500
ITEM: NUMBER OF ATOMS
4590
ITEM: BOX BOUNDS xy xz yz pp pp pp
-1.6597626200000008e+01 9.9985700000000008e+00 -6.5990562000000068e+00
-9.9985700000000008e+00 9.9985700000000008e+00 0.0000000000000000e+00
-9.9985700000000008e+00 9.9985700000000008e+00 0.0000000000000000e+00
ITEM: ATOMS id type xs ys zs
2687 4 0.0245341 0.0720338 0.0225722
2686 2 0.0122502 0.0481872 0.0286584
70 3 0.0447817 0.0760979 0.0146395
421 2 0.0505198 0.0051437 0.0506698
2688 4 0.999966 0.0243407 0.0347445
1662 4 0.0741234 0.0124803 0.0188933
422 4 0.0721017 0.015326 0.0369044
1660 2 0.0917193 0.0246014 0.0017638
4024 2 0.396024 0.022321 0.0666862
2523 4 0.414697 0.00681392 0.0431201
2767 2 0.441717 0.0679315 0.0724472
2769 4 0.417701 0.0529431 0.0785184
4025 4 0.397342 0.0405096 0.083191
4026 4 0.394706 0.00413231 0.0501813
2521 2 0.434051 0.0173947 0.0269452
2522 4 0.453405 0.0279754 0.0107703
4506 4 0.4726 0.0363193 0.0205847
4504 2 0.488944 0.02982 0.00505746
2768 4 0.465733 0.0829198 0.0663759
2937 4 0.0182255 0.0873483 0.0171611
68 3 0.0661023 0.112589 0.0146436
66 1 0.0628217 0.0920009 0.00453406
2556 4 0.0712173 0.119485 0.0347019
2554 2 0.0928381 0.124752 0.0489188
67 3 0.0831562 0.0863569 0.00667459
4259 4 0.10352 0.0978024 0.00895869
2555 4 0.114459 0.130019 0.0631357
4258 2 0.126233 0.0929914 0.00557056
660 4 0.11154 0.138921 0.0798214
4260 4 0.148947 0.0881804 0.00218243
3557 4 0.16489 0.16371 0.0315834
4393 2 0.191572 0.112155 0.00503983
2969 4 0.226562 0.162402 0.0132786
4394 4 0.168353 0.0957803 0.0113388
251 4 0.243876 0.136453 0.0720426
3216 4 0.184242 0.160134 0.079958
250 2 0.258271 0.160233 0.0761429
3984 4 0.319247 0.127929 0.034991
787 2 0.313515 0.138454 0.00246538
789 4 0.317479 0.14525 0.0264659
3982 2 0.341091 0.13349 0.0489166
3983 4 0.362935 0.139052 0.0628421
837 4 0.383024 0.14843 0.0588678
835 2 0.404794 0.164663 0.0684741
1008 4 0.48455 0.0947346 0.0619713
4173 4 0.00646489 0.168404 0.0110751
2912 4 0.160936 0.172457 0.0155717
3558 4 0.169149 0.204594 0.0588601
3556 2 0.167019 0.184152 0.0452217
2968 2 0.236253 0.17796 0.0323148
2970 4 0.245944 0.193518 0.0513511
2943 4 0.251781 0.211915 0.0436822
2941 2 0.265715 0.227038 0.0614728
2942 4 0.279648 0.242161 0.0792635
252 4 0.272666 0.184013 0.0802432
836 4 0.426564 0.180897 0.0780804
2570 4 0.13604 0.263706 0.0500952
2569 2 0.141813 0.274251 0.0275404
1093 2 0.158417 0.328013 0.0130164
2571 4 0.147587 0.284797 0.00498565
1095 4 0.156992 0.305233 0.00470304
2163 4 0.316715 0.259422 0.00354946
2161 2 0.332338 0.283096 0.00547943
2162 4 0.347961 0.30677 0.0074094
2828 4 0.368925 0.311025 0.00981129
2829 4 0.419582 0.314751 0.00319649
3102 4 0.425507 0.299265 0.00835837
3100 2 0.451103 0.305256 0.0139673
2827 2 0.394254 0.312888 0.00650389
3101 4 0.476698 0.311246 0.0195762
3921 4 0.496981 0.323034 0.0211464
2528 4 0.497507 0.318031 0.0819021
2975 4 0.476275 0.271204 0.0148128
2974 2 0.498343 0.26483 0.0142752
3042 4 0.05182 0.34864 0.00957668
3040 2 0.0781242 0.356163 0.00851733
4313 4 0.108731 0.392004 0.075446
1591 2 0.0793947 0.409077 0.0834035
1593 4 0.0878383 0.389194 0.0812396
3041 4 0.104428 0.363686 0.00745797
637 2 0.14352 0.345489 0.0639432
1094 4 0.159843 0.350794 0.0213298
638 4 0.153036 0.352202 0.0409906
4312 2 0.129934 0.406542 0.0634174
1289 4 0.371613 0.373169 0.0720568
1288 2 0.396874 0.374532 0.0748285
4437 4 0.464156 0.41093 0.00653314
523 2 0.464516 0.372858 0.0695397
524 4 0.440181 0.371917 0.0764047
1290 4 0.422136 0.375894 0.0776001
525 4 0.488851 0.373798 0.0626747
3519 4 0.00361598 0.437872 0.0679343
2546 4 0.0246349 0.442234 0.0694886
2545 2 0.0329182 0.447555 0.0459458
2547 4 0.0412015 0.452876 0.0224029
4314 4 0.151137 0.421081 0.0513888
3350 4 0.279755 0.484762 0.00911441
4051 2 0.241679 0.449612 0.00332511
4052 4 0.259664 0.470993 0.0102959
608 4 0.387522 0.491305 0.0376992
607 2 0.411251 0.491585 0.0458471
609 4 0.43498 0.491864 0.053995
386 4 0.454281 0.497061 0.0635534
1287 4 0.0170275 0.034125 0.114689
2728 2 0.0926519 0.01237 0.143853
2730 4 0.118677 0.0171544 0.146019
2729 4 0.0666271 0.00758549 0.141686
1571 4 0.134151 0.030363 0.134324
3502 2 0.196702 0.000790678 0.155586
1570 2 0.152539 0.0216149 0.144122
1572 4 0.170928 0.0128669 0.15392
3503 4 0.192427 0.0229288 0.154604
405 4 0.428648 0.0442065 0.137506
403 2 0.454277 0.0519801 0.131774
404 4 0.479905 0.0597538 0.126043
1436 4 0.487063 0.0540638 0.110241
1582 2 0.0239724 0.136986 0.152083
1584 4 0.0498467 0.144652 0.156714
658 2 0.127647 0.149224 0.0987308
659 4 0.143753 0.159528 0.11764
3214 2 0.186489 0.147978 0.100893
3215 4 0.188737 0.135823 0.121828
707 4 0.176215 0.12021 0.13089
706 2 0.187368 0.124571 0.153514
285 4 0.242187 0.120537 0.0833549
283 2 0.25374 0.10368 0.0902872
284 4 0.265293 0.0868231 0.0972194
2606 4 0.277185 0.1139 0.134677
2605 2 0.29884 0.111023 0.144969
2607 4 0.320496 0.108146 0.15526
2633 4 0.0255125 0.179431 0.109329
2502 4 0.0402886 0.175774 0.0988947
2500 2 0.0616345 0.194113 0.091481
2501 4 0.0829805 0.212451 0.0840672
3107 4 0.340164 0.245101 0.125282
2590 2 0.00233152 0.316926 0.136118
2591 4 0.0219876 0.329059 0.151381
2610 4 0.113338 0.330282 0.0815552
959 4 0.296394 0.289295 0.093036
958 2 0.298013 0.280583 0.116038
960 4 0.299632 0.271871 0.139039
735 4 0.308157 0.273833 0.156402
3106 2 0.349127 0.260971 0.144242
3108 4 0.358089 0.276841 0.163201
554 4 0.0393476 0.343416 0.158727
2609 4 0.0807847 0.337658 0.116516
553 2 0.0575138 0.348517 0.14063
555 4 0.07568 0.353617 0.122534
639 4 0.134004 0.338776 0.0868957
2608 2 0.0970613 0.33397 0.0990355
752 4 0.441503 0.40734 0.123587
2473 2 0.0335579 0.475496 0.109944
2475 4 0.0592678 0.486981 0.113521
2474 4 0.00784801 0.464011 0.106366
1592 4 0.0709512 0.42896 0.0855674
1655 4 0.0776066 0.483212 0.116141
1656 4 0.0864066 0.448034 0.0870431
1654 2 0.0820066 0.465623 0.101592
1577 4 0.389611 0.445035 0.143742
483 4 0.410113 0.455944 0.137585
1576 2 0.388035 0.432058 0.164943
481 2 0.433931 0.472904 0.139943
482 4 0.457748 0.489865 0.1423
751 2 0.465233 0.424679 0.123098
753 4 0.488964 0.442017 0.12261
287 4 0.499395 0.437397 0.107489
2757 4 0.0347299 0.0152882 0.228913
2755 2 0.0309085 0.0336725 0.242676
1407 4 0.123371 0.0368689 0.239485
2645 4 0.102977 0.0273381 0.2405
2644 2 0.0911218 0.0438759 0.247707
1405 2 0.143991 0.0432815 0.223939
1406 4 0.16461 0.0496941 0.208394
3587 4 0.345793 0.0794514 0.169396
530 4 0.363906 0.0486729 0.220961
3588 4 0.36789 0.065342 0.209219
3586 2 0.356842 0.0723967 0.189308
529 2 0.388473 0.0562363 0.229953
531 4 0.41304 0.0637996 0.238945
653 4 0.424615 0.0104522 0.16983
4077 4 0.0690576 0.156845 0.165507
4075 2 0.0940283 0.15908 0.171246
4076 4 0.118999 0.161316 0.176986
708 4 0.19852 0.128931 0.176137
55 3 0.195104 0.124275 0.195564
52 3 0.2183 0.13476 0.225455
51 1 0.21773 0.133903 0.20247
2535 4 0.233575 0.141175 0.238767
53 3 0.226394 0.155505 0.194138
54 3 0.231658 0.121309 0.195207
762 4 0.25199 0.122373 0.199905
760 2 0.27543 0.12177 0.191781
761 4 0.29887 0.121166 0.183657
642 4 0.315041 0.138797 0.183398
640 2 0.325559 0.163693 0.183124
381 4 0.37711 0.133525 0.182489
2512 2 0.36082 0.108656 0.248219
2513 4 0.383538 0.104769 0.242387
379 2 0.401858 0.143021 0.190725
488 4 0.441406 0.156875 0.185127
487 2 0.466589 0.157913 0.18778
380 4 0.426605 0.152516 0.198962
2471 4 0.457301 0.129866 0.246678
2470 2 0.431021 0.120806 0.247492
2472 4 0.404741 0.111746 0.248306
489 4 0.491772 0.158951 0.190434
666 4 0.477884 0.137301 0.240516
2945 4 0.0175634 0.244131 0.201878
2509 2 0.0462782 0.232127 0.203879
2511 4 0.0551585 0.214689 0.214218
236 4 0.139041 0.16976 0.170503
235 2 0.165236 0.17538 0.169434
3237 4 0.203447 0.228388 0.236695
237 4 0.191431 0.181001 0.168365
713 4 0.222759 0.225079 0.232281
712 2 0.235189 0.232134 0.210523
1764 4 0.212506 0.186808 0.168307
714 4 0.247618 0.23919 0.188766
1762 2 0.237225 0.189568 0.175433
1763 4 0.261943 0.192328 0.182558
932 4 0.28144 0.205846 0.177581
931 2 0.306419 0.205832 0.17858
933 4 0.331398 0.205818 0.17958
641 4 0.336078 0.188589 0.18285
519 4 0.412085 0.189141 0.239262
1866 4 0.391533 0.188374 0.237808
2510 4 0.0373979 0.249566 0.193541
734 4 0.263181 0.256364 0.182054
733 2 0.285669 0.265099 0.169228
2537 4 0.296925 0.305003 0.221695
2536 2 0.287354 0.321131 0.233663
494 4 0.317648 0.31246 0.217814
493 2 0.343119 0.325319 0.220852
301 2 0.00191836 0.3499 0.218568
302 4 0.0228774 0.344048 0.226751
2910 4 0.0408931 0.351209 0.21762
2908 2 0.0671918 0.36003 0.218254
2909 4 0.0934905 0.36885 0.218888
3348 4 0.109459 0.379037 0.206652
3346 2 0.134366 0.394132 0.206136
3347 4 0.159274 0.409227 0.20562
2689 2 0.272516 0.377043 0.242591
2690 4 0.280706 0.356935 0.243597
2538 4 0.277782 0.33726 0.245631
2897 4 0.279632 0.414174 0.245321
2691 4 0.264325 0.397151 0.241585
495 4 0.36859 0.338179 0.223891
268 2 0.459748 0.389331 0.20756
269 4 0.476079 0.412734 0.209404
270 4 0.443417 0.365928 0.205716
1512 4 0.432051 0.359245 0.222648
1510 2 0.439199 0.344459 0.238831
3812 4 0.0877725 0.422182 0.208527
3813 4 0.0510147 0.431066 0.237622
3811 2 0.0693936 0.426624 0.223075
2918 4 0.10039 0.424422 0.192479
2917 2 0.122865 0.443241 0.18993
2919 4 0.145341 0.46206 0.187381
2896 2 0.297096 0.431014 0.231186
2898 4 0.31456 0.447855 0.21705
3786 4 0.401711 0.418411 0.198006
1578 4 0.386459 0.419082 0.186144
3784 2 0.427895 0.424855 0.200221
263 4 0.44812 0.43903 0.235305
3596 4 0.471455 0.44167 0.194401
3785 4 0.454078 0.431298 0.202436
3595 2 0.497595 0.449214 0.197389
262 2 0.459559 0.424628 0.24778
2756 4 0.027087 0.0520568 0.256439
2646 4 0.0792668 0.0604137 0.254914
3383 4 0.109902 0.00982218 0.281778
3270 4 0.0849458 0.0852324 0.333435
683 4 0.130955 0.0222509 0.281047
3555 4 0.196366 0.0573506 0.280894
1622 4 0.165664 0.0116372 0.324109
684 4 0.178089 0.0557994 0.289687
682 2 0.154522 0.0390251 0.285367
3553 2 0.222297 0.0684878 0.278481
2715 4 0.282865 0.0242311 0.327971
3554 4 0.248229 0.079625 0.276068
2713 2 0.293978 0.0483598 0.322222
2714 4 0.305092 0.0724885 0.316473
366 4 0.325295 0.0791195 0.320762
2799 4 0.00984783 0.157818 0.273572
2939 4 0.0131168 0.0978627 0.255696
2797 2 0.0348304 0.165159 0.265676
1127 4 0.0605417 0.120864 0.29388
1126 2 0.0482786 0.115946 0.315966
3268 2 0.111097 0.0944951 0.330977
2673 4 0.153032 0.122379 0.324454
3269 4 0.137248 0.103758 0.32852
2671 2 0.179129 0.131337 0.321381
2672 4 0.205226 0.140296 0.318307
2533 2 0.250884 0.156212 0.254471
3377 4 0.222457 0.154625 0.324498
2488 2 0.2756 0.146106 0.323555
586 2 0.291538 0.0968398 0.258814
587 4 0.266514 0.0881644 0.266482
2490 4 0.290324 0.154665 0.303298
2514 4 0.338101 0.112543 0.254051
588 4 0.316562 0.105515 0.251146
2798 4 0.059813 0.1725 0.257781
312 4 0.165604 0.232188 0.288823
3235 2 0.193816 0.234504 0.257956
310 2 0.175529 0.247126 0.308242
3236 4 0.184185 0.240619 0.279218
3376 2 0.240125 0.176339 0.331085
2675 4 0.307481 0.167805 0.294104
2534 4 0.268194 0.17125 0.270175
2676 4 0.34103 0.195749 0.260517
2674 2 0.324256 0.181777 0.27731
2678 4 0.322546 0.219802 0.32807
1865 4 0.360496 0.20354 0.26898
1864 2 0.376015 0.195957 0.253394
517 2 0.431536 0.187512 0.254196
518 4 0.450986 0.185883 0.269129
2660 4 0.0440523 0.28728 0.317756
2659 2 0.0691889 0.299394 0.323377
1062 4 0.0310281 0.280109 0.333522
678 4 0.107527 0.303322 0.319035
676 2 0.13127 0.301092 0.314453
677 4 0.155012 0.298862 0.30987
2661 4 0.0943255 0.311508 0.328998
311 4 0.185455 0.262063 0.327661
231 4 0.205375 0.265883 0.331209
596 4 0.308619 0.322585 0.288578
1511 4 0.446348 0.329673 0.255013
2650 2 0.455316 0.322857 0.328677
417 4 0.460504 0.323313 0.264856
2652 4 0.477 0.323026 0.316131
696 4 0.0843961 0.378295 0.329377
1473 4 0.155674 0.418332 0.319916
595 2 0.328396 0.344089 0.287175
110 3 0.362848 0.364897 0.272293
597 4 0.348172 0.365593 0.285772
108 3 0.382713 0.393928 0.293951
107 3 0.391827 0.36191 0.294341
106 1 0.384324 0.376161 0.281034
109 3 0.400514 0.383969 0.263943
264 4 0.470998 0.410227 0.260255
415 2 0.484724 0.339764 0.266075
2601 4 0.494364 0.339395 0.316757
3962 4 0.0519817 0.443062 0.254129
3961 2 0.0641014 0.467175 0.259272
3963 4 0.0762211 0.491287 0.264416
3885 4 0.0950107 0.488081 0.268352
1472 4 0.13855 0.441824 0.283448
1471 2 0.147112 0.430078 0.301682
592 2 0.321193 0.500134 0.307046
594 4 0.325641 0.482879 0.322031
2403 4 0.430345 0.477989 0.292722
2401 2 0.436837 0.465649 0.311729
2402 4 0.443329 0.453308 0.330736
3062 4 0.0699547 0.0679473 0.338835
3061 2 0.0628803 0.043431 0.343641
3063 4 0.055806 0.0189147 0.348447
3647 4 0.260984 0.00741511 0.380907
516 4 0.0357548 0.119515 0.356208
514 2 0.0543885 0.127872 0.373623
1128 4 0.0360155 0.111027 0.338052
515 4 0.0730223 0.13623 0.391039
2643 4 0.03709 0.117066 0.416621
1602 4 0.0908273 0.13032 0.392942
1600 2 0.110542 0.126327 0.380024
1601 4 0.130257 0.122335 0.367106
582 4 0.25158 0.148248 0.400692
580 2 0.248355 0.137394 0.378169
581 4 0.24513 0.126541 0.355647
2489 4 0.260877 0.137546 0.343812
364 2 0.344095 0.0890576 0.33766
2613 4 0.336825 0.154257 0.413996
365 4 0.362896 0.0989956 0.354558
2611 2 0.349191 0.160079 0.392037
2612 4 0.361557 0.165902 0.370078
2654 4 0.377292 0.162556 0.358941
2653 2 0.402628 0.165252 0.363446
892 2 0.125306 0.235484 0.362018
894 4 0.10547 0.245179 0.362737
527 4 0.20803 0.247234 0.333442
1781 4 0.143799 0.207821 0.364216
893 4 0.145142 0.225788 0.361298
1782 4 0.165393 0.200569 0.407492
1780 2 0.154596 0.204195 0.385854
528 4 0.23636 0.226552 0.362375
526 2 0.222195 0.236893 0.347908
2448 4 0.234209 0.231338 0.381421
2446 2 0.250348 0.246218 0.398086
3378 4 0.257793 0.198053 0.337672
2677 2 0.298738 0.208335 0.337701
2679 4 0.27493 0.196867 0.347331
2655 4 0.427964 0.167949 0.36795
1060 2 0.00888262 0.26278 0.340942
229 2 0.214724 0.286754 0.344756
230 4 0.224073 0.307625 0.358302
446 4 0.239959 0.322863 0.360484
447 4 0.279338 0.316901 0.387972
445 2 0.259648 0.319882 0.374228
3275 4 0.276223 0.318841 0.40801
2447 4 0.266487 0.261098 0.41475
2651 4 0.433632 0.322688 0.341222
2813 4 0.41765 0.311781 0.352559
2812 2 0.409839 0.327591 0.366894
3959 4 0.0109737 0.394119 0.367431
3958 2 0.0321037 0.386752 0.371404
3960 4 0.0532337 0.379386 0.375377
3706 2 0.0893348 0.362972 0.410302
694 2 0.10124 0.373542 0.345613
695 4 0.118084 0.36879 0.361848
3708 4 0.114411 0.370732 0.402682
2297 4 0.23247 0.399113 0.369787
1391 4 0.248798 0.403949 0.358199
2296 2 0.215242 0.410143 0.378036
1390 2 0.272642 0.41573 0.34881
1575 4 0.357666 0.397665 0.348659
1573 2 0.383467 0.400632 0.349202
1574 4 0.409267 0.403599 0.349746
1631 4 0.339903 0.402965 0.347787
2814 4 0.402028 0.343401 0.381229
3684 4 0.0110814 0.488764 0.390978
3538 2 0.0164219 0.451647 0.406376
3539 4 0.00736519 0.468768 0.395615
3540 4 0.0254785 0.434527 0.417137
2298 4 0.198014 0.421173 0.386285
1632 4 0.318256 0.439024 0.339123
1630 2 0.32908 0.420995 0.343455
1392 4 0.296485 0.427512 0.33942
2508 4 0.31536 0.471247 0.338038
2507 4 0.315379 0.457929 0.386037
119 3 0.315499 0.474598 0.3974
2506 2 0.31537 0.464588 0.362038
2542 2 0.0264627 0.00410031 0.448883
2543 4 0.0520795 0.0082849 0.444378
1977 4 0.117333 0.00286099 0.461888
1976 4 0.0724043 0.00882171 0.445579
1975 2 0.0948684 0.00584135 0.453733
1196 4 0.168948 0.0211959 0.434988
1195 2 0.149267 0.00569006 0.448127
1650 4 0.186329 0.0139247 0.437734
1649 4 0.230595 0.00149293 0.440314
1648 2 0.208462 0.00770884 0.439024
2602 2 0.298164 0.0408579 0.482533
2603 4 0.314274 0.0464329 0.462773
399 4 0.433042 0.0377632 0.429969
3030 4 0.422244 0.0491773 0.438327
3028 2 0.405921 0.0555158 0.454008
3029 4 0.389598 0.0618543 0.46969
397 2 0.456477 0.0471537 0.441079
398 4 0.479912 0.0565443 0.452189
2931 4 0.0169306 0.111221 0.419592
3007 2 0.0250349 0.11816 0.487983
2642 4 0.0589229 0.122162 0.462104
2641 2 0.0480065 0.119614 0.439362
3009 4 0.0399893 0.124781 0.467531
2520 4 0.186332 0.0897751 0.476513
2519 4 0.235464 0.118905 0.486023
3145 2 0.242443 0.166349 0.485068
2518 2 0.210898 0.10434 0.481268
3146 4 0.21814 0.153054 0.477869
4223 4 0.244953 0.105805 0.481253
4222 2 0.26748 0.100222 0.48163
873 4 0.303701 0.1129 0.484676
4224 4 0.290007 0.0946386 0.482007
2766 4 0.319521 0.143638 0.425611
2765 4 0.314084 0.0950931 0.431279
871 2 0.32918 0.114605 0.485886
2764 2 0.316802 0.119365 0.428445
2736 4 0.375689 0.121744 0.48348
872 4 0.354659 0.116311 0.487095
2734 2 0.400062 0.137816 0.481683
2735 4 0.424435 0.153888 0.479886
613 2 0.465059 0.149274 0.494076
615 4 0.44358 0.15094 0.482365
5 3 0.0214512 0.21666 0.442741
1 1 0.00693093 0.195495 0.446471
2 3 0.019807 0.18282 0.455273
2585 4 0.0335585 0.22999 0.42953
2584 2 0.0467495 0.246932 0.446274
2667 4 0.0418913 0.184031 0.452851
2665 2 0.0676608 0.190466 0.447887
2666 4 0.0934303 0.196902 0.442922
3066 4 0.113937 0.19996 0.44896
3064 2 0.139625 0.209355 0.443792
383 4 0.184833 0.217716 0.440427
3065 4 0.165313 0.21875 0.438625
382 2 0.210711 0.223637 0.444639
4002 4 0.257398 0.231348 0.447307
384 4 0.23659 0.229559 0.448851
4000 2 0.282279 0.234409 0.440527
3147 4 0.266746 0.179644 0.492267
2131 2 0.348155 0.2301 0.435287
2132 4 0.323192 0.229612 0.432159
4001 4 0.307161 0.23747 0.433747
2810 4 0.285394 0.188985 0.499601
2133 4 0.373118 0.230589 0.438415
3489 4 0.392743 0.242231 0.44233
265 2 0.399736 0.21081 0.497622
1743 4 0.415406 0.204198 0.47304
267 4 0.423137 0.208592 0.491467
1741 2 0.43705 0.201755 0.462305
2697 4 0.463144 0.184101 0.444145
1742 4 0.458693 0.199313 0.451571
2695 2 0.488056 0.184685 0.447857
375 4 0.00744447 0.285069 0.490057
373 2 0.0282705 0.279797 0.480665
374 4 0.0490965 0.274526 0.471274
2586 4 0.0599406 0.263875 0.463018
3274 2 0.277148 0.297146 0.417453
3276 4 0.278074 0.275451 0.426895
3488 4 0.442015 0.273619 0.441163
3487 2 0.417379 0.257925 0.441747
436 2 0.0196219 0.339827 0.425527
3707 4 0.064259 0.355212 0.417921
438 4 0.0456116 0.343796 0.426111
1445 4 0.224228 0.407442 0.453951
1820 4 0.209426 0.391102 0.457684
1819 2 0.209473 0.377224 0.477962
1821 4 0.20952 0.363345 0.498239
548 4 0.0269729 0.430035 0.435094
547 2 0.0508232 0.432946 0.444726
3168 4 0.136944 0.470076 0.437768
3166 2 0.110808 0.460207 0.439851
3167 4 0.0846723 0.450338 0.441934
549 4 0.0746734 0.435858 0.454359
4307 4 0.0938016 0.418748 0.498534
2958 4 0.210069 0.493163 0.421945
377 4 0.152758 0.46988 0.450144
378 4 0.198628 0.48354 0.474706
376 2 0.175693 0.47671 0.462425
1444 2 0.242824 0.425007 0.441589
1446 4 0.26142 0.442572 0.429226
116 1 0.317744 0.485768 0.417687
1067 4 0.291966 0.486322 0.482323
118 3 0.322803 0.472826 0.434536
117 3 0.2968 0.48948 0.422574
239 4 0.387673 0.437625 0.445247
240 4 0.431881 0.464778 0.422418
238 2 0.409777 0.451201 0.433833
1330 2 0.464418 0.481036 0.449051
1331 4 0.446218 0.464081 0.435679
1332 4 0.482619 0.497992 0.462423
952 2 0.250072 0.00504842 0.527295
389 4 0.284187 0.0502868 0.545497
2604 4 0.282054 0.0352829 0.502293
341 4 0.261787 0.0453671 0.575024
953 4 0.269869 0.0197303 0.513654
388 2 0.308802 0.0534545 0.537775
390 4 0.333418 0.0566223 0.530054
3249 4 0.335726 0.0382009 0.531213
3247 2 0.359704 0.0491385 0.52169
3248 4 0.383682 0.060076 0.512168
4562 4 0.402702 0.070965 0.517672
4561 2 0.428995 0.0776658 0.517092
1130 4 0.457585 0.00222371 0.579145
3008 4 0.0100805 0.11154 0.508435
47 3 0.0243329 0.139119 0.554737
605 4 0.00600146 0.130549 0.564145
46 1 0.0343781 0.12648 0.541802
48 3 0.0251059 0.124913 0.520371
50 3 0.0294961 0.105709 0.550928
49 3 0.0585489 0.136843 0.541144
1145 4 0.0730702 0.148613 0.529557
1144 2 0.0890947 0.140951 0.514648
1146 4 0.105119 0.13329 0.49974
4563 4 0.455289 0.0843666 0.516512
911 4 0.444928 0.163317 0.551391
614 4 0.486537 0.147608 0.505788
1180 2 0.184697 0.178078 0.571402
1181 4 0.204023 0.190687 0.556032
2811 4 0.333748 0.210553 0.517907
1818 4 0.339366 0.207525 0.537559
2809 2 0.309571 0.199769 0.508754
1816 2 0.365337 0.215956 0.541606
1817 4 0.391308 0.224386 0.545652
731 4 0.395302 0.211466 0.558803
730 2 0.412233 0.212315 0.577437
266 4 0.376335 0.213028 0.503777
910 2 0.469596 0.169829 0.560091
912 4 0.494264 0.17634 0.56879
4421 4 0.305578 0.310376 0.531337
4420 2 0.329021 0.325338 0.523663
2375 4 0.459419 0.269874 0.538556
2374 2 0.484551 0.278554 0.531209
662 4 0.494791 0.333127 0.501621
508 2 0.206131 0.351867 0.533864
3157 2 0.233221 0.400349 0.562084
3159 4 0.219199 0.376088 0.56142
510 4 0.212998 0.356241 0.557877
509 4 0.199264 0.347494 0.50985
1920 4 0.236614 0.331068 0.572789
3038 4 0.323309 0.40728 0.542871
3037 2 0.321092 0.383969 0.550067
3039 4 0.318875 0.360658 0.557264
2778 4 0.330627 0.349413 0.561852
2776 2 0.356153 0.35454 0.567402
4422 4 0.352464 0.3403 0.51599
1143 4 0.372568 0.346599 0.511749
2777 4 0.38168 0.359668 0.572952
1141 2 0.397717 0.347987 0.51544
3322 2 0.459318 0.344548 0.517751
1142 4 0.422865 0.349376 0.519132
3323 4 0.439967 0.350537 0.529347
3389 4 0.489406 0.401916 0.531525
3324 4 0.47867 0.33856 0.506156
4306 2 0.115655 0.417633 0.509941
1326 4 0.0778726 0.43582 0.563829
1251 4 0.135138 0.491396 0.56858
3183 4 0.0962709 0.431462 0.565878
1324 2 0.0571873 0.438192 0.576425
3181 2 0.117895 0.435481 0.579915
4308 4 0.137509 0.416518 0.521348
1249 2 0.158236 0.487061 0.566408
1250 4 0.181334 0.482725 0.564237
1191 4 0.145829 0.434402 0.530248
1189 2 0.171686 0.440717 0.534735
1190 4 0.197544 0.447032 0.539222
897 4 0.20725 0.463546 0.548459
3158 4 0.247242 0.424609 0.562747
895 2 0.225194 0.452982 0.55583
896 4 0.243137 0.442417 0.563201
3536 4 0.343453 0.416971 0.547805
1884 4 0.32661 0.490955 0.549253
3426 4 0.396847 0.417207 0.558433
3535 2 0.361095 0.437719 0.538964
3537 4 0.378737 0.458468 0.530123
852 4 0.385464 0.470405 0.546137
850 2 0.393343 0.482273 0.567784
3424 2 0.422998 0.422529 0.55711
3425 4 0.449149 0.427851 0.555786
3056 4 0.452057 0.443241 0.569075
3055 2 0.477015 0.457565 0.565798
4345 2 0.22558 0.0750059 0.628187
4347 4 0.213689 0.0564706 0.612429
342 4 0.218475 0.0437136 0.600888
435 4 0.273599 0.0570926 0.589447
340 2 0.240131 0.0445403 0.587956
433 2 0.296939 0.0575821 0.598811
434 4 0.320279 0.0580717 0.608175
3402 4 0.336188 0.0538893 0.61688
3400 2 0.331898 0.0479652 0.641059
3401 4 0.327608 0.0420412 0.665238
2283 4 0.393273 0.0113274 0.627286
2281 2 0.417709 0.0142357 0.635385
2282 4 0.442145 0.0171441 0.643484
2144 4 0.451744 0.0360615 0.646993
2143 2 0.476064 0.0354343 0.651814
2231 4 0.477949 0.0685724 0.614463
1129 2 0.480717 0.999413 0.585342
3364 2 0.0390125 0.160154 0.651221
3365 4 0.0492425 0.141466 0.653876
4465 2 0.132977 0.132287 0.603658
4467 4 0.111892 0.111847 0.604976
4466 4 0.154062 0.152728 0.60234
1182 4 0.165371 0.16547 0.586772
4346 4 0.237472 0.0935412 0.643944
4386 4 0.252599 0.111844 0.639158
4384 2 0.269013 0.127937 0.623571
4385 4 0.285428 0.144029 0.607985
4137 4 0.297759 0.143742 0.591175
4135 2 0.319845 0.137413 0.59201
4136 4 0.341931 0.131083 0.592844
347 4 0.349009 0.124258 0.609627
346 2 0.373847 0.125628 0.614974
348 4 0.398686 0.126998 0.620322
2230 2 0.480331 0.0881847 0.599503
2232 4 0.482714 0.107797 0.584543
3366 4 0.0287825 0.178843 0.648566
650 4 0.172861 0.235313 0.650728
649 2 0.172963 0.246204 0.628493
822 4 0.259169 0.214914 0.654187
857 4 0.243105 0.207214 0.665448
820 2 0.278553 0.215179 0.63829
845 4 0.278467 0.167953 0.658928
821 4 0.297938 0.215444 0.622392
732 4 0.429164 0.213165 0.59607
1211 4 0.449397 0.217364 0.594185
1210 2 0.472196 0.21343 0.599569
1212 4 0.494996 0.209496 0.604954
3173 4 0.0341487 0.260613 0.619416
1215 4 0.015537 0.253974 0.629415
3172 2 0.0556314 0.261838 0.632809
3174 4 0.0771142 0.263062 0.646203
276 4 0.095284 0.267329 0.657172
651 4 0.173064 0.257094 0.606258
557 4 0.41839 0.251253 0.659019
3640 2 0.413999 0.29119 0.658279
3641 4 0.415304 0.314639 0.664105
3642 4 0.412693 0.267741 0.652452
556 2 0.443488 0.251667 0.657639
558 4 0.468587 0.25208 0.656259
3027 4 0.484091 0.270388 0.651287
2700 4 0.100476 0.39427 0.656303
2698 2 0.108401 0.382509 0.637662
2699 4 0.116326 0.370748 0.619021
992 4 0.122526 0.375139 0.600655
991 2 0.148119 0.377175 0.600543
993 4 0.173711 0.379211 0.600431
1080 4 0.180727 0.384501 0.618269
1078 2 0.204404 0.381224 0.617068
1079 4 0.228082 0.377947 0.615868
1919 4 0.230411 0.367928 0.601156
1918 2 0.233512 0.349498 0.586973
1325 4 0.036502 0.440565 0.589021
3123 4 0.0157841 0.436176 0.596676
3182 4 0.139519 0.439501 0.593952
3093 4 0.151329 0.446471 0.610874
3091 2 0.17663 0.458266 0.605606
3092 4 0.201931 0.470061 0.600338
4251 4 0.214063 0.486954 0.609202
4249 2 0.236891 0.481978 0.610493
4250 4 0.259718 0.477002 0.611785
2117 4 0.354465 0.476214 0.633372
2116 2 0.371348 0.488661 0.615849
1906 2 0.442987 0.495464 0.634966
851 4 0.401222 0.494142 0.589432
1908 4 0.456282 0.486946 0.617843
2106 4 0.487595 0.453268 0.654693
4338 4 0.00492311 0.0373606 0.73637
2241 4 0.0236283 0.0358857 0.741864
2239 2 0.0479376 0.0418028 0.732358
2240 4 0.0722469 0.0477199 0.722852
4181 4 0.0918099 0.0477768 0.728834
4180 2 0.115711 0.0455268 0.732414
4182 4 0.139612 0.0432769 0.735994
2852 4 0.306116 0.0781387 0.713279
2191 2 0.300919 0.0208831 0.685652
2193 4 0.306768 0.0370235 0.666563
2192 4 0.295071 0.00474259 0.704742
4237 2 0.420242 0.0807445 0.715854
3292 2 0.423616 0.015249 0.696532
4239 4 0.431953 0.0755252 0.736287
4439 4 0.398109 0.00800606 0.724287
3293 4 0.439965 0.0313993 0.680946
808 2 0.0238813 0.125798 0.748502
810 4 0.0479632 0.125476 0.742176
2090 4 0.0567573 0.13676 0.72681
2089 2 0.076041 0.143452 0.709815
2091 4 0.0953246 0.150145 0.69282
2136 4 0.109139 0.141254 0.686658
2135 4 0.136853 0.120488 0.716232
2134 2 0.122996 0.130871 0.701445
2851 2 0.31381 0.100066 0.725285
2853 4 0.321504 0.121994 0.737291
4238 4 0.408532 0.0859638 0.695422
3081 4 0.452822 0.0849348 0.736271
827 4 0.178799 0.235899 0.670495
828 4 0.133608 0.202859 0.685777
826 2 0.156203 0.219379 0.678136
856 2 0.225891 0.2147 0.678927
858 4 0.208677 0.222185 0.692405
844 2 0.303714 0.175681 0.666023
846 4 0.32896 0.18341 0.673119
1943 4 0.34551 0.197081 0.680712
1942 2 0.358397 0.207474 0.701393
1944 4 0.371284 0.217867 0.722074
2265 4 0.390405 0.216195 0.726215
2263 2 0.405645 0.218426 0.746459
3206 4 0.0132345 0.286409 0.697485
3205 2 0.0388677 0.297564 0.701829
3207 4 0.0645008 0.308719 0.706174
1010 4 0.085444 0.317566 0.705398
274 2 0.116647 0.281315 0.669383
275 4 0.13801 0.295301 0.681593
936 4 0.153997 0.291101 0.673935
934 2 0.179144 0.291656 0.67264
935 4 0.20429 0.292211 0.671345
3165 4 0.220508 0.30503 0.681762
3163 2 0.237639 0.31557 0.699865
3164 4 0.25477 0.32611 0.717967
950 4 0.431064 0.320843 0.677583
949 2 0.437991 0.328992 0.700839
1087 2 0.0173956 0.336434 0.74738
4090 2 0.0681048 0.39923 0.734923
4091 4 0.0771527 0.394718 0.712702
841 2 0.10683 0.400729 0.692715
842 4 0.0975613 0.400429 0.715974
1009 2 0.110164 0.331943 0.709809
843 4 0.116099 0.401029 0.669455
1011 4 0.134885 0.34632 0.71422
3071 4 0.156439 0.352427 0.719866
3070 2 0.175716 0.352248 0.735718
944 4 0.275134 0.334498 0.726107
943 2 0.292612 0.356442 0.732343
945 4 0.31009 0.378385 0.738579
951 4 0.444918 0.337141 0.724095
3464 4 0.465208 0.340057 0.731838
3463 2 0.490792 0.344924 0.73699
2436 4 0.124319 0.450302 0.742109
4148 4 0.190436 0.482815 0.73511
4147 2 0.165325 0.473701 0.74243
4149 4 0.140215 0.464588 0.749751
902 4 0.332339 0.425423 0.744756
2325 4 0.38227 0.491967 0.729992
2323 2 0.408496 0.498922 0.72796
4113 4 0.367057 0.489628 0.743805
3031 2 0.0313995 0.0671883 0.787989
3032 4 0.0565803 0.0760105 0.780818
3033 4 0.00621865 0.0583662 0.795159
3468 4 0.0756267 0.0733326 0.775774
3466 2 0.093655 0.075328 0.793648
3467 4 0.111683 0.0773233 0.811522
1242 4 0.115567 0.00347578 0.807768
3579 4 0.217444 0.0165877 0.79385
3002 4 0.228497 0.0124373 0.779014
3001 2 0.246899 0.00208538 0.772537
3826 2 0.265273 0.0309275 0.832035
3828 4 0.289803 0.0389859 0.822984
3251 4 0.323261 0.00850172 0.807884
1971 4 0.308505 0.0468985 0.812823
1969 2 0.328059 0.0602738 0.798089
1970 4 0.347613 0.0736492 0.783356
3250 2 0.303975 0.00319453 0.790867
1248 4 0.398488 0.0287147 0.831843
2563 2 0.355244 0.00743502 0.821545
2564 4 0.378184 0.0206269 0.831825
3080 4 0.449532 0.0762838 0.785523
3079 2 0.451177 0.0806093 0.760897
194 3 0.45488 0.0609567 0.790737
192 3 0.459634 0.0335621 0.81246
191 1 0.47131 0.0528908 0.801169
193 3 0.485993 0.0481053 0.785324
195 3 0.484268 0.0683067 0.815969
809 4 0.9998 0.12612 0.754828
1304 4 0.0178259 0.133162 0.828658
1004 4 0.0355015 0.143017 0.819359
1003 2 0.0594328 0.160011 0.818557
1422 4 0.372443 0.115098 0.830539
1092 4 0.319113 0.117826 0.827497
1420 2 0.398458 0.126169 0.832145
1421 4 0.424473 0.137241 0.833752
2906 4 0.0287576 0.212167 0.770072
2905 2 0.0532437 0.22791 0.767789
1005 4 0.0833641 0.177006 0.817755
3372 4 0.0945693 0.248836 0.751792
3370 2 0.110638 0.240809 0.766296
3371 4 0.126707 0.232782 0.7808
2907 4 0.0777298 0.243654 0.765505
4219 2 0.137305 0.241569 0.819087
4220 4 0.142169 0.239624 0.794774
848 4 0.278809 0.24741 0.775917
847 2 0.298237 0.247094 0.791524
2264 4 0.420885 0.220657 0.766704
2062 2 0.0498882 0.278238 0.790413
2063 4 0.0301175 0.280325 0.776192
1041 4 0.0382414 0.310024 0.806606
2064 4 0.0696589 0.276152 0.804635
1089 4 0.0364498 0.330361 0.759416
1153 2 0.108833 0.286915 0.828483
1154 4 0.085082 0.281288 0.817797
849 4 0.317664 0.246777 0.807131
3296 4 0.336903 0.254345 0.798739
3295 2 0.36297 0.265382 0.798026
1257 4 0.404631 0.283 0.783746
3297 4 0.389037 0.276419 0.797314
1255 2 0.429841 0.289793 0.77657
2986 2 0.497835 0.295283 0.769323
1256 4 0.455051 0.296586 0.769394
2987 4 0.472944 0.291489 0.762109
1613 4 0.00927534 0.407988 0.76188
1039 2 0.0373557 0.333451 0.808058
4092 4 0.0590569 0.403742 0.757145
3255 4 0.0660003 0.410192 0.775167
1040 4 0.03647 0.356878 0.80951
3253 2 0.0562323 0.393353 0.793164
3254 4 0.0464642 0.376513 0.811161
3072 4 0.194993 0.352069 0.751569
2712 4 0.21498 0.357847 0.752199
918 4 0.198649 0.382437 0.812435
916 2 0.197502 0.403074 0.824095
3311 4 0.238766 0.376163 0.803352
2710 2 0.230205 0.360713 0.772524
2711 4 0.24543 0.363579 0.792848
3310 2 0.239537 0.369709 0.827334
4429 2 0.00509729 0.460299 0.772162