ITEM: TIMESTEP
2961500
ITEM: NUMBER OF ATOMS
4590
ITEM: BOX BOUNDS xy xz yz pp pp pp
-9.9985700000000008e+00 9.9985700000000008e+00 0.0000000000000000e+00
-9.9985700000000008e+00 9.9985700000000008e+00 0.0000000000000000e+00
-9.9985700000000008e+00 9.9985700000000008e+00 0.0000000000000000e+00
ITEM: ATOMS id type xs ys zs
3624 4 0.998752 0.0216272 0.0718545
1514 4 0.108117 0.0658058 0.0835398
2757 4 0.119287 0.0824834 0.0813367
1285 2 0.242582 0.00563895 0.0128879
1286 4 0.226862 0.989984 0.0244216
1287 4 0.258301 0.0212935 0.00135417
659 4 0.459535 0.0242708 0.0276404
658 2 0.46193 0.037819 0.00676236
4354 2 0.070323 0.161062 0.998371
2755 2 0.121383 0.106284 0.0739665
2756 4 0.12348 0.130085 0.0665963
4355 4 0.0928809 0.150337 0.999507
3217 2 0.0462702 0.315025 0.0442185
3219 4 0.0399242 0.301349 0.0641648
690 4 0.0482979 0.313475 0.0774315
2803 2 0.112288 0.309016 0.0213393
2805 4 0.0986482 0.288523 0.0169577
674 4 0.102726 0.272584 0.00573911
2804 4 0.125927 0.329509 0.0257208
3336 4 0.26737 0.320957 0.0642111
3335 4 0.303384 0.287148 0.0720016
3334 2 0.285377 0.304052 0.0681063
2528 4 0.296822 0.270218 0.0821667
553 2 0.417818 0.299781 0.0789499
555 4 0.42942 0.278964 0.0713871
3218 4 0.0526162 0.328701 0.0242721
3102 4 0.0672413 0.339712 0.0156574
3100 2 0.0777169 0.360861 0.0239124
3042 4 0.0137201 0.421386 0.022435
4358 4 0.13867 0.33924 0.0152362
3101 4 0.0881926 0.382011 0.0321673
914 4 0.105471 0.381941 0.0432226
913 2 0.1165 0.395012 0.0614623
915 4 0.127529 0.408082 0.079702
1264 2 0.331434 0.395165 0.00878724
1266 4 0.337655 0.37913 0.0269354
1293 4 0.357435 0.374521 0.0255185
1291 2 0.38215 0.373826 0.0217983
1292 4 0.406866 0.37313 0.018078
2509 2 0.344397 0.401851 0.0739418
2510 4 0.337301 0.408231 0.0508305
974 4 0.423978 0.383947 0.0216149
973 2 0.435309 0.377618 0.000243128
4480 2 0.0338337 0.465224 0.0622597
4482 4 0.0420402 0.467046 0.0387116
3040 2 0.0325958 0.433053 0.0109131
4481 4 0.0256272 0.463402 0.0858077
956 4 0.134793 0.446097 0.0882249
3663 4 0.373435 0.459609 0.00468309
3661 2 0.39759 0.457925 0.0109182
861 4 0.405463 0.483489 0.0647484
3662 4 0.421746 0.456241 0.0171533
859 2 0.394625 0.493224 0.0850701
2475 4 0.434294 0.459851 0.0334704
2473 2 0.440821 0.466567 0.0566541
2474 4 0.447348 0.473283 0.0798377
2452 2 0.0459307 0.07484 0.138821
2454 4 0.0442809 0.0634832 0.161036
2453 4 0.0475805 0.0861969 0.116607
1515 4 0.125232 0.0421687 0.12415
1513 2 0.116675 0.0539873 0.103845
633 4 0.0521389 0.104581 0.110618
631 2 0.0431027 0.127469 0.115052
746 4 0.0268637 0.16539 0.130826
632 4 0.0340664 0.150357 0.119486
745 2 0.0249933 0.161281 0.15542
3510 4 0.165657 0.128619 0.160904
3486 4 0.167298 0.110134 0.166475
3484 2 0.146023 0.0977135 0.170752
52 3 0.232183 0.137209 0.172228
3509 4 0.215479 0.132899 0.161522
3508 2 0.190568 0.130759 0.161213
51 1 0.25245 0.146538 0.166624
54 3 0.255898 0.143853 0.143836
472 2 0.284154 0.137416 0.121304
473 4 0.274674 0.137261 0.14444
474 4 0.293635 0.13757 0.0981676
2514 4 0.281815 0.133247 0.16294
300 4 0.325853 0.144545 0.105782
298 2 0.34933 0.152844 0.10351
299 4 0.372807 0.161142 0.101239
2943 4 0.474506 0.151445 0.11209
2941 2 0.481233 0.127366 0.111733
2942 4 0.487959 0.103286 0.111375
1355 4 0.236058 0.174252 0.161259
1354 2 0.233142 0.198812 0.164935
55 3 0.252222 0.168693 0.171892
2529 4 0.330355 0.263002 0.118557
294 4 0.384987 0.174161 0.112029
292 2 0.406267 0.187017 0.114688
293 4 0.427547 0.199873 0.117347
2837 4 0.435523 0.200201 0.0987416
2836 2 0.458576 0.208945 0.102902
2838 4 0.481628 0.217689 0.107062
2708 4 0.500579 0.218939 0.114964
688 2 0.0634736 0.312865 0.0972938
689 4 0.0786493 0.312254 0.117156
3014 4 0.0838803 0.316009 0.135888
3013 2 0.0962185 0.301875 0.152417
2970 4 0.241269 0.242338 0.133146
2968 2 0.255414 0.262543 0.137252
2527 2 0.313588 0.26661 0.100362
2969 4 0.26956 0.282749 0.141358
597 4 0.278438 0.286115 0.158283
554 4 0.406215 0.320599 0.0865128
965 4 0.392997 0.323264 0.101065
964 2 0.387678 0.329544 0.124675
1221 4 0.35413 0.264774 0.1567
1219 2 0.35313 0.288068 0.16573
966 4 0.38236 0.335824 0.148286
4088 4 0.497168 0.314072 0.111219
753 4 0.999444 0.334914 0.149239
751 2 0.00424369 0.337019 0.12479
1047 4 0.130311 0.408282 0.100069
1045 2 0.147351 0.401442 0.11704
1046 4 0.164391 0.394602 0.134012
1289 4 0.180236 0.383473 0.140998
1288 2 0.204406 0.387002 0.146341
1290 4 0.228575 0.390531 0.151684
1029 4 0.243829 0.379663 0.14494
1028 4 0.292281 0.370436 0.153188
1027 2 0.268055 0.375049 0.149064
4278 4 0.297478 0.380989 0.169202
2511 4 0.351493 0.39547 0.097053
2538 4 0.376736 0.348657 0.162206
1418 4 0.016666 0.477918 0.0962033
1417 2 0.00386717 0.497469 0.105099
955 2 0.140002 0.455199 0.110923
957 4 0.145211 0.464301 0.133621
322 2 0.101438 0.495774 0.151799
2741 4 0.239928 0.429875 0.0898421
1803 4 0.234871 0.453774 0.143703
2740 2 0.237742 0.446724 0.108187
2742 4 0.235556 0.463572 0.126531
1512 4 0.379552 0.459812 0.147383
860 4 0.383788 0.502958 0.105392
648 4 0.465863 0.477651 0.0875779
646 2 0.484927 0.462885 0.0941895
3810 4 0.0616479 0.0626224 0.171966
3808 2 0.0850576 0.0696799 0.177199
3809 4 0.108467 0.0767374 0.182431
3485 4 0.124747 0.0852932 0.175029
3940 2 0.222899 0.0837841 0.180705
759 4 0.251639 0.0535512 0.1759
2891 4 0.181706 0.0502086 0.251184
3941 4 0.239581 0.0658885 0.185868
757 2 0.260047 0.0300519 0.174389
2533 2 0.283749 0.0550858 0.23774
712 2 0.318917 0.054772 0.191577
713 4 0.317125 0.0670299 0.213296
2534 4 0.30436 0.0665415 0.229424
758 4 0.268455 0.00655265 0.172878
1481 4 0.283806 0.0018479 0.160588
351 4 0.352741 0.00829914 0.219866
714 4 0.320709 0.0425141 0.169857
349 2 0.35794 0.0316541 0.227128
350 4 0.363138 0.055009 0.234389
2645 4 0.382164 0.0588538 0.238264
747 4 0.0231229 0.157172 0.180013
1864 2 0.040925 0.134035 0.207563
1865 4 0.0581718 0.117993 0.215952
1650 4 0.0459435 0.103629 0.222943
1866 4 0.0236782 0.150077 0.199173
1648 2 0.0506483 0.0980526 0.246858
3942 4 0.206216 0.10168 0.175542
1474 2 0.244448 0.116829 0.237163
1475 4 0.246455 0.101163 0.217779
2512 2 0.304823 0.134823 0.172601
53 3 0.269213 0.135749 0.178498
2513 4 0.327831 0.1364 0.182263
3897 4 0.405026 0.166144 0.231347
3895 2 0.42551 0.158738 0.219068
3896 4 0.445993 0.151333 0.206788
3268 2 0.481481 0.151755 0.210574
3270 4 0.460198 0.164739 0.208667
530 4 0.124873 0.247329 0.20316
2961 4 0.218246 0.239485 0.167306
2959 2 0.198847 0.24906 0.179844
1356 4 0.230225 0.223372 0.16861
1800 4 0.220988 0.232962 0.242713
3456 4 0.38894 0.173896 0.238185
529 2 0.117716 0.270217 0.196081
3015 4 0.108557 0.287741 0.168945
531 4 0.110559 0.293104 0.189003
2960 4 0.179449 0.258635 0.192382
3284 4 0.165828 0.262825 0.205904
3283 2 0.174223 0.284179 0.21584
666 4 0.188901 0.323516 0.232723
3285 4 0.182618 0.305533 0.225775
595 2 0.290342 0.285148 0.180249
596 4 0.302247 0.284181 0.202216
3222 4 0.302441 0.322832 0.225497
3220 2 0.326799 0.328401 0.224557
2839 2 0.29099 0.288227 0.252652
2840 4 0.299355 0.305963 0.237139
1220 4 0.352129 0.311363 0.174761
3221 4 0.351156 0.33397 0.223617
737 4 0.471161 0.264342 0.211261
452 4 0.459714 0.25179 0.223494
736 2 0.480362 0.281118 0.195164
2690 4 0.0621758 0.352281 0.25147
2897 4 0.998871 0.414306 0.184736
4276 2 0.316093 0.387642 0.184512
3058 2 0.321832 0.385481 0.239117
4277 4 0.334709 0.394295 0.199822
3060 4 0.333947 0.395735 0.219797
2536 2 0.367496 0.346987 0.185379
2537 4 0.358256 0.345317 0.208552
4511 4 0.45089 0.352767 0.190259
4510 2 0.444919 0.375382 0.199099
4512 4 0.438948 0.397997 0.207938
3906 4 0.433993 0.405978 0.224491
323 4 0.111511 0.481142 0.169396
2657 4 0.130082 0.478806 0.213849
2656 2 0.150865 0.4658 0.218762
1389 4 0.130369 0.494678 0.20309
1801 2 0.240894 0.446924 0.166984
855 4 0.190658 0.458737 0.226417
2658 4 0.171648 0.452795 0.223675
853 2 0.210635 0.451247 0.213378
854 4 0.230612 0.443757 0.200339
1802 4 0.246918 0.440075 0.190264
3704 4 0.261732 0.458749 0.221467
3703 2 0.262243 0.439001 0.236795
3705 4 0.262753 0.419253 0.252122
3904 2 0.415198 0.420048 0.215891
1510 2 0.384592 0.446806 0.168134
3905 4 0.396404 0.434119 0.20729
1511 4 0.389632 0.433799 0.188886
3930 4 0.405882 0.487341 0.226838
1335 4 0.393889 0.501387 0.232503
4198 2 0.469061 0.466571 0.168285
4199 4 0.489408 0.453314 0.162332
4200 4 0.448714 0.479827 0.174238
3928 2 0.425411 0.49575 0.21368
3929 4 0.444939 0.504159 0.200523
735 4 0.0808603 0.0215513 0.313807
733 2 0.0561569 0.0245921 0.316189
734 4 0.0314535 0.0276329 0.318571
3504 4 0.0752639 0.0889186 0.270174
1622 4 0.0142897 0.0288589 0.327011
2890 2 0.156957 0.0531394 0.253211
2892 4 0.132209 0.0560702 0.255238
3503 4 0.113417 0.0583029 0.259794
2552 4 0.0967776 0.01214 0.305902
2551 2 0.114107 0.0101106 0.323812
3502 2 0.0943406 0.0736108 0.264984
1583 4 0.159021 0.0129946 0.272628
250 2 0.222214 0.047925 0.256844
251 4 0.245839 0.039833 0.255604
252 4 0.198589 0.0560169 0.258084
2535 4 0.263138 0.0436301 0.246056
1676 4 0.265465 0.0503885 0.342388
1675 2 0.285842 0.0417877 0.330727
1677 4 0.306219 0.0331868 0.319065
2644 2 0.406499 0.054941 0.24247
2646 4 0.430833 0.0510281 0.246676
1518 4 0.444484 0.0536556 0.261281
1516 2 0.450152 0.0657484 0.282419
1517 4 0.455819 0.0778412 0.303557
1649 4 0.0553531 0.092476 0.270774
511 2 0.105781 0.0896264 0.325702
518 4 0.148151 0.090598 0.31362
517 2 0.166371 0.106323 0.306841
512 4 0.12763 0.0887742 0.313575
3354 4 0.153136 0.170591 0.331853
519 4 0.184591 0.122048 0.300063
3063 4 0.20258 0.131121 0.304832
3062 4 0.238728 0.14469 0.273053
3061 2 0.220654 0.137905 0.288943
1476 4 0.242441 0.132495 0.256547
44 3 0.42956 0.107463 0.32216
43 3 0.462047 0.0879677 0.319162
41 1 0.446001 0.096014 0.333866
2679 4 0.496778 0.091067 0.283619
3352 2 0.129354 0.167708 0.324692
3353 4 0.105572 0.164825 0.317532
1799 4 0.22733 0.226638 0.291912
1383 4 0.23944 0.230948 0.306134
1381 2 0.242981 0.234221 0.330669
1798 2 0.224159 0.2298 0.267313
3454 2 0.380064 0.193858 0.250347
2798 4 0.359238 0.226806 0.270938
3455 4 0.371189 0.21382 0.262508
2797 2 0.361369 0.240623 0.291668
2676 4 0.447684 0.175726 0.330356
2689 2 0.0572522 0.329542 0.260627
2599 2 0.0188712 0.290314 0.279924
2600 4 0.0423306 0.290059 0.271276
2691 4 0.0523286 0.306802 0.269783
2601 4 0.995412 0.29057 0.288572
3587 4 0.156773 0.315075 0.289748
3586 2 0.15688 0.300462 0.310038
3588 4 0.156987 0.28585 0.330327
664 2 0.180807 0.323515 0.25638
665 4 0.172713 0.323515 0.280037
2841 4 0.282625 0.270491 0.268165
3543 4 0.32033 0.29012 0.304748
3541 2 0.338564 0.29991 0.290717
2799 4 0.3635 0.25444 0.312398
3542 4 0.356797 0.3097 0.276686
110 3 0.375148 0.307648 0.268213
106 1 0.389464 0.317772 0.282746
107 3 0.404682 0.302313 0.290398
109 3 0.400894 0.334861 0.271988
451 2 0.456495 0.264684 0.244674
453 4 0.453277 0.277579 0.265853
3627 4 0.451054 0.293896 0.278568
3625 2 0.455567 0.318488 0.278872
446 4 0.0675611 0.399186 0.310686
1863 4 0.0193559 0.410088 0.262509
269 4 0.252293 0.342822 0.251639
3059 4 0.309716 0.375227 0.258437
268 2 0.27308 0.356624 0.25003
270 4 0.293868 0.370425 0.24842
2579 4 0.309538 0.404828 0.289312
3021 4 0.293672 0.394632 0.295931
2578 2 0.330548 0.404327 0.302857
108 3 0.377679 0.326284 0.30083
416 4 0.371886 0.345766 0.304917
2580 4 0.351559 0.403825 0.316402
415 2 0.378006 0.350173 0.328756
3626 4 0.46008 0.343079 0.279176
1757 4 0.416043 0.373982 0.251662
1756 2 0.438247 0.367807 0.26136
1758 4 0.460451 0.361632 0.271059
445 2 0.0644724 0.417019 0.327938
1861 2 0.00576053 0.417367 0.242828
1037 4 0.235239 0.493325 0.263718
3019 2 0.28069 0.411498 0.282809
3020 4 0.267709 0.428365 0.269688
1745 4 0.294668 0.496911 0.292882
1744 2 0.310145 0.49297 0.31212
1036 2 0.254849 0.495382 0.279094
1746 4 0.325622 0.489029 0.331358
2238 4 0.0254995 0.083112 0.374811
1621 2 0.00475595 0.0508486 0.334135
2261 4 0.150167 0.00475435 0.347676
2553 4 0.131436 0.00808125 0.341722
2126 4 0.248011 0.0584584 0.349578
2260 2 0.170919 0.0185365 0.345522
2125 2 0.223948 0.0522154 0.352254
2262 4 0.19167 0.0323187 0.343368
2127 4 0.199884 0.0459723 0.35493
1695 4 0.318852 0.0406721 0.333298
1693 2 0.34044 0.0525934 0.337424
1694 4 0.362028 0.0645146 0.341549
579 4 0.36883 0.0712603 0.359064
577 2 0.392754 0.0732765 0.35208
578 4 0.416677 0.0752927 0.345095
42 3 0.436334 0.078225 0.344785
513 4 0.0839316 0.0904787 0.337829
1182 4 0.00798213 0.0908551 0.368029
2237 4 0.0658299 0.0832071 0.345245
2236 2 0.0456647 0.0831596 0.360028
527 4 0.0384395 0.148982 0.41199
526 2 0.0200445 0.165529 0.408387
892 2 0.0717884 0.137012 0.404574
2131 2 0.073112 0.160482 0.338984
2132 4 0.0484477 0.161793 0.342876
894 4 0.0517578 0.150211 0.397521
305 4 0.0314803 0.151507 0.342683
721 2 0.12511 0.150501 0.410921
2133 4 0.0977762 0.159171 0.335091
893 4 0.091819 0.123814 0.411628
3325 2 0.206523 0.156919 0.407323
247 2 0.27532 0.129137 0.39145
249 4 0.28311 0.137503 0.369213
695 4 0.291349 0.152392 0.359419
694 2 0.310845 0.167156 0.354213
45 3 0.4557 0.109827 0.349155
2675 4 0.45509 0.129726 0.348521
2674 2 0.451387 0.152726 0.339439
306 4 0.993147 0.18007 0.328005
304 2 0.0123134 0.165788 0.335344
723 4 0.147975 0.16051 0.412409
3327 4 0.213233 0.175175 0.39161
1698 4 0.203819 0.190619 0.383972
1696 2 0.194392 0.207218 0.367822
1697 4 0.184966 0.223817 0.351673
1602 4 0.174022 0.240771 0.351169
1382 4 0.246521 0.237493 0.355203
696 4 0.33034 0.181921 0.349007
3323 4 0.258861 0.246018 0.367038
2810 4 0.27753 0.197462 0.431862
936 4 0.347285 0.189831 0.356595
428 4 0.393687 0.232272 0.377915
935 4 0.386323 0.220578 0.362198
934 2 0.366804 0.205205 0.359396
427 2 0.418321 0.231087 0.382027
429 4 0.442956 0.229902 0.386139
2813 4 0.454454 0.220834 0.372272
2812 2 0.458088 0.205111 0.353174
2814 4 0.461722 0.189387 0.334076
1601 4 0.158896 0.288432 0.350677
1600 2 0.166459 0.264602 0.350923
3322 2 0.258848 0.269454 0.375753
3324 4 0.258836 0.29289 0.384468
1444 2 0.404557 0.322665 0.392164
1445 4 0.40861 0.298712 0.386245
3064 2 0.480714 0.275556 0.405523
3065 4 0.456231 0.280632 0.405633
1446 4 0.400504 0.346617 0.398084
417 4 0.384127 0.35458 0.352596
948 4 0.391462 0.372441 0.355915
946 2 0.412531 0.383641 0.363386
947 4 0.433601 0.394841 0.370858
438 4 0.482536 0.35416 0.379075
1908 4 0.462669 0.357748 0.382016
1906 2 0.457772 0.378067 0.395739
1907 4 0.452875 0.398386 0.409463
1631 4 0.0161288 0.488497 0.408267
447 4 0.0613837 0.434851 0.34519
1829 4 0.052577 0.450351 0.335681
1630 2 0.01139 0.491762 0.383935
1828 2 0.0645316 0.471885 0.33999
1830 4 0.0764862 0.493419 0.344299
1632 4 0.00665111 0.495026 0.359603
1811 4 0.459148 0.404433 0.428581
3360 4 0.0554166 0.0355719 0.507096
1818 4 0.179969 0.064152 0.447463
3774 4 0.242068 0.0234453 0.413598
1816 2 0.171233 0.0794575 0.4652
1997 4 0.229175 0.0308774 0.42658
1998 4 0.189722 0.0613872 0.430229
1996 2 0.209449 0.0461323 0.428405
3773 4 0.28733 0.0395263 0.427509
3772 2 0.264699 0.0314858 0.420554
2178 4 0.30065 0.0263905 0.435191
2176 2 0.314952 0.0459059 0.441498
4389 4 0.321989 0.989188 0.429452
2177 4 0.329254 0.0654213 0.447804
3647 4 0.366825 0.995489 0.474302
3524 4 0.0883861 0.095101 0.453693
3523 2 0.065786 0.0913948 0.463728
3525 4 0.0431859 0.0876887 0.473763
1150 2 0.0106565 0.0924075 0.489644
1152 4 0.0328039 0.102142 0.483326
722 4 0.102246 0.140491 0.409433
575 4 0.0970737 0.0947563 0.436017
574 2 0.11726 0.0998804 0.449853
576 4 0.137446 0.105005 0.463688
651 4 0.144894 0.120903 0.454552
3326 4 0.199814 0.138662 0.423035
1817 4 0.162496 0.0947631 0.482937
649 2 0.166131 0.131607 0.446831
650 4 0.187368 0.142311 0.439111
827 4 0.21436 0.124011 0.448641
516 4 0.226711 0.131392 0.46432
514 2 0.232804 0.136959 0.487922
826 2 0.235825 0.117089 0.437847
248 4 0.26753 0.120771 0.413687
1850 4 0.338573 0.0832725 0.448861
828 4 0.25729 0.110167 0.427052
4467 4 0.26804 0.14443 0.437163
4465 2 0.268248 0.168584 0.44362
1849 2 0.340188 0.107571 0.443186
1851 4 0.341803 0.131869 0.437511
3236 4 0.360848 0.136541 0.434142
3235 2 0.371619 0.159093 0.434871
4001 4 0.998778 0.234075 0.475939
4000 2 0.0231954 0.230268 0.479747
1146 4 0.0662339 0.222271 0.484885
4002 4 0.0476126 0.226462 0.483555
502 2 0.160934 0.238887 0.474851
503 4 0.164308 0.218625 0.489106
2811 4 0.284984 0.245957 0.422194
2809 2 0.281257 0.221709 0.427028
4466 4 0.268455 0.192738 0.450077
365 4 0.385821 0.19975 0.429825
3237 4 0.38239 0.181646 0.4356
364 2 0.40569 0.203905 0.444426
366 4 0.425558 0.208059 0.459027
382 2 0.457642 0.228807 0.450605
383 4 0.443628 0.21349 0.464541
384 4 0.471655 0.244125 0.43667
504 4 0.15756 0.25915 0.460596
4268 4 0.456332 0.298618 0.415779
4269 4 0.437782 0.310674 0.460627
4267 2 0.447057 0.304646 0.438203
2457 4 0.428469 0.318092 0.475447
1141 2 0.188795 0.357053 0.449531
1143 4 0.202888 0.364947 0.430445
1142 4 0.174702 0.349159 0.468617
1821 4 0.166903 0.343044 0.487076
432 4 0.283104 0.382962 0.465319
430 2 0.289722 0.384878 0.441283
431 4 0.29634 0.386793 0.417246
2346 4 0.280163 0.379401 0.485159
2344 2 0.275662 0.396669 0.502674
2353 2 0.405471 0.393152 0.483246
2455 2 0.422812 0.342291 0.472688
2355 4 0.424895 0.384568 0.470047
2456 4 0.417156 0.366489 0.469929
980 4 0.495691 0.346193 0.494045
3770 4 0.303658 0.498682 0.420537
2354 4 0.386046 0.401735 0.496444
3756 4 0.462114 0.500032 0.456417
1947 4 0.428018 0.451564 0.480667
3754 2 0.482608 0.49725 0.442366
1810 2 0.478085 0.420747 0.427929
3358 2 0.0783358 0.0455647 0.506909
433 2 0.0314029 0.0234177 0.524964
434 4 0.0177876 0.0025702 0.527242
435 4 0.0450181 0.0442652 0.522686
3359 4 0.101255 0.0555574 0.506721
2276 4 0.113248 0.0594316 0.522626
2275 2 0.111559 0.0639204 0.547166
2277 4 0.109869 0.0684092 0.571705
2766 4 0.154454 0.0949664 0.550915
2980 2 0.455953 0.0784537 0.561053
2981 4 0.468686 0.0818348 0.539801
3489 4 0.481243 0.0680347 0.529265
2982 4 0.443219 0.0750725 0.582304
3487 2 0.502959 0.0758517 0.519646
2764 2 0.16095 0.0945438 0.526774
2765 4 0.167447 0.0941211 0.502633
515 4 0.238897 0.142525 0.511525
2589 4 0.231932 0.13871 0.528937
2587 2 0.239894 0.120215 0.543761
2588 4 0.247855 0.10172 0.558584
3084 4 0.259457 0.0926145 0.572049
1269 4 0.330506 0.102863 0.547565
1267 2 0.341998 0.113877 0.566848
1268 4 0.35349 0.12489 0.58613
1144 2 0.0768582 0.221085 0.507489
1145 4 0.0874824 0.219899 0.530092
4581 4 0.0941442 0.202142 0.53763
4579 2 0.102229 0.206298 0.560923
4580 4 0.110314 0.210454 0.584216
3464 4 0.180388 0.211403 0.499527
3463 2 0.191744 0.191061 0.508608
3465 4 0.203099 0.17072 0.517688
732 4 0.221789 0.179828 0.517827
730 2 0.245648 0.183382 0.52441
2232 4 0.286466 0.164806 0.559816
731 4 0.269506 0.186936 0.530992
374 4 0.286028 0.195722 0.523781
373 2 0.309957 0.199479 0.529986
375 4 0.333886 0.203235 0.53619
467 4 0.396864 0.182715 0.527824
466 2 0.374705 0.192427 0.534133
468 4 0.352545 0.20214 0.540443
2105 4 0.17706 0.308703 0.54172
2104 2 0.181031 0.292232 0.560108
2106 4 0.185003 0.275761 0.578496
3159 4 0.203378 0.267944 0.584083
1820 4 0.180966 0.325646 0.531801
1249 2 0.297732 0.324645 0.555075
1251 4 0.276956 0.322008 0.568734
3131 4 0.333184 0.316076 0.537426
3130 2 0.352758 0.31505 0.521902
3132 4 0.372331 0.314024 0.506377
569 4 0.0249499 0.331349 0.503092
570 4 0.0662669 0.350384 0.523861
568 2 0.0456084 0.340867 0.513477
4433 4 0.0825344 0.340919 0.530056
4432 2 0.0979662 0.354508 0.51583
4434 4 0.113398 0.368098 0.501605
1819 2 0.173934 0.334345 0.509438
1250 4 0.318509 0.327282 0.541416
3426 4 0.315548 0.37205 0.565515
2345 4 0.271162 0.413937 0.520188
3424 2 0.339785 0.370481 0.559571
3425 4 0.364021 0.368913 0.553627
929 4 0.373059 0.386744 0.558927
928 2 0.383747 0.390442 0.536627
930 4 0.394434 0.39414 0.514326
2376 4 0.455806 0.365626 0.538769
2374 2 0.469023 0.351615 0.522826
2375 4 0.48224 0.337603 0.506883
1179 4 0.460659 0.399552 0.565474
1177 2 0.448395 0.404485 0.586698
1568 4 0.0244104 0.486862 0.531965
4428 4 0.00819709 0.475725 0.538579
1567 2 0.0477741 0.493583 0.53781
2927 4 0.995293 0.425748 0.591439
2926 2 0.993419 0.420153 0.567141
1569 4 0.0711377 0.500303 0.543655
1360 2 0.287053 0.419348 0.551816
1362 4 0.267419 0.410645 0.539012
1361 4 0.306688 0.428051 0.56462
3120 4 0.324283 0.435005 0.573665
3119 4 0.373942 0.436554 0.567973
3118 2 0.349113 0.435779 0.570819
2015 4 0.385988 0.447972 0.578749
1909 2 0.418856 0.487585 0.566234
1946 4 0.425789 0.464614 0.52889
1910 4 0.422868 0.477114 0.543886
1945 2 0.426903 0.458089 0.504778
2193 4 0.0779227 0.0730133 0.638338
4238 4 0.12278 0.0650267 0.586894
4237 2 0.130596 0.0567429 0.609154
4370 4 0.156755 0.0549468 0.636449
4239 4 0.138412 0.0484591 0.631414
4371 4 0.206714 0.0528135 0.635797
4369 2 0.181735 0.0538802 0.636123
2604 4 0.217321 0.0384626 0.643847
2602 2 0.235968 0.0447259 0.62841
2603 4 0.254614 0.0509892 0.612973
3082 2 0.265425 0.0751708 0.58894
3083 4 0.271392 0.057727 0.60583
4180 2 0.407559 0.0582426 0.583337
4182 4 0.391941 0.0389105 0.586083
4163 4 0.402318 0.0280999 0.643485
3869 4 0.387892 0.0165744 0.649721
4162 2 0.414218 0.0473374 0.654138
4181 4 0.423177 0.0775747 0.58059
1991 4 0.0481004 0.0919335 0.579374
1992 4 0.0712726 0.0830546 0.62279
1990 2 0.0596865 0.0874941 0.601082
2699 4 0.0114017 0.122533 0.650266
2191 2 0.0677395 0.0773104 0.660765
2231 4 0.280826 0.154495 0.608423
2230 2 0.283646 0.15965 0.584119
3197 4 0.501389 0.0821243 0.63984
3196 2 0.484272 0.0991683 0.646299
3198 4 0.467156 0.116212 0.652758
4346 4 0.118669 0.210274 0.601829
4345 2 0.121333 0.200007 0.624472
4347 4 0.123997 0.18974 0.647115
4422 4 0.281372 0.218239 0.637208
4420 2 0.265387 0.227542 0.62038
3264 4 0.294846 0.153856 0.62365
3262 2 0.299837 0.172138 0.63996
4421 4 0.249403 0.236845 0.603553
3263 4 0.304827 0.190421 0.65627
1194 4 0.400551 0.213283 0.660861
1192 2 0.413272 0.229257 0.646431
3157 2 0.219532 0.256583 0.599419
3158 4 0.235685 0.245222 0.614755
4308 4 0.193126 0.340814 0.655117
3140 4 0.280176 0.326408 0.58765
3139 2 0.259609 0.332611 0.600445
3027 4 0.369632 0.269233 0.582606
3026 4 0.369974 0.312209 0.608173
3025 2 0.369803 0.290721 0.595389
1079 4 0.381816 0.326957 0.60362
1193 4 0.425993 0.24523 0.632001
3365 4 0.435489 0.262822 0.627891
3364 2 0.460009 0.264487 0.623289
3366 4 0.484528 0.266152 0.618686
2265 4 0.502346 0.267462 0.628723
1325 4 0.033473 0.391564 0.649293
1324 2 0.0557055 0.380138 0.648692
1326 4 0.0779379 0.368713 0.648092
901 2 0.999482 0.402256 0.640607
2310 4 0.0980659 0.367877 0.641087
2308 2 0.111471 0.38857 0.645242
2309 4 0.124877 0.409264 0.649396
3141 4 0.239042 0.338814 0.61324
4306 2 0.201805 0.351011 0.634001
4307 4 0.210484 0.361208 0.612885
291 4 0.183772 0.352021 0.669143
2414 4 0.368945 0.381254 0.636638
2413 2 0.377975 0.402525 0.646187
1080 4 0.381039 0.372211 0.624887
1078 2 0.381428 0.349584 0.614254
1178 4 0.436131 0.409418 0.607922
2016 4 0.420987 0.421043 0.602215
902 4 0.0236291 0.40738 0.644585
3302 4 0.0875734 0.488314 0.605792
4535 4 0.304312 0.497693 0.614011
3087 4 0.253222 0.459623 0.661781
2014 2 0.403487 0.434508 0.590482
2415 4 0.387006 0.423796 0.655736
1136 4 0.390385 0.442915 0.648214
1135 2 0.375507 0.461287 0.64007
1137 4 0.360629 0.479658 0.631926
1911 4 0.414844 0.498057 0.588583
98 3 0.220293 0.0617074 0.702786
3282 4 0.220976 0.0691297 0.720731
846 4 0.236367 0.0652653 0.733904
97 3 0.222198 0.0265127 0.715837
96 1 0.234651 0.0443609 0.708386
99 3 0.248987 0.0511035 0.725339
100 3 0.246668 0.0380148 0.690111
1185 4 0.263146 0.0487609 0.68535
1183 2 0.281514 0.0657259 0.685467
1184 4 0.299881 0.0826909 0.685584
3868 2 0.373786 0.0101694 0.669347
3870 4 0.35968 0.00376446 0.688974
4164 4 0.426118 0.0665748 0.664791
634 2 0.42812 0.0690526 0.709144
635 4 0.428413 0.0705794 0.734099
636 4 0.427827 0.0675258 0.684188
2698 2 0.0178018 0.139139 0.667829
442 2 0.0707537 0.102927 0.717219
443 4 0.0668818 0.0984825 0.692919
444 4 0.0746256 0.107372 0.741518
2700 4 0.0242019 0.155745 0.685392
2192 4 0.0575563 0.0816075 0.683193
3117 4 0.0341833 0.170582 0.694736
3280 2 0.2053 0.0877884 0.726325
1256 4 0.183035 0.125728 0.726193
3281 4 0.189623 0.106447 0.731918
1255 2 0.176301 0.144832 0.740852
459 4 0.306582 0.0978187 0.67488
457 2 0.325922 0.106894 0.68787
458 4 0.345263 0.115969 0.700861
938 4 0.469018 0.117341 0.673073
937 2 0.455266 0.136911 0.680359
939 4 0.441514 0.156482 0.687644
3096 4 0.426659 0.162093 0.677504
3115 2 0.0576027 0.179337 0.694428
3142 2 0.0119901 0.205985 0.7206
3144 4 0.025182 0.191017 0.735671
1230 4 0.0260236 0.193752 0.755212
3116 4 0.081022 0.188091 0.694119
2153 4 0.291099 0.183755 0.717314
2154 4 0.293496 0.199064 0.669768
2152 2 0.292297 0.19141 0.693541
3095 4 0.40292 0.206063 0.679483
3094 2 0.41479 0.184078 0.678493
1208 4 0.0855349 0.33465 0.721763
897 4 0.101918 0.325102 0.718643
895 2 0.120729 0.34034 0.712387
290 4 0.16853 0.316908 0.701323
289 2 0.176151 0.334464 0.685233
1281 4 0.284284 0.294263 0.71683
1279 2 0.285472 0.306185 0.738776
1207 2 0.0666352 0.348767 0.730052
888 4 0.0200676 0.375415 0.722934
886 2 0.0280967 0.393778 0.707983
887 4 0.0361259 0.412141 0.693031
1209 4 0.0477355 0.362883 0.738342
896 4 0.13954 0.355577 0.70613
1905 4 0.152947 0.354866 0.72071
1903 2 0.166933 0.36641 0.737923
3207 4 0.239889 0.371189 0.701765
2036 4 0.300301 0.35918 0.683883
2035 2 0.323222 0.362905 0.693154
3205 2 0.264114 0.373344 0.707572
3206 4 0.288339 0.375499 0.713379
3153 4 0.312608 0.416123 0.703628
3151 2 0.293903 0.418494 0.687206
2037 4 0.346143 0.36663 0.702424
2984 4 0.361916 0.370768 0.713733
2983 2 0.366742 0.39524 0.711981
3449 4 0.0384779 0.428735 0.681762
3448 2 0.0598437 0.437871 0.690992
3450 4 0.0812095 0.447007 0.700222
3642 4 0.131741 0.424131 0.661197
3640 2 0.113177 0.435441 0.673553
3641 4 0.094614 0.446751 0.68591
3086 4 0.20936 0.481589 0.671495
3085 2 0.231291 0.470606 0.666638
1919 4 0.292981 0.485879 0.654452
3152 4 0.275198 0.420864 0.670783
1918 2 0.309178 0.469913 0.664841
2985 4 0.371568 0.419711 0.710229
1920 4 0.325376 0.453947 0.67523
2859 4 0.363203 0.438481 0.708066
2858 4 0.386838 0.482434 0.704861
2857 2 0.375021 0.460458 0.706463
2948 4 0.0126576 0.0155961 0.77344
1944 4 0.0218128 0.0692177 0.785972
2987 4 0.0337239 0.084783 0.791603
1942 2 0.997264 0.0663393 0.782193
844 2 0.251745 0.0717968 0.752507
2977 2 0.234937 0.0770731 0.808757
845 4 0.267122 0.0783284 0.771109
2978 4 0.258422 0.0703774 0.814127
2598 4 0.271347 0.0770502 0.82834
90 3 0.262573 0.0107503 0.822881
2091 4 0.428531 0.0666685 0.753952
2090 4 0.423169 0.0380802 0.794629
2089 2 0.42585 0.0523743 0.77429
450 4 0.417812 0.0214664 0.80457
2988 4 0.0582598 0.107213 0.754244
2986 2 0.0459918 0.0959979 0.772924
3409 2 0.00412493 0.148823 0.818035
1257 4 0.169567 0.163936 0.755511
2198 4 0.153886 0.17415 0.764217
2424 4 0.160151 0.087233 0.839563
2423 4 0.191843 0.0810476 0.801379
2422 2 0.175997 0.0841403 0.820471
2979 4 0.211452 0.0837689 0.803387
3410 4 0.0205718 0.166449 0.811399
1229 4 0.0171982 0.162036 0.792854
1228 2 0.0216109 0.177894 0.774033
2796 4 0.127324 0.235413 0.831591
2199 4 0.158371 0.18046 0.813622
2197 2 0.156128 0.177305 0.78892
2794 2 0.130671 0.248549 0.81058
1011 4 0.191268 0.218092 0.752243
780 4 0.172101 0.180979 0.828209
2048 4 0.228112 0.1973 0.769589
1010 4 0.223551 0.250021 0.773196
1009 2 0.207409 0.234057 0.76272
2760 4 0.242756 0.24865 0.773707
3104 4 0.295694 0.185228 0.753074
2047 2 0.251607 0.191709 0.763118
2049 4 0.275103 0.186119 0.756646
3103 2 0.315789 0.190681 0.766917
3105 4 0.335885 0.196134 0.780761
3825 4 0.299146 0.243104 0.807798
2758 2 0.264461 0.251936 0.785678
3381 4 0.393278 0.210815 0.76127
3380 4 0.354855 0.189093 0.784776
3379 2 0.374066 0.199954 0.773023
210 3 0.0183813 0.262361 0.816633
274 2 0.138225 0.304327 0.797013
275 4 0.140258 0.281679 0.786615
2795 4 0.134019 0.261685 0.789569
276 4 0.136192 0.326974 0.807411
2067 4 0.129675 0.329374 0.825778
2759 4 0.286166 0.255222 0.797649
1280 4 0.28666 0.318107 0.760722
4091 4 0.298294 0.31143 0.776145
4090 2 0.309758 0.301449 0.795998
4092 4 0.321222 0.291468 0.815851
1613 4 0.330848 0.289041 0.833932
1612 2 0.34823 0.306977 0.83509
1614 4 0.365613 0.324913 0.836249
951 4 0.0363244 0.371172 0.752392
949 2 0.0212818 0.377808 0.77123
950 4 0.00623912 0.384444 0.790069
2065 2 0.114307 0.348725 0.821969
2066 4 0.0989379 0.368077 0.81816
3800 4 0.111558 0.380622 0.825321
816 4 0.146457 0.389997 0.83337
1904 4 0.18092 0.377955 0.755136
3338 4 0.19339 0.381068 0.769914
3339 4 0.230598 0.348002 0.774708
3337 2 0.211994 0.364535 0.772311
1063 2 0.219623 0.402137 0.828917
1064 4 0.203966 0.388 0.815494
4521 4 0.37265 0.352769 0.772914
4519 2 0.38927 0.367967 0.762052
3170 4 0.367241 0.386478 0.803205
3169 2 0.368514 0.364987 0.815921
884 4 0.363243 0.400643 0.789734
883 2 0.344201 0.41393 0.780459
4520 4 0.40589 0.383166 0.751189
1191 4 0.415977 0.378119 0.768507
3171 4 0.369786 0.343496 0.828638
1189 2 0.435405 0.387711 0.780987
1190 4 0.454833 0.397302 0.793467
3165 4 0.474214 0.394406 0.790857
3163 2 0.491742 0.406341 0.777608
1214 4 0.171083 0.449344 0.831876
1213 2 0.186955 0.464291 0.819635
3296 4 0.21986 0.490839 0.804334
1215 4 0.202827 0.479239 0.807394
3295 2 0.237153 0.479013 0.790687
1121 4 0.274204 0.467502 0.771978
1120 2 0.29383 0.452868 0.777064
3297 4 0.254447 0.467186 0.777039
1122 4 0.313456 0.438234 0.782149
885 4 0.325158 0.427217 0.771184
4132 2 0.401081 0.492427 0.818195
4134 4 0.400417 0.491868 0.793206
3017 4 0.0434476 0.0264725 0.868481
3098 4 0.00436954 0.0762218 0.872175
3018 4 0.0171549 0.0678377 0.858564
3016 2 0.0303012 0.0471551 0.863522
87 3 0.250093 0.02891 0.853003
86 1 0.266415 0.0148414 0.844952
88 3 0.28709 0.0250277 0.847635
89 3 0.265763 0.994972 0.856918
2596 2 0.290629 0.0750822 0.844136
1842 4 0.503857 0.0456866 0.863381
2522 4 0.445644 0.034619 0.87363
2523 4 0.493174 0.0300897 0.858761
2521 2 0.469409 0.0323544 0.866196
3356 4 0.0813647 0.153024 0.872272
655 2 0.153836 0.115946 0.862661
3355 2 0.104737 0.145734 0.867198
3357 4 0.12811 0.138443 0.862123
657 4 0.147364 0.139726 0.866879
656 4 0.160307 0.0921656 0.858442
940 2 0.211491 0.157208 0.913002
2597 4 0.309911 0.0731143 0.859931
3138 4 0.320344 0.0890522 0.855784