LAMMPS data file via write_data, version 4 Feb 2025, timestep = 18500000, units = lj

6000 atoms
4 atom types
4500 bonds
1 bond types
5250 angles
2 angle types

-12.037717 12.037717 xlo xhi
-12.037717 12.037717 ylo yhi
-12.037717 12.037717 zlo zhi
0 0 0 xy xz yz

Masses

1 1
2 1
3 0.1
4 0.1

Bond Coeffs # harmonic/omp

1 100 0.45

Angle Coeffs # harmonic/omp

1 100 180
2 100 109.471

Atoms # full

394 79 3 0 6.808817066336093 -11.574613315040441 -11.546921848328601 6 0 0
391 79 1 0 7.063563144927404 -11.584290276244754 -11.923225501213127 6 0 0
393 79 3 0 7.44297648610182 -11.317597348948604 -11.870892994922354 6 0 0
4982 1161 4 0 9.213172958999259 -11.83508848122405 -11.178670110687293 15 1 0
1602 321 3 0 9.318986562406547 -11.997996613754513 -11.533006610116189 4 0 1
1601 321 1 0 9.527014261661318 -12.02160268092 -11.939831343253598 4 0 1
4743 1081 4 0 10.555149338271445 -11.318086878455995 -11.881976856023002 3 0 1
1528 306 3 0 -1.5044462899633455 -10.892377256256884 -11.508288622405363 5 0 1
4741 1081 2 0 10.857204405152892 -11.09712312869622 -11.605226345369546 3 0 1
4742 1081 4 0 11.13324968132861 -10.899095772870984 -11.35279525353703 3 0 1
5480 1327 4 0 11.705112973809943 -10.492841402196289 -11.844564114365902 13 1 0
423 85 3 0 11.80862516564192 -10.662709915875615 -11.503671802261612 3 0 0
2192 439 3 0 -4.063492112631518 -9.85639210259068 -11.668875559680611 15 1 0
2191 439 1 0 -3.7955625943093363 -9.55937340240589 -11.82468439799963 15 1 0
2194 439 3 0 -3.6391634059388753 -9.286161797747901 -11.473357944320894 15 1 0
2195 439 3 0 -3.449666050305499 -9.771703516454677 -12.022744237218536 15 1 0
4907 1136 4 0 0.8309330111873336 -9.460587008256988 -11.470173815458757 15 1 0
3538 708 3 0 1.188322891896437 -9.440647475543011 -11.316005426487852 14 1 1
3537 708 3 0 1.2393703725847605 -9.774326896536614 -11.961268103596367 14 1 1
3536 708 1 0 1.4649656181173487 -9.549667363436253 -11.645891934997662 14 1 1
3539 708 3 0 1.7984383530428012 -9.81155077645378 -11.489633240166656 14 1 1
405 81 3 0 8.221305041492979 -9.532799538507327 -11.225728973227632 6 0 0
5754 1418 4 0 11.625086333337102 -9.752557593973247 -11.223083294445924 13 1 1
5752 1418 2 0 11.803846982704599 -9.340184450251943 -11.158660503868916 13 1 1
148 30 3 0 -6.779394424490073 -9.026770107276556 -11.4065060808874 4 0 0
4906 1136 2 0 0.4493528324118454 -9.256782566814579 -11.29526678987776 15 1 0
3540 708 3 0 1.6301337830608649 -9.170406901285023 -11.8258185250473 14 1 1
401 81 1 0 8.21226638769205 -9.089970790288033 -11.341721598998438 6 0 0
402 81 3 0 8.148199318452026 -9.050391508374698 -11.785052967313577 6 0 0
403 81 3 0 8.608176064974039 -8.910679564370836 -11.22798521088814 6 0 0
4831 1111 2 0 -11.943006332631809 -8.212188195211649 -11.36464912294668 15 1 0
4832 1111 4 0 -11.980688165808148 -7.859322864299771 -11.619868266670807 15 1 0
3998 833 4 0 -9.698381268761086 -7.46237985329915 -11.720205317836237 4 0 0
1155 231 3 0 -9.332528101734585 -7.450998406318968 -11.556259797721124 5 0 1
4765 1089 2 0 -6.21121756910216 -7.604785004692092 -11.346890628060615 4 0 1
4766 1089 4 0 -6.414552046354483 -7.474538408354637 -11.735286053381406 4 0 1
560 112 3 0 11.899210030685175 -7.752285856382027 -11.970926356709157 3 0 0
3997 833 2 0 -10.017381259810495 -7.325548217815845 -11.98335491645644 4 0 0
1151 231 1 0 -9.100030847456935 -7.27755126385263 -11.236813675854242 5 0 1
1153 231 3 0 -8.673833447586388 -7.1942698334234585 -11.378664098145315 5 0 1
5066 1189 4 0 -8.451933603237222 -6.87066384664521 -11.343216044415948 16 1 0
5065 1189 2 0 -8.213441898008142 -6.530332993394562 -11.209457276935204 16 1 0
2451 491 1 0 -7.086415166529617 -7.016007144233998 -11.917943977100322 5 0 0
2455 491 3 0 -7.3046866404829895 -6.960015884638858 -11.516013949393104 5 0 0
2453 491 3 0 -6.714049012799266 -7.213044289016648 -11.846069591938628 5 0 0
2679 536 3 0 -2.2808536599087024 -6.502777580240646 -11.99370692458043 13 1 0
4750 1084 2 0 1.6342886280780267 -6.76460618036023 -11.256796043488391 7 0 1
4752 1084 4 0 1.9215574478148252 -6.726144305830718 -11.589716184270573 7 0 1
1182 237 3 0 2.044866450254112 -6.64034335542534 -11.959228152212637 8 0 0
2069 414 3 0 4.530581530576509 -6.508088640185804 -11.39484582719555 8 0 0
2677 536 3 0 -2.5008581792503737 -5.8423153892089035 -11.753218816683944 13 1 0
2678 536 3 0 -1.8345345259754193 -6.1054968925297 -11.587763341417668 13 1 0
4346 949 4 0 -1.9221285219701407 -6.190133678667179 -11.195944579764523 4 0 0
2676 536 1 0 -2.1450547557931596 -6.087630870048647 -11.895936773576532 13 1 0
1183 237 3 0 1.822300115381351 -5.964559001676127 -12.036010172737672 8 0 0
1184 237 3 0 2.486453602536905 -6.1330990173195 -11.719250533584159 8 0 0
3834 778 4 0 2.8518064369451714 -6.2207759301098955 -11.574335491587489 6 0 0
3832 778 2 0 3.214144584811468 -6.107032079170752 -11.383816339987051 6 0 0
2067 414 3 0 3.9754268393023224 -6.0591508705563255 -11.325148550201954 8 0 0
3833 778 4 0 3.5812909118553247 -6.001638512913479 -11.190600338082236 6 0 0
2066 414 1 0 4.342598778475068 -6.16686402078374 -11.565489247648108 8 0 0
2068 414 3 0 4.633530705007434 -5.813566604654492 -11.553982441191486 8 0 0
2070 414 3 0 4.222237936938669 -6.255792057657433 -11.99248159001367 8 0 0
5721 1407 4 0 5.045927335740597 -5.8456345591761565 -11.566348415329344 16 1 1
5054 1185 4 0 -10.569365178179826 -4.693662372627692 -11.293992115841041 10 0 0
3944 815 4 0 -7.130631456694332 -5.160652396885295 -11.227880616395405 4 0 0
3943 815 2 0 -6.889739991328474 -4.981545890519763 -11.55723065256309 4 0 0
3945 815 4 0 -6.641042669876356 -4.798533379824849 -11.884139794768407 4 0 0
1961 393 1 0 -1.9492745638631064 -4.770449592920874 -11.890368682407253 4 0 1
1962 393 3 0 -2.023506486197091 -4.73911154331071 -11.431888325442406 4 0 1
1965 393 3 0 -1.5220689220813544 -4.893342260914254 -11.96590989370594 4 0 1
5719 1407 2 0 5.285009519013819 -5.537325717142707 -11.847325401548568 16 1 1
248 50 3 0 -11.9689753865472 -4.2394984188631035 -11.889938120367058 11 0 0
5053 1185 2 0 -10.762417468454695 -4.4338561029373835 -11.608754320959623 10 0 0
5055 1185 4 0 -10.95724445175313 -4.173659906107119 -11.924026474866292 10 0 0
1732 347 3 0 -6.282016215232087 -4.559328066323301 -11.965040794234218 4 0 1
5030 1177 4 0 -5.727828611441068 -4.331997961832791 -11.464940793899483 14 1 0
1735 347 3 0 -5.744656340870394 -4.097378802957953 -11.807326984764956 4 0 1
5701 1401 2 0 -4.232859541291526 -3.818248148426516 -11.735701333916987 5 0 1
5703 1401 4 0 -4.09241336738393 -3.8114898734320306 -11.287244559648487 5 0 1
833 167 3 0 -0.17873332153516053 -3.9034618387177993 -11.836278128891621 4 0 0
2720 544 3 0 5.846712332320568 -4.153180258862081 -11.343706192852235 15 1 0
5123 1208 4 0 6.158051991320363 -4.4221124865394685 -11.31606251087281 9 0 0
5122 1208 2 0 6.5871333714200055 -4.523695103879528 -11.18457122569786 9 0 0
132 27 3 0 6.101066152298614 -4.44499765844933 -12.003916976431295 6 0 0
1494 299 3 0 -7.864107518630045 -3.4303835369694013 -11.240936753130567 10 0 1
5116 1206 2 0 -0.8926777786521143 -2.830657300202395 -11.79494343599277 15 1 0
5117 1206 4 0 -0.6126577068851908 -3.119367228839982 -11.968080544852818 15 1 0
832 167 3 0 0.42760090599894873 -3.511300815040892 -12.014097742033211 4 0 0
835 167 3 0 -0.23294990762679824 -3.175446150449485 -11.863583152915108 4 0 0
831 167 1 0 0.036944355205749346 -3.5259348962962527 -11.757008402893174 4 0 0
834 167 3 0 0.14371521561223943 -3.510722556827531 -11.304849410327364 4 0 0
4789 1097 2 0 5.264064703473178 -2.959221193052075 -11.729975763826081 9 0 1
4791 1097 4 0 5.415079221585781 -3.261559261305356 -11.439497317107357 9 0 1
2719 544 3 0 5.291980116993102 -3.6331819769456786 -11.265097331141565 15 1 0
458 92 3 0 -2.1220141175144054 -2.1721705562703164 -11.42710002487857 6 0 0
457 92 3 0 -1.4916400169484092 -2.529154701627464 -11.360003153735024 6 0 0
5118 1206 4 0 -1.1801622414898194 -2.522186270566131 -11.605325714202241 15 1 0
4790 1097 4 0 5.104703630618438 -2.6543469567224047 -12.024438477348806 9 0 1
4196 899 4 0 -0.69460895033518 -1.3625214147470395 -11.25405120468184 6 0 0
3168 634 3 0 -0.3183118989778162 -1.5211422904533336 -11.271289960361514 17 1 1
3166 634 1 0 0.13797620733603821 -1.5519376768957471 -11.227298280520252 17 1 1
3170 634 3 0 0.35488007069842453 -1.420503236572726 -11.63898830304679 17 1 1
3875 792 4 0 0.6421196238997755 -1.1250964533801096 -11.623382157524981 8 0 0
5824 1442 2 0 -11.847055011303338 -0.010010941429182907 -11.24826806666581 12 0 1
3387 678 3 0 -10.87865220150493 -0.1373411675215177 -11.720720536082245 13 0 1
4603 1035 2 0 -6.716565479709912 -0.30682452112175973 -11.57580916811466 7 0 1
4604 1035 4 0 -6.6392414285739525 -0.660248961490062 -11.868549905441727 7 0 1
3874 792 2 0 0.9831904623903629 -0.8813363563373162 -11.820614135789526 8 0 0
3876 792 4 0 1.3176236138749733 -0.6415198925461585 -12.01752929317923 8 0 0
1848 370 3 0 1.7218956938648127 -0.5875595299020535 -11.975175703022215 8 0 1
206 42 1 0 4.871255777471827 -0.053597219128317164 -11.97108800943108 8 0 0
210 42 3 0 4.836929318647268 -0.19974452775734441 -11.544482476380553 8 0 0
804 161 3 0 7.1330329034862 -0.4789682120865759 -11.952710546053114 12 0 0
4811 1104 4 0 -10.993865565157554 -11.306503828168847 -10.818367190627011 17 1 0
225 45 3 0 -10.68547187192405 -11.510749176775983 -10.978256682428995 4 0 0
221 45 1 0 -10.481490701430367 -11.752407210445243 -10.66267775765296 4 0 0
223 45 3 0 -10.012275501274674 -11.710083179293898 -10.71222622072394 4 0 0
1529 306 3 0 -1.620546022766188 -11.499670616168547 -11.138148187626795 5 0 1
4981 1161 2 0 9.313933478218367 -11.899044599923235 -10.76451198523076 15 1 0
4983 1161 4 0 9.421312488552044 -11.954977556577543 -10.346658173667215 15 1 0
4810 1104 2 0 -11.395004342757254 -11.093704633815783 -10.783252701433163 17 1 0
4812 1104 4 0 -11.79814748801789 -10.876426840430637 -10.750870744948383 17 1 0
1526 306 1 0 -1.538614490971277 -11.056156582318 -11.113943435774948 5 0 1
1530 306 3 0 -1.8894437399219957 -10.84801825332679 -10.887141438705235 5 0 1
1527 306 3 0 -1.1736054232553546 -10.979916164953924 -10.898333784570859 5 0 1
422 85 3 0 11.270667909793094 -10.788361248682834 -10.997554275003237 3 0 0
421 85 1 0 11.648480107096315 -10.549011255638588 -11.083438474835702 3 0 0
425 85 3 0 11.966401108669192 -10.64017313192756 -10.769041990884238 3 0 0
4628 1043 4 0 -10.994509246608587 -9.400002369426314 -10.546144613376624 5 0 1
150 30 3 0 -6.785763325720504 -9.641790959105839 -11.004991554757789 4 0 0
3816 772 4 0 -5.9586118513937665 -9.39926287609553 -10.796861741580534 4 0 0
3814 772 2 0 -5.654925573585625 -9.505529589931285 -10.478423237640621 4 0 0
442 89 3 0 2.9267865270343787 -9.312747193452584 -10.272094097146176 3 0 0
424 85 3 0 11.548577694437594 -10.1069695759628 -11.080026550635793 3 0 0
4833 1111 4 0 -11.909106727021683 -8.572237373869774 -11.101132797073813 15 1 0
605 121 3 0 -11.843807252158067 -8.827530312527859 -10.785321750731189 3 0 0
601 121 1 0 -11.5304823654882 -8.720988655850219 -10.478622719302045 3 0 0
602 121 3 0 -11.22723257486707 -9.071488830742103 -10.445454511907746 3 0 0
604 121 3 0 -11.317299216328573 -8.364753389737746 -10.60580165493656 3 0 0
147 30 3 0 -6.907621168946496 -8.995274160270718 -10.710619869078181 4 0 0
3860 787 4 0 -6.933729458481792 -8.829222404672896 -10.354728054664404 4 0 0
149 30 3 0 -6.2408055075945725 -9.151335612849229 -10.934887609750037 4 0 0
146 30 1 0 -6.686414027934231 -9.201630598852645 -11.012025754107968 4 0 0
1278 256 3 0 -0.6118454048560338 -9.241827818165612 -10.606361154889145 5 0 0
1279 256 3 0 -0.4511314717628636 -8.586178070720965 -10.357053902593988 5 0 0
1276 256 1 0 -0.286006421915042 -8.962674069618892 -10.445847699881657 5 0 0
1280 256 3 0 0.03432039994124736 -8.91030473639022 -10.753669579216359 5 0 0
4908 1136 4 0 0.0910873001510275 -9.059200218803154 -11.12788539364602 15 1 0
445 89 3 0 2.42289473534049 -8.782731741939774 -10.298400482989086 3 0 0
4066 856 2 0 7.558511576686161 -8.707068272765246 -10.497596782971659 2 0 0
404 81 3 0 7.868226595607979 -8.880043333506046 -11.100893735052104 6 0 0
4067 856 4 0 7.63012950031624 -9.032479375342577 -10.815536208434356 2 0 0
4734 1078 4 0 8.994543279278261 -8.862681085355383 -11.109845243729726 3 0 1
4732 1078 2 0 9.342006081213658 -8.710737956771151 -10.897546231844586 3 0 1
414 83 3 0 8.710100091062685 -8.36070755993617 -10.537989341757632 9 0 0
4733 1078 4 0 9.697235667216294 -8.562286946669536 -10.681463685667703 3 0 1
787 158 3 0 10.036113935100992 -8.40364422070953 -10.802895165459548 3 0 0
788 158 3 0 10.712492015146108 -8.358022511070901 -10.502529151336383 3 0 0
5753 1418 4 0 11.988233536466868 -8.924957510993481 -11.08904049107324 13 1 1
4433 978 4 0 -10.987041691932756 -8.23571508728955 -10.40045763362671 4 0 1
4432 978 2 0 -10.57765971407761 -8.086723995404764 -10.527847713428546 4 0 1
4434 978 4 0 -10.17508577146641 -7.941979332216352 -10.65336923855527 4 0 1
1675 335 3 0 -9.96353951180736 -7.7812821060680175 -10.351186589215224 7 0 1
1154 231 3 0 -9.089557551093275 -7.551474080384566 -10.906713882693383 5 0 1
1673 335 3 0 -9.29808893664108 -8.07358276508813 -10.306779751897833 7 0 1
2674 535 3 0 -6.098930135193073 -7.491410502942767 -10.69277020501349 5 0 0
4767 1089 4 0 -6.0054501822192 -7.742784008333522 -10.957832914639702 4 0 1
786 158 1 0 10.287242089414278 -8.169208585024164 -10.51113625606972 3 0 0
789 158 3 0 10.319515628578692 -7.730916877729969 -10.653456939427397 3 0 0
4580 1027 4 0 11.050233301016274 -8.225254191032965 -10.337624963795825 3 0 1
1672 335 3 0 -9.379208689992865 -7.368909992423326 -10.5209193381368 7 0 1
1152 231 3 0 -9.293020594476104 -6.880256670741894 -11.11133458198572 5 0 1
1433 287 3 0 -7.185500444437015 -6.521176369348781 -10.675446725910254 4 0 1
2671 535 1 0 -6.010874721194018 -7.309666356966657 -10.28153862676766 5 0 0
2675 535 3 0 -5.836340637449116 -6.905075959935805 -10.33298157625637 5 0 0
712 143 3 0 0.46879189579533254 -7.075066156342487 -10.862895146286817 5 0 0
711 143 1 0 0.7243339462749088 -6.895288027508898 -10.501574599273662 5 0 0
715 143 3 0 1.07817857663931 -6.676101538380669 -10.654650188050612 5 0 0
713 143 3 0 0.4593133587592071 -6.610768471868002 -10.267366464442658 5 0 0
4751 1084 4 0 1.3551272871200055 -6.7966438237123565 -10.93439772721076 7 0 1
5067 1189 4 0 -7.98000208912967 -6.1873144955798995 -11.078312564455079 16 1 0
1435 287 3 0 -7.720765772828331 -6.026219912168873 -10.79736522650224 4 0 1
1431 287 1 0 -7.348419072392456 -6.110028027007211 -10.568970118303813 4 0 1
1432 287 3 0 -7.0256820103359034 -5.788463657110423 -10.68143086395529 4 0 1
4794 1098 4 0 -6.64545530146259 -5.710990839886876 -10.795243105644794 7 0 1
1429 286 3 0 -3.4754975059947437 -6.344446510941189 -10.47174315135117 5 0 1
4345 949 2 0 -1.8692734912317146 -6.141789296524055 -10.741457367553984 4 0 0
4347 949 4 0 -1.812185727935736 -6.093636567435199 -10.311105975381237 4 0 0
3285 657 3 0 -8.047252658981227 -4.848633487963609 -10.74289173152019 15 1 1
3283 657 3 0 -7.377202696631013 -4.876620398052626 -11.075936835600434 15 1 1
3284 657 3 0 -7.449430761280905 -5.140562822033008 -10.410237130598246 15 1 1
3281 657 1 0 -7.578707081295819 -4.826932346453967 -10.681781028177047 15 1 1
4792 1098 2 0 -6.278257705595493 -5.424042142472944 -10.73422905004675 7 0 1
4793 1098 4 0 -5.902228707530366 -5.126596931758771 -10.674590560823567 7 0 1
23 5 3 0 -5.876183631222741 -4.84749803780066 -10.367025958590055 5 0 0
5031 1177 4 0 -5.7004114041307 -4.783311263733453 -10.74312095034321 14 1 0
1767 354 3 0 -10.217479543414584 -4.590698082649279 -11.101408237835726 6 0 1
1769 354 3 0 -9.766120707568522 -4.468498083804575 -10.503565799190541 6 0 1
1768 354 3 0 -10.20755847048833 -3.9488154275817138 -10.72646299434481 6 0 1
1766 354 1 0 -9.952036206145811 -4.267743430796521 -10.860786963602596 6 0 1
1770 354 3 0 -9.633393788833468 -4.105541777358953 -11.135831202545154 6 0 1
3282 657 3 0 -7.4677552750084075 -4.427146688586855 -10.494883239538174 15 1 1
5144 1215 4 0 -7.121483396620217 -4.55073055378555 -10.323947665907793 14 1 0
5029 1177 2 0 -5.709649921187603 -4.563202313274552 -11.093221286286395 14 1 0
3903 801 4 0 -4.36973522972671 -3.8202008487362864 -10.277473479731965 4 0 0
3519 704 3 0 -3.8869285449752624 -3.968801544098893 -10.982113649430856 14 1 1
3516 704 1 0 -3.704422217938916 -3.8186940063705865 -10.61604566074951 14 1 1
3517 704 3 0 -3.481838941788684 -4.1684025579234785 -10.410461695842953 14 1 1
2718 544 3 0 5.4175812042422855 -4.152276937111312 -10.779320048031542 15 1 0
2716 544 1 0 5.612202962949269 -3.9017763172727005 -11.04232770069578 15 1 0
5124 1208 4 0 7.006224818988887 -4.623239065797334 -11.058913914467137 9 0 0
2364 473 3 0 7.1166764179607185 -4.40435647448011 -10.752253183622503 9 0 0
2361 473 1 0 7.418458080640562 -4.257054228671314 -10.444138005259617 9 0 0
2363 473 3 0 7.52465880064555 -3.8580337953214947 -10.538909796489776 9 0 0
2362 473 3 0 7.780909709496232 -4.527352378091566 -10.44898122657989 9 0 0
1493 299 3 0 -8.142573927147037 -2.8941151870903 -10.794046096256798 10 0 1
1491 299 1 0 -7.763310246999297 -3.0932906883106988 -10.92206752546802 10 0 1
1495 299 3 0 -7.559103373283963 -3.288234844968688 -10.546968776105064 10 0 1
3518 704 3 0 -3.405669327700595 -3.496588019677157 -10.71114745118242 14 1 1
3520 704 3 0 -3.9963977094026415 -3.6750847949409895 -10.355356851497172 14 1 1
3811 771 2 0 -2.7188795540480886 -3.0519566116785715 -10.85779014107221 5 0 0
3812 771 4 0 -3.0408374629273425 -3.3446762828943726 -10.79324631600543 5 0 0
3963 821 4 0 0.4071464105882203 -3.533040287158851 -10.985900822717682 7 0 0
3961 821 2 0 0.420021249387462 -3.477226956406426 -10.564686177953437 7 0 0
2717 544 3 0 5.881620829087783 -3.6383877180308684 -10.813523916665213 15 1 0
1492 299 3 0 -7.4707138106133515 -2.7757641822078973 -11.108846189700747 10 0 1
3813 771 4 0 -2.3749062917694115 -2.7362375437304056 -10.919645627836804 5 0 0
456 92 1 0 -1.812949719110275 -2.3168030148769496 -11.140439916637458 6 0 0
459 92 3 0 -2.0096329803394894 -2.6075009915755665 -10.819258517869867 6 0 0
460 92 3 0 -1.6460871908287356 -1.951844166558347 -10.932878053006416 6 0 0
4197 899 4 0 -1.2541699890626443 -1.9504052876120532 -10.929097914508002 6 0 0
3167 634 3 0 0.23546328827634078 -1.9548386353507965 -11.135900942113807 17 1 1
4195 899 2 0 -0.9587020643358546 -1.638339109525436 -11.102840071489721 6 0 0
3169 634 3 0 0.2694491497021527 -1.282915652971889 -10.893712592400565 17 1 1
3906 802 4 0 0.5400746275575035 -1.334120279987168 -10.609464483604148 12 0 0
4274 925 4 0 7.839541690765206 -0.9450398538771694 -10.298238375227825 9 0 0
4352 951 4 0 1.3089568880136735 -0.03724960270906408 -10.600798524887567 11 0 0
203 41 3 0 7.123015309816754 -0.856146601502882 -10.754348089521972 5 0 0
201 41 1 0 7.154835631309332 -0.630563561008989 -10.415710319659198 5 0 0
202 41 3 0 7.042904211712283 -0.2263254097601486 -10.505007352700217 5 0 0
204 41 3 0 7.595225720519121 -0.6329417539612141 -10.268423792570664 5 0 0
2153 431 3 0 11.016254093949602 -0.11890130857025838 -10.581009200590657 12 0 0
2154 431 3 0 10.935422228667118 -0.7698591203269665 -10.918341007782246 12 0 0
2151 431 1 0 11.225713566538264 -0.4979957584725341 -10.711629929108712 12 0 0
2152 431 3 0 11.558727139932213 -0.39662362459758604 -10.982289887495078 12 0 0
2155 431 3 0 11.385155487061134 -0.707257165030013 -10.338016336620262 12 0 0
5825 1442 4 0 11.897956758591306 -0.27116631847336414 -11.130141600381592 11 0 1
222 45 3 0 -10.601459086385692 -11.591189441671414 -10.235025481271391 4 0 0
4000 834 2 0 0.8908150770986918 -11.275035379483258 -9.719577203303661 5 0 0
4002 834 4 0 1.2536528870129846 -11.538039324916419 -9.770718886264591 5 0 0
76 16 1 0 1.6617077760367298 -11.995870901751868 -10.07568815273922 5 0 0
80 16 3 0 1.3917393407284848 -11.64854174548776 -10.13632608866631 5 0 0
77 16 3 0 2.0434784552247205 -11.846596827602236 -9.873465894060505 5 0 0
578 116 3 0 3.0531852226265865 -11.389379380619204 -9.365492791212171 3 0 0
577 116 3 0 2.548797625531156 -11.119782979417367 -9.812081416482362 3 0 0
4872 1124 4 0 3.27688016977204 -11.642207889073227 -9.56256566630884 15 1 0
4870 1124 2 0 3.6830748997186067 -11.806388815415776 -9.409512282182492 15 1 0
2149 430 3 0 9.912118094418009 -11.70829816695258 -9.649330093999385 16 1 0
1110 222 3 0 -11.064607500385385 -10.323748964564908 -9.634856112241009 4 0 1
2772 555 3 0 -1.5479740886562166 -10.422181109576083 -9.909810162052322 15 1 0
2771 555 1 0 -1.219674217830475 -10.58851704262392 -9.666168726575522 15 1 0
2775 555 3 0 -1.0476186992281296 -10.941272935029465 -9.87489844831934 15 1 0
2773 555 3 0 -0.8867112955343099 -10.269978833881254 -9.602267804258043 15 1 0
1973 395 3 0 -0.19015415733686858 -10.59901599396687 -9.38132551544526 5 0 1
4001 834 4 0 0.5371027797241101 -11.012999494846367 -9.66710603720288 5 0 0
576 116 1 0 2.844243448474648 -11.012349466624123 -9.501586125333494 3 0 0
579 116 3 0 3.1364259058617616 -10.715059757902441 -9.67314367353226 3 0 0
3828 776 4 0 3.390064402766395 -10.403291297867025 -9.713848225057403 3 0 0
4627 1043 2 0 -10.977758094256085 -9.72411531881566 -10.214240906249211 5 0 1
4629 1043 4 0 -10.962414425420253 -10.049637772170515 -9.884634057020662 5 0 1
3815 772 4 0 -5.354805107404455 -9.608971448708001 -10.17133279294716 4 0 0
2124 425 3 0 -4.968847757875564 -9.589375265903588 -10.04177905569018 15 1 0
5251 1251 2 0 -0.5853330396897221 -9.653250337771594 -9.629846038776842 15 1 0
5253 1251 4 0 -0.9000992033090238 -9.91484116510323 -9.39618824914054 15 1 0
5252 1251 4 0 -0.28059925396340724 -9.40514005939314 -9.85106147800959 15 1 0
3827 776 4 0 3.119913190389429 -9.606485485798673 -10.09054371387614 3 0 0
3826 776 2 0 3.2565848509298814 -10.007562757695258 -9.897951455186666 3 0 0
4530 1010 4 0 -11.975716041996872 -8.86336627525508 -9.819607179882558 3 0 1
603 121 3 0 -11.737149166429852 -8.661480926692272 -10.06194571577426 3 0 0
4528 1010 2 0 -11.746304374399854 -8.972216040793455 -9.399250855091934 3 0 1
3859 787 2 0 -7.075523383457681 -8.738814846149728 -9.936965337991392 4 0 0
3861 787 4 0 -7.214195701278158 -8.657049388208291 -9.534915204949598 4 0 0
1380 276 3 0 -7.552849294943623 -8.484074765385264 -9.446424607395976 4 0 0
4388 963 4 0 -5.462133466063109 -8.796392723497727 -10.0943746031001 4 0 1
4387 963 2 0 -5.658632545392713 -8.370105080180341 -10.133721875226776 4 0 1
2123 425 3 0 -5.264135893790669 -8.960003450091394 -9.783048555186452 15 1 0
2121 425 1 0 -4.941510741419869 -9.234360205742533 -9.7256311053307 15 1 0
2122 425 3 0 -4.545286932976116 -9.01715804798846 -9.768223308918984 15 1 0
1277 256 3 0 -0.09831582223998225 -9.152568480311066 -10.072470278870538 5 0 0
443 89 3 0 2.4335648493226945 -9.239352917814353 -9.736494325123415 3 0 0
441 89 1 0 2.6838738228761763 -9.022674356379593 -10.026801232407236 3 0 0
444 89 3 0 2.960931415785682 -8.747129686404262 -9.815007702873878 3 0 0
4523 1008 4 0 2.879473559733187 -8.369405270366656 -9.753078697248768 3 0 1
4068 856 4 0 7.475627054732847 -8.395011089227944 -10.17530058299957 2 0 0
412 83 3 0 8.78253842511998 -8.501299997905738 -9.84253726096388 9 0 0
1671 335 1 0 -9.537314172696274 -7.70139676963029 -10.24705440707734 7 0 1
1674 335 3 0 -9.513427896775417 -7.564971422138959 -9.816026565868878 7 0 1
4389 963 4 0 -5.847283281243291 -7.949432070962073 -10.183080967564713 4 0 1
2673 535 3 0 -5.72793641300118 -7.57591886342791 -10.061134706622138 5 0 0
4522 1008 2 0 3.0073061151522076 -8.034251405199427 -9.501010249512078 3 0 1
231 47 1 0 7.3388868683720645 -8.003502833167278 -9.549680074871743 5 0 0
234 47 3 0 7.207728730307537 -7.619555974841163 -9.721748173879742 5 0 0
232 47 3 0 6.963828646532182 -8.245483789154381 -9.473826154492757 5 0 0
415 83 3 0 8.305200641011737 -7.99599575686467 -10.066906185248994 9 0 0
233 47 3 0 7.612003667175319 -8.2191184345245 -9.840588512253609 5 0 0
411 83 1 0 8.709904382123902 -8.183802691951225 -10.148132499689638 9 0 0
413 83 3 0 9.037492134503673 -7.866058914934907 -10.113970611776347 9 0 0
315 63 3 0 9.19252084090395 -7.4671639995724775 -9.844955959133681 4 0 0
4661 1054 4 0 10.175297056981837 -8.017119686355686 -9.748994563841016 3 0 1
790 158 3 0 10.11191627510869 -8.188642638542136 -10.117050250550587 3 0 0
4579 1027 2 0 11.277611216740116 -7.994974932321873 -10.058893796931958 3 0 1
4581 1027 4 0 11.522447678034126 -7.751786907987055 -9.77821988028845 3 0 1
157 32 3 0 11.485431221061884 -7.432047833601528 -9.550857520208442 4 0 0
672 135 3 0 -8.284768858474019 -7.32921861851231 -9.464770076156295 4 0 0
674 135 3 0 -7.936624717393442 -6.683783918660217 -9.597465908567663 4 0 0
673 135 3 0 -7.524345790508578 -7.261786376435479 -9.375049442631825 4 0 0
3865 789 2 0 -7.023724086751908 -7.065871263713189 -9.966841261806845 6 0 0
3867 789 4 0 -7.41106977827219 -7.1004989740706685 -9.744026945586274 6 0 0
2672 535 3 0 -6.403169815894937 -7.264702763744793 -10.057732074249058 5 0 0
3866 789 4 0 -6.660822596320149 -7.020785716535235 -10.193625232190577 6 0 0
1427 286 3 0 -3.872897462070883 -6.780877769225256 -9.999212978923541 5 0 1
714 143 3 0 0.8586712376498742 -7.227957092183198 -10.227256947647062 5 0 0
311 63 1 0 9.180565098225902 -7.1107609781488215 -9.592276865926998 4 0 0
313 63 3 0 8.970294735770523 -6.757227232652404 -9.821839443702846 4 0 0
314 63 3 0 9.615176763422948 -6.994312017665833 -9.480063775575752 4 0 0
3936 812 4 0 9.899763046185814 -6.901759668859408 -9.769253876188216 4 0 0
3934 812 2 0 10.337029517507478 -6.791060520187977 -9.705507670254718 4 0 0
3935 812 4 0 10.78106232146516 -6.682591908082269 -9.64027851572645 4 0 0
158 32 3 0 10.92718889706461 -6.964352047399456 -9.414140657802177 4 0 0
3968 823 4 0 11.998140341258058 -6.7042645777246355 -9.557320593476339 4 0 0
160 32 3 0 11.598644806821667 -6.715547568732941 -9.456826760372872 4 0 0
1434 287 3 0 -7.43968674846987 -6.097483646109919 -10.131572233295646 4 0 1
3964 822 2 0 -4.7520130765462705 -5.737595379855779 -9.9603198796415 5 0 0
3965 822 4 0 -4.43402815895913 -5.99096341330686 -10.044129910489199 5 0 0
1430 286 3 0 -4.020631561865779 -6.059642031233314 -10.074683330140443 5 0 1
1428 286 3 0 -3.416628164989133 -6.249681130497784 -9.7356978396555 5 0 1
1426 286 1 0 -3.696194292687199 -6.356822692756283 -10.070499784219708 5 0 1
322 65 3 0 -1.6333205719534245 -6.009363245625041 -9.961189697245013 4 0 0
325 65 3 0 -1.007875735548616 -6.2651650629638915 -10.217541583451395 4 0 0
324 65 3 0 -1.1694230515486286 -6.367559564463226 -9.498974449354103 4 0 0
321 65 1 0 -1.2074630777124504 -6.078039820391283 -9.861975742386731 4 0 0
323 65 3 0 -1.012383166676024 -5.6879833643278985 -9.769628393041655 4 0 0
1145 229 3 0 0.7894472804477797 -5.736504030968451 -9.462651772585547 7 0 0
22 5 3 0 -5.806985855566402 -4.674249806782992 -9.598373349658452 5 0 0
21 5 1 0 -5.589651014419082 -4.865183392800268 -9.982614330675796 5 0 0
25 5 3 0 -5.484879067232758 -5.295742549103779 -9.895507560874703 5 0 0
3966 822 4 0 -5.116173824807804 -5.4586277602815265 -9.87311141734838 5 0 0
24 5 3 0 -5.21549055882927 -4.643479582051339 -10.059901954022896 5 0 0
4404 968 4 0 -0.818059940440822 -5.471553828643593 -9.502359609445465 4 0 1
5143 1215 2 0 -6.7357989124326485 -4.425898936406568 -10.103811518974942 14 1 0
5145 1215 4 0 -6.334410712035919 -4.296264091614937 -9.87277585278691 14 1 0
518 104 3 0 -5.966044282788156 -4.086651787332964 -9.929431323647968 8 0 0
3902 801 4 0 -5.261206469989428 -3.8353922136435976 -10.042329835804994 4 0 0
3901 801 2 0 -4.813452990861439 -3.8237856871517213 -10.156035582651354 4 0 0
2365 473 3 0 7.2379233176859685 -4.269170868135898 -10.053106064836514 9 0 0
517 104 3 0 -6.234733960755408 -3.4105290278998446 -9.96947352969727 8 0 0
520 104 3 0 -5.835575136007162 -3.6197890338414496 -9.391155691157016 8 0 0
516 104 1 0 -5.8893861137867285 -3.6569487125774405 -9.837037946155347 8 0 0
519 104 3 0 -5.49575750039691 -3.5214481234993666 -10.053612886991278 8 0 0
3991 831 2 0 -0.8848778054863455 -3.6427275928404512 -9.438640908584237 5 0 0
3992 831 4 0 -0.5447035154046738 -3.437424534949022 -9.657619101406866 5 0 0
118 24 3 0 -0.25085814339746193 -3.5199743463047586 -9.391504658471426 1 -1 0
3962 821 4 0 0.43269567205677184 -3.4170718057700498 -10.136623484778516 7 0 0
120 24 3 0 0.3066428816405029 -3.277468830232401 -9.799651756871155 1 -1 0
116 24 1 0 0.18981027415642338 -3.401020549985576 -9.394714645095538 1 -1 0
1209 242 3 0 9.262235202111281 -2.3615278365682233 -9.502039344468963 9 0 0
1206 242 1 0 9.394966030609979 -1.9212055288817371 -9.600146112449293 9 0 0
1207 242 3 0 9.822023435095005 -1.912164448166541 -9.67927800243003 9 0 0
9 2 3 0 -0.7024613797181463 -1.7175657994347606 -9.540173067832711 2 -1 0
3904 802 2 0 0.4374029123828773 -1.472017185465596 -10.166641838084667 12 0 0
10 2 3 0 -0.012590183366748775 -1.4993956100363217 -9.55740129985102 2 -1 0
3905 802 4 0 0.3473784501124051 -1.6096895961754303 -9.750962308815183 12 0 0
3133 627 3 0 3.4160066601289323 -1.3335256864183656 -9.569628236642238 9 0 0
4273 925 2 0 7.962280689249173 -1.058213956252894 -9.863866029277107 9 0 0
4275 925 4 0 8.080906671553013 -1.157678415162808 -9.462748187964161 9 0 0
1208 242 3 0 9.15694341417571 -1.763659629800216 -10.003567424299561 9 0 0
2003 401 3 0 10.073467447476617 -1.4892939250295605 -9.400030080895272 8 0 0
4080 860 4 0 10.989084639635955 -1.2862813321552142 -9.435606891954802 6 0 0
4078 860 2 0 11.275887090484257 -1.0407072590621453 -9.707939408277689 6 0 0
4056 852 4 0 -1.1883274179245316 -0.21310663575265743 -9.559425873687825 10 0 0
205 41 3 0 6.880745163475741 -0.799277205687245 -10.098982806372613 5 0 0
2002 401 3 0 10.186335359606772 -0.7346745849953358 -9.478622775804418 8 0 0
4079 860 4 0 11.543142958096428 -0.7941292513359066 -9.972638345352296 6 0 0
2359 472 3 0 -3.4787450213153512 -11.925912726341714 -9.305115922563955 16 1 0
5778 1426 4 0 -0.13653670147497365 -11.393115411639656 -8.60286308867113 17 1 1