LAMMPS data file via write_data, version 19 Nov 2024, timestep = 100000, units = lj

670 atoms
4 atom types
480 bonds
1 bond types
440 angles
2 angle types

-4.496439 4.496439 xlo xhi
-4.496439 4.496439 ylo yhi
-4.496439 4.496439 zlo zhi

Masses

1 1
2 1
3 0.1
4 0.1

Bond Coeffs # harmonic/omp

1 100 0.45

Angle Coeffs # harmonic/omp

1 100 180
2 100 109.471

Atoms # full

446 116 2 0 -3.331801718324207 -3.3662268338744457 -3.7381896769120133 0 1 1
447 116 4 0 -3.537685484806627 -2.994466585622448 -3.7382089538006733 0 1 1
448 116 4 0 -3.1045158261567662 -3.755783557869592 -3.743290054284962 0 1 1
259 53 4 0 -2.099467289037818 -0.7261881102807841 -0.5241980630023122 0 0 0
257 53 2 0 -1.9060101501835103 -0.6410289868795496 -0.9187884150925427 0 0 0
429 110 4 0 -2.7264839828200365 -3.678547868657744 -3.5709903196902384 0 1 1
428 110 2 0 -2.3667532798435778 -3.8003425026527498 -3.3169702939948027 0 1 1
430 110 4 0 -2.021206672339402 -3.9095212533548938 -3.0596235344773133 0 1 1
367 89 4 0 -1.6700781034205185 -3.9864418826258095 -2.950423918891246 0 1 0
365 89 2 0 -1.4437833524364305 -4.377048941885897 -3.1300206418464196 0 1 0
129 26 3 0 -3.5689936658711203 -2.7893673438027258 -4.081341349784518 0 1 1
594 165 4 0 -3.897937134406756 -1.9832273172186978 -3.970198993513191 1 1 0
128 26 3 0 -3.601026619546659 -2.018441744066051 -4.213672649943405 0 1 1
126 26 1 0 -3.3426991707614735 -2.4157795442632395 -4.286819648829285 0 1 1
593 165 2 0 -4.347079871687323 -1.8296140039350568 -3.962409804961847 1 1 0
278 60 2 0 -2.3928219190237434 -2.6227217818496564 -3.472991340968603 0 0 0
280 60 4 0 -2.71679086471108 -2.507744311339498 -3.798178978731045 0 0 0
130 26 3 0 -2.9317444180616983 -2.372905280712248 -4.109985668402292 0 1 1
380 94 2 0 -1.3364541167348756 -1.5717501973090418 -3.3219332529972707 0 0 0
3 1 3 0 -0.11886972498989426 -1.8166748838796154 -3.9552391459469223 0 0 0
1 1 1 0 -0.5551901476082816 -1.9212718022895783 -4.072072092234975 0 0 0
2 1 3 0 -0.556663587502106 -2.3241383044129575 -4.26911432009921 0 0 0
499 133 4 0 -0.5679657211248058 -2.7054778321904482 -4.3898592279951245 0 0 0
4 1 3 0 -0.7136415411209884 -1.6159913372712136 -4.342814198237168 0 0 0
5 1 3 0 -0.7959554033255534 -1.9338273483230461 -3.7209113344053093 0 0 0
382 94 4 0 -1.1028526804250833 -1.984226867577646 -3.456997466599671 0 0 0
497 133 2 0 -0.21643009586101838 -2.979877530515155 -4.418640849654043 0 0 0
256 52 4 0 -2.373776079505864 -0.9869134267901499 -4.2281063480016625 0 0 0
254 52 2 0 -2.5773225015662167 -0.9779991415009363 -3.805041806854853 0 0 0
255 52 4 0 -2.7832294666767443 -0.9625835808856897 -3.384473202642153 0 0 0
29 6 3 0 -4.439373105117227 -1.849544632622958 -0.25299750083780764 0 0 0
397 99 4 0 -3.3773032859451497 -3.9888009743546773 -1.9770327905312026 0 1 0
282 61 4 0 -2.9945459716611045 -3.861722110967664 -1.893988149600776 0 0 0
395 99 2 0 -3.6051874072307015 -4.20596666842938 -2.321312894039834 0 1 0
357 86 4 0 -4.275780492944591 -3.4372885210666904 -1.6476195436826935 0 1 0
108 22 3 0 -4.494571445836973 -3.1257098220140707 -1.7703914876878768 0 1 0
133 27 3 0 -1.8094838025009614 -3.6617707403414896 -2.7402260199817627 0 1 1
281 61 2 0 -2.6827203954532237 -3.5783997344095164 -2.0431754105251274 0 0 0
131 27 1 0 -1.7618269519792487 -3.259179985952819 -2.5686551340098314 0 1 1
135 27 3 0 -1.9588197188948706 -3.2316330545984 -2.1849698778742983 0 1 1
283 61 4 0 -2.3667367226220115 -3.290861967409616 -2.198104526690224 0 0 0
134 27 3 0 -1.32306226587867 -3.170241763219389 -2.520704543008587 0 1 1
279 60 4 0 -2.081768427103597 -2.7328484167953495 -3.159850191266764 0 0 0
132 27 3 0 -1.9503959778543594 -2.964079892219172 -2.8472744141487545 0 1 1
104 21 3 0 -3.762057220599391 -0.34262012312868395 -3.043087809889333 0 0 0
105 21 3 0 -3.6356397024562184 -0.5329776271001582 -2.3259177122688683 0 0 0
101 21 1 0 -3.8318298024542514 -0.2148546648927174 -2.6125143857464286 0 0 0
103 21 3 0 -4.265949571089229 -0.19141488617219182 -2.525093959207621 0 0 0
9 2 3 0 -1.9570472793190166 -0.34921831022799743 -0.3645233405357368 0 0 0
258 53 4 0 -1.7094178230183734 -0.5487757534069062 -1.3282515010598936 0 0 0
381 94 4 0 -1.5582919945125675 -1.186780444505731 -3.1912652238170485 0 0 0
268 56 4 0 -1.7800171247333745 -0.21838518654895556 -2.636645415574194 0 0 0
266 56 2 0 -1.6859122196210292 -0.6622115038114708 -2.7250083993576992 0 0 0
267 56 4 0 -1.587740987599238 -1.1090221448425437 -2.8006327983207333 0 0 0
668 190 2 0 -1.3137360816056893 -0.22028808482620862 -1.8176651488848894 0 0 0
669 190 4 0 -1.6412258131783253 -0.48446053186237215 -1.7107744911269074 0 0 0
356 86 2 0 -3.927320461026422 -3.6246964306924165 -1.3880246931813227 0 1 0
392 98 2 0 -3.178918900703315 -4.266941221410832 -0.9096027529504491 0 1 0
358 86 4 0 -3.5991846480240626 -3.8059351202059566 -1.1374125035507814 0 1 0
393 98 4 0 -3.241143587692014 -3.9875747526911627 -1.2552877667883233 0 1 0
552 151 4 0 -1.7714447078284365 -4.412726543323066 -1.4648204633170803 0 0 0
561 154 4 0 -4.253872592909367 -2.664671654967197 -0.8186334850184764 1 1 0
396 99 4 0 -3.837855289186003 -4.425712823931509 -2.6648709442708047 0 1 0
30 6 3 0 -3.9342302137504133 -1.4070976036965233 -0.544291954081307 0 0 0
285 62 4 0 -0.07815384281109622 -1.4919428523387792 -3.6930004154729157 0 0 0
26 6 1 0 -4.278238154531032 -1.435474004203167 -0.2506629107805943 0 0 0
25 5 3 0 -2.0392650021872423 -0.9376175199463798 -4.434902373188849 0 0 0
616 172 4 0 -4.0312550988850955 -3.99275636859889 1.0926636625439075 1 1 0
614 172 2 0 -3.803672834166443 -4.283997503186283 0.8473561370674382 1 1 0
427 109 4 0 -4.227155034961765 -3.9331164641839664 1.4265243104501968 0 1 0
334 78 4 0 -4.406245089347374 -0.6326477895387138 2.9691026936601523 0 0 0
58 12 3 0 -2.065680154061559 -3.7480514162432526 0.6267484495613942 0 0 0
56 12 1 0 -2.3196608603577498 -3.965022793313595 0.9392226270487695 0 0 0
57 12 3 0 -2.306701848146811 -4.397595090920945 0.8464397599776342 0 0 0
59 12 3 0 -2.736301194638006 -3.8195933758562317 0.921608294632636 0 0 0
60 12 3 0 -2.1602134826517627 -3.8936047323673866 1.3359950849719502 0 0 0
383 95 2 0 -0.05324047614229598 -4.416892474364203 1.352603028326286 0 1 0
314 72 2 0 -3.3730716972243866 -1.689639348823007 0.9600536394750356 0 0 0
70 14 3 0 -4.331642682668302 -2.5882853029452755 1.0952055626153587 0 0 0
344 82 2 0 -4.4677633686586145 -2.3873641129695984 0.3567600979835778 0 0 0
315 72 4 0 -3.052118668852064 -1.5857939023161975 0.6320927564412689 0 0 0
67 14 3 0 -4.0662396972276245 -1.9197204445958793 1.2882322010058138 0 0 0
66 14 1 0 -4.2209444417668465 -2.3247550441831937 1.437413403726512 0 0 0
316 72 4 0 -3.6789036046268317 -1.7981197776018987 1.2717304595081043 0 0 0
49 10 3 0 -2.1295436319793444 -1.629299234987129 0.5754151194387849 0 0 0
46 10 1 0 -1.7684612929632413 -1.8421519798504746 0.749537731791441 0 0 0
47 10 3 0 -1.7604460887615827 -2.2586610707201085 0.6060661052533141 0 0 0
319 73 4 0 -1.6874833366296347 -2.0473640661840298 1.4991724254595507 0 0 0
50 10 3 0 -1.7934533940840212 -1.8508814552866057 1.197725109115546 0 0 0
48 10 3 0 -1.3824917536272026 -1.6266510872776228 0.6123736397859678 0 0 0
301 67 4 0 -2.817890382770017 -1.329153757928851 0.8153593375247332 0 0 0
299 67 2 0 -2.5919687231652317 -1.0377537524582576 0.5218161366782034 0 0 0
300 67 4 0 -2.3641593078822405 -0.742204984273894 0.23113810509808133 0 0 0
8 2 3 0 -2.2547852151115513 -0.37624073865738294 0.3177620085351107 0 0 0
10 2 3 0 -1.5750491853359352 -0.14860698778607762 0.22815050303644918 0 0 0
535 145 4 0 -1.3580653220904084 -1.2518736194868874 0.7208938668025394 0 0 0
533 145 2 0 -0.9498683740197298 -1.1108855722396962 0.6339869549642333 0 0 0
534 145 4 0 -0.5109674459681118 -0.9615346578151417 0.5417863196060638 0 0 0
327 76 4 0 -0.5548621305417308 -0.07444248356807948 1.2853109720990517 0 0 0
513 138 4 0 -0.1835416182528103 -0.962738420610975 0.7892584330055369 0 0 0
313 71 4 0 -0.624884281296501 -0.44037834026972084 1.4714711771450533 0 0 0
289 63 4 0 -4.072784845462319 -2.777125863748506 2.8030278218387883 0 0 0
117 24 3 0 -2.160884810428499 -4.385586366266034 2.1935539308174996 0 1 0
270 57 4 0 -2.383117883104175 -3.9474311264408906 1.6858572428673602 0 0 0
271 57 4 0 -3.1302560440143754 -3.9201491969573055 2.1838418795036567 0 0 0
269 57 2 0 -2.7542031268700264 -3.9335050730708576 1.9301275425194084 0 0 0
13 3 3 0 -3.0174768581322327 -3.919004920205612 2.558313142623616 0 0 0
439 113 4 0 -1.281138207121194 -4.4924573032745165 2.494173325025765 0 1 0
287 63 2 0 -3.9246121168887806 -2.7897643548882107 2.380056537262202 0 0 0
288 63 4 0 -3.782710296496632 -2.8016655661182543 1.9799900507414139 0 0 0
68 14 3 0 -3.901805354735595 -2.5194302458514097 1.6774213486352518 0 0 0
37 8 3 0 -1.4265790068109965 -2.5014776686693554 2.62964862391519 0 0 0
318 73 4 0 -1.2876258676707597 -2.4133080056751393 2.250578643386761 0 0 0
317 73 2 0 -1.4907551962998185 -2.2242870704911826 1.8724446188236685 0 0 0
322 74 4 0 -1.7850697059632812 -0.9010639875679818 3.5008172442100363 0 0 0
312 71 4 0 -0.3173904357268306 -0.911014206953346 2.1652557060097664 0 0 0
311 71 2 0 -0.4766878179529653 -0.6717493373929052 1.8051655437229561 0 0 0
24 5 3 0 -2.3937520430263035 -0.3568165270431535 4.258989932614689 0 0 -1
14 3 3 0 -3.6878500444644335 -3.7136539279084935 2.8784844660485294 0 0 0
11 3 1 0 -3.2121507293696534 -3.81913722162715 2.953196361576848 0 0 0
22 5 3 0 -2.5474303247189005 -1.0476062920688831 4.019999136220881 0 0 -1
245 49 3 0 -4.434162115262541 -2.8622304895107087 2.9031272316787797 1 1 0
303 68 4 0 -2.9103912968678034 -3.0950609971910854 3.2387072232217955 0 0 0
15 3 3 0 -3.0074158365924064 -3.4630212767554056 3.132968928693399 0 0 0
12 3 3 0 -3.17680642322161 -4.18471508142747 3.2452715997156547 0 0 0
307 69 4 0 -1.922212041609892 -3.6266175570220964 4.294603060857786 0 0 0
305 69 2 0 -1.7870399811467375 -3.417163296889872 3.932262528715039 0 0 0
306 69 4 0 -1.645898182139242 -3.1901547478411687 3.5462143309639695 0 0 0
302 68 2 0 -3.103577508355184 -2.835316082456751 3.561138637331287 0 0 0
304 68 4 0 -3.2938048880347415 -2.5859882281048034 3.859839287889023 0 0 0
350 84 2 0 -3.8968690401626374 -2.089171755775628 3.7023666442123733 0 0 0
352 84 4 0 -3.597046169784017 -2.334452644099069 3.985391087958703 0 0 0
351 84 4 0 -4.169969615502037 -1.871098672791358 3.4218462468206785 0 0 0
127 26 3 0 -3.3121020406839095 -2.4901614261139624 4.2334625742911935 0 1 0
40 8 3 0 -1.7886149914509788 -2.1792443540790924 3.202624396424331 0 0 0
321 74 4 0 -1.637533413232843 -1.8094536137052917 3.290349453529252 0 0 0
38 8 3 0 -1.6042030909885636 -2.926747922779189 3.2426728049403426 0 0 0
355 85 4 0 -0.020619200745864645 -2.0227216554870213 3.2620020939104193 0 0 0
36 8 1 0 -1.4683968159030092 -2.49223510565787 3.075878686009422 0 0 0
39 8 3 0 -1.091306882550638 -2.3931417458925277 3.2566823783451007 0 0 0
353 85 2 0 -0.4812405384174886 -2.0468580449006057 3.3450294013839437 0 0 0
354 85 4 0 -0.910016671216385 -2.076182725318761 3.4115414184906845 0 0 0
320 74 2 0 -1.7121133020068728 -1.3711328553122237 3.387602146948368 0 0 0
45 9 3 0 -4.082939688758746 -1.6936120297877482 3.0603083488545075 0 0 0
44 9 3 0 -4.196570353651898 -0.9533463621780747 3.084262813843471 0 0 0
21 5 1 0 -2.219456603121998 -0.7722255402691559 4.16492489971324 0 0 -1
23 5 3 0 -1.8901076957669718 -0.7301120815503286 3.835903228752194 0 0 -1
295 65 4 0 -2.6181688502414353 -0.1649786953997069 3.9632082683907903 0 0 -1
347 83 2 0 -1.8043135630125189 -0.12981067908285907 3.3127847322249107 0 0 0
348 83 4 0 -1.888456870639989 -0.5018768863007721 3.4927241347415205 0 0 0
346 82 4 0 -4.354543894883551 -2.653757330496758 0.7065559106949587 0 0 0
41 9 1 0 -4.392313047930412 -1.3507240097665145 3.130766695406712 0 0 0
6 2 1 0 -1.9676882715474304 -0.151821110836686 0.05018685564663093 0 0 0
28 6 3 0 -4.129385787692179 -1.3343865008824143 0.18403454172098965 0 0 0
445 115 4 0 -2.2908320260135104 0.5894782545303265 -3.4628812466854706 0 0 1
443 115 2 0 -2.4310095843586774 1.0089269970279457 -3.545488758689743 0 0 1
444 115 4 0 -2.5696807941309796 1.4143787295021495 -3.6257564183866484 0 0 1
33 7 3 0 -1.3325402268912874 0.3406098714672366 -3.0913842258763777 0 0 0
260 54 2 0 -0.5885509579963579 0.27448901282323496 -3.404083494905409 0 0 0
262 54 4 0 -1.0788937674874346 0.3305032538555749 -3.3956021729660857 0 0 0
398 100 2 0 -3.3250709205800164 2.7990937187040688 -3.810965564035669 0 0 0
399 100 4 0 -3.671115759293141 2.9550281905220506 -4.003175714692715 0 0 0
400 100 4 0 -2.965327380809198 2.6406980748737428 -3.612910140573955 0 0 0
80 16 3 0 -2.351988963658659 1.7111971209764234 -3.8107940498523374 0 0 0
78 16 3 0 -2.669624581471938 2.3722585392377 -3.6453225474956 0 0 0
76 16 1 0 -2.2952963664790746 2.177297893717411 -3.8209241424476397 0 0 0
77 16 3 0 -1.9198791930655086 2.310357229745891 -3.5671073366434776 0 0 0
363 88 4 0 -1.6672762047018865 2.2616725775637003 -3.2668599735362145 0 0 0
362 88 2 0 -1.399713073212689 2.5860504869769882 -3.251642988129873 0 0 0
79 16 3 0 -2.245159040924406 2.3117067155940854 -4.236511526023601 0 0 0
292 64 4 0 -3.7257154611883374 3.3263178038138475 -4.095501015256968 0 -1 0
290 64 2 0 -3.937374425601542 3.7330994501056076 -4.016550246753133 0 -1 0
291 64 4 0 -4.1402424641605045 4.138049082897568 -3.933873192608937 0 -1 0
95 19 3 0 -4.317534518675631 4.216913819419842 -3.5811200509719345 0 0 0
91 19 1 0 -4.44398510407029 4.127325920713782 -3.140875637981957 0 0 0
73 15 3 0 -1.2088931582209308 2.935171841380806 -0.7787169766487718 0 0 0
72 15 3 0 -1.0172495964512653 3.193764444590509 -1.4282201017403875 0 0 0
139 28 3 0 -1.7493950909763425 3.6743940731506464 -3.7118921475023496 0 0 1
136 28 1 0 -1.2973798263120153 3.6014798661131167 -3.717980861879546 0 0 1
138 28 3 0 -1.157807776478207 3.4936437861462997 -4.178461868309404 0 0 1
364 88 4 0 -1.0989123293993364 2.948577651322224 -3.2546051366728204 0 0 0
137 28 3 0 -1.204602993365683 3.2654632692054903 -3.4611915127029715 0 0 1
140 28 3 0 -1.0608312550725598 3.9939133180286954 -3.5697687835453022 0 0 1
434 112 2 0 -0.42662513638372246 4.207911144569149 -3.58299630471516 0 0 1
436 112 4 0 -0.8575774509048709 4.307978561674227 -3.452194995226026 0 0 1
366 89 4 0 -1.2290312184729073 4.227553315397851 -3.3128650153724233 0 0 0
405 102 4 0 -1.059704655630358 3.164238756942578 -4.390357621298076 0 0 1
102 21 3 0 -3.624221338419455 0.2085325399999949 -2.5360755548568776 0 0 0
417 106 4 0 -3.6492198031141956 0.5503848934541544 -2.3340441206253524 0 0 1
416 106 2 0 -3.386290506562128 0.897665562247066 -2.20460317629972 0 0 1
35 7 3 0 -2.0421087997869716 0.4698050240564179 -3.173124398474264 0 0 0
418 106 4 0 -3.1382841662148557 1.2369612969082984 -2.0820127580873486 0 0 1
31 7 1 0 -1.7033091509209308 0.46816700386329585 -2.891627340852429 0 0 0
97 20 3 0 -2.752270403470944 1.2523370367173756 -1.9532999370545094 0 0 0
34 7 3 0 -1.7964515035282698 0.17766032908930973 -2.5677146179185293 0 0 0
376 92 4 0 -1.551279588539843 1.2336013462689597 -2.595094624646648 0 0 0
32 7 3 0 -1.6495461827855138 0.873718078286681 -2.7132926642982236 0 0 0
374 92 2 0 -1.1697708581471478 1.4218667570287373 -2.5235365805730368 0 0 0
670 190 4 0 -0.9486436414332791 0.07584351190766868 -1.9314896721058747 0 0 0
198 40 3 0 -0.49082244041565604 0.8418893092382235 -1.5066924204020151 0 0 0
200 40 3 0 -0.8753038854332975 0.2296492861253391 -1.5848441537151112 0 0 0
99 20 3 0 -2.851550833711183 1.8695769883919757 -1.5618124301722758 0 0 0
98 20 3 0 -2.744929062252513 1.9245689016219418 -2.2992523121479964 0 0 0
96 20 1 0 -2.6415940755175207 1.6879566824510193 -1.9059254796864575 0 0 0
100 20 3 0 -2.1808654531737126 1.7226095960709398 -1.8310318325089898 0 0 0
378 93 4 0 -2.121430644461932 2.1013451243446304 -1.7134776751400118 0 0 0
377 93 2 0 -2.0183956957913596 2.516885346037098 -1.5987078573252194 0 0 0
379 93 4 0 -1.9173660648888957 2.9275087995597664 -1.4717722160904037 0 0 0
375 92 4 0 -0.7684016427491615 1.6096795097286605 -2.4451791859911043 0 0 0
402 101 4 0 -0.630209305893531 1.9991956045104422 -2.4566642197810857 0 0 0
401 101 2 0 -0.19399398094761883 1.9895762921560798 -2.3405074355185396 0 0 0
92 19 3 0 -4.127140846623374 4.262843010218315 -2.8681139513509133 0 0 0
485 129 2 0 -4.486129319695534 3.6087256641832397 -0.3746106416717828 1 -1 0
297 66 4 0 -0.4941174009309793 3.5072667106785667 -2.5147940238547926 0 -1 0
298 66 4 0 -0.9083698731054968 3.4617769848772046 -1.7013846907321786 0 -1 0
296 66 2 0 -0.7004733855642056 3.4823111451005975 -2.108671587345581 0 -1 0
261 54 4 0 -0.16903361674446454 0.22902957093669024 -3.4087094155418143 0 0 0
479 127 2 0 -0.001346579695657913 1.3763241893943496 -1.268074020644188 0 0 0
480 127 4 0 -0.43983250747922226 1.2349213468500635 -1.3519379519736678 0 0 0
196 40 1 0 -0.5604371561157 0.4293181171940477 -1.353249900530376 0 0 0
197 40 3 0 -0.6824437930280087 0.44094905396801654 -0.9290211134549463 0 0 0
631 177 4 0 -0.6884942387083627 0.779983612667253 -0.7112143845184665 0 0 0
199 40 3 0 -0.1580929865943866 0.17916339974249873 -1.3869367503922567 0 0 0
629 177 2 0 -0.510736713753307 0.90374560021791 -0.3042727837471363 0 0 0
585 162 4 0 -3.565952167823491 2.475206063085006 -0.842344070231686 1 0 0
584 162 2 0 -3.2200906688155486 2.3195631476755443 -1.0807067827078274 1 0 0
586 162 4 0 -2.9001037077161844 2.1667237921152465 -1.3108618480435317 1 0 0
75 15 3 0 -1.701301658965327 3.1815846103397276 -1.2623342875947863 0 0 0
597 166 4 0 -1.079007487660265 3.0647285240643822 -0.4297551249417901 0 0 0
486 129 4 0 -4.198745502858515 3.8733913105162006 -0.2052313847546856 1 -1 0
219 44 3 0 -3.173327228035737 4.239834061585328 -0.23308035251086687 1 0 0
217 44 3 0 -3.873632122675103 4.014717337196159 -0.37364555006266054 1 0 0
216 44 1 0 -3.5806292428787314 4.0976198691733625 -0.04795482004300663 1 0 0
394 98 4 0 -3.1280840259873557 4.4626125070712 -0.5760265661280926 0 0 0
74 15 3 0 -1.2676544901762028 3.6660269689876235 -0.9379624974721561 0 0 0
553 151 4 0 -1.4437611204575345 4.030145338113141 -0.8477915082373669 0 -1 0
551 151 2 0 -1.6168408251990232 4.312520818025687 -1.1626633153390284 0 -1 0
71 15 1 0 -1.2932489058119154 3.2430076012805924 -1.1078664206819975 0 0 0
435 112 4 0 -0.00937672484608435 4.123496424162272 -3.714347481036705 0 0 1
361 87 4 0 -1.7356079017990174 1.362646744860569 0.3216992163863484 0 0 0
359 87 2 0 -1.9278213814287835 0.9589641339450912 0.2889250187601749 0 0 0
454 118 4 0 -1.7211535971111545 0.4678493047754111 1.262035239288712 0 0 0
328 76 4 0 -1.3590037814322828 0.33529128655488916 1.180589774199987 0 0 0
630 177 4 0 -0.3352588057144954 1.0190698677621535 0.09622518599385604 0 0 0
326 76 2 0 -0.9471433260681551 0.12352435946102265 1.2341939764520646 0 0 0
226 46 1 0 -0.9640752949588944 2.735768788025464 1.1281395536485417 0 0 0
229 46 3 0 -0.9533777854429145 2.27776537728822 1.0139752789604626 0 0 0
253 51 4 0 -0.8797846590996159 1.9197270242575795 0.9126292502484056 0 -1 0
251 51 2 0 -0.5219111525550388 1.8013773600601126 0.6186276390756037 0 -1 0
252 51 4 0 -0.19298866376904805 1.690271794639649 0.34034131965265463 0 -1 0
228 46 3 0 -0.6079313410491071 2.828290540803869 1.3558630760069066 0 0 0
637 179 4 0 -3.3825058536014643 3.6526235992828817 1.4471031557655656 1 0 0
635 179 2 0 -3.372846171265646 3.5882768823771296 0.9925932329361252 1 0 0
218 44 3 0 -3.510820585794274 3.725654019604121 0.19113932403994105 1 0 0
636 179 4 0 -3.36590459018551 3.523818510321806 0.5196531862837945 1 0 0
220 44 3 0 -3.7462762868699953 4.429054379096086 0.23343392308880842 1 0 0
230 46 3 0 -0.9794632653663381 2.9779338991385003 0.7696241165973937 0 0 0
598 166 4 0 -1.245061778555891 3.110418504927893 0.4753371254443437 0 0 0
596 166 2 0 -1.1566121734548116 3.0852652223313664 0.014704846743437241 0 0 0
177 36 3 0 -4.130324572884074 1.0770156639889994 2.056481379717788 1 0 0
449 117 2 0 -1.167148985039949 4.244502605918004 3.3087701900450117 0 0 0
451 117 4 0 -1.0748252417384767 4.2170478191664476 3.755718318501178 0 0 0
404 102 2 0 -0.6940120454956005 3.130244023648467 4.322860379509776 0 0 0
52 11 3 0 -1.298762200250743 3.220634005721016 3.0432084916823214 0 0 0
453 118 4 0 -1.8286652551558111 0.9596710272082107 2.0090648513454097 0 0 0
339 80 4 0 -1.5528066990875895 1.0039399491284322 2.327711664603977 0 0 0
338 80 2 0 -1.4898263509450282 0.7572122770216552 2.691301779552306 0 0 0
452 118 2 0 -1.7767313887222398 0.7155919382510273 1.6331612174804115 0 0 0
406 102 4 0 -0.3267371511311367 3.095418039005591 4.036670240019919 0 0 0
55 11 3 0 -1.6730150175086809 2.8429413393251677 2.5267947841453635 0 0 0
325 75 4 0 -1.5093257850916424 2.497312386302292 2.465023479664417 0 0 0
324 75 4 0 -1.4358112898455908 1.81547585355173 1.8835137101213781 0 0 0
323 75 2 0 -1.479381784596727 2.1637610281546995 2.1769930187411735 0 0 0
227 46 3 0 -1.3238069225990976 2.8099755022685944 1.3638345946195511 0 0 0
423 108 4 0 -0.15466538503928245 3.1684442075778465 2.971567759779688 0 0 0
408 103 4 0 -3.045792660428124 3.7244289204179206 1.6523139374558413 0 0 0
118 24 3 0 -2.302298151041252 4.313685636967254 2.8523679337971446 0 0 0
371 91 2 0 -1.6039730880573682 3.4023817222335397 1.8472785995960166 0 0 0
407 103 2 0 -2.6527700998159864 3.676738716276467 1.8485553241095505 0 0 0
373 91 4 0 -1.867984548260254 3.743364392402902 2.014092122424329 0 0 0
409 103 4 0 -2.2302679468945152 3.630804913181012 2.0614463678718193 0 0 0
119 24 3 0 -2.0684024014853355 3.899200113903413 2.3141397967507022 0 0 0
116 24 1 0 -2.0363446565648697 4.290639753548374 2.498578430975322 0 0 0
120 24 3 0 -1.6179929295400788 4.358605621961336 2.6270815231382327 0 0 0
450 117 4 0 -1.2706127742953797 4.2817365172556645 2.8296966700141923 0 0 0
583 161 4 0 -0.5103468221169228 3.1662201418519595 1.55434205445772 0 0 0
581 161 2 0 -0.4985656734939808 3.6121478076357723 1.5744065643892762 0 0 0
372 91 4 0 -1.3445111410461246 3.070780328196018 1.6621978766235872 0 0 0
424 108 4 0 -1.0496256147828402 3.0976426187217356 2.744745089982857 0 0 0
437 113 2 0 -0.9075014241249809 4.409817919063496 2.2215851396575244 0 0 0
438 113 4 0 -0.5070719011484379 4.300716633747743 1.9332277192049354 0 0 0
582 161 4 0 -0.4716401699380621 4.110519214616686 1.5896868591972808 0 0 0
385 95 4 0 -0.21955054492342777 4.451246679263724 1.6889648421847496 0 0 0
422 108 2 0 -0.5905308590983542 3.134935402837316 2.858130587177404 0 0 0
476 126 2 0 -4.240438816544103 0.2146476213940682 4.1341434132048365 1 0 -1
478 126 4 0 -3.811853421713561 0.2525803616525646 3.97638479880448 1 0 -1
294 65 4 0 -3.4257475423610835 0.24775231028421793 4.014584769079695 0 0 -1
293 65 2 0 -3.0193533785481557 0.0385583196913682 3.990120382103558 0 0 -1
340 80 4 0 -1.437263080323923 0.5348618425950812 3.0255589251211155 0 0 0
349 83 4 0 -1.7167371833245908 0.2761405744806475 3.123476368915386 0 0 0
410 104 2 0 -0.39932671938286085 1.1067467960491293 3.9739361193553204 0 0 0
54 11 3 0 -2.0560054413774482 3.253975600104556 3.007194111806457 0 0 0
412 104 4 0 -0.8307347250570739 0.9618220631137349 4.016131514831849 0 0 0
53 11 3 0 -1.7203355458969092 2.6418275575704024 3.2061816552229825 0 0 0
433 111 4 0 -1.927629091937952 2.479180110171886 3.50616274689004 0 0 0
432 111 4 0 -2.1781922110123 2.3441262379497902 4.335678991447483 0 0 0
431 111 2 0 -2.058374721187764 2.4070646992027838 3.9268718202545467 0 0 0
51 11 1 0 -1.6871540004047572 2.98393754027346 2.942211724677732 0 0 0
309 70 4 0 -4.021347644156551 3.680088171007506 3.409932331091353 0 -1 0
441 114 4 0 -3.657308451130647 3.6954666970712986 3.5494142365803385 0 0 0
440 114 2 0 -3.3981036416913986 4.080216097815614 3.5105656878449696 0 0 0
308 70 2 0 -4.433331322703014 3.586109217577298 3.541699990400844 0 -1 0
442 114 4 0 -3.1498798503290235 4.447610554887636 3.4845676315208323 0 0 0
180 36 3 0 -4.477132108288857 0.48856000011899003 2.3034431264560093 1 0 0
550 150 4 0 -4.487917477704964 3.5727198770741393 2.3834781067965256 1 -1 0
615 172 4 0 -3.5719944172757083 4.404636236649584 0.5928767082409134 1 0 0
7 2 3 0 -2.1025702551170338 0.25544524814978764 0.011586889237972799 0 0 0
360 87 4 0 -2.114419934458765 0.5675574417195308 0.25148201876292975 0 0 0
238 48 3 0 1.2112033427267241 -4.409027927960591 -3.8480836704466688 0 1 1
239 48 3 0 1.3443555510962202 -4.339773690539668 -3.133541296757365 0 1 1
214 43 3 0 3.083420375926974 -0.23426330466063094 -1.4233946637868655 0 0 0
461 121 2 0 4.396661041829342 -3.1044491959368523 -3.3289129478665123 0 0 0
462 121 4 0 4.318235587347292 -2.9402234363377264 -3.7658722257040016 0 0 0
154 31 3 0 2.528398507093995 -3.3076108112295355 -4.250121105679478 0 0 0
467 123 2 0 2.3877629345446763 -2.7310872954785017 -3.6302302850742842 0 0 0
469 123 4 0 2.4553027490794905 -3.034214585187705 -3.9690083344283553 0 0 0
468 123 4 0 2.338465300619262 -2.452177599094514 -3.319582409274323 0 0 0
148 30 3 0 2.8704729232571635 -1.5919136332360926 -3.0524938981180023 0 0 0
595 165 4 0 4.233980778736696 -1.6910879779844679 -3.9546353180321003 0 1 0
19 4 3 0 0.4854001214913396 -0.39117070045310054 -3.619115321368558 0 0 0
286 62 4 0 0.3221871630561717 -0.7024550288211318 -3.421440948556159 0 0 0
161 33 1 0 1.3256768128070804 -0.9240713518671396 -4.2599435150658 0 0 0
284 62 2 0 0.12482667817604448 -1.0988786678455698 -3.5532305521972227 0 0 0
391 97 4 0 3.918024508308839 -4.329328860635153 -3.142345728255526 -1 1 0
276 59 4 0 3.4754904147817283 -0.35392576803583903 -0.38164657562374343 -1 0 0
162 33 3 0 1.3901420765019614 -1.0757499571138396 -3.8127217062937753 0 0 0
648 183 4 0 2.1700904917686983 -0.3227080357479542 -4.2683527006553685 0 1 1
163 33 3 0 1.7176832581756547 -0.7003792719955124 -4.412473527094123 0 0 0
483 128 4 0 2.5321922300386612 -0.20588511654720593 -4.092386587936573 0 0 0
482 128 2 0 2.923020636040707 -0.05137307406588353 -3.890194140922547 0 0 0
274 58 4 0 3.9727181105436475 -1.5383791697578997 -3.6918641453722922 0 0 0
272 58 2 0 3.6120272467573784 -1.4448360349708762 -3.9343463082510723 0 0 0
273 58 4 0 3.2401365344086237 -1.3384425791065446 -4.172206405715167 0 0 0
579 160 4 0 1.5321052002941395 -4.057228688458354 -2.9413240499312376 0 1 0
580 160 4 0 1.7579435030303439 -3.5640368701532847 -2.2509655912726 0 1 0
578 160 2 0 1.6431337018213428 -3.8108087543865294 -2.596706743195794 0 1 0
510 137 4 0 2.135215720686488 -3.4496370186930134 -2.211305155213218 0 0 0
509 137 2 0 2.5057446180357026 -3.5491039651749903 -1.9362379041686297 0 0 0
389 97 2 0 3.941240559471674 -4.02240074238029 -2.783943461105408 -1 1 0
390 97 4 0 3.9690734197627804 -3.7354038769839266 -2.449277441425633 -1 1 0
107 22 3 0 4.102275899315818 -3.701506682099455 -2.0505139455942847 -1 1 0
106 22 1 0 4.211167834763169 -3.2453979058844236 -2.0961632477969654 -1 1 0
110 22 3 0 3.854506890881297 -3.017194735211586 -2.0689554104282846 -1 1 0
504 135 4 0 1.5426241403392646 -1.9634752500186519 -1.7389393020974337 0 0 0
149 30 3 0 2.4704113811268313 -2.170221838291931 -3.0486700574164973 0 0 0
146 30 1 0 2.670131953180888 -1.8690477961994614 -2.794365121210237 0 0 0
503 135 2 0 1.7567788485656533 -1.810563713236319 -2.085370860535378 0 0 0
147 30 3 0 2.9469066934036303 -2.0540928117234647 -2.5453565305062362 0 0 0
505 135 4 0 1.9820088450784616 -1.64508242419858 -2.4378001558423215 0 0 0
463 121 4 0 4.467033691317823 -3.259189668028257 -2.901619918067381 0 0 0
109 22 3 0 4.422598993673716 -3.1742962399422727 -2.5176318127440456 -1 1 0
472 124 4 0 3.1924829113761692 -2.1981998408144334 -2.287113594016031 0 0 0
471 124 4 0 3.4537484999490844 -2.9962385820598425 -2.0089783610719123 0 0 0
470 124 2 0 3.3197700672129384 -2.6053114847489858 -2.1494865070367135 0 0 0
212 43 3 0 2.866127563529265 -0.4054617461473937 -2.095478891121246 0 0 0
150 30 3 0 2.362755360564332 -1.6582991429077232 -2.5463776841143253 0 0 0
502 134 4 0 2.2019038135265063 -1.32224094417786 -2.408687735060058 0 0 0
501 134 4 0 2.491018278602705 -0.5108271912610417 -2.029601263198321 0 0 0
500 134 2 0 2.348994303122683 -0.9141915902463507 -2.2191914077363997 0 0 0
27 6 3 0 4.385095041161181 -1.1435679035035315 -0.37519451924416364 -1 0 0
622 174 4 0 3.5336202443282656 -0.173389051939927 -2.157498271094739 0 0 1
620 174 2 0 3.9379431251270547 -0.19370846380292317 -2.3784665688410107 0 0 1
511 137 4 0 2.8468841023287483 -3.6362722425146075 -1.6663049190954229 0 0 0
224 45 3 0 2.96816044439014 -3.4425071811435135 -1.3195866203832267 0 1 0
667 189 4 0 3.626580328394984 -3.362774908514518 -0.39428349527203244 0 1 0
225 45 3 0 3.327864365675373 -3.309394901086443 -0.6549615520344516 0 1 0
221 45 1 0 3.3934954350008457 -3.4246458027124267 -1.0953832691514729 0 1 0
222 45 3 0 3.5989072605456616 -3.839869619213111 -1.1204326438381007 0 1 0
211 43 1 0 2.992302602184653 -0.06650943038607963 -1.8125838330236195 0 0 0
459 120 4 0 1.327299194028982 -2.0626404955740614 -1.4170515681937703 0 0 0
458 120 2 0 1.3351713068674884 -2.4067511345825587 -1.1544336980903347 0 0 0
460 120 4 0 1.3419019210436525 -2.7732463198297563 -0.866443355239935 0 0 0
277 59 4 0 4.188823546505032 -0.8559990564302062 -0.17404293265384568 -1 0 0
223 45 3 0 3.653627968468846 -3.115708348117563 -1.290927868524278 0 1 0
560 154 2 0 4.393630736079804 -2.8641398974879126 -1.0265109570622815 0 1 0
562 154 4 0 4.053802845245541 -3.0639379010101258 -1.2420452006810137 0 1 0
495 132 4 0 4.411605282183797 -2.8746299451088357 -4.151574301500735 0 0 0
621 174 4 0 4.343710185578579 -0.2176631113482822 -2.607326826193445 0 0 1
174 35 3 0 2.712980613036403 -0.0016505602697726978 -0.5873350363225657 0 0 0
171 35 1 0 2.7817241311154564 -0.12191156717423968 -0.15340132196894585 0 0 0
172 35 3 0 2.4963631118191794 -0.44168161806157524 -0.053408111069576616 0 0 0
275 59 2 0 3.8326280662710834 -0.6066016798829864 -0.27644906091287025 -1 0 0
173 35 3 0 3.2179124048743724 -0.27081122511250977 -0.09080511472650629 0 0 0
628 176 4 0 1.0173317323418076 -4.295684896462327 -4.490464109488708 0 1 1