LAMMPS data file via write_data, version 4 Feb 2025, timestep = 8500000, units = lj

4000 atoms
4 atom types
3000 bonds
1 bond types
3500 angles
2 angle types

-10.515914 10.515914 xlo xhi
-10.515914 10.515914 ylo yhi
-10.515914 10.515914 zlo zhi

Masses

1 1
2 1
3 0.1
4 0.1

Bond Coeffs # harmonic/omp

1 100 0.45

Angle Coeffs # harmonic/omp

1 100 180
2 100 109.471

Atoms # full

3916 972 4 0 -8.600399489220951 -9.754514831504759 -10.39670865420755 0 1 1
3914 972 2 0 -8.56102533225302 -10.17320759529581 -10.467373414137853 0 1 1
1130 226 3 0 -8.706892350612007 -9.338888247770951 -10.420002426663952 1 0 0
3197 733 2 0 -7.035851878360641 -9.550226305156015 -9.449147688325972 0 1 1
3199 733 4 0 -7.006840003013978 -9.862614363940212 -9.769072024072289 0 1 1
867 174 3 0 -6.943967718787108 -9.674806197372632 -10.135171445939362 0 0 0
3198 733 4 0 -7.06541522480931 -9.232736156120172 -9.121041055563355 0 1 1
810 162 3 0 -8.560539208531614 -10.401629619524266 -1.9817873902608971 0 0 0
3037 679 4 0 -1.2337977952893433 -10.25829860233051 -10.355229242856526 0 1 0
949 190 3 0 -1.247069067307696 -9.55479547958748 -10.466880455589322 0 0 1
98 20 3 0 -0.5126524839505069 -10.506633390587949 -0.0069712514336524095 0 1 -1
2459 492 3 0 -3.897895130635552 -7.979923740103787 -9.224114215920647 1 0 0
2456 492 1 0 -3.9063395910000085 -7.513101783899912 -9.238191817412824 1 0 0
2458 492 3 0 -3.492929889521419 -7.360645253211573 -9.378626917347045 1 0 0
2788 596 4 0 -3.2097536594042695 -7.342752353528215 -9.64405397838581 0 0 1
2786 596 2 0 -2.9952332494669696 -6.999504811307648 -9.768875893373465 0 0 1
2852 618 2 0 -3.2046043966512063 -6.033444132511942 -9.08229241952383 0 0 1
2460 492 3 0 -4.225975418954127 -7.377324830815117 -9.524642023481881 1 0 0
2787 596 4 0 -2.7696681015596445 -6.650777279063689 -9.911427527794745 0 0 1
2271 455 1 0 -2.203640617763003 -6.189395667005247 -9.694234432790582 1 1 0
2273 455 3 0 -2.4113358323603524 -6.530980258604162 -9.900670949155726 1 1 0
2272 455 3 0 -1.7722668011533014 -6.330867270520081 -9.572130934917062 1 1 0
2274 455 3 0 -2.448170469487055 -6.069081011123014 -9.319825387547603 1 1 0
3331 777 4 0 -1.3606625260149874 -6.222680377629051 -9.590330724472334 1 0 0
2854 618 4 0 -2.839007408113045 -6.126634451674513 -9.318853069426078 0 0 1
3329 777 2 0 -1.1335095656240568 -5.983559392573604 -9.285218359794326 1 0 0
3330 777 4 0 -0.9157655207640657 -5.776108798535256 -9.00945579275021 1 0 0
1804 361 3 0 -9.395136202689235 -5.637615894184078 -8.97884319771577 0 0 1
394 79 3 0 -7.633566286797768 -5.7682687995116355 -9.704451672738774 0 0 1
391 79 1 0 -7.46498100399576 -5.7745312782288325 -9.282897789409084 0 0 1
392 79 3 0 -7.496007582455698 -5.352220639330383 -9.108986790055479 0 0 1
2952 651 4 0 -7.512443738034553 -4.986663346489774 -9.276429402135745 0 1 0
1408 282 3 0 -8.839299478866943 -5.5780191168233495 -10.376045539294553 1 0 0
395 79 3 0 -7.032847457947725 -5.9167618654950624 -9.283555958091556 0 0 1
2275 455 3 0 -2.1763474452511327 -5.82761567998067 -9.988324794613309 1 1 0
1350 270 3 0 -0.08838506473183819 -5.201324462554332 -8.79889789709349 0 0 0
36 8 1 0 -4.530508371683043 -3.0899388125538554 -9.119993274696158 0 -1 -1
38 8 3 0 -4.349966855793552 -3.510631661196088 -9.204032293932421 0 -1 -1
1 1 1 0 -9.866173974957688 -1.6505655525505412 -10.410857990865694 0 0 0
5 1 3 0 -9.741079264543105 -1.25727343020044 -10.254738893580068 0 0 0
3 1 3 0 -10.229460758439881 -1.7786106931154335 -10.198020968751013 0 0 0
1606 322 1 0 -6.4444116947090935 -2.54228803688079 -9.211807199287044 1 0 1
1608 322 3 0 -6.882849003945184 -2.448664316318558 -9.254561035923427 1 0 1
1607 322 3 0 -6.247776806232342 -2.4574491956879134 -9.599090568545174 1 0 1
39 8 3 0 -4.832615605182166 -2.987954510227817 -9.44394422258589 0 -1 -1
3996 999 4 0 -4.982122275517655 -2.758901981182 -9.77293183278388 1 0 1
3997 999 4 0 -5.871968899910162 -2.609823515406029 -9.621641814299085 1 0 1
3995 999 2 0 -5.424473097336787 -2.688596347646477 -9.69271648275742 1 0 1
40 8 3 0 -4.217131709270002 -2.8001404594434187 -9.116777077606427 0 -1 -1
3338 780 2 0 -0.4729035782495065 -1.8169781430224485 -9.101304130201802 1 0 0
3340 780 4 0 -0.3353875440660508 -2.2393953367894817 -9.21962509848957 1 0 0
79 16 3 0 -0.1823745376024204 -2.599217386610326 -9.261004632660422 0 -1 0
2971 657 4 0 -5.099606708126026 -10.365644862784563 -7.218084058574584 0 1 0
1144 229 3 0 -10.474973701356578 -0.6083294290074754 -9.357256251253084 0 0 0
2933 645 2 0 -1.2613805062620929 -0.018825597364842246 -8.687120862810726 0 1 -1
1645 329 3 0 -5.396392039498885 -0.3582314345350256 -10.486548790709584 1 -1 1
502 101 3 0 -7.408269596961823 -9.254932482526966 -8.390423996057105 0 0 1
2844 615 4 0 -3.9644810739886496 -10.387099554653533 -7.693162767527645 0 0 1
503 101 3 0 -7.0986955221959365 -8.870149227896254 -8.914245395043638 0 0 1
3666 889 4 0 -6.431004267009422 -8.796772904739404 -8.119860965372983 0 1 0
504 101 3 0 -7.2933822713166725 -8.506164362763995 -8.310484950611256 0 0 1
501 101 1 0 -7.128510543328861 -8.904308061581528 -8.484290719642976 0 0 1
505 101 3 0 -6.73288675167039 -8.993027230810831 -8.323316671295792 0 0 1
3665 889 2 0 -6.0193519313603385 -8.72854467731131 -7.94344742492626 0 1 0
3667 889 4 0 -5.608051824227641 -8.651184681429829 -7.763288810659077 0 1 0
1165 233 3 0 -5.449561780395864 -8.793911211333409 -7.42293919013131 0 1 0
1162 233 3 0 -4.936594928101049 -9.316496922443081 -7.586154968783889 0 1 0
3240 747 4 0 -3.8451102809407867 -7.531787379035952 -8.501533048643347 0 0 1
3239 747 2 0 -3.924881560253038 -7.815066338778284 -8.139211582768459 0 0 1
3241 747 4 0 -3.998914718011958 -8.085324181646534 -7.797135884261122 0 0 1
2457 492 3 0 -3.9808226222224703 -7.367411625880171 -8.846219723349463 1 0 0
1803 361 3 0 -9.197272708438586 -6.190007906782849 -8.474228887372766 0 0 1
387 78 3 0 -3.663694939067397 -5.814655189689852 -8.471397671311326 0 0 1
386 78 1 0 -3.7948111020432123 -5.939295871891783 -8.056896527368743 0 0 1
388 78 3 0 -3.6645043197363876 -6.348290143141394 -7.9808307612029985 0 0 1
2853 618 4 0 -3.609204281883812 -5.931350538368737 -8.833217146987405 0 0 1
390 78 3 0 -4.243881323306003 -5.9157611351421995 -8.021185207020316 0 0 1
1801 361 1 0 -9.12193072129722 -5.735094561215239 -8.626966779106365 0 0 1
1802 361 3 0 -9.203023947564928 -5.441495609096148 -8.290880386222753 0 0 1
1805 361 3 0 -8.689229502248459 -5.690106828445587 -8.741181155886196 0 0 1
393 79 3 0 -7.703684529458469 -6.062845026577557 -9.026734087397264 0 0 1
2951 651 2 0 -7.505229018197686 -4.524655557264707 -9.241596392748603 0 1 0
975 195 3 0 -6.244583926280399 -5.663628200909328 -7.793287805440775 0 1 0
974 195 3 0 -6.208311580763936 -4.981797229194164 -8.061545428218695 0 1 0
3889 963 4 0 -6.577444568339997 -4.797115599776715 -8.011919507985391 1 1 1
971 195 1 0 -6.008405732729102 -5.377500393345776 -8.04724209963541 0 1 0
972 195 3 0 -5.976914393676216 -5.5364836093208485 -8.461673726921543 0 1 0
3662 888 2 0 -4.909401613653795 -5.636365446785773 -7.942254418753532 0 1 0
3664 888 4 0 -5.366266903417885 -5.627159505537869 -7.982015609131478 0 1 0
973 195 3 0 -5.5970384843600804 -5.321999455153645 -7.8764816896766625 0 1 0
3663 888 4 0 -4.477653166021339 -5.629876058671146 -7.895064159004994 0 1 0
389 78 3 0 -3.608472342454032 -5.645692188436253 -7.750830241088828 0 0 1
1349 270 3 0 -0.5165028221152211 -5.769840494999006 -9.012521203477684 0 0 0
1346 270 1 0 -0.09029321151203966 -5.587364580768548 -9.016235730596984 0 0 0
1285 257 3 0 -0.22581129479674683 -4.662475793540057 -7.50161167973611 0 -1 0
1758 352 3 0 -7.641539572356312 -3.599312005379311 -8.38263306694772 1 0 1
2953 651 4 0 -7.494749588070301 -4.080145381699524 -9.194339826105338 0 1 0
1760 352 3 0 -7.495170729550108 -3.694554158209906 -9.109709107348325 1 0 1
3887 963 2 0 -6.738991921746674 -4.499847107332884 -8.287776945581093 1 1 1
3888 963 4 0 -6.902628031652183 -4.196117042815567 -8.560869651674526 1 1 1
1757 352 3 0 -6.945906113285012 -3.803683472155431 -8.629956930686046 1 0 1
1756 352 1 0 -7.323703456610578 -3.558080306493787 -8.728674681658593 1 0 1
1759 352 3 0 -7.204082527335406 -3.113315699586074 -8.767554553038693 1 0 1
37 8 3 0 -4.723766670205285 -3.0911206000699907 -8.731150430654582 0 -1 -1
2179 436 3 0 -9.184969647997098 -2.474757156005039 -8.86719435223277 0 0 0
3495 832 4 0 -8.105095326589286 -2.2657273564004674 -8.682236627600531 1 0 1
2177 436 3 0 -8.4971101075686 -2.291326292241907 -8.748446703109732 0 0 0
2180 436 3 0 -8.887309487633445 -2.6078149516417675 -8.218608480910897 0 0 0
3494 832 2 0 -7.742460516253121 -2.497239842623611 -8.770641675143613 1 0 1
2176 436 1 0 -8.897771466807962 -2.324067800155686 -8.567873719923059 0 0 0
2178 436 3 0 -9.027312479958841 -1.9001830726979523 -8.408407810928761 0 0 0
1610 322 3 0 -6.259654513930073 -2.281695913077748 -8.879012976061889 1 0 1
1609 322 3 0 -6.38818480323782 -2.9904999869451094 -9.113680548348958 1 0 1
3496 832 4 0 -7.372165943933453 -2.729940482043351 -8.861320308773713 1 0 1
2465 493 3 0 -6.384449260738068 -2.1355520604862055 -7.624467045785381 1 0 1
3561 854 4 0 -4.850399220875768 -3.062335068938014 -8.364685206357727 0 0 0
3560 854 2 0 -5.126677360241422 -2.7008177548767844 -8.243978148322169 0 0 0
3562 854 4 0 -5.405308101273531 -2.3517586522984395 -8.11440338351553 0 0 0
2462 493 3 0 -5.6926032801928095 -2.1350580530835286 -7.934743877660599 1 0 1
2461 493 1 0 -5.9386230925955275 -1.9816276586547341 -7.5805955956889095 1 0 1
1143 229 3 0 -9.901458966437279 -0.5913924203136569 -8.909417312968275 0 0 0
1141 229 1 0 -10.326913569056474 -0.6765232698557994 -8.941092422699384 0 0 0
1142 229 3 0 -10.392857239440815 -1.10923702198624 -8.828435112545893 0 0 0
3031 677 4 0 -10.477532547651206 -1.354303379784287 -8.507545142863869 0 0 0
2464 493 3 0 -5.936190984203693 -1.5085662535532838 -7.584729987415181 1 0 1
3339 780 4 0 -0.604426429454374 -1.3911368386312057 -8.995747289040363 1 0 0
1292 259 3 0 -0.6773544833627344 -1.2512285334188626 -8.609768354948544 0 0 0
1295 259 3 0 -1.3206251447997697 -1.1193563509105189 -8.26619999884482 0 0 0
1291 259 1 0 -0.8855570816003974 -1.0025720558362312 -8.295524070022207 0 0 0
1293 259 3 0 -0.6855010732244659 -1.0825326962141604 -7.89990448012577 0 0 0
3294 765 4 0 -0.5637062784958778 -1.452804417794396 -7.845940163470439 0 -1 0
2935 645 4 0 -0.9825775042709776 -0.3769012947001009 -8.703350710969653 0 1 -1
1294 259 3 0 -0.8488381850626858 -0.58904410314238 -8.395694168998633 0 0 0
1163 233 3 0 -5.181593866935077 -9.204184781846179 -6.900793866680318 0 1 0
1952 391 3 0 -4.761150451475005 -10.448132470615098 -7.04647364476693 1 1 0
1954 391 3 0 -4.321457553746245 -9.922987799161753 -6.719857849716223 1 1 0
1951 391 1 0 -4.319875356250708 -10.314975619159565 -6.952889630082166 1 1 0
99 20 3 0 -0.03547826273403017 -10.248481458891254 -0.45797658489990206 0 1 -1
1953 391 3 0 -4.098590164901096 -10.249191418452957 -7.32952769006258 1 1 0
3511 837 4 0 -2.836030895960445 -9.103590920794318 -6.939094111992512 0 0 1
1161 233 1 0 -5.090990267869712 -8.999884762723873 -7.26738264008518 0 1 0
1164 233 3 0 -4.745180924571339 -8.677598112161443 -7.185732161087853 0 1 0
2340 468 3 0 -3.8757918552124875 -8.082103193386882 -7.442137117518335 1 1 1
2339 468 3 0 -3.553434626191379 -8.086949321871378 -6.772054382320857 1 1 1
2336 468 1 0 -3.9464168567206377 -8.017706120998929 -7.001690875018371 1 1 1
2338 468 3 0 -4.088437589214952 -7.5940086124077535 -6.933071356405928 1 1 1
2337 468 3 0 -4.24702331160177 -8.306896459464786 -6.8667666737657385 1 1 1
3510 837 4 0 -3.4212441349452143 -8.394741025178224 -7.022521421193869 0 0 1
3509 837 2 0 -3.1245872003235684 -8.754603387539454 -6.981469494919981 0 0 1
3057 686 4 0 -3.7787861996227345 -6.596161171816286 -7.69146763138416 0 0 0
3056 686 2 0 -3.919634101111503 -6.9324692753181445 -7.396651382256275 0 0 0
3058 686 4 0 -4.058248433882518 -7.24062814534455 -7.120446244311426 0 0 0
2270 454 3 0 -0.19695195483018904 -7.485544845528685 -6.594716723741393 0 1 1
3229 743 4 0 -3.133423529277411 -3.0456555593715966 -6.469326973749722 0 0 1
1515 303 3 0 -3.229359845266603 -4.018028955443113 -6.357406378277394 0 1 0
1514 303 3 0 -2.8854045725257524 -3.389927078542358 -6.460053712012115 0 1 0
1512 303 3 0 -2.535976529801464 -3.938037814812891 -6.176168678425549 0 1 0
3872 958 2 0 -1.7951686306828212 -4.203850852540612 -6.035256063051132 0 1 0
1511 303 1 0 -2.924735028360458 -3.7378120789608893 -6.1952208650393485 0 1 0
3873 958 4 0 -1.3498400316220616 -4.231598061471531 -6.06365201455611 0 1 0
1854 371 3 0 -0.320492197176727 -4.278571410314157 -6.208185114457556 0 -1 1
3243 748 4 0 -0.08708393388021185 -3.977520399848751 -6.2223872169083565 1 0 -1
1853 371 3 0 -1.0264163229847536 -4.4779613032033065 -6.128107177038034 0 -1 1
3242 748 2 0 -0.13485276077925365 -3.5555586520030604 -6.375503416443519 1 0 -1
2463 493 3 0 -5.7625468236376065 -2.1432503036063113 -7.1706473501682195 1 0 1
2784 595 4 0 -5.824177885904101 -2.081464811793341 -6.77355203765601 1 0 1
2783 595 2 0 -5.497337503790733 -2.3148016737216177 -6.57501461535771 1 0 1
2785 595 4 0 -5.166965734455101 -2.558373117169919 -6.373466349566574 1 0 1
1594 319 3 0 -4.796984674433634 -2.4226198139789044 -6.44351901705525 0 1 0
3227 743 2 0 -3.439939790603668 -2.770473808534058 -6.5955634194992125 0 0 1
3228 743 4 0 -3.766210979252332 -2.485165181104832 -6.718544249351657 0 0 1
1593 319 3 0 -4.0917878624864565 -2.3646491648678576 -6.498487369327307 0 1 0
1591 319 1 0 -4.426270229276443 -2.316178840289758 -6.228257604043659 0 1 0
1595 319 3 0 -4.454926119773553 -1.882827569164284 -6.071752465056405 0 1 0
2554 518 4 0 -4.63057375478235 -1.5280958992762976 -6.063655611832743 0 0 -1
1622 325 3 0 -0.03814723370040072 -2.749452022419442 -6.570616740442084 0 0 1
3244 748 4 0 -0.1767031851576561 -3.139596243729304 -6.517679504519402 1 0 -1
3295 765 4 0 -0.07041359056423921 -1.8530129984695214 -7.172443184454157 0 -1 0
1625 325 3 0 -0.18900182859390216 -2.1757017825575042 -6.123425576283341 0 0 1
327 66 3 0 -10.123414626500018 -0.24954709522801213 -6.164112578100156 -1 0 -1
326 66 1 0 -10.512672630476827 -0.28126247256176407 -6.366116055992361 -1 0 -1
381 77 1 0 -2.8184772514818865 -1.3146836840677192 -1.4465926188220561 0 0 1
3293 765 2 0 -0.32867356969733147 -1.637565255469615 -7.519405287004687 0 -1 0
2576 526 2 0 -9.077829374070921 -10.051920759290145 -4.533057672824286 0 1 0
2578 526 4 0 -8.868916001477775 -10.41816341504184 -4.6218860880653185 0 1 0
1448 290 3 0 -6.072455583944254 -9.67186850810703 -6.028140937644591 0 0 -1
2741 581 2 0 -6.059232022786607 -10.218799410459452 -4.706153363028741 0 0 1
1447 290 3 0 -5.885331853489354 -9.223651963751555 -5.482378529364837 0 0 -1
1450 290 3 0 -5.750861968662339 -9.94512167147201 -5.428781080751249 0 0 -1
1446 290 1 0 -5.769044469185282 -9.59204303917712 -5.706416088667209 0 0 -1
2742 581 4 0 -5.91612016759297 -9.969180350538151 -5.062500933861835 0 0 1
3322 774 4 0 -5.016196561616979 -9.425855977721596 -5.905196219876414 0 0 0
1449 290 3 0 -5.39388005090439 -9.522463360433315 -5.884865398396917 0 0 -1
3320 774 2 0 -4.715215265892361 -9.458029036162188 -5.608669072652447 0 0 0
2433 487 3 0 -4.648850249977527 -10.212867978900416 -4.49689173214564 0 1 0
2305 461 3 0 -10.47269910213081 -3.5717659598833156 -2.0733295213476124 1 0 0
3679 893 4 0 -5.984009556766092 -8.825197607776394 -5.472250779066333 0 0 -1
3321 774 4 0 -4.390182880768934 -9.49939910869808 -5.285070840965643 0 0 0
2434 487 3 0 -4.363194586749685 -9.855712806536895 -5.1127241737980365 0 1 0
2431 487 1 0 -4.29983942888678 -10.215471854533318 -4.802416062604163 0 1 0
2432 487 3 0 -3.9181533587023756 -10.162614793721799 -4.5790651056263645 0 1 0
983 197 3 0 -2.4133888520488402 -9.225098410043124 -4.69853029299595 0 0 0
2737 579 4 0 -9.838559294529242 -7.76514019368607 -4.956631116659634 0 0 0
2735 579 2 0 -9.675420519952993 -8.068417830200811 -4.678802650697541 0 0 0
3677 893 2 0 -5.801957785179619 -8.451861215563705 -5.346880588455117 0 0 -1
3678 893 4 0 -5.6173435811285355 -8.077991787248688 -5.224194439510189 0 0 -1
2427 486 3 0 -5.874307644020868 -7.7814171304247735 -5.183271361092855 0 1 0
3077 693 2 0 -2.1140031066570355 -7.826465918461985 -4.72862826060478 0 0 0
3079 693 4 0 -2.118778979806938 -8.217438849667316 -4.448868898982795 0 0 0
982 197 3 0 -2.0159401953229272 -8.604792693302864 -4.518081017102203 0 0 0
479 96 3 0 -9.771252891973061 -7.6829540807063035 -5.3601730341592315 0 0 1
480 96 3 0 -10.286022022969021 -7.294799727065442 -5.769527798467939 0 0 1
476 96 1 0 -9.910787829146134 -7.251975334619536 -5.512068157974813 0 0 1
477 96 3 0 -10.001831711500563 -6.974924758920984 -5.150899379314499 0 0 1
478 96 3 0 -9.55550340660507 -7.060531246171105 -5.780791073558969 0 0 1
2710 570 4 0 -9.240001330659572 -7.176180172139716 -5.9739665475282875 0 0 1
2709 570 4 0 -8.540363642767314 -6.680902402632313 -5.634793160876709 0 0 1
2708 570 2 0 -8.874217080990242 -6.9168466223560445 -5.8003921144437385 0 0 1
1572 315 3 0 -8.163068055850218 -6.499479992977512 -5.65945394565643 1 0 0
1571 315 1 0 -7.843109124616647 -6.226679739824862 -5.4992951384370565 1 0 0
1573 315 3 0 -7.906109927828748 -6.162341549054981 -5.031978214300531 1 0 0
1574 315 3 0 -7.4611269777987985 -6.406538309294634 -5.566684306200704 1 0 0
3840 947 4 0 -6.501186925485781 -7.0047367330023675 -5.711248854240953 1 1 0
3839 947 2 0 -6.875007231862306 -6.803232218107527 -5.780861811543946 1 1 0
3841 947 4 0 -7.277997259678157 -6.586635970681439 -5.849079340122136 1 1 0
2429 486 3 0 -6.3116959883768216 -7.280516348437497 -5.519155236272578 0 1 0
2428 486 3 0 -5.589503682770803 -7.207267049972586 -5.558239772712133 0 1 0
2426 486 1 0 -5.929089312289325 -7.338335552731078 -5.297401872546124 0 1 0
2430 486 3 0 -5.92878394724037 -7.079793510923688 -4.922608652877597 0 1 0
2703 568 4 0 -5.654012480505409 -6.966194002592296 -4.6673414469525465 0 0 0
3230 744 2 0 -3.4328401685745984 -7.0422590677852615 -5.2448782693771046 0 1 1
3231 744 4 0 -3.836976810108948 -6.863979879199477 -5.3527218369663325 0 1 1
2259 452 3 0 -4.1271000483357545 -6.769771089843235 -5.086506882635278 0 1 1
2256 452 1 0 -4.235651837227381 -6.574080867647546 -4.697163761396645 0 1 1
2258 452 3 0 -4.410472610554463 -6.14148391487076 -4.773637850847872 0 1 1
3232 744 4 0 -3.0426426502023056 -7.214092390530782 -5.144447455754266 0 1 1
1302 261 3 0 -2.2360635177882604 -6.558658246637487 -5.445028153527435 1 0 0
3078 693 4 0 -2.096793335306093 -7.47104617889995 -4.977993980818663 0 0 0
1303 261 3 0 -2.382954640887593 -6.442011770063517 -4.728828760018935 1 0 0
1301 261 1 0 -2.3689557794731053 -6.747020264863915 -5.042628740813305 1 0 0
1305 261 3 0 -2.076289988099186 -7.07334691250787 -4.928758038029557 1 0 0
1304 261 3 0 -2.7831789685925252 -6.925634740619036 -5.094743589499593 1 0 0
920 184 3 0 -10.168645000448306 -5.262006256406132 -5.291335689505175 0 0 0
916 184 1 0 -10.18318312069474 -5.06211283137953 -4.858133959665332 0 0 0
917 184 3 0 -10.275264698447891 -4.626761657610739 -4.901227773290795 0 0 0
918 184 3 0 -9.76980118926426 -5.110403643388477 -4.654283324094501 0 0 0
1575 315 3 0 -7.855560652046913 -5.827331785889277 -5.703704843961072 1 0 0
1855 371 3 0 -0.5121712960785334 -4.884911125359643 -5.807995434567625 0 -1 1
33 7 3 0 -9.401013361197744 -4.379512374993358 -4.990484311349054 0 0 -1
35 7 3 0 -9.231283091719726 -3.7789084161763533 -5.399699408589089 0 0 -1
31 7 1 0 -9.075661030987115 -4.060481448950753 -5.082743650665248 0 0 -1
32 7 3 0 -8.708432188316891 -4.256105918675327 -5.223884166478482 0 0 -1
34 7 3 0 -8.970616046532594 -3.818096430466526 -4.711696698016223 0 0 -1
2920 640 4 0 -3.4635691392021415 -3.00943305290983 -5.056030372387064 -1 1 0
1513 303 3 0 -3.0424210623396304 -3.5928773251622044 -5.774559310686675 0 1 0
3874 958 4 0 -2.2508720004204776 -4.172447337521969 -6.0080702364270975 0 1 0
1851 371 1 0 -0.6388139194514654 -4.46544783821002 -5.918368831648048 0 -1 1
1852 371 3 0 -0.6825661252470056 -4.219828171132812 -5.554346129693727 0 -1 1
2919 640 4 0 -4.000480700621472 -2.6695305137910394 -5.749638498504737 -1 1 0
1592 319 3 0 -4.364818296232505 -2.594079784360729 -5.890925271870222 0 1 0
2918 640 2 0 -3.7247171942373294 -2.845552451904582 -5.392787768658511 -1 1 0
1748 350 3 0 -2.2651672731526027 -2.3405442381672303 -4.656047406753963 0 0 0
1746 350 1 0 -2.0102235649016995 -2.230360527906137 -5.014002322982667 0 0 0
1750 350 3 0 -2.2813823060237506 -2.0961973872953696 -5.348879973726366 0 0 0
1749 350 3 0 -1.7318629014016325 -1.892139873097741 -4.890050334135175 0 0 0
1747 350 3 0 -1.7616382839543014 -2.5880926468320564 -5.151522527769692 0 0 0
2404 481 3 0 -9.238478577422155 -0.48921509048398776 -4.779451279005314 1 -1 0
2552 518 2 0 -4.592013548029247 -1.208570688404318 -5.793768765109268 0 0 -1
2553 518 4 0 -4.563725869705913 -0.8724024934548369 -5.515776132797071 0 0 -1
2172 435 3 0 -4.549828767622212 -0.609337976143738 -5.207624250212656 0 0 0
2175 435 3 0 -3.942536191780761 -0.40236097046928365 -4.856979992050117 0 0 0
2983 661 4 0 -3.5846798917166214 -0.4842695515201263 -5.060078583633369 0 0 0
2981 661 2 0 -3.1570523541599638 -0.5662401121492072 -5.156855346581751 0 0 0
2171 435 1 0 -4.360893759684014 -0.5272136471236665 -4.80431632618943 0 0 0
2173 435 3 0 -4.591639524126463 -0.19692624744828294 -4.60948436000909 0 0 0
2982 661 4 0 -2.715952576059692 -0.6630138003461318 -5.252578670997518 0 0 0
1018 204 3 0 -2.5579213189734866 -0.9509508329635934 -5.464033442404726 0 0 1
1020 204 3 0 -2.0454730475119502 -1.4690274373737287 -5.5569566597890665 0 0 1
1017 204 3 0 -1.86269775665828 -0.7707699740126067 -5.437190508876063 0 0 1
1016 204 1 0 -2.163066046341155 -1.036192772421572 -5.63137905544967 0 0 1
1019 204 3 0 -2.170988050794123 -0.9513010148940579 -6.091394375031071 0 0 1
2577 526 4 0 -9.297913481835058 -9.642466710117986 -4.437912708154616 0 1 0
1984 397 3 0 -9.069445291602976 -9.329218407764571 -4.2657163205236195 1 0 0
1985 397 3 0 -8.629534692011779 -8.753747925127172 -4.211183327156228 1 0 0
450 90 3 0 -7.03270717487345 -10.386618542892638 -4.146241642946268 0 0 0
1939 388 3 0 -10.446539789357493 -7.350984188082097 -2.4954484376996926 0 1 0
2743 581 4 0 -6.205091797980854 -10.475851566856502 -4.343432109417173 0 0 1
2614 538 4 0 -10.481949672570616 -7.055868789484639 -2.2556080383317254 1 0 -1
984 197 3 0 -2.0558197961552884 -9.175744376976027 -4.044508148824581 0 0 0
2736 579 4 0 -9.528130140497565 -8.364797318479214 -4.406639325599183 0 0 0
1981 397 1 0 -9.046069713098055 -8.88772102366681 -4.188855020409609 1 0 0
1983 397 3 0 -9.201107870688535 -8.795594723443974 -3.784729505326659 1 0 0
3274 758 4 0 -9.40256650033471 -8.447103336702014 -3.8057246486412635 1 1 1
1982 397 3 0 -9.297537941111957 -8.668040558845615 -4.491938564307636 1 0 0
3272 758 2 0 -9.66212368840423 -8.246386692282577 -3.5029545401713507 1 1 1
3273 758 4 0 -9.92208998633511 -8.04721210099942 -3.212761418101742 1 1 1
985 197 3 0 -2.6564223186708738 -8.766280783774148 -4.153337860388564 0 0 0
981 197 1 0 -2.2854968360952865 -8.94880368885639 -4.354410882726084 0 0 0
2702 568 2 0 -5.280575640436293 -6.998966174479172 -4.474506899671692 0 0 0
2260 452 3 0 -4.5713086448591875 -6.843305699271419 -4.476132902795746 0 1 1
2704 568 4 0 -4.875435785637911 -7.028613738527673 -4.2710288267217775 0 0 0
3176 726 2 0 -3.1899072895833895 -6.65464043406405 -4.116702496242427 -1 1 1
3178 726 4 0 -3.491546620032509 -6.525325828952898 -4.464980943459071 -1 1 1
2257 452 3 0 -3.8760809795774747 -6.545266679836601 -4.430463022798546 0 1 1
3177 726 4 0 -2.913324992536892 -6.770514140852291 -3.7920932255973745 -1 1 1
258 52 3 0 -2.1942481555188227 -7.173397857127956 -2.988029669551945 0 1 0
257 52 3 0 -2.635858173728978 -6.881930591572927 -3.5294761538129036 0 1 0
256 52 1 0 -2.4855342039247525 -6.831991131587992 -3.0897703236002974 0 1 0
259 52 3 0 -2.2880905442104216 -6.441925371894681 -3.0510238309792195 0 1 0
2840 614 2 0 -9.270738176481217 -5.23250003810758 -4.1011805911247805 0 0 1
2842 614 4 0 -9.433277661912769 -5.215281462827742 -4.494072666432816 0 0 1
1169 234 3 0 -8.452650349467211 -5.384720073478725 -3.3200267115435595 0 0 0
2841 614 4 0 -9.126562983104105 -5.249581588852709 -3.7090182140158876 0 0 1
1170 234 3 0 -8.97710677314585 -4.934073487947758 -3.49161851874118 0 0 0
1166 234 1 0 -8.69001600693364 -5.054179120998244 -3.1777777926437496 0 0 0
3835 945 4 0 -8.066223137676923 -4.7671675213498235 -2.907602874096691 0 1 0
517 104 3 0 -2.7013125653089296 -4.617294900114657 -3.3604327411654475 0 0 1
1263 253 3 0 -0.8849887803306762 -5.616123383266146 -3.284315699391505 0 0 -1
1261 253 1 0 -1.0357553626666132 -5.213234755598623 -3.1077098030195374 0 0 -1
1262 253 3 0 -1.0762555863233962 -4.9118452119305624 -3.4396602397534135 0 0 -1
3723 908 4 0 -8.935035321692183 -3.609872077116523 -4.370141924353187 1 1 0
3722 908 2 0 -8.604036561856823 -3.623894197734441 -4.021999768817593 1 1 0
3724 908 4 0 -8.293414726327976 -3.6391942525487964 -3.700567309847959 1 1 0
115 23 3 0 -8.120038404038631 -3.4385135523015196 -3.3964420451063932 1 0 0
2520 507 4 0 -3.1212420515859365 -4.013602467322745 -4.42914715678909 -1 0 0
784 157 3 0 -3.137110886269746 -3.636862003177115 -4.265571606804043 -1 0 0
781 157 1 0 -3.3475682834326568 -3.212525217998025 -4.250705832675871 -1 0 0
782 157 3 0 -3.649075153493415 -3.2043618379153602 -3.8976756114633755 -1 0 0
2519 507 2 0 -3.026925553995398 -4.268909360834922 -4.054118682784188 -1 0 0
2521 507 4 0 -2.946027494392584 -4.527322603041141 -3.6807033004104452 -1 0 0
519 104 3 0 -2.004316159640157 -4.420367121929368 -3.6096094382481314 0 0 1
516 104 1 0 -2.2576734023404104 -4.592836920133185 -3.2456138751543318 0 0 1
520 104 3 0 -2.2088306930434367 -4.319504311368423 -2.8855613758037735 0 0 1
1455 291 3 0 -7.715224970310527 -1.8634507685810078 -3.2326416612645295 0 0 1
890 178 3 0 -4.662375303491224 -1.8425075224915781 -3.205644782318971 -1 1 0
785 157 3 0 -3.576699621325679 -3.1277284214108767 -4.664747709678394 -1 0 0
2509 503 4 0 -3.6815434207888 -3.190444290960389 -3.4729898804298824 0 0 0
783 157 3 0 -3.041378498195227 -2.886152208813689 -4.174229728531086 -1 0 0
2507 503 2 0 -3.7678933729220754 -2.8632761944921827 -3.1649735295902395 0 0 0
3556 852 4 0 -4.453196377018752 -1.606515579865868 -3.4556807600311954 1 0 0
3472 824 4 0 -2.1609632770688134 -2.2771698699815515 -4.27639380730467 0 0 0
3470 824 2 0 -2.4881925302864722 -2.510604421702349 -4.058958595659 0 0 0
3471 824 4 0 -2.807420838459815 -2.7478031213202883 -3.8558859131641436 0 0 0
2984 662 2 0 -10.112378672810328 -0.6050612775801982 -3.7352365050944094 1 1 0
2401 481 1 0 -9.09289405319051 -0.5776889275586603 -4.386392466841365 1 -1 0
2402 481 3 0 -9.440197772387373 -0.6519239635487072 -4.110995626382393 1 -1 0
2986 662 4 0 -9.670781398576576 -0.7068019936290534 -3.7842683494781393 1 1 0
383 77 3 0 -3.076757412064607 -1.1428551625590513 -1.1256434157452415 0 0 1
2403 481 3 0 -8.810836463046638 -0.9828806180403921 -4.408444581868089 1 -1 0
4 1 3 0 -9.52645783924369 -1.959599120186762 -10.341778554754043 0 0 0
3999 1000 4 0 -7.973584728554172 -1.0579914851099221 -3.4661075007631164 1 0 0
2405 481 3 0 -8.858792886290539 -0.2199294601084026 -4.2437910450257785 1 -1 0
4000 1000 4 0 -8.433878483595732 -1.08681966730764 -4.267616618962556 1 0 0
3998 1000 2 0 -8.208249458644378 -1.0737622004561105 -3.8660487861415502 1 0 0
3846 949 4 0 -8.470356697465816 -0.15506686909265757 -4.412103315885639 0 0 1
1454 291 3 0 -7.597997877733946 -1.1407771186162359 -3.381858970379715 0 0 1
1451 291 1 0 -7.4492727411797075 -1.5177303542799612 -3.136280178800774 0 0 1
3120 707 4 0 -6.629455222122509 -1.6520430966006796 -3.1374274516960923 0 0 1
3119 707 2 0 -6.204964836361876 -1.422867976169919 -3.2353907862621316 0 0 1
1452 291 3 0 -7.030853030769451 -1.6108295009280391 -3.2461160897458434 0 0 1
3323 775 2 0 -6.5744855453400115 -0.13985768697794793 -4.261588128229385 0 0 0
3325 775 4 0 -6.343000620780413 -0.4053381858046634 -4.01824478656213 0 0 0
3121 707 4 0 -5.8252781069758255 -1.2124158936298983 -3.3163694618450257 0 0 1
123 25 3 0 -5.632029809631688 -0.8756297375615597 -3.335041900331673 -1 -1 1
122 25 3 0 -5.276721440780421 -0.79657910793983 -3.9520452567603077 -1 -1 1
125 25 3 0 -5.981381430718084 -0.609150806440233 -3.9660627742110033 -1 -1 1
121 25 1 0 -5.56985866933261 -0.6245041055801169 -3.7207958971856963 -1 -1 1
124 25 3 0 -5.45449401622557 -0.22604557856793578 -3.617039538454936 -1 -1 1
2674 558 4 0 -5.095078943985746 -0.0475641908852523 -3.574632582039344 0 0 0
3554 852 2 0 -4.455277580089626 -1.3203281280101598 -3.820063599922614 1 0 0
2174 435 3 0 -4.387086071484668 -0.9017371345797645 -4.539710173994207 0 0 0
3555 852 4 0 -4.469313661324672 -1.0537592684052695 -4.172793011294787 1 0 0
183 37 3 0 -1.708536443513354 -0.3008986240780025 -3.5289055288646582 0 0 0
181 37 1 0 -1.4046378244881446 -0.12270111760902401 -3.2382230080317242 0 0 0
1624 325 3 0 -0.12510588366106493 -2.0565835935079146 -6.824192470830289 0 0 1
1586 318 1 0 -9.633527692415637 -9.726932968300167 -2.468328876096864 1 -1 0
1590 318 3 0 -9.947037333667184 -10.0763309330113 -2.5186440878975747 1 -1 0
1588 318 3 0 -9.329987760764126 -9.729837464892237 -2.8156391363875097 1 -1 0
1587 318 3 0 -9.858118396037279 -9.32014877917742 -2.4555918297095958 1 -1 0
2818 606 4 0 -9.954993858083876 -8.983677712590175 -2.254705812438113 0 0 0
1589 318 3 0 -9.406428250281865 -9.78018000142319 -2.0777132599815995 1 -1 0
807 162 3 0 -8.154259117917192 -10.18647118256373 -2.581524249690852 0 0 0
877 176 3 0 -7.059484678660933 -8.995002321198488 -2.427314041581688 1 1 0
876 176 1 0 -6.842917759000105 -8.995737115709638 -2.0620154309176626 1 1 0
878 176 3 0 -6.818802932506627 -9.421963039592498 -1.901416289533293 1 1 0
880 176 3 0 -7.038422204157883 -8.727122064100335 -1.7730755996824943 1 1 0
2661 554 4 0 -10.47572172999175 -2.0926346905739592 -10.105919994154496 0 0 1