LAMMPS data file via write_data, version 4 Feb 2025, timestep = 13, units = lj

91 atoms
4 atom types
68 bonds
1 bond types
78 angles
2 angle types

-3 3 xlo xhi
-3 3 ylo yhi
-3 3 zlo zhi

Masses

1 1
2 1
3 0.1
4 0.1

Bond Coeffs # harmonic/omp

1 100 0.45

Angle Coeffs # harmonic/omp

1 100 180
2 100 109.471

Atoms # full

56 12 2 0 -0.11407862637881107 -2.620832488888704 -2.3770166721152273 0 0 0
57 12 4 0 -0.22664365346118773 -2.9730711623725394 -2.7014324303943242 0 0 0
58 12 4 0 -0.0006593506001432685 -2.2713099522510714 -2.052573229129932 0 0 0
7 2 3 0 -1.887118742814303 -0.8521907194459796 -2.5482589496785324 0 0 0
6 2 1 0 -1.8219329208241175 -0.7832076534836464 -2.994788688502246 0 0 0
59 13 2 0 -1.5206008078938609 -1.9075671909578014 -1.0522263425635308 0 0 0
61 13 4 0 -1.732143837522269 -2.3326301410405312 -1.1818120822043534 0 0 0
29 6 3 0 0.17799450825139826 -2.8797803761775316 -0.6181627354915403 0 1 0
64 14 4 0 2.4830156220681276 -1.5496167287293696 -0.12519533250048764 0 0 0
1 1 1 0 -0.035237044659095225 -0.6880843760134018 -0.23941415177621458 0 0 0
3 1 3 0 -0.0332527953458844 -1.1433318686997394 -0.16137380511743535 0 0 0
4 1 3 0 -0.44706608621059263 -0.5655024355647524 -0.41055352370801845 0 0 0
33 7 3 0 -1.4790496945408231 -0.3117141007018706 -0.748646126024479 0 0 0
60 13 4 0 -1.3087432781721235 -1.481993452524195 -0.9249131473158425 0 0 0
5 1 3 0 0.29055941004424096 -0.5868264297665564 -0.5412421738452188 0 0 0
70 16 4 0 -0.8679289455807125 -1.6217962929475256 0.5321374608385804 0 0 0
62 14 2 0 2.251441869713473 -1.5506847114815925 0.30745200823428404 0 0 0
63 14 4 0 2.019341739147103 -1.5507475703331821 0.7408814498884231 0 0 0
71 17 2 0 2.628277892512517 -2.67069592804202 1.2880899490254865 0 0 0
72 17 4 0 2.5856622364529205 -2.995637236668991 0.9210579966735054 0 0 0
11 3 1 0 -2.4387492235730286 -0.4671584489381774 0.9097078528937665 0 0 0
12 3 3 0 -2.738186414492871 -0.4400945497932464 1.2535789128079378 0 0 0
13 3 3 0 -2.182292892750584 -0.8483649033083842 0.955996372942774 0 0 0
14 3 3 0 -2.6640344431197795 -0.4840689584958614 0.5075892847526441 0 0 0
15 3 3 0 -2.167855223083184 -0.1012505718430441 0.9156616476176612 0 0 0
68 16 2 0 -0.9844456134193901 -1.1447980455039646 0.5598799828711117 0 0 0
69 16 4 0 -1.1021363440720435 -0.6677442544577786 0.5878510379866945 0 0 0
2 1 3 0 0.04226903321533451 -0.4631800735317617 0.15093766506318917 0 0 0
77 19 2 0 0.48792211932655855 -0.33846295311478547 1.3093245945414362 0 0 0
78 19 4 0 0.9527827232437732 -0.4512168547695121 1.4238268341216465 0 0 0
79 19 4 0 0.021850925022991532 -0.2258989206587669 1.194526541958887 0 0 0
67 15 4 0 -0.17838828409600946 -2.511664235831158 2.2019492256002993 0 0 0
65 15 2 0 0.2039298774994756 -2.7670996192289454 2.378275290443794 0 0 0
81 20 4 0 2.800540008431731 -1.969573741618561 2.670528161872961 0 0 0
80 20 2 0 2.502204335481153 -1.6130976798767274 2.511683049277774 0 0 0
73 17 4 0 2.670510803589648 -2.3468847482147943 1.6556792936822584 0 0 0
9 2 3 0 -2.0159298343094716 -0.38311444950932927 2.878540146595284 0 0 -1
8 2 3 0 -2.0138954133957188 -1.1289404628254929 2.7650586849229435 0 0 -1
10 2 3 0 -1.3758574014397826 -0.7686613370696646 2.916650940486203 0 0 -1
74 18 2 0 1.310627371752133 -0.4317298713416438 2.630559275511057 0 0 0
76 18 4 0 1.063396251238763 -0.8008829568881871 2.8423301326248422 0 0 0
82 20 4 0 2.204543773891014 -1.2561988037601346 2.3518569264949 0 0 0
75 18 4 0 1.5568459593478619 -0.0622577120751931 2.419678861403781 0 0 0
37 8 3 0 -2.1158832403001098 1.3783181846126298 -2.0939479562335355 0 0 0
38 8 3 0 -2.7912787080533077 1.1762751727717482 -2.352871917020248 0 0 0
84 21 4 0 0.2848477627283472 0.8404636142006471 -1.5420502035900285 0 0 0
17 4 3 0 2.3733555585678268 0.3980279107711152 -1.6976198954600654 0 0 0
40 8 3 0 -2.458801619304845 1.7989866420081508 -2.6061198248896296 0 0 0
39 8 3 0 -2.723618138261736 1.7779041943802807 -1.9053582137209304 0 0 0
36 8 1 0 -2.520517153003252 1.5328375556740526 -2.240127196237532 0 0 0
21 5 1 0 1.2744907693802718 2.5669400919145215 -2.156563175522222 0 0 0
22 5 3 0 1.334136402934875 2.757724377223054 -1.7451693969400885 0 0 0
23 5 3 0 0.8992407739204037 2.2970594596794327 -2.1514455663369487 0 0 0
24 5 3 0 1.2195738040535757 2.8978688141877904 -2.474564169572348 0 0 0
25 5 3 0 1.6397490420097394 2.315198129765851 -2.2635244754044734 0 0 0
31 7 1 0 -1.5887838714356461 0.12039300196120557 -0.8739692669563802 0 0 0
32 7 3 0 -1.5260940007292407 0.403278837037555 -0.521308788946193 0 0 0
34 7 3 0 -2.0315725199673316 0.13465640271977272 -1.00837621491613 0 0 0
35 7 3 0 -1.3243209406287821 0.24792352367029852 -1.2192575570923436 0 0 0
83 21 2 0 -0.09115470257651784 0.9091355999967181 -1.230924855615696 0 0 0
85 21 4 0 -0.46646786366863535 0.9766855096361409 -0.9213926668744765 0 0 0
16 4 1 0 2.0806159075609845 0.37993617544842107 -1.3477167004936732 0 0 0
18 4 3 0 1.877838130676131 0.7913943476111509 -1.293778016398638 0 0 0
19 4 3 0 1.7574731638195145 0.06138221376840039 -1.4302231741046958 0 0 0
20 4 3 0 2.305700868354272 0.2708043041781555 -0.9659295633556252 0 0 0
55 11 3 0 2.955486553469478 1.1918128105011279 -0.21682987301568798 0 0 0
26 6 1 0 0.49420551157938863 2.784999786346207 -0.5851751785537351 0 0 0
27 6 3 0 0.554322869668597 2.672869730876778 -0.147131601367553 0 0 0
28 6 3 0 0.35070518405248935 2.416374462562373 -0.8223093747905396 0 0 0
30 6 3 0 0.8883636814048252 2.9320174360854327 -0.7593957633297699 0 0 0
51 11 1 0 2.801904840692691 1.2161519214567196 0.2111552515442577 0 0 0
53 11 3 0 2.962378124234828 0.854964307081016 0.451149122853048 0 0 0
54 11 3 0 2.34067939707337 1.2047851566133485 0.2089721432905598 0 0 0
43 9 3 0 -0.9371951199953954 2.2236271640108973 1.2894055672056584 0 0 0
44 9 3 0 -1.0202677065688288 2.9702580250890636 1.2489590415365064 0 0 0
52 11 3 0 2.9457076658186745 1.6041803411204743 0.4041289193600453 0 0 0
86 22 2 0 -1.0899146209477577 0.9430832076035923 2.194688264331084 0 0 0
87 22 4 0 -0.9759638169713247 0.8435303362856753 2.661380972823725 0 0 0
88 22 4 0 -1.2040141260300177 1.0419107005714625 1.7271759727208504 0 0 0
46 10 1 0 0.8101057488060719 1.3860683789039 2.0511355102647086 0 0 0
48 10 3 0 0.40734565788949734 1.2235017710613534 1.896103312731993 0 0 0
49 10 3 0 1.1500872960174924 1.1027055316236951 1.918985502854383 0 0 0
50 10 3 0 0.7989074574775455 1.4047408970593707 2.5062420033814887 0 0 0
89 23 2 0 2.472957519521149 0.9030728820014843 2.41530245767203 0 0 0
90 23 4 0 2.7351048387753374 0.5801579324224784 2.677724065697607 0 0 0
91 23 4 0 2.2117284197272413 1.2263907817620243 2.152446556322632 0 0 0
41 9 1 0 -0.9017466051649429 2.619440970305937 1.5237991189910016 0 0 0
42 9 3 0 -1.1773281280429226 2.609359173559281 1.8884488636228873 0 0 0
45 9 3 0 -0.47117278795601947 2.6757811957625637 1.6609557155659116 0 0 0
66 15 4 0 0.5871957770653291 2.9779615494972056 2.553269119553921 0 -1 0
47 10 3 0 0.8828913793233065 1.804957861100854 1.882147226942184 0 0 0

Velocities

56 0.004812335325368962 0.06110832221796742 0.054041040688802895
57 0.357372763986597 0.7467776367222271 0.8586876070303567
58 -0.22961977255444344 -1.0289737600121585 -0.846253414198799
7 0.3587431946532737 0.055257278579061916 -0.29202835952019784
6 -0.03194867157567885 -0.006676734715697195 0.10559762129515522
59 0.00472154890278266 -0.0035426288821920155 0.00828956297601961
61 0.45288418685633014 1.0331227675230994 0.219846493798386
29 0.1726024286568758 -0.4032219977441069 -0.5381866779048281
64 -0.6828348760847159 0.006918979971419013 1.205880274938704
1 -0.008093423651766034 0.08275401498651128 0.04281708636176493
3 -0.02194944214328188 0.3219776516355316 -0.5615867071158329
4 0.1569869133708945 -0.5511615400940038 -0.21357591039401577
33 -0.038694633950316124 -0.0006396227237505728 -0.31170893130016103
60 -0.38695170310100113 -1.0345366951275334 -0.38785869337551754
5 -0.2376235549484596 -0.25063695009456277 -0.3385941150985102
70 -0.3300479799168488 1.0853178499602207 -0.11310581244604687
62 0.0039034024853351924 -0.04716079266147977 -0.06593968554572215
63 0.567080397776309 -0.08105701267343854 -1.1217942597666124
71 0.011816810444140801 -0.02504850157885618 -0.05321046463064298
72 0.10897260351965421 0.8879649852645458 0.8775264054293382
11 -0.08843311935558325 -0.04990583235202294 0.1370448165690837
12 0.3385818001862772 0.10424007108044087 -0.10123618457249925
13 -0.01572425888378386 0.4487924167570709 -0.4382153412039031
14 0.6725741272764841 -0.24329994696642598 0.15644320077022655
15 0.023952297648698627 -0.22339246756698186 -0.2587866959910436
68 0.031160972127770723 -0.007791672018855141 0.020341205861578476
69 0.3795612288253306 -1.182051995998579 0.09395520555828177
2 0.023989277758722026 -0.0040215823574752604 -0.29242025345795714
77 0.04819002182473428 0.06270318674752352 0.015348860138513203
78 -1.0677924060044965 0.22016284325696658 -0.3567020466926155
79 1.0930096006193508 -0.30917538140264605 0.25815395865818724
67 0.8565753636820022 -0.5260487790339515 0.41427117255309687
65 0.001510824326680327 -0.030252242616672864 -0.06475132329739672
81 -0.7648442503662128 0.8838563607664075 -0.520009096958598
80 -0.012810841692783247 -0.051272060500412484 -0.007040243310911365
73 -0.13101212362111275 -0.9059042997779913 -0.9099957796805589
9 0.2981870921620933 -0.38520720817365506 -0.5324454433677183
8 0.30814290238543846 0.3451325705314966 -0.18359486342308026
10 -0.22487245097739644 0.05110471925065682 -0.38716731465263615
74 0.0312192630056278 -0.055165244405060564 -0.05163756041014395
76 0.4293006524648417 0.8607409900733515 -0.48826390076998705
82 0.6681405895953871 -0.912677825400044 0.29368832581675797
75 -0.5674960088187225 -0.9549395560265541 0.6491021916844839
37 -0.025166916718187958 0.2529353876497838 -0.21953413340373779
38 -0.048894479885499 0.44145382441217135 0.1387589104877495
84 -0.8846170131862725 0.019620487352174858 0.6445730374848995
17 -0.11624042165208077 0.14944578859668683 0.3665785519277831
40 -0.4296689927398429 0.14484301566170427 0.012811346873410272
39 -0.21671079602648266 -0.24359176295468854 -0.39194738105719035
36 0.09640724942853797 -0.021384628581429005 0.12890864113499248
21 -0.0477027287890145 0.04648442588937858 0.1338305465073622
22 0.05709849824922266 -0.2579564081308106 -0.2519104400742673
23 0.19706159864098066 0.15312853428052056 -0.47002288033295214
24 0.035963754721214644 -0.4818040968552405 -0.04113843947109837
25 -0.13124445727860395 -0.16498420549238058 -0.33527812969407034
31 -0.01311749932970199 0.018793921501695388 0.1431205668663296
32 -0.08521240502674592 -0.0014329417503909968 -0.358241014989152
34 0.29436589727479706 -0.3800988336521376 -0.41786868567475693
35 -0.41694803281653303 -0.3649662527766404 0.19754743544544373
83 0.027644078336095414 -0.012955506244825813 0.0012553947770656418
85 0.960275229577398 -0.1852518052493423 -0.8433255530397932
16 0.029364368026349705 0.002556205949061443 -0.11514710268132201
18 -0.3224357757747437 -0.5929435029445452 0.4988293089583712
19 0.14364440080551585 0.2909218261676079 0.40916728184238216
20 -0.17655896711756044 0.023788549596791688 0.12176532274816121
55 -0.08247084094586203 -0.22449980037836773 0.10204986448686358
26 0.018792259981109966 -0.03945205142824902 0.15981117694301286
27 0.21363687062364095 0.12776156081575454 -0.3183413528941307
28 0.27280953329359786 0.605085891038697 -0.14461169416170966
30 -0.2566539359972775 0.0468592543747821 -0.20401410892411861
51 0.08625446481640059 0.1164110274636363 0.057500166618161624
53 -0.25957938037629097 -0.09825023793300053 -0.5502886498281602
54 0.464345669275175 -0.395341305034833 -0.23478333770419688
43 0.3798471016625318 0.5509867146941654 -0.2720427516965321
44 0.4778122209748556 -0.4765984297722171 -0.07237121710730275
52 -0.03990959894072842 -0.33761741411729657 -0.15687264760889347
86 -0.029194866514985318 0.0385158976232783 0.051357827138078856
87 -0.3212074772591212 0.28702384312425167 -1.3077367512314475
88 0.29869781174053345 -0.26616050388126944 1.3330984702290969
46 0.02956748830245181 0.030574263831941048 -0.07499882631794232
48 0.4314076052179606 -0.39276991517584475 0.5843443234386764
49 -0.3556831102858636 -0.09826208846414243 0.3648215702028793
50 -0.038008566106570885 -0.3731239048556344 0.047179474325015215
89 -0.02546351628338077 0.0024231285826879553 -0.03750429032943411
90 -0.6743911841181627 0.8675203830395976 -0.6190861944971298
91 0.7154639311438639 -0.6741757959747767 0.6895544176705918
41 -0.12912882626073757 -0.051377273857089116 0.01829042115058707
42 0.2909171957090244 0.17868705444488786 -0.07158262700687675
45 -0.004963869222102608 -0.006053422353705625 -0.46708205006228326
66 -0.8347272965595122 0.4860315056871459 -0.6184095019499699
47 -0.2639269897925361 -0.13862683948914858 0.20244069805286322

Bonds

1 1 56 57
2 1 56 58
3 1 6 7
4 1 6 8
5 1 6 9
6 1 6 10
7 1 59 60
8 1 59 61
9 1 1 2
10 1 1 3
11 1 1 4
12 1 1 5
13 1 62 63
14 1 62 64
15 1 71 72
16 1 71 73
17 1 11 12
18 1 11 13
19 1 11 14
20 1 11 15
21 1 68 69
22 1 68 70
23 1 77 78
24 1 77 79
25 1 65 66
26 1 65 67
27 1 80 81
28 1 80 82
29 1 74 75
30 1 74 76
31 1 36 37
32 1 36 38
33 1 36 39
34 1 36 40
35 1 21 22
36 1 21 23
37 1 21 24
38 1 21 25
39 1 31 32
40 1 31 33
41 1 31 34
42 1 31 35
43 1 83 84
44 1 83 85
45 1 16 17
46 1 16 18
47 1 16 19
48 1 16 20
49 1 26 27
50 1 26 28
51 1 26 29
52 1 26 30
53 1 51 52
54 1 51 53
55 1 51 54
56 1 51 55
57 1 86 87
58 1 86 88
59 1 46 47
60 1 46 48
61 1 46 49
62 1 46 50
63 1 89 90
64 1 89 91
65 1 41 42
66 1 41 43
67 1 41 44
68 1 41 45

Angles

1 1 57 56 58
2 2 7 6 8
3 2 7 6 9
4 2 7 6 10
5 2 8 6 9
6 2 8 6 10
7 2 9 6 10
8 1 60 59 61
9 2 2 1 3
10 2 2 1 4
11 2 2 1 5
12 2 3 1 4
13 2 3 1 5
14 2 4 1 5
15 1 63 62 64
16 1 72 71 73
17 2 12 11 13
18 2 12 11 14
19 2 12 11 15
20 2 13 11 14
21 2 13 11 15
22 2 14 11 15
23 1 69 68 70
24 1 78 77 79
25 1 66 65 67
26 1 81 80 82
27 1 75 74 76
28 2 37 36 38
29 2 37 36 39
30 2 37 36 40
31 2 38 36 39
32 2 38 36 40
33 2 39 36 40
34 2 22 21 23
35 2 22 21 24
36 2 22 21 25
37 2 23 21 24
38 2 23 21 25
39 2 24 21 25
40 2 32 31 33
41 2 32 31 34
42 2 32 31 35
43 2 33 31 34
44 2 33 31 35
45 2 34 31 35
46 1 84 83 85
47 2 17 16 18
48 2 17 16 19
49 2 17 16 20
50 2 18 16 19
51 2 18 16 20
52 2 19 16 20
53 2 27 26 28
54 2 27 26 29
55 2 27 26 30
56 2 28 26 29
57 2 28 26 30
58 2 29 26 30
59 2 52 51 53
60 2 52 51 54
61 2 52 51 55
62 2 53 51 54
63 2 53 51 55
64 2 54 51 55
65 1 87 86 88
66 2 47 46 48
67 2 47 46 49
68 2 47 46 50
69 2 48 46 49
70 2 48 46 50
71 2 49 46 50
72 1 90 89 91
73 2 42 41 43
74 2 42 41 44
75 2 42 41 45
76 2 43 41 44
77 2 43 41 45
78 2 44 41 45
