LAMMPS data file via write_data, version 4 Feb 2025, timestep = 1000, units = lj

8 atoms
4 atom types
6 bonds
1 bond types
7 angles
2 angle types

-1.5 1.5 xlo xhi
-1.5 1.5 ylo yhi
-1.5 1.5 zlo zhi
0 0 0 xy xz yz

Masses

1 1
2 1
3 0.1
4 0.1

Bond Coeffs # harmonic/omp

1 100 0.45

Angle Coeffs # harmonic/omp

1 100 180
2 100 109.471

Atoms # full

3 1 3 0 0.4053475149275503 -0.4549324226224294 -0.6710564210269823 0 0 0
4 1 3 0 0.11149515632469997 -0.867866102573392 -1.2255768183928935 0 0 0
1 1 1 0 0.5008043446465198 -0.6532736007567577 -1.0631882996419966 0 0 0
2 1 3 0 0.6348846574496063 -0.3200818298580299 -1.373893381663615 0 0 0
5 1 3 0 0.825836343495927 -0.9526083786207769 -1.0135775506378877 0 0 0
6 2 2 0 0.4117802211287396 -0.380484839473493 0.368994037638261 0 0 0
8 2 4 0 0.07488446015661032 -0.580716841542028 0.1226966946077459 0 0 0
7 2 4 0 0.7335694624670897 -0.1908944058231039 0.6154291691849778 0 0 0

Velocities

3 0.012318925873606279 0.05085201749675851 0.045151769360865304
4 0.45574099151659986 0.3734775353881464 0.45879360592161283
1 0.6423272121340653 -0.2615515819626885 -0.02698135326799088
2 0.6618283233537585 -0.5852641226362434 -0.14477443673446466
5 1.0245633583129814 0.3088817069396486 1.0711589532386803
6 0.6680348597750064 0.19264118698414778 -0.13067912870655934
8 2.422046511770502 1.5857484174072634 1.1179731355042528
7 -1.2443696029113809 -1.2498894597030572 -0.6988249026626661

Bonds

1 1 1 2
2 1 1 3
3 1 1 4
4 1 1 5
5 1 6 7
6 1 6 8

Angles

1 2 2 1 3
2 2 2 1 4
3 2 2 1 5
4 2 3 1 4
5 2 3 1 5
6 2 4 1 5
7 1 7 6 8
