ITEM: TIMESTEP
310000
ITEM: NUMBER OF ATOMS
4590
ITEM: BOX BOUNDS pp pp pp
-9.9985700000000008e+00 9.9985700000000008e+00
-9.9985700000000008e+00 9.9985700000000008e+00
-9.9985700000000008e+00 9.9985700000000008e+00
ITEM: ATOMS id type xs ys zs
1667 4 0.0611113 0.0436473 0.0107988
1666 2 0.065804 0.0375214 0.0345818
1668 4 0.0704966 0.0313954 0.0583648
702 4 0.0839537 0.0371075 0.0723549
931 2 0.158044 0.0525541 0.00736641
932 4 0.158207 0.0276177 0.00554258
933 4 0.157882 0.0774906 0.00919025
1133 4 0.165404 0.0873934 0.994112
654 4 0.309338 0.0223665 0.0788543
485 4 0.337778 0.016279 0.0155076
558 4 0.336998 0.0753719 0.029676
746 4 0.432021 0.0383871 0.061587
745 2 0.455771 0.0374815 0.0693522
2793 4 0.486398 0.0787682 0.0625938
2976 4 0.488807 0.0788601 0.0433242
747 4 0.479521 0.0365758 0.0771174
2759 4 0.996858 0.100354 0.0613346
2758 2 0.00509729 0.120138 0.0742134
423 4 0.0898141 0.139063 0.987222
1134 4 0.206962 0.112393 0.00630609
1132 2 0.186183 0.0998933 0.000209144
490 2 0.26283 0.0892144 0.00784177
491 4 0.285055 0.0964634 0.0167124
556 2 0.319972 0.0918689 0.0217304
557 4 0.302945 0.108366 0.0137847
2792 4 0.466218 0.123941 0.0698707
2791 2 0.476308 0.101355 0.0662322
656 4 0.998728 0.221387 0.0929956
293 4 0.0765068 0.249082 0.0167884
477 4 0.102659 0.212568 0.0580094
475 2 0.106175 0.20522 0.03437
476 4 0.109691 0.197873 0.0107305
356 4 0.268212 0.226927 0.0214132
573 4 0.273613 0.202075 0.0819304
355 2 0.274203 0.215191 0.0426626
357 4 0.280194 0.203454 0.0639121
253 2 0.367662 0.205402 0.00748053
255 4 0.354695 0.214306 0.0269167
292 2 0.0728365 0.261265 0.0383123
294 4 0.0691662 0.273448 0.0598363
915 4 0.160282 0.277298 0.0127865
352 2 0.223789 0.281878 0.0654757
354 4 0.221254 0.292076 0.0427871
914 4 0.204556 0.289197 0.0327603
913 2 0.182419 0.283248 0.0227734
1070 4 0.386107 0.261407 0.998116
519 4 0.41066 0.270685 0.0855674
280 2 0.466088 0.305712 0.0270271
281 4 0.462519 0.317808 0.0486169
282 4 0.469657 0.293615 0.0054374
323 4 0.42997 0.330365 0.0724687
322 2 0.416877 0.310157 0.0792041
2808 4 0.0155327 0.349944 0.000742731
251 4 0.224957 0.364239 0.0555702
483 4 0.220435 0.363301 0.0359741
288 4 0.182907 0.405078 0.0879939
250 2 0.232568 0.354153 0.0771464
481 2 0.236144 0.36281 0.0165272
482 4 0.251852 0.362319 0.99708
957 4 0.384853 0.374601 0.0529944
955 2 0.362342 0.368523 0.0620218
956 4 0.339831 0.362444 0.0710491
671 4 0.418179 0.344502 0.0639411
670 2 0.420671 0.368367 0.0709718
551 4 0.0372177 0.450144 0.0431869
550 2 0.042885 0.458911 0.0659068
330 4 0.0313941 0.452899 0.0245652
328 2 0.0137938 0.465775 0.0123331
1788 4 0.131593 0.486889 0.0693044
241 2 0.202707 0.463014 0.998056
242 4 0.18902 0.474701 0.0154137
626 4 0.181344 0.421296 0.0740289
1674 4 0.416535 0.489776 0.0408727
564 4 0.413724 0.504544 0.0281005
1672 2 0.433737 0.473893 0.0496482
1673 4 0.450938 0.458009 0.0584236
660 4 0.465087 0.462423 0.071009
20 3 0.995736 0.0670331 0.122451
700 2 0.104774 0.0370423 0.0861995
701 4 0.125595 0.0369771 0.100044
450 4 0.133904 0.0471084 0.114903
448 2 0.134203 0.0616333 0.135253
449 4 0.134503 0.0761582 0.155603
578 4 0.153063 0.0825403 0.159819
1476 4 0.30545 0.00998378 0.0936988
652 2 0.330715 0.03268 0.0867168
653 4 0.352093 0.0429936 0.0945793
297 4 0.35101 0.0455264 0.114602
295 2 0.353651 0.0621233 0.133115
296 4 0.356292 0.0787202 0.151629
2469 4 0.497523 0.0453105 0.0789505
589 2 0.0502343 0.120941 0.12057
590 4 0.0411893 0.122136 0.14385
380 4 0.0254674 0.109245 0.146024
379 2 0.00942371 0.0971207 0.160883
591 4 0.0592793 0.119746 0.0972904
2760 4 0.0133369 0.139922 0.0870923
577 2 0.171263 0.0994526 0.162635
236 4 0.205104 0.128587 0.161439
235 2 0.206434 0.146544 0.144091
579 4 0.189462 0.116365 0.165452
237 4 0.207763 0.164501 0.126743
580 2 0.335337 0.110244 0.161448
628 2 0.356117 0.163107 0.130464
582 4 0.343123 0.123035 0.141424
629 4 0.353329 0.141496 0.142727
770 4 0.471928 0.136376 0.0830519
769 2 0.488243 0.146267 0.0992125
759 4 0.430191 0.119627 0.141335
757 2 0.432282 0.0982451 0.154127
2624 4 0.00430219 0.20909 0.0785602
655 2 0.019137 0.235832 0.0930805
705 4 0.0536479 0.241041 0.100243
703 2 0.0736236 0.232206 0.112412
657 4 0.0395459 0.250277 0.0931653
704 4 0.0935994 0.223371 0.124581
738 4 0.159532 0.200664 0.0839623
736 2 0.163331 0.2245 0.0904885
571 2 0.267915 0.202325 0.106275
572 4 0.262217 0.202576 0.130619
460 2 0.283464 0.229172 0.152037
462 4 0.264311 0.214139 0.146351
461 4 0.302618 0.244205 0.157723
630 4 0.358905 0.184718 0.118202
647 4 0.069814 0.318623 0.154094
362 4 0.0746495 0.313551 0.172988
395 4 0.014596 0.272754 0.16963
737 4 0.167129 0.248336 0.0970147
361 2 0.0956201 0.304346 0.162955
339 4 0.135972 0.289185 0.154082
363 4 0.116591 0.29514 0.152921
353 4 0.226323 0.271681 0.0881642
507 4 0.166168 0.268206 0.098407
505 2 0.17608 0.284587 0.114488
755 4 0.237228 0.271943 0.104924
754 2 0.232739 0.264269 0.128294
506 4 0.185991 0.300969 0.130568
756 4 0.228251 0.256595 0.151663
278 4 0.222837 0.261724 0.168499
623 4 0.320351 0.250603 0.163464
740 4 0.314512 0.319338 0.159704
622 2 0.321587 0.275522 0.161823
624 4 0.322822 0.300441 0.160182
324 4 0.403784 0.289948 0.0859396
518 4 0.436049 0.252074 0.124423
517 2 0.423354 0.26138 0.104995
646 2 0.0538147 0.334358 0.143066
262 2 0.0265167 0.384952 0.123494
263 4 0.0235749 0.360128 0.122945
648 4 0.0378154 0.350093 0.132038
264 4 0.0294585 0.409776 0.124042
456 4 0.109741 0.35763 0.144857
455 4 0.141324 0.367723 0.107422
537 4 0.094598 0.362263 0.156561
454 2 0.125533 0.362677 0.12614
287 4 0.149945 0.367487 0.0891059
416 4 0.105825 0.403225 0.169981
286 2 0.166426 0.386283 0.0885499
252 4 0.240178 0.344067 0.0987225
609 4 0.257407 0.353611 0.105815
739 2 0.320907 0.343213 0.163481
607 2 0.270115 0.352541 0.127322
608 4 0.282823 0.35147 0.148828
741 4 0.327302 0.367088 0.167259
387 4 0.344695 0.369288 0.15642
385 2 0.361641 0.380551 0.141889
386 4 0.378587 0.391814 0.127357
493 2 0.40394 0.409584 0.107383
13 3 0.358055 0.326121 0.172803
494 4 0.419969 0.40958 0.0881932
672 4 0.423163 0.392232 0.0780025
597 4 0.484241 0.409406 0.158125
552 4 0.0485523 0.467679 0.0886267
315 4 0.0382002 0.482367 0.0943114
313 2 0.0161644 0.486941 0.105206
415 2 0.102341 0.420163 0.151921
417 4 0.0988565 0.4371 0.133861
1786 2 0.11641 0.490924 0.0887561
1787 4 0.101227 0.49496 0.108208
625 2 0.191037 0.435526 0.0921595
627 4 0.200729 0.449757 0.11029
291 4 0.21681 0.455404 0.12208
289 2 0.208171 0.465148 0.143425
245 4 0.265992 0.472619 0.13854
246 4 0.304236 0.448743 0.116905
524 4 0.322568 0.441839 0.121923
244 2 0.285114 0.460681 0.127722
495 4 0.387912 0.409589 0.126573
523 2 0.342013 0.456525 0.116321
525 4 0.361458 0.471211 0.110719
1559 4 0.356321 0.489564 0.118318
658 2 0.459157 0.444966 0.087898
659 4 0.453227 0.427508 0.104787
1404 4 0.0438367 0.01489 0.232087
1422 4 0.0598559 0.0277118 0.179594
1420 2 0.0489214 0.0301587 0.201947
1421 4 0.037987 0.0326055 0.224299
674 4 0.0928839 0.00686075 0.214879
1506 4 0.256659 0.995313 0.20808
691 2 0.285083 0.0627145 0.234917
692 4 0.290178 0.03966 0.243145
1505 4 0.289607 0.0219677 0.234625
1504 2 0.273133 0.00864016 0.221353
1785 4 0.353836 0.998866 0.209044
22 3 0.422586 0.071086 0.215485
758 4 0.434372 0.0768636 0.16692
23 3 0.427327 0.0353084 0.20499
24 3 0.430581 0.0633803 0.179577
21 1 0.434458 0.0571244 0.201583
25 3 0.456655 0.0588797 0.206364
2723 4 0.499895 0.0282125 0.18057
732 4 0.206803 0.131376 0.224293
722 4 0.217905 0.115956 0.225523
730 2 0.188826 0.122606 0.239296
721 2 0.241468 0.107634 0.226345
581 4 0.327552 0.0974533 0.181472
693 4 0.279987 0.0857691 0.226689
723 4 0.265032 0.0993114 0.227167
28 3 0.326706 0.128208 0.22635
27 3 0.353506 0.103354 0.235106
26 1 0.340929 0.120857 0.243145
30 3 0.354802 0.137752 0.249527
394 2 0.00477362 0.251115 0.177406
393 4 0.0967832 0.172026 0.23533
546 4 0.154356 0.179638 0.19816
391 2 0.11679 0.177614 0.221413
392 4 0.136797 0.183201 0.207496
544 2 0.168781 0.190974 0.215148
545 4 0.183206 0.20231 0.232136
285 4 0.202625 0.194622 0.23164
284 4 0.237063 0.22907 0.220324
283 2 0.219844 0.211846 0.225982
311 4 0.465458 0.201481 0.238281
419 4 0.454248 0.216358 0.230885
310 2 0.486426 0.191558 0.247612
418 2 0.435288 0.215426 0.247158
748 2 0.079117 0.308308 0.245197
750 4 0.0858726 0.284803 0.239992
749 4 0.0723614 0.331812 0.250401
337 2 0.151834 0.295201 0.17245
338 4 0.167696 0.301217 0.190818
279 4 0.233423 0.24879 0.215631
344 4 0.17189 0.298499 0.211195
343 2 0.196651 0.298124 0.214652
277 2 0.22813 0.255257 0.192065
345 4 0.221411 0.29775 0.218109
611 4 0.255507 0.311093 0.194791
610 2 0.266814 0.328649 0.181039
307 2 0.274707 0.286033 0.21546
309 4 0.270004 0.297483 0.193735
308 4 0.279409 0.274583 0.237185
498 4 0.299415 0.277009 0.239119
14 3 0.375097 0.332944 0.206082
520 2 0.465216 0.286757 0.209558
522 4 0.456439 0.298441 0.229846
521 4 0.473994 0.275072 0.18927
2694 4 0.00596548 0.349527 0.242518
366 4 0.0226857 0.357715 0.249607
535 2 0.105821 0.371039 0.177108
735 4 0.14929 0.336075 0.220319
733 2 0.134014 0.344688 0.238142
536 4 0.117044 0.379815 0.197656
734 4 0.118738 0.353301 0.255965
612 4 0.278121 0.346204 0.167287
728 4 0.292888 0.370247 0.22767
727 2 0.293962 0.370996 0.252639
644 4 0.413273 0.426758 0.165696
15 3 0.364287 0.361506 0.184059
11 1 0.372485 0.34026 0.184217
12 3 0.392982 0.33997 0.17378
645 4 0.425127 0.401142 0.206976
643 2 0.4192 0.41395 0.186336
542 4 0.430543 0.40198 0.226017
541 2 0.443616 0.417662 0.240452
290 4 0.199533 0.474891 0.16477
768 4 0.200364 0.467705 0.183258
766 2 0.203998 0.456429 0.205277
767 4 0.207632 0.445154 0.227296
301 2 0.297594 0.497707 0.188434
302 4 0.321314 0.492616 0.19449
1574 4 0.375673 0.456962 0.186826
1573 2 0.377116 0.462214 0.211229
230 4 0.395329 0.462544 0.245533
1575 4 0.378559 0.467465 0.235632
1402 2 0.045536 0.0152856 0.257029
232 2 0.0173426 0.0198108 0.31257
234 4 0.0385242 0.0152242 0.3001
1403 4 0.0472352 0.0156811 0.281972
1700 4 0.260334 0.0494167 0.336593
247 2 0.266825 0.0852845 0.319368
1495 2 0.402559 0.0072801 0.303343
1496 4 0.417922 0.0269113 0.305282
697 2 0.337697 0.0654022 0.326325
1749 4 0.431186 0.0336357 0.29136
1747 2 0.450621 0.0221429 0.280619
1748 4 0.470056 0.01065 0.269877
743 4 0.42787 0.0734391 0.330875
531 4 0.070322 0.157078 0.297899
529 2 0.0573208 0.157765 0.319245
513 4 0.0857705 0.147377 0.29056
605 4 0.162932 0.103787 0.32255
511 2 0.0971861 0.158084 0.27106
604 2 0.16253 0.107807 0.297875
606 4 0.162128 0.111826 0.2732
731 4 0.170849 0.113835 0.254299
404 4 0.213774 0.134974 0.275896
403 2 0.236247 0.125932 0.282093
600 4 0.200798 0.149905 0.276021
598 2 0.187841 0.168366 0.286814
248 4 0.264855 0.104114 0.303036
405 4 0.25872 0.116891 0.288289
29 3 0.328558 0.113472 0.261333
632 4 0.336206 0.0982127 0.31757
698 4 0.338487 0.0813427 0.307078
631 2 0.336145 0.111558 0.296426
633 4 0.336084 0.124904 0.275282
707 4 0.347726 0.140106 0.269128
706 2 0.363781 0.156101 0.279691
742 2 0.445374 0.087317 0.319642
744 4 0.462879 0.101195 0.30841
333 4 0.471813 0.114477 0.296095
331 2 0.485752 0.132975 0.305514
332 4 0.499691 0.151473 0.314933
761 4 0.487129 0.154321 0.330151
512 4 0.108602 0.168791 0.251561
390 4 0.116051 0.213075 0.312544
388 2 0.12496 0.235469 0.305889
371 4 0.18681 0.202928 0.299844
370 2 0.194782 0.226469 0.297119
599 4 0.174883 0.186826 0.297608
372 4 0.202754 0.250011 0.294394
708 4 0.379836 0.172095 0.290255
764 4 0.354087 0.230238 0.270001
351 4 0.41928 0.19805 0.27482
765 4 0.379564 0.191603 0.288946
763 2 0.366826 0.210921 0.279473
349 2 0.420692 0.193298 0.299327
350 4 0.422105 0.188547 0.323834
420 4 0.416327 0.214493 0.263431
444 4 0.0470022 0.312165 0.328355
618 4 0.060182 0.323137 0.318292
389 4 0.13387 0.257864 0.299234
400 2 0.156368 0.284698 0.319726
401 4 0.146343 0.262537 0.313931
402 4 0.166393 0.306859 0.325521
510 4 0.250659 0.294075 0.317768
508 2 0.244251 0.317383 0.311375
496 2 0.304394 0.281822 0.263145
497 4 0.309372 0.286635 0.287171
377 4 0.306007 0.299326 0.301626
376 2 0.316469 0.29135 0.322888
613 2 0.378363 0.291977 0.3242
614 4 0.357084 0.284497 0.31341
615 4 0.399642 0.299457 0.334991
365 4 0.0541679 0.381021 0.280693
364 2 0.0384268 0.369368 0.26515
616 2 0.0785643 0.33988 0.320924
299 4 0.132154 0.368465 0.259282
676 2 0.141185 0.348226 0.333499
617 4 0.0969466 0.356624 0.323555
298 2 0.12194 0.39007 0.266637
677 4 0.11725 0.350742 0.326719
504 4 0.242659 0.360293 0.302448
509 4 0.237842 0.34069 0.304981
502 2 0.24957 0.384 0.30637
433 2 0.313677 0.370998 0.31684
729 4 0.295035 0.371746 0.277608
434 4 0.297624 0.372662 0.297742
503 4 0.256481 0.407707 0.310293
437 4 0.268941 0.418722 0.30065
2461 2 0.00717111 0.440579 0.331269
300 4 0.111727 0.411675 0.273992
603 4 0.0983437 0.425058 0.275839
602 4 0.117397 0.439157 0.319872
601 2 0.10787 0.432107 0.297855
1435 2 0.302856 0.487002 0.304322
436 2 0.281702 0.438556 0.292347
1436 4 0.286303 0.468504 0.301325
438 4 0.294463 0.45839 0.284044
229 2 0.401502 0.482481 0.259301
231 4 0.407676 0.502419 0.273069
447 4 0.472212 0.494567 0.255777
446 4 0.448463 0.450667 0.252707
713 4 0.427262 0.499969 0.276456
543 4 0.456689 0.433345 0.254886
445 2 0.460337 0.472617 0.254242
317 4 0.0299385 0.00752403 0.384338
316 2 0.0440563 0.0243006 0.372321
318 4 0.0581741 0.0410772 0.360304
399 4 0.0546446 0.0820232 0.381748
429 4 0.102227 0.0197108 0.337502
428 4 0.11249 0.0340754 0.38429
720 4 0.101576 0.030736 0.399907
427 2 0.107358 0.0268931 0.360896
249 4 0.268796 0.0664555 0.335701
1701 4 0.288897 0.0255424 0.369983
441 4 0.27369 0.0233259 0.382663
1699 2 0.274615 0.0374796 0.353288
439 2 0.27273 0.00770918 0.402167
699 4 0.336908 0.0494616 0.345572
1517 4 0.342486 0.01404 0.393793
1518 4 0.33152 0.0534731 0.365062
1516 2 0.337003 0.0337566 0.379428
480 4 0.434922 0.0583875 0.342057
478 2 0.447937 0.0531375 0.36275
2641 2 0.494056 0.0568222 0.405011
2642 4 0.481207 0.0475219 0.385682
479 4 0.460953 0.0478875 0.383444
398 4 0.0644186 0.0819088 0.332706
530 4 0.0443196 0.158453 0.340592
397 2 0.0595316 0.081966 0.357227
457 2 0.0322959 0.140146 0.376729
458 4 0.0477285 0.15102 0.360334
459 4 0.0168633 0.129272 0.393123
2585 4 0.0096858 0.122753 0.408798
369 4 0.15308 0.0962206 0.338208
368 4 0.126634 0.0933146 0.38055
367 2 0.139857 0.0947676 0.359379
685 2 0.114187 0.149765 0.406963
687 4 0.0911488 0.141258 0.402267
686 4 0.137225 0.158273 0.41166
472 2 0.215005 0.155862 0.380035
474 4 0.205535 0.163171 0.358079
473 4 0.224476 0.148553 0.401991
321 4 0.240939 0.153899 0.411843
682 2 0.303379 0.161508 0.378955
683 4 0.286398 0.14622 0.368801
466 2 0.356241 0.156785 0.409869
684 4 0.320359 0.176797 0.389108
716 4 0.318766 0.217751 0.381027
467 4 0.336505 0.168367 0.399793
715 2 0.329635 0.20753 0.401092
266 4 0.3725 0.234625 0.416505
452 4 0.41849 0.180547 0.340857
2516 4 0.501719 0.216869 0.352032
514 2 0.447442 0.180159 0.413328
515 4 0.448802 0.197356 0.395229
760 2 0.496458 0.175725 0.339096
453 4 0.436311 0.204611 0.380908
451 2 0.427401 0.192579 0.360883
347 4 0.0614835 0.247206 0.379082
346 2 0.0457771 0.248027 0.398519
442 2 0.0392627 0.311241 0.352113
443 4 0.0315233 0.310317 0.375871
2801 4 0.0189657 0.324876 0.384714
260 4 0.0782447 0.284303 0.401449
374 4 0.190302 0.300503 0.366187
373 2 0.187675 0.322541 0.354671
276 4 0.266957 0.254406 0.337288
651 4 0.258505 0.264687 0.404956
274 2 0.264607 0.255552 0.362155
275 4 0.262257 0.256697 0.387021
649 2 0.269947 0.286722 0.407907
487 2 0.324773 0.292674 0.413474
488 4 0.302699 0.303569 0.409084
378 4 0.326932 0.283373 0.344151
265 2 0.370425 0.25949 0.414885
267 4 0.368351 0.284355 0.413265
489 4 0.346846 0.28178 0.417863
2800 2 0.0075382 0.346788 0.380914
548 4 0.0578651 0.380852 0.370208
408 4 0.0654936 0.378807 0.388819
406 2 0.079263 0.374839 0.409309
547 2 0.0402358 0.397616 0.364435
678 4 0.16512 0.34571 0.340279
375 4 0.185049 0.344579 0.343155
435 4 0.329729 0.369335 0.335937
752 4 0.369256 0.407963 0.401844
560 4 0.467216 0.355251 0.41853
2463 4 0.0249008 0.427319 0.342888
549 4 0.0226065 0.414381 0.358661
501 4 0.106855 0.479863 0.358596
680 4 0.103612 0.480938 0.377898
679 2 0.11067 0.463787 0.394667
681 4 0.117727 0.446636 0.411437
569 4 0.161933 0.463212 0.369084
568 2 0.17233 0.485533 0.373422
5 3 0.319568 0.499544 0.344703
753 4 0.398444 0.44843 0.405191
751 2 0.38385 0.428197 0.403518
1401 4 0.36419 0.497374 0.400564
594 4 0.37682 0.489089 0.387204
592 2 0.401734 0.487488 0.388578
588 4 0.41833 0.451928 0.40682
593 4 0.426649 0.485888 0.389953
1773 4 0.0292317 0.00494277 0.4472
2238 4 0.0484687 0.00625145 0.452723
719 4 0.100337 0.0247561 0.449539
718 2 0.100956 0.027746 0.424723
2429 4 0.253985 0.0300997 0.427519
2428 2 0.252859 0.0385847 0.451012
2430 4 0.251734 0.0470697 0.474505
724 2 0.319297 0.0631301 0.470037
725 4 0.295172 0.0668405 0.475459
1181 4 0.262411 0.063488 0.476871
726 4 0.343422 0.0594197 0.464614
430 2 0.380364 0.0639049 0.481188
424 2 0.412796 0.0165142 0.480068
426 4 0.410628 0.0410929 0.476023
431 4 0.404488 0.0581856 0.484428
432 4 0.35624 0.0696242 0.477949
939 4 0.0411261 0.110468 0.448053
937 2 0.0579498 0.10697 0.466216
938 4 0.0747735 0.103471 0.484379
342 4 0.156103 0.157081 0.419157
1034 4 0.0939691 0.100476 0.477659
1033 2 0.114149 0.10945 0.489382
1035 4 0.134328 0.118425 0.501105
341 4 0.196382 0.145508 0.44644
340 2 0.176242 0.151295 0.432798
319 2 0.255458 0.139428 0.42616
320 4 0.269977 0.124958 0.440477
641 4 0.316383 0.172138 0.500643
575 4 0.387137 0.137135 0.434727
574 2 0.411679 0.14099 0.431905
468 4 0.375978 0.145203 0.419944
516 4 0.446082 0.162961 0.431427
576 4 0.436222 0.144846 0.429084
717 4 0.340504 0.197308 0.421156
1200 4 0.0095449 0.269131 0.497347
471 4 0.0107876 0.271857 0.477748
348 4 0.0300707 0.248848 0.417957
469 2 0.0131943 0.26476 0.453894
470 4 0.015601 0.257663 0.43004
259 2 0.0857534 0.276892 0.424118
261 4 0.0932621 0.269481 0.446787
695 4 0.10485 0.281029 0.458904
694 2 0.121264 0.294009 0.472589
696 4 0.137678 0.306989 0.486275
650 4 0.281389 0.308757 0.410857
636 4 0.257153 0.333299 0.470237
335 4 0.369116 0.342132 0.48172
268 2 0.485748 0.31705 0.430777
383 4 0.094667 0.38779 0.442534
407 4 0.0930324 0.370871 0.429799
382 2 0.0922037 0.409901 0.453945
326 4 0.134901 0.391856 0.442778
325 2 0.138395 0.370399 0.45513
327 4 0.14189 0.348942 0.467482
7 3 0.142921 0.338117 0.485533
710 4 0.192458 0.387956 0.455904
709 2 0.213242 0.381276 0.468093
711 4 0.234027 0.374597 0.480283
773 4 0.237514 0.389663 0.492005
668 4 0.301117 0.341492 0.418364
667 2 0.324073 0.349451 0.42427
635 4 0.294056 0.337588 0.436763
634 2 0.275604 0.335443 0.4535
240 4 0.375872 0.350439 0.498781
669 4 0.347028 0.357409 0.430177
334 2 0.36727 0.346647 0.457197
336 4 0.365425 0.351162 0.432673
561 4 0.419084 0.368591 0.41607
2508 4 0.50911 0.409004 0.423634
559 2 0.44315 0.361921 0.4173
270 4 0.477679 0.340023 0.425093
663 4 0.464214 0.4198 0.498042
1382 4 0.0477355 0.489341 0.422463
935 4 0.0742929 0.43879 0.476041
934 2 0.0632311 0.435057 0.498152
1381 2 0.0701121 0.481576 0.430473
384 4 0.0897403 0.432012 0.465357
1383 4 0.0924888 0.473811 0.438483
540 4 0.103398 0.477019 0.454861
538 2 0.113428 0.49031 0.473513
1394 4 0.227288 0.505698 0.471894
881 4 0.339006 0.453783 0.46448
880 2 0.347597 0.451866 0.487882
662 4 0.454124 0.453685 0.462677
586 2 0.431351 0.446918 0.427569
587 4 0.444373 0.441908 0.448318
661 2 0.459169 0.436743 0.48036
1059 4 0.186051 0.0558854 0.563221
1152 4 0.195798 0.0673771 0.55075
1057 2 0.187388 0.0324465 0.571824
1150 2 0.210948 0.0763565 0.533
1058 4 0.188724 0.00900751 0.580427
1151 4 0.226097 0.0853359 0.51525
1030 2 0.252179 0.0715159 0.575709
1180 2 0.253652 0.0777705 0.495431
841 2 0.394782 0.0475796 0.542978
843 4 0.392674 0.0275183 0.557752
842 4 0.396889 0.0676409 0.528203
1005 4 0.343916 0.0730736 0.553557
3158 4 0.392824 0.0848921 0.537636
1003 2 0.354444 0.068549 0.57578
1060 2 0.475065 0.0118861 0.535827
1061 4 0.450708 0.0063887 0.534533
4467 4 0.485487 0.995119 0.572796
1062 4 0.499423 0.0173835 0.53712
409 2 0.225504 0.155036 0.537033
410 4 0.232795 0.170688 0.555117
411 4 0.218213 0.139383 0.518949
1182 4 0.244893 0.0920529 0.513991
1032 4 0.248257 0.0895453 0.558835
898 2 0.388444 0.161723 0.546404
900 4 0.402499 0.14707 0.560996
3157 2 0.401079 0.106919 0.546112
642 4 0.362413 0.167345 0.519591
640 2 0.339398 0.169742 0.510117
3159 4 0.409334 0.128947 0.554588
1270 2 0.134288 0.210515 0.549765
1271 4 0.152658 0.19402 0.545809
1272 4 0.115918 0.227009 0.553721
858 4 0.172452 0.19535 0.545289
856 2 0.185921 0.200789 0.524938
857 4 0.199391 0.206228 0.504587
1221 4 0.195088 0.205403 0.567285
899 4 0.374389 0.176376 0.531812
904 2 0.493891 0.240084 0.561117
877 2 0.0183728 0.325776 0.526748
878 4 0.0273076 0.339119 0.507583
879 4 0.00943789 0.312433 0.545914
896 4 0.157666 0.318917 0.557481
10 3 0.14424 0.306534 0.505375
6 1 0.149745 0.328633 0.505349
895 2 0.169681 0.34079 0.559028
8 3 0.172737 0.331067 0.507305
803 4 0.289169 0.299155 0.575733
802 2 0.273877 0.318936 0.575626
791 4 0.310203 0.251891 0.566426
790 2 0.302917 0.271374 0.580301
812 4 0.318134 0.332885 0.523491
811 2 0.334059 0.313787 0.526109
871 2 0.362306 0.270755 0.556232
872 4 0.360775 0.279278 0.532776
813 4 0.349984 0.294689 0.528726
873 4 0.363837 0.262232 0.579688
583 2 0.444778 0.289459 0.526745
584 4 0.436931 0.272785 0.509846
585 4 0.452625 0.306133 0.543645
926 4 0.477129 0.331089 0.575515
1011 4 0.461553 0.291662 0.572305
1039 2 0.0827769 0.416165 0.548249
9 3 0.139111 0.339462 0.522901
1137 4 0.134448 0.358261 0.529532
1041 4 0.100879 0.404294 0.560762
1136 4 0.100521 0.38634 0.553221
1135 2 0.117484 0.372301 0.541376
1191 4 0.200095 0.354899 0.566582
897 4 0.181696 0.362663 0.560575
1189 2 0.223114 0.345741 0.563198
1190 4 0.246132 0.336583 0.559814
804 4 0.258584 0.338718 0.57552
774 4 0.265086 0.364464 0.525255
1239 4 0.330714 0.390804 0.566372
772 2 0.2513 0.377064 0.50863
929 4 0.34013 0.407576 0.56127
928 2 0.358381 0.402129 0.545072
930 4 0.376632 0.396681 0.528873
239 4 0.392386 0.393896 0.517208
238 2 0.384129 0.372167 0.507994
925 2 0.474024 0.348636 0.557976
3307 2 0.474997 0.400945 0.522818
1002 4 0.443859 0.390578 0.573261
3308 4 0.466984 0.383957 0.539322
1000 2 0.425903 0.402871 0.560947
927 4 0.470919 0.366184 0.540436
3309 4 0.483009 0.417934 0.506315
936 4 0.0521693 0.431324 0.520263
1040 4 0.0646753 0.428037 0.535736
1173 4 0.293108 0.416724 0.532308
1171 2 0.283564 0.423751 0.554324
1172 4 0.27402 0.430778 0.57634
1001 4 0.407947 0.415165 0.548634
1455 4 0.362763 0.465854 0.523072
1453 2 0.35327 0.485161 0.535811
882 4 0.356189 0.44995 0.511285
1031 4 0.256101 0.0534865 0.592583
962 4 0.266564 0.0465926 0.609433
961 2 0.281215 0.0303075 0.621488
963 4 0.295865 0.0140224 0.633543
1142 4 0.383541 0.0641841 0.604663
1004 4 0.364973 0.0640243 0.598002
1141 2 0.385783 0.0763122 0.626413
89 3 0.432004 0.00851625 0.611101
808 2 0.476945 0.0782952 0.640753
810 4 0.491217 0.0693338 0.622281
809 4 0.462673 0.0872566 0.659224
3076 2 0.016353 0.14673 0.596099
1081 2 0.0389769 0.118677 0.652789
1083 4 0.0296663 0.120533 0.629657
3078 4 0.0337575 0.164464 0.593313
1154 4 0.162025 0.164903 0.616289
1283 4 0.201528 0.153509 0.66552
1153 2 0.174717 0.165784 0.637814
887 4 0.288701 0.128514 0.610355
886 2 0.271691 0.143433 0.620997
888 4 0.254681 0.158351 0.63164
1143 4 0.388025 0.0884404 0.648162
948 4 0.166935 0.258285 0.655338
1219 2 0.19245 0.192974 0.58882
1155 4 0.187409 0.166664 0.659338
1258 2 0.177535 0.221647 0.644938
1210 2 0.22804 0.192788 0.636648
1211 4 0.213662 0.213176 0.638327
1220 4 0.189812 0.180545 0.610354
1259 4 0.17889 0.197025 0.649072
1212 4 0.242417 0.172401 0.634969
906 4 0.476376 0.23871 0.578908
1244 4 0.00020128 0.317023 0.654649
1260 4 0.176181 0.246269 0.640804
792 4 0.295631 0.290856 0.594176
1010 4 0.476533 0.279051 0.618319
1009 2 0.469043 0.285356 0.595312
952 2 0.450622 0.298504 0.646712
953 4 0.464341 0.29418 0.62626
954 4 0.436903 0.302828 0.667164
992 4 0.105264 0.363678 0.659567
1068 4 0.144707 0.38274 0.645613
1066 2 0.160258 0.402146 0.648206
1238 4 0.328671 0.392938 0.616291
1237 2 0.329692 0.391871 0.591332
806 4 0.341286 0.397913 0.631666
805 2 0.345931 0.380896 0.649387
1007 4 0.341869 0.346209 0.66716
1100 4 0.43705 0.368602 0.642755
2129 4 0.0321625 0.476225 0.670291
2170 2 0.119395 0.498079 0.627736
1160 4 0.152383 0.484794 0.650367
2172 4 0.140813 0.498637 0.640626
1067 4 0.175809 0.421553 0.650799
1161 4 0.193173 0.490054 0.621921
1159 2 0.172778 0.487424 0.636144
1029 4 0.25636 0.430662 0.634475
1027 2 0.268814 0.43544 0.613327
891 4 0.341829 0.469503 0.621794
1028 4 0.281267 0.440217 0.592178
1953 4 0.328372 0.480521 0.611088
889 2 0.340093 0.453716 0.641106
890 4 0.338357 0.437929 0.660418
1268 4 0.457296 0.472697 0.64469
1267 2 0.441631 0.484797 0.659967
863 4 0.0840483 0.0791316 0.705215
2317 2 0.107029 0.993289 0.667083
2318 4 0.0978638 0.01201 0.680893
944 4 0.0995921 0.0719215 0.716208
823 2 0.227716 0.0740909 0.692244
824 4 0.228015 0.049842 0.698333
2256 4 0.20026 0.00557557 0.737683
1092 4 0.315311 0.0126861 0.682285
1090 2 0.316421 0.0280705 0.701964
1091 4 0.317531 0.043455 0.721643
1049 4 0.315086 0.0386718 0.740442
1113 4 0.40177 0.0573754 0.738914
43 3 0.395368 0.0769314 0.739019
1111 2 0.414809 0.0537318 0.759935
1216 2 0.421986 0.0133025 0.674375
1217 4 0.430122 0.034275 0.68529
1164 4 0.423524 0.0492013 0.697764
1162 2 0.441916 0.0630612 0.688027
2989 2 0.0116618 0.10384 0.720185
2991 4 0.0271295 0.110023 0.701539
864 4 0.0454786 0.108633 0.693267
862 2 0.0647634 0.0938824 0.699241
1082 4 0.0482876 0.116821 0.67592
1075 2 0.0315785 0.15847 0.709142
834 4 0.00359507 0.153657 0.728462
1076 4 0.0496791 0.147363 0.695944
945 4 0.142841 0.0945709 0.727038
943 2 0.121216 0.0832462 0.721623
909 4 0.159784 0.10396 0.720217
1282 2 0.206076 0.131186 0.675824
907 2 0.17274 0.120929 0.733232
825 4 0.227417 0.0983398 0.686154
1284 4 0.210624 0.108863 0.686128
908 4 0.185695 0.137897 0.746248
1227 4 0.201869 0.149363 0.747698
829 2 0.267892 0.111177 0.737961
831 4 0.265624 0.129539 0.721142
1298 4 0.260199 0.147773 0.718249
45 3 0.381047 0.104287 0.717473
41 1 0.382412 0.096178 0.73871
42 3 0.39224 0.111977 0.752236
44 3 0.361161 0.0915518 0.746799
1163 4 0.460309 0.0769211 0.678291
3425 4 0.493221 0.157481 0.675809
1077 4 0.013478 0.169577 0.72234
1178 4 0.0704779 0.247948 0.720684
1177 2 0.0807034 0.225286 0.723336
1179 4 0.0909289 0.202624 0.725988
1106 4 0.103007 0.199041 0.741542
1193 4 0.310675 0.234569 0.681449
976 2 0.280936 0.225298 0.704066
977 4 0.290769 0.234726 0.683099
978 4 0.271103 0.215871 0.725033
1299 4 0.268819 0.197019 0.717135
1297 2 0.264509 0.172396 0.717692
1086 4 0.33217 0.184612 0.74503
1192 2 0.333156 0.224891 0.686559
1194 4 0.355636 0.215213 0.69167
1044 4 0.368069 0.200336 0.69447
1042 2 0.387173 0.214656 0.701897
1043 4 0.406278 0.228975 0.709324
1025 4 0.472928 0.160134 0.674954
1024 2 0.454918 0.176717 0.680036
1026 4 0.436908 0.1933 0.685118
3123 4 0.472222 0.246484 0.737371
3121 2 0.49636 0.246791 0.730859
1209 4 0.0697459 0.265596 0.727559
1208 4 0.0411354 0.278195 0.688529
1207 2 0.0554407 0.271896 0.708044
947 4 0.131193 0.265254 0.689612
946 2 0.149064 0.261769 0.672475
1240 2 0.198182 0.297864 0.745318
1241 4 0.210888 0.276553 0.742223
1065 4 0.226249 0.263752 0.738772
798 4 0.287788 0.277899 0.681212
796 2 0.302212 0.297079 0.68823
797 4 0.316637 0.316259 0.695247
1008 4 0.363399 0.311597 0.696128
1006 2 0.352634 0.328903 0.681644
1263 4 0.46813 0.259923 0.722971
1262 4 0.420059 0.272861 0.727712
1261 2 0.444094 0.266392 0.725341
894 4 0.0129728 0.40678 0.728288
991 2 0.094445 0.372134 0.680462
993 4 0.0836258 0.380591 0.701357
883 2 0.0960576 0.412318 0.740358
822 4 0.154874 0.367013 0.725995
820 2 0.161817 0.348133 0.740845
807 4 0.350577 0.36388 0.667108
1138 2 0.360494 0.399972 0.740046
1139 4 0.367869 0.410142 0.718428
1099 2 0.437421 0.375742 0.666714
1101 4 0.437792 0.382883 0.690674
3329 4 0.455433 0.384632 0.700413
3328 2 0.467153 0.405195 0.708476
1281 4 0.0208285 0.420073 0.740209
2128 2 0.0327733 0.495686 0.685977
1279 2 0.0430403 0.427548 0.731494
1280 4 0.0652521 0.435022 0.722779
884 4 0.0856747 0.427312 0.723255
942 4 0.18726 0.423759 0.668073
1236 4 0.224807 0.430952 0.726214
941 4 0.210464 0.429192 0.712036
940 2 0.198862 0.426476 0.690055
1234 2 0.236488 0.421739 0.74631
1205 4 0.347531 0.450811 0.671848
1204 2 0.355367 0.44025 0.693114
1206 4 0.363203 0.429688 0.714379
1987 2 0.35641 0.485617 0.735559
1229 4 0.406294 0.498071 0.671708
3330 4 0.478874 0.425757 0.716538
1269 4 0.425966 0.496896 0.675244
2988 4 0.468939 0.501865 0.747251
1295 4 0.0863997 0.0160882 0.773901
1294 2 0.0842745 0.0399198 0.781162
1296 4 0.0821493 0.0637513 0.788423
2049 4 0.0808261 0.00636002 0.757372
1202 4 0.170673 0.0822505 0.779894
1256 4 0.317027 0.0335137 0.804858
1050 4 0.306693 0.0280293 0.788577
1048 2 0.310889 0.0333506 0.76451
1255 2 0.317797 0.0198502 0.825784
874 2 0.257284 0.0142497 0.840872
876 4 0.277134 0.0285303 0.846088
1112 4 0.427848 0.0500881 0.780956
844 2 0.48934 0.0638784 0.796015
2441 4 0.456616 0.0163211 0.810519
845 4 0.467735 0.0588569 0.807556
2440 2 0.44649 0.0160593 0.833379
2321 4 0.475753 0.012494 0.809251
1286 4 0.0854354 0.0813682 0.797812
1203 4 0.138317 0.117534 0.794346
1287 4 0.119883 0.116958 0.804703
1285 2 0.102659 0.099163 0.801257
32 3 0.150216 0.134222 0.7955
31 1 0.134871 0.147625 0.806179
33 3 0.145176 0.157894 0.824255
35 3 0.11747 0.134827 0.813395
1201 2 0.154495 0.0998924 0.78712
34 3 0.127245 0.163664 0.791247
1148 4 0.213286 0.0931935 0.795823
1147 2 0.233427 0.0954691 0.781184
1225 2 0.19303 0.166169 0.763964
830 4 0.27016 0.0928143 0.754779
1149 4 0.253569 0.0977448 0.766544
838 2 0.278006 0.147294 0.786514
839 4 0.275938 0.157814 0.763926
840 4 0.280075 0.136775 0.809102
1085 4 0.284419 0.174691 0.756082
1023 4 0.395576 0.172796 0.822203
1021 2 0.377513 0.159472 0.83322
3270 4 0.506055 0.0987857 0.772667
851 4 0.0164268 0.235785 0.752065
1107 4 0.127334 0.181884 0.781724
1105 2 0.115171 0.190462 0.761633