ITEM: TIMESTEP
4870000
ITEM: NUMBER OF ATOMS
4590
ITEM: BOX BOUNDS pp pp pp
-9.9985700000000008e+00 9.9985700000000008e+00
-9.9985700000000008e+00 9.9985700000000008e+00
-9.9985700000000008e+00 9.9985700000000008e+00
ITEM: ATOMS id type xs ys zs
657 4 0.0186917 0.0131667 0.0034186
567 4 0.10193 0.00660166 0.0214368
1841 4 0.155358 0.0806251 0.0486681
1840 2 0.159898 0.0561257 0.0507512
1842 4 0.164439 0.0316262 0.0528343
2252 4 0.109741 0.0236727 0.0228661
2251 2 0.125951 0.0371331 0.00940406
486 4 0.171421 0.0250809 0.0338545
484 2 0.185413 0.00447198 0.0316873
357 4 0.257542 0.0648843 0.0500466
355 2 0.256432 0.0660632 0.0749977
1476 4 0.289996 0.00873376 0.0669339
2181 4 0.348541 0.0400006 0.0360401
2179 2 0.351975 0.0198434 0.0504302
492 4 0.403845 0.0498626 0.00728781
2442 4 0.414609 0.0659359 0.000565067
2976 4 0.474912 0.0660756 0.0248059
2441 4 0.464189 0.0662012 0.00708035
2440 2 0.439399 0.0660686 0.00382271
2469 4 0.443895 0.0252117 0.0429392
2467 2 0.458188 0.0260866 0.0634364
2974 2 0.4755 0.0758206 0.0478247
986 4 0.435518 0.0201578 0.0262334
147 3 0.493788 0.0674813 0.0191142
2466 4 0.493244 0.0152783 0.0177053
146 1 0.492185 0.0522708 0.00193212
835 2 0.0226475 0.117869 0.0742555
836 4 0.0130523 0.138044 0.063027
701 4 0.152979 0.0954964 0.063124
700 2 0.141006 0.109662 0.0463554
702 4 0.129034 0.123827 0.0295867
554 4 0.128096 0.120691 0.0111246
353 4 0.298486 0.129017 0.0199328
352 2 0.291525 0.152134 0.0134276
23 3 0.47787 0.108911 0.0260478
21 1 0.487563 0.128286 0.0343584
22 3 0.483203 0.129704 0.0569
2975 4 0.476088 0.0855657 0.0708435
24 3 0.478499 0.146844 0.0237824
2894 4 0.468969 0.144993 0.061749
254 4 0.466931 0.100022 0.0825169
2760 4 0.0266417 0.173488 0.0200927
3261 4 0.0130283 0.184949 0.0310699
463 2 0.118519 0.199581 0.0275521
464 4 0.121594 0.221658 0.0162241
456 4 0.115708 0.240991 0.0123836
465 4 0.115444 0.177504 0.0388801
915 4 0.166309 0.178799 0.0748705
913 2 0.170821 0.203208 0.0718602
293 4 0.18827 0.229626 0.0839968
914 4 0.175332 0.227616 0.0688499
902 4 0.29086 0.219114 0.0606789
296 4 0.30543 0.211471 0.0498307
295 2 0.294067 0.203291 0.0291143
901 2 0.295189 0.242997 0.0666829
354 4 0.284563 0.175251 0.00692245
297 4 0.282705 0.195111 0.00839799
358 2 0.394953 0.176725 0.00208027
282 4 0.395571 0.214845 0.0206406
280 2 0.398268 0.225103 0.043283
359 4 0.390017 0.200447 0.00825425
281 4 0.400966 0.235361 0.0659254
454 2 0.111035 0.260513 0.0272911
455 4 0.106361 0.280035 0.0421986
287 4 0.108833 0.269367 0.0589687
495 4 0.143241 0.313279 0.025223
967 2 0.10551 0.333206 0.0156674
969 4 0.128933 0.324642 0.0174466
493 2 0.166236 0.320554 0.0318164
286 2 0.101727 0.276777 0.0817674
494 4 0.189231 0.32783 0.0384098
422 4 0.212841 0.252024 0.00506986
903 4 0.299519 0.26688 0.0726869
2007 4 0.380452 0.324959 0.0330926
517 2 0.403446 0.327717 0.081304
309 4 0.483283 0.306462 0.0665589
968 4 0.0820858 0.34177 0.0138881
2807 4 0.0732171 0.351558 0.0287374
2806 2 0.0508189 0.362397 0.0262822
1055 4 0.0337217 0.378101 0.00465917
2808 4 0.0284207 0.373235 0.023827
2513 4 0.153502 0.395063 0.0171425
2512 2 0.170461 0.412183 0.0238118
2005 2 0.387595 0.347749 0.0256926
2006 4 0.394737 0.37054 0.0182926
518 4 0.410745 0.349922 0.0724259
789 4 0.391705 0.380024 0.000999222
787 2 0.392596 0.404973 0.00240281
528 4 0.424774 0.356664 0.0604672
526 2 0.428007 0.381366 0.0625988
527 4 0.43124 0.406068 0.0647304
671 4 0.492848 0.415403 0.0661446
3338 4 0.050622 0.46985 0.063634
3337 2 0.0445117 0.467935 0.0394643
3339 4 0.0384015 0.46602 0.0152945
2514 4 0.18742 0.429303 0.0304811
11 1 0.359205 0.470341 0.0219101
12 3 0.36633 0.468597 0.0437128
596 4 0.385892 0.471565 0.0479379
15 3 0.359038 0.49228 0.0158055
595 2 0.407248 0.462317 0.0570805
14 3 0.337812 0.461505 0.0202798
13 3 0.373747 0.458445 0.00829292
788 4 0.393488 0.429921 0.00380639
670 2 0.468289 0.4169 0.0705974
597 4 0.428604 0.45307 0.0662231
672 4 0.443731 0.418397 0.0750501
381 4 0.0045479 0.0459694 0.130597
379 2 0.006156 0.0386462 0.15445
1662 4 0.225809 0.0213096 0.14452
1660 2 0.23374 0.0140719 0.121939
1661 4 0.241671 0.00683422 0.0993577
1474 2 0.275259 0.0113787 0.0869586
757 2 0.252752 0.071349 0.131784
758 4 0.25241 0.0535119 0.114266
356 4 0.255323 0.067242 0.0999488
1475 4 0.260521 0.0140237 0.106983
1748 4 0.377719 0.00845362 0.125724
742 2 0.385167 0.0501845 0.13182
743 4 0.381395 0.025695 0.135169
744 4 0.38894 0.0746739 0.128471
1747 2 0.365185 0.002347 0.104969
771 4 0.482106 0.0421355 0.0935465
2468 4 0.47248 0.0269614 0.0839335
1761 4 0.452391 0.0110009 0.118253
1759 2 0.476083 0.00313039 0.119643
255 4 0.441851 0.0777995 0.119637
837 4 0.0322427 0.0976936 0.085484
450 4 0.200156 0.144254 0.120621
448 2 0.19096 0.160883 0.104371
606 4 0.202974 0.125452 0.126631
604 2 0.22385 0.116835 0.13736
605 4 0.244726 0.108218 0.14809
28 3 0.249343 0.119399 0.163555
722 4 0.259733 0.127888 0.0847386
759 4 0.253095 0.089186 0.149303
721 2 0.275494 0.140794 0.0992375
723 4 0.291255 0.153699 0.113736
693 4 0.295571 0.143507 0.130117
691 2 0.306056 0.124172 0.142009
692 4 0.31654 0.104837 0.153901
30 3 0.264524 0.0849589 0.164594
1506 4 0.374463 0.0869125 0.122718
1505 4 0.336216 0.105712 0.148881
1504 2 0.355339 0.0963121 0.1358
2893 2 0.460043 0.150703 0.0843964
253 2 0.454391 0.0889106 0.101077
2895 4 0.451117 0.156413 0.107044
705 4 0.0236901 0.176913 0.108096
703 2 0.043848 0.191238 0.111789
704 4 0.0640059 0.205562 0.115482
462 4 0.0558604 0.219587 0.126914
460 2 0.0650984 0.241226 0.135377
449 4 0.181763 0.177513 0.0881214
292 2 0.199918 0.243709 0.10106
580 2 0.231045 0.232562 0.143222
581 4 0.245003 0.21297 0.150039
732 4 0.2421 0.194494 0.159853
378 4 0.415209 0.235103 0.118345
376 2 0.416861 0.222659 0.139969
377 4 0.418514 0.210215 0.161593
629 4 0.430076 0.193495 0.16182
461 4 0.0743364 0.262864 0.14384
475 2 0.0742603 0.315743 0.124337
476 4 0.0564686 0.332315 0.130167
623 4 0.0871752 0.277537 0.152616
477 4 0.0920521 0.29917 0.118508
288 4 0.0946211 0.284186 0.104566
622 2 0.108276 0.26746 0.161469
582 4 0.217086 0.252154 0.136404
294 4 0.211567 0.257792 0.118123
103 3 0.220285 0.274657 0.10824
101 1 0.219053 0.284817 0.129065
105 3 0.216005 0.269065 0.145227
102 3 0.20123 0.299359 0.129201
278 4 0.198804 0.318634 0.130571
104 3 0.23851 0.296758 0.133217
2876 4 0.4073 0.252759 0.122534
519 4 0.396147 0.305511 0.0901822
2877 4 0.385936 0.293237 0.102389
2875 2 0.396618 0.272998 0.112462
307 2 0.485366 0.303061 0.0912424
308 4 0.487448 0.299659 0.115926
496 2 0.456 0.322702 0.13437
498 4 0.469539 0.307764 0.119581
524 4 0.0744586 0.375094 0.0923861
2772 4 0.0765071 0.4153 0.141799
755 4 0.0518066 0.349058 0.139123
754 2 0.0527465 0.351772 0.163961
416 4 0.133646 0.362351 0.0863944
525 4 0.124339 0.378655 0.092265
523 2 0.0993986 0.376875 0.0923255
415 2 0.154453 0.373905 0.0940601
363 4 0.185973 0.384953 0.118558
361 2 0.184623 0.391297 0.142706
417 4 0.17526 0.385459 0.101726
277 2 0.210165 0.340045 0.124432
279 4 0.221526 0.361456 0.118293
1121 4 0.228217 0.377529 0.126681
1120 2 0.245761 0.394624 0.121669
1122 4 0.263306 0.411719 0.116658
1071 4 0.27972 0.407745 0.126683
1069 2 0.304036 0.402313 0.124581
1070 4 0.328351 0.396881 0.122479
609 4 0.344302 0.401174 0.113014
607 2 0.363094 0.412822 0.12469
497 4 0.442461 0.33764 0.149159
2770 2 0.0541314 0.42626 0.14389
2771 4 0.0317557 0.437221 0.145981
314 4 0.012274 0.436383 0.148191
313 2 0.0110232 0.457662 0.161261
2094 4 0.0874721 0.428923 0.15363
766 2 0.139528 0.469996 0.106487
768 4 0.119129 0.483477 0.111714
767 4 0.159927 0.456514 0.10126
330 4 0.105275 0.493497 0.1007
638 4 0.179449 0.457307 0.103878
637 2 0.195083 0.464361 0.122071
639 4 0.210718 0.471416 0.140263
1863 4 0.216047 0.469951 0.158823
1861 2 0.230487 0.49036 0.158441
608 4 0.381887 0.42447 0.136366
740 4 0.391573 0.429724 0.155162
674 4 0.0118049 0.0026684 0.217739
233 4 0.0103542 0.0490465 0.189468
232 2 0.0129568 0.0558336 0.213392
234 4 0.0155595 0.0626207 0.237315
380 4 0.0077641 0.031323 0.178303
2675 4 0.00403468 0.0752442 0.247052
2850 4 0.0985022 0.074265 0.222069
2848 2 0.112503 0.0699966 0.242341
579 4 0.151986 0.147436 0.192271
237 4 0.1757 0.0909982 0.173533
235 2 0.172329 0.114976 0.179769
236 4 0.168959 0.138953 0.186006
731 4 0.222189 0.160832 0.191016
27 3 0.253236 0.101232 0.196227
26 1 0.26278 0.104817 0.175606
29 3 0.283839 0.114088 0.178596
404 4 0.257668 0.086116 0.246466
2910 4 0.307161 0.141298 0.247164
515 4 0.291221 0.129302 0.24433
2572 2 0.473637 0.130013 0.195636
2574 4 0.471605 0.134924 0.171204
2573 4 0.47567 0.125102 0.220068
699 4 0.471383 0.105813 0.224386
697 2 0.471659 0.0968218 0.247715
1220 4 0.0144029 0.238872 0.174549
1219 2 0.0318735 0.244925 0.191382
578 4 0.150346 0.192046 0.21481
507 4 0.148293 0.209837 0.20447
577 2 0.151166 0.169741 0.203541
505 2 0.144238 0.233169 0.19645
730 2 0.232145 0.177663 0.175435
546 4 0.21203 0.1754 0.223771
544 2 0.223176 0.166954 0.244499
250 2 0.251172 0.238669 0.204975
251 4 0.258883 0.216899 0.195395
350 4 0.268702 0.200395 0.191867
349 2 0.286018 0.196138 0.209395
351 4 0.303333 0.191881 0.226923
764 4 0.310954 0.209765 0.231026
630 4 0.415743 0.1859 0.209124
331 2 0.439166 0.168618 0.23789
332 4 0.423028 0.169368 0.218806
628 2 0.422909 0.189698 0.185472
395 4 0.00336272 0.325887 0.214544
3573 4 0.00149574 0.306129 0.21998
1221 4 0.049344 0.250977 0.208214
459 4 0.0520322 0.254984 0.22804
457 2 0.076341 0.253535 0.233711
458 4 0.10065 0.252085 0.239382
624 4 0.129377 0.257382 0.170322
506 4 0.140183 0.256502 0.18843
252 4 0.24346 0.260439 0.214555
285 4 0.230228 0.272862 0.224826
283 2 0.215321 0.265299 0.243421
385 2 0.39606 0.310459 0.218576
611 4 0.362771 0.307846 0.240854
387 4 0.383412 0.303711 0.239062
386 4 0.408708 0.317206 0.198089
276 4 0.400643 0.329683 0.185736
394 2 0.0230363 0.340707 0.210242
396 4 0.0427098 0.355526 0.20594
756 4 0.0536864 0.354485 0.188799
262 2 0.0963253 0.384657 0.232553
263 4 0.0945895 0.364478 0.247215
290 4 0.146863 0.37508 0.221775
264 4 0.0980612 0.404836 0.217891
289 2 0.160243 0.383624 0.202457
735 4 0.158125 0.374948 0.238304
362 4 0.183274 0.397642 0.166853
291 4 0.173622 0.392167 0.183139
275 4 0.444039 0.34689 0.167807
2538 4 0.485943 0.375252 0.187036
274 2 0.422341 0.338287 0.176771
2651 4 0.48454 0.357996 0.176839
2536 2 0.468299 0.392935 0.185948
712 2 0.431538 0.412448 0.221532
2537 4 0.450655 0.410618 0.18486
713 4 0.418545 0.405128 0.241601
315 4 0.00977235 0.478941 0.174332
1382 4 0.10205 0.422641 0.224286
2092 2 0.102223 0.441339 0.169549
2093 4 0.116974 0.453755 0.185469
728 4 0.133316 0.454926 0.174329
727 2 0.145103 0.471293 0.189106
729 4 0.156891 0.487659 0.203884
1381 2 0.109309 0.437974 0.242654
1788 4 0.206558 0.490976 0.230052
739 2 0.3892 0.44785 0.172221
741 4 0.386826 0.465976 0.189279
303 4 0.395058 0.466744 0.207931
301 2 0.414166 0.481627 0.214143
714 4 0.44453 0.419768 0.201462
302 4 0.433273 0.49651 0.220355
2674 2 0.00415686 0.0824206 0.271003
1869 4 0.0961458 0.0152948 0.285508
1867 2 0.111875 0.0134815 0.304859
1868 4 0.127605 0.0116682 0.32421
429 4 0.142343 0.0230547 0.33216
427 2 0.158881 0.0365854 0.319176
2849 4 0.126503 0.0657282 0.262613
317 4 0.10928 0.0101981 0.270222
1272 4 0.125718 0.0767908 0.278596
393 4 0.223322 0.0466741 0.27276
405 4 0.240018 0.0419323 0.261861
428 4 0.175419 0.0501162 0.306192
392 4 0.191163 0.0397128 0.310418
391 2 0.207243 0.0431934 0.291589
479 4 0.242022 0.0598927 0.297769
403 2 0.248843 0.0640241 0.254163
478 2 0.2635 0.0581746 0.310456
480 4 0.284977 0.0564565 0.323142
521 4 0.48341 0.0721542 0.27529
511 2 0.0588023 0.111847 0.300505
512 4 0.0341764 0.115814 0.298772
2676 4 0.00427905 0.0895971 0.294955
513 4 0.0834281 0.107879 0.302238
1271 4 0.102121 0.10914 0.308553
1270 2 0.11392 0.0929653 0.293574
530 4 0.235345 0.116214 0.321341
529 2 0.234708 0.129875 0.300409
531 4 0.23407 0.143536 0.279477
545 4 0.234321 0.158509 0.265227
516 4 0.253131 0.100681 0.259519
514 2 0.272176 0.114992 0.251925
2908 2 0.317363 0.146372 0.269421
2909 4 0.327565 0.151445 0.291678
2656 2 0.316455 0.158936 0.322291
651 4 0.250365 0.125679 0.330246
698 4 0.471935 0.0878302 0.271045
633 4 0.445313 0.138225 0.312234
631 2 0.442843 0.147398 0.289105
2879 4 0.452814 0.119963 0.312655
632 4 0.440373 0.156571 0.265977
2878 2 0.441374 0.110673 0.332853
298 2 0.0104886 0.243655 0.306435
2692 2 0.0423265 0.210733 0.276055
2693 4 0.0256764 0.220486 0.291956
2694 4 0.0589766 0.20098 0.260155
300 4 0.031585 0.230393 0.30849
2657 4 0.321005 0.168028 0.299448
763 2 0.317561 0.223591 0.250784
510 4 0.314894 0.240364 0.288446
765 4 0.324167 0.237417 0.270542
333 4 0.455304 0.167868 0.256974
750 4 0.113748 0.252633 0.255759
748 2 0.113928 0.272505 0.270933
749 4 0.114108 0.292377 0.286106
618 4 0.125634 0.290402 0.301217
616 2 0.120839 0.313476 0.309569
388 2 0.199082 0.260599 0.303359
284 4 0.200414 0.257736 0.262015
390 4 0.206772 0.265545 0.280087
365 4 0.236293 0.311727 0.278427
364 2 0.21911 0.324433 0.265447
389 4 0.191393 0.255654 0.326631
344 4 0.256647 0.310067 0.278723
612 4 0.321515 0.307525 0.269113
345 4 0.303708 0.299639 0.26541
343 2 0.280177 0.304853 0.272067
508 2 0.319977 0.25287 0.309492
509 4 0.32506 0.265375 0.330539
610 2 0.342143 0.307686 0.254984
2682 4 0.494173 0.261826 0.317377
2592 4 0.475877 0.25567 0.321946
537 4 0.0331842 0.367119 0.312073
412 2 0.0613791 0.367676 0.277581
414 4 0.0447779 0.369656 0.296173
413 4 0.0779803 0.365696 0.258989
617 4 0.116044 0.336551 0.317921
2654 4 0.0984834 0.348704 0.313941
2653 2 0.107913 0.371789 0.312113
2655 4 0.117342 0.394874 0.310284
3671 4 0.112532 0.414248 0.316855
733 2 0.172155 0.358764 0.251205
734 4 0.186184 0.342581 0.264105
366 4 0.201926 0.33714 0.252468
643 2 0.287677 0.390867 0.331096
644 4 0.281755 0.389799 0.306828
1574 4 0.343878 0.386521 0.261499
1575 4 0.384265 0.362711 0.278897
1573 2 0.364071 0.374616 0.270198
2862 4 0.426773 0.40392 0.259513
2860 2 0.445159 0.409697 0.275443
2861 4 0.463544 0.415474 0.291374
1383 4 0.116567 0.453307 0.261022
3672 4 0.12159 0.441533 0.275938
3670 2 0.117061 0.42789 0.296396
245 4 0.196487 0.425887 0.332839
244 2 0.208486 0.422571 0.311155
246 4 0.220486 0.419256 0.289471
677 4 0.170714 0.498423 0.264668
676 2 0.191297 0.497691 0.278845
627 4 0.231796 0.430516 0.277034
626 4 0.248902 0.476961 0.269897
625 2 0.240349 0.453738 0.273466
678 4 0.211879 0.496959 0.293023
753 4 0.318837 0.484902 0.323389
435 4 0.326212 0.42015 0.315098
1802 4 0.331707 0.424898 0.280594
751 2 0.337781 0.496067 0.311488
1803 4 0.364856 0.458617 0.296872
1801 2 0.348281 0.441757 0.288733
542 4 0.367911 0.469582 0.314319
541 2 0.383519 0.468262 0.333808
3989 4 0.501037 0.465908 0.287389
3990 4 0.479694 0.423072 0.301892
3988 2 0.490366 0.44449 0.29464
3602 4 0.485884 0.474325 0.298909
3601 2 0.478217 0.497599 0.303879
2236 2 0.0802547 0.0540594 0.40538
164 3 0.0307745 0.079114 0.404925
2237 4 0.0641163 0.0724687 0.410462
2238 4 0.0963932 0.0356502 0.400298
2642 4 0.280166 0.057899 0.343865
2641 2 0.304659 0.0581846 0.34888
2643 4 0.329153 0.0584702 0.353895
599 4 0.382225 0.0485904 0.363943
598 2 0.360173 0.0473159 0.352227
600 4 0.338121 0.0460415 0.340511
1518 4 0.395742 0.0584202 0.377836
1516 2 0.403438 0.0801095 0.368062
762 4 0.493634 0.0756472 0.364984
2552 4 0.479943 0.0655633 0.375376
2551 2 0.482864 0.0601565 0.399613
165 3 0.0534437 0.106939 0.393544
161 1 0.0451552 0.0960078 0.411722
708 4 0.12675 0.130169 0.358155
706 2 0.150846 0.123902 0.360444
470 4 0.22204 0.110163 0.335102
707 4 0.174943 0.117635 0.362734
469 2 0.203392 0.105013 0.350942
471 4 0.184744 0.099863 0.366782
371 4 0.240623 0.14967 0.392961
650 4 0.252134 0.14009 0.378099
649 2 0.25125 0.132885 0.354172
1032 4 0.314583 0.112022 0.403078
1030 2 0.315973 0.127849 0.383771
1031 4 0.317363 0.143677 0.364464
2658 4 0.311905 0.149844 0.345134
1517 4 0.411133 0.101799 0.358288
3174 4 0.492695 0.167112 0.383201
3172 2 0.485983 0.152164 0.364316
3173 4 0.47927 0.137216 0.34543
761 4 0.488569 0.119956 0.342361
2880 4 0.429933 0.101383 0.353052
2517 4 0.438233 0.121751 0.391909
760 2 0.491101 0.0978015 0.353673
2515 2 0.430768 0.10785 0.411305
340 2 0.12241 0.200642 0.405589
341 4 0.10398 0.188582 0.393753
342 4 0.14084 0.212702 0.417424
2590 2 0.461423 0.239487 0.334372
2591 4 0.446969 0.223305 0.346797
320 4 0.308347 0.276912 0.411082
717 4 0.338711 0.269099 0.344615
715 2 0.357018 0.27847 0.358834
716 4 0.375326 0.287842 0.373053
488 4 0.380706 0.306716 0.369004
487 2 0.393649 0.320252 0.38557
489 4 0.406592 0.333789 0.402136
535 2 0.0240979 0.359832 0.334198
536 4 0.0150116 0.352544 0.356323
2139 4 0.0779483 0.401311 0.398715
710 4 0.0918905 0.386839 0.405089
709 2 0.113466 0.3753 0.410238
711 4 0.135042 0.36376 0.415387
645 4 0.293599 0.391934 0.355365
375 4 0.286899 0.399478 0.404299
583 2 0.408221 0.412323 0.39632
585 4 0.387127 0.410958 0.409675
584 4 0.429316 0.413687 0.382966
2137 2 0.0676796 0.423864 0.395387
568 2 0.0687487 0.483087 0.394307
569 4 0.0729309 0.459241 0.400557
2138 4 0.0574109 0.446418 0.392059
1451 4 0.137584 0.493406 0.369538
1555 2 0.141956 0.492903 0.405764
433 2 0.330456 0.425807 0.33908
434 4 0.3347 0.431464 0.363063
615 4 0.348191 0.427957 0.378892
613 2 0.337772 0.433492 0.400937
543 4 0.399127 0.466942 0.353297
1485 4 0.412674 0.453402 0.350344
446 4 0.436051 0.496365 0.375088
1484 4 0.444979 0.478235 0.379334
1483 2 0.428826 0.465819 0.364839
1033 2 0.00410602 0.0759138 0.454813
1151 4 0.214366 0.0138156 0.497207
1059 4 0.196788 0.0117584 0.429306
1150 2 0.209947 0.0138168 0.472597
1152 4 0.205528 0.013818 0.447987
2239 2 0.320069 0.00898379 0.483023
2241 4 0.336951 0.00821917 0.464594
683 4 0.351536 0.0203996 0.459956
682 2 0.370372 0.0285094 0.44565
684 4 0.389207 0.0366192 0.431345
1061 4 0.39871 0.0474314 0.444282
1060 2 0.412051 0.0683826 0.447152
420 4 0.475472 0.067762 0.436667
2553 4 0.485784 0.0547498 0.42385
418 2 0.482365 0.0792158 0.457797
163 3 0.0625561 0.0870579 0.424193
162 3 0.0334886 0.110876 0.424836
938 4 0.00499881 0.162885 0.441509
1034 4 0.00825193 0.0991941 0.446687
937 2 0.0121658 0.138937 0.440991
939 4 0.0193327 0.114988 0.440473
472 2 0.227262 0.144174 0.473688
474 4 0.220587 0.13902 0.497226
473 4 0.233937 0.149329 0.45015
370 2 0.246649 0.147821 0.417157
372 4 0.252674 0.145971 0.441353
3159 4 0.323493 0.108462 0.421552
3157 2 0.324941 0.112196 0.446233
3158 4 0.326389 0.11593 0.470913
2502 4 0.321862 0.111588 0.490399
419 4 0.489258 0.0906695 0.478927
1062 4 0.425393 0.0893338 0.450022
2516 4 0.423304 0.0939483 0.430701
2613 4 0.0182501 0.178864 0.441019
2611 2 0.0330827 0.190299 0.457585
2847 4 0.0413537 0.219885 0.472281
2845 2 0.0348938 0.243648 0.476614
2612 4 0.0479152 0.201734 0.47415
402 4 0.157713 0.202816 0.421174
825 4 0.141677 0.245447 0.48826
400 2 0.171352 0.220917 0.431734
401 4 0.18499 0.239018 0.442295
1191 4 0.204008 0.247129 0.447409
321 4 0.344711 0.244639 0.422781
642 4 0.361389 0.236614 0.431184
640 2 0.354592 0.230931 0.454565
641 4 0.347796 0.225247 0.477946
899 4 0.340497 0.207565 0.485118
898 2 0.34416 0.183681 0.491548
2899 2 0.499465 0.169471 0.417035
2900 4 0.494207 0.183944 0.436734
312 4 0.481592 0.19639 0.444612
310 2 0.471018 0.218676 0.448699
311 4 0.460443 0.240961 0.452785
259 2 0.024268 0.302044 0.498983
2846 4 0.0284339 0.267411 0.480947
261 4 0.0362679 0.281025 0.492708
823 2 0.160473 0.26063 0.481828
443 4 0.123549 0.293957 0.431238
442 2 0.119707 0.300192 0.455145
444 4 0.115866 0.306427 0.479052
696 4 0.127786 0.323005 0.481165
824 4 0.179269 0.275813 0.475397
1189 2 0.222556 0.253653 0.462856
669 4 0.177179 0.276819 0.456786
667 2 0.185998 0.297703 0.446238
668 4 0.194818 0.318586 0.435689
1190 4 0.241104 0.260177 0.478303
319 2 0.326529 0.260775 0.416931
1394 4 0.250392 0.273546 0.490816
872 4 0.289747 0.316711 0.478097
871 2 0.272949 0.327423 0.462988
812 4 0.299498 0.31423 0.494399
452 4 0.453205 0.256802 0.462383
453 4 0.430347 0.298535 0.447003
266 4 0.438902 0.316722 0.44355
451 2 0.441776 0.277669 0.454693
265 2 0.423004 0.331278 0.430879
539 4 0.0821237 0.403101 0.496926
694 2 0.147996 0.334903 0.489837
636 4 0.140406 0.36194 0.433956
634 2 0.160835 0.347537 0.434588
2244 4 0.137685 0.394309 0.48103
327 4 0.155458 0.386898 0.484765
2242 2 0.116004 0.392272 0.493316
325 2 0.17166 0.402085 0.473276
635 4 0.181264 0.333135 0.435219
601 2 0.235642 0.401944 0.470336
602 4 0.242822 0.406055 0.44674
603 4 0.228463 0.397833 0.493931
326 4 0.187862 0.417273 0.461787
873 4 0.256152 0.338135 0.447879
373 2 0.270265 0.409207 0.420231
2924 4 0.325267 0.382018 0.484531
267 4 0.407107 0.345835 0.418208
119 3 0.384291 0.395804 0.423279
116 1 0.383333 0.376976 0.436805
2923 2 0.334887 0.372754 0.463393
117 3 0.361544 0.373649 0.443388
118 3 0.390523 0.358352 0.424978
2925 4 0.344507 0.36349 0.442255
120 3 0.396363 0.37998 0.45524
1556 4 0.150099 0.480165 0.42568
1444 2 0.165277 0.442684 0.434562
1445 4 0.150743 0.460203 0.424217
1446 4 0.179811 0.425165 0.444907
1171 2 0.312253 0.436037 0.46664
1173 4 0.319496 0.434478 0.442759
614 4 0.327352 0.439027 0.422981
1172 4 0.30501 0.437595 0.49052
374 4 0.253631 0.418935 0.436163
2108 4 0.388272 0.452739 0.434985
2107 2 0.376352 0.473687 0.441641
2109 4 0.364433 0.494634 0.448297
1952 4 0.457164 0.45953 0.488978
1951 2 0.464132 0.442017 0.472549
1953 4 0.4711 0.424504 0.45612
2314 2 0.210011 0.0205231 0.532664
2315 4 0.216556 0.0342175 0.552534
1182 4 0.211616 0.0499431 0.565488
2316 4 0.203467 0.00682874 0.512794
1180 2 0.213832 0.074771 0.563528
2240 4 0.303188 0.0097484 0.501451
842 4 0.415289 0.0252217 0.526728
1143 4 0.425059 0.0378418 0.537214
1141 2 0.439269 0.0566271 0.545603
1142 4 0.453479 0.0754125 0.553992
841 2 0.424975 0.00548548 0.514819
7 3 0.130735 0.164081 0.570563
944 4 0.125578 0.147252 0.580973
1181 4 0.216049 0.0995989 0.561568
725 4 0.218222 0.120497 0.563413
724 2 0.221976 0.127063 0.539581
726 4 0.225731 0.133628 0.515749
900 4 0.347823 0.159798 0.497979
2501 4 0.34685 0.147684 0.514344
2500 2 0.334356 0.129636 0.502371
576 4 0.462484 0.0919838 0.562818
574 2 0.485403 0.0872345 0.571613
3308 4 0.49984 0.147242 0.567777
3307 2 0.48111 0.160572 0.57761
9 3 0.137743 0.167397 0.533786
6 1 0.142239 0.176222 0.55477
8 3 0.164954 0.174768 0.559273
368 4 0.127581 0.214577 0.549576
10 3 0.135516 0.197962 0.55566
367 2 0.131259 0.223594 0.526547
369 4 0.134936 0.232611 0.503518
409 2 0.242455 0.223226 0.562113
348 4 0.169853 0.194583 0.556567
346 2 0.194108 0.192757 0.56236
347 4 0.218363 0.190931 0.568153
411 4 0.232702 0.203519 0.574017
1395 4 0.241165 0.248417 0.533055
410 4 0.252208 0.242933 0.55021
260 4 0.0122681 0.323063 0.505258
3045 4 0.157468 0.298369 0.56949
3043 2 0.150674 0.275521 0.57704
935 4 0.14883 0.317203 0.578509
1393 2 0.245779 0.260981 0.511936
811 2 0.299987 0.298536 0.513858
813 4 0.300476 0.282843 0.533318
1135 2 0.0308723 0.400897 0.56452
1136 4 0.0136422 0.388846 0.57805
538 2 0.0717305 0.41249 0.517638
1137 4 0.0481023 0.412949 0.55099
934 2 0.1666 0.334792 0.578316
2243 4 0.0943225 0.390235 0.505602
695 4 0.168205 0.346801 0.498509
936 4 0.18437 0.35238 0.578123
773 4 0.184373 0.352693 0.510076
772 2 0.202813 0.369548 0.509049
774 4 0.221253 0.386403 0.508022
1205 4 0.317457 0.398422 0.553496
1204 2 0.317547 0.40087 0.578379
1029 4 0.305333 0.409189 0.541959
238 2 0.458135 0.399071 0.567143
240 4 0.4374 0.387859 0.575483
239 4 0.478869 0.410283 0.558803
540 4 0.0613373 0.421879 0.53835
2128 2 0.128116 0.416419 0.580248
1983 4 0.109094 0.451935 0.574712
1981 2 0.109357 0.476686 0.571176
2130 4 0.117991 0.434636 0.566434
1027 2 0.301055 0.426858 0.524791
1028 4 0.296777 0.444526 0.507624
1283 4 0.14488 0.0727421 0.658979
1155 4 0.140856 0.0840918 0.600852
1255 2 0.223314 0.0674608 0.644853
1256 4 0.247973 0.0714955 0.64394
1257 4 0.198655 0.0634261 0.645767
959 4 0.255151 0.0633647 0.626624
958 2 0.265834 0.0726986 0.606035
960 4 0.276518 0.0820325 0.585445
1130 4 0.364151 0.0743086 0.650654
1004 4 0.366687 0.0573969 0.638289
1003 2 0.370788 0.0395454 0.655309
1163 4 0.450346 0.00145189 0.585173
1162 2 0.470924 0.00957078 0.596827
1164 4 0.491502 0.0176897 0.608481
953 4 0.474317 0.0332527 0.66449
1154 4 0.155798 0.085443 0.648556
943 2 0.134474 0.124469 0.586169
945 4 0.143369 0.101686 0.591364
917 4 0.117635 0.155735 0.597259
1153 2 0.148327 0.0847674 0.624704
916 2 0.101387 0.16638 0.613002
2319 4 0.294858 0.143263 0.619352
2317 2 0.308432 0.122429 0.616728
950 4 0.298162 0.161762 0.611454
1131 4 0.329929 0.106052 0.632713
2318 4 0.322006 0.101596 0.614104
269 4 0.398552 0.146938 0.599066
1129 2 0.34704 0.0901804 0.641684
858 4 0.381947 0.155025 0.589166
856 2 0.364815 0.152133 0.607147
857 4 0.347683 0.149241 0.625127
268 2 0.420698 0.156956 0.593199
270 4 0.442843 0.166973 0.587333
918 4 0.0851381 0.177025 0.628745
3462 4 0.0947553 0.248565 0.629933
1210 2 0.0909115 0.203861 0.658599
1211 4 0.0969557 0.187151 0.641008
949 2 0.297256 0.184226 0.622396
976 2 0.278221 0.239058 0.626256
977 4 0.297366 0.223722 0.621414
951 4 0.29635 0.20669 0.633337
3309 4 0.46238 0.173902 0.587442
3402 4 0.498809 0.189467 0.637448
1280 4 0.0796702 0.330088 0.601742
3044 4 0.14388 0.252673 0.584589
3460 2 0.110751 0.253857 0.611458
3461 4 0.126747 0.25915 0.592984
1084 2 0.214692 0.252894 0.63339
1085 4 0.190298 0.25264 0.638869
1086 4 0.239087 0.253148 0.627911
897 4 0.190366 0.267742 0.652542
978 4 0.259075 0.254395 0.631097
806 4 0.393274 0.269282 0.646537
805 2 0.405683 0.257657 0.66487
1041 4 0.0208064 0.372135 0.586478
1281 4 0.0490455 0.345306 0.638228
1279 2 0.0643579 0.337697 0.619985
3420 4 0.0407111 0.346111 0.656332
3418 2 0.0159476 0.349448 0.655432
942 4 0.138489 0.400742 0.613801
940 2 0.153243 0.392704 0.632318
2129 4 0.13824 0.398202 0.594062
941 4 0.167997 0.384666 0.650835
1098 4 0.185175 0.384012 0.659419
1096 2 0.201784 0.366411 0.665707
1206 4 0.317636 0.403317 0.603263
1139 4 0.330188 0.393041 0.615974
890 4 0.360815 0.351179 0.583008
889 2 0.382984 0.356964 0.593019
891 4 0.405154 0.36275 0.603031
1140 4 0.366152 0.382691 0.649142
1138 2 0.34817 0.387866 0.632558
1017 4 0.372625 0.365714 0.658156
1239 4 0.420758 0.375326 0.608877
1237 2 0.442139 0.364133 0.615416
1238 4 0.46352 0.352941 0.621954
804 4 0.460352 0.361013 0.639139
802 2 0.4674 0.350839 0.660864
1713 4 0.205575 0.485968 0.596339
2434 2 0.239493 0.474362 0.608813
2435 4 0.219475 0.471285 0.594151
2436 4 0.259511 0.47744 0.623475
1455 4 0.274653 0.485296 0.613286
1453 2 0.294831 0.499802 0.610533
3372 4 0.396035 0.496351 0.612888
948 4 0.119805 0.0648132 0.721289
1282 2 0.137382 0.0731213 0.682829
1284 4 0.129884 0.0735005 0.706679
1005 4 0.374889 0.0216939 0.672329
966 4 0.362897 0.0101876 0.682574
964 2 0.339948 0.000464972 0.684563
888 4 0.464521 0.0215837 0.67691
952 2 0.480032 0.0531257 0.678547
954 4 0.485746 0.0729987 0.692603
1026 4 0.499727 0.0783776 0.705831
833 4 0.0746942 0.142451 0.685517
1178 4 0.0562687 0.142042 0.692595
1177 2 0.0390815 0.135982 0.709714
1179 4 0.0218942 0.129922 0.726833
832 2 0.0921521 0.124606 0.684125
834 4 0.10961 0.106761 0.682732
851 4 0.153113 0.108342 0.73971
946 2 0.128152 0.0837554 0.735313
947 4 0.1365 0.102698 0.749338
850 2 0.176083 0.118157 0.740814
852 4 0.199054 0.127972 0.741919
2256 4 0.243842 0.165267 0.744372
2254 2 0.263024 0.16528 0.728333
1024 2 0.495586 0.0984045 0.720217
1025 4 0.491445 0.118431 0.734603
152 3 0.00562651 0.230168 0.729248
924 4 0.024963 0.233275 0.730531
922 2 0.0404424 0.220626 0.745551
151 1 0.0010271 0.244969 0.71225
153 3 0.00558645 0.234718 0.691939
1212 4 0.0848674 0.220571 0.676189
1258 2 0.0920597 0.234492 0.719037
1259 4 0.0903503 0.225218 0.69588
1260 4 0.093769 0.243765 0.742195
1299 4 0.112243 0.24789 0.74478
2255 4 0.282206 0.165294 0.712294
792 4 0.467999 0.210942 0.71169
790 2 0.451871 0.227909 0.702905
791 4 0.435742 0.244875 0.69412
807 4 0.418091 0.246033 0.683202
155 3 0.0140498 0.263491 0.714702
992 4 0.145533 0.303311 0.693187
991 2 0.126488 0.318152 0.699682
896 4 0.159789 0.295258 0.680978
1297 2 0.134126 0.259489 0.748212
895 2 0.175078 0.2815 0.66676
1277 4 0.275054 0.329403 0.685116
798 4 0.315472 0.308364 0.730567
796 2 0.304927 0.318356 0.710217
797 4 0.294382 0.328348 0.689866
1044 4 0.307006 0.314347 0.746857
883 2 0.0383882 0.382589 0.742476
884 4 0.01538 0.378902 0.733409
1067 4 0.0699489 0.36901 0.747724
993 4 0.107443 0.332993 0.706178
1068 4 0.101644 0.338226 0.724304
1066 2 0.0857964 0.353618 0.736014
1278 4 0.229884 0.350692 0.68778
1097 4 0.218394 0.348811 0.671995
1276 2 0.252469 0.340048 0.686448
1015 2 0.388169 0.373722 0.676029
1016 4 0.403712 0.38173 0.693903
1019 4 0.412893 0.364936 0.704214
1018 2 0.412962 0.363801 0.729192
998 4 0.490574 0.334151 0.690269
803 4 0.474449 0.340666 0.68259
997 2 0.496894 0.349727 0.70878
85 3 0.319174 0.471707 0.706896
2288 4 0.315722 0.487352 0.741084
84 3 0.352217 0.458085 0.695052
81 1 0.341558 0.471089 0.711043
83 3 0.350246 0.492603 0.710832
82 3 0.345168 0.461814 0.731782
2214 4 0.355779 0.445284 0.735978
2989 2 0.172206 0.00351502 0.76825
907 2 0.180623 0.0216756 0.82201
2991 4 0.185012 0.0117025 0.788103
908 4 0.186523 0.0280012 0.798551
817 2 0.423338 0.0131865 0.779802
818 4 0.440924 0.0305195 0.783737
845 4 0.451637 0.0466226 0.779179
844 2 0.458236 0.0563975 0.801226
846 4 0.464836 0.0661724 0.823273
534 4 0.449107 0.0753629 0.83267
33 3 0.147254 0.15943 0.804087
31 1 0.169988 0.159503 0.80873
32 3 0.178244 0.138233 0.805806
1022 4 0.235139 0.160265 0.761076
34 3 0.17356 0.165978 0.830724
862 2 0.0669708 0.187265 0.796919
863 4 0.0668908 0.201351 0.776261
923 4 0.0559218 0.207978 0.76057
864 4 0.0670507 0.173178 0.817577
870 4 0.110217 0.190801 0.764748
868 2 0.123286 0.183228 0.784673
869 4 0.136355 0.175655 0.804599
1023 4 0.198795 0.179073 0.789818
35 3 0.180761 0.17374 0.794591
1021 2 0.216967 0.169669 0.775447
1090 2 0.245589 0.208964 0.819326
1092 4 0.236381 0.230742 0.811197
839 4 0.232466 0.24677 0.800866
3329 4 0.282992 0.24324 0.813087
1091 4 0.254797 0.187185 0.827455
1095 4 0.306789 0.22088 0.826291
1298 4 0.156009 0.271088 0.751645