ITEM: TIMESTEP
5080000
ITEM: NUMBER OF ATOMS
4590
ITEM: BOX BOUNDS pp pp pp
-9.9985700000000008e+00 9.9985700000000008e+00
-9.9985700000000008e+00 9.9985700000000008e+00
-9.9985700000000008e+00 9.9985700000000008e+00
ITEM: ATOMS id type xs ys zs
567 4 0.127125 0.0038579 0.0291213
565 2 0.103531 0.00052734 0.0366979
2252 4 0.132965 0.0221306 0.0240225
486 4 0.178048 0.0375812 0.0282135
1842 4 0.182836 0.0568454 0.0353308
484 2 0.196596 0.0211564 0.0248439
485 4 0.215145 0.00473157 0.0214744
1840 2 0.181961 0.0809293 0.0286687
357 4 0.26472 0.0189382 0.08012
2181 4 0.309717 0.0309929 0.0510666
2179 2 0.316457 0.0334827 0.0750155
355 2 0.260072 0.0434166 0.0822135
2442 4 0.404213 0.0359893 0.0149707
2440 2 0.42415 0.0510373 0.0161023
492 4 0.392935 0.030871 1.04106e-05
2468 4 0.425048 0.0358471 0.0535773
2467 2 0.435518 0.0133989 0.0569885
146 1 0.478639 0.0489782 0.025905
150 3 0.468933 0.031025 0.0360105
2441 4 0.444086 0.0660854 0.0172339
148 3 0.4625 0.0616462 0.0150675
2976 4 0.442779 0.0717013 0.0363141
149 3 0.494623 0.0418137 0.010687
2466 4 0.484661 0.0229995 0.0450743
449 4 0.18072 0.157932 0.0840419
701 4 0.181106 0.106669 0.00162111
1841 4 0.181086 0.105013 0.0220066
353 4 0.299275 0.159743 0.0461302
24 3 0.417591 0.162805 0.053675
2974 2 0.443473 0.0956217 0.0435605
21 1 0.42503 0.147076 0.0690262
2975 4 0.444167 0.119542 0.050807
25 3 0.428021 0.126983 0.0587334
22 3 0.445082 0.154154 0.0778007
2894 4 0.46337 0.144507 0.0797915
2967 4 0.0173842 0.231138 0.0466423
705 4 0.0121205 0.232681 0.0661146
2965 2 0.0186127 0.214331 0.028171
2966 4 0.0198412 0.197524 0.00969975
703 2 0.0260576 0.248601 0.079438
463 2 0.0921534 0.236624 0.0103462
914 4 0.161569 0.224156 0.0789897
293 4 0.169127 0.241833 0.0821133
913 2 0.171041 0.201033 0.0798878
295 2 0.312743 0.237106 0.0586834
297 4 0.307912 0.221988 0.0393629
354 4 0.3025 0.205988 0.027376
352 2 0.300887 0.182866 0.0367531
282 4 0.388507 0.228536 0.00400048
280 2 0.387543 0.244056 0.0235807
464 4 0.0824528 0.254652 0.0247012
456 4 0.0738345 0.272653 0.0293813
454 2 0.0887784 0.279823 0.0481015
455 4 0.103722 0.286993 0.0668218
287 4 0.118474 0.300894 0.0695511
286 2 0.13448 0.318676 0.0768197
296 4 0.317573 0.252225 0.0780039
281 4 0.38658 0.259576 0.043161
2876 4 0.399255 0.262462 0.0589323
2875 2 0.389434 0.284172 0.0665097
2839 2 0.466133 0.31601 0.00821411
309 4 0.497947 0.325354 0.0662528
2807 4 0.0378092 0.335334 0.992935
2806 2 0.0185919 0.343447 0.0067212
415 2 0.169731 0.387528 0.0893152
417 4 0.187688 0.391393 0.0723508
2512 2 0.193723 0.367003 0.0412723
2514 4 0.184529 0.375007 0.0631029
2513 4 0.202917 0.358999 0.0194418
597 4 0.3606 0.394571 0.0489085
595 2 0.36848 0.412956 0.033906
2841 4 0.470799 0.330115 0.0283246
527 4 0.43352 0.412299 0.0716941
672 4 0.448095 0.409946 0.057339
3337 2 0.0560763 0.471282 0.0629079
3339 4 0.0317954 0.469247 0.0685181
3450 4 0.0256951 0.453759 0.0565972
3448 2 0.00890891 0.435548 0.0531702
3338 4 0.0803572 0.473317 0.0572976
767 4 0.16645 0.487268 0.0847498
12 3 0.385818 0.442124 0.00471211
596 4 0.376359 0.431341 0.0189034
15 3 0.410042 0.470441 0.00264006
11 1 0.38907 0.463561 0.997027
14 3 0.37329 0.4775 0.00677876
2387 4 0.356336 0.488059 0.0108876
670 2 0.466903 0.426362 0.0559425
671 4 0.485712 0.442777 0.0545461
379 2 0.999383 0.0501708 0.152099
1874 4 0.140497 0.0169373 0.142955
1873 2 0.163582 0.0108789 0.150408
356 4 0.255423 0.0678949 0.084307
758 4 0.259129 0.0890189 0.0818848
2180 4 0.323198 0.0359725 0.0989644
28 3 0.278384 0.0624235 0.140351
26 1 0.281686 0.0815934 0.153001
1749 4 0.341586 0.0422269 0.0952341
1748 4 0.389282 0.0407722 0.110189
742 2 0.40256 0.0583207 0.138639
743 4 0.404642 0.0388619 0.123077
1747 2 0.365434 0.0414995 0.102712
744 4 0.400477 0.0777796 0.154202
771 4 0.522187 0.0613 0.124985
1761 4 0.463602 0.0141341 0.118997
450 4 0.191067 0.137393 0.128447
448 2 0.185894 0.147662 0.106244
604 2 0.257536 0.148431 0.143981
605 4 0.253209 0.126669 0.132453
757 2 0.261044 0.099187 0.104647
759 4 0.26296 0.109355 0.127409
693 4 0.296559 0.157515 0.138498
691 2 0.313271 0.140688 0.146418
30 3 0.273617 0.099742 0.141858
723 4 0.298713 0.168767 0.120603
29 3 0.271011 0.0794963 0.173496
23 3 0.409641 0.144931 0.0862592
692 4 0.329984 0.123861 0.154337
1506 4 0.386769 0.0892225 0.162737
1504 2 0.367065 0.10287 0.155619
1505 4 0.347361 0.116518 0.1485
253 2 0.502539 0.122234 0.14053
2895 4 0.477442 0.155742 0.126444
2893 2 0.470406 0.150125 0.103118
254 4 0.515483 0.101153 0.144163
837 4 0.0399694 0.162172 0.127997
836 4 0.0598516 0.206585 0.139525
835 2 0.0499105 0.184378 0.133761
461 4 0.0935998 0.25786 0.123733
622 2 0.126875 0.238716 0.142484
623 4 0.104705 0.243386 0.131907
505 2 0.167614 0.200157 0.153374
506 4 0.167389 0.225014 0.156066
624 4 0.149045 0.234046 0.153061
915 4 0.180512 0.17791 0.0807858
730 2 0.260586 0.210232 0.15293
507 4 0.167839 0.1753 0.150683
606 4 0.261862 0.170192 0.155509
581 4 0.249718 0.236237 0.122548
731 4 0.264727 0.18901 0.165486
732 4 0.256446 0.231454 0.140374
722 4 0.301528 0.203757 0.0849877
721 2 0.30012 0.186262 0.102795
902 4 0.301247 0.248406 0.0891436
376 2 0.390702 0.213819 0.116203
377 4 0.406579 0.212629 0.135483
629 4 0.39573 0.201937 0.148123
378 4 0.374826 0.21501 0.0969241
460 2 0.0694056 0.26063 0.118063
704 4 0.0399948 0.26452 0.0927613
462 4 0.0452114 0.2634 0.112393
477 4 0.133024 0.297523 0.119211
475 2 0.111807 0.29677 0.132419
288 4 0.150485 0.336457 0.0840883
476 4 0.0905896 0.296016 0.145626
580 2 0.233846 0.255211 0.118907
292 2 0.18475 0.257417 0.0938713
294 4 0.200374 0.273 0.105629
582 4 0.217974 0.274185 0.115267
103 3 0.192504 0.291679 0.106412
101 1 0.20657 0.303072 0.120929
105 3 0.225255 0.290693 0.12496
102 3 0.195457 0.306689 0.140743
104 3 0.21247 0.323567 0.111789
901 2 0.290928 0.269611 0.097453
903 4 0.28061 0.290817 0.105762
2877 4 0.379613 0.305882 0.0740872
519 4 0.384303 0.32587 0.0773137
307 2 0.500423 0.30993 0.0857758
524 4 0.165864 0.343332 0.0952133
523 2 0.163251 0.341609 0.12002
416 4 0.151774 0.383664 0.10628
361 2 0.143454 0.394683 0.139363
362 4 0.128737 0.391896 0.159383
363 4 0.158171 0.397469 0.119343
525 4 0.160638 0.339886 0.144827
278 4 0.179721 0.346003 0.150321
277 2 0.195494 0.346814 0.169705
1121 4 0.240501 0.394247 0.173438
1120 2 0.255611 0.398874 0.154061
1122 4 0.27072 0.403501 0.134684
1071 4 0.273287 0.411017 0.1163
1069 2 0.298269 0.41073 0.117294
1070 4 0.323251 0.410443 0.118287
517 2 0.398865 0.34182 0.0899122
518 4 0.413427 0.35777 0.102511
526 2 0.424694 0.389655 0.077571
528 4 0.415868 0.367012 0.083448
2538 4 0.448538 0.409223 0.147893
2770 2 0.0605503 0.467992 0.14776
2772 4 0.0834193 0.47147 0.157252
314 4 0.0201318 0.457694 0.147092
2771 4 0.0376813 0.464514 0.138269
766 2 0.144571 0.476464 0.0902057
768 4 0.122692 0.465661 0.0956616
2094 4 0.0963255 0.459862 0.146709
2092 2 0.111244 0.457694 0.166658
330 4 0.112266 0.475588 0.109057
328 2 0.0983064 0.495475 0.114959
638 4 0.17414 0.501463 0.0960877
637 2 0.187021 0.503817 0.117388
609 4 0.337657 0.423369 0.119399
1589 4 0.323747 0.505987 0.124559
608 4 0.352667 0.438696 0.16457
607 2 0.345162 0.431033 0.141985
740 4 0.360868 0.448341 0.180655
380 4 0.00739925 0.0464839 0.175494
233 4 0.0201747 0.038584 0.18867
232 2 0.0235132 0.0549696 0.207259
234 4 0.0268517 0.0713552 0.225847
237 4 0.128811 0.0716949 0.201952
317 4 0.14787 0.0339119 0.204979
2850 4 0.117259 0.0193153 0.248097
316 2 0.136895 0.0115453 0.207092
249 4 0.22381 0.006719 0.199806
403 2 0.284833 0.0776441 0.233911
405 4 0.284792 0.0569209 0.247901
430 2 0.44465 0.997826 0.235571
699 4 0.456101 0.0857383 0.217665
431 4 0.4507 0.0213352 0.241563
2675 4 0.0129382 0.0788415 0.236938
2674 2 0.99283 0.0932875 0.240426
235 2 0.145889 0.0899497 0.201409
578 4 0.170489 0.164361 0.16876
579 4 0.162729 0.128055 0.202263
577 2 0.166609 0.146208 0.185512
236 4 0.162966 0.108205 0.200867
27 3 0.304239 0.0843284 0.156609
404 4 0.284875 0.0983673 0.219921
516 4 0.274685 0.115501 0.219527
514 2 0.285643 0.136366 0.227877
515 4 0.296601 0.157232 0.236226
2574 4 0.3943 0.103498 0.196678
333 4 0.388945 0.161513 0.246484
2572 2 0.417376 0.101291 0.20605
632 4 0.405231 0.152028 0.251923
697 2 0.468285 0.0910077 0.238853
2573 4 0.440451 0.0990828 0.215422
1220 4 0.0162582 0.233995 0.247607
1219 2 0.0388253 0.229625 0.237768
1221 4 0.0613924 0.225254 0.227929
459 4 0.0763603 0.222228 0.241225
457 2 0.0972741 0.235857 0.239793
252 4 0.230342 0.24673 0.204408
250 2 0.255322 0.245646 0.204496
350 4 0.28293 0.223267 0.203674
349 2 0.298171 0.21041 0.21876
351 4 0.313412 0.197552 0.233845
251 4 0.280302 0.244562 0.204585
764 4 0.324314 0.190392 0.249914
628 2 0.384205 0.192845 0.168364
630 4 0.37268 0.183753 0.188605
331 2 0.376791 0.168107 0.225653
332 4 0.364636 0.174702 0.204821
754 2 0.0635654 0.288245 0.173595
394 2 0.0361894 0.31461 0.217343
395 4 0.0232542 0.323612 0.236755
756 4 0.0424162 0.291165 0.18661
396 4 0.0491247 0.305608 0.19793
3573 4 0.0119416 0.319126 0.253271
755 4 0.0847145 0.285326 0.160581
458 4 0.118188 0.249485 0.238361
285 4 0.226058 0.255059 0.222513
283 2 0.221979 0.260621 0.246547
610 2 0.310582 0.319539 0.224117
611 4 0.327089 0.335422 0.214095
387 4 0.347732 0.331971 0.217963
386 4 0.382347 0.296875 0.209549
385 2 0.365039 0.314423 0.213756
276 4 0.401745 0.298649 0.208944
498 4 0.494544 0.28224 0.180858
275 4 0.444339 0.277316 0.224155
274 2 0.423042 0.287982 0.216549
496 2 0.474305 0.285113 0.195256
497 4 0.454065 0.287986 0.209653
291 4 0.131138 0.38878 0.179166
289 2 0.146964 0.381505 0.197105
290 4 0.16279 0.37423 0.215043
735 4 0.162258 0.352927 0.210981
279 4 0.211267 0.347626 0.189089
733 2 0.181941 0.349874 0.226095
734 4 0.201624 0.346821 0.24121
1575 4 0.349136 0.394989 0.238096
1573 2 0.336272 0.415557 0.24415
2536 2 0.441619 0.397051 0.168609
2537 4 0.4347 0.384879 0.189325
712 2 0.430892 0.363166 0.21368
714 4 0.428924 0.364392 0.188785
713 4 0.43286 0.36194 0.238576
313 2 0.00280126 0.46749 0.16222
2093 4 0.126162 0.455527 0.186606
728 4 0.131531 0.445729 0.203575
727 2 0.133454 0.46726 0.216141
729 4 0.135377 0.488791 0.228708
339 4 0.153162 0.485393 0.236554
626 4 0.241874 0.448171 0.235611
1788 4 0.238374 0.462996 0.22245
337 2 0.174415 0.489081 0.249199
1786 2 0.241346 0.4813 0.205678
739 2 0.382134 0.460992 0.177065
741 4 0.4034 0.473643 0.173475
303 4 0.413055 0.4888 0.181712
301 2 0.416285 0.51173 0.191145
1270 2 0.0753352 0.0850301 0.261289
2849 4 0.105567 0.0679082 0.249751
2848 2 0.111413 0.0436118 0.248924
1869 4 0.1218 8.49973e-06 0.253218
1272 4 0.0878549 0.0634545 0.259578
393 4 0.219752 0.0326811 0.313691
391 2 0.204117 0.0207839 0.329156
479 4 0.23646 0.0556592 0.281508
470 4 0.212607 0.0505742 0.320446
469 2 0.204874 0.0730976 0.312824
478 2 0.257797 0.0498305 0.293166
480 4 0.279135 0.0440017 0.304825
2642 4 0.298634 0.044079 0.298633
2641 2 0.310411 0.0421075 0.320601
1516 2 0.406066 0.0694299 0.317119
1517 4 0.415664 0.0674275 0.294118
1496 4 0.463223 0.0352396 0.245107
1495 2 0.475455 0.0382313 0.266708
1497 4 0.487687 0.0412231 0.288309
2484 4 0.994853 0.119841 0.310109
511 2 0.0439578 0.14299 0.264453
513 4 0.0531932 0.122104 0.254271
1271 4 0.0628156 0.106606 0.263001
512 4 0.0347224 0.163875 0.274636
708 4 0.146976 0.12419 0.285656
706 2 0.162903 0.111214 0.299908
707 4 0.17883 0.0982385 0.31416
529 2 0.223354 0.145979 0.306234
531 4 0.202651 0.154166 0.294853
545 4 0.185486 0.153926 0.281968
471 4 0.197142 0.095621 0.305203
530 4 0.244057 0.137792 0.317616
651 4 0.25443 0.136814 0.335119
2910 4 0.294011 0.158209 0.256117
2908 2 0.296615 0.147639 0.278626
2657 4 0.311954 0.121337 0.304903
2909 4 0.29922 0.13707 0.301135
2656 2 0.314732 0.11083 0.327421
2879 4 0.417876 0.154314 0.30626
2878 2 0.413859 0.142057 0.32768
631 2 0.416403 0.146329 0.273553
698 4 0.48047 0.0962771 0.260042
521 4 0.497508 0.0929059 0.269044
633 4 0.427576 0.140629 0.295184
2694 4 0.0387763 0.161015 0.293105
2692 2 0.0211018 0.174125 0.304976
2693 4 0.00342736 0.187235 0.316848
546 4 0.190987 0.19786 0.258724
544 2 0.188236 0.175893 0.270346
389 4 0.190107 0.217453 0.312947
388 2 0.201194 0.233528 0.297331
763 2 0.334434 0.20768 0.264876
510 4 0.341034 0.237951 0.2946
765 4 0.344553 0.224969 0.279839
508 2 0.348964 0.24784 0.316152
2592 4 0.500944 0.225569 0.308187
2591 4 0.47155 0.185114 0.308363
2590 2 0.486247 0.205342 0.308275
750 4 0.116689 0.262885 0.252295
748 2 0.134185 0.265997 0.269885
749 4 0.151681 0.269108 0.287475
618 4 0.17172 0.266906 0.292614
616 2 0.179439 0.289672 0.299491
390 4 0.21228 0.249604 0.281716
617 4 0.187158 0.312438 0.306368
284 4 0.217901 0.266182 0.27058
364 2 0.219395 0.316305 0.252634
365 4 0.229672 0.303295 0.271351
612 4 0.294076 0.303655 0.234139
345 4 0.29371 0.292325 0.250164
344 4 0.248123 0.297264 0.270118
343 2 0.270916 0.294795 0.260141
263 4 0.034831 0.410213 0.282762
412 2 0.0423639 0.37707 0.30825
414 4 0.0520955 0.362922 0.326425
413 4 0.0326322 0.391218 0.290076
3671 4 0.14953 0.374463 0.324244
3670 2 0.140649 0.396877 0.317618
2655 4 0.156015 0.356196 0.323063
2654 4 0.195088 0.333079 0.302094
366 4 0.209118 0.329314 0.233917
2653 2 0.175551 0.344637 0.312579
245 4 0.2434 0.363444 0.311289
244 2 0.235008 0.379304 0.293876
246 4 0.226616 0.395164 0.276464
3990 4 0.479939 0.383971 0.292691
2862 4 0.430964 0.372547 0.255471
2860 2 0.453676 0.372116 0.265917
2861 4 0.476389 0.371686 0.276363
3988 2 0.483583 0.407477 0.300397
262 2 0.0464102 0.432242 0.285175
264 4 0.0579894 0.454271 0.287589
1382 4 0.0733224 0.450671 0.299924
1381 2 0.0955883 0.442013 0.307303
1383 4 0.117854 0.433355 0.314682
3672 4 0.131768 0.419291 0.310991
1450 2 0.129329 0.492077 0.333198
1452 4 0.13648 0.499271 0.310345
625 2 0.234944 0.427452 0.247771
627 4 0.228013 0.406734 0.259931
1802 4 0.331552 0.436293 0.268534
1574 4 0.323408 0.436125 0.250203
1801 2 0.34212 0.4521 0.284771
1803 4 0.352688 0.467907 0.301008
542 4 0.369441 0.46022 0.308477
541 2 0.378033 0.444178 0.325624
1716 4 0.477759 0.478824 0.25888
1714 2 0.48639 0.500825 0.250717
3603 4 0.471547 0.498543 0.310919
3989 4 0.487227 0.430983 0.308104
3601 2 0.474813 0.473762 0.31025
3602 4 0.478079 0.448982 0.309581
165 3 0.0401258 0.0654948 0.415596
392 4 0.188481 0.0088866 0.344621
428 4 0.173601 0.00792161 0.330403
1058 4 0.265111 0.0131774 0.383462
1057 2 0.260212 0.0161044 0.407805
2643 4 0.322188 0.0401361 0.342569
600 4 0.33533 0.0522333 0.352417
599 4 0.383985 0.054896 0.341177
598 2 0.359658 0.0535647 0.346797
1518 4 0.396467 0.0714323 0.34012
1060 2 0.413718 0.0606198 0.409986
762 4 0.50119 0.0582252 0.372863
2552 4 0.505554 0.0399785 0.371391
1062 4 0.416066 0.0791042 0.393313
163 3 0.0638256 0.0933594 0.406677
2237 4 0.0756118 0.11007 0.405968
2238 4 0.111121 0.14484 0.411523
2236 2 0.0933664 0.127455 0.408746
370 2 0.235773 0.122799 0.415631
371 4 0.235385 0.121894 0.390646
649 2 0.25168 0.136056 0.35996
650 4 0.248929 0.135298 0.3848
1031 4 0.31545 0.112819 0.365381
1030 2 0.307597 0.101555 0.386276
1032 4 0.299744 0.0902904 0.407172
2658 4 0.31751 0.100323 0.349939
2517 4 0.396568 0.125092 0.363173
2515 2 0.412272 0.109083 0.374231
2880 4 0.409842 0.129801 0.3491
760 2 0.496031 0.081412 0.380669
2516 4 0.427976 0.0930744 0.385288
761 4 0.490873 0.104599 0.388475
3172 2 0.501438 0.138875 0.391444
3174 4 0.50662 0.158454 0.406107
2900 4 0.451765 0.200281 0.420746
2901 4 0.493036 0.173763 0.411042
2899 2 0.4724 0.187022 0.415894
636 4 0.133315 0.327555 0.40613
509 4 0.356893 0.257729 0.337705
717 4 0.366963 0.270345 0.348303
715 2 0.365646 0.280036 0.371314
716 4 0.364329 0.289726 0.394326
488 4 0.354785 0.307363 0.392455
487 2 0.36838 0.326676 0.400662
537 4 0.0634283 0.355078 0.340497
535 2 0.0736634 0.361613 0.362354
536 4 0.0838984 0.368147 0.38421
709 2 0.106159 0.356791 0.410467
710 4 0.0875092 0.372372 0.404583
711 4 0.124808 0.341211 0.416351
2137 2 0.0849678 0.409789 0.406464
644 4 0.327374 0.37026 0.363725
643 2 0.316222 0.392601 0.365025
645 4 0.305071 0.414943 0.366324
489 4 0.381975 0.345988 0.408869
118 3 0.375719 0.365204 0.408462
569 4 0.0794509 0.440334 0.380895
2138 4 0.0740387 0.430247 0.397127
1451 4 0.122178 0.484883 0.356052
570 4 0.112903 0.4671 0.355103
568 2 0.0961771 0.453717 0.367999
753 4 0.29689 0.499993 0.354553
375 4 0.247673 0.436176 0.395727
435 4 0.301259 0.434269 0.362313
433 2 0.306273 0.446456 0.383562
434 4 0.311286 0.458643 0.404812
373 2 0.260831 0.435632 0.416981
585 4 0.401138 0.410755 0.39632
583 2 0.391218 0.410747 0.373369
751 2 0.320624 0.49961 0.346695
584 4 0.381298 0.41074 0.350417
543 4 0.386624 0.428137 0.342771
615 4 0.330105 0.462901 0.408347
1485 4 0.472933 0.442514 0.380811
1483 2 0.464386 0.463792 0.370842
1484 4 0.455839 0.48507 0.360874
161 1 0.0565525 0.0791401 0.42351
164 3 0.0743052 0.0664284 0.431362
1033 2 0.016911 0.0798118 0.46716
1034 4 0.0380367 0.0882483 0.456782
1059 4 0.255313 0.0190315 0.432149
1152 4 0.247553 0.0189317 0.451203
1150 2 0.255617 0.0182997 0.474862
1151 4 0.263681 0.0176677 0.498521
2241 4 0.355508 0.0422594 0.493742
683 4 0.368447 0.0423874 0.478106
682 2 0.386022 0.0384287 0.460767
684 4 0.403597 0.03447 0.443429
1061 4 0.41137 0.0421355 0.426659
2239 2 0.342438 0.0222098 0.500977
162 3 0.0482173 0.0917739 0.440832
938 4 0.0264685 0.157313 0.433659
472 2 0.217684 0.122122 0.468454
473 4 0.239865 0.129812 0.459848
474 4 0.195503 0.114433 0.47706
726 4 0.183119 0.100742 0.484139
372 4 0.236161 0.123704 0.440615
724 2 0.191381 0.0856681 0.502296
3159 4 0.312795 0.0965632 0.422521
3157 2 0.324699 0.103553 0.443368
3158 4 0.336603 0.110543 0.464216
2502 4 0.331533 0.103829 0.484176
2500 2 0.345908 0.123297 0.490466
341 4 0.0792059 0.190005 0.435397
937 2 0.00509956 0.154267 0.421039
2613 4 0.0343421 0.17512 0.437024
2611 2 0.0376309 0.199127 0.44319
2847 4 0.0313684 0.230423 0.464308
2612 4 0.0409196 0.223134 0.449357
2845 2 0.0339851 0.246868 0.48296
342 4 0.127161 0.181596 0.423982
402 4 0.143951 0.183324 0.43419
340 2 0.103183 0.185801 0.429689
825 4 0.108554 0.2344 0.476366
400 2 0.15926 0.203037 0.432706
823 2 0.127497 0.250015 0.48111
369 4 0.101146 0.224165 0.492326
401 4 0.17457 0.22275 0.431222
1191 4 0.176032 0.242702 0.436335
640 2 0.347148 0.239027 0.478571
641 4 0.346002 0.214063 0.479396
312 4 0.455419 0.215483 0.432981
310 2 0.457365 0.239161 0.440776
634 2 0.145469 0.313996 0.423265
824 4 0.14644 0.26563 0.485854
635 4 0.157624 0.300437 0.4404
668 4 0.160263 0.299808 0.461089
1189 2 0.18182 0.255238 0.45718
1190 4 0.187609 0.267773 0.478026
669 4 0.193959 0.335031 0.472253
667 2 0.177111 0.31742 0.466671
1394 4 0.20376 0.272125 0.492111
872 4 0.286158 0.294407 0.484484
871 2 0.287677 0.316439 0.47276
873 4 0.289197 0.338471 0.461036
320 4 0.362831 0.287411 0.41598
321 4 0.34349 0.271549 0.459282
319 2 0.35316 0.27948 0.437631
642 4 0.348294 0.26399 0.477746
265 2 0.417523 0.329195 0.426097
311 4 0.459311 0.262839 0.44857
452 4 0.461789 0.269161 0.429892
453 4 0.45818 0.318817 0.434578
266 4 0.438197 0.315859 0.430561
451 2 0.459984 0.293989 0.432235
443 4 0.053432 0.350958 0.478988
2139 4 0.0958969 0.38933 0.4158
2924 4 0.306738 0.344943 0.454077
603 4 0.268673 0.403048 0.489127
601 2 0.263052 0.413307 0.467029
2923 2 0.325799 0.358085 0.444636
119 3 0.389493 0.392891 0.430556
1953 4 0.398991 0.42171 0.414211
267 4 0.396849 0.34253 0.421633
116 1 0.38167 0.37105 0.430114
117 3 0.363096 0.36953 0.443599
2925 4 0.344859 0.371228 0.435195
120 3 0.397736 0.356884 0.437851
1445 4 0.203587 0.487795 0.425912
1444 2 0.214366 0.485774 0.448382
1446 4 0.225145 0.483754 0.470853
326 4 0.215264 0.481107 0.488139
1173 4 0.316312 0.449007 0.468274
1171 2 0.311733 0.448394 0.492847
602 4 0.257432 0.423567 0.444931
374 4 0.273989 0.435087 0.438236
1951 2 0.407133 0.432669 0.435159
1698 4 0.389129 0.495967 0.473258
2107 2 0.415303 0.483079 0.463494
613 2 0.330994 0.459428 0.433092
614 4 0.331883 0.455954 0.457837
2108 4 0.424773 0.460044 0.461295
1952 4 0.415274 0.443628 0.456106
943 2 0.144714 0.0109663 0.570645
945 4 0.144215 0.0255868 0.590922
2314 2 0.248498 0.0210545 0.534482
2315 4 0.23562 0.0328843 0.552354
1182 4 0.222764 0.0447866 0.560994
1180 2 0.213443 0.0641526 0.548217
725 4 0.199643 0.0705945 0.520454
2316 4 0.261375 0.0092247 0.51661
1143 4 0.388861 0.0400088 0.544618
1141 2 0.405327 0.0568439 0.553022
842 4 0.397007 0.0284013 0.529435
841 2 0.409344 0.00670652 0.530955
1142 4 0.421792 0.073679 0.561427
576 4 0.436748 0.0838485 0.568904
9 3 0.131941 0.135702 0.533653
6 1 0.12517 0.15759 0.537326
7 3 0.116257 0.159168 0.558473
10 3 0.109341 0.163494 0.522054
917 4 0.112485 0.150249 0.576167
8 3 0.143385 0.171882 0.535777
1181 4 0.204123 0.0835186 0.535439
2501 4 0.360283 0.142764 0.496756
900 4 0.368143 0.160272 0.491278
2507 4 0.472543 0.092581 0.513968
574 2 0.451129 0.0917432 0.550035
575 4 0.46551 0.0996379 0.531166
3308 4 0.482667 0.153836 0.534381
3307 2 0.482091 0.153542 0.559376
1262 4 0.495155 0.144245 0.52177
368 4 0.103982 0.183142 0.520784
348 4 0.157085 0.173729 0.549457
367 2 0.102564 0.203654 0.506555
3462 4 0.113663 0.211238 0.607429
346 2 0.176275 0.189059 0.554134
409 2 0.221085 0.222099 0.556728
347 4 0.195466 0.204389 0.558812
411 4 0.214816 0.199989 0.566577
410 4 0.227355 0.24421 0.546879
1395 4 0.229522 0.247762 0.527374
899 4 0.362364 0.20992 0.489729
898 2 0.365253 0.185096 0.490504
261 4 0.0394167 0.267903 0.520594
259 2 0.0305058 0.291251 0.519805
1640 4 0.021174 0.335051 0.526992
2846 4 0.0366019 0.263312 0.501612
260 4 0.0215949 0.3146 0.519015
3043 2 0.150776 0.291614 0.584593
3044 4 0.138707 0.269722 0.584068
1393 2 0.216641 0.259943 0.509742
813 4 0.306554 0.262134 0.541917
811 2 0.30017 0.269908 0.519026
812 4 0.293786 0.277681 0.496135
1136 4 0.0301763 0.390839 0.562179
1135 2 0.044946 0.40609 0.548972
442 2 0.0755946 0.343947 0.4882
696 4 0.113593 0.346077 0.503727
694 2 0.125963 0.340907 0.524832
695 4 0.138333 0.335737 0.545937
2244 4 0.142739 0.37888 0.540961
2242 2 0.134591 0.401828 0.546633
444 4 0.0977572 0.336937 0.497411
934 2 0.174599 0.341905 0.573989
936 4 0.166539 0.364676 0.567531
773 4 0.259529 0.415167 0.542074
772 2 0.259675 0.401804 0.520942
774 4 0.259821 0.38844 0.49981
1205 4 0.309005 0.399629 0.568525
1029 4 0.316588 0.416234 0.561828
889 2 0.392117 0.391318 0.528338
890 4 0.383392 0.388532 0.505073
891 4 0.400842 0.394104 0.551604
1239 4 0.413498 0.390491 0.567118
1137 4 0.0597157 0.42134 0.535764
540 4 0.0678863 0.438766 0.530075
1982 4 0.0990926 0.486968 0.577191
2243 4 0.126443 0.424776 0.552305
538 2 0.0917236 0.431571 0.532354
539 4 0.115561 0.424376 0.534632
327 4 0.180472 0.471222 0.522672
2171 4 0.0896161 0.503322 0.580722
325 2 0.197868 0.476164 0.505406
1454 4 0.300693 0.491859 0.564273
1027 2 0.312013 0.436931 0.548565
1028 4 0.307439 0.457627 0.535302
1172 4 0.307155 0.447781 0.51742
882 4 0.319186 0.48466 0.558986
239 4 0.477735 0.439086 0.569562
238 2 0.499113 0.450561 0.563526
1154 4 0.141746 0.0530525 0.649816
1153 2 0.148713 0.0422939 0.628347
1155 4 0.15568 0.0315354 0.606879
1283 4 0.120748 0.0596027 0.65265
1255 2 0.197595 0.0401741 0.603676
1257 4 0.175145 0.029171 0.603294
1256 4 0.220044 0.0511773 0.604059
959 4 0.234477 0.0656212 0.602527
1130 4 0.392464 0.0612383 0.614852
1004 4 0.38881 0.0416445 0.615569
1003 2 0.381406 0.0212033 0.627919
1005 4 0.374003 0.000762137 0.640268
966 4 0.362373 0.00704527 0.654689
1129 2 0.37901 0.0823128 0.614733
1162 2 0.484565 0.00655251 0.628329
1163 4 0.461533 0.00151118 0.636653
960 4 0.276169 0.0897324 0.589069
958 2 0.255323 0.0776768 0.595798
2317 2 0.3118 0.172885 0.63513
2318 4 0.324511 0.151394 0.63381
857 4 0.341054 0.149725 0.624255
1131 4 0.365555 0.103387 0.614614
856 2 0.356123 0.133358 0.612842
858 4 0.371192 0.116992 0.601428
3309 4 0.481516 0.153248 0.584372
270 4 0.465295 0.152786 0.596485
269 4 0.424904 0.129905 0.615078
268 2 0.445099 0.141345 0.605782
916 2 0.113251 0.170754 0.590453
918 4 0.114017 0.19126 0.604739
1211 4 0.121124 0.192294 0.623049
1210 2 0.108697 0.202538 0.642176
3460 2 0.124169 0.231114 0.596486
1212 4 0.0962711 0.212781 0.661303
2319 4 0.299089 0.194376 0.636451
950 4 0.281265 0.202153 0.643534
949 2 0.274649 0.226224 0.64212
977 4 0.281318 0.256063 0.626784
951 4 0.268033 0.250295 0.640706
1281 4 0.0308076 0.300936 0.645318
3420 4 0.0171184 0.288615 0.653372
1279 2 0.0537778 0.292121 0.649773
3461 4 0.134676 0.250989 0.585543
895 2 0.16601 0.318753 0.634472
896 4 0.142556 0.320897 0.642869
992 4 0.12902 0.335086 0.646561
3045 4 0.162845 0.313506 0.585117
935 4 0.182658 0.319134 0.580446
1086 4 0.241847 0.296679 0.621077
1084 2 0.220082 0.303513 0.631312
1085 4 0.198317 0.310347 0.641547
897 4 0.189464 0.31661 0.626075
976 2 0.270567 0.277321 0.619187
978 4 0.259816 0.298579 0.61159
806 4 0.349318 0.3102 0.646901
805 2 0.370412 0.308296 0.660189
1041 4 0.0354463 0.385581 0.581598
1039 2 0.0148123 0.372244 0.586241
940 2 0.168177 0.412899 0.658879
1204 2 0.304036 0.402109 0.592905
1206 4 0.299068 0.404588 0.617284
1139 4 0.306778 0.410204 0.635411
1138 2 0.308318 0.39279 0.653287
1238 4 0.409962 0.364673 0.609798
804 4 0.41392 0.361129 0.628458
1237 2 0.41173 0.377582 0.588458
802 2 0.421123 0.362171 0.652379
2130 4 0.125364 0.473862 0.629652
1983 4 0.109669 0.465156 0.62093
1981 2 0.104381 0.476062 0.599061
2129 4 0.1561 0.441894 0.652763
2128 2 0.140732 0.457878 0.641207
942 4 0.158103 0.426372 0.64038
1453 2 0.283981 0.493994 0.582749
1455 4 0.267269 0.496128 0.601224
3324 4 0.437326 0.512941 0.660588
3491 4 0.507848 0.492938 0.62879
3369 4 0.502736 0.501244 0.645873
1282 2 0.115814 0.0780962 0.668738
965 4 0.36379 0.0136588 0.704237
964 2 0.363081 0.0103521 0.679463
888 4 0.445046 0.0338183 0.689253
953 4 0.456262 0.034512 0.672441
952 2 0.469368 0.0551929 0.66737
954 4 0.482474 0.0758738 0.662299
886 2 0.443116 0.00935723 0.69406
948 4 0.069992 0.0886501 0.740533
832 2 0.0733907 0.117829 0.682826
833 4 0.0502612 0.1262 0.687314
1178 4 0.0395739 0.136771 0.67489
1177 2 0.0210011 0.148785 0.686547
1179 4 0.00242824 0.160799 0.698204
1284 4 0.11088 0.0965896 0.684826
834 4 0.0965202 0.109458 0.678339
2255 4 0.216953 0.0945438 0.734688
2254 2 0.220261 0.11858 0.74073
2256 4 0.223569 0.142616 0.746772
1026 4 0.483443 0.0953615 0.663353
1025 4 0.481597 0.145235 0.666503
1024 2 0.48252 0.120298 0.664928
151 1 0.0325438 0.236028 0.724739
153 3 0.0474114 0.227928 0.708873
152 3 0.0274492 0.219115 0.739475
1259 4 0.110903 0.225801 0.668513
1258 2 0.112176 0.24263 0.686961
3401 4 0.483 0.185248 0.689251
155 3 0.0420098 0.253317 0.736147
1280 4 0.0767479 0.283306 0.654228
154 3 0.0130126 0.243111 0.714407
1260 4 0.113449 0.25946 0.705408
1299 4 0.110617 0.278933 0.705529
1297 2 0.125235 0.29607 0.694674
1298 4 0.139853 0.313207 0.68382
807 4 0.391506 0.306392 0.673477
791 4 0.402057 0.295893 0.687307
790 2 0.406714 0.274589 0.699539
1019 4 0.364412 0.329984 0.715191
792 4 0.411372 0.253285 0.711772
883 2 0.0358513 0.373854 0.729203
885 4 0.0599667 0.368309 0.725614
884 4 0.0117358 0.379398 0.732793
1067 4 0.0619417 0.381502 0.710522
941 4 0.178251 0.399427 0.677377
991 2 0.126595 0.347898 0.667895
993 4 0.124169 0.360709 0.689229
1066 2 0.0844852 0.37642 0.700975
1068 4 0.107029 0.371339 0.691428
1097 4 0.202626 0.347349 0.689087
1098 4 0.168806 0.383205 0.680642
1096 2 0.185716 0.365277 0.684865
1278 4 0.220693 0.340131 0.694068
1276 2 0.244424 0.346399 0.6893
1140 4 0.309857 0.375375 0.671162
1277 4 0.268155 0.352667 0.684531
796 2 0.292927 0.36818 0.71878
797 4 0.277268 0.362716 0.700068
1017 4 0.319467 0.357631 0.675089
1015 2 0.332958 0.343402 0.690604
1016 4 0.346449 0.329173 0.706119
1018 2 0.377849 0.337864 0.734748
803 4 0.428326 0.363213 0.6763
998 4 0.445153 0.369908 0.684387
3465 4 0.493301 0.377135 0.707821
997 2 0.466581 0.363686 0.695669
999 4 0.48801 0.357464 0.706951
84 3 0.345232 0.421331 0.725334
81 1 0.355665 0.416316 0.745444
3182 4 0.432514 0.505096 0.67869
3183 4 0.407218 0.497395 0.721134
3181 2 0.419866 0.501246 0.699912
947 4 0.10666 0.0827897 0.774027
851 4 0.124385 0.0765027 0.766771
3591 4 0.118232 0.0124458 0.783347
907 2 0.191895 0.0158737 0.820203
1038 4 0.310478 0.0661035 0.842206
817 2 0.399343 0.0231497 0.776901
818 4 0.424203 0.0257698 0.77637
845 4 0.43785 0.0236673 0.78936
844 2 0.442735 0.0251194 0.813838
1215 4 0.0590027 0.125651 0.815067
1213 2 0.0463136 0.11827 0.835308
946 2 0.0883259 0.0857199 0.75728
850 2 0.138399 0.0939147 0.777979
33 3 0.118173 0.155379 0.802674
31 1 0.140656 0.149731 0.803689
32 3 0.143772 0.129649 0.792911
34 3 0.147266 0.147474 0.825816
852 4 0.152412 0.111327 0.789187
869 4 0.0994343 0.15053 0.806132
868 2 0.0902629 0.169952 0.793333
35 3 0.153166 0.165765 0.793439
1022 4 0.213618 0.152323 0.760744
1021 2 0.190836 0.154443 0.770827
1023 4 0.168054 0.156563 0.780911
3425 4 0.480378 0.104888 0.819602
1192 2 0.480305 0.147262 0.808751
1194 4 0.48374 0.1238 0.816683
3424 2 0.48707 0.092021 0.83997
924 4 0.0450893 0.215452 0.746716
922 2 0.0537254 0.203995 0.767194
923 4 0.0623615 0.192538 0.787672
870 4 0.0810915 0.189375 0.780534
839 4 0.214949 0.244134 0.843874
1092 4 0.223532 0.23218 0.830898
1090 2 0.239633 0.213109 0.829406
1091 4 0.255735 0.194039 0.827914
52 3 0.254315 0.179445 0.842511
1193 4 0.476871 0.170725 0.80082
1010 4 0.492199 0.183627 0.798428
1009 2 0.502399 0.202036 0.784928
838 2 0.214019 0.263496 0.828081
840 4 0.213089 0.282858 0.812288
1209 4 0.21054 0.300508 0.801134
1207 2 0.188303 0.31193 0.801602
1208 4 0.166066 0.323352 0.80207
3328 2 0.285389 0.30071 0.803875
3330 4 0.292773 0.319842 0.789571
1043 4 0.305157 0.335688 0.793951
1289 4 0.152458 0.384975 0.800174
1224 4 0.134089 0.391226 0.804221
1222 2 0.11741 0.407728 0.812863
1223 4 0.10073 0.424229 0.821504
1288 2 0.158728 0.361899 0.80748
1290 4 0.164999 0.338823 0.814785
1241 4 0.182079 0.401676 0.778816
1065 4 0.201799 0.397876 0.778595
1063 2 0.226208 0.397252 0.783978
1064 4 0.250618 0.396628 0.789362
989 4 0.236581 0.381726 0.827939
58 3 0.252449 0.375984 0.817884
798 4 0.308586 0.373644 0.737491
57 3 0.269873 0.3913 0.788314
1042 2 0.309973 0.351052 0.774822