ITEM: TIMESTEP
5190000
ITEM: NUMBER OF ATOMS
4590
ITEM: BOX BOUNDS pp pp pp
-9.9985700000000008e+00 9.9985700000000008e+00
-9.9985700000000008e+00 9.9985700000000008e+00
-9.9985700000000008e+00 9.9985700000000008e+00
ITEM: ATOMS id type xs ys zs
3233 4 0.040173 0.0755261 0.00768427
2252 4 0.141977 0.0102912 0.0136952
567 4 0.144552 0.0128212 0.033088
565 2 0.124533 0.00590276 0.0463745
486 4 0.216717 0.0321316 0.0531721
1842 4 0.212138 0.0520044 0.054382
484 2 0.196073 0.0180273 0.052869
1840 2 0.208838 0.0764156 0.0500949
485 4 0.17543 0.00392306 0.0525659
2440 2 0.416371 0.0745058 0.00141606
2468 4 0.473239 0.0340988 0.053543
2467 2 0.455995 0.0159964 0.0538832
146 1 0.488709 0.0469319 0.0213276
148 3 0.47224 0.0457986 0.0376337
2469 4 0.43875 0.997894 0.0542234
2466 4 0.500737 0.0169784 0.00699387
986 4 0.429974 0.997317 0.0362601
3232 2 0.0608951 0.0894233 0.00605804
3234 4 0.0816171 0.10332 0.0044318
702 4 0.153243 0.121627 0.0120574
554 4 0.140831 0.134819 0.0036659
555 4 0.0973059 0.112805 0.0146953
553 2 0.119069 0.123812 0.00918062
700 2 0.17084 0.108376 0.0238877
1841 4 0.205539 0.100827 0.0458077
701 4 0.188436 0.0951252 0.0357181
758 4 0.234226 0.103475 0.0917481
448 2 0.185037 0.147777 0.0615671
450 4 0.192632 0.125935 0.0710742
757 2 0.244637 0.126168 0.090411
759 4 0.255048 0.148862 0.0890738
360 4 0.394769 0.152191 0.0252949
2441 4 0.422011 0.0945345 0.0152806
2976 4 0.427153 0.104318 0.0315699
2974 2 0.421131 0.127304 0.0393505
2975 4 0.415109 0.150291 0.0471312
3047 4 0.494436 0.0851923 0.024132
2967 4 0.0103815 0.246195 0.0248677
2965 2 0.000586933 0.23064 0.00791876
705 4 0.0196691 0.253299 0.0417161
915 4 0.175666 0.17833 0.0706392
914 4 0.191162 0.225865 0.0696405
913 2 0.183414 0.202098 0.0701399
449 4 0.177442 0.16962 0.05206
293 4 0.204293 0.239227 0.0773888
295 2 0.293032 0.240529 0.0507391
297 4 0.301723 0.22323 0.0349151
354 4 0.304366 0.205026 0.039684
352 2 0.313644 0.187262 0.0546348
353 4 0.322923 0.169498 0.0695857
282 4 0.399333 0.214308 0.0379883
280 2 0.404627 0.237549 0.0455405
358 2 0.396095 0.177121 0.0239194
359 4 0.397421 0.202052 0.0225439
25 3 0.415651 0.161494 0.0635777
24 3 0.426998 0.197288 0.0608028
21 1 0.420513 0.18039 0.0753225
703 2 0.0346894 0.244113 0.0594698
464 4 0.0822206 0.282057 0.996914
456 4 0.0871102 0.280133 0.014962
454 2 0.103039 0.286184 0.0332608
455 4 0.118968 0.292235 0.0515595
287 4 0.115842 0.311452 0.0571
286 2 0.138194 0.318324 0.065952
296 4 0.284341 0.257828 0.066563
902 4 0.281137 0.278312 0.0718291
281 4 0.409921 0.260789 0.0530927
2876 4 0.39332 0.268153 0.06192
2875 2 0.384196 0.289736 0.0706433
2877 4 0.375073 0.31132 0.0793667
519 4 0.384613 0.328564 0.0765167
2839 2 0.48966 0.321572 0.0154358
2841 4 0.500735 0.325444 0.0375159
309 4 0.489459 0.3225 0.0540328
2808 4 0.00902087 0.349853 0.0213828
2806 2 0.0288457 0.346351 0.00655412
1055 4 0.997616 0.366233 0.016873
494 4 0.158452 0.344617 0.0209508
2513 4 0.175261 0.340574 0.028954
417 4 0.179067 0.372332 0.0732109
2512 2 0.184934 0.350293 0.049862
2514 4 0.194607 0.360013 0.07077
2444 4 0.231924 0.401071 0.0120152
670 2 0.481016 0.385901 0.0571666
672 4 0.462905 0.389549 0.0740157
3339 4 0.0509904 0.468591 0.0669525
3450 4 0.0450245 0.455938 0.0533036
3448 2 0.0309556 0.469378 0.0375996
3449 4 0.0168868 0.482818 0.0218956
1102 2 0.0744338 0.490732 0.0100695
1103 4 0.0696497 0.504909 0.0301019
596 4 0.354885 0.434923 0.987895
15 3 0.359865 0.473639 0.0266579
11 1 0.363847 0.464091 0.00636915
1550 4 0.364736 0.476526 0.0609499
563 4 0.369076 0.483085 0.0428362
13 3 0.385802 0.456662 0.00528762
12 3 0.349768 0.446118 0.00355924
562 2 0.387444 0.498116 0.0507023
1373 4 0.235352 0.998908 0.105225
355 2 0.263685 0.0709486 0.0936979
357 4 0.276794 0.0498886 0.0905645
2181 4 0.294563 0.0603571 0.0967448
2179 2 0.310606 0.0450571 0.108309
2180 4 0.326649 0.0297572 0.119873
1749 4 0.345172 0.0351466 0.122498
1748 4 0.39094 0.0552137 0.1243
743 4 0.399892 0.0670489 0.137104
1747 2 0.368056 0.0451801 0.123399
742 2 0.412611 0.0689021 0.158551
1761 4 0.445229 0.049097 0.131072
1759 2 0.459184 0.0314326 0.141954
1760 4 0.473139 0.0137683 0.152835
604 2 0.219227 0.119215 0.160882
606 4 0.216685 0.141969 0.150833
356 4 0.250577 0.0920087 0.0968313
731 4 0.228306 0.15708 0.144592
27 3 0.310807 0.0891679 0.144621
29 3 0.280762 0.111133 0.139383
722 4 0.27144 0.159412 0.0840457
28 3 0.315594 0.123951 0.131208
26 1 0.303092 0.110813 0.145682
30 3 0.305262 0.118513 0.167004
721 2 0.293695 0.15375 0.0939378
723 4 0.315949 0.148088 0.10383
693 4 0.324752 0.134912 0.11742
691 2 0.348801 0.133343 0.12408
692 4 0.37285 0.131774 0.13074
1505 4 0.372576 0.118936 0.147108
253 2 0.490717 0.101156 0.143177
2893 2 0.461759 0.143531 0.111276
255 4 0.469459 0.104445 0.13043
2895 4 0.471726 0.123741 0.122859
2894 4 0.451792 0.163322 0.0996923
836 4 0.0476294 0.170375 0.122318
835 2 0.0403274 0.163414 0.145196
462 4 0.0391254 0.243204 0.0936064
622 2 0.108915 0.229872 0.145058
624 4 0.124793 0.213037 0.13559
506 4 0.138325 0.215967 0.150683
505 2 0.148374 0.195007 0.159896
580 2 0.219871 0.242582 0.154049
730 2 0.222037 0.17975 0.153075
23 3 0.401962 0.187119 0.0875274
378 4 0.408397 0.228186 0.114868
376 2 0.419293 0.207804 0.124409
22 3 0.4378 0.176037 0.0898609
629 4 0.430056 0.18375 0.153566
377 4 0.43019 0.187422 0.133951
460 2 0.0489923 0.246899 0.116282
461 4 0.0588592 0.250593 0.138957
704 4 0.0497097 0.234927 0.0772235
475 2 0.0721503 0.287181 0.145683
476 4 0.0624874 0.289618 0.168615
288 4 0.160545 0.325196 0.074804
477 4 0.0818133 0.284744 0.122751
524 4 0.15982 0.326973 0.0941867
623 4 0.0930366 0.246706 0.154527
292 2 0.209685 0.249525 0.099526
523 2 0.174837 0.321034 0.113276
525 4 0.189853 0.315095 0.132366
294 4 0.215077 0.259823 0.121663
582 4 0.225412 0.262966 0.140671
103 3 0.218178 0.278655 0.11457
101 1 0.224913 0.293153 0.131388
105 3 0.229656 0.281421 0.150323
102 3 0.207848 0.307956 0.135722
104 3 0.24362 0.305061 0.124559
278 4 0.197571 0.308524 0.16925
901 2 0.268763 0.287377 0.091575
903 4 0.25639 0.296443 0.111321
416 4 0.161638 0.398407 0.11216
361 2 0.151567 0.376839 0.142616
363 4 0.156677 0.380166 0.118368
415 2 0.170353 0.385369 0.0926853
1121 4 0.246853 0.402299 0.16639
1069 2 0.321958 0.386452 0.15448
1120 2 0.264576 0.385268 0.161807
1071 4 0.30207 0.371732 0.150877
1070 4 0.341845 0.401173 0.158084
1122 4 0.2823 0.368237 0.157224
517 2 0.389112 0.339207 0.0986905
518 4 0.39361 0.349849 0.120864
2538 4 0.396733 0.350589 0.139809
2536 2 0.401443 0.352716 0.164273
609 4 0.333835 0.416096 0.147313
527 4 0.460143 0.397819 0.0920577
528 4 0.419034 0.382137 0.115823
526 2 0.439589 0.389978 0.10394
3337 2 0.0674176 0.461701 0.0844985
3338 4 0.0838448 0.454812 0.102045
2770 2 0.0566676 0.464002 0.150265
314 4 0.0115634 0.465882 0.142783
2771 4 0.0317471 0.464908 0.148441
2772 4 0.0815882 0.463097 0.152089
768 4 0.131617 0.493935 0.0780866
766 2 0.155679 0.492165 0.0846491
2094 4 0.0949012 0.463048 0.166706
2092 2 0.116873 0.474901 0.168087
2093 4 0.138846 0.486753 0.169467
638 4 0.180757 0.484613 0.110975
639 4 0.227918 0.497221 0.121823
637 2 0.204337 0.490917 0.116399
767 4 0.179741 0.490395 0.0912116
1863 4 0.248914 0.49044 0.124557
1861 2 0.262178 0.484064 0.144771
1589 4 0.312894 0.478967 0.113329
1588 2 0.299351 0.495465 0.100308
1862 4 0.275441 0.477688 0.164985
608 4 0.336282 0.461837 0.12725
607 2 0.335058 0.438967 0.137281
739 2 0.379661 0.485126 0.143206
1549 2 0.352528 0.466886 0.0805261
1551 4 0.34032 0.457246 0.100102
741 4 0.392182 0.498372 0.160322
303 4 0.40354 0.482804 0.167797
740 4 0.36714 0.47188 0.12609
2675 4 0.997648 0.0532708 0.233882
234 4 0.00975584 0.0441695 0.220456
233 4 0.00604456 0.065927 0.175584
232 2 0.0079002 0.0550482 0.19802
1272 4 0.11088 0.0791144 0.239518
237 4 0.144748 0.0821127 0.162861
249 4 0.250695 0.00142314 0.189397
1566 4 0.262839 0.000684237 0.173271
403 2 0.291082 0.0592194 0.208461
405 4 0.274412 0.0415791 0.202453
744 4 0.425329 0.0707554 0.179998
1270 2 0.0877797 0.0870519 0.234177
1271 4 0.0646789 0.0949895 0.228836
513 4 0.0543996 0.111315 0.230956
511 2 0.0518838 0.128836 0.248616
235 2 0.133463 0.0981222 0.178402
578 4 0.167151 0.166789 0.185821
236 4 0.122178 0.114132 0.193943
579 4 0.137148 0.127556 0.19365
577 2 0.152149 0.147172 0.189736
605 4 0.221768 0.0964616 0.170932
546 4 0.183387 0.144781 0.235669
544 2 0.188102 0.163237 0.251865
404 4 0.307752 0.0768598 0.21447
516 4 0.302529 0.0958979 0.220098
514 2 0.298852 0.118625 0.229852
515 4 0.295175 0.141353 0.239605
1504 2 0.379143 0.118514 0.17123
1506 4 0.385711 0.118092 0.195352
2574 4 0.383803 0.108327 0.213196
2572 2 0.403615 0.119714 0.223346
699 4 0.441688 0.12417 0.239558
2573 4 0.423427 0.1311 0.233495
697 2 0.465323 0.116259 0.237563
698 4 0.488958 0.108348 0.235569
630 4 0.423626 0.165186 0.199552
837 4 0.0330254 0.156453 0.168074
1219 2 0.0577335 0.25004 0.21233
1220 4 0.0405242 0.249965 0.230468
507 4 0.158424 0.174048 0.16911
457 2 0.114975 0.243383 0.210828
458 4 0.138672 0.23754 0.216257
459 4 0.0912772 0.249226 0.205399
732 4 0.215767 0.20242 0.161557
581 4 0.21433 0.222198 0.167426
285 4 0.22475 0.245411 0.229482
250 2 0.256675 0.239339 0.202374
350 4 0.288469 0.219726 0.204743
349 2 0.302459 0.219184 0.225459
251 4 0.277123 0.230255 0.191213
351 4 0.31645 0.218641 0.246174
333 4 0.393261 0.175843 0.247181
331 2 0.407367 0.180459 0.227059
628 2 0.426841 0.174468 0.176559
332 4 0.421473 0.185074 0.206937
1221 4 0.0749429 0.250115 0.194191
755 4 0.0603805 0.30911 0.17662
754 2 0.0551465 0.311314 0.20097
394 2 0.0157416 0.293006 0.237477
756 4 0.0499125 0.313517 0.22532
396 4 0.039853 0.299618 0.237155
750 4 0.14625 0.23962 0.2357
277 2 0.18911 0.313766 0.192187
279 4 0.180649 0.319008 0.215124
252 4 0.236228 0.248422 0.213536
276 4 0.403089 0.283277 0.23227
386 4 0.391323 0.299656 0.238119
385 2 0.378624 0.320179 0.244657
274 2 0.422712 0.296288 0.223853
275 4 0.442334 0.309299 0.215436
496 2 0.479174 0.292972 0.202264
497 4 0.462498 0.305699 0.215869
362 4 0.146458 0.373511 0.166865
289 2 0.163069 0.388294 0.19812
290 4 0.17625 0.385377 0.219166
291 4 0.149889 0.39121 0.177073
735 4 0.186596 0.380715 0.236599
733 2 0.192813 0.356536 0.235226
734 4 0.199031 0.332357 0.233852
1575 4 0.363043 0.353893 0.234551
387 4 0.365926 0.340701 0.251196
714 4 0.403134 0.364206 0.206086
2537 4 0.406152 0.354844 0.188737
712 2 0.416864 0.362013 0.226867
1573 2 0.345196 0.36735 0.245755
713 4 0.430594 0.35982 0.247649
728 4 0.154672 0.480145 0.156624
727 2 0.169523 0.491392 0.173302
626 4 0.238435 0.428173 0.218539
625 2 0.238183 0.423864 0.243168
1788 4 0.243797 0.444621 0.209484
337 2 0.199151 0.496934 0.223581
338 4 0.195987 0.494457 0.24826
1786 2 0.253166 0.462801 0.195099
1787 4 0.262534 0.48098 0.180715
2849 4 0.128689 0.0841475 0.249418
2848 2 0.129802 0.0615183 0.259995
2850 4 0.130914 0.038889 0.270571
1869 4 0.118781 0.0229227 0.276491
1867 2 0.12541 0.998824 0.275799
470 4 0.224969 0.0480313 0.278551
469 2 0.211901 0.0685292 0.284403
479 4 0.238923 0.0394933 0.290109
391 2 0.200009 0.991556 0.330114
478 2 0.262004 0.033882 0.297916
480 4 0.285086 0.0282708 0.305722
2642 4 0.296079 0.0447328 0.306175
2641 2 0.307942 0.0665873 0.308787
2643 4 0.319805 0.0884418 0.311399
598 2 0.363732 0.0808675 0.319282
600 4 0.339899 0.0865028 0.31424
1518 4 0.402599 0.0646959 0.316898
599 4 0.387564 0.0752323 0.324325
430 2 0.458858 0.0063702 0.245104
1495 2 0.491417 0.0157522 0.299351
431 4 0.46017 0.0201916 0.265899
1496 4 0.47344 0.0218343 0.283072
1516 2 0.422397 0.0515276 0.324632
1517 4 0.442195 0.0383593 0.332365
2483 4 0.0062034 0.114166 0.311043
512 4 0.049368 0.146356 0.266277
2694 4 0.0427333 0.166265 0.268143
708 4 0.143405 0.115776 0.287036
706 2 0.162298 0.0994982 0.285222
471 4 0.198833 0.0890271 0.290255
707 4 0.18119 0.0832202 0.283409
529 2 0.20185 0.159732 0.303832
531 4 0.200505 0.167661 0.280157
545 4 0.192818 0.181693 0.268061
530 4 0.203196 0.151804 0.327508
2910 4 0.287546 0.151142 0.255678
2908 2 0.29355 0.15278 0.279895
2909 4 0.299554 0.154417 0.304111
2657 4 0.311574 0.155989 0.319708
2879 4 0.416919 0.139052 0.309808
631 2 0.414634 0.156204 0.280633
633 4 0.429492 0.143007 0.295807
2878 2 0.419079 0.137616 0.334677
2693 4 0.995152 0.181599 0.269419
2692 2 0.0189428 0.173932 0.268781
283 2 0.220103 0.246381 0.254031
388 2 0.216581 0.237857 0.309437
390 4 0.205419 0.23155 0.287971
284 4 0.215456 0.247351 0.278579
510 4 0.335311 0.249838 0.311167
763 2 0.328226 0.222168 0.28209
765 4 0.327026 0.232789 0.304694
764 4 0.329425 0.211547 0.259486
632 4 0.399776 0.169402 0.265459
2680 2 0.49981 0.250566 0.298813
2592 4 0.483396 0.227561 0.26529
2590 2 0.497494 0.209563 0.255165
2682 4 0.485172 0.242668 0.280144
748 2 0.156687 0.255207 0.252232
749 4 0.167124 0.270793 0.268764
618 4 0.181972 0.271003 0.282351
616 2 0.181962 0.29453 0.290814
364 2 0.229896 0.316363 0.255081
617 4 0.181952 0.318058 0.299277
366 4 0.206584 0.318187 0.246227
2654 4 0.18129 0.326173 0.3195
365 4 0.253208 0.314539 0.263935
612 4 0.313384 0.292952 0.26635
344 4 0.255147 0.305614 0.281251
345 4 0.297491 0.282691 0.267749
343 2 0.276319 0.294152 0.2745
610 2 0.332424 0.299345 0.281243
611 4 0.351464 0.305737 0.296136
263 4 0.0302595 0.404929 0.320672
413 4 0.0325584 0.384899 0.319134
3670 2 0.150624 0.405276 0.319076
3671 4 0.16559 0.390288 0.305788
2655 4 0.165484 0.373539 0.31679
2653 2 0.173387 0.349856 0.318145
245 4 0.242365 0.406017 0.318435
244 2 0.233146 0.41685 0.297872
627 4 0.237931 0.419555 0.267796
1574 4 0.327348 0.380807 0.256959
1802 4 0.337482 0.397941 0.254986
2862 4 0.448776 0.351116 0.249531
3990 4 0.461616 0.407626 0.278104
2860 2 0.45398 0.369624 0.265518
2861 4 0.459183 0.388132 0.281505
262 2 0.0482301 0.421788 0.324914
264 4 0.0662007 0.438648 0.329157
1382 4 0.0856585 0.445276 0.328704
1383 4 0.132999 0.436696 0.34234
1381 2 0.109329 0.440986 0.335522
246 4 0.223927 0.427682 0.277309
677 4 0.187739 0.501391 0.265431
644 4 0.285703 0.430621 0.305197
643 2 0.30414 0.446319 0.311427
645 4 0.322578 0.462017 0.317657
753 4 0.317937 0.459509 0.336395
1801 2 0.342289 0.417983 0.269141
1803 4 0.347096 0.438026 0.283296
542 4 0.356713 0.4468 0.298045
541 2 0.373254 0.445117 0.316719
3 3 0.384238 0.506218 0.323321
3988 2 0.463073 0.431118 0.28654
3989 4 0.46453 0.45461 0.294976
3601 2 0.450892 0.493247 0.307406
3602 4 0.463817 0.471978 0.305001
165 3 0.055397 0.0746753 0.396398
393 4 0.210106 0.0144118 0.331042
1060 2 0.400235 0.057076 0.410683
2516 4 0.424702 0.0772372 0.386433
1062 4 0.409099 0.0655084 0.388877
939 4 0.00922188 0.142969 0.397014
2238 4 0.115851 0.134966 0.40857
651 4 0.216482 0.14979 0.342418
650 4 0.237248 0.129797 0.383281
649 2 0.226865 0.139794 0.362849
371 4 0.257312 0.133541 0.390373
2656 2 0.326127 0.142516 0.334935
2658 4 0.34068 0.129043 0.350163
1031 4 0.356969 0.138738 0.359526
1030 2 0.359954 0.138579 0.384351
1032 4 0.362939 0.138419 0.409175
761 4 0.490666 0.0932037 0.383687
2515 2 0.420746 0.0969702 0.371596
2517 4 0.416789 0.116703 0.356759
2880 4 0.421239 0.136179 0.359545
3173 4 0.48876 0.109468 0.393683
3172 2 0.465628 0.11486 0.401493
3174 4 0.442496 0.120252 0.409304
341 4 0.110762 0.204563 0.377235
340 2 0.115582 0.200215 0.401382
389 4 0.227743 0.244165 0.330904
709 2 0.120886 0.317937 0.398256
710 4 0.100046 0.325162 0.38648
711 4 0.141726 0.310712 0.410032
717 4 0.333186 0.289822 0.36582
508 2 0.337225 0.267361 0.328899
509 4 0.339139 0.284885 0.346632
715 2 0.348332 0.306218 0.377086
716 4 0.363478 0.322615 0.388353
488 4 0.381235 0.314441 0.388687
412 2 0.0353145 0.369485 0.338627
414 4 0.0380706 0.354071 0.358121
537 4 0.0552709 0.343316 0.359166
535 2 0.0768641 0.343982 0.371755
3672 4 0.135659 0.420263 0.332364
536 4 0.0984573 0.344648 0.384343
375 4 0.233687 0.396963 0.409724
487 2 0.390759 0.33318 0.402227
118 3 0.386391 0.366259 0.411741
568 2 0.0695683 0.47449 0.402447
1557 4 0.129468 0.505513 0.394703
1452 4 0.0975598 0.496961 0.337412
570 4 0.0807784 0.483672 0.38207
373 2 0.251255 0.414156 0.414299
1445 4 0.223294 0.44953 0.419175
435 4 0.321388 0.41982 0.355138
433 2 0.325228 0.420929 0.37982
434 4 0.329068 0.422038 0.404502
585 4 0.392098 0.416278 0.398801
1953 4 0.412366 0.41396 0.410226
4 3 0.372413 0.486553 0.353618
1 1 0.388004 0.501856 0.345798
583 2 0.394254 0.425246 0.375561
543 4 0.389796 0.443435 0.335394
752 4 0.353122 0.488925 0.35633
615 4 0.335943 0.43623 0.417225
751 2 0.335529 0.474217 0.346362
584 4 0.396409 0.434213 0.352321
2 3 0.40906 0.492912 0.348211
1484 4 0.448634 0.48281 0.392008
1485 4 0.479819 0.458529 0.361369
1483 2 0.464227 0.470669 0.376688
446 4 0.448178 0.502297 0.396338
161 1 0.0612743 0.0723987 0.418283
1033 2 0.0128133 0.0764736 0.443002
164 3 0.0686159 0.0507566 0.422298
2316 4 0.240309 0.997556 0.486011
2314 2 0.230244 0.0136738 0.502262
1151 4 0.248596 0.99167 0.468055
1059 4 0.287895 0.0142976 0.424299
1152 4 0.286799 0.0128853 0.443742
1150 2 0.267698 0.00227756 0.455898
2241 4 0.364349 0.035048 0.49442
683 4 0.362199 0.0393739 0.475311
682 2 0.377677 0.051952 0.460231
684 4 0.393155 0.0645301 0.445151
2239 2 0.356098 0.0124044 0.501082
1061 4 0.391371 0.0486436 0.432489
1966 2 0.47107 0.997347 0.49903
843 4 0.428086 0.00510683 0.494294
2237 4 0.0874785 0.102844 0.434336
163 3 0.0780165 0.087558 0.423602
937 2 0.0118299 0.150326 0.420768
162 3 0.042945 0.0766114 0.431528
1034 4 0.0283943 0.0916264 0.430641
2613 4 0.0233243 0.163579 0.461522
938 4 0.014438 0.157682 0.444522
2236 2 0.101665 0.118905 0.421453
472 2 0.240374 0.135731 0.466631
474 4 0.222561 0.138349 0.48398
724 2 0.198926 0.102632 0.489667
726 4 0.217277 0.119532 0.487999
370 2 0.265319 0.130777 0.413898
473 4 0.258187 0.133114 0.449281
372 4 0.273327 0.128014 0.437423
2502 4 0.362091 0.137898 0.486265
3159 4 0.364654 0.124502 0.423288
3157 2 0.368979 0.127974 0.447669
3158 4 0.373304 0.131445 0.47205
2500 2 0.357411 0.161608 0.492676
2901 4 0.434207 0.1346 0.420526
2899 2 0.438151 0.159148 0.423174
2611 2 0.0354554 0.182498 0.472481
2612 4 0.0475864 0.201417 0.48344
2847 4 0.0409636 0.211372 0.498898
342 4 0.120402 0.195868 0.425528
402 4 0.129926 0.213106 0.431671
825 4 0.101298 0.224284 0.49944
400 2 0.144734 0.231832 0.439104
369 4 0.0894527 0.213802 0.48792
1191 4 0.175133 0.24012 0.453639
2501 4 0.35273 0.185318 0.499087
900 4 0.37097 0.192036 0.504116
2900 4 0.442095 0.183696 0.425821
312 4 0.447512 0.203782 0.429174
310 2 0.44008 0.227019 0.423699
311 4 0.432647 0.250256 0.418224
3059 4 0.480469 0.236047 0.483325
824 4 0.0879566 0.272237 0.494618
443 4 0.0657581 0.313284 0.485178
401 4 0.159542 0.250558 0.446537
823 2 0.094627 0.248261 0.497029
636 4 0.146712 0.315391 0.429358
634 2 0.16562 0.314507 0.445695
442 2 0.0873679 0.314431 0.497703
1189 2 0.182382 0.253867 0.473225
635 4 0.184529 0.313623 0.462031
668 4 0.198008 0.321663 0.47634
1190 4 0.189632 0.267614 0.492812
667 2 0.221218 0.329111 0.481907
871 2 0.305612 0.319419 0.467343
873 4 0.32002 0.328415 0.448994
872 4 0.291205 0.310423 0.485691
640 2 0.354039 0.28136 0.494314
642 4 0.345166 0.301438 0.482342
320 4 0.37321 0.329407 0.430241
321 4 0.361084 0.307597 0.473576
319 2 0.367147 0.318502 0.451909
452 4 0.428672 0.263793 0.433255
453 4 0.427255 0.311074 0.44948
451 2 0.427964 0.287434 0.441368
266 4 0.436024 0.32598 0.459031
2139 4 0.0611857 0.396165 0.420478
669 4 0.244429 0.336558 0.487473
774 4 0.269771 0.411733 0.490065
2924 4 0.325163 0.348711 0.45234
489 4 0.400282 0.351919 0.415766
119 3 0.394539 0.403194 0.41546
2923 2 0.338991 0.369026 0.447725
2925 4 0.352819 0.38934 0.44311
117 3 0.373833 0.385594 0.441424
116 1 0.391419 0.383188 0.426792
120 3 0.410226 0.377862 0.438479
267 4 0.409391 0.358462 0.431896
890 4 0.367251 0.35266 0.481669
265 2 0.422707 0.342221 0.445464
569 4 0.0583582 0.465308 0.422823
2138 4 0.0594878 0.445466 0.428676
2137 2 0.0603368 0.420815 0.424577
325 2 0.186962 0.474601 0.495307
326 4 0.18812 0.479513 0.470817
1446 4 0.200664 0.470504 0.458528
1444 2 0.211979 0.460017 0.438852
602 4 0.280399 0.432552 0.434935
603 4 0.287714 0.418535 0.482377
601 2 0.284056 0.425544 0.458656
374 4 0.268824 0.431349 0.418875
613 2 0.347323 0.434457 0.439418
1171 2 0.348572 0.434439 0.503742
1173 4 0.359276 0.434307 0.481146
614 4 0.358703 0.432684 0.461611
1951 2 0.428197 0.428353 0.423166
2108 4 0.438859 0.46115 0.440095
1952 4 0.444028 0.442745 0.436105
2107 2 0.431262 0.484498 0.444818
943 2 0.133595 0.0691386 0.559987
944 4 0.11513 0.0823268 0.570489
945 4 0.152059 0.0559504 0.549485
2315 4 0.220179 0.0297912 0.518514
1182 4 0.211417 0.0381392 0.533852
1180 2 0.199573 0.0557681 0.520658
1181 4 0.187728 0.0733971 0.507463
725 4 0.180575 0.0857311 0.491335
962 4 0.285995 0.00463257 0.53395
1143 4 0.401139 0.0499014 0.539802
842 4 0.411737 0.0399965 0.526172
1141 2 0.40636 0.0743421 0.540561
841 2 0.419912 0.0225517 0.510233
2506 2 0.497315 0.0834193 0.535723
1967 4 0.446113 0.997638 0.497531
9 3 0.119062 0.145007 0.535034
7 3 0.103245 0.162603 0.564237
917 4 0.116911 0.171625 0.57656
1142 4 0.41158 0.0987828 0.541319
576 4 0.424565 0.112754 0.534471
2507 4 0.48715 0.09946 0.519458
574 2 0.449255 0.112809 0.530523
575 4 0.473944 0.112864 0.526575
3308 4 0.476999 0.163397 0.555765
3307 2 0.475417 0.150894 0.577359
2845 2 0.0422031 0.23341 0.510644
6 1 0.113752 0.165732 0.544015
8 3 0.133101 0.178071 0.547445
348 4 0.133831 0.177992 0.567861
10 3 0.0997774 0.176943 0.529955
368 4 0.0910328 0.170732 0.513282
367 2 0.0902427 0.192267 0.500601
346 2 0.150463 0.196526 0.570109
3462 4 0.116523 0.23157 0.567056
409 2 0.201826 0.231299 0.564231
347 4 0.167095 0.215059 0.572358
411 4 0.185415 0.219922 0.579278
410 4 0.218236 0.242677 0.549183
899 4 0.367149 0.241846 0.501867
898 2 0.36906 0.216941 0.502992
1262 4 0.495024 0.167499 0.547408
2846 4 0.0434426 0.255448 0.52239
261 4 0.0300666 0.269315 0.527528
259 2 0.0116584 0.286041 0.530089
1640 4 0.0121561 0.316834 0.49358
3043 2 0.155875 0.306121 0.57178
696 4 0.127001 0.320857 0.501307
3045 4 0.171165 0.318551 0.55639
3460 2 0.126661 0.253709 0.572739
3461 4 0.136799 0.275847 0.578422
444 4 0.108978 0.315579 0.510228
1395 4 0.210156 0.261089 0.549096
1393 2 0.205461 0.27079 0.526534
935 4 0.189005 0.320035 0.567703
1394 4 0.200767 0.280491 0.503973
811 2 0.277198 0.330161 0.523322
812 4 0.281122 0.317084 0.502374
641 4 0.362911 0.261282 0.506287
3058 2 0.496305 0.245051 0.500452
1136 4 0.00847888 0.378545 0.574819
1135 2 0.0294021 0.38983 0.567071
1137 4 0.0503253 0.401116 0.559323
540 4 0.0585076 0.418975 0.561864
1641 4 0.0109198 0.362459 0.514013
1639 2 0.0115379 0.339647 0.503796
694 2 0.133603 0.343014 0.510828
695 4 0.140206 0.365171 0.520349
2244 4 0.152992 0.377842 0.529384
2242 2 0.137569 0.395787 0.537463
2243 4 0.122146 0.413733 0.545541
538 2 0.0834032 0.420494 0.560109
539 4 0.108299 0.422014 0.558353
934 2 0.205439 0.329452 0.551381
936 4 0.221874 0.338868 0.535058
773 4 0.230253 0.418319 0.519993
813 4 0.273273 0.343237 0.544269
772 2 0.250012 0.415026 0.505029
1205 4 0.321698 0.416221 0.586725
889 2 0.370252 0.356767 0.50615
891 4 0.373253 0.360873 0.530631
1239 4 0.377927 0.380451 0.536067
1237 2 0.390896 0.381696 0.557408
327 4 0.185804 0.46969 0.519796
1454 4 0.299144 0.479009 0.555709
882 4 0.314598 0.475195 0.545201
1453 2 0.278412 0.480852 0.569564
1029 4 0.309541 0.418672 0.571802
880 2 0.319753 0.497213 0.534533
1027 2 0.313784 0.428351 0.549141
1028 4 0.318027 0.43803 0.526481
1172 4 0.337867 0.43457 0.526338
238 2 0.479908 0.474327 0.538897
239 4 0.45491 0.473832 0.538767
1153 2 0.147997 0.0707464 0.631672
1155 4 0.164701 0.0532872 0.638099
1257 4 0.179938 0.0421195 0.630965
959 4 0.210767 0.0390297 0.580786
958 2 0.23309 0.0502712 0.581477
1256 4 0.190547 0.0368419 0.582382
1255 2 0.185242 0.0394807 0.606674
960 4 0.255414 0.0615126 0.582168
1130 4 0.398389 0.0830648 0.624703
1004 4 0.399137 0.0642695 0.630272
1003 2 0.392309 0.0434714 0.642355
1005 4 0.385481 0.0226734 0.654438
1162 2 0.473073 0.000453709 0.650993
1164 4 0.482946 0.0092132 0.67223
1284 4 0.0691102 0.0955915 0.656039
832 2 0.0400595 0.118669 0.665854
834 4 0.0520893 0.105431 0.648383
1154 4 0.131292 0.0882055 0.625244
1283 4 0.114592 0.0897427 0.636093
1282 2 0.0918513 0.0926671 0.646066
857 4 0.339787 0.159547 0.578772
1129 2 0.391338 0.102677 0.610888
1131 4 0.384287 0.122289 0.597074
856 2 0.352548 0.142016 0.591223
858 4 0.365309 0.124486 0.603674
3309 4 0.473835 0.13839 0.598954
269 4 0.44358 0.129039 0.651237
268 2 0.450306 0.138178 0.628956
270 4 0.457033 0.147316 0.606676
1025 4 0.462316 0.124939 0.660143
1211 4 0.106138 0.175165 0.637568
916 2 0.107784 0.177175 0.599167
918 4 0.0986556 0.182726 0.621773
1210 2 0.100317 0.186899 0.658865
1212 4 0.0944958 0.198634 0.680163
2318 4 0.325811 0.15967 0.593218
2317 2 0.312983 0.179029 0.602484
2319 4 0.300156 0.198388 0.61175
950 4 0.281504 0.205055 0.611864
949 2 0.278269 0.22883 0.618899
3418 2 0.0126431 0.320898 0.648374
1281 4 0.0539124 0.322483 0.628839
3420 4 0.0346778 0.322634 0.636685
1279 2 0.0782781 0.321656 0.623288
1280 4 0.102644 0.320829 0.617737
3044 4 0.140585 0.293691 0.587171
895 2 0.14011 0.307873 0.625682
896 4 0.118125 0.318629 0.630792
897 4 0.162096 0.297116 0.620571
1084 2 0.199108 0.30389 0.629949
1085 4 0.174992 0.310393 0.628809
1086 4 0.223225 0.297388 0.63109
978 4 0.235523 0.287561 0.644223
951 4 0.275035 0.252604 0.625934
977 4 0.274459 0.256201 0.645323
976 2 0.254991 0.271881 0.644773
992 4 0.108112 0.371572 0.657281
1139 4 0.321037 0.393665 0.63864
1138 2 0.316077 0.376084 0.655713
1206 4 0.304922 0.391179 0.626627
1204 2 0.31331 0.4037 0.606676
1238 4 0.403866 0.382942 0.578748
806 4 0.372775 0.352886 0.674725
804 4 0.401904 0.379865 0.599059
802 2 0.410592 0.367599 0.61904
803 4 0.41928 0.355334 0.639022
998 4 0.437637 0.347729 0.64435
997 2 0.45892 0.35613 0.654432
2130 4 0.122768 0.479555 0.63149
1983 4 0.121478 0.465819 0.618747
1981 2 0.114424 0.482677 0.601682
2128 2 0.13613 0.474449 0.651997
2436 4 0.260952 0.499749 0.595645
1455 4 0.257679 0.482694 0.583418
3324 4 0.4082 0.491749 0.645572
3182 4 0.396276 0.490425 0.661498
3322 2 0.419298 0.506402 0.628622
3491 4 0.499542 0.488955 0.611399
3082 2 0.056704 0.0146258 0.742049
3084 4 0.0805619 0.0149645 0.734575
3591 4 0.0981398 0.0178288 0.741868
1818 4 0.133222 0.0115882 0.673749
966 4 0.393749 0.0142057 0.670423
953 4 0.440225 0.0516887 0.726097
952 2 0.445764 0.0631425 0.704573
888 4 0.451509 0.0363933 0.724552
1026 4 0.469815 0.0779569 0.675543
886 2 0.470784 0.0298986 0.739095
887 4 0.490058 0.0234039 0.753638
3438 4 0.500055 0.0201483 0.678328
1178 4 0.0148079 0.141033 0.695517
833 4 0.0280297 0.131907 0.683324
2255 4 0.223824 0.0998961 0.712739
2254 2 0.211468 0.108812 0.732563
954 4 0.451302 0.0745963 0.683048
1024 2 0.466065 0.101448 0.667843
153 3 0.0319701 0.225043 0.742586
1259 4 0.109607 0.210455 0.683764
1258 2 0.123158 0.22824 0.694956
1260 4 0.136708 0.246024 0.706147
792 4 0.388717 0.249398 0.678293
905 4 0.503604 0.242818 0.728419
3402 4 0.499838 0.230232 0.711591
1068 4 0.0864881 0.306472 0.700406
1066 2 0.0629869 0.314443 0.70346
1067 4 0.0394857 0.322414 0.706515
1298 4 0.163485 0.284649 0.666369
1299 4 0.143956 0.264588 0.707804
1297 2 0.15372 0.274618 0.687086
1016 4 0.325961 0.316462 0.709329
1015 2 0.312882 0.328876 0.692008
805 2 0.378353 0.332676 0.688349
807 4 0.383931 0.312467 0.701974
791 4 0.390381 0.294133 0.700581
790 2 0.389549 0.271765 0.689437
1019 4 0.332651 0.331278 0.720955
1018 2 0.351496 0.337191 0.736288
883 2 0.0187144 0.343663 0.720463
885 4 0.0371078 0.341828 0.703626
884 4 0.000320948 0.345498 0.737301
991 2 0.101204 0.351452 0.67042
993 4 0.0942956 0.331332 0.683559
1098 4 0.148362 0.407961 0.717067
941 4 0.16121 0.421933 0.711965
1097 4 0.181169 0.371216 0.725683
1096 2 0.164766 0.389589 0.721375
1278 4 0.196092 0.366121 0.714229
1276 2 0.219271 0.364357 0.705022
1277 4 0.242451 0.362593 0.695816
1140 4 0.311116 0.358503 0.672786
796 2 0.277035 0.377719 0.717209
797 4 0.256475 0.375344 0.703179
1017 4 0.299803 0.341289 0.674687
798 4 0.297595 0.380094 0.731238
1044 4 0.296991 0.363392 0.742975
1020 4 0.370341 0.343104 0.751621
190 3 0.391578 0.385386 0.735019
84 3 0.344695 0.402215 0.724328
999 4 0.480203 0.36453 0.664513
3465 4 0.497895 0.370473 0.670483
3463 2 0.495136 0.391819 0.683208
1250 4 0.474293 0.370341 0.737247
3464 4 0.492376 0.413165 0.695932
2129 4 0.149492 0.469343 0.672505
942 4 0.138573 0.459648 0.688178
940 2 0.149891 0.44079 0.700071
3131 4 0.0228102 0.00657457 0.765415
3083 4 0.0328461 0.0142872 0.749523
3130 2 0.00779075 0.023035 0.776758
948 4 0.0544084 0.0791755 0.752296
946 2 0.0766974 0.0716494 0.760766
947 4 0.0989864 0.0641234 0.769236
851 4 0.110688 0.0799636 0.774697
1038 4 0.284105 0.0106936 0.793478
845 4 0.407477 0.0171595 0.780741
844 2 0.42472 0.024773 0.797169
846 4 0.441964 0.0323865 0.813597
862 2 0.0375764 0.152422 0.830562
850 2 0.123109 0.10138 0.778196
31 1 0.134294 0.15138 0.79634
32 3 0.12561 0.130098 0.797238
852 4 0.13553 0.122796 0.781696
1023 4 0.151771 0.132795 0.777247
34 3 0.139138 0.158422 0.817912
35 3 0.153285 0.151209 0.783773
869 4 0.0996254 0.166928 0.787349
2256 4 0.199111 0.117728 0.752388
1022 4 0.194979 0.109058 0.768862
1021 2 0.173375 0.120927 0.773055
152 3 0.999244 0.224859 0.761069
924 4 0.00886616 0.217398 0.777279
922 2 0.0273063 0.209399 0.79215
923 4 0.0457465 0.201399 0.807021
870 4 0.0745677 0.209321 0.796046
864 4 0.0457445 0.149709 0.807086
33 3 0.118576 0.165496 0.786741
868 2 0.0870966 0.188125 0.791698
1092 4 0.234655 0.240524 0.807031
1090 2 0.251782 0.228547 0.820755
839 4 0.221827 0.243115 0.79096
838 2 0.207962 0.263915 0.791507
1209 4 0.199818 0.304484 0.791217
1207 2 0.189076 0.326396 0.785773
840 4 0.194097 0.284715 0.792055
3328 2 0.280316 0.325441 0.816282
1289 4 0.140163 0.377292 0.82325
1288 2 0.157524 0.371603 0.80618
1290 4 0.174886 0.365915 0.78911
1208 4 0.178334 0.348308 0.780329
1064 4 0.227848 0.393019 0.765694
57 3 0.236988 0.377658 0.773222
58 3 0.237861 0.369397 0.809878
989 4 0.243308 0.376685 0.826201