ITEM: TIMESTEP
4860000
ITEM: NUMBER OF ATOMS
4590
ITEM: BOX BOUNDS pp pp pp
-9.9985700000000008e+00 9.9985700000000008e+00
-9.9985700000000008e+00 9.9985700000000008e+00
-9.9985700000000008e+00 9.9985700000000008e+00
ITEM: ATOMS id type xs ys zs
657 4 0.0265564 0.0344316 0.0102642
567 4 0.0963338 0.0247117 0.0156085
1841 4 0.150953 0.0734361 0.0554204
1840 2 0.152374 0.049901 0.047098
1842 4 0.153795 0.026366 0.0387757
486 4 0.164953 0.0193725 0.0531817
2252 4 0.104352 0.0428582 0.0144267
484 2 0.175122 8.23545e-05 0.0409477
357 4 0.253026 0.0683875 0.0520255
1476 4 0.288307 0.994494 0.0776055
2181 4 0.36448 0.0373226 0.0352819
2179 2 0.357615 0.0235019 0.0549552
492 4 0.400046 0.0617425 0.0102269
2180 4 0.35075 0.00968117 0.0746284
2976 4 0.477144 0.0647373 0.017429
2441 4 0.461375 0.067006 0.00497331
2440 2 0.437121 0.0639147 0.999742
2469 4 0.432384 0.0117937 0.0627101
2467 2 0.45297 0.0193405 0.0747281
2974 2 0.474219 0.0767415 0.0391666
986 4 0.439271 0.00948012 0.0436365
771 4 0.484152 0.0336046 0.0711575
985 2 0.444892 0.00101456 0.0207908
150 3 0.492046 0.0256822 0.000766752
835 2 0.032312 0.117724 0.0789036
837 4 0.0516064 0.106649 0.0674911
701 4 0.142926 0.0888472 0.0656195
700 2 0.134905 0.105116 0.0484097
702 4 0.126884 0.121384 0.0311998
554 4 0.124279 0.111988 0.0129577
722 4 0.257986 0.118047 0.0705339
23 3 0.4777 0.114392 0.0317356
21 1 0.487424 0.134037 0.0393469
22 3 0.476952 0.14047 0.0587919
2975 4 0.471294 0.0887457 0.0609042
24 3 0.484825 0.150809 0.023525
2894 4 0.482099 0.150571 0.0752319
2760 4 0.0152092 0.17009 0.0157192
3261 4 0.023299 0.18896 0.0196574
3259 2 0.00245717 0.201143 0.0261657
463 2 0.105142 0.204821 0.0207207
464 4 0.115684 0.226598 0.0144095
456 4 0.112278 0.247278 0.0147968
465 4 0.0946002 0.183045 0.027032
913 2 0.175539 0.194493 0.0739792
293 4 0.198669 0.232572 0.0696913
914 4 0.186848 0.216481 0.0702629
902 4 0.304121 0.213563 0.0625583
296 4 0.315458 0.211843 0.0465784
295 2 0.302736 0.204755 0.0262533
901 2 0.301416 0.234648 0.0757222
358 2 0.397982 0.172 0.0101011
282 4 0.391881 0.208912 0.0326603
280 2 0.394228 0.231194 0.0437585
359 4 0.396347 0.189448 0.0279356
2807 4 0.0739643 0.339795 0.00989774
968 4 0.0849619 0.325156 0.017709
454 2 0.116696 0.26713 0.0293422
455 4 0.121113 0.286982 0.0438877
287 4 0.117642 0.288636 0.0640491
495 4 0.142316 0.304294 0.0239485
967 2 0.109683 0.324298 0.0213607
969 4 0.134403 0.323441 0.0250124
493 2 0.164047 0.314307 0.016693
286 2 0.104136 0.284035 0.0845822
494 4 0.185779 0.32432 0.0094374
281 4 0.396575 0.253476 0.0548566
2007 4 0.376842 0.328295 0.0162443
307 2 0.49351 0.30999 0.086172
524 4 0.0787072 0.378982 0.0995397
2806 2 0.0515431 0.350181 0.0137167
1055 4 0.0308082 0.376615 0.0052526
2808 4 0.0291219 0.360568 0.0175356
523 2 0.0983868 0.374718 0.084717
416 4 0.139354 0.369353 0.0724806
525 4 0.118066 0.370455 0.0698943
2513 4 0.159812 0.396469 0.00707795
2512 2 0.177052 0.401993 0.0243247
2514 4 0.194291 0.407518 0.0415715
2005 2 0.385806 0.350986 0.0217177
2006 4 0.39477 0.373676 0.0271911
518 4 0.400776 0.353221 0.07279
528 4 0.411604 0.369301 0.0757476
789 4 0.391896 0.392301 0.0218535
526 2 0.421196 0.391818 0.0706335
527 4 0.430788 0.414336 0.0655194
3338 4 0.0630721 0.477466 0.0583919
3337 2 0.0529107 0.479398 0.035628
3339 4 0.0427492 0.48133 0.0128642
11 1 0.352674 0.473649 0.023042
12 3 0.371576 0.463446 0.031274
596 4 0.391003 0.462119 0.0401342
15 3 0.357656 0.495096 0.0172239
595 2 0.407071 0.46002 0.0591763
14 3 0.336306 0.473506 0.0394877
13 3 0.34531 0.461905 0.00443408
670 2 0.464467 0.42473 0.0745382
597 4 0.423139 0.457921 0.0782183
671 4 0.489103 0.424914 0.0702689
323 4 0.497858 0.423195 0.0526742
672 4 0.439831 0.424545 0.0788075
381 4 0.00303236 0.0448866 0.126343
379 2 0.00730056 0.0450399 0.150979
1662 4 0.212915 0.014142 0.138083
1660 2 0.227716 0.0203389 0.118908
1661 4 0.242518 0.0265359 0.0997329
355 2 0.255642 0.0661434 0.0767903
1474 2 0.274631 0.00804989 0.0935546
757 2 0.261196 0.0790834 0.13816
758 4 0.266377 0.0630799 0.119661
356 4 0.258258 0.0638994 0.101555
1748 4 0.369091 0.0262865 0.131486
742 2 0.384596 0.0559669 0.141254
743 4 0.386716 0.0311096 0.139581
744 4 0.382476 0.0808242 0.142926
1747 2 0.359174 0.0143391 0.111888
1749 4 0.349257 0.00239165 0.0922892
2468 4 0.473557 0.0268874 0.086746
1761 4 0.449156 0.0226136 0.130197
836 4 0.0130175 0.128799 0.0903162
237 4 0.160559 0.0915921 0.15869
450 4 0.188353 0.147112 0.135102
448 2 0.177388 0.158846 0.115938
606 4 0.201485 0.130877 0.132652
604 2 0.221897 0.120185 0.142357
605 4 0.24231 0.109492 0.152062
759 4 0.256016 0.0950869 0.15666
721 2 0.268985 0.126005 0.0915306
723 4 0.279984 0.133964 0.112527
693 4 0.276493 0.13449 0.132389
691 2 0.299321 0.12771 0.14001
692 4 0.322149 0.120931 0.147632
1506 4 0.384637 0.098756 0.133752
1505 4 0.341159 0.115181 0.152207
1504 2 0.362898 0.106969 0.142979
2893 2 0.470848 0.168479 0.088569
254 4 0.467562 0.0978779 0.0781819
255 4 0.427239 0.0902349 0.106753
253 2 0.447401 0.0940564 0.0924674
705 4 0.0161869 0.173281 0.106669
703 2 0.0326566 0.192022 0.108305
704 4 0.0491263 0.210764 0.10994
462 4 0.0511908 0.23072 0.110749
460 2 0.0552656 0.246461 0.129744
915 4 0.16423 0.172505 0.0776954
449 4 0.166423 0.17058 0.0967732
292 2 0.208598 0.244965 0.0890052
580 2 0.22595 0.226546 0.137697
581 4 0.22645 0.203328 0.146961
732 4 0.234337 0.186107 0.152732
378 4 0.408485 0.229556 0.116014
2876 4 0.408712 0.249549 0.113215
376 2 0.418092 0.220859 0.137398
377 4 0.427698 0.212162 0.158781
629 4 0.422574 0.195802 0.168256
2895 4 0.459597 0.186388 0.101906
3405 4 0.000452167 0.298995 0.102947
461 4 0.0593404 0.262203 0.148738
623 4 0.0697401 0.278131 0.157229
477 4 0.0878373 0.296463 0.115049
475 2 0.0802033 0.318471 0.124135
288 4 0.0906304 0.279435 0.105115
582 4 0.22545 0.249765 0.128432
294 4 0.218527 0.257357 0.108319
103 3 0.225409 0.276325 0.108416
101 1 0.229757 0.282085 0.130469
105 3 0.224386 0.264753 0.144231
102 3 0.217002 0.300404 0.136024
278 4 0.212714 0.317762 0.143272
903 4 0.298711 0.255732 0.0888861
104 3 0.252177 0.28752 0.132963
519 4 0.396503 0.30708 0.0915904
2877 4 0.389662 0.28865 0.0885385
2875 2 0.399187 0.269099 0.100877
308 4 0.482222 0.311443 0.108435
496 2 0.461395 0.324224 0.138247
497 4 0.456816 0.340474 0.156689
498 4 0.465975 0.307973 0.119804
2772 4 0.0716562 0.41472 0.140853
476 4 0.0725692 0.340479 0.133222
755 4 0.0634433 0.350581 0.148858
415 2 0.1542 0.383982 0.0862923
362 4 0.173392 0.384568 0.164765
363 4 0.17745 0.403484 0.118652
361 2 0.175421 0.394026 0.141708
417 4 0.169046 0.398611 0.100104
277 2 0.212896 0.339507 0.130931
279 4 0.213078 0.361253 0.118591
1121 4 0.229369 0.371899 0.123877
1120 2 0.249729 0.385843 0.119849
1122 4 0.270089 0.399786 0.11582
1071 4 0.282779 0.394219 0.130402
1069 2 0.307081 0.39923 0.127323
1070 4 0.331383 0.40424 0.124244
517 2 0.39864 0.330151 0.0821902
609 4 0.346521 0.399084 0.135041
607 2 0.364342 0.416594 0.136039
2770 2 0.0497136 0.423768 0.148715
2094 4 0.0803058 0.427547 0.151592
2771 4 0.0277709 0.432817 0.156578
314 4 0.013243 0.446587 0.149592
313 2 0.00625807 0.464899 0.165118
2092 2 0.10241 0.429803 0.16306
766 2 0.138298 0.47252 0.0939221
768 4 0.116192 0.483353 0.0982981
767 4 0.160404 0.461687 0.0895461
638 4 0.169176 0.449464 0.104479
637 2 0.185341 0.456752 0.122107
639 4 0.201506 0.464041 0.139736
1863 4 0.197215 0.469475 0.158409
1861 2 0.217627 0.481445 0.166487
608 4 0.382164 0.434103 0.137036
740 4 0.401299 0.436392 0.144224
233 4 0.025592 0.0448655 0.191529
232 2 0.018737 0.0563124 0.212675
234 4 0.0118819 0.0677594 0.233821
380 4 0.0115688 0.0451932 0.175615
2850 4 0.0962545 0.0673467 0.211188
2848 2 0.109344 0.0716498 0.232053
249 4 0.242672 0.000162239 0.182684
247 2 0.244167 0.999764 0.20764
1566 4 0.252718 0.985137 0.173203
2702 4 0.498058 0.0113624 0.219453
235 2 0.160113 0.114097 0.169576
579 4 0.157579 0.151109 0.192622
236 4 0.159668 0.136602 0.180462
28 3 0.247623 0.124176 0.165189
27 3 0.251106 0.109188 0.199481
516 4 0.259858 0.0857336 0.255536
26 1 0.262351 0.114106 0.180025
30 3 0.270513 0.0948519 0.171007
29 3 0.279812 0.128585 0.184908
514 2 0.273066 0.10691 0.254029
2910 4 0.30655 0.131319 0.254016
515 4 0.286275 0.128086 0.252522
2572 2 0.475756 0.131794 0.201985
2574 4 0.465064 0.150703 0.189601
2573 4 0.486447 0.112886 0.214368
699 4 0.478214 0.121563 0.230232
331 2 0.451492 0.168294 0.236329
1220 4 0.0192642 0.236311 0.174071
1219 2 0.0380434 0.243712 0.188827
578 4 0.156032 0.200844 0.187653
507 4 0.146886 0.215046 0.199104
577 2 0.156805 0.175976 0.190137
505 2 0.132197 0.233114 0.189997
458 4 0.104127 0.247542 0.231765
250 2 0.242249 0.241534 0.199988
730 2 0.230605 0.179984 0.176685
731 4 0.226874 0.17386 0.200638
251 4 0.257449 0.223684 0.191298
350 4 0.256373 0.208969 0.205151
349 2 0.280189 0.20227 0.208772
351 4 0.304005 0.195572 0.212392
764 4 0.310464 0.204459 0.229057
332 4 0.440717 0.176774 0.21542
630 4 0.450557 0.193425 0.209633
628 2 0.436565 0.194613 0.188945
1221 4 0.0568227 0.251113 0.203583
459 4 0.0565812 0.258843 0.221165
394 2 0.0122194 0.330034 0.198357
395 4 0.994674 0.313386 0.204696
457 2 0.0803544 0.253192 0.226465
622 2 0.0931328 0.274198 0.165134
624 4 0.116526 0.270264 0.173038
506 4 0.117508 0.251183 0.18089
252 4 0.227049 0.259384 0.208677
285 4 0.224366 0.26282 0.2274
283 2 0.210126 0.269324 0.246896
385 2 0.391793 0.31651 0.229055
611 4 0.362784 0.31369 0.249691
387 4 0.38069 0.303391 0.247216
386 4 0.402895 0.329628 0.210894
275 4 0.443569 0.35259 0.164762
396 4 0.0297652 0.346682 0.192019
754 2 0.0553004 0.354544 0.172164
756 4 0.0471576 0.358506 0.19547
262 2 0.0926793 0.373191 0.228159
263 4 0.0926591 0.354386 0.244637
290 4 0.148924 0.377797 0.225781
264 4 0.0926996 0.391997 0.211681
289 2 0.159548 0.384597 0.204192
1382 4 0.100072 0.405327 0.223926
291 4 0.170173 0.391397 0.182604
276 4 0.417225 0.341748 0.205862
713 4 0.421345 0.411234 0.246754
1574 4 0.347141 0.372797 0.240724
2538 4 0.481514 0.378704 0.176396
274 2 0.430397 0.347169 0.185312
2651 4 0.491948 0.365595 0.166012
2536 2 0.461423 0.393318 0.179218
712 2 0.430608 0.413303 0.223622
2537 4 0.441332 0.407932 0.182039
714 4 0.439872 0.415371 0.20049
315 4 0.999273 0.483211 0.180644
2093 4 0.124514 0.432059 0.174528
728 4 0.133917 0.450772 0.17226
727 2 0.138115 0.471177 0.186087
729 4 0.142314 0.491582 0.199914
339 4 0.136721 0.49475 0.218457
337 2 0.151454 0.500115 0.237933
1381 2 0.107726 0.424521 0.238003
739 2 0.401613 0.44784 0.166451
741 4 0.401927 0.459289 0.188677
303 4 0.401224 0.472417 0.204058
301 2 0.422978 0.483705 0.209012
302 4 0.444731 0.494992 0.213967
2675 4 0.02451 0.0619396 0.249972
1868 4 0.121703 0.0135904 0.32666
429 4 0.140753 0.0229865 0.320993
427 2 0.159638 0.0355765 0.310503
2849 4 0.122433 0.075953 0.252918
393 4 0.225101 0.0408996 0.25609
405 4 0.244214 0.0340542 0.252567
428 4 0.178523 0.0481665 0.300013
392 4 0.197114 0.0413829 0.29753
391 2 0.211107 0.0411413 0.27681
479 4 0.24711 0.0429304 0.301442
403 2 0.259705 0.0534253 0.255727
404 4 0.275196 0.0727963 0.258886
478 2 0.263964 0.0582527 0.311755
2642 4 0.291436 0.0607714 0.334548
480 4 0.280817 0.073575 0.322069
521 4 0.483141 0.0729011 0.276871
2484 4 0.000129617 0.111719 0.280593
2674 2 0.0124108 0.07684 0.265996
513 4 0.0767884 0.118674 0.309639
511 2 0.0575872 0.120802 0.293765
512 4 0.0383859 0.122929 0.277892
1272 4 0.120699 0.0823886 0.272347
1271 4 0.0933053 0.113933 0.299829
1270 2 0.107002 0.0981607 0.286088
545 4 0.228529 0.159531 0.276743
530 4 0.232669 0.110949 0.324978
529 2 0.234118 0.127814 0.306576
531 4 0.235567 0.144679 0.288173
470 4 0.213954 0.119207 0.331016
2908 2 0.313682 0.150057 0.268956
2909 4 0.320815 0.168795 0.283895
2657 4 0.324307 0.163462 0.302348
2656 2 0.317173 0.154142 0.324425
697 2 0.476224 0.104866 0.248736
698 4 0.474234 0.0881692 0.267241
633 4 0.436036 0.128347 0.312651
631 2 0.446128 0.13874 0.292272
2879 4 0.452104 0.118421 0.319406
333 4 0.462267 0.159813 0.257237
632 4 0.45622 0.149134 0.271893
2692 2 0.0440763 0.217852 0.274826
2693 4 0.0250228 0.223078 0.290151
2694 4 0.0631299 0.212626 0.259502
300 4 0.0208445 0.228629 0.309727
546 4 0.212916 0.19312 0.243146
544 2 0.220722 0.176326 0.259945
763 2 0.316619 0.215835 0.250455
510 4 0.321397 0.234819 0.290816
765 4 0.322773 0.227211 0.271853
2590 2 0.46706 0.239246 0.325439
2592 4 0.486271 0.251435 0.315068
750 4 0.103052 0.254843 0.250939
748 2 0.105252 0.272195 0.268807
749 4 0.107453 0.289546 0.286674
618 4 0.116076 0.292862 0.305731
616 2 0.116087 0.317468 0.310176
388 2 0.208106 0.272103 0.307372
284 4 0.195886 0.275828 0.266392
390 4 0.199769 0.280194 0.285232
365 4 0.240241 0.321636 0.278403
364 2 0.221356 0.331156 0.265064
344 4 0.251491 0.311392 0.291479
389 4 0.216442 0.264011 0.329513
612 4 0.316477 0.314323 0.268558
345 4 0.296305 0.311832 0.269293
343 2 0.273898 0.311612 0.280386
508 2 0.327862 0.249124 0.310278
610 2 0.339631 0.314007 0.259125
535 2 0.0338382 0.366688 0.321099
537 4 0.0458538 0.36145 0.299807
412 2 0.0669097 0.369057 0.27716
414 4 0.0487346 0.378225 0.291678
413 4 0.0850847 0.359889 0.262641
735 4 0.155269 0.378158 0.244938
617 4 0.116098 0.342073 0.314621
2654 4 0.100176 0.353226 0.311735
2653 2 0.107138 0.376855 0.31602
2655 4 0.1141 0.400484 0.320304
3671 4 0.109067 0.419619 0.317911
733 2 0.173453 0.364129 0.254824
734 4 0.191637 0.350101 0.26471
366 4 0.202472 0.340676 0.251726
245 4 0.202742 0.397992 0.318788
643 2 0.284527 0.382299 0.319522
644 4 0.286409 0.388957 0.295494
1575 4 0.38972 0.374353 0.266902
1573 2 0.368431 0.373575 0.253813
2862 4 0.421914 0.411734 0.26707
2860 2 0.442125 0.412271 0.281781
338 4 0.166187 0.50548 0.25741
1383 4 0.11538 0.443716 0.25208
3672 4 0.115901 0.438435 0.272085
3670 2 0.112484 0.429027 0.294998
244 2 0.21839 0.41403 0.307694
246 4 0.234039 0.430067 0.296599
677 4 0.176761 0.493307 0.27093
676 2 0.200692 0.496911 0.277212
627 4 0.230254 0.430487 0.27742
753 4 0.306764 0.489031 0.328478
626 4 0.257043 0.470473 0.263848
435 4 0.332428 0.419309 0.319912
625 2 0.243648 0.45048 0.270634
751 2 0.329746 0.484773 0.319596
752 4 0.352727 0.480514 0.310715
1802 4 0.337244 0.423497 0.276248
1803 4 0.35454 0.462265 0.30268
1801 2 0.345892 0.442881 0.289464
542 4 0.361823 0.485059 0.327535
541 2 0.383435 0.473876 0.333282
2861 4 0.462335 0.412809 0.296492
3989 4 0.499932 0.467936 0.288177
3990 4 0.475572 0.424264 0.288133
3988 2 0.487752 0.4461 0.288155
3602 4 0.488602 0.484515 0.288668
165 3 0.043338 0.101288 0.396555
2236 2 0.0769831 0.0581906 0.404494
164 3 0.0187983 0.082413 0.417984
2238 4 0.0952291 0.0414534 0.401012
2641 2 0.314387 0.0544233 0.342174
2643 4 0.337338 0.0480751 0.349799
599 4 0.386131 0.0502921 0.374572
598 2 0.369064 0.0518189 0.356363
600 4 0.351998 0.0533457 0.338154
1518 4 0.402689 0.0580127 0.379503
2552 4 0.485182 0.0664397 0.380384
2551 2 0.480934 0.0669201 0.405019
161 1 0.0386586 0.0944097 0.417755
708 4 0.128071 0.148897 0.371353
706 2 0.147893 0.133738 0.369786
707 4 0.167715 0.118578 0.368218
469 2 0.193353 0.111924 0.343171
471 4 0.172752 0.104642 0.355327
651 4 0.255599 0.145878 0.332393
371 4 0.252288 0.149136 0.391927
650 4 0.264733 0.137371 0.380817
649 2 0.260166 0.141625 0.356605
1032 4 0.318182 0.123736 0.406503
1030 2 0.312637 0.137076 0.386096
1031 4 0.307091 0.150417 0.365689
2658 4 0.310039 0.144822 0.346503
1516 2 0.415879 0.0792519 0.379829
2878 2 0.440477 0.114454 0.341183
3173 4 0.489393 0.133627 0.351481
761 4 0.496483 0.118858 0.338653
1517 4 0.429068 0.100491 0.380155
2880 4 0.42885 0.110486 0.362961
2517 4 0.43594 0.114041 0.395401
760 2 0.493983 0.0974043 0.351249
342 4 0.140774 0.209532 0.42197
340 2 0.124407 0.219403 0.40585
341 4 0.10804 0.229275 0.38973
402 4 0.157642 0.200257 0.425223
2591 4 0.447849 0.227058 0.33581
2586 4 0.995798 0.25421 0.39615
2637 4 0.995529 0.27074 0.40943
509 4 0.334327 0.263429 0.329739
717 4 0.349818 0.276369 0.330913
715 2 0.353175 0.289563 0.351885
716 4 0.356532 0.302757 0.372857
488 4 0.363619 0.317716 0.382904
487 2 0.380115 0.331284 0.395903
536 4 0.0218226 0.371927 0.342392
2139 4 0.0858017 0.410261 0.416892
710 4 0.0973754 0.394566 0.410775
645 4 0.282645 0.375641 0.343549
375 4 0.275166 0.396668 0.409304
615 4 0.334282 0.403023 0.386472
433 2 0.330615 0.411526 0.343604
434 4 0.328801 0.403743 0.367296
613 2 0.324138 0.417159 0.404429
585 4 0.410466 0.409302 0.420971
489 4 0.39661 0.344853 0.408902
583 2 0.414757 0.417785 0.397845
2137 2 0.0808886 0.42939 0.401559
568 2 0.0585644 0.480973 0.394253
569 4 0.0723124 0.46104 0.400488
2138 4 0.0759755 0.44852 0.386226
1557 4 0.122938 0.495998 0.379976
1451 4 0.13422 0.494163 0.36276
1555 2 0.140435 0.493167 0.397611
543 4 0.405048 0.462694 0.339029
446 4 0.44576 0.498379 0.384418
584 4 0.419048 0.426269 0.374719
1485 4 0.408949 0.457163 0.358297
1484 4 0.450168 0.479268 0.375992
1483 2 0.429558 0.468215 0.367145
2237 4 0.0587371 0.0749278 0.407977
163 3 0.0559717 0.0812225 0.425803
1035 4 0.00779611 0.0656677 0.482176
1033 2 0.00989939 0.0820575 0.463411
1151 4 0.218352 0.0147247 0.492416
1059 4 0.197849 0.0123445 0.427017
1150 2 0.213671 0.0128934 0.467923
1152 4 0.208989 0.0110621 0.44343
2240 4 0.303 0.0146046 0.499441
2239 2 0.318733 0.0132106 0.480058
2241 4 0.334467 0.0118166 0.460675
683 4 0.352799 0.0133471 0.450189
682 2 0.370342 0.0308899 0.447079
684 4 0.387885 0.0484328 0.443968
1061 4 0.406754 0.0501242 0.450634
1060 2 0.41534 0.0732703 0.454599
420 4 0.477105 0.0560353 0.445101
2553 4 0.476685 0.0674005 0.429654
418 2 0.485097 0.0656356 0.466761
419 4 0.493088 0.0752359 0.488421
162 3 0.0363856 0.112815 0.431365
938 4 0.998123 0.162376 0.434595
1034 4 0.0120027 0.0984473 0.444646
937 2 0.00776194 0.13935 0.436032
939 4 0.0174006 0.116324 0.437469
472 2 0.233197 0.138351 0.475339
474 4 0.220455 0.129746 0.495056
473 4 0.24594 0.146956 0.455622
370 2 0.253122 0.154233 0.416391
372 4 0.253956 0.159331 0.440855
3159 4 0.321064 0.112741 0.423582
3157 2 0.324012 0.105749 0.447406
3158 4 0.326959 0.0987565 0.471231
2502 4 0.34188 0.0980751 0.485961
2500 2 0.339327 0.118584 0.500034
900 4 0.327193 0.156129 0.50859
1062 4 0.423926 0.0964163 0.458564
2508 4 0.500101 0.0947283 0.486841
2516 4 0.428064 0.109685 0.444592
2515 2 0.432002 0.111863 0.419997
2613 4 0.0118451 0.172999 0.442324
2611 2 0.0168354 0.188757 0.461085
2847 4 0.0310116 0.222111 0.482558
2845 2 0.0385063 0.245641 0.486476
2612 4 0.0218257 0.204515 0.479845
825 4 0.153175 0.240076 0.491518
369 4 0.148041 0.22403 0.500701
400 2 0.172838 0.21877 0.432402
401 4 0.188034 0.237282 0.43958
1191 4 0.205077 0.248095 0.439834
1189 2 0.216741 0.254941 0.460864
321 4 0.350312 0.240331 0.418428
642 4 0.355566 0.236969 0.437668
640 2 0.353517 0.22523 0.459649
641 4 0.351468 0.21349 0.481631
898 2 0.332505 0.179542 0.501604
899 4 0.337816 0.202955 0.494619
2900 4 0.495592 0.192385 0.44081
312 4 0.474895 0.194505 0.439515
310 2 0.469992 0.219019 0.439034
311 4 0.46509 0.243532 0.438553
452 4 0.454623 0.253763 0.452836
259 2 0.020513 0.299261 0.498844
2846 4 0.0460011 0.269171 0.490394
261 4 0.0277095 0.27595 0.493371
823 2 0.154029 0.254565 0.471158
443 4 0.102464 0.296997 0.428444
442 2 0.11358 0.303719 0.449808
444 4 0.124697 0.310441 0.471171
824 4 0.154882 0.269054 0.450798
696 4 0.143716 0.309926 0.471626
694 2 0.156999 0.327022 0.484133
669 4 0.169547 0.280493 0.442978
667 2 0.182028 0.300198 0.433972
668 4 0.194509 0.319903 0.424966
1190 4 0.228404 0.261787 0.481895
319 2 0.329999 0.254782 0.416498
320 4 0.309686 0.269233 0.414568
872 4 0.299231 0.322297 0.487567
871 2 0.281202 0.324262 0.470354
812 4 0.313916 0.307522 0.489718
873 4 0.263173 0.326227 0.453142
265 2 0.426493 0.332207 0.425985
453 4 0.434115 0.299363 0.451989
266 4 0.437129 0.313786 0.439128
451 2 0.444369 0.276563 0.452412
709 2 0.110202 0.376017 0.421573
711 4 0.123029 0.357469 0.432371
636 4 0.14175 0.364678 0.434643
634 2 0.161919 0.350191 0.431726
635 4 0.182088 0.335703 0.428808
373 2 0.254584 0.397285 0.423488
601 2 0.234379 0.403882 0.47689
325 2 0.163585 0.41342 0.475076
326 4 0.178243 0.42345 0.457477
602 4 0.242757 0.40737 0.453591
374 4 0.234001 0.397901 0.437671
2924 4 0.323473 0.387278 0.471064
267 4 0.415857 0.350628 0.412842
119 3 0.399019 0.400443 0.433575
116 1 0.393858 0.378395 0.438636
2923 2 0.340213 0.375251 0.45691
117 3 0.371373 0.376892 0.443255
118 3 0.398719 0.364758 0.420503
2925 4 0.356953 0.363224 0.442757
120 3 0.405727 0.371621 0.456854
1556 4 0.157933 0.490337 0.415247
1444 2 0.157643 0.450287 0.432132
1445 4 0.151418 0.470492 0.418783
2243 4 0.0947581 0.400883 0.502476
1446 4 0.163868 0.430082 0.445481
1172 4 0.292304 0.426676 0.479144
614 4 0.313995 0.431296 0.422386
1173 4 0.32083 0.423485 0.438195
1171 2 0.306567 0.42508 0.45867
1028 4 0.299346 0.438193 0.493845
2109 4 0.367216 0.490641 0.445668
2107 2 0.37758 0.473591 0.430599
1698 4 0.349722 0.492983 0.455188
2108 4 0.387944 0.456541 0.415531
1952 4 0.442883 0.429458 0.497527
1951 2 0.455395 0.423853 0.476617
1953 4 0.467907 0.418248 0.455708
2314 2 0.209684 0.0247903 0.532222
2315 4 0.206822 0.0376222 0.55349
1182 4 0.199151 0.0501583 0.568052
2316 4 0.212546 0.0119585 0.510954
1180 2 0.202674 0.0733314 0.559347
963 4 0.309227 0.997606 0.507298
1143 4 0.422501 0.0476847 0.531097
842 4 0.413893 0.0295246 0.528177
1141 2 0.428872 0.0641728 0.548781
1142 4 0.435243 0.0806608 0.566465
841 2 0.423814 0.00957004 0.516838
1163 4 0.443107 0.0211206 0.591297
576 4 0.454469 0.0841976 0.561496
4467 4 0.42811 0.00937156 0.586196
944 4 0.118992 0.147784 0.580532
9 3 0.140605 0.162667 0.536396
7 3 0.118281 0.161412 0.566607
6 1 0.137018 0.171291 0.557637
8 3 0.155211 0.16662 0.571259
1181 4 0.206196 0.0965044 0.550642
725 4 0.21024 0.117182 0.551469
724 2 0.221291 0.126638 0.53113
726 4 0.232341 0.136094 0.510792
2501 4 0.336774 0.139093 0.514107
574 2 0.476886 0.0934182 0.56763
575 4 0.499303 0.102639 0.573764
3308 4 0.497113 0.145226 0.579095
268 2 0.424329 0.15836 0.587791
368 4 0.128405 0.207431 0.543592
10 3 0.133784 0.193802 0.556439
367 2 0.138223 0.21573 0.522147
409 2 0.236004 0.225414 0.566693
348 4 0.171126 0.177217 0.567509
346 2 0.195059 0.182719 0.562806
347 4 0.218992 0.188222 0.558104
411 4 0.22471 0.203473 0.570719
1395 4 0.242796 0.256965 0.545841
410 4 0.247298 0.247356 0.562666
3307 2 0.480164 0.161093 0.588376
270 4 0.445668 0.170908 0.59131
260 4 0.0133164 0.322573 0.504318
3045 4 0.151581 0.308961 0.560484
3043 2 0.146787 0.285245 0.566791
935 4 0.144616 0.326898 0.559617
3044 4 0.141992 0.26153 0.573097
1393 2 0.238678 0.253836 0.521378
1394 4 0.23456 0.250707 0.496915
811 2 0.310316 0.303459 0.514125
813 4 0.306715 0.299397 0.538532
1135 2 0.0303411 0.402305 0.559269
1136 4 0.0180403 0.384198 0.571352
540 4 0.058242 0.40774 0.541873
695 4 0.170283 0.344119 0.49664
2244 4 0.139417 0.386655 0.485044
327 4 0.148928 0.403389 0.492676
2242 2 0.117087 0.393769 0.49376
934 2 0.165558 0.33785 0.567782
936 4 0.1865 0.348802 0.575947
773 4 0.17847 0.360603 0.505465
772 2 0.201124 0.37116 0.504746
774 4 0.223778 0.381718 0.504026
603 4 0.226 0.400394 0.500188
1205 4 0.328444 0.407477 0.542814
1204 2 0.330383 0.406633 0.567728
890 4 0.360016 0.361093 0.589403
889 2 0.383178 0.351868 0.591302
891 4 0.40634 0.342643 0.593201
238 2 0.472672 0.409543 0.569502
240 4 0.453167 0.397176 0.579083
1239 4 0.417696 0.358316 0.599091
1137 4 0.042642 0.420413 0.547187
538 2 0.0702552 0.411961 0.520354
539 4 0.0822684 0.416182 0.498836
1983 4 0.107953 0.442533 0.574442
1981 2 0.103932 0.467211 0.574486
1982 4 0.0999106 0.491889 0.574531
1029 4 0.327898 0.423835 0.532307
1027 2 0.313622 0.431014 0.513076
239 4 0.492177 0.42191 0.55992
3179 4 0.995037 0.00491615 0.601518
1283 4 0.156611 0.0894091 0.662107
1154 4 0.164625 0.0817434 0.644065
1255 2 0.225039 0.0693008 0.648784
1256 4 0.246544 0.0721642 0.636352
959 4 0.243314 0.0746768 0.617001
958 2 0.259781 0.0797294 0.598877
960 4 0.276248 0.0847821 0.580753
1130 4 0.36523 0.069096 0.640612
1004 4 0.35943 0.0491598 0.639155
1003 2 0.365624 0.0287069 0.652136
1129 2 0.347539 0.0867646 0.640767
1005 4 0.371818 0.00825409 0.665116
1162 2 0.467638 0.0175578 0.594569
3438 4 0.49968 0.0321149 0.604445
1164 4 0.492169 0.013995 0.597841
943 2 0.128137 0.125937 0.588549
945 4 0.137281 0.10409 0.596567
917 4 0.110314 0.149129 0.599527
1153 2 0.153057 0.0837196 0.621987
1155 4 0.141489 0.0856958 0.599909
916 2 0.1014 0.165482 0.61621
2319 4 0.303722 0.148312 0.616633
2317 2 0.319049 0.128655 0.618596
950 4 0.293591 0.161249 0.626056
1131 4 0.329848 0.104433 0.640922
2318 4 0.334376 0.108997 0.620559
269 4 0.402991 0.145812 0.584272
858 4 0.393885 0.134944 0.597556
856 2 0.378809 0.141687 0.616329
857 4 0.363733 0.14843 0.635102
918 4 0.0924859 0.181834 0.632893
3460 2 0.114513 0.258898 0.607866
3462 4 0.101694 0.25377 0.628712
1210 2 0.0889359 0.207957 0.660716
1211 4 0.083946 0.18537 0.651224
1084 2 0.221474 0.253167 0.640944
1085 4 0.196612 0.250954 0.639474
949 2 0.29223 0.185461 0.619964
976 2 0.27624 0.241523 0.634349
977 4 0.288211 0.228929 0.61637
951 4 0.290869 0.209672 0.613873
3309 4 0.463214 0.176961 0.597657
3461 4 0.127333 0.264026 0.58702
1086 4 0.246336 0.25538 0.642414
897 4 0.188113 0.27002 0.642449
978 4 0.264269 0.254118 0.652328
806 4 0.41012 0.275538 0.646303
805 2 0.417247 0.255327 0.659184
1041 4 0.018973 0.373598 0.587144
1281 4 0.0412366 0.360862 0.647278
1279 2 0.055298 0.349007 0.63034
1280 4 0.0693593 0.337152 0.613401
3420 4 0.0360413 0.346659 0.661195
942 4 0.144143 0.377215 0.601088
940 2 0.152244 0.371607 0.624068
2129 4 0.149854 0.390387 0.586821
941 4 0.160345 0.365998 0.647048
1098 4 0.178415 0.374309 0.645183
1096 2 0.199151 0.366495 0.656765
1206 4 0.332322 0.405789 0.592642
1139 4 0.341967 0.402195 0.610227
1140 4 0.346239 0.3836 0.656452
1138 2 0.344103 0.392898 0.63334
1237 2 0.440901 0.35983 0.608278
1238 4 0.464106 0.361344 0.617465
804 4 0.461148 0.355177 0.636956
802 2 0.473181 0.343014 0.655189
2130 4 0.121738 0.431082 0.579462
2128 2 0.135796 0.410735 0.583142
1713 4 0.210543 0.490443 0.606617
2434 2 0.246314 0.470187 0.608283
2435 4 0.221888 0.474008 0.604551
2436 4 0.270741 0.466367 0.612015
1455 4 0.278129 0.480977 0.599185
1453 2 0.29791 0.495758 0.603111
882 4 0.330612 0.495997 0.613104
881 4 0.379892 0.490433 0.619524
880 2 0.355252 0.493215 0.616314
1282 2 0.139999 0.0878728 0.680731
1284 4 0.123386 0.0863365 0.699355
1257 4 0.203535 0.0664374 0.661215
953 4 0.463696 0.0301584 0.680458
888 4 0.448917 0.0198661 0.687576
952 2 0.476325 0.0511415 0.685498
954 4 0.488953 0.0721246 0.690538
833 4 0.0661536 0.142546 0.686048
1178 4 0.0523228 0.14972 0.698241
1177 2 0.0380359 0.146792 0.718551
1179 4 0.023749 0.143864 0.738861
832 2 0.0862004 0.127831 0.683449
834 4 0.106247 0.113115 0.68085
948 4 0.122261 0.0780531 0.71837
851 4 0.145663 0.128942 0.74112
947 4 0.130647 0.116221 0.749573
946 2 0.126454 0.0971368 0.733972
850 2 0.170011 0.134439 0.739668
852 4 0.19436 0.139935 0.738217
1026 4 0.501422 0.0886478 0.691957
152 3 0.0243126 0.244857 0.71677
924 4 0.0323657 0.240002 0.73353
922 2 0.036681 0.219487 0.747157
1212 4 0.0939257 0.230544 0.670209
1258 2 0.105561 0.23616 0.70864
1259 4 0.0994319 0.221927 0.689017
1299 4 0.110423 0.24418 0.746875
2256 4 0.230754 0.17602 0.738097
2254 2 0.253229 0.175244 0.727168
2255 4 0.275704 0.174468 0.716239
792 4 0.466739 0.214556 0.709294
790 2 0.452657 0.229788 0.695334
791 4 0.438575 0.245019 0.681374
3402 4 0.500456 0.203079 0.648902
807 4 0.424373 0.235116 0.672064
151 1 0.0117115 0.258144 0.702849
153 3 0.0120139 0.249052 0.681503
155 3 0.0205513 0.279129 0.702483
1260 4 0.111691 0.250392 0.728262
992 4 0.151663 0.302102 0.693896
991 2 0.132525 0.315002 0.703515
993 4 0.113387 0.327901 0.713134
896 4 0.161269 0.292836 0.677939
1068 4 0.0987959 0.334912 0.725546
895 2 0.174691 0.281428 0.660194
1277 4 0.274513 0.327676 0.68656
798 4 0.297571 0.31404 0.735389
796 2 0.292547 0.313309 0.710906
797 4 0.287523 0.312577 0.686424
998 4 0.486716 0.318895 0.690009
3418 2 0.0113098 0.347667 0.664733
883 2 0.0412243 0.388751 0.735322
884 4 0.0164755 0.388335 0.731787
815 4 0.996147 0.390468 0.728577
885 4 0.0659732 0.389168 0.738858
1067 4 0.0637154 0.368942 0.736131
1066 2 0.0812557 0.351927 0.730838
1278 4 0.228036 0.340884 0.673671
1097 4 0.219887 0.358682 0.668347
1276 2 0.251274 0.33428 0.680115
1017 4 0.358075 0.371738 0.667419
1015 2 0.380553 0.365079 0.676111
1016 4 0.403032 0.35842 0.684803
1019 4 0.408742 0.364033 0.703002
1018 2 0.410242 0.363945 0.72796
803 4 0.485214 0.330851 0.673421
1020 4 0.411741 0.363856 0.752919
997 2 0.486472 0.336612 0.707651
85 3 0.31648 0.474764 0.713576
2009 4 0.331828 0.497571 0.735345
84 3 0.348596 0.47008 0.69449
81 1 0.339087 0.472787 0.715482
83 3 0.347845 0.491649 0.725773
82 3 0.344024 0.454345 0.728316
2214 4 0.342835 0.440604 0.743029
1007 4 0.499848 0.44921 0.680647
3368 4 0.497153 0.468568 0.685853
907 2 0.176859 0.0232235 0.81839
2991 4 0.172378 0.00433831 0.792118
908 4 0.178349 0.0240409 0.793444
819 4 0.419822 0.99168 0.782641
817 2 0.435774 0.00955708 0.775491
818 4 0.451726 0.027434 0.768342
845 4 0.467157 0.039079 0.773548
844 2 0.465974 0.0511197 0.79543
846 4 0.464792 0.0631604 0.817311
33 3 0.151685 0.165655 0.809198
31 1 0.174106 0.160665 0.812489
32 3 0.176377 0.137905 0.814935
34 3 0.181797 0.171084 0.831742
1023 4 0.20451 0.174156 0.794623
1192 2 0.502788 0.148851 0.822286
862 2 0.0641139 0.189158 0.787503
863 4 0.0506719 0.182585 0.767471
923 4 0.0409963 0.198972 0.760784
864 4 0.0775559 0.195732 0.807535
1297 2 0.12775 0.25818 0.758231
870 4 0.103948 0.193146 0.777117
868 2 0.120493 0.186056 0.794472
869 4 0.137037 0.178966 0.811826
35 3 0.186312 0.167535 0.794531
1021 2 0.217162 0.168401 0.773838
1022 4 0.229814 0.162646 0.753054
1090 2 0.2509 0.216187 0.825024
1092 4 0.238873 0.237087 0.818414
839 4 0.224186 0.243921 0.808222
3329 4 0.273215 0.245879 0.823114
1193 4 0.508486 0.165663 0.804677
1298 4 0.145078 0.272179 0.769587
838 2 0.211967 0.265494 0.811457
840 4 0.199747 0.287068 0.814691