ITEM: TIMESTEP
4980000
ITEM: NUMBER OF ATOMS
4590
ITEM: BOX BOUNDS pp pp pp
-9.9985700000000008e+00 9.9985700000000008e+00
-9.9985700000000008e+00 9.9985700000000008e+00
-9.9985700000000008e+00 9.9985700000000008e+00
ITEM: ATOMS id type xs ys zs
567 4 0.115931 0.00220382 0.0159605
2252 4 0.132063 0.00928261 0.00629341
486 4 0.185251 0.0319325 0.0267125
1840 2 0.192132 0.0743437 0.0195961
1842 4 0.19038 0.050756 0.0277034
484 2 0.182294 0.00718712 0.0246867
357 4 0.279753 0.0362956 0.0645697
355 2 0.262472 0.0474542 0.0787826
2181 4 0.313425 0.0778227 0.0604828
2179 2 0.323669 0.0572699 0.0703739
1474 2 0.283626 0.0081356 0.0368633
1476 4 0.295212 0.0240209 0.0214162
2180 4 0.333912 0.0367171 0.080265
1749 4 0.34531 0.0236008 0.0691655
2442 4 0.404787 0.063033 0.00168847
2976 4 0.45018 0.0750132 0.0424178
2440 2 0.424115 0.0610597 0.0174272
2469 4 0.438191 0.0190301 0.0568741
2467 2 0.458025 0.019898 0.0720747
147 3 0.457516 0.0465379 0.0279747
2466 4 0.487185 0.00579445 0.030274
146 1 0.468433 0.032133 0.0137454
150 3 0.487701 0.0250307 0.0235915
2441 4 0.443443 0.0590865 0.0331659
769 2 0.501347 0.0539624 0.0865022
148 3 0.454625 0.014004 0.00937806
1841 4 0.193885 0.0979314 0.0114888
701 4 0.17643 0.106368 0.0113238
2974 2 0.461891 0.0970019 0.0402898
23 3 0.447495 0.161253 0.0171032
21 1 0.461004 0.151831 0.0334481
2975 4 0.473602 0.118991 0.0381619
2894 4 0.476004 0.162991 0.0587234
24 3 0.483314 0.156108 0.0287198
22 3 0.455769 0.16126 0.0537667
25 3 0.457446 0.12936 0.0344667
705 4 0.0356972 0.238388 0.0536064
703 2 0.044961 0.250089 0.0736674
3260 4 0.00141424 0.214249 0.00529114
2966 4 0.0072269 0.208724 0.0239898
463 2 0.126371 0.234374 0.0153472
464 4 0.123514 0.248733 0.035616
915 4 0.166669 0.187279 0.0769996
914 4 0.187025 0.228581 0.0574911
913 2 0.176847 0.20793 0.0672454
293 4 0.180642 0.24705 0.0637436
296 4 0.284942 0.249989 0.0615642
295 2 0.295647 0.238104 0.0423463
297 4 0.306352 0.226218 0.0231284
354 4 0.30982 0.206298 0.0210168
352 2 0.324783 0.189941 0.00945335
282 4 0.403562 0.199602 0.0375
280 2 0.40531 0.223343 0.0451465
359 4 0.386749 0.18814 0.0339479
358 2 0.39225 0.178697 0.0114592
281 4 0.407059 0.247085 0.0527929
2893 2 0.493422 0.1675 0.0760862
456 4 0.103692 0.247954 0.0403515
454 2 0.0938302 0.266266 0.0542296
455 4 0.0839685 0.284578 0.0681076
495 4 0.124952 0.321381 0.0288237
969 4 0.112495 0.334764 0.0373614
493 2 0.14854 0.316467 0.0221392
494 4 0.172127 0.311554 0.0154547
902 4 0.299608 0.245647 0.0743568
309 4 0.488621 0.288833 0.0833391
968 4 0.0654781 0.349021 0.0280415
2807 4 0.0513036 0.336418 0.0308112
2806 2 0.0367323 0.351933 0.0176909
1055 4 0.00543419 0.375224 0.996071
2808 4 0.022161 0.367448 0.00457064
967 2 0.0889867 0.341892 0.0327014
416 4 0.169257 0.370445 0.0705455
525 4 0.157653 0.366319 0.0867514
415 2 0.172982 0.395091 0.0725164
2512 2 0.201147 0.362732 0.0318757
2514 4 0.210642 0.358048 0.0545273
2513 4 0.191653 0.367415 0.00922402
3337 2 0.0556646 0.469705 0.0738854
3339 4 0.0345422 0.464384 0.0616088
3450 4 0.0214008 0.466614 0.0465867
3448 2 0.0123995 0.451055 0.0292063
417 4 0.176706 0.419737 0.0744873
242 4 0.252 0.501522 0.999698
1559 4 0.24954 0.494249 0.0186713
12 3 0.383311 0.468336 0.0337374
596 4 0.387012 0.452726 0.0438343
595 2 0.407968 0.443561 0.0539359
15 3 0.407064 0.482255 0.00853908
11 1 0.387171 0.471513 0.011284
13 3 0.387827 0.450831 0.000785216
670 2 0.467461 0.414818 0.076526
671 4 0.48504 0.425234 0.0621155
597 4 0.428923 0.434396 0.0640374
322 2 0.489419 0.433967 0.0267528
324 4 0.486381 0.450928 0.00863458
323 4 0.492457 0.417006 0.0448711
380 4 0.0133064 0.0267406 0.159151
757 2 0.230328 0.069043 0.121765
758 4 0.228549 0.054413 0.101567
759 4 0.232107 0.083673 0.141964
356 4 0.24519 0.0586128 0.0929956
1748 4 0.379654 0.0158858 0.104686
742 2 0.397954 0.0479679 0.11686
743 4 0.393399 0.0291148 0.101081
744 4 0.40251 0.066821 0.13264
1747 2 0.362482 0.0197433 0.0869258
2468 4 0.477858 0.0207659 0.0872754
771 4 0.494063 0.0306844 0.092003
1760 4 0.470918 0.00993871 0.120047
835 2 0.0578907 0.15882 0.122914
836 4 0.0418925 0.144234 0.135423
579 4 0.168336 0.124706 0.166072
450 4 0.198544 0.138226 0.104926
448 2 0.181721 0.154238 0.0956627
606 4 0.245278 0.143294 0.148855
731 4 0.244668 0.16323 0.150467
604 2 0.246628 0.118691 0.144609
577 2 0.168556 0.149567 0.163416
605 4 0.247977 0.0940873 0.140363
693 4 0.313255 0.149734 0.111825
691 2 0.325708 0.132269 0.124673
692 4 0.338162 0.114804 0.13752
1506 4 0.387696 0.080924 0.133241
1505 4 0.350184 0.108817 0.151006
1504 2 0.36894 0.0948703 0.142123
255 4 0.477273 0.116995 0.131908
253 2 0.49289 0.126821 0.115034
837 4 0.0738888 0.173406 0.110405
462 4 0.0651687 0.250908 0.10778
460 2 0.0793186 0.247761 0.128153
449 4 0.164898 0.170249 0.0863998
622 2 0.124825 0.245164 0.167864
623 4 0.0999118 0.243063 0.168166
461 4 0.0934685 0.244614 0.148526
580 2 0.208088 0.240998 0.133563
581 4 0.215149 0.219479 0.144158
732 4 0.224059 0.207959 0.159146
730 2 0.234364 0.185594 0.154807
723 4 0.295369 0.16129 0.110319
722 4 0.283087 0.201108 0.137966
721 2 0.289228 0.181199 0.124142
376 2 0.396779 0.211458 0.132762
377 4 0.400164 0.189456 0.144148
378 4 0.393393 0.233459 0.121376
629 4 0.415114 0.188234 0.157077
2876 4 0.403432 0.249865 0.122878
287 4 0.069239 0.292949 0.0801975
704 4 0.0542247 0.26179 0.0937284
476 4 0.0689551 0.312569 0.153347
286 2 0.0846618 0.311865 0.0856285
475 2 0.0917979 0.303032 0.149822
477 4 0.114641 0.293495 0.146296
292 2 0.187273 0.259219 0.0845557
294 4 0.193904 0.271387 0.105368
582 4 0.201028 0.262517 0.122967
103 3 0.187612 0.288925 0.110637
101 1 0.205914 0.293779 0.124051
105 3 0.214155 0.274613 0.133183
102 3 0.199235 0.30794 0.140903
278 4 0.183795 0.319883 0.144902
104 3 0.222366 0.304283 0.111505
901 2 0.297588 0.266928 0.0873256
903 4 0.295568 0.28821 0.100294
519 4 0.402935 0.307512 0.0824415
517 2 0.417566 0.326445 0.089698
2877 4 0.403565 0.291074 0.0945492
2875 2 0.403498 0.27047 0.108713
307 2 0.493918 0.304988 0.101673
275 4 0.432776 0.29718 0.175943
755 4 0.0567928 0.3277 0.14754
288 4 0.100085 0.330781 0.0910595
524 4 0.158071 0.334707 0.125497
523 2 0.157862 0.350513 0.106124
363 4 0.16926 0.402368 0.132881
361 2 0.160023 0.407111 0.155627
277 2 0.18401 0.333059 0.166151
528 4 0.420913 0.360159 0.0919351
518 4 0.432197 0.345377 0.0969545
526 2 0.430789 0.381722 0.0998531
527 4 0.440666 0.403285 0.107771
2538 4 0.457173 0.401038 0.148732
3338 4 0.076787 0.475025 0.0861619
2770 2 0.0597819 0.443738 0.155395
2772 4 0.0809707 0.433167 0.147366
314 4 0.0210531 0.450569 0.170681
2094 4 0.0969473 0.443368 0.142061
766 2 0.143696 0.464103 0.106007
768 4 0.119205 0.468411 0.108623
2092 2 0.116374 0.449589 0.156521
330 4 0.0903956 0.469031 0.099872
328 2 0.0860553 0.486115 0.117606
2093 4 0.135801 0.455809 0.170981
1121 4 0.224611 0.420422 0.105911
1120 2 0.245615 0.418896 0.11939
767 4 0.168186 0.459795 0.103392
638 4 0.172631 0.459875 0.12269
637 2 0.189034 0.472933 0.136314
639 4 0.205437 0.48599 0.149938
1122 4 0.26662 0.41737 0.132868
1070 4 0.322288 0.442983 0.129793
1071 4 0.272762 0.43691 0.1331
1069 2 0.297525 0.439946 0.131446
609 4 0.333299 0.433539 0.143258
608 4 0.382877 0.431245 0.137137
607 2 0.358088 0.432392 0.140197
740 4 0.397696 0.435856 0.149832
739 2 0.400684 0.452768 0.168005
672 4 0.449882 0.404401 0.0909365
234 4 0.99346 0.0643445 0.208562
2675 4 0.00110129 0.0753471 0.22598
316 2 0.124596 5.01882e-05 0.225933
237 4 0.166956 0.0702916 0.171459
2850 4 0.124587 0.0499436 0.266246
2848 2 0.105259 0.0602553 0.254192
317 4 0.114166 0.0184783 0.23923
28 3 0.263234 0.0883066 0.173377
403 2 0.272549 0.0666291 0.244515
27 3 0.259175 0.0760595 0.208678
2674 2 0.00492446 0.092918 0.243353
235 2 0.163794 0.094237 0.177924
236 4 0.160632 0.118182 0.184389
404 4 0.261575 0.083442 0.229613
29 3 0.262509 0.112949 0.202301
26 1 0.269394 0.0918727 0.195462
30 3 0.291986 0.089995 0.197628
516 4 0.26983 0.0976994 0.244772
514 2 0.278376 0.120411 0.250799
2574 4 0.397485 0.0990667 0.206195
697 2 0.478591 0.0906672 0.23682
2573 4 0.446728 0.106828 0.210142
2572 2 0.422106 0.102947 0.208168
699 4 0.465289 0.100633 0.21814
1219 2 0.0264457 0.213717 0.232805
1221 4 0.0419295 0.223729 0.215918
459 4 0.0567524 0.236848 0.218497
457 2 0.0794081 0.239718 0.228679
1220 4 0.0109619 0.203705 0.249693
624 4 0.149738 0.247265 0.167562
458 4 0.102064 0.242587 0.23886
506 4 0.162062 0.235609 0.178217
578 4 0.168775 0.174428 0.160761
507 4 0.175583 0.187672 0.173744
546 4 0.193165 0.192377 0.238079
505 2 0.168823 0.21164 0.175981
350 4 0.271896 0.217677 0.196349
349 2 0.281489 0.204458 0.215281
351 4 0.291083 0.19124 0.234213
764 4 0.29807 0.18887 0.253266
251 4 0.262578 0.234685 0.19701
628 2 0.407644 0.186986 0.180906
331 2 0.386111 0.168591 0.237775
332 4 0.38376 0.181976 0.216788
630 4 0.400174 0.185738 0.204735
3573 4 0.000248698 0.298198 0.238955
394 2 0.0176101 0.324734 0.210294
3571 2 0.999067 0.275894 0.227714
395 4 0.00199706 0.309836 0.222921
285 4 0.22583 0.254759 0.230781
252 4 0.235983 0.268663 0.222286
250 2 0.249281 0.251674 0.209648
611 4 0.347998 0.322947 0.237636
274 2 0.418763 0.317451 0.180174
498 4 0.490593 0.272467 0.167488
496 2 0.469536 0.285851 0.165869
497 4 0.448478 0.299235 0.16425
754 2 0.0478627 0.341555 0.166341
396 4 0.0332231 0.339632 0.197666
756 4 0.0389327 0.355411 0.185141
291 4 0.160952 0.396622 0.186427
289 2 0.164717 0.381248 0.205784
362 4 0.150786 0.411853 0.178373
290 4 0.168482 0.365875 0.22514
279 4 0.184224 0.346234 0.187401
733 2 0.201918 0.355005 0.243007
735 4 0.185443 0.372296 0.235607
276 4 0.404751 0.337722 0.184406
386 4 0.388627 0.330466 0.196494
387 4 0.364634 0.334585 0.240176
385 2 0.376631 0.332525 0.218335
2536 2 0.442525 0.393854 0.16768
2537 4 0.427877 0.386671 0.186627
712 2 0.432362 0.374614 0.224846
714 4 0.44009 0.377202 0.201208
713 4 0.424634 0.372026 0.248484
2771 4 0.038593 0.454309 0.163424
313 2 0.996706 0.454302 0.17498
728 4 0.141659 0.473967 0.167672
727 2 0.140534 0.482636 0.191097
337 2 0.166439 0.494184 0.239202
626 4 0.227064 0.454934 0.228224
1788 4 0.238789 0.4645 0.216069
1786 2 0.241888 0.489309 0.216323
741 4 0.403672 0.46968 0.186177
303 4 0.405828 0.489082 0.191078
1272 4 0.0752646 0.0760531 0.257159
1867 2 0.153789 0.0150151 0.284009
2849 4 0.085932 0.070567 0.242138
429 4 0.159663 0.0155012 0.319193
1869 4 0.137185 0.0149029 0.265315
1868 4 0.170393 0.0151273 0.302704
393 4 0.230759 0.0324209 0.287597
392 4 0.206388 0.0441123 0.329669
391 2 0.218574 0.0382666 0.308633
479 4 0.248457 0.0231301 0.290978
405 4 0.283523 0.0498161 0.259417
478 2 0.271141 0.03337 0.293383
480 4 0.293824 0.04361 0.295787
2642 4 0.291869 0.0434228 0.316758
1497 4 0.49934 0.0112892 0.282106
1517 4 0.42121 0.0653482 0.327139
1495 2 0.477949 0.000425102 0.275067
1270 2 0.0629382 0.0883233 0.275122
2676 4 0.00874763 0.110489 0.260726
511 2 0.0629427 0.143938 0.289832
513 4 0.0572374 0.11963 0.291165
1271 4 0.0506118 0.100593 0.293085
471 4 0.176263 0.104243 0.34252
530 4 0.239875 0.134772 0.314842
529 2 0.226816 0.147212 0.297524
531 4 0.213757 0.159652 0.280207
651 4 0.243606 0.123474 0.331786
2910 4 0.281742 0.15265 0.274139
515 4 0.286922 0.143123 0.256825
2908 2 0.284904 0.152972 0.298939
2657 4 0.303523 0.14363 0.33162
2909 4 0.288067 0.153295 0.32374
631 2 0.40518 0.156591 0.287228
333 4 0.388463 0.155206 0.258763
2879 4 0.416532 0.128902 0.314399
632 4 0.402233 0.167606 0.264976
633 4 0.408128 0.145576 0.30948
512 4 0.068648 0.168245 0.288498
2692 2 0.0513752 0.203799 0.286231
2693 4 0.0327977 0.220341 0.288767
300 4 0.0219642 0.228278 0.302936
2694 4 0.0699528 0.187258 0.283695
750 4 0.112355 0.245354 0.254665
545 4 0.197639 0.170645 0.282894
544 2 0.195402 0.181511 0.260486
284 4 0.197978 0.241504 0.270142
283 2 0.211904 0.248132 0.250461
390 4 0.199617 0.243635 0.289131
763 2 0.310831 0.20797 0.263143
510 4 0.321303 0.238235 0.289388
765 4 0.323592 0.227069 0.273019
2591 4 0.483068 0.186016 0.316174
748 2 0.112792 0.264303 0.270972
749 4 0.11323 0.283251 0.287279
618 4 0.127694 0.282084 0.300604
616 2 0.137626 0.298852 0.316268
617 4 0.147558 0.31562 0.331932
366 4 0.222111 0.318842 0.246035
389 4 0.17809 0.283285 0.310698
388 2 0.188853 0.26346 0.299914
364 2 0.239114 0.308761 0.261347
508 2 0.33419 0.252859 0.305047
365 4 0.256118 0.29868 0.276658
344 4 0.268402 0.296904 0.291713
612 4 0.313138 0.300622 0.265691
345 4 0.307944 0.279867 0.266281
343 2 0.288173 0.288385 0.278997
610 2 0.330568 0.311784 0.251663
509 4 0.347078 0.267483 0.320707
537 4 0.0354562 0.339795 0.328149
263 4 0.061146 0.39138 0.270539
412 2 0.0474794 0.357321 0.289886
414 4 0.0399887 0.342407 0.308505
413 4 0.05497 0.372236 0.271268
262 2 0.0696719 0.414733 0.27321
3671 4 0.154837 0.395117 0.331571
3670 2 0.148255 0.411942 0.314287
2653 2 0.158476 0.353234 0.329422
2655 4 0.156443 0.377413 0.32339
734 4 0.218393 0.337714 0.250407
245 4 0.207628 0.378981 0.291933
244 2 0.212457 0.403466 0.290402
644 4 0.297072 0.369035 0.322916
1575 4 0.352654 0.372588 0.257872
1573 2 0.342363 0.395119 0.261284
2862 4 0.428448 0.37126 0.268266
2860 2 0.448708 0.380628 0.279535
2861 4 0.468967 0.389995 0.290804
3990 4 0.47953 0.4073 0.292818
264 4 0.0781979 0.438086 0.27588
1382 4 0.0966373 0.444565 0.273392
1381 2 0.121396 0.443019 0.276523
1383 4 0.146155 0.441473 0.279653
3672 4 0.141673 0.428768 0.297003
246 4 0.217287 0.427951 0.28887
627 4 0.227119 0.43811 0.275316
625 2 0.227091 0.446522 0.25177
338 4 0.176633 0.487792 0.261121
1802 4 0.323826 0.434566 0.268549
1801 2 0.329431 0.446372 0.289865
1574 4 0.332072 0.417649 0.264696
1803 4 0.335036 0.458179 0.31118
542 4 0.351109 0.448535 0.316754
541 2 0.371769 0.453816 0.32981
1714 2 0.469866 0.48902 0.254234
3989 4 0.478342 0.441162 0.329597
1716 4 0.466321 0.466227 0.263883
3988 2 0.478936 0.424231 0.311208
3601 2 0.464456 0.481082 0.314919
3602 4 0.469275 0.457643 0.322167
2236 2 0.0838588 0.0806489 0.390945
2238 4 0.0901857 0.0706565 0.368916
470 4 0.191852 0.0570088 0.337356
427 2 0.170244 0.0155358 0.341847
428 4 0.180824 0.0155704 0.364502
2641 2 0.303812 0.0473861 0.338365
2643 4 0.315756 0.0513495 0.359971
600 4 0.332749 0.0563391 0.37012
1031 4 0.302679 0.0822667 0.361135
1030 2 0.297511 0.086194 0.385281
599 4 0.382694 0.0549607 0.368032
598 2 0.357721 0.0556499 0.369076
1518 4 0.397096 0.0422278 0.36435
1516 2 0.409153 0.053788 0.345744
1062 4 0.402805 0.0540937 0.395481
1060 2 0.396347 0.0513513 0.41948
762 4 0.506902 0.0500815 0.370093
760 2 0.494675 0.0699347 0.361064
2237 4 0.0775318 0.0906413 0.412975
165 3 0.0232655 0.0955148 0.398789
708 4 0.150129 0.155037 0.335471
706 2 0.155264 0.132348 0.344638
707 4 0.1604 0.109659 0.353805
469 2 0.184058 0.0806257 0.339938
649 2 0.24225 0.121635 0.356685
650 4 0.240894 0.119796 0.381584
370 2 0.243933 0.112671 0.419574
371 4 0.253316 0.112512 0.396398
2656 2 0.305922 0.120207 0.340032
1032 4 0.292342 0.0901212 0.409428
2658 4 0.30832 0.0967835 0.348445
2878 2 0.420207 0.12425 0.338689
2516 4 0.416183 0.0692381 0.395607
2880 4 0.423882 0.119599 0.36298
2515 2 0.41308 0.0923899 0.386688
2517 4 0.409977 0.115542 0.377769
761 4 0.482448 0.089788 0.352034
3173 4 0.497768 0.102053 0.346774
2901 4 0.480854 0.149863 0.378386
3172 2 0.495285 0.125827 0.35411
3174 4 0.492803 0.149601 0.361446
2899 2 0.472812 0.164538 0.396965
2586 4 0.00733957 0.252428 0.391113
341 4 0.0840025 0.204394 0.404514
340 2 0.105242 0.204444 0.417708
402 4 0.139804 0.21887 0.425609
2654 4 0.160508 0.329054 0.335455
634 2 0.154729 0.323199 0.417659
320 4 0.348379 0.299819 0.39655
717 4 0.360584 0.272291 0.334781
715 2 0.359654 0.284572 0.356541
716 4 0.358725 0.296852 0.378301
488 4 0.375902 0.30868 0.37755
487 2 0.38191 0.323427 0.396827
536 4 0.0729148 0.349794 0.359734
535 2 0.0541855 0.344795 0.343941
636 4 0.14159 0.340079 0.404713
709 2 0.113896 0.364118 0.413877
711 4 0.127599 0.34402 0.419662
710 4 0.100193 0.384216 0.408091
643 2 0.299783 0.383029 0.343459
645 4 0.302494 0.397023 0.364001
435 4 0.315989 0.412466 0.364389
489 4 0.387919 0.338174 0.416104
585 4 0.383011 0.396107 0.398454
118 3 0.377772 0.35556 0.409256
570 4 0.0737805 0.501088 0.382893
568 2 0.0759852 0.476512 0.386936
569 4 0.0781899 0.451936 0.390978
2138 4 0.0950807 0.447878 0.400815
2137 2 0.0921455 0.423922 0.407346
375 4 0.257972 0.418438 0.407172
433 2 0.319139 0.434202 0.376338
615 4 0.307558 0.457985 0.399589
434 4 0.322289 0.455938 0.388288
543 4 0.392429 0.459098 0.342866
583 2 0.39711 0.416755 0.398651
2 3 0.393596 0.498674 0.361698
584 4 0.411208 0.437404 0.398849
1485 4 0.406323 0.446681 0.351158
1483 2 0.424328 0.459652 0.36268
446 4 0.448462 0.489022 0.383094
1484 4 0.442333 0.472623 0.374202
164 3 0.0290607 0.0695117 0.425396
1059 4 0.192654 0.994025 0.457412
1150 2 0.219136 0.00737373 0.486831
1152 4 0.200484 0.00694613 0.470183
2239 2 0.310699 0.030251 0.49859
2241 4 0.31856 0.0488452 0.483838
683 4 0.33751 0.0458277 0.479025
682 2 0.355103 0.0416573 0.461755
684 4 0.372697 0.0374868 0.444485
1061 4 0.389889 0.0486089 0.443479
2508 4 0.491913 0.0724585 0.490398
1968 4 0.480217 0.0015862 0.470926
1966 2 0.462821 0.00365834 0.488765
2553 4 0.491386 0.0447446 0.43232
420 4 0.476798 0.0581339 0.431184
418 2 0.476309 0.0603007 0.456089
419 4 0.47582 0.0624674 0.480994
1033 2 0.00146614 0.0949066 0.462569
1034 4 0.0163752 0.108397 0.447706
163 3 0.0580639 0.0901913 0.412145
161 1 0.0354439 0.0903048 0.417315
162 3 0.0316144 0.106104 0.43359
937 2 0.00886879 0.157196 0.441264
472 2 0.203249 0.124107 0.471525
473 4 0.217205 0.120863 0.451034
372 4 0.234551 0.11283 0.44275
474 4 0.189293 0.127352 0.492016
3159 4 0.299582 0.0943441 0.427443
3157 2 0.310505 0.108522 0.444902
3158 4 0.321429 0.1227 0.462362
2502 4 0.329329 0.127269 0.480667
2500 2 0.345015 0.145566 0.487329
1263 4 0.504525 0.132763 0.488793
938 4 0.0266544 0.174368 0.445
2613 4 0.0236591 0.186205 0.460046
2611 2 0.0320479 0.209268 0.464835
2847 4 0.051068 0.233084 0.486455
2612 4 0.0404368 0.23233 0.469624
342 4 0.126481 0.204494 0.430901
825 4 0.107891 0.23989 0.496273
400 2 0.15816 0.234584 0.432033
401 4 0.176517 0.250299 0.438458
1191 4 0.18504 0.252347 0.457099
641 4 0.353986 0.22823 0.482415
900 4 0.379399 0.171782 0.493025
640 2 0.349337 0.24947 0.470069
898 2 0.368707 0.194217 0.495762
2900 4 0.46477 0.179212 0.415543
312 4 0.466356 0.196017 0.426815
310 2 0.459829 0.21997 0.423841
311 4 0.453303 0.243923 0.420867
261 4 0.0266212 0.295043 0.500883
2845 2 0.0456833 0.256877 0.49194
259 2 0.0124457 0.315615 0.499864
823 2 0.125995 0.255907 0.489879
443 4 0.114658 0.300827 0.472195
442 2 0.118187 0.31762 0.49038
824 4 0.144099 0.271924 0.483486
635 4 0.167868 0.306319 0.430606
1189 2 0.204164 0.259251 0.471652
668 4 0.173835 0.317954 0.446314
1190 4 0.223287 0.266155 0.486205
669 4 0.176891 0.318789 0.49622
667 2 0.175363 0.318371 0.471267
872 4 0.280965 0.279206 0.47763
812 4 0.275697 0.285227 0.496433
871 2 0.297009 0.297052 0.470609
873 4 0.313052 0.314898 0.463588
319 2 0.343807 0.292323 0.419961
642 4 0.344688 0.270711 0.457724
321 4 0.339236 0.284827 0.443373
452 4 0.460557 0.255641 0.436086
453 4 0.44787 0.303404 0.428438
266 4 0.444525 0.321547 0.437057
451 2 0.454213 0.279523 0.432262
265 2 0.422351 0.332791 0.434402
2139 4 0.0892104 0.399965 0.413878
601 2 0.244642 0.409671 0.485805
603 4 0.238632 0.40068 0.508349
2924 4 0.321508 0.33316 0.460897
2923 2 0.334867 0.347874 0.445723
119 3 0.390041 0.39073 0.416807
267 4 0.400176 0.344034 0.431747
116 1 0.382824 0.370721 0.42608
117 3 0.363849 0.374682 0.438465
2925 4 0.348225 0.362587 0.430549
120 3 0.39899 0.362168 0.43965
1953 4 0.425727 0.40752 0.470982
1444 2 0.164294 0.495266 0.458473
327 4 0.19533 0.419934 0.486376
325 2 0.185251 0.440404 0.476151
326 4 0.175172 0.460875 0.465925
1446 4 0.172564 0.478891 0.475462
374 4 0.265495 0.407554 0.455396
1171 2 0.311981 0.437619 0.48619
1173 4 0.311151 0.453196 0.466649
614 4 0.311525 0.4628 0.449205
613 2 0.309541 0.460393 0.424397
373 2 0.261734 0.412996 0.431284
602 4 0.250651 0.418662 0.463261
2109 4 0.386086 0.495149 0.46634
2107 2 0.403709 0.480843 0.455856
1951 2 0.429546 0.428873 0.458546
1952 4 0.433366 0.450225 0.44611
2108 4 0.421333 0.466536 0.445373
2314 2 0.232354 0.0203645 0.5393
2315 4 0.224444 0.0384605 0.554635
1182 4 0.209479 0.051041 0.55566
1180 2 0.194116 0.0706665 0.557652
2316 4 0.240263 0.00226844 0.523965
960 4 0.250985 0.0797623 0.571172
2240 4 0.302838 0.0116567 0.513343
1143 4 0.409596 0.0238214 0.563067
842 4 0.422187 0.0100851 0.557463
1141 2 0.413087 0.0484163 0.565909
1142 4 0.416578 0.0730113 0.568751
1967 4 0.445424 0.00573048 0.506605
9 3 0.128954 0.155651 0.543432
944 4 0.149744 0.0978504 0.566126
943 2 0.146964 0.0808385 0.584238
1181 4 0.178752 0.090292 0.559644
725 4 0.186626 0.102378 0.545973
724 2 0.193252 0.117277 0.527018
726 4 0.199879 0.132176 0.508062
2501 4 0.3607 0.163862 0.493992
576 4 0.423117 0.0887497 0.558101
574 2 0.447307 0.0889003 0.551775
575 4 0.471496 0.0890509 0.54545
1262 4 0.487226 0.148203 0.533099
2506 2 0.489969 0.0826977 0.513126
3308 4 0.47931 0.151867 0.551853
1261 2 0.495875 0.140483 0.510946
2507 4 0.488025 0.0929368 0.535854
3307 2 0.465179 0.156576 0.571936
348 4 0.155547 0.174844 0.549384
8 3 0.143827 0.185663 0.561389
6 1 0.125226 0.171914 0.559556
368 4 0.102143 0.188203 0.535309
10 3 0.106929 0.184293 0.554022
367 2 0.101594 0.205122 0.516907
369 4 0.101044 0.222041 0.498505
346 2 0.180416 0.176245 0.547201
409 2 0.212534 0.219618 0.551185
347 4 0.205285 0.177646 0.545019
411 4 0.210069 0.19479 0.552818
410 4 0.214998 0.244446 0.549552
899 4 0.358014 0.216653 0.498499
2846 4 0.0402987 0.280669 0.497426
3043 2 0.149299 0.296261 0.576646
444 4 0.121715 0.334414 0.508566
696 4 0.127565 0.324142 0.52472
3045 4 0.148519 0.314252 0.5593
1395 4 0.221841 0.263223 0.552126
1393 2 0.227089 0.266184 0.527859
1394 4 0.232338 0.269144 0.503593
811 2 0.282773 0.272432 0.516715
813 4 0.28985 0.259636 0.536998
1135 2 0.0348322 0.403485 0.561827
1137 4 0.0593487 0.40769 0.559289
1136 4 0.0103157 0.399281 0.564365
1041 4 0.0100784 0.382373 0.575232
1641 4 0.998518 0.393474 0.50399
935 4 0.160972 0.327212 0.569848
2244 4 0.157796 0.384314 0.546216
2242 2 0.144494 0.403452 0.537164
695 4 0.151549 0.364904 0.540966
694 2 0.139557 0.344523 0.532843
773 4 0.222839 0.370116 0.553193
772 2 0.234721 0.376273 0.532072
774 4 0.246604 0.382431 0.510952
1205 4 0.302751 0.42241 0.586537
889 2 0.382355 0.376098 0.567684
891 4 0.400585 0.361489 0.576595
890 4 0.364125 0.390707 0.558772
1239 4 0.417226 0.371079 0.581197
540 4 0.0688154 0.424268 0.557772
1982 4 0.0808822 0.490325 0.578988
538 2 0.0915178 0.426107 0.547458
2243 4 0.131192 0.422591 0.528112
539 4 0.11422 0.427946 0.537143
1983 4 0.11112 0.450651 0.582508
1981 2 0.0960012 0.470488 0.580748
1454 4 0.328846 0.494255 0.573888
1029 4 0.302774 0.42466 0.565824
1027 2 0.30037 0.428092 0.541174
1028 4 0.297966 0.431524 0.516524
1172 4 0.312812 0.422042 0.50573
882 4 0.345879 0.494472 0.584871
239 4 0.480097 0.422408 0.550199
238 2 0.473482 0.426375 0.573984
1154 4 0.127034 0.0533259 0.655771
1153 2 0.142069 0.0540232 0.635805
1155 4 0.157104 0.0547205 0.615839
945 4 0.144185 0.0638266 0.60235
958 2 0.242756 0.069585 0.592476
1255 2 0.205252 0.041316 0.632486
1257 4 0.18514 0.0264868 0.633389
1256 4 0.225363 0.0561451 0.631583
959 4 0.234527 0.0594077 0.613781
1005 4 0.357521 0.00179994 0.645699
1130 4 0.347916 0.0494206 0.599734
1004 4 0.348212 0.0433381 0.619457
1003 2 0.352867 0.022569 0.632578
1129 2 0.367673 0.0644653 0.596825
1162 2 0.470478 0.0280803 0.61146
1163 4 0.446863 0.0199598 0.612705
4467 4 0.438904 0.00378673 0.603772
1164 4 0.494094 0.0362008 0.610216
917 4 0.110722 0.156015 0.594503
916 2 0.106024 0.156362 0.619059
918 4 0.101326 0.156709 0.643615
2319 4 0.284364 0.147581 0.607108
2317 2 0.302542 0.13045 0.608232
2318 4 0.320721 0.113319 0.609356
950 4 0.275786 0.151656 0.625307
857 4 0.339453 0.11964 0.608137
1131 4 0.387431 0.0795101 0.593916
856 2 0.360938 0.131892 0.61181
858 4 0.382422 0.144144 0.615483
269 4 0.396475 0.130006 0.611313
268 2 0.413316 0.145988 0.602031
270 4 0.430156 0.16197 0.592748
7 3 0.121567 0.161616 0.579798
1211 4 0.10747 0.173507 0.65144
3460 2 0.143558 0.248899 0.606891
3462 4 0.132548 0.237305 0.626113
976 2 0.257795 0.242667 0.632088
949 2 0.272207 0.176402 0.625205
977 4 0.266815 0.221223 0.622923
951 4 0.268627 0.201148 0.625103
3309 4 0.451048 0.161284 0.592019
1279 2 0.0671507 0.29181 0.650824
1281 4 0.0427179 0.296814 0.649041
3420 4 0.0310188 0.299204 0.633657
3418 2 0.0119373 0.315347 0.634359
1280 4 0.0915835 0.286806 0.652607
3461 4 0.154569 0.260494 0.587668
3044 4 0.150079 0.278269 0.593992
895 2 0.166041 0.30188 0.65196
896 4 0.145624 0.316086 0.654517
1086 4 0.24188 0.275104 0.626145
1084 2 0.222007 0.288081 0.634008
1085 4 0.202133 0.301057 0.641872
897 4 0.186457 0.287674 0.649403
978 4 0.248776 0.264111 0.641252
806 4 0.348777 0.274228 0.649143
805 2 0.372201 0.273151 0.657823
940 2 0.148362 0.404741 0.651671
2129 4 0.140148 0.405378 0.618078
942 4 0.142321 0.419981 0.632793
1098 4 0.170402 0.37824 0.666869
936 4 0.176245 0.370477 0.589737
934 2 0.168609 0.348844 0.579793
1097 4 0.207857 0.345153 0.665115
1096 2 0.189129 0.361697 0.665992
1204 2 0.321534 0.407638 0.593896
1139 4 0.340653 0.3954 0.621998
1206 4 0.340317 0.392865 0.601255
1138 2 0.345983 0.394838 0.646421
1140 4 0.351313 0.394276 0.670843
1237 2 0.433365 0.376986 0.599358
1238 4 0.449504 0.382893 0.617518
804 4 0.450615 0.375872 0.635327
802 2 0.460172 0.361954 0.653769
2130 4 0.129041 0.438948 0.582717
2128 2 0.134594 0.422163 0.600398
3491 4 0.502556 0.481582 0.62276
240 4 0.466867 0.430342 0.597768
3130 2 0.00255993 0.00628578 0.722123
948 4 0.0786919 0.078002 0.743811
1283 4 0.125966 0.0470248 0.675938
1818 4 0.159415 0.00720428 0.681054
1282 2 0.111802 0.0668216 0.681654
946 2 0.102323 0.0849589 0.748095
888 4 0.482696 0.0122815 0.67775
953 4 0.483755 0.0275944 0.690318
952 2 0.480949 0.0521182 0.694304
954 4 0.478143 0.0766421 0.698289
1026 4 0.46652 0.0775275 0.714302
832 2 0.0740417 0.119297 0.684762
833 4 0.0652494 0.142074 0.690152
1178 4 0.0514348 0.138472 0.703075
1177 2 0.0292101 0.14884 0.707948
1179 4 0.00698533 0.159208 0.71282
1284 4 0.0976391 0.0866184 0.687369
834 4 0.0828339 0.0965188 0.679373
947 4 0.125954 0.0919158 0.752379
2254 2 0.244289 0.112966 0.731346
2256 4 0.236605 0.123462 0.7527
2255 4 0.251972 0.10247 0.709993
1025 4 0.487281 0.112645 0.743223
1024 2 0.4769 0.0950864 0.728763
154 3 0.00362969 0.246518 0.736707
151 1 0.0180195 0.228541 0.739563
1212 4 0.0745436 0.205207 0.671731
153 3 0.0201754 0.216874 0.719623
1259 4 0.0740239 0.20698 0.69148
155 3 0.038417 0.235938 0.746482
1210 2 0.0910067 0.189357 0.661586
1258 2 0.0841375 0.223298 0.707499
1260 4 0.0942511 0.239616 0.723518
992 4 0.132294 0.318368 0.669039
1299 4 0.111657 0.250269 0.726281
991 2 0.126184 0.32714 0.691642
1297 2 0.126649 0.269417 0.72047
1298 4 0.141641 0.288565 0.714659
791 4 0.406929 0.269671 0.68353
807 4 0.395624 0.272074 0.666504
790 2 0.427798 0.270014 0.697298
792 4 0.448667 0.270356 0.711066
883 2 0.0230172 0.365265 0.734856
885 4 0.0466189 0.363263 0.726847
1067 4 0.0660646 0.356529 0.72675
1066 2 0.0908124 0.356041 0.723217
941 4 0.154404 0.3895 0.67055
993 4 0.120074 0.335911 0.714246
1068 4 0.11556 0.355554 0.719683
1278 4 0.219156 0.332405 0.673772
1276 2 0.239647 0.337516 0.687156
798 4 0.30356 0.33033 0.733183
796 2 0.28926 0.343106 0.717136
797 4 0.27496 0.355881 0.70109
1277 4 0.260139 0.342627 0.700541
1044 4 0.30893 0.34464 0.747159
1017 4 0.361659 0.379691 0.681579
1015 2 0.36987 0.361026 0.696049
1016 4 0.378081 0.342361 0.710519
1019 4 0.393553 0.346054 0.723226
1018 2 0.390189 0.347495 0.747961
803 4 0.46973 0.348036 0.672211
998 4 0.467864 0.357772 0.690258
997 2 0.484097 0.361124 0.708977
999 4 0.50033 0.364477 0.727697
85 3 0.314122 0.456927 0.743025
84 3 0.328893 0.461758 0.70873
83 3 0.318033 0.491786 0.72934
81 1 0.327159 0.470468 0.730166
82 3 0.348188 0.471735 0.739402
3324 4 0.420085 0.503341 0.676537
2991 4 0.188128 0.995052 0.797048
908 4 0.195256 0.0118804 0.804049
907 2 0.179242 0.0248373 0.818221
819 4 0.39275 0.0225455 0.778074
2322 4 0.38108 0.0371544 0.783832
2320 2 0.362002 0.0210844 0.782111
817 2 0.415007 0.0321467 0.771942
818 4 0.437265 0.041748 0.765811
845 4 0.451683 0.0486393 0.778045
844 2 0.453083 0.0583799 0.801031
846 4 0.454483 0.0681204 0.824016
851 4 0.143141 0.0840102 0.760689
850 2 0.15677 0.0989753 0.775368
33 3 0.143052 0.163045 0.799194
869 4 0.129027 0.156992 0.786353
31 1 0.160631 0.148444 0.803217
32 3 0.155336 0.12784 0.794465
34 3 0.164027 0.14624 0.826065
852 4 0.1704 0.11394 0.790047
1022 4 0.231624 0.142732 0.754057
1021 2 0.209966 0.144484 0.766428
1023 4 0.188308 0.146236 0.778798
35 3 0.179592 0.156179 0.793253
1194 4 0.48847 0.136022 0.817483
1192 2 0.483883 0.160391 0.814279
152 3 0.00925772 0.214463 0.755506
924 4 0.0133618 0.201175 0.769114
922 2 0.0299036 0.194029 0.786448
863 4 0.0468999 0.168568 0.810831
923 4 0.0464455 0.186883 0.803783
862 2 0.0654792 0.173224 0.826903
870 4 0.0929643 0.188968 0.773023
868 2 0.110996 0.17298 0.779688
839 4 0.209831 0.23564 0.813625
1092 4 0.226273 0.224619 0.809635
1090 2 0.230347 0.211419 0.830476
1009 2 0.498067 0.207687 0.777403
1010 4 0.485815 0.195804 0.795675
1193 4 0.479297 0.184761 0.811075
838 2 0.205135 0.260196 0.813269
840 4 0.200439 0.284752 0.812913
1209 4 0.201543 0.29169 0.832349
1207 2 0.193262 0.314661 0.82697
3328 2 0.306161 0.295083 0.807817
3330 4 0.303033 0.307836 0.786539
1043 4 0.300188 0.326151 0.792793
3329 4 0.309289 0.28233 0.829095
4208 4 0.00838562 0.377848 0.824734
1289 4 0.128146 0.3744 0.810601
1224 4 0.114663 0.38888 0.805814
1288 2 0.146093 0.357629 0.815272
1290 4 0.16404 0.340858 0.819943
1222 2 0.109454 0.413026 0.801941
1208 4 0.184981 0.337632 0.821591
1241 4 0.19832 0.398919 0.771606
1064 4 0.196397 0.340823 0.804922
1065 4 0.206634 0.384214 0.782268
1063 2 0.201516 0.362518 0.793595
1240 2 0.193301 0.420679 0.782853