ITEM: TIMESTEP
580000
ITEM: NUMBER OF ATOMS
4590
ITEM: BOX BOUNDS pp pp pp
-9.9985700000000008e+00 9.9985700000000008e+00
-9.9985700000000008e+00 9.9985700000000008e+00
-9.9985700000000008e+00 9.9985700000000008e+00
ITEM: ATOMS id type xs ys zs
2576 4 0.0313935 0.0437666 0.0758005
1667 4 0.0647629 0.0109344 0.00506387
1666 2 0.0752609 0.0224697 0.0246063
1668 4 0.0857588 0.0340051 0.0441488
702 4 0.0901863 0.0267443 0.0624515
533 4 0.226304 0.0473057 0.00167077
532 2 0.246309 0.0620904 0.00420205
1607 4 0.441949 0.0143797 0.0250035
1606 2 0.448485 0.0384988 0.0258593
746 4 0.457115 0.0624436 0.0490959
745 2 0.446122 0.0727919 0.0690273
1608 4 0.455021 0.0626178 0.026715
2760 4 0.067216 0.134625 0.0754737
2758 2 0.0781472 0.157064 0.0769487
3232 2 0.00971241 0.14733 0.00689704
591 4 0.0524507 0.122475 0.0715815
738 4 0.165264 0.164161 0.0576126
356 4 0.234788 0.161987 0.0260585
567 4 0.243448 0.160254 0.00931827
534 4 0.266313 0.076875 0.00673333
557 4 0.33878 0.0939838 0.00630877
558 4 0.374091 0.123768 0.0254588
556 2 0.356435 0.108876 0.0158838
2759 4 0.0890784 0.179503 0.0784237
477 4 0.0970245 0.249149 0.0627175
737 4 0.161805 0.213886 0.0616398
736 2 0.163535 0.189023 0.0596262
475 2 0.106612 0.241268 0.0410117
507 4 0.168062 0.232805 0.0593674
476 4 0.1162 0.233387 0.0193059
571 2 0.258378 0.234795 0.0500241
573 4 0.263297 0.210425 0.0526882
355 2 0.251951 0.178661 0.0333081
357 4 0.269115 0.195335 0.0405577
353 4 0.242531 0.239461 0.00959342
664 2 0.367879 0.176041 0.0134908
666 4 0.391356 0.184083 0.0165484
665 4 0.344402 0.167999 0.0104333
254 4 0.395654 0.181492 0.997997
253 2 0.414391 0.197149 0.992615
704 4 0.0852778 0.261442 0.0740189
294 4 0.124867 0.284525 0.0430777
456 4 0.112132 0.292616 0.0565559
292 2 0.141878 0.284377 0.0247531
454 2 0.125253 0.305377 0.0735906
293 4 0.158888 0.284229 0.0064284
505 2 0.166866 0.250338 0.0771539
250 2 0.234817 0.32691 0.0717977
572 4 0.25346 0.259165 0.04736
483 4 0.254631 0.336387 0.0388325
1071 4 0.404839 0.325059 0.0480216
280 2 0.493187 0.306902 0.0205935
281 4 0.494842 0.282065 0.0229463
481 2 0.246691 0.337058 0.0151327
251 4 0.255058 0.329063 0.0572763
1069 2 0.390864 0.344894 0.0419858
1070 4 0.376888 0.364729 0.0359499
957 4 0.361396 0.374054 0.0412329
955 2 0.352846 0.393684 0.0283196
956 4 0.344296 0.413314 0.0154064
551 4 0.0285895 0.452885 0.0641817
330 4 0.018432 0.451036 0.046469
550 2 0.0489299 0.459713 0.0513435
552 4 0.0692703 0.466542 0.0385053
794 4 0.11545 0.455947 0.0163569
1692 4 0.125712 0.471977 0.017597
793 2 0.125238 0.439467 0.000301069
1690 2 0.133469 0.495714 0.018846
241 2 0.21842 0.477071 0.0200838
242 4 0.221499 0.492705 0.0393521
495 4 0.397558 0.468414 0.0598773
493 2 0.388886 0.452529 0.0771292
660 4 0.446058 0.501065 0.0745485
2577 4 0.0128581 0.013737 0.111232
2575 2 0.0221258 0.0287518 0.0935161
379 2 0.017526 0.0684751 0.137509
380 4 0.0311754 0.0812209 0.120884
590 4 0.0339473 0.0883449 0.103101
381 4 0.00387668 0.0557293 0.154135
700 2 0.102833 0.0294614 0.0838488
701 4 0.115481 0.0321785 0.105246
450 4 0.106468 0.0395951 0.121316
448 2 0.128035 0.0358772 0.133409
449 4 0.149601 0.0321592 0.145502
578 4 0.166878 0.0429377 0.147356
577 2 0.180906 0.0605154 0.158284
579 4 0.194934 0.0780932 0.169212
1474 2 0.289977 0.994544 0.127022
1476 4 0.289956 0.00898473 0.10661
654 4 0.300547 0.0243426 0.111251
653 4 0.312671 0.0728079 0.109049
652 2 0.306609 0.0485752 0.11015
1447 2 0.404012 0.0106972 0.11201
1449 4 0.39209 0.0202692 0.131794
1784 4 0.407448 0.0247366 0.146159
1783 2 0.416469 0.0179138 0.168458
589 2 0.043199 0.10541 0.0873414
235 2 0.221558 0.102697 0.156999
237 4 0.227888 0.122779 0.143514
297 4 0.307612 0.09137 0.114718
295 2 0.311708 0.111018 0.12963
580 2 0.320022 0.159901 0.161658
581 4 0.328975 0.137354 0.1556
296 4 0.315804 0.130666 0.144541
2793 4 0.413711 0.142001 0.0952794
747 4 0.43513 0.0831401 0.0889586
771 4 0.46684 0.116596 0.103992
2791 2 0.43232 0.125335 0.0963574
2792 4 0.450928 0.10867 0.0974354
769 2 0.488473 0.109107 0.114049
703 2 0.0726521 0.2468 0.0898738
655 2 0.0277045 0.213744 0.0911598
657 4 0.0404162 0.233459 0.0998159
705 4 0.0600264 0.232158 0.105729
656 4 0.0149927 0.19403 0.0825036
462 4 0.226939 0.234707 0.143788
278 4 0.23759 0.21715 0.144301
277 2 0.218109 0.201805 0.147498
279 4 0.198629 0.18646 0.150694
582 4 0.31107 0.182447 0.167715
630 4 0.37933 0.203567 0.149088
628 2 0.385962 0.181416 0.158604
2895 4 0.490832 0.164773 0.112047
647 4 0.0833896 0.318855 0.149292
287 4 0.153023 0.332231 0.0921611
362 4 0.0905825 0.306168 0.13537
361 2 0.11383 0.303182 0.144077
455 4 0.138373 0.318138 0.0906253
363 4 0.137078 0.300195 0.152783
755 4 0.160609 0.277277 0.112081
460 2 0.233364 0.256879 0.134181
252 4 0.214577 0.324758 0.086319
506 4 0.165671 0.26787 0.0949404
754 2 0.174129 0.283039 0.132309
756 4 0.18765 0.2888 0.152538
461 4 0.23979 0.279051 0.124575
623 4 0.247343 0.29852 0.126667
622 2 0.259311 0.320067 0.130877
519 4 0.360506 0.27974 0.088503
518 4 0.371444 0.323736 0.109608
12 3 0.358808 0.322829 0.145678
517 2 0.365975 0.301738 0.0990556
324 4 0.388771 0.317952 0.1147
2841 4 0.477556 0.334847 0.118737
527 4 0.501235 0.302867 0.159731
2839 2 0.49465 0.326578 0.135004
646 2 0.0637123 0.332517 0.142126
648 4 0.044035 0.346178 0.13496
620 4 0.00374668 0.357 0.119951
415 2 0.1007 0.384882 0.152635
417 4 0.101124 0.405105 0.137937
416 4 0.100275 0.364659 0.167333
286 2 0.177668 0.336322 0.091129
288 4 0.202313 0.340412 0.090097
608 4 0.233523 0.344537 0.148837
609 4 0.207929 0.379885 0.124421
607 2 0.220726 0.362211 0.136629
626 4 0.192 0.391868 0.124808
625 2 0.186375 0.415487 0.130782
612 4 0.251554 0.34912 0.156077
624 4 0.271278 0.341613 0.135086
740 4 0.288995 0.350822 0.141576
739 2 0.298768 0.364158 0.122819
741 4 0.308541 0.377494 0.104062
245 4 0.282039 0.415362 0.163894
322 2 0.406925 0.335142 0.115029
671 4 0.435709 0.358107 0.130746
323 4 0.425079 0.352333 0.115359
2650 2 0.491281 0.375858 0.109442
2652 4 0.494137 0.400428 0.105789
670 2 0.439061 0.382674 0.127522
2651 4 0.488424 0.351289 0.113095
672 4 0.442413 0.407241 0.124298
596 4 0.492058 0.418583 0.100555
1665 4 0.119062 0.495211 0.134085
264 4 0.0842872 0.46086 0.126922
263 4 0.102713 0.414776 0.120798
262 2 0.0935 0.437818 0.12386
1787 4 0.131944 0.483118 0.0931739
291 4 0.17275 0.445988 0.152881
627 4 0.18075 0.439106 0.136756
246 4 0.323547 0.433672 0.142857
244 2 0.302793 0.424517 0.153375
1777 2 0.315678 0.46988 0.0879767
1778 4 0.330214 0.44961 0.0897194
524 4 0.339998 0.437011 0.130723
523 2 0.36291 0.43278 0.12165
525 4 0.385822 0.428549 0.112577
494 4 0.380213 0.436644 0.0943812
595 2 0.480434 0.438532 0.110151
597 4 0.46881 0.458482 0.119747
658 2 0.453468 0.488469 0.0948361
659 4 0.460878 0.475872 0.115124
1422 4 0.00866229 0.0435437 0.169779
1404 4 0.0184258 0.0231973 0.233997
1420 2 0.0148559 0.0359643 0.192787
1421 4 0.0210495 0.0283849 0.215795
1402 2 0.0031195 0.020943 0.253639
236 4 0.215229 0.0826156 0.170484
1566 4 0.209267 0.00882198 0.205303
1506 4 0.2201 0.0106945 0.221934
1504 2 0.243466 0.0181198 0.217029
692 4 0.259631 0.0444728 0.21069
1505 4 0.266833 0.0255451 0.212124
691 2 0.262036 0.0693286 0.211949
21 1 0.420563 0.0743879 0.193002
22 3 0.405165 0.0612422 0.182081
25 3 0.419105 0.0706034 0.215411
1785 4 0.42549 0.011091 0.190757
2745 4 0.438626 0.0132906 0.205896
2743 2 0.462801 0.0185897 0.209456
2744 4 0.486976 0.0238887 0.213016
23 3 0.441803 0.0689368 0.185417
2723 4 0.502121 0.0322693 0.201802
732 4 0.222206 0.124539 0.247946
722 4 0.236542 0.136288 0.240119
721 2 0.255083 0.124222 0.228464
723 4 0.273624 0.112157 0.21681
693 4 0.264441 0.0941844 0.213208
27 3 0.318354 0.0896553 0.244659
26 1 0.307321 0.109718 0.242442
28 3 0.288095 0.106359 0.229894
30 3 0.320942 0.124649 0.231944
706 2 0.338616 0.154394 0.245713
757 2 0.3931 0.128709 0.192707
758 4 0.39965 0.105682 0.19992
759 4 0.38655 0.151737 0.185494
24 3 0.415993 0.0966712 0.188422
629 4 0.392593 0.159266 0.16812
285 4 0.188711 0.24328 0.250034
309 4 0.267303 0.218168 0.189581
307 2 0.284758 0.235351 0.194606
763 2 0.331086 0.210843 0.252039
765 4 0.336963 0.187365 0.245761
708 4 0.352137 0.175206 0.242679
522 4 0.435164 0.254352 0.230979
395 4 0.0402805 0.26766 0.195264
394 2 0.0175916 0.268356 0.205747
339 4 0.142767 0.306422 0.194548
337 2 0.165625 0.304397 0.204477
283 2 0.196259 0.253019 0.228277
284 4 0.203807 0.262758 0.206521
338 4 0.188484 0.302371 0.214406
344 4 0.206023 0.312155 0.208378
343 2 0.214226 0.328618 0.225315
308 4 0.302212 0.252534 0.199631
496 2 0.318714 0.2618 0.229139
498 4 0.314867 0.268215 0.20528
729 4 0.273544 0.321942 0.24613
11 1 0.354441 0.318765 0.167894
13 3 0.3341 0.307738 0.169645
14 3 0.371403 0.305521 0.176572
520 2 0.453003 0.262427 0.21543
526 2 0.492858 0.283306 0.172861
521 4 0.470842 0.270502 0.199882
528 4 0.484481 0.263745 0.18599
536 4 0.0832836 0.353562 0.226771
735 4 0.0882781 0.340883 0.241601
537 4 0.0838764 0.366758 0.17854
535 2 0.08358 0.36016 0.202655
345 4 0.222429 0.345081 0.242251
727 2 0.268469 0.341739 0.231725
387 4 0.328738 0.394504 0.193907
610 2 0.26157 0.356692 0.177699
611 4 0.271587 0.364264 0.199321
728 4 0.263393 0.361536 0.217321
385 2 0.344579 0.376116 0.187898
15 3 0.353535 0.338567 0.179106
644 4 0.379248 0.365007 0.184971
386 4 0.360421 0.357728 0.18189
643 2 0.399985 0.369142 0.198314
541 2 0.409061 0.388301 0.248932
542 4 0.418168 0.373172 0.23123
645 4 0.420723 0.373276 0.211656
1774 2 0.138482 0.500443 0.245766
289 2 0.16657 0.463718 0.169393
768 4 0.1716 0.493967 0.196306
290 4 0.16039 0.481447 0.185905
766 2 0.193099 0.497275 0.208635
638 4 0.28305 0.488659 0.187687
301 2 0.31906 0.46781 0.186379
303 4 0.298424 0.479586 0.194166
302 4 0.339697 0.456034 0.178592
1574 4 0.356367 0.452274 0.18706
1573 2 0.373802 0.460508 0.202978
1575 4 0.391237 0.468743 0.218897
230 4 0.404521 0.484212 0.22331
229 2 0.396235 0.493103 0.245161
2860 2 0.479829 0.4876 0.236423
429 4 0.153353 0.00247842 0.310336
427 2 0.143909 0.0236452 0.300958
428 4 0.134465 0.044812 0.291579
249 4 0.263163 0.0671657 0.321307
1748 4 0.449232 0.0400699 0.298674
1747 2 0.446594 0.015221 0.299538
743 4 0.443963 0.0573171 0.307029
742 2 0.436826 0.0803839 0.313522
529 2 0.0177173 0.140704 0.282872
530 4 0.00896306 0.117388 0.285093
458 4 0.00890124 0.0973291 0.285347
457 2 0.00981622 0.0918668 0.30973
531 4 0.0264716 0.164019 0.280651
513 4 0.0456252 0.160409 0.285637
605 4 0.160889 0.119176 0.330629
731 4 0.179278 0.141814 0.266907
604 2 0.168605 0.124728 0.307503
606 4 0.176321 0.13028 0.284377
730 2 0.200742 0.133176 0.257427
404 4 0.217178 0.150315 0.296823
600 4 0.222534 0.161002 0.313828
403 2 0.237148 0.135351 0.298387
707 4 0.325095 0.133582 0.248747
247 2 0.263284 0.0859037 0.304752
405 4 0.257118 0.120386 0.299951
248 4 0.263405 0.104642 0.288198
29 3 0.301734 0.117578 0.263547
633 4 0.317857 0.129608 0.267299
632 4 0.324889 0.126556 0.316715
631 2 0.321373 0.128082 0.292007
698 4 0.33653 0.112253 0.324587
697 2 0.360694 0.113705 0.330846
744 4 0.429689 0.103451 0.320016
311 4 0.473127 0.16783 0.268992
512 4 0.0686767 0.200562 0.26674
511 2 0.057151 0.180486 0.276188
393 4 0.07978 0.217658 0.263582
2655 4 0.0118196 0.24766 0.323752
392 4 0.124649 0.229489 0.282224
546 4 0.141287 0.219952 0.275845
391 2 0.102214 0.223574 0.272903
544 2 0.16522 0.224183 0.269974
390 4 0.169989 0.210499 0.32576
545 4 0.189153 0.228414 0.264103
598 2 0.207726 0.178948 0.322984
371 4 0.188084 0.215761 0.331085
764 4 0.325209 0.234321 0.258316
351 4 0.397808 0.186188 0.300868
349 2 0.3934 0.198778 0.322016
420 4 0.417753 0.181132 0.299696
419 4 0.462613 0.164164 0.285541
310 2 0.492995 0.1764 0.281521
418 2 0.440183 0.172648 0.292618
748 2 0.103126 0.264212 0.32102
750 4 0.110885 0.240464 0.320007
749 4 0.0953677 0.28796 0.322032
733 2 0.0895906 0.325301 0.261111
734 4 0.0909031 0.309718 0.280621
435 4 0.281654 0.324167 0.310605
509 4 0.267624 0.325887 0.326195
497 4 0.32256 0.255385 0.252997
433 2 0.273212 0.322871 0.287105
434 4 0.264769 0.321575 0.263606
274 2 0.308185 0.314071 0.328876
276 4 0.32396 0.306113 0.311183
378 4 0.337215 0.292663 0.307801
377 4 0.373026 0.268439 0.332929
376 2 0.355121 0.280551 0.320365
614 4 0.35367 0.320402 0.293626
2692 2 0.0031361 0.365744 0.250936
2694 4 0.0216781 0.380328 0.259223
366 4 0.0363828 0.381961 0.27244
365 4 0.0618374 0.350049 0.301327
364 2 0.0491101 0.366005 0.286883
618 4 0.0640668 0.347373 0.321169
299 4 0.0989388 0.379561 0.31159
298 2 0.0970565 0.392461 0.290254
300 4 0.0951743 0.40536 0.268917
504 4 0.241151 0.385626 0.339993
502 2 0.257506 0.392022 0.322195
503 4 0.273862 0.398419 0.304398
437 4 0.276189 0.411265 0.289261
615 4 0.3898 0.35048 0.310676
613 2 0.371735 0.335441 0.302151
543 4 0.399954 0.403429 0.266634
446 4 0.398352 0.405413 0.28617
603 4 0.106818 0.421102 0.27003
602 4 0.115833 0.470016 0.264841
601 2 0.111325 0.445559 0.267436
1775 4 0.131283 0.47841 0.25514
436 2 0.295135 0.422982 0.277907
1436 4 0.327114 0.449957 0.269587
438 4 0.314081 0.4347 0.266552
5 3 0.345188 0.499102 0.315448
1435 2 0.331422 0.467882 0.286478
1437 4 0.335731 0.485807 0.303369
231 4 0.387949 0.501993 0.267013
447 4 0.410947 0.448527 0.308154
445 2 0.40465 0.42697 0.297162
2861 4 0.490703 0.470177 0.250684
713 4 0.429616 0.450903 0.310996
714 4 0.451194 0.49471 0.321768
712 2 0.440405 0.472806 0.316382
316 2 0.0705422 0.00929453 0.393092
318 4 0.0748422 0.0333719 0.387899
399 4 0.0862883 0.0468544 0.397812
397 2 0.0944331 0.0689773 0.38948
2428 2 0.210484 0.0270293 0.383679
2429 4 0.235254 0.0304338 0.383509
1701 4 0.242813 0.0312343 0.365623
2430 4 0.185714 0.0236248 0.383849
1700 4 0.269796 0.0647022 0.340078
1699 2 0.256304 0.0479682 0.352851
1517 4 0.363479 0.0486316 0.403776
459 4 0.0107312 0.0864045 0.334112
398 4 0.102578 0.0911003 0.381149
342 4 0.119653 0.160567 0.410631
472 2 0.181188 0.140535 0.417594
369 4 0.174296 0.110363 0.341205
474 4 0.175104 0.121093 0.403096
368 4 0.172848 0.105344 0.390939
367 2 0.173572 0.107853 0.366072
683 4 0.225651 0.116825 0.386124
682 2 0.246932 0.12864 0.391846
684 4 0.268212 0.140454 0.397568
467 4 0.287878 0.139373 0.401054
466 2 0.311385 0.14463 0.394346
468 4 0.334891 0.149887 0.387638
699 4 0.384858 0.115157 0.337105
333 4 0.437199 0.104751 0.33885
332 4 0.447327 0.145686 0.365728
479 4 0.476946 0.0960464 0.403428
331 2 0.442263 0.125218 0.352289
478 2 0.462199 0.115343 0.409373
480 4 0.447453 0.13464 0.415318
2849 4 0.019485 0.23263 0.390345
2848 2 0.0191975 0.239997 0.366453
388 2 0.146823 0.219491 0.328532
686 4 0.103906 0.170568 0.403127
687 4 0.132145 0.189889 0.366657
685 2 0.118026 0.180229 0.384892
389 4 0.123657 0.228482 0.331304
401 4 0.13339 0.217684 0.380969
400 2 0.12715 0.240139 0.390024
599 4 0.192918 0.196894 0.332139
370 2 0.204504 0.232081 0.340529
649 2 0.239316 0.244985 0.4082
717 4 0.267236 0.219154 0.415689
651 4 0.260417 0.232689 0.40284
488 4 0.329163 0.241342 0.387563
452 4 0.397608 0.196558 0.35538
350 4 0.388992 0.211367 0.343165
451 2 0.412844 0.19696 0.375202
487 2 0.33697 0.250295 0.409564
761 4 0.44798 0.161306 0.3535
453 4 0.42808 0.197362 0.395023
515 4 0.43234 0.181913 0.406684
762 4 0.483447 0.183644 0.380774
2515 2 0.478028 0.221537 0.393667
760 2 0.465714 0.172475 0.367137
2516 4 0.471778 0.197917 0.388357
306 4 0.50305 0.237597 0.39936
2850 4 0.01891 0.247365 0.342561
2800 2 0.0190478 0.308048 0.391083
443 4 0.0504448 0.29054 0.395061
2801 4 0.0440089 0.30919 0.391989
442 2 0.0685021 0.277177 0.384081
444 4 0.0865594 0.263814 0.373101
402 4 0.12091 0.262595 0.399079
372 4 0.220924 0.248402 0.349974
650 4 0.218215 0.257282 0.41356
510 4 0.245074 0.314276 0.369292
508 2 0.256349 0.320082 0.347743
636 4 0.262746 0.314324 0.380358
275 4 0.292411 0.322028 0.346569
634 2 0.267008 0.327202 0.401362
2517 4 0.484279 0.245157 0.398978
2463 4 0.00805415 0.379016 0.367645
547 2 0.0122776 0.382443 0.400466
408 4 0.0501177 0.391476 0.422167
548 4 0.0293799 0.386244 0.418305
406 2 0.0654081 0.411069 0.424906
616 2 0.0833352 0.352182 0.336361
617 4 0.102604 0.356991 0.351552
677 4 0.118532 0.362229 0.340046
676 2 0.136705 0.374541 0.352018
678 4 0.154878 0.386853 0.36399
373 2 0.168502 0.385983 0.405554
375 4 0.157667 0.379429 0.383994
635 4 0.27127 0.340081 0.422365
336 4 0.350176 0.368194 0.409276
2925 4 0.495252 0.358446 0.333643
2923 2 0.474835 0.372013 0.338567
2924 4 0.454418 0.385581 0.343491
680 4 0.0879437 0.49305 0.362431
679 2 0.109103 0.480523 0.366961
681 4 0.130263 0.467996 0.371491
560 4 0.392876 0.42816 0.371921
752 4 0.346079 0.450372 0.397385
753 4 0.375523 0.428705 0.363263
751 2 0.360801 0.439539 0.380324
559 2 0.416377 0.425526 0.38004
561 4 0.439879 0.422892 0.388158
588 4 0.443397 0.433174 0.405019
720 4 0.112564 0.0573281 0.438675
719 4 0.157352 0.0446529 0.420397
718 2 0.134958 0.0509905 0.429536
440 4 0.317833 0.00650488 0.425024
441 4 0.357291 0.0367373 0.419568
439 2 0.337562 0.0216211 0.422296
1516 2 0.375115 0.0630896 0.420531
426 4 0.400109 0.0147285 0.463848
430 2 0.367101 0.0333501 0.478988
431 4 0.385211 0.0280431 0.462586
432 4 0.34899 0.0386571 0.49539
2642 4 0.473647 0.0848443 0.418774
2641 2 0.478043 0.0628295 0.429783
2643 4 0.482439 0.0408146 0.440792
340 2 0.118207 0.137456 0.420063
1035 4 0.105459 0.114942 0.445705
341 4 0.116761 0.114345 0.429495
1033 2 0.0942732 0.109436 0.467379
1034 4 0.0830879 0.103931 0.489052
473 4 0.187272 0.159976 0.432092
724 2 0.317432 0.112415 0.478306
726 4 0.327536 0.115256 0.455612
1518 4 0.386752 0.0775477 0.437286
575 4 0.392235 0.0953313 0.443031
574 2 0.409965 0.112961 0.443199
640 2 0.364424 0.148555 0.479773
641 4 0.354922 0.157181 0.458314
899 4 0.368442 0.120883 0.502822
576 4 0.427695 0.13059 0.443367
516 4 0.429664 0.150449 0.44546
514 2 0.431002 0.166181 0.426072
346 2 0.0627625 0.230779 0.431044
348 4 0.0387517 0.2248 0.434635
469 2 0.00368784 0.242478 0.455723
470 4 0.0199862 0.231703 0.440121
347 4 0.0867734 0.236759 0.427452
321 4 0.172592 0.174893 0.432438
320 4 0.136806 0.186403 0.465417
319 2 0.154699 0.180648 0.448928
715 2 0.281389 0.220978 0.43622
716 4 0.295542 0.222801 0.456752
267 4 0.361596 0.251969 0.440727
259 2 0.0727108 0.284003 0.450847
260 4 0.0735863 0.281796 0.425956
261 4 0.0718353 0.286209 0.475737
695 4 0.0917871 0.288104 0.477147
327 4 0.15519 0.325497 0.48508
7 3 0.141654 0.321634 0.49919
325 2 0.14274 0.337164 0.466803
709 2 0.195573 0.329581 0.485826
710 4 0.173685 0.319257 0.492114
489 4 0.344778 0.259248 0.431566
265 2 0.381838 0.256007 0.454838
266 4 0.402081 0.260045 0.468949
584 4 0.406383 0.273395 0.483937
585 4 0.414347 0.321021 0.470934
583 2 0.410365 0.297208 0.477436
326 4 0.130289 0.348832 0.448527
374 4 0.179337 0.392538 0.427114
711 4 0.21746 0.339904 0.479538
773 4 0.219776 0.356149 0.492652
772 2 0.242381 0.35953 0.502789
668 4 0.287874 0.351394 0.424462
667 2 0.310592 0.35511 0.414702
240 4 0.367472 0.412534 0.456274
669 4 0.33331 0.358826 0.404942
334 2 0.36019 0.385517 0.424268
335 4 0.370205 0.402841 0.43926
269 4 0.413985 0.331448 0.488932
268 2 0.433318 0.34382 0.498848
1381 2 0.0754199 0.502312 0.446495
407 4 0.0806985 0.430662 0.427644
540 4 0.104363 0.489604 0.487729
383 4 0.0999801 0.434477 0.428578
935 4 0.0995885 0.449268 0.491729
382 2 0.102289 0.445564 0.450869
1383 4 0.0930999 0.485503 0.441013
384 4 0.104598 0.456651 0.473161
880 2 0.284439 0.506044 0.507797
238 2 0.378661 0.42136 0.476818
239 4 0.389851 0.430187 0.497362
586 2 0.456583 0.436989 0.425917
661 2 0.47663 0.452186 0.478691
587 4 0.469769 0.440804 0.446816
662 4 0.48421 0.452778 0.454871
1126 2 0.00256534 0.0175681 0.544086
1059 4 0.202304 0.00497386 0.511664
1152 4 0.218901 0.016602 0.514199
1150 2 0.232021 0.0376284 0.510892
823 2 0.186396 0.0843669 0.55221
825 4 0.208504 0.0726971 0.551696
1151 4 0.245141 0.0586548 0.507585
1031 4 0.263199 0.0458981 0.57141
1180 2 0.281207 0.0845402 0.509858
1030 2 0.262101 0.06982 0.564219
1182 4 0.261855 0.0702586 0.503023
3157 2 0.402646 0.0496338 0.532621
3158 4 0.400218 0.034626 0.552471
842 4 0.381623 0.03026 0.549486
841 2 0.366694 0.0154528 0.563016
3159 4 0.405074 0.0646417 0.51277
900 4 0.389109 0.0774915 0.516633
939 4 0.072756 0.119745 0.550689
937 2 0.0708548 0.112902 0.526715
938 4 0.0689536 0.106059 0.502741
824 4 0.164289 0.0960367 0.552724
1181 4 0.300559 0.0988219 0.516692
1032 4 0.261003 0.0937419 0.557027
725 4 0.307327 0.109573 0.501
898 2 0.378775 0.0991875 0.509728
642 4 0.373926 0.139929 0.501232
1272 4 0.0813251 0.182973 0.498015
1271 4 0.10252 0.182758 0.543308
858 4 0.148832 0.198147 0.536598
1270 2 0.0919224 0.182866 0.520662
856 2 0.169267 0.183898 0.538733
857 4 0.189701 0.169648 0.540868
409 2 0.22029 0.200407 0.541743
411 4 0.209997 0.177733 0.539488
410 4 0.230583 0.223082 0.543997
790 2 0.34353 0.24301 0.531144
792 4 0.359316 0.230343 0.516464
984 4 0.0125323 0.315798 0.550405
982 2 0.00942615 0.308462 0.574106
877 2 0.0157516 0.332988 0.518765
10 3 0.142468 0.29191 0.521744
6 1 0.153634 0.310765 0.515545
9 3 0.155994 0.324924 0.533776
696 4 0.124274 0.290631 0.515081
694 2 0.10803 0.289367 0.496114
8 3 0.174511 0.305185 0.507094
813 4 0.32005 0.327517 0.521923
803 4 0.293479 0.332116 0.556827
791 4 0.327744 0.255676 0.545825
872 4 0.338165 0.334603 0.516349
871 2 0.358634 0.320716 0.520004
873 4 0.379103 0.306829 0.523659
1039 2 0.0802626 0.401358 0.559405
878 4 0.0306819 0.343356 0.501597
1137 4 0.138746 0.359483 0.562304
896 4 0.145165 0.372894 0.548679
1041 4 0.0916152 0.388184 0.57737
1135 2 0.116979 0.364252 0.573647
1136 4 0.0952128 0.369021 0.58499
1190 4 0.248289 0.349924 0.579713
895 2 0.169232 0.371312 0.555272
1191 4 0.199659 0.361429 0.577842
897 4 0.193299 0.369729 0.561864
1189 2 0.223974 0.355676 0.578778
811 2 0.297885 0.336859 0.515096
802 2 0.278443 0.340315 0.575045
812 4 0.275719 0.3462 0.50827
774 4 0.264985 0.36291 0.512927
3307 2 0.493354 0.361595 0.514802
3309 4 0.472023 0.348553 0.514531
270 4 0.452651 0.356191 0.508765
925 2 0.433265 0.393817 0.583932
936 4 0.0822851 0.424641 0.531665
1040 4 0.0689099 0.414531 0.541439
934 2 0.0909368 0.436955 0.511697
539 4 0.141667 0.503931 0.517793
2243 4 0.158665 0.503831 0.507484
538 2 0.123015 0.496767 0.502761
1394 4 0.19584 0.423045 0.549348
1393 2 0.214087 0.427248 0.532778
1395 4 0.232334 0.43145 0.516207
1027 2 0.293834 0.411913 0.570063
1173 4 0.254414 0.475969 0.519657
1171 2 0.266208 0.462439 0.537064
1172 4 0.278002 0.448908 0.554471
1028 4 0.281447 0.429226 0.556949
881 4 0.26793 0.488821 0.515279
930 4 0.384955 0.443668 0.511159
928 2 0.405173 0.43703 0.524288
929 4 0.42539 0.430391 0.537417
1330 2 0.481392 0.476916 0.537037
1332 4 0.47321 0.464692 0.516818
1331 4 0.489575 0.489141 0.557255
663 4 0.46905 0.451594 0.50251
926 4 0.43872 0.418126 0.586053
2317 2 0.160283 0.0312076 0.61837
2318 4 0.150425 0.00847823 0.621742
2319 4 0.170141 0.053937 0.614997
1282 2 0.191548 0.0792156 0.654941
951 4 0.252472 0.0273515 0.649982
2241 4 0.240977 0.013697 0.658759
963 4 0.259554 0.0198797 0.631334
962 4 0.263491 0.0492405 0.591046
961 2 0.261522 0.0345601 0.61119
1141 2 0.320739 0.0734021 0.641262
1003 2 0.33782 0.0233739 0.620001
1004 4 0.34533 0.0424874 0.634264
90 3 0.387736 0.00451395 0.62745
1005 4 0.33031 0.00426038 0.605737
1142 4 0.331869 0.0514604 0.645718
88 3 0.419461 0.0230037 0.635776
86 1 0.407398 0.00342838 0.63889
4227 4 0.467309 0.0249859 0.650302
809 4 0.476043 0.0372145 0.636197
808 2 0.482849 0.0551719 0.620184
4225 2 0.48418 0.00656462 0.651408
810 4 0.489655 0.0731292 0.604172
2990 4 0.0328259 0.12015 0.612669
2991 4 0.0562868 0.117035 0.656721
2989 2 0.0445563 0.118593 0.634695
3078 4 0.0188266 0.106839 0.616916
3076 2 0.00243855 0.107972 0.598066
1155 4 0.183801 0.120579 0.648405
1283 4 0.188727 0.102524 0.646342
1212 4 0.244842 0.156085 0.641738
888 4 0.284625 0.142916 0.649107
886 2 0.309346 0.143522 0.652805
1143 4 0.309608 0.0953439 0.636807
3426 4 0.474519 0.114339 0.662154
1220 4 0.13595 0.243225 0.587946
1219 2 0.14042 0.218743 0.590365
1221 4 0.144889 0.194262 0.592783
1258 2 0.191999 0.214061 0.657479
1210 2 0.231082 0.176084 0.647727
1211 4 0.217322 0.196083 0.653715
1259 4 0.206502 0.205481 0.639005
904 2 0.491158 0.238875 0.597254
906 4 0.472012 0.241733 0.61308
1009 2 0.457658 0.227478 0.643883
1011 4 0.45748 0.228896 0.618921
983 4 0.00632003 0.301126 0.597806
797 4 0.327529 0.307058 0.627221
796 2 0.314826 0.325754 0.637912
952 2 0.455816 0.313466 0.644641
954 4 0.457325 0.333838 0.630222
953 4 0.454307 0.293095 0.659059
804 4 0.263407 0.348514 0.593262
1029 4 0.306221 0.394599 0.583177
1239 4 0.293173 0.388544 0.597113
1237 2 0.307047 0.373211 0.61117
1238 4 0.320921 0.357878 0.625227
798 4 0.302123 0.344449 0.648603
807 4 0.385337 0.364564 0.641003
806 4 0.339371 0.353359 0.624809
805 2 0.362354 0.358962 0.632906
1006 2 0.409637 0.346998 0.666244
927 4 0.42781 0.369508 0.58181
1007 4 0.419775 0.359156 0.646889
1100 4 0.437633 0.35013 0.64
1099 2 0.455907 0.367134 0.641452
3329 4 0.469676 0.387147 0.662165
1101 4 0.47418 0.384139 0.642903
3328 2 0.483574 0.407008 0.668296
1161 4 0.179609 0.502375 0.59091
1205 4 0.326349 0.451441 0.650028
890 4 0.32905 0.467771 0.639402
889 2 0.338783 0.485556 0.624768
1001 4 0.442723 0.436873 0.594269
1002 4 0.454311 0.483096 0.609427
1000 2 0.448517 0.459984 0.601848
1268 4 0.437358 0.490423 0.617544
863 4 0.0896955 0.0787139 0.693542
909 4 0.16254 0.0870811 0.7302
945 4 0.149133 0.085193 0.712908
943 2 0.127971 0.0861053 0.699623
1284 4 0.194369 0.0559076 0.663541
2254 2 0.187885 0.00924006 0.746132
2255 4 0.208304 0.012155 0.731999
907 2 0.185625 0.0858013 0.720679
949 2 0.264364 0.0419357 0.666446
950 4 0.276255 0.0565198 0.68291
1092 4 0.273195 0.0682857 0.696888
1090 2 0.27346 0.0602145 0.720552
1091 4 0.273725 0.0521433 0.744215
1218 4 0.371325 0.0182773 0.722363
1216 2 0.386722 0.0350176 0.711977
2283 4 0.354053 0.0110269 0.727949
1217 4 0.402118 0.0517578 0.70159
42 3 0.421877 0.0705951 0.715123
1164 4 0.418207 0.0459371 0.692756
1163 4 0.454629 0.0170261 0.674362
1162 2 0.436418 0.0314816 0.683559
1113 4 0.4669 0.0822801 0.7267
43 3 0.458119 0.0779524 0.708411
1111 2 0.47759 0.0748773 0.748056
864 4 0.0536124 0.106025 0.672263
862 2 0.071654 0.0923696 0.682902
1081 2 0.0125091 0.130883 0.683554
1083 4 0.0144983 0.155788 0.682579
1076 4 0.00763597 0.171021 0.694505
1082 4 0.01052 0.105977 0.68453
944 4 0.106808 0.0870176 0.686338
1105 2 0.0877106 0.155429 0.747437
1153 2 0.183484 0.139005 0.665304
830 4 0.221194 0.0970689 0.703384
829 2 0.234818 0.117305 0.6979
1154 4 0.183167 0.157431 0.682203
908 4 0.208709 0.0845216 0.711158
831 4 0.248442 0.137541 0.692416
1298 4 0.25341 0.155663 0.696574
887 4 0.334067 0.144127 0.656503
3424 2 0.479363 0.135311 0.674878
45 3 0.437312 0.101591 0.729049
41 1 0.437112 0.0873892 0.711247
44 3 0.430919 0.0988505 0.692046
3425 4 0.484208 0.156283 0.687601
852 4 0.999992 0.23317 0.757992
850 2 0.0233476 0.226637 0.75191
1106 4 0.079259 0.176266 0.736503
1177 2 0.095863 0.2083 0.73308
948 4 0.157739 0.222591 0.675448
1178 4 0.113406 0.222196 0.721929
946 2 0.136966 0.220282 0.689172
947 4 0.116194 0.217973 0.702896
1179 4 0.0783203 0.194404 0.744231
1260 4 0.177497 0.22264 0.675952
1299 4 0.283205 0.19268 0.680997
1297 2 0.268308 0.174171 0.688786
978 4 0.28623 0.198124 0.700805
976 2 0.306281 0.212487 0.704913
977 4 0.326331 0.22685 0.70902
1193 4 0.338854 0.232652 0.69446
1192 2 0.355467 0.25 0.701404
1010 4 0.457835 0.226059 0.668846
1026 4 0.471282 0.223265 0.683861
1024 2 0.477673 0.199355 0.687418
1025 4 0.484065 0.175445 0.690975
1209 4 0.0122724 0.265392 0.694133
1208 4 0.0339652 0.303413 0.71831
1207 2 0.0231188 0.284403 0.706222
821 4 0.184669 0.33446 0.752687
1277 4 0.285253 0.302422 0.702324
1276 2 0.27867 0.326514 0.701127
1008 4 0.399499 0.33484 0.685598
1194 4 0.37208 0.267349 0.708348
1044 4 0.377204 0.286075 0.711042
1042 2 0.380065 0.305104 0.695077
1043 4 0.382926 0.324133 0.679112
3123 4 0.471548 0.272613 0.735157
1263 4 0.458871 0.267419 0.719573
1261 2 0.455291 0.272617 0.695379
1262 4 0.451712 0.277815 0.671185
50 3 0.442525 0.264904 0.729712
3121 2 0.494814 0.28148 0.732871
47 3 0.472953 0.25902 0.750507
883 2 0.0704936 0.411111 0.749052
1280 4 0.0451289 0.414726 0.716363
1068 4 0.154575 0.376047 0.670768
992 4 0.114935 0.331976 0.676685
991 2 0.135601 0.34481 0.670907
1066 2 0.150765 0.398866 0.680252
993 4 0.156266 0.357644 0.665129
822 4 0.200567 0.378816 0.735937
820 2 0.192618 0.356638 0.744312
1098 4 0.248088 0.378255 0.749843
1278 4 0.272088 0.350606 0.699931
1097 4 0.265534 0.369167 0.703867
1096 2 0.256811 0.373711 0.726855
1139 4 0.317048 0.415374 0.703129
884 4 0.0619889 0.414499 0.725785
1279 2 0.0225241 0.425409 0.716669
1281 4 0.999919 0.436091 0.716974
1067 4 0.146954 0.421686 0.689736
942 4 0.160434 0.437679 0.689275
941 4 0.188449 0.446615 0.729722
940 2 0.174442 0.442147 0.709499
1236 4 0.172857 0.456973 0.738229
1204 2 0.328571 0.434796 0.668553
1206 4 0.330794 0.418151 0.687078
1138 2 0.316402 0.428905 0.724145
3182 4 0.503749 0.432201 0.6932
1295 4 0.0675497 0.0270418 0.788003
1294 2 0.075105 0.0432347 0.805492
1296 4 0.0826603 0.0594277 0.822982
2049 4 0.0733517 0.0336937 0.77013
2047 2 0.0828793 0.01827 0.75291
1286 4 0.0922721 0.0712485 0.83711
2256 4 0.167467 0.00632514 0.760266
1049 4 0.289708 0.0531562 0.753434
1050 4 0.314856 0.0742408 0.791166
1048 2 0.302282 0.0636985 0.7723
966 4 0.324832 0.0680338 0.808711
964 2 0.320526 0.0570151 0.830739
1256 4 0.34567 0.00807736 0.803045
1112 4 0.48828 0.0674745 0.769413
845 4 0.485407 0.068297 0.790131
2441 4 0.485407 0.0150027 0.823445
2320 2 0.471667 0.0104235 0.782511
2321 4 0.472269 0.0186105 0.806129
1107 4 0.0961623 0.134592 0.758371
34 3 0.099292 0.11821 0.771167
1201 2 0.159374 0.0932619 0.808151
1285 2 0.107728 0.0855279 0.823605
1203 4 0.139227 0.10361 0.797559
1287 4 0.123185 0.0998072 0.8101
32 3 0.13517 0.109684 0.778431
31 1 0.117249 0.122389 0.785256
35 3 0.111805 0.116798 0.806651
33 3 0.123109 0.144814 0.78418
1227 4 0.20672 0.118844 0.759452
1202 4 0.179521 0.0829136 0.818743
1130 4 0.165772 0.146622 0.80498