ITEM: TIMESTEP
5120000
ITEM: NUMBER OF ATOMS
4590
ITEM: BOX BOUNDS pp pp pp
-9.9985700000000008e+00 9.9985700000000008e+00
-9.9985700000000008e+00 9.9985700000000008e+00
-9.9985700000000008e+00 9.9985700000000008e+00
ITEM: ATOMS id type xs ys zs
567 4 0.122163 0.00357872 0.0161418
486 4 0.198029 0.0394828 0.0434453
1842 4 0.188297 0.0565892 0.0446454
484 2 0.202296 0.0176883 0.0319574
1840 2 0.189639 0.0804864 0.0374134
2181 4 0.293448 0.0361959 0.0748695
2179 2 0.317459 0.0383694 0.0814988
2442 4 0.402083 0.0528023 0.00072833
2440 2 0.418109 0.0646686 0.0158129
2468 4 0.423592 0.0451143 0.0660273
2467 2 0.43549 0.0232263 0.068156
146 1 0.473062 0.0617308 0.030508
150 3 0.478022 0.0427766 0.0421177
2441 4 0.434134 0.076535 0.0308974
148 3 0.455572 0.072975 0.0408077
149 3 0.467271 0.0563635 0.00868911
2466 4 0.489316 0.026591 0.0449174
147 3 0.491528 0.0754428 0.0301424
2469 4 0.447387 0.00133819 0.0702847
2976 4 0.444587 0.0934944 0.0394962
2464 2 0.483925 0.00485405 0.033799
1841 4 0.190981 0.104384 0.0301814
701 4 0.184681 0.105765 0.0110507
353 4 0.304353 0.158504 0.0368199
722 4 0.279039 0.166339 0.0726591
360 4 0.419392 0.169223 0.00963999
572 4 0.417983 0.150088 0.00770122
2974 2 0.4348 0.115073 0.04748
2975 4 0.425012 0.136652 0.0554637
25 3 0.430804 0.157201 0.0583638
21 1 0.431512 0.174415 0.073258
3047 4 0.483387 0.0883253 0.0444113
2967 4 0.0054371 0.233128 0.0551101
705 4 0.992719 0.236026 0.071696
2965 2 0.00585287 0.223122 0.0321998
2966 4 0.00626864 0.213116 0.00928937
463 2 0.0862815 0.246969 0.00055957
293 4 0.173825 0.23072 0.0784735
915 4 0.16291 0.16229 0.0887423
914 4 0.170882 0.211277 0.0826291
913 2 0.166896 0.186783 0.0856857
295 2 0.298485 0.222373 0.077811
297 4 0.289905 0.206531 0.0604726
354 4 0.301913 0.207974 0.0437092
352 2 0.303133 0.183239 0.0402646
282 4 0.385022 0.214807 0.0419987
280 2 0.393761 0.237574 0.0364763
358 2 0.405973 0.183014 0.025606
359 4 0.392554 0.196805 0.0415721
378 4 0.405857 0.218602 0.0850495
24 3 0.414753 0.189729 0.0684621
464 4 0.0975035 0.24777 0.022889
456 4 0.0930859 0.256373 0.0406071
454 2 0.101653 0.278695 0.0479214
455 4 0.110221 0.301017 0.0552356
287 4 0.120466 0.318403 0.0600926
281 4 0.402499 0.26034 0.0309539
2876 4 0.399568 0.273548 0.0466408
2875 2 0.390995 0.296517 0.0515543
2877 4 0.382421 0.319485 0.0564678
519 4 0.388797 0.323058 0.0752227
2839 2 0.479597 0.297588 0.00592345
2841 4 0.479501 0.306704 0.0292059
309 4 0.488277 0.319656 0.0721989
2808 4 0.0128281 0.357184 0.0215713
968 4 0.0630489 0.343246 0.985059
2806 2 0.0304382 0.3452 0.00847736
1055 4 0.998379 0.372141 0.0253354
417 4 0.178737 0.373658 0.0681053
2512 2 0.183986 0.364931 0.0271067
2514 4 0.187149 0.36411 0.0518958
2513 4 0.180824 0.365753 0.00231755
597 4 0.341884 0.393878 0.0445132
517 2 0.387605 0.347822 0.0784602
672 4 0.436432 0.40651 0.0758313
670 2 0.457817 0.403898 0.0631417
671 4 0.479202 0.401285 0.0504521
3337 2 0.0591414 0.45604 0.0613506
3339 4 0.0406696 0.441779 0.0523721
3450 4 0.022986 0.433744 0.0478306
3448 2 0.012815 0.447894 0.0298994
3338 4 0.0776133 0.4703 0.070329
1102 2 0.0855063 0.49002 0.0143053
767 4 0.170648 0.496704 0.0747038
595 2 0.353275 0.411027 0.0303244
596 4 0.364667 0.428176 0.0161356
15 3 0.389944 0.467444 0.0246171
1550 4 0.383552 0.489307 0.0815083
11 1 0.379654 0.45898 0.00614758
12 3 0.360627 0.447751 0.012552
323 4 0.487805 0.420531 0.0514491
357 4 0.275313 0.0298274 0.0802085
356 4 0.250912 0.072911 0.0872188
355 2 0.263112 0.0513692 0.0837137
28 3 0.291832 0.0877707 0.136456
2180 4 0.341469 0.040543 0.088128
1749 4 0.359829 0.0355124 0.0821666
1748 4 0.390462 0.0511421 0.118471
742 2 0.402891 0.0717567 0.151971
743 4 0.402229 0.0516723 0.137093
1747 2 0.375145 0.0433272 0.100319
1761 4 0.465077 0.0206705 0.102114
1760 4 0.482347 0.0114028 0.148121
771 4 0.504209 0.0868672 0.123149
1759 2 0.473712 0.0160367 0.125118
837 4 0.0269003 0.176658 0.141631
449 4 0.181153 0.155944 0.0891868
450 4 0.209492 0.117632 0.104347
448 2 0.195323 0.136788 0.0967668
606 4 0.244878 0.153669 0.168172
758 4 0.261601 0.0817777 0.101115
26 1 0.278741 0.0881067 0.155612
604 2 0.250155 0.141658 0.146886
605 4 0.255431 0.129647 0.1256
757 2 0.252686 0.104644 0.105894
759 4 0.243772 0.127511 0.110672
691 2 0.322784 0.147268 0.143295
30 3 0.263011 0.104494 0.153987
721 2 0.287068 0.167771 0.0962951
27 3 0.292229 0.092324 0.173763
744 4 0.403554 0.0918411 0.166849
692 4 0.343146 0.141873 0.156765
1504 2 0.363089 0.114771 0.162406
1505 4 0.341899 0.122779 0.151821
22 3 0.451895 0.184961 0.0716846
253 2 0.491796 0.117083 0.127177
254 4 0.484664 0.093567 0.122559
2893 2 0.478767 0.165982 0.101742
255 4 0.498927 0.140599 0.131795
836 4 0.0764116 0.180951 0.136072
835 2 0.051656 0.178805 0.138852
461 4 0.0730096 0.235759 0.133107
460 2 0.0528462 0.247121 0.123646
622 2 0.11019 0.217798 0.149186
623 4 0.0875006 0.226668 0.143557
624 4 0.13288 0.208928 0.154814
506 4 0.152043 0.2106 0.152118
505 2 0.164534 0.191514 0.162358
507 4 0.177026 0.172428 0.172598
580 2 0.224547 0.240096 0.132462
292 2 0.185638 0.246124 0.0942324
581 4 0.236917 0.219921 0.140532
296 4 0.307065 0.238214 0.0951494
693 4 0.302421 0.152664 0.129824
723 4 0.295097 0.169202 0.119931
730 2 0.251647 0.196192 0.155706
731 4 0.247037 0.174045 0.166356
732 4 0.256258 0.218339 0.145056
376 2 0.402644 0.207584 0.107264
377 4 0.399431 0.196567 0.129478
629 4 0.392093 0.179491 0.134778
628 2 0.387173 0.189381 0.157209
23 3 0.428903 0.166318 0.0948457
2894 4 0.462123 0.179213 0.0885866
703 2 0.00267914 0.245987 0.092354
704 4 0.0126392 0.255948 0.113012
462 4 0.0326828 0.258484 0.114185
755 4 0.0528183 0.306551 0.146583
754 2 0.0394694 0.310742 0.167305
476 4 0.0684878 0.319365 0.144005
286 2 0.118446 0.321152 0.0848623
477 4 0.0986822 0.290638 0.116369
475 2 0.083585 0.305001 0.130187
288 4 0.116426 0.323902 0.109632
524 4 0.136327 0.325429 0.112271
523 2 0.15451 0.317481 0.127483
294 4 0.197451 0.261529 0.109991
582 4 0.212178 0.260272 0.124393
103 3 0.18819 0.279139 0.106181
101 1 0.202121 0.291948 0.119607
105 3 0.217968 0.278714 0.129219
102 3 0.189506 0.301856 0.136095
104 3 0.212273 0.308531 0.106943
525 4 0.172692 0.309533 0.142695
278 4 0.17179 0.327979 0.153173
902 4 0.29944 0.257159 0.0973226
901 2 0.285765 0.275192 0.107951
903 4 0.27209 0.293225 0.11858
307 2 0.499626 0.316981 0.0943174
416 4 0.147948 0.393889 0.10192
361 2 0.140201 0.390674 0.144911
363 4 0.14944 0.391341 0.121686
362 4 0.130962 0.390007 0.168135
415 2 0.163342 0.383774 0.0850125
1120 2 0.262723 0.38129 0.163233
1122 4 0.254357 0.386035 0.140153
1071 4 0.268029 0.38975 0.12591
1069 2 0.288885 0.401511 0.118705
1070 4 0.30974 0.413272 0.1115
609 4 0.318192 0.430971 0.117775
518 4 0.386412 0.372587 0.0816976
528 4 0.397821 0.372973 0.0989101
527 4 0.434902 0.406359 0.0955814
526 2 0.416361 0.389666 0.0972457
2538 4 0.427947 0.410331 0.148045
2536 2 0.421162 0.393196 0.164943
313 2 0.00741199 0.447294 0.156315
2770 2 0.0613795 0.446661 0.122764
314 4 0.0295145 0.443043 0.145425
2771 4 0.038115 0.451476 0.130559
2772 4 0.084644 0.441845 0.11497
766 2 0.147743 0.496064 0.0847102
768 4 0.124838 0.495423 0.0947165
2094 4 0.0941171 0.454336 0.127802
2092 2 0.110054 0.458977 0.146502
2093 4 0.12599 0.463618 0.165201
607 2 0.338719 0.437951 0.130228
741 4 0.397911 0.489693 0.165955
608 4 0.359247 0.444931 0.142681
740 4 0.363748 0.453494 0.161137
739 2 0.380829 0.471594 0.163546
1549 2 0.363614 0.490962 0.0965049
1551 4 0.343676 0.492618 0.111502
233 4 0.0061008 0.0308775 0.196253
380 4 0.0122153 0.0460039 0.184498
232 2 0.000633608 0.0433652 0.217214
1272 4 0.0824065 0.061362 0.258968
317 4 0.114436 0.0249402 0.19378
2848 2 0.116159 0.0463446 0.258278
2850 4 0.132382 0.0297481 0.267579
237 4 0.134166 0.0822388 0.236615
29 3 0.268451 0.0675164 0.158536
403 2 0.30086 0.0626389 0.216143
405 4 0.308772 0.039802 0.209736
431 4 0.448837 0.0139004 0.241321
1496 4 0.465059 0.00987788 0.251935
513 4 0.0606785 0.125704 0.252834
235 2 0.143542 0.0945914 0.217002
236 4 0.152919 0.106944 0.197389
579 4 0.149453 0.125337 0.191742
578 4 0.186122 0.157706 0.181334
577 2 0.167788 0.141521 0.186538
404 4 0.292948 0.0854758 0.222551
516 4 0.27734 0.097148 0.217659
514 2 0.277484 0.119075 0.229675
1506 4 0.384278 0.106762 0.172992
2574 4 0.402829 0.104416 0.180802
333 4 0.404028 0.159306 0.232594
632 4 0.406741 0.156799 0.252698
331 2 0.397129 0.174282 0.213797
699 4 0.437057 0.113336 0.235174
2572 2 0.418596 0.11168 0.198797
2573 4 0.434362 0.118944 0.216793
1219 2 0.0463495 0.247648 0.218679
1221 4 0.066446 0.232783 0.218096
459 4 0.0836885 0.222034 0.218374
457 2 0.0973712 0.233995 0.235547
458 4 0.111054 0.245957 0.252719
252 4 0.228495 0.231512 0.205779
285 4 0.221641 0.237942 0.224671
546 4 0.183703 0.203344 0.237938
250 2 0.252319 0.234912 0.198995
350 4 0.289516 0.236587 0.207829
349 2 0.3 0.225565 0.227672
351 4 0.310485 0.214543 0.247516
251 4 0.276144 0.238313 0.19221
630 4 0.382252 0.199271 0.17964
332 4 0.390231 0.189258 0.195001
1220 4 0.026253 0.262513 0.219261
394 2 0.018676 0.304255 0.227399
756 4 0.0261205 0.314932 0.188028
396 4 0.0203432 0.317928 0.206531
734 4 0.196076 0.346161 0.238155
366 4 0.214582 0.344188 0.243186
276 4 0.407502 0.316882 0.234133
275 4 0.435104 0.288205 0.20386
274 2 0.421303 0.302544 0.218997
496 2 0.477083 0.286834 0.186011
497 4 0.453362 0.287414 0.193896
291 4 0.122676 0.375968 0.180751
289 2 0.133693 0.381616 0.202474
290 4 0.144711 0.387265 0.224197
735 4 0.15297 0.370043 0.229654
277 2 0.176084 0.339968 0.17469
279 4 0.180378 0.351957 0.196208
733 2 0.174523 0.358102 0.233904
1121 4 0.271089 0.376546 0.186313
1575 4 0.328988 0.376616 0.227789
1573 2 0.34074 0.395555 0.239118
386 4 0.393449 0.332587 0.233776
611 4 0.348761 0.344464 0.259316
387 4 0.353941 0.360466 0.221026
385 2 0.373695 0.346526 0.227401
2537 4 0.414378 0.37606 0.181841
714 4 0.430148 0.370586 0.191802
712 2 0.428624 0.363812 0.215822
713 4 0.427099 0.357038 0.239843
2862 4 0.436835 0.36396 0.255712
728 4 0.137483 0.4539 0.179107
727 2 0.141478 0.461005 0.202745
729 4 0.145472 0.468111 0.226383
339 4 0.162691 0.478701 0.223087
626 4 0.25347 0.432482 0.220994
1788 4 0.247971 0.453024 0.222355
337 2 0.184464 0.483628 0.234349
338 4 0.206238 0.488555 0.24561
1862 4 0.230829 0.487405 0.168413
625 2 0.244653 0.424607 0.243027
1786 2 0.24571 0.463138 0.199601
1787 4 0.243448 0.473253 0.176846
1574 4 0.352493 0.414495 0.250448
303 4 0.416933 0.488609 0.170984
1867 2 0.130895 0.000115317 0.287593
2849 4 0.0999346 0.0629411 0.248976
1869 4 0.124447 0.0108361 0.265944
393 4 0.226557 0.0258543 0.332586
391 2 0.222619 0.00158983 0.328013
470 4 0.218487 0.0570599 0.300864
469 2 0.197252 0.0700618 0.298587
479 4 0.233373 0.0441305 0.301507
471 4 0.176016 0.0830637 0.29631
478 2 0.256276 0.0500693 0.293423
480 4 0.27918 0.0560082 0.28534
2642 4 0.299629 0.0571764 0.287428
2641 2 0.312538 0.0597973 0.308681
1516 2 0.405067 0.0553701 0.314843
1517 4 0.411241 0.0544216 0.290633
1495 2 0.478902 0.0214402 0.269251
1497 4 0.492746 0.0330025 0.286567
2483 4 0.0200601 0.0866555 0.303555
1270 2 0.0771725 0.0853458 0.254218
1271 4 0.0719385 0.10933 0.249469
511 2 0.0480079 0.129566 0.27404
512 4 0.0353372 0.133428 0.295247
2694 4 0.0279436 0.151062 0.297612
707 4 0.170577 0.0944113 0.310961
708 4 0.130485 0.124105 0.307551
706 2 0.150531 0.109258 0.309256
529 2 0.2095 0.146885 0.304392
531 4 0.211666 0.159411 0.282861
530 4 0.207334 0.13436 0.325924
651 4 0.226172 0.128917 0.331986
515 4 0.277627 0.141001 0.241691
2910 4 0.294658 0.138818 0.251985
2908 2 0.300789 0.142626 0.275924
2657 4 0.305478 0.141139 0.318719
2909 4 0.306921 0.146433 0.299863
2878 2 0.415007 0.14148 0.332779
631 2 0.405631 0.161822 0.277167
2879 4 0.413697 0.150289 0.309416
697 2 0.461132 0.110698 0.241389
633 4 0.404521 0.166844 0.301636
698 4 0.485206 0.10806 0.247603
2692 2 0.0180948 0.174039 0.298104
750 4 0.118054 0.264271 0.24657
545 4 0.203608 0.174585 0.273679
283 2 0.220498 0.24078 0.249487
544 2 0.193655 0.188965 0.255808
389 4 0.21395 0.224238 0.331038
388 2 0.222601 0.227845 0.307858
390 4 0.231252 0.231452 0.284678
284 4 0.219355 0.243618 0.274302
764 4 0.313995 0.209367 0.265468
510 4 0.328253 0.231015 0.311369
763 2 0.327002 0.211743 0.28669
765 4 0.340008 0.21412 0.307912
2591 4 0.492098 0.185029 0.27315
2590 2 0.499534 0.204432 0.287057
395 4 0.0170088 0.290582 0.248266
3573 4 0.00411401 0.28656 0.262639
748 2 0.130847 0.26859 0.267614
749 4 0.143639 0.272909 0.288659
618 4 0.157021 0.282976 0.30045
616 2 0.171349 0.303455 0.301128
364 2 0.225541 0.324789 0.254534
365 4 0.2365 0.30539 0.265881
617 4 0.185678 0.323935 0.301805
610 2 0.32626 0.335568 0.265621
612 4 0.303759 0.326672 0.271925
508 2 0.32579 0.252109 0.324566
344 4 0.252643 0.294371 0.27254
345 4 0.300879 0.307491 0.273903
343 2 0.276761 0.300931 0.273221
263 4 0.0308833 0.396948 0.271469
412 2 0.0365362 0.374608 0.310045
413 4 0.0344406 0.388301 0.289229
414 4 0.0386317 0.360916 0.330861
3670 2 0.146867 0.410487 0.314763
2655 4 0.163446 0.380547 0.319437
3671 4 0.169439 0.400752 0.319335
2653 2 0.172816 0.361198 0.30667
2654 4 0.182186 0.341849 0.293902
245 4 0.240924 0.380071 0.31769
244 2 0.235315 0.397943 0.301127
246 4 0.229706 0.415814 0.284564
644 4 0.301127 0.402137 0.315691
643 2 0.306599 0.420603 0.331635
3990 4 0.474135 0.398145 0.292966
2860 2 0.455186 0.378233 0.264917
2861 4 0.473536 0.392506 0.274122
262 2 0.0406169 0.41997 0.27212
264 4 0.0503504 0.442992 0.27277
1382 4 0.070682 0.439787 0.27546
1381 2 0.0901971 0.436578 0.290758
1383 4 0.109712 0.433369 0.306056
3672 4 0.124294 0.420221 0.310191
1452 4 0.121703 0.494203 0.324309
627 4 0.235837 0.416732 0.265059
1802 4 0.336393 0.424456 0.258865
1801 2 0.350091 0.43653 0.275946
1803 4 0.363789 0.448604 0.293026
542 4 0.365749 0.45926 0.310398
541 2 0.383756 0.450464 0.32535
3988 2 0.477193 0.422742 0.296261
3989 4 0.48025 0.447338 0.299556
3601 2 0.463818 0.48233 0.307984
3602 4 0.476993 0.461318 0.311169
165 3 0.0483714 0.0655973 0.404392
2643 4 0.325446 0.0624182 0.329934
600 4 0.336415 0.0696593 0.344552
1057 2 0.283182 0.0100784 0.40559
1518 4 0.398892 0.0563187 0.339054
599 4 0.386019 0.0660905 0.349793
598 2 0.361217 0.0678749 0.347173
1062 4 0.434446 0.0560621 0.393256
2516 4 0.429866 0.0732963 0.383332
2236 2 0.0843552 0.126209 0.408009
2238 4 0.10583 0.133952 0.397809
371 4 0.2263 0.128206 0.396318
650 4 0.214537 0.129801 0.380613
649 2 0.220355 0.129359 0.356299
370 2 0.240657 0.131811 0.416468
2656 2 0.320871 0.137117 0.338008
1031 4 0.333232 0.123608 0.374619
1030 2 0.335278 0.105858 0.39211
1032 4 0.337324 0.088108 0.409601
2658 4 0.336264 0.133096 0.357297
2880 4 0.416317 0.13267 0.356143
2517 4 0.412183 0.113506 0.359432
2515 2 0.421024 0.0934011 0.371382
3173 4 0.478235 0.105643 0.37358
3172 2 0.478118 0.130161 0.378484
3174 4 0.478001 0.154679 0.383387
341 4 0.117573 0.17752 0.393985
340 2 0.127538 0.184864 0.415709
2901 4 0.465848 0.165097 0.394116
2899 2 0.464871 0.18652 0.406974
711 4 0.123506 0.335778 0.403882
509 4 0.323327 0.273204 0.337763
717 4 0.322764 0.292611 0.34318
715 2 0.33707 0.299396 0.362531
716 4 0.351377 0.306181 0.381882
488 4 0.36467 0.318887 0.389225
487 2 0.378713 0.333897 0.40346
537 4 0.0317412 0.367779 0.349023
535 2 0.0485795 0.356664 0.363791
536 4 0.0654179 0.345548 0.37856
710 4 0.076929 0.350527 0.393216
709 2 0.100217 0.343153 0.398549
375 4 0.223931 0.399963 0.38155
118 3 0.390318 0.365996 0.407012
585 4 0.408167 0.415193 0.396881
119 3 0.404473 0.400919 0.411954
1953 4 0.426718 0.423266 0.397877
2138 4 0.0862569 0.426244 0.407224
1450 2 0.1237 0.477678 0.342967
1557 4 0.140073 0.487595 0.418505
569 4 0.0851084 0.445374 0.407681
1451 4 0.125697 0.461153 0.361624
570 4 0.107709 0.452144 0.363589
568 2 0.0964085 0.448759 0.385635
373 2 0.241163 0.409695 0.396831
645 4 0.312072 0.43907 0.34758
753 4 0.317381 0.480131 0.345074
435 4 0.330947 0.436029 0.353247
433 2 0.326923 0.445726 0.37594
434 4 0.322898 0.455422 0.398633
751 2 0.34095 0.485523 0.338704
615 4 0.338661 0.45875 0.409019
583 2 0.39841 0.42342 0.37538
584 4 0.388652 0.431647 0.353879
543 4 0.401763 0.441668 0.340302
1485 4 0.447645 0.445855 0.367608
1483 2 0.453837 0.470052 0.366454
161 1 0.0454488 0.0804275 0.421426
164 3 0.0519026 0.0707794 0.441518
1033 2 0.0109781 0.0810964 0.466985
1059 4 0.286512 0.0170743 0.429363
1152 4 0.273377 0.0249769 0.441959
1150 2 0.264488 0.0251729 0.465329
1151 4 0.255599 0.025369 0.488698
2241 4 0.361867 0.0372604 0.487272
683 4 0.381543 0.0416288 0.489196
682 2 0.387746 0.0437988 0.465072
684 4 0.393948 0.0459688 0.440947
1061 4 0.402962 0.0355948 0.42628
2239 2 0.338331 0.0294511 0.490476
1060 2 0.418704 0.0458284 0.409768
1968 4 0.494056 0.991029 0.500416
163 3 0.0579252 0.0995873 0.417471
2237 4 0.06288 0.118465 0.418209
1034 4 0.0196636 0.083775 0.443692
162 3 0.0232131 0.0861722 0.42274
472 2 0.226389 0.13675 0.471861
473 4 0.241701 0.141106 0.45258
474 4 0.211078 0.132394 0.491142
726 4 0.19521 0.125647 0.500347
372 4 0.255015 0.135417 0.436618
3159 4 0.343867 0.083112 0.427811
3157 2 0.342753 0.0963794 0.448975
3158 4 0.341639 0.109647 0.470139
2502 4 0.329635 0.121009 0.480469
2500 2 0.335037 0.144986 0.485058
2501 4 0.340439 0.168964 0.489647
937 2 0.00039621 0.159166 0.425987
938 4 0.0214752 0.163685 0.438654
2613 4 0.0247975 0.164002 0.459382
2611 2 0.0321603 0.185626 0.46955
2847 4 0.0267701 0.221569 0.473756
2612 4 0.0395232 0.20725 0.479718
342 4 0.137504 0.192209 0.437433
402 4 0.141584 0.202225 0.455152
825 4 0.100401 0.225645 0.465671
823 2 0.11205 0.245877 0.474622
369 4 0.0946319 0.215864 0.483048
400 2 0.16272 0.213697 0.448308
401 4 0.183856 0.225169 0.441463
1191 4 0.189158 0.243636 0.438519
641 4 0.334848 0.227506 0.48144
899 4 0.348768 0.226676 0.497131
2900 4 0.463894 0.207942 0.419831
312 4 0.454436 0.211216 0.436344
310 2 0.445008 0.233397 0.442999
311 4 0.43558 0.255578 0.449653
634 2 0.154821 0.320029 0.423604
824 4 0.123699 0.266109 0.483574
444 4 0.0997 0.324766 0.489726
1189 2 0.19227 0.260826 0.456407
635 4 0.178337 0.318461 0.431955
668 4 0.183553 0.328293 0.44905
1190 4 0.195382 0.278015 0.474296
667 2 0.207255 0.334889 0.453509
1394 4 0.199028 0.273594 0.493611
669 4 0.230957 0.341485 0.457968
872 4 0.311611 0.306167 0.487011
871 2 0.309798 0.321803 0.467584
640 2 0.331383 0.252208 0.479714
320 4 0.377137 0.309532 0.446597
321 4 0.348442 0.279998 0.474971
319 2 0.362789 0.294765 0.460784
642 4 0.327918 0.27691 0.477988
452 4 0.451095 0.263675 0.437145
453 4 0.441599 0.311273 0.449188
266 4 0.439017 0.329068 0.457764
451 2 0.446347 0.287474 0.443167
443 4 0.0655246 0.355632 0.470231
442 2 0.0826123 0.340199 0.479979
2139 4 0.100223 0.405665 0.450608
636 4 0.131306 0.321598 0.415252
2137 2 0.0932399 0.415954 0.428916
602 4 0.265656 0.406302 0.425071
873 4 0.307985 0.337439 0.448157
2924 4 0.314233 0.356149 0.443844
603 4 0.295473 0.412082 0.464798
601 2 0.280565 0.409192 0.444934
774 4 0.293768 0.407794 0.485121
772 2 0.278771 0.398738 0.502961
2925 4 0.35343 0.384949 0.432232
117 3 0.373 0.390491 0.429656
116 1 0.39352 0.383226 0.42222
489 4 0.392757 0.348907 0.417696
120 3 0.405716 0.375773 0.439951
2923 2 0.333832 0.370549 0.438038
267 4 0.406273 0.356746 0.432024
265 2 0.422645 0.342907 0.444894
1445 4 0.206001 0.5034 0.430767
1444 2 0.206956 0.4957 0.454536
1446 4 0.207911 0.487999 0.478305
326 4 0.204586 0.478037 0.494611
374 4 0.258395 0.419427 0.412112
1173 4 0.326429 0.433366 0.466816
1171 2 0.323328 0.435857 0.491501
613 2 0.338508 0.453434 0.433451
614 4 0.338355 0.448119 0.457882
2108 4 0.42176 0.464737 0.44998
1952 4 0.428982 0.448098 0.441224
1951 2 0.42785 0.435682 0.419551
2107 2 0.421228 0.486318 0.462595
943 2 0.140979 0.0353679 0.561543
944 4 0.135253 0.0120362 0.568473
945 4 0.146705 0.0586995 0.554613
1181 4 0.175848 0.0767564 0.5188
2314 2 0.234822 0.0282498 0.51594
2315 4 0.211352 0.0291434 0.524515
1182 4 0.191903 0.0297543 0.524609
1180 2 0.183875 0.0532553 0.521705
958 2 0.236904 0.0654411 0.578891
2316 4 0.258292 0.0273561 0.507366
2240 4 0.314796 0.0216418 0.493681
960 4 0.252543 0.0849209 0.579951
963 4 0.29859 0.0142678 0.502764
1143 4 0.396228 0.0313615 0.556947
1141 2 0.40442 0.0549827 0.557296
842 4 0.412765 0.0256925 0.545585
841 2 0.421479 0.0103885 0.527836
2507 4 0.486763 0.071944 0.527944
843 4 0.430193 0.995084 0.510087
725 4 0.163549 0.0877031 0.508002
9 3 0.103708 0.154225 0.513764
6 1 0.109603 0.162005 0.534815
7 3 0.0955538 0.152608 0.550419
917 4 0.103377 0.156035 0.568726
8 3 0.131434 0.155853 0.539707
348 4 0.143893 0.172237 0.53997
724 2 0.17938 0.106675 0.504175
1142 4 0.412611 0.078604 0.557645
576 4 0.432022 0.0760621 0.551129
574 2 0.452595 0.0812607 0.537905
575 4 0.473169 0.0864594 0.52468
3308 4 0.489975 0.134822 0.563622
3307 2 0.476163 0.14751 0.580158
2846 4 0.0345715 0.252093 0.512591
2845 2 0.0306708 0.236831 0.493173
10 3 0.107563 0.184675 0.535573
368 4 0.0942995 0.196111 0.528988
367 2 0.0944657 0.205988 0.506018
3460 2 0.139816 0.236114 0.580249
346 2 0.159382 0.190571 0.546977
409 2 0.202415 0.228389 0.552441
347 4 0.174872 0.208906 0.553983
411 4 0.185442 0.219412 0.568458
410 4 0.219388 0.237366 0.536425
1395 4 0.227067 0.240505 0.518503
900 4 0.35812 0.177616 0.494603
898 2 0.353444 0.202146 0.495867
3309 4 0.462352 0.160197 0.596695
261 4 0.0452636 0.268324 0.517638
259 2 0.0370703 0.29137 0.522826
260 4 0.028877 0.314417 0.528013
1640 4 0.0118912 0.324672 0.524612
696 4 0.107402 0.329275 0.507029
3461 4 0.162604 0.246293 0.578732
1393 2 0.213047 0.257049 0.506057
935 4 0.187803 0.328265 0.576738
813 4 0.314218 0.276381 0.546807
811 2 0.31341 0.291706 0.527067
812 4 0.312603 0.307031 0.507327
1136 4 0.0313861 0.393048 0.565597
1135 2 0.0462571 0.410133 0.555008
1041 4 0.0245206 0.379596 0.580251
1639 2 0.998442 0.337725 0.508062
1039 2 0.00870553 0.360662 0.584323
1641 4 0.984993 0.350779 0.491512
694 2 0.12381 0.344997 0.51746
695 4 0.140217 0.360719 0.52789
2244 4 0.13755 0.37887 0.520619
2242 2 0.135069 0.397933 0.536607
934 2 0.183267 0.352456 0.572339
936 4 0.17873 0.376648 0.567939
773 4 0.263774 0.389683 0.520801
889 2 0.382091 0.392129 0.52191
890 4 0.364327 0.390787 0.504365
891 4 0.399855 0.393471 0.539455
1239 4 0.398253 0.374666 0.546235
1237 2 0.404277 0.37303 0.570447
1137 4 0.0611282 0.427219 0.54442
540 4 0.0711644 0.443648 0.53678
3353 4 0.00265645 0.459955 0.525527
2243 4 0.132587 0.416996 0.552596
538 2 0.0944462 0.4364 0.542311
539 4 0.117728 0.429151 0.547843
325 2 0.202298 0.497489 0.510153
327 4 0.200009 0.516941 0.525695
1454 4 0.306191 0.489834 0.567188
1027 2 0.32469 0.427132 0.550139
1028 4 0.333144 0.42708 0.526608
1172 4 0.320226 0.438348 0.516186
882 4 0.31534 0.479812 0.552699
1453 2 0.283959 0.486552 0.578148
1029 4 0.316236 0.427183 0.57367
239 4 0.480273 0.467411 0.591239
238 2 0.495866 0.459403 0.573409
3179 4 0.986826 0.0327493 0.664907
1154 4 0.132387 0.074311 0.643548
1153 2 0.150449 0.0614374 0.632006
1155 4 0.168511 0.0485638 0.620464
1256 4 0.221732 0.0295572 0.589011
1255 2 0.201488 0.031865 0.603503
1257 4 0.181243 0.0341728 0.617995
959 4 0.221264 0.0459612 0.577831
1130 4 0.385132 0.0702839 0.618715
1004 4 0.391903 0.0515621 0.616403
1003 2 0.380625 0.0368355 0.63317
1005 4 0.369348 0.0221089 0.649937
966 4 0.363156 0.034204 0.665744
1162 2 0.476456 0.00907106 0.638349
954 4 0.467637 0.0874106 0.666622
1283 4 0.119808 0.089651 0.638261
1282 2 0.111662 0.0944306 0.661412
857 4 0.322695 0.15776 0.604166
1129 2 0.375685 0.0914171 0.609264
1131 4 0.366238 0.11255 0.599813
856 2 0.334995 0.13605 0.602568
858 4 0.347294 0.114339 0.60097
270 4 0.44848 0.172002 0.605714
269 4 0.455796 0.15712 0.652892
268 2 0.452138 0.164561 0.629303
1025 4 0.465402 0.140086 0.657686
1024 2 0.471484 0.118667 0.669063
916 2 0.103218 0.16333 0.592642
3462 4 0.117029 0.225935 0.581765
918 4 0.103059 0.170625 0.616557
1211 4 0.0836994 0.176829 0.620861
1210 2 0.0877658 0.193079 0.639423
2318 4 0.32007 0.158152 0.625032
2317 2 0.309468 0.180723 0.623207
2319 4 0.298866 0.203294 0.621381
950 4 0.28744 0.208499 0.63752
949 2 0.280855 0.23216 0.632832
1281 4 0.0469688 0.312353 0.64177
3420 4 0.0295251 0.306515 0.652109
1279 2 0.0693198 0.304285 0.633991
3418 2 0.00619885 0.307088 0.661094
3043 2 0.173012 0.289782 0.581725
3044 4 0.166453 0.266233 0.576472
1280 4 0.0916708 0.296216 0.626213
895 2 0.158564 0.31406 0.637622
896 4 0.138983 0.314512 0.653164
3045 4 0.17957 0.313331 0.586978
1084 2 0.212664 0.298976 0.623
1085 4 0.188402 0.296732 0.628615
897 4 0.178144 0.313609 0.622079
1086 4 0.236925 0.30122 0.617385
951 4 0.27427 0.255821 0.628144
977 4 0.288334 0.269014 0.632218
976 2 0.27289 0.287571 0.625713
978 4 0.257446 0.306127 0.619209
806 4 0.356103 0.315534 0.635871
805 2 0.37243 0.308907 0.65361
807 4 0.388758 0.30228 0.671349
1068 4 0.0978874 0.3683 0.67329
1206 4 0.309281 0.416249 0.630747
1139 4 0.301397 0.412385 0.648308
1138 2 0.306389 0.392189 0.662178
804 4 0.414715 0.364169 0.61202
1238 4 0.410301 0.371393 0.594658
802 2 0.421155 0.363109 0.636156
803 4 0.427596 0.362049 0.660293
1982 4 0.104044 0.50114 0.596663
2130 4 0.133457 0.46406 0.632098
1983 4 0.116849 0.45899 0.62033
1981 2 0.110446 0.480065 0.608497
2128 2 0.151213 0.457561 0.648458
2129 4 0.168969 0.451062 0.664818
1205 4 0.32834 0.433899 0.588016
1455 4 0.261727 0.483269 0.589109
1204 2 0.318811 0.425074 0.609381
2436 4 0.255768 0.503363 0.586474
948 4 0.0732102 0.0693399 0.741703
3131 4 0.0280081 0.00728061 0.74642
3084 4 0.085128 0.0137539 0.735818
3082 2 0.060834 0.0186981 0.739063
1284 4 0.103517 0.0992102 0.684564
965 4 0.34425 0.99275 0.686357
964 2 0.353703 0.0134772 0.67605
887 4 0.469664 0.0250174 0.736739
953 4 0.448647 0.0445449 0.684018
952 2 0.458142 0.0659778 0.67532
888 4 0.439161 0.0424882 0.701172
886 2 0.454412 0.0337528 0.718955
832 2 0.0633788 0.107117 0.684758
833 4 0.0412237 0.114978 0.676241
1178 4 0.0364346 0.134683 0.675712
1177 2 0.0117374 0.135072 0.671829
834 4 0.0855338 0.0992566 0.693276
2255 4 0.244048 0.115841 0.738308
1026 4 0.477565 0.0972485 0.68044
151 1 0.0116192 0.231332 0.725029
153 3 0.0260241 0.213145 0.724709
152 3 0.00955578 0.238804 0.746687
154 3 0.990694 0.225002 0.717252
155 3 0.0199789 0.248095 0.712076
1212 4 0.0918322 0.209329 0.657986
1259 4 0.0971514 0.218212 0.674735
1258 2 0.109003 0.233032 0.691016
3400 2 0.508592 0.202388 0.700088
3401 4 0.506753 0.177601 0.702806
1298 4 0.139427 0.300641 0.667447
1260 4 0.120854 0.247853 0.707297
1299 4 0.133405 0.263249 0.700101
1297 2 0.136416 0.281945 0.683774
791 4 0.399555 0.285917 0.665457
790 2 0.402473 0.270861 0.685205
1019 4 0.361568 0.328938 0.707728
792 4 0.405391 0.255806 0.704954
1016 4 0.343384 0.318717 0.705933
883 2 0.0275123 0.376307 0.707517
885 4 0.0518879 0.37316 0.702923
884 4 0.00313678 0.379455 0.712111
1067 4 0.0584275 0.353653 0.700292
1066 2 0.0781575 0.360976 0.686791
992 4 0.164007 0.361869 0.670509
991 2 0.139129 0.359501 0.671292
993 4 0.11425 0.357133 0.672075
941 4 0.169355 0.417493 0.705704
1098 4 0.174171 0.403247 0.692997
1097 4 0.201376 0.363007 0.704884
1096 2 0.187773 0.383127 0.69894
1278 4 0.21894 0.355587 0.702948
1276 2 0.243251 0.361412 0.703455
1140 4 0.311382 0.371993 0.676048
1277 4 0.267561 0.367236 0.703962
796 2 0.293039 0.385344 0.715507
797 4 0.277514 0.382151 0.696169
1017 4 0.316224 0.354825 0.684504
798 4 0.308563 0.388537 0.734846
1044 4 0.316808 0.376409 0.748839
1015 2 0.329804 0.336771 0.695219
1018 2 0.376163 0.336655 0.726507
85 3 0.344315 0.39917 0.741522
83 3 0.326457 0.430302 0.752905
1020 4 0.390758 0.344371 0.745285
998 4 0.442974 0.354023 0.670786
997 2 0.466559 0.352993 0.679024
999 4 0.490144 0.351964 0.687263
3465 4 0.492583 0.364046 0.703791
942 4 0.185663 0.453594 0.675183
940 2 0.177509 0.435544 0.690444
81 1 0.345819 0.421822 0.743334
84 3 0.34908 0.431241 0.72238
3181 2 0.417478 0.499525 0.693654
3183 4 0.417485 0.487062 0.71533
3083 4 0.0365399 0.0236423 0.742309
947 4 0.113111 0.086908 0.766198
851 4 0.132377 0.0801578 0.767713
3591 4 0.130299 0.0113598 0.789634
946 2 0.0931606 0.078124 0.75395
907 2 0.173953 0.00263256 0.813042
2320 2 0.328116 0.00437065 0.764378
1038 4 0.318843 0.0256296 0.819551
2322 4 0.341521 0.0247246 0.758791
819 4 0.358348 0.0223346 0.768146
817 2 0.382391 0.0154736 0.767932
818 4 0.406434 0.00861253 0.767719
845 4 0.423132 0.0125402 0.777579
844 2 0.432237 0.0235025 0.798125
846 4 0.441341 0.0344648 0.81867
850 2 0.135571 0.0991093 0.783707
33 3 0.111708 0.164821 0.809174
31 1 0.129362 0.14979 0.810054
32 3 0.12233 0.12956 0.801662
34 3 0.136162 0.146836 0.832041
852 4 0.138765 0.118061 0.799702
35 3 0.146746 0.157479 0.797511
1023 4 0.163414 0.147192 0.788454
2254 2 0.231894 0.136339 0.745879
2256 4 0.219741 0.156836 0.75345
1022 4 0.199586 0.157281 0.755431
1021 2 0.1815 0.152237 0.771943
1192 2 0.480283 0.156421 0.839186
924 4 0.0210735 0.225488 0.757864
922 2 0.0386964 0.21082 0.767838
923 4 0.0563193 0.196153 0.777813
870 4 0.0727902 0.195535 0.766567
869 4 0.107133 0.167758 0.790014
868 2 0.0899615 0.181646 0.77829
1092 4 0.237021 0.221682 0.804445
1090 2 0.248209 0.202903 0.816586
839 4 0.243874 0.235141 0.817884
1193 4 0.489047 0.178619 0.831729
1010 4 0.495962 0.1803 0.813328
838 2 0.227522 0.25394 0.819973
1209 4 0.207033 0.287848 0.835644
1207 2 0.197531 0.307746 0.823857
1208 4 0.188028 0.327645 0.81207
3328 2 0.291139 0.33306 0.809293
3329 4 0.288933 0.313029 0.824093
801 4 0.272511 0.302445 0.825173
1170 4 0.0184486 0.416829 0.826665
1289 4 0.171592 0.391057 0.81538
1224 4 0.154949 0.391406 0.825766
1290 4 0.188133 0.345541 0.802915
1288 2 0.179863 0.368299 0.809148
1063 2 0.213656 0.400622 0.774457
1064 4 0.238246 0.396976 0.777143
57 3 0.237821 0.380587 0.786276
3330 4 0.293346 0.353092 0.794492
58 3 0.241595 0.37011 0.822174
1043 4 0.291705 0.372543 0.791915
1042 2 0.304257 0.374476 0.770377
60 3 0.264654 0.39586 0.807244
56 1 0.253029 0.37672 0.803096
59 3 0.267561 0.359934 0.796355
821 4 0.255668 0.400897 0.823531
989 4 0.244005 0.387221 0.833572
187 3 0.390648 0.358973 0.758721