ITEM: TIMESTEP
1240000
ITEM: NUMBER OF ATOMS
4590
ITEM: BOX BOUNDS pp pp pp
-9.9985700000000008e+00 9.9985700000000008e+00
-9.9985700000000008e+00 9.9985700000000008e+00
-9.9985700000000008e+00 9.9985700000000008e+00
ITEM: ATOMS id type xs ys zs
1667 4 0.0339788 0.0760623 0.0308183
1666 2 0.0466252 0.0643306 0.0489185
784 2 0.0199758 0.0272037 0.0180863
785 4 0.0167757 0.0410274 0.0386738
3291 4 0.00898601 0.0474401 0.0543984
1668 4 0.0592715 0.0525989 0.0670187
3289 2 0.999672 0.0292957 0.0688622
3232 2 0.00677533 0.0917327 0.00148157
702 4 0.0752925 0.0407539 0.0671122
700 2 0.0993992 0.0430336 0.0733452
566 4 0.252137 0.0700016 0.0630934
484 2 0.232579 0.0409452 0.0833326
485 4 0.237668 0.0638291 0.0746373
1964 4 0.233112 0.00992895 0.000345942
1842 4 0.229532 0.999823 0.0861903
490 2 0.304345 0.0714395 0.0146337
1540 2 0.311483 0.991917 0.0149853
1541 4 0.312563 0.994357 0.0398462
1323 4 0.323512 0.00573011 0.0537004
492 4 0.293771 0.0504909 0.00600177
1760 4 0.394549 0.0353961 0.0609686
1448 4 0.397604 0.0204159 0.0758267
1759 2 0.409854 0.0292994 0.0421599
1607 4 0.459253 0.0726996 0.0515075
1109 4 0.440462 0.0119367 0.0244083
1761 4 0.425159 0.0232026 0.0233512
1108 2 0.453272 0.0165131 0.00342849
3234 4 0.0250714 0.0895584 0.0183844
565 2 0.252998 0.0948161 0.066039
355 2 0.240155 0.149099 0.0621798
356 4 0.238176 0.129403 0.0774548
567 4 0.25386 0.119631 0.0689846
491 4 0.31492 0.0923881 0.0232655
557 4 0.313808 0.110104 0.0142372
556 2 0.329652 0.129421 0.0132308
665 4 0.363814 0.142365 0.0121709
558 4 0.345496 0.148737 0.0122244
664 2 0.38143 0.155401 0.0242084
666 4 0.399047 0.168437 0.0362459
1606 2 0.446846 0.0899477 0.0646893
2792 4 0.415571 0.15938 0.0284181
746 4 0.439282 0.124964 0.0873141
1608 4 0.434439 0.107196 0.0778711
573 4 0.237197 0.181877 0.0332617
571 2 0.222207 0.191554 0.015745
357 4 0.242135 0.168795 0.0469048
572 4 0.207216 0.20123 0.998228
352 2 0.283692 0.199545 0.0160557
354 4 0.278392 0.207035 0.0393149
297 4 0.270343 0.223493 0.051239
295 2 0.29052 0.223151 0.0660019
253 2 0.413583 0.232072 0.0639464
2791 2 0.42615 0.179389 0.0390443
2793 4 0.43673 0.199397 0.0496705
254 4 0.42322 0.244496 0.0445058
2893 2 0.460175 0.223108 0.0306517
2894 4 0.482497 0.213327 0.0250609
2895 4 0.437853 0.232889 0.0362424
2639 4 0.492641 0.214144 0.0419845
456 4 0.117584 0.312035 0.0314221
455 4 0.140387 0.283577 0.0656403
454 2 0.128986 0.297806 0.0485312
287 4 0.159502 0.29221 0.0704657
294 4 0.128702 0.319405 0.0168057
292 2 0.145563 0.327866 0.000395346
286 2 0.180159 0.306273 0.0696383
288 4 0.200816 0.320336 0.0688108
252 4 0.218895 0.330929 0.0683168
1071 4 0.373221 0.316687 0.0461735
1069 2 0.377547 0.324678 0.0228792
324 4 0.388168 0.310836 0.0625173
13 3 0.370579 0.322681 0.0671464
322 2 0.412713 0.307619 0.0660398
323 4 0.437257 0.304402 0.0695622
671 4 0.443515 0.318358 0.0558712
330 4 0.042811 0.412586 0.0573203
328 2 0.0181141 0.40873 0.0567088
550 2 0.0732741 0.413664 0.0503153
552 4 0.095884 0.410975 0.060647
250 2 0.235849 0.344375 0.0557905
251 4 0.252804 0.357822 0.0432642
483 4 0.257704 0.374998 0.0505575
902 4 0.292171 0.389141 0.0002804
481 2 0.276195 0.382244 0.0353672
482 4 0.294686 0.389491 0.0201769
957 4 0.370747 0.348369 0.00510169
670 2 0.462127 0.335035 0.0550579
672 4 0.480739 0.351712 0.0542446
551 4 0.0506643 0.416353 0.0399836
2984 4 0.00991235 0.481123 0.997165
313 2 0.0248902 0.473711 0.071737
315 4 0.00131439 0.471736 0.0636459
1620 4 0.109545 0.495963 0.00489219
241 2 0.218958 0.501883 0.00174177
493 2 0.384184 0.424677 0.00892079
494 4 0.379725 0.440698 0.0275925
525 4 0.377093 0.458677 0.0358294
523 2 0.368321 0.452906 0.0585214
524 4 0.359549 0.447135 0.0812134
381 4 0.046079 0.021243 0.144693
1422 4 0.037089 0.00441507 0.150923
379 2 0.0408163 0.0346785 0.124273
590 4 0.0325155 0.0622334 0.117339
380 4 0.0355536 0.048114 0.103853
701 4 0.123506 0.0453133 0.0795782
450 4 0.121166 0.0553974 0.0966753
448 2 0.132193 0.0613771 0.118304
449 4 0.143221 0.0673568 0.139934
486 4 0.22749 0.0180612 0.0920278
652 2 0.334535 0.0356106 0.139668
653 4 0.313651 0.0414968 0.127242
654 4 0.355418 0.0297244 0.152094
1447 2 0.404128 0.00746289 0.0961942
1784 4 0.426127 0.000537536 0.128657
589 2 0.0265608 0.0865161 0.117072
2758 2 0.0440496 0.137762 0.124308
2760 4 0.0325739 0.123301 0.107445
2759 4 0.0555252 0.152223 0.141171
738 4 0.0731968 0.14742 0.146693
591 4 0.0206061 0.110799 0.116804
736 2 0.0962191 0.153782 0.139298
578 4 0.142398 0.0853802 0.132084
577 2 0.149268 0.105768 0.144824
737 4 0.119241 0.160144 0.131904
579 4 0.156138 0.126156 0.157565
582 4 0.337382 0.162064 0.0774441
745 2 0.4551 0.129645 0.106103
747 4 0.470919 0.134327 0.124893
771 4 0.480834 0.113636 0.127364
25 3 0.476354 0.127038 0.144156
705 4 0.00424001 0.175256 0.121654
507 4 0.11538 0.17998 0.133708
505 2 0.133615 0.193474 0.123194
506 4 0.151851 0.206969 0.112679
755 4 0.155239 0.210899 0.0928164
754 2 0.179402 0.216812 0.095335
756 4 0.203566 0.222726 0.0978536
462 4 0.214633 0.237225 0.103499
460 2 0.229844 0.239796 0.123176
461 4 0.245054 0.242368 0.142854
296 4 0.310697 0.22281 0.0807648
581 4 0.312643 0.20408 0.0885506
580 2 0.325013 0.183072 0.0829974
255 4 0.403946 0.219647 0.083387
518 4 0.397541 0.206394 0.0983242
517 2 0.389387 0.224311 0.11374
519 4 0.381232 0.242229 0.129155
2806 2 0.0130448 0.315853 0.103364
2807 4 0.0308915 0.323226 0.119249
477 4 0.0476174 0.318399 0.108111
475 2 0.0704439 0.316241 0.118084
648 4 0.0520307 0.328531 0.17912
476 4 0.0932704 0.314082 0.128058
362 4 0.11244 0.310685 0.126775
361 2 0.126644 0.30099 0.144926
609 4 0.226376 0.310224 0.131713
607 2 0.241766 0.326932 0.142162
623 4 0.262985 0.249562 0.137603
622 2 0.281028 0.266517 0.134117
624 4 0.299072 0.283472 0.130631
740 4 0.296626 0.288138 0.11019
739 2 0.312243 0.3058 0.101864
741 4 0.32786 0.323463 0.0935389
308 4 0.353834 0.276142 0.170361
309 4 0.38325 0.262285 0.132368
307 2 0.368542 0.269214 0.151364
14 3 0.361832 0.323707 0.104117
2841 4 0.436735 0.299672 0.116356
2839 2 0.448374 0.284087 0.132066
527 4 0.456928 0.248921 0.14848
2840 4 0.460014 0.268502 0.147776
417 4 0.0593351 0.410252 0.108177
415 2 0.0712691 0.411349 0.130121
416 4 0.0832031 0.412446 0.152065
608 4 0.257155 0.343641 0.15261
387 4 0.335989 0.405374 0.142669
612 4 0.259962 0.360879 0.161938
15 3 0.336436 0.333984 0.0782884
11 1 0.358598 0.333918 0.0835339
12 3 0.366166 0.355609 0.0847226
385 2 0.347106 0.400288 0.16448
245 4 0.326634 0.409887 0.125298
2652 4 0.448448 0.389258 0.149537
596 4 0.432605 0.399529 0.146588
2650 2 0.464029 0.375065 0.16299
1710 4 0.0608695 0.490245 0.0875349
1788 4 0.135397 0.485384 0.146164
1786 2 0.126858 0.490434 0.123212
290 4 0.142533 0.46759 0.150824
289 2 0.162384 0.452921 0.154816
1708 2 0.083901 0.499815 0.0893042
291 4 0.182235 0.438252 0.158809
627 4 0.201903 0.438924 0.155376
625 2 0.222284 0.451857 0.161896
626 4 0.242666 0.46479 0.168417
246 4 0.342964 0.443191 0.0917585
244 2 0.334799 0.426539 0.108528
659 4 0.390368 0.454877 0.137851
658 2 0.397791 0.474968 0.124952
660 4 0.405214 0.49506 0.112052
597 4 0.405186 0.440989 0.141105
595 2 0.418896 0.420259 0.143846
3801 4 0.503128 0.478063 0.155401
1402 2 0.0230001 0.0317029 0.249577
1404 4 0.0394028 0.0346452 0.230936
1504 2 0.276319 0.00518255 0.212463
1505 4 0.276495 0.0261205 0.198797
692 4 0.260364 0.0300352 0.188103
691 2 0.257106 0.0541995 0.182567
693 4 0.253848 0.0783639 0.177031
27 3 0.292933 0.0454473 0.236755
1476 4 0.354154 0.0373135 0.171491
1474 2 0.36763 0.0215264 0.185431
1475 4 0.381107 0.00573927 0.199371
236 4 0.154792 0.133377 0.17651
428 4 0.149637 0.084619 0.23309
723 4 0.240864 0.094003 0.175278
235 2 0.176163 0.134358 0.189451
237 4 0.197535 0.135339 0.202392
722 4 0.206934 0.117918 0.203162
721 2 0.223899 0.105961 0.18922
606 4 0.256877 0.147273 0.243699
759 4 0.403913 0.153119 0.19477
23 3 0.474235 0.104505 0.174246
757 2 0.418341 0.13451 0.186359
758 4 0.432768 0.115901 0.177948
24 3 0.44404 0.124856 0.163358
22 3 0.474027 0.141867 0.178326
21 1 0.467193 0.12452 0.164853
512 4 0.106964 0.180543 0.236308
393 4 0.111253 0.200154 0.229546
391 2 0.131885 0.213729 0.233448
392 4 0.152517 0.227304 0.23735
395 4 0.107678 0.23539 0.186325
546 4 0.149267 0.228765 0.255563
278 4 0.188208 0.200808 0.169606
732 4 0.229108 0.197805 0.222169
277 2 0.206923 0.200089 0.18617
279 4 0.225639 0.199371 0.202735
730 2 0.245663 0.181716 0.231775
763 2 0.319154 0.242929 0.249378
765 4 0.309353 0.222668 0.26027
731 4 0.262218 0.165628 0.241382
498 4 0.341163 0.260843 0.17486
629 4 0.418146 0.16457 0.186962
628 2 0.416363 0.189264 0.183465
630 4 0.414579 0.213957 0.179969
377 4 0.412901 0.223218 0.197433
520 2 0.46215 0.214138 0.222607
521 4 0.445142 0.222669 0.206386
528 4 0.457697 0.224092 0.191881
526 2 0.457312 0.236506 0.17018
522 4 0.479159 0.205607 0.238828
646 2 0.0574573 0.304161 0.180475
647 4 0.062884 0.279791 0.181831
396 4 0.0730064 0.27021 0.195605
735 4 0.0731832 0.28111 0.244016
394 2 0.0903423 0.2528 0.190965
733 2 0.092036 0.297521 0.243343
363 4 0.140848 0.291296 0.163076
339 4 0.12928 0.299977 0.177611
337 2 0.135226 0.291391 0.200329
734 4 0.110889 0.313931 0.242669
338 4 0.141171 0.282805 0.223047
299 4 0.100899 0.327459 0.233826
764 4 0.328956 0.263189 0.238487
497 4 0.340722 0.269368 0.224133
344 4 0.320755 0.322766 0.236662
376 2 0.417021 0.243028 0.212122
496 2 0.340943 0.265106 0.199497
378 4 0.421142 0.262838 0.226811
620 4 0.0437693 0.337693 0.195418
619 2 0.020203 0.344599 0.20012
537 4 0.0777696 0.417471 0.171586
298 2 0.0911295 0.348123 0.22369
300 4 0.0813598 0.368787 0.213555
602 4 0.20845 0.405104 0.251017
343 2 0.314473 0.341768 0.221673
345 4 0.308191 0.36077 0.206685
611 4 0.294823 0.35107 0.196423
610 2 0.277393 0.355974 0.17918
386 4 0.358222 0.395202 0.186292
644 4 0.376296 0.398585 0.194614
643 2 0.37023 0.395844 0.218715
645 4 0.364165 0.393102 0.242816
2651 4 0.479611 0.360873 0.176442
2536 2 0.490335 0.356616 0.217084
2538 4 0.485126 0.350808 0.193329
2619 4 0.992785 0.48248 0.174055
2617 2 0.00534862 0.495207 0.191529
414 4 0.128269 0.493743 0.242193
536 4 0.122654 0.438667 0.177656
535 2 0.100212 0.428069 0.174621
1774 2 0.129072 0.469924 0.207347
1775 4 0.129794 0.450662 0.191422
1776 4 0.12835 0.489187 0.223273
601 2 0.202404 0.428289 0.243871
603 4 0.196357 0.451474 0.236724
768 4 0.239543 0.468393 0.187518
1574 4 0.307513 0.423208 0.188578
766 2 0.247558 0.491913 0.190304
1573 2 0.313243 0.427362 0.212559
1657 2 0.334696 0.491982 0.199212
1659 4 0.334553 0.479116 0.220651
1575 4 0.318972 0.431516 0.23654
230 4 0.3635 0.454067 0.218292
229 2 0.385277 0.465971 0.221332
231 4 0.407053 0.477875 0.224372
713 4 0.423241 0.466091 0.221793
1568 4 0.503919 0.469629 0.21922
2862 4 0.489563 0.472752 0.231636
1567 2 0.498754 0.476869 0.195852
1569 4 0.493589 0.484109 0.172483
712 2 0.435637 0.4626 0.243225
1403 4 0.00659735 0.0287606 0.268217
398 4 0.120771 0.00358079 0.326194
1478 4 0.115733 0.013118 0.310119
1477 2 0.128742 0.0329495 0.302203
429 4 0.141006 0.0669321 0.279062
1479 4 0.14175 0.052781 0.294287
427 2 0.145322 0.0757755 0.256076
30 3 0.280461 0.0162095 0.256313
28 3 0.314556 0.0304354 0.263583
26 1 0.292732 0.0353622 0.257428
29 3 0.283268 0.0499446 0.272797
248 4 0.279412 0.0452682 0.292312
247 2 0.270729 0.0532593 0.314355
1748 4 0.391681 0.0331665 0.294009
1747 2 0.383434 0.0231474 0.315382
1749 4 0.375187 0.0131284 0.336754
743 4 0.412108 0.0326015 0.290489
742 2 0.428785 0.050177 0.296666
744 4 0.445462 0.0677524 0.302843
529 2 0.0399685 0.163946 0.2901
530 4 0.0287356 0.149367 0.307025
458 4 0.0142333 0.158282 0.317306
457 2 0.010739 0.136183 0.328469
2849 4 0.138721 0.170026 0.314231
404 4 0.260406 0.142652 0.313314
605 4 0.259274 0.140924 0.293244
604 2 0.258075 0.144098 0.268471
633 4 0.326208 0.154506 0.285072
631 2 0.347762 0.145245 0.276422
632 4 0.369317 0.135983 0.267773
698 4 0.3867 0.145917 0.264311
697 2 0.407215 0.152223 0.277138
699 4 0.427731 0.158529 0.289964
531 4 0.0512015 0.178525 0.273175
513 4 0.0606088 0.180198 0.255065
2797 2 0.0326206 0.225063 0.267008
2654 4 0.0729607 0.231653 0.272073
2653 2 0.0837058 0.22154 0.292259
2799 4 0.0534524 0.23335 0.278077
511 2 0.0837864 0.180371 0.245687
2655 4 0.0944508 0.211427 0.312444
2850 4 0.0957964 0.194561 0.321729
2848 2 0.117259 0.182294 0.31798
389 4 0.120135 0.248661 0.323604
708 4 0.296126 0.215371 0.273938
707 4 0.320038 0.173529 0.287288
706 2 0.308082 0.19445 0.280613
332 4 0.415878 0.211053 0.3207
351 4 0.41347 0.228554 0.331819
311 4 0.483065 0.24377 0.312991
333 4 0.437958 0.175127 0.29382
420 4 0.471985 0.204022 0.257458
418 2 0.477289 0.215155 0.279209
419 4 0.482594 0.226287 0.30096
331 2 0.426918 0.19309 0.30726
2694 4 0.0550549 0.286233 0.250823
2692 2 0.0428504 0.285976 0.272644
2693 4 0.030646 0.28572 0.294465
2718 4 0.0140702 0.27592 0.301618
544 2 0.162135 0.248704 0.263439
750 4 0.117652 0.260257 0.308504
748 2 0.122144 0.281061 0.295382
749 4 0.126636 0.301865 0.28226
618 4 0.124728 0.315523 0.267649
545 4 0.175004 0.268643 0.271315
284 4 0.226848 0.287979 0.284161
285 4 0.177495 0.280205 0.286285
283 2 0.202172 0.284092 0.285223
509 4 0.289068 0.306704 0.304365
435 4 0.27916 0.321569 0.293539
508 2 0.296517 0.310142 0.327984
276 4 0.40448 0.328917 0.284388
614 4 0.417811 0.31742 0.294099
613 2 0.430951 0.302962 0.309703
615 4 0.444091 0.288504 0.325307
2802 4 0.0238027 0.339154 0.32169
2463 4 0.00564558 0.334505 0.31455
366 4 0.112782 0.408395 0.302612
616 2 0.13019 0.33987 0.269259
364 2 0.124199 0.395569 0.284437
365 4 0.135615 0.382743 0.266262
617 4 0.135652 0.364217 0.270869
729 4 0.225396 0.359948 0.278215
728 4 0.199136 0.401359 0.268405
727 2 0.212266 0.380653 0.27331
434 4 0.239448 0.347102 0.277053
433 2 0.259304 0.334335 0.285296
542 4 0.35042 0.396682 0.256498
274 2 0.385469 0.335647 0.299169
541 2 0.365017 0.401122 0.276308
543 4 0.379613 0.405562 0.296117
275 4 0.366458 0.342376 0.31395
110 3 0.482433 0.388172 0.262287
3958 2 0.0160743 0.49789 0.246971
3959 4 0.0017944 0.493767 0.267077
504 4 0.159811 0.500928 0.319919
502 2 0.179841 0.48868 0.311321
437 4 0.217051 0.482715 0.312807
503 4 0.199872 0.476431 0.302722
436 2 0.237982 0.494755 0.319297
1437 4 0.315937 0.491881 0.322172
446 4 0.3888 0.42384 0.292712
445 2 0.39905 0.429869 0.314706
3 3 0.357593 0.471863 0.33138
1472 4 0.461449 0.455172 0.27836
1471 2 0.461472 0.464433 0.301585
714 4 0.448033 0.459109 0.264657
1473 4 0.461494 0.473694 0.324811
2430 4 0.243071 0.0124016 0.385336
600 4 0.23034 0.0717797 0.399744
2428 2 0.235273 0.0361473 0.384626
2429 4 0.227474 0.0598931 0.383915
249 4 0.262047 0.0612505 0.336399
1701 4 0.311905 0.0396974 0.379102
1700 4 0.272596 0.0529608 0.351182
1699 2 0.29225 0.0463291 0.365142
340 2 0.0383692 0.120725 0.386024
341 4 0.0189776 0.113888 0.40025
342 4 0.0577609 0.127563 0.371797
686 4 0.0707083 0.142921 0.37211
367 2 0.146407 0.160389 0.38114
369 4 0.149319 0.138554 0.392971
598 2 0.220767 0.093504 0.407592
599 4 0.211194 0.115228 0.41544
403 2 0.272231 0.134184 0.333652
405 4 0.284057 0.125716 0.353991
468 4 0.287376 0.131514 0.373895
466 2 0.308162 0.133647 0.387627
467 4 0.328949 0.13578 0.401359
684 4 0.335116 0.142525 0.4205
514 2 0.399004 0.150184 0.360088
516 4 0.378726 0.145834 0.346122
515 4 0.419282 0.154534 0.374054
480 4 0.416538 0.145082 0.390932
478 2 0.431081 0.130432 0.405042
687 4 0.0782358 0.187609 0.393253
685 2 0.074472 0.165265 0.382682
470 4 0.0689929 0.206546 0.392544
388 2 0.142257 0.247728 0.335218
368 4 0.143495 0.182223 0.369309
390 4 0.16438 0.246795 0.346833
473 4 0.247033 0.206793 0.352715
474 4 0.240488 0.236785 0.39219
472 2 0.24376 0.221789 0.372452
651 4 0.252027 0.164855 0.410296
715 2 0.308343 0.205918 0.39877
717 4 0.304204 0.206991 0.374135
349 2 0.405477 0.229488 0.355492
350 4 0.397484 0.230422 0.379165
762 4 0.50197 0.190796 0.349041
452 4 0.437792 0.208121 0.395944
2516 4 0.485428 0.192849 0.358006
2515 2 0.466525 0.204521 0.369479
2517 4 0.447622 0.216192 0.380953
451 2 0.436977 0.221453 0.417081
2800 2 0.037133 0.327109 0.33908
2801 4 0.0504634 0.315064 0.356469
443 4 0.0695026 0.309437 0.35948
442 2 0.0772805 0.299626 0.381123
444 4 0.0850583 0.289816 0.402767
260 4 0.0878675 0.270035 0.405121
371 4 0.181054 0.252367 0.355387
370 2 0.182227 0.256438 0.380029
372 4 0.183399 0.260509 0.404671
401 4 0.174935 0.27402 0.415889
636 4 0.319751 0.324855 0.357564
510 4 0.303967 0.313579 0.351604
2924 4 0.456927 0.299214 0.335704
2923 2 0.473647 0.312023 0.349177
2925 4 0.490368 0.324832 0.36265
676 2 0.0924937 0.413297 0.34915
678 4 0.115094 0.403787 0.354043
326 4 0.149151 0.405633 0.401321
375 4 0.132622 0.394083 0.35078
373 2 0.146828 0.4038 0.368917
374 4 0.161034 0.413518 0.387054
634 2 0.322246 0.336172 0.379719
635 4 0.32474 0.347489 0.401875
669 4 0.366049 0.39387 0.418457
120 3 0.479913 0.372535 0.352261
680 4 0.0537336 0.489043 0.3358
679 2 0.0568338 0.464325 0.337944
681 4 0.0599339 0.439608 0.340089
677 4 0.0698931 0.422807 0.344257
5 3 0.325782 0.490384 0.339295
1555 2 0.317183 0.490533 0.390344
1557 4 0.292905 0.491638 0.384463
1556 4 0.34146 0.489429 0.396224
4 3 0.351165 0.484789 0.366536
560 4 0.40864 0.482846 0.403181
447 4 0.4093 0.435897 0.336701
593 4 0.354587 0.480208 0.38575
1 1 0.348033 0.488889 0.343914
752 4 0.417433 0.433508 0.355167
751 2 0.415587 0.451249 0.372689
753 4 0.413741 0.468991 0.390211
592 2 0.370746 0.483003 0.404624
1714 2 0.494491 0.489924 0.350784
1716 4 0.474825 0.482465 0.337264
720 4 0.0275059 0.00659685 0.496401
1057 2 0.225174 0.00239676 0.493944
1516 2 0.410644 0.0528869 0.481787
1518 4 0.388258 0.0576789 0.471732
575 4 0.387828 0.0635932 0.452277
2643 4 0.40112 0.0753411 0.444378
574 2 0.368175 0.0742998 0.44113
2879 4 0.492985 0.0280446 0.465492
2878 2 0.472144 0.0385997 0.474402
2880 4 0.451302 0.0491549 0.483313
1517 4 0.433029 0.048095 0.491841
1035 4 0.0163952 0.124259 0.417046
938 4 0.0313382 0.145118 0.466462
1034 4 0.0388088 0.127045 0.461662
1033 2 0.027602 0.125652 0.439354
937 2 0.0346622 0.150297 0.490697
682 2 0.346603 0.121961 0.428889
683 4 0.35809 0.101398 0.437278
576 4 0.348521 0.0850064 0.429982
2641 2 0.421198 0.0880706 0.436631
479 4 0.445623 0.115783 0.419152
2642 4 0.441276 0.1008 0.428884
469 2 0.0701 0.220219 0.413449
471 4 0.0712071 0.233891 0.434353
1200 4 0.0553448 0.238204 0.445539
825 4 0.0783367 0.164722 0.463142
823 2 0.084656 0.174036 0.485469
321 4 0.235617 0.188452 0.45651
650 4 0.247093 0.199944 0.445583
319 2 0.224651 0.189137 0.478971
320 4 0.213686 0.189822 0.501431
649 2 0.24956 0.1824 0.42794
716 4 0.312482 0.204844 0.423406
488 4 0.325777 0.218382 0.422211
487 2 0.340675 0.230038 0.438562
489 4 0.355572 0.241694 0.454914
899 4 0.346452 0.188325 0.500063
642 4 0.358174 0.203296 0.496006
453 4 0.436162 0.234786 0.438218
1198 2 0.0539645 0.250578 0.467222
1199 4 0.0525842 0.262952 0.488905
259 2 0.101851 0.268986 0.425822
261 4 0.115835 0.267936 0.446523
695 4 0.12889 0.274729 0.460272
694 2 0.127123 0.283735 0.48353
402 4 0.186795 0.249839 0.458023
400 2 0.180865 0.26193 0.436956
267 4 0.354164 0.260415 0.447535
265 2 0.369172 0.280365 0.448925
266 4 0.384179 0.300316 0.450314
584 4 0.403985 0.297184 0.446718
583 2 0.427889 0.304505 0.4463
270 4 0.481679 0.281277 0.501261
268 2 0.471724 0.290499 0.48026
269 4 0.46177 0.299721 0.459259
585 4 0.451793 0.311826 0.445883
327 4 0.138994 0.393434 0.448742
325 2 0.144073 0.399534 0.425032
710 4 0.147635 0.375303 0.446099
709 2 0.151313 0.352958 0.456697
711 4 0.154992 0.330612 0.467296
773 4 0.161435 0.335177 0.484574
873 4 0.318794 0.37761 0.472668
871 2 0.30446 0.368684 0.491109
668 4 0.330971 0.358255 0.417121
667 2 0.34851 0.376062 0.417789
334 2 0.383361 0.40225 0.450171
336 4 0.379047 0.385371 0.432236
383 4 0.0312209 0.468499 0.457639
407 4 0.0177801 0.453287 0.459525
382 2 0.0402978 0.464195 0.480536
406 2 0.00573279 0.435711 0.446443
1401 4 0.349407 0.472793 0.492237
335 4 0.387674 0.419129 0.468106
594 4 0.386906 0.485798 0.423498
240 4 0.394783 0.425161 0.485095
1399 2 0.357063 0.496303 0.488517
561 4 0.443854 0.484542 0.438647
588 4 0.463776 0.484183 0.440363
662 4 0.490767 0.433007 0.470324
586 2 0.471253 0.461689 0.448317
559 2 0.426247 0.483694 0.420914
587 4 0.478731 0.439194 0.456271
719 4 0.0365102 0.050778 0.518027
718 2 0.0320081 0.0286874 0.507214
2318 4 0.187187 0.0623752 0.585274
1152 4 0.226916 0.0368831 0.519744
1150 2 0.240766 0.0574128 0.523191
1059 4 0.233106 0.0212499 0.508325
3157 2 0.314512 0.0444812 0.533959
3159 4 0.296138 0.0501483 0.517976
1151 4 0.254617 0.0779424 0.526638
1031 4 0.307493 0.0106634 0.575035
962 4 0.301337 0.998605 0.560516
3158 4 0.332886 0.038814 0.549942
1062 4 0.473156 0.0284731 0.56099
3488 4 0.48418 0.0464739 0.561352
1060 2 0.482237 0.00526606 0.558951
1221 4 0.0910452 0.102371 0.571391
939 4 0.0379862 0.155475 0.514931
1220 4 0.120322 0.142554 0.566019
1219 2 0.105683 0.122462 0.568705
1271 4 0.126626 0.160431 0.556367
1270 2 0.11806 0.171411 0.5356
1182 4 0.264768 0.084375 0.50997
1180 2 0.28778 0.0940858 0.508815
725 4 0.328201 0.0933415 0.507745
1181 4 0.310792 0.103797 0.50766
724 2 0.345943 0.110891 0.506193
726 4 0.363685 0.128441 0.50464
900 4 0.361599 0.143877 0.51726
898 2 0.354025 0.166101 0.508662
1272 4 0.109494 0.182391 0.514834
346 2 0.129609 0.219586 0.561346
347 4 0.113466 0.203143 0.571053
348 4 0.145752 0.236029 0.55164
824 4 0.0909753 0.18335 0.507796
857 4 0.234613 0.208933 0.557491
411 4 0.247061 0.205926 0.571942
856 2 0.225832 0.208229 0.53409
858 4 0.217051 0.207524 0.51069
791 4 0.403529 0.243402 0.522615
640 2 0.378287 0.216192 0.503378
641 4 0.3984 0.229088 0.51075
877 2 0.0769711 0.249682 0.520701
879 4 0.063318 0.250778 0.499783
878 4 0.0906243 0.248586 0.54162
8 3 0.143006 0.256289 0.545982
9 3 0.105396 0.261701 0.545177
6 1 0.126116 0.272113 0.54433
7 3 0.127837 0.286702 0.562031
10 3 0.1282 0.283695 0.524833
696 4 0.125356 0.292741 0.506788
1393 2 0.207514 0.314296 0.548058
1395 4 0.20916 0.311072 0.523318
774 4 0.198854 0.325812 0.516398
1394 4 0.205869 0.31752 0.572798
772 2 0.180144 0.330494 0.500486
811 2 0.290287 0.324181 0.533682
812 4 0.296105 0.302417 0.54453
790 2 0.393966 0.26633 0.525445
792 4 0.384403 0.289259 0.528275
3309 4 0.482438 0.293048 0.517535
1239 4 0.236302 0.379764 0.582946
813 4 0.28447 0.345945 0.522835
872 4 0.290127 0.359759 0.50955
1027 2 0.259513 0.413217 0.568615
936 4 0.0486456 0.475784 0.567234
934 2 0.0440021 0.473322 0.542789
935 4 0.0393585 0.47086 0.518344
1040 4 0.0639224 0.480158 0.580798
384 4 0.0493748 0.459891 0.503433
1135 2 0.149343 0.441993 0.589297
1137 4 0.173138 0.43447 0.590832
1171 2 0.29578 0.452488 0.552144
1173 4 0.320621 0.453651 0.554744
1172 4 0.27094 0.451324 0.549545
1028 4 0.267438 0.433832 0.556894
1952 4 0.278126 0.497396 0.573878
928 2 0.381434 0.478756 0.545783
239 4 0.398035 0.441349 0.532298
930 4 0.396484 0.460717 0.537224
238 2 0.396409 0.433255 0.508696
1000 2 0.460206 0.472802 0.583688
1002 4 0.439573 0.484707 0.576089
1268 4 0.447213 0.502385 0.57762
3078 4 0.0279711 0.0655402 0.655273
3076 2 0.0180874 0.0737361 0.633818
1030 2 0.309611 0.0303229 0.590339
1005 4 0.320545 0.0308648 0.656075
1032 4 0.311729 0.0499824 0.605642
1142 4 0.324468 0.0628057 0.593869
1003 2 0.340068 0.0176005 0.647823
1004 4 0.359591 0.00433624 0.639571
841 2 0.398957 0.0251322 0.648899
843 4 0.37883 0.0110651 0.644189
842 4 0.419085 0.0391993 0.653609
4227 4 0.476535 0.00955379 0.658517
4225 2 0.46126 0.998651 0.641994
3077 4 0.00820366 0.0819321 0.612363
1184 4 0.00475062 0.100135 0.607347
2317 2 0.188612 0.0872499 0.587371
2319 4 0.190037 0.112125 0.589468
1284 4 0.20401 0.111765 0.602603
1282 2 0.222985 0.120119 0.61658
1283 4 0.241959 0.128473 0.630557
1141 2 0.319825 0.0823069 0.608813
1155 4 0.256297 0.142191 0.623897
1153 2 0.257277 0.156738 0.64421
1154 4 0.258258 0.171284 0.664523
887 4 0.302669 0.115539 0.628479
1143 4 0.315181 0.101808 0.623757
886 2 0.297782 0.108213 0.65188
1025 4 0.452795 0.10065 0.639788
1024 2 0.466795 0.118609 0.629459
1026 4 0.480795 0.136567 0.619131
3425 4 0.443313 0.103236 0.657508
1010 4 0.499464 0.138111 0.628125
1259 4 0.170883 0.207583 0.663732
409 2 0.229752 0.198132 0.588215
1211 4 0.191621 0.205633 0.661215
1212 4 0.198994 0.203802 0.611788
410 4 0.212444 0.190337 0.604489
1210 2 0.195308 0.204717 0.636501
954 4 0.356811 0.251134 0.63284
1190 4 0.208249 0.33034 0.585762
806 4 0.334206 0.314387 0.598539
803 4 0.316946 0.324899 0.59779
802 2 0.292762 0.329962 0.601618
805 2 0.350501 0.29573 0.601941
807 4 0.366796 0.277073 0.605342
952 2 0.360111 0.258284 0.656571
1043 4 0.367232 0.304493 0.649952
1042 2 0.353734 0.325492 0.65137
3370 2 0.495255 0.316511 0.662237
3372 4 0.499656 0.326891 0.639919
895 2 0.161298 0.364952 0.641324
896 4 0.140649 0.369455 0.654685
992 4 0.11992 0.370061 0.649851
1029 4 0.251588 0.392602 0.580337
897 4 0.181948 0.360449 0.627963
1191 4 0.172539 0.351803 0.613418
1189 2 0.190394 0.341071 0.59959
1237 2 0.243901 0.360767 0.597318
804 4 0.268577 0.335025 0.605446
1238 4 0.251499 0.34177 0.611691
1044 4 0.340235 0.346491 0.652788
1007 4 0.484868 0.333774 0.630281
1006 2 0.46261 0.344175 0.625634
1008 4 0.440353 0.354577 0.620987
1099 2 0.453164 0.399273 0.650374
1101 4 0.445414 0.380062 0.664376
1039 2 0.0860386 0.468497 0.580527
1136 4 0.125547 0.449517 0.587763
1041 4 0.108155 0.456836 0.580255
2243 4 0.235871 0.483206 0.589974
540 4 0.183337 0.446248 0.602999
539 4 0.217503 0.48245 0.59822
538 2 0.20042 0.464349 0.600609
1953 4 0.308039 0.489227 0.613111
1951 2 0.293082 0.493312 0.593495
891 4 0.314167 0.506674 0.617741
889 2 0.326669 0.500695 0.638553
890 4 0.339171 0.494715 0.659365
1001 4 0.480839 0.460897 0.591286
1100 4 0.460913 0.418484 0.636371
927 4 0.476318 0.428825 0.644868
926 4 0.489437 0.462167 0.609983
925 2 0.482878 0.445496 0.627425
945 4 0.151237 0.0663431 0.717324
2255 4 0.141535 0.0503265 0.714302
2254 2 0.155406 0.0298567 0.71801
2256 4 0.169278 0.00938699 0.721718
951 4 0.322402 0.0218822 0.673707
1092 4 0.307921 0.0551283 0.719288
949 2 0.309415 0.0314708 0.692801
950 4 0.296428 0.0410593 0.711895
1090 2 0.310422 0.058034 0.743996
3424 2 0.444618 0.0850503 0.674618
3426 4 0.445922 0.0668644 0.691728
1163 4 0.484386 0.993826 0.669212
1162 2 0.478714 0.997693 0.693255
1164 4 0.473041 0.00156067 0.717298
2990 4 0.0357135 0.0729032 0.673315
2989 2 0.0479379 0.0935432 0.680367
2991 4 0.0601623 0.114183 0.687419
864 4 0.0738724 0.128005 0.68197
943 2 0.133311 0.0837739 0.717183
944 4 0.115386 0.101205 0.717041
863 4 0.117873 0.110885 0.69845
862 2 0.0958725 0.119445 0.69021
831 4 0.20816 0.0948413 0.726232
829 2 0.196349 0.0994111 0.74779
1298 4 0.285658 0.150912 0.712088
1085 4 0.282888 0.145911 0.730961
1084 2 0.301931 0.154877 0.744458
888 4 0.292896 0.100886 0.675281
44 3 0.417107 0.145769 0.743452
1082 4 0.0172579 0.176499 0.71036
1179 4 0.0651621 0.162045 0.733143
850 2 0.0205418 0.203863 0.675567
852 4 0.0182628 0.187153 0.694027
851 4 0.0228207 0.220572 0.657106
1177 2 0.0742548 0.184783 0.73819
947 4 0.100846 0.206944 0.732821
946 2 0.125406 0.207922 0.728235
948 4 0.149966 0.208899 0.723649
1260 4 0.144625 0.215769 0.705497
1258 2 0.157754 0.211676 0.684615
1297 2 0.277343 0.166691 0.694565
1299 4 0.269029 0.18247 0.677041
1193 4 0.320511 0.238628 0.748863
1262 4 0.399218 0.204383 0.687463
1261 2 0.415703 0.223149 0.688586
1263 4 0.432188 0.241915 0.689709
1208 4 0.997801 0.260725 0.732958
953 4 0.36341 0.265433 0.680302
1192 2 0.339319 0.251075 0.738067
1194 4 0.358126 0.263521 0.727272
3123 4 0.44141 0.259887 0.69335
3371 4 0.490855 0.306131 0.684554
3121 2 0.456752 0.279384 0.690244
3122 4 0.472094 0.298882 0.687138
1280 4 0.0268331 0.401736 0.691543
1279 2 0.0336112 0.377771 0.693751
1281 4 0.0403894 0.353805 0.695958
884 4 0.0346564 0.420097 0.695378
991 2 0.119046 0.380974 0.67233
1068 4 0.119444 0.377951 0.708272
1066 2 0.132302 0.361454 0.721973
1067 4 0.145159 0.344957 0.735674
993 4 0.118171 0.391888 0.694809
1096 2 0.22723 0.384596 0.725692
1097 4 0.225195 0.375523 0.702482
1278 4 0.234363 0.358929 0.696365
1276 2 0.254168 0.361332 0.681292
797 4 0.28364 0.351051 0.678568
1277 4 0.273973 0.363734 0.66622
796 2 0.308362 0.350251 0.674914
798 4 0.333084 0.349451 0.67126
1140 4 0.33622 0.393148 0.728197
1089 4 0.323935 0.397676 0.742083
1138 2 0.338792 0.409005 0.709037
3329 4 0.459825 0.367882 0.672391
3330 4 0.489707 0.374596 0.711922
3328 2 0.474766 0.371239 0.692156
3182 4 0.492439 0.391999 0.722683
3181 2 0.477638 0.402325 0.739988
894 4 0.00158471 0.46082 0.694365
2129 4 0.0175284 0.472137 0.69263
883 2 0.0434714 0.426739 0.717814
2128 2 0.0402399 0.482549 0.693613
885 4 0.0522864 0.433381 0.74025
815 4 0.0490305 0.44848 0.752895
2130 4 0.0629515 0.49296 0.694596
940 2 0.151951 0.471583 0.731923
942 4 0.142987 0.480707 0.710439
2369 4 0.2987 0.495418 0.755119
1205 4 0.343527 0.476713 0.667383
1139 4 0.341365 0.424863 0.689877
1206 4 0.358021 0.433345 0.687627
1204 2 0.350774 0.455029 0.677505
1251 4 0.426526 0.506244 0.726742
1988 4 0.410311 0.495255 0.73177
1294 2 0.00621055 0.0285862 0.786287
1296 4 0.0209155 0.0287842 0.766066
1286 4 0.0408506 0.0319988 0.762354
1285 2 0.0605833 0.0464147 0.767643
1287 4 0.080316 0.0608306 0.772933
1203 4 0.094983 0.0732747 0.773747
2315 4 0.212702 0.00678773 0.819298
1091 4 0.312922 0.0609396 0.768704
1049 4 0.329652 0.0506679 0.774653
1048 2 0.331291 0.0313652 0.790462
1256 4 0.321859 0.00356458 0.820752
1050 4 0.332931 0.0120624 0.80627
964 2 0.413275 0.0293954 0.799199
1021 2 0.381922 0.0823328 0.827096
966 4 0.399949 0.0259512 0.778325
1022 4 0.358397 0.0895781 0.822707
965 4 0.426602 0.0328395 0.820073
2322 4 0.46134 0.0626785 0.814563
1995 4 0.450288 0.00662682 0.807847
1993 2 0.472518 0.996236 0.803046
845 4 0.499914 0.0596612 0.829432
1105 2 0.0566767 0.141945 0.776912
1106 4 0.0469156 0.149203 0.755066
1107 4 0.0664378 0.134687 0.798757
34 3 0.0715826 0.129057 0.8167
1214 4 0.028748 0.157693 0.761674
1202 4 0.109692 0.116021 0.752367
1201 2 0.102338 0.0946479 0.763057
1130 4 0.147596 0.166569 0.793314