ITEM: TIMESTEP
1850000
ITEM: NUMBER OF ATOMS
4590
ITEM: BOX BOUNDS pp pp pp
-9.9985700000000008e+00 9.9985700000000008e+00
-9.9985700000000008e+00 9.9985700000000008e+00
-9.9985700000000008e+00 9.9985700000000008e+00
ITEM: ATOMS id type xs ys zs
3289 2 0.0122486 0.0335133 0.078405
700 2 0.0707628 0.0708966 0.0712004
702 4 0.0510784 0.0669139 0.0563061
3291 4 0.00376477 0.0157407 0.0629993
701 4 0.0904473 0.0748792 0.0860947
1606 2 0.439069 0.0643782 0.0328814
1607 4 0.450234 0.0646615 0.0105108
1608 4 0.427904 0.0640949 0.055252
1448 4 0.440361 0.994993 0.0811633
746 4 0.423269 0.0826035 0.0604217
1668 4 0.0488215 0.0744657 0.0382124
1667 4 0.00527159 0.0983275 0.0323189
1666 2 0.0270465 0.0863966 0.0352657
571 2 0.228633 0.121662 0.0399144
914 4 0.210197 0.143326 0.00534932
572 4 0.221122 0.135529 0.0205118
357 4 0.249826 0.110414 0.0744223
573 4 0.236144 0.107794 0.059317
581 4 0.278204 0.168515 0.0682836
491 4 0.364089 0.137165 0.00397998
557 4 0.376887 0.138123 0.0191292
556 2 0.36757 0.159167 0.0289019
2639 4 0.425583 0.14853 0.081636
2638 2 0.441762 0.146706 0.0626597
2640 4 0.457941 0.144882 0.0436835
665 4 0.429822 0.143471 0.996488
475 2 0.0635422 0.242966 0.0757315
476 4 0.0806793 0.225822 0.0818627
705 4 0.00253671 0.171501 0.0881452
296 4 0.268629 0.185776 0.0680637
295 2 0.259809 0.200034 0.0495141
297 4 0.250988 0.214292 0.0309644
354 4 0.246958 0.205493 0.012116
558 4 0.358252 0.180212 0.0386746
477 4 0.0464052 0.260109 0.0696002
2806 2 0.0300287 0.291726 0.0834255
2807 4 0.040162 0.279244 0.064276
456 4 0.140416 0.275333 0.0112492
287 4 0.15808 0.297146 0.067141
454 2 0.150967 0.288502 0.0297
455 4 0.161518 0.301671 0.0481509
286 2 0.156557 0.320631 0.0755864
294 4 0.141709 0.278712 0.991477
670 2 0.479266 0.319488 0.0659307
672 4 0.476603 0.299688 0.0809657
2841 4 0.475485 0.2794 0.0785556
328 2 0.0520472 0.368581 0.0582284
552 4 0.0735775 0.392202 0.0754731
329 4 0.0425012 0.361214 0.0363247
330 4 0.0615932 0.375949 0.080132
2771 4 0.00974804 0.358021 0.0950806
1691 4 0.12158 0.38584 0.999832
1620 4 0.129394 0.38707 0.0195257
1618 2 0.137708 0.41 0.0250287
250 2 0.165894 0.375716 0.0727126
251 4 0.167949 0.392053 0.0538968
483 4 0.180316 0.405773 0.0469753
481 2 0.194625 0.402239 0.0267773
482 4 0.208933 0.398705 0.00657938
739 2 0.329416 0.363604 0.0828369
741 4 0.336341 0.382284 0.0677283
15 3 0.340392 0.396961 0.080189
1069 2 0.382524 0.376471 0.0328127
11 1 0.358055 0.411255 0.078654
1070 4 0.367155 0.390489 0.0466849
14 3 0.369485 0.407612 0.0587923
1071 4 0.397894 0.362452 0.0189406
323 4 0.479879 0.358968 0.0533464
324 4 0.481811 0.380285 0.00815128
322 2 0.480845 0.369626 0.0307488
671 4 0.481929 0.339288 0.0508956
595 2 0.432593 0.400152 0.0724077
957 4 0.469196 0.386117 0.993639
2983 2 0.0189695 0.462135 0.0358849
2984 4 0.0102518 0.454301 0.0137984
2985 4 0.0276871 0.469968 0.0579713
1619 4 0.146023 0.432929 0.0305317
2094 4 0.160252 0.440251 0.0436474
2092 2 0.178257 0.457532 0.0451982
2093 4 0.196261 0.474812 0.046749
524 4 0.289688 0.421112 0.0661572
246 4 0.279591 0.43931 0.0682957
523 2 0.308689 0.415838 0.0507843
525 4 0.32769 0.410564 0.0354113
494 4 0.335637 0.423818 0.0232437
13 3 0.350582 0.433202 0.0795818
659 4 0.43187 0.435086 0.0666884
597 4 0.445437 0.419839 0.0638834
658 2 0.42766 0.457093 0.0777852
3290 4 0.0207325 0.0512859 0.0938107
590 4 0.00372574 0.0582603 0.10225
450 4 0.108193 0.0768916 0.0953731
566 4 0.246735 0.0113299 0.111478
484 2 0.208439 0.00171567 0.0930318
485 4 0.230943 0.0105344 0.0994322
565 2 0.252674 0.0353901 0.114795
567 4 0.258614 0.0594504 0.118113
356 4 0.249801 0.0759924 0.110698
1505 4 0.250046 0.0299404 0.168063
1504 2 0.260911 0.00790361 0.163426
1449 4 0.420262 0.0208999 0.11892
1783 2 0.424964 0.0220304 0.154026
1447 2 0.430311 0.00794642 0.100042
1784 4 0.41239 0.0309888 0.134358
737 4 0.0609295 0.166596 0.0872118
738 4 0.0267059 0.140356 0.112529
736 2 0.0438177 0.153476 0.0998703
2759 4 0.00851888 0.150326 0.108393
449 4 0.136643 0.118003 0.094271
448 2 0.122418 0.097447 0.094822
578 4 0.139938 0.122664 0.114341
577 2 0.149261 0.131475 0.135804
579 4 0.158584 0.140286 0.157266
355 2 0.249814 0.093203 0.0925599
277 2 0.285852 0.129837 0.139537
278 4 0.271848 0.146283 0.126945
279 4 0.299857 0.113391 0.152129
732 4 0.313683 0.126745 0.157942
582 4 0.259676 0.155043 0.112735
580 2 0.26894 0.161779 0.0905092
253 2 0.397017 0.145677 0.100768
254 4 0.372173 0.144264 0.0983193
255 4 0.42186 0.147091 0.103217
745 2 0.426744 0.0904864 0.0838942
771 4 0.491597 0.11754 0.116522
747 4 0.43022 0.0983694 0.107367
25 3 0.44395 0.112021 0.112473
21 1 0.454657 0.130988 0.119128
23 3 0.454189 0.132639 0.142268
22 3 0.476568 0.130156 0.112174
24 3 0.44448 0.149564 0.109654
758 4 0.427359 0.156121 0.124368
507 4 0.0757984 0.169239 0.0988851
505 2 0.0948601 0.185354 0.0974227
506 4 0.113922 0.201469 0.0959603
756 4 0.151948 0.232123 0.122179
754 2 0.136014 0.244155 0.13723
462 4 0.16376 0.215003 0.117526
460 2 0.186106 0.226211 0.117998
461 4 0.208452 0.237419 0.118471
623 4 0.228744 0.233329 0.112757
622 2 0.243631 0.226714 0.131725
624 4 0.258518 0.220099 0.150693
309 4 0.326962 0.251431 0.146066
284 4 0.250495 0.202298 0.1526
519 4 0.332566 0.236444 0.135216
518 4 0.368585 0.243649 0.101284
517 2 0.350575 0.240047 0.11825
528 4 0.378262 0.225827 0.0977117
526 2 0.401991 0.233614 0.0989211
759 4 0.415562 0.184631 0.163721
757 2 0.42146 0.170376 0.144044
2895 4 0.465436 0.185137 0.124358
2894 4 0.477256 0.175151 0.076805
2893 2 0.471346 0.180144 0.100581
527 4 0.42572 0.241401 0.100131
378 4 0.472144 0.203977 0.12535
2840 4 0.442012 0.243311 0.087378
376 2 0.459298 0.217546 0.141964
646 2 0.999499 0.320086 0.117153
648 4 0.993055 0.3265 0.140445
2808 4 0.0198954 0.304208 0.102575
755 4 0.120081 0.256186 0.152282
395 4 0.10882 0.272475 0.14791
394 2 0.102381 0.28486 0.168654
608 4 0.322646 0.324378 0.0935443
612 4 0.31649 0.31999 0.148367
607 2 0.319949 0.313711 0.115997
609 4 0.317252 0.303044 0.138449
2839 2 0.458749 0.261355 0.0829668
537 4 0.0455008 0.40438 0.11777
315 4 0.0468595 0.414909 0.10197
535 2 0.0365053 0.39286 0.138057
536 4 0.0275098 0.38134 0.158343
550 2 0.096106 0.397095 0.0851534
252 4 0.163839 0.359378 0.0915283
288 4 0.155034 0.344116 0.0840318
551 4 0.118634 0.401988 0.0948337
417 4 0.142178 0.35339 0.148844
363 4 0.149629 0.370408 0.156808
415 2 0.121218 0.343395 0.158115
740 4 0.32249 0.344924 0.0979456
12 3 0.372374 0.407524 0.0962663
2538 4 0.418157 0.376552 0.167494
2651 4 0.426186 0.370361 0.150084
2650 2 0.424357 0.373779 0.125383
2652 4 0.422529 0.377196 0.100682
596 4 0.41975 0.380466 0.0809321
1708 2 0.0473776 0.494058 0.103102
1710 4 0.0500446 0.479618 0.0828652
313 2 0.0507241 0.439152 0.0972279
314 4 0.0545888 0.463396 0.0924859
289 2 0.12855 0.488528 0.153328
291 4 0.140207 0.468034 0.145006
627 4 0.154195 0.453244 0.146089
626 4 0.202032 0.466214 0.152727
625 2 0.178113 0.459729 0.149408
768 4 0.206476 0.460919 0.171823
244 2 0.285749 0.454433 0.087231
387 4 0.295483 0.473599 0.125246
245 4 0.291907 0.469557 0.106166
385 2 0.307639 0.466968 0.146065
386 4 0.319795 0.460338 0.166884
1575 4 0.331493 0.443694 0.168818
660 4 0.423449 0.4791 0.088882
693 4 0.239687 0.0638241 0.223843
723 4 0.226898 0.07946 0.228076
692 4 0.252385 0.0313609 0.187987
691 2 0.246036 0.0475925 0.205915
404 4 0.316006 0.061489 0.242439
403 2 0.292053 0.0571727 0.248165
28 3 0.367034 0.0851964 0.235781
743 4 0.386205 0.0660313 0.254117
742 2 0.404271 0.0820261 0.24756
1785 4 0.437537 0.013072 0.173694
236 4 0.1523 0.143131 0.176804
391 2 0.160677 0.169387 0.236446
235 2 0.173866 0.133878 0.185433
237 4 0.195432 0.124624 0.194061
722 4 0.212171 0.113438 0.194471
721 2 0.219535 0.0964491 0.211273
392 4 0.181028 0.158705 0.226602
30 3 0.334896 0.0672391 0.243676
26 1 0.344913 0.0876481 0.242342
27 3 0.333909 0.100485 0.226744
730 2 0.333343 0.135595 0.170605
731 4 0.353003 0.144445 0.183268
606 4 0.365955 0.146979 0.197718
604 2 0.369819 0.141998 0.221914
605 4 0.373683 0.137017 0.246109
629 4 0.415452 0.180665 0.182418
744 4 0.422336 0.0980209 0.241003
630 4 0.4288 0.155282 0.223385
628 2 0.422126 0.167973 0.202901
521 4 0.441533 0.14657 0.235572
520 2 0.45249 0.163993 0.249769
2797 2 0.00941822 0.252589 0.229958
546 4 0.195376 0.14815 0.215939
285 4 0.235989 0.182126 0.195998
544 2 0.209122 0.168698 0.212195
545 4 0.222868 0.189245 0.208451
283 2 0.243242 0.192212 0.174299
377 4 0.446451 0.231115 0.158578
620 4 0.00305404 0.318426 0.155909
2694 4 0.0781844 0.287988 0.193752
2692 2 0.0548006 0.279951 0.197463
2693 4 0.0314167 0.271913 0.201174
2799 4 0.0220778 0.270704 0.218264
735 4 0.0700453 0.322783 0.23753
396 4 0.0959418 0.297245 0.189398
416 4 0.100258 0.333399 0.167385
610 2 0.320169 0.320734 0.173087
307 2 0.312952 0.249407 0.166677
498 4 0.299367 0.265621 0.19276
308 4 0.298941 0.247382 0.187287
497 4 0.287789 0.27227 0.240952
496 2 0.293578 0.268946 0.216856
345 4 0.3203 0.332741 0.213932
299 4 0.0715742 0.33979 0.228665
1775 4 0.0213419 0.390685 0.174103
1774 2 0.00461254 0.407984 0.180888
298 2 0.0829383 0.341214 0.206438
300 4 0.0943024 0.342638 0.184212
361 2 0.164067 0.371187 0.177207
339 4 0.179672 0.364113 0.215384
362 4 0.178505 0.371965 0.197606
337 2 0.193743 0.351703 0.231912
611 4 0.323849 0.321479 0.197807
343 2 0.319012 0.349711 0.23225
344 4 0.317724 0.366681 0.250568
643 2 0.317917 0.404046 0.232037
645 4 0.30924 0.383508 0.243353
2536 2 0.409864 0.39627 0.180439
2537 4 0.40157 0.415988 0.193384
108 3 0.472623 0.37253 0.215343
106 1 0.472843 0.38273 0.236184
109 3 0.463437 0.403892 0.234745
1776 4 0.987883 0.425284 0.187673
681 4 0.0697747 0.444299 0.25561
414 4 0.0883389 0.451984 0.254263
413 4 0.105469 0.458146 0.207687
412 2 0.096904 0.455065 0.230975
766 2 0.227814 0.470954 0.180139
767 4 0.249153 0.480989 0.188455
638 4 0.267098 0.489158 0.195692
644 4 0.326594 0.424585 0.220721
1574 4 0.341031 0.438915 0.217674
1573 2 0.336262 0.441304 0.193246
714 4 0.416707 0.429754 0.191787
712 2 0.422628 0.453484 0.186592
713 4 0.428549 0.477215 0.181398
231 4 0.448857 0.477959 0.18013
318 4 0.0211806 0.99888 0.333484
1478 4 0.0906107 0.0283282 0.342955
428 4 0.135573 0.0553648 0.298631
1479 4 0.120873 0.0496011 0.309304
1477 2 0.105742 0.0389647 0.32613
427 2 0.149591 0.0760266 0.299962
247 2 0.240918 0.0535533 0.287894
249 4 0.224435 0.0473921 0.305658
1700 4 0.233213 0.0444067 0.323486
248 4 0.2574 0.0597145 0.27013
405 4 0.268099 0.0528564 0.253892
1748 4 0.382988 0.0482074 0.259098
1496 4 0.39448 0.0129265 0.306718
1747 2 0.394832 0.0336435 0.275614
1749 4 0.406676 0.0190797 0.292131
459 4 0.000460244 0.161978 0.319473
429 4 0.163609 0.0966885 0.301293
29 3 0.34389 0.0983287 0.262916
480 4 0.36584 0.10569 0.340456
515 4 0.365921 0.106883 0.320299
633 4 0.392767 0.141808 0.251865
516 4 0.352755 0.113581 0.272523
514 2 0.359338 0.110232 0.296411
631 2 0.40293 0.15225 0.272183
698 4 0.436604 0.106531 0.255215
697 2 0.46062 0.100706 0.259015
699 4 0.484637 0.0948809 0.262815
522 4 0.463447 0.181417 0.263965
2798 4 0.996759 0.234473 0.241652
529 2 0.0706429 0.202733 0.309627
513 4 0.0718439 0.241066 0.275535
530 4 0.0501568 0.191524 0.318563
457 2 0.0196174 0.175873 0.327542
458 4 0.0387746 0.189768 0.335611
393 4 0.140326 0.180069 0.24629
531 4 0.091129 0.213942 0.300691
2849 4 0.127267 0.194109 0.246846
2850 4 0.103314 0.201539 0.29011
2848 2 0.115291 0.197824 0.268478
511 2 0.0918937 0.248395 0.262516
512 4 0.111943 0.255723 0.249498
389 4 0.200771 0.253317 0.309278
750 4 0.181965 0.254312 0.302543
708 4 0.311651 0.259403 0.314029
765 4 0.304276 0.256233 0.294827
332 4 0.422221 0.180792 0.298875
331 2 0.402529 0.194009 0.306794
333 4 0.382837 0.207226 0.314713
632 4 0.413093 0.162692 0.292502
419 4 0.49053 0.20736 0.305788
418 2 0.472723 0.194488 0.293855
420 4 0.454916 0.181616 0.281921
2800 2 0.00421726 0.32021 0.272489
2801 4 0.00858354 0.296357 0.266395
733 2 0.0796062 0.324411 0.260576
2654 4 0.0981417 0.313131 0.294229
734 4 0.0891672 0.326039 0.283622
2653 2 0.106183 0.311734 0.317863
749 4 0.155127 0.281961 0.270668
618 4 0.151605 0.300436 0.281089
616 2 0.148608 0.322492 0.269699
748 2 0.168546 0.268136 0.286606
763 2 0.290084 0.25914 0.274447
764 4 0.275891 0.262047 0.254068
365 4 0.136714 0.359954 0.248903
617 4 0.14561 0.344548 0.25831
364 2 0.140755 0.377997 0.265734
366 4 0.144795 0.396041 0.282565
338 4 0.207814 0.339292 0.24844
434 4 0.229178 0.335357 0.250456
508 2 0.240927 0.332551 0.324084
433 2 0.238571 0.347108 0.270428
435 4 0.247964 0.358859 0.2904
509 4 0.244549 0.341396 0.300979
275 4 0.351171 0.407144 0.256782
274 2 0.361324 0.400006 0.278487
276 4 0.371478 0.392868 0.300193
614 4 0.382497 0.377204 0.293538
613 2 0.404287 0.373151 0.305112
110 3 0.494226 0.384236 0.243873
107 3 0.460411 0.370045 0.250802
615 4 0.426076 0.369098 0.316686
2924 4 0.426852 0.353551 0.328304
3990 4 0.498919 0.39569 0.260624
499 2 0.0220438 0.498408 0.289365
679 2 0.055155 0.458098 0.270477
501 4 0.0324955 0.479787 0.302373
680 4 0.0405354 0.471897 0.285345
3672 4 0.102079 0.50543 0.28405
603 4 0.154497 0.413189 0.280392
677 4 0.137293 0.483277 0.292836
676 2 0.151496 0.473827 0.311116
678 4 0.165699 0.464377 0.329396
1640 4 0.144109 0.484032 0.274233
601 2 0.175968 0.42599 0.280954
727 2 0.231837 0.41892 0.2745
728 4 0.21013 0.429307 0.26771
602 4 0.197439 0.438791 0.281517
729 4 0.253544 0.408533 0.281289
3 3 0.31175 0.477909 0.33343
399 4 0.0372132 0.0073608 0.340344
397 2 0.0605346 0.0112526 0.348477
398 4 0.083856 0.0151445 0.35661
3591 4 0.0902711 0.0162454 0.375859
3589 2 0.0934602 0.0067305 0.39876
2430 4 0.231487 0.00944733 0.401373
2428 2 0.208298 0.0187481 0.402349
2429 4 0.185109 0.0280489 0.403325
600 4 0.168596 0.0341196 0.412111
1699 2 0.241208 0.0433254 0.347152
1701 4 0.249204 0.0422441 0.370818
468 4 0.262984 0.0531272 0.379608
466 2 0.27773 0.043181 0.397181
467 4 0.292475 0.0332347 0.414754
2643 4 0.325984 0.0524754 0.399614
684 4 0.317504 0.0696971 0.405447
479 4 0.367979 0.0590683 0.358414
478 2 0.36691 0.0823793 0.349435
2642 4 0.357845 0.0421816 0.36247
2641 2 0.341914 0.0473285 0.381042
1517 4 0.449234 0.0238186 0.428524
687 4 0.040652 0.116986 0.345089
685 2 0.0324424 0.127786 0.366092
342 4 0.036509 0.127984 0.399405
686 4 0.0242328 0.138585 0.387096
471 4 0.10652 0.133902 0.397026
2502 4 0.501796 0.125131 0.39794
2500 2 0.481407 0.13119 0.411083
762 4 0.43569 0.103854 0.328931
760 2 0.441494 0.126477 0.337857
761 4 0.447298 0.1491 0.346784
2880 4 0.451984 0.0865532 0.406229
367 2 0.149529 0.191945 0.404538
368 4 0.124939 0.188672 0.401406
369 4 0.174119 0.195218 0.40767
474 4 0.236647 0.175484 0.414503
401 4 0.233779 0.223323 0.41119
388 2 0.21829 0.249748 0.326757
390 4 0.235809 0.246179 0.344236
372 4 0.248318 0.235972 0.402325
706 2 0.297874 0.248913 0.332066
707 4 0.284097 0.238423 0.350103
715 2 0.304303 0.232019 0.386632
717 4 0.298686 0.239572 0.363468
716 4 0.309919 0.224466 0.409796
351 4 0.337441 0.208646 0.346809
350 4 0.38541 0.214728 0.334055
349 2 0.361426 0.211687 0.340432
2515 2 0.504464 0.22109 0.40198
2517 4 0.491209 0.222757 0.423116
443 4 0.093998 0.305312 0.346228
2655 4 0.114225 0.310337 0.341497
442 2 0.0876252 0.309821 0.369982
260 4 0.0977113 0.319243 0.404085
444 4 0.0812525 0.31433 0.393736
371 4 0.24056 0.25973 0.359011
370 2 0.244439 0.247851 0.380668
636 4 0.224871 0.321727 0.362247
510 4 0.237306 0.323706 0.347188
871 2 0.322832 0.287443 0.402091
873 4 0.321657 0.293617 0.37789
549 4 0.000574391 0.387316 0.383753
547 2 0.00852611 0.402643 0.401837
634 2 0.234048 0.335601 0.380915
325 2 0.201562 0.410926 0.391475
326 4 0.198546 0.410967 0.366654
635 4 0.243224 0.349475 0.399583
668 4 0.260559 0.359799 0.396651
669 4 0.288685 0.400547 0.389631
667 2 0.274622 0.380173 0.393141
753 4 0.29826 0.414019 0.379951
751 2 0.315943 0.407922 0.363358
752 4 0.333626 0.401825 0.346766
447 4 0.347267 0.407265 0.36175
445 2 0.370709 0.415346 0.358539
117 3 0.466164 0.338045 0.37837
2925 4 0.449672 0.335515 0.368982
2923 2 0.438262 0.344533 0.348643
116 1 0.467474 0.352526 0.396196
118 3 0.472058 0.373832 0.38823
375 4 0.171003 0.479543 0.339587
373 2 0.181612 0.473595 0.361433
374 4 0.19222 0.467646 0.383279
2109 4 0.205217 0.482473 0.385822
2107 2 0.219734 0.486347 0.405807
2 3 0.308111 0.503241 0.360956
1555 2 0.270674 0.491006 0.379997
1556 4 0.258403 0.473581 0.393072
593 4 0.26881 0.456287 0.388918
542 4 0.416921 0.471712 0.336901
543 4 0.412793 0.425671 0.355977
446 4 0.394152 0.423428 0.355327
541 2 0.414857 0.448692 0.346439
599 4 0.152619 0.0117241 0.453871
598 2 0.160607 0.0229218 0.432991
1182 4 0.217175 0.0536446 0.503824
1180 2 0.230916 0.0709916 0.492186
682 2 0.321636 0.0683796 0.430072
683 4 0.325768 0.0670622 0.454696
576 4 0.338558 0.0644225 0.469407
574 2 0.340643 0.0424608 0.481176
575 4 0.342729 0.0204991 0.492946
4237 2 0.487818 0.0203279 0.436039
4239 4 0.469386 0.0302166 0.422341
1516 2 0.433186 0.00466201 0.429334
2879 4 0.480069 0.0490212 0.423643
2878 2 0.466026 0.0677872 0.414936
340 2 0.0453279 0.139076 0.420006
1200 4 0.0622197 0.170009 0.438315
341 4 0.0541469 0.150167 0.440607
937 2 0.0331878 0.0992885 0.489593
938 4 0.00904477 0.103017 0.484264
1034 4 0.997371 0.118584 0.487349
469 2 0.119412 0.143659 0.416099
470 4 0.132304 0.153415 0.435172
1270 2 0.133799 0.148414 0.465987
1271 4 0.118954 0.140758 0.484594
1272 4 0.148643 0.156071 0.447381
725 4 0.242879 0.102875 0.466376
724 2 0.267761 0.102179 0.464017
726 4 0.292643 0.101483 0.461658
651 4 0.281451 0.159436 0.444573
649 2 0.303113 0.162888 0.456574
650 4 0.324775 0.166339 0.468575
1181 4 0.244657 0.0883386 0.480548
2657 4 0.425398 0.101131 0.447014
2658 4 0.451699 0.143401 0.442304
2656 2 0.438548 0.122266 0.444659
2501 4 0.461017 0.137248 0.424226
1198 2 0.0750756 0.17354 0.459467
1199 4 0.0879315 0.17707 0.48062
825 4 0.136958 0.25477 0.468151
823 2 0.135304 0.229969 0.470865
824 4 0.133651 0.205168 0.473578
400 2 0.210444 0.214827 0.414103
402 4 0.18711 0.20633 0.417016
321 4 0.223029 0.204931 0.493522
640 2 0.245658 0.228961 0.468786
642 4 0.233615 0.208683 0.477088
472 2 0.255818 0.176688 0.43051
473 4 0.274988 0.177893 0.446517
488 4 0.328344 0.220061 0.414928
641 4 0.257701 0.24924 0.460484
487 2 0.344825 0.216754 0.433437
489 4 0.361307 0.213446 0.451947
267 4 0.371407 0.229197 0.444237
265 2 0.392959 0.24184 0.445151
266 4 0.414511 0.254483 0.446066
453 4 0.428639 0.239759 0.44844
452 4 0.471525 0.227951 0.425591
451 2 0.450082 0.233855 0.437016
259 2 0.105572 0.317087 0.427723
694 2 0.132291 0.293693 0.481095
695 4 0.127052 0.30283 0.458419
696 4 0.137531 0.284555 0.503772
261 4 0.113433 0.314932 0.45136
812 4 0.27381 0.253437 0.449621
811 2 0.296037 0.264432 0.446418
813 4 0.318264 0.275427 0.443215
872 4 0.324008 0.281268 0.426291
120 3 0.484105 0.345716 0.410185
2506 2 0.486355 0.28556 0.472903
3308 4 0.44342 0.28616 0.478498
2508 4 0.462954 0.281346 0.480637
3307 2 0.439484 0.273047 0.49942
3352 2 0.99114 0.362213 0.493292
548 4 0.0164778 0.41797 0.419921
327 4 0.204577 0.410886 0.416296
711 4 0.173368 0.41163 0.475011
709 2 0.181076 0.413757 0.451321
334 2 0.400505 0.395283 0.474132
336 4 0.411191 0.376686 0.461282
584 4 0.424196 0.36451 0.47112
119 3 0.447166 0.352463 0.407419
583 2 0.434338 0.35781 0.44927
585 4 0.44448 0.35111 0.427419
408 4 0.0263039 0.411335 0.437253
407 4 0.0325596 0.445193 0.473519
406 2 0.0294317 0.428264 0.455386
383 4 0.0274086 0.461662 0.485557
773 4 0.152449 0.415967 0.47606
2244 4 0.249106 0.49633 0.496009
2108 4 0.234252 0.490221 0.425792
710 4 0.188784 0.415884 0.42763
1445 4 0.255345 0.489535 0.428252
1446 4 0.252358 0.492228 0.478097
592 2 0.264187 0.447435 0.411841
1444 2 0.253851 0.490882 0.453175
594 4 0.259565 0.438584 0.434764
240 4 0.384393 0.433497 0.484703
335 4 0.38982 0.41388 0.486983
239 4 0.357174 0.475423 0.483253
238 2 0.370783 0.45446 0.483978
930 4 0.363917 0.490056 0.495042
2710 2 0.486257 0.422972 0.453926
2712 4 0.465135 0.435855 0.450313
1151 4 0.229898 0.0395807 0.49721
1150 2 0.220924 0.0163266 0.499185
2318 4 0.2741 0.0883959 0.560061
3158 4 0.326823 0.02194 0.505067
3157 2 0.324578 0.00817549 0.52582
88 3 0.385199 0.0163184 0.592768
87 3 0.348983 0.0182235 0.582901
939 4 0.0573308 0.0955601 0.494922
1221 4 0.0757932 0.0936114 0.502077
1220 4 0.113789 0.125547 0.495982
1219 2 0.0947911 0.109579 0.499029
2317 2 0.255189 0.097506 0.573646
3461 4 0.0134224 0.202655 0.581675
858 4 0.236284 0.165546 0.543971
320 4 0.228044 0.166341 0.524928
319 2 0.225536 0.185636 0.509225
856 2 0.257342 0.169282 0.556925
900 4 0.364899 0.186815 0.565388
898 2 0.365951 0.205352 0.582135
269 4 0.466513 0.236804 0.567266
268 2 0.459101 0.243058 0.54422
879 4 0.0598405 0.260426 0.587186
877 2 0.0657054 0.271213 0.565405
878 4 0.0715702 0.282001 0.543624
2814 4 0.0248376 0.314519 0.562495
3333 4 0.0222976 0.315283 0.543003
9 3 0.0902008 0.283562 0.534989
7 3 0.115831 0.311032 0.53607
346 2 0.140091 0.253711 0.583105
348 4 0.136262 0.267945 0.562908
8 3 0.125011 0.276836 0.54868
6 1 0.11277 0.288474 0.53277
10 3 0.119914 0.282913 0.511873
1189 2 0.157079 0.325724 0.578601
806 4 0.365436 0.326708 0.55378
805 2 0.380099 0.311653 0.567328
807 4 0.394762 0.296599 0.580876
270 4 0.451688 0.249313 0.521174
3309 4 0.435547 0.259934 0.520342
3331 2 0.0201177 0.339036 0.535505
3332 4 0.0179378 0.362789 0.528007
3353 4 0.001278 0.359102 0.515936
1190 4 0.154688 0.345366 0.563315
1394 4 0.169171 0.345544 0.55006
772 2 0.155752 0.408459 0.49968
774 4 0.159055 0.400951 0.5233
1395 4 0.174371 0.388659 0.525266
1393 2 0.171771 0.367102 0.537663
804 4 0.326978 0.364181 0.554885
1237 2 0.31416 0.38715 0.586332
1238 4 0.328668 0.372458 0.572231
1027 2 0.265739 0.417061 0.574205
803 4 0.365543 0.337471 0.537566
802 2 0.346261 0.350826 0.546226
935 4 0.0541034 0.447113 0.541081
934 2 0.065103 0.459464 0.559833
384 4 0.0601686 0.447137 0.520436
382 2 0.0437886 0.454399 0.502997
1135 2 0.159436 0.440224 0.561876
1136 4 0.14695 0.433992 0.582624
538 2 0.196159 0.480553 0.544375
540 4 0.180949 0.462035 0.551511
1172 4 0.261336 0.440652 0.551805
1137 4 0.171921 0.446456 0.541129
1028 4 0.250604 0.425423 0.556144
1173 4 0.277177 0.477475 0.521907
1171 2 0.269257 0.459063 0.536856
1401 4 0.286182 0.494993 0.515903
928 2 0.356972 0.508908 0.509927
1001 4 0.477962 0.46512 0.542775
926 4 0.497304 0.467135 0.541489
1000 2 0.459156 0.481499 0.544582
1002 4 0.440351 0.497878 0.54639
3131 4 0.00791335 0.02543 0.613435
3082 2 0.0307817 0.0371503 0.638267
3083 4 0.0430645 0.0338572 0.659795
3084 4 0.0184989 0.0404435 0.616739
3078 4 0.0541572 0.069752 0.608868
3076 2 0.0325692 0.0790173 0.600308
1032 4 0.299368 0.0449513 0.625589
1142 4 0.2801 0.0495988 0.630916
1141 2 0.277199 0.0707114 0.643994
1030 2 0.313564 0.0246113 0.628743
1031 4 0.32776 0.00427136 0.631897
1143 4 0.274299 0.091824 0.657071
2241 4 0.341438 0.995229 0.621488
1004 4 0.388239 0.0194572 0.642173
1003 2 0.374608 0.0355929 0.655553
89 3 0.358333 0.00177782 0.615378
843 4 0.403943 0.0214415 0.629744
86 1 0.364822 0.00523674 0.59337
841 2 0.419625 0.0177464 0.610624
1060 2 0.475918 0.028681 0.586316
1163 4 0.449972 0.00466967 0.666642
842 4 0.435308 0.0140513 0.591503
1062 4 0.50035 0.0326758 0.582809
3077 4 0.0109811 0.0882827 0.591747
1184 4 0.00647095 0.0749432 0.57723
2319 4 0.236278 0.106616 0.587232
1284 4 0.228789 0.124862 0.594461
1282 2 0.223198 0.117307 0.61763
1283 4 0.217607 0.109751 0.6408
1155 4 0.222035 0.102182 0.657478
886 2 0.304393 0.118246 0.640207
888 4 0.317572 0.138258 0.633065
887 4 0.291215 0.0982335 0.647349
953 4 0.32149 0.146201 0.650034
906 4 0.485059 0.135758 0.625282
1011 4 0.483283 0.131844 0.644858
1009 2 0.474491 0.116197 0.662266
3043 2 0.0281535 0.241376 0.59197
3044 4 0.0135428 0.221455 0.588119
347 4 0.143919 0.239477 0.603301
1212 4 0.248235 0.213742 0.651685
1210 2 0.223787 0.218228 0.654398
1211 4 0.199339 0.222713 0.657112
857 4 0.278399 0.173018 0.569879
410 4 0.261179 0.209705 0.666082
792 4 0.359245 0.241815 0.603551
952 2 0.331838 0.166169 0.639108
899 4 0.367004 0.223888 0.598882
954 4 0.342185 0.186138 0.628182
3045 4 0.0427642 0.261298 0.595822
2812 2 0.0202612 0.309567 0.586572
2813 4 0.0156847 0.304615 0.610649
1191 4 0.15947 0.306082 0.593888
897 4 0.161246 0.306553 0.614204
895 2 0.145181 0.313732 0.631969
896 4 0.129117 0.32091 0.649734
791 4 0.384566 0.28305 0.590931
790 2 0.371905 0.262433 0.597241
1239 4 0.299652 0.401842 0.600433
1029 4 0.280874 0.4087 0.592265
3323 4 0.503014 0.337892 0.600612
3370 2 0.498143 0.364683 0.631436
3371 4 0.499208 0.355315 0.608278
936 4 0.0761026 0.471815 0.578585
1981 2 0.0508564 0.48262 0.638657
1983 4 0.0344192 0.476681 0.656538
2130 4 0.0167554 0.485614 0.656902
1982 4 0.0672937 0.488559 0.620776
1040 4 0.0870076 0.464231 0.594463
1039 2 0.10978 0.454015 0.592973
1041 4 0.132552 0.443798 0.591483
2171 4 0.0848877 0.496451 0.616171
881 4 0.334925 0.501712 0.584854
891 4 0.322269 0.465727 0.632951
889 2 0.32157 0.461349 0.657558
1952 4 0.350815 0.490074 0.585671
1951 2 0.345088 0.47581 0.605392
1953 4 0.33936 0.461545 0.625112
2990 4 0.033494 0.0488023 0.667484
2989 2 0.0459044 0.062697 0.68416
2991 4 0.0583147 0.0765918 0.700837
864 4 0.0766655 0.0722597 0.708292
863 4 0.116799 0.0512551 0.729478
862 2 0.0967322 0.0617574 0.718885
944 4 0.107822 0.0409478 0.743873
1092 4 0.324028 0.065316 0.736242
950 4 0.323346 0.0612332 0.716542
949 2 0.340394 0.05134 0.701158
951 4 0.357442 0.0414468 0.685773
1005 4 0.360978 0.0517287 0.668933
1216 2 0.389226 0.0260777 0.722711
1217 4 0.395292 0.017484 0.700027
1164 4 0.415063 0.0182605 0.699768
1162 2 0.432518 0.0114651 0.683205
1213 2 0.0287507 0.151563 0.757722
1214 4 0.0243874 0.127641 0.763542
1131 4 0.125389 0.124056 0.753719
1129 2 0.117676 0.113332 0.73249
1130 4 0.109964 0.102608 0.71126
1153 2 0.226927 0.121639 0.672401
1154 4 0.23182 0.141095 0.687324
1299 4 0.228915 0.158262 0.696884
1086 4 0.328985 0.16608 0.740277
1025 4 0.450184 0.102853 0.744275
1024 2 0.459684 0.104417 0.7212
1026 4 0.469185 0.105982 0.698124
1010 4 0.465699 0.100549 0.679674
850 2 0.0755081 0.171408 0.72323
852 4 0.0596429 0.158424 0.708915
1215 4 0.033114 0.175485 0.751903
1179 4 0.0403469 0.192892 0.74559
1177 2 0.0438846 0.217499 0.748272
1082 4 0.994308 0.214894 0.701135
851 4 0.0913734 0.184392 0.737544
946 2 0.121556 0.212789 0.725429
1260 4 0.151735 0.229977 0.701846
947 4 0.107901 0.194774 0.736117
948 4 0.13521 0.230803 0.714742
1258 2 0.173196 0.227422 0.689273
1259 4 0.194656 0.224867 0.676699
1085 4 0.280688 0.169945 0.727898
409 2 0.27224 0.228033 0.679001
1297 2 0.248319 0.169917 0.707505
411 4 0.283302 0.246361 0.69192
1298 4 0.267724 0.181572 0.718127
1084 2 0.304837 0.168012 0.734087
978 4 0.343214 0.180131 0.737088
976 2 0.367316 0.182737 0.743209
1193 4 0.403889 0.173136 0.740398
977 4 0.391419 0.185343 0.74933
1192 2 0.421709 0.175923 0.723082
1194 4 0.439529 0.17871 0.705766
1261 2 0.477739 0.187147 0.700155
1262 4 0.45466 0.190192 0.709279
3123 4 0.496391 0.198287 0.676063
3037 2 0.997841 0.301095 0.719458
3039 4 0.994807 0.277646 0.727592
3386 4 0.00699022 0.267223 0.739343
992 4 0.126681 0.31703 0.669469
991 2 0.120224 0.324476 0.692448
993 4 0.113766 0.331922 0.715427
1208 4 0.0935398 0.275258 0.745473
3328 2 0.390509 0.31083 0.699951
3329 4 0.405781 0.293912 0.689669
1043 4 0.3557 0.329963 0.708201
3419 4 0.996369 0.345462 0.712771
3418 2 0.0149544 0.362155 0.713826
1281 4 0.0486356 0.387687 0.723265
1279 2 0.0532459 0.394896 0.746759
3420 4 0.0335393 0.378849 0.714882
1068 4 0.130419 0.335676 0.726169
1066 2 0.131554 0.360229 0.730756
1096 2 0.176706 0.414634 0.716281
1097 4 0.19991 0.405321 0.716181
1276 2 0.23949 0.38732 0.704207
1278 4 0.217188 0.397535 0.709048
797 4 0.259393 0.35773 0.705182
1277 4 0.261792 0.377104 0.699366
798 4 0.289879 0.3208 0.719586
796 2 0.274636 0.339265 0.712384
1044 4 0.30579 0.327431 0.710019
3330 4 0.375237 0.327749 0.710232
1042 2 0.330745 0.328697 0.70911
1007 4 0.49629 0.36293 0.670393
3181 2 0.436903 0.395322 0.742856
3182 4 0.441793 0.395248 0.718335
2128 2 0.00466524 0.480204 0.678109
941 4 0.142474 0.423008 0.732566
940 2 0.140553 0.440523 0.750307
1098 4 0.153502 0.423947 0.71638
2214 4 0.300026 0.429015 0.732422
2212 2 0.282458 0.441158 0.745425
890 4 0.320871 0.456971 0.682166
1205 4 0.327704 0.450288 0.7003
1204 2 0.347126 0.451381 0.71601
1206 4 0.366547 0.452473 0.731719
1139 4 0.361877 0.453209 0.751152
1249 2 0.488453 0.490371 0.743068
1251 4 0.464255 0.496662 0.743366
1107 4 0.0372653 0.0708617 0.770086
1285 2 0.0110026 0.0504233 0.822266
1203 4 0.0388235 0.0510971 0.789369
1201 2 0.0634741 0.0523565 0.793362
1287 4 0.0218454 0.0530808 0.799893
2049 4 0.00721845 0.00251225 0.751473
945 4 0.148715 0.0225853 0.766038
943 2 0.128268 0.0317666 0.754956
1202 4 0.0881247 0.053616 0.797354
831 4 0.0994793 0.0689756 0.794858
2255 4 0.160155 0.0184159 0.78211
1090 2 0.31255 0.0538321 0.755257
1091 4 0.301071 0.0423482 0.774271
1049 4 0.289993 0.0403879 0.790003
1048 2 0.294699 0.0167315 0.796592
960 4 0.317025 0.0741279 0.827882
1218 4 0.38316 0.0346714 0.745394
966 4 0.377777 0.0180378 0.754414
2322 4 0.361985 0.0229835 0.816065
964 2 0.375864 0.0242462 0.778559
965 4 0.373951 0.0304547 0.802703
1995 4 0.463909 0.0173447 0.787083
1994 4 0.497734 0.0378597 0.817673
1993 2 0.480821 0.0276022 0.802378
1106 4 0.0355758 0.120267 0.777632
1105 2 0.0364206 0.0955645 0.773859
829 2 0.112921 0.0849709 0.781122
830 4 0.126362 0.100966 0.767387
909 4 0.138671 0.124918 0.768738
907 2 0.15777 0.130239 0.783974
908 4 0.176868 0.13556 0.799209
1148 4 0.184832 0.13204 0.816701
840 4 0.220904 0.14481 0.786921
838 2 0.242445 0.132119 0.78663
1023 4 0.315829 0.0777343 0.808436
839 4 0.263986 0.119428 0.786338
1022 4 0.27945 0.108079 0.792421
1021 2 0.29764 0.0929065 0.800429
3425 4 0.4401 0.0887428 0.753395
3424 2 0.445864 0.0936809 0.777218
3426 4 0.451629 0.0986191 0.801042
45 3 0.447358 0.102154 0.821111
1144 2 0.488888 0.142353 0.818793
1178 4 0.0474223 0.242105 0.750954
2978 4 0.503382 0.170947 0.800432
1209 4 0.0475681 0.260839 0.758867