ITEM: TIMESTEP
2910000
ITEM: NUMBER OF ATOMS
4590
ITEM: BOX BOUNDS pp pp pp
-9.9985700000000008e+00 9.9985700000000008e+00
-9.9985700000000008e+00 9.9985700000000008e+00
-9.9985700000000008e+00 9.9985700000000008e+00
ITEM: ATOMS id type xs ys zs
3232 2 0.0446835 0.0228532 0.0322387
3233 4 0.0230328 0.0105735 0.0346126
3234 4 0.0663342 0.0351329 0.0298648
702 4 0.0753294 0.0490762 0.0420388
2623 2 0.016553 0.0861671 0.0461143
2625 4 4.72615e-06 0.0676191 0.0434114
700 2 0.0882807 0.0700261 0.0463452
2270 4 0.0750666 0.00178371 0.0233443
463 2 0.140917 0.083295 0.0195913
464 4 0.125891 0.0641261 0.0139382
932 4 0.107067 0.0630293 0.00932841
484 2 0.160635 0.00724812 0.0715248
566 4 0.170891 0.037631 0.0780789
565 2 0.178168 0.0606279 0.0846644
556 2 0.403533 0.0272539 0.0667298
557 4 0.390972 0.014798 0.0490588
558 4 0.416093 0.0397097 0.0844009
491 4 0.396723 0.00945718 0.0308521
745 2 0.466385 0.0544318 0.0464103
747 4 0.472687 0.0412564 0.066705
746 4 0.460083 0.0676071 0.0261156
2976 4 0.494753 0.0378611 0.0721024
1607 4 0.452921 0.0687248 0.00672745
655 2 0.0413908 0.144203 0.0448309
656 4 0.0390561 0.120023 0.038909
2624 4 0.0331013 0.104715 0.0488172
657 4 0.0437256 0.168382 0.0507527
701 4 0.101232 0.0909759 0.0506517
450 4 0.115688 0.103188 0.0558928
448 2 0.135687 0.111056 0.0686726
449 4 0.155686 0.118923 0.0814523
915 4 0.172718 0.12781 0.0789991
554 4 0.163915 0.118232 0.0137475
465 4 0.155943 0.102464 0.0252444
553 2 0.150467 0.132185 0.997947
355 2 0.216688 0.106471 0.0612133
357 4 0.240657 0.102861 0.0673465
913 2 0.175784 0.149581 0.0909058
356 4 0.192718 0.110081 0.0550801
572 4 0.27574 0.151902 0.0415461
571 2 0.264154 0.130461 0.0471342
573 4 0.252568 0.10902 0.0527223
360 4 0.28404 0.153217 0.0219782
358 2 0.301913 0.161651 0.00666125
738 4 0.0572699 0.182885 0.0465477
736 2 0.0720551 0.194955 0.0303958
737 4 0.0868404 0.207025 0.0142439
836 4 0.0908391 0.19416 0.000342946
456 4 0.133328 0.248772 0.0231279
294 4 0.132675 0.229607 0.020346
2806 2 0.0635382 0.272436 0.0196574
2807 4 0.0808561 0.272148 0.0376904
2808 4 0.0462204 0.272725 0.00162445
477 4 0.0897377 0.265247 0.0546025
475 2 0.0876019 0.262871 0.0794011
454 2 0.144129 0.263607 0.0401114
286 2 0.154798 0.312057 0.0728193
287 4 0.156736 0.298733 0.0517501
455 4 0.15493 0.278442 0.0570949
903 4 0.240981 0.310696 0.0396745
901 2 0.251326 0.291817 0.0269566
482 4 0.230181 0.332422 0.995088
902 4 0.26167 0.272938 0.0142387
296 4 0.260326 0.257972 0.998835
526 2 0.383941 0.298129 0.0635114
527 4 0.401558 0.301838 0.0461608
2840 4 0.420821 0.307778 0.0545634
2839 2 0.441827 0.312049 0.0416907
2841 4 0.462832 0.31632 0.0288181
2513 4 0.0455923 0.378913 0.0451684
329 4 0.0489661 0.365948 0.0317072
328 2 0.0641583 0.37826 0.0161255
2512 2 0.0296591 0.382979 0.064004
2514 4 0.0137258 0.387045 0.0828395
969 4 0.277576 0.368923 0.064286
1122 4 0.324717 0.353733 0.0542007
967 2 0.276902 0.380072 0.0866558
1121 4 0.34326 0.327636 0.015784
1120 2 0.333988 0.340685 0.0349923
1071 4 0.340027 0.347968 0.0672098
14 3 0.352546 0.381162 0.0502246
15 3 0.349904 0.415252 0.0659892
11 1 0.357068 0.403777 0.0476687
596 4 0.399722 0.408604 0.0449772
672 4 0.475318 0.328737 0.0186701
670 2 0.482398 0.352171 0.0237579
671 4 0.489479 0.375605 0.0288457
323 4 0.498518 0.393712 0.030871
322 2 0.505733 0.417636 0.0317319
1710 4 0.0689615 0.483598 0.0615088
2985 4 0.066551 0.487503 0.0423656
2983 2 0.0801682 0.477619 0.023871
2984 4 0.0937854 0.467735 0.00537636
494 4 0.228365 0.423351 0.0658706
493 2 0.227508 0.42436 0.040902
495 4 0.226652 0.425369 0.0159335
242 4 0.235861 0.432615 0.999392
13 3 0.34653 0.411861 0.0286426
12 3 0.37978 0.406605 0.0453598
595 2 0.406921 0.423555 0.0636801
2803 2 0.485698 0.472985 0.0256427
2805 4 0.467082 0.48935 0.0289318
2804 4 0.504314 0.45662 0.0223537
597 4 0.41412 0.438507 0.082383
1157 4 0.45662 0.495858 0.0125012
380 4 0.996558 0.0194489 0.149124
485 4 0.152152 0.0306775 0.0735956
723 4 0.250666 0.0838895 0.138398
691 2 0.281114 0.0680931 0.146904
1505 4 0.305845 0.0417568 0.134837
692 4 0.303982 0.0617101 0.139062
1504 2 0.330525 0.0379497 0.136089
254 4 0.401825 0.04512 0.0985729
253 2 0.382874 0.0481654 0.114597
255 4 0.363924 0.0512108 0.130621
1506 4 0.355206 0.0341427 0.13734
21 1 0.466027 0.0506844 0.102839
25 3 0.480324 0.0420231 0.087372
24 3 0.444131 0.0485182 0.0954688
23 3 0.468686 0.0397021 0.123105
771 4 0.472951 0.0568619 0.134199
22 3 0.470698 0.0730114 0.10581
2758 2 0.0708191 0.111999 0.130619
2760 4 0.0629243 0.0910854 0.14182
705 4 0.0865044 0.148838 0.108986
2759 4 0.0787139 0.132913 0.119418
577 2 0.140843 0.159195 0.147352
579 4 0.154773 0.138435 0.146969
703 2 0.0974423 0.170897 0.104634
567 4 0.185445 0.0836247 0.0912499
721 2 0.231222 0.0935591 0.150792
722 4 0.211778 0.103229 0.163186
693 4 0.258246 0.0744761 0.154746
2894 4 0.473484 0.0925762 0.106541
2893 2 0.48741 0.113231 0.108681
756 4 0.0660739 0.252652 0.159812
396 4 0.073246 0.245747 0.177404
578 4 0.126913 0.179955 0.147734
507 4 0.10906 0.185104 0.143921
462 4 0.119955 0.205839 0.110906
704 4 0.10838 0.192956 0.100282
460 2 0.1312 0.219445 0.128615
461 4 0.142445 0.233051 0.146324
623 4 0.161773 0.239436 0.142004
754 2 0.0810859 0.258284 0.140626
914 4 0.17885 0.171353 0.102813
581 4 0.18272 0.189619 0.0995529
580 2 0.207371 0.193708 0.0986767
582 4 0.232023 0.197798 0.0978004
622 2 0.167629 0.243304 0.166003
278 4 0.247315 0.205446 0.0859181
279 4 0.291946 0.201932 0.108197
277 2 0.269631 0.203689 0.0970577
732 4 0.309565 0.209895 0.114766
730 2 0.3143 0.214625 0.138857
2875 2 0.496101 0.182511 0.141781
2877 4 0.475443 0.168495 0.140363
288 4 0.152861 0.32538 0.0938885
755 4 0.0960979 0.263917 0.12144
476 4 0.0854661 0.260494 0.1042
528 4 0.366323 0.29442 0.080862
518 4 0.370181 0.274857 0.0850044
309 4 0.365963 0.265458 0.154325
519 4 0.368069 0.2668 0.134313
517 2 0.369125 0.270828 0.109659
2652 4 0.382353 0.331376 0.106295
2650 2 0.40136 0.333661 0.122379
629 4 0.427791 0.254308 0.144132
377 4 0.444068 0.26478 0.139586
378 4 0.446871 0.309626 0.117638
376 2 0.44547 0.287203 0.128612
2093 4 0.0613359 0.36605 0.102141
2092 2 0.0653158 0.3672 0.126799
252 4 0.164614 0.340486 0.101017
250 2 0.153145 0.344963 0.122779
362 4 0.0889184 0.365203 0.153004
2094 4 0.0692957 0.36835 0.151457
251 4 0.141676 0.34944 0.144541
525 4 0.216834 0.416287 0.0805814
968 4 0.276228 0.391222 0.109026
612 4 0.300442 0.373562 0.130065
609 4 0.307564 0.382977 0.145563
610 2 0.279702 0.37004 0.143578
607 2 0.324652 0.399267 0.137328
611 4 0.258962 0.366518 0.157092
741 4 0.392436 0.397871 0.0910761
1069 2 0.358354 0.349053 0.084184
1070 4 0.376681 0.350139 0.101158
740 4 0.349296 0.413219 0.11118
739 2 0.370866 0.405545 0.101128
2651 4 0.420367 0.335946 0.138463
2538 4 0.433086 0.351402 0.140983
2536 2 0.436222 0.369294 0.158165
1708 2 0.057555 0.490334 0.0827148
413 4 0.017375 0.432864 0.146266
1709 4 0.0461485 0.497071 0.103921
523 2 0.224493 0.429473 0.100397
524 4 0.232152 0.442659 0.120212
768 4 0.244665 0.457644 0.126309
766 2 0.247832 0.476118 0.109761
767 4 0.250998 0.494592 0.093212
608 4 0.341739 0.415557 0.129093
659 4 0.430728 0.446912 0.0926888
658 2 0.445903 0.462605 0.104881
660 4 0.461078 0.478297 0.117073
3704 4 0.473576 0.494171 0.118535
3703 2 0.492681 0.483878 0.130954
2850 4 0.159367 0.0342862 0.215555
2848 2 0.168995 0.0505904 0.231885
429 4 0.2223 0.00138351 0.216109
2849 4 0.178623 0.0668946 0.248214
743 4 0.455173 0.0172747 0.18748
742 2 0.460693 0.0405609 0.194724
744 4 0.466212 0.0638472 0.201967
432 4 0.479113 0.068766 0.215803
513 4 0.0644298 0.139255 0.223167
236 4 0.165912 0.137576 0.16383
237 4 0.200189 0.104792 0.179672
235 2 0.183051 0.121184 0.171751
758 4 0.387383 0.117696 0.195454
757 2 0.407702 0.128044 0.185195
759 4 0.428021 0.138391 0.174937
430 2 0.466802 0.0851641 0.230111
431 4 0.454491 0.101562 0.244419
511 2 0.0426979 0.151223 0.226277
506 4 0.0803904 0.190574 0.184527
512 4 0.020966 0.163191 0.229386
530 4 0.0743438 0.205677 0.19853
529 2 0.0873702 0.202615 0.219651
531 4 0.100397 0.199553 0.240773
505 2 0.094725 0.187839 0.164224
283 2 0.176557 0.229951 0.220598
285 4 0.168442 0.210132 0.233503
545 4 0.174673 0.191269 0.239715
731 4 0.319035 0.219355 0.162948
29 3 0.297966 0.162382 0.224231
26 1 0.297589 0.179341 0.240064
27 3 0.318221 0.180545 0.250163
604 2 0.306499 0.22132 0.203655
606 4 0.308877 0.226247 0.179257
605 4 0.304122 0.216393 0.228053
28 3 0.293062 0.199655 0.229806
30 3 0.281767 0.174901 0.255831
331 2 0.394897 0.238251 0.228423
632 4 0.414111 0.206359 0.250301
630 4 0.40471 0.225558 0.177917
628 2 0.41625 0.239933 0.161024
395 4 0.0370246 0.249998 0.211619
2694 4 0.01659 0.32424 0.233208
300 4 0.0313898 0.313583 0.224006
298 2 0.0369024 0.289196 0.224287
299 4 0.0424151 0.26481 0.224568
394 2 0.0551353 0.247873 0.194512
284 4 0.184672 0.249771 0.207694
624 4 0.173484 0.247172 0.190002
497 4 0.327459 0.299665 0.249789
496 2 0.332582 0.296173 0.225567
498 4 0.337706 0.292682 0.201344
308 4 0.33573 0.273949 0.193242
333 4 0.388613 0.255108 0.211059
307 2 0.350847 0.269704 0.173784
535 2 0.00249571 0.402317 0.220377
536 4 0.0105333 0.409968 0.242783
361 2 0.100234 0.374705 0.173175
363 4 0.111549 0.384207 0.193346
417 4 0.112512 0.377321 0.211912
415 2 0.12926 0.369251 0.228632
416 4 0.146007 0.361181 0.245353
344 4 0.268667 0.375025 0.223157
345 4 0.266121 0.363396 0.174588
343 2 0.267394 0.369211 0.198873
645 4 0.280334 0.369804 0.239294
643 2 0.302124 0.357544 0.239537
644 4 0.323914 0.345284 0.23978
2862 4 0.39427 0.380052 0.237425
2860 2 0.391792 0.398283 0.254356
713 4 0.413667 0.379718 0.231032
2537 4 0.439357 0.387186 0.175348
714 4 0.446284 0.390557 0.194709
712 2 0.429975 0.385138 0.212871
107 3 0.498205 0.385167 0.23825
412 2 0.00849153 0.446646 0.165141
414 4 0.999608 0.460429 0.184017
1775 4 0.0184584 0.429519 0.242127
1788 4 0.140118 0.472534 0.217382
338 4 0.136464 0.458397 0.231136
337 2 0.153022 0.449647 0.247702
1786 2 0.135285 0.496549 0.22239
290 4 0.191938 0.422353 0.20358
291 4 0.225506 0.438187 0.170066
289 2 0.208722 0.43027 0.186823
627 4 0.24274 0.436604 0.177564
339 4 0.16958 0.440898 0.264269
729 4 0.188793 0.433826 0.265543
626 4 0.290783 0.43677 0.191438
625 2 0.266762 0.436687 0.184501
246 4 0.298535 0.45072 0.179847
244 2 0.312419 0.47064 0.185817
245 4 0.326303 0.490559 0.191786
1714 2 0.448936 0.492254 0.243401
1716 4 0.453437 0.467675 0.242517
317 4 0.0344546 0.005623 0.327264
393 4 0.196807 0.0711506 0.252889
391 2 0.221268 0.0682772 0.257203
392 4 0.245728 0.0654037 0.261517
404 4 0.244789 0.0795867 0.276153
249 4 0.26671 0.00521503 0.263783
1699 2 0.281796 0.0184391 0.299428
403 2 0.256055 0.0848915 0.297835
1701 4 0.294768 0.019198 0.32079
468 4 0.298678 0.029329 0.3376
1496 4 0.441776 0.0159669 0.261106
1495 2 0.438767 0.00381075 0.282748
469 2 0.0620063 0.15137 0.315824
471 4 0.0787081 0.15378 0.297373
1270 2 0.077967 0.0980675 0.317814
1272 4 0.0920502 0.0990799 0.297179
458 4 0.0873738 0.155986 0.279904
350 4 0.22595 0.169441 0.26173
349 2 0.24924 0.166267 0.270257
405 4 0.267321 0.0901962 0.319518
351 4 0.272529 0.163093 0.278783
516 4 0.289689 0.174639 0.276268
514 2 0.3033 0.158349 0.28948
515 4 0.316911 0.142059 0.302691
2910 4 0.323373 0.132223 0.319196
698 4 0.504171 0.101719 0.259324
521 4 0.441633 0.15324 0.276603
522 4 0.483265 0.129493 0.290872
420 4 0.493941 0.123724 0.306926
418 2 0.504137 0.121314 0.329628
520 2 0.462449 0.141367 0.283737
459 4 0.0949269 0.201017 0.25951
457 2 0.0911504 0.178502 0.269707
546 4 0.213843 0.183399 0.26979
544 2 0.194258 0.187334 0.254753
748 2 0.231058 0.231075 0.296868
750 4 0.233164 0.215771 0.316528
389 4 0.226471 0.218925 0.335163
332 4 0.40118 0.221394 0.245788
631 2 0.424805 0.184297 0.255208
633 4 0.435499 0.162235 0.260115
749 4 0.228953 0.246379 0.277207
618 4 0.21068 0.254504 0.284879
617 4 0.182804 0.295353 0.292291
616 2 0.196742 0.274929 0.288585
365 4 0.192288 0.312308 0.287331
364 2 0.211831 0.327396 0.291285
510 4 0.322289 0.298481 0.332257
765 4 0.33056 0.308743 0.315155
764 4 0.318239 0.298103 0.267872
763 2 0.3244 0.303423 0.291514
433 2 0.256212 0.334168 0.325304
613 2 0.399369 0.33048 0.297078
615 4 0.41354 0.325092 0.316961
1639 2 0.0512322 0.393727 0.286803
1640 4 0.065483 0.383925 0.304859
1641 4 0.0369814 0.403529 0.268747
2655 4 0.0679741 0.363485 0.307849
733 2 0.143185 0.348228 0.280426
2654 4 0.115447 0.358261 0.293023
734 4 0.130009 0.347642 0.301668
2653 2 0.0917104 0.360873 0.300436
735 4 0.156361 0.348813 0.259184
602 4 0.196592 0.389901 0.306369
601 2 0.192038 0.370271 0.321171
366 4 0.231373 0.342484 0.295239
603 4 0.187484 0.35064 0.335972
728 4 0.196818 0.408991 0.308199
434 4 0.235751 0.330743 0.311347
275 4 0.3331 0.348429 0.257696
614 4 0.385197 0.335868 0.277195
276 4 0.378833 0.328397 0.260517
274 2 0.355967 0.338413 0.259107
2924 4 0.426884 0.331951 0.331212
1776 4 0.0176491 0.441048 0.29078
1774 2 0.0180537 0.435284 0.266454
3671 4 0.131919 0.496032 0.320014
3670 2 0.152352 0.504576 0.30841
727 2 0.192806 0.421408 0.286871
677 4 0.1854 0.498196 0.303821
676 2 0.207516 0.487793 0.298545
678 4 0.229632 0.47739 0.293269
375 4 0.247464 0.487374 0.294678
373 2 0.262451 0.484638 0.314505
374 4 0.277437 0.481901 0.334332
1471 2 0.41879 0.446252 0.255944
1575 4 0.326929 0.478593 0.260555
1574 4 0.348433 0.471901 0.305203
1473 4 0.400323 0.429902 0.260046
2861 4 0.389315 0.416514 0.271287
1573 2 0.337681 0.475247 0.282879
1472 4 0.437257 0.462603 0.251841
542 4 0.482719 0.472556 0.326854
467 4 0.308842 0.997687 0.374966
466 2 0.30376 0.0135082 0.356283
2642 4 0.340334 0.0700901 0.406174
1516 2 0.44798 0.994666 0.404354
1517 4 0.43953 0.00592019 0.383687
762 4 0.436739 0.0839783 0.368254
2879 4 0.436055 0.0662338 0.378793
2878 2 0.430072 0.0419869 0.380003
2880 4 0.424088 0.0177401 0.381212
2718 4 0.00922356 0.13329 0.377989
470 4 0.0453046 0.148959 0.334274
1220 4 0.0678841 0.110105 0.35372
2716 2 0.0273461 0.144832 0.365201
1219 2 0.0654082 0.103303 0.377652
1221 4 0.0629322 0.0965016 0.401585
2717 4 0.0454687 0.156374 0.352413
1271 4 0.0638837 0.0970552 0.338449
479 4 0.321274 0.133068 0.415523
478 2 0.324894 0.108349 0.41451
650 4 0.318631 0.151776 0.409303
649 2 0.297329 0.161872 0.417638
480 4 0.328514 0.0836292 0.413497
2656 2 0.382167 0.140647 0.369603
760 2 0.419861 0.097503 0.380799
2658 4 0.392854 0.120088 0.379
761 4 0.402982 0.111028 0.393345
2908 2 0.340991 0.144274 0.332218
2657 4 0.371479 0.161206 0.360207
2909 4 0.358609 0.156324 0.345239
419 4 0.514333 0.118904 0.352331
2501 4 0.454089 0.115347 0.424435
341 4 0.0703988 0.187388 0.374045
2613 4 0.0523348 0.196729 0.377567
2611 2 0.0403039 0.210402 0.394698
2612 4 0.028273 0.224075 0.41183
2847 4 0.0329539 0.242569 0.413599
340 2 0.0942593 0.189567 0.381194
342 4 0.11812 0.191746 0.388343
824 4 0.13281 0.19923 0.400378
823 2 0.146801 0.215856 0.412748
388 2 0.20987 0.221612 0.353666
390 4 0.19327 0.2243 0.37217
707 4 0.272816 0.259233 0.402046
706 2 0.295215 0.256973 0.391167
708 4 0.317614 0.254713 0.380289
634 2 0.199273 0.298702 0.364272
636 4 0.181519 0.284625 0.353695
635 4 0.217026 0.312778 0.374848
668 4 0.213863 0.305541 0.394046
372 4 0.257999 0.256038 0.415166
508 2 0.30472 0.313011 0.342521
509 4 0.28715 0.327542 0.352786
717 4 0.329896 0.269929 0.379813
435 4 0.276672 0.337594 0.339261
715 2 0.352367 0.280403 0.383058
716 4 0.374838 0.290877 0.386304
487 2 0.406337 0.266269 0.396952
488 4 0.393642 0.284056 0.384802
489 4 0.419033 0.248482 0.409103
442 2 0.0702722 0.36586 0.367103
444 4 0.0593104 0.355252 0.386915
548 4 0.024271 0.415914 0.402901
547 2 0.00397929 0.405939 0.413575
443 4 0.081234 0.376468 0.347292
710 4 0.255531 0.384373 0.393929
2925 4 0.411996 0.368043 0.362459
2923 2 0.41944 0.349997 0.346836
117 3 0.423283 0.374303 0.379076
116 1 0.442883 0.375798 0.391023
118 3 0.455402 0.356614 0.387329
119 3 0.454656 0.39445 0.383816
585 4 0.468916 0.40876 0.383017
120 3 0.438028 0.37776 0.413187
2139 4 0.127562 0.49203 0.395497
592 2 0.254766 0.487447 0.416948
594 4 0.254832 0.47162 0.39759
2108 4 0.260709 0.455844 0.386532
2107 2 0.26734 0.459027 0.362635
2109 4 0.273971 0.46221 0.338738
752 4 0.363179 0.509336 0.364979
446 4 0.429311 0.49136 0.37565
336 4 0.449362 0.468939 0.406871
543 4 0.480812 0.478233 0.376501
584 4 0.456027 0.456185 0.392259
583 2 0.462472 0.432472 0.387638
541 2 0.481766 0.475394 0.351678
725 4 0.234331 0.0780241 0.490466
599 4 0.327512 0.0349653 0.435902
598 2 0.334894 0.01125 0.438776
2643 4 0.384025 0.0575537 0.427023
2641 2 0.362179 0.0638219 0.416599
841 2 0.452208 0.0741556 0.493095
939 4 0.0681846 0.113799 0.411207
937 2 0.0726656 0.121852 0.434451
938 4 0.0771466 0.129904 0.457694
1034 4 0.0655332 0.145672 0.463016
1033 2 0.045204 0.156287 0.472977
1035 4 0.0248748 0.166902 0.482938
724 2 0.226668 0.099652 0.480531
726 4 0.219006 0.12128 0.470596
473 4 0.199286 0.123982 0.474444
472 2 0.194359 0.145912 0.463492
474 4 0.189432 0.167843 0.45254
858 4 0.281704 0.162048 0.493888
684 4 0.380994 0.0714062 0.440283
682 2 0.392131 0.0672915 0.462288
683 4 0.403267 0.0631769 0.484293
1031 4 0.403071 0.102816 0.489066
2502 4 0.430821 0.0992383 0.465665
843 4 0.437145 0.0813834 0.474493
2500 2 0.442455 0.107292 0.44505
452 4 0.4953 0.17396 0.436434
825 4 0.160791 0.232481 0.425119
367 2 0.163454 0.236469 0.461797
368 4 0.152646 0.234972 0.484294
696 4 0.138741 0.247404 0.493049
9 3 0.155509 0.216978 0.490573
370 2 0.241842 0.236956 0.41504
369 4 0.174262 0.237967 0.4393
371 4 0.225685 0.217875 0.414915
401 4 0.235092 0.201028 0.419796
400 2 0.21868 0.184398 0.428699
402 4 0.202267 0.167769 0.437603
651 4 0.276027 0.171968 0.425973
857 4 0.272083 0.172252 0.445888
856 2 0.276894 0.16715 0.469888
640 2 0.350539 0.21209 0.481101
641 4 0.343852 0.231643 0.467024
812 4 0.333432 0.248773 0.470059
642 4 0.357227 0.192538 0.495177
267 4 0.437328 0.243377 0.412397
265 2 0.453273 0.237742 0.430814
451 2 0.486536 0.194903 0.44691
453 4 0.477772 0.215846 0.457387
266 4 0.469219 0.232108 0.44923
2846 4 0.0471997 0.28736 0.430675
2845 2 0.0400768 0.264964 0.422137
260 4 0.0646938 0.285615 0.442022
259 2 0.0778349 0.289338 0.462965
261 4 0.0909759 0.29306 0.483909
694 2 0.120984 0.264975 0.494094
695 4 0.103227 0.282547 0.49514
667 2 0.221996 0.304767 0.417677
669 4 0.230129 0.303992 0.441308
873 4 0.243204 0.310478 0.455559
871 2 0.260986 0.295448 0.464672
872 4 0.278768 0.280417 0.473785
813 4 0.296369 0.282213 0.467092
811 2 0.3149 0.265493 0.468576
773 4 0.179531 0.372469 0.471576
711 4 0.24838 0.404073 0.439333
772 2 0.194008 0.375008 0.491804
709 2 0.251955 0.394223 0.416631
2137 2 0.115972 0.488204 0.417319
2138 4 0.104381 0.484378 0.439141
568 2 0.100616 0.472865 0.478874
569 4 0.0978414 0.478054 0.454573
1173 4 0.253721 0.47237 0.482854
593 4 0.2547 0.503273 0.436305
327 4 0.255974 0.45387 0.47737
326 4 0.248299 0.423785 0.438169
325 2 0.252136 0.438828 0.457769
335 4 0.454668 0.47981 0.455394
334 2 0.452015 0.474374 0.431133
240 4 0.450162 0.47771 0.474951
238 2 0.437775 0.459189 0.486296
1151 4 0.223974 0.0239646 0.534526
1182 4 0.238225 0.0371972 0.536142
1180 2 0.241279 0.0483125 0.513954
1150 2 0.210943 0.00273223 0.532389
3157 2 0.303346 0.0344754 0.559607
3158 4 0.314503 0.0440833 0.539399
3159 4 0.29219 0.0248676 0.579816
575 4 0.326702 0.054815 0.550929
962 4 0.252291 0.0155823 0.581717
1181 4 0.244332 0.0594279 0.491766
574 2 0.350482 0.0612403 0.555216
842 4 0.467272 0.0669278 0.511697
982 2 0.998788 0.142479 0.505881
983 4 0.0194827 0.153139 0.496754
320 4 0.293518 0.168621 0.508925
1032 4 0.389489 0.0870576 0.53454
1030 2 0.39628 0.0949368 0.511803
576 4 0.374263 0.0676657 0.559503
1142 4 0.403678 0.0777353 0.564829
6 1 0.14849 0.221281 0.512267
7 3 0.134597 0.204268 0.5191
10 3 0.137118 0.240999 0.512988
8 3 0.166804 0.222179 0.526487
348 4 0.185717 0.216126 0.52901
346 2 0.201288 0.233122 0.538699
319 2 0.317357 0.175524 0.505887
321 4 0.341196 0.182426 0.502849
2508 4 0.492987 0.235927 0.517903
3308 4 0.478598 0.225985 0.527458
3307 2 0.455244 0.227838 0.536193
3309 4 0.431889 0.229691 0.544928
879 4 0.0192124 0.2919 0.575855
3045 4 0.0379886 0.29271 0.577181
1260 4 0.149112 0.249064 0.57472
347 4 0.216858 0.250117 0.548389
1191 4 0.215431 0.266133 0.55905
1189 2 0.21793 0.289547 0.550641
1190 4 0.220428 0.312962 0.542231
270 4 0.431215 0.244105 0.557278
268 2 0.42816 0.26412 0.571949
934 2 0.0343425 0.402943 0.52583
1040 4 0.0740503 0.412649 0.513837
936 4 0.0577023 0.411859 0.525714
935 4 0.0109827 0.394028 0.525946
1039 2 0.0951209 0.406818 0.52597
1041 4 0.116191 0.400987 0.538102
1136 4 0.130128 0.403006 0.550783
1135 2 0.153952 0.407186 0.544449
1394 4 0.213037 0.327949 0.553406
1393 2 0.207679 0.343513 0.534585
1395 4 0.202322 0.359077 0.515764
1137 4 0.177776 0.411367 0.538114
774 4 0.208484 0.377548 0.512031
1237 2 0.299964 0.39363 0.566915
1238 4 0.320311 0.379097 0.566827
804 4 0.337813 0.371774 0.560158
802 2 0.337877 0.35062 0.573489
1239 4 0.279618 0.408162 0.567002
570 4 0.10339 0.467676 0.503175
539 4 0.181033 0.467035 0.507006
538 2 0.183797 0.448364 0.523405
540 4 0.186561 0.429692 0.539803
2243 4 0.184945 0.481095 0.493629
1171 2 0.26195 0.478172 0.505741
1028 4 0.266023 0.472379 0.546582
1172 4 0.270178 0.483974 0.528628
1029 4 0.27539 0.427636 0.566857
1027 2 0.270706 0.450008 0.556719
1979 4 0.353788 0.482267 0.539019
3324 4 0.38275 0.443256 0.586551
239 4 0.425388 0.440669 0.497642
3179 4 0.986897 0.0337933 0.620939
1284 4 0.197385 0.0766257 0.651642
1130 4 0.258331 0.0300979 0.593982
1129 2 0.258388 0.0306574 0.618979
1131 4 0.258445 0.0312169 0.643977
2318 4 0.268513 0.0258067 0.660459
1004 4 0.40395 0.0215095 0.645552
1003 2 0.389334 0.0272931 0.664997
2241 4 0.395372 0.0148251 0.628052
88 3 0.409079 0.0229013 0.615014
87 3 0.42242 0.0250219 0.650087
86 1 0.428236 0.0218291 0.628062
89 3 0.443077 0.0385041 0.621729
1077 4 0.993359 0.150645 0.671762
1282 2 0.199006 0.101115 0.646863
1283 4 0.200626 0.125604 0.642084
1155 4 0.212631 0.141307 0.645472
1212 4 0.177499 0.17002 0.621024
1153 2 0.216825 0.156269 0.665061
1141 2 0.40985 0.0925599 0.583994
887 4 0.428571 0.100512 0.616125
886 2 0.424042 0.0916879 0.639077
1143 4 0.416023 0.107384 0.60316
888 4 0.419513 0.082864 0.66203
3460 2 0.0532193 0.227912 0.624209
3462 4 0.0578774 0.203561 0.627454
1258 2 0.158457 0.241756 0.59673
1211 4 0.173332 0.218456 0.609304
1259 4 0.167801 0.234448 0.618741
1210 2 0.175416 0.194238 0.615164
411 4 0.288407 0.216227 0.64777
409 2 0.307096 0.214758 0.631225
410 4 0.325784 0.21329 0.614679
1085 4 0.28091 0.230358 0.659451
900 4 0.428734 0.173792 0.60751
792 4 0.399902 0.232188 0.596265
790 2 0.386859 0.246285 0.612275
899 4 0.413241 0.218469 0.591242
898 2 0.420988 0.196131 0.599376
3461 4 0.0485612 0.252262 0.620963
3044 4 0.0574654 0.2545 0.602899
3043 2 0.047727 0.273605 0.59004
3418 2 0.0214592 0.287882 0.643866
3420 4 0.0430326 0.300506 0.644512
1281 4 0.0619797 0.30577 0.639679
1279 2 0.0730112 0.299558 0.66124
992 4 0.139809 0.333089 0.661452
897 4 0.159495 0.282455 0.638864
895 2 0.158668 0.304392 0.650832
896 4 0.157842 0.32633 0.662799
803 4 0.337941 0.329467 0.586819
806 4 0.346587 0.314714 0.59784
791 4 0.373816 0.260382 0.628286
805 2 0.359056 0.295749 0.60833
807 4 0.371525 0.276784 0.618819
269 4 0.425105 0.284135 0.58662
1006 2 0.473638 0.382076 0.645499
1007 4 0.465671 0.392148 0.624045
1008 4 0.481605 0.372005 0.666953
3372 4 0.468638 0.411868 0.624516
2130 4 0.114795 0.488487 0.650062
891 4 0.335212 0.482025 0.640027
1953 4 0.337514 0.494713 0.623943
889 2 0.324651 0.468388 0.658129
3322 2 0.402272 0.450249 0.600522
1002 4 0.420538 0.510793 0.605369
3370 2 0.453806 0.43194 0.62299
3371 4 0.438975 0.452012 0.621465
3323 4 0.421793 0.457243 0.614493
926 4 0.467224 0.470827 0.635917
925 2 0.48484 0.469607 0.653619
1000 2 0.438159 0.499113 0.618719
1001 4 0.45578 0.487432 0.63207
2255 4 0.174155 0.059033 0.702246
945 4 0.164594 0.0689671 0.688091
2254 2 0.174901 0.0552626 0.726952
2989 2 0.114571 0.0134242 0.746705
2256 4 0.175646 0.0514922 0.751659
2317 2 0.269974 0.04794 0.671999
1257 4 0.320927 0.0453859 0.727299
1255 2 0.302115 0.0391666 0.74255
1256 4 0.283304 0.0329474 0.757802
2319 4 0.271435 0.0700732 0.683539
965 4 0.327331 0.0263377 0.721434
959 4 0.264436 0.0248485 0.760279
966 4 0.35769 0.0444218 0.68605
964 2 0.34251 0.0353798 0.703742
1005 4 0.374718 0.0330767 0.684442
1026 4 0.411614 0.0448019 0.738954
954 4 0.420571 0.0514427 0.722349
953 4 0.4258 0.0767912 0.679561
952 2 0.423185 0.0641169 0.700955
1107 4 0.00878917 0.16389 0.669158
1106 4 0.0541949 0.149034 0.683934
1105 2 0.031492 0.156462 0.676546
852 4 0.0845751 0.130656 0.739929
1178 4 0.0820877 0.150565 0.73477
943 2 0.148711 0.0868237 0.680738
944 4 0.132829 0.10468 0.673384
917 4 0.143821 0.121889 0.670335
850 2 0.101768 0.114926 0.730867
947 4 0.135045 0.106726 0.730602
851 4 0.118962 0.0991959 0.721804
916 2 0.139672 0.144011 0.681224
918 4 0.135523 0.166134 0.692113
1154 4 0.22102 0.171231 0.684649
950 4 0.282092 0.0872616 0.683335
949 2 0.279939 0.111915 0.686908
951 4 0.277786 0.136568 0.690481
977 4 0.276492 0.16635 0.747908
1194 4 0.441706 0.157472 0.738918
3425 4 0.443434 0.154241 0.758584
1084 2 0.271117 0.214498 0.676116
976 2 0.268615 0.174297 0.725548
1086 4 0.261325 0.198637 0.692781
978 4 0.260738 0.182244 0.703188
1193 4 0.482463 0.173643 0.714876
1192 2 0.462085 0.165557 0.726897
1010 4 0.501472 0.176318 0.710181
152 3 0.0479875 0.327206 0.746409
153 3 0.0432166 0.289931 0.747052
780 4 0.026979 0.279719 0.736937
1280 4 0.0840427 0.293345 0.682801
1066 2 0.105759 0.330684 0.73179
1068 4 0.118969 0.34488 0.716005
1067 4 0.0925496 0.316489 0.747575
1042 2 0.314911 0.286471 0.726121
798 4 0.290874 0.314707 0.720602
1044 4 0.301452 0.300374 0.710286
1043 4 0.328369 0.272569 0.741957
3330 4 0.336222 0.287763 0.751121
991 2 0.136357 0.343973 0.683695
993 4 0.132904 0.354858 0.705939
1277 4 0.270681 0.376196 0.742501
797 4 0.269918 0.358615 0.732161
796 2 0.280396 0.336661 0.726381
1139 4 0.297406 0.40249 0.741374
1206 4 0.299828 0.41764 0.72778
3463 2 0.473494 0.364281 0.71012
3465 4 0.4742 0.361634 0.734973
3464 4 0.472789 0.366929 0.685267
999 4 0.488241 0.369241 0.748148
942 4 0.133762 0.48574 0.714625
2129 4 0.125316 0.479501 0.698117
940 2 0.154665 0.473882 0.721528
2128 2 0.120055 0.483994 0.67409
941 4 0.175568 0.462025 0.728431
1098 4 0.194322 0.455387 0.729786
1096 2 0.214147 0.441458 0.735958
1097 4 0.233973 0.427529 0.742131
1204 2 0.310613 0.43062 0.709331
1205 4 0.321398 0.443601 0.690882
890 4 0.31409 0.454751 0.676231
2213 4 0.323039 0.446029 0.733677
3181 2 0.409056 0.492073 0.705716
3183 4 0.40496 0.484924 0.729324
187 3 0.40663 0.464439 0.730284
189 3 0.438941 0.452804 0.745558
186 1 0.417602 0.460676 0.750149
927 4 0.502457 0.468387 0.67132
863 4 0.0597098 0.0188974 0.811159
862 2 0.075802 0.0223475 0.792335
1215 4 0.0528506 0.0324015 0.825385
1213 2 0.0346478 0.0173111 0.833516
864 4 0.0918942 0.0257975 0.773512
2991 4 0.108922 0.0307367 0.763838
1202 4 0.137542 0.996638 0.810266
908 4 0.190679 0.0577869 0.76226
907 2 0.20576 0.0741489 0.773663
960 4 0.238013 0.0610063 0.782532
958 2 0.251225 0.0429274 0.771405
1252 2 0.347961 0.0503027 0.825369
1253 4 0.353372 0.0458082 0.801375
975 4 0.358142 0.00263878 0.754294
1024 2 0.41548 0.0355803 0.761871
817 2 0.44672 0.0381015 0.812819
818 4 0.451656 0.0610771 0.804279
1025 4 0.419347 0.0263587 0.784788
42 3 0.445154 0.0742782 0.816621
819 4 0.441785 0.0151259 0.82136
834 4 0.013094 0.138092 0.758204
1177 2 0.0687981 0.151917 0.755906
1179 4 0.0555086 0.15327 0.777042
946 2 0.153641 0.116851 0.743901
909 4 0.22084 0.0905108 0.785067
948 4 0.172236 0.126976 0.7572
1022 4 0.234093 0.0770979 0.793959
1021 2 0.251227 0.0921895 0.80415
1023 4 0.268361 0.107281 0.81434
1048 2 0.287001 0.138559 0.825268
1050 4 0.300279 0.158759 0.818881
1091 4 0.307353 0.169788 0.8034
1049 4 0.273722 0.118359 0.831656
1146 4 0.481191 0.109845 0.821588
3426 4 0.439265 0.114104 0.788119
45 3 0.434062 0.108286 0.805976
41 1 0.450217 0.0967123 0.817098
44 3 0.470776 0.0999814 0.80685
3424 2 0.441349 0.134173 0.773352
924 4 0.0317748 0.218715 0.77114
922 2 0.0388985 0.194905 0.773886
923 4 0.0460221 0.171096 0.776633
779 4 0.0327498 0.237243 0.762689
35 3 0.142539 0.176002 0.827388
838 2 0.243963 0.217375 0.802903
839 4 0.232543 0.216499 0.825129
840 4 0.255383 0.21825 0.780677
1299 4 0.306444 0.223919 0.759552
1090 2 0.291742 0.173249 0.784178
1092 4 0.276131 0.176711 0.764956
1297 2 0.281464 0.223711 0.760616
1298 4 0.256484 0.223502 0.76168
1053 4 0.439326 0.252435 0.821295
151 1 0.0576956 0.307243 0.752441
154 3 0.0776391 0.304792 0.740837
778 2 0.0298644 0.258481 0.749813
155 3 0.0617084 0.307324 0.774858
1170 4 0.0568941 0.281876 0.84706
1207 2 0.169421 0.325903 0.80149
1209 4 0.165897 0.332256 0.777565
3328 2 0.35613 0.281074 0.764689
1094 4 0.359034 0.291663 0.8195
3329 4 0.376039 0.274386 0.778257
866 4 0.493137 0.275316 0.807455
865 2 0.470682 0.272302 0.818033
3346 2 0.42137 0.325971 0.833928
3347 4 0.413826 0.304407 0.844089
884 4 0.0569894 0.378647 0.778241
883 2 0.0554673 0.402907 0.784099
1276 2 0.257315 0.396322 0.748938
1138 2 0.310848 0.403913 0.762409
1140 4 0.32429 0.405335 0.783444
1017 4 0.32597 0.395793 0.801287
1015 2 0.342882 0.383641 0.815124
1016 4 0.359795 0.371489 0.828961
1020 4 0.393231 0.407111 0.834096
3348 4 0.428915 0.347536 0.823768
998 4 0.488353 0.34603 0.792442
997 2 0.488297 0.357636 0.770295
3011 4 0.490085 0.41791 0.760807
1167 4 0.504068 0.339395 0.803363
885 4 0.0539453 0.427167 0.789956
815 4 0.065081 0.424225 0.806663
814 2 0.0802641 0.442303 0.814898
816 4 0.0954473 0.460382 0.823133
821 4 0.253821 0.414142 0.835166
1278 4 0.243948 0.416449 0.755374
1236 4 0.216698 0.451477 0.824157
1234 2 0.208432 0.473821 0.816567
820 2 0.235285 0.425696 0.822996
822 4 0.216749 0.43725 0.810826
82 3 0.273081 0.480929 0.797423
2212 2 0.324868 0.464793 0.750101
83 3 0.281205 0.486053 0.761085
81 1 0.281858 0.495735 0.782162
85 3 0.303387 0.5005 0.787861
2214 4 0.326697 0.483557 0.766524