ITEM: TIMESTEP
3450000
ITEM: NUMBER OF ATOMS
4590
ITEM: BOX BOUNDS pp pp pp
-9.9985700000000008e+00 9.9985700000000008e+00
-9.9985700000000008e+00 9.9985700000000008e+00
-9.9985700000000008e+00 9.9985700000000008e+00
ITEM: ATOMS id type xs ys zs
3232 2 0.0660436 0.0223613 0.0234352
3233 4 0.0436249 0.0117547 0.0266109
3234 4 0.0884622 0.0329678 0.0202594
700 2 0.0601647 0.0567176 0.0790213
701 4 0.0505413 0.0337582 0.081353
702 4 0.069788 0.079677 0.0766896
2269 2 0.120364 0.0324388 0.999064
2270 4 0.100547 0.0212349 0.0094043
2271 4 0.140182 0.0436426 0.988725
492 4 0.38118 0.0610567 0.0346568
490 2 0.362806 0.0441186 0.0354833
2442 4 0.394529 0.0493106 0.0235715
491 4 0.344432 0.0271806 0.0363097
654 4 0.357092 0.0118446 0.0353804
2440 2 0.417065 0.0546963 0.014175
655 2 0.998928 0.100911 0.0212362
657 4 0.0175709 0.1174 0.0236372
738 4 0.0160694 0.136879 0.0226204
736 2 0.0313021 0.154166 0.0323312
705 4 0.0671206 0.164377 0.0698349
2759 4 0.0802344 0.149064 0.0717903
555 4 0.122644 0.156512 0.00985963
355 2 0.245499 0.0989639 0.0196377
356 4 0.233401 0.0899219 0.0395642
357 4 0.257597 0.108006 0.999711
722 4 0.24425 0.0977036 0.0549277
721 2 0.262303 0.0955009 0.0720857
25 3 0.47344 0.0962038 0.0788468
1607 4 0.458376 0.135395 0.999785
747 4 0.473526 0.153384 0.0591627
745 2 0.46338 0.143085 0.0387624
746 4 0.453235 0.132786 0.018362
2976 4 0.478214 0.104124 0.0619089
664 2 0.513022 0.161286 0.00146697
703 2 0.0830958 0.180018 0.0586405
704 4 0.0990711 0.19566 0.047446
737 4 0.0465349 0.171453 0.042042
837 4 0.129561 0.174913 0.0121648
835 2 0.139948 0.194561 0.0236204
836 4 0.150335 0.21421 0.035076
456 4 0.143433 0.231985 0.036447
454 2 0.150832 0.246358 0.0555219
462 4 0.0994175 0.21317 0.0581866
460 2 0.102882 0.22818 0.077881
913 2 0.20701 0.178566 0.075524
914 4 0.200452 0.195253 0.0580969
294 4 0.18745 0.230143 0.0248921
581 4 0.209859 0.213929 0.0558749
580 2 0.217563 0.23452 0.0677848
292 2 0.194944 0.223557 0.00196541
278 4 0.237911 0.263737 0.0922062
360 4 0.335554 0.234376 0.996012
297 4 0.318573 0.24537 0.00346368
666 4 0.518673 0.181923 0.0144045
475 2 0.048699 0.304601 0.0690685
477 4 0.0442808 0.304246 0.044461
2807 4 0.0455666 0.32516 0.0418508
2806 2 0.0418316 0.326623 0.0171711
3404 4 0.989285 0.333147 0.0753342
483 4 0.157919 0.297294 0.00803124
1619 4 0.139118 0.303038 0.0062716
1618 2 0.117102 0.314228 0.00236391
455 4 0.158231 0.260731 0.0745967
582 4 0.225267 0.25511 0.0796947
287 4 0.172877 0.253871 0.0866293
903 4 0.220746 0.294702 0.994547
481 2 0.180447 0.291263 0.999014
901 2 0.239473 0.278978 0.999769
101 1 0.299196 0.330858 0.0206516
104 3 0.276598 0.334925 0.0173021
103 3 0.30202 0.311085 0.0324602
295 2 0.293997 0.246726 0.00786534
296 4 0.269421 0.248081 0.012267
518 4 0.388765 0.262869 0.0559789
528 4 0.396997 0.280983 0.0540242
526 2 0.418493 0.293717 0.0549982
527 4 0.439989 0.306452 0.0559723
2840 4 0.456909 0.301307 0.0634764
2839 2 0.472601 0.319421 0.0563494
2513 4 0.0555413 0.402335 0.0397984
2512 2 0.0633188 0.381463 0.0284393
329 4 0.0483407 0.41941 0.0281534
2514 4 0.0710964 0.36059 0.0170802
102 3 0.308133 0.348167 0.0328853
1121 4 0.314268 0.353118 0.051183
1120 2 0.328912 0.352057 0.0714219
105 3 0.309908 0.329531 0.000598452
739 2 0.369745 0.42113 0.0808006
672 4 0.480998 0.351278 0.0368546
2841 4 0.488294 0.337535 0.0492225
670 2 0.497918 0.369411 0.0400323
328 2 0.0585723 0.442146 0.0262644
330 4 0.068804 0.464882 0.0243755
1709 4 0.0688023 0.496734 0.0742316
552 4 0.0878317 0.467244 0.0221444
550 2 0.103226 0.480506 0.00757397
523 2 0.21326 0.445131 0.0841233
524 4 0.219537 0.469328 0.0836019
768 4 0.215414 0.488055 0.0814295
741 4 0.37993 0.429397 0.0595146
13 3 0.401942 0.443876 0.0364225
11 1 0.382507 0.456289 0.0389989
15 3 0.372048 0.45861 0.0189024
12 3 0.387995 0.477095 0.0471321
596 4 0.378007 0.490141 0.0571577
14 3 0.368365 0.445814 0.0541212
595 2 0.39408 0.502212 0.0720281
379 2 0.00178613 0.020855 0.130804
380 4 0.0173445 0.039306 0.124271
233 4 0.0294049 0.0513055 0.136312
232 2 0.0403026 0.0669751 0.152463
234 4 0.0512004 0.0826448 0.168615
565 2 0.127835 0.0160786 0.145733
567 4 0.14237 0.0360712 0.149502
450 4 0.147364 0.0500622 0.133366
448 2 0.157649 0.0689756 0.12065
1662 4 0.326665 0.00431199 0.0942364
1660 2 0.329706 0.0205355 0.113017
692 4 0.323324 0.0874158 0.130636
1475 4 0.315919 0.986728 0.0968056
1661 4 0.332746 0.036759 0.131799
1749 4 0.348458 0.0257573 0.138028
558 4 0.395644 0.0171903 0.115229
1747 2 0.353342 0.0266995 0.162532
2469 4 0.445967 0.0364543 0.159939
254 4 0.434241 0.0849454 0.0994799
2758 2 0.0658952 0.129037 0.0760882
1666 2 0.00957916 0.119619 0.0732743
1668 4 0.0308373 0.107912 0.0792934
2760 4 0.0515559 0.109009 0.0803862
449 4 0.167933 0.0878891 0.107935
579 4 0.171495 0.149756 0.141648
577 2 0.155375 0.158768 0.158503
235 2 0.193399 0.145785 0.121711
237 4 0.212882 0.158344 0.112339
915 4 0.213568 0.161879 0.092951
236 4 0.173915 0.133226 0.131083
723 4 0.280357 0.0932982 0.0892437
693 4 0.278746 0.0948957 0.109246
691 2 0.301035 0.0911557 0.119941
1505 4 0.334011 0.0823805 0.147026
255 4 0.39079 0.0745404 0.12194
1506 4 0.376388 0.0869942 0.120878
1504 2 0.3552 0.0846873 0.133952
253 2 0.412516 0.0797429 0.11071
23 3 0.46956 0.083762 0.114171
21 1 0.464978 0.101078 0.0994207
22 3 0.474796 0.120338 0.107283
24 3 0.442058 0.104394 0.097972
2894 4 0.482949 0.135963 0.117791
623 4 0.118549 0.248896 0.111583
461 4 0.106346 0.243191 0.0975753
622 2 0.125288 0.250152 0.135629
578 4 0.139255 0.16778 0.175359
730 2 0.298704 0.226686 0.13474
731 4 0.307959 0.208302 0.148936
732 4 0.289449 0.245071 0.120544
377 4 0.407703 0.250079 0.156834
376 2 0.428827 0.251498 0.143532
2875 2 0.472097 0.223428 0.119486
2877 4 0.485319 0.202711 0.12409
2876 4 0.458876 0.244144 0.114881
378 4 0.449951 0.252918 0.130229
755 4 0.0442684 0.288378 0.0978827
396 4 0.0383076 0.249794 0.149669
476 4 0.0531172 0.304957 0.0936761
756 4 0.0306606 0.253265 0.130786
754 2 0.0374645 0.270822 0.114334
624 4 0.132026 0.251408 0.159675
284 4 0.145501 0.257057 0.173433
250 2 0.159043 0.296826 0.153358
251 4 0.136439 0.30349 0.161716
2094 4 0.0991938 0.334019 0.165789
362 4 0.119601 0.336629 0.166621
252 4 0.181646 0.290162 0.145001
286 2 0.173936 0.266038 0.108448
288 4 0.174995 0.278204 0.130266
612 4 0.219384 0.317597 0.171151
279 4 0.276524 0.261178 0.12388
277 2 0.257217 0.262457 0.108043
517 2 0.38197 0.257538 0.0794436
519 4 0.375176 0.252207 0.102908
309 4 0.371355 0.265865 0.116568
307 2 0.374993 0.275923 0.139169
308 4 0.378631 0.28598 0.161769
2093 4 0.0494065 0.338681 0.166242
537 4 0.0470253 0.358444 0.165607
2565 4 2.1233e-05 0.327087 0.0922349
2092 2 0.0743001 0.33635 0.166016
361 2 0.131787 0.35628 0.176134
363 4 0.143972 0.375932 0.185647
494 4 0.202369 0.402678 0.0951993
493 2 0.196513 0.387512 0.114196
495 4 0.190657 0.372345 0.133193
969 4 0.200026 0.375449 0.150844
967 2 0.211599 0.356744 0.162734
1071 4 0.353153 0.336843 0.101477
1122 4 0.343555 0.350996 0.0916607
2652 4 0.39761 0.353481 0.129867
1070 4 0.396528 0.333136 0.126086
1069 2 0.37484 0.33499 0.113781
740 4 0.359559 0.412863 0.102087
608 4 0.343328 0.412254 0.11573
2650 2 0.415944 0.35164 0.146768
2651 4 0.434277 0.349799 0.16367
2619 4 0.0586083 0.488536 0.0903433
2617 2 0.0433054 0.491649 0.10987
766 2 0.229528 0.494887 0.100906
525 4 0.206983 0.420934 0.0846447
607 2 0.347761 0.415838 0.140075
609 4 0.352194 0.419422 0.16442
399 4 0.0621285 0.000189941 0.224604
397 2 0.0795345 0.0144915 0.213757
1477 2 0.134395 0.0426722 0.205706
1478 4 0.111988 0.0400532 0.194924
398 4 0.0969405 0.0287931 0.202909
1479 4 0.156802 0.0452913 0.216487
1272 4 0.110344 0.0734911 0.261912
429 4 0.165545 0.0252284 0.260638
427 2 0.17179 0.00426864 0.248519
743 4 0.354452 0.024246 0.205367
742 2 0.376924 0.0295744 0.21495
1748 4 0.358226 0.0276418 0.187036
744 4 0.399395 0.0349028 0.224532
432 4 0.407568 0.0519339 0.23209
430 2 0.42376 0.0548026 0.250925
2467 2 0.457714 0.0474552 0.179074
2468 4 0.469462 0.0584562 0.198209
771 4 0.474717 0.0551018 0.217277
769 2 0.479539 0.0742601 0.232604
2675 4 0.0546952 0.100734 0.172619
512 4 0.0517198 0.118037 0.22506
2674 2 0.0571046 0.115911 0.192343
2676 4 0.0595139 0.131088 0.212067
511 2 0.0465662 0.1329 0.244495
27 3 0.262903 0.142958 0.192178
26 1 0.266745 0.158791 0.208418
28 3 0.289618 0.162201 0.210307
30 3 0.258327 0.151395 0.228244
770 4 0.48436 0.0934185 0.24793
2703 4 0.486798 0.112707 0.252418
2701 2 0.491546 0.134608 0.24133
507 4 0.12773 0.181466 0.181664
506 4 0.095243 0.2135 0.202137
530 4 0.0918457 0.21794 0.22164
505 2 0.111486 0.197483 0.1919
285 4 0.165021 0.223162 0.204591
529 2 0.0943162 0.225605 0.245311
283 2 0.155261 0.240109 0.189012
545 4 0.175607 0.228502 0.221206
544 2 0.197015 0.238928 0.228833
546 4 0.218423 0.249354 0.23646
29 3 0.256271 0.178556 0.20225
606 4 0.309746 0.211058 0.16884
605 4 0.299458 0.170546 0.196294
604 2 0.304602 0.190802 0.182567
332 4 0.410414 0.245549 0.229467
628 2 0.401072 0.24473 0.195158
629 4 0.405759 0.236785 0.171918
758 4 0.428121 0.137525 0.224913
757 2 0.437181 0.159899 0.218394
759 4 0.44624 0.182273 0.211874
394 2 0.0452292 0.260094 0.171376
395 4 0.0521509 0.270393 0.193084
298 2 0.0485846 0.298734 0.21452
299 4 0.0382466 0.284537 0.196723
2694 4 0.0612639 0.327774 0.219045
300 4 0.0589227 0.312931 0.232318
968 4 0.223172 0.338039 0.174624
610 2 0.243509 0.31293 0.175773
611 4 0.267635 0.308263 0.180396
343 2 0.277089 0.289567 0.216661
345 4 0.27432 0.294009 0.192211
344 4 0.279858 0.285126 0.241111
645 4 0.27809 0.302735 0.250882
630 4 0.396386 0.252674 0.218398
498 4 0.360193 0.29281 0.163212
496 2 0.347469 0.303669 0.181795
497 4 0.334745 0.314529 0.200379
275 4 0.345461 0.316026 0.217366
274 2 0.353498 0.322055 0.240262
2692 2 0.0581524 0.351473 0.226383
535 2 0.0351141 0.379955 0.170143
2693 4 0.0550409 0.375173 0.23372
536 4 0.0232029 0.401466 0.174679
417 4 0.165132 0.375329 0.185172
415 2 0.178378 0.3699 0.205672
735 4 0.181915 0.353754 0.241388
416 4 0.191623 0.364471 0.226172
245 4 0.339959 0.419479 0.226575
2538 4 0.448601 0.346396 0.176857
2537 4 0.431462 0.33686 0.222858
2536 2 0.440032 0.341628 0.199858
714 4 0.432924 0.338633 0.24216
413 4 0.00402477 0.406729 0.176099
1774 2 0.0392064 0.46466 0.225914
1775 4 0.0285049 0.463956 0.203327
1776 4 0.0499079 0.465364 0.248501
412 2 0.997091 0.429499 0.183756
729 4 0.178335 0.440584 0.250655
339 4 0.188523 0.452966 0.238947
337 2 0.192579 0.477149 0.243839
289 2 0.23195 0.488514 0.189381
290 4 0.214694 0.472394 0.197603
291 4 0.249205 0.504633 0.18116
387 4 0.338384 0.440227 0.229371
385 2 0.333844 0.454355 0.249495
246 4 0.345351 0.431083 0.178233
244 2 0.342655 0.425281 0.202404
2849 4 0.115383 0.0558407 0.269024
2850 4 0.161128 0.0430981 0.253349
2848 2 0.138255 0.0494694 0.261186
403 2 0.219236 0.0498296 0.321658
405 4 0.223554 0.0264794 0.313828
404 4 0.214917 0.0731797 0.329487
247 2 0.259361 0.00251309 0.306794
248 4 0.240797 0.0182391 0.312559
1497 4 0.499583 0.0450905 0.289876
431 4 0.439952 0.0576713 0.269761
1496 4 0.452417 0.0414935 0.273656
1495 2 0.476 0.043292 0.281766
513 4 0.0414126 0.147763 0.26393
2484 4 0.0449331 0.16192 0.276789
469 2 0.0661693 0.162222 0.334489
1270 2 0.104759 0.0978517 0.26117
1271 4 0.0991743 0.122212 0.260428
1220 4 0.0851547 0.130844 0.271259
1219 2 0.0944957 0.142148 0.291511
1221 4 0.103837 0.153452 0.311763
393 4 0.177433 0.111199 0.298025
391 2 0.186101 0.093939 0.313904
392 4 0.194769 0.0766793 0.329783
516 4 0.263512 0.148037 0.246843
514 2 0.264217 0.157318 0.270049
515 4 0.264923 0.166599 0.293256
2908 2 0.296983 0.14977 0.317737
2909 4 0.31463 0.135678 0.32847
520 2 0.478041 0.142058 0.297021
633 4 0.439901 0.159896 0.28197
521 4 0.45541 0.14777 0.288054
2831 4 0.0140972 0.196468 0.322878
2482 2 0.0293414 0.176783 0.289484
2483 4 0.0137497 0.191646 0.30218
459 4 0.0925698 0.220716 0.283323
458 4 0.0800882 0.182679 0.313293
471 4 0.0854986 0.156033 0.319886
531 4 0.0967867 0.23327 0.268982
457 2 0.086329 0.201698 0.298308
350 4 0.216555 0.248981 0.258049
349 2 0.236009 0.248958 0.273756
389 4 0.178348 0.239927 0.325926
388 2 0.193883 0.220581 0.329025
2910 4 0.279336 0.163862 0.307004
331 2 0.406931 0.229342 0.248185
333 4 0.403447 0.213134 0.266903
632 4 0.410973 0.200682 0.281333
631 2 0.425437 0.180289 0.281652
616 2 0.133493 0.315966 0.291279
749 4 0.140556 0.281024 0.309799
618 4 0.127981 0.293549 0.300883
750 4 0.183905 0.258888 0.321269
351 4 0.255463 0.248935 0.289463
748 2 0.162231 0.269956 0.315534
764 4 0.251314 0.260694 0.304468
643 2 0.291944 0.32161 0.259658
763 2 0.268033 0.271067 0.319896
614 4 0.363835 0.339628 0.279088
276 4 0.361535 0.328084 0.263158
617 4 0.139004 0.338384 0.281674
2654 4 0.131954 0.353793 0.292551
2653 2 0.149178 0.371311 0.287898
2655 4 0.166401 0.388829 0.283245
364 2 0.199178 0.368341 0.316481
733 2 0.197035 0.355143 0.261253
365 4 0.21583 0.367208 0.297864
734 4 0.212156 0.356532 0.281117
728 4 0.168209 0.408776 0.28789
644 4 0.305797 0.340484 0.268434
435 4 0.287542 0.345167 0.278816
433 2 0.28024 0.363507 0.294163
434 4 0.272939 0.381846 0.30951
375 4 0.263108 0.367931 0.320737
613 2 0.370635 0.347896 0.301684
615 4 0.377434 0.356164 0.32428
713 4 0.4101 0.375051 0.267724
2862 4 0.424026 0.389676 0.266765
712 2 0.421512 0.356842 0.254942
109 3 0.494609 0.401023 0.248693
2860 2 0.420677 0.410552 0.280113
1385 4 0.0662634 0.475814 0.244037
1384 2 0.0822255 0.493421 0.251808
3671 4 0.1437 0.497813 0.317349
1383 4 0.124742 0.491964 0.321405
727 2 0.173272 0.42468 0.269273
677 4 0.210795 0.5062 0.305351
3670 2 0.167316 0.501543 0.310032
1574 4 0.295606 0.472326 0.325926
1573 2 0.30457 0.468219 0.302949
386 4 0.329304 0.468483 0.269618
1575 4 0.313534 0.464113 0.279971
1473 4 0.417475 0.452084 0.288256
2861 4 0.417327 0.431428 0.293461
1472 4 0.445066 0.475136 0.323013
1471 2 0.431271 0.46361 0.305635
3602 4 0.462589 0.472213 0.314686
3601 2 0.486546 0.478893 0.312118
2642 4 0.298777 0.0358764 0.391668
480 4 0.28157 0.0469387 0.390144
2641 2 0.307569 0.0126896 0.39487
478 2 0.268976 0.067354 0.397199
479 4 0.256381 0.0877692 0.404254
762 4 0.371119 0.0698052 0.380317
2879 4 0.389909 0.0737033 0.385327
2878 2 0.410202 0.0663264 0.397934
760 2 0.350731 0.0841862 0.381957
2880 4 0.430496 0.0589495 0.410541
2717 4 0.0296702 0.155896 0.348884
2716 2 0.0125333 0.138401 0.343843
470 4 0.04684 0.168411 0.349092
2657 4 0.323464 0.132511 0.346244
2656 2 0.334036 0.134983 0.368767
2658 4 0.344608 0.137455 0.391291
1031 4 0.350895 0.153773 0.403193
761 4 0.330342 0.0985672 0.383597
312 4 0.492067 0.157283 0.378033
2830 2 0.00947515 0.195936 0.347445
2832 4 0.00485312 0.195404 0.372012
341 4 0.0754379 0.233986 0.35574
2613 4 0.0758897 0.253894 0.350621
342 4 0.104208 0.201048 0.379992
340 2 0.0898228 0.217517 0.367866
824 4 0.119774 0.213437 0.385316
823 2 0.126906 0.211278 0.409184
707 4 0.219989 0.197909 0.349565
390 4 0.209418 0.201236 0.332124
706 2 0.243874 0.203074 0.344273
708 4 0.267759 0.208239 0.338981
716 4 0.363623 0.226594 0.40743
715 2 0.362702 0.246676 0.392562
419 4 0.484556 0.173329 0.368631
418 2 0.48875 0.186302 0.347672
2611 2 0.0641173 0.2706 0.365026
2612 4 0.052345 0.287306 0.379431
2847 4 0.0346878 0.280225 0.387282
2845 2 0.0375469 0.274809 0.411524
669 4 0.220786 0.317624 0.414518
873 4 0.233404 0.31687 0.398926
765 4 0.284753 0.28144 0.335325
510 4 0.299941 0.277863 0.347883
871 2 0.257316 0.309602 0.399688
508 2 0.322113 0.274028 0.358787
872 4 0.281227 0.302333 0.40045
509 4 0.344284 0.270192 0.369691
717 4 0.36178 0.266757 0.377694
120 3 0.430521 0.319661 0.419008
1640 4 0.072443 0.400606 0.376942
442 2 0.0794308 0.375141 0.404486
444 4 0.0648102 0.390518 0.391258
366 4 0.182526 0.369474 0.335099
374 4 0.2479 0.386066 0.364788
602 4 0.24511 0.377637 0.382334
601 2 0.239098 0.369829 0.405314
373 2 0.255504 0.376998 0.342762
2924 4 0.36955 0.351694 0.342235
2925 4 0.395571 0.345953 0.384552
2923 2 0.38256 0.348824 0.363394
117 3 0.414645 0.339435 0.391625
118 3 0.451818 0.333888 0.391409
116 1 0.433289 0.337354 0.404938
119 3 0.43597 0.356872 0.417195
1639 2 0.0842282 0.421231 0.369139
1641 4 0.0960133 0.441857 0.361336
2137 2 0.0966696 0.468189 0.398268
2139 4 0.0931427 0.452481 0.379138
752 4 0.33627 0.491902 0.388303
2109 4 0.326327 0.478069 0.399988
543 4 0.457761 0.480787 0.363461
542 4 0.494828 0.465526 0.393358
541 2 0.476294 0.473156 0.37841
2238 4 0.994516 0.0403151 0.456109
1773 4 0.999827 0.0237146 0.466288
1771 2 0.013997 0.011668 0.483
725 4 0.216919 0.081278 0.495596
651 4 0.25929 0.0944006 0.423061
599 4 0.312967 0.0396863 0.467252
3159 4 0.305454 0.053401 0.479769
598 2 0.328536 0.0214586 0.474361
684 4 0.359994 0.0126984 0.490833
682 2 0.38489 0.0110013 0.492411
600 4 0.344105 0.00323101 0.481469
683 4 0.409786 0.00930417 0.49399
843 4 0.425228 0.00824969 0.48136
1062 4 0.482302 0.0774617 0.502354
1060 2 0.473688 0.0565527 0.513021
983 4 0.0155339 0.115971 0.489724
1035 4 0.0312688 0.124258 0.501038
1033 2 0.0553777 0.119768 0.496161
1034 4 0.0794867 0.115279 0.491285
939 4 0.0964363 0.158404 0.443013
937 2 0.0870825 0.141229 0.458592
938 4 0.0777286 0.124053 0.474171
650 4 0.233355 0.125726 0.452161
649 2 0.246322 0.110063 0.437611
474 4 0.229219 0.141708 0.465488
472 2 0.204432 0.143701 0.468096
3157 2 0.318147 0.0734288 0.487703
402 4 0.267537 0.160128 0.471389
856 2 0.267631 0.141171 0.496318
858 4 0.276106 0.163235 0.488163
3158 4 0.33084 0.0934567 0.495636
2502 4 0.344646 0.108077 0.493571
1030 2 0.370433 0.140564 0.411497
1032 4 0.389971 0.127355 0.419802
2516 4 0.491765 0.0820623 0.485546
2515 2 0.481683 0.103051 0.476435
2517 4 0.471601 0.124039 0.467324
367 2 0.150117 0.223831 0.46084
368 4 0.147343 0.233539 0.483714
369 4 0.15289 0.214122 0.437965
825 4 0.134038 0.20912 0.433051
473 4 0.179645 0.145694 0.470704
370 2 0.24876 0.222688 0.437015
1191 4 0.228798 0.242388 0.464611
372 4 0.244333 0.243237 0.450554
371 4 0.253188 0.202139 0.423476
401 4 0.263578 0.186675 0.429196
400 2 0.265558 0.173401 0.450292
321 4 0.320554 0.222138 0.496202
642 4 0.30111 0.22966 0.496815
319 2 0.321986 0.197177 0.495882
488 4 0.357283 0.222155 0.425429
487 2 0.376305 0.210703 0.436927
489 4 0.395327 0.199251 0.448424
267 4 0.405788 0.196575 0.431583
453 4 0.471834 0.211785 0.436588
451 2 0.483923 0.231053 0.446969
266 4 0.454119 0.208462 0.426736
265 2 0.429953 0.202518 0.42916
2846 4 0.040406 0.269394 0.435766
260 4 0.0485198 0.257592 0.450147
259 2 0.0703366 0.267333 0.457516
383 4 0.0331394 0.329317 0.431348
261 4 0.0921535 0.277075 0.464885
695 4 0.102285 0.285886 0.478463
694 2 0.11958 0.268514 0.483389
696 4 0.136875 0.251142 0.488314
667 2 0.201211 0.328088 0.426028
668 4 0.181636 0.338553 0.437537
1189 2 0.236038 0.261068 0.479573
635 4 0.167068 0.325681 0.433066
640 2 0.301165 0.253058 0.487998
813 4 0.283781 0.297826 0.420594
811 2 0.28679 0.293497 0.445035
812 4 0.289799 0.289168 0.469477
641 4 0.30122 0.276455 0.479181
384 4 0.00401087 0.364721 0.451319
382 2 0.0185751 0.347019 0.441334
935 4 0.0142839 0.36844 0.468478
934 2 0.0224509 0.390602 0.476684
936 4 0.030618 0.412763 0.484891
443 4 0.0940514 0.359764 0.417714
634 2 0.147849 0.335271 0.445866
636 4 0.128631 0.344862 0.458666
772 2 0.227966 0.367191 0.508097
773 4 0.207083 0.380477 0.504553
603 4 0.233085 0.362021 0.428293
238 2 0.43109 0.416086 0.478621
585 4 0.444709 0.373408 0.42648
583 2 0.45062 0.397373 0.43047
570 4 0.0753128 0.499533 0.472612
1040 4 0.046182 0.41261 0.497154
568 2 0.089774 0.497374 0.452329
2138 4 0.100197 0.483898 0.417399
569 4 0.104235 0.495215 0.432047
325 2 0.251382 0.492956 0.498594
709 2 0.203185 0.469479 0.461475
711 4 0.222963 0.483399 0.467819
710 4 0.183406 0.455559 0.455131
326 4 0.229867 0.487601 0.487035
2108 4 0.300751 0.478064 0.44296
2107 2 0.313539 0.478066 0.421474
594 4 0.283105 0.488294 0.446084
446 4 0.418528 0.511765 0.427631
1484 4 0.413625 0.495921 0.437929
584 4 0.456531 0.421338 0.43446
1483 2 0.426131 0.494643 0.459542
1485 4 0.438638 0.493364 0.481156
239 4 0.455723 0.418646 0.482065
720 4 0.0305259 0.0321901 0.574467
1772 4 0.0281673 0.999621 0.499711
1151 4 0.20709 0.00760922 0.528438
1182 4 0.21928 0.0197747 0.516366
1180 2 0.224258 0.0426049 0.507467
1181 4 0.229236 0.0654351 0.498569
2241 4 0.31566 0.00460455 0.536189
1130 4 0.2918 0.0745597 0.577132
574 2 0.3971 0.0753905 0.547504
575 4 0.417239 0.0678862 0.534725
841 2 0.440795 0.0134075 0.500234
88 3 0.493931 0.0289301 0.570988
89 3 0.478003 0.0261858 0.536591
842 4 0.456363 0.0185653 0.519108
86 1 0.487255 0.014313 0.55425
1061 4 0.465074 0.0356437 0.523688
90 3 0.472035 0.999506 0.562479
87 3 0.505667 0.00281204 0.546641
2196 4 0.452824 0.000660779 0.562645
726 4 0.240797 0.122155 0.511709
724 2 0.228858 0.101716 0.503653
857 4 0.259155 0.119106 0.504473
2501 4 0.333829 0.15648 0.487182
2500 2 0.339237 0.132279 0.490377
576 4 0.376961 0.0828948 0.560282
1142 4 0.373431 0.0800078 0.579191
9 3 0.1632 0.227657 0.494038
7 3 0.14971 0.229794 0.529054
6 1 0.158934 0.241931 0.511827
347 4 0.218776 0.196732 0.535938
346 2 0.206574 0.217169 0.528282
348 4 0.194371 0.237606 0.520626
8 3 0.178725 0.251551 0.519186
900 4 0.332684 0.215044 0.574527
320 4 0.323418 0.172217 0.495562
898 2 0.357581 0.212751 0.574723
899 4 0.382479 0.210458 0.574918
269 4 0.437126 0.249374 0.572101
3460 2 0.0456111 0.25477 0.567676
3043 2 0.038873 0.291767 0.525096
3044 4 0.0503927 0.291127 0.547279
3461 4 0.041642 0.27706 0.557065
3045 4 0.0273533 0.292407 0.502914
879 4 0.00901864 0.286771 0.511193
10 3 0.14431 0.258173 0.505424
1393 2 0.245556 0.314437 0.515811
410 4 0.212407 0.313422 0.579719
1190 4 0.243277 0.279747 0.494534
1394 4 0.250761 0.290608 0.510313
270 4 0.484874 0.263682 0.568085
268 2 0.461 0.256528 0.570093
3309 4 0.503218 0.27226 0.565373
1395 4 0.24035 0.338267 0.521309
774 4 0.248849 0.353905 0.51164
240 4 0.406457 0.413525 0.475177
1136 4 0.0838294 0.456348 0.527323
1041 4 0.0659011 0.453303 0.518508
1039 2 0.0560415 0.432956 0.507831
1135 2 0.0939168 0.466712 0.547719
1137 4 0.104004 0.477077 0.568115
540 4 0.119714 0.491259 0.565159
538 2 0.143429 0.491059 0.557239
539 4 0.167144 0.490858 0.549318
327 4 0.272897 0.498311 0.510153
1173 4 0.279699 0.480786 0.513224
1171 2 0.291013 0.471223 0.533366
1172 4 0.302328 0.461659 0.553507
1028 4 0.296719 0.461604 0.573218
1027 2 0.314958 0.45636 0.589497
1953 4 0.390841 0.495069 0.538644
718 2 0.01757 0.0166896 0.5892
3179 4 0.0180352 0.0725808 0.649769
945 4 0.221289 0.0727258 0.6487
2255 4 0.227564 0.0630453 0.665002
964 2 0.327718 0.0107111 0.65216
1129 2 0.30207 0.091184 0.592731
1005 4 0.33282 0.0166061 0.611319
1003 2 0.328001 0.998426 0.594843
966 4 0.329722 0.0225465 0.630227
1143 4 0.386216 0.0905653 0.626369
1141 2 0.379823 0.0852866 0.60278
887 4 0.39024 0.075943 0.639655
886 2 0.385476 0.065692 0.661958
3178 2 0.00866235 0.0894947 0.633918
918 4 0.162596 0.157719 0.610089
916 2 0.173222 0.135265 0.612938
917 4 0.183847 0.112811 0.615787
944 4 0.18603 0.0930296 0.619626
943 2 0.20366 0.0828777 0.634163
1283 4 0.223365 0.133776 0.64688
1153 2 0.23875 0.159028 0.61973
1155 4 0.22073 0.147757 0.6329
1282 2 0.205474 0.137791 0.663879
1131 4 0.312341 0.107808 0.60833
2318 4 0.301015 0.0990328 0.62363
2317 2 0.294577 0.100336 0.647756
2319 4 0.288138 0.101639 0.671881
950 4 0.289695 0.121478 0.676772
3462 4 0.0495802 0.232481 0.578288
1212 4 0.169642 0.175354 0.619055
1210 2 0.172248 0.195812 0.633193
1154 4 0.25677 0.170299 0.606561
1211 4 0.174855 0.21627 0.64733
1259 4 0.167102 0.234274 0.651709
1086 4 0.269292 0.226159 0.631272
1084 2 0.252176 0.24261 0.623425
978 4 0.255491 0.222374 0.645862
904 2 0.471161 0.166936 0.638096
905 4 0.471639 0.171582 0.613532
792 4 0.426548 0.253215 0.639054
1263 4 0.493269 0.253298 0.611056
411 4 0.229499 0.277117 0.60956
409 2 0.220953 0.29527 0.594639
1085 4 0.23506 0.259061 0.615577
1258 2 0.184647 0.249818 0.660413
805 2 0.428456 0.327175 0.616556
807 4 0.442497 0.313359 0.631955
791 4 0.451571 0.296217 0.63401
790 2 0.439059 0.274716 0.636532
889 2 0.299236 0.409219 0.649652
891 4 0.308199 0.40805 0.62634
803 4 0.406356 0.355974 0.61231
1238 4 0.37636 0.404263 0.617677
802 2 0.38748 0.371473 0.617663
804 4 0.368604 0.386972 0.623017
806 4 0.414414 0.340992 0.601158
1029 4 0.333196 0.451115 0.605777
1239 4 0.351047 0.447064 0.612386
1237 2 0.363704 0.425664 0.615031
3370 2 0.417056 0.488414 0.648772
1007 4 0.435603 0.452068 0.630396
1006 2 0.435619 0.434513 0.6482
3372 4 0.425476 0.469234 0.635119
2254 2 0.232405 0.0552615 0.688264
2256 4 0.237246 0.0474777 0.711527
960 4 0.248016 0.0575222 0.724181
3589 2 0.173516 0.01112 0.735271
3590 4 0.176238 0.0245221 0.714339
958 2 0.270719 0.0479064 0.728337
1257 4 0.325806 0.0152353 0.685691
1255 2 0.319019 0.0271372 0.706607
1256 4 0.312233 0.0390392 0.727522
965 4 0.325714 0.998876 0.674094
959 4 0.293423 0.0382907 0.732492
952 2 0.3823 0.0610671 0.723021
954 4 0.382274 0.0524433 0.74649
888 4 0.380713 0.055441 0.68426
953 4 0.382326 0.0696909 0.699552
1178 4 0.0633641 0.129294 0.723754
1177 2 0.043984 0.144319 0.728638
1179 4 0.0246039 0.159343 0.733523
852 4 0.0824324 0.123405 0.720859
923 4 0.0333971 0.177516 0.734102
850 2 0.101362 0.127989 0.70518
947 4 0.122521 0.148602 0.676306
946 2 0.147433 0.149444 0.674334
851 4 0.120292 0.132574 0.689501
1284 4 0.187583 0.141805 0.680878
948 4 0.172344 0.150287 0.672361
949 2 0.276733 0.142765 0.678776
906 4 0.470683 0.16229 0.662659
1011 4 0.473665 0.15323 0.680145
1009 2 0.47865 0.147308 0.70392
1193 4 0.476081 0.141008 0.746839
1010 4 0.483635 0.141386 0.727695
1299 4 0.207618 0.194131 0.723786
1297 2 0.226765 0.207023 0.733396
1298 4 0.245913 0.219915 0.743007
976 2 0.255597 0.201316 0.659343
951 4 0.263772 0.164053 0.680781
977 4 0.255702 0.180258 0.672824
151 1 0.0329001 0.28349 0.720015
154 3 0.0428706 0.296351 0.703475
155 3 0.0160889 0.295237 0.729916
152 3 0.0242229 0.264467 0.710425
1067 4 0.0555922 0.310331 0.708356
153 3 0.0486863 0.277362 0.735879
780 4 0.0368917 0.270513 0.75086
991 2 0.138928 0.315222 0.675028
993 4 0.115529 0.306906 0.672114
992 4 0.162328 0.323538 0.677942
1066 2 0.0770188 0.308263 0.695636
1068 4 0.0984454 0.306195 0.682916
897 4 0.20613 0.27952 0.68339
1260 4 0.202192 0.265362 0.669116
895 2 0.194195 0.301382 0.681197
896 4 0.18226 0.323243 0.679003
1044 4 0.301528 0.300703 0.726152
798 4 0.305972 0.303968 0.707389
796 2 0.28985 0.320303 0.697468
1279 2 0.0552528 0.398657 0.684983
3418 2 0.0109946 0.366395 0.684037
3420 4 0.0245877 0.385293 0.693163
1281 4 0.0308504 0.403479 0.687523
883 2 0.0330317 0.339107 0.753957
884 4 0.04964 0.357263 0.74952
1280 4 0.0796553 0.393835 0.682444
1278 4 0.227164 0.362185 0.723277
1097 4 0.216663 0.378803 0.730071
1276 2 0.248628 0.353197 0.714129
1096 2 0.217339 0.403785 0.72929
1277 4 0.270092 0.344209 0.70498
797 4 0.273727 0.336638 0.687548
1206 4 0.289843 0.380908 0.722648
1204 2 0.290669 0.399608 0.70607
1139 4 0.281568 0.377451 0.740317
890 4 0.290273 0.410388 0.672965
1205 4 0.291494 0.418307 0.689493
3464 4 0.452679 0.404373 0.664136
3463 2 0.455135 0.384268 0.678796
999 4 0.446354 0.357758 0.70838
3465 4 0.457591 0.364162 0.693456
997 2 0.449666 0.353432 0.732783
2129 4 0.163939 0.491577 0.724845
942 4 0.171647 0.475599 0.716549
941 4 0.212557 0.447414 0.722266
1098 4 0.218014 0.428767 0.72851
940 2 0.192102 0.461507 0.719407
1008 4 0.435635 0.416957 0.666004
1251 4 0.437505 0.491263 0.749301
1250 4 0.47285 0.456106 0.745377
1249 2 0.455177 0.473685 0.747339
1294 2 0.0050418 0.0473653 0.824096
1213 2 0.0621992 0.059761 0.816458
1214 4 0.045098 0.058036 0.834618
1215 4 0.0793004 0.061486 0.798299
1296 4 0.0297908 0.0497547 0.826734
863 4 0.0831525 0.0583044 0.779646
2991 4 0.118505 0.00178938 0.793914
864 4 0.131711 0.0620694 0.768305
862 2 0.107432 0.0601869 0.773976
2989 2 0.141025 0.997425 0.783964
908 4 0.135308 0.074225 0.782791
907 2 0.158789 0.0821356 0.779436
3591 4 0.170793 0.997718 0.756203
1026 4 0.386625 0.0543293 0.7662
1024 2 0.372854 0.0376658 0.778764
1025 4 0.359083 0.0210023 0.791328
909 4 0.182269 0.0900461 0.776081
1022 4 0.250277 0.183342 0.805472
1192 2 0.47427 0.147784 0.770838
3424 2 0.482408 0.124559 0.824993
1194 4 0.472459 0.154561 0.794838
3425 4 0.475498 0.142998 0.809585
922 2 0.0374659 0.196045 0.75039
778 2 0.023007 0.255049 0.764761
779 4 0.00912236 0.239584 0.778662
924 4 0.0415347 0.214575 0.766678
1023 4 0.206241 0.192949 0.827134
1021 2 0.228259 0.188145 0.816303
838 2 0.222895 0.238521 0.776663
840 4 0.23531 0.231948 0.755978
839 4 0.21048 0.245093 0.797347
801 4 0.222269 0.246421 0.813549
1090 2 0.309703 0.201476 0.824514
3329 4 0.286405 0.211919 0.789064
3328 2 0.282145 0.23334 0.776892
1092 4 0.302551 0.209082 0.801794
3330 4 0.277886 0.254762 0.764721
1053 4 0.410615 0.237458 0.809293
867 4 0.429802 0.239636 0.805303
1209 4 0.163887 0.283985 0.776545
1207 2 0.177643 0.297481 0.792476
1063 2 0.23356 0.314134 0.823607
1064 4 0.209857 0.314345 0.815652
1208 4 0.191398 0.310978 0.808407
1042 2 0.297743 0.28351 0.743907
1043 4 0.293959 0.266316 0.761662
3347 4 0.320126 0.283222 0.836336
3346 2 0.339679 0.276472 0.822289
1051 2 0.3912 0.251936 0.815508
1052 4 0.371784 0.266414 0.821723
3348 4 0.359231 0.269723 0.808242
1167 4 0.455182 0.332463 0.767504
1166 4 0.450453 0.283014 0.76175
866 4 0.454373 0.267264 0.771632
865 2 0.442087 0.25345 0.788467
1165 2 0.452817 0.307739 0.764627
815 4 0.060295 0.366107 0.765067
4207 2 0.987042 0.400269 0.808663
4208 4 0.986967 0.403801 0.833416
814 2 0.0600511 0.389872 0.7573
1170 4 0.00500699 0.410041 0.838379
1138 2 0.297708 0.369567 0.75771
1140 4 0.313848 0.361684 0.775104
1017 4 0.320325 0.358942 0.793947
1015 2 0.345189 0.357095 0.792056
1019 4 0.3899 0.355101 0.784224
1016 4 0.370052 0.355247 0.790165
1018 2 0.414192 0.354399 0.778344
998 4 0.452978 0.349106 0.757186
1020 4 0.438485 0.353697 0.772464
816 4 0.0598072 0.413637 0.749532
2013 4 0.172877 0.487269 0.82083
1904 4 0.179847 0.467516 0.82094
83 3 0.279192 0.430907 0.771529
1236 4 0.268876 0.452061 0.812854
2289 4 0.298699 0.477073 0.777752