ITEM: TIMESTEP
5210000
ITEM: NUMBER OF ATOMS
4590
ITEM: BOX BOUNDS pp pp pp
-9.9985700000000008e+00 9.9985700000000008e+00
-9.9985700000000008e+00 9.9985700000000008e+00
-9.9985700000000008e+00 9.9985700000000008e+00
ITEM: ATOMS id type xs ys zs
2252 4 0.153429 0.0115147 0.0105428
567 4 0.141132 0.0144471 0.0266704
565 2 0.119692 0.0112743 0.0391394
566 4 0.0982532 0.00810156 0.0516084
486 4 0.180545 0.0347563 0.0674527
1842 4 0.198769 0.0403828 0.0674727
484 2 0.175973 0.0125186 0.0569762
1840 2 0.202926 0.0617867 0.0552348
1662 4 0.227719 0.00177989 0.0768284
1476 4 0.329466 0.9893 0.0676753
1660 2 0.247757 0.996701 0.0627619
1661 4 0.267795 0.991623 0.0486953
2468 4 0.447668 0.0380743 0.0524128
2467 2 0.436346 0.015845 0.0540978
146 1 0.476298 0.0456887 0.0269888
148 3 0.464852 0.0349921 0.0441052
150 3 0.488322 0.0305059 0.0150073
147 3 0.490632 0.0611641 0.0361646
3047 4 0.492605 0.0757218 0.0502647
2469 4 0.425023 0.993616 0.0557828
149 3 0.461309 0.056665 0.0130867
702 4 0.154253 0.109397 0.0167309
554 4 0.141913 0.117229 0.00194212
555 4 0.0938874 0.103348 0.00320343
553 2 0.1179 0.110288 0.00257277
700 2 0.176656 0.105532 0.027139
1841 4 0.207084 0.0831906 0.0429969
701 4 0.199059 0.101667 0.0375472
448 2 0.174163 0.148355 0.0739791
450 4 0.167874 0.124277 0.0715528
360 4 0.415092 0.187884 0.9937
2976 4 0.41429 0.115387 0.0356629
2440 2 0.42461 0.0911619 0.00281436
2441 4 0.424067 0.109828 0.0194412
2974 2 0.415759 0.130579 0.0554678
2975 4 0.417229 0.14577 0.0752727
25 3 0.435635 0.152509 0.074827
2967 4 0.0208031 0.23388 0.0247212
2965 2 0.00833875 0.223651 0.00561136
705 4 0.0128265 0.232849 0.0422581
703 2 0.0187249 0.229658 0.0663455
704 4 0.0246234 0.226467 0.0904329
449 4 0.180452 0.172432 0.0764054
915 4 0.165338 0.185946 0.0773879
914 4 0.181851 0.232496 0.0852078
913 2 0.173595 0.209221 0.0812979
293 4 0.18088 0.250816 0.0777444
295 2 0.289677 0.240135 0.0584402
297 4 0.306376 0.225226 0.047302
354 4 0.312575 0.207916 0.0552894
352 2 0.329448 0.190656 0.0618138
353 4 0.346322 0.173396 0.0683382
282 4 0.392881 0.216369 0.0493691
280 2 0.386278 0.240429 0.0477317
358 2 0.404414 0.194522 0.0153125
359 4 0.393735 0.20116 0.0369248
24 3 0.434316 0.186954 0.0596808
21 1 0.437977 0.174759 0.0790787
456 4 0.0818258 0.281195 0.0242357
464 4 0.0881338 0.263806 0.0173388
454 2 0.101034 0.294837 0.0326094
455 4 0.120241 0.30848 0.0409832
287 4 0.121794 0.322725 0.0554498
286 2 0.143086 0.324705 0.0684078
2513 4 0.180228 0.337508 0.0201791
296 4 0.272978 0.255043 0.0695783
902 4 0.252792 0.252707 0.0693204
281 4 0.379675 0.26449 0.0460942
2876 4 0.390802 0.277963 0.0552181
2875 2 0.390137 0.29273 0.0753836
2839 2 0.495708 0.305219 0.0205344
2840 4 0.472833 0.299732 0.0120605
2808 4 0.010485 0.364605 0.01747
2806 2 0.0300676 0.351437 0.00920551
494 4 0.162805 0.330587 0.0242437
417 4 0.189928 0.38647 0.0667954
2512 2 0.185241 0.353153 0.0390281
2514 4 0.190255 0.368798 0.057877
2444 4 0.226995 0.380564 0.99786
670 2 0.475262 0.381093 0.0512694
672 4 0.458832 0.379296 0.070031
527 4 0.451233 0.360908 0.0672853
671 4 0.491693 0.38289 0.0325077
3339 4 0.0594635 0.472235 0.0612016
3450 4 0.0528307 0.469276 0.0422829
3448 2 0.0298615 0.475072 0.0342834
3449 4 0.00689221 0.480869 0.0262838
3337 2 0.0696977 0.458813 0.079648
1102 2 0.0816341 0.508686 0.00136553
242 4 0.225755 0.509505 0.00403642
15 3 0.366655 0.47984 0.0342944
11 1 0.363567 0.462653 0.0196747
1550 4 0.354268 0.49773 0.0680147
563 4 0.356846 0.495465 0.0482206
13 3 0.383125 0.450325 0.0177029
12 3 0.346879 0.448915 0.0275465
1549 2 0.346378 0.480558 0.0843866
355 2 0.256357 0.0607581 0.106922
357 4 0.273865 0.0429395 0.107982
2181 4 0.288959 0.0393865 0.0932133
2179 2 0.308252 0.0298438 0.105937
2180 4 0.327545 0.0203011 0.118661
1749 4 0.34564 0.0232667 0.125369
1748 4 0.39408 0.0317154 0.116262
743 4 0.396644 0.0488694 0.126338
1747 2 0.36986 0.027491 0.120815
742 2 0.399504 0.0666368 0.143697
1761 4 0.449787 0.0522924 0.128931
1759 2 0.458323 0.0354155 0.145286
1760 4 0.46686 0.0185387 0.161641
835 2 0.0424259 0.158928 0.167227
758 4 0.244545 0.0974899 0.10744
604 2 0.224344 0.123789 0.178611
606 4 0.216509 0.146873 0.184171
356 4 0.238848 0.0785767 0.105862
757 2 0.255503 0.119479 0.102797
759 4 0.266461 0.141469 0.0981531
27 3 0.31385 0.0916361 0.154832
29 3 0.283076 0.110006 0.143511
722 4 0.283256 0.153203 0.093395
28 3 0.316871 0.1177 0.127921
26 1 0.305852 0.111922 0.147506
721 2 0.305245 0.148563 0.104356
723 4 0.327233 0.143923 0.115318
693 4 0.332216 0.123795 0.115362
691 2 0.353666 0.130739 0.126172
692 4 0.375116 0.137683 0.136981
1505 4 0.36855 0.135863 0.156011
744 4 0.402364 0.0844043 0.161055
253 2 0.484714 0.0974635 0.146606
2893 2 0.474265 0.139292 0.101598
255 4 0.471079 0.109962 0.129781
2895 4 0.479873 0.118315 0.113997
2894 4 0.468658 0.160268 0.0891987
22 3 0.459361 0.178844 0.0865064
836 4 0.0284758 0.168587 0.148862
462 4 0.0375536 0.236646 0.0999679
623 4 0.0938469 0.24362 0.1328
622 2 0.110006 0.224611 0.131153
624 4 0.126165 0.205602 0.129506
506 4 0.124707 0.193667 0.144662
505 2 0.138974 0.177916 0.157836
580 2 0.227394 0.242327 0.14328
732 4 0.226155 0.203472 0.164388
23 3 0.422952 0.181305 0.0955048
378 4 0.39243 0.222952 0.120417
376 2 0.40685 0.206441 0.132443
629 4 0.431393 0.182513 0.160743
377 4 0.42127 0.18993 0.144469
2614 2 0.00536755 0.311913 0.15926
460 2 0.0577285 0.24421 0.112654
461 4 0.0779033 0.251774 0.125341
475 2 0.095143 0.282731 0.160367
477 4 0.106895 0.265292 0.146841
288 4 0.164378 0.326686 0.0813659
292 2 0.19582 0.259201 0.0959567
523 2 0.181446 0.33294 0.115289
525 4 0.190594 0.32521 0.137238
294 4 0.210759 0.267585 0.114169
582 4 0.22375 0.263233 0.130058
103 3 0.205175 0.287038 0.116783
101 1 0.224194 0.295438 0.127085
105 3 0.234958 0.278787 0.13829
102 3 0.217961 0.311806 0.141996
104 3 0.238345 0.304737 0.11122
278 4 0.200178 0.312793 0.150282
901 2 0.249204 0.274026 0.0818818
903 4 0.245615 0.295345 0.0944432
2877 4 0.389473 0.307498 0.095549
519 4 0.395341 0.325572 0.0892074
524 4 0.172297 0.34067 0.0933408
416 4 0.163363 0.372696 0.106861
361 2 0.144543 0.375185 0.146528
363 4 0.151716 0.37207 0.122779
415 2 0.176645 0.379583 0.0868283
1121 4 0.241919 0.367733 0.155525
1069 2 0.314633 0.393108 0.145142
1120 2 0.265913 0.373238 0.159903
1071 4 0.291725 0.383095 0.14478
1122 4 0.289907 0.378742 0.164281
1070 4 0.337542 0.40312 0.145503
517 2 0.393486 0.335736 0.111976
518 4 0.391631 0.3459 0.134746
2536 2 0.401835 0.369308 0.157794
609 4 0.345811 0.420004 0.152377
2538 4 0.406835 0.35982 0.135208
528 4 0.439188 0.363264 0.115763
526 2 0.445211 0.362086 0.0915241
3338 4 0.0799319 0.44539 0.0980945
2770 2 0.0660352 0.458359 0.145493
314 4 0.0238186 0.450823 0.148293
2771 4 0.0411165 0.457793 0.143514
313 2 0.014794 0.468926 0.162991
2772 4 0.0909539 0.458925 0.147472
2094 4 0.0896493 0.478675 0.150204
2092 2 0.112282 0.488884 0.147253
728 4 0.142391 0.481958 0.154601
2093 4 0.134916 0.499092 0.144303
638 4 0.203683 0.509835 0.0942699
639 4 0.232264 0.478959 0.121298
637 2 0.217974 0.494397 0.107784
1863 4 0.251581 0.483125 0.118937
727 2 0.163532 0.487432 0.166778
1861 2 0.256412 0.473062 0.141311
1589 4 0.312306 0.502269 0.13946
608 4 0.348521 0.454157 0.115949
607 2 0.347166 0.43708 0.134163
739 2 0.385364 0.478813 0.139433
1551 4 0.338488 0.463385 0.100758
741 4 0.39218 0.483765 0.162974
303 4 0.399653 0.479282 0.180732
740 4 0.378549 0.47386 0.115891
234 4 0.00995409 0.0336514 0.214713
233 4 0.0183998 0.054992 0.170284
232 2 0.0141769 0.0443217 0.192498
237 4 0.139127 0.0456587 0.178535
2849 4 0.111891 0.0531133 0.226747
1272 4 0.107256 0.0725561 0.223049
235 2 0.143219 0.0686326 0.187515
2848 2 0.120987 0.0385152 0.244894
1566 4 0.282104 0.0249592 0.154991
1564 2 0.292407 0.00282742 0.160396
249 4 0.267858 0.0210989 0.214149
403 2 0.284653 0.0521862 0.211724
405 4 0.288019 0.0274115 0.211972
404 4 0.281288 0.076961 0.211476
1271 4 0.0656657 0.0964022 0.237275
513 4 0.0576072 0.114469 0.235056
511 2 0.0488327 0.137723 0.237778
837 4 0.056376 0.149269 0.185593
1270 2 0.0864607 0.0844791 0.230162
512 4 0.0400582 0.160978 0.2405
236 4 0.14731 0.0916065 0.196495
579 4 0.138029 0.105255 0.184871
577 2 0.149051 0.127697 0.185045
578 4 0.160074 0.150139 0.185218
731 4 0.219799 0.15388 0.165362
605 4 0.232179 0.100705 0.173051
30 3 0.309637 0.127693 0.163494
516 4 0.291385 0.0939369 0.217064
514 2 0.289395 0.110227 0.235928
515 4 0.287406 0.126516 0.254793
1504 2 0.378472 0.125917 0.176695
1506 4 0.388394 0.115971 0.197379
2574 4 0.389554 0.113137 0.216643
2572 2 0.414 0.110561 0.221218
699 4 0.447873 0.105873 0.243485
2573 4 0.438446 0.107985 0.225793
697 2 0.472145 0.105611 0.237484
698 4 0.496416 0.105349 0.231482
630 4 0.427114 0.152512 0.200522
1221 4 0.0850176 0.247356 0.199399
1219 2 0.0636903 0.249487 0.212275
507 4 0.153242 0.162166 0.171009
457 2 0.117343 0.238858 0.214609
458 4 0.133974 0.243371 0.232726
459 4 0.100711 0.234346 0.196493
750 4 0.132036 0.246162 0.251922
730 2 0.222977 0.178676 0.164875
581 4 0.231038 0.22142 0.156502
546 4 0.166168 0.173438 0.244923
285 4 0.230853 0.236505 0.224051
250 2 0.25227 0.224795 0.198631
252 4 0.230927 0.236859 0.203543
283 2 0.228049 0.244432 0.247599
350 4 0.286131 0.222535 0.205006
349 2 0.304561 0.22699 0.221306
251 4 0.273612 0.212731 0.193719
351 4 0.322991 0.231445 0.237605
331 2 0.414962 0.17008 0.236748
628 2 0.429253 0.167513 0.180633
332 4 0.428328 0.156752 0.220349
2616 4 0.0148314 0.291225 0.169634
1220 4 0.042363 0.251617 0.225151
755 4 0.0675338 0.311856 0.176094
754 2 0.0613834 0.304645 0.199232
394 2 0.0166535 0.305929 0.238857
756 4 0.0552331 0.297434 0.222369
396 4 0.0363255 0.304474 0.223492
476 4 0.0833905 0.300171 0.173892
277 2 0.194993 0.310702 0.174653
279 4 0.189809 0.308611 0.199023
276 4 0.406311 0.2927 0.235441
386 4 0.401269 0.308614 0.247391
385 2 0.380513 0.322537 0.246693
498 4 0.4975 0.274262 0.204819
274 2 0.425727 0.303051 0.223564
275 4 0.445143 0.313403 0.211687
496 2 0.481183 0.29316 0.206166
497 4 0.464866 0.312058 0.207513
362 4 0.137371 0.378301 0.170277
289 2 0.164789 0.380185 0.204398
291 4 0.147434 0.374551 0.187303
290 4 0.182144 0.38582 0.221493
735 4 0.196024 0.384412 0.236344
733 2 0.203935 0.364344 0.248986
1575 4 0.361663 0.354907 0.252512
387 4 0.359756 0.336461 0.245995
714 4 0.406503 0.367799 0.193954
2537 4 0.396835 0.378795 0.180381
712 2 0.420217 0.360943 0.213705
1573 2 0.342017 0.370234 0.250447
713 4 0.433931 0.354088 0.233456
2862 4 0.440896 0.359753 0.251236
3884 4 0.00501823 0.490744 0.248536
626 4 0.254779 0.442181 0.228772
625 2 0.252499 0.42246 0.243973
1788 4 0.256959 0.458052 0.218355
337 2 0.20094 0.497739 0.213595
729 4 0.184673 0.492906 0.178955
339 4 0.192434 0.482859 0.19539
1862 4 0.261243 0.462999 0.163684
1786 2 0.26252 0.452059 0.194726
1787 4 0.268081 0.446065 0.171097
301 2 0.408873 0.501032 0.188923
2850 4 0.130084 0.0239171 0.263042
1869 4 0.115178 0.0144517 0.273405
470 4 0.2227 0.0554242 0.29512
469 2 0.206248 0.0741603 0.293259
479 4 0.227992 0.0360076 0.288654
707 4 0.181322 0.0878704 0.273804
478 2 0.250662 0.0349535 0.299147
480 4 0.273333 0.0338993 0.30964
2642 4 0.280436 0.0524707 0.308781
2641 2 0.304842 0.0555915 0.313229
2643 4 0.329248 0.0587123 0.317678
598 2 0.367515 0.0706883 0.331254
1518 4 0.408885 0.0630318 0.337592
600 4 0.34467 0.070691 0.32109
431 4 0.471232 0.990977 0.26988
2482 2 0.996303 0.125326 0.338429
2483 4 0.996184 0.129357 0.313753
708 4 0.132202 0.0965468 0.270251
706 2 0.156762 0.0922086 0.272028
471 4 0.189796 0.0928965 0.291398
529 2 0.213009 0.152839 0.304563
531 4 0.216064 0.153092 0.279748
2910 4 0.297218 0.142372 0.259444
2908 2 0.306281 0.141502 0.282731
2909 4 0.315343 0.140631 0.306018
2657 4 0.321463 0.123403 0.31273
599 4 0.390359 0.0706856 0.341419
631 2 0.416057 0.169128 0.292001
2879 4 0.425671 0.138728 0.3133
633 4 0.420726 0.158412 0.314104
2694 4 0.0275753 0.171369 0.251914
2692 2 0.011822 0.163453 0.269645
544 2 0.188599 0.166163 0.253235
545 4 0.21103 0.158888 0.261546
388 2 0.232014 0.243804 0.302393
390 4 0.213897 0.244464 0.285174
284 4 0.225245 0.252358 0.271147
389 4 0.250132 0.243144 0.319612
763 2 0.333967 0.235967 0.275208
765 4 0.338158 0.248836 0.296232
764 4 0.329776 0.223097 0.254185
333 4 0.401596 0.183407 0.253146
632 4 0.411388 0.179845 0.269898
2592 4 0.519651 0.208822 0.280619
2682 4 0.503634 0.218658 0.288407
3573 4 0.976611 0.259618 0.274642
748 2 0.150092 0.263062 0.2556
749 4 0.168148 0.279963 0.259279
618 4 0.185571 0.287428 0.26538
616 2 0.190772 0.298599 0.287136
364 2 0.236698 0.316091 0.263125
617 4 0.195973 0.30977 0.308892
366 4 0.223906 0.333465 0.250488
2654 4 0.184034 0.323567 0.318209
365 4 0.249489 0.298716 0.275762
344 4 0.251355 0.285276 0.289867
510 4 0.329213 0.262895 0.306942
612 4 0.312154 0.293321 0.274632
345 4 0.300863 0.280562 0.284627
343 2 0.276109 0.282919 0.287247
610 2 0.33711 0.29178 0.274786
508 2 0.335834 0.263189 0.331052
611 4 0.362066 0.290239 0.274939
263 4 0.0404958 0.400076 0.31324
413 4 0.0398499 0.381347 0.304428
412 2 0.0368628 0.367374 0.324947
3670 2 0.148637 0.398118 0.335425
2655 4 0.161224 0.367965 0.315169
3671 4 0.16634 0.381934 0.328364
734 4 0.211846 0.344275 0.261629
2653 2 0.172629 0.345766 0.316689
244 2 0.240261 0.407713 0.301306
627 4 0.25022 0.402739 0.259175
246 4 0.241131 0.409852 0.276409
1802 4 0.322039 0.405292 0.254674
644 4 0.297383 0.423286 0.309122
1574 4 0.32237 0.385561 0.248381
1801 2 0.333141 0.420201 0.271396
3990 4 0.437956 0.410618 0.292726
2860 2 0.444032 0.376845 0.269214
2861 4 0.447169 0.393937 0.287192
262 2 0.0515265 0.421414 0.320181
264 4 0.0625571 0.442753 0.327122
643 2 0.305376 0.439464 0.32643
645 4 0.31337 0.455643 0.343737
1803 4 0.344242 0.43511 0.288119
542 4 0.362516 0.427599 0.289588
541 2 0.372462 0.419013 0.310861
3988 2 0.452933 0.430365 0.296037
3989 4 0.467909 0.450111 0.299347
3601 2 0.451114 0.486419 0.310181
3602 4 0.459173 0.468095 0.295199
393 4 0.218651 0.00177135 0.336573
1057 2 0.289027 0.00603848 0.397122
1059 4 0.285252 0.0119782 0.421115
1062 4 0.414612 0.061916 0.391751
760 2 0.491709 0.0686043 0.39413
1516 2 0.43037 0.0515572 0.343241
1517 4 0.451855 0.0400826 0.34889
2516 4 0.409207 0.0799698 0.400528
165 3 0.0426442 0.0883306 0.405337
939 4 0.00942491 0.123755 0.41151
2238 4 0.113512 0.122968 0.393483
2236 2 0.0978015 0.122396 0.412926
530 4 0.209954 0.152586 0.329378
651 4 0.220225 0.139533 0.342305
649 2 0.230961 0.128617 0.362073
2656 2 0.323484 0.125549 0.337559
650 4 0.241698 0.117701 0.38184
371 4 0.255911 0.132144 0.384789
370 2 0.263143 0.127923 0.408349
2658 4 0.325505 0.127695 0.362388
1031 4 0.331803 0.123855 0.380544
1030 2 0.343009 0.122402 0.402849
1032 4 0.354216 0.120949 0.425153
2517 4 0.418994 0.122266 0.37571
2878 2 0.428681 0.130255 0.336631
761 4 0.49163 0.0931111 0.399089
2515 2 0.414101 0.101118 0.388119
2880 4 0.43169 0.121782 0.359962
3173 4 0.474545 0.0935766 0.409095
3172 2 0.463233 0.115845 0.407927
341 4 0.0857796 0.20104 0.37557
340 2 0.103331 0.206081 0.39265
709 2 0.112456 0.321408 0.393508
717 4 0.334621 0.27848 0.365659
509 4 0.342454 0.263483 0.355161
715 2 0.350378 0.295315 0.375325
716 4 0.366135 0.312151 0.384991
488 4 0.385794 0.316305 0.381013
414 4 0.0338757 0.353401 0.345465
537 4 0.0499458 0.357099 0.355599
535 2 0.0715321 0.352843 0.367478
3672 4 0.130933 0.414301 0.342486
710 4 0.101054 0.330408 0.373157
536 4 0.0931183 0.348587 0.379357
245 4 0.239391 0.405574 0.326202
375 4 0.237415 0.403112 0.391532
373 2 0.255116 0.410233 0.407692
435 4 0.315163 0.40012 0.356421
487 2 0.38786 0.331632 0.40066
118 3 0.382561 0.36521 0.413762
585 4 0.400273 0.427651 0.395305
489 4 0.389927 0.346959 0.420307
1953 4 0.409699 0.413797 0.40727
119 3 0.404022 0.396481 0.416209
1382 4 0.0808514 0.436961 0.332313
568 2 0.0809758 0.475501 0.402649
570 4 0.0973189 0.490574 0.391208
2138 4 0.0534212 0.447289 0.425001
1383 4 0.126893 0.431782 0.35113
1381 2 0.103872 0.434372 0.341721
1557 4 0.125068 0.503452 0.395765
1445 4 0.21813 0.444091 0.411429
753 4 0.329619 0.453972 0.353797
433 2 0.325267 0.415939 0.372939
615 4 0.341289 0.42397 0.405423
434 4 0.335371 0.431758 0.389457
4 3 0.379063 0.487696 0.349017
583 2 0.394113 0.424319 0.371302
543 4 0.382408 0.410428 0.332134
752 4 0.359523 0.493935 0.350727
751 2 0.344571 0.473954 0.352262
584 4 0.387954 0.420987 0.347299
2 3 0.407593 0.509468 0.337851
446 4 0.436116 0.479725 0.400299
1484 4 0.454078 0.486696 0.396142
1485 4 0.499322 0.484084 0.375003
1483 2 0.4767 0.48539 0.385573
1033 2 0.00483091 0.0688076 0.451138
164 3 0.0691859 0.0684416 0.423159
1034 4 0.0238097 0.0768164 0.436966
2314 2 0.233524 0.0154509 0.490394
1152 4 0.289732 0.0081038 0.439738
1150 2 0.269365 0.998553 0.450652
1060 2 0.40354 0.0479782 0.40931
2241 4 0.355187 0.0354071 0.495171
683 4 0.358412 0.0477713 0.478556
682 2 0.37712 0.0427281 0.462752
684 4 0.395827 0.0376849 0.446948
1061 4 0.392468 0.0340405 0.42687
1966 2 0.476218 0.0271868 0.48408
843 4 0.436784 0.012827 0.496657
1968 4 0.49911 0.0315341 0.475012
1967 4 0.453326 0.0228394 0.493148
161 1 0.0553545 0.0870436 0.42419
162 3 0.0415712 0.085056 0.442499
2237 4 0.0820907 0.121824 0.432368
163 3 0.0681173 0.106288 0.426463
937 2 0.0100927 0.14109 0.429516
938 4 0.0107604 0.158426 0.447522
474 4 0.217501 0.146566 0.470664
724 2 0.192764 0.123938 0.497761
726 4 0.204582 0.141689 0.484706
472 2 0.237919 0.139946 0.45784
473 4 0.258338 0.133326 0.445017
372 4 0.270375 0.123701 0.431909
3159 4 0.356176 0.138595 0.434297
3157 2 0.361566 0.12956 0.45698
3158 4 0.366956 0.120526 0.479663
3174 4 0.451922 0.138113 0.406758
2901 4 0.440325 0.151787 0.398019
2899 2 0.441319 0.169953 0.415171
2613 4 0.0131231 0.17958 0.442784
2611 2 0.0279223 0.19323 0.457611
2612 4 0.0427215 0.206881 0.472437
2845 2 0.0349221 0.23463 0.500263
2847 4 0.0447696 0.213484 0.491262
342 4 0.120883 0.211122 0.409729
402 4 0.13536 0.208577 0.425053
825 4 0.108125 0.228693 0.482966
400 2 0.152736 0.223645 0.434862
369 4 0.0973648 0.21172 0.485811
401 4 0.170111 0.238714 0.44467
1191 4 0.18786 0.248045 0.442457
898 2 0.364383 0.208607 0.502721
899 4 0.361538 0.231569 0.493243
2900 4 0.442313 0.18812 0.432322
312 4 0.454864 0.203004 0.431419
310 2 0.440225 0.222886 0.435364
3059 4 0.482279 0.23944 0.499882
443 4 0.0563769 0.301179 0.480503
442 2 0.079364 0.310057 0.476265
711 4 0.123859 0.312408 0.413858
823 2 0.11215 0.253329 0.481541
824 4 0.116176 0.277965 0.480116
636 4 0.132725 0.3031 0.429851
634 2 0.148714 0.304322 0.449035
444 4 0.102351 0.318935 0.472028
696 4 0.11477 0.321615 0.487917
1189 2 0.202747 0.260896 0.457898
635 4 0.164703 0.305544 0.46822
668 4 0.181583 0.318069 0.467062
1190 4 0.217633 0.273747 0.473339
667 2 0.198838 0.332862 0.477484
669 4 0.216092 0.347656 0.487906
1394 4 0.209002 0.274162 0.491909
640 2 0.368494 0.272814 0.496382
642 4 0.36483 0.297403 0.493709
320 4 0.369734 0.327627 0.433428
321 4 0.369526 0.297344 0.473223
319 2 0.36963 0.312485 0.453325
311 4 0.425585 0.242768 0.43931
452 4 0.418622 0.260631 0.434096
453 4 0.4349 0.301201 0.458382
451 2 0.426761 0.280916 0.446239
266 4 0.438969 0.321185 0.453246
2139 4 0.0739637 0.403636 0.411843
774 4 0.283461 0.419934 0.501899
871 2 0.298507 0.332485 0.4783
872 4 0.288378 0.319797 0.497316
873 4 0.308636 0.345172 0.459284
2924 4 0.327839 0.346297 0.465456
601 2 0.27864 0.410112 0.460726
603 4 0.288227 0.415499 0.483181
2923 2 0.344297 0.363768 0.458452
2925 4 0.360756 0.38124 0.451448
117 3 0.375101 0.391398 0.439669
116 1 0.391964 0.38072 0.428234
120 3 0.405615 0.370187 0.443112
267 4 0.405206 0.352223 0.433309
890 4 0.368983 0.375063 0.491076
265 2 0.422088 0.336704 0.443277
569 4 0.0646327 0.460428 0.414089
2137 2 0.0636924 0.425463 0.418422
1444 2 0.20627 0.451164 0.432274
325 2 0.191953 0.467323 0.497416
326 4 0.194509 0.462487 0.473018
1446 4 0.19441 0.458236 0.453118
374 4 0.272816 0.417355 0.423852
602 4 0.269052 0.404725 0.438271
1173 4 0.355859 0.428838 0.472431
614 4 0.350652 0.432414 0.453814
613 2 0.34597 0.428192 0.429619
1171 2 0.340172 0.435894 0.490578
2109 4 0.427648 0.489373 0.459945
1698 4 0.435152 0.507449 0.46581
1951 2 0.427861 0.422937 0.421822
2108 4 0.453204 0.450006 0.442687
1952 4 0.446024 0.432078 0.436374
2107 2 0.440426 0.46969 0.451316
943 2 0.142179 0.0595378 0.541783
944 4 0.119766 0.0583201 0.5528
945 4 0.164592 0.0607555 0.530767
2315 4 0.221286 0.0349065 0.500236
1182 4 0.223188 0.0529091 0.507969
1180 2 0.206073 0.0711287 0.50744
1181 4 0.188957 0.0893483 0.50691
958 2 0.234173 0.0365081 0.571621
959 4 0.210884 0.0291563 0.566259
960 4 0.257462 0.04386 0.576982
1143 4 0.390933 0.0561583 0.521182
842 4 0.40045 0.0455544 0.507121
1141 2 0.397093 0.0800424 0.517085
2239 2 0.350127 0.0172425 0.511591
841 2 0.418617 0.0291907 0.501889
2506 2 0.495458 0.089281 0.547769
9 3 0.12254 0.13157 0.530375
7 3 0.109574 0.149541 0.560733
6 1 0.114394 0.15178 0.538352
10 3 0.0954181 0.157483 0.527126
917 4 0.118047 0.165709 0.570961
725 4 0.180947 0.106188 0.510817
857 4 0.34352 0.147513 0.596044
1142 4 0.403253 0.103926 0.512988
2500 2 0.369096 0.151909 0.510331
2502 4 0.365981 0.132614 0.494736
576 4 0.423187 0.10338 0.517456
2507 4 0.486757 0.112455 0.54424
574 2 0.445275 0.106415 0.528774
575 4 0.467362 0.10945 0.540093
368 4 0.0958868 0.176502 0.521283
8 3 0.130418 0.16836 0.535752
348 4 0.137982 0.167968 0.569661
346 2 0.156608 0.184448 0.567077
3462 4 0.101552 0.249303 0.544162
347 4 0.175234 0.200927 0.564494
367 2 0.0966258 0.194111 0.503547
409 2 0.189966 0.228059 0.548725
411 4 0.170254 0.219359 0.561411
410 4 0.209678 0.236759 0.536039
1395 4 0.220714 0.254202 0.536239
2501 4 0.372212 0.171203 0.525925
641 4 0.372158 0.248225 0.499055
900 4 0.367228 0.185645 0.5122
3308 4 0.490202 0.171266 0.574196
1262 4 0.499589 0.170674 0.556105
3058 2 0.50593 0.243567 0.506867
3307 2 0.469177 0.160351 0.582194
2846 4 0.0250745 0.255777 0.509265
261 4 0.0288872 0.274795 0.51121
259 2 0.010608 0.27705 0.52812
3043 2 0.152961 0.306161 0.560848
3460 2 0.12028 0.257856 0.558349
3461 4 0.139009 0.266409 0.572537
3044 4 0.138104 0.286817 0.566349
3045 4 0.167819 0.325504 0.555347
1393 2 0.214858 0.264182 0.514074
935 4 0.18615 0.320388 0.560538
1136 4 0.00449707 0.376628 0.574672
1135 2 0.0265885 0.387611 0.570607
1137 4 0.0486799 0.398594 0.566543
540 4 0.0616604 0.41349 0.561974
1639 2 0.0133867 0.347697 0.506819
538 2 0.0792975 0.412339 0.544288
1640 4 0.0263832 0.326627 0.50331
694 2 0.123105 0.340911 0.501459
695 4 0.131439 0.360208 0.515
2244 4 0.141157 0.377625 0.516902
2242 2 0.127914 0.397399 0.52457
539 4 0.0969345 0.411189 0.526602
934 2 0.197296 0.340562 0.550844
936 4 0.208443 0.360736 0.541151
812 4 0.281565 0.332746 0.511482
811 2 0.280137 0.346319 0.532432
813 4 0.278709 0.359891 0.553383
1205 4 0.312348 0.421669 0.580924
889 2 0.365381 0.365287 0.513805
891 4 0.36178 0.355512 0.536535
1239 4 0.378699 0.362341 0.54455
1237 2 0.394769 0.373214 0.560321
1238 4 0.410839 0.384087 0.576092
2243 4 0.11467 0.417173 0.532237
773 4 0.237996 0.425585 0.521939
327 4 0.189396 0.472158 0.521814
772 2 0.260728 0.42276 0.511919
1454 4 0.311023 0.484088 0.564785
882 4 0.318426 0.486128 0.54754
1453 2 0.288592 0.48446 0.575824
1029 4 0.313274 0.440323 0.574119
1027 2 0.319883 0.444984 0.55046
1028 4 0.326492 0.449645 0.5268
1172 4 0.324485 0.44295 0.508725
238 2 0.485996 0.470441 0.549259
239 4 0.466032 0.48435 0.555016
1153 2 0.140898 0.07606 0.620525
1154 4 0.118379 0.0855087 0.615157
1818 4 0.152182 0.99463 0.65344
1256 4 0.20082 0.0308789 0.585276
1155 4 0.163416 0.0666112 0.625894
1257 4 0.163698 0.0523736 0.61098
1255 2 0.182259 0.0416262 0.598128
1130 4 0.401147 0.0743248 0.612716
1004 4 0.394846 0.0573579 0.62166
1003 2 0.380755 0.0391471 0.631406
1005 4 0.366663 0.0209362 0.641151
966 4 0.365566 0.00154585 0.638988
1164 4 0.493285 0.00869059 0.657861
1284 4 0.0702981 0.105004 0.651947
834 4 0.066316 0.112156 0.669712
1282 2 0.0868472 0.101804 0.633479
1283 4 0.103396 0.0986043 0.615011
916 2 0.113274 0.165713 0.595505
1129 2 0.39126 0.0963209 0.61932
1131 4 0.381374 0.118317 0.625924
856 2 0.365874 0.141584 0.605549
858 4 0.388228 0.135656 0.615055
3309 4 0.448151 0.149437 0.590192
269 4 0.459666 0.132699 0.65732
268 2 0.457325 0.138504 0.633112
270 4 0.454984 0.14431 0.608905
1025 4 0.474734 0.123038 0.666036
1211 4 0.117058 0.17697 0.634045
918 4 0.1085 0.165716 0.620049
1210 2 0.102728 0.189714 0.650089
2317 2 0.313717 0.179998 0.596
2319 4 0.295109 0.196694 0.595634
950 4 0.283668 0.191275 0.611742
949 2 0.279117 0.213159 0.622946
951 4 0.274566 0.235044 0.63415
2318 4 0.332325 0.163301 0.596366
3418 2 0.0190347 0.32029 0.647416
1281 4 0.0627103 0.325607 0.648852
3420 4 0.0438937 0.318684 0.645264
1279 2 0.0841015 0.315205 0.641145
1280 4 0.105493 0.304804 0.633437
895 2 0.141435 0.311965 0.632608
896 4 0.119308 0.311294 0.620985
897 4 0.163563 0.312636 0.644231
1084 2 0.195079 0.297973 0.635489
1085 4 0.172159 0.304309 0.627761
1086 4 0.217999 0.291638 0.643216
978 4 0.232553 0.285423 0.63115
976 2 0.250961 0.269417 0.63664
977 4 0.269368 0.253411 0.64213
992 4 0.10281 0.358847 0.662415
1139 4 0.323535 0.389514 0.637764
1138 2 0.316724 0.376116 0.657746
1206 4 0.311026 0.393728 0.622376
1204 2 0.311687 0.407699 0.60165
804 4 0.407779 0.401007 0.586414
802 2 0.420581 0.39042 0.605101
803 4 0.433384 0.379832 0.623787
998 4 0.439539 0.361602 0.627308
997 2 0.454061 0.360413 0.647628
2130 4 0.094546 0.47619 0.633849
1983 4 0.0844007 0.479637 0.615793
1981 2 0.0838694 0.502385 0.605426
2128 2 0.115243 0.476991 0.647855
2129 4 0.13594 0.477792 0.661861
1455 4 0.26616 0.484831 0.586862
3324 4 0.409847 0.506026 0.651345
3082 2 0.0573871 0.0257946 0.743647
3084 4 0.0822217 0.027119 0.741065
3591 4 0.0960194 0.0116606 0.743595
3438 4 0.500241 0.0157688 0.675088
953 4 0.440017 0.0456875 0.73075
952 2 0.442835 0.057829 0.709075
888 4 0.454389 0.0311593 0.727727
1026 4 0.463792 0.0781735 0.685224
886 2 0.456318 0.00891484 0.73898
954 4 0.445654 0.0699706 0.6874
832 2 0.0470041 0.107195 0.684799
1178 4 0.0144035 0.116397 0.69649
833 4 0.0276922 0.102234 0.699886
2255 4 0.212895 0.113797 0.693026
2254 2 0.197735 0.113824 0.71291
2256 4 0.182575 0.113851 0.732794
1024 2 0.469263 0.100606 0.67563
151 1 0.0176612 0.217402 0.73446
153 3 0.0354915 0.232096 0.732323
155 3 0.998088 0.228278 0.730309
154 3 0.0201709 0.199697 0.719673
1212 4 0.0883977 0.202458 0.666133
1259 4 0.106248 0.212828 0.672156
1258 2 0.111707 0.232078 0.687149
792 4 0.400207 0.253197 0.713158
905 4 0.501312 0.232294 0.721169
3402 4 0.458714 0.214557 0.698447
3400 2 0.471757 0.193227 0.698118
3401 4 0.484801 0.171898 0.697789
1066 2 0.0688178 0.317733 0.714978
1260 4 0.117166 0.251328 0.702143
1068 4 0.0824078 0.298529 0.706512
1299 4 0.133908 0.261073 0.69785
1297 2 0.141201 0.283682 0.690051
1298 4 0.148495 0.306291 0.682253
1016 4 0.312415 0.332279 0.720623
805 2 0.373882 0.337107 0.684112
807 4 0.38473 0.315062 0.688751
791 4 0.39544 0.300466 0.697547
790 2 0.397823 0.276832 0.705352
1067 4 0.0552277 0.336938 0.723444
885 4 0.0387192 0.337565 0.712634
883 2 0.0179666 0.34231 0.725749
991 2 0.101823 0.371863 0.683742
993 4 0.100835 0.384878 0.705068
1098 4 0.163685 0.418409 0.697789
1096 2 0.17048 0.399086 0.71213
1097 4 0.177274 0.379763 0.72647
1278 4 0.196813 0.373293 0.725716
1276 2 0.220448 0.376085 0.718051
1277 4 0.244083 0.378878 0.710386
1017 4 0.291818 0.356716 0.682161
1015 2 0.302117 0.344498 0.701392
1019 4 0.332952 0.333122 0.720441
1140 4 0.309913 0.362718 0.677728
796 2 0.280368 0.387853 0.725934
797 4 0.26273 0.384856 0.708466
798 4 0.298005 0.390849 0.743402
1044 4 0.304533 0.383031 0.760211
83 3 0.31926 0.397785 0.748889
1018 2 0.347978 0.343529 0.737503
806 4 0.363034 0.359152 0.679472
190 3 0.398687 0.380154 0.747778
84 3 0.33685 0.421708 0.725168
81 1 0.339858 0.405326 0.741323
85 3 0.351784 0.387966 0.732659
999 4 0.468582 0.359224 0.667947
3465 4 0.466658 0.366368 0.685585
3463 2 0.47775 0.387828 0.692036
3464 4 0.488843 0.409288 0.698487
941 4 0.152324 0.43433 0.698046
942 4 0.146469 0.479368 0.677116
940 2 0.149396 0.456849 0.687581
3131 4 0.0250299 0.0141246 0.761132
3083 4 0.0325524 0.0244702 0.746228
3130 2 0.00072839 0.0170907 0.766213
948 4 0.0417816 0.0765176 0.773814
946 2 0.0650472 0.0777074 0.764733
3589 2 0.113722 0.000604577 0.757363
947 4 0.0883128 0.0788973 0.755651
851 4 0.102452 0.089113 0.763834
1038 4 0.282937 0.98343 0.792949
845 4 0.417164 0.0130331 0.770118
844 2 0.43264 0.022885 0.787107
846 4 0.448115 0.0327369 0.804096
534 4 0.443395 0.046673 0.817131
864 4 0.0304743 0.149134 0.806778
862 2 0.0257488 0.162187 0.827574
850 2 0.120116 0.104804 0.772016
31 1 0.14294 0.149458 0.795458
32 3 0.127475 0.132678 0.79256
852 4 0.13778 0.120496 0.780198
1023 4 0.155946 0.126247 0.776311
34 3 0.149244 0.150076 0.817781
35 3 0.161099 0.145265 0.78237
33 3 0.133302 0.169672 0.789386
869 4 0.115605 0.170183 0.778129
1214 4 0.115298 0.121783 0.846561
1022 4 0.189416 0.101591 0.748517
1021 2 0.172681 0.113919 0.762414
152 3 0.0173453 0.209165 0.755936
924 4 0.0068904 0.214467 0.773729
922 2 0.0212668 0.214244 0.794184
923 4 0.0356433 0.214021 0.81464
870 4 0.0746235 0.198717 0.780794
868 2 0.095114 0.18445 0.779461
1092 4 0.230738 0.242325 0.809554
1090 2 0.234708 0.226871 0.828805
839 4 0.211694 0.249381 0.816281
838 2 0.19743 0.266216 0.804521
1209 4 0.182046 0.299179 0.778788
1207 2 0.180951 0.32249 0.787764
840 4 0.183166 0.283051 0.792761
3328 2 0.280056 0.316453 0.796962
3329 4 0.279248 0.299327 0.815162
3330 4 0.280865 0.333579 0.778763
801 4 0.262796 0.308987 0.824129
815 4 0.00949297 0.345566 0.755861
1289 4 0.141349 0.388058 0.812833
1288 2 0.162279 0.377076 0.804678
1224 4 0.12862 0.38773 0.82772
1290 4 0.183209 0.366093 0.796523
1208 4 0.179856 0.345801 0.79674
1064 4 0.224345 0.382299 0.768688
57 3 0.235784 0.366344 0.770201
58 3 0.237216 0.358442 0.806918
989 4 0.245446 0.372715 0.819007
56 1 0.249812 0.36422 0.788307
1063 2 0.217132 0.405964 0.765069
821 4 0.251731 0.388819 0.809279
60 3 0.260412 0.384045 0.791949