ITEM: TIMESTEP
1180000
ITEM: NUMBER OF ATOMS
4590
ITEM: BOX BOUNDS pp pp pp
-9.9985700000000008e+00 9.9985700000000008e+00
-9.9985700000000008e+00 9.9985700000000008e+00
-9.9985700000000008e+00 9.9985700000000008e+00
ITEM: ATOMS id type xs ys zs
1667 4 0.0280102 0.0750596 0.0492499
1666 2 0.0483633 0.0703465 0.0629874
784 2 0.00991895 0.0314114 0.00917427
3234 4 0.0269111 0.0808581 0.0302245
702 4 0.088225 0.0627336 0.0788772
785 4 0.00821281 0.0472711 0.0284288
701 4 0.12871 0.0373487 0.0936181
700 2 0.108468 0.0500411 0.0862476
933 4 0.162612 0.0708942 0.0115987
485 4 0.242591 0.0565367 0.0738972
566 4 0.243436 0.0754496 0.079954
484 2 0.242616 0.0319363 0.0694249
486 4 0.242641 0.007336 0.0649525
490 2 0.321036 0.0640959 0.009322
1541 4 0.348075 0.999312 0.0253044
1760 4 0.400534 0.0103088 0.0598177
491 4 0.338766 0.0678314 0.0265521
1448 4 0.403074 0.0109286 0.0795546
1759 2 0.415262 0.00962102 0.0396244
1606 2 0.456044 0.0759365 0.0500118
1607 4 0.458525 0.0548192 0.0368556
3232 2 0.0110272 0.0863254 0.0117045
2624 4 0.00885132 0.13914 0.0733356
656 4 0.00375187 0.157743 0.0783333
565 2 0.241151 0.0955646 0.0652795
355 2 0.236587 0.14539 0.0331752
356 4 0.234879 0.120477 0.0319004
357 4 0.238296 0.170302 0.0344501
567 4 0.238866 0.11568 0.0506049
557 4 0.342229 0.088775 0.0279453
665 4 0.341628 0.158169 0.0212375
558 4 0.345653 0.13862 0.0258299
556 2 0.343941 0.113698 0.0268876
746 4 0.460338 0.114077 0.0693026
1608 4 0.453563 0.0970537 0.0631679
2791 2 0.421158 0.15537 0.0599771
2793 4 0.434335 0.134127 0.0594451
915 4 0.145063 0.200956 0.0223235
573 4 0.236346 0.189629 0.0376193
571 2 0.220968 0.199435 0.0205158
572 4 0.205591 0.209242 0.00341237
352 2 0.28292 0.210706 0.0134273
354 4 0.268455 0.224038 0.028861
297 4 0.262485 0.218737 0.0475252
295 2 0.269365 0.21544 0.0713365
664 2 0.360963 0.168043 0.0336401
254 4 0.391534 0.186387 0.0596754
666 4 0.380299 0.177917 0.0460427
253 2 0.397248 0.207478 0.0718278
255 4 0.402963 0.228569 0.0839801
2792 4 0.407981 0.176613 0.0605091
2893 2 0.46861 0.214132 0.048027
2894 4 0.491912 0.205228 0.0497357
2895 4 0.445308 0.223035 0.0463184
2639 4 0.505528 0.193526 0.0599934
2771 4 0.00680024 0.311734 0.0705183
456 4 0.117884 0.321047 0.00555712
455 4 0.125152 0.311995 0.0541984
454 2 0.121518 0.316521 0.0298777
287 4 0.145031 0.308484 0.0514566
286 2 0.168431 0.31131 0.0598012
250 2 0.229093 0.317651 0.0667293
288 4 0.191831 0.314136 0.0681459
252 4 0.208572 0.303372 0.0671403
1071 4 0.364239 0.303379 0.0479327
1069 2 0.352467 0.314954 0.0291542
324 4 0.378734 0.295829 0.0369407
322 2 0.402651 0.295503 0.0442254
1070 4 0.340695 0.326529 0.0103757
13 3 0.403601 0.310309 0.0807375
323 4 0.426567 0.295177 0.0515102
671 4 0.437778 0.310502 0.0427816
550 2 0.0708848 0.398552 0.0652288
551 4 0.0485891 0.397542 0.0539567
330 4 0.033415 0.387992 0.0636362
328 2 0.0120335 0.400953 0.0638098
552 4 0.0931805 0.399563 0.0765009
251 4 0.249614 0.33193 0.0663184
483 4 0.264842 0.336859 0.055025
902 4 0.284514 0.368385 0.00750101
481 2 0.271204 0.355951 0.0401853
482 4 0.277567 0.375042 0.0253456
493 2 0.381064 0.411265 0.0159637
495 4 0.372196 0.395767 0.998461
670 2 0.441643 0.334483 0.0368548
672 4 0.445509 0.358465 0.0309281
315 4 0.0265887 0.501339 0.0552105
1692 4 0.143324 0.428626 0.00438585
1620 4 0.109167 0.489183 0.00510142
1691 4 0.117593 0.471483 0.00578417
1690 2 0.130458 0.450055 0.00508501
1618 2 0.116541 0.506209 0.0218622
241 2 0.222679 0.494392 0.00883853
243 4 0.218174 0.470668 0.00235257
494 4 0.389932 0.426764 0.0334663
525 4 0.385416 0.443039 0.0443327
523 2 0.365092 0.441851 0.0588485
1668 4 0.0687164 0.0656333 0.0767248
379 2 0.0351727 0.0249032 0.129395
590 4 0.00597684 0.0476007 0.105133
381 4 0.0470425 0.011173 0.146593
380 4 0.0233029 0.0386334 0.112197
589 2 0.00607914 0.0717278 0.111694
450 4 0.139696 0.0446606 0.108811
448 2 0.151804 0.058104 0.126069
449 4 0.163912 0.0715474 0.143328
578 4 0.152288 0.0874242 0.141701
652 2 0.313324 0.0461676 0.143331
653 4 0.303786 0.0554666 0.122171
1447 2 0.417922 0.0170707 0.0987118
1784 4 0.445687 0.0163253 0.132557
1449 4 0.43277 0.0232128 0.117869
2758 2 0.0271911 0.118224 0.138199
2760 4 0.00899335 0.10112 0.136986
2759 4 0.0453888 0.135328 0.139412
738 4 0.0484094 0.153239 0.145958
736 2 0.0731294 0.155412 0.142896
737 4 0.0978495 0.157585 0.139834
577 2 0.14948 0.108438 0.154956
507 4 0.117743 0.155187 0.136574
745 2 0.474051 0.115709 0.0901462
747 4 0.487765 0.11734 0.11099
771 4 0.492721 0.135901 0.116121
505 2 0.131393 0.17444 0.128314
506 4 0.145042 0.193692 0.120055
755 4 0.161864 0.204786 0.125699
754 2 0.185731 0.197335 0.125801
756 4 0.209598 0.189884 0.125903
462 4 0.225254 0.220096 0.140848
278 4 0.218316 0.182216 0.165029
460 2 0.24747 0.231269 0.138245
461 4 0.269686 0.242443 0.135642
296 4 0.276245 0.212144 0.0951478
581 4 0.294226 0.221551 0.0937394
580 2 0.313618 0.214372 0.107795
582 4 0.333011 0.207193 0.121851
518 4 0.402122 0.231109 0.104324
2808 4 0.00137691 0.305219 0.0880686
2806 2 0.0248835 0.298589 0.0934219
2807 4 0.0483901 0.291959 0.0987752
477 4 0.0516776 0.277857 0.11104
475 2 0.0704373 0.28076 0.127313
476 4 0.089197 0.283663 0.143587
362 4 0.107558 0.292424 0.139279
361 2 0.12404 0.297901 0.157265
623 4 0.26351 0.26132 0.138013
622 2 0.281279 0.274984 0.126934
624 4 0.299047 0.288648 0.115854
740 4 0.302436 0.307105 0.110718
739 2 0.325325 0.310856 0.101381
498 4 0.330105 0.26412 0.156202
15 3 0.366174 0.307254 0.0834761
517 2 0.400087 0.254246 0.113583
308 4 0.342932 0.279701 0.153822
519 4 0.398052 0.277383 0.122841
309 4 0.385624 0.292345 0.131056
307 2 0.364278 0.286023 0.142439
741 4 0.348214 0.314607 0.0920434
14 3 0.387316 0.303609 0.114417
11 1 0.385034 0.314442 0.0940252
12 3 0.38346 0.337084 0.097768
648 4 0.035676 0.328102 0.166688
416 4 0.101825 0.407727 0.156839
417 4 0.0825322 0.397882 0.111766
415 2 0.0921786 0.402805 0.134302
609 4 0.189737 0.32299 0.150757
607 2 0.210646 0.336654 0.151896
608 4 0.231555 0.350318 0.153034
612 4 0.243734 0.354976 0.168915
245 4 0.347711 0.410069 0.123171
387 4 0.359186 0.404708 0.137455
385 2 0.364856 0.395129 0.159844
2652 4 0.413606 0.388389 0.165725
596 4 0.419021 0.398593 0.148979
1788 4 0.139285 0.477092 0.137462
1786 2 0.118256 0.490043 0.133561
290 4 0.143883 0.463366 0.123708
289 2 0.162581 0.451319 0.135128
291 4 0.18128 0.439272 0.146548
627 4 0.198989 0.444596 0.147597
246 4 0.337447 0.447167 0.0912468
524 4 0.344768 0.440663 0.0733643
595 2 0.414834 0.422568 0.143245
244 2 0.342579 0.428618 0.107209
597 4 0.410647 0.446542 0.137511
659 4 0.394832 0.457788 0.131715
658 2 0.411774 0.473591 0.122312
660 4 0.428716 0.489394 0.112909
1420 2 0.0527006 0.99842 0.175862
1404 4 0.0215256 0.0145135 0.227247
1402 2 0.00772384 0.0224104 0.246543
1422 4 0.0644294 0.00406765 0.154514
654 4 0.322862 0.0368685 0.16449
1504 2 0.254556 0.0234548 0.202226
1505 4 0.255262 0.044048 0.188063
692 4 0.271286 0.0564132 0.188083
691 2 0.268371 0.0784696 0.199493
30 3 0.293124 0.0206236 0.254741
1476 4 0.337168 0.0300132 0.17641
1474 2 0.35563 0.0134693 0.179672
1475 4 0.374092 0.996925 0.182935
579 4 0.146673 0.129452 0.168212
511 2 0.101398 0.157693 0.237815
512 4 0.113464 0.176946 0.22738
513 4 0.0893322 0.138439 0.24825
236 4 0.162917 0.137575 0.177177
235 2 0.177544 0.140097 0.197299
237 4 0.19217 0.142618 0.21742
722 4 0.209206 0.139533 0.224924
721 2 0.229957 0.126016 0.221483
723 4 0.250708 0.112498 0.218042
693 4 0.265456 0.100526 0.210904
759 4 0.395629 0.149345 0.181213
757 2 0.416616 0.139178 0.190233
23 3 0.474136 0.117914 0.166154
758 4 0.437603 0.12901 0.199254
25 3 0.48645 0.150891 0.179516
24 3 0.452652 0.138126 0.190118
22 3 0.484042 0.121386 0.202243
21 1 0.474356 0.132226 0.184416
704 4 0.992582 0.187143 0.174416
393 4 0.124431 0.183162 0.212531
391 2 0.125395 0.207239 0.219206
392 4 0.126359 0.231316 0.225881
546 4 0.145713 0.229837 0.231739
732 4 0.208584 0.187969 0.233026
277 2 0.211214 0.183899 0.188944
279 4 0.204112 0.185582 0.212858
730 2 0.231699 0.188429 0.242546
763 2 0.31713 0.235259 0.230686
708 4 0.329254 0.20626 0.24523
629 4 0.396331 0.166524 0.1932
628 2 0.401438 0.190871 0.195712
377 4 0.397983 0.229566 0.209074
376 2 0.402688 0.240175 0.231222
630 4 0.406546 0.215218 0.198224
520 2 0.481862 0.21494 0.231424
521 4 0.496146 0.21788 0.211114
528 4 0.485089 0.228534 0.197997
646 2 0.0448043 0.307424 0.177379
647 4 0.0539326 0.286747 0.18807
396 4 0.0630054 0.273708 0.201755
2694 4 0.0830702 0.285089 0.257423
363 4 0.140522 0.303378 0.175252
394 2 0.0868176 0.266098 0.201261
395 4 0.11063 0.258488 0.200768
733 2 0.109404 0.312408 0.246075
339 4 0.135738 0.300561 0.194346
337 2 0.148135 0.286254 0.210681
734 4 0.126572 0.323135 0.231399
338 4 0.160531 0.271947 0.227015
299 4 0.119959 0.324511 0.213191
764 4 0.323141 0.258424 0.223442
497 4 0.328096 0.26879 0.20595
496 2 0.3291 0.266455 0.181076
2841 4 0.440575 0.307466 0.147138
2839 2 0.450033 0.299374 0.168823
2840 4 0.459491 0.291283 0.190508
527 4 0.461663 0.271121 0.186237
526 2 0.473376 0.249828 0.192117
378 4 0.407393 0.250783 0.253369
620 4 0.0285563 0.345797 0.171646
619 2 0.00622089 0.351034 0.18159
537 4 0.0956034 0.419836 0.170628
298 2 0.129137 0.342819 0.198847
300 4 0.138315 0.361127 0.184503
366 4 0.111021 0.403042 0.225698
364 2 0.118929 0.381075 0.234648
603 4 0.176408 0.425375 0.211461
601 2 0.182049 0.414973 0.233487
345 4 0.292121 0.342042 0.21051
344 4 0.322973 0.335733 0.249357
343 2 0.307547 0.338888 0.229933
611 4 0.286738 0.342203 0.191009
610 2 0.265236 0.348589 0.179962
1574 4 0.301629 0.427363 0.198147
386 4 0.370527 0.38555 0.182233
644 4 0.354862 0.378968 0.193658
643 2 0.361241 0.381928 0.217653
645 4 0.367619 0.384888 0.241647
542 4 0.352076 0.394246 0.251498
2650 2 0.434094 0.374109 0.166946
2651 4 0.454582 0.359829 0.168167
2536 2 0.468638 0.366083 0.210094
2538 4 0.463018 0.362781 0.185955
2537 4 0.474257 0.369386 0.234233
108 3 0.478263 0.384305 0.247589
2617 2 0.0173077 0.478338 0.199955
2618 4 0.0334217 0.469743 0.217033
3960 4 0.0263973 0.460713 0.233489
2619 4 0.00119365 0.486932 0.182877
536 4 0.103609 0.439154 0.216053
535 2 0.0996063 0.429495 0.193341
1774 2 0.136183 0.466921 0.214459
1775 4 0.11305 0.457775 0.21698
1776 4 0.159317 0.476068 0.211939
414 4 0.159252 0.49302 0.223507
625 2 0.220263 0.445965 0.160663
766 2 0.244716 0.483083 0.200315
626 4 0.241536 0.447333 0.17373
768 4 0.246667 0.464005 0.184272
1573 2 0.322493 0.427186 0.211926
1575 4 0.343356 0.427009 0.225706
230 4 0.359542 0.42809 0.214868
229 2 0.380633 0.440392 0.220252
231 4 0.401724 0.452694 0.225637
713 4 0.420299 0.452325 0.234208
1403 4 0.993922 0.0303073 0.265839
1477 2 0.124766 0.0270019 0.289302
429 4 0.153703 0.05721 0.280357
1479 4 0.138436 0.0479243 0.288555
427 2 0.146194 0.0698126 0.260109
28 3 0.320623 0.0408729 0.270597
27 3 0.291094 0.0578899 0.25475
26 1 0.297792 0.0394225 0.266719
29 3 0.286341 0.0390022 0.286895
248 4 0.283015 0.0543875 0.299899
247 2 0.276294 0.0539872 0.323979
743 4 0.388978 0.0455112 0.31655
742 2 0.413449 0.0472746 0.311727
1748 4 0.381006 0.0500206 0.334002
744 4 0.437919 0.0490379 0.306905
531 4 0.0696504 0.136602 0.253683
529 2 0.0478011 0.136179 0.265833
530 4 0.0259519 0.135755 0.277982
458 4 0.0110878 0.13995 0.292007
457 2 0.00786805 0.129215 0.314357
428 4 0.138686 0.0824151 0.239861
404 4 0.259179 0.155047 0.318237
605 4 0.271249 0.153593 0.302807
707 4 0.331976 0.163277 0.270641
604 2 0.267802 0.162742 0.279794
633 4 0.332841 0.143909 0.278293
631 2 0.34845 0.129724 0.291722
632 4 0.364058 0.115539 0.305151
698 4 0.383662 0.120984 0.308003
697 2 0.402766 0.137114 0.307872
699 4 0.421871 0.153244 0.307741
333 4 0.416169 0.172116 0.308557
2797 2 0.0182926 0.216165 0.276368
2654 4 0.0287156 0.234772 0.308248
2653 2 0.0520143 0.232937 0.317135
2799 4 0.0344414 0.230651 0.2888
2655 4 0.0753131 0.231101 0.326022
2850 4 0.0867436 0.223775 0.31163
544 2 0.156284 0.24323 0.250016
2848 2 0.107858 0.216814 0.300189
2849 4 0.128973 0.209853 0.288749
731 4 0.254815 0.188889 0.252067
284 4 0.223129 0.261798 0.30957
765 4 0.311119 0.212095 0.237929
606 4 0.264355 0.171891 0.256781
706 2 0.330615 0.184769 0.257935
351 4 0.423755 0.232251 0.339616
522 4 0.467578 0.211999 0.251734
420 4 0.456161 0.2079 0.267527
418 2 0.470233 0.203361 0.28769
419 4 0.484306 0.198822 0.307852
332 4 0.42726 0.216662 0.32839
331 2 0.421714 0.194389 0.318474
2692 2 0.0582808 0.286976 0.260089
2693 4 0.0334915 0.288862 0.262755
2718 4 0.0152303 0.287325 0.270138
2802 4 0.0249896 0.327688 0.322138
2716 2 0.999109 0.276451 0.285854
735 4 0.0922358 0.301681 0.260751
389 4 0.147691 0.252912 0.311332
750 4 0.1352 0.263196 0.299517
748 2 0.137602 0.288084 0.299361
749 4 0.140003 0.312971 0.299206
618 4 0.133033 0.331106 0.300935
285 4 0.179857 0.255627 0.285278
283 2 0.201493 0.258712 0.297424
545 4 0.166856 0.256622 0.268294
508 2 0.278096 0.333649 0.338791
274 2 0.377816 0.334266 0.301778
276 4 0.397352 0.318661 0.301828
614 4 0.410413 0.3128 0.313941
613 2 0.427388 0.301685 0.328552
2463 4 0.0190387 0.345873 0.320568
365 4 0.126838 0.359108 0.243597
616 2 0.110966 0.342864 0.300874
617 4 0.0888994 0.354621 0.300813
729 4 0.218616 0.357823 0.277891
434 4 0.23825 0.36065 0.276224
728 4 0.198415 0.402988 0.270627
727 2 0.208515 0.380405 0.274259
509 4 0.287492 0.336246 0.315766
435 4 0.278778 0.347098 0.302195
433 2 0.258514 0.353874 0.28921
275 4 0.35828 0.349871 0.301727
541 2 0.36063 0.404521 0.272627
543 4 0.369183 0.414797 0.293756
446 4 0.363457 0.41823 0.312663
680 4 0.0694143 0.472021 0.325561
3958 2 0.0154743 0.465494 0.255466
501 4 0.0698323 0.49083 0.321048
679 2 0.0668212 0.448605 0.333938
602 4 0.18769 0.404571 0.255514
504 4 0.176638 0.445024 0.302204
502 2 0.198022 0.457891 0.303738
436 2 0.24049 0.493551 0.283999
437 4 0.225629 0.473546 0.286025
503 4 0.219406 0.470758 0.305271
1435 2 0.294573 0.501943 0.302016
1437 4 0.315394 0.49309 0.31266
5 3 0.327519 0.48363 0.326432
445 2 0.379758 0.41739 0.331604
1716 4 0.496442 0.451337 0.321598
1472 4 0.435616 0.457815 0.290899
1471 2 0.455853 0.454446 0.305193
712 2 0.429061 0.461903 0.255577
714 4 0.437822 0.471482 0.276947
1473 4 0.476089 0.451078 0.319487
600 4 0.229708 0.0584176 0.382521
2428 2 0.225953 0.0160414 0.381277
2429 4 0.233065 0.0394458 0.386457
598 2 0.224954 0.0771875 0.366701
249 4 0.269573 0.0535869 0.348059
1701 4 0.298346 0.0541106 0.400583
1700 4 0.267402 0.0409748 0.36356
1699 2 0.282874 0.0475427 0.382071
1496 4 0.343012 0.998898 0.358345
1749 4 0.355845 0.0143314 0.358372
1747 2 0.368425 0.032176 0.346187
459 4 0.00464831 0.118479 0.336708
340 2 0.0539893 0.134285 0.379566
341 4 0.0426206 0.120615 0.397146
342 4 0.0653579 0.147954 0.361985
1035 4 0.0418066 0.11892 0.416677
686 4 0.0759669 0.162409 0.35561
367 2 0.145419 0.148978 0.393704
369 4 0.163206 0.132145 0.388659
368 4 0.127631 0.16581 0.398749
599 4 0.220201 0.0959574 0.350881
403 2 0.271134 0.141761 0.335722
405 4 0.28309 0.128476 0.353208
468 4 0.302248 0.136637 0.355955
466 2 0.317497 0.150447 0.370164
684 4 0.335017 0.151683 0.399799
467 4 0.332747 0.164258 0.384373
514 2 0.405684 0.149901 0.361625
516 4 0.385598 0.146527 0.347122
682 2 0.35479 0.141739 0.411433
515 4 0.425771 0.153274 0.376128
480 4 0.43673 0.164143 0.389374
478 2 0.445469 0.14961 0.407748
479 4 0.454208 0.135077 0.426122
687 4 0.068839 0.21158 0.36128
685 2 0.0724029 0.186995 0.358445
469 2 0.0679879 0.225841 0.400848
470 4 0.075339 0.217019 0.378637
388 2 0.155872 0.247534 0.334339
390 4 0.164053 0.242157 0.357346
370 2 0.178296 0.256615 0.388231
371 4 0.182172 0.249119 0.364694
474 4 0.251423 0.192291 0.374557
472 2 0.230725 0.197443 0.36151
473 4 0.210027 0.202595 0.348462
372 4 0.17442 0.26411 0.411768
651 4 0.272054 0.183389 0.397471
716 4 0.327492 0.207945 0.416785
715 2 0.310007 0.193428 0.406358
717 4 0.292522 0.178911 0.395932
649 2 0.254033 0.17248 0.41094
350 4 0.411856 0.264534 0.375905
349 2 0.417805 0.248392 0.35776
762 4 0.490716 0.181604 0.354732
452 4 0.444918 0.242908 0.390735
2516 4 0.476282 0.191335 0.364342
2515 2 0.465241 0.212976 0.370251
2517 4 0.4542 0.234618 0.376159
2800 2 0.0323986 0.313854 0.341604
2801 4 0.0398076 0.300021 0.36107
443 4 0.0581481 0.298134 0.370015
442 2 0.0776617 0.29052 0.383669
444 4 0.0971752 0.282906 0.397323
260 4 0.106217 0.293777 0.410579
510 4 0.2687 0.331053 0.361816
636 4 0.284846 0.341142 0.369686
117 3 0.483946 0.338173 0.36539
615 4 0.444363 0.29057 0.343163
2924 4 0.462003 0.287573 0.34891
2923 2 0.478164 0.304417 0.357871
375 4 0.138463 0.42703 0.372079
373 2 0.14823 0.42785 0.395081
634 2 0.302451 0.34089 0.387439
635 4 0.320056 0.340639 0.405192
668 4 0.325133 0.349619 0.422498
667 2 0.348424 0.358691 0.421847
120 3 0.488796 0.374924 0.369716
681 4 0.064228 0.42519 0.342316
677 4 0.0777393 0.425956 0.357491
374 4 0.157997 0.42867 0.418084
676 2 0.0995556 0.427016 0.369661
678 4 0.121372 0.428077 0.381831
593 4 0.337306 0.49002 0.382031
3 3 0.36251 0.475111 0.337419
1 1 0.344988 0.49018 0.339492
752 4 0.404806 0.420212 0.367933
592 2 0.349653 0.486873 0.403544
751 2 0.412847 0.443268 0.373316
4 3 0.338247 0.49149 0.361656
447 4 0.396059 0.41655 0.350545
560 4 0.424416 0.486491 0.385634
559 2 0.427733 0.486701 0.410416
753 4 0.420888 0.466323 0.378698
719 4 0.0463865 0.0351141 0.505257
441 4 0.275645 0.004437 0.476013
1516 2 0.401372 0.0646245 0.480698
431 4 0.44668 0.00311531 0.464835
2879 4 0.487561 0.0343077 0.479348
2878 2 0.463836 0.0420418 0.480928
2880 4 0.440112 0.0497758 0.482508
1517 4 0.422537 0.0557423 0.490614
2643 4 0.448988 0.0824655 0.451073
937 2 0.00809449 0.151916 0.486534
938 4 0.00367735 0.136697 0.467194
1034 4 0.0109121 0.140834 0.449327
1033 2 0.0263593 0.129877 0.433002
650 4 0.236012 0.161571 0.424409
1518 4 0.380207 0.0735067 0.470782
575 4 0.368878 0.0904396 0.469841
683 4 0.374563 0.131795 0.423066
576 4 0.381581 0.129601 0.441456
574 2 0.37523 0.11002 0.455649
2642 4 0.437418 0.124796 0.427095
2641 2 0.443203 0.103631 0.439084
471 4 0.0606369 0.234662 0.423059
825 4 0.0699505 0.187961 0.44966
823 2 0.0667796 0.182518 0.473857
824 4 0.0636086 0.177074 0.498054
321 4 0.231569 0.162861 0.444564
319 2 0.217625 0.171176 0.46358
320 4 0.203682 0.17949 0.482596
402 4 0.180172 0.236866 0.467773
401 4 0.187629 0.252884 0.420991
400 2 0.1839 0.244875 0.444382
858 4 0.201157 0.184533 0.50168
488 4 0.319959 0.224469 0.421626
487 2 0.332839 0.236399 0.43943
489 4 0.345719 0.248329 0.457233
640 2 0.343368 0.21586 0.492114
642 4 0.339481 0.192348 0.484549
451 2 0.433937 0.234931 0.411733
453 4 0.422955 0.226954 0.432732
1200 4 0.0537468 0.249304 0.435334
1198 2 0.0579078 0.253855 0.459565
1199 4 0.0620688 0.258407 0.483797
879 4 0.057573 0.256414 0.502344
259 2 0.110674 0.292331 0.435139
261 4 0.115131 0.290884 0.4597
695 4 0.130535 0.282198 0.469486
694 2 0.130248 0.290446 0.493088
711 4 0.182402 0.324174 0.459915
773 4 0.184134 0.312701 0.475608
772 2 0.19853 0.31366 0.496029
267 4 0.337292 0.259381 0.471466
265 2 0.353885 0.278072 0.470757
266 4 0.370478 0.296763 0.470048
584 4 0.386441 0.307646 0.470474
583 2 0.410048 0.299807 0.46794
270 4 0.481134 0.269308 0.503159
268 2 0.46205 0.272626 0.487349
269 4 0.442966 0.275944 0.471539
585 4 0.433655 0.291968 0.465405
408 4 0.00898326 0.393478 0.430445
406 2 0.020979 0.412243 0.441811
327 4 0.146716 0.376753 0.451272
325 2 0.150605 0.400335 0.443927
710 4 0.151347 0.359848 0.443677
709 2 0.166874 0.342011 0.451796
872 4 0.271264 0.337638 0.489555
873 4 0.28544 0.38554 0.487289
871 2 0.278352 0.361589 0.488422
669 4 0.371714 0.367763 0.421196
334 2 0.389431 0.39474 0.450715
336 4 0.38278 0.375779 0.435835
382 2 0.0371458 0.449741 0.491286
407 4 0.0329747 0.431007 0.453177
383 4 0.0354134 0.43352 0.472338
326 4 0.154495 0.423917 0.436582
2108 4 0.206079 0.499313 0.471142
238 2 0.405699 0.450617 0.490569
594 4 0.362 0.483725 0.425057
335 4 0.396081 0.413701 0.465596
240 4 0.40235 0.430335 0.476334
1401 4 0.373941 0.491369 0.439889
587 4 0.47797 0.44454 0.463812
586 2 0.462577 0.462468 0.455636
662 4 0.493679 0.433972 0.472849
588 4 0.447184 0.480395 0.44746
561 4 0.431049 0.48691 0.435197
718 2 0.034696 0.0172642 0.492223
2318 4 0.128743 0.0743626 0.585753
2317 2 0.153209 0.0763451 0.580992
1152 4 0.23055 0.0310136 0.525313
1150 2 0.243795 0.0521871 0.524118
1059 4 0.231567 0.0170609 0.51179
2319 4 0.177675 0.0783277 0.57623
1151 4 0.257041 0.0733605 0.522923
1182 4 0.274896 0.0778483 0.516182
1180 2 0.299709 0.0798342 0.518529
3157 2 0.315657 0.0253136 0.518631
1031 4 0.311461 0.0206672 0.568649
1030 2 0.325653 0.0376947 0.580218
3159 4 0.30636 0.0120568 0.537684
3158 4 0.324954 0.0385705 0.499579
1062 4 0.483323 0.015962 0.55036
1220 4 0.107181 0.160371 0.564145
1219 2 0.102108 0.141381 0.579598
1181 4 0.324523 0.0818201 0.520875
725 4 0.341835 0.0843732 0.529725
724 2 0.349331 0.108226 0.529624
726 4 0.356828 0.132079 0.529523
900 4 0.368609 0.14158 0.5182
898 2 0.361061 0.162011 0.505919
1271 4 0.111204 0.173782 0.551167
1272 4 0.0779316 0.177915 0.514065
1270 2 0.0945676 0.175849 0.532616
346 2 0.137302 0.213023 0.559625
347 4 0.141534 0.190702 0.570066
348 4 0.133069 0.235345 0.549184
857 4 0.209784 0.201094 0.54807
411 4 0.215278 0.215485 0.56101
856 2 0.20547 0.192814 0.524875
791 4 0.33743 0.245951 0.515208
641 4 0.347254 0.239373 0.49968
899 4 0.353514 0.182441 0.493638
877 2 0.0714133 0.261632 0.522503
878 4 0.0852537 0.266851 0.542662
8 3 0.138938 0.254613 0.545807
9 3 0.102988 0.2653 0.551955
6 1 0.124305 0.27261 0.546426
7 3 0.131464 0.287466 0.562463
10 3 0.123939 0.283029 0.526179
696 4 0.129961 0.298694 0.51669
1394 4 0.204385 0.309536 0.57382
1190 4 0.185919 0.3014 0.572949
1393 2 0.214359 0.316221 0.551888
1395 4 0.224334 0.322907 0.529957
774 4 0.212926 0.314619 0.516451
811 2 0.280655 0.322704 0.52894
812 4 0.294125 0.317859 0.54944
813 4 0.267184 0.327548 0.50844
806 4 0.320871 0.300124 0.584562
790 2 0.358184 0.25553 0.525341
792 4 0.378939 0.265109 0.535475
3309 4 0.494641 0.281314 0.512912
1029 4 0.246321 0.407144 0.584936
936 4 0.0565118 0.474749 0.562366
934 2 0.042389 0.477065 0.541863
935 4 0.0282662 0.479381 0.521361
384 4 0.0388783 0.465963 0.510234
212 3 0.994087 0.500955 0.566171
1040 4 0.0622371 0.46079 0.574617
1039 2 0.0812197 0.445438 0.580016
1136 4 0.119869 0.427837 0.585345
2243 4 0.232194 0.49579 0.578432
539 4 0.22396 0.478519 0.5857
2242 2 0.244903 0.500691 0.557465
881 4 0.317069 0.48488 0.53356
1171 2 0.292653 0.459266 0.544468
1173 4 0.308476 0.477703 0.550373
1172 4 0.276829 0.440829 0.538563
1028 4 0.259708 0.435219 0.545779
1027 2 0.253014 0.421182 0.565357
928 2 0.3913 0.482949 0.533632
880 2 0.338107 0.490338 0.54592
239 4 0.409048 0.470898 0.504804
930 4 0.409686 0.468555 0.524693
1000 2 0.460564 0.484263 0.572028
661 2 0.505498 0.437616 0.49458
1001 4 0.477381 0.465931 0.569516
1005 4 0.306043 0.0263056 0.649861
951 4 0.302152 0.0401634 0.664377
1142 4 0.343589 0.0729532 0.596369
1032 4 0.339844 0.0547222 0.591787
1004 4 0.352749 0.0091856 0.644744
1003 2 0.329396 0.0177456 0.647303
841 2 0.383286 0.0391738 0.639611
843 4 0.369663 0.0188681 0.644834
87 3 0.384044 0.0052066 0.64831
842 4 0.396909 0.0594796 0.634389
4226 4 0.452654 0.00598403 0.63292
4163 4 0.44839 0.00316989 0.61444
3078 4 0.0308123 0.0895485 0.648729
2990 4 0.0416451 0.082552 0.664321
3076 2 0.017559 0.0970709 0.628906
3077 4 0.00430579 0.104593 0.609084
2989 2 0.0529778 0.102421 0.674418
1221 4 0.0970344 0.12239 0.595052
1284 4 0.181829 0.0846588 0.594625
1282 2 0.198853 0.100787 0.603299
1283 4 0.215877 0.116915 0.611973
1155 4 0.226348 0.109074 0.626382
1153 2 0.244046 0.119795 0.640419
1154 4 0.261744 0.130516 0.654455
887 4 0.314098 0.107659 0.643206
1143 4 0.317236 0.0890024 0.635722
886 2 0.316977 0.11254 0.667559
1141 2 0.330412 0.0809778 0.616046
1025 4 0.461466 0.119286 0.655883
1024 2 0.470195 0.133155 0.636998
1026 4 0.478925 0.147024 0.618113
3425 4 0.45209 0.101239 0.656654
1010 4 0.498761 0.150971 0.615921
409 2 0.222454 0.213209 0.584854
1211 4 0.193467 0.245583 0.654867
1212 4 0.217222 0.213218 0.625051
410 4 0.229631 0.210933 0.608697
1210 2 0.205344 0.229401 0.639959
1191 4 0.166451 0.316235 0.616556
1189 2 0.176185 0.308817 0.594753
803 4 0.302382 0.304656 0.589754
802 2 0.286347 0.318231 0.603311
805 2 0.340553 0.29301 0.598244
807 4 0.360235 0.285896 0.611925
952 2 0.395775 0.275958 0.630944
954 4 0.416749 0.276705 0.644534
953 4 0.3748 0.275211 0.617354
1043 4 0.365223 0.324797 0.642226
3370 2 0.477706 0.308842 0.660099
1007 4 0.46646 0.322486 0.619248
1006 2 0.446749 0.337547 0.616111
3372 4 0.468151 0.31853 0.639122
895 2 0.154024 0.35532 0.629263
896 4 0.14064 0.375474 0.635579
992 4 0.12823 0.388445 0.641473
991 2 0.129064 0.397017 0.664947
897 4 0.167408 0.335167 0.622948
804 4 0.270311 0.331805 0.616867
1239 4 0.247254 0.39156 0.600225
1237 2 0.259522 0.369901 0.602583
1238 4 0.271791 0.348242 0.604942
1042 2 0.351136 0.334547 0.660438
1008 4 0.427039 0.352609 0.612975
1099 2 0.47768 0.39467 0.642686
1101 4 0.477752 0.388824 0.666997
1100 4 0.477607 0.400515 0.618376
927 4 0.474809 0.409108 0.601023
1041 4 0.100202 0.430086 0.585416
1137 4 0.167865 0.439904 0.592521
1135 2 0.143867 0.43387 0.588933
540 4 0.182825 0.452438 0.597034
538 2 0.203393 0.465478 0.591367
891 4 0.313799 0.488175 0.631396
889 2 0.327915 0.485757 0.651892
926 4 0.484004 0.456155 0.586783
925 2 0.479407 0.432632 0.593903
3082 2 0.00327784 0.0400988 0.689551
3083 4 0.0161862 0.0605331 0.695954
945 4 0.138917 0.0467607 0.703367
943 2 0.132112 0.0693535 0.695094
2255 4 0.154503 0.0390473 0.691905
2254 2 0.165823 0.0304103 0.712459
944 4 0.125308 0.0919462 0.68682
831 4 0.203423 0.0653176 0.709801
1970 4 0.188029 0.00673244 0.740787
2256 4 0.177143 0.0217734 0.733012
829 2 0.192428 0.0817591 0.725097
1092 4 0.297031 0.0336514 0.728879
949 2 0.294959 0.0399105 0.688323
950 4 0.287766 0.0396575 0.712268
1090 2 0.314358 0.0305818 0.746642
3426 4 0.460755 0.0613046 0.685479
1217 4 0.437284 0.00564962 0.739593
1164 4 0.454597 0.00243671 0.728906
1162 2 0.469317 0.000128384 0.708827
2991 4 0.0643106 0.122291 0.684515
864 4 0.0812758 0.125422 0.693413
1082 4 0.0273808 0.165632 0.709515
1081 2 0.00851952 0.152574 0.719461
863 4 0.128875 0.111025 0.688142
862 2 0.105075 0.118223 0.690777
830 4 0.181433 0.0982006 0.740393
908 4 0.184073 0.111638 0.754127
1299 4 0.263249 0.141346 0.671629
1297 2 0.267831 0.143016 0.696152
1298 4 0.272413 0.144685 0.720676
1085 4 0.285741 0.137771 0.732015
1084 2 0.292424 0.156365 0.747337
888 4 0.319856 0.11742 0.691912
3424 2 0.456423 0.0812718 0.671066
41 1 0.453212 0.149418 0.746859
44 3 0.452338 0.153248 0.723991
850 2 0.013151 0.20419 0.696571
852 4 0.0268828 0.183345 0.698023
1214 4 0.0486631 0.180637 0.754912
851 4 0.999419 0.225035 0.695119
1177 2 0.0839149 0.171906 0.735828
1178 4 0.104207 0.176066 0.721825
947 4 0.102752 0.19672 0.720995
946 2 0.119925 0.214841 0.722381
948 4 0.137098 0.232961 0.723768
1260 4 0.147689 0.239822 0.707543
1259 4 0.177379 0.248126 0.668169
1258 2 0.162534 0.243974 0.687856
976 2 0.3237 0.20636 0.747617
1192 2 0.37316 0.229046 0.725101
1194 4 0.389661 0.235898 0.70761
1262 4 0.394158 0.245159 0.691723
1193 4 0.356659 0.222194 0.742593
977 4 0.339218 0.219995 0.733531
1261 2 0.418741 0.241721 0.694724
1263 4 0.443325 0.238284 0.697726
3123 4 0.453268 0.244289 0.681225
3371 4 0.487261 0.299154 0.681076
3121 2 0.469361 0.262727 0.686348
3122 4 0.485453 0.281166 0.691471
1280 4 0.0545611 0.409694 0.718225
1279 2 0.058266 0.388445 0.705578
1281 4 0.0619709 0.367197 0.692931
993 4 0.129897 0.405589 0.68842
1068 4 0.141088 0.392495 0.697147
1066 2 0.139386 0.381224 0.7194
1067 4 0.137683 0.369952 0.741654
1096 2 0.212228 0.371535 0.728269
1097 4 0.219422 0.379163 0.70557
1278 4 0.226415 0.379314 0.686301
1098 4 0.205034 0.363907 0.750967
1276 2 0.24632 0.367863 0.676409
796 2 0.307872 0.361612 0.682529
797 4 0.283531 0.362271 0.676852
1277 4 0.266225 0.356413 0.666517
798 4 0.332214 0.360954 0.688206
1044 4 0.337049 0.344296 0.67865
1138 2 0.363643 0.409929 0.739861
3329 4 0.481905 0.372105 0.676822
3330 4 0.474159 0.360631 0.724875
3328 2 0.478032 0.366368 0.700849
3182 4 0.475576 0.379859 0.732273
2130 4 0.0528465 0.510438 0.730727
884 4 0.067035 0.424979 0.712792
894 4 0.00590955 0.476494 0.694794
2129 4 0.0188296 0.491888 0.699113
883 2 0.0513615 0.437103 0.728041
2128 2 0.0358381 0.501163 0.71492
885 4 0.0356881 0.449227 0.743289
940 2 0.184684 0.463039 0.742297
942 4 0.187755 0.4618 0.717514
2368 2 0.289089 0.493173 0.717319
2214 4 0.285139 0.477741 0.75567
2369 4 0.278436 0.484829 0.738345
890 4 0.34203 0.483338 0.672388
1139 4 0.369583 0.416615 0.716512
1206 4 0.372987 0.431652 0.70414
1205 4 0.348424 0.465232 0.676396
1204 2 0.360706 0.448442 0.690268
1251 4 0.428163 0.514304 0.717223
1294 2 0.0089052 0.0286962 0.77244
1296 4 0.0248994 0.0451355 0.782396
1286 4 0.0371326 0.0604205 0.781063
1285 2 0.0535833 0.0783109 0.775191
1971 4 0.225603 0.000292532 0.773151
1969 2 0.206816 0.00351249 0.756969
1091 4 0.331686 0.0275121 0.764405
1049 4 0.330642 0.0311223 0.784225
1048 2 0.340922 0.0202992 0.804284
1050 4 0.351202 0.00947614 0.824343
966 4 0.40466 0.0404292 0.765707
964 2 0.413441 0.0325853 0.787765
1023 4 0.388252 0.0743536 0.82492
845 4 0.49397 0.06821 0.795748
965 4 0.422221 0.0247415 0.809823
2322 4 0.463307 0.0481188 0.82582
1995 4 0.46751 0.0340472 0.813401
1993 2 0.477031 0.0161546 0.798759
1112 4 0.485873 0.0818965 0.783109
1287 4 0.070034 0.0962014 0.769318
1105 2 0.0667357 0.140418 0.783063
1106 4 0.0576386 0.154411 0.764446
1107 4 0.0758328 0.126425 0.80168
34 3 0.0850605 0.115511 0.816559
1203 4 0.0829818 0.104213 0.781967
1202 4 0.13212 0.098244 0.789078
1201 2 0.107551 0.101228 0.785522
909 4 0.155766 0.117926 0.794868
35 3 0.102095 0.101986 0.847293
907 2 0.16992 0.114782 0.774498
1227 4 0.236196 0.145139 0.814307
1225 2 0.212555 0.149278 0.821318
1226 4 0.188914 0.153418 0.828328
1149 4 0.252127 0.152352 0.824627
1147 2 0.267617 0.13719 0.812162
1148 4 0.283106 0.122029 0.799697
840 4 0.30019 0.111032 0.803005