ITEM: TIMESTEP
2150000
ITEM: NUMBER OF ATOMS
4590
ITEM: BOX BOUNDS pp pp pp
-9.9985700000000008e+00 9.9985700000000008e+00
-9.9985700000000008e+00 9.9985700000000008e+00
-9.9985700000000008e+00 9.9985700000000008e+00
ITEM: ATOMS id type xs ys zs
484 2 0.191256 0.00799996 0.035585
566 4 0.202117 0.0383974 0.0203635
565 2 0.221764 0.0534427 0.0239434
485 4 0.194131 0.0215907 0.0147955
567 4 0.241411 0.068488 0.0275233
356 4 0.257854 0.0771227 0.0332962
746 4 0.42103 0.0624696 0.0460768
745 2 0.438406 0.0792927 0.052419
655 2 0.0105151 0.134564 0.0786937
657 4 0.0212375 0.156301 0.0725533
2624 4 0.00539802 0.0996898 0.0696335
700 2 0.093733 0.109079 0.0013429
701 4 0.0972306 0.12528 0.0200639
450 4 0.105162 0.142613 0.0262617
448 2 0.125528 0.13427 0.0381274
915 4 0.150124 0.139914 0.0640364
449 4 0.145894 0.125927 0.0499931
554 4 0.156879 0.153367 0.997874
571 2 0.227992 0.149539 0.0630777
572 4 0.210697 0.16663 0.0689054
914 4 0.198172 0.151856 0.0710705
573 4 0.245287 0.132449 0.0572501
913 2 0.174148 0.145885 0.0675534
355 2 0.259666 0.0984513 0.0462186
357 4 0.261477 0.11978 0.0591409
557 4 0.389801 0.11933 0.00532968
556 2 0.386053 0.111554 0.0287961
558 4 0.382305 0.103779 0.0522625
254 4 0.392992 0.0887468 0.0601231
747 4 0.455783 0.0961158 0.0587612
25 3 0.464105 0.096886 0.0769744
2640 4 0.466741 0.116816 0.0713456
2638 2 0.454022 0.133903 0.0582508
2639 4 0.441304 0.150989 0.0451561
2894 4 0.476881 0.131186 0.0822949
461 4 0.172663 0.207975 0.0876488
295 2 0.261691 0.243918 0.0170815
360 4 0.261741 0.184687 0.00659696
581 4 0.252726 0.226503 0.0510155
580 2 0.26246 0.203615 0.0535726
582 4 0.272194 0.180726 0.0561297
296 4 0.263802 0.242192 0.0419359
278 4 0.266668 0.180337 0.0751816
2806 2 0.0365151 0.323774 0.0671991
455 4 0.120277 0.319821 0.00237872
454 2 0.103308 0.301888 0.99842
456 4 0.0863394 0.283956 0.994462
968 4 0.180391 0.314982 0.0755963
2839 2 0.466374 0.310219 0.0766476
672 4 0.483135 0.334214 0.0545594
2840 4 0.455986 0.287822 0.0806014
2808 4 0.0344355 0.337832 0.046627
329 4 0.0401211 0.357304 0.0473011
328 2 0.0503679 0.369314 0.0279121
330 4 0.0606146 0.381325 0.00852307
4211 4 0.995714 0.39733 0.0149207
287 4 0.128622 0.333736 0.0149439
286 2 0.116712 0.343016 0.0348744
288 4 0.104803 0.352297 0.0548049
967 2 0.184752 0.339495 0.0778872
969 4 0.189112 0.364009 0.0801782
250 2 0.18851 0.399687 0.0816929
251 4 0.193944 0.420885 0.0695975
902 4 0.273077 0.365591 0.00375357
740 4 0.335031 0.366152 0.0825189
901 2 0.276009 0.383132 0.0213288
903 4 0.278941 0.400673 0.038904
739 2 0.339567 0.389397 0.0745014
741 4 0.344103 0.412642 0.066484
1069 2 0.388516 0.386591 0.0238874
1071 4 0.389426 0.364338 0.0125231
15 3 0.3418 0.413761 0.0471707
1070 4 0.387606 0.408844 0.0352517
2841 4 0.476762 0.332616 0.0726938
670 2 0.492774 0.355027 0.0446037
596 4 0.443875 0.393482 0.0523126
323 4 0.490359 0.389727 0.0268616
322 2 0.480293 0.407091 0.0119505
671 4 0.502413 0.375839 0.034648
2652 4 0.439984 0.380702 0.0693177
4210 2 0.00901927 0.417865 0.00977622
2983 2 0.0407789 0.469252 0.0327266
2984 4 0.0329153 0.451983 0.0164447
4212 4 0.0223244 0.4384 0.00463172
2985 4 0.0486425 0.486522 0.0490085
1710 4 0.0481203 0.499945 0.0638965
2094 4 0.191886 0.439832 0.0621752
2092 2 0.186417 0.46419 0.0607763
2093 4 0.180947 0.488548 0.0593774
494 4 0.287696 0.459416 0.0412972
525 4 0.292411 0.459733 0.0602482
523 2 0.278949 0.462385 0.0811513
493 2 0.279976 0.46252 0.0177186
13 3 0.339051 0.433124 0.0149967
14 3 0.373153 0.423506 0.0287416
11 1 0.351524 0.429822 0.0342818
12 3 0.352331 0.449549 0.0460854
659 4 0.434808 0.462458 0.0615418
658 2 0.445012 0.48528 0.0610739
597 4 0.433507 0.441962 0.0588627
595 2 0.438691 0.417722 0.0555876
324 4 0.470226 0.424455 0.997039
723 4 0.22779 0.0570598 0.162582
693 4 0.22855 0.0376732 0.15789
692 4 0.274706 0.0224212 0.169624
691 2 0.251628 0.0300472 0.163757
23 3 0.455747 0.0669439 0.0982179
1448 4 0.444771 0.0503978 0.096288
1447 2 0.442031 0.0275598 0.106091
1449 4 0.439291 0.00472185 0.115894
738 4 0.0320599 0.162714 0.0890092
2758 2 0.0443787 0.119344 0.133311
2760 4 0.0584158 0.0993593 0.12795
2759 4 0.0303417 0.139329 0.138672
736 2 0.0568319 0.160624 0.0916847
705 4 0.0136286 0.135779 0.147828
703 2 0.0102742 0.160357 0.144683
737 4 0.0816038 0.158534 0.0943602
578 4 0.138922 0.137895 0.102527
577 2 0.142258 0.129836 0.12596
579 4 0.145594 0.121776 0.149392
236 4 0.162101 0.123862 0.158714
507 4 0.0978576 0.158486 0.10588
235 2 0.186356 0.119282 0.162701
730 2 0.299661 0.155218 0.140729
732 4 0.281531 0.146253 0.126028
279 4 0.269045 0.161428 0.121415
731 4 0.317791 0.164182 0.15543
606 4 0.330101 0.161094 0.170257
253 2 0.395701 0.0927496 0.084655
255 4 0.398411 0.0967524 0.109187
758 4 0.384866 0.109275 0.115787
757 2 0.386402 0.133364 0.122307
759 4 0.387939 0.157454 0.128828
21 1 0.467095 0.0871649 0.0973511
22 3 0.48952 0.0832555 0.100663
24 3 0.459394 0.101293 0.11407
2893 2 0.496954 0.137642 0.0957338
704 4 0.00691994 0.184934 0.141538
460 2 0.153544 0.223761 0.0908818
505 2 0.11054 0.176914 0.117048
506 4 0.123222 0.195342 0.128217
756 4 0.115297 0.213489 0.130711
754 2 0.102836 0.234374 0.124906
623 4 0.19208 0.210262 0.0834449
283 2 0.224667 0.198815 0.162643
284 4 0.215009 0.194385 0.140009
624 4 0.214954 0.186546 0.121062
622 2 0.203517 0.198404 0.102253
277 2 0.267856 0.170883 0.0982981
378 4 0.476739 0.201602 0.137895
376 2 0.467636 0.210898 0.159247
2807 4 0.0385947 0.309715 0.0877713
477 4 0.0511116 0.291913 0.0896048
475 2 0.0675587 0.282721 0.106042
476 4 0.0840058 0.273529 0.12248
396 4 0.0562034 0.29128 0.16021
462 4 0.134426 0.239548 0.0941147
755 4 0.0903755 0.25526 0.119101
309 4 0.3276 0.262133 0.148774
610 2 0.295719 0.331605 0.163495
518 4 0.394466 0.266773 0.12605
528 4 0.406391 0.280477 0.116504
517 2 0.37114 0.26623 0.135039
519 4 0.347814 0.265687 0.144027
527 4 0.438265 0.297154 0.0817669
526 2 0.422328 0.288815 0.0991354
252 4 0.183076 0.378489 0.0937883
612 4 0.297931 0.340026 0.140056
609 4 0.316339 0.345337 0.138416
608 4 0.31843 0.358823 0.0903074
607 2 0.317385 0.35208 0.114362
2536 2 0.397809 0.38638 0.138211
2537 4 0.38379 0.399294 0.154393
2538 4 0.411829 0.373466 0.122029
2651 4 0.428901 0.365614 0.115688
2650 2 0.434442 0.373158 0.0925031
314 4 0.0112322 0.437128 0.0883754
313 2 0.0360143 0.438141 0.091538
315 4 0.0607964 0.439153 0.0947007
3761 4 0.00115295 0.465719 0.118032
3760 2 0.0153911 0.478691 0.133975
1787 4 0.0652692 0.479177 0.13842
1708 2 0.0448501 0.497048 0.0885155
1709 4 0.0415799 0.494151 0.113134
1786 2 0.088603 0.470333 0.140001
290 4 0.124943 0.445594 0.136145
289 2 0.143129 0.462504 0.139055
291 4 0.161315 0.479415 0.141966
1788 4 0.111937 0.461489 0.141581
627 4 0.175598 0.471321 0.131384
626 4 0.221325 0.469403 0.111234
768 4 0.235082 0.484296 0.108045
625 2 0.198461 0.470362 0.121309
524 4 0.265488 0.465038 0.102054
246 4 0.277855 0.453081 0.113539
244 2 0.290168 0.440189 0.131071
387 4 0.312885 0.427836 0.165541
245 4 0.302481 0.427298 0.148603
721 2 0.224681 0.0803823 0.171042
403 2 0.310638 0.0660542 0.235055
405 4 0.28715 0.0574897 0.235408
404 4 0.334126 0.0746187 0.234701
1505 4 0.277929 0.00479245 0.176623
722 4 0.221571 0.103705 0.179502
237 4 0.210611 0.114701 0.166689
27 3 0.313333 0.120893 0.243459
604 2 0.349587 0.15503 0.184705
28 3 0.348997 0.1281 0.234035
26 1 0.335166 0.114396 0.246658
633 4 0.375975 0.150522 0.217541
30 3 0.337587 0.0927299 0.240071
605 4 0.369073 0.148966 0.199152
530 4 0.0733436 0.208188 0.249454
512 4 0.0655164 0.202614 0.232702
511 2 0.0418171 0.204397 0.224934
513 4 0.0181177 0.206179 0.217166
529 2 0.0929229 0.19268 0.250607
531 4 0.112502 0.177172 0.251761
546 4 0.239589 0.161658 0.2354
544 2 0.233915 0.173267 0.213994
545 4 0.228241 0.184876 0.192588
285 4 0.234325 0.203245 0.185276
631 2 0.373098 0.168839 0.234316
629 4 0.448155 0.203963 0.181705
377 4 0.458533 0.220194 0.180598
630 4 0.432098 0.198481 0.228746
628 2 0.440127 0.201222 0.205225
521 4 0.434452 0.179859 0.236415
2693 4 0.0113363 0.261918 0.200385
394 2 0.0664926 0.310786 0.171992
2692 2 0.0299072 0.268903 0.18517
2694 4 0.0484782 0.275888 0.169954
2799 4 0.996394 0.255531 0.212818
395 4 0.0767818 0.330293 0.183774
616 2 0.126204 0.291296 0.249943
617 4 0.114997 0.313514 0.24751
618 4 0.137412 0.269078 0.252375
307 2 0.322876 0.262951 0.173314
496 2 0.28958 0.26769 0.217066
497 4 0.279871 0.276262 0.238454
498 4 0.299289 0.259118 0.195679
308 4 0.318152 0.26377 0.197853
611 4 0.293506 0.323185 0.186934
345 4 0.295716 0.328307 0.206842
764 4 0.296499 0.281386 0.24755
298 2 0.071511 0.338542 0.241226
300 4 0.0826396 0.345694 0.220009
1775 4 0.00588399 0.372491 0.19057
416 4 0.090031 0.35853 0.206656
363 4 0.144134 0.349372 0.221135
417 4 0.13572 0.367537 0.224881
415 2 0.112875 0.363034 0.215769
413 4 0.0960287 0.415397 0.200075
361 2 0.168431 0.350292 0.215306
339 4 0.210194 0.342649 0.215101
362 4 0.192729 0.351212 0.209477
337 2 0.220956 0.349015 0.236754
343 2 0.30757 0.339357 0.225883
344 4 0.319423 0.350407 0.244925
714 4 0.395822 0.409844 0.164801
412 2 0.0735137 0.420795 0.209515
414 4 0.0509987 0.426192 0.218956
681 4 0.0548366 0.436561 0.235008
1386 4 0.129944 0.435438 0.220943
1384 2 0.139248 0.455423 0.209145
1385 4 0.148553 0.475409 0.197348
1641 4 0.115064 0.434543 0.232594
385 2 0.308738 0.441235 0.18624
1573 2 0.282252 0.428819 0.232002
386 4 0.304592 0.454634 0.206939
1575 4 0.293922 0.448716 0.222354
1574 4 0.270582 0.408922 0.241651
712 2 0.398894 0.426265 0.183405
713 4 0.401967 0.442685 0.202009
2862 4 0.414721 0.442942 0.218638
231 4 0.470002 0.446295 0.218982
2860 2 0.430463 0.462359 0.218016
2861 4 0.446204 0.481775 0.217394
229 2 0.48984 0.456331 0.20754
1473 4 0.454143 0.491634 0.233281
318 4 0.00881163 0.996099 0.304632
428 4 0.147482 0.00393199 0.280825
427 2 0.169273 0.0136048 0.273292
429 4 0.191065 0.0232777 0.265759
248 4 0.282943 0.0459322 0.251413
249 4 0.273807 0.0467444 0.300572
247 2 0.278375 0.0463383 0.275993
1700 4 0.281855 0.0314008 0.310405
1748 4 0.378522 0.0531195 0.274545
743 4 0.391592 0.0688423 0.277307
1747 2 0.388045 0.0335517 0.286858
1749 4 0.397567 0.0139839 0.299171
1496 4 0.407265 0.0127575 0.317635
2718 4 0.0464951 0.118238 0.321024
2831 4 0.0113326 0.150766 0.304039
2716 2 0.0324511 0.129693 0.303798
2717 4 0.0184071 0.141147 0.286572
471 4 0.0707642 0.15052 0.317994
2850 4 0.121343 0.158216 0.255
2848 2 0.144521 0.156304 0.264182
393 4 0.184717 0.164599 0.277122
391 2 0.206115 0.165837 0.264247
2849 4 0.167699 0.154392 0.273363
742 2 0.409048 0.086627 0.279349
515 4 0.34943 0.0949098 0.329338
516 4 0.34164 0.10068 0.280279
29 3 0.340384 0.116456 0.269173
514 2 0.345535 0.0977947 0.304809
699 4 0.491893 0.0904624 0.280895
697 2 0.46868 0.0997541 0.281004
744 4 0.426504 0.104412 0.281392
698 4 0.445467 0.109046 0.281113
760 2 0.451241 0.147503 0.313258
762 4 0.452067 0.128658 0.329671
2586 4 0.999826 0.241868 0.33671
392 4 0.227513 0.167076 0.251371
632 4 0.370221 0.187155 0.251091
332 4 0.380865 0.177936 0.266247
350 4 0.341188 0.189453 0.311649
331 2 0.371279 0.183719 0.288604
333 4 0.361693 0.189501 0.310961
761 4 0.450414 0.166347 0.296846
522 4 0.459854 0.169586 0.278247
312 4 0.495674 0.244655 0.311141
419 4 0.476483 0.240962 0.30873
520 2 0.447153 0.174723 0.257331
418 2 0.457566 0.239156 0.292479
420 4 0.43865 0.23735 0.276228
735 4 0.0745589 0.3215 0.274234
365 4 0.122022 0.328552 0.259519
733 2 0.0943829 0.319247 0.289304
2654 4 0.113829 0.322859 0.323424
734 4 0.114207 0.316995 0.304374
749 4 0.148891 0.258314 0.266025
748 2 0.162699 0.267529 0.284723
750 4 0.176506 0.276744 0.303421
389 4 0.194505 0.278443 0.312101
388 2 0.205446 0.291242 0.330585
763 2 0.301761 0.281748 0.271991
708 4 0.320956 0.278143 0.310069
765 4 0.307023 0.282111 0.296432
706 2 0.314276 0.258059 0.32338
509 4 0.282352 0.331216 0.29836
299 4 0.0603824 0.33139 0.262444
2802 4 0.0260728 0.33148 0.306437
2800 2 0.0373303 0.352712 0.313339
2801 4 0.0485878 0.373944 0.320242
364 2 0.138514 0.34422 0.269894
366 4 0.155007 0.359889 0.28027
338 4 0.231717 0.35538 0.258407
433 2 0.244737 0.345248 0.289915
434 4 0.228041 0.360015 0.278586
603 4 0.170239 0.36925 0.290702
601 2 0.194609 0.37347 0.287032
728 4 0.231291 0.391595 0.291651
602 4 0.21898 0.37769 0.283362
727 2 0.246637 0.402297 0.275065
435 4 0.261434 0.330481 0.301244
644 4 0.311293 0.403888 0.267652
643 2 0.311508 0.378969 0.265608
645 4 0.311722 0.35405 0.263565
508 2 0.305239 0.339542 0.304022
510 4 0.328126 0.347868 0.309684
729 4 0.261984 0.412998 0.258478
613 2 0.402738 0.344172 0.288529
274 2 0.36816 0.38202 0.261317
276 4 0.378236 0.359368 0.25807
614 4 0.387219 0.344587 0.268929
275 4 0.358084 0.404672 0.264563
108 3 0.487157 0.370706 0.306977
2924 4 0.437402 0.344411 0.314997
615 4 0.418257 0.343757 0.308129
107 3 0.502463 0.379048 0.273679
2923 2 0.436598 0.358381 0.335718
501 4 0.0305615 0.489932 0.255349
679 2 0.0389198 0.454191 0.242819
680 4 0.0230031 0.471822 0.25063
1640 4 0.104864 0.421898 0.279889
1639 2 0.109964 0.428221 0.256241
503 4 0.240455 0.474505 0.309204
678 4 0.180558 0.467437 0.323825
375 4 0.193903 0.453456 0.329268
504 4 0.226884 0.501092 0.269082
502 2 0.23367 0.487798 0.289143
4 3 0.283274 0.489213 0.333679
2 3 0.27858 0.465889 0.304583
1 1 0.283915 0.467022 0.32693
3 3 0.305247 0.458423 0.329995
1802 4 0.297552 0.501287 0.324926
468 4 0.275398 0.00670157 0.366152
1699 2 0.2719 0.0244224 0.332254
1701 4 0.261945 0.017444 0.354103
2642 4 0.347996 0.0832485 0.404891
479 4 0.336771 0.0869442 0.38957
1495 2 0.423971 0.000506463 0.331635
2879 4 0.487276 0.0326488 0.428758
687 4 0.0346735 0.122573 0.337611
685 2 0.0259218 0.116932 0.360343
686 4 0.0171701 0.11129 0.383076
342 4 0.0161245 0.107754 0.403779
469 2 0.0762488 0.145129 0.341786
340 2 0.0290173 0.125988 0.415025
1272 4 0.0741807 0.121199 0.362508
470 4 0.0817335 0.139738 0.365577
1270 2 0.0811828 0.111605 0.38451
1271 4 0.0881849 0.10201 0.406512
650 4 0.300337 0.119513 0.395091
649 2 0.29328 0.136583 0.411943
480 4 0.335333 0.101784 0.341838
478 2 0.336052 0.0943642 0.365704
2656 2 0.393604 0.160373 0.403924
2657 4 0.369031 0.163689 0.400706
2909 4 0.38885 0.128035 0.353482
2658 4 0.418177 0.157058 0.407142
2910 4 0.437419 0.133441 0.342874
2908 2 0.413134 0.130738 0.348178
2636 4 0.0103077 0.241841 0.394984
823 2 0.0550838 0.186993 0.386473
1199 4 0.00898163 0.237269 0.414973
1198 2 0.0188249 0.214284 0.414929
458 4 0.0819095 0.189733 0.358826
825 4 0.078285 0.184846 0.377403
824 4 0.0318825 0.189139 0.395544
1200 4 0.0286682 0.1913 0.414886
459 4 0.093661 0.227835 0.328645
457 2 0.0877852 0.208784 0.343735
369 4 0.143332 0.209735 0.384584
367 2 0.141403 0.195374 0.404961
349 2 0.327489 0.204343 0.32634
351 4 0.31379 0.219232 0.341031
715 2 0.299213 0.222994 0.383588
716 4 0.306964 0.224962 0.407278
717 4 0.291461 0.221026 0.359898
707 4 0.307596 0.237975 0.336692
2635 2 0.0108781 0.248604 0.370919
2637 4 0.0114484 0.255367 0.346855
442 2 0.081628 0.331033 0.403572
443 4 0.0874474 0.332902 0.379327
2653 2 0.106024 0.32029 0.347039
2655 4 0.0982194 0.317722 0.370654
390 4 0.216387 0.304041 0.34907
370 2 0.23937 0.281981 0.379696
371 4 0.226185 0.290792 0.360365
372 4 0.252556 0.273169 0.399027
401 4 0.24141 0.261924 0.4123
636 4 0.204862 0.330682 0.376186
634 2 0.226797 0.342044 0.380047
873 4 0.325305 0.340565 0.407412
669 4 0.306677 0.339715 0.397672
635 4 0.248733 0.353406 0.383909
668 4 0.26406 0.364493 0.389275
667 2 0.285368 0.352104 0.393474
585 4 0.413981 0.390179 0.408072
120 3 0.432396 0.351489 0.406623
2925 4 0.435793 0.372352 0.356439
116 1 0.441228 0.367271 0.392781
118 3 0.463095 0.371914 0.399001
117 3 0.441166 0.35931 0.371199
119 3 0.428459 0.386625 0.393674
3672 4 0.128177 0.487109 0.335628
677 4 0.143598 0.490242 0.348615
676 2 0.162078 0.478839 0.33622
374 4 0.239547 0.467573 0.344037
373 2 0.216725 0.460515 0.336652
1424 4 0.183345 0.48971 0.399167
2109 4 0.250349 0.48061 0.355643
5 3 0.268833 0.454831 0.33887
594 4 0.272857 0.477948 0.421296
2107 2 0.26147 0.481101 0.378032
2108 4 0.272591 0.481591 0.400421
327 4 0.278456 0.41734 0.409442
710 4 0.261142 0.421183 0.418333
753 4 0.334299 0.42394 0.408719
751 2 0.358849 0.427461 0.405542
447 4 0.402352 0.43152 0.396558
445 2 0.413684 0.45344 0.392518
543 4 0.406101 0.482422 0.384985
752 4 0.383399 0.430982 0.402365
446 4 0.425015 0.475359 0.388479
3590 4 0.0602898 0.0109822 0.455951
939 4 0.075609 0.0466665 0.468182
1221 4 0.0816499 0.0506725 0.449693
937 2 0.0621384 0.0586627 0.485498
1219 2 0.0853691 0.0719641 0.437123
1034 4 0.0294776 0.077826 0.504382
3589 2 0.0843517 0.0125187 0.462572
3591 4 0.108414 0.0140552 0.469194
599 4 0.191467 0.0362371 0.46911
598 2 0.212604 0.0276096 0.458912
2429 4 0.243878 0.00264374 0.444989
600 4 0.23374 0.0189821 0.448713
682 2 0.30992 0.0562088 0.47154
683 4 0.293549 0.0600099 0.490053
684 4 0.326291 0.0524078 0.453027
2643 4 0.323737 0.0492863 0.432438
2641 2 0.335867 0.0662674 0.418665
1518 4 0.394886 0.00740787 0.466041
1516 2 0.407153 0.0228573 0.450678
4239 4 0.497249 0.0504607 0.432588
2878 2 0.462611 0.0367506 0.428601
2880 4 0.437947 0.0408523 0.428443
1517 4 0.419419 0.0383067 0.435315
341 4 0.0419101 0.144222 0.426271
1033 2 0.0105062 0.091218 0.495112
1220 4 0.0890882 0.0932556 0.424552
651 4 0.286224 0.153653 0.428795
473 4 0.268604 0.159838 0.420514
2501 4 0.432532 0.154933 0.418527
2500 2 0.44213 0.143323 0.438484
2502 4 0.451728 0.131714 0.458441
368 4 0.139475 0.181014 0.425339
400 2 0.240566 0.239798 0.423916
402 4 0.239722 0.217673 0.435532
474 4 0.253871 0.20741 0.425052
472 2 0.261238 0.183624 0.422783
488 4 0.310169 0.216285 0.425405
321 4 0.264241 0.193528 0.477329
642 4 0.277586 0.205388 0.469149
640 2 0.276054 0.230344 0.469354
641 4 0.274522 0.255299 0.469559
487 2 0.331504 0.223359 0.436359
319 2 0.25981 0.181209 0.498631
489 4 0.352838 0.230434 0.447312
265 2 0.388236 0.213099 0.446953
267 4 0.366341 0.219658 0.45709
266 4 0.410131 0.20654 0.436815
453 4 0.427302 0.199019 0.43156
451 2 0.446984 0.213528 0.426338
452 4 0.466667 0.228036 0.421115
444 4 0.0758087 0.329165 0.427817
260 4 0.0796478 0.309625 0.425597
259 2 0.0842074 0.301481 0.448793
695 4 0.0759655 0.279969 0.477311
261 4 0.088767 0.293337 0.471989
694 2 0.0882052 0.271072 0.497216
871 2 0.320252 0.318837 0.418706
872 4 0.315198 0.297109 0.43
812 4 0.265049 0.268352 0.458848
811 2 0.280067 0.280805 0.443208
813 4 0.295084 0.293258 0.427569
3308 4 0.476951 0.253421 0.490452
2508 4 0.489619 0.264483 0.478041
3353 4 0.0555972 0.358308 0.479915
406 2 0.0109303 0.405268 0.437353
3352 2 0.0346386 0.366438 0.468969
3354 4 0.01368 0.374568 0.458023
407 4 0.0228085 0.392487 0.455262
1393 2 0.162319 0.343587 0.496364
1395 4 0.170728 0.352823 0.474704
774 4 0.173851 0.367715 0.461654
772 2 0.191662 0.385228 0.460531
773 4 0.209472 0.402741 0.459408
711 4 0.226332 0.401079 0.448078
336 4 0.405671 0.410691 0.47258
583 2 0.412039 0.394064 0.432695
584 4 0.410096 0.397948 0.457318
383 4 0.0450126 0.450451 0.451512
382 2 0.0515747 0.446745 0.475353
709 2 0.243737 0.411131 0.433205
930 4 0.334247 0.497307 0.489397
326 4 0.325165 0.421215 0.426876
325 2 0.301811 0.419278 0.418159
1173 4 0.259969 0.477682 0.476849
592 2 0.273747 0.499231 0.434387
1171 2 0.267502 0.457867 0.490108
335 4 0.407834 0.455232 0.495211
238 2 0.366442 0.47128 0.494835
239 4 0.344784 0.483282 0.498307
334 2 0.406753 0.432961 0.483895
240 4 0.388101 0.459279 0.491363
2710 2 0.497537 0.446731 0.439179
2712 4 0.481345 0.464719 0.432899
938 4 0.0486677 0.0706589 0.502813
1151 4 0.223276 0.0178732 0.522424
1150 2 0.20317 0.00549747 0.514193
1182 4 0.238243 0.0221786 0.535134
1180 2 0.241236 0.0460119 0.542076
1181 4 0.244229 0.0698453 0.549018
575 4 0.292822 0.0175529 0.545063
574 2 0.294588 0.0326009 0.525173
3158 4 0.289877 0.00154684 0.556441
576 4 0.296355 0.0476489 0.505283
725 4 0.247489 0.0862178 0.536669
724 2 0.259504 0.106344 0.545375
726 4 0.271518 0.126469 0.554081
841 2 0.489634 0.0923628 0.547657
843 4 0.465061 0.0955556 0.544317
9 3 0.0786057 0.262753 0.563513
348 4 0.11212 0.236182 0.577759
8 3 0.114872 0.251439 0.564594
856 2 0.244474 0.17425 0.560312
857 4 0.231381 0.175344 0.581585
858 4 0.257568 0.173155 0.53904
320 4 0.255379 0.16889 0.519933
878 4 0.0683345 0.245931 0.571346
2813 4 0.0515576 0.291294 0.545442
2812 2 0.0277216 0.298377 0.542824
2814 4 0.00388552 0.30546 0.540206
10 3 0.0957164 0.250775 0.532185
6 1 0.0986236 0.261967 0.551805
696 4 0.100445 0.262175 0.517121
7 3 0.105465 0.283467 0.547321
1191 4 0.162104 0.305562 0.568696
1189 2 0.155634 0.323079 0.552069
806 4 0.379383 0.332407 0.583202
805 2 0.390407 0.311029 0.590031
807 4 0.401431 0.289651 0.59686
270 4 0.481403 0.259143 0.551402
3309 4 0.475205 0.271503 0.537043
268 2 0.49118 0.276438 0.566583
3324 4 0.468255 0.323445 0.562181
3307 2 0.476078 0.262462 0.513747
3322 2 0.452527 0.325137 0.581544
269 4 0.500956 0.293733 0.581764
1394 4 0.153911 0.334351 0.518025
1190 4 0.149163 0.340597 0.535442
1029 4 0.262866 0.389004 0.550663
1239 4 0.267911 0.376083 0.564498
1237 2 0.282733 0.360354 0.577071
1027 2 0.267154 0.405212 0.532113
804 4 0.315334 0.352464 0.58192
1238 4 0.297554 0.344625 0.589645
803 4 0.360346 0.331574 0.575741
802 2 0.33784 0.342019 0.57883
384 4 0.0581367 0.443039 0.499194
935 4 0.0603466 0.428964 0.513685
934 2 0.0712205 0.431155 0.536094
936 4 0.0820944 0.433347 0.558502
1040 4 0.0729904 0.445287 0.573757
1135 2 0.15407 0.455409 0.58182
1137 4 0.178624 0.459315 0.579169
540 4 0.180677 0.477915 0.572066
538 2 0.183314 0.500233 0.561106
1172 4 0.275035 0.438051 0.503366
1028 4 0.271443 0.42142 0.513564
929 4 0.289345 0.489388 0.509934
881 4 0.288972 0.496603 0.581323
880 2 0.300438 0.502008 0.559771
928 2 0.311796 0.493347 0.499665
1000 2 0.453174 0.479935 0.565661
1001 4 0.466686 0.460221 0.573008
1002 4 0.439661 0.499648 0.558313
926 4 0.480247 0.453365 0.588462
2990 4 0.0322662 0.011923 0.650428
2989 2 0.0462664 0.0213236 0.668889
3082 2 0.999716 0.00664742 0.635385
3083 4 0.0146112 0.00629116 0.655465
1130 4 0.116657 0.0639205 0.653144
1284 4 0.232122 0.0588871 0.619461
2319 4 0.22989 0.0396044 0.619202
2317 2 0.235748 0.015977 0.613492
1282 2 0.235926 0.0804172 0.631593
2241 4 0.304241 0.0154317 0.637739
1030 2 0.330551 0.0318804 0.608765
1031 4 0.312998 0.0180237 0.619948
1032 4 0.348105 0.045737 0.597583
1142 4 0.348177 0.0647805 0.591265
87 3 0.405511 0.00562653 0.608801
3078 4 0.0178184 0.101812 0.628863
3178 2 0.00423997 0.157045 0.655467
1283 4 0.239729 0.101947 0.643724
1155 4 0.226647 0.112549 0.653873
1141 2 0.362227 0.0833836 0.600303
1143 4 0.376278 0.101987 0.609342
887 4 0.373831 0.115545 0.624071
886 2 0.372568 0.135291 0.639357
888 4 0.371305 0.155037 0.654644
1009 2 0.486095 0.126336 0.670504
3043 2 0.054507 0.238497 0.651206
879 4 0.0578286 0.22537 0.615703
3045 4 0.0590166 0.24141 0.626786
877 2 0.0630816 0.23565 0.593525
346 2 0.119097 0.226351 0.599664
347 4 0.126075 0.21652 0.62157
1210 2 0.231228 0.230939 0.66212
1212 4 0.254433 0.238873 0.657247
900 4 0.339779 0.201915 0.634733
898 2 0.360027 0.21245 0.624524
899 4 0.380274 0.222986 0.614315
792 4 0.393905 0.223681 0.600018
1263 4 0.409627 0.191886 0.642428
790 2 0.39577 0.247791 0.593662
3123 4 0.425281 0.196564 0.631134
3122 4 0.463692 0.169731 0.613662
3121 2 0.444486 0.183148 0.622398
896 4 0.136516 0.304916 0.62994
992 4 0.137797 0.286168 0.638651
895 2 0.150343 0.30723 0.609237
991 2 0.138242 0.289414 0.663439
897 4 0.164171 0.309543 0.588533
409 2 0.288447 0.26093 0.664773
411 4 0.302687 0.281302 0.667494
791 4 0.397636 0.271901 0.587307
3371 4 0.44567 0.321573 0.618666
3323 4 0.436799 0.32683 0.600908
3370 2 0.461081 0.332813 0.634833
3372 4 0.476492 0.344053 0.650999
1007 4 0.495934 0.342827 0.644293
1983 4 0.0761871 0.485781 0.656306
1039 2 0.095009 0.443458 0.585462
1041 4 0.117028 0.441629 0.597168
1136 4 0.129516 0.451504 0.584471
1953 4 0.3204 0.501655 0.641378
891 4 0.327845 0.484196 0.639538
889 2 0.340844 0.486557 0.660766
2991 4 0.0602666 0.0307241 0.68735
864 4 0.0672168 0.0279488 0.70695
862 2 0.0884149 0.0327859 0.719296
863 4 0.109613 0.0376231 0.731642
1129 2 0.13295 0.0726685 0.669972
944 4 0.157051 0.0655825 0.698934
1131 4 0.149243 0.0814165 0.6868
1203 4 0.112571 0.0554609 0.739937
943 2 0.167736 0.0474979 0.712497
945 4 0.178422 0.0294134 0.72606
2255 4 0.19071 0.0178675 0.73639
950 4 0.321153 0.0761716 0.726663
1217 4 0.383364 0.0137586 0.707526
1004 4 0.375906 0.00939783 0.674167
949 2 0.3357 0.0635283 0.710735
1003 2 0.358371 0.0271621 0.675628
1005 4 0.340836 0.0449263 0.67709
951 4 0.350248 0.0508851 0.694807
1216 2 0.403831 0.0244121 0.717158
4550 4 0.479764 0.021515 0.719004
4549 2 0.488935 0.0257454 0.741877
1218 4 0.424298 0.0350656 0.726791
3179 4 0.0206845 0.166115 0.671974
1153 2 0.226294 0.13148 0.670203
1154 4 0.225942 0.150411 0.686533
1299 4 0.237341 0.146856 0.70345
1297 2 0.239466 0.157427 0.726009
1090 2 0.286988 0.0874707 0.737483
1092 4 0.30826 0.0912737 0.724906
976 2 0.309579 0.143724 0.726601
977 4 0.30834 0.120014 0.734442
953 4 0.368775 0.156094 0.674204
952 2 0.379032 0.14703 0.695129
954 4 0.389289 0.137967 0.716053
1024 2 0.446639 0.112759 0.709663
1026 4 0.452215 0.11041 0.685402
1010 4 0.46924 0.121934 0.688439
1025 4 0.441063 0.115109 0.733923
3462 4 0.0332792 0.175474 0.684439
3044 4 0.0499975 0.235584 0.675626
3461 4 0.0338054 0.22546 0.683087
3460 2 0.0335423 0.200467 0.683763
3386 4 0.00327128 0.2476 0.724197
852 4 0.0622872 0.204128 0.751336
850 2 0.086004 0.196268 0.750382
946 2 0.142734 0.178042 0.723031
947 4 0.126603 0.188217 0.7392
948 4 0.158865 0.167867 0.706862
1298 4 0.24159 0.167999 0.748568
1260 4 0.173468 0.175721 0.69495
1258 2 0.191448 0.18994 0.684964
1259 4 0.209428 0.20416 0.674979
1211 4 0.208022 0.223006 0.666994
410 4 0.274208 0.240558 0.662052
978 4 0.310818 0.167434 0.718759
1085 4 0.319806 0.226803 0.712605
1084 2 0.308439 0.204576 0.713995
1086 4 0.297072 0.182349 0.715384
1261 2 0.410874 0.186352 0.66678
1194 4 0.417106 0.173891 0.709015
1262 4 0.41212 0.180817 0.691131
1193 4 0.457491 0.200386 0.721968
1192 2 0.437299 0.187138 0.715492
3039 4 0.00614542 0.261663 0.709778
3037 2 0.00517537 0.284349 0.69931
3038 4 0.00420532 0.307036 0.688842
993 4 0.138688 0.292659 0.688227
1068 4 0.137425 0.312076 0.68824
1066 2 0.128754 0.331812 0.700909
1281 4 0.013511 0.380853 0.730586
1279 2 0.0217568 0.390616 0.752077
3420 4 0.00598012 0.369983 0.716435
3418 2 0.00339325 0.3469 0.70718
1067 4 0.120084 0.351548 0.713578
1098 4 0.162851 0.411022 0.738557
1096 2 0.184747 0.399317 0.735602
1097 4 0.206643 0.387612 0.732648
3181 2 0.38556 0.378249 0.711774
3182 4 0.381306 0.356408 0.700371
3183 4 0.389814 0.400091 0.723177
892 2 0.015481 0.422817 0.678504
894 4 0.0382494 0.426762 0.668954
2128 2 0.0669504 0.45308 0.67714
2129 4 0.0542103 0.431986 0.681368
2130 4 0.0796905 0.474175 0.672912
940 2 0.143357 0.445512 0.731155
942 4 0.140434 0.468769 0.722453
941 4 0.146281 0.422254 0.739858
2214 4 0.333197 0.47539 0.739036
2212 2 0.310615 0.465354 0.73523
2213 4 0.288032 0.455318 0.731424
890 4 0.353843 0.488918 0.681994
1204 2 0.364251 0.476339 0.721442
1206 4 0.365407 0.463121 0.742635
1205 4 0.363095 0.489557 0.70025
1139 4 0.373723 0.446353 0.736589
1987 2 0.414587 0.49602 0.750677
1251 4 0.455939 0.493279 0.731767
1988 4 0.43748 0.495347 0.740644
1249 2 0.479198 0.492426 0.740904
1201 2 0.115447 0.0717947 0.758648
1202 4 0.118323 0.0881285 0.77736
831 4 0.132693 0.0816059 0.790079
829 2 0.155365 0.0847528 0.800141
1107 4 0.100776 0.0860093 0.788176
2254 2 0.181688 0.007201 0.757127
1091 4 0.265715 0.0836676 0.750061
1048 2 0.267168 0.0793384 0.787343
1050 4 0.263536 0.0656843 0.807972
960 4 0.282937 0.0383657 0.831353
958 2 0.296198 0.0171714 0.830989
4551 4 0.498106 0.0299759 0.76475
1215 4 0.0241989 0.162718 0.777121
1213 2 0.0360952 0.143505 0.787822
1214 4 0.0479914 0.124291 0.798523
1106 4 0.0620575 0.112108 0.806076
1105 2 0.0814169 0.0990588 0.797126
908 4 0.148076 0.141823 0.789456
1148 4 0.14265 0.128388 0.802893
1147 2 0.14089 0.138482 0.825701
1227 4 0.179299 0.104487 0.822033
909 4 0.188375 0.158745 0.765158
907 2 0.168226 0.150284 0.777307
830 4 0.178037 0.0878997 0.810203
1049 4 0.270799 0.0929925 0.766714
1021 2 0.29681 0.11457 0.829043
1022 4 0.305216 0.132406 0.813669
42 3 0.399076 0.143911 0.830724
3425 4 0.448109 0.110042 0.751261
3424 2 0.439471 0.118398 0.773187
3426 4 0.430833 0.126753 0.795113
45 3 0.424142 0.122979 0.812656
41 1 0.414243 0.126743 0.832817
1179 4 0.0201665 0.181856 0.781226
1177 2 0.0335425 0.19903 0.768924
1178 4 0.0469185 0.216203 0.756622
778 2 0.0492925 0.230016 0.821918
780 4 0.0457989 0.250742 0.808376
153 3 0.0424863 0.249139 0.787568
851 4 0.109721 0.188407 0.749428
840 4 0.252073 0.176899 0.761863
839 4 0.29605 0.187668 0.783095
838 2 0.274062 0.182284 0.772479
3361 2 0.494607 0.243297 0.798553
3362 4 0.495685 0.232981 0.775802
1144 2 0.460238 0.184424 0.802669
1145 4 0.467454 0.188166 0.779024
2977 2 0.489303 0.1984 0.75864
2978 4 0.465393 0.202208 0.764884
154 3 0.0394959 0.281957 0.768636
151 1 0.0540883 0.26536 0.775709
155 3 0.0644367 0.255939 0.757742
152 3 0.0699178 0.27476 0.789501
1209 4 0.0819975 0.264435 0.762276
1208 4 0.129377 0.278263 0.754234
1207 2 0.105687 0.271349 0.758255
1063 2 0.159837 0.310795 0.763746
1064 4 0.141919 0.294541 0.757428
1170 4 0.138485 0.337638 0.822648
917 4 0.197453 0.281589 0.762047
916 2 0.214783 0.293846 0.775262
918 4 0.232113 0.306102 0.788477
801 4 0.232741 0.300942 0.809034
799 2 0.243547 0.302731 0.831512
3329 4 0.358862 0.26229 0.760313
3328 2 0.354131 0.286772 0.758454
3330 4 0.349401 0.311253 0.756595
1043 4 0.342125 0.317538 0.774702
3363 4 0.493528 0.253612 0.821304
884 4 0.0612424 0.400073 0.776727
2175 4 0.0371282 0.41257 0.791922
1280 4 0.0300026 0.400379 0.773568
1242 4 0.159829 0.389536 0.781847
1278 4 0.215189 0.386124 0.750053
1065 4 0.177754 0.32705 0.770065
1240 2 0.166659 0.365499 0.782703
821 4 0.171485 0.405893 0.783035
1276 2 0.231352 0.37185 0.76271
1241 4 0.173489 0.341461 0.783558