ITEM: TIMESTEP
1470000
ITEM: NUMBER OF ATOMS
4590
ITEM: BOX BOUNDS pp pp pp
-9.9985700000000008e+00 9.9985700000000008e+00
-9.9985700000000008e+00 9.9985700000000008e+00
-9.9985700000000008e+00 9.9985700000000008e+00
ITEM: ATOMS id type xs ys zs
3291 4 0.0262151 0.0471775 0.0242877
3289 2 0.0223699 0.0412804 0.0482797
785 4 0.0320372 0.0592893 0.00926997
700 2 0.0753339 0.0744111 0.0701849
3290 4 0.0185248 0.0353833 0.0722718
566 4 0.250728 0.0492264 0.0930845
565 2 0.256921 0.0600169 0.0713961
567 4 0.263114 0.0708074 0.0497077
1542 4 0.305165 0.989017 0.0225876
1606 2 0.419147 0.0929159 0.0650649
1761 4 0.44968 0.00909931 0.0285008
1608 4 0.423432 0.0794348 0.0856823
702 4 0.0623524 0.0916137 0.057507
1668 4 0.0737005 0.0998118 0.0426501
1666 2 0.0618121 0.0981611 0.0207156
2625 4 0.994267 0.148209 0.0401222
2623 2 0.00316836 0.166086 0.0551674
573 4 0.23142 0.151783 0.0277783
357 4 0.239882 0.133489 0.0288478
571 2 0.214348 0.15215 0.00951331
355 2 0.249107 0.112121 0.037986
356 4 0.258331 0.0907534 0.0471241
491 4 0.301479 0.115042 0.0320886
557 4 0.318755 0.12361 0.0302384
490 2 0.304223 0.107461 0.00842059
556 2 0.332593 0.139225 0.0440175
558 4 0.346431 0.15484 0.0577966
665 4 0.365651 0.15182 0.057967
1607 4 0.414862 0.106397 0.0444475
3046 2 0.475483 0.131654 0.0203344
2640 4 0.471167 0.125582 0.0594199
3048 4 0.471072 0.117992 0.0408058
2638 2 0.472709 0.144113 0.0761346
656 4 0.0284082 0.194584 0.0642263
2624 4 0.0120701 0.183963 0.0702125
657 4 0.0182938 0.233156 0.0944024
655 2 0.023351 0.21387 0.0793144
354 4 0.262555 0.214622 0.0219608
297 4 0.281305 0.222013 0.0276124
295 2 0.278704 0.211882 0.0503234
296 4 0.276103 0.201752 0.0730343
581 4 0.297478 0.197445 0.074595
664 2 0.383728 0.162269 0.0442112
666 4 0.401805 0.172718 0.0304553
2792 4 0.414342 0.187257 0.0245526
2791 2 0.423966 0.202844 0.00753444
456 4 0.131149 0.27231 0.033124
455 4 0.158634 0.287082 0.0722012
454 2 0.144891 0.279696 0.0526626
294 4 0.133243 0.271815 0.0135346
287 4 0.164967 0.29434 0.0897511
286 2 0.181127 0.309799 0.0785681
288 4 0.197287 0.325258 0.0673851
1070 4 0.348877 0.335004 0.0451078
672 4 0.448671 0.31852 0.0847477
551 4 0.0348889 0.41149 0.0610862
552 4 0.0564145 0.392268 0.0202466
550 2 0.0456517 0.401879 0.0406664
252 4 0.188175 0.324557 0.0503299
251 4 0.215006 0.35775 0.0242717
250 2 0.20159 0.341153 0.0373008
483 4 0.218174 0.367879 0.00788622
481 2 0.243028 0.369297 0.00555089
13 3 0.322313 0.36579 0.0545436
11 1 0.335962 0.354503 0.0695335
15 3 0.325343 0.335874 0.0772042
482 4 0.267882 0.370715 0.00321556
1069 2 0.354411 0.337719 0.020876
14 3 0.355875 0.348576 0.0592006
12 3 0.340632 0.368402 0.0872583
323 4 0.411477 0.352267 0.0472245
957 4 0.411467 0.407014 0.033794
670 2 0.439883 0.334944 0.0680684
324 4 0.407192 0.393383 0.0190857
322 2 0.409335 0.372825 0.0331551
671 4 0.431095 0.351368 0.0513892
330 4 0.0162987 0.419221 0.0607323
313 2 0.00792516 0.475435 0.0681748
314 4 0.0265166 0.491856 0.0713227
1710 4 0.0430176 0.503622 0.0666359
1708 2 0.0676093 0.500019 0.0693647
1618 2 0.128859 0.451715 0.0284625
1620 4 0.117674 0.429883 0.0236222
2094 4 0.150345 0.488931 0.0285574
1619 4 0.140045 0.473547 0.0333028
1691 4 0.116503 0.413658 0.0107633
1290 4 0.164959 0.47859 0.00403552
524 4 0.307535 0.450833 0.064297
523 2 0.31365 0.455825 0.0405722
246 4 0.322095 0.443992 0.0746219
525 4 0.319764 0.460818 0.0168474
494 4 0.33707 0.456316 0.00860969
955 2 0.407867 0.427388 0.0197546
493 2 0.361256 0.4502 0.00694229
495 4 0.385443 0.444084 0.00527488
956 4 0.404267 0.447762 0.00571525
380 4 0.00521138 0.0583597 0.122938
590 4 0.0192728 0.0726106 0.130005
381 4 0.999314 0.0166154 0.149834
379 2 0.00226256 0.0374876 0.136386
701 4 0.0883155 0.0572084 0.0828627
450 4 0.104243 0.0585662 0.0940566
448 2 0.120998 0.0744194 0.103707
484 2 0.224007 0.0203349 0.108572
486 4 0.213927 0.9983 0.114738
485 4 0.234088 0.0423701 0.102407
653 4 0.369536 0.0486804 0.104224
652 2 0.360021 0.0379296 0.124695
654 4 0.350505 0.0271787 0.145166
1476 4 0.340429 0.0115091 0.139232
1448 4 0.417091 0.0627102 0.0951239
1474 2 0.345211 0.996214 0.158425
1447 2 0.412595 0.0407287 0.106159
1449 4 0.408099 0.0187473 0.117195
1784 4 0.409435 0.999463 0.123392
589 2 0.0232759 0.0940754 0.117822
2760 4 0.0116464 0.126239 0.115398
591 4 0.0272791 0.11554 0.10564
2758 2 0.0154012 0.150902 0.11709
449 4 0.137753 0.0902727 0.113357
578 4 0.147321 0.102458 0.12642
577 2 0.166754 0.115926 0.134554
579 4 0.186186 0.129394 0.142688
236 4 0.185742 0.121875 0.161241
746 4 0.466597 0.0905715 0.0807956
2639 4 0.474251 0.162645 0.0928493
745 2 0.466728 0.0967394 0.105026
747 4 0.466858 0.102907 0.129257
25 3 0.43758 0.107941 0.169331
705 4 0.00524646 0.244481 0.103478
2759 4 0.0191559 0.175564 0.118782
736 2 0.0600365 0.182395 0.136518
738 4 0.0365284 0.179979 0.12835
737 4 0.0835446 0.184811 0.144686
507 4 0.0975861 0.180409 0.130374
505 2 0.112701 0.191259 0.11367
506 4 0.127816 0.202109 0.0969669
755 4 0.144492 0.197431 0.106635
754 2 0.159586 0.21688 0.111008
756 4 0.17468 0.236328 0.115382
462 4 0.194014 0.231024 0.120126
460 2 0.217769 0.238746 0.119022
461 4 0.241525 0.246468 0.117919
580 2 0.313891 0.179986 0.0817336
278 4 0.308162 0.177319 0.139445
307 2 0.301912 0.237262 0.157817
277 2 0.294414 0.172566 0.159782
309 4 0.318371 0.24475 0.140548
308 4 0.285454 0.229773 0.175086
623 4 0.254667 0.258544 0.111506
582 4 0.330305 0.162528 0.0888721
518 4 0.37613 0.23923 0.124896
517 2 0.355027 0.238089 0.138257
519 4 0.333923 0.236947 0.151618
253 2 0.407746 0.205249 0.145227
254 4 0.404753 0.180868 0.140561
255 4 0.410739 0.229631 0.149893
2895 4 0.425499 0.210355 0.0809469
2894 4 0.456243 0.173285 0.0944138
2893 2 0.440871 0.19182 0.0876804
2806 2 0.0348149 0.274644 0.123615
2807 4 0.0553914 0.263659 0.132622
477 4 0.0694802 0.274147 0.125105
2808 4 0.0142384 0.285629 0.114609
2771 4 0.00236734 0.300005 0.108523
475 2 0.0847444 0.273985 0.144907
476 4 0.100009 0.273824 0.16471
362 4 0.116606 0.295897 0.150493
361 2 0.127205 0.318499 0.15191
607 2 0.250405 0.315441 0.139094
739 2 0.284492 0.332083 0.0963199
608 4 0.266183 0.311575 0.120087
622 2 0.267231 0.269328 0.0927703
624 4 0.279795 0.280111 0.0740341
740 4 0.263155 0.326167 0.107935
528 4 0.414276 0.247324 0.1573
2841 4 0.463059 0.30892 0.0943378
2839 2 0.455003 0.305068 0.117693
2840 4 0.446947 0.301216 0.141047
527 4 0.441338 0.289365 0.156364
526 2 0.427807 0.268344 0.156832
415 2 0.0769526 0.371191 0.14268
416 4 0.0676057 0.390876 0.15494
537 4 0.078676 0.404562 0.145694
417 4 0.0862995 0.351505 0.13042
363 4 0.137805 0.3411 0.153326
741 4 0.305829 0.337999 0.0847048
596 4 0.418533 0.402818 0.160587
2652 4 0.420945 0.385654 0.15017
1787 4 0.0898534 0.494421 0.0912292
535 2 0.093764 0.420971 0.15702
1786 2 0.113201 0.488051 0.0975145
290 4 0.146144 0.463351 0.0990954
1788 4 0.136548 0.481681 0.1038
1775 4 0.127385 0.434904 0.159404
289 2 0.162886 0.445025 0.102101
291 4 0.179628 0.426698 0.105107
627 4 0.178202 0.423409 0.125244
625 2 0.196769 0.431235 0.140049
626 4 0.215336 0.43906 0.154854
244 2 0.335872 0.447502 0.0951905
245 4 0.349648 0.451013 0.115759
387 4 0.343456 0.447845 0.134864
385 2 0.354012 0.431331 0.15039
659 4 0.420543 0.460346 0.142028
597 4 0.415688 0.44408 0.13248
658 2 0.424392 0.483869 0.14958
595 2 0.41711 0.423449 0.146533
3799 2 0.486041 0.490796 0.14486
3800 4 0.492144 0.477456 0.124611
3608 4 0.497997 0.458716 0.122249
428 4 0.152331 0.0328244 0.216667
427 2 0.147358 0.0369791 0.240816
1504 2 0.290513 0.00316455 0.208465
691 2 0.291835 0.0621738 0.211042
1505 4 0.308684 0.0202647 0.210067
692 4 0.302763 0.0398015 0.208756
693 4 0.280906 0.0845461 0.213328
721 2 0.247187 0.0939926 0.218118
235 2 0.20189 0.114904 0.179013
237 4 0.218037 0.107932 0.196784
722 4 0.223539 0.0927741 0.210088
723 4 0.270835 0.0952111 0.226148
730 2 0.274468 0.152876 0.218958
732 4 0.277996 0.153083 0.194205
279 4 0.280666 0.167814 0.180118
759 4 0.388005 0.144677 0.212851
757 2 0.411411 0.137649 0.207564
629 4 0.377411 0.160634 0.209187
771 4 0.490127 0.116552 0.163326
22 3 0.474781 0.108438 0.172282
758 4 0.434817 0.130621 0.202277
21 1 0.454978 0.109873 0.183898
23 3 0.454177 0.0927225 0.199506
24 3 0.454059 0.130416 0.194648
521 4 0.464267 0.150139 0.239479
699 4 0.456942 0.132235 0.246451
511 2 0.0515579 0.226061 0.195724
513 4 0.0342845 0.243987 0.193379
512 4 0.0688314 0.208136 0.198068
393 4 0.0731725 0.193945 0.212709
391 2 0.09677 0.196929 0.204999
392 4 0.120368 0.199912 0.19729
546 4 0.141098 0.199489 0.194045
544 2 0.161006 0.214497 0.192151
545 4 0.180915 0.229505 0.190256
285 4 0.199294 0.234044 0.191341
731 4 0.270941 0.15267 0.24371
628 2 0.37792 0.185475 0.211988
630 4 0.378429 0.210316 0.214788
377 4 0.399406 0.21462 0.211677
376 2 0.418361 0.22636 0.20036
378 4 0.437316 0.238101 0.189044
646 2 0.0447145 0.312333 0.199547
648 4 0.0241421 0.316683 0.186018
647 4 0.0652869 0.307982 0.213076
620 4 0.0164339 0.327181 0.171315
2799 4 0.0138211 0.264555 0.241919
2692 2 0.0360571 0.288814 0.252167
2694 4 0.0585194 0.298956 0.247952
396 4 0.0844698 0.306639 0.220717
339 4 0.1367 0.299316 0.20236
395 4 0.113161 0.286471 0.18507
394 2 0.0988155 0.296555 0.202894
337 2 0.156592 0.314321 0.200276
609 4 0.234626 0.319306 0.158101
283 2 0.200548 0.258867 0.18861
284 4 0.201801 0.283689 0.185879
338 4 0.176483 0.329326 0.198192
612 4 0.275262 0.287289 0.170454
498 4 0.304272 0.265911 0.196611
496 2 0.310673 0.262653 0.220561
610 2 0.296225 0.299487 0.176531
345 4 0.332106 0.305608 0.195088
611 4 0.317188 0.311686 0.182607
343 2 0.35243 0.317659 0.186911
344 4 0.372755 0.32971 0.178734
619 2 0.998908 0.339689 0.184027
300 4 0.0973108 0.370329 0.183956
299 4 0.140788 0.349399 0.197086
298 2 0.119049 0.359864 0.190521
617 4 0.144054 0.361565 0.244481
645 4 0.36765 0.387229 0.218832
643 2 0.358519 0.400071 0.199418
644 4 0.349388 0.412912 0.180004
107 3 0.500347 0.401549 0.247447
2650 2 0.418954 0.372153 0.171121
2651 4 0.416964 0.358652 0.192072
2538 4 0.43552 0.360857 0.201339
2536 2 0.444417 0.371713 0.222031
2537 4 0.453314 0.38257 0.242723
536 4 0.108852 0.43738 0.168346
412 2 0.148002 0.47229 0.227653
414 4 0.164049 0.463867 0.210426
1774 2 0.138919 0.444604 0.179355
1776 4 0.150453 0.454304 0.199306
768 4 0.225714 0.444943 0.171561
766 2 0.236506 0.467387 0.173791
767 4 0.247298 0.489832 0.176021
504 4 0.202159 0.472289 0.239328
502 2 0.211407 0.494235 0.246948
1659 4 0.314963 0.492807 0.205567
1574 4 0.323105 0.453097 0.192051
1573 2 0.327526 0.442137 0.214085
1575 4 0.331948 0.431177 0.236119
386 4 0.364569 0.414818 0.165915
229 2 0.372765 0.476709 0.247446
230 4 0.347806 0.477931 0.248293
1403 4 0.063244 0.0193223 0.285736
1478 4 0.115639 4.58228e-05 0.293452
1477 2 0.130951 0.019243 0.288739
429 4 0.142385 0.0411339 0.264965
1479 4 0.146262 0.0384402 0.284026
30 3 0.318777 0.0726972 0.258218
27 3 0.281974 0.0693994 0.252968
26 1 0.298683 0.0706118 0.268732
29 3 0.298391 0.051225 0.281478
248 4 0.27481 0.0675836 0.323952
405 4 0.276732 0.0768681 0.305359
1747 2 0.413265 0.024643 0.312982
1749 4 0.402398 0.00914723 0.329321
1748 4 0.424132 0.0401387 0.296643
743 4 0.408382 0.0524423 0.293797
742 2 0.41391 0.0758257 0.286881
530 4 0.0447478 0.159728 0.301183
606 4 0.278168 0.167327 0.256854
28 3 0.294886 0.0890599 0.282284
404 4 0.265411 0.121948 0.323807
403 2 0.271072 0.0994081 0.314583
604 2 0.301022 0.161901 0.265425
605 4 0.323876 0.156476 0.273996
633 4 0.338225 0.146091 0.280575
631 2 0.351206 0.140904 0.301306
632 4 0.364188 0.135717 0.322036
744 4 0.419438 0.0992091 0.279965
698 4 0.43866 0.0968249 0.276661
697 2 0.447801 0.11453 0.261556
331 2 0.423156 0.156991 0.317514
458 4 0.0396117 0.168487 0.318592
529 2 0.0664473 0.168494 0.292382
531 4 0.0881467 0.177261 0.283581
2850 4 0.132806 0.219353 0.283445
2848 2 0.142264 0.196863 0.288917
2849 4 0.151722 0.174373 0.294389
763 2 0.316472 0.245503 0.275754
706 2 0.322018 0.223085 0.329424
708 4 0.325988 0.236102 0.308449
765 4 0.324586 0.226812 0.290245
333 4 0.407989 0.164873 0.299265
520 2 0.458013 0.172446 0.248886
522 4 0.451759 0.194752 0.258293
420 4 0.457678 0.202872 0.275475
418 2 0.467239 0.200341 0.29844
419 4 0.4768 0.19781 0.321404
2693 4 0.0135948 0.278672 0.256382
735 4 0.0737915 0.286813 0.241837
2653 2 0.109186 0.254346 0.318876
733 2 0.0885995 0.282927 0.261606
734 4 0.103407 0.279042 0.281374
2654 4 0.109403 0.267573 0.297659
618 4 0.141266 0.316103 0.265123
749 4 0.15333 0.314378 0.280298
748 2 0.172602 0.298452 0.2807
389 4 0.194725 0.266444 0.292703
750 4 0.191873 0.282526 0.281102
388 2 0.198196 0.267687 0.317434
764 4 0.308358 0.264193 0.261263
497 4 0.317074 0.259395 0.244511
509 4 0.259244 0.33563 0.316764
508 2 0.27064 0.320135 0.33274
365 4 0.130521 0.374932 0.249594
616 2 0.14266 0.338834 0.254802
364 2 0.139458 0.398159 0.252
727 2 0.212822 0.400221 0.277258
729 4 0.225292 0.379029 0.272721
434 4 0.241219 0.380684 0.284751
433 2 0.251768 0.358761 0.290524
435 4 0.262316 0.336839 0.296296
275 4 0.338266 0.37591 0.283694
274 2 0.352957 0.368826 0.302645
276 4 0.367648 0.361742 0.321596
614 4 0.375725 0.34464 0.318876
613 2 0.39785 0.343466 0.330463
446 4 0.376538 0.40667 0.300112
543 4 0.363119 0.405292 0.286165
445 2 0.379955 0.412077 0.324284
541 2 0.353626 0.420547 0.268776
109 3 0.499027 0.364664 0.254544
108 3 0.467545 0.385824 0.256901
3990 4 0.493936 0.409734 0.284062
106 1 0.490463 0.385391 0.260499
110 3 0.49497 0.389656 0.282412
2924 4 0.431397 0.32636 0.339752
679 2 0.0559791 0.448349 0.298766
501 4 0.034422 0.48032 0.303465
680 4 0.0411578 0.466784 0.290665
681 4 0.0708003 0.429913 0.306867
499 2 0.0243093 0.499925 0.315236
366 4 0.148395 0.421387 0.254407
413 4 0.131956 0.480712 0.244879
677 4 0.120156 0.471299 0.258912
676 2 0.120029 0.462651 0.282372
678 4 0.119901 0.454003 0.305832
603 4 0.147385 0.432622 0.270173
375 4 0.115899 0.462635 0.323493
601 2 0.171042 0.43631 0.277377
728 4 0.200352 0.421413 0.281796
602 4 0.1947 0.439998 0.284581
2 3 0.313547 0.478017 0.324311
1437 4 0.300771 0.492485 0.328589
4 3 0.34736 0.493966 0.32818
713 4 0.405996 0.469304 0.264756
542 4 0.344134 0.435801 0.251387
231 4 0.397724 0.475487 0.2466
712 2 0.423904 0.452101 0.261833
714 4 0.441812 0.434898 0.25891
2861 4 0.482625 0.49055 0.286454
247 2 0.279612 0.0466727 0.336791
249 4 0.284414 0.0257619 0.349631
1700 4 0.281002 0.0325941 0.36942
1699 2 0.290365 0.040821 0.391095
468 4 0.321056 0.0787706 0.351273
1701 4 0.299727 0.0490479 0.412771
479 4 0.408784 0.0495036 0.390187
478 2 0.409249 0.0712802 0.377909
2641 2 0.438678 0.0553816 0.421123
2642 4 0.423898 0.0575342 0.40107
457 2 0.0189154 0.171568 0.33228
340 2 0.0246345 0.136761 0.403933
342 4 0.03442 0.145076 0.382479
686 4 0.0407268 0.163697 0.379726
459 4 0.998219 0.17465 0.345967
367 2 0.152346 0.153217 0.374812
368 4 0.129592 0.146258 0.382495
466 2 0.32274 0.0885635 0.374217
684 4 0.328927 0.0988471 0.416894
467 4 0.324423 0.0983563 0.397161
516 4 0.371633 0.131467 0.339359
514 2 0.391975 0.121899 0.350306
515 4 0.412317 0.112332 0.361253
480 4 0.409714 0.0930567 0.365632
761 4 0.490505 0.144845 0.339796
332 4 0.438323 0.14911 0.335763
760 2 0.487145 0.169622 0.339997
685 2 0.0589006 0.179943 0.385291
687 4 0.0770744 0.196189 0.390855
470 4 0.0778526 0.20336 0.409562
2655 4 0.108969 0.241119 0.340094
474 4 0.180107 0.176314 0.37862
369 4 0.175099 0.160175 0.367128
472 2 0.197151 0.185199 0.394612
473 4 0.214195 0.194084 0.410604
707 4 0.318048 0.210067 0.350399
715 2 0.314551 0.205094 0.382455
716 4 0.328905 0.199758 0.402221
717 4 0.300198 0.210429 0.362689
351 4 0.411204 0.189854 0.346103
349 2 0.388106 0.199181 0.343941
350 4 0.365009 0.208509 0.34178
311 4 0.495836 0.228007 0.350412
762 4 0.483786 0.194398 0.340199
2516 4 0.483886 0.21141 0.350427
2515 2 0.47497 0.219075 0.372493
2517 4 0.466054 0.22674 0.39456
452 4 0.462901 0.24617 0.401216
442 2 0.0748343 0.320402 0.356171
260 4 0.087021 0.317497 0.389958
2801 4 0.0401475 0.313317 0.347009
444 4 0.0918359 0.326721 0.373381
259 2 0.0963328 0.318879 0.413122
371 4 0.190504 0.280414 0.354526
390 4 0.201666 0.268931 0.342164
370 2 0.191082 0.271808 0.377995
372 4 0.191659 0.263202 0.401464
401 4 0.207872 0.252494 0.40635
636 4 0.293153 0.309669 0.365004
510 4 0.282036 0.30464 0.348716
634 2 0.312773 0.323777 0.371423
117 3 0.488187 0.316823 0.364556
615 4 0.419976 0.342293 0.34205
2925 4 0.478868 0.331122 0.354737
2923 2 0.455132 0.328741 0.347244
451 2 0.44209 0.250349 0.41443
443 4 0.0578327 0.314083 0.338961
2800 2 0.0182501 0.324176 0.341738
325 2 0.11628 0.418027 0.392417
327 4 0.113103 0.407782 0.415003
669 4 0.316527 0.397826 0.404929
667 2 0.324616 0.377661 0.392556
635 4 0.332393 0.337884 0.377842
668 4 0.332705 0.357495 0.380182
751 2 0.378712 0.413599 0.385122
753 4 0.37527 0.39839 0.404668
373 2 0.111746 0.453004 0.346191
374 4 0.107593 0.443372 0.368888
326 4 0.119458 0.428272 0.369832
1555 2 0.318327 0.484824 0.395384
1 1 0.330981 0.481514 0.338906
1556 4 0.298767 0.46925 0.395585
593 4 0.296655 0.451725 0.404229
592 2 0.307348 0.430599 0.412261
5 3 0.323341 0.4928 0.357151
3 3 0.339606 0.460959 0.34535
752 4 0.382154 0.428807 0.365577
447 4 0.383371 0.417485 0.348455
561 4 0.499983 0.447682 0.404037
560 4 0.462672 0.467286 0.377126
559 2 0.481327 0.457484 0.390581
2236 2 0.0145494 0.00880624 0.443776
599 4 0.152453 0.0191072 0.453739
2429 4 0.209899 0.0235896 0.425672
598 2 0.176314 0.0165998 0.4467
600 4 0.200174 0.0140925 0.43966
2428 2 0.220329 0.00343607 0.415173
3158 4 0.340183 0.00987363 0.491181
575 4 0.329213 0.0247605 0.484039
574 2 0.33962 0.0432343 0.470787
576 4 0.350027 0.0617081 0.457536
683 4 0.360097 0.0683795 0.441406
4239 4 0.4896 0.0155626 0.484648
2643 4 0.453457 0.053229 0.441176
1517 4 0.418163 0.0161124 0.472357
2878 2 0.461284 0.00994825 0.467895
2880 4 0.437068 0.016115 0.467028
341 4 0.014849 0.128445 0.425387
1035 4 0.0300564 0.118402 0.434788
1034 4 0.0204213 0.120111 0.483829
1033 2 0.0252389 0.119256 0.459308
682 2 0.344512 0.0836133 0.42915
825 4 0.0599709 0.196665 0.48299
1200 4 0.0438408 0.186165 0.485439
1198 2 0.0280608 0.200879 0.498075
471 4 0.0747497 0.225232 0.454425
469 2 0.0763012 0.214296 0.431994
823 2 0.0816999 0.18681 0.490466
824 4 0.103429 0.176955 0.497943
651 4 0.210319 0.193639 0.430153
321 4 0.254045 0.173408 0.480467
649 2 0.22438 0.186604 0.449594
650 4 0.238442 0.179568 0.469035
488 4 0.343272 0.210525 0.41066
640 2 0.321512 0.228111 0.496354
487 2 0.344308 0.230842 0.425198
898 2 0.329905 0.172695 0.48735
899 4 0.337633 0.195116 0.479428
642 4 0.338894 0.210321 0.493789
489 4 0.345344 0.251158 0.439737
261 4 0.105645 0.32026 0.436286
695 4 0.106626 0.315971 0.455821
694 2 0.111349 0.306382 0.478425
696 4 0.116071 0.296793 0.501028
402 4 0.237747 0.270984 0.441936
400 2 0.222809 0.261739 0.424143
811 2 0.294606 0.278638 0.474054
812 4 0.304096 0.256738 0.481508
813 4 0.285116 0.300537 0.466601
872 4 0.27957 0.313415 0.452656
266 4 0.40022 0.284734 0.440116
267 4 0.352352 0.270311 0.441232
265 2 0.376286 0.277522 0.440674
584 4 0.416646 0.291952 0.446158
453 4 0.421279 0.254528 0.427644
583 2 0.426599 0.301482 0.467022
585 4 0.436551 0.311012 0.487886
3308 4 0.487903 0.304159 0.478699
711 4 0.146027 0.382771 0.470444
709 2 0.135637 0.391755 0.449551
773 4 0.157108 0.366748 0.478143
710 4 0.125246 0.400738 0.428658
772 2 0.17741 0.358942 0.490474
774 4 0.197712 0.351135 0.502805
2109 4 0.173143 0.426877 0.421119
594 4 0.31804 0.409472 0.420293
871 2 0.280321 0.334011 0.466812
336 4 0.364261 0.382575 0.462278
334 2 0.376306 0.399701 0.475945
408 4 0.00276117 0.428718 0.426713
406 2 0.0107417 0.432857 0.450044
382 2 0.0378426 0.47281 0.481099
407 4 0.0187222 0.436997 0.473376
383 4 0.0245811 0.455547 0.468798
384 4 0.051104 0.490072 0.4934
2107 2 0.178184 0.43889 0.442461
1445 4 0.186369 0.46732 0.475212
1444 2 0.177648 0.477681 0.496231
2108 4 0.183225 0.450903 0.463802
1399 2 0.296912 0.482596 0.454743
1401 4 0.27503 0.47091 0.451613
238 2 0.396124 0.44834 0.488205
240 4 0.397752 0.426886 0.475467
335 4 0.388352 0.416827 0.489611
239 4 0.394496 0.469794 0.500944
930 4 0.377877 0.482276 0.500523
588 4 0.497994 0.447228 0.424664
718 2 0.0155311 0.00291105 0.549233
720 4 0.017251 0.0177179 0.529159
1152 4 0.210762 0.0337077 0.52575
1150 2 0.2249 0.0543053 0.526765
1059 4 0.206653 0.0144717 0.520281
1057 2 0.200497 0.991622 0.512208
1151 4 0.239038 0.074903 0.527779
3157 2 0.323087 0.00520302 0.508819
962 4 0.302496 0.998993 0.546097
1031 4 0.266055 0.0458483 0.568799
3159 4 0.305992 0.000532406 0.526458
1518 4 0.399292 0.999501 0.515585
426 4 0.406053 0.00222815 0.558909
1516 2 0.408728 0.00780665 0.493971
939 4 0.0423336 0.105784 0.540078
937 2 0.0319473 0.117616 0.520654
1221 4 0.055625 0.110051 0.554343
1184 4 0.0148971 0.0882941 0.572504
1219 2 0.0785441 0.12003 0.553779
938 4 0.021561 0.129449 0.50123
1220 4 0.101463 0.130008 0.553215
1271 4 0.119294 0.134462 0.547083
1270 2 0.117435 0.149118 0.52691
1182 4 0.241895 0.0938756 0.521719
1180 2 0.262381 0.103894 0.531972
1181 4 0.282868 0.113913 0.542224
725 4 0.296141 0.109258 0.527118
726 4 0.330065 0.142391 0.511241
724 2 0.313103 0.125824 0.519179
900 4 0.322178 0.150274 0.495272
906 4 0.495664 0.16559 0.581608
1011 4 0.479314 0.155554 0.586047
3045 4 0.0206721 0.233685 0.516594
3043 2 0.0079691 0.23328 0.538126
1199 4 0.0122808 0.215592 0.510711
3044 4 0.995266 0.232874 0.559659
1272 4 0.115575 0.163774 0.506738
346 2 0.14358 0.241523 0.549538
347 4 0.158599 0.223026 0.557118
856 2 0.25302 0.171172 0.56654
858 4 0.257697 0.179933 0.543593
320 4 0.256512 0.164857 0.529676
319 2 0.255279 0.169132 0.505071
792 4 0.397604 0.232864 0.555612
879 4 0.0373813 0.254266 0.520892
877 2 0.0584091 0.267547 0.523469
878 4 0.0794368 0.280827 0.526047
348 4 0.128562 0.260021 0.541957
8 3 0.110633 0.265969 0.534826
9 3 0.0888825 0.297016 0.532105
6 1 0.110462 0.289164 0.535432
7 3 0.117802 0.296117 0.556094
10 3 0.124312 0.29746 0.51937
1190 4 0.220463 0.337895 0.574397
1394 4 0.22758 0.330055 0.557235
1189 2 0.20425 0.327317 0.590222
641 4 0.304131 0.245902 0.49892
790 2 0.403836 0.257072 0.556145
791 4 0.410068 0.281281 0.556678
269 4 0.426706 0.282557 0.567061
3309 4 0.457633 0.304291 0.518503
270 4 0.46114 0.304176 0.537947
268 2 0.443923 0.293367 0.552504
3307 2 0.472768 0.304225 0.498601
2814 4 0.0453135 0.39662 0.537065
3333 4 0.0300789 0.392439 0.523883
3331 2 0.0108635 0.382306 0.511502
2812 2 0.069301 0.394597 0.530306
2813 4 0.0932885 0.392574 0.523547
1395 4 0.214783 0.348929 0.512729
1393 2 0.221181 0.339492 0.534982
1029 4 0.26334 0.420224 0.558161
1239 4 0.263506 0.410305 0.575873
1237 2 0.28431 0.396884 0.579371
1238 4 0.305115 0.383462 0.582868
873 4 0.281073 0.354608 0.480969
935 4 0.0677195 0.498982 0.484552
934 2 0.0868412 0.490567 0.49829
936 4 0.105963 0.482153 0.512029
1040 4 0.103169 0.472765 0.528769
1039 2 0.120099 0.472504 0.547167
1041 4 0.137029 0.472243 0.565565
1136 4 0.132308 0.457376 0.578886
1172 4 0.248474 0.472204 0.546855
1446 4 0.168927 0.488042 0.517249
1027 2 0.250462 0.439213 0.548223
1028 4 0.237583 0.458202 0.538285
1171 2 0.261648 0.493393 0.545218
928 2 0.364515 0.49031 0.52007
882 4 0.337025 0.501382 0.552876
929 4 0.351152 0.498344 0.539617
3076 2 0.0155721 0.0707151 0.609909
3078 4 0.0201043 0.0544296 0.628332
2990 4 0.0241756 0.0710376 0.663298
2318 4 0.213147 0.0496639 0.587572
1284 4 0.213963 0.0750286 0.647448
2319 4 0.203297 0.066811 0.633504
2317 2 0.208222 0.0582374 0.610538
1030 2 0.278222 0.0521303 0.589719
1032 4 0.290389 0.0584124 0.61064
1142 4 0.304011 0.0567381 0.624822
841 2 0.394687 0.0288923 0.612668
842 4 0.402425 0.0503814 0.602494
1003 2 0.376168 0.0127053 0.662637
843 4 0.386948 0.00740322 0.622842
1004 4 0.380432 0.00152769 0.640681
4467 4 0.497265 0.00827597 0.637434
3077 4 0.0110399 0.0870007 0.591485
2989 2 0.0461536 0.0815969 0.668834
1141 2 0.316806 0.072212 0.639722
1143 4 0.329602 0.087686 0.654622
953 4 0.327825 0.163974 0.661389
1009 2 0.481977 0.130692 0.586052
1026 4 0.469134 0.158772 0.64538
1024 2 0.470726 0.135845 0.655227
1025 4 0.472318 0.112917 0.665075
850 2 0.0500531 0.203539 0.651719
851 4 0.0556018 0.191426 0.630561
411 4 0.256314 0.176268 0.60149
857 4 0.248343 0.162411 0.589486
1212 4 0.252126 0.18561 0.663095
410 4 0.257422 0.19595 0.647447
409 2 0.256868 0.186109 0.624468
954 4 0.318189 0.190687 0.620228
952 2 0.323007 0.17733 0.640808
1262 4 0.472148 0.170079 0.629781
3123 4 0.462917 0.226827 0.665248
1261 2 0.466176 0.189468 0.644395
1191 4 0.188037 0.316739 0.606046
806 4 0.334897 0.321124 0.620906
803 4 0.328642 0.339024 0.627098
805 2 0.346944 0.299282 0.622635
807 4 0.35899 0.27744 0.624365
3371 4 0.490387 0.275273 0.663072
1007 4 0.508835 0.339119 0.648641
3324 4 0.5012 0.289432 0.598779
895 2 0.163961 0.348626 0.620695
896 4 0.14547 0.364809 0.625321
992 4 0.130427 0.358876 0.638609
991 2 0.11471 0.346822 0.653869
897 4 0.182452 0.332444 0.61607
802 2 0.31927 0.352706 0.608385
804 4 0.309899 0.366389 0.589673
798 4 0.322908 0.350104 0.678193
1006 2 0.491855 0.351242 0.634862
1008 4 0.474875 0.363366 0.621082
1983 4 0.055793 0.4982 0.661986
2130 4 0.0399954 0.485929 0.66122
1135 2 0.15524 0.457829 0.588841
1137 4 0.178173 0.458281 0.598795
540 4 0.191398 0.470982 0.608981
538 2 0.200042 0.488345 0.593202
890 4 0.319771 0.479092 0.656128
889 2 0.334004 0.489571 0.638442
1952 4 0.401751 0.481152 0.580015
1951 2 0.383842 0.487613 0.596223
1953 4 0.365933 0.494075 0.61243
891 4 0.348237 0.500051 0.620756
1101 4 0.492153 0.432658 0.671746
2254 2 0.151394 0.00645967 0.747617
943 2 0.12631 0.0409745 0.714195
944 4 0.120125 0.0651771 0.715274
2255 4 0.133131 0.0165112 0.733811
945 4 0.132494 0.0167718 0.713116
863 4 0.122456 0.0843408 0.708651
1092 4 0.302635 0.0502758 0.725056
950 4 0.315416 0.0383177 0.715326
1090 2 0.291206 0.0404667 0.745014
949 2 0.33389 0.0312335 0.700039
951 4 0.352365 0.0241492 0.684752
1005 4 0.371905 0.023883 0.684593
1216 2 0.441084 0.00914535 0.75052
2991 4 0.0681317 0.0921562 0.67437
862 2 0.103261 0.0927781 0.695029
864 4 0.0840665 0.101215 0.681408
829 2 0.149516 0.129329 0.730068
831 4 0.146599 0.113444 0.71098
830 4 0.152433 0.145215 0.749155
1282 2 0.229117 0.0849989 0.664657
1283 4 0.24427 0.0949691 0.681866
908 4 0.172537 0.150673 0.749564
1155 4 0.255124 0.101916 0.666777
1153 2 0.267741 0.123214 0.6703
1154 4 0.280358 0.144511 0.673823
1299 4 0.280079 0.154575 0.691776
887 4 0.32044 0.0975709 0.668931
886 2 0.335692 0.117167 0.671859
888 4 0.350943 0.136763 0.674788
1194 4 0.356798 0.172768 0.680368
3426 4 0.468628 0.089489 0.730903
45 3 0.427421 0.125564 0.740943
3425 4 0.47244 0.111117 0.685976
3424 2 0.470534 0.100303 0.708439
1081 2 0.0112499 0.196402 0.69634
1082 4 0.0262918 0.210911 0.682613
852 4 0.0445045 0.215651 0.672878
1179 4 0.0317464 0.227987 0.728248
946 2 0.127402 0.191047 0.727572
948 4 0.150176 0.190407 0.717271
1260 4 0.152915 0.17815 0.702088
947 4 0.104629 0.191687 0.737874
1258 2 0.170886 0.185313 0.686248
1210 2 0.229163 0.189232 0.672301
1211 4 0.2062 0.192853 0.681507
1259 4 0.188858 0.192476 0.670409
1297 2 0.27967 0.169861 0.711559
1298 4 0.279261 0.185146 0.731342
1192 2 0.369344 0.173818 0.701971
1193 4 0.381891 0.174868 0.723573
977 4 0.383748 0.190159 0.735233
1263 4 0.460203 0.208858 0.659009
3121 2 0.478379 0.245066 0.672559
1067 4 0.097523 0.303952 0.731842
1066 2 0.0997459 0.316064 0.710081
3329 4 0.40267 0.325393 0.73976
3122 4 0.493841 0.263305 0.679869
1281 4 0.0217705 0.353846 0.696964
1280 4 0.0398775 0.400458 0.696505
1279 2 0.030824 0.377152 0.696735
3420 4 0.00784702 0.340722 0.693204
1068 4 0.101969 0.328176 0.68832
993 4 0.0989926 0.334769 0.669129
1097 4 0.244119 0.407135 0.749227
1278 4 0.248967 0.398675 0.731468
1277 4 0.285536 0.387893 0.699108
797 4 0.286412 0.384291 0.678107
1276 2 0.267252 0.393284 0.715288
796 2 0.30466 0.367198 0.67815
1043 4 0.377433 0.366255 0.699971
1042 2 0.359025 0.356015 0.686499
1044 4 0.340617 0.345775 0.673028
3330 4 0.376735 0.363441 0.720256
3328 2 0.389702 0.344417 0.730008
1140 4 0.345582 0.412396 0.752782
884 4 0.0442178 0.417861 0.703524
883 2 0.0531913 0.436882 0.717046
885 4 0.0621648 0.455903 0.730568
815 4 0.0566513 0.462648 0.748376
2128 2 0.0221715 0.47372 0.673807
2129 4 0.0043476 0.461511 0.686394
894 4 0.991646 0.469911 0.699763
942 4 0.141142 0.445816 0.715611
940 2 0.138472 0.442389 0.740234
2369 4 0.270454 0.495785 0.74623
1205 4 0.317177 0.473324 0.676305
1204 2 0.328317 0.46433 0.696803
1206 4 0.339456 0.455335 0.717302
2214 4 0.286859 0.481012 0.744577
1139 4 0.33487 0.458643 0.737061
1138 2 0.340226 0.43552 0.744921
1294 2 0.0278939 0.0367045 0.827253
1296 4 0.0495741 0.0337897 0.815143
1286 4 0.0572493 0.0296374 0.797675
1285 2 0.0781275 0.040222 0.788886
1287 4 0.0990057 0.0508066 0.780097
1203 4 0.10716 0.0675331 0.772009
1970 4 0.186392 0.986075 0.760816
1091 4 0.279777 0.0306576 0.764973
1049 4 0.294004 0.0248711 0.778464
1048 2 0.309717 0.0176246 0.796514
1050 4 0.325429 0.0103782 0.814563
964 2 0.409876 0.0365126 0.789889
965 4 0.411114 0.0477981 0.812166
966 4 0.408638 0.0252271 0.767611
2322 4 0.428101 0.0426318 0.821549
1218 4 0.425855 0.0283398 0.755506
845 4 0.485746 0.0808829 0.797412
2283 4 0.418702 0.00144826 0.828052
1107 4 0.0546288 0.116788 0.767021
1214 4 0.0323201 0.173237 0.785912
1105 2 0.0521247 0.139582 0.776988
1106 4 0.0496207 0.162376 0.786955
1201 2 0.114595 0.089744 0.763258
1202 4 0.12203 0.111955 0.754508
1130 4 0.126935 0.123896 0.769499
1129 2 0.126135 0.138874 0.789503
1131 4 0.125335 0.153852 0.809508
33 3 0.11908 0.0893242 0.824305
839 4 0.33053 0.129783 0.813637
1148 4 0.262837 0.122955 0.812649
840 4 0.280527 0.130414 0.813681
838 2 0.305528 0.130099 0.813659
1022 4 0.346749 0.123113 0.820173
44 3 0.409046 0.151229 0.761469
42 3 0.445651 0.15539 0.754021
1112 4 0.433278 0.106395 0.830273
1111 2 0.437012 0.108155 0.805613
41 1 0.429134 0.140009 0.758467
43 3 0.434689 0.128406 0.777777
1113 4 0.440746 0.109914 0.780952
1177 2 0.0395797 0.233661 0.751305
1178 4 0.0474131 0.239336 0.774362