ITEM: TIMESTEP
3510000
ITEM: NUMBER OF ATOMS
4590
ITEM: BOX BOUNDS pp pp pp
-9.9985700000000008e+00 9.9985700000000008e+00
-9.9985700000000008e+00 9.9985700000000008e+00
-9.9985700000000008e+00 9.9985700000000008e+00
ITEM: ATOMS id type xs ys zs
3232 2 0.0631565 0.00251085 0.00815684
700 2 0.0628894 0.0570251 0.0494062
701 4 0.0633628 0.0321598 0.0519883
702 4 0.0624161 0.0818905 0.046824
656 4 0.0121528 0.0631336 0.0048788
2270 4 0.0881393 0.0346905 0.0141233
2269 2 0.110077 0.0438558 0.00638369
722 4 0.241841 0.0765868 0.0437537
693 4 0.299469 0.0808745 0.0765809
492 4 0.382088 0.0675479 0.00970278
490 2 0.364497 0.0498246 0.0109736
491 4 0.346906 0.0321013 0.0122444
654 4 0.341704 0.01521 0.0223113
2440 2 0.418029 0.0630872 0.0159121
2441 4 0.436672 0.0565543 0.0312397
657 4 0.0315866 0.10906 0.00859923
738 4 0.0324924 0.123761 0.0217552
736 2 0.0275262 0.148264 0.0220795
2758 2 0.0773486 0.125953 0.0805101
2759 4 0.0815578 0.147481 0.0685107
655 2 0.0218697 0.0860966 0.00673902
2760 4 0.0731395 0.104425 0.0925096
737 4 0.02256 0.172768 0.0224038
705 4 0.0872395 0.16674 0.066124
356 4 0.247468 0.0891765 0.0272234
355 2 0.24684 0.1007 0.00504238
721 2 0.264492 0.0817346 0.0530045
723 4 0.287144 0.0868823 0.0622553
1607 4 0.476539 0.132553 0.0187765
747 4 0.445757 0.171994 0.0630408
745 2 0.452991 0.15395 0.0473164
746 4 0.460225 0.135906 0.031592
2974 2 0.495694 0.0918636 0.0604755
462 4 0.091405 0.226256 0.0858246
837 4 0.127858 0.165593 0.993242
703 2 0.0947511 0.190239 0.070193
704 4 0.102263 0.213738 0.074262
456 4 0.131015 0.233847 0.0419422
454 2 0.146504 0.240876 0.0602686
914 4 0.233729 0.202851 0.0726654
294 4 0.224053 0.241798 0.030975
581 4 0.222795 0.218782 0.0761936
292 2 0.220481 0.229728 0.0093709
913 2 0.225544 0.183344 0.0859943
297 4 0.306601 0.230258 0.0187618
295 2 0.287448 0.244005 0.0104356
360 4 0.324002 0.218684 0.0231753
358 2 0.338094 0.210463 0.00422778
475 2 0.0628771 0.316109 0.0643275
477 4 0.0746502 0.319842 0.0425873
455 4 0.161994 0.247905 0.0785949
1619 4 0.134555 0.295334 0.0223751
1618 2 0.121857 0.303059 0.00226859
483 4 0.154419 0.296925 0.0203189
287 4 0.165432 0.265917 0.070357
901 2 0.239756 0.286697 0.00370656
482 4 0.198729 0.294441 0.997273
903 4 0.21668 0.295902 0.00652375
481 2 0.176574 0.295683 0.00879584
902 4 0.262833 0.277493 0.00088937
296 4 0.268294 0.257753 0.00210949
104 3 0.293116 0.327716 0.0244308
518 4 0.408724 0.269408 0.0850144
528 4 0.411197 0.278204 0.0676941
526 2 0.414181 0.302714 0.0637524
527 4 0.417165 0.327223 0.0598106
2840 4 0.434523 0.329778 0.0498884
2839 2 0.457194 0.330861 0.039398
2807 4 0.0430558 0.348452 0.0354214
2806 2 0.0344825 0.342311 0.0127506
2513 4 0.0665544 0.403045 0.0203433
2512 2 0.0740925 0.383621 0.0341659
314 4 0.0137936 0.366763 0.067311
2771 4 0.999316 0.376291 0.0583207
329 4 0.0687321 0.413343 0.00379497
2514 4 0.0816306 0.364197 0.0479885
103 3 0.324103 0.344652 0.0103801
101 1 0.302251 0.347883 0.0174843
102 3 0.302287 0.362532 0.0352201
1121 4 0.301287 0.353281 0.053592
1120 2 0.319124 0.349352 0.0706675
2841 4 0.479864 0.331944 0.0289075
328 2 0.0811533 0.434228 0.00968661
1709 4 0.027622 0.501661 0.0598369
330 4 0.0935746 0.455112 0.0155782
552 4 0.0858225 0.474896 0.0197154
550 2 0.101448 0.492306 0.0108888
494 4 0.194398 0.425442 0.0802416
524 4 0.239461 0.464849 0.0660596
523 2 0.219485 0.449837 0.0651572
525 4 0.199509 0.434826 0.0642547
768 4 0.239195 0.481422 0.0767058
2444 4 0.19976 0.473887 0.0190418
741 4 0.382373 0.434434 0.0664696
13 3 0.385853 0.430757 0.0241236
11 1 0.381026 0.45076 0.0348459
15 3 0.366255 0.462862 0.0224356
12 3 0.400491 0.462771 0.0372935
596 4 0.402914 0.476838 0.0528116
14 3 0.372124 0.44654 0.0558542
739 2 0.370342 0.424321 0.0859159
2006 4 0.398329 0.431005 0.00758999
595 2 0.418895 0.49416 0.0611618
380 4 0.0120599 0.031729 0.135286
233 4 0.0184618 0.0487761 0.143008
232 2 0.0294648 0.0698769 0.15068
565 2 0.103196 0.020025 0.138917
567 4 0.110184 0.0437025 0.134951
450 4 0.122378 0.0549879 0.145908
448 2 0.133977 0.0714579 0.131097
691 2 0.311185 0.0730525 0.0972384
692 4 0.322901 0.0652304 0.117896
1661 4 0.348547 0.0111778 0.14232
1749 4 0.355873 0.0256611 0.15554
558 4 0.416982 0.00272234 0.0947363
1505 4 0.338017 0.0655071 0.132295
1504 2 0.360264 0.0768995 0.132968
23 3 0.498447 0.0901397 0.121082
234 4 0.0404678 0.0909778 0.158353
449 4 0.145576 0.087928 0.116285
235 2 0.194756 0.162958 0.138002
237 4 0.203654 0.167909 0.115166
236 4 0.185859 0.158007 0.160839
255 4 0.394161 0.101733 0.143041
1506 4 0.382512 0.0882918 0.133642
253 2 0.41842 0.0983042 0.138046
2976 4 0.484568 0.0852207 0.0818591
2894 4 0.492771 0.13431 0.116082
25 3 0.470857 0.0924115 0.0955628
254 4 0.442678 0.0948757 0.133051
21 1 0.477195 0.098316 0.116625
22 3 0.477555 0.121257 0.118278
24 3 0.462072 0.0899179 0.13209
2615 4 0.99139 0.221337 0.16584
460 2 0.0972978 0.242258 0.104111
623 4 0.103387 0.243159 0.136989
622 2 0.113267 0.244624 0.159911
461 4 0.103191 0.258259 0.122398
915 4 0.217359 0.163837 0.0993233
580 2 0.233935 0.238802 0.0862064
730 2 0.289765 0.231103 0.132037
731 4 0.289788 0.206819 0.137991
606 4 0.296691 0.187544 0.133732
604 2 0.300264 0.175857 0.155546
2875 2 0.461711 0.222248 0.116421
2877 4 0.470988 0.214037 0.0947024
2876 4 0.452434 0.230459 0.13814
378 4 0.461771 0.245131 0.14927
476 4 0.0511041 0.312376 0.0860677
396 4 0.022494 0.261781 0.140767
755 4 0.0556332 0.29183 0.0926668
756 4 0.0237472 0.278532 0.128821
754 2 0.0396902 0.285181 0.110744
394 2 0.0300096 0.265557 0.164314
252 4 0.163003 0.30168 0.120355
286 2 0.172007 0.281053 0.0891412
250 2 0.166868 0.300636 0.145036
288 4 0.178582 0.296189 0.107925
582 4 0.245076 0.258822 0.0962193
278 4 0.247522 0.277787 0.0942471
732 4 0.289742 0.255388 0.126083
279 4 0.287764 0.275078 0.123809
277 2 0.267643 0.276432 0.109028
517 2 0.398451 0.265178 0.107414
519 4 0.388178 0.260948 0.129814
309 4 0.393843 0.279549 0.136469
307 2 0.381742 0.287243 0.156951
308 4 0.36964 0.294937 0.177434
376 2 0.442555 0.254057 0.162546
313 2 0.00588312 0.369411 0.090882
315 4 0.997973 0.372059 0.114453
493 2 0.200938 0.412221 0.100431
495 4 0.207479 0.399001 0.120621
969 4 0.192185 0.389093 0.127824
967 2 0.202697 0.381437 0.149179
612 4 0.220117 0.357687 0.164141
1122 4 0.336962 0.345423 0.087743
1071 4 0.346926 0.335301 0.102496
1070 4 0.369747 0.371135 0.128874
1069 2 0.358337 0.353218 0.115685
740 4 0.35831 0.414209 0.105362
2652 4 0.385448 0.383045 0.130726
607 2 0.356265 0.411635 0.13966
609 4 0.366489 0.418513 0.161416
2650 2 0.402977 0.36994 0.142816
608 4 0.346041 0.404756 0.117903
2651 4 0.420506 0.356834 0.154906
2538 4 0.437765 0.345109 0.154689
414 4 0.00744263 0.440033 0.16469
397 2 0.0856841 0.00312414 0.222238
398 4 0.088206 0.0246372 0.209747
1477 2 0.111035 0.0417832 0.194975
1478 4 0.0899716 0.0450909 0.208036
1479 4 0.132098 0.0384755 0.181915
2849 4 0.113783 0.0594981 0.253919
1747 2 0.360173 0.0296161 0.179852
743 4 0.357054 0.0376337 0.222716
742 2 0.380506 0.0384328 0.231349
1748 4 0.364473 0.033571 0.204163
744 4 0.403958 0.0392319 0.239982
2469 4 0.416282 0.0640718 0.186312
432 4 0.420307 0.0482985 0.233465
2467 2 0.4405 0.0626439 0.192368
2468 4 0.464717 0.0612159 0.198423
771 4 0.469178 0.0713184 0.215217
2675 4 0.0387608 0.105998 0.169631
512 4 0.0383032 0.130398 0.229069
2674 2 0.0390111 0.120961 0.189661
2676 4 0.0392613 0.135925 0.209691
511 2 0.0379821 0.153205 0.239312
579 4 0.182631 0.166917 0.178386
27 3 0.257892 0.152874 0.196752
26 1 0.276385 0.16517 0.202751
28 3 0.295208 0.155574 0.193159
30 3 0.278363 0.16516 0.225439
516 4 0.268695 0.162245 0.242554
605 4 0.303837 0.16417 0.177359
769 2 0.481599 0.0913448 0.223574
770 4 0.49402 0.111371 0.231931
759 4 0.440079 0.151614 0.216138
2703 4 0.493079 0.132024 0.232386
577 2 0.162813 0.182048 0.180256
578 4 0.142996 0.197179 0.182126
507 4 0.125644 0.202026 0.189706
506 4 0.0985103 0.212937 0.230269
530 4 0.10763 0.227259 0.242139
505 2 0.112077 0.207482 0.209987
283 2 0.153092 0.244833 0.202519
284 4 0.133381 0.258019 0.194596
624 4 0.123147 0.246089 0.182833
285 4 0.172803 0.231646 0.210443
545 4 0.191198 0.226028 0.202618
544 2 0.206792 0.242768 0.212706
29 3 0.273769 0.186898 0.195041
757 2 0.435294 0.176119 0.214813
758 4 0.430509 0.200625 0.213489
395 4 0.0375253 0.269333 0.18786
298 2 0.0327692 0.305171 0.202777
299 4 0.0427817 0.282263 0.202413
2694 4 0.0685738 0.317239 0.251834
300 4 0.0227568 0.32808 0.203141
2093 4 0.0694575 0.332422 0.218007
2092 2 0.0869332 0.334094 0.200203
251 4 0.170732 0.299592 0.169717
546 4 0.222386 0.259509 0.222794
350 4 0.211495 0.2561 0.239726
611 4 0.246718 0.323284 0.18883
343 2 0.274158 0.302543 0.208861
345 4 0.261616 0.308581 0.188091
344 4 0.2867 0.296504 0.229631
645 4 0.282253 0.311254 0.243226
498 4 0.349958 0.298588 0.175041
628 2 0.408145 0.25135 0.210334
630 4 0.406514 0.24918 0.23519
496 2 0.344549 0.309051 0.197096
497 4 0.339139 0.319514 0.219152
275 4 0.343861 0.317414 0.238356
629 4 0.409776 0.253521 0.185478
377 4 0.423339 0.262983 0.175822
537 4 0.0144728 0.344875 0.195399
535 2 0.0217456 0.367707 0.20254
536 4 0.0290184 0.390538 0.209681
413 4 0.0248277 0.405033 0.195891
2094 4 0.104409 0.335767 0.182399
362 4 0.107845 0.34855 0.167271
361 2 0.130957 0.358079 0.167765
363 4 0.154068 0.367608 0.168259
416 4 0.168779 0.37075 0.229632
968 4 0.213209 0.373781 0.170535
610 2 0.233418 0.340486 0.176485
417 4 0.165179 0.379868 0.180595
415 2 0.166979 0.375309 0.205113
735 4 0.187208 0.373394 0.236956
274 2 0.345438 0.3401 0.24875
2537 4 0.450477 0.363531 0.199407
2536 2 0.444121 0.35432 0.177048
714 4 0.439306 0.360701 0.215111
108 3 0.488789 0.373835 0.245775
712 2 0.439741 0.364739 0.239782
110 3 0.497945 0.408749 0.235062
107 3 0.481934 0.385452 0.210694
106 1 0.49659 0.387028 0.228354
412 2 0.0161351 0.422533 0.18029
681 4 0.989701 0.461106 0.234407
679 2 0.989805 0.485017 0.227096
1774 2 0.0620656 0.47605 0.216189
1775 4 0.0530489 0.473078 0.193058
1776 4 0.0710824 0.479023 0.23932
727 2 0.155604 0.432665 0.241419
729 4 0.167056 0.452035 0.230518
289 2 0.229389 0.461128 0.181149
290 4 0.236627 0.441745 0.195188
339 4 0.184046 0.450455 0.240827
337 2 0.198364 0.470939 0.240054
291 4 0.222151 0.480511 0.167111
338 4 0.212682 0.491422 0.239282
1744 2 0.30597 0.497668 0.172812
437 4 0.300425 0.489136 0.213346
385 2 0.331375 0.434594 0.249222
1746 4 0.296092 0.489846 0.194409
246 4 0.378395 0.429213 0.173412
387 4 0.343025 0.42769 0.228204
244 2 0.367469 0.42426 0.19535
245 4 0.356543 0.419308 0.217288
2850 4 0.148487 0.0438347 0.286338
1272 4 0.111439 0.0786491 0.257472
2848 2 0.131135 0.0516664 0.270129
429 4 0.160994 0.0282907 0.281305
427 2 0.179858 0.0163966 0.269998
403 2 0.238587 0.0623041 0.29862
428 4 0.198722 0.00450253 0.25869
404 4 0.22191 0.0800351 0.304337
392 4 0.211016 0.0715244 0.319674
405 4 0.255263 0.0445732 0.292903
248 4 0.27117 0.0343289 0.286181
247 2 0.282809 0.0138325 0.294525
430 2 0.434754 0.0416538 0.25276
1497 4 0.484499 0.0371912 0.324434
431 4 0.449201 0.0350091 0.272056
1496 4 0.453536 0.0466534 0.286323
1495 2 0.469018 0.0419223 0.305378
471 4 0.0698483 0.168552 0.331997
1271 4 0.0970313 0.120937 0.27994
1270 2 0.104235 0.0997932 0.268706
1220 4 0.090766 0.13949 0.283646
1219 2 0.108203 0.156968 0.279691
391 2 0.199331 0.092964 0.325056
514 2 0.270912 0.158555 0.267184
2908 2 0.282628 0.16307 0.33176
515 4 0.27313 0.154866 0.291814
520 2 0.467415 0.138592 0.288709
521 4 0.46012 0.162341 0.291522
522 4 0.47471 0.114842 0.285897
699 4 0.493871 0.117039 0.282594
513 4 0.0376609 0.176011 0.249556
2484 4 0.0327899 0.170834 0.268171
2831 4 0.00862252 0.205744 0.308646
2482 2 0.0159137 0.183969 0.281126
459 4 0.0791416 0.216128 0.292967
458 4 0.0852396 0.182452 0.329429
457 2 0.0821906 0.19929 0.311198
531 4 0.0765959 0.208009 0.276301
1221 4 0.12564 0.174446 0.275735
529 2 0.092113 0.217634 0.25922
706 2 0.242074 0.200739 0.32832
707 4 0.217339 0.203449 0.325871
388 2 0.187984 0.232195 0.328235
389 4 0.16694 0.244692 0.323123
2910 4 0.271226 0.165252 0.309615
331 2 0.39357 0.233336 0.263486
333 4 0.397417 0.216472 0.281541
632 4 0.407199 0.198916 0.277808
633 4 0.443873 0.171036 0.297261
631 2 0.425536 0.184976 0.287534
616 2 0.133983 0.325439 0.30587
749 4 0.120178 0.289709 0.326324
618 4 0.1269 0.307262 0.32151
748 2 0.135886 0.271241 0.320213
750 4 0.151595 0.252772 0.314102
349 2 0.214986 0.261219 0.26395
764 4 0.233601 0.26266 0.300514
351 4 0.218476 0.266338 0.288174
643 2 0.296157 0.319098 0.26247
763 2 0.254649 0.272887 0.309321
644 4 0.310061 0.326943 0.281713
435 4 0.316811 0.33648 0.299072
510 4 0.286355 0.281037 0.334981
765 4 0.275697 0.283115 0.318128
332 4 0.389724 0.2502 0.245431
2692 2 0.059747 0.337567 0.26341
2693 4 0.0509202 0.357896 0.274986
728 4 0.144153 0.413294 0.25232
617 4 0.141065 0.343616 0.290229
2654 4 0.143198 0.36358 0.286381
2653 2 0.148714 0.386187 0.277235
2655 4 0.15423 0.408794 0.268088
364 2 0.210032 0.368704 0.321636
733 2 0.200516 0.37026 0.25789
365 4 0.207891 0.362643 0.297473
734 4 0.213824 0.367125 0.278824
433 2 0.297034 0.347627 0.309551
434 4 0.277258 0.358774 0.320029
375 4 0.270147 0.363084 0.33877
276 4 0.347016 0.362786 0.259144
614 4 0.341886 0.370373 0.276804
613 2 0.352194 0.380807 0.297054
615 4 0.362501 0.391242 0.317304
713 4 0.440176 0.368777 0.264454
2862 4 0.426946 0.382607 0.271934
2860 2 0.425527 0.407013 0.27718
3670 2 0.175625 0.499583 0.307661
1385 4 0.0712305 0.4842 0.258627
3671 4 0.153963 0.488655 0.313706
1383 4 0.134168 0.484237 0.310942
1381 2 0.114946 0.498253 0.31864
1574 4 0.290057 0.426944 0.326573
1573 2 0.296859 0.433913 0.303544
386 4 0.319724 0.441499 0.27024
1575 4 0.303661 0.440881 0.280515
2861 4 0.424107 0.431418 0.282426
1473 4 0.439931 0.441263 0.290369
1472 4 0.449795 0.468156 0.331359
1471 2 0.444863 0.454709 0.310864
3602 4 0.471358 0.508102 0.322536
3601 2 0.493265 0.498942 0.314702
1868 4 0.0625835 0.002089 0.332442
2642 4 0.302707 0.0405893 0.385005
480 4 0.29981 0.0586276 0.380592
2641 2 0.303769 0.0190148 0.397598
478 2 0.286475 0.0755286 0.393309
2879 4 0.404983 0.0754679 0.399289
2878 2 0.413381 0.0522335 0.39544
762 4 0.387483 0.0854104 0.400677
1517 4 0.410915 0.012606 0.395769
2880 4 0.421779 0.0289992 0.391591
469 2 0.0560014 0.147942 0.329053
470 4 0.0421545 0.127332 0.326108
2717 4 0.0238205 0.133877 0.327132
393 4 0.187645 0.114404 0.330439
2909 4 0.29403 0.160888 0.353906
2657 4 0.304397 0.143423 0.35569
2656 2 0.323078 0.143197 0.372308
479 4 0.27314 0.0924295 0.406025
761 4 0.354997 0.107159 0.369493
760 2 0.37124 0.0962845 0.385085
2658 4 0.34176 0.142971 0.388925
1031 4 0.335087 0.14352 0.407982
312 4 0.490995 0.150645 0.386211
419 4 0.485291 0.164605 0.373711
2613 4 0.0704531 0.242368 0.337512
341 4 0.0880009 0.236278 0.34303
342 4 0.120951 0.227888 0.3797
340 2 0.104476 0.232083 0.361365
824 4 0.138088 0.218712 0.387364
823 2 0.155932 0.220288 0.404807
390 4 0.209029 0.219698 0.333347
708 4 0.266809 0.198029 0.330768
509 4 0.315067 0.242794 0.349601
717 4 0.331692 0.248416 0.358096
716 4 0.337679 0.237268 0.406476
715 2 0.334686 0.242842 0.382286
488 4 0.355527 0.230121 0.40962
487 2 0.377758 0.219786 0.414535
418 2 0.49737 0.174163 0.354016
2611 2 0.058686 0.26014 0.350584
2612 4 0.0469189 0.277913 0.363655
2847 4 0.0291127 0.277356 0.371737
2845 2 0.0322144 0.275443 0.396474
669 4 0.193064 0.291445 0.417391
603 4 0.224912 0.329106 0.420573
508 2 0.300711 0.261916 0.342291
1640 4 0.0744129 0.400691 0.381032
444 4 0.0772006 0.381348 0.375388
442 2 0.0898762 0.37035 0.393923
443 4 0.102552 0.359352 0.412459
366 4 0.212173 0.374765 0.345799
602 4 0.228885 0.370397 0.392646
601 2 0.226899 0.349751 0.406609
374 4 0.242807 0.376833 0.378321
373 2 0.256477 0.369959 0.358545
2924 4 0.360668 0.373911 0.329159
2925 4 0.393416 0.361325 0.364794
2923 2 0.377042 0.367618 0.346977
117 3 0.399309 0.350011 0.381836
585 4 0.41812 0.393033 0.407128
120 3 0.428558 0.336961 0.400995
118 3 0.434125 0.35611 0.369058
116 1 0.421041 0.354178 0.388123
119 3 0.421688 0.373972 0.400213
1639 2 0.0826155 0.42431 0.380796
1641 4 0.0908181 0.447928 0.380561
2139 4 0.0889197 0.465539 0.370788
2137 2 0.0888918 0.478774 0.392001
2138 4 0.088864 0.49201 0.413214
2109 4 0.313481 0.47556 0.39177
2107 2 0.299356 0.4914 0.404989
752 4 0.314044 0.482869 0.373218
543 4 0.49172 0.464394 0.344236
541 2 0.499507 0.45329 0.365242
725 4 0.228042 0.068323 0.497635
599 4 0.332355 0.0231911 0.462446
3159 4 0.315073 0.0337957 0.460925
3157 2 0.316852 0.0569318 0.470238
842 4 0.45814 0.0355486 0.489814
841 2 0.443875 0.0152302 0.492787
1062 4 0.492813 0.0655343 0.45704
1060 2 0.484824 0.0515592 0.476173
1061 4 0.476835 0.0375841 0.495305
2516 4 0.499424 0.0786923 0.44184
983 4 0.0151162 0.117024 0.486649
1033 2 0.0581565 0.127451 0.484325
1035 4 0.0350492 0.120399 0.490768
1034 4 0.0812638 0.134502 0.477882
938 4 0.0881286 0.12739 0.460855
939 4 0.0957942 0.142715 0.413875
937 2 0.0919614 0.135053 0.437365
474 4 0.217268 0.141561 0.4253
472 2 0.205752 0.134517 0.446346
473 4 0.194235 0.127473 0.467392
650 4 0.247752 0.104133 0.467592
3158 4 0.318632 0.080068 0.479551
651 4 0.260131 0.0919715 0.420692
649 2 0.253941 0.0980523 0.444142
402 4 0.256182 0.148177 0.467493
2500 2 0.31408 0.120069 0.487685
858 4 0.285663 0.146326 0.49493
2502 4 0.310804 0.0984426 0.475572
320 4 0.324105 0.159516 0.493437
1032 4 0.333176 0.164857 0.453168
400 2 0.257144 0.164719 0.448769
1030 2 0.334131 0.154188 0.430575
2515 2 0.485774 0.0991235 0.446468
2517 4 0.472124 0.119555 0.451097
367 2 0.160704 0.229479 0.459407
368 4 0.155715 0.243509 0.479493
9 3 0.159513 0.235445 0.496977
369 4 0.165692 0.215449 0.439321
825 4 0.173777 0.221864 0.422251
372 4 0.24912 0.238526 0.45293
370 2 0.255485 0.219781 0.437655
371 4 0.261849 0.201037 0.422381
401 4 0.258107 0.181262 0.430045
319 2 0.3259 0.183655 0.487171
640 2 0.315419 0.239349 0.498117
642 4 0.319311 0.214669 0.497162
489 4 0.399989 0.209452 0.419449
267 4 0.417244 0.212966 0.426885
321 4 0.327696 0.207794 0.480905
266 4 0.463926 0.221439 0.442686
453 4 0.477983 0.219293 0.428777
451 2 0.491018 0.227311 0.44855
265 2 0.440585 0.217202 0.434785
452 4 0.504052 0.235329 0.468323
879 4 0.00683336 0.313045 0.49448
2846 4 0.0353161 0.273529 0.42121
260 4 0.052649 0.282859 0.420376
259 2 0.0700022 0.281986 0.438356
383 4 0.00771625 0.311992 0.43626
3045 4 0.0253371 0.323206 0.498054
261 4 0.0873553 0.281113 0.456336
695 4 0.106298 0.281391 0.459126
694 2 0.126966 0.272282 0.46985
696 4 0.147635 0.263173 0.480575
10 3 0.158787 0.272995 0.494315
667 2 0.188089 0.312243 0.430347
873 4 0.242147 0.318524 0.417493
1191 4 0.240738 0.251925 0.466839
1189 2 0.243831 0.271664 0.481873
1190 4 0.246925 0.291402 0.496906
668 4 0.183114 0.333041 0.443304
1394 4 0.245307 0.308041 0.50892
871 2 0.264213 0.311022 0.426549
872 4 0.286279 0.303521 0.435605
813 4 0.302282 0.294225 0.444381
811 2 0.307313 0.288191 0.468119
812 4 0.312343 0.282156 0.491856
641 4 0.311527 0.264029 0.499071
382 2 0.00272274 0.33372 0.447579
384 4 0.997729 0.355448 0.458898
935 4 0.00319519 0.373497 0.454071
934 2 0.0142361 0.390625 0.468559
936 4 0.025277 0.407753 0.483047
1040 4 0.0329409 0.415134 0.500921
634 2 0.163252 0.354273 0.463475
636 4 0.155419 0.36062 0.486355
635 4 0.171086 0.347925 0.440594
238 2 0.456894 0.417938 0.484249
240 4 0.432321 0.413419 0.483304
583 2 0.435468 0.402776 0.422271
584 4 0.452816 0.41252 0.437413
239 4 0.481468 0.422457 0.485193
548 4 0.0446285 0.484026 0.424805
547 2 0.0275125 0.475343 0.440832
549 4 0.0103965 0.466661 0.456858
408 4 0.00749344 0.452144 0.471153
569 4 0.0894064 0.481072 0.428911
709 2 0.216641 0.490247 0.457343
711 4 0.23695 0.484454 0.470727
710 4 0.196331 0.49604 0.443959
325 2 0.261801 0.473552 0.493813
326 4 0.256557 0.485509 0.472489
1151 4 0.199437 0.0188145 0.547516
1182 4 0.20979 0.0352717 0.548912
1181 4 0.226589 0.0493269 0.503957
1180 2 0.218189 0.0422993 0.526434
574 2 0.390582 0.0730049 0.5478
575 4 0.395831 0.0635255 0.525266
576 4 0.385334 0.0824843 0.570334
89 3 0.491908 0.0300813 0.533506
86 1 0.489027 0.0139911 0.549974
90 3 0.466887 0.00923828 0.552405
2196 4 0.451556 0.0103079 0.566327
88 3 0.497747 0.0215926 0.570088
843 4 0.429609 0.994912 0.495761
982 2 0.00747729 0.109535 0.509248
726 4 0.239149 0.116882 0.502034
724 2 0.233595 0.0926026 0.499835
1130 4 0.264209 0.109154 0.561377
857 4 0.247143 0.12522 0.518835
856 2 0.266403 0.135773 0.506882
2501 4 0.317356 0.141696 0.499799
1142 4 0.382385 0.0696738 0.586461
3462 4 0.0436188 0.237238 0.562289
347 4 0.239608 0.229222 0.532496
346 2 0.216382 0.234073 0.52461
348 4 0.193155 0.238924 0.516725
900 4 0.321201 0.223738 0.548799
898 2 0.329508 0.227145 0.572134
269 4 0.440777 0.24869 0.548982
270 4 0.481643 0.223572 0.563115
268 2 0.46121 0.236131 0.556048
3309 4 0.499442 0.229751 0.570423
3460 2 0.0411286 0.261276 0.555874
3043 2 0.0358578 0.309571 0.516181
3044 4 0.0463785 0.295937 0.534308
3461 4 0.0386384 0.285314 0.549459
7 3 0.148861 0.256455 0.526265
6 1 0.163054 0.255448 0.50819
8 3 0.184955 0.256503 0.515783
410 4 0.194186 0.295703 0.55631
409 2 0.210388 0.286125 0.57277
1085 4 0.241712 0.260881 0.585104
774 4 0.232232 0.370559 0.514371
1395 4 0.248148 0.357509 0.515668
773 4 0.19435 0.397583 0.496058
772 2 0.213291 0.384071 0.505215
1393 2 0.246727 0.332775 0.512294
1136 4 0.0468057 0.473965 0.530953
1041 4 0.0488613 0.455718 0.525419
1039 2 0.0409011 0.435426 0.51317
1135 2 0.070898 0.477289 0.536758
1137 4 0.0949903 0.480613 0.542562
540 4 0.108037 0.466924 0.532946
538 2 0.127395 0.482173 0.537178
1454 4 0.276214 0.487436 0.546613
1173 4 0.268223 0.448669 0.530231
1171 2 0.288421 0.449272 0.544958
1172 4 0.308618 0.449876 0.559684
1028 4 0.309793 0.4317 0.568594
327 4 0.267045 0.461595 0.515136
3132 4 0.00594236 0.00538402 0.635229
719 4 0.00167685 0.0241853 0.637027
3179 4 0.0228763 0.0832119 0.594046
718 2 0.00288526 0.0293967 0.612602
2314 2 0.23925 0.0362741 0.654439
2315 4 0.214837 0.032326 0.650751
2316 4 0.263663 0.0402222 0.658127
1005 4 0.323118 0.998057 0.609278
966 4 0.319396 0.0174726 0.618126
964 2 0.331878 0.0173287 0.639791
887 4 0.395754 0.0700667 0.648835
1141 2 0.38395 0.0759245 0.61062
1143 4 0.385516 0.0821753 0.634779
965 4 0.344361 0.0171848 0.661455
3178 2 0.00490838 0.0958423 0.605996
918 4 0.156396 0.141365 0.624309
1212 4 0.170371 0.155146 0.627462
2255 4 0.252674 0.0883049 0.660614
916 2 0.17305 0.124116 0.617217
945 4 0.237437 0.0904042 0.647477
917 4 0.189703 0.106866 0.610125
944 4 0.206205 0.0944333 0.60863
943 2 0.221821 0.0924187 0.628053
1283 4 0.220914 0.126426 0.65297
1155 4 0.234273 0.135304 0.641528
1153 2 0.24416 0.147555 0.622103
1154 4 0.254047 0.159807 0.602678
1282 2 0.201283 0.130339 0.667953
1129 2 0.27139 0.0972106 0.582136
1131 4 0.278572 0.085267 0.602896
2318 4 0.288457 0.0987698 0.613825
2317 2 0.296569 0.114167 0.631777
2319 4 0.304681 0.129563 0.64973
950 4 0.285788 0.135518 0.65718
949 2 0.283083 0.160107 0.660818
3438 4 0.49961 0.107788 0.61685
906 4 0.489054 0.139243 0.671776
1210 2 0.175729 0.1795 0.629295
1211 4 0.181087 0.203854 0.631129
1259 4 0.199621 0.213409 0.634688
978 4 0.237526 0.200856 0.619948
1086 4 0.243638 0.217385 0.609703
976 2 0.252029 0.199871 0.640291
1084 2 0.242675 0.239133 0.597403
1258 2 0.19313 0.233079 0.648692
977 4 0.266533 0.198886 0.660635
899 4 0.337816 0.230551 0.59547
411 4 0.226591 0.276548 0.58923
1260 4 0.186639 0.25275 0.662697
897 4 0.187967 0.270655 0.656252
895 2 0.180959 0.294609 0.657756
896 4 0.173951 0.318563 0.65926
792 4 0.429072 0.275593 0.603432
807 4 0.458699 0.331975 0.608255
791 4 0.460284 0.31455 0.60046
790 2 0.444678 0.295072 0.601946
1280 4 0.0663065 0.404792 0.654255
891 4 0.260966 0.388108 0.624842
889 2 0.275826 0.40064 0.640567
890 4 0.290686 0.413172 0.656293
802 2 0.401282 0.40197 0.60756
803 4 0.4129 0.381962 0.59808
806 4 0.431712 0.373489 0.601253
805 2 0.445206 0.352732 0.604754
3464 4 0.47288 0.407691 0.65476
1027 2 0.314622 0.438889 0.59205
1029 4 0.31945 0.446077 0.615507
1239 4 0.337015 0.452643 0.62096
804 4 0.389665 0.421978 0.617041
1238 4 0.383292 0.435382 0.628781
1237 2 0.360154 0.444012 0.624871
3370 2 0.427859 0.502662 0.633123
1007 4 0.438305 0.466269 0.649218
1006 2 0.448498 0.443871 0.653643
3372 4 0.442317 0.483187 0.639195
3589 2 0.162508 0.00739853 0.720697
3591 4 0.15272 0.000383522 0.742609
3590 4 0.172296 0.0144135 0.698784
2254 2 0.254712 0.0816286 0.684624
2256 4 0.256749 0.0749524 0.708633
960 4 0.247749 0.0610309 0.720189
958 2 0.269619 0.0498411 0.724844
1255 2 0.316253 0.0325424 0.694057
1256 4 0.300965 0.0415207 0.711689
959 4 0.291489 0.0386513 0.729498
886 2 0.393819 0.0653468 0.673313
1257 4 0.33154 0.0235642 0.676426
952 2 0.382854 0.0574708 0.738223
888 4 0.391884 0.060627 0.697791
953 4 0.395531 0.0581818 0.716683
1178 4 0.0737019 0.135687 0.736451
1177 2 0.0551365 0.152289 0.738663
852 4 0.0740181 0.133869 0.715806
850 2 0.0981283 0.134073 0.709185
947 4 0.135229 0.128541 0.715398
946 2 0.159234 0.131641 0.709127
851 4 0.122239 0.134276 0.702564
1284 4 0.181653 0.134253 0.682937
948 4 0.183239 0.134741 0.702855
1011 4 0.482662 0.123427 0.681913
1009 2 0.480562 0.112929 0.704509
1193 4 0.480811 0.117047 0.740487
1010 4 0.478462 0.102431 0.727104
1179 4 0.036571 0.168891 0.740875
923 4 0.0249154 0.183705 0.748607
1299 4 0.20729 0.212596 0.737334
1297 2 0.227593 0.210382 0.751759
951 4 0.280378 0.184696 0.664456
151 1 0.0259332 0.293584 0.723271
154 3 0.0484553 0.299166 0.723366
155 3 0.0145686 0.306892 0.737845
152 3 0.0175854 0.296713 0.702066
1067 4 0.0646131 0.30832 0.716252
153 3 0.0232696 0.271301 0.729169
780 4 0.0124872 0.262947 0.744929
1066 2 0.0865607 0.318773 0.710402
991 2 0.142538 0.327844 0.679994
1068 4 0.108508 0.329225 0.704551
992 4 0.157734 0.330507 0.660317
798 4 0.312324 0.33394 0.736848
1044 4 0.306723 0.314474 0.741945
1165 2 0.457092 0.301102 0.739644
1167 4 0.471333 0.321446 0.742563
1166 4 0.442852 0.280758 0.736725
866 4 0.433214 0.26596 0.747751
1279 2 0.0461347 0.400969 0.668527
3418 2 0.0024802 0.370587 0.688294
3420 4 0.0251014 0.380547 0.69207
1281 4 0.0259629 0.397146 0.682798
884 4 0.0625152 0.367607 0.740132
815 4 0.0607562 0.387179 0.74262
993 4 0.127342 0.325181 0.699671
1278 4 0.228926 0.372812 0.698048
1097 4 0.23382 0.391525 0.699305
1276 2 0.240798 0.358018 0.714338
1096 2 0.222566 0.413564 0.695728
796 2 0.290295 0.341211 0.727518
1277 4 0.25267 0.343224 0.730628
797 4 0.268267 0.348481 0.718187
1139 4 0.291462 0.406978 0.725276
1204 2 0.292163 0.42071 0.689826
1205 4 0.303216 0.423821 0.667615
1138 2 0.307015 0.403194 0.744484
3463 2 0.470286 0.3884 0.670455
999 4 0.473486 0.375185 0.703847
3465 4 0.467691 0.36911 0.686149
997 2 0.474552 0.357829 0.721815
998 4 0.475617 0.340474 0.739782
942 4 0.178416 0.485295 0.693823
941 4 0.212582 0.451204 0.680738
1098 4 0.211311 0.435603 0.692151
940 2 0.195499 0.468249 0.68728
1206 4 0.28111 0.4176 0.712038
1008 4 0.458691 0.421472 0.658067
1251 4 0.436043 0.465381 0.745655
187 3 0.418673 0.460804 0.753832
1213 2 0.0474088 0.0607687 0.815512
1215 4 0.0672645 0.0664735 0.801428
863 4 0.0841785 0.0683527 0.794628
2990 4 0.142527 0.014251 0.751758
2991 4 0.125999 0.0305832 0.796039
2989 2 0.134263 0.0224171 0.773898
908 4 0.13297 0.0788527 0.763633
954 4 0.370177 0.0567598 0.759762
1026 4 0.359587 0.0406406 0.767025
1024 2 0.353225 0.0167098 0.763557
2321 4 0.453626 0.0228647 0.829744
862 2 0.0993548 0.0782746 0.777411
864 4 0.114531 0.0881966 0.760195
907 2 0.1556 0.0835085 0.773192
909 4 0.17823 0.0881643 0.782752
868 2 0.188167 0.14016 0.830739
870 4 0.192004 0.11546 0.831324
911 4 0.178317 0.101476 0.828398
1021 2 0.246374 0.162809 0.824233
869 4 0.18433 0.164861 0.830154
1022 4 0.257698 0.145496 0.81019
1192 2 0.474259 0.128095 0.761939
3424 2 0.486369 0.132146 0.820777
1194 4 0.467708 0.139143 0.783391
3425 4 0.471773 0.141844 0.802942
922 2 0.0239084 0.197815 0.769224
924 4 0.0229014 0.211925 0.789841
838 2 0.241199 0.219673 0.805156
839 4 0.246896 0.227125 0.828334
1023 4 0.23505 0.180122 0.838276
840 4 0.235502 0.212222 0.781979
1298 4 0.247896 0.208169 0.766183
1090 2 0.296245 0.189247 0.808272
3329 4 0.318813 0.216209 0.78995
3328 2 0.310861 0.238884 0.783039
1092 4 0.308634 0.20024 0.789541
1091 4 0.283856 0.178254 0.827003
1209 4 0.146623 0.259062 0.817583
1207 2 0.163707 0.276222 0.823815
1063 2 0.21223 0.316079 0.823672
1064 4 0.18842 0.309353 0.820063
1065 4 0.236039 0.322805 0.827281
1042 2 0.310213 0.296919 0.759405
3330 4 0.302908 0.26156 0.776129
1043 4 0.313703 0.279365 0.776864
1241 4 0.251182 0.322924 0.838986
1051 2 0.404642 0.262055 0.822981
1052 4 0.382739 0.252762 0.830669
1053 4 0.426544 0.271347 0.815293
867 4 0.432785 0.262779 0.797655
865 2 0.432999 0.26437 0.772703
1170 4 0.992352 0.393531 0.834027
814 2 0.0677266 0.410849 0.746656
885 4 0.0473786 0.352852 0.785452
883 2 0.0549469 0.36023 0.762792
1140 4 0.322568 0.39941 0.763693
1017 4 0.323297 0.383319 0.775822
1015 2 0.34592 0.377771 0.78491
1019 4 0.38403 0.372774 0.807175
1016 4 0.368543 0.372222 0.793998
1018 2 0.400908 0.365781 0.790105
1020 4 0.417786 0.358787 0.773034
816 4 0.074697 0.43452 0.750691
2287 2 0.307633 0.4994 0.768707
83 3 0.270394 0.436925 0.768309
1236 4 0.272202 0.461088 0.81893
2289 4 0.306383 0.47467 0.765235
82 3 0.278363 0.455684 0.799889
81 1 0.285632 0.451116 0.778547
85 3 0.306077 0.441135 0.779562
2214 4 0.315194 0.458758 0.77395
84 3 0.287115 0.471017 0.766708
1234 2 0.255931 0.449977 0.834324
189 3 0.400021 0.428997 0.746551
2212 2 0.339761 0.454239 0.772851
2213 4 0.364329 0.44972 0.771751
188 3 0.383487 0.456844 0.766439
186 1 0.403432 0.445759 0.762228
190 3 0.411572 0.436811 0.781524
1987 2 0.416662 0.457608 0.819059
1989 4 0.415039 0.470055 0.840683
1988 4 0.418285 0.445161 0.797434
1250 4 0.481796 0.471004 0.76504
1249 2 0.45892 0.468192 0.755348
3010 2 0.499117 0.445155 0.793008
3011 4 0.485035 0.453381 0.774055
1296 4 0.0176353 0.0488552 0.846268
1214 4 0.0275531 0.0550638 0.829597
1294 2 0.00372207 0.0304568 0.836619
830 4 0.135605 0.0252937 0.878089