ITEM: TIMESTEP
3000000
ITEM: NUMBER OF ATOMS
4590
ITEM: BOX BOUNDS pp pp pp
-9.9985700000000008e+00 9.9985700000000008e+00
-9.9985700000000008e+00 9.9985700000000008e+00
-9.9985700000000008e+00 9.9985700000000008e+00
ITEM: ATOMS id type xs ys zs
3232 2 0.0491639 0.0234361 0.0551909
3234 4 0.0582814 0.0419431 0.0693167
702 4 0.0601114 0.0618117 0.0685628
2625 4 0.00354606 0.0762169 0.0639842
3233 4 0.0400464 0.00492904 0.041065
700 2 0.0821455 0.0718162 0.0748546
464 4 0.0886609 0.0696432 0.00688682
701 4 0.10418 0.0818208 0.0811465
463 2 0.104658 0.0846967 0.0188311
558 4 0.403169 0.0417791 0.0845873
556 2 0.417943 0.0287122 0.0692196
557 4 0.432717 0.0156453 0.0538519
745 2 0.45032 0.0708327 0.0417026
747 4 0.469619 0.0682398 0.0573865
746 4 0.43102 0.0734255 0.0260188
2976 4 0.48131 0.0529519 0.0543297
1607 4 0.439583 0.0664009 0.008705
2623 2 0.025586 0.0829873 0.0543103
655 2 0.0569827 0.132944 0.0359539
656 4 0.0466571 0.110395 0.0391326
2624 4 0.0476259 0.0897577 0.0446365
657 4 0.0673083 0.155492 0.0327752
554 4 0.14041 0.0997577 0.0358797
465 4 0.120655 0.0997501 0.0307754
553 2 0.144199 0.12158 0.0242766
555 4 0.147988 0.143401 0.0126735
355 2 0.215803 0.147359 0.0661904
357 4 0.219751 0.144413 0.0416769
573 4 0.235881 0.156192 0.04271
360 4 0.284193 0.161481 0.996512
571 2 0.251455 0.161509 0.0238853
738 4 0.0572138 0.172249 0.0359398
736 2 0.0749945 0.184368 0.0232055
294 4 0.151039 0.233853 0.0211473
737 4 0.0927752 0.196487 0.0104712
292 2 0.15477 0.226392 0.997576
462 4 0.120309 0.19229 0.0815782
572 4 0.267029 0.166825 0.00506051
477 4 0.0618165 0.277496 0.0639574
2806 2 0.0623583 0.28221 0.0261505
2807 4 0.0713148 0.2858 0.0492171
475 2 0.0793574 0.268973 0.0796049
456 4 0.150593 0.252482 0.0304713
454 2 0.161823 0.271278 0.0425454
455 4 0.173052 0.290074 0.0546195
287 4 0.18195 0.300103 0.0697424
482 4 0.196252 0.31494 0.0247947
903 4 0.236886 0.284736 0.0359863
481 2 0.196569 0.302553 0.00307767
901 2 0.259816 0.276264 0.0307315
902 4 0.282747 0.267793 0.0254768
296 4 0.28298 0.261362 0.00726725
526 2 0.404444 0.277464 0.0539694
528 4 0.386962 0.263059 0.0645555
1071 4 0.3777 0.310577 0.0741887
518 4 0.380034 0.257101 0.0825052
527 4 0.421926 0.291868 0.0433834
1122 4 0.370149 0.321571 0.0597861
1121 4 0.344771 0.33377 0.0184602
1120 2 0.35746 0.32767 0.0391231
2840 4 0.424009 0.303551 0.0257298
2839 2 0.442073 0.316443 0.0372489
2841 4 0.460136 0.329334 0.0487681
2513 4 0.0466767 0.384163 0.0429791
329 4 0.0546924 0.397495 0.0536819
328 2 0.0733182 0.406678 0.039756
2512 2 0.0416992 0.364986 0.0582317
2514 4 0.0367218 0.345809 0.0734842
330 4 0.0919439 0.415861 0.02583
493 2 0.216994 0.410128 0.0593691
494 4 0.20066 0.408485 0.078228
495 4 0.233329 0.411771 0.0405102
969 4 0.319438 0.369179 0.0786687
741 4 0.360197 0.407563 0.0743349
14 3 0.337806 0.423154 0.0231015
12 3 0.361277 0.416757 0.0517522
102 3 0.348554 0.326814 0.999542
672 4 0.460547 0.348505 0.0554274
670 2 0.478115 0.362276 0.0441626
322 2 0.492899 0.407995 0.00711651
671 4 0.495683 0.376047 0.0328978
1710 4 0.074091 0.483221 0.059474
2985 4 0.0567964 0.485272 0.0478232
2983 2 0.0467191 0.493253 0.026377
552 4 0.0862656 0.419281 0.00703064
242 4 0.249339 0.419092 0.0274204
241 2 0.246825 0.443692 0.0237163
243 4 0.24431 0.468291 0.0200122
2444 4 0.231784 0.476282 0.00740956
11 1 0.353888 0.43266 0.036864
13 3 0.371874 0.439968 0.0241549
596 4 0.377257 0.413247 0.068793
15 3 0.34491 0.45013 0.0483903
595 2 0.397096 0.427572 0.0739331
2803 2 0.489947 0.468976 0.010335
2805 4 0.490759 0.493846 0.00787942
324 4 0.488786 0.430891 0.997949
2804 4 0.489135 0.444107 0.0127906
659 4 0.42837 0.458151 0.0794466
1157 4 0.472805 0.495415 0.99842
380 4 0.0109189 0.0269245 0.137629
379 2 0.0162007 0.00413973 0.12879
566 4 0.155653 0.0266487 0.11364
485 4 0.153959 0.0172012 0.0954327
565 2 0.172483 0.0437202 0.120745
567 4 0.189313 0.0607917 0.12785
691 2 0.277122 0.0722017 0.138529
692 4 0.300664 0.0705907 0.130262
1505 4 0.306968 0.0510134 0.134597
693 4 0.253579 0.0738128 0.146796
1504 2 0.331952 0.051099 0.135584
254 4 0.40113 0.0329937 0.103565
253 2 0.385343 0.0485871 0.115089
255 4 0.369556 0.0641806 0.126612
1506 4 0.356936 0.0511846 0.136571
21 1 0.465501 0.0650385 0.131783
25 3 0.447699 0.0557491 0.121039
24 3 0.458761 0.0737346 0.152213
23 3 0.482006 0.049057 0.135034
2467 2 0.471076 0.00880085 0.130497
2469 4 0.448869 0.00866997 0.119007
2468 4 0.493282 0.00893174 0.141987
2758 2 0.0700157 0.126608 0.138022
705 4 0.0771804 0.147727 0.106391
2760 4 0.0594255 0.122658 0.160325
450 4 0.121916 0.0894146 0.0810637
2759 4 0.0806058 0.130558 0.115719
448 2 0.139417 0.10671 0.0855075
449 4 0.156919 0.124005 0.0899512
577 2 0.136821 0.164907 0.147878
703 2 0.0926066 0.166861 0.101798
236 4 0.152909 0.134094 0.158151
579 4 0.157934 0.15345 0.154818
356 4 0.211856 0.150306 0.0907039
723 4 0.242572 0.0921097 0.143041
915 4 0.167712 0.124744 0.1052
913 2 0.174527 0.14865 0.102508
721 2 0.2228 0.0954923 0.157968
235 2 0.169624 0.115542 0.15942
237 4 0.186338 0.0969893 0.160689
759 4 0.394185 0.122866 0.161232
22 3 0.474072 0.0820704 0.118915
2894 4 0.472623 0.098884 0.109082
2893 2 0.488086 0.114301 0.121263
2895 4 0.50355 0.129719 0.133444
756 4 0.0821196 0.235104 0.15764
505 2 0.0802074 0.177825 0.165528
507 4 0.0968744 0.177157 0.146902
578 4 0.115708 0.176365 0.140938
704 4 0.108033 0.185995 0.097206
460 2 0.134498 0.20339 0.0989178
461 4 0.148687 0.214489 0.116257
623 4 0.138353 0.215835 0.133264
622 2 0.132331 0.222085 0.156713
754 2 0.0869345 0.242656 0.134296
914 4 0.181342 0.172555 0.0998152
581 4 0.185803 0.188456 0.110335
580 2 0.205505 0.200801 0.119534
582 4 0.225206 0.213146 0.128733
278 4 0.239937 0.20557 0.117024
277 2 0.259849 0.220144 0.112989
279 4 0.279762 0.234718 0.108955
732 4 0.297927 0.226988 0.111468
730 2 0.313959 0.216608 0.127606
606 4 0.322009 0.201511 0.161185
731 4 0.329991 0.206229 0.143744
476 4 0.0968984 0.260449 0.0952523
755 4 0.0917493 0.250209 0.110952
288 4 0.149529 0.30504 0.107494
252 4 0.146565 0.323795 0.112379
286 2 0.165739 0.302571 0.0886184
309 4 0.369498 0.273329 0.147439
519 4 0.366501 0.274846 0.127257
517 2 0.373267 0.265973 0.104881
1069 2 0.374698 0.321237 0.0966059
307 2 0.367566 0.287154 0.168183
2652 4 0.39022 0.327906 0.124354
378 4 0.457144 0.27461 0.118015
376 2 0.450218 0.267033 0.140814
2093 4 0.0855677 0.371378 0.120274
2092 2 0.0765511 0.358161 0.139488
2094 4 0.0675346 0.344945 0.158703
250 2 0.144915 0.344837 0.125784
251 4 0.143265 0.365879 0.139189
525 4 0.20341 0.412145 0.0986368
967 2 0.305191 0.367981 0.0991811
968 4 0.290944 0.366783 0.119693
612 4 0.283643 0.349912 0.121835
610 2 0.273643 0.3466 0.144511
1070 4 0.371696 0.331897 0.119023
739 2 0.350102 0.409168 0.0971532
608 4 0.343573 0.403474 0.138393
740 4 0.340006 0.410774 0.119972
2650 2 0.402515 0.335828 0.144633
2538 4 0.431018 0.348443 0.154272
523 2 0.205941 0.430688 0.115218
524 4 0.208472 0.449231 0.131799
768 4 0.213782 0.463807 0.144994
766 2 0.235472 0.474419 0.138507
767 4 0.257163 0.485031 0.132021
607 2 0.33406 0.420241 0.154317
597 4 0.416934 0.441896 0.0790731
658 2 0.435906 0.467992 0.101162
660 4 0.443442 0.477834 0.122877
3704 4 0.463534 0.475658 0.122143
3703 2 0.486784 0.472465 0.130769
2850 4 0.156549 0.0368093 0.227923
2848 2 0.163471 0.0556356 0.242851
429 4 0.201771 0.0300896 0.194436
427 2 0.190577 0.0174971 0.21291
428 4 0.179383 0.00490457 0.231384
743 4 0.429448 0.00991728 0.187547
742 2 0.434967 0.0333664 0.194244
744 4 0.440487 0.0568155 0.200942
432 4 0.433172 0.0688013 0.216337
430 2 0.441635 0.0695448 0.239853
722 4 0.203029 0.0988749 0.172895
30 3 0.290172 0.139096 0.212148
26 1 0.284943 0.16019 0.218954
27 3 0.262851 0.160837 0.225332
757 2 0.404388 0.143561 0.170863
758 4 0.414592 0.164257 0.180494
506 4 0.0635405 0.178493 0.184155
530 4 0.0777367 0.174913 0.197675
396 4 0.0734835 0.249824 0.16877
529 2 0.0892047 0.179558 0.219403
459 4 0.119733 0.186632 0.246867
284 4 0.132503 0.227496 0.198758
283 2 0.152857 0.225044 0.213072
624 4 0.126309 0.228335 0.180162
531 4 0.100673 0.184203 0.24113
285 4 0.173211 0.222592 0.227385
544 2 0.203749 0.201627 0.243619
545 4 0.192637 0.219514 0.230137
604 2 0.311385 0.196171 0.18318
605 4 0.300761 0.190831 0.205175
28 3 0.288157 0.17516 0.201518
29 3 0.298157 0.16617 0.237066
630 4 0.416993 0.24649 0.219178
331 2 0.390193 0.226229 0.24509
332 4 0.406952 0.24284 0.236821
628 2 0.421401 0.248301 0.194633
632 4 0.4188 0.196468 0.227689
629 4 0.425809 0.250113 0.170088
631 2 0.438093 0.191333 0.242743
394 2 0.0680986 0.251858 0.193102
395 4 0.0627138 0.253892 0.217434
300 4 0.024767 0.300932 0.238327
298 2 0.0345292 0.27884 0.23186
299 4 0.0442915 0.256748 0.225392
2694 4 0.0142412 0.313118 0.225898
496 2 0.346652 0.320559 0.210461
498 4 0.356178 0.297597 0.207775
308 4 0.365634 0.30098 0.188926
377 4 0.443292 0.259456 0.163614
535 2 0.0214546 0.394081 0.236035
536 4 0.046179 0.397141 0.238161
1775 4 0.0460971 0.414884 0.22864
362 4 0.0837176 0.339686 0.168748
361 2 0.100572 0.339553 0.187217
363 4 0.117426 0.339421 0.205685
417 4 0.133852 0.351899 0.202086
415 2 0.146504 0.364229 0.21978
416 4 0.159155 0.376558 0.237475
611 4 0.263643 0.343287 0.167187
345 4 0.256715 0.341854 0.185439
344 4 0.277109 0.377044 0.214533
343 2 0.266912 0.359449 0.199986
645 4 0.282844 0.365292 0.229812
643 2 0.296117 0.352156 0.246439
2651 4 0.41481 0.34375 0.164913
497 4 0.337126 0.34352 0.213147
275 4 0.334022 0.349389 0.232716
274 2 0.350554 0.358325 0.249209
107 3 0.492477 0.383618 0.234448
2536 2 0.446259 0.36311 0.167605
713 4 0.436789 0.405039 0.24076
2537 4 0.461501 0.377776 0.180938
714 4 0.451904 0.382958 0.198514
712 2 0.444346 0.393999 0.219637
109 3 0.488677 0.409817 0.207768
412 2 0.999513 0.45974 0.183438
1774 2 0.0524317 0.438323 0.222667
1776 4 0.0587662 0.461761 0.216693
414 4 0.0179059 0.45836 0.20032
681 4 0.00587749 0.446848 0.212756
1786 2 0.128093 0.500055 0.237398
1788 4 0.139415 0.481754 0.250128
338 4 0.146667 0.463527 0.245572
290 4 0.180175 0.463442 0.200119
291 4 0.217347 0.449812 0.169571
289 2 0.198761 0.456627 0.184845
627 4 0.228316 0.435787 0.181069
609 4 0.324547 0.437007 0.170242
625 2 0.252756 0.439155 0.177001
246 4 0.288953 0.456794 0.167609
626 4 0.277195 0.442524 0.172933
244 2 0.308823 0.465693 0.179904
245 4 0.328692 0.474593 0.1922
386 4 0.325914 0.499833 0.244387
387 4 0.341973 0.471451 0.206475
385 2 0.333944 0.485642 0.225431
1869 4 0.0194883 0.0230888 0.323057
317 4 0.0273845 0.0371781 0.311964
316 2 0.0362183 0.0339146 0.288802
399 4 0.0611686 0.0367078 0.257574
318 4 0.045052 0.0306511 0.26564
397 2 0.0804566 0.0208731 0.259126
1477 2 0.143732 0.000482108 0.251005
1478 4 0.119725 0.00413725 0.256959
398 4 0.0997447 0.00503827 0.260679
2849 4 0.170393 0.0744619 0.257778
393 4 0.187521 0.0769516 0.266658
391 2 0.208067 0.073092 0.280374
392 4 0.228613 0.0692323 0.294091
404 4 0.230474 0.0738142 0.314246
1700 4 0.299261 0.00937641 0.299067
403 2 0.247953 0.0572214 0.320906
248 4 0.287313 0.0544407 0.268143
247 2 0.291931 0.0304988 0.273679
249 4 0.296548 0.00655699 0.279215
405 4 0.265431 0.0406285 0.327566
1496 4 0.468015 0.0286022 0.260664
1495 2 0.456619 0.00731615 0.267161
431 4 0.450098 0.0702882 0.263369
511 2 0.0225433 0.119885 0.257431
512 4 0.0381631 0.101115 0.252056
513 4 0.0069235 0.138655 0.262805
470 4 0.0734621 0.14351 0.324186
2717 4 0.0542278 0.140175 0.330088
1272 4 0.137792 0.120092 0.312262
469 2 0.0904849 0.160938 0.31856
1270 2 0.12191 0.104618 0.323817
514 2 0.294344 0.163231 0.313485
515 4 0.314715 0.153281 0.324029
516 4 0.273973 0.173181 0.30294
351 4 0.255654 0.173627 0.295139
2910 4 0.33104 0.16309 0.32024
2908 2 0.351751 0.15129 0.32779
520 2 0.487606 0.160759 0.272157
521 4 0.465064 0.168289 0.264391
471 4 0.107508 0.178366 0.312933
458 4 0.119442 0.177816 0.29609
457 2 0.119587 0.182224 0.271479
349 2 0.245123 0.178891 0.273081
546 4 0.214861 0.183741 0.257102
350 4 0.234592 0.184155 0.251023
750 4 0.193766 0.224836 0.301867
389 4 0.199268 0.208332 0.31173
748 2 0.188526 0.24367 0.286277
333 4 0.373433 0.209619 0.25336
633 4 0.457385 0.186198 0.257796
618 4 0.164033 0.266745 0.271567
616 2 0.167516 0.291492 0.270754
617 4 0.170998 0.316238 0.269941
749 4 0.183287 0.262503 0.270688
365 4 0.183203 0.331498 0.272411
364 2 0.204492 0.328561 0.285191
366 4 0.225781 0.325623 0.297971
433 2 0.259394 0.33196 0.316412
510 4 0.298314 0.27013 0.285696
765 4 0.313456 0.265918 0.274943
508 2 0.293729 0.290529 0.299408
435 4 0.284286 0.330944 0.318546
509 4 0.289145 0.310928 0.313121
764 4 0.356844 0.27408 0.251456
763 2 0.33515 0.269999 0.2632
1640 4 0.0584028 0.393002 0.295822
2655 4 0.0751707 0.381424 0.29835
1639 2 0.0421246 0.410467 0.30325
735 4 0.167835 0.379889 0.2546
733 2 0.150888 0.373935 0.271993
2654 4 0.123912 0.385154 0.28781
734 4 0.13394 0.36798 0.289386
2653 2 0.0995414 0.383289 0.29308
727 2 0.163365 0.420202 0.313656
728 4 0.169231 0.397614 0.322631
434 4 0.234503 0.332976 0.314278
644 4 0.30939 0.339019 0.263066
613 2 0.392872 0.361297 0.299151
615 4 0.409914 0.364673 0.317132
614 4 0.375829 0.35792 0.28117
276 4 0.367086 0.367261 0.265702
2862 4 0.418283 0.398461 0.244334
1641 4 0.0258465 0.427931 0.310679
337 2 0.145391 0.451027 0.26719
339 4 0.144115 0.438528 0.288807
729 4 0.157498 0.44279 0.304682
375 4 0.250781 0.472607 0.289809
678 4 0.239955 0.487052 0.281918
1575 4 0.320673 0.485931 0.2567
373 2 0.263829 0.463395 0.309046
374 4 0.276878 0.454182 0.328282
1574 4 0.276212 0.477217 0.277866
1573 2 0.298442 0.481574 0.267283
1473 4 0.40087 0.452211 0.283513
2860 2 0.408766 0.41825 0.256291
1471 2 0.406761 0.476461 0.285075
2861 4 0.399249 0.43804 0.268249
762 4 0.411189 0.0778773 0.384123
2879 4 0.424602 0.0743806 0.397981
2878 2 0.43867 0.0542219 0.402552
2880 4 0.452738 0.0340632 0.407123
685 2 0.014943 0.13914 0.396182
687 4 0.0362211 0.141077 0.383195
2718 4 0.0557472 0.140789 0.380068
2716 2 0.0549875 0.140482 0.355078
1221 4 0.0973678 0.104907 0.398419
1219 2 0.0964109 0.0951532 0.375417
1220 4 0.0954539 0.085399 0.352414
1271 4 0.106028 0.0891449 0.335372
478 2 0.311517 0.100228 0.411906
650 4 0.290657 0.133873 0.406842
479 4 0.302158 0.119478 0.398982
649 2 0.273959 0.145554 0.421329
2909 4 0.372462 0.13949 0.33534
2657 4 0.384478 0.15495 0.341953
2656 2 0.402098 0.150605 0.359153
760 2 0.416659 0.102092 0.381141
2658 4 0.419717 0.146259 0.376353
761 4 0.422129 0.126307 0.378159
451 2 0.489248 0.164167 0.404807
341 4 0.0749538 0.166487 0.379386
2613 4 0.072511 0.185287 0.376568
2611 2 0.0614706 0.206604 0.383558
2612 4 0.0504302 0.227921 0.390549
2847 4 0.06621 0.227884 0.403656
340 2 0.0996836 0.166761 0.383065
342 4 0.124413 0.167035 0.386745
824 4 0.134245 0.183304 0.391911
823 2 0.143739 0.203655 0.402905
388 2 0.197005 0.217573 0.334852
390 4 0.194742 0.226815 0.357975
371 4 0.224224 0.222816 0.410379
370 2 0.248249 0.229692 0.409543
372 4 0.272274 0.236568 0.408708
707 4 0.275529 0.250655 0.394023
487 2 0.409535 0.247529 0.393059
267 4 0.437706 0.222999 0.384275
265 2 0.453171 0.20492 0.391966
489 4 0.421715 0.225963 0.396485
266 4 0.468637 0.186841 0.399656
453 4 0.487214 0.189018 0.406663
444 4 0.0973795 0.329444 0.363555
636 4 0.155012 0.261404 0.361193
634 2 0.171083 0.277926 0.370884
635 4 0.187155 0.294447 0.380575
668 4 0.207064 0.296085 0.375829
667 2 0.221006 0.292479 0.396269
669 4 0.234948 0.288874 0.416709
706 2 0.297115 0.259847 0.385378
708 4 0.318701 0.269039 0.376734
717 4 0.334265 0.273523 0.363415
716 4 0.376888 0.271728 0.389507
488 4 0.397356 0.269096 0.389633
715 2 0.355576 0.272626 0.376461
443 4 0.0621656 0.361655 0.348615
442 2 0.0797726 0.345549 0.356085
602 4 0.166791 0.399673 0.343039
601 2 0.177473 0.381666 0.356706
603 4 0.188155 0.363658 0.370373
710 4 0.215341 0.372477 0.410019
2924 4 0.415563 0.371724 0.335264
2923 2 0.429335 0.381374 0.353768
2925 4 0.443107 0.391025 0.372271
117 3 0.438841 0.376312 0.384961
116 1 0.444841 0.3741 0.407058
118 3 0.46681 0.381119 0.409604
585 4 0.440116 0.405468 0.417698
547 2 0.0275386 0.429598 0.413763
548 4 0.0484056 0.438305 0.403089
1382 4 0.112634 0.489915 0.37313
2139 4 0.1083 0.473957 0.382358
2137 2 0.108778 0.472536 0.407317
2109 4 0.25817 0.452254 0.338751
592 2 0.256929 0.474891 0.416055
594 4 0.267113 0.456346 0.40273
2108 4 0.265616 0.443616 0.38744
2107 2 0.261893 0.447935 0.363096
752 4 0.337789 0.496233 0.35568
1180 2 0.231053 0.0268733 0.472169
1182 4 0.223734 0.00863937 0.487632
1181 4 0.238373 0.0451073 0.456705
725 4 0.248357 0.0580252 0.469866
598 2 0.320621 0.00958262 0.453575
724 2 0.245383 0.0807814 0.459942
3159 4 0.308691 0.0618254 0.496252
2641 2 0.364293 0.0715163 0.432148
2643 4 0.388237 0.0644636 0.433601
599 4 0.340374 0.0185737 0.441158
684 4 0.388762 0.0466728 0.443715
682 2 0.40257 0.0360082 0.461626
1517 4 0.452875 0.0218686 0.424843
683 4 0.416378 0.0253435 0.479537
983 4 0.0122977 0.157757 0.48518
937 2 0.070529 0.113855 0.422775
938 4 0.0464503 0.114559 0.429476
1034 4 0.0323378 0.12788 0.434896
1033 2 0.0191123 0.142306 0.450457
1035 4 0.0058868 0.156733 0.466018
939 4 0.0946077 0.113151 0.416075
726 4 0.242408 0.103537 0.450018
473 4 0.223219 0.105653 0.443226
472 2 0.21219 0.126587 0.435144
474 4 0.201162 0.147521 0.427062
402 4 0.198366 0.167706 0.42377
857 4 0.247387 0.162996 0.451834
651 4 0.25726 0.157235 0.435816
480 4 0.320876 0.0809775 0.42483
856 2 0.259255 0.158445 0.473366
858 4 0.271122 0.153893 0.494898
319 2 0.309722 0.166459 0.495966
2642 4 0.340349 0.0785689 0.430694
1031 4 0.371425 0.10286 0.482115
2502 4 0.46471 0.117326 0.423735
2501 4 0.451188 0.117279 0.471879
2500 2 0.457949 0.117302 0.447807
2845 2 0.0723598 0.244236 0.421544
367 2 0.154373 0.227407 0.459132
368 4 0.155352 0.230602 0.483911
9 3 0.165608 0.215789 0.492809
369 4 0.153394 0.224212 0.434353
825 4 0.153232 0.224007 0.413899
696 4 0.138965 0.235009 0.496857
401 4 0.227502 0.208337 0.424691
400 2 0.212934 0.188021 0.42423
812 4 0.325272 0.240892 0.475176
321 4 0.33066 0.176938 0.487194
640 2 0.339233 0.218429 0.491673
641 4 0.340819 0.243089 0.487861
260 4 0.0659261 0.275366 0.447837
2846 4 0.0785096 0.260589 0.439431
259 2 0.0833155 0.280973 0.464906
261 4 0.100705 0.28658 0.481975
695 4 0.113232 0.277779 0.493813
694 2 0.126098 0.256394 0.495335
873 4 0.245389 0.277642 0.429539
871 2 0.267363 0.284681 0.439171
872 4 0.289337 0.29172 0.448804
813 4 0.29269 0.274107 0.456849
811 2 0.308981 0.2575 0.466013
549 4 0.00667155 0.420891 0.424437
384 4 0.999847 0.379085 0.498154
773 4 0.196629 0.347353 0.46082
709 2 0.221843 0.391946 0.424295
772 2 0.193661 0.351032 0.485372
119 3 0.430773 0.38725 0.420003
120 3 0.4429 0.352258 0.413207
569 4 0.116983 0.465272 0.450654
568 2 0.112308 0.476164 0.472669
2138 4 0.109256 0.471115 0.432275
570 4 0.107632 0.487057 0.494684
326 4 0.233063 0.430606 0.442711
539 4 0.185439 0.465188 0.479809
711 4 0.228346 0.411416 0.438572
2243 4 0.195893 0.478362 0.489093
325 2 0.239082 0.446523 0.46103
593 4 0.246744 0.493435 0.42938
327 4 0.2451 0.46244 0.479349
1173 4 0.253757 0.464132 0.498146
583 2 0.437418 0.4303 0.418825
336 4 0.474812 0.454306 0.441664
239 4 0.443321 0.444883 0.466937
240 4 0.424442 0.470522 0.505498
238 2 0.433881 0.457703 0.486218
584 4 0.434721 0.455132 0.419952
334 2 0.484906 0.474946 0.451528
1151 4 0.22603 0.0128816 0.505403
3157 2 0.310484 0.0559007 0.520478
3158 4 0.312276 0.0499761 0.544703
575 4 0.325477 0.0635306 0.553481
574 2 0.342147 0.0737631 0.569056
842 4 0.470355 0.0274272 0.522477
1061 4 0.477345 0.0454339 0.527336
841 2 0.449293 0.0283911 0.509038
843 4 0.428231 0.029355 0.495598
1184 4 0.00823971 0.101525 0.568079
1183 2 0.00469395 0.114188 0.546813
320 4 0.288784 0.15598 0.504738
576 4 0.358816 0.0839957 0.584632
1032 4 0.392945 0.0956269 0.526671
1030 2 0.382185 0.0992437 0.504393
1142 4 0.374362 0.093878 0.573839
6 1 0.155042 0.212434 0.513193
7 3 0.147904 0.190598 0.514364
10 3 0.137073 0.226307 0.515008
8 3 0.1699 0.21641 0.530567
348 4 0.188454 0.22038 0.526625
346 2 0.206562 0.23432 0.53677
642 4 0.337647 0.193768 0.495486
2508 4 0.490876 0.234161 0.517384
3308 4 0.473253 0.240954 0.513706
3307 2 0.460516 0.230841 0.532698
3309 4 0.447779 0.220729 0.55169
270 4 0.434455 0.217438 0.564337
879 4 0.0192135 0.307123 0.542915
3045 4 0.0352181 0.303916 0.554627
3043 2 0.0454669 0.287404 0.57036
347 4 0.224671 0.24826 0.546916
1191 4 0.231917 0.261179 0.560473
1189 2 0.230252 0.286122 0.559972
1190 4 0.228588 0.311065 0.559472
1394 4 0.213319 0.323941 0.563979
934 2 0.0193669 0.406925 0.520482
935 4 0.00505381 0.399026 0.501563
1393 2 0.208651 0.339565 0.545024
1395 4 0.203982 0.355188 0.526069
774 4 0.190692 0.354712 0.509925
1239 4 0.283879 0.396184 0.578895
1029 4 0.278733 0.413413 0.570781
804 4 0.33929 0.366802 0.576921
802 2 0.357633 0.350162 0.580362
1040 4 0.0526384 0.416101 0.547842
1039 2 0.0771973 0.420586 0.546455
936 4 0.0336799 0.414824 0.5394
1136 4 0.108316 0.427407 0.526192
1041 4 0.101756 0.42507 0.545068
1137 4 0.158059 0.432426 0.527253
1135 2 0.133187 0.429916 0.526723
540 4 0.175747 0.43821 0.520785
538 2 0.180593 0.451699 0.500297
1171 2 0.268429 0.466472 0.518256
1028 4 0.291059 0.45913 0.554695
1172 4 0.283101 0.468813 0.538367
1027 2 0.284896 0.436272 0.562738
1978 2 0.435099 0.472331 0.550054
1980 4 0.439009 0.493868 0.537969
1979 4 0.43119 0.450794 0.56214
1130 4 0.321885 0.0195249 0.593279
1129 2 0.310749 0.0252882 0.614911
1131 4 0.299613 0.0310515 0.636543
2318 4 0.307378 0.0449849 0.648718
2317 2 0.301321 0.0630949 0.664858
1004 4 0.401528 0.011877 0.646716
1003 2 0.38895 0.0183738 0.667325
2241 4 0.392365 0.000300627 0.6329
88 3 0.399311 0.00625666 0.615386
87 3 0.421211 0.0176433 0.64373
86 1 0.420683 0.0131999 0.621166
89 3 0.426129 0.0325524 0.60958
917 4 0.129045 0.0998678 0.657537
918 4 0.127647 0.146105 0.63854
916 2 0.128346 0.122986 0.648038
944 4 0.133559 0.080911 0.661971
1155 4 0.194407 0.1404 0.629966
1153 2 0.193112 0.165245 0.627475
1283 4 0.189485 0.137995 0.649408
887 4 0.400803 0.107333 0.635458
1143 4 0.40068 0.101251 0.615716
1141 2 0.387521 0.0975646 0.594778
886 2 0.403087 0.100034 0.659263
900 4 0.369274 0.169337 0.617529
3460 2 0.0609174 0.23768 0.612494
3462 4 0.059986 0.215363 0.623731
1212 4 0.126006 0.166042 0.63594
1211 4 0.148123 0.209887 0.626496
1210 2 0.137065 0.187965 0.631218
1259 4 0.1646 0.220406 0.620553
1258 2 0.182831 0.22947 0.606039
1154 4 0.191817 0.19009 0.624984
1260 4 0.201062 0.238534 0.591525
411 4 0.32249 0.228414 0.640623
409 2 0.318851 0.238891 0.618213
1085 4 0.306295 0.231194 0.652269
1084 2 0.293848 0.212224 0.662775
792 4 0.398718 0.218155 0.634213
899 4 0.400154 0.190033 0.650978
898 2 0.384714 0.179685 0.634253
790 2 0.392755 0.242433 0.633764
268 2 0.439154 0.223094 0.588234
269 4 0.443854 0.228751 0.612132
3044 4 0.0557157 0.270893 0.586092
3461 4 0.0618488 0.259997 0.601258
3418 2 0.017006 0.305654 0.651309
3420 4 0.0402852 0.31279 0.656995
1281 4 0.0523294 0.310301 0.64145
1279 2 0.0755282 0.311787 0.650658
897 4 0.152683 0.310926 0.640945
895 2 0.153661 0.331616 0.654951
410 4 0.315213 0.249367 0.595803
806 4 0.37955 0.316116 0.593516
791 4 0.386792 0.266711 0.633316
805 2 0.37642 0.295089 0.606678
807 4 0.37329 0.274061 0.619839
803 4 0.375975 0.333522 0.583802
1237 2 0.302872 0.380552 0.583378
1238 4 0.321865 0.36492 0.587861
2128 2 0.134604 0.492811 0.666319
2130 4 0.11458 0.496929 0.651923
891 4 0.322718 0.499546 0.645659
889 2 0.324242 0.480805 0.662141
1953 4 0.319589 0.489288 0.629007
3324 4 0.364629 0.473001 0.604146
3322 2 0.384979 0.460114 0.610852
3323 4 0.40533 0.447228 0.617557
3371 4 0.412638 0.435752 0.633559
3372 4 0.46194 0.428614 0.637926
1007 4 0.463845 0.431988 0.658703
3370 2 0.437289 0.432183 0.635742
1001 4 0.474924 0.49773 0.605369
926 4 0.480365 0.490077 0.622952
864 4 0.0743827 0.0338635 0.740099
2989 2 0.127132 0.0213042 0.737505
945 4 0.162214 0.0650974 0.699781
943 2 0.147887 0.0730042 0.680876
2990 4 0.144395 0.031335 0.722453
2255 4 0.168111 0.0560964 0.716683
2254 2 0.1895 0.0595038 0.729177
2256 4 0.210889 0.0629112 0.74167
1257 4 0.319675 0.0162798 0.719206
1255 2 0.30028 0.0226476 0.733644
965 4 0.329115 0.0336239 0.715175
966 4 0.364205 0.00877457 0.689643
964 2 0.34666 0.0211992 0.702409
1005 4 0.376371 0.0248706 0.687935
954 4 0.395186 0.0505156 0.728917
952 2 0.401433 0.0710169 0.716039
1026 4 0.390733 0.0331902 0.735323
1107 4 0.999809 0.159331 0.659567
1105 2 0.00906926 0.142048 0.675083
1106 4 0.0183297 0.124766 0.690598
850 2 0.102526 0.110916 0.742459
947 4 0.140807 0.11694 0.731511
851 4 0.125939 0.104347 0.73664
946 2 0.164291 0.121761 0.724411
1282 2 0.188216 0.134895 0.674186
1284 4 0.186948 0.131795 0.698964
948 4 0.187776 0.126583 0.71731
2319 4 0.295264 0.081205 0.680999
950 4 0.285286 0.0981545 0.676286
949 2 0.285866 0.1066 0.699813
951 4 0.286446 0.115045 0.72334
1092 4 0.301568 0.15566 0.738306
888 4 0.405371 0.0927343 0.683068
953 4 0.40768 0.0915183 0.703161
1194 4 0.42641 0.15821 0.73714
779 4 0.0391889 0.232489 0.744653
923 4 0.0207217 0.166542 0.756468
977 4 0.298816 0.174739 0.734123
976 2 0.293117 0.186185 0.712635
1086 4 0.281401 0.193253 0.673281
978 4 0.287418 0.19763 0.691148
1009 2 0.496006 0.170696 0.68583
1192 2 0.443737 0.168411 0.722278
1193 4 0.461064 0.178611 0.707415
1010 4 0.473757 0.180955 0.690819
778 2 0.0370361 0.256677 0.750608
153 3 0.0341533 0.298317 0.748125
1280 4 0.0987271 0.313272 0.659866
1042 2 0.325925 0.300005 0.732621
1043 4 0.332592 0.275917 0.733333
1044 4 0.319258 0.324093 0.731909
3330 4 0.327128 0.260982 0.745607
1067 4 0.0721563 0.33396 0.737919
896 4 0.15464 0.352307 0.668956
992 4 0.152051 0.357607 0.688848
1068 4 0.12147 0.338252 0.745025
991 2 0.140308 0.354731 0.710734
993 4 0.128566 0.351854 0.732621
1066 2 0.0968129 0.336106 0.741472
798 4 0.312999 0.343057 0.728867
1277 4 0.26989 0.390556 0.741402
797 4 0.277021 0.372568 0.747181
796 2 0.29501 0.357813 0.738024
1276 2 0.260218 0.411195 0.731123
1008 4 0.489745 0.402972 0.690135
3463 2 0.471753 0.389906 0.723917
3464 4 0.478485 0.406615 0.706577
3465 4 0.465021 0.373196 0.741257
942 4 0.156894 0.473611 0.692701
2129 4 0.154629 0.488693 0.680714
940 2 0.180452 0.478892 0.699205
941 4 0.204011 0.484173 0.705709
1098 4 0.217071 0.474061 0.717397
1096 2 0.223764 0.449983 0.718179
1097 4 0.230457 0.425904 0.718962
1278 4 0.250546 0.431834 0.720844
1206 4 0.328188 0.421519 0.734054
1204 2 0.323914 0.436015 0.714135
1205 4 0.31964 0.450511 0.694216
890 4 0.325766 0.462065 0.678622
3181 2 0.396817 0.481817 0.701501
3183 4 0.392135 0.489477 0.724837
3182 4 0.401499 0.474157 0.678165
189 3 0.410481 0.450227 0.743255
187 3 0.383257 0.474695 0.734721
1006 2 0.476795 0.41748 0.674419
1250 4 0.472357 0.438481 0.729843
3011 4 0.488053 0.43859 0.741797
1249 2 0.450548 0.448029 0.737482
863 4 0.0729331 0.0300631 0.78994
1215 4 0.0567912 0.0356746 0.800569
1213 2 0.0471375 0.0461458 0.82112
862 2 0.0736579 0.0319633 0.765019
2991 4 0.109869 0.0112735 0.752556
1201 2 0.126921 0.00725779 0.791102
1203 4 0.123799 0.0111462 0.766601
831 4 0.146786 0.0156317 0.816882
960 4 0.227337 0.0675702 0.751423
958 2 0.250178 0.0574312 0.7506
1256 4 0.280885 0.0290155 0.748083
959 4 0.273019 0.0472922 0.749777
1253 4 0.314086 0.0408262 0.801806
1252 2 0.311156 0.0438226 0.826456
1024 2 0.391005 0.0334443 0.760324
1025 4 0.391277 0.0336984 0.785325
819 4 0.439933 0.0477709 0.815142
2321 4 0.43789 0.028351 0.816645
1179 4 0.037547 0.159725 0.748846
1178 4 0.0620236 0.117216 0.758572
1177 2 0.0497853 0.138471 0.753709
852 4 0.079113 0.117485 0.748278
35 3 0.152066 0.146058 0.830551
908 4 0.219094 0.125699 0.77275
907 2 0.200366 0.109134 0.772544
909 4 0.181638 0.092569 0.772339
1048 2 0.304381 0.147386 0.816299
1050 4 0.319866 0.161176 0.802326
1091 4 0.320825 0.167699 0.782859
1023 4 0.270337 0.128678 0.825613
1090 2 0.311197 0.161679 0.760582
1049 4 0.288897 0.133595 0.830272
3425 4 0.428938 0.162994 0.756922
1146 4 0.493652 0.112589 0.811771
3426 4 0.453246 0.135997 0.791287
45 3 0.444327 0.126173 0.806689
41 1 0.46071 0.11531 0.818189
44 3 0.476191 0.106388 0.803386
3424 2 0.441092 0.149495 0.774105
828 4 0.491441 0.124101 0.829327
42 3 0.451342 0.0981895 0.830367
924 4 0.0384313 0.211847 0.744868
922 2 0.0295765 0.189194 0.750668
32 3 0.161124 0.182205 0.828494
838 2 0.225341 0.21182 0.800583
839 4 0.206893 0.210089 0.817372
840 4 0.243789 0.213551 0.783795
801 4 0.20734 0.229384 0.82628
1297 2 0.256708 0.250585 0.767648
1298 4 0.253128 0.230075 0.781494
3328 2 0.331923 0.24177 0.760873
3329 4 0.336718 0.222557 0.77614
1052 4 0.413418 0.255516 0.837772
154 3 0.0560512 0.329379 0.747962
780 4 0.0348832 0.280866 0.756562
152 3 0.0370117 0.319713 0.778893
151 1 0.0484847 0.31153 0.760712
155 3 0.0661492 0.299115 0.767956
1170 4 0.0208656 0.323151 0.812767
1209 4 0.19415 0.309388 0.785091
1207 2 0.195366 0.322071 0.806606
1208 4 0.196581 0.334754 0.82812
1064 4 0.212363 0.327864 0.836149
1299 4 0.260288 0.271094 0.753801
3347 4 0.359685 0.32584 0.826559
1094 4 0.35221 0.30986 0.836996
865 2 0.49425 0.279519 0.826337
885 4 0.0669853 0.400324 0.778401
883 2 0.0778072 0.377878 0.776342
884 4 0.0886291 0.355432 0.774282
1139 4 0.318294 0.418725 0.750633
1138 2 0.319793 0.409525 0.773834
1140 4 0.321293 0.400324 0.797035
1015 2 0.333807 0.38527 0.823971
3346 2 0.381002 0.33814 0.822147
1017 4 0.339494 0.393483 0.80105
3348 4 0.402319 0.350441 0.817736
999 4 0.483058 0.376008 0.749573
1019 4 0.414823 0.365322 0.822458
997 2 0.490236 0.366984 0.771759
998 4 0.497414 0.357959 0.793944
815 4 0.0603966 0.417337 0.783848
989 4 0.0671151 0.473289 0.812807
814 2 0.0614245 0.441671 0.789502
816 4 0.0624525 0.466005 0.795156
1236 4 0.227758 0.445869 0.825327
1234 2 0.219508 0.46497 0.81146
1235 4 0.211257 0.48407 0.797594
822 4 0.24585 0.452567 0.822473
2289 4 0.318444 0.489227 0.794307
82 3 0.276795 0.468253 0.804582
81 1 0.287725 0.476286 0.786004
85 3 0.302644 0.460684 0.778747
2214 4 0.319767 0.472006 0.779899
83 3 0.272105 0.480628 0.769404
820 2 0.261998 0.436158 0.832229
84 3 0.298855 0.495829 0.791715