ITEM: TIMESTEP
4750000
ITEM: NUMBER OF ATOMS
4590
ITEM: BOX BOUNDS pp pp pp
-9.9985700000000008e+00 9.9985700000000008e+00
-9.9985700000000008e+00 9.9985700000000008e+00
-9.9985700000000008e+00 9.9985700000000008e+00
ITEM: ATOMS id type xs ys zs
657 4 0.0100194 0.0653333 0.0184076
565 2 0.100009 0.0247699 0.0491465
567 4 0.10318 0.0375617 0.027898
1841 4 0.137642 0.0711803 0.0658359
701 4 0.129813 0.06264 0.0489989
2252 4 0.110734 0.0388129 0.00880303
1840 2 0.158657 0.0581401 0.0695087
566 4 0.096839 0.0119781 0.070395
486 4 0.17727 0.0325999 0.0574903
484 2 0.186369 0.0167009 0.0404722
1842 4 0.179673 0.0450999 0.0731815
2442 4 0.416724 0.0554454 0.00636126
2976 4 0.473938 0.070479 0.0247275
2441 4 0.466457 0.0598459 0.00917301
2440 2 0.44159 0.0576456 0.00776714
146 1 0.495035 0.0495302 0.00978323
148 3 0.473509 0.04154 0.00643627
2469 4 0.444771 0.0054268 0.0458117
2467 2 0.461396 0.0152304 0.0617072
2974 2 0.472764 0.0836047 0.0459764
771 4 0.49201 0.0383693 0.0839316
147 3 0.493831 0.0700078 0.0201934
986 4 0.433758 0.00540141 0.0285429
2468 4 0.478021 0.0250339 0.0776027
836 4 0.0426759 0.134889 0.078375
835 2 0.055699 0.129551 0.0577089
2758 2 0.039487 0.154143 0.00358764
700 2 0.120069 0.0769918 0.0309915
702 4 0.110326 0.0913435 0.012984
837 4 0.0687222 0.124214 0.0370428
915 4 0.187196 0.144541 0.0719217
357 4 0.262861 0.0931894 0.0447458
355 2 0.265628 0.0984892 0.069024
2975 4 0.471589 0.0967303 0.0672253
23 3 0.470251 0.135406 0.0609607
21 1 0.486344 0.151383 0.0560451
254 4 0.450139 0.0950761 0.0660404
22 3 0.491928 0.162511 0.0753882
2760 4 0.0286164 0.170027 0.0195467
3261 4 0.0108193 0.176598 0.00972895
463 2 0.145903 0.200785 0.0249676
456 4 0.131977 0.232416 0.0403237
464 4 0.131225 0.220981 0.0235967
465 4 0.16058 0.18059 0.0263385
421 2 0.217745 0.239497 0.0169432
422 4 0.227342 0.242293 0.0398615
913 2 0.186431 0.169329 0.0687347
914 4 0.185667 0.194117 0.0655477
293 4 0.181966 0.209641 0.0784941
722 4 0.24931 0.170073 0.080699
902 4 0.300171 0.233723 0.0379833
296 4 0.309778 0.2159 0.0381443
295 2 0.303043 0.195938 0.0246783
297 4 0.296307 0.175976 0.0112124
358 2 0.384077 0.188675 0.0106789
359 4 0.390037 0.21023 0.0218612
282 4 0.387141 0.211467 0.0423847
280 2 0.408815 0.22223 0.0486751
24 3 0.477918 0.166673 0.0407608
281 4 0.430489 0.232993 0.0549655
3405 4 0.0442133 0.294947 0.0759684
3403 2 0.0256553 0.291937 0.0594846
3404 4 0.00709728 0.288926 0.0430008
454 2 0.122795 0.254637 0.047186
455 4 0.113612 0.276858 0.0540482
287 4 0.100775 0.272248 0.0681568
967 2 0.143454 0.338389 0.0551172
968 4 0.130955 0.327268 0.0736992
493 2 0.165477 0.322274 0.00407644
901 2 0.285263 0.245668 0.0541153
903 4 0.270355 0.257613 0.0702473
2839 2 0.471967 0.306811 0.00286261
1056 4 0.0142112 0.423571 0.987744
969 4 0.155952 0.34951 0.0365352
523 2 0.0902342 0.402327 0.0789721
416 4 0.130496 0.402078 0.0760331
2512 2 0.125613 0.389004 0.0381458
2514 4 0.115207 0.375684 0.0197211
495 4 0.160521 0.341895 0.0187609
2513 4 0.136019 0.402324 0.0565705
525 4 0.112717 0.391532 0.0807574
518 4 0.386088 0.343697 0.07755
528 4 0.386855 0.362793 0.0832135
526 2 0.405516 0.377515 0.0754533
2007 4 0.368047 0.34845 0.0219303
527 4 0.424176 0.392238 0.0676932
672 4 0.438574 0.406411 0.0713835
670 2 0.458758 0.400338 0.0579336
671 4 0.478942 0.394265 0.0444837
323 4 0.48886 0.406327 0.0310983
2841 4 0.465087 0.330023 0.00911105
3337 2 0.0182995 0.480019 0.0443694
3338 4 0.0248723 0.488907 0.0667966
3339 4 0.0117266 0.47113 0.0219423
14 3 0.335234 0.482262 0.0051161
15 3 0.366175 0.503069 0.0103503
11 1 0.358417 0.482086 0.00608843
12 3 0.365043 0.467977 0.0230051
596 4 0.374399 0.467108 0.0408388
13 3 0.367128 0.474348 0.986023
595 2 0.396372 0.456559 0.0464142
597 4 0.418345 0.446009 0.0519896
1475 4 0.252661 0.00407169 0.0954287
1661 4 0.24301 0.00781668 0.113306
1662 4 0.199342 0.028555 0.100511
1660 2 0.221176 0.0181858 0.106908
1749 4 0.372556 0.00943293 0.0932529
742 2 0.397789 0.0690444 0.135466
1747 2 0.378216 0.0244459 0.11243
1748 4 0.383876 0.0394589 0.131607
743 4 0.402966 0.0446386 0.137121
255 4 0.410699 0.0789775 0.0922326
705 4 0.0773496 0.173895 0.123477
237 4 0.14134 0.114954 0.161144
450 4 0.193416 0.121306 0.131031
448 2 0.185477 0.131016 0.109401
449 4 0.177537 0.140726 0.0877707
606 4 0.184247 0.112567 0.148558
604 2 0.207604 0.106666 0.155253
605 4 0.230961 0.100765 0.161948
721 2 0.266033 0.151682 0.083393
356 4 0.268396 0.103789 0.0933023
759 4 0.249425 0.100676 0.153062
758 4 0.26581 0.0895502 0.107144
757 2 0.257617 0.095113 0.130103
30 3 0.265461 0.0958858 0.164011
723 4 0.282757 0.13329 0.086087
693 4 0.297058 0.129538 0.0989489
691 2 0.316599 0.130502 0.114518
692 4 0.33614 0.131466 0.130086
1505 4 0.338687 0.132328 0.149868
744 4 0.392613 0.0934502 0.133811
1506 4 0.379131 0.103296 0.145159
1504 2 0.358909 0.117812 0.147513
253 2 0.430419 0.0870268 0.0791365
703 2 0.0671427 0.196412 0.119738
704 4 0.0569358 0.218929 0.115998
462 4 0.0413727 0.229825 0.120679
460 2 0.043616 0.250671 0.134303
507 4 0.138422 0.23287 0.153871
578 4 0.140503 0.213547 0.150207
577 2 0.135025 0.190281 0.157546
579 4 0.129547 0.167015 0.164885
292 2 0.195986 0.228098 0.0878722
580 2 0.244026 0.230351 0.114241
582 4 0.225702 0.246839 0.110052
581 4 0.26235 0.213863 0.11843
732 4 0.263694 0.212722 0.138896
730 2 0.267054 0.205885 0.162711
378 4 0.389625 0.234404 0.126454
376 2 0.394391 0.222177 0.147738
2876 4 0.407321 0.242148 0.121876
377 4 0.399157 0.20995 0.169021
2895 4 0.464171 0.173821 0.12747
2894 4 0.483144 0.178909 0.0814819
2893 2 0.473657 0.176365 0.104476
461 4 0.0458593 0.271517 0.147926
286 2 0.104569 0.288798 0.0865108
288 4 0.108364 0.305349 0.104865
477 4 0.115918 0.309751 0.121438
475 2 0.0979658 0.321089 0.134642
476 4 0.0800136 0.332427 0.147847
294 4 0.210006 0.246556 0.0972502
103 3 0.203113 0.266088 0.0930094
101 1 0.216208 0.278385 0.107697
105 3 0.228494 0.264353 0.120766
102 3 0.202459 0.291093 0.121063
278 4 0.203271 0.309138 0.111515
104 3 0.230284 0.292511 0.0958349
517 2 0.397849 0.327107 0.0920969
519 4 0.40961 0.310516 0.106644
2877 4 0.413723 0.291096 0.113892
2875 2 0.410522 0.266622 0.117884
308 4 0.465682 0.29643 0.102898
498 4 0.463859 0.315833 0.108434
496 2 0.46377 0.327528 0.130533
307 2 0.486736 0.294588 0.0895368
524 4 0.0677516 0.413122 0.0771867
755 4 0.0832384 0.342917 0.164608
415 2 0.145551 0.400256 0.095913
417 4 0.160606 0.398434 0.115793
361 2 0.165355 0.393108 0.152452
2093 4 0.128995 0.41555 0.144035
363 4 0.170181 0.387761 0.128508
277 2 0.205014 0.330753 0.123962
279 4 0.206757 0.352368 0.136409
1121 4 0.222597 0.363323 0.136658
1120 2 0.245077 0.371773 0.143618
1122 4 0.267557 0.380222 0.150577
1071 4 0.275557 0.382396 0.168568
1069 2 0.289449 0.400287 0.157981
497 4 0.463682 0.339223 0.152633
2771 4 0.0307063 0.442889 0.153746
2770 2 0.0518388 0.43407 0.143705
2772 4 0.0729713 0.425251 0.133664
314 4 0.0105198 0.441168 0.158173
768 4 0.128223 0.493253 0.102106
2094 4 0.0841512 0.413376 0.122013
2092 2 0.106573 0.414463 0.133024
766 2 0.14709 0.477999 0.0960608
767 4 0.165957 0.462745 0.090016
637 2 0.203422 0.466316 0.103826
638 4 0.185662 0.462984 0.0865432
639 4 0.221181 0.469647 0.121108
1863 4 0.237255 0.460872 0.112151
1070 4 0.303342 0.418178 0.147393
609 4 0.320256 0.407695 0.151349
1862 4 0.285078 0.469426 0.100296
1861 2 0.261166 0.465149 0.106224
607 2 0.342462 0.416688 0.158502
380 4 0.0110018 0.0434195 0.180079
233 4 0.0222874 0.0299574 0.190869
232 2 0.0261821 0.0392322 0.21376
234 4 0.0300769 0.048507 0.236651
2675 4 0.0246499 0.0628259 0.248285
249 4 0.239875 0.00814458 0.187686
405 4 0.223701 0.0495367 0.230767
403 2 0.237538 0.0703426 0.229853
393 4 0.233926 0.0349992 0.239374
1566 4 0.253744 0.998989 0.175833
1564 2 0.275314 0.997953 0.163228
27 3 0.260846 0.0783868 0.196651
2702 4 0.463259 0.0343153 0.25649
2701 2 0.486026 0.0338369 0.246166
697 2 0.451751 0.0758523 0.246457
2674 2 0.0279233 0.0875609 0.246659
2676 4 0.0311966 0.112296 0.245034
1220 4 0.0528159 0.157727 0.22161
235 2 0.132788 0.136067 0.171452
236 4 0.124236 0.157181 0.181761
1272 4 0.104984 0.10412 0.254185
28 3 0.232742 0.0988751 0.182401
404 4 0.251375 0.0911486 0.22894
516 4 0.259121 0.109611 0.21586
26 1 0.25579 0.0973046 0.18458
29 3 0.263957 0.115836 0.195907
514 2 0.270431 0.1193 0.235944
2910 4 0.30063 0.133225 0.249818
2572 2 0.4535 0.118986 0.210734
2574 4 0.447979 0.132996 0.190774
2573 4 0.459021 0.104976 0.230695
699 4 0.445207 0.0998647 0.244055
1219 2 0.0609373 0.180103 0.22926
1221 4 0.0690587 0.20248 0.23691
459 4 0.0732959 0.215025 0.222757
457 2 0.0910488 0.231592 0.228719
251 4 0.226271 0.190865 0.207102
546 4 0.219632 0.175225 0.216591
250 2 0.221766 0.214707 0.213137
252 4 0.217262 0.23855 0.219172
544 2 0.223189 0.161502 0.237187
731 4 0.270415 0.199047 0.186525
350 4 0.27301 0.203199 0.205828
349 2 0.275645 0.197422 0.230012
351 4 0.27828 0.191646 0.254196
764 4 0.295352 0.200569 0.257794
628 2 0.415972 0.213455 0.199313
629 4 0.411541 0.224482 0.177314
630 4 0.420404 0.202427 0.221311
332 4 0.418793 0.202284 0.241492
331 2 0.428833 0.181973 0.252069
623 4 0.0512233 0.26887 0.167163
622 2 0.0735393 0.271829 0.178045
395 4 0.007487 0.314501 0.22256
394 2 0.0146419 0.333363 0.207788
3573 4 0.987512 0.310849 0.221555
505 2 0.12365 0.249352 0.165504
458 4 0.108802 0.248159 0.234682
624 4 0.0958553 0.274788 0.188928
506 4 0.108878 0.265833 0.177137
750 4 0.105595 0.267859 0.23605
285 4 0.218696 0.256267 0.210398
283 2 0.223556 0.267224 0.232341
610 2 0.334959 0.311495 0.234783
612 4 0.318438 0.30936 0.216137
345 4 0.302139 0.314883 0.243895
611 4 0.351481 0.313631 0.253429
754 2 0.059552 0.344523 0.172454
396 4 0.0217968 0.352225 0.193016
756 4 0.0358655 0.34613 0.180299
262 2 0.0848117 0.406215 0.246207
362 4 0.160529 0.398455 0.176396
289 2 0.151911 0.385725 0.21694
290 4 0.153052 0.372816 0.238323
291 4 0.150771 0.398634 0.195557
735 4 0.163193 0.357404 0.244125
385 2 0.391577 0.361368 0.215396
386 4 0.404619 0.362188 0.194079
276 4 0.417264 0.3707 0.18012
387 4 0.378535 0.360547 0.236713
608 4 0.364669 0.425682 0.165655
1575 4 0.366342 0.375483 0.240738
2536 2 0.48762 0.386019 0.174484
275 4 0.450002 0.335151 0.167266
274 2 0.433633 0.352926 0.173693
2537 4 0.474566 0.403319 0.186954
714 4 0.457074 0.396902 0.194097
712 2 0.441474 0.391813 0.212962
713 4 0.425873 0.386724 0.231828
2862 4 0.416449 0.395552 0.247897
264 4 0.0830915 0.428113 0.234262
313 2 0.00705509 0.442481 0.182901
315 4 0.00359036 0.443795 0.207628
1382 4 0.0782175 0.445362 0.244602
728 4 0.136016 0.430797 0.183905
727 2 0.150993 0.449009 0.175586
729 4 0.165969 0.467221 0.167268
339 4 0.173897 0.474396 0.185005
337 2 0.184126 0.489367 0.202222
338 4 0.194356 0.504337 0.219439
626 4 0.282753 0.470651 0.254908
740 4 0.376573 0.43711 0.153375
739 2 0.393593 0.451857 0.16424
741 4 0.410614 0.466603 0.175105
303 4 0.430143 0.465135 0.176368
301 2 0.428667 0.486114 0.189891
1868 4 0.139821 0.00490836 0.329309
2850 4 0.117837 0.0374592 0.262882
2849 4 0.112151 0.0871313 0.263919
2848 2 0.114994 0.0622952 0.263401
429 4 0.15443 0.00228622 0.315496
427 2 0.17617 0.00905761 0.305166
428 4 0.19791 0.015829 0.294837
392 4 0.202724 0.0178543 0.274491
391 2 0.218325 0.0264267 0.256932
2642 4 0.320303 0.047917 0.301251
480 4 0.30378 0.0487663 0.291143
478 2 0.292827 0.0699937 0.283754
2641 2 0.336193 0.0509769 0.320312
698 4 0.458294 0.0518399 0.24886
521 4 0.484179 0.0639593 0.272593
512 4 0.0209487 0.129497 0.243339
513 4 0.0273066 0.15255 0.287257
511 2 0.0241276 0.141024 0.265298
1270 2 0.0861372 0.118275 0.262529
1271 4 0.0672902 0.13243 0.270872
545 4 0.226746 0.147779 0.257783
470 4 0.229971 0.139678 0.343717
530 4 0.23157 0.14933 0.325389
529 2 0.227721 0.144946 0.301075
531 4 0.223872 0.140563 0.276762
515 4 0.281741 0.12899 0.256028
2908 2 0.312546 0.133865 0.27179
2909 4 0.324462 0.134505 0.293763
479 4 0.281874 0.0912211 0.276365
2657 4 0.328974 0.120251 0.308348
2656 2 0.346045 0.113357 0.325266
633 4 0.460542 0.14841 0.313534
631 2 0.455776 0.147081 0.289025
632 4 0.45101 0.145752 0.264516
333 4 0.438873 0.161663 0.262645
2484 4 0.0111527 0.15864 0.297018
2692 2 0.0432921 0.211478 0.305497
2693 4 0.0280964 0.223466 0.321326
2694 4 0.0584878 0.199489 0.289668
389 4 0.237645 0.23992 0.309635
388 2 0.232647 0.253199 0.289047
763 2 0.312919 0.216316 0.266076
510 4 0.346658 0.240831 0.265093
765 4 0.330486 0.232064 0.274358
508 2 0.35353 0.254496 0.284873
748 2 0.115701 0.281415 0.254469
749 4 0.125808 0.294971 0.272888
618 4 0.121474 0.292987 0.293272
616 2 0.126829 0.316282 0.300609
284 4 0.228417 0.278181 0.254284
344 4 0.259108 0.317367 0.269249
390 4 0.227649 0.266478 0.268459
364 2 0.23607 0.341518 0.280002
343 2 0.280624 0.316125 0.256572
365 4 0.254979 0.326457 0.286385
509 4 0.360402 0.26816 0.304652
717 4 0.363227 0.287365 0.308044
715 2 0.375016 0.290099 0.329924
2591 4 0.466336 0.258244 0.310563
2590 2 0.48629 0.258664 0.295502
263 4 0.0865319 0.384316 0.258152
413 4 0.0737527 0.37544 0.270229
535 2 0.0174826 0.401665 0.313647
537 4 0.0301137 0.380912 0.307733
412 2 0.0549282 0.369459 0.28556
414 4 0.0361037 0.363478 0.300891
617 4 0.132185 0.339578 0.307945
2654 4 0.128619 0.358179 0.314845
2653 2 0.136397 0.381941 0.31506
2655 4 0.144176 0.405703 0.315275
3671 4 0.133713 0.422211 0.318051
733 2 0.184601 0.350379 0.254966
734 4 0.20601 0.343354 0.265807
366 4 0.21716 0.35658 0.27362
645 4 0.266672 0.339728 0.295466
244 2 0.256981 0.404315 0.29337
245 4 0.247654 0.402559 0.316502
643 2 0.28943 0.345989 0.303718
644 4 0.312187 0.352249 0.311969
246 4 0.266308 0.40607 0.270238
1802 4 0.332114 0.410894 0.270784
1574 4 0.351252 0.415687 0.266364
1573 2 0.358797 0.395585 0.253551
2860 2 0.427822 0.406799 0.267115
1381 2 0.0934338 0.457696 0.260142
1383 4 0.10865 0.47003 0.275683
3672 4 0.119945 0.455386 0.283258
3670 2 0.126829 0.438798 0.300655
677 4 0.201039 0.466803 0.27624
676 2 0.198094 0.486733 0.291049
625 2 0.274132 0.447539 0.258995
627 4 0.265511 0.424427 0.263082
751 2 0.318165 0.478329 0.313022
752 4 0.315869 0.453434 0.313355
1801 2 0.331845 0.429615 0.287356
1803 4 0.331575 0.448336 0.303928
542 4 0.385081 0.436621 0.29445
541 2 0.402154 0.442868 0.311616
543 4 0.419226 0.449114 0.328783
3989 4 0.471699 0.479068 0.28977
2861 4 0.439196 0.418046 0.286333
3990 4 0.453541 0.432649 0.285734
3988 2 0.46262 0.455859 0.287752
3602 4 0.486453 0.491832 0.287092
2236 2 0.0703092 0.0217373 0.390095
165 3 0.0167578 0.0700986 0.408485
2237 4 0.0589682 0.039105 0.404056
163 3 0.0513679 0.0558197 0.412474
2238 4 0.0816502 0.00436971 0.376133
2643 4 0.352083 0.0540367 0.339373
599 4 0.379859 0.0274557 0.388065
598 2 0.365047 0.0314245 0.368316
600 4 0.350235 0.0353933 0.348567
1518 4 0.393129 0.0423648 0.387125
1517 4 0.442014 0.0466273 0.377491
1516 2 0.417572 0.044496 0.382308
2880 4 0.443494 0.0627756 0.364855
162 3 0.0465671 0.0915181 0.401739
708 4 0.129275 0.12829 0.347531
706 2 0.152923 0.120533 0.349936
707 4 0.176571 0.112775 0.35234
469 2 0.208078 0.133041 0.353806
471 4 0.186184 0.126404 0.363896
371 4 0.241631 0.1402 0.414826
650 4 0.261045 0.139558 0.407751
649 2 0.266848 0.127447 0.38666
651 4 0.272651 0.115336 0.365569
2658 4 0.363116 0.106463 0.342184
1031 4 0.352485 0.116161 0.354612
1030 2 0.347462 0.119554 0.37887
1032 4 0.342439 0.122947 0.403127
3159 4 0.325145 0.124461 0.416035
2879 4 0.444726 0.105639 0.339127
2878 2 0.44411 0.0842071 0.351991
2552 4 0.479773 0.0950953 0.368866
2551 2 0.487939 0.0911983 0.392175
762 4 0.485413 0.106033 0.351668
300 4 0.0166861 0.210907 0.331906
340 2 0.142071 0.209571 0.397278
341 4 0.121079 0.204161 0.384819
342 4 0.163064 0.214981 0.409736
402 4 0.18145 0.224184 0.409577
400 2 0.195792 0.208217 0.422404
716 4 0.386806 0.292832 0.351804
488 4 0.381573 0.303552 0.368711
487 2 0.392495 0.305788 0.391091
489 4 0.403418 0.308024 0.413472
2137 2 0.0747363 0.411624 0.398242
2139 4 0.0872837 0.391716 0.389791
710 4 0.105182 0.39063 0.397658
375 4 0.211559 0.369841 0.382764
373 2 0.22057 0.385203 0.400315
435 4 0.314383 0.362395 0.329669
433 2 0.321754 0.385048 0.337267
434 4 0.329124 0.4077 0.344865
585 4 0.387655 0.391817 0.406934
615 4 0.338231 0.408457 0.362756
119 3 0.396827 0.374123 0.40588
568 2 0.0622341 0.475613 0.400072
2138 4 0.062189 0.431532 0.406694
569 4 0.0598817 0.451023 0.403938
1555 2 0.133423 0.489656 0.396706
1556 4 0.139461 0.470913 0.412115
614 4 0.319913 0.447292 0.388388
613 2 0.329072 0.427874 0.375572
584 4 0.394111 0.441399 0.407736
583 2 0.390883 0.416608 0.407335
2108 4 0.336052 0.458549 0.383771
2107 2 0.337515 0.472642 0.404373
1485 4 0.43718 0.459702 0.327858
1483 2 0.434654 0.480774 0.341078
164 3 0.0383415 0.0816961 0.437073
161 1 0.0381045 0.0746969 0.414952
983 4 0.99615 0.0437874 0.479989
1033 2 0.00564712 0.0813701 0.470297
682 2 0.396932 0.0306566 0.451551
684 4 0.412675 0.0489128 0.444915
4162 2 0.441872 0.00255003 0.432873
4164 4 0.444122 0.0143605 0.454796
1061 4 0.414099 0.0523488 0.465213
1060 2 0.430323 0.0709815 0.469056
420 4 0.493254 0.0878877 0.434957
937 2 0.0492463 0.129385 0.467658
938 4 0.0269018 0.119613 0.473172
1034 4 0.0206529 0.101349 0.469377
939 4 0.0715907 0.139158 0.462144
2613 4 0.0160404 0.154064 0.470383
472 2 0.20128 0.151531 0.475099
474 4 0.201188 0.145811 0.499439
370 2 0.224534 0.155274 0.425104
3158 4 0.354701 0.11902 0.456004
3157 2 0.339923 0.12174 0.436019
2502 4 0.348281 0.135535 0.466299
2500 2 0.349054 0.153364 0.483812
2501 4 0.349827 0.171194 0.501325
2553 4 0.496105 0.0873014 0.415484
2517 4 0.437614 0.154386 0.496655
1062 4 0.446548 0.0896142 0.472898
2516 4 0.44005 0.108923 0.475969
2515 2 0.438832 0.131654 0.486312
2611 2 0.0140528 0.17274 0.486889
2847 4 0.0144937 0.206634 0.491103
2845 2 0.0254037 0.229038 0.493162
825 4 0.171276 0.236948 0.489085
369 4 0.153483 0.234716 0.495941
401 4 0.210133 0.19225 0.435232
372 4 0.207437 0.170348 0.435383
473 4 0.201373 0.157251 0.450759
1191 4 0.222739 0.205741 0.4435
1189 2 0.229698 0.216559 0.46494
1190 4 0.236658 0.227377 0.486381
320 4 0.315516 0.278032 0.430889
319 2 0.31464 0.254098 0.438072
642 4 0.327034 0.215925 0.45355
640 2 0.321774 0.215256 0.477985
321 4 0.313763 0.230165 0.445256
312 4 0.482574 0.192725 0.448248
310 2 0.471267 0.214174 0.454353
311 4 0.45996 0.235623 0.460458
452 4 0.452012 0.246228 0.47575
2635 2 0.985346 0.279969 0.438006
1639 2 0.999206 0.330151 0.500906
2636 4 0.991837 0.26703 0.458393
1640 4 0.0228588 0.322535 0.503684
443 4 0.0785161 0.308465 0.445101
2846 4 0.0363137 0.251441 0.495221
444 4 0.116668 0.340735 0.447049
442 2 0.0975922 0.3246 0.446075
669 4 0.159145 0.269949 0.438056
667 2 0.158471 0.293855 0.430759
635 4 0.164381 0.330869 0.437683
823 2 0.162784 0.244259 0.466733
824 4 0.154291 0.251569 0.444381
1394 4 0.234174 0.247349 0.48866
668 4 0.157796 0.31776 0.423461
773 4 0.18148 0.323864 0.505269
267 4 0.409767 0.323585 0.425066
265 2 0.428479 0.308844 0.432666
453 4 0.442754 0.293009 0.460696
266 4 0.447191 0.294104 0.440267
451 2 0.447383 0.269619 0.468223
709 2 0.119328 0.384378 0.417304
711 4 0.133474 0.378126 0.436951
636 4 0.148349 0.376777 0.449349
696 4 0.131669 0.355964 0.48661
634 2 0.156365 0.353823 0.443516
602 4 0.233793 0.392201 0.43562
374 4 0.22958 0.400564 0.417866
601 2 0.233206 0.380134 0.457511
603 4 0.232619 0.368067 0.479402
873 4 0.244902 0.353677 0.486226
1171 2 0.30984 0.41495 0.481582
116 1 0.400613 0.358734 0.422829
120 3 0.416062 0.366901 0.437432
118 3 0.408061 0.338693 0.413812
2925 4 0.383292 0.373504 0.445158
2923 2 0.365929 0.38902 0.454267
117 3 0.380864 0.354975 0.434008
2924 4 0.348566 0.404535 0.463376
1173 4 0.332616 0.406115 0.476254
1444 2 0.155665 0.460169 0.437941
1445 4 0.134573 0.471872 0.43136
326 4 0.183859 0.431363 0.451765
1446 4 0.176758 0.448466 0.444522
325 2 0.182276 0.43016 0.47669
327 4 0.180693 0.428957 0.501614
2109 4 0.338979 0.486734 0.424974
2314 2 0.221203 0.0378476 0.557684
2315 4 0.205493 0.0561112 0.564377
1182 4 0.196238 0.063957 0.549083
2316 4 0.236914 0.0195839 0.55099
1180 2 0.201425 0.0865809 0.539786
1151 4 0.231762 0.00841785 0.535373
1141 2 0.420568 0.0465271 0.546304
1142 4 0.42889 0.0650161 0.560936
1143 4 0.412245 0.0280381 0.531673
842 4 0.413489 0.00719696 0.5374
1163 4 0.451834 0.01506 0.570012
841 2 0.432254 0.997766 0.52383
9 3 0.160448 0.160953 0.545144
944 4 0.154358 0.141635 0.585956
1181 4 0.206612 0.109205 0.530489
725 4 0.21567 0.119789 0.545164
724 2 0.214354 0.138617 0.528764
726 4 0.213038 0.157445 0.512365
576 4 0.43352 0.0802909 0.572858
574 2 0.455871 0.0914876 0.573363
575 4 0.478221 0.102684 0.573868
2612 4 0.0120652 0.191415 0.503395
7 3 0.13958 0.171023 0.574737
6 1 0.154966 0.178467 0.559343
368 4 0.135716 0.20598 0.53281
10 3 0.145926 0.195618 0.547394
367 2 0.1446 0.220348 0.514375
8 3 0.173901 0.185771 0.57059
348 4 0.193184 0.182656 0.576452
346 2 0.202063 0.201967 0.58962
411 4 0.215949 0.23698 0.591898
641 4 0.316515 0.214586 0.50242
900 4 0.361713 0.186034 0.508168
898 2 0.372627 0.196729 0.527958
899 4 0.383542 0.207424 0.547749
269 4 0.403813 0.170022 0.570893
858 4 0.393505 0.183054 0.581534
270 4 0.447965 0.189033 0.557114
3309 4 0.465494 0.182883 0.565054
3307 2 0.48919 0.187915 0.55886
268 2 0.425889 0.179528 0.564004
259 2 0.0300406 0.286138 0.515499
261 4 0.0356264 0.262041 0.511849
260 4 0.0244549 0.310235 0.519148
934 2 0.138352 0.312371 0.555332
935 4 0.121714 0.299892 0.56921
3045 4 0.132529 0.282825 0.570326
3043 2 0.138702 0.259618 0.57729
695 4 0.155645 0.331528 0.523062
936 4 0.154991 0.32485 0.541453
409 2 0.214448 0.24962 0.570377
410 4 0.212946 0.26226 0.548856
1395 4 0.210031 0.265238 0.528633
1393 2 0.222103 0.256294 0.508646
811 2 0.297527 0.292917 0.5114
813 4 0.302209 0.268373 0.5105
812 4 0.292845 0.317462 0.512301
872 4 0.272648 0.318147 0.507871
1136 4 0.0178575 0.413566 0.579312
1041 4 0.0190661 0.396551 0.588908
694 2 0.143657 0.343746 0.504836
2242 2 0.138277 0.4121 0.506234
2244 4 0.1614 0.421611 0.505987
539 4 0.0990456 0.40903 0.497148
774 4 0.225793 0.346237 0.511313
772 2 0.203637 0.335051 0.508291
871 2 0.258775 0.335912 0.497049
890 4 0.332078 0.356652 0.547803
891 4 0.368431 0.378815 0.574031
889 2 0.350254 0.367733 0.560917
1239 4 0.378084 0.370526 0.588961
1135 2 0.0303322 0.418447 0.5582
540 4 0.0585008 0.417369 0.525206
1137 4 0.042807 0.423328 0.537087
3353 4 0.00869138 0.440652 0.547933
3352 2 0.00131574 0.463875 0.542325
3354 4 0.99394 0.487099 0.536717
2243 4 0.115154 0.40259 0.50648
538 2 0.0787732 0.4132 0.511177
1028 4 0.285991 0.44142 0.49498
1172 4 0.287064 0.423784 0.48691
1205 4 0.279895 0.433059 0.555891
1027 2 0.277601 0.44209 0.518524
1029 4 0.269211 0.44276 0.542068
1204 2 0.292102 0.428562 0.577244
1454 4 0.315262 0.486307 0.580824
882 4 0.328212 0.474881 0.589878
1952 4 0.43683 0.507691 0.522407
1951 2 0.459948 0.498433 0.520166
1818 4 0.155944 0.996396 0.597362
1154 4 0.164261 0.0689407 0.648416
1283 4 0.158937 0.0847355 0.659538
1153 2 0.170958 0.0796605 0.626842
1255 2 0.234871 0.0445758 0.654112
1257 4 0.222852 0.0231142 0.658597
1256 4 0.246891 0.0660373 0.649627
959 4 0.250742 0.0777063 0.634235
1131 4 0.327605 0.0851454 0.600198
1129 2 0.336761 0.0660745 0.613527
1130 4 0.345916 0.0470036 0.626856
1004 4 0.363445 0.0559155 0.632804
1003 2 0.362992 0.0434783 0.65449
1164 4 0.483777 0.045157 0.593982
1162 2 0.467805 0.0301085 0.581997
834 4 0.0872722 0.130617 0.6758
917 4 0.137425 0.152418 0.58179
916 2 0.126714 0.156355 0.604037
918 4 0.116004 0.160292 0.626285
1212 4 0.0995902 0.163639 0.63859
943 2 0.170766 0.123208 0.59001
945 4 0.187174 0.104782 0.594063
1155 4 0.177654 0.0903803 0.605269
958 2 0.246147 0.0884179 0.612115
960 4 0.241551 0.0991295 0.589994
950 4 0.29634 0.158472 0.622131
2319 4 0.301459 0.139165 0.624909
2317 2 0.306855 0.116284 0.616395
2318 4 0.312252 0.0934019 0.607881
3461 4 0.125532 0.229341 0.58595
3044 4 0.144875 0.236411 0.584254
3460 2 0.109957 0.222311 0.604203
3462 4 0.0943824 0.215282 0.622457
1210 2 0.110386 0.183168 0.649871
347 4 0.210943 0.221279 0.602788
1086 4 0.239803 0.243075 0.637219
949 2 0.301997 0.182779 0.623663
976 2 0.27877 0.236115 0.636117
977 4 0.298751 0.221458 0.632784
951 4 0.307654 0.207086 0.625195
856 2 0.387653 0.187247 0.605479
857 4 0.3818 0.19144 0.629423
895 2 0.164456 0.280798 0.665058
1084 2 0.217112 0.251558 0.643413
1085 4 0.194422 0.260041 0.649608
897 4 0.174428 0.267659 0.646267
978 4 0.258788 0.250772 0.639449
805 2 0.439103 0.31111 0.664005
806 4 0.435959 0.329713 0.647597
1281 4 0.0493953 0.365479 0.634008
3420 4 0.0404979 0.35339 0.646677
3418 2 0.0162529 0.347297 0.646195
1279 2 0.0698352 0.351606 0.630144
1280 4 0.0902751 0.337733 0.62628
942 4 0.168206 0.403506 0.606833
940 2 0.17698 0.385633 0.621958
941 4 0.185754 0.367761 0.637083
1098 4 0.176392 0.350984 0.640995
1138 2 0.336293 0.409898 0.622657
1140 4 0.357355 0.398986 0.630562
1237 2 0.402381 0.376404 0.588409
1238 4 0.426677 0.382282 0.587857
1017 4 0.362463 0.386547 0.644983
804 4 0.429502 0.367234 0.601631
802 2 0.43926 0.355016 0.621142
803 4 0.449019 0.342798 0.640652
2130 4 0.154654 0.46076 0.581776
1982 4 0.0985381 0.493989 0.583448
1981 2 0.116857 0.477351 0.579877
1983 4 0.135177 0.460712 0.576307
2128 2 0.1658 0.439103 0.587426
2129 4 0.176946 0.417446 0.593076
1713 4 0.182562 0.481508 0.622591
2434 2 0.224927 0.486354 0.610529
2435 4 0.201807 0.489409 0.619548
1139 4 0.315231 0.42081 0.614753
1206 4 0.304309 0.424065 0.598597
2436 4 0.248046 0.483299 0.601511
1455 4 0.267735 0.486914 0.596364
1453 2 0.291498 0.486611 0.588594
3371 4 0.418261 0.50061 0.626291
881 4 0.376159 0.46584 0.600837
3370 2 0.402905 0.481469 0.621497
3372 4 0.387549 0.462327 0.616703
880 2 0.352186 0.470361 0.595357
3179 4 0.0102098 0.0614939 0.676176
965 4 0.31484 0.0458811 0.711571
964 2 0.33731 0.0376344 0.704343
1005 4 0.362539 0.0310411 0.676176
966 4 0.359781 0.0293876 0.697116
886 2 0.474984 0.0167128 0.679914
953 4 0.446737 0.0480946 0.68166
888 4 0.463362 0.0379896 0.68603
952 2 0.453291 0.0696866 0.692431
832 2 0.0713094 0.149766 0.677712
833 4 0.0553466 0.168916 0.679624
1178 4 0.0479143 0.158516 0.695172
1177 2 0.0271217 0.155614 0.708752
1179 4 0.00632916 0.152711 0.722332
1282 2 0.141453 0.0919522 0.67589
1284 4 0.123968 0.0991689 0.692242
948 4 0.131745 0.117646 0.696644
851 4 0.149503 0.159061 0.72679
947 4 0.129094 0.156826 0.727606
946 2 0.130419 0.137236 0.712125
2255 4 0.268984 0.147477 0.703842
2254 2 0.259534 0.162606 0.721363
1026 4 0.477796 0.0863276 0.709171
954 4 0.459845 0.0912786 0.703201
1024 2 0.501475 0.0933984 0.712977
924 4 0.0123659 0.240878 0.739503
1211 4 0.121181 0.202697 0.661151
1258 2 0.118715 0.210141 0.700347
1259 4 0.110217 0.204005 0.677646
1260 4 0.127212 0.216276 0.723047
1299 4 0.118582 0.216068 0.742832
2256 4 0.250084 0.177736 0.738884
906 4 0.482533 0.233035 0.753227
904 2 0.492761 0.243047 0.732725
152 3 0.995588 0.245485 0.72828
896 4 0.154484 0.293937 0.683849
992 4 0.144937 0.310719 0.688068
991 2 0.133575 0.331258 0.696684
1278 4 0.209816 0.330518 0.68783
798 4 0.29684 0.311243 0.738865
1044 4 0.308321 0.294927 0.733255
796 2 0.285741 0.32837 0.72442
792 4 0.40172 0.250399 0.693817
807 4 0.442247 0.292507 0.680413
790 2 0.419138 0.268252 0.695552
791 4 0.436557 0.286106 0.697287
998 4 0.480302 0.32261 0.677836
885 4 0.0655399 0.39742 0.72951
883 2 0.0469597 0.393156 0.74569
884 4 0.0283795 0.388892 0.761869
1067 4 0.0775491 0.380806 0.726692
993 4 0.122213 0.351797 0.705301
1068 4 0.123207 0.360789 0.722776
1066 2 0.100378 0.370797 0.724734
1096 2 0.184231 0.34488 0.66394
1097 4 0.19207 0.338775 0.686885
1276 2 0.232617 0.334531 0.697274
1277 4 0.255417 0.338544 0.706719
797 4 0.274642 0.345497 0.709975
1015 2 0.370535 0.377143 0.666699
1016 4 0.378607 0.367739 0.688415
1019 4 0.384541 0.364571 0.706036
1018 2 0.389565 0.36776 0.730321
84 3 0.314749 0.462241 0.730697
81 1 0.32568 0.47703 0.744846
85 3 0.31264 0.495334 0.748532
83 3 0.345905 0.483476 0.735474
1007 4 0.481185 0.466689 0.668739
1006 2 0.487352 0.443595 0.676077
1214 4 0.0705243 0.0232703 0.823738
1213 2 0.0593185 0.00189946 0.830287
3591 4 0.124081 0.0160095 0.746546
2990 4 0.14281 0.0142509 0.752426
2989 2 0.154758 0.0269972 0.770313
2991 4 0.166706 0.0397434 0.7882
908 4 0.16679 0.053089 0.803532
1037 4 0.294813 0.998984 0.827322
818 4 0.445734 0.017874 0.799825
845 4 0.459153 0.027809 0.810316
844 2 0.448439 0.0480485 0.820353
864 4 0.0759862 0.158095 0.78518
870 4 0.094322 0.158567 0.791072
868 2 0.118135 0.159095 0.798679
33 3 0.161268 0.161164 0.81229
850 2 0.157819 0.164662 0.749696
869 4 0.141947 0.159623 0.806286
1023 4 0.208589 0.156134 0.788825
31 1 0.182526 0.167142 0.819415
35 3 0.198226 0.156589 0.806734
862 2 0.0702285 0.181044 0.777095
863 4 0.0644709 0.203993 0.76901
923 4 0.0500895 0.213781 0.758035
922 2 0.0312277 0.22733 0.748769
1297 2 0.119547 0.20109 0.76283
1298 4 0.120513 0.186112 0.782827
852 4 0.166135 0.170262 0.772601
1021 2 0.220216 0.164605 0.768374
34 3 0.185232 0.190134 0.817851
838 2 0.192522 0.245871 0.803001
839 4 0.198924 0.235436 0.824802
1022 4 0.231843 0.173077 0.747924
1092 4 0.246762 0.214609 0.816061
3329 4 0.255414 0.228287 0.80318
1090 2 0.25532 0.193432 0.826231
3328 2 0.27459 0.234246 0.788282
1193 4 0.498021 0.17761 0.814518
1011 4 0.477629 0.21669 0.762416
1009 2 0.48106 0.201854 0.782247
1010 4 0.48449 0.187018 0.802079
1064 4 0.213631 0.331461 0.764075
1208 4 0.213208 0.311613 0.761097
840 4 0.18612 0.256306 0.781199
1209 4 0.190224 0.26736 0.76485
1207 2 0.201716 0.289487 0.762974
1042 2 0.30512 0.276467 0.749813
3330 4 0.293766 0.240206 0.773385
1043 4 0.301919 0.258007 0.76637
815 4 0.00899632 0.382729 0.75562
814 2 0.00104677 0.361221 0.765589
57 3 0.23504 0.337292 0.823427
1063 2 0.19311 0.345538 0.766504
1241 4 0.180578 0.379025 0.76685
1065 4 0.172588 0.359615 0.768933
1240 2 0.184736 0.400029 0.779763
821 4 0.233531 0.394937 0.821611
56 1 0.239479 0.355041 0.83737
1020 4 0.39459 0.37095 0.754606
187 3 0.401962 0.370604 0.773638
188 3 0.381729 0.376485 0.804762
186 1 0.402719 0.378756 0.795135