ITEM: TIMESTEP
3070000
ITEM: NUMBER OF ATOMS
4590
ITEM: BOX BOUNDS pp pp pp
-9.9985700000000008e+00 9.9985700000000008e+00
-9.9985700000000008e+00 9.9985700000000008e+00
-9.9985700000000008e+00 9.9985700000000008e+00
ITEM: ATOMS id type xs ys zs
3232 2 0.0481326 0.00674465 0.0604623
3234 4 0.0717031 0.0127661 0.0662376
702 4 0.0829888 0.0294116 0.0704007
700 2 0.096331 0.0504927 0.0720591
463 2 0.0929525 0.0614871 0.0151878
701 4 0.109673 0.0715739 0.0737175
465 4 0.102032 0.0759649 0.03344
746 4 0.435661 0.0777858 0.0365837
1607 4 0.446434 0.0798358 0.0199269
557 4 0.458745 0.0138579 0.0858231
745 2 0.453979 0.0792762 0.0535367
2623 2 0.0100169 0.0871848 0.0420716
655 2 0.0416338 0.134733 0.0333887
656 4 0.0392325 0.11074 0.026775
2624 4 0.0286913 0.0934084 0.0266537
657 4 0.044035 0.158726 0.0400025
554 4 0.115307 0.0906214 0.0327344
553 2 0.117042 0.114204 0.0246095
555 4 0.118776 0.137787 0.0164846
837 4 0.127368 0.153064 0.00537766
355 2 0.228372 0.130587 0.0622919
357 4 0.234703 0.153711 0.0551948
356 4 0.222041 0.107463 0.069389
571 2 0.258564 0.154993 0.0207294
747 4 0.472297 0.0807667 0.0704896
2976 4 0.486675 0.0955544 0.0672149
738 4 0.0354486 0.176797 0.0373235
736 2 0.0553247 0.186175 0.0253994
737 4 0.0752008 0.195552 0.0134753
835 2 0.108834 0.168229 0.0125661
294 4 0.160953 0.207241 0.0242064
836 4 0.0902997 0.183394 0.0197545
456 4 0.158094 0.220415 0.0403641
292 2 0.165886 0.196969 0.00195056
573 4 0.237516 0.154164 0.0342018
454 2 0.166345 0.24311 0.0468496
360 4 0.293741 0.159667 0.993371
296 4 0.263217 0.2215 0.0321121
295 2 0.276388 0.215003 0.0118763
902 4 0.255997 0.238442 0.0389843
2806 2 0.0616335 0.279129 0.0132093
2807 4 0.066696 0.274322 0.0372185
477 4 0.0800188 0.282582 0.0479297
475 2 0.0854412 0.273148 0.0704413
286 2 0.153141 0.293259 0.0714551
455 4 0.174595 0.265805 0.0533351
287 4 0.1612 0.280878 0.0512823
903 4 0.25496 0.287733 0.0306154
901 2 0.255479 0.263088 0.0347998
526 2 0.398039 0.273327 0.0525746
528 4 0.375491 0.272241 0.0633252
527 4 0.420588 0.274414 0.041824
102 3 0.348012 0.349058 0.0072943
2840 4 0.435749 0.282785 0.0520583
2839 2 0.451024 0.300657 0.0435479
2841 4 0.466299 0.31853 0.0350375
672 4 0.467359 0.330077 0.0185844
2513 4 0.0639434 0.382317 0.0594857
329 4 0.0649678 0.3775 0.0388461
2512 2 0.0487637 0.362449 0.0595511
328 2 0.078036 0.395953 0.0281743
2514 4 0.033584 0.34258 0.0596164
330 4 0.0911042 0.414406 0.0175025
495 4 0.222059 0.410343 0.0130641
494 4 0.187531 0.414052 0.0490473
493 2 0.204795 0.412198 0.0310557
969 4 0.277549 0.364662 0.0743071
1071 4 0.386354 0.337723 0.0789923
1122 4 0.374447 0.350053 0.0681966
1120 2 0.365369 0.344875 0.045482
1121 4 0.356291 0.339696 0.0227674
14 3 0.394274 0.396229 0.0347701
11 1 0.395155 0.418761 0.0402429
12 3 0.390873 0.421127 0.0627198
741 4 0.376319 0.37908 0.0852302
670 2 0.480258 0.350931 0.0234742
671 4 0.493156 0.371786 0.0283639
322 2 0.474069 0.410036 0.0218144
323 4 0.479536 0.385926 0.0255538
1710 4 0.0812882 0.501813 0.058607
552 4 0.0802255 0.423823 0.00233288
242 4 0.23636 0.425184 0.0098397
241 2 0.240953 0.449261 0.00490186
525 4 0.184222 0.417407 0.0675921
243 4 0.245545 0.473338 0.999964
13 3 0.416291 0.427193 0.0357054
15 3 0.379488 0.430259 0.0283704
2803 2 0.481838 0.468716 0.0246355
2805 4 0.480993 0.493373 0.0205755
324 4 0.468603 0.434147 0.0180749
2804 4 0.482683 0.444059 0.0286955
379 2 0.00767561 0.0287255 0.119049
381 4 0.0192161 0.00718951 0.124359
450 4 0.114739 0.0745682 0.093941
565 2 0.164975 0.0438959 0.130995
567 4 0.158628 0.0508913 0.154146
484 2 0.158136 0.00754796 0.0798885
485 4 0.16067 0.028633 0.0930863
566 4 0.171323 0.0369004 0.107845
691 2 0.27926 0.0796038 0.137592
692 4 0.298139 0.063719 0.141644
1505 4 0.318167 0.0669744 0.143159
1504 2 0.337999 0.0518416 0.144857
253 2 0.389769 0.0600921 0.129389
255 4 0.369888 0.0550969 0.143706
1506 4 0.35783 0.0367088 0.146555
254 4 0.409651 0.0650873 0.115072
558 4 0.420618 0.0421196 0.10158
556 2 0.439681 0.0279887 0.0937015
21 1 0.453433 0.0762739 0.126025
25 3 0.445311 0.0600846 0.11222
24 3 0.43941 0.0947571 0.125661
23 3 0.45518 0.0680818 0.147664
22 3 0.474316 0.0826384 0.118775
2467 2 0.491588 0.0140895 0.139602
2469 4 0.470231 0.0103707 0.127143
2758 2 0.0425027 0.131987 0.129803
2760 4 0.0260701 0.130315 0.148574
2759 4 0.0589354 0.13366 0.111032
705 4 0.0751908 0.14378 0.106559
448 2 0.134142 0.0889918 0.100319
449 4 0.153544 0.103415 0.106698
577 2 0.114545 0.142118 0.155645
578 4 0.0935394 0.149072 0.144001
915 4 0.169623 0.115596 0.103733
913 2 0.167113 0.139652 0.110074
236 4 0.150525 0.130362 0.153392
579 4 0.13555 0.135165 0.16729
723 4 0.244513 0.0967752 0.145603
914 4 0.164602 0.163708 0.116414
721 2 0.221826 0.0978254 0.156061
235 2 0.166621 0.116052 0.166093
693 4 0.26038 0.0954886 0.133539
759 4 0.386307 0.137011 0.166444
757 2 0.408668 0.147714 0.169698
2894 4 0.490119 0.0838945 0.130289
2893 2 0.501728 0.104092 0.121208
703 2 0.0835328 0.167162 0.109544
507 4 0.0828513 0.166601 0.147711
462 4 0.108523 0.193962 0.100387
704 4 0.0918749 0.190543 0.112528
460 2 0.130988 0.198631 0.110322
461 4 0.153453 0.203301 0.120256
623 4 0.145943 0.217422 0.132107
622 2 0.145791 0.232114 0.152338
581 4 0.174751 0.173301 0.130447
580 2 0.197481 0.183064 0.126813
582 4 0.220211 0.192827 0.12318
278 4 0.22032 0.202621 0.105008
277 2 0.242742 0.212685 0.109605
279 4 0.265165 0.222748 0.114201
732 4 0.281564 0.211514 0.108546
730 2 0.29545 0.213066 0.12928
606 4 0.302975 0.225545 0.165371
731 4 0.309337 0.214619 0.150015
396 4 0.0679445 0.259127 0.168866
754 2 0.0836666 0.264238 0.135543
756 4 0.0828633 0.269688 0.159932
476 4 0.0908635 0.263713 0.0929529
755 4 0.08447 0.258788 0.111154
288 4 0.145082 0.30564 0.0916279
252 4 0.153142 0.310421 0.10965
250 2 0.160345 0.328168 0.125723
518 4 0.377305 0.26043 0.0805189
309 4 0.379928 0.264532 0.148351
519 4 0.378445 0.257164 0.130406
517 2 0.377875 0.258797 0.105463
1069 2 0.387637 0.331432 0.103157
1070 4 0.388921 0.325141 0.127323
2652 4 0.396057 0.3233 0.14671
2650 2 0.41805 0.333884 0.152135
629 4 0.411401 0.25591 0.146054
377 4 0.41744 0.269925 0.134401
378 4 0.459591 0.262236 0.108615
376 2 0.438516 0.26608 0.121508
2876 4 0.477021 0.262783 0.120829
2094 4 0.0860857 0.384868 0.167555
2093 4 0.0766677 0.395139 0.119529
2092 2 0.0813767 0.390004 0.143542
251 4 0.167548 0.345915 0.141796
967 2 0.284869 0.365067 0.0982117
968 4 0.292189 0.365473 0.122116
612 4 0.273412 0.364305 0.125874
610 2 0.263323 0.372998 0.147036
608 4 0.327051 0.382509 0.125146
607 2 0.322101 0.40547 0.133716
740 4 0.330416 0.382409 0.104789
739 2 0.353367 0.380744 0.0950097
2651 4 0.440044 0.344469 0.15756
523 2 0.196146 0.428665 0.0864663
524 4 0.208071 0.439924 0.105341
768 4 0.205757 0.457161 0.114873
766 2 0.22118 0.466121 0.132395
767 4 0.236604 0.475081 0.149917
609 4 0.317151 0.428431 0.142287
246 4 0.328166 0.429042 0.159666
596 4 0.38329 0.422805 0.0814878
595 2 0.391335 0.438838 0.0989056
597 4 0.39938 0.454872 0.116323
659 4 0.405683 0.467921 0.129081
658 2 0.42917 0.47641 0.130302
660 4 0.452657 0.484898 0.131524
3704 4 0.468023 0.479614 0.144127
3703 2 0.490874 0.470681 0.139306
397 2 0.0772822 0.0272781 0.242384
2850 4 0.147226 0.0438646 0.251915
398 4 0.0898952 0.01029 0.229061
1478 4 0.110218 0.0150708 0.230924
428 4 0.172154 0.997527 0.21256
429 4 0.206969 0.00795712 0.24691
427 2 0.189562 0.00274228 0.229735
743 4 0.40073 0.0321535 0.196177
742 2 0.407726 0.0529854 0.208105
744 4 0.414722 0.0738174 0.220032
1748 4 0.410828 0.0171818 0.207329
432 4 0.425191 0.0720624 0.237035
513 4 0.0416131 0.0878219 0.235002
722 4 0.199139 0.0988755 0.166519
237 4 0.182718 0.101743 0.178794
30 3 0.290103 0.15121 0.206572
27 3 0.316051 0.163951 0.230177
758 4 0.43103 0.158418 0.172952
505 2 0.0825345 0.185476 0.164106
506 4 0.0822177 0.204351 0.180502
530 4 0.0769184 0.19832 0.199862
529 2 0.0870176 0.191258 0.221617
284 4 0.144639 0.240137 0.191927
283 2 0.155391 0.241728 0.214444
624 4 0.145639 0.246807 0.172569
531 4 0.0971169 0.184195 0.243373
459 4 0.109454 0.169751 0.249796
285 4 0.166144 0.243319 0.236961
544 2 0.197127 0.214579 0.242594
545 4 0.17618 0.228161 0.243984
546 4 0.218074 0.200997 0.241203
26 1 0.306407 0.166839 0.209494
29 3 0.322738 0.164386 0.193194
604 2 0.292238 0.212665 0.183918
605 4 0.2815 0.199784 0.202464
28 3 0.297252 0.188132 0.208393
333 4 0.421535 0.190322 0.232902
332 4 0.417702 0.226648 0.198749
331 2 0.419618 0.208485 0.215826
628 2 0.41798 0.250028 0.169448
630 4 0.424558 0.244145 0.192842
394 2 0.0520545 0.253747 0.187406
395 4 0.0361645 0.248366 0.205946
300 4 0.0231315 0.307185 0.229801
298 2 0.0263355 0.282553 0.22694
299 4 0.0295395 0.257921 0.224078
2694 4 0.0359799 0.319162 0.240493
307 2 0.359216 0.272286 0.160015
496 2 0.348386 0.311773 0.201991
498 4 0.341717 0.293097 0.186764
308 4 0.338503 0.280039 0.171679
497 4 0.355055 0.33045 0.217219
2693 4 0.0176598 0.360871 0.219867
535 2 0.0352261 0.395079 0.219938
536 4 0.0553411 0.409926 0.219561
537 4 0.015111 0.380232 0.220315
362 4 0.0781509 0.396097 0.182104
2692 2 0.0268199 0.340017 0.23018
361 2 0.0915529 0.385709 0.200479
363 4 0.104955 0.37532 0.218854
417 4 0.123048 0.37815 0.211126
415 2 0.138673 0.3682 0.227919
416 4 0.154298 0.35825 0.244713
611 4 0.253235 0.381692 0.168198
345 4 0.265471 0.387549 0.183673
344 4 0.281746 0.364886 0.225173
343 2 0.273608 0.376218 0.204423
275 4 0.370029 0.330384 0.229629
2538 4 0.447437 0.354781 0.173504
2536 2 0.455073 0.376989 0.182088
2537 4 0.462709 0.399196 0.190673
714 4 0.460978 0.398618 0.209892
712 2 0.447673 0.399591 0.231039
713 4 0.434368 0.400564 0.252186
1775 4 0.0567721 0.424201 0.233071
1774 2 0.0554636 0.447505 0.224107
679 2 0.999458 0.450127 0.238217
1776 4 0.0541551 0.47081 0.215143
1786 2 0.110339 0.489658 0.215703
1788 4 0.124388 0.469943 0.221961
338 4 0.138603 0.480891 0.233257
290 4 0.171758 0.475091 0.172379
291 4 0.209449 0.461371 0.202243
289 2 0.190604 0.468231 0.187311
627 4 0.231091 0.495148 0.190532
625 2 0.247359 0.477838 0.18273
626 4 0.263628 0.460528 0.174929
244 2 0.316682 0.449194 0.169005
245 4 0.305197 0.469345 0.178344
385 2 0.320426 0.483374 0.215452
387 4 0.317981 0.478651 0.191021
316 2 0.0609691 0.0382577 0.296421
399 4 0.0646692 0.0442661 0.255707
318 4 0.0715184 0.0417255 0.274018
317 4 0.0504198 0.0347898 0.318823
1869 4 0.031437 0.0288516 0.317072
2848 2 0.153243 0.0566868 0.27252
404 4 0.22811 0.0610244 0.316875
392 4 0.215804 0.0761203 0.309117
403 2 0.248838 0.0470409 0.316861
391 2 0.191669 0.0807994 0.304557
2849 4 0.159261 0.0695091 0.293124
1700 4 0.315111 0.0304918 0.320721
248 4 0.331743 0.0782789 0.298772
247 2 0.318143 0.0573884 0.300719
249 4 0.304542 0.0364979 0.302666
405 4 0.269565 0.0330573 0.316848
1699 2 0.322445 0.00665818 0.32255
430 2 0.442167 0.0608458 0.251567
431 4 0.459143 0.0496292 0.2661
1496 4 0.455817 0.0345525 0.278604
1495 2 0.466207 0.0127086 0.284934
698 4 0.488817 0.0689369 0.272693
511 2 0.0507995 0.102015 0.253424
512 4 0.0599859 0.116208 0.271845
469 2 0.0790601 0.165638 0.321249
1270 2 0.150027 0.125592 0.318898
1271 4 0.144063 0.109579 0.337151
1272 4 0.155991 0.141606 0.300645
393 4 0.167534 0.0854785 0.299996
515 4 0.296564 0.15716 0.313589
2910 4 0.3062 0.140845 0.319414
2908 2 0.329441 0.141398 0.32862
2909 4 0.352681 0.141952 0.337827
2657 4 0.368696 0.140983 0.324325
520 2 0.487893 0.14723 0.281911
521 4 0.466654 0.150114 0.269036
633 4 0.459781 0.147258 0.249373
522 4 0.509131 0.144346 0.294787
458 4 0.0984872 0.181854 0.297061
471 4 0.0858844 0.167092 0.297239
457 2 0.103971 0.175802 0.273428
349 2 0.233147 0.185911 0.277883
350 4 0.219982 0.188083 0.256737
750 4 0.176483 0.237406 0.282174
389 4 0.170204 0.222493 0.292596
388 2 0.187393 0.217944 0.310174
351 4 0.246312 0.18374 0.299029
514 2 0.278851 0.174668 0.311377
516 4 0.261138 0.192177 0.309165
764 4 0.37406 0.239697 0.280398
632 4 0.421006 0.178836 0.24942
631 2 0.440394 0.163047 0.249397
748 2 0.165104 0.259331 0.278307
618 4 0.143307 0.294997 0.264257
749 4 0.153725 0.281257 0.274439
616 2 0.152917 0.313252 0.278384
617 4 0.162527 0.331507 0.292511
365 4 0.166645 0.341295 0.310174
364 2 0.191435 0.340495 0.307014
434 4 0.229932 0.329014 0.312736
510 4 0.318645 0.269759 0.287494
508 2 0.30734 0.289426 0.29801
435 4 0.276845 0.311698 0.312519
509 4 0.296034 0.309093 0.308525
765 4 0.326395 0.251669 0.289638
433 2 0.253388 0.320356 0.312627
763 2 0.350228 0.245683 0.285018
1640 4 0.0638034 0.39133 0.319464
2655 4 0.0741147 0.386235 0.337079
735 4 0.149899 0.361488 0.263638
733 2 0.143181 0.367634 0.286924
2654 4 0.120428 0.383458 0.31842
734 4 0.136462 0.373781 0.310211
2653 2 0.0972712 0.384846 0.32775
366 4 0.216226 0.339696 0.303855
644 4 0.281503 0.353198 0.289899
645 4 0.273244 0.368483 0.243007
643 2 0.277373 0.360841 0.266453
274 2 0.372376 0.33755 0.253468
613 2 0.381711 0.34898 0.305725
615 4 0.401708 0.346137 0.320463
614 4 0.361714 0.351822 0.290986
276 4 0.374723 0.344716 0.277307
2862 4 0.421361 0.402054 0.267638
2924 4 0.418098 0.355045 0.317827
680 4 0.997639 0.467549 0.256059
337 2 0.148098 0.465181 0.250234
339 4 0.157592 0.449471 0.267212
727 2 0.15307 0.43131 0.304189
729 4 0.157484 0.450357 0.288603
728 4 0.148655 0.412263 0.319774
676 2 0.232563 0.474008 0.300345
677 4 0.209354 0.476682 0.309255
3670 2 0.176673 0.482095 0.310187
678 4 0.255772 0.471335 0.291434
375 4 0.277463 0.419606 0.295904
1575 4 0.310583 0.485783 0.255005
373 2 0.277002 0.43405 0.316309
1574 4 0.270857 0.46867 0.280098
1573 2 0.29072 0.477227 0.267552
386 4 0.322871 0.488097 0.239884
1473 4 0.402688 0.46549 0.280128
2861 4 0.400042 0.446506 0.276018
1471 2 0.420944 0.478734 0.269335
2860 2 0.410702 0.42428 0.271828
1472 4 0.439201 0.491978 0.258542
1868 4 0.018782 0.0478331 0.361572
1867 2 0.0251095 0.0383423 0.339322
2879 4 0.431897 0.0760672 0.397756
2878 2 0.436495 0.0570942 0.413379
470 4 0.0722357 0.164185 0.345259
2717 4 0.0589502 0.14911 0.345354
687 4 0.0173309 0.146899 0.382485
2718 4 0.0161868 0.13399 0.366411
2716 2 0.0375685 0.14155 0.355883
937 2 0.0868938 0.120772 0.402681
1220 4 0.126206 0.105095 0.331675
1221 4 0.0998612 0.0975873 0.373512
1219 2 0.113034 0.101341 0.352593
939 4 0.103611 0.111728 0.386436
2656 2 0.387004 0.143556 0.341158
2658 4 0.405313 0.14613 0.357992
760 2 0.421936 0.115178 0.381216
761 4 0.418177 0.136443 0.368612
762 4 0.425696 0.0939135 0.39382
2611 2 0.0716808 0.214623 0.367248
2612 4 0.0545764 0.232399 0.371327
2847 4 0.0641487 0.236605 0.389398
341 4 0.0979553 0.186683 0.348154
2613 4 0.0887851 0.196847 0.363168
342 4 0.13964 0.18409 0.375657
340 2 0.118798 0.185387 0.361906
824 4 0.152689 0.189902 0.388771
823 2 0.162182 0.204017 0.407097
390 4 0.204583 0.213396 0.327753
487 2 0.392275 0.237398 0.406986
489 4 0.405146 0.217648 0.41532
488 4 0.379404 0.257148 0.398651
451 2 0.502712 0.191999 0.386985
267 4 0.416664 0.212117 0.398301
265 2 0.440124 0.203482 0.398816
266 4 0.463583 0.194847 0.399332
453 4 0.4798 0.201636 0.389696
2845 2 0.0681391 0.257767 0.402102
2846 4 0.0721295 0.27893 0.414806
636 4 0.138107 0.298426 0.400904
634 2 0.160957 0.289221 0.405184
444 4 0.088284 0.322432 0.365648
635 4 0.183807 0.280016 0.409463
707 4 0.272813 0.263119 0.397147
706 2 0.294338 0.274008 0.390567
708 4 0.315863 0.284896 0.383987
717 4 0.327404 0.27253 0.395909
669 4 0.250053 0.283458 0.425901
716 4 0.376759 0.274747 0.38817
715 2 0.352081 0.273638 0.392039
1639 2 0.0412694 0.397738 0.328201
1641 4 0.0187353 0.404146 0.336938
443 4 0.0826097 0.363082 0.394216
442 2 0.0854469 0.342757 0.379932
601 2 0.181406 0.407179 0.35006
603 4 0.200141 0.403995 0.366309
602 4 0.162671 0.410363 0.33381
2923 2 0.421575 0.361078 0.341842
2925 4 0.425052 0.36711 0.365856
117 3 0.426555 0.351618 0.378959
116 1 0.424152 0.362413 0.399129
118 3 0.44341 0.359236 0.411678
120 3 0.406184 0.353798 0.410154
119 3 0.420913 0.385049 0.395184
548 4 0.0114652 0.439853 0.395734
3671 4 0.157117 0.485144 0.325467
1383 4 0.140526 0.475269 0.322119
1381 2 0.128889 0.481707 0.343292
594 4 0.223371 0.460653 0.407481
2108 4 0.238327 0.460132 0.393254
374 4 0.276541 0.448494 0.336713
2109 4 0.26394 0.456885 0.350428
2107 2 0.251133 0.458509 0.371841
542 4 0.499855 0.461579 0.351238
541 2 0.478521 0.465659 0.363623
543 4 0.457186 0.469738 0.376007
446 4 0.447749 0.484685 0.385581
1151 4 0.210796 0.000665744 0.479595
1180 2 0.231253 0.0301853 0.465891
1182 4 0.210438 0.0163493 0.466588
1181 4 0.252067 0.0440213 0.465194
725 4 0.250093 0.0654459 0.46645
480 4 0.325675 0.0703806 0.427047
599 4 0.329169 0.00657929 0.49399
478 2 0.306999 0.086965 0.428198
598 2 0.308832 0.000318822 0.480861
2642 4 0.340458 0.0812793 0.433824
2641 2 0.356483 0.0664698 0.446033
2643 4 0.372507 0.0516602 0.458242
684 4 0.38469 0.0397668 0.469561
682 2 0.399237 0.0484132 0.487967
2880 4 0.441094 0.0381213 0.429001
1517 4 0.442991 0.0193462 0.437597
938 4 0.070177 0.129817 0.418927
1034 4 0.0539998 0.141035 0.415622
983 4 0.0245933 0.107388 0.461486
1033 2 0.0381531 0.127367 0.429306
1035 4 0.0223065 0.113699 0.44299
982 2 0.0199257 0.111966 0.485619
724 2 0.246233 0.0897411 0.461976
726 4 0.242372 0.114036 0.457502
473 4 0.234979 0.126937 0.444699
472 2 0.219492 0.146379 0.447405
474 4 0.204005 0.165822 0.450111
650 4 0.282377 0.1162 0.414365
479 4 0.288323 0.103549 0.429349
649 2 0.266355 0.128809 0.428838
857 4 0.261145 0.149908 0.458758
651 4 0.250333 0.141417 0.443312
856 2 0.276197 0.157853 0.477075
1031 4 0.372733 0.0977382 0.467497
1030 2 0.361593 0.104802 0.488738
1032 4 0.350452 0.111867 0.509978
2515 2 0.504962 0.133435 0.447676
2516 4 0.500957 0.148011 0.427759
2502 4 0.422276 0.127644 0.496335
2500 2 0.427782 0.148753 0.484118
368 4 0.161686 0.229118 0.485344
696 4 0.146082 0.240684 0.491577
694 2 0.125516 0.253021 0.484502
402 4 0.20026 0.187342 0.449035
367 2 0.171816 0.228183 0.462504
369 4 0.181945 0.227248 0.439663
825 4 0.171675 0.218133 0.425422
401 4 0.235613 0.213164 0.424867
400 2 0.217937 0.200253 0.436951
371 4 0.251785 0.221147 0.435035
370 2 0.265238 0.241906 0.438675
858 4 0.291249 0.165797 0.495392
640 2 0.351372 0.229179 0.481602
642 4 0.357914 0.205613 0.486798
321 4 0.344129 0.198065 0.499108
2501 4 0.433289 0.169863 0.471902
2508 4 0.502116 0.233217 0.484836
3308 4 0.486466 0.225398 0.493206
260 4 0.0847765 0.289735 0.424071
259 2 0.0975327 0.285866 0.445225
261 4 0.110289 0.281997 0.466379
695 4 0.104951 0.265358 0.477428
668 4 0.201586 0.285599 0.413775
667 2 0.22582 0.284529 0.419838
372 4 0.278692 0.262665 0.442315
873 4 0.263068 0.298556 0.43001
871 2 0.274234 0.295334 0.452149
872 4 0.285399 0.292112 0.474288
813 4 0.305488 0.288342 0.478878
811 2 0.327924 0.279216 0.472673
641 4 0.344829 0.252746 0.476406
812 4 0.350361 0.27009 0.466469
935 4 0.997517 0.414872 0.476893
710 4 0.191672 0.379667 0.43068
773 4 0.186189 0.361482 0.43871
709 2 0.208331 0.398256 0.432135
772 2 0.185666 0.358388 0.463516
774 4 0.185142 0.355295 0.488322
1395 4 0.182438 0.345638 0.506502
585 4 0.42609 0.393293 0.411702
934 2 0.0203343 0.424978 0.475344
936 4 0.043152 0.435085 0.473795
1040 4 0.0619958 0.436082 0.48332
538 2 0.153655 0.456441 0.47805
539 4 0.15904 0.477943 0.466481
570 4 0.108682 0.442876 0.456263
568 2 0.108126 0.460221 0.438262
569 4 0.107571 0.477565 0.42026
2138 4 0.115841 0.495041 0.425415
2243 4 0.156814 0.495986 0.475476
540 4 0.148271 0.434939 0.489619
325 2 0.238519 0.435002 0.464814
592 2 0.236359 0.474436 0.423806
326 4 0.233774 0.413522 0.452929
711 4 0.22499 0.416845 0.433591
593 4 0.249347 0.48822 0.440131
1173 4 0.25387 0.458542 0.494372
327 4 0.243264 0.456482 0.4767
1644 4 0.495837 0.484142 0.46886
335 4 0.481992 0.481737 0.454785
584 4 0.456734 0.4328 0.41261
336 4 0.458182 0.451246 0.423097
334 2 0.470087 0.466492 0.438941
239 4 0.423766 0.420771 0.475452
583 2 0.441412 0.413047 0.412156
3157 2 0.297775 0.0445286 0.542488
3158 4 0.319495 0.0564825 0.539243
575 4 0.333189 0.0677683 0.54926
3159 4 0.276055 0.0325746 0.545733
843 4 0.418125 0.0519861 0.524567
683 4 0.413784 0.0570596 0.506374
574 2 0.350654 0.0783623 0.563679
842 4 0.45734 0.0351736 0.550648
1061 4 0.471223 0.0236571 0.540223
841 2 0.437733 0.0435798 0.537608
1060 2 0.495137 0.0251527 0.533076
1183 2 0.0103424 0.107856 0.546428
984 4 0.0152581 0.116544 0.509753
1185 4 0.00610527 0.12279 0.526827
576 4 0.368119 0.0889564 0.578098
3267 4 0.0370489 0.201375 0.555034
3265 2 0.0188371 0.211939 0.568522
7 3 0.1593 0.211752 0.532127
10 3 0.148235 0.241775 0.512915
6 1 0.166084 0.228563 0.517967
9 3 0.174636 0.219064 0.498601
320 4 0.300049 0.176433 0.508577
319 2 0.322089 0.187249 0.503842
3307 2 0.473341 0.217196 0.512843
3309 4 0.460216 0.208994 0.53248
270 4 0.465435 0.197536 0.547744
268 2 0.452953 0.204668 0.568202
269 4 0.440471 0.2118 0.58866
3045 4 0.0191188 0.304977 0.581545
879 4 0.999984 0.303392 0.576916
3043 2 0.0306558 0.282945 0.578963
8 3 0.182485 0.241117 0.528542
348 4 0.195714 0.248953 0.540175
346 2 0.214612 0.260357 0.528428
347 4 0.233509 0.271761 0.51668
1189 2 0.244969 0.305654 0.517709
1191 4 0.247293 0.281921 0.525227
1190 4 0.242645 0.329387 0.510191
1394 4 0.231128 0.344608 0.517859
1393 2 0.206783 0.345123 0.51218
1237 2 0.329469 0.384306 0.575504
1239 4 0.315518 0.404966 0.577428
1238 4 0.34342 0.363646 0.573579
1039 2 0.0759015 0.431135 0.503503
1136 4 0.106831 0.41514 0.526231
1041 4 0.0898072 0.426187 0.523685
1137 4 0.149379 0.435195 0.509256
1135 2 0.128105 0.425168 0.517743
1171 2 0.262874 0.461917 0.517452
1028 4 0.270685 0.447301 0.551539
1172 4 0.271877 0.465293 0.540533
1027 2 0.288885 0.434974 0.563454
1029 4 0.307085 0.422647 0.57537
240 4 0.444451 0.425923 0.520689
1978 2 0.452747 0.459869 0.545095
1980 4 0.44904 0.435924 0.538924
1979 4 0.456455 0.483814 0.551265
238 2 0.434109 0.423347 0.498071
943 2 0.150183 0.0685502 0.668081
1130 4 0.314176 0.0599383 0.588264
1129 2 0.303333 0.0541854 0.610047
1131 4 0.292489 0.0484325 0.631829
2318 4 0.285538 0.0469479 0.651932
2317 2 0.285498 0.0678773 0.665611
1004 4 0.381218 0.0129732 0.64082
88 3 0.403341 0.0269319 0.603457
87 3 0.399013 0.00648501 0.634695
1003 2 0.369084 0.0156934 0.662512
2241 4 0.368017 0.00463584 0.630247
86 1 0.414081 0.0129867 0.618576
1143 4 0.38578 0.0962178 0.641637
1141 2 0.374798 0.0949378 0.619211
89 3 0.431557 0.0243341 0.628785
90 3 0.422015 0.994533 0.607845
917 4 0.124416 0.095417 0.653572
918 4 0.121847 0.145276 0.650712
916 2 0.123131 0.120347 0.652142
1212 4 0.126745 0.166473 0.652481
944 4 0.142137 0.087385 0.653739
1155 4 0.223044 0.163871 0.639826
1142 4 0.363815 0.0936578 0.596785
887 4 0.399762 0.0825354 0.644771
899 4 0.365646 0.151657 0.582202
3460 2 0.0694771 0.241094 0.587262
3461 4 0.046664 0.241129 0.577027
1210 2 0.142677 0.182954 0.642497
1211 4 0.15861 0.199436 0.632513
1259 4 0.158213 0.21385 0.64598
3462 4 0.0922902 0.241058 0.597496
1283 4 0.233874 0.164231 0.658558
1153 2 0.222156 0.179176 0.620074
1258 2 0.172179 0.229507 0.63238
1154 4 0.221268 0.19448 0.600321
1260 4 0.186145 0.245165 0.618779
1085 4 0.300321 0.236676 0.634957
1084 2 0.308043 0.224185 0.655194
900 4 0.363008 0.199246 0.567068
898 2 0.364327 0.175452 0.574635
790 2 0.407646 0.247206 0.651931
792 4 0.428561 0.24151 0.664392
3044 4 0.0421927 0.260913 0.57638
3418 2 0.994056 0.313384 0.63735
3420 4 0.0176086 0.314423 0.629022
1281 4 0.0369433 0.312872 0.629257
1279 2 0.0588159 0.321806 0.637439
1280 4 0.0806886 0.330741 0.645621
411 4 0.289837 0.243982 0.619172
409 2 0.302095 0.265598 0.616399
410 4 0.314352 0.287213 0.613625
803 4 0.373415 0.329621 0.60628
806 4 0.381723 0.312496 0.60889
791 4 0.386731 0.252901 0.639469
805 2 0.379248 0.291548 0.622316
807 4 0.376774 0.270601 0.635741
895 2 0.182303 0.359954 0.645657
897 4 0.191426 0.370624 0.624967
804 4 0.363236 0.362629 0.57012
802 2 0.368326 0.346125 0.5882
894 4 0.023525 0.475287 0.675006
2130 4 0.120193 0.509424 0.653026
1983 4 0.101394 0.51203 0.649888
891 4 0.310842 0.469062 0.653658
3324 4 0.352895 0.485927 0.648635
3322 2 0.37419 0.484003 0.635673
3323 4 0.395485 0.482078 0.622712
3371 4 0.41422 0.476883 0.623426
3372 4 0.442029 0.460849 0.661771
3370 2 0.428124 0.468866 0.642598
1007 4 0.436078 0.440405 0.661763
834 4 0.0158496 0.0406833 0.754748
864 4 0.0853281 0.0455398 0.740762
945 4 0.158229 0.0497153 0.682423
2255 4 0.162282 0.0305038 0.688348
2254 2 0.182327 0.0329571 0.703092
2256 4 0.202372 0.0354105 0.717835
960 4 0.204921 0.0431702 0.735353
958 2 0.227721 0.0435457 0.74561
3591 4 0.149287 0.0154553 0.682988
1257 4 0.307762 0.0307052 0.734868
1255 2 0.287891 0.042405 0.744535
965 4 0.321349 0.0447042 0.738203
2319 4 0.285458 0.0888067 0.679291
966 4 0.350745 0.0314879 0.699968
964 2 0.336047 0.0380961 0.719085
1005 4 0.35695 0.0184136 0.684204
954 4 0.379066 0.0501961 0.736684
952 2 0.393439 0.0612944 0.719496
1026 4 0.391977 0.0359523 0.739796
953 4 0.407813 0.0723927 0.702309
1178 4 0.0541236 0.143077 0.702946
1177 2 0.0462716 0.149497 0.7258
852 4 0.0752015 0.142379 0.702761
850 2 0.09715 0.130405 0.703036
947 4 0.137011 0.118876 0.695804
851 4 0.119099 0.118432 0.703312
946 2 0.160298 0.127973 0.696132
1282 2 0.213901 0.156765 0.671616
1284 4 0.193928 0.149298 0.684674
948 4 0.183586 0.137069 0.69646
950 4 0.299435 0.103401 0.679049
949 2 0.296381 0.125988 0.689329
951 4 0.293328 0.148575 0.699609
977 4 0.286219 0.165887 0.708468
886 2 0.40964 0.0740152 0.666102
888 4 0.419517 0.065495 0.687433
1194 4 0.441977 0.158509 0.75436
1192 2 0.441588 0.157613 0.729375
1193 4 0.441198 0.156718 0.704391
1009 2 0.481593 0.154098 0.684709
1179 4 0.0384196 0.155916 0.748655
1297 2 0.242007 0.231391 0.747517
1299 4 0.259539 0.244283 0.735204
976 2 0.300129 0.18541 0.701358
1086 4 0.315764 0.211694 0.675431
978 4 0.314039 0.204932 0.694247
1010 4 0.459792 0.154752 0.696934
154 3 0.0671971 0.284372 0.740476
1067 4 0.0764585 0.354793 0.744766
896 4 0.173179 0.349285 0.666348
992 4 0.1526 0.35094 0.669736
1068 4 0.117183 0.360291 0.71627
991 2 0.1322 0.353268 0.684004
993 4 0.1118 0.355596 0.698273
1066 2 0.0968207 0.357542 0.730518
1276 2 0.239597 0.399544 0.719544
797 4 0.252176 0.371344 0.738873
1277 4 0.249384 0.376537 0.719282
796 2 0.270341 0.362419 0.753555
798 4 0.288505 0.353495 0.768238
3463 2 0.461216 0.381946 0.721599
3464 4 0.461749 0.386563 0.697031
1008 4 0.4575 0.40353 0.687879
892 2 0.00138706 0.464386 0.679039
2128 2 0.132269 0.496479 0.670683
2129 4 0.144345 0.483535 0.688341
940 2 0.183765 0.487863 0.691022
941 4 0.206443 0.483265 0.700494
1098 4 0.206295 0.468461 0.713717
1096 2 0.218582 0.45014 0.725489
1097 4 0.230869 0.43182 0.737261
1278 4 0.22981 0.422551 0.719806
889 2 0.321338 0.462369 0.675343
1206 4 0.308809 0.420091 0.747334
1204 2 0.320103 0.435712 0.731408
1205 4 0.331397 0.451332 0.715483
890 4 0.331834 0.455677 0.697027
189 3 0.411608 0.452237 0.744851
187 3 0.393415 0.483953 0.736146
3183 4 0.399425 0.496759 0.723827
1006 2 0.446789 0.421967 0.674821
1250 4 0.466255 0.437486 0.730757
3011 4 0.471829 0.429211 0.748689
1249 2 0.446934 0.446289 0.743962
863 4 0.072166 0.0290724 0.786108
1215 4 0.0575337 0.0346371 0.800131
1213 2 0.0597579 0.0546129 0.815004
862 2 0.0787471 0.0373061 0.763435
832 2 0.00670941 0.0532001 0.774369
2991 4 0.130042 0.0131239 0.764787
1202 4 0.160891 0.992167 0.822487
831 4 0.174882 0.994793 0.835823
959 4 0.250521 0.0439211 0.755867
1256 4 0.26802 0.0541049 0.754201
1252 2 0.313385 0.0753731 0.826717
1254 4 0.312178 0.0511634 0.83285
1025 4 0.380845 0.0067471 0.778833
1024 2 0.386411 0.0213497 0.759315
819 4 0.458429 0.0230384 0.84278
908 4 0.15865 0.0780148 0.777016
35 3 0.157655 0.153977 0.821039
909 4 0.197731 0.0919612 0.804924
907 2 0.17819 0.084988 0.79097
1253 4 0.314592 0.0995828 0.820585
1048 2 0.327708 0.137285 0.814014
1091 4 0.320103 0.166357 0.785694
1049 4 0.325556 0.116276 0.827399
1050 4 0.32986 0.158293 0.800628
1023 4 0.295458 0.11655 0.847138
3425 4 0.442545 0.169167 0.771122
3426 4 0.463026 0.128894 0.792555
45 3 0.461893 0.123485 0.811938
41 1 0.481538 0.114468 0.819107
44 3 0.491879 0.103152 0.801688
3424 2 0.452785 0.14903 0.781838
42 3 0.477283 0.0996069 0.836142
923 4 0.0298168 0.168445 0.761605
779 4 0.06053 0.22033 0.769796
924 4 0.0485074 0.209682 0.782838
922 2 0.0391621 0.189063 0.772221
778 2 0.0494268 0.242597 0.767333
32 3 0.148409 0.190129 0.821653
1298 4 0.224475 0.218499 0.75983
838 2 0.210326 0.223386 0.795211
839 4 0.212333 0.228114 0.819681
840 4 0.208319 0.218657 0.770741
801 4 0.232006 0.229801 0.824582
1092 4 0.323544 0.203948 0.752896
1090 2 0.321823 0.185153 0.769295
3329 4 0.319743 0.229898 0.77466
153 3 0.0447598 0.282148 0.771071
780 4 0.0383235 0.264864 0.764869
152 3 0.0350412 0.303778 0.741911
151 1 0.0527925 0.296113 0.754372
155 3 0.0636679 0.313848 0.763637
1209 4 0.169707 0.313607 0.793028
1207 2 0.191623 0.311139 0.804807
1208 4 0.21354 0.308672 0.816586
1063 2 0.236703 0.305933 0.834345
1064 4 0.216103 0.292991 0.828569
3328 2 0.316 0.25414 0.779507
1042 2 0.312678 0.318786 0.775851
1043 4 0.31938 0.296111 0.783982
3330 4 0.312256 0.278382 0.784354
1065 4 0.257302 0.318875 0.84012
1044 4 0.305976 0.341461 0.767719
3347 4 0.37251 0.301555 0.817141
1094 4 0.358744 0.29498 0.828632
3346 2 0.38872 0.319786 0.81166
1165 2 0.492264 0.322215 0.804977
865 2 0.487927 0.267644 0.82366
867 4 0.472473 0.256657 0.839958
1053 4 0.453278 0.261556 0.843125
866 4 0.503381 0.278631 0.807361
885 4 0.0303819 0.391428 0.76869
883 2 0.0456963 0.372569 0.762775
815 4 0.0293404 0.406799 0.782004
884 4 0.0610108 0.353711 0.756859
1138 2 0.309364 0.396552 0.77664
1140 4 0.321236 0.383671 0.794482
1241 4 0.263291 0.333342 0.827588
1240 2 0.258695 0.357755 0.83043
1017 4 0.332309 0.399081 0.803068
3348 4 0.40493 0.338016 0.806178
1015 2 0.357206 0.396835 0.803603
1019 4 0.397357 0.383888 0.79818
1016 4 0.382102 0.39459 0.804139
3465 4 0.460683 0.377329 0.746167
1167 4 0.485923 0.346278 0.807413
1018 2 0.419222 0.395632 0.795156
999 4 0.451191 0.36704 0.761938
997 2 0.464078 0.365527 0.783311
1020 4 0.441088 0.407376 0.792132
998 4 0.476964 0.364013 0.804685
859 2 0.498313 0.415068 0.820532