ITEM: TIMESTEP
560000
ITEM: NUMBER OF ATOMS
4590
ITEM: BOX BOUNDS pp pp pp
-9.9985700000000008e+00 9.9985700000000008e+00
-9.9985700000000008e+00 9.9985700000000008e+00
-9.9985700000000008e+00 9.9985700000000008e+00
ITEM: ATOMS id type xs ys zs
1666 2 0.080699 0.0179962 0.0265592
1667 4 0.0754139 0.00486274 0.00594948
1668 4 0.0859842 0.0311296 0.0471689
702 4 0.0866723 0.0390558 0.0650795
932 4 0.135683 0.074145 0.0257395
533 4 0.219305 0.0369089 0.998248
996 4 0.223647 0.017605 0.00103364
532 2 0.238007 0.0530618 0.00205823
534 4 0.256708 0.0692146 0.00586865
490 2 0.293488 0.0797235 0.00360312
492 4 0.2729 0.0750258 0.0169914
1607 4 0.420186 0.0299097 0.00547959
1606 2 0.43216 0.0386017 0.0256354
746 4 0.460556 0.0584579 0.04862
745 2 0.452436 0.076194 0.064262
1608 4 0.444133 0.0472937 0.0457913
591 4 0.0567704 0.109299 0.0780578
2760 4 0.0733647 0.116958 0.0670562
2758 2 0.0782006 0.140657 0.0733913
2759 4 0.0830364 0.164357 0.0797264
3232 2 0.00375047 0.136256 0.0167067
931 2 0.150974 0.0850357 0.00922387
356 4 0.261689 0.153895 0.0239928
567 4 0.271177 0.150625 0.00726119
747 4 0.444316 0.0939302 0.079904
555 4 0.060016 0.212908 0.0115604
704 4 0.0809754 0.234032 0.0714643
477 4 0.0857133 0.243061 0.0538455
737 4 0.159587 0.230246 0.0732089
736 2 0.158998 0.208249 0.0613355
738 4 0.158408 0.186253 0.0494621
571 2 0.243802 0.228281 0.050645
572 4 0.228524 0.244442 0.0620726
573 4 0.25908 0.21212 0.0392173
355 2 0.268225 0.176945 0.0311441
357 4 0.274762 0.199996 0.0382954
664 2 0.363674 0.172709 0.00258134
666 4 0.388615 0.171709 0.0040256
475 2 0.0901334 0.249653 0.030135
507 4 0.164968 0.248228 0.065257
476 4 0.0945536 0.256245 0.00642449
294 4 0.123852 0.281724 0.0344879
456 4 0.116756 0.284374 0.0643421
292 2 0.133627 0.297593 0.0178204
454 2 0.12994 0.302747 0.0750094
293 4 0.143402 0.313462 0.00115298
287 4 0.160446 0.330882 0.0843093
250 2 0.237223 0.328145 0.0687645
483 4 0.244519 0.320574 0.0304155
353 4 0.260276 0.262867 0.017945
1071 4 0.394294 0.313427 0.0369325
280 2 0.499282 0.308941 0.0209003
282 4 0.498 0.331189 0.00956266
281 4 0.500564 0.286692 0.0322378
251 4 0.248034 0.332983 0.0467437
902 4 0.248129 0.366024 0.997402
481 2 0.247424 0.334221 0.00966674
1069 2 0.382889 0.33409 0.0451896
1070 4 0.371484 0.354752 0.0534466
957 4 0.378293 0.37126 0.0612992
955 2 0.370417 0.391111 0.0482959
956 4 0.362542 0.410962 0.0352926
1046 4 0.485511 0.343234 0.019534
1045 2 0.493417 0.363302 0.00688704
551 4 0.0380443 0.461734 0.0397437
330 4 0.0205072 0.453073 0.0406709
550 2 0.0611621 0.461538 0.0302195
552 4 0.0842798 0.461342 0.0206952
1786 2 0.112162 0.500007 0.0806327
794 4 0.128906 0.460297 0.0222196
1692 4 0.135971 0.472826 0.0358027
793 2 0.128433 0.447248 0.000896772
1690 2 0.139647 0.496898 0.0301276
241 2 0.219872 0.477071 0.0233111
242 4 0.210372 0.490518 0.0421287
243 4 0.229372 0.463624 0.00449355
495 4 0.384952 0.460971 0.0528266
493 2 0.388603 0.444858 0.0715939
1672 2 0.405488 0.49816 0.0535753
1673 4 0.420752 0.49698 0.0733435
2576 4 0.0560679 0.00977748 0.0984773
2577 4 0.00797838 0.0218631 0.0919927
2575 2 0.0320231 0.0158203 0.095235
379 2 0.0131053 0.0802483 0.148462
700 2 0.0894218 0.0448759 0.0892403
701 4 0.0921712 0.050696 0.113401
450 4 0.0999949 0.0354322 0.124443
448 2 0.116878 0.0423313 0.141547
449 4 0.13376 0.0492304 0.158652
578 4 0.152216 0.0550722 0.155555
577 2 0.176477 0.0575567 0.161068
236 4 0.208169 0.0742529 0.15453
1476 4 0.299974 0.0131317 0.111206
654 4 0.31235 0.0293536 0.114161
653 4 0.307389 0.0791014 0.113038
652 2 0.309869 0.0542275 0.113599
1449 4 0.404929 0.0131658 0.134736
1784 4 0.403776 0.0275647 0.148458
1783 2 0.416545 0.0155122 0.166259
589 2 0.0431059 0.102317 0.0977989
380 4 0.0326047 0.0895462 0.135872
590 4 0.0294413 0.0953352 0.11754
235 2 0.222071 0.0950159 0.153633
237 4 0.235973 0.115779 0.152736
297 4 0.307528 0.0841201 0.133098
295 2 0.323981 0.0969408 0.146886
580 2 0.333406 0.150254 0.161314
581 4 0.333772 0.126234 0.168247
2793 4 0.405859 0.126119 0.0963017
296 4 0.340434 0.109762 0.160674
2791 2 0.426299 0.115139 0.10562
770 4 0.473413 0.0860074 0.100375
2792 4 0.446739 0.104158 0.114937
769 2 0.488807 0.104989 0.105658
703 2 0.0613318 0.235647 0.0868493
655 2 0.014895 0.207508 0.096143
657 4 0.0325191 0.220019 0.108715
705 4 0.0416882 0.237262 0.102234
462 4 0.229757 0.226358 0.14837
278 4 0.21301 0.218704 0.144217
277 2 0.211753 0.199621 0.160324
460 2 0.234071 0.248708 0.138024
582 4 0.333041 0.174275 0.154381
630 4 0.364978 0.21843 0.158288
362 4 0.106045 0.321109 0.129139
361 2 0.126348 0.314866 0.142331
455 4 0.143124 0.32112 0.0856768
363 4 0.14665 0.308622 0.155522
252 4 0.226413 0.323308 0.0907852
505 2 0.170045 0.252958 0.0892783
506 4 0.175123 0.257689 0.113299
755 4 0.177553 0.274584 0.124947
754 2 0.185864 0.291933 0.14092
286 2 0.184159 0.32591 0.0904848
288 4 0.207872 0.320938 0.0966604
756 4 0.194176 0.309282 0.156892
461 4 0.238386 0.271058 0.127679
623 4 0.255942 0.279928 0.129144
622 2 0.262831 0.303874 0.131214
518 4 0.374761 0.303737 0.136166
11 1 0.359817 0.319171 0.162605
12 3 0.377821 0.3251 0.149572
517 2 0.36994 0.292214 0.114506
519 4 0.36512 0.280691 0.0928454
324 4 0.397272 0.314707 0.134559
322 2 0.413863 0.330358 0.124313
13 3 0.340756 0.318871 0.149376
2839 2 0.499646 0.315909 0.121507
2841 4 0.494958 0.33051 0.101758
527 4 0.495401 0.295193 0.158714
646 2 0.0690273 0.333815 0.1406
648 4 0.046095 0.333685 0.150563
647 4 0.0919596 0.333944 0.130636
415 2 0.088352 0.387915 0.136167
416 4 0.0850892 0.373064 0.156017
417 4 0.0916147 0.402765 0.116318
608 4 0.250824 0.366224 0.146151
609 4 0.206858 0.381884 0.128194
607 2 0.228841 0.374054 0.137172
626 4 0.188489 0.385852 0.129653
625 2 0.181274 0.40896 0.135911
612 4 0.254409 0.348525 0.154829
624 4 0.269721 0.327821 0.133285
740 4 0.283328 0.363472 0.126779
739 2 0.308081 0.360825 0.124446
741 4 0.332834 0.358177 0.122114
246 4 0.331118 0.410312 0.138872
244 2 0.30777 0.416165 0.132104
671 4 0.438273 0.358452 0.12614
323 4 0.430453 0.346008 0.114066
2650 2 0.48968 0.371835 0.108575
2652 4 0.48392 0.396009 0.105813
670 2 0.43823 0.382809 0.13179
2651 4 0.495441 0.347662 0.111338
672 4 0.438186 0.407166 0.13744
596 4 0.480439 0.411962 0.0969583
264 4 0.0886477 0.471915 0.126796
263 4 0.0921088 0.422604 0.119235
262 2 0.0903783 0.447259 0.123015
1787 4 0.098832 0.482426 0.0923966
627 4 0.174059 0.432067 0.14217
291 4 0.171604 0.452947 0.136521
289 2 0.176805 0.463076 0.158781
245 4 0.284423 0.422019 0.125337
1778 4 0.330235 0.456168 0.116974
1777 2 0.317637 0.475605 0.107558
1779 4 0.305038 0.495041 0.0981415
524 4 0.337578 0.421158 0.123274
523 2 0.359924 0.4286 0.114881
525 4 0.382271 0.436042 0.106487
494 4 0.392254 0.428745 0.0903611
595 2 0.475284 0.435997 0.0923827
597 4 0.47013 0.460032 0.0878071
658 2 0.442231 0.488677 0.0954309
659 4 0.462783 0.474813 0.0986884
1422 4 0.00238586 0.053922 0.166261
1404 4 0.0152351 0.02371 0.226826
1402 2 0.000546955 0.0286344 0.246452
1420 2 0.00395602 0.0420152 0.188192
1421 4 0.00552618 0.0301083 0.210122
579 4 0.200739 0.0600412 0.166581
1566 4 0.200146 0.0111455 0.218739
1506 4 0.217717 0.0147657 0.210717
1504 2 0.237514 0.0263924 0.200812
692 4 0.252905 0.0531905 0.204299
1505 4 0.25731 0.0380191 0.190908
691 2 0.259826 0.076229 0.211118
25 3 0.403219 0.0662504 0.20336
21 1 0.422217 0.0763743 0.195927
22 3 0.43216 0.0630736 0.180009
1785 4 0.429314 0.00345977 0.18406
2745 4 0.439518 0.00259038 0.202651
2743 2 0.46361 0.00925541 0.203191
2744 4 0.487703 0.0159204 0.20373
23 3 0.437025 0.0793318 0.213545
732 4 0.203755 0.13727 0.24437
722 4 0.221584 0.146082 0.244726
721 2 0.239004 0.130507 0.235829
723 4 0.256424 0.114932 0.226933
693 4 0.266746 0.0992675 0.217938
27 3 0.313547 0.104603 0.215249
26 1 0.304791 0.117093 0.232468
28 3 0.281694 0.114881 0.232349
30 3 0.31052 0.138941 0.229554
707 4 0.324573 0.140301 0.243047
706 2 0.331939 0.164195 0.24308
757 2 0.392196 0.132564 0.183152
758 4 0.401991 0.109728 0.185942
759 4 0.382402 0.155399 0.180361
24 3 0.417047 0.0968886 0.186396
396 4 0.00958242 0.249605 0.206601
279 4 0.210495 0.180537 0.17643
283 2 0.207561 0.248619 0.221419
284 4 0.230103 0.243491 0.211892
309 4 0.263022 0.225256 0.176557
307 2 0.277025 0.242092 0.188626
763 2 0.327555 0.229972 0.244684
765 4 0.336374 0.206601 0.245775
629 4 0.374361 0.171098 0.171417
628 2 0.369669 0.194764 0.164853
708 4 0.339305 0.188088 0.243112
522 4 0.439929 0.236955 0.214612
395 4 0.0460535 0.273878 0.18249
394 2 0.027818 0.261741 0.194546
339 4 0.159766 0.287796 0.188528
285 4 0.18502 0.253747 0.230946
337 2 0.174756 0.306402 0.195899
338 4 0.189745 0.325007 0.20327
344 4 0.205199 0.321592 0.215723
545 4 0.17606 0.251754 0.248163
764 4 0.318736 0.253343 0.243592
308 4 0.291028 0.258927 0.200694
496 2 0.29647 0.272921 0.229007
498 4 0.279709 0.27347 0.210461
497 4 0.313231 0.272371 0.247553
14 3 0.363618 0.298081 0.171501
526 2 0.482722 0.290061 0.179644
521 4 0.474785 0.272698 0.217479
528 4 0.470043 0.28493 0.200575
520 2 0.457357 0.254827 0.216046
537 4 0.0788002 0.372788 0.175842
535 2 0.0819184 0.363172 0.198711
735 4 0.0928435 0.345503 0.236812
536 4 0.0850366 0.353556 0.22158
343 2 0.21496 0.338479 0.231367
345 4 0.224721 0.355366 0.247011
727 2 0.277457 0.340507 0.241319
387 4 0.319196 0.385836 0.176501
610 2 0.260494 0.352401 0.178769
611 4 0.266579 0.356277 0.202709
728 4 0.275463 0.346768 0.217194
385 2 0.340456 0.37476 0.183609
15 3 0.357385 0.334364 0.179395
644 4 0.374007 0.346418 0.199016
386 4 0.361715 0.363684 0.190717
643 2 0.396281 0.356167 0.204848
542 4 0.416555 0.384797 0.219002
541 2 0.418307 0.394349 0.242042
645 4 0.418555 0.365915 0.21068
1664 4 0.135526 0.497871 0.171987
767 4 0.228967 0.498635 0.22606
768 4 0.194455 0.481701 0.194077
290 4 0.182006 0.473206 0.181041
766 2 0.211711 0.490168 0.210069
637 2 0.26681 0.495836 0.176839
638 4 0.264128 0.478221 0.19438
301 2 0.306114 0.461395 0.198524
303 4 0.282194 0.467964 0.195384
302 4 0.330034 0.454827 0.201664
1574 4 0.350964 0.452678 0.201686
1573 2 0.372097 0.457387 0.214191
1575 4 0.393231 0.462096 0.226696
230 4 0.400338 0.478165 0.217449
229 2 0.414452 0.488803 0.235135
2861 4 0.494735 0.454988 0.234903
2860 2 0.486761 0.478502 0.231964
429 4 0.135947 0.00308128 0.314085
427 2 0.144779 0.0252109 0.306506
428 4 0.153611 0.0473406 0.298926
249 4 0.271152 0.0652651 0.332124
247 2 0.259536 0.0758032 0.312651
1748 4 0.44054 0.0372995 0.298696
1747 2 0.439089 0.0123402 0.29837
743 4 0.447885 0.0546505 0.302549
742 2 0.43726 0.0771123 0.305332
529 2 0.0218192 0.135491 0.27982
530 4 0.00912653 0.113987 0.281109
458 4 0.995462 0.105175 0.294679
457 2 0.00136744 0.100661 0.318552
531 4 0.0345119 0.156995 0.278532
605 4 0.171161 0.0984356 0.326768
731 4 0.164934 0.140261 0.27575
604 2 0.168957 0.10992 0.304667
606 4 0.166753 0.121405 0.282567
730 2 0.184345 0.138766 0.26006
404 4 0.22434 0.145933 0.289867
600 4 0.221925 0.154796 0.307267
403 2 0.228183 0.121228 0.290117
405 4 0.232026 0.0965229 0.290368
248 4 0.24792 0.0863412 0.293178
29 3 0.313396 0.109263 0.252544
633 4 0.322601 0.126522 0.257867
632 4 0.32684 0.12632 0.307694
631 2 0.324721 0.126421 0.282781
698 4 0.342932 0.126776 0.321136
333 4 0.414709 0.102035 0.323961
744 4 0.426634 0.0995742 0.308115
419 4 0.456046 0.161543 0.267896
512 4 0.0710242 0.209837 0.275176
511 2 0.0613336 0.187458 0.280697
513 4 0.051643 0.16508 0.286217
393 4 0.0809703 0.225355 0.265149
392 4 0.128763 0.213451 0.273802
546 4 0.145143 0.22261 0.274535
391 2 0.104867 0.219403 0.269476
544 2 0.160602 0.237182 0.261349
598 2 0.213299 0.176882 0.315203
599 4 0.204674 0.198969 0.323139
371 4 0.212474 0.215689 0.328033
370 2 0.204837 0.233025 0.311714
372 4 0.1972 0.250361 0.295394
351 4 0.405025 0.170726 0.303606
349 2 0.397551 0.184967 0.32275
420 4 0.412673 0.177649 0.286872
2838 4 0.498538 0.188598 0.303983
311 4 0.471324 0.173732 0.262385
310 2 0.491833 0.17936 0.275534
418 2 0.434359 0.169596 0.277384
748 2 0.0866086 0.277426 0.314013
750 4 0.0820481 0.258171 0.329299
733 2 0.100891 0.328577 0.253362
734 4 0.108939 0.311651 0.269912
749 4 0.0911691 0.29668 0.298728
435 4 0.246981 0.300397 0.301074
509 4 0.251649 0.300354 0.321537
433 2 0.260541 0.307415 0.281274
434 4 0.2741 0.314433 0.261473
274 2 0.322264 0.301623 0.328639
729 4 0.279452 0.334245 0.265443
276 4 0.334959 0.292271 0.309233
377 4 0.394247 0.268611 0.303423
378 4 0.350635 0.292429 0.297814
376 2 0.372441 0.28052 0.300618
2692 2 0.00750814 0.353645 0.254483
2694 4 0.0303686 0.361987 0.248739
366 4 0.0389944 0.372376 0.263654
365 4 0.0730332 0.36273 0.298996
364 2 0.0560138 0.367553 0.281325
618 4 0.0758977 0.355257 0.31832
299 4 0.116099 0.372344 0.278219
298 2 0.110209 0.396014 0.283717
502 2 0.251651 0.394428 0.322
503 4 0.266198 0.40803 0.306881
437 4 0.277969 0.399965 0.29181
436 2 0.298245 0.413233 0.285644
615 4 0.388634 0.369163 0.295445
613 2 0.369874 0.355845 0.305236
614 4 0.351113 0.342527 0.315027
543 4 0.42006 0.403901 0.265083
446 4 0.421745 0.40994 0.284131
300 4 0.104319 0.419684 0.289215
603 4 0.0946333 0.436663 0.283143
602 4 0.113452 0.482765 0.27854
601 2 0.104043 0.459714 0.280841
1775 4 0.107016 0.49468 0.263678
1436 4 0.3263 0.445546 0.279159
438 4 0.31852 0.426502 0.279478
1435 2 0.333362 0.465082 0.293075
5 3 0.351335 0.497629 0.296076
1437 4 0.340424 0.484618 0.306991
3 3 0.363966 0.491821 0.331067
712 2 0.445874 0.477851 0.322587
447 4 0.438783 0.445892 0.314429
445 2 0.430264 0.427916 0.29928
713 4 0.43164 0.458622 0.329856
316 2 0.0661151 0.0122091 0.399496
318 4 0.0789299 0.030714 0.388609
399 4 0.0859339 0.0472296 0.397
397 2 0.0815804 0.0646767 0.379626
2428 2 0.206475 0.0257097 0.382445
2429 4 0.226497 0.0176104 0.369848
1701 4 0.243666 0.0274414 0.367577
2430 4 0.186452 0.0338089 0.395041
1700 4 0.275244 0.0628118 0.351688
1699 2 0.259455 0.0451266 0.359633
1516 2 0.369982 0.0698331 0.415645
441 4 0.339899 0.0494378 0.412421
1517 4 0.358064 0.0515393 0.403459
2642 4 0.472975 0.0797766 0.401829
459 4 0.00727292 0.0961473 0.342425
398 4 0.0772269 0.0821238 0.362253
342 4 0.100521 0.162737 0.400038
369 4 0.161599 0.106406 0.343538
472 2 0.17009 0.12854 0.413246
474 4 0.17742 0.105783 0.405927
368 4 0.184808 0.097713 0.386972
367 2 0.173204 0.10206 0.365255
683 4 0.224472 0.112993 0.417087
682 2 0.241019 0.130449 0.410256
684 4 0.257566 0.147905 0.403426
467 4 0.273758 0.157389 0.400651
466 2 0.298418 0.155638 0.39691
468 4 0.323078 0.153886 0.393169
699 4 0.385323 0.115027 0.34492
697 2 0.364127 0.120902 0.333028
332 4 0.42666 0.117955 0.369835
479 4 0.457763 0.0904673 0.40986
331 2 0.420685 0.109995 0.346898
478 2 0.453422 0.11366 0.401586
480 4 0.449082 0.136852 0.393312
761 4 0.438805 0.146373 0.379146
2849 4 0.0317205 0.245546 0.363055
390 4 0.135603 0.196177 0.334695
388 2 0.142987 0.219992 0.336576
686 4 0.10712 0.177206 0.387374
687 4 0.144882 0.209884 0.390001
685 2 0.126001 0.193545 0.388687
389 4 0.150371 0.243806 0.338457
717 4 0.287701 0.22695 0.382878
715 2 0.302505 0.212362 0.396778
716 4 0.317309 0.197774 0.410678
651 4 0.269499 0.222883 0.391366
649 2 0.257474 0.243737 0.398123
452 4 0.408498 0.204779 0.34805
350 4 0.390077 0.199209 0.341895
451 2 0.413459 0.201949 0.372392
453 4 0.41842 0.19912 0.396735
2517 4 0.498569 0.234536 0.393922
515 4 0.431215 0.185742 0.400823
762 4 0.471175 0.180953 0.363111
2515 2 0.488161 0.213325 0.385739
760 2 0.45499 0.163663 0.371129
2516 4 0.477754 0.192114 0.377557
2850 4 0.00318833 0.278068 0.337975
2848 2 0.0174544 0.261807 0.350515
2800 2 0.0175744 0.307433 0.388076
443 4 0.0490815 0.295193 0.384379
2801 4 0.0415957 0.310478 0.394312
442 2 0.0696525 0.281443 0.387975
444 4 0.0902234 0.267692 0.391571
401 4 0.133747 0.252923 0.347091
400 2 0.139629 0.269384 0.364969
402 4 0.145511 0.285845 0.382847
636 4 0.253994 0.297778 0.388011
650 4 0.245448 0.264591 0.40488
508 2 0.252891 0.304637 0.346139
510 4 0.254132 0.308921 0.370742
275 4 0.30957 0.310975 0.348044
488 4 0.320809 0.266774 0.391733
634 2 0.265113 0.314174 0.403267
668 4 0.295601 0.332394 0.414038
635 4 0.276232 0.33057 0.418522
487 2 0.332305 0.256637 0.411489
547 2 0.0265536 0.390988 0.402026
549 4 0.00604752 0.392175 0.387769
408 4 0.0641393 0.380959 0.410478
548 4 0.0470597 0.389801 0.416283
406 2 0.0804001 0.399953 0.410555
616 2 0.0843778 0.360726 0.341197
617 4 0.0928579 0.366195 0.364074
677 4 0.109879 0.376065 0.361827
676 2 0.13446 0.380211 0.359893
678 4 0.159042 0.384357 0.357959
504 4 0.237104 0.380827 0.337118
373 2 0.175748 0.375482 0.396626
375 4 0.166195 0.385617 0.375861
2923 2 0.494215 0.367315 0.342321
2924 4 0.487581 0.378939 0.36344
561 4 0.436957 0.417081 0.406374
501 4 0.067343 0.492798 0.35846
680 4 0.0813516 0.478807 0.353962
679 2 0.0944521 0.46852 0.37261
681 4 0.107553 0.458233 0.391257
407 4 0.0966608 0.418947 0.410631
570 4 0.172273 0.489584 0.377466
560 4 0.402619 0.420842 0.370215
752 4 0.374654 0.42801 0.407674
753 4 0.354407 0.432233 0.362144
751 2 0.36453 0.430122 0.384909
559 2 0.419788 0.418962 0.388295
720 4 0.101303 0.0668351 0.451608
719 4 0.140178 0.0358373 0.456953
718 2 0.12074 0.0513362 0.45428
440 4 0.323058 0.00395772 0.424614
1151 4 0.256162 0.0475976 0.494356
439 2 0.331479 0.0266978 0.418518
1182 4 0.255377 0.0644506 0.505598
426 4 0.397837 0.0168412 0.451386
430 2 0.369684 0.0349388 0.476002
431 4 0.392012 0.0274354 0.467617
432 4 0.347355 0.0424421 0.484388
2641 2 0.479459 0.0618191 0.417974
2880 4 0.497849 0.048719 0.44982
2643 4 0.485944 0.0438616 0.434119
340 2 0.108507 0.147613 0.418277
1035 4 0.114349 0.114937 0.447594
341 4 0.116493 0.132489 0.436516
1033 2 0.110854 0.116068 0.472327
1034 4 0.10736 0.117198 0.497059
473 4 0.162759 0.151297 0.420565
321 4 0.146866 0.164522 0.423711
724 2 0.319068 0.105935 0.476812
725 4 0.305956 0.0896165 0.490484
726 4 0.332181 0.122254 0.46314
1518 4 0.3819 0.0881268 0.42783
575 4 0.379497 0.100939 0.442562
574 2 0.398233 0.117132 0.43911
640 2 0.356802 0.147602 0.481491
642 4 0.370083 0.128601 0.49086
576 4 0.41697 0.133325 0.435659
516 4 0.421775 0.153391 0.43777
347 4 0.0727708 0.239082 0.423117
346 2 0.0509089 0.238026 0.435205
348 4 0.029047 0.23697 0.447293
469 2 0.0123729 0.235298 0.479134
470 4 0.0129916 0.226905 0.455589
320 4 0.148427 0.202115 0.45665
319 2 0.147646 0.183318 0.440181
1272 4 0.0884537 0.183831 0.491287
1270 2 0.108655 0.173104 0.501387
641 4 0.343521 0.166602 0.472121
267 4 0.351329 0.252838 0.448829
489 4 0.3438 0.2465 0.431244
514 2 0.426495 0.169567 0.419297
259 2 0.0784458 0.298611 0.449647
260 4 0.0658671 0.288098 0.430767
261 4 0.0910245 0.309124 0.468526
695 4 0.0876953 0.293496 0.483771
694 2 0.110806 0.290768 0.492918
327 4 0.149287 0.326994 0.477894
7 3 0.148157 0.330257 0.496997
709 2 0.209175 0.325275 0.496017
265 2 0.372888 0.255983 0.461098
266 4 0.394446 0.259127 0.473366
584 4 0.405675 0.271783 0.483378
269 4 0.414735 0.33141 0.486659
585 4 0.407104 0.320447 0.471953
583 2 0.406389 0.296115 0.477665
326 4 0.131401 0.350226 0.437384
325 2 0.140344 0.33861 0.457639
374 4 0.185301 0.365347 0.417391
711 4 0.223323 0.343133 0.485715
773 4 0.237768 0.346985 0.471119
667 2 0.313852 0.349047 0.417881
772 2 0.255943 0.354448 0.486584
669 4 0.332102 0.3657 0.421725
336 4 0.329677 0.364602 0.441192
240 4 0.367968 0.405322 0.467667
238 2 0.387244 0.411088 0.482512
335 4 0.370856 0.388463 0.456544
334 2 0.350267 0.376533 0.448868
588 4 0.453754 0.415257 0.418449
268 2 0.43714 0.341469 0.491351
270 4 0.459545 0.351528 0.496044
383 4 0.0994695 0.431757 0.426051
540 4 0.10739 0.483298 0.477608
1383 4 0.106994 0.484221 0.458141
382 2 0.0920198 0.438852 0.448841
935 4 0.0907614 0.430501 0.481955
1381 2 0.0841422 0.493137 0.453295
538 2 0.126753 0.483799 0.49342
384 4 0.0845701 0.445946 0.47163
239 4 0.406521 0.416854 0.497356
586 2 0.461968 0.434628 0.431956
661 2 0.463552 0.466729 0.478413
587 4 0.470182 0.454 0.445464
662 4 0.462358 0.469728 0.453619
824 4 0.157517 0.0719953 0.55573
1059 4 0.21779 0.00637165 0.52089
1152 4 0.215323 0.0239159 0.510851
1057 2 0.1955 0.00798373 0.532104
1150 2 0.235742 0.0357568 0.502604
1058 4 0.173211 0.00959581 0.543317
823 2 0.177442 0.0687937 0.540968
825 4 0.197367 0.0655921 0.526206
1031 4 0.273165 0.065718 0.571749
1180 2 0.27677 0.0773357 0.506815
3157 2 0.397077 0.0523374 0.53499
3158 4 0.396708 0.0280755 0.541023
842 4 0.38431 0.0274106 0.557053
841 2 0.375683 0.0110749 0.573902
3159 4 0.397447 0.0765994 0.528957
900 4 0.381102 0.0843565 0.52044
4465 2 0.499739 0.00449186 0.563286
939 4 0.0780206 0.113257 0.551637
937 2 0.0830381 0.116896 0.527414
938 4 0.0880555 0.120535 0.503191
1271 4 0.128857 0.162378 0.511487
1181 4 0.298164 0.0902208 0.508032
898 2 0.368207 0.104262 0.512524
899 4 0.355313 0.124168 0.504608
471 4 0.0117542 0.24369 0.502679
1220 4 0.114072 0.219675 0.575451
858 4 0.15018 0.184866 0.53087
856 2 0.17293 0.194254 0.526455
857 4 0.19568 0.203641 0.52204
409 2 0.231552 0.206693 0.551321
411 4 0.21211 0.208091 0.535661
410 4 0.250994 0.205295 0.566981
791 4 0.338191 0.233706 0.568686
790 2 0.345691 0.234877 0.544863
792 4 0.353191 0.236047 0.521039
3065 4 0.493932 0.223339 0.555507
905 4 0.496799 0.237259 0.570125
984 4 0.00684647 0.33712 0.557512
982 2 0.00761212 0.326995 0.58036
10 3 0.151114 0.295058 0.509044
6 1 0.15696 0.316649 0.51332
9 3 0.148514 0.323208 0.533913
696 4 0.133916 0.288041 0.502064
8 3 0.180066 0.318768 0.513196
710 4 0.195027 0.307417 0.506319
872 4 0.330456 0.31853 0.535239
813 4 0.326003 0.324779 0.516614
804 4 0.257362 0.331807 0.580867
871 2 0.354029 0.317922 0.526927
873 4 0.377603 0.317314 0.518614
877 2 0.0207134 0.337074 0.526141
1039 2 0.0766827 0.398973 0.556277
936 4 0.0669782 0.418221 0.524195
1040 4 0.0594997 0.409661 0.54159
878 4 0.04204 0.335124 0.513236
1137 4 0.130226 0.342002 0.571858
896 4 0.144006 0.354055 0.563973
1041 4 0.0938656 0.388286 0.570964
1135 2 0.111672 0.357423 0.578427
895 2 0.166973 0.355702 0.57372
1394 4 0.209277 0.403137 0.534527
1191 4 0.207858 0.363852 0.575227
897 4 0.189939 0.357349 0.583467
802 2 0.278142 0.339134 0.569047
803 4 0.298921 0.346461 0.557227
811 2 0.303134 0.334143 0.512806
812 4 0.280264 0.343506 0.508998
774 4 0.274118 0.361911 0.502048
927 4 0.438101 0.362944 0.577427
3307 2 0.48554 0.355705 0.518823
3309 4 0.46224 0.347308 0.515395
934 2 0.0788698 0.424361 0.503075
539 4 0.146115 0.484301 0.509232
2243 4 0.163397 0.493385 0.512952
1393 2 0.213319 0.425497 0.524092
1395 4 0.217362 0.447857 0.513658
1027 2 0.296855 0.416664 0.578377
1173 4 0.273397 0.474651 0.516165
1171 2 0.272922 0.456027 0.532841
1172 4 0.272447 0.437403 0.549518
1028 4 0.287091 0.432827 0.561988
880 2 0.295362 0.50168 0.506317
881 4 0.274262 0.489404 0.500909
930 4 0.401964 0.414278 0.51698
928 2 0.422891 0.421086 0.52885
929 4 0.443818 0.427895 0.54072
1330 2 0.489212 0.480908 0.532321
1332 4 0.481251 0.463123 0.516652
1331 4 0.497172 0.498692 0.54799
663 4 0.464747 0.463731 0.503208
2319 4 0.161073 0.052462 0.611733
2317 2 0.15059 0.0334701 0.624167
2318 4 0.140108 0.0144782 0.6366
951 4 0.240721 0.0246707 0.663723
1284 4 0.180247 0.0533409 0.654065
1282 2 0.182112 0.0772135 0.646867
962 4 0.272948 0.0505069 0.58462
963 4 0.250119 0.0197196 0.61674
2241 4 0.24304 0.00793319 0.652807
961 2 0.261533 0.0351132 0.60068
90 3 0.407523 0.0139558 0.634502
1005 4 0.344028 0.00410207 0.605062
1003 2 0.34233 0.0232633 0.621035
1004 4 0.340632 0.0424244 0.637008
1142 4 0.353927 0.0561665 0.642959
1141 2 0.348175 0.0804982 0.643191
4466 4 0.491247 0.0179929 0.582542
4227 4 0.4641 0.0349181 0.645326
809 4 0.496245 0.0629538 0.65461
808 2 0.48802 0.0690498 0.631798
1163 4 0.450986 0.0452023 0.654032
4225 2 0.475731 0.0138806 0.652206
810 4 0.479795 0.0751457 0.608986
3009 4 0.496525 0.0712976 0.599383
864 4 0.0537941 0.0896357 0.66203
2990 4 0.0357011 0.104831 0.605339
2991 4 0.0483937 0.105732 0.6537
2989 2 0.0420474 0.105282 0.629519
3078 4 0.0182059 0.0978442 0.597846
3076 2 0.00255188 0.115575 0.589737
1155 4 0.18038 0.118345 0.64804
1283 4 0.183976 0.101086 0.63967
1030 2 0.276807 0.0874008 0.583656
1212 4 0.251394 0.157127 0.633768
1032 4 0.28045 0.109084 0.595563
888 4 0.289203 0.154409 0.630667
886 2 0.304783 0.161139 0.649028
1143 4 0.342422 0.10483 0.643423
3426 4 0.474645 0.128371 0.64784
3424 2 0.471764 0.146164 0.665168
1219 2 0.13339 0.218131 0.59125
1221 4 0.152708 0.216586 0.607049
1260 4 0.167953 0.212069 0.666409
1258 2 0.19054 0.205562 0.657884
1210 2 0.230312 0.167988 0.641691
1211 4 0.209229 0.178848 0.649614
1259 4 0.213127 0.199056 0.64936
904 2 0.481322 0.240685 0.589461
906 4 0.465846 0.24411 0.608798
1009 2 0.475313 0.227309 0.643686
1011 4 0.477029 0.243285 0.624529
983 4 0.00837777 0.31687 0.603209
797 4 0.314826 0.313965 0.632029
796 2 0.305772 0.329833 0.6491
807 4 0.370131 0.326562 0.633094
952 2 0.464353 0.290901 0.646491
954 4 0.479895 0.304925 0.632818
953 4 0.44881 0.276878 0.660164
1136 4 0.0931182 0.372843 0.584996
1190 4 0.247578 0.341454 0.595754
1189 2 0.227718 0.352653 0.58549
1029 4 0.306619 0.400501 0.594766
798 4 0.296718 0.3457 0.666171
1239 4 0.294346 0.389957 0.606463
1237 2 0.310404 0.376339 0.619949
1238 4 0.326462 0.362721 0.633435
1007 4 0.419177 0.359885 0.655161
806 4 0.344715 0.36962 0.632215
805 2 0.357423 0.348091 0.632654
925 2 0.439591 0.387102 0.583702
1100 4 0.437119 0.356103 0.643976
1099 2 0.456052 0.369065 0.653912
3329 4 0.4809 0.395655 0.650595
1101 4 0.474985 0.382027 0.663847
926 4 0.44108 0.411259 0.589977
1204 2 0.321655 0.430476 0.664325
1205 4 0.326133 0.441883 0.64253
890 4 0.331287 0.455733 0.627578
889 2 0.333213 0.47802 0.616408
1001 4 0.451228 0.426595 0.597632
1002 4 0.45324 0.45893 0.635726
1000 2 0.452234 0.442762 0.616679
1267 2 0.453302 0.500738 0.648315
1268 4 0.469018 0.497535 0.629134
862 2 0.075827 0.0849042 0.672862
2047 2 0.0898806 0.00637919 0.75029
945 4 0.156072 0.0799719 0.701451
863 4 0.0978599 0.0801727 0.683695
2399 4 0.241228 0.996747 0.724236
2254 2 0.210775 0.00847486 0.743602
909 4 0.175331 0.0801768 0.707508
2255 4 0.233861 0.0112279 0.734401
949 2 0.252142 0.0448137 0.673158
950 4 0.263563 0.0649567 0.682592
1092 4 0.275135 0.0612872 0.697348
1090 2 0.272337 0.063507 0.722095
1091 4 0.269538 0.0657269 0.746842
1218 4 0.365816 0.0291056 0.710351
1216 2 0.388619 0.0393401 0.711053
2283 4 0.361049 0.00945791 0.7086
1217 4 0.411421 0.0495745 0.711756
1164 4 0.422963 0.0458074 0.695446
1162 2 0.436975 0.0455048 0.674739
1113 4 0.458439 0.0765175 0.737079
43 3 0.459088 0.0793627 0.717922
1111 2 0.480208 0.0726645 0.74876
1081 2 0.010574 0.132254 0.680105
1083 4 0.0210503 0.154239 0.685771
1076 4 0.0164571 0.159624 0.704967
943 2 0.13407 0.0869361 0.69183
944 4 0.112068 0.0939003 0.682208
907 2 0.190753 0.0973436 0.717134
1153 2 0.191516 0.128623 0.667928
830 4 0.236312 0.114183 0.733667
829 2 0.245364 0.126753 0.71404
1154 4 0.202653 0.1389 0.687816
908 4 0.206175 0.11451 0.726759
1227 4 0.20932 0.119639 0.74594
831 4 0.254416 0.139322 0.694412
1298 4 0.260077 0.160356 0.691455
42 3 0.433591 0.0833777 0.690601
45 3 0.426571 0.0971405 0.724575
41 1 0.442865 0.0934149 0.709106
44 3 0.452455 0.11355 0.702703
3425 4 0.468883 0.163957 0.682497
1075 2 0.999191 0.174211 0.715658
1106 4 0.0859492 0.17176 0.74388
1179 4 0.0899922 0.191913 0.744056
1177 2 0.104309 0.209739 0.733935
948 4 0.153614 0.205242 0.678616
1178 4 0.118626 0.227565 0.723814
946 2 0.145153 0.21913 0.697608
947 4 0.136693 0.233018 0.716601
887 4 0.320364 0.167869 0.66739
1299 4 0.272354 0.202293 0.715771
1297 2 0.266216 0.181325 0.703613
978 4 0.276691 0.219473 0.704493
976 2 0.299471 0.229711 0.705692
977 4 0.322251 0.23995 0.70689
1193 4 0.334438 0.23083 0.694485
1192 2 0.355839 0.242769 0.699445
1010 4 0.473596 0.211333 0.662843
1026 4 0.465797 0.216287 0.679404
1024 2 0.466716 0.193661 0.690006
1025 4 0.467636 0.171035 0.700608
1209 4 0.024 0.258803 0.719471
1208 4 0.0305992 0.306535 0.732844
1207 2 0.0272996 0.282669 0.726157
992 4 0.119505 0.317162 0.700736
821 4 0.177948 0.321018 0.743029
1277 4 0.295954 0.29991 0.704096
1276 2 0.285185 0.322411 0.70239
1194 4 0.377241 0.254709 0.704405
1044 4 0.375138 0.274405 0.70769
1042 2 0.378121 0.297243 0.697956
1043 4 0.381103 0.32008 0.688223
47 3 0.465274 0.276855 0.747026
3123 4 0.471011 0.264579 0.732225
1263 4 0.452106 0.263008 0.721282
1261 2 0.44793 0.26287 0.69663
1262 4 0.443755 0.262733 0.671978
50 3 0.436402 0.259519 0.73094
3121 2 0.494327 0.271057 0.725937
991 2 0.123171 0.339939 0.691096
1068 4 0.129617 0.37995 0.670253
1066 2 0.145634 0.392895 0.684433
993 4 0.126837 0.362716 0.681455
1067 4 0.161651 0.40584 0.698612
822 4 0.19361 0.365193 0.725595
820 2 0.185779 0.343105 0.734312
1278 4 0.274417 0.344913 0.700685
1097 4 0.270427 0.362485 0.705978
1096 2 0.26465 0.370671 0.728886
1139 4 0.308944 0.404336 0.696345
1008 4 0.388684 0.3385 0.688531
1006 2 0.40393 0.349193 0.671846
3328 2 0.488211 0.412457 0.667608
884 4 0.0569461 0.429975 0.715779
883 2 0.0728303 0.428925 0.735061
1280 4 0.039742 0.432056 0.705668
1279 2 0.0153526 0.435377 0.701273
942 4 0.172484 0.418435 0.687828
941 4 0.186136 0.440941 0.730346
940 2 0.17931 0.429688 0.709087
1236 4 0.196742 0.450313 0.745471
1206 4 0.317177 0.41907 0.68612
1138 2 0.311484 0.418722 0.716637
1140 4 0.314024 0.433108 0.736929
1089 4 0.308321 0.449904 0.745315
3330 4 0.495522 0.42926 0.68462
1295 4 0.0679314 0.0261887 0.775284
1294 2 0.0661611 0.0454821 0.79109
1296 4 0.0643909 0.0647754 0.806895
2049 4 0.0789373 0.027416 0.758219
1286 4 0.0822728 0.0706114 0.808767
2256 4 0.18769 0.00572186 0.752804
1202 4 0.171507 0.0796062 0.833303
1049 4 0.275687 0.0531474 0.759757
1050 4 0.297635 0.0534431 0.804689
1048 2 0.286661 0.0532953 0.782223
966 4 0.302394 0.0573121 0.824254
1256 4 0.342942 0.0200612 0.825023
2321 4 0.478089 0.011562 0.807315
845 4 0.492637 0.0689126 0.778089
2441 4 0.47565 0.0106864 0.827539
1105 2 0.104337 0.155566 0.748858
34 3 0.129244 0.121937 0.75455
1201 2 0.155975 0.0896844 0.816499
1285 2 0.101032 0.0867528 0.805199
1203 4 0.140443 0.0997625 0.799696
1287 4 0.119791 0.102894 0.801631