ITEM: TIMESTEP
2110000
ITEM: NUMBER OF ATOMS
4590
ITEM: BOX BOUNDS pp pp pp
-9.9985700000000008e+00 9.9985700000000008e+00
-9.9985700000000008e+00 9.9985700000000008e+00
-9.9985700000000008e+00 9.9985700000000008e+00
ITEM: ATOMS id type xs ys zs
486 4 0.163071 0.00861343 0.041512
1842 4 0.15085 0.00856969 0.0567296
484 2 0.185775 0.0168758 0.035073
566 4 0.223508 0.0273547 0.0155853
565 2 0.237504 0.0468574 0.0225803
485 4 0.208479 0.0251381 0.028634
567 4 0.251501 0.0663601 0.0295752
356 4 0.251291 0.0750348 0.0471888
746 4 0.40184 0.0689779 0.0586851
23 3 0.471281 0.0499156 0.0876591
1448 4 0.472501 0.033834 0.0755753
745 2 0.425731 0.0728316 0.0523961
1607 4 0.423694 0.043157 0.998286
25 3 0.46498 0.0756452 0.060902
747 4 0.449622 0.0766852 0.0461072
22 3 0.493137 0.0803719 0.0849389
738 4 0.0440403 0.157789 0.0753101
656 4 0.018354 0.106067 0.0681094
655 2 0.0216119 0.130684 0.0710363
2624 4 0.00669981 0.0955906 0.0564988
700 2 0.109107 0.0991328 0.0118705
701 4 0.128612 0.101247 0.0273709
450 4 0.125804 0.107467 0.045935
448 2 0.134861 0.1187 0.0663549
571 2 0.229461 0.150835 0.0458167
572 4 0.20735 0.162369 0.0476212
914 4 0.193918 0.172291 0.0367109
573 4 0.251572 0.139301 0.0440122
357 4 0.249599 0.124188 0.0562346
355 2 0.250445 0.0996113 0.0517117
360 4 0.26196 0.165628 0.0238695
557 4 0.374243 0.106014 0.00797671
556 2 0.380676 0.106348 0.0321363
558 4 0.387109 0.106682 0.056296
254 4 0.402135 0.110051 0.0685361
491 4 0.369808 0.119151 0.995383
148 3 0.456822 0.0937383 0.996178
2640 4 0.461519 0.140551 0.0772227
2638 2 0.4578 0.138061 0.052623
2639 4 0.454081 0.135571 0.0280232
915 4 0.144565 0.177856 0.0425432
462 4 0.156657 0.259455 0.0779826
460 2 0.168208 0.238477 0.0707954
913 2 0.169241 0.175074 0.0396271
461 4 0.17976 0.217499 0.0636081
623 4 0.197073 0.208782 0.0707907
581 4 0.26099 0.236124 0.0613047
580 2 0.264341 0.211485 0.063929
582 4 0.267693 0.186847 0.0665533
2806 2 0.0337002 0.327525 0.0656311
2807 4 0.0355097 0.302691 0.067902
455 4 0.10602 0.32075 0.0216666
287 4 0.112657 0.33325 0.0351982
454 2 0.101124 0.301019 0.00711018
295 2 0.242508 0.249322 0.0244344
297 4 0.235109 0.251591 0.000658621
968 4 0.229447 0.308841 0.0546055
967 2 0.204513 0.30932 0.0564085
969 4 0.179579 0.309799 0.0582115
296 4 0.249906 0.247053 0.0482102
2841 4 0.472443 0.305976 0.0513469
2839 2 0.458852 0.300334 0.0715616
527 4 0.448574 0.274741 0.0907947
672 4 0.480264 0.323922 0.0561747
2808 4 0.0318906 0.352359 0.0633602
329 4 0.0415674 0.35895 0.0477004
328 2 0.0485854 0.368302 0.025599
330 4 0.0556035 0.377653 0.00349748
314 4 0.0201642 0.422831 0.0655909
286 2 0.134096 0.345386 0.0394702
252 4 0.159657 0.373386 0.0545987
288 4 0.155536 0.357522 0.0437422
250 2 0.172411 0.394059 0.060524
482 4 0.235944 0.371787 0.00932863
251 4 0.185165 0.414733 0.0664494
902 4 0.250197 0.386036 0.00970327
739 2 0.330783 0.383526 0.0745879
740 4 0.328522 0.359452 0.080955
1069 2 0.371472 0.390945 0.0263393
1071 4 0.383671 0.381576 0.00662701
1070 4 0.359272 0.400314 0.0460515
741 4 0.333043 0.407599 0.0682208
670 2 0.481899 0.348219 0.050505
596 4 0.450917 0.410013 0.0739011
323 4 0.488963 0.391491 0.0478785
671 4 0.483533 0.372516 0.0448353
322 2 0.480244 0.403629 0.0278332
4210 2 0.0184585 0.422993 0.0194229
2983 2 0.0403933 0.477427 0.0418044
2984 4 0.0391791 0.453863 0.0335325
2985 4 0.0416075 0.500992 0.0500762
4212 4 0.0229763 0.446274 0.0273477
315 4 0.0616943 0.44465 0.0829078
313 2 0.0409293 0.433741 0.0742493
2771 4 0.00465126 0.411931 0.0593942
2094 4 0.199951 0.426726 0.0580694
2092 2 0.219943 0.441737 0.0585191
2093 4 0.239934 0.456747 0.0589688
494 4 0.279037 0.454457 0.0210601
525 4 0.28829 0.451958 0.0395046
523 2 0.283496 0.463902 0.0609412
493 2 0.302431 0.452679 0.0124157
15 3 0.332351 0.42641 0.0600072
495 4 0.325826 0.4509 0.00377123
14 3 0.366256 0.418752 0.045535
11 1 0.352106 0.435468 0.0532008
13 3 0.34832 0.45098 0.0363647
12 3 0.362098 0.446091 0.0709899
659 4 0.430085 0.470426 0.0449812
658 2 0.442275 0.488694 0.0569322
597 4 0.43581 0.453755 0.05495
595 2 0.443364 0.431884 0.0644255
660 4 0.454466 0.506963 0.0688831
957 4 0.455442 0.426009 0.000989916
723 4 0.226201 0.0402385 0.161539
721 2 0.21528 0.0610772 0.170004
722 4 0.20436 0.081916 0.178469
693 4 0.246483 0.0355605 0.159181
691 2 0.265985 0.0214201 0.165882
1449 4 0.466713 0.995522 0.107189
21 1 0.471657 0.0725238 0.0824501
24 3 0.457691 0.0842009 0.0968368
1447 2 0.469607 0.0146781 0.0913821
657 4 0.0248699 0.155301 0.0739631
591 4 0.0183048 0.114681 0.122796
2758 2 0.0531762 0.137133 0.129949
2760 4 0.0295872 0.128958 0.131328
2759 4 0.0767652 0.145308 0.128569
736 2 0.0674629 0.163156 0.0822209
705 4 0.00914862 0.146549 0.108883
449 4 0.143918 0.129933 0.0867748
578 4 0.134616 0.144171 0.0949498
577 2 0.14041 0.137612 0.118372
579 4 0.146204 0.131052 0.141793
236 4 0.162672 0.118962 0.143557
737 4 0.0908856 0.168522 0.0891316
235 2 0.181851 0.109893 0.156788
237 4 0.201031 0.100823 0.17002
279 4 0.261622 0.164702 0.129351
732 4 0.271449 0.156877 0.143908
730 2 0.287669 0.140259 0.153179
277 2 0.261094 0.174828 0.106496
253 2 0.396729 0.116929 0.0919592
255 4 0.391322 0.123807 0.115382
758 4 0.384864 0.143836 0.116698
757 2 0.392847 0.164378 0.128508
2894 4 0.47294 0.130901 0.0901542
2893 2 0.49584 0.140807 0.0917726
2513 4 0.0121523 0.20621 0.123321
703 2 0.0133135 0.171131 0.106993
2512 2 0.998158 0.225036 0.114664
507 4 0.0971807 0.174126 0.107256
505 2 0.107012 0.193498 0.119636
506 4 0.116844 0.212869 0.132017
756 4 0.114983 0.234016 0.137369
754 2 0.0997866 0.249035 0.124381
283 2 0.218778 0.174575 0.143678
284 4 0.207246 0.185964 0.124639
624 4 0.220524 0.19478 0.11268
622 2 0.208798 0.201781 0.0917355
278 4 0.260565 0.184953 0.0836401
759 4 0.400829 0.184921 0.140317
378 4 0.456022 0.194021 0.129282
376 2 0.446157 0.188049 0.151467
475 2 0.0707684 0.287613 0.0901741
477 4 0.0523245 0.292864 0.0741295
755 4 0.0845903 0.264053 0.111392
394 2 0.0723271 0.314029 0.156447
476 4 0.0892123 0.282362 0.106219
395 4 0.0924653 0.323411 0.144975
309 4 0.337486 0.277295 0.152598
307 2 0.321711 0.2716 0.171143
612 4 0.29804 0.315123 0.146069
609 4 0.306244 0.320661 0.128604
528 4 0.406736 0.256593 0.111311
517 2 0.370928 0.260515 0.13338
519 4 0.347953 0.267098 0.140725
518 4 0.393904 0.253932 0.126035
2840 4 0.44526 0.294693 0.0917762
526 2 0.427655 0.265667 0.101053
610 2 0.287716 0.328226 0.164694
608 4 0.312615 0.350267 0.0888096
607 2 0.30943 0.335464 0.108707
2538 4 0.413749 0.370922 0.134849
2536 2 0.404295 0.383738 0.154125
2652 4 0.449321 0.407833 0.0935266
2651 4 0.428435 0.372769 0.122423
2650 2 0.438878 0.390301 0.107975
3761 4 0.0105896 0.466001 0.145775
3760 2 0.0233267 0.48522 0.155449
290 4 0.113008 0.456283 0.142263
289 2 0.136213 0.460961 0.150315
291 4 0.159418 0.465639 0.158366
1786 2 0.080822 0.483327 0.139122
1788 4 0.0981132 0.468368 0.149244
626 4 0.216714 0.475208 0.132294
768 4 0.234921 0.482873 0.123739
625 2 0.194873 0.465684 0.13987
627 4 0.173031 0.45616 0.147447
766 2 0.236489 0.501477 0.140371
524 4 0.278702 0.475847 0.0823779
246 4 0.279204 0.471162 0.102614
244 2 0.289605 0.45841 0.121439
387 4 0.306507 0.433381 0.154788
245 4 0.300006 0.445657 0.140264
692 4 0.285487 0.00727976 0.172583
403 2 0.308631 0.0662041 0.236062
405 4 0.288691 0.0519154 0.2409
248 4 0.271405 0.0530725 0.25199
404 4 0.328571 0.0804927 0.231224
30 3 0.343083 0.0940812 0.229027
531 4 0.101673 0.161427 0.250812
2850 4 0.116313 0.149484 0.241775
2848 2 0.136542 0.144057 0.255432
392 4 0.218307 0.130591 0.236817
546 4 0.222984 0.149552 0.230601
544 2 0.223242 0.153328 0.205886
545 4 0.223499 0.157103 0.18117
731 4 0.303888 0.123642 0.162451
606 4 0.318987 0.13059 0.173714
27 3 0.345445 0.12973 0.239819
604 2 0.334457 0.146602 0.185092
28 3 0.376797 0.110613 0.231805
26 1 0.355492 0.109064 0.240867
605 4 0.349927 0.162615 0.196469
633 4 0.369141 0.156485 0.199083
631 2 0.37364 0.159009 0.223548
529 2 0.0801704 0.171308 0.242739
530 4 0.0586674 0.181189 0.234667
512 4 0.0450526 0.196341 0.232655
511 2 0.0282433 0.200028 0.214515
513 4 0.011434 0.203714 0.196376
285 4 0.230311 0.163187 0.162717
498 4 0.290927 0.254608 0.198756
496 2 0.293765 0.247083 0.222431
497 4 0.296603 0.239558 0.246106
629 4 0.421699 0.182865 0.186933
377 4 0.436292 0.182076 0.173652
630 4 0.43924 0.179405 0.233635
628 2 0.430469 0.181135 0.210284
521 4 0.458176 0.18358 0.237247
2692 2 0.0354994 0.288205 0.20335
2693 4 0.0211724 0.282614 0.223064
2694 4 0.0498265 0.293797 0.183636
396 4 0.0521889 0.304647 0.16792
2799 4 0.00610072 0.273386 0.230471
537 4 0.994055 0.31453 0.186164
338 4 0.226815 0.346516 0.25724
308 4 0.305936 0.265905 0.189687
345 4 0.28365 0.345672 0.201347
298 2 0.059006 0.33385 0.242838
535 2 0.00148372 0.336935 0.194411
536 4 0.00891205 0.359339 0.202659
1775 4 0.99219 0.368598 0.193999
300 4 0.0626524 0.346665 0.22168
416 4 0.0826115 0.34737 0.213854
363 4 0.141803 0.363293 0.201171
417 4 0.123839 0.372997 0.201842
415 2 0.103225 0.360183 0.207848
361 2 0.165196 0.35549 0.205303
339 4 0.203079 0.360371 0.215462
362 4 0.188589 0.347688 0.209435
337 2 0.214947 0.353443 0.236351
611 4 0.277392 0.341328 0.18332
343 2 0.285552 0.357153 0.223477
643 2 0.30461 0.398913 0.258919
344 4 0.287454 0.368634 0.245607
645 4 0.307057 0.375259 0.251194
2537 4 0.394842 0.396553 0.173401
413 4 0.0645545 0.428984 0.214762
412 2 0.0602665 0.432648 0.239121
1386 4 0.10666 0.439346 0.214429
1384 2 0.122698 0.457543 0.208359
1385 4 0.138736 0.475739 0.202289
1641 4 0.107975 0.440412 0.235317
385 2 0.305915 0.437431 0.179455
644 4 0.302162 0.422567 0.266644
1573 2 0.29997 0.450124 0.237897
386 4 0.305324 0.441481 0.204121
1575 4 0.304586 0.459151 0.215041
1574 4 0.295353 0.441098 0.260752
714 4 0.391415 0.415738 0.170394
712 2 0.39729 0.436446 0.183117
713 4 0.403164 0.457153 0.19584
2862 4 0.420904 0.458841 0.20722
231 4 0.475351 0.437838 0.192586
229 2 0.485391 0.460529 0.195669
2860 2 0.436266 0.472682 0.221278
2861 4 0.451628 0.486523 0.235335
1473 4 0.468783 0.488443 0.243063
2718 4 0.0321741 0.0663903 0.285603
427 2 0.144921 0.026934 0.30086
428 4 0.134517 0.0119762 0.317983
1479 4 0.117998 0.0227826 0.318995
429 4 0.155324 0.0418919 0.283737
249 4 0.266147 0.0739991 0.297102
247 2 0.268776 0.0635358 0.274546
1700 4 0.271283 0.0559102 0.303577
1699 2 0.276809 0.0419881 0.323597
1748 4 0.399192 0.0543512 0.292011
743 4 0.392555 0.073874 0.294211
1747 2 0.409779 0.0319897 0.295625
1749 4 0.420365 0.00962823 0.299239
1496 4 0.419838 0.00307498 0.318302
699 4 0.484617 0.0741919 0.278554
2716 2 0.019651 0.087752 0.289072
2717 4 0.00712801 0.109114 0.292541
471 4 0.10091 0.116183 0.320628
2849 4 0.156772 0.138631 0.269089
393 4 0.178022 0.13881 0.265282
391 2 0.198165 0.134701 0.251049
632 4 0.378139 0.161533 0.248014
742 2 0.407273 0.084334 0.276915
515 4 0.355927 0.0998867 0.32776
516 4 0.366898 0.109304 0.279889
29 3 0.356791 0.102471 0.263076
514 2 0.361412 0.104595 0.303825
697 2 0.461436 0.0798973 0.27112
2553 4 0.500516 0.0856418 0.280994
744 4 0.421991 0.0947941 0.259619
698 4 0.438255 0.0856027 0.263686
761 4 0.464105 0.162947 0.294614
760 2 0.447943 0.150006 0.308632
522 4 0.453542 0.1559 0.278636
762 4 0.431781 0.137066 0.322651
457 2 0.0718626 0.213892 0.313093
459 4 0.0470304 0.211574 0.314871
458 4 0.0966949 0.21621 0.311314
349 2 0.327786 0.200155 0.320368
764 4 0.290952 0.258567 0.251678
763 2 0.289991 0.26208 0.276415
332 4 0.389277 0.171204 0.261738
350 4 0.341989 0.19888 0.299829
331 2 0.371708 0.185311 0.272578
333 4 0.354139 0.199418 0.283417
520 2 0.455859 0.16974 0.257942
418 2 0.475236 0.212012 0.305903
420 4 0.453828 0.210774 0.293045
299 4 0.0553596 0.321036 0.263997
2802 4 0.0344571 0.317259 0.313359
2654 4 0.0785833 0.289331 0.319254
735 4 0.0735314 0.321896 0.269877
2800 2 0.0334219 0.341633 0.30788
616 2 0.131295 0.296933 0.267581
618 4 0.140065 0.275265 0.258706
734 4 0.0915966 0.302012 0.312056
617 4 0.122526 0.318601 0.276455
749 4 0.153082 0.262867 0.267415
733 2 0.082564 0.311954 0.290966
365 4 0.120051 0.337754 0.276877
750 4 0.194998 0.26449 0.294639
389 4 0.198168 0.285365 0.298465
748 2 0.17404 0.263678 0.281027
388 2 0.214302 0.290259 0.316929
708 4 0.307947 0.261846 0.306939
765 4 0.289029 0.265592 0.301152
706 2 0.301622 0.256617 0.330558
508 2 0.301491 0.335481 0.30308
510 4 0.319797 0.33133 0.319597
2801 4 0.0323868 0.366007 0.302401
364 2 0.136349 0.351254 0.290192
366 4 0.152646 0.364755 0.303508
603 4 0.166919 0.370741 0.290199
434 4 0.221603 0.330063 0.26709
433 2 0.242855 0.332306 0.280072
601 2 0.191436 0.373418 0.286084
727 2 0.249465 0.396832 0.277747
728 4 0.231293 0.381497 0.270016
602 4 0.215953 0.376094 0.28197
509 4 0.283185 0.339633 0.286562
435 4 0.264106 0.334549 0.293053
729 4 0.267638 0.412167 0.285478
613 2 0.403939 0.35317 0.295952
274 2 0.360376 0.380776 0.270225
276 4 0.364608 0.357579 0.27854
614 4 0.380264 0.358253 0.289722
275 4 0.356145 0.403974 0.26191
108 3 0.489913 0.388162 0.284435
2924 4 0.443996 0.340823 0.309373
615 4 0.427614 0.348086 0.302183
501 4 0.0309129 0.500542 0.268388
679 2 0.0406291 0.469817 0.278355
680 4 0.0225194 0.486755 0.281568
681 4 0.0587388 0.452879 0.275142
414 4 0.0559785 0.436312 0.26348
1640 4 0.126569 0.422227 0.278029
1639 2 0.117272 0.43132 0.256673
502 2 0.237766 0.486708 0.273343
375 4 0.198594 0.439007 0.345659
503 4 0.252348 0.473964 0.289159
2 3 0.25158 0.468484 0.307795
1 1 0.273822 0.47035 0.313362
3 3 0.286559 0.46008 0.296909
4 3 0.279341 0.492843 0.314766
397 2 0.0446902 0.992544 0.336951
399 4 0.0198641 0.990083 0.338622
318 4 0.00667993 0.00295241 0.347487
1478 4 0.0813987 0.00568275 0.348471
1477 2 0.0996982 0.0142327 0.333733
468 4 0.295334 0.0269591 0.358946
1701 4 0.282335 0.028066 0.343617
466 2 0.290245 0.00858522 0.375123
2642 4 0.353798 0.0711054 0.40534
479 4 0.358889 0.0859362 0.392169
2879 4 0.473938 0.0473144 0.399296
2878 2 0.456786 0.0390753 0.415516
4239 4 0.489473 0.0601766 0.39625
685 2 0.0187212 0.113877 0.361331
469 2 0.0874061 0.119801 0.341358
686 4 0.0173029 0.0933514 0.37554
342 4 0.0197264 0.0958413 0.395955
470 4 0.0739026 0.123419 0.362088
1272 4 0.0636964 0.118506 0.378904
1270 2 0.0749769 0.101721 0.393608
1271 4 0.0862574 0.0849369 0.408312
650 4 0.329396 0.13098 0.400091
649 2 0.306853 0.140739 0.404758
473 4 0.274483 0.164468 0.399831
651 4 0.284311 0.150498 0.409426
480 4 0.36823 0.0998131 0.345043
478 2 0.363559 0.0928747 0.368606
2909 4 0.429559 0.105895 0.384105
2910 4 0.432423 0.133086 0.342234
2908 2 0.430991 0.11949 0.363169
2658 4 0.415711 0.150533 0.388225
2501 4 0.424041 0.141572 0.404073
2636 4 0.0040536 0.252468 0.388705
823 2 0.0698992 0.177785 0.414709
1199 4 0.00694739 0.236494 0.399981
1198 2 0.0179535 0.217152 0.411381
825 4 0.0901697 0.1642 0.409255
474 4 0.248989 0.204927 0.414452
715 2 0.309423 0.222594 0.382282
716 4 0.30998 0.204623 0.399658
351 4 0.313583 0.20143 0.340906
472 2 0.261736 0.184697 0.407142
707 4 0.295297 0.251387 0.354176
717 4 0.308866 0.240565 0.364906
488 4 0.317988 0.216089 0.413913
2657 4 0.370304 0.170848 0.393346
2656 2 0.393007 0.16069 0.390785
2653 2 0.0792365 0.294358 0.343738
443 4 0.0679888 0.314508 0.374648
2655 4 0.0798896 0.299385 0.368222
442 2 0.0720205 0.325027 0.39697
390 4 0.230436 0.295154 0.335393
370 2 0.229318 0.282855 0.371751
371 4 0.218999 0.285832 0.349171
372 4 0.239636 0.279878 0.394331
401 4 0.232087 0.270098 0.410785
871 2 0.301786 0.311508 0.411251
873 4 0.306749 0.3326 0.398775
120 3 0.45113 0.322807 0.405949
634 2 0.240245 0.353871 0.38973
636 4 0.218911 0.34246 0.396043
635 4 0.261579 0.365282 0.383417
669 4 0.314348 0.349223 0.392485
668 4 0.273783 0.378391 0.390376
667 2 0.294066 0.363807 0.391431
447 4 0.386548 0.424788 0.406654
2923 2 0.442169 0.342964 0.334217
2925 4 0.440341 0.345105 0.359062
116 1 0.449969 0.345044 0.401173
118 3 0.471125 0.354504 0.402324
117 3 0.44174 0.347798 0.37987
119 3 0.435737 0.355623 0.416138
3671 4 0.0926051 0.504753 0.333897
3670 2 0.105966 0.485831 0.343309
3672 4 0.119328 0.466908 0.352722
677 4 0.138911 0.46227 0.349926
676 2 0.159911 0.45025 0.343626
1423 2 0.20166 0.508606 0.395983
374 4 0.234725 0.47311 0.339986
1424 4 0.204017 0.483745 0.397246
678 4 0.180911 0.43823 0.337325
373 2 0.216659 0.456059 0.342823
2109 4 0.239759 0.484725 0.356043
5 3 0.277408 0.460201 0.333431
594 4 0.281421 0.477474 0.409234
2107 2 0.256728 0.480019 0.373793
2108 4 0.273697 0.475312 0.391543
445 2 0.395623 0.442305 0.391292
446 4 0.404698 0.459822 0.37593
543 4 0.399088 0.466531 0.358134
541 2 0.410505 0.48784 0.364518
2710 2 0.493837 0.429597 0.418771
3590 4 0.0596619 0.0133313 0.456395
3589 2 0.0800952 0.0215415 0.468238
3591 4 0.100529 0.0297517 0.48008
1220 4 0.10107 0.07602 0.419882
599 4 0.234461 0.0336454 0.480691
598 2 0.23222 0.0309895 0.455931
2429 4 0.238543 0.010303 0.427131
600 4 0.229979 0.0283335 0.43117
2641 2 0.337671 0.0694293 0.424375
682 2 0.298259 0.0559899 0.470906
683 4 0.294382 0.0416002 0.490983
576 4 0.279186 0.0295034 0.49504
1516 2 0.417419 0.999495 0.437786
2880 4 0.439633 0.0308362 0.431737
1517 4 0.427613 0.0173455 0.423552
939 4 0.0735946 0.0811795 0.482719
1034 4 0.0184568 0.0979104 0.519211
340 2 0.0273461 0.107913 0.416483
937 2 0.05567 0.0898865 0.497821
341 4 0.0349657 0.119984 0.437011
938 4 0.0377453 0.0985936 0.512923
1221 4 0.084746 0.0743007 0.467119
1219 2 0.0929078 0.0751603 0.443501
368 4 0.145344 0.162882 0.438406
2643 4 0.321545 0.0677532 0.443409
684 4 0.302136 0.0703797 0.45083
2500 2 0.446086 0.143571 0.4157
2502 4 0.468131 0.145571 0.427328
1200 4 0.0289597 0.197811 0.422781
824 4 0.0496288 0.191369 0.420163
369 4 0.155433 0.208272 0.420005
367 2 0.150389 0.185577 0.429205
402 4 0.237432 0.220948 0.418295
400 2 0.234759 0.245523 0.41454
321 4 0.270876 0.172679 0.47693
642 4 0.271254 0.189149 0.465771
640 2 0.2726 0.212789 0.45774
641 4 0.273945 0.23643 0.44971
319 2 0.269645 0.175146 0.501781
487 2 0.327276 0.222039 0.436352
489 4 0.336563 0.227989 0.458791
265 2 0.381403 0.225251 0.454084
267 4 0.356466 0.226891 0.453272
266 4 0.406339 0.223611 0.454897
453 4 0.423701 0.215201 0.451798
451 2 0.439948 0.233235 0.4458
444 4 0.0760523 0.335547 0.419292
260 4 0.090015 0.319105 0.423552
259 2 0.0970835 0.304434 0.442525
695 4 0.116392 0.277475 0.470028
261 4 0.104152 0.289763 0.461498
872 4 0.296824 0.290415 0.423727
812 4 0.273542 0.2498 0.464381
811 2 0.288266 0.266299 0.452712
813 4 0.302991 0.282798 0.441043
452 4 0.456195 0.251269 0.439803
3308 4 0.485554 0.268011 0.495309
2508 4 0.494276 0.275153 0.478311
3353 4 0.0757032 0.354641 0.477871
406 2 0.0133955 0.404239 0.455709
549 4 0.00235447 0.392421 0.414545
408 4 0.0117723 0.403084 0.430785
3352 2 0.0593757 0.37226 0.484812
3354 4 0.0430482 0.389878 0.491753
1395 4 0.176151 0.369747 0.481234
774 4 0.184068 0.385481 0.471803
773 4 0.187784 0.41424 0.431062
772 2 0.185926 0.399861 0.451433
325 2 0.296462 0.423127 0.413576
327 4 0.271603 0.420607 0.414517
326 4 0.32132 0.425647 0.412635
753 4 0.332867 0.418676 0.426134
752 4 0.373175 0.412574 0.397173
751 2 0.353021 0.415625 0.411654
583 2 0.433289 0.375373 0.448629
585 4 0.431393 0.354183 0.435493
584 4 0.435185 0.396563 0.461765
336 4 0.417962 0.408076 0.45608
383 4 0.0164735 0.422532 0.492696
407 4 0.0150187 0.405393 0.480633
709 2 0.229478 0.425423 0.421611
711 4 0.205917 0.42202 0.429257
710 4 0.253039 0.428826 0.413964
592 2 0.277051 0.470875 0.432952
593 4 0.272681 0.464276 0.45667
334 2 0.406755 0.429498 0.462458
238 2 0.375002 0.460735 0.495691
239 4 0.353466 0.471864 0.501819
240 4 0.396537 0.449606 0.489564
335 4 0.395547 0.450919 0.468837
930 4 0.347338 0.489691 0.498979
2712 4 0.471852 0.441479 0.419581
1151 4 0.199962 0.0294043 0.544357
1150 2 0.201089 0.00661552 0.534131
1182 4 0.218671 0.0349524 0.548998
1180 2 0.237153 0.0497328 0.540929
1181 4 0.255636 0.0645133 0.532861
575 4 0.280074 0.0138068 0.542512
574 2 0.27963 0.0216551 0.518776
3158 4 0.277262 0.00240523 0.558867
725 4 0.270412 0.059097 0.51977
842 4 0.48691 0.0611631 0.538423
841 2 0.472722 0.076802 0.551814
3110 4 0.976437 0.117772 0.544897
724 2 0.277997 0.0826741 0.516339
726 4 0.285582 0.106251 0.512909
843 4 0.458535 0.0924409 0.565205
348 4 0.129688 0.247775 0.565496
856 2 0.231583 0.182016 0.54929
857 4 0.207748 0.18209 0.556842
320 4 0.268414 0.177613 0.526632
858 4 0.255419 0.181943 0.541739
878 4 0.0651259 0.276844 0.574145
9 3 0.0781946 0.272121 0.559278
2813 4 0.0302815 0.287145 0.553756
2812 2 0.00734578 0.292737 0.545518
7 3 0.107198 0.294439 0.567842
8 3 0.111103 0.257196 0.571055
6 1 0.101298 0.274188 0.558665
10 3 0.108609 0.273303 0.537114
696 4 0.110772 0.264409 0.51797
1189 2 0.157765 0.335942 0.556064
1191 4 0.155116 0.327592 0.579482
694 2 0.113582 0.270942 0.493999
897 4 0.162507 0.309697 0.583392
805 2 0.378198 0.310858 0.570729
806 4 0.362121 0.328142 0.562484
270 4 0.468142 0.25216 0.54951
3309 4 0.462923 0.243889 0.532814
268 2 0.483522 0.259967 0.567612
269 4 0.498902 0.267774 0.585714
3322 2 0.486874 0.325501 0.579516
3324 4 0.499645 0.310753 0.563878
3307 2 0.474238 0.25595 0.514061
1394 4 0.160315 0.363754 0.528287
1393 2 0.168233 0.366751 0.50476
1190 4 0.160413 0.344292 0.532645
804 4 0.323369 0.361894 0.585058
1027 2 0.274767 0.417901 0.541562
1029 4 0.282741 0.407661 0.562934
803 4 0.363706 0.348347 0.558788
802 2 0.343537 0.35512 0.571923
384 4 0.049794 0.447107 0.520741
935 4 0.0661401 0.453143 0.531347
934 2 0.0697771 0.447106 0.555337
382 2 0.0331337 0.43482 0.506719
936 4 0.0734141 0.441068 0.579326
1135 2 0.153881 0.435568 0.581847
540 4 0.17621 0.458873 0.558376
538 2 0.171966 0.482117 0.550196
1137 4 0.170074 0.440645 0.563484
1172 4 0.258374 0.445055 0.51503
1171 2 0.251765 0.467816 0.507067
1173 4 0.245157 0.490578 0.499105
1028 4 0.266794 0.428142 0.520191
882 4 0.296305 0.494327 0.532689
880 2 0.295874 0.499119 0.557225
929 4 0.308352 0.479612 0.528632
928 2 0.327845 0.484652 0.513805
1001 4 0.48263 0.486254 0.57306
2990 4 0.0327879 0.00311172 0.650294
2989 2 0.0534225 0.00895552 0.663149
1284 4 0.21986 0.0604775 0.613867
2319 4 0.234241 0.0481609 0.622828
1282 2 0.219351 0.0821579 0.626312
2317 2 0.238446 0.0240627 0.617654
2241 4 0.297061 0.0148649 0.616223
1032 4 0.30957 0.0713633 0.633074
1030 2 0.311482 0.0471697 0.627058
1031 4 0.313394 0.0229761 0.621042
87 3 0.410249 0.98733 0.618429
1004 4 0.393763 0.00306308 0.666348
88 3 0.378913 0.00250835 0.604275
3078 4 0.0175506 0.0997479 0.650214
1283 4 0.218842 0.103838 0.638758
1155 4 0.221953 0.118417 0.651835
1142 4 0.304406 0.0913016 0.633622
1141 2 0.325967 0.103045 0.62889
1143 4 0.347528 0.114788 0.624159
887 4 0.364653 0.118514 0.615942
886 2 0.378449 0.129033 0.633947
888 4 0.392244 0.139553 0.651953
1009 2 0.488469 0.114569 0.660337
3179 4 0.0135701 0.185344 0.644194
3462 4 0.016959 0.187372 0.663645
3043 2 0.0554572 0.255867 0.652415
3178 2 0.996937 0.171358 0.631828
346 2 0.136743 0.22624 0.576063
347 4 0.143798 0.204706 0.586631
1212 4 0.25447 0.255343 0.669028
900 4 0.340388 0.195426 0.624085
898 2 0.362201 0.205764 0.617566
899 4 0.384014 0.216102 0.611048
792 4 0.377051 0.231843 0.601252
3123 4 0.454262 0.198784 0.655148
3122 4 0.453406 0.189739 0.605973
3121 2 0.453834 0.194261 0.63056
1263 4 0.446331 0.214055 0.667493
877 2 0.0595735 0.266895 0.596402
879 4 0.0540211 0.256947 0.618659
3045 4 0.0636813 0.267575 0.63191
896 4 0.133683 0.287094 0.617436
992 4 0.130008 0.291248 0.635893
895 2 0.148095 0.298395 0.600414
991 2 0.12926 0.304058 0.657352
411 4 0.295674 0.281909 0.675449
409 2 0.276393 0.27297 0.662277
807 4 0.394274 0.293573 0.578973
790 2 0.383767 0.255525 0.596866
791 4 0.390483 0.279207 0.59248
1239 4 0.271851 0.396098 0.575253
1237 2 0.29404 0.38781 0.583263
1238 4 0.316228 0.379521 0.591273
3371 4 0.469649 0.351801 0.610839
3323 4 0.474103 0.34025 0.595154
3370 2 0.484455 0.348139 0.630651
3372 4 0.499262 0.344477 0.650464
1040 4 0.0759506 0.448334 0.598521
1983 4 0.0768077 0.485384 0.653711
2130 4 0.0784658 0.468826 0.665485
1039 2 0.0979087 0.437059 0.602508
1041 4 0.119867 0.425784 0.606495
1136 4 0.137689 0.43049 0.60021
1951 2 0.296797 0.493821 0.616165
1953 4 0.302465 0.47534 0.632024
891 4 0.303581 0.486401 0.648356
889 2 0.322745 0.487149 0.664399
1952 4 0.29113 0.512301 0.600305
926 4 0.47924 0.492931 0.590984
925 2 0.491414 0.480808 0.60915
2991 4 0.074057 0.0147993 0.676004
864 4 0.0745962 0.0192389 0.695421
862 2 0.0849575 0.0210804 0.718102
863 4 0.0953188 0.0229219 0.740783
1203 4 0.0971631 0.0414086 0.74816
943 2 0.189261 0.0489303 0.723373
945 4 0.197 0.0304867 0.738377
1090 2 0.29156 0.0757735 0.729125
950 4 0.326136 0.087376 0.70416
1091 4 0.274131 0.0663366 0.744368
949 2 0.341564 0.0677696 0.702504
1003 2 0.384104 0.021601 0.680068
1005 4 0.374446 0.040139 0.693788
951 4 0.356992 0.0481631 0.700849
1216 2 0.417526 0.00864749 0.73567
4550 4 0.490514 0.0177992 0.729868
1130 4 0.133501 0.0943211 0.669638
1129 2 0.153957 0.0894874 0.68318
1153 2 0.238573 0.124557 0.669477
944 4 0.181523 0.0673739 0.708369
1131 4 0.174413 0.0846537 0.696721
1297 2 0.249261 0.149169 0.722515
1154 4 0.255193 0.130696 0.68712
1092 4 0.30899 0.0852105 0.713883
1299 4 0.257189 0.146933 0.698907
976 2 0.318516 0.142266 0.734033
977 4 0.333735 0.122442 0.733298
953 4 0.378688 0.145167 0.665845
952 2 0.376435 0.142381 0.69059
954 4 0.374182 0.139596 0.715336
1024 2 0.451965 0.123926 0.712
1026 4 0.470316 0.122744 0.695058
1010 4 0.480743 0.109881 0.68365
1025 4 0.433615 0.125107 0.728942
3425 4 0.442576 0.128736 0.746486
3044 4 0.047233 0.244159 0.67292
3461 4 0.0386007 0.228564 0.681964
3460 2 0.0277799 0.207968 0.672804
850 2 0.0874588 0.209555 0.743547
852 4 0.0646275 0.215832 0.751579
946 2 0.130658 0.188078 0.717153
1260 4 0.164702 0.188752 0.698392
947 4 0.116152 0.182397 0.73671
948 4 0.145165 0.193758 0.697595
851 4 0.11029 0.203278 0.735515
1298 4 0.241334 0.151404 0.746123
1258 2 0.184836 0.201399 0.690657
1259 4 0.20497 0.214046 0.682921
1211 4 0.218403 0.226929 0.68884
1210 2 0.236436 0.241136 0.678934
1085 4 0.263629 0.219094 0.733762
1084 2 0.279711 0.19997 0.732843
1086 4 0.295793 0.180847 0.731924
978 4 0.303297 0.162091 0.734768
1192 2 0.436393 0.177181 0.730067
1261 2 0.428994 0.202358 0.681196
1194 4 0.424613 0.177649 0.708017
1262 4 0.411656 0.190662 0.6949
1193 4 0.448172 0.176712 0.752117
3386 4 0.00808525 0.253817 0.726879
3039 4 0.00564499 0.274564 0.72731
3037 2 0.999808 0.292068 0.710437
3038 4 0.993972 0.309572 0.693563
3419 4 0.993662 0.329748 0.6927
993 4 0.128511 0.316868 0.678812
1068 4 0.133104 0.336095 0.67973
410 4 0.257112 0.264032 0.649104
3418 2 0.00662855 0.349862 0.699944
1281 4 0.0171736 0.370343 0.726025
1279 2 0.0322611 0.389069 0.732872
3420 4 0.0195951 0.369976 0.707188
1280 4 0.0473486 0.407795 0.739719
1066 2 0.153917 0.349372 0.683695
1067 4 0.17473 0.36265 0.68766
1096 2 0.180146 0.414869 0.729675
1097 4 0.188552 0.391326 0.730182
1278 4 0.197968 0.3755 0.738167
798 4 0.307685 0.355832 0.7592
3181 2 0.393048 0.404369 0.723822
3182 4 0.41144 0.388331 0.718372
2128 2 0.0634371 0.450893 0.674301
892 2 0.0129703 0.425212 0.66995
894 4 0.0351202 0.43673 0.66857
2129 4 0.0484084 0.43296 0.683117
884 4 0.04184 0.426114 0.741707
940 2 0.148346 0.463032 0.733477
942 4 0.143144 0.487327 0.730673
941 4 0.153548 0.438737 0.736281
1098 4 0.17174 0.438411 0.729169
2212 2 0.305095 0.486879 0.746261
2213 4 0.295575 0.467483 0.733678
890 4 0.341909 0.487897 0.680441
3183 4 0.374657 0.420407 0.729273
1204 2 0.357527 0.488363 0.720496
1206 4 0.368728 0.483416 0.742296
1205 4 0.346325 0.49331 0.698696
1139 4 0.377216 0.466597 0.749211
1988 4 0.447557 0.482699 0.733684
1249 2 0.485404 0.496615 0.730144
1107 4 0.093764 0.0631361 0.795592
1201 2 0.111284 0.0388758 0.768638
1202 4 0.125405 0.0363429 0.789117
831 4 0.144125 0.041195 0.793023
829 2 0.148857 0.062091 0.805913
830 4 0.153589 0.0829871 0.818802
2255 4 0.198265 0.0342203 0.758199
2254 2 0.188769 0.0147039 0.770613
1049 4 0.267487 0.0512044 0.755306
1048 2 0.279352 0.0369213 0.772051
1050 4 0.291217 0.0226382 0.788797
1256 4 0.311646 0.0100047 0.813535
960 4 0.299044 0.0634008 0.807898
1023 4 0.294066 0.0801801 0.799751
1255 2 0.326725 0.991011 0.80745
958 2 0.311373 0.0429765 0.815383
959 4 0.323702 0.0225522 0.822868
1218 4 0.406469 0.0236654 0.752325
4551 4 0.457278 0.0342659 0.763408
4549 2 0.473896 0.0260325 0.746638
1105 2 0.0769623 0.0815205 0.793379
1215 4 0.0317797 0.149382 0.774696
1213 2 0.0472607 0.129757 0.775313
1214 4 0.0627416 0.110132 0.775931
1106 4 0.0601606 0.0999049 0.791167
908 4 0.160551 0.137813 0.808141
1148 4 0.155959 0.13875 0.827553
909 4 0.171154 0.14497 0.759798
907 2 0.165852 0.141392 0.78397
840 4 0.243841 0.166304 0.759698
1021 2 0.280082 0.0917482 0.816951
1022 4 0.266099 0.103316 0.83415
44 3 0.406174 0.128239 0.82107
3424 2 0.439844 0.12253 0.770552
3426 4 0.437113 0.116323 0.794619
45 3 0.436901 0.10789 0.813361
1144 2 0.467221 0.169606 0.818559
1145 4 0.479217 0.183661 0.801715
42 3 0.440441 0.143166 0.825021
41 1 0.42815 0.12383 0.827072
828 4 0.435857 0.165771 0.829044
1179 4 0.0221132 0.166843 0.76828
1177 2 0.033702 0.188113 0.762076
1178 4 0.0452908 0.209382 0.755872
154 3 0.0460763 0.235137 0.781073
153 3 0.0648926 0.254955 0.807485
151 1 0.054728 0.255933 0.786649
780 4 0.0546306 0.243792 0.820667
839 4 0.284097 0.165783 0.789361
838 2 0.263969 0.166044 0.774529
3363 4 0.498958 0.237197 0.833505
2977 2 0.488772 0.198749 0.774076
2978 4 0.479513 0.177186 0.782705
155 3 0.069834 0.262532 0.770936
152 3 0.037514 0.271169 0.78748
1073 4 0.990362 0.29452 0.820655
1209 4 0.0835314 0.268726 0.756605
1208 4 0.129303 0.28286 0.770956
1207 2 0.106417 0.275793 0.763781
1063 2 0.149654 0.308984 0.771648
1065 4 0.148601 0.333798 0.768753
1064 4 0.150706 0.284171 0.774543
917 4 0.172228 0.276676 0.782072
916 2 0.19542 0.27741 0.791386
918 4 0.218613 0.278144 0.800701
801 4 0.227555 0.292855 0.809088
799 2 0.238414 0.298361 0.830927
3329 4 0.366527 0.265423 0.767505
3328 2 0.365213 0.290379 0.768321
3330 4 0.363899 0.315335 0.769136
1043 4 0.36406 0.325656 0.753012