ITEM: TIMESTEP
2200000
ITEM: NUMBER OF ATOMS
4590
ITEM: BOX BOUNDS pp pp pp
-9.9985700000000008e+00 9.9985700000000008e+00
-9.9985700000000008e+00 9.9985700000000008e+00
-9.9985700000000008e+00 9.9985700000000008e+00
ITEM: ATOMS id type xs ys zs
2625 4 0.00353997 0.0906855 0.0294117
486 4 0.173907 0.996033 0.0279663
484 2 0.197439 0.00435534 0.0294278
566 4 0.24145 0.0135835 0.030592
565 2 0.241272 0.0367969 0.039881
485 4 0.220972 0.0126773 0.0308894
567 4 0.241095 0.0600103 0.0491699
356 4 0.256741 0.0710123 0.055106
746 4 0.445424 0.0666153 0.0223806
745 2 0.449414 0.0570259 0.0451249
747 4 0.453404 0.0474364 0.0678692
25 3 0.467106 0.0568941 0.0788963
655 2 0.0441971 0.132413 0.0829105
2624 4 0.0234053 0.101115 0.0741029
2623 2 0.0134726 0.0959005 0.0517573
656 4 0.0408497 0.108019 0.0785675
701 4 0.103901 0.125759 0.0161308
450 4 0.0947395 0.134808 0.031053
448 2 0.118381 0.140948 0.0363956
915 4 0.155992 0.159024 0.0492444
449 4 0.142023 0.147088 0.0417382
571 2 0.236451 0.143695 0.0506407
572 4 0.214292 0.155116 0.0525659
913 2 0.178654 0.150961 0.0560696
914 4 0.201316 0.142897 0.0628948
573 4 0.25861 0.132274 0.0487155
357 4 0.271693 0.117616 0.0448481
355 2 0.264217 0.0943142 0.0499771
557 4 0.404387 0.0987138 0.00641564
556 2 0.401994 0.103317 0.0308751
558 4 0.399601 0.10792 0.0553346
254 4 0.387366 0.0959209 0.0650456
2640 4 0.489403 0.128043 0.060146
2638 2 0.474796 0.120511 0.0413022
2639 4 0.46019 0.112978 0.0224584
148 3 0.460108 0.105302 0.00349285
738 4 0.0381645 0.172974 0.0922146
462 4 0.141318 0.212554 0.0614322
460 2 0.162414 0.204476 0.0721511
582 4 0.264558 0.188159 0.0714531
296 4 0.273874 0.236617 0.033386
581 4 0.25782 0.226637 0.040233
580 2 0.261189 0.207398 0.0558431
360 4 0.254873 0.189745 0.00542901
295 2 0.267521 0.24552 0.0109012
2806 2 0.0523669 0.32561 0.0625307
2807 4 0.0391327 0.314066 0.080329
477 4 0.0416254 0.294179 0.086157
455 4 0.0980603 0.305336 0.0241912
454 2 0.0791469 0.299034 0.00909982
287 4 0.115735 0.314611 0.0275723
968 4 0.201891 0.326482 0.0372252
2808 4 0.0656011 0.337154 0.0447323
329 4 0.0546951 0.354553 0.0416908
328 2 0.0570067 0.356518 0.0168719
288 4 0.129692 0.358296 0.047509
286 2 0.122714 0.336453 0.0375406
251 4 0.179339 0.408093 0.081807
967 2 0.195116 0.335438 0.059565
969 4 0.188341 0.344395 0.0819047
250 2 0.187264 0.384711 0.0857634
252 4 0.195188 0.361328 0.0897198
902 4 0.254067 0.35139 0.00585545
901 2 0.264975 0.359256 0.0269345
903 4 0.275883 0.367122 0.0480135
1069 2 0.373219 0.374778 0.0296221
1071 4 0.372042 0.357406 0.0116781
1070 4 0.374396 0.392151 0.047566
14 3 0.360707 0.404343 0.0425953
2650 2 0.408499 0.379508 0.0767882
596 4 0.411608 0.410718 0.044832
2652 4 0.412041 0.39603 0.0583584
672 4 0.46007 0.348782 0.0610752
670 2 0.46694 0.37024 0.0502323
323 4 0.486892 0.397465 0.0245799
671 4 0.473809 0.391697 0.0393894
2841 4 0.461042 0.340961 0.0805118
4210 2 0.0212303 0.424936 0.00664681
2983 2 0.0639271 0.467825 0.0314451
2984 4 0.0474844 0.455165 0.0174972
4212 4 0.0365344 0.444275 0.00252696
2985 4 0.0803699 0.480484 0.045393
2093 4 0.158507 0.454007 0.0542387
2092 2 0.17128 0.440176 0.0706927
2094 4 0.184052 0.426345 0.0871468
494 4 0.274475 0.481769 0.0356499
525 4 0.260967 0.476076 0.048565
523 2 0.251668 0.473093 0.0715829
493 2 0.274219 0.481219 0.0106537
741 4 0.350003 0.420154 0.0783267
15 3 0.36137 0.43293 0.0670906
13 3 0.333761 0.431125 0.0415533
11 1 0.356183 0.426881 0.0457563
12 3 0.368953 0.439158 0.0310823
595 2 0.410379 0.434169 0.053419
660 4 0.471678 0.484233 0.0726424
322 2 0.48628 0.42016 0.0141043
659 4 0.429853 0.458116 0.0643243
658 2 0.450766 0.471175 0.0684833
597 4 0.40915 0.457619 0.062006
324 4 0.485668 0.442855 0.00362864
3705 4 0.486831 0.495412 0.0648136
957 4 0.482633 0.461876 0.00468153
692 4 0.26582 0.0208841 0.163351
691 2 0.251421 0.0385009 0.173719
1505 4 0.282432 0.0103489 0.158787
23 3 0.467132 0.0417824 0.113382
1448 4 0.447514 0.0423809 0.114917
1447 2 0.446101 0.0198782 0.125725
21 1 0.47805 0.0562112 0.0988563
24 3 0.479039 0.077482 0.108075
22 3 0.499481 0.0485623 0.0954884
657 4 0.0475445 0.156808 0.0872536
2758 2 0.027436 0.128718 0.15385
2760 4 0.0363572 0.105556 0.156871
2759 4 0.0185147 0.151879 0.150829
705 4 0.0114958 0.159147 0.169162
578 4 0.114072 0.15627 0.119285
577 2 0.134683 0.150248 0.132095
579 4 0.155293 0.144225 0.144906
236 4 0.168005 0.149581 0.159
507 4 0.108805 0.170885 0.131495
730 2 0.306515 0.150368 0.151098
732 4 0.295837 0.154811 0.12893
279 4 0.277088 0.153192 0.121721
731 4 0.317193 0.145925 0.173266
253 2 0.381162 0.0962348 0.0892653
255 4 0.374958 0.0965487 0.113485
758 4 0.385891 0.100731 0.130889
757 2 0.394772 0.122573 0.139209
759 4 0.403654 0.144415 0.14753
737 4 0.0699723 0.185442 0.128732
736 2 0.0540684 0.179208 0.110473
505 2 0.103457 0.194446 0.137935
506 4 0.098109 0.218007 0.144375
756 4 0.109773 0.230601 0.133491
754 2 0.105555 0.252133 0.1215
623 4 0.201559 0.206837 0.0809406
278 4 0.25792 0.187726 0.0910501
461 4 0.18351 0.196398 0.08287
283 2 0.222096 0.20152 0.156854
284 4 0.224456 0.214665 0.135715
624 4 0.233844 0.208134 0.119108
622 2 0.217702 0.207485 0.100024
277 2 0.267504 0.170459 0.106386
378 4 0.483968 0.223606 0.165004
475 2 0.0624914 0.282183 0.0929323
2694 4 0.0388098 0.273555 0.173785
476 4 0.0833573 0.270188 0.0997077
755 4 0.101337 0.273665 0.109509
307 2 0.313716 0.246218 0.164406
519 4 0.351125 0.251936 0.146657
309 4 0.331509 0.254553 0.148943
518 4 0.39067 0.282117 0.141561
528 4 0.411094 0.27875 0.140425
517 2 0.370898 0.267027 0.144109
2839 2 0.449873 0.318611 0.0814591
2840 4 0.438704 0.296261 0.0824064
527 4 0.422196 0.291765 0.0934342
526 2 0.416645 0.285257 0.116929
612 4 0.28857 0.353296 0.14917
609 4 0.280977 0.363821 0.133505
607 2 0.299889 0.374837 0.121416
608 4 0.318801 0.385853 0.109326
740 4 0.33347 0.396017 0.118883
739 2 0.341737 0.408086 0.0986046
2536 2 0.4025 0.38663 0.132112
2537 4 0.401189 0.396082 0.155223
2651 4 0.404957 0.362986 0.095218
2538 4 0.40381 0.377177 0.109001
1709 4 0.0570452 0.480994 0.106164
313 2 0.0227004 0.455271 0.0975604
315 4 0.0443894 0.467336 0.100597
1787 4 0.0758573 0.477399 0.113572
1708 2 0.0652616 0.486702 0.083249
1786 2 0.0936894 0.473571 0.130675
290 4 0.122758 0.453436 0.146782
289 2 0.142958 0.441089 0.138737
1788 4 0.111522 0.469744 0.147779
291 4 0.163158 0.428743 0.130693
627 4 0.180476 0.430011 0.120632
626 4 0.209363 0.470689 0.124032
768 4 0.225717 0.469382 0.134647
625 2 0.194919 0.45035 0.122332
766 2 0.238453 0.488938 0.14362
524 4 0.24237 0.47011 0.0946007
246 4 0.252861 0.452767 0.099923
244 2 0.267846 0.446477 0.118925
387 4 0.300662 0.44114 0.144544
245 4 0.282831 0.440188 0.137927
1568 4 0.498582 0.468467 0.167155
230 4 0.481434 0.476496 0.160281
693 4 0.237022 0.0561178 0.184087
723 4 0.236491 0.0719432 0.195771
403 2 0.296975 0.0846955 0.241365
405 4 0.291415 0.0603246 0.240796
721 2 0.228229 0.0954079 0.193257
235 2 0.185927 0.13979 0.173427
722 4 0.219967 0.118873 0.190743
237 4 0.203849 0.13 0.187854
546 4 0.235622 0.155898 0.223549
392 4 0.227513 0.143121 0.236493
404 4 0.302535 0.109066 0.241934
606 4 0.337213 0.143855 0.177543
30 3 0.321017 0.104429 0.249956
604 2 0.343788 0.140883 0.201483
28 3 0.350765 0.125547 0.24064
633 4 0.368378 0.148571 0.227298
605 4 0.350363 0.13791 0.225423
631 2 0.377777 0.161678 0.246404
512 4 0.0632753 0.167125 0.22924
511 2 0.0493125 0.187496 0.225339
513 4 0.0353497 0.207868 0.221438
2693 4 0.0177828 0.240295 0.204645
530 4 0.0818555 0.174289 0.231863
544 2 0.227637 0.175764 0.210636
545 4 0.219652 0.195631 0.197723
285 4 0.219737 0.188375 0.177992
308 4 0.295923 0.237882 0.179869
376 2 0.470513 0.22548 0.185995
629 4 0.440416 0.232318 0.217027
377 4 0.457057 0.227353 0.206986
630 4 0.449327 0.196691 0.250968
628 2 0.444872 0.214505 0.233997
521 4 0.443897 0.180263 0.236461
396 4 0.0527989 0.277962 0.186681
394 2 0.0698854 0.296165 0.18531
2692 2 0.0282963 0.256925 0.189215
298 2 0.0715892 0.312912 0.240761
300 4 0.0640452 0.303808 0.218729
395 4 0.0869719 0.314367 0.183938
617 4 0.130515 0.298921 0.241506
416 4 0.0963768 0.329081 0.174178
498 4 0.299093 0.228806 0.197977
496 2 0.304909 0.241084 0.218967
345 4 0.289038 0.334336 0.199584
497 4 0.310726 0.253362 0.239958
611 4 0.27311 0.327286 0.188985
764 4 0.302477 0.27126 0.245362
413 4 0.0721786 0.380906 0.180186
412 2 0.0566182 0.399255 0.186997
536 4 0.989596 0.38361 0.199709
363 4 0.15315 0.339456 0.180915
417 4 0.139926 0.353607 0.175805
415 2 0.118151 0.341344 0.174992
361 2 0.172163 0.340487 0.19712
362 4 0.191176 0.341518 0.213326
339 4 0.201619 0.35265 0.226504
337 2 0.214232 0.34519 0.246763
610 2 0.28084 0.340291 0.169078
343 2 0.291169 0.336105 0.224434
344 4 0.2933 0.337874 0.249284
645 4 0.29646 0.358641 0.250563
714 4 0.387034 0.411069 0.158606
414 4 0.0410578 0.417603 0.193808
681 4 0.0471122 0.435071 0.202918
679 2 0.0393921 0.452816 0.218752
680 4 0.0316719 0.47056 0.234586
501 4 0.0304579 0.491005 0.238132
1386 4 0.148104 0.435904 0.240019
1384 2 0.142216 0.45399 0.22379
1385 4 0.136327 0.472077 0.207561
1641 4 0.1463 0.430005 0.259395
385 2 0.299598 0.452693 0.166693
1573 2 0.292182 0.449806 0.228258
386 4 0.298534 0.464246 0.188842
1575 4 0.295905 0.450192 0.203536
1574 4 0.288458 0.449419 0.25298
712 2 0.391942 0.422516 0.180287
713 4 0.396851 0.433963 0.201968
2862 4 0.405808 0.446199 0.21665
2860 2 0.425658 0.461301 0.218397
231 4 0.457553 0.474417 0.204168
2861 4 0.445509 0.476403 0.220144
229 2 0.469493 0.475456 0.182225
1471 2 0.472409 0.469982 0.252222
1472 4 0.490154 0.459356 0.266271
427 2 0.153384 0.995697 0.300606
429 4 0.172061 0.00944356 0.309953
248 4 0.286378 0.0421637 0.247882
249 4 0.280053 0.0388248 0.297375
247 2 0.283216 0.0404943 0.272629
1700 4 0.269346 0.0221332 0.29791
1699 2 0.271826 0.0198948 0.32269
1748 4 0.403029 0.0444691 0.278079
743 4 0.410735 0.063692 0.280333
1747 2 0.398292 0.0361977 0.301194
1749 4 0.393555 0.0279263 0.32431
515 4 0.343328 0.0832526 0.326218
2718 4 0.0209126 0.111319 0.324309
2831 4 0.00824989 0.156268 0.292326
2716 2 0.0189293 0.125957 0.304135
2717 4 0.016946 0.140595 0.283962
471 4 0.0969824 0.167371 0.329317
2849 4 0.17203 0.154316 0.270435
393 4 0.190058 0.145632 0.269531
391 2 0.208786 0.144377 0.253012
27 3 0.324244 0.13901 0.263619
26 1 0.335764 0.120071 0.257474
516 4 0.354434 0.119481 0.293586
29 3 0.34721 0.11193 0.275944
514 2 0.348881 0.101367 0.309902
742 2 0.425688 0.0781595 0.266466
697 2 0.482346 0.0967367 0.268396
744 4 0.440641 0.092627 0.252599
698 4 0.460991 0.0936355 0.255765
760 2 0.445521 0.124396 0.306612
761 4 0.443129 0.131515 0.282763
522 4 0.452262 0.148474 0.274147
520 2 0.448079 0.164368 0.255304
2910 4 0.43714 0.128833 0.342564
459 4 0.0543663 0.207321 0.329693
457 2 0.0759031 0.195662 0.324652
529 2 0.101254 0.178751 0.246995
2850 4 0.129002 0.178363 0.278866
2848 2 0.150516 0.16634 0.274651
531 4 0.120653 0.183213 0.262126
458 4 0.0974398 0.184003 0.31961
349 2 0.324499 0.197286 0.330231
632 4 0.387176 0.174784 0.265511
332 4 0.381879 0.164691 0.282808
350 4 0.34913 0.195274 0.334033
331 2 0.368792 0.17249 0.302634
333 4 0.355706 0.180289 0.322461
312 4 0.49304 0.221168 0.320122
419 4 0.494788 0.217083 0.300254
418 2 0.480808 0.21144 0.280307
420 4 0.466829 0.205796 0.260359
365 4 0.133872 0.317227 0.248359
616 2 0.138611 0.279628 0.255196
299 4 0.0791332 0.322016 0.262792
618 4 0.146708 0.260335 0.268886
735 4 0.0971578 0.314264 0.266502
733 2 0.0993854 0.312371 0.291334
2654 4 0.107123 0.30364 0.332999
734 4 0.101613 0.310478 0.316166
749 4 0.159541 0.265485 0.284942
748 2 0.183277 0.272046 0.289268
750 4 0.207014 0.278607 0.293595
389 4 0.226431 0.27374 0.294147
388 2 0.237708 0.279009 0.315832
338 4 0.226844 0.33773 0.267023
763 2 0.313619 0.276264 0.267179
765 4 0.324762 0.281268 0.288996
706 2 0.333193 0.270122 0.325738
390 4 0.248985 0.284277 0.337517
708 4 0.323006 0.285183 0.308574
509 4 0.284186 0.33447 0.300539
508 2 0.30764 0.328599 0.306912
510 4 0.331094 0.322728 0.313286
2802 4 0.0468477 0.355428 0.298523
2800 2 0.0585958 0.368901 0.316005
2801 4 0.0703439 0.382375 0.333488
364 2 0.144598 0.339388 0.25272
366 4 0.155324 0.36155 0.25708
603 4 0.163233 0.373652 0.271134
1640 4 0.107846 0.400496 0.271691
434 4 0.234788 0.363192 0.321763
601 2 0.184784 0.386276 0.272301
728 4 0.217099 0.405131 0.257594
602 4 0.206334 0.398901 0.273469
433 2 0.258629 0.356755 0.317849
435 4 0.282471 0.350319 0.313934
644 4 0.279571 0.404551 0.260943
643 2 0.288016 0.381596 0.255753
613 2 0.421736 0.361118 0.290695
274 2 0.382006 0.40789 0.274263
276 4 0.391791 0.385031 0.271639
614 4 0.408398 0.376142 0.27581
615 4 0.435074 0.346094 0.305579
2924 4 0.429887 0.339656 0.32456
1639 2 0.127073 0.415251 0.265543
3672 4 0.143963 0.481693 0.33146
3670 2 0.129646 0.502167 0.332452
502 2 0.207883 0.488572 0.255868
727 2 0.229417 0.425938 0.251231
503 4 0.192292 0.469025 0.256002
375 4 0.208369 0.449992 0.332687
729 4 0.241736 0.446745 0.244867
2 3 0.313321 0.453259 0.323544
275 4 0.37222 0.430749 0.276887
1473 4 0.454663 0.480609 0.238174
1220 4 0.0973401 0.0787294 0.409357
468 4 0.284505 0.0144535 0.364665
1701 4 0.274306 0.0176563 0.347469
1495 2 0.415676 0.00348819 0.352668
1496 4 0.403514 0.021341 0.340077
2642 4 0.332041 0.087638 0.402945
1516 2 0.412997 0.00405641 0.408264
2880 4 0.448878 0.000874173 0.427893
1517 4 0.437739 0.00608164 0.411253
686 4 0.0200872 0.128062 0.381116
687 4 0.0165971 0.0997565 0.340039
685 2 0.0183421 0.113909 0.360577
342 4 0.0136044 0.140173 0.397135
340 2 0.0349015 0.134383 0.408886
469 2 0.100718 0.147722 0.344322
1272 4 0.108569 0.125546 0.378084
470 4 0.104454 0.128072 0.359326
1270 2 0.111609 0.106746 0.394286
650 4 0.278301 0.121019 0.379512
649 2 0.279614 0.140532 0.395092
480 4 0.332281 0.0754852 0.340247
478 2 0.335711 0.085286 0.362993
479 4 0.33914 0.0950868 0.385738
2656 2 0.39087 0.157221 0.394001
2657 4 0.369965 0.163866 0.382001
2909 4 0.398373 0.12018 0.372944
2658 4 0.411776 0.150576 0.406
762 4 0.447913 0.117277 0.330461
2908 2 0.417756 0.124506 0.357754
2636 4 0.0136125 0.244383 0.383254
823 2 0.0661752 0.179047 0.394835
1199 4 0.0103698 0.230337 0.397137
1198 2 0.0183431 0.207056 0.401565
824 4 0.0412833 0.177122 0.393468
1200 4 0.0263163 0.183775 0.405992
825 4 0.0910671 0.180972 0.396202
369 4 0.103633 0.195894 0.3925
367 2 0.120506 0.209774 0.404658
368 4 0.137379 0.223654 0.416816
651 4 0.280927 0.160044 0.410671
351 4 0.299869 0.199298 0.326429
715 2 0.302802 0.211612 0.386424
717 4 0.285614 0.21537 0.368658
716 4 0.31999 0.207855 0.40419
473 4 0.263304 0.162289 0.420052
310 2 0.496738 0.208341 0.341263
442 2 0.0754286 0.317849 0.404595
444 4 0.0655469 0.307285 0.424989
443 4 0.0853104 0.328414 0.384201
2653 2 0.104426 0.309269 0.357211
2655 4 0.101728 0.314899 0.381423
370 2 0.263391 0.291616 0.369022
636 4 0.214484 0.33299 0.407252
371 4 0.250962 0.300272 0.349128
372 4 0.27582 0.282961 0.388916
401 4 0.278797 0.275512 0.407068
871 2 0.331698 0.325223 0.413769
707 4 0.34338 0.255062 0.342901
634 2 0.232097 0.347549 0.397103
873 4 0.332695 0.348336 0.404282
669 4 0.314262 0.355493 0.409383
635 4 0.24971 0.362108 0.386954
668 4 0.270156 0.36384 0.387344
667 2 0.292209 0.359667 0.398364
2923 2 0.422362 0.352378 0.344726
120 3 0.455217 0.336399 0.393937
2925 4 0.414836 0.3651 0.364893
116 1 0.447124 0.357676 0.393294
118 3 0.464139 0.372455 0.38777
117 3 0.430625 0.359027 0.377322
119 3 0.438094 0.363339 0.413904
585 4 0.424833 0.377407 0.415605
570 4 0.105612 0.501064 0.411596
677 4 0.149073 0.471507 0.347588
678 4 0.193998 0.449561 0.346686
676 2 0.171535 0.460534 0.347137
374 4 0.24969 0.464391 0.356893
373 2 0.229029 0.457191 0.34479
1424 4 0.194017 0.503742 0.413432
4 3 0.305681 0.481072 0.347641
2109 4 0.264863 0.46169 0.371074
1 1 0.31018 0.458388 0.345747
1802 4 0.315657 0.49733 0.340296
5 3 0.292662 0.44629 0.353834
3 3 0.329507 0.45314 0.357465
2107 2 0.255028 0.471396 0.391913
2108 4 0.245194 0.481102 0.412751
326 4 0.30897 0.421708 0.418589
447 4 0.377208 0.453578 0.411709
445 2 0.395973 0.466339 0.40121
446 4 0.414737 0.4791 0.390711
543 4 0.41301 0.489723 0.371447
1772 4 0.0644299 0.0125599 0.453525
3590 4 0.0768967 0.999253 0.462973
939 4 0.0493251 0.0539411 0.450154
937 2 0.0424551 0.0630635 0.472398
938 4 0.035585 0.072186 0.494641
1221 4 0.0587032 0.0584024 0.433744
1034 4 0.0294697 0.0903344 0.493135
1219 2 0.0780217 0.0685659 0.421551
3589 2 0.0837608 0.0111908 0.483843
599 4 0.229499 0.0300045 0.478569
598 2 0.232534 0.0131174 0.460381
2643 4 0.326094 0.0686615 0.448828
682 2 0.332783 0.0556678 0.487942
684 4 0.337603 0.0605181 0.463892
2641 2 0.329068 0.0781497 0.425887
2879 4 0.47912 0.0338836 0.450175
4239 4 0.490486 0.0418884 0.435677
2878 2 0.463999 0.0173789 0.439034
341 4 0.0561987 0.128593 0.420637
1271 4 0.114648 0.0879454 0.410488
2501 4 0.425279 0.151504 0.420096
2500 2 0.43812 0.137819 0.436618
2502 4 0.450961 0.124133 0.453141
474 4 0.255734 0.211375 0.414225
472 2 0.259519 0.186832 0.417139
400 2 0.272719 0.251908 0.412642
402 4 0.266642 0.228303 0.418215
488 4 0.316553 0.210616 0.423296
321 4 0.296869 0.208647 0.49584
642 4 0.301574 0.229633 0.4951
640 2 0.291949 0.244359 0.477333
487 2 0.336204 0.219709 0.435799
489 4 0.355855 0.228802 0.448303
265 2 0.391973 0.224221 0.433728
267 4 0.372159 0.237938 0.440393
266 4 0.411788 0.210504 0.427064
453 4 0.431697 0.209714 0.422416
452 4 0.468843 0.231235 0.448063
451 2 0.45027 0.220474 0.435239
2508 4 0.494417 0.250186 0.474122
260 4 0.0751243 0.290084 0.425492
259 2 0.0823319 0.287861 0.44933
695 4 0.0835825 0.298302 0.487846
261 4 0.0895395 0.285637 0.473169
694 2 0.103649 0.292682 0.501663
641 4 0.282323 0.259085 0.459566
812 4 0.274846 0.277704 0.456675
811 2 0.293484 0.289459 0.444859
813 4 0.312122 0.301215 0.433042
872 4 0.330701 0.302111 0.423256
3308 4 0.49659 0.262049 0.489592
3352 2 0.0307194 0.374654 0.47553
3354 4 0.0196969 0.384649 0.455436
3353 4 0.041742 0.364658 0.495624
773 4 0.182507 0.398966 0.435539
709 2 0.223328 0.4065 0.436033
711 4 0.201829 0.396091 0.428641
774 4 0.166487 0.377644 0.477841
772 2 0.174497 0.388305 0.45669
1395 4 0.182677 0.38081 0.489522
327 4 0.263998 0.420784 0.440439
710 4 0.244826 0.41691 0.443424
584 4 0.414381 0.402476 0.457594
583 2 0.419607 0.389941 0.436599
382 2 0.0843713 0.44637 0.471483
383 4 0.100945 0.454357 0.454551
384 4 0.0677978 0.438383 0.488416
594 4 0.232429 0.487939 0.42532
1172 4 0.250707 0.424281 0.499789
929 4 0.293296 0.492918 0.492519
1171 2 0.264028 0.441796 0.487918
325 2 0.286484 0.421246 0.429514
753 4 0.326772 0.420253 0.427863
1173 4 0.27735 0.459311 0.476046
335 4 0.397586 0.459942 0.486751
334 2 0.408411 0.440588 0.475201
751 2 0.35003 0.427431 0.422146
752 4 0.373289 0.434609 0.416429
240 4 0.384909 0.475153 0.49402
2712 4 0.487968 0.41752 0.465079
336 4 0.419236 0.421234 0.463651
3591 4 0.090625 0.0231282 0.504713
1151 4 0.222212 0.0233628 0.532472
1150 2 0.223423 0.99919 0.526197
1182 4 0.241316 0.028789 0.531636
1180 2 0.243513 0.0534719 0.528303
1181 4 0.24571 0.0781548 0.524971
575 4 0.301141 0.00721412 0.54571
574 2 0.306329 0.0285424 0.533737
576 4 0.311518 0.0498708 0.521764
683 4 0.327963 0.0508175 0.511992
1142 4 0.354278 0.0744359 0.581337
1061 4 0.516245 0.0729664 0.537358
1033 2 0.0100995 0.0893006 0.508911
724 2 0.232923 0.108038 0.547197
726 4 0.215655 0.123633 0.556353
857 4 0.223761 0.150339 0.536823
725 4 0.25019 0.0924441 0.538041
1141 2 0.365201 0.0939153 0.592581
841 2 0.474582 0.088504 0.541631
843 4 0.452527 0.0991523 0.546668
842 4 0.496637 0.0778558 0.536594
877 2 0.0797222 0.228765 0.576367
878 4 0.0984261 0.229258 0.55978
9 3 0.107407 0.243611 0.548204
348 4 0.130437 0.248959 0.56946
856 2 0.238852 0.170209 0.53844
858 4 0.253943 0.19008 0.540057
320 4 0.268129 0.18345 0.528087
319 2 0.282499 0.196049 0.511964
2813 4 0.0324925 0.275099 0.56239
2812 2 0.0187685 0.295074 0.556241
2814 4 0.00504453 0.31505 0.550092
696 4 0.123716 0.287062 0.51548
8 3 0.131011 0.268936 0.563887
10 3 0.124511 0.26944 0.526804
6 1 0.115253 0.265426 0.54722
7 3 0.0976189 0.279826 0.550506
897 4 0.162229 0.293498 0.573855
1191 4 0.165181 0.302099 0.554863
1189 2 0.180147 0.319862 0.545607
1190 4 0.195113 0.337625 0.536351
270 4 0.486934 0.257805 0.551304
3309 4 0.475665 0.255942 0.534598
268 2 0.492817 0.270997 0.571713
3324 4 0.466816 0.318734 0.567672
3307 2 0.486127 0.258995 0.512095
3322 2 0.449814 0.317112 0.585933
1394 4 0.188928 0.339758 0.517385
1393 2 0.185803 0.360284 0.503453
804 4 0.325065 0.373552 0.575355
1029 4 0.264101 0.395249 0.557045
1239 4 0.264528 0.373886 0.55342
1237 2 0.286486 0.368033 0.56385
1027 2 0.264144 0.407049 0.535002
1028 4 0.264187 0.418849 0.512958
802 2 0.34406 0.35896 0.582527
803 4 0.363055 0.344368 0.5897
936 4 0.0728146 0.419999 0.552441
935 4 0.0782054 0.430255 0.503795
934 2 0.07551 0.425127 0.528118
538 2 0.165087 0.493039 0.557739
1040 4 0.0902007 0.410906 0.561421
540 4 0.171117 0.472503 0.570667
1454 4 0.219458 0.48612 0.514885
238 2 0.367728 0.475281 0.512185
239 4 0.350547 0.475409 0.530351
1000 2 0.453304 0.487958 0.575509
2990 4 0.0393697 0.0171537 0.676931
3082 2 0.0266961 0.0132049 0.637561
3083 4 0.0426832 0.0167142 0.656463
1284 4 0.231565 0.0619071 0.639448
2319 4 0.220048 0.0540743 0.624463
2317 2 0.218378 0.0291266 0.624439
1282 2 0.236454 0.0864263 0.639749
2241 4 0.331687 0.00386226 0.61814
1031 4 0.341746 0.0193439 0.609673
1032 4 0.337522 0.0620208 0.583952
1030 2 0.339634 0.0406824 0.596812
89 3 0.393982 0.0098416 0.608098
3179 4 0.00605372 0.143585 0.674947
1283 4 0.241343 0.110945 0.640049
1155 4 0.238281 0.130975 0.639424
1153 2 0.242968 0.136042 0.663456
1143 4 0.376123 0.113395 0.603826
887 4 0.359899 0.125203 0.607643
886 2 0.363027 0.13523 0.630333
888 4 0.366154 0.145257 0.653024
953 4 0.372263 0.140355 0.671536
1011 4 0.49954 0.135919 0.649178
1009 2 0.48132 0.13684 0.666276
3043 2 0.0630263 0.214615 0.634564
879 4 0.0610183 0.228272 0.592953
3045 4 0.0627237 0.229435 0.614428
3461 4 0.0537723 0.185756 0.645338
3460 2 0.0362843 0.17202 0.656769
3044 4 0.0633288 0.199795 0.6547
346 2 0.134564 0.230348 0.58564
347 4 0.13869 0.211737 0.60182
1210 2 0.24245 0.19713 0.665238
1211 4 0.228927 0.176235 0.667625
410 4 0.272022 0.226619 0.65304
409 2 0.287203 0.243432 0.642454
900 4 0.356358 0.207132 0.657038
898 2 0.361618 0.218138 0.635212
899 4 0.366877 0.229145 0.613386
792 4 0.380271 0.235981 0.600579
1263 4 0.416641 0.17979 0.629864
1261 2 0.416987 0.185506 0.654203
3123 4 0.43128 0.194254 0.627884
3122 4 0.470431 0.207138 0.599566
3121 2 0.450855 0.200696 0.613725
896 4 0.151822 0.273615 0.618544
992 4 0.152157 0.281749 0.637722
895 2 0.157025 0.283556 0.5962
991 2 0.15013 0.290868 0.660915
411 4 0.302383 0.260245 0.631868
805 2 0.384894 0.311173 0.603343
790 2 0.393004 0.256953 0.605398
807 4 0.398448 0.295438 0.617268
791 4 0.405737 0.277925 0.610216
3372 4 0.448882 0.331174 0.662086
1238 4 0.308444 0.362181 0.57428
806 4 0.371341 0.326908 0.589419
3323 4 0.432811 0.31549 0.604194
1007 4 0.464537 0.322168 0.653699
3371 4 0.422638 0.324092 0.620112
3370 2 0.43576 0.327633 0.641099
1006 2 0.484835 0.334447 0.661599
1981 2 0.0935266 0.492221 0.628156
2130 4 0.0874397 0.457097 0.654517
1983 4 0.0939593 0.470903 0.641215
1137 4 0.152799 0.471342 0.581848
1135 2 0.141935 0.453551 0.595655
1039 2 0.101755 0.419933 0.581674
1041 4 0.113309 0.428961 0.601927
1136 4 0.131071 0.43576 0.609462
1953 4 0.300607 0.486547 0.654225
1951 2 0.298623 0.478543 0.63062
1952 4 0.29664 0.470539 0.607016
1001 4 0.468706 0.468447 0.578205
926 4 0.481672 0.459099 0.59023
925 2 0.498798 0.452683 0.607281
2989 2 0.0510713 0.0352662 0.689588
2991 4 0.062773 0.0533787 0.702244
864 4 0.0649741 0.0534536 0.721725
1130 4 0.115689 0.0560888 0.663846
862 2 0.0793987 0.0439352 0.739795
863 4 0.0938233 0.0344167 0.757864
1129 2 0.124972 0.0558606 0.687061
944 4 0.144775 0.0621503 0.726073
1131 4 0.134255 0.0556325 0.710277
943 2 0.166931 0.0508764 0.728755
945 4 0.189087 0.0396025 0.731436
2255 4 0.203012 0.0444174 0.745669
949 2 0.326197 0.0480387 0.690774
950 4 0.310223 0.0548867 0.708749
1217 4 0.40897 0.00382998 0.705824
1005 4 0.359871 0.0343944 0.676498
1003 2 0.369623 0.0113715 0.6766
951 4 0.342172 0.0411907 0.672799
1216 2 0.416231 0.0224733 0.72082
1218 4 0.423493 0.0411166 0.735815
4550 4 0.476302 0.0275714 0.717569
4549 2 0.483002 0.00791825 0.731499
3462 4 0.0187964 0.158283 0.668199
1299 4 0.246339 0.148418 0.705619
1092 4 0.2965 0.126342 0.729622
1154 4 0.247655 0.141109 0.687488
1297 2 0.252386 0.159065 0.72742
1090 2 0.291335 0.106957 0.744547
976 2 0.302627 0.147947 0.700693
977 4 0.302536 0.124793 0.71013
1298 4 0.258432 0.169712 0.74922
952 2 0.387196 0.134158 0.69061
954 4 0.402128 0.127961 0.709683
1024 2 0.440992 0.114073 0.715789
1026 4 0.452698 0.124765 0.696455
1010 4 0.463099 0.13776 0.683374
1025 4 0.429286 0.103381 0.735124
948 4 0.159179 0.185852 0.689938
850 2 0.0942954 0.21153 0.741152
946 2 0.141655 0.192889 0.706326
947 4 0.124131 0.199926 0.722714
851 4 0.103518 0.197197 0.722858
1259 4 0.220609 0.171409 0.684073
1260 4 0.174215 0.180444 0.700405
1258 2 0.197412 0.175926 0.692239
1212 4 0.255973 0.218025 0.662851
978 4 0.302718 0.171101 0.691256
1085 4 0.334783 0.219564 0.718875
1084 2 0.32454 0.197426 0.713385
1086 4 0.314296 0.175287 0.707894
1262 4 0.417333 0.191222 0.678542
1194 4 0.432753 0.182745 0.689185
1193 4 0.453226 0.191519 0.733958
1192 2 0.442989 0.187132 0.711571
2979 4 0.499512 0.206888 0.744987
993 4 0.148103 0.299987 0.684108
1068 4 0.164631 0.310532 0.687574
893 4 0.00301511 0.41842 0.694093
3420 4 0.00288457 0.370994 0.727475
884 4 0.0736454 0.382058 0.736066
1281 4 0.0157132 0.378582 0.740326
1066 2 0.156972 0.332013 0.697827
1067 4 0.149312 0.353493 0.708079
1098 4 0.164445 0.422209 0.733514
1096 2 0.185658 0.40925 0.73082
1097 4 0.20687 0.396291 0.728125
1278 4 0.215331 0.379507 0.734273
3181 2 0.37338 0.391375 0.7065
3182 4 0.393664 0.38211 0.695192
3183 4 0.353095 0.400639 0.717807
3463 2 0.486859 0.389498 0.723515
3465 4 0.470766 0.403638 0.73641
2128 2 0.07489 0.443775 0.671553
892 2 0.0265101 0.419258 0.68558
894 4 0.0500051 0.420096 0.677068
2129 4 0.0623403 0.430453 0.688589
941 4 0.146009 0.426538 0.725928
940 2 0.14604 0.449757 0.716653
942 4 0.14607 0.472977 0.707377
889 2 0.329522 0.505601 0.667906
2214 4 0.303172 0.466618 0.72843
890 4 0.352822 0.505624 0.676977
1204 2 0.374904 0.487513 0.706724
1206 4 0.381324 0.471912 0.725179
1139 4 0.374277 0.454671 0.729977
1295 4 0.0146363 0.0691347 0.798337
1203 4 0.102363 0.0463635 0.770496
1201 2 0.122998 0.0561755 0.780649
1202 4 0.143634 0.0659875 0.790802
831 4 0.157186 0.080842 0.792822
2254 2 0.206751 0.0219925 0.756077
1050 4 0.243529 0.0673502 0.792696
1048 2 0.265156 0.0779155 0.785926
818 4 0.428419 0.0713771 0.827217
1215 4 0.0446503 0.155124 0.815533
1213 2 0.0508755 0.131062 0.812803
1214 4 0.0571006 0.107 0.810073
1106 4 0.0699847 0.110108 0.793137
1105 2 0.0888123 0.102987 0.778305
1107 4 0.10764 0.0958661 0.763473
908 4 0.156625 0.140427 0.797999
1148 4 0.153654 0.126568 0.812115
1147 2 0.138573 0.136037 0.829667
907 2 0.173328 0.154165 0.785451
829 2 0.17078 0.0914252 0.810943
1227 4 0.175924 0.0910148 0.8445
830 4 0.184374 0.102008 0.829065
1049 4 0.286783 0.0884809 0.779156
1091 4 0.28617 0.0875723 0.759471
1021 2 0.295605 0.129273 0.794302
1023 4 0.290412 0.105395 0.789005
840 4 0.259219 0.172416 0.768893
1022 4 0.300798 0.153151 0.799599
44 3 0.40157 0.144542 0.829137
3425 4 0.43024 0.117544 0.74836
41 1 0.42351 0.13982 0.823242
3426 4 0.414869 0.145821 0.786634
45 3 0.425491 0.139149 0.800565
3424 2 0.422554 0.131683 0.767497
852 4 0.0850728 0.225864 0.759446
1179 4 0.0481736 0.191836 0.807797
1177 2 0.0633829 0.201482 0.790453
1178 4 0.0785922 0.211128 0.773109
778 2 0.0382783 0.229364 0.829482
869 4 0.0410775 0.198669 0.83532
909 4 0.19003 0.167904 0.772903
839 4 0.245626 0.217209 0.786487
838 2 0.252422 0.194812 0.77769
3361 2 0.491647 0.24404 0.793211
3362 4 0.489266 0.229848 0.772764
1144 2 0.464732 0.182244 0.813296
1145 4 0.479245 0.190746 0.794795
2977 2 0.490183 0.191995 0.762773
2978 4 0.480855 0.177102 0.78056
780 4 0.037758 0.246405 0.811192
153 3 0.0389347 0.254671 0.793195
154 3 0.0299406 0.261151 0.756842
151 1 0.0448793 0.266097 0.773894
155 3 0.0660017 0.260321 0.767639
152 3 0.0441385 0.288699 0.778107
1208 4 0.123936 0.289998 0.76016
1064 4 0.138671 0.298424 0.771451
1209 4 0.0846369 0.260062 0.767914
1207 2 0.104287 0.27503 0.764037
1063 2 0.153758 0.318267 0.773405
917 4 0.188833 0.315369 0.790816
916 2 0.206147 0.300634 0.801222
918 4 0.223462 0.2859 0.811628
801 4 0.235489 0.295773 0.824902
3329 4 0.371096 0.257838 0.776147
3328 2 0.355752 0.276803 0.781629
3330 4 0.340408 0.295768 0.787112
1043 4 0.340673 0.312018 0.798578
1042 2 0.334084 0.330804 0.78345
1279 2 0.0177207 0.379535 0.76523
2175 4 0.0282759 0.388533 0.806595
1280 4 0.0197282 0.380488 0.790135
883 2 0.0760591 0.39348 0.758177
2173 2 0.0255043 0.404351 0.825759
1242 4 0.148308 0.398658 0.782321
1240 2 0.161357 0.377704 0.778342
1241 4 0.174407 0.35675 0.774363
821 4 0.140195 0.414405 0.772502
885 4 0.0784727 0.404901 0.780288
1276 2 0.237795 0.374608 0.7441
1065 4 0.168844 0.338111 0.775358
1277 4 0.260258 0.369709 0.753928
798 4 0.309245 0.343652 0.762221
796 2 0.286471 0.348148 0.752931
797 4 0.263697 0.352643 0.743641
1044 4 0.327494 0.34959 0.768323
1016 4 0.419056 0.406307 0.82151
1015 2 0.401444 0.411488 0.804535
998 4 0.460417 0.408891 0.751122
1020 4 0.43091 0.389584 0.821368
815 4 0.0863772 0.421398 0.78817
814 2 0.0926353 0.437444 0.806296
816 4 0.0988934 0.45349 0.824422
1236 4 0.141608 0.482558 0.786608
820 2 0.141535 0.438579 0.778748
822 4 0.142874 0.462753 0.784994
1234 2 0.153959 0.501979 0.776838
2212 2 0.287826 0.468128 0.748112
2213 4 0.272479 0.469637 0.767795
272 4 0.310405 0.425051 0.821071
271 2 0.32993 0.43515 0.809155
1017 4 0.383831 0.41667 0.787561
1140 4 0.378854 0.425559 0.770379
273 4 0.349454 0.445249 0.79724
1138 2 0.376565 0.440115 0.750178
1087 2 0.378383 0.463248 0.814147