ITEM: TIMESTEP
4930000
ITEM: NUMBER OF ATOMS
4590
ITEM: BOX BOUNDS pp pp pp
-9.9985700000000008e+00 9.9985700000000008e+00
-9.9985700000000008e+00 9.9985700000000008e+00
-9.9985700000000008e+00 9.9985700000000008e+00
ITEM: ATOMS id type xs ys zs
567 4 0.120507 0.00374534 0.0221827
2252 4 0.114259 0.0130802 0.00461526
1840 2 0.176253 0.0614679 0.0151761
1842 4 0.170067 0.0420346 0.0296416
486 4 0.184331 0.0318797 0.0411584
484 2 0.195732 0.0120627 0.0310349
357 4 0.246244 0.0573327 0.0561525
355 2 0.246115 0.0600158 0.0810114
1661 4 0.26902 0.00588965 0.0742181
2181 4 0.335505 0.078803 0.0506996
2179 2 0.3449 0.0571129 0.0588515
2180 4 0.354295 0.0354227 0.0670033
1749 4 0.35455 0.0167548 0.0733035
2442 4 0.411137 0.0674252 0.00120181
2976 4 0.459307 0.0571858 0.0489071
2441 4 0.445436 0.0636477 0.0373952
2440 2 0.428286 0.0655364 0.0192985
2469 4 0.43836 0.0219374 0.0670411
2467 2 0.461639 0.0195438 0.0758454
2974 2 0.468992 0.0795843 0.0543566
986 4 0.434435 0.00839107 0.0524099
147 3 0.464211 0.0457399 0.021534
2466 4 0.490605 0.0117694 0.0313524
146 1 0.482284 0.0401689 0.00843872
150 3 0.496947 0.0278331 0.0207463
2468 4 0.484919 0.0171501 0.0846497
837 4 0.0286244 0.120948 0.0715128
353 4 0.360715 0.155889 0.0169671
23 3 0.460007 0.138813 0.0188393
21 1 0.480186 0.145029 0.0284615
22 3 0.476287 0.161755 0.0437648
2975 4 0.478676 0.101983 0.059806
24 3 0.494619 0.15301 0.0121401
25 3 0.489557 0.127189 0.0390718
254 4 0.477715 0.13113 0.0800035
2894 4 0.472778 0.156249 0.0626481
3259 2 0.00463639 0.208286 0.00417883
456 4 0.100641 0.246252 0.0241727
463 2 0.111701 0.209162 0.0124163
464 4 0.114305 0.233833 0.0155385
465 4 0.109097 0.184491 0.00929411
914 4 0.183351 0.225411 0.0638715
913 2 0.182696 0.200617 0.0670385
293 4 0.200194 0.235583 0.0658271
915 4 0.18204 0.175824 0.0702054
296 4 0.31435 0.237095 0.0418986
295 2 0.31441 0.214935 0.0303193
297 4 0.31447 0.192774 0.0187399
354 4 0.3164 0.176817 0.00702097
352 2 0.338558 0.166353 0.011994
282 4 0.391611 0.209573 0.0230752
280 2 0.387624 0.234166 0.0251839
359 4 0.396205 0.190429 0.024666
358 2 0.395273 0.176293 0.00406328
2893 2 0.481864 0.174047 0.0776758
454 2 0.0935289 0.253146 0.0471307
455 4 0.0864168 0.26004 0.0700886
287 4 0.100465 0.272168 0.0796949
495 4 0.130614 0.302993 0.0171219
967 2 0.0892685 0.318583 0.0187099
969 4 0.11142 0.307781 0.0144899
493 2 0.150049 0.313896 0.00578154
422 4 0.213573 0.264944 0.00601092
902 4 0.30656 0.247889 0.0565253
901 2 0.310167 0.265047 0.0743522
281 4 0.383637 0.258759 0.0272926
2007 4 0.396263 0.332093 0.0321114
519 4 0.394634 0.2891 0.0748417
517 2 0.398656 0.313214 0.0695971
309 4 0.485972 0.334118 0.0732228
968 4 0.0671171 0.329385 0.0229298
2807 4 0.0516203 0.338823 0.0141003
2806 2 0.0291609 0.347545 0.00741659
2808 4 0.00670148 0.356268 0.000732837
525 4 0.135635 0.365152 0.0809252
2512 2 0.206444 0.392522 0.0126984
2514 4 0.225882 0.392015 0.028418
417 4 0.181473 0.412547 0.0806901
2005 2 0.39021 0.355325 0.0251233
528 4 0.414882 0.3482 0.0758384
518 4 0.402679 0.337328 0.0643524
2006 4 0.384158 0.378557 0.0181352
789 4 0.394006 0.39043 0.00601608
526 2 0.420368 0.372405 0.0788762
323 4 0.496444 0.408923 0.0512011
670 2 0.459208 0.412968 0.0680527
3449 4 0.00452255 0.434052 0.00434235
3338 4 0.0812605 0.449928 0.0678331
3337 2 0.0633607 0.451963 0.0504943
3339 4 0.0454608 0.453997 0.0331555
3450 4 0.0448781 0.461455 0.0153501
3448 2 0.0247003 0.447754 0.00984624
11 1 0.367117 0.478538 0.00570506
12 3 0.365518 0.477381 0.0286235
596 4 0.383383 0.473808 0.0358657
595 2 0.397651 0.460302 0.0513327
597 4 0.411918 0.446797 0.0667996
2803 2 0.48857 0.47742 0.00557095
2805 4 0.477144 0.4989 0.999804
671 4 0.477704 0.415441 0.0514107
379 2 0.00806971 0.045976 0.131343
380 4 0.00991548 0.0501755 0.155922
381 4 0.00622395 0.0417766 0.106764
237 4 0.159175 0.0880168 0.153959
757 2 0.236459 0.0678578 0.136221
758 4 0.23826 0.050162 0.118649
356 4 0.245986 0.0626988 0.10587
1662 4 0.251213 0.00218386 0.1208
1660 2 0.260116 0.00403675 0.0975092
1748 4 0.39413 0.0254441 0.102606
742 2 0.385612 0.042886 0.137993
743 4 0.4008 0.0339287 0.120264
744 4 0.370425 0.0518433 0.155721
1747 2 0.37434 0.0210994 0.0879549
1506 4 0.366432 0.0695028 0.162632
1761 4 0.488694 0.0104912 0.156578
1759 2 0.485242 0.00334276 0.132868
835 2 0.0259754 0.126302 0.0957924
836 4 0.0233263 0.131655 0.120072
235 2 0.161929 0.102657 0.17404
759 4 0.234658 0.0855536 0.153794
450 4 0.210914 0.152177 0.126246
448 2 0.197401 0.161385 0.107331
604 2 0.225738 0.118092 0.154778
605 4 0.222612 0.0982934 0.139831
731 4 0.241165 0.153642 0.161328
723 4 0.293962 0.159712 0.128806
693 4 0.290758 0.145815 0.141906
691 2 0.302505 0.123937 0.138982
692 4 0.314252 0.102059 0.136058
1505 4 0.334299 0.0986586 0.137769
1504 2 0.350366 0.0840807 0.150201
255 4 0.48084 0.104606 0.122282
253 2 0.479277 0.117868 0.101143
705 4 0.0226029 0.199575 0.097856
703 2 0.0438387 0.211396 0.103729
704 4 0.0650745 0.223216 0.109602
462 4 0.0633199 0.227921 0.129076
460 2 0.0729376 0.247482 0.141326
449 4 0.183887 0.170593 0.0884163
580 2 0.216746 0.236347 0.141846
581 4 0.21874 0.215712 0.155825
732 4 0.214601 0.19593 0.15871
730 2 0.227883 0.174786 0.160019
722 4 0.283091 0.199352 0.100325
721 2 0.288526 0.179532 0.114565
376 2 0.399599 0.216968 0.129841
377 4 0.398319 0.192851 0.136317
378 4 0.400879 0.241084 0.123365
2876 4 0.398228 0.239801 0.103191
629 4 0.401051 0.181285 0.152337
2895 4 0.49095 0.191846 0.0927035
461 4 0.0825553 0.267042 0.153576
476 4 0.0781011 0.343844 0.142735
475 2 0.0964524 0.32687 0.142181
477 4 0.114804 0.309897 0.141628
286 2 0.106908 0.296127 0.0827993
288 4 0.113351 0.320086 0.0859037
623 4 0.100919 0.270188 0.161123
524 4 0.131427 0.329996 0.116239
292 2 0.206391 0.247449 0.0869457
294 4 0.212587 0.259314 0.108064
582 4 0.214753 0.256982 0.127867
103 3 0.210736 0.279376 0.104882
101 1 0.219689 0.287388 0.124733
105 3 0.219801 0.270885 0.140426
102 3 0.206738 0.304867 0.132211
278 4 0.194132 0.319901 0.134272
104 3 0.241294 0.295056 0.121154
903 4 0.313773 0.282204 0.0921792
2877 4 0.408636 0.286302 0.0880237
2875 2 0.403432 0.263052 0.0956073
307 2 0.4832 0.322718 0.095303
308 4 0.480428 0.311318 0.117383
496 2 0.461876 0.312945 0.151452
498 4 0.473074 0.29982 0.133355
755 4 0.0719354 0.361424 0.152518
416 4 0.144985 0.380159 0.091659
523 2 0.133531 0.347574 0.0985823
415 2 0.163229 0.396353 0.0861745
363 4 0.170831 0.383083 0.135819
361 2 0.162456 0.394618 0.156361
277 2 0.18476 0.342382 0.139923
279 4 0.175387 0.364863 0.145574
1121 4 0.221624 0.376249 0.10677
1120 2 0.238671 0.392652 0.114864
1122 4 0.255718 0.409056 0.122958
527 4 0.425855 0.396609 0.081914
672 4 0.440711 0.410495 0.0846947
2770 2 0.0632065 0.424605 0.15965
2772 4 0.087429 0.421526 0.154268
2094 4 0.10662 0.424292 0.14801
766 2 0.146317 0.480211 0.100141
768 4 0.125965 0.494026 0.10463
767 4 0.166668 0.466396 0.0956531
330 4 0.105911 0.5007 0.104022
638 4 0.176428 0.463263 0.113173
637 2 0.19171 0.461169 0.132852
639 4 0.206992 0.459076 0.15253
1863 4 0.223054 0.4712 0.148525
1861 2 0.232353 0.492228 0.15835
1070 4 0.319659 0.421107 0.127745
1071 4 0.270185 0.423017 0.120712
1069 2 0.294922 0.422062 0.124229
609 4 0.330402 0.428245 0.113222
607 2 0.350949 0.432478 0.126827
608 4 0.371496 0.436711 0.140431
740 4 0.370028 0.436142 0.161458
739 2 0.388547 0.452612 0.164766
233 4 0.0179769 0.0439801 0.174219
232 2 0.017063 0.0494668 0.198596
234 4 0.0161492 0.0549534 0.222973
2675 4 0.00481525 0.0722668 0.227267
2850 4 0.105523 0.0343577 0.239234
2848 2 0.107649 0.0585909 0.245014
405 4 0.243562 0.0463781 0.23741
403 2 0.252882 0.0688783 0.243072
29 3 0.271784 0.0635444 0.194959
697 2 0.48842 0.0797794 0.227258
698 4 0.499207 0.0652907 0.244547
2674 2 0.00819326 0.0917941 0.242514
236 4 0.164684 0.117298 0.194121
606 4 0.228864 0.137891 0.169725
577 2 0.175731 0.158664 0.200731
579 4 0.170494 0.134322 0.203012
546 4 0.170775 0.139977 0.245057
30 3 0.248087 0.0798988 0.170696
404 4 0.262201 0.0913785 0.248735
27 3 0.249549 0.091741 0.206059
28 3 0.278191 0.0989865 0.182825
26 1 0.261866 0.0834926 0.188469
2574 4 0.431247 0.129255 0.184739
2572 2 0.44573 0.110548 0.192831
2573 4 0.460213 0.0918412 0.200922
699 4 0.477634 0.0942682 0.209969
1220 4 0.0306496 0.204889 0.199739
1219 2 0.0347486 0.224175 0.215115
1221 4 0.0388477 0.243461 0.230491
506 4 0.157914 0.242495 0.170425
507 4 0.174345 0.197388 0.18443
505 2 0.166129 0.219942 0.177427
624 4 0.138093 0.239688 0.174854
578 4 0.180968 0.183007 0.19845
251 4 0.278353 0.2412 0.190382
350 4 0.272946 0.222463 0.195867
349 2 0.285178 0.211028 0.214436
351 4 0.29741 0.199593 0.233005
630 4 0.395819 0.175388 0.201719
628 2 0.398435 0.178336 0.177028
331 2 0.411308 0.175014 0.242871
332 4 0.40694 0.172698 0.218361
459 4 0.0526919 0.257439 0.235452
457 2 0.0772005 0.256948 0.240378
395 4 0.00519609 0.312779 0.206847
458 4 0.101709 0.256457 0.245304
622 2 0.119506 0.254938 0.167989
252 4 0.250462 0.276947 0.211474
285 4 0.235796 0.265708 0.219473
283 2 0.219492 0.259095 0.237239
734 4 0.197043 0.321572 0.244027
250 2 0.264408 0.259073 0.200928
611 4 0.336381 0.300719 0.236148
385 2 0.363099 0.326188 0.220506
387 4 0.349898 0.314462 0.23821
497 4 0.450678 0.32607 0.16955
275 4 0.433419 0.331888 0.177624
394 2 0.0145988 0.335914 0.205617
754 2 0.0544295 0.359488 0.170265
396 4 0.0240015 0.35905 0.204387
756 4 0.0369236 0.357552 0.188013
264 4 0.0960779 0.419034 0.243743
291 4 0.164179 0.393926 0.190284
362 4 0.154081 0.406153 0.176903
290 4 0.173832 0.38308 0.238137
289 2 0.169006 0.388503 0.214211
733 2 0.188085 0.344732 0.246951
386 4 0.376301 0.337913 0.202803
276 4 0.386022 0.344825 0.186944
274 2 0.409721 0.338357 0.182284
2538 4 0.47611 0.361545 0.164776
2651 4 0.489939 0.355131 0.176107
2536 2 0.460447 0.378274 0.174776
2537 4 0.444785 0.395002 0.184777
712 2 0.436316 0.405512 0.222023
714 4 0.450957 0.404653 0.201773
713 4 0.421675 0.40637 0.242273
2771 4 0.038984 0.427684 0.165032
314 4 0.0208671 0.436153 0.167058
313 2 0.0189789 0.455276 0.183055
315 4 0.0170906 0.474399 0.199053
2092 2 0.118864 0.438015 0.16495
1382 4 0.104631 0.436278 0.239262
2093 4 0.131107 0.451738 0.18189
728 4 0.128396 0.470169 0.173468
727 2 0.137412 0.488718 0.187605
337 2 0.163413 0.495032 0.2382
1788 4 0.241236 0.48798 0.232187
741 4 0.407067 0.469082 0.168074
303 4 0.406251 0.484774 0.180715
301 2 0.412182 0.495307 0.202603
1716 4 0.448537 0.493965 0.236227
1867 2 0.141617 0.00476582 0.288771
2849 4 0.109776 0.0828241 0.250794
429 4 0.161421 0.0260782 0.318219
1869 4 0.122562 0.992552 0.278145
1272 4 0.112074 0.0865561 0.269775
1868 4 0.160672 0.0169795 0.299396
393 4 0.218067 0.0354627 0.299345
392 4 0.179697 0.0668268 0.306039
391 2 0.198882 0.0511448 0.302692
479 4 0.231373 0.0500603 0.300791
470 4 0.190989 0.0816959 0.312906
478 2 0.253463 0.0397407 0.306333
480 4 0.275553 0.0294211 0.311876
2642 4 0.29132 0.0401806 0.318184
2676 4 0.0115713 0.111321 0.25776
511 2 0.0556335 0.124936 0.304855
513 4 0.0706684 0.108551 0.293424
1271 4 0.0763807 0.0931761 0.304168
512 4 0.0405986 0.141321 0.316286
1270 2 0.0942274 0.0898661 0.286971
708 4 0.115572 0.147397 0.329718
706 2 0.136566 0.133844 0.330582
707 4 0.15756 0.120291 0.331445
544 2 0.194707 0.136791 0.251559
530 4 0.225301 0.137371 0.324907
529 2 0.219078 0.132817 0.301122
531 4 0.212856 0.128264 0.277337
545 4 0.218639 0.133606 0.258062
516 4 0.263437 0.110057 0.249649
2910 4 0.288191 0.165322 0.275229
515 4 0.287739 0.152349 0.260673
514 2 0.275588 0.131203 0.255161
2908 2 0.309564 0.161245 0.287548
2657 4 0.324254 0.144407 0.313905
2909 4 0.330936 0.157167 0.299867
633 4 0.440896 0.136209 0.317313
631 2 0.433053 0.152466 0.30001
2879 4 0.428933 0.120914 0.316334
298 2 0.0112614 0.231994 0.296877
2692 2 0.0667182 0.205281 0.296145
2693 4 0.0522171 0.224944 0.290829
300 4 0.0359405 0.230522 0.300613
2694 4 0.0812192 0.185618 0.301461
389 4 0.152838 0.256706 0.284777
764 4 0.296616 0.209559 0.251131
763 2 0.293869 0.212078 0.275855
510 4 0.30634 0.228198 0.300118
765 4 0.291121 0.214597 0.300579
508 2 0.321687 0.234745 0.31874
333 4 0.415676 0.177331 0.267381
717 4 0.356969 0.23854 0.335534
509 4 0.337033 0.241293 0.337362
632 4 0.42521 0.168723 0.282708
750 4 0.0939893 0.255612 0.264265
748 2 0.10418 0.262147 0.286142
749 4 0.114371 0.268683 0.30802
618 4 0.12043 0.287979 0.308031
616 2 0.129578 0.309628 0.2995
617 4 0.138726 0.331278 0.290969
284 4 0.203189 0.252481 0.255005
388 2 0.177273 0.25661 0.279475
390 4 0.201708 0.256513 0.274174
365 4 0.241919 0.295624 0.2822
364 2 0.225108 0.310677 0.271431
366 4 0.208297 0.325731 0.260663
344 4 0.256439 0.28439 0.28842
612 4 0.319555 0.298229 0.283174
345 4 0.303939 0.298267 0.295621
343 2 0.280189 0.291329 0.292021
610 2 0.327968 0.299474 0.259661
263 4 0.0578077 0.391205 0.259918
537 4 0.0351109 0.352198 0.314566
412 2 0.0562932 0.360103 0.290647
414 4 0.0514306 0.34129 0.306383
413 4 0.0611558 0.378916 0.274912
262 2 0.0769428 0.40512 0.251831
2654 4 0.143913 0.346655 0.302637
2653 2 0.133195 0.366389 0.313631
2655 4 0.122478 0.386123 0.324626
3671 4 0.125808 0.404455 0.329814
735 4 0.179127 0.367892 0.249876
245 4 0.214313 0.369664 0.275275
244 2 0.216985 0.394524 0.275206
1574 4 0.34174 0.408419 0.252025
1575 4 0.375491 0.371712 0.255789
1573 2 0.358616 0.390066 0.253907
2862 4 0.427164 0.414212 0.259458
2860 2 0.44576 0.414057 0.276171
2861 4 0.464357 0.413902 0.292884
1381 2 0.119805 0.439095 0.258934
1383 4 0.134978 0.441913 0.278607
3672 4 0.123873 0.440991 0.295724
3670 2 0.124841 0.422723 0.312769
677 4 0.193976 0.493304 0.258383
246 4 0.219657 0.419385 0.275138
627 4 0.202906 0.431528 0.273332
625 2 0.218172 0.448758 0.263572
626 4 0.233439 0.465987 0.253811
338 4 0.174473 0.494525 0.260619
1802 4 0.328275 0.414926 0.265625
1803 4 0.333777 0.452958 0.297625
1801 2 0.331026 0.433942 0.281625
542 4 0.351879 0.455926 0.306263
541 2 0.374244 0.458558 0.317128
543 4 0.396609 0.46119 0.327992
3602 4 0.498025 0.453396 0.325454
3990 4 0.483155 0.413859 0.28554
3988 2 0.496947 0.428277 0.300609
3601 2 0.493099 0.477807 0.327699
2237 4 0.0672769 0.0713145 0.39734
163 3 0.0481772 0.073183 0.393128
427 2 0.161029 0.0321361 0.342475
2236 2 0.0878972 0.0755256 0.38384
2238 4 0.108517 0.0797366 0.37034
428 4 0.160638 0.0381941 0.36673
2641 2 0.309628 0.0470549 0.333764
2643 4 0.327936 0.0539292 0.349344
600 4 0.32961 0.0391795 0.36277
599 4 0.379287 0.0427389 0.367262
598 2 0.354449 0.0409592 0.365016
1518 4 0.398432 0.039353 0.373299
1516 2 0.407049 0.0603068 0.362722
762 4 0.498042 0.0486295 0.365339
2552 4 0.490619 0.0513764 0.384594
2551 2 0.474801 0.0622012 0.40065
760 2 0.501975 0.0706802 0.354227
1517 4 0.415666 0.0812605 0.352146
164 3 0.015624 0.0913294 0.400571
165 3 0.0414562 0.107068 0.378151
161 1 0.0383165 0.0939181 0.396478
471 4 0.160827 0.106748 0.343944
651 4 0.236616 0.131437 0.340044
469 2 0.175908 0.0942219 0.328425
649 2 0.244278 0.135548 0.363487
2656 2 0.324967 0.130693 0.3348
371 4 0.262783 0.14388 0.402174
650 4 0.251939 0.13966 0.38693
1032 4 0.316188 0.0862147 0.406757
1030 2 0.320589 0.0919323 0.382817
1031 4 0.324991 0.0976498 0.358877
2658 4 0.32568 0.11698 0.355696
761 4 0.505909 0.0927309 0.343116
3173 4 0.497972 0.1076 0.355345
1062 4 0.439032 0.0684757 0.415762
2878 2 0.422989 0.110533 0.33829
2901 4 0.48744 0.153921 0.391868
3172 2 0.49243 0.130404 0.363972
2880 4 0.417045 0.100152 0.360247
3174 4 0.486888 0.153209 0.372599
2515 2 0.44229 0.114407 0.39623
2517 4 0.431743 0.134553 0.385835
2899 2 0.481805 0.170521 0.409697
340 2 0.127332 0.194262 0.392015
341 4 0.11365 0.184425 0.373543
402 4 0.159762 0.209616 0.404411
342 4 0.141014 0.2041 0.410487
2592 4 0.501322 0.237389 0.337369
2590 2 0.477253 0.231298 0.340336
2591 4 0.453185 0.225207 0.343304
321 4 0.339304 0.261896 0.412476
320 4 0.327012 0.297438 0.379517
319 2 0.333158 0.279667 0.395996
715 2 0.364392 0.259867 0.34627
716 4 0.371816 0.281193 0.357007
488 4 0.376433 0.297147 0.366241
487 2 0.382777 0.311515 0.385696
489 4 0.389121 0.325884 0.40515
536 4 0.0119367 0.353302 0.358866
535 2 0.0235238 0.35275 0.336716
644 4 0.259087 0.395173 0.337236
643 2 0.282544 0.402726 0.341465
645 4 0.306002 0.410279 0.345693
435 4 0.318789 0.400409 0.357732
375 4 0.270066 0.392932 0.411184
583 2 0.400861 0.403613 0.391412
585 4 0.406889 0.379354 0.390842
119 3 0.398519 0.37551 0.408824
118 3 0.380454 0.342787 0.401948
568 2 0.0692533 0.49 0.395851
2138 4 0.0616795 0.457312 0.417257
569 4 0.0565617 0.475432 0.411722
2 3 0.391068 0.499595 0.365921
434 4 0.355325 0.422206 0.384013
433 2 0.337057 0.411307 0.370872
584 4 0.394833 0.427873 0.391981
615 4 0.349196 0.429673 0.400483
1485 4 0.397535 0.455968 0.347573
1483 2 0.41311 0.466833 0.363838
446 4 0.442841 0.491179 0.385369
1484 4 0.428684 0.477698 0.380103
1151 4 0.221452 0.0109089 0.502698
1150 2 0.210764 0.0104457 0.480098
1152 4 0.200077 0.00998255 0.457498
2241 4 0.347406 0.012223 0.473389
683 4 0.354577 0.0273065 0.462595
682 2 0.372342 0.0416271 0.452372
684 4 0.390106 0.0559476 0.442148
1061 4 0.402455 0.0702897 0.449814
1060 2 0.420744 0.0693827 0.432788
2553 4 0.458983 0.073026 0.416706
162 3 0.0480737 0.103928 0.414747
1035 4 0.00439086 0.0865665 0.493157
1033 2 0.0205062 0.0970422 0.477165
938 4 0.028021 0.162658 0.438684
1034 4 0.0366215 0.107518 0.461173
937 2 0.0391624 0.141533 0.446085
939 4 0.0503039 0.120408 0.453487
370 2 0.245079 0.1414 0.419656
472 2 0.226059 0.129906 0.471485
473 4 0.229844 0.122537 0.447894
372 4 0.227376 0.138919 0.437137
474 4 0.222274 0.137276 0.495076
3159 4 0.322883 0.100995 0.418557
3157 2 0.326772 0.108039 0.442231
3158 4 0.330661 0.115084 0.465904
2502 4 0.337335 0.127754 0.479487
2500 2 0.349245 0.142756 0.495558
419 4 0.491972 0.0990376 0.473463
2516 4 0.452838 0.0942614 0.406626
2508 4 0.487217 0.100708 0.493132
420 4 0.466049 0.0819149 0.434278
418 2 0.47901 0.0904762 0.453871
2613 4 0.0350593 0.181314 0.445231
2611 2 0.0410224 0.202055 0.45786
2847 4 0.04043 0.235156 0.484653
2612 4 0.0469855 0.222795 0.470488
825 4 0.13344 0.226132 0.487587
369 4 0.117423 0.21594 0.493445
823 2 0.148131 0.246336 0.486517
400 2 0.17548 0.221798 0.419567
401 4 0.191199 0.233981 0.434722
1191 4 0.202858 0.246246 0.445709
640 2 0.345416 0.239339 0.450853
641 4 0.347978 0.223504 0.470033
899 4 0.353876 0.222724 0.488858
898 2 0.358496 0.20088 0.500112
2900 4 0.47617 0.187121 0.427525
312 4 0.457933 0.190648 0.437408
310 2 0.469159 0.210703 0.447255
311 4 0.480385 0.230757 0.457102
452 4 0.484819 0.247905 0.448434
2845 2 0.044226 0.259862 0.484042
2846 4 0.0480219 0.284569 0.483432
261 4 0.0309934 0.291369 0.477474
259 2 0.00970043 0.304346 0.479315
443 4 0.108141 0.293999 0.446912
442 2 0.121539 0.297857 0.467668
444 4 0.134938 0.301714 0.488423
696 4 0.150637 0.315878 0.488732
824 4 0.162822 0.26654 0.485447
1189 2 0.222716 0.252918 0.459359
1190 4 0.242574 0.25959 0.47301
635 4 0.171508 0.336071 0.448054
669 4 0.179553 0.272429 0.476304
667 2 0.178609 0.294881 0.465341
668 4 0.177665 0.317334 0.454379
1394 4 0.242098 0.2644 0.492368
872 4 0.271973 0.319544 0.473072
812 4 0.274036 0.311503 0.49102
267 4 0.403563 0.325243 0.420889
642 4 0.342854 0.255173 0.431672
453 4 0.451747 0.285401 0.449453
266 4 0.44322 0.300675 0.438901
451 2 0.468283 0.266653 0.448943
265 2 0.423392 0.312959 0.429895
2139 4 0.0893689 0.415871 0.421342
710 4 0.0983441 0.398691 0.417585
636 4 0.130714 0.338236 0.419212
709 2 0.108852 0.376225 0.420754
634 2 0.151111 0.337153 0.433633
711 4 0.11936 0.353759 0.423922
694 2 0.153155 0.339422 0.496765
327 4 0.175332 0.401977 0.477391
373 2 0.265924 0.406447 0.431809
871 2 0.285113 0.334617 0.458062
601 2 0.25801 0.401108 0.492757
873 4 0.298253 0.349691 0.443052
602 4 0.262542 0.416258 0.47339
2924 4 0.321439 0.368257 0.473725
374 4 0.261782 0.419962 0.452433
2923 2 0.340333 0.368884 0.45736
116 1 0.390776 0.355745 0.418194
117 3 0.375411 0.36079 0.434553
2925 4 0.359228 0.369511 0.440996
120 3 0.408099 0.344232 0.427468
2137 2 0.0755242 0.436591 0.419299
1446 4 0.159762 0.462192 0.461423
1444 2 0.148278 0.477458 0.445291
1445 4 0.136795 0.492723 0.429158
326 4 0.172157 0.446442 0.45473
325 2 0.173744 0.424209 0.466061
1172 4 0.296775 0.430221 0.478734
1171 2 0.311554 0.44748 0.468299
1173 4 0.326333 0.464739 0.457863
1028 4 0.309655 0.428957 0.494079
1696 2 0.34729 0.496159 0.456752
2107 2 0.384401 0.454221 0.473267
613 2 0.341093 0.442722 0.420212
2109 4 0.370396 0.474748 0.470496
1698 4 0.361933 0.476274 0.452835
614 4 0.33299 0.455771 0.439941
2108 4 0.398406 0.433694 0.476037
1951 2 0.434785 0.435231 0.453989
1953 4 0.455882 0.442377 0.442631
1952 4 0.413688 0.428085 0.465348
2314 2 0.223851 0.024566 0.54001
2315 4 0.214881 0.0322564 0.562045
1182 4 0.214373 0.0502617 0.570535
1180 2 0.213273 0.0733905 0.561099
2316 4 0.232822 0.0168756 0.517974
2240 4 0.324228 0.999572 0.515856
1143 4 0.417072 0.0471956 0.553889
842 4 0.417564 0.0299574 0.544496
2239 2 0.335817 0.00589755 0.494622
1141 2 0.433642 0.0626098 0.564521
841 2 0.424799 0.0160323 0.52503
1162 2 0.470081 0.0161663 0.587522
1142 4 0.450211 0.078024 0.575153
576 4 0.465796 0.0711227 0.58424
1163 4 0.445447 0.0150647 0.583378
843 4 0.432033 0.00210724 0.505564
1967 4 0.448612 0.0134794 0.502081
4467 4 0.429265 0.00516381 0.576078
9 3 0.12136 0.160961 0.566875
944 4 0.120059 0.122468 0.571254
8 3 0.159119 0.16427 0.564108
1181 4 0.212172 0.0965192 0.551663
725 4 0.21616 0.115055 0.55396
724 2 0.225297 0.124035 0.532487
726 4 0.234433 0.133014 0.511015
348 4 0.174613 0.151302 0.563028
960 4 0.266827 0.0800888 0.56057
2319 4 0.291429 0.157371 0.58377
2501 4 0.361155 0.157757 0.51163
3308 4 0.48363 0.160287 0.561306
3307 2 0.465392 0.160175 0.57841
574 2 0.485885 0.0849615 0.578752
7 3 0.137351 0.194904 0.56469
6 1 0.138729 0.173115 0.557444
368 4 0.119721 0.179163 0.527252
10 3 0.137106 0.172646 0.534733
367 2 0.118572 0.197552 0.510349
409 2 0.224488 0.21433 0.564068
346 2 0.193895 0.167176 0.564208
347 4 0.213177 0.183051 0.565387
411 4 0.210809 0.198462 0.577716
410 4 0.238167 0.230199 0.550421
1395 4 0.245289 0.236015 0.533414
1393 2 0.243693 0.250208 0.512891
900 4 0.363117 0.179035 0.511367
3045 4 0.164905 0.305429 0.574407
3043 2 0.159518 0.282449 0.582658
811 2 0.288432 0.30098 0.508547
813 4 0.302827 0.290457 0.526075
1135 2 0.0438118 0.386449 0.56409
538 2 0.0746578 0.397705 0.517967
540 4 0.0532503 0.396794 0.530854
1137 4 0.0611218 0.385477 0.546073
2243 4 0.11542 0.403443 0.506972
2244 4 0.149172 0.370182 0.522947
2242 2 0.132296 0.386813 0.51496
695 4 0.155674 0.362965 0.504798
539 4 0.0960652 0.398616 0.50508
773 4 0.215099 0.358248 0.548465
772 2 0.226245 0.376102 0.534968
774 4 0.237392 0.393956 0.521471
603 4 0.253478 0.385957 0.512125
1204 2 0.324849 0.395964 0.571973
1205 4 0.315323 0.40332 0.550056
1029 4 0.324431 0.401017 0.532831
1027 2 0.317043 0.414987 0.513455
890 4 0.356845 0.360035 0.555437
889 2 0.376373 0.364768 0.570318
238 2 0.463046 0.412362 0.573201
240 4 0.448093 0.430981 0.56579
239 4 0.477999 0.393744 0.580613
1983 4 0.13282 0.459563 0.57576
1981 2 0.116666 0.477886 0.581096
2130 4 0.134761 0.440325 0.575796
1982 4 0.100511 0.49621 0.586432
1454 4 0.325698 0.497763 0.5702
882 4 0.345894 0.499862 0.565406
1154 4 0.158507 0.0689879 0.650063
1153 2 0.159505 0.0740201 0.625591
1818 4 0.154904 0.016494 0.656785
945 4 0.142291 0.0845962 0.595175
1155 4 0.160504 0.0790524 0.60112
1255 2 0.227127 0.060507 0.62051
1256 4 0.249202 0.072248 0.620402
1257 4 0.205051 0.048766 0.620618
959 4 0.265037 0.068285 0.609131
958 2 0.265932 0.0741869 0.58485
1130 4 0.373913 0.0669921 0.62408
1004 4 0.374996 0.0473971 0.620971
1003 2 0.358171 0.0312379 0.629969
1005 4 0.341345 0.0150787 0.638967
966 4 0.332964 0.00816026 0.655509
1164 4 0.494714 0.0172679 0.591665
888 4 0.475973 0.0180136 0.655258
953 4 0.479951 0.027211 0.672461
833 4 0.0548139 0.13885 0.66778
943 2 0.131175 0.103532 0.583215
2317 2 0.309707 0.144065 0.594449
2318 4 0.327984 0.130759 0.605129
1131 4 0.352541 0.108063 0.605183
1129 2 0.363227 0.0875277 0.614631
856 2 0.356568 0.141721 0.624523
857 4 0.343742 0.12238 0.615218
268 2 0.405971 0.158911 0.612731
858 4 0.369395 0.161062 0.633828
270 4 0.430197 0.158124 0.606596
3309 4 0.447154 0.160063 0.595513
917 4 0.0777576 0.17967 0.581836
916 2 0.0810858 0.184535 0.606135
918 4 0.084414 0.189399 0.630434
1211 4 0.0929161 0.183572 0.647161
3460 2 0.13068 0.243397 0.612234
3462 4 0.122045 0.222063 0.622005
950 4 0.283879 0.173236 0.592635
949 2 0.280352 0.194679 0.605003
976 2 0.263526 0.242433 0.626044
977 4 0.277606 0.232935 0.607695
951 4 0.276824 0.216121 0.61737
269 4 0.381744 0.159698 0.618866
1279 2 0.0464875 0.310377 0.657333
1281 4 0.0312808 0.325352 0.644306
3461 4 0.139316 0.264731 0.602464
3044 4 0.15413 0.259469 0.59091
895 2 0.160762 0.289173 0.657793
1086 4 0.244336 0.269457 0.637766
935 4 0.167166 0.31663 0.590639
1084 2 0.220078 0.275305 0.639355
1085 4 0.19582 0.281153 0.640944
897 4 0.176002 0.286739 0.638121
978 4 0.249445 0.25193 0.644394
806 4 0.339085 0.253481 0.658925
1136 4 0.0265017 0.387422 0.582106
1041 4 0.0132918 0.380631 0.59543
3420 4 0.0275797 0.339664 0.65803
3418 2 0.00433562 0.348271 0.654741
942 4 0.12048 0.413913 0.634925
940 2 0.140147 0.401749 0.644432
2129 4 0.128437 0.414692 0.618266
941 4 0.159815 0.389584 0.65394
936 4 0.180076 0.364909 0.592405
934 2 0.173621 0.34077 0.591522
891 4 0.395901 0.369501 0.585199
1139 4 0.347173 0.384963 0.609566
1206 4 0.334375 0.388609 0.593889
1140 4 0.349918 0.383371 0.659473
1138 2 0.348545 0.384167 0.634519
1017 4 0.370089 0.38066 0.66158
1239 4 0.412773 0.3594 0.588714
1237 2 0.42738 0.359825 0.609003
1238 4 0.441986 0.360249 0.629292
804 4 0.460668 0.358693 0.636545
802 2 0.464995 0.356581 0.66108
2128 2 0.131599 0.427509 0.597031
2434 2 0.244757 0.491599 0.611025
2435 4 0.219756 0.491296 0.610822
1453 2 0.304179 0.497672 0.582931
2436 4 0.269758 0.491902 0.611228
1455 4 0.282659 0.497581 0.595662
3372 4 0.394832 0.492469 0.59758
3083 4 0.0462494 0.00846031 0.726176
948 4 0.117528 0.0455693 0.738504
946 2 0.129925 0.0665511 0.744094
952 2 0.492029 0.0463382 0.683112
954 4 0.504107 0.0654653 0.693763
1178 4 0.0520595 0.155382 0.677767
1177 2 0.0536053 0.1624 0.701716
832 2 0.0697105 0.118791 0.666823
834 4 0.0846071 0.0987322 0.665865
1283 4 0.14699 0.0775888 0.665327
1282 2 0.125451 0.0902357 0.666465
1284 4 0.103912 0.102883 0.667603
947 4 0.142323 0.0875329 0.749683
2254 2 0.256349 0.135974 0.734174
2255 4 0.255851 0.120071 0.714886
1026 4 0.5024 0.0776172 0.710535
1179 4 0.055151 0.169419 0.725664
152 3 0.0287268 0.226887 0.724645
1259 4 0.0856776 0.208432 0.709355
151 1 0.0110563 0.238518 0.715609
1212 4 0.0800464 0.200956 0.692249
154 3 0.998922 0.24828 0.73281
924 4 0.0237727 0.215537 0.740083
1210 2 0.0864812 0.192264 0.669705
1258 2 0.0928998 0.232234 0.711899
1280 4 0.0616943 0.295403 0.67036
155 3 0.019041 0.254618 0.701622
896 4 0.145522 0.291607 0.677466
1260 4 0.100122 0.256037 0.714444
1299 4 0.109971 0.263139 0.731014
992 4 0.13429 0.30767 0.671832
991 2 0.129555 0.318544 0.693844
1297 2 0.133627 0.269748 0.726336
1298 4 0.157284 0.276357 0.721658
798 4 0.299312 0.333428 0.740096
805 2 0.360327 0.261121 0.669677
791 4 0.397755 0.267394 0.691387
807 4 0.381568 0.268761 0.680428
792 4 0.439615 0.292713 0.701749
790 2 0.418685 0.280054 0.696568
815 4 0.0140173 0.367381 0.728183
883 2 0.0479783 0.374662 0.726821
884 4 0.0255484 0.383818 0.733005
1067 4 0.0847804 0.369064 0.733059
885 4 0.0704083 0.365506 0.720637
993 4 0.124821 0.329419 0.715855
1068 4 0.119711 0.333355 0.735392
1066 2 0.102246 0.35121 0.734226
1098 4 0.176632 0.390796 0.663391
1096 2 0.185093 0.369252 0.672849
1278 4 0.212512 0.34102 0.679327
1097 4 0.193554 0.347708 0.682306
1276 2 0.236682 0.346407 0.682791
796 2 0.285106 0.336697 0.719782
797 4 0.270899 0.339965 0.699467
1277 4 0.260851 0.351793 0.686254
1015 2 0.387155 0.376973 0.679479
1016 4 0.40422 0.373286 0.697377
1019 4 0.393101 0.371162 0.713936
1018 2 0.394264 0.366037 0.738381
998 4 0.463069 0.347645 0.70227
803 4 0.469322 0.354469 0.685616
997 2 0.485181 0.348001 0.713937
85 3 0.30687 0.470274 0.728917
81 1 0.325047 0.482214 0.735675
84 3 0.332215 0.496107 0.718528
82 3 0.342056 0.467705 0.741093
2214 4 0.356012 0.45273 0.742581
908 4 0.16846 0.00988787 0.804617
907 2 0.174896 0.0178621 0.827424
817 2 0.411777 0.026557 0.768965
819 4 0.401834 0.00365282 0.767656
818 4 0.42172 0.0494611 0.770274
845 4 0.439448 0.0557352 0.774752
844 2 0.439635 0.0675032 0.796812
846 4 0.439823 0.0792711 0.818873
851 4 0.131417 0.104728 0.753503
34 3 0.161994 0.157667 0.82605
32 3 0.159667 0.136643 0.794982
850 2 0.137645 0.12369 0.768563
852 4 0.143873 0.142652 0.783624
31 1 0.164953 0.157531 0.803036
1022 4 0.236143 0.146487 0.75405
1023 4 0.205409 0.158335 0.791677
1021 2 0.220776 0.152411 0.772863
2256 4 0.256847 0.151876 0.753462
922 2 0.0282007 0.20361 0.761608
862 2 0.0534416 0.20243 0.821915
863 4 0.0397473 0.19877 0.801317
923 4 0.0326287 0.191683 0.783133
33 3 0.150927 0.173152 0.793154
870 4 0.0924859 0.200399 0.79457
868 2 0.116278 0.194175 0.790058
869 4 0.140071 0.187951 0.785547
35 3 0.186646 0.162258 0.797963
839 4 0.230755 0.235214 0.81674
1092 4 0.239866 0.223945 0.80248
1090 2 0.23764 0.204814 0.818424
1091 4 0.235414 0.185683 0.834369
838 2 0.218088 0.255864 0.822929
840 4 0.205422 0.276514 0.829119
1209 4 0.202909 0.292735 0.815537
1207 2 0.204208 0.309545 0.797073
1208 4 0.205506 0.326355 0.778609
3328 2 0.288313 0.285601 0.811658
3330 4 0.291965 0.28293 0.787067
1042 2 0.306614 0.316834 0.766614
1043 4 0.304598 0.2934 0.775098
1166 4 0.487593 0.266693 0.828277
1241 4 0.180057 0.392071 0.767882
1064 4 0.217701 0.339307 0.769626
1065 4 0.198909 0.385589 0.767261
1063 2 0.208305 0.362448 0.768443
1044 4 0.30863 0.340267 0.758129
1020 4 0.395427 0.360912 0.762826
187 3 0.402989 0.362339 0.781599
188 3 0.392685 0.372016 0.816424
186 1 0.392765 0.378651 0.79419
190 3 0.371394 0.381496 0.786853
189 3 0.404633 0.398454 0.791875
1251 4 0.420674 0.408088 0.798389