ITEM: TIMESTEP
2870000
ITEM: NUMBER OF ATOMS
4590
ITEM: BOX BOUNDS pp pp pp
-9.9985700000000008e+00 9.9985700000000008e+00
-9.9985700000000008e+00 9.9985700000000008e+00
-9.9985700000000008e+00 9.9985700000000008e+00
ITEM: ATOMS id type xs ys zs
3232 2 0.0427379 0.0389651 0.027164
3233 4 0.0308811 0.0172461 0.0307529
3234 4 0.0545947 0.0606841 0.0235751
702 4 0.0587164 0.0608143 0.0433289
700 2 0.0745428 0.080166 0.0437959
2625 4 0.00125377 0.0567677 0.0769041
1248 4 0.010852 0.0184535 0.0312413
2623 2 0.0114124 0.0739597 0.061857
463 2 0.139882 0.0761391 0.00771
464 4 0.119578 0.065042 0.017184
932 4 0.101673 0.0635452 0.00555408
556 2 0.400021 0.0388547 0.0668969
491 4 0.412457 0.0295735 0.0286487
557 4 0.39972 0.0261578 0.0453591
490 2 0.430462 0.0184554 0.0153296
745 2 0.458427 0.0627331 0.0311815
747 4 0.478876 0.0639492 0.0455179
746 4 0.437978 0.061517 0.0168452
2468 4 0.442091 0.00680665 0.0805173
2976 4 0.489696 0.0601618 0.0622101
492 4 0.448467 0.00733725 0.0020106
655 2 0.0262902 0.134 0.0458061
656 4 0.0171859 0.110807 0.0478974
2624 4 0.0215709 0.0911517 0.0468099
657 4 0.0353944 0.157193 0.0437148
465 4 0.160187 0.0872361 0.998236
701 4 0.0903692 0.0995176 0.044263
450 4 0.107155 0.0985176 0.0535203
448 2 0.128347 0.107736 0.0630639
449 4 0.14954 0.116954 0.0726075
837 4 0.137597 0.162671 0.0103891
835 2 0.114091 0.162482 0.0189104
555 4 0.143996 0.147954 0.99813
572 4 0.26581 0.158679 0.0427255
571 2 0.266255 0.140634 0.0600278
360 4 0.283853 0.16658 0.0374684
149 3 0.469597 0.128872 0.00573557
738 4 0.0330136 0.17671 0.046693
736 2 0.0570969 0.178057 0.0401082
2808 4 0.0466183 0.246767 0.0027698
737 4 0.0811802 0.179404 0.0335234
836 4 0.0905853 0.162294 0.0274316
456 4 0.15265 0.243013 0.020113
294 4 0.135971 0.246742 0.00683941
358 2 0.295089 0.178804 0.0187732
2806 2 0.0548726 0.256162 0.0244211
2807 4 0.063127 0.265557 0.0460725
477 4 0.0776737 0.266148 0.059561
475 2 0.088158 0.263129 0.0820585
454 2 0.155703 0.260853 0.0373641
286 2 0.148429 0.317298 0.0754149
455 4 0.158756 0.278692 0.0546152
287 4 0.155116 0.295806 0.0645264
903 4 0.242882 0.3081 0.0153217
901 2 0.251759 0.285706 0.00861945
1121 4 0.336214 0.327353 0.00505354
902 4 0.260635 0.263313 0.00191718
526 2 0.399079 0.301831 0.055447
528 4 0.384152 0.297862 0.0751097
527 4 0.414005 0.3058 0.0357843
1120 2 0.342326 0.335816 0.0277737
2840 4 0.433776 0.308175 0.0388057
2839 2 0.456007 0.318891 0.0347889
2513 4 0.0269744 0.369935 0.0603998
329 4 0.0170303 0.383529 0.0509624
328 2 0.0299885 0.391385 0.031074
330 4 0.0429468 0.399241 0.0111856
2512 2 0.0199578 0.353434 0.0778253
969 4 0.248576 0.352112 0.0851125
967 2 0.269371 0.365991 0.0847485
1122 4 0.348438 0.344278 0.0504939
1071 4 0.351892 0.353926 0.0671732
14 3 0.396074 0.40641 0.0368059
15 3 0.369796 0.394413 0.0609548
741 4 0.375977 0.402604 0.0786108
11 1 0.376788 0.412077 0.0483955
2841 4 0.478238 0.329607 0.030772
672 4 0.483066 0.334911 0.0492644
670 2 0.492615 0.357982 0.0505919
1710 4 0.0837012 0.482636 0.0711352
1708 2 0.0614319 0.485093 0.0822358
2985 4 0.0805573 0.486731 0.0519806
494 4 0.222103 0.435183 0.0703069
493 2 0.236485 0.437085 0.0499423
495 4 0.250867 0.438988 0.0295777
242 4 0.257319 0.446474 0.0116757
13 3 0.360123 0.418282 0.0334891
12 3 0.381385 0.429866 0.0622361
596 4 0.383947 0.422124 0.0799892
2803 2 0.493325 0.467206 0.0132467
2805 4 0.478067 0.486733 0.0165703
233 4 0.0155004 0.0362874 0.16111
379 2 0.00259981 0.00251051 0.138951
485 4 0.164788 0.0343743 0.0938402
484 2 0.154014 0.0119554 0.0912956
567 4 0.206691 0.0773353 0.0993306
356 4 0.224473 0.0761381 0.089843
566 4 0.184687 0.03243 0.0995941
565 2 0.195689 0.0548827 0.0994623
723 4 0.246776 0.0779088 0.138089
721 2 0.223232 0.0824107 0.145201
722 4 0.199688 0.0869125 0.152314
691 2 0.277259 0.0765831 0.135229
1505 4 0.310833 0.0580858 0.158119
692 4 0.297691 0.0711115 0.148562
1504 2 0.329269 0.0458472 0.146479
558 4 0.400323 0.0515517 0.0884347
254 4 0.40004 0.0560771 0.108519
253 2 0.376397 0.0517641 0.115416
255 4 0.352753 0.0474512 0.122312
1506 4 0.347706 0.0336087 0.134839
21 1 0.46982 0.0572847 0.122096
25 3 0.481314 0.0590391 0.102514
24 3 0.447547 0.0524076 0.117793
23 3 0.479165 0.0406475 0.135298
771 4 0.493359 0.049655 0.14685
22 3 0.471005 0.0772868 0.133395
2758 2 0.0704112 0.118953 0.126253
2760 4 0.0642628 0.103646 0.145043
705 4 0.0729084 0.150906 0.0971123
2759 4 0.0765595 0.134261 0.107464
915 4 0.163453 0.125163 0.0850877
507 4 0.0930809 0.140584 0.165202
579 4 0.152678 0.140333 0.147342
578 4 0.106384 0.154818 0.159499
577 2 0.129531 0.147576 0.15342
236 4 0.163683 0.1314 0.16085
913 2 0.177897 0.14531 0.0883544
355 2 0.236983 0.0977583 0.0887278
237 4 0.194099 0.0928368 0.170253
235 2 0.178891 0.112118 0.165552
693 4 0.256827 0.0820547 0.121896
357 4 0.249493 0.119379 0.0876125
573 4 0.266701 0.122589 0.0773301
758 4 0.404667 0.099555 0.166064
2894 4 0.479145 0.0876731 0.118045
2893 2 0.495454 0.106187 0.11399
703 2 0.084212 0.170686 0.107415
755 4 0.0923241 0.249184 0.120301
462 4 0.111878 0.188254 0.127616
704 4 0.0955156 0.190466 0.117718
460 2 0.131058 0.203524 0.132526
461 4 0.150239 0.218794 0.137437
623 4 0.167528 0.213946 0.146583
914 4 0.19234 0.165457 0.0916212
581 4 0.18761 0.183442 0.101496
580 2 0.20987 0.194494 0.10424
582 4 0.232129 0.205546 0.106984
278 4 0.248802 0.194037 0.102407
622 2 0.175351 0.228446 0.165391
279 4 0.289163 0.208505 0.128143
277 2 0.268982 0.201271 0.115275
732 4 0.307577 0.215156 0.13143
730 2 0.302918 0.224225 0.15426
2877 4 0.481791 0.183991 0.150255
629 4 0.441217 0.253465 0.149808
377 4 0.445757 0.243605 0.13396
756 4 0.0751131 0.270042 0.162365
754 2 0.0837186 0.259613 0.141333
288 4 0.141741 0.33879 0.0863034
476 4 0.0986423 0.260109 0.104556
252 4 0.142737 0.332368 0.105564
250 2 0.141489 0.335763 0.130305
518 4 0.387721 0.287565 0.0910099
307 2 0.345055 0.28595 0.162886
309 4 0.352556 0.287702 0.139099
519 4 0.372378 0.289827 0.138552
517 2 0.38005 0.288696 0.114781
1070 4 0.373406 0.325158 0.101962
378 4 0.441439 0.283581 0.104227
376 2 0.443598 0.263593 0.119094
2514 4 0.0129411 0.336932 0.0952507
2093 4 0.0529473 0.382974 0.10356
2092 2 0.0737627 0.376131 0.115604
362 4 0.0977107 0.358668 0.144643
2094 4 0.0945781 0.369288 0.127649
251 4 0.140241 0.339158 0.155045
361 2 0.107162 0.365644 0.166715
968 4 0.290165 0.37987 0.0843846
611 4 0.260364 0.33711 0.150444
612 4 0.289077 0.375049 0.13505
609 4 0.291297 0.394238 0.136179
610 2 0.274721 0.356079 0.142747
607 2 0.316141 0.393071 0.133616
1069 2 0.362649 0.339542 0.0845676
608 4 0.340986 0.391903 0.131052
2652 4 0.391718 0.329834 0.109953
740 4 0.357415 0.385778 0.12189
739 2 0.366696 0.394191 0.10025
2650 2 0.414439 0.338952 0.115032
2651 4 0.43716 0.348069 0.120112
2538 4 0.450579 0.34917 0.135928
2536 2 0.446313 0.352696 0.160312
413 4 0.0138878 0.43382 0.148857
1709 4 0.0391626 0.487549 0.0933364
525 4 0.217047 0.428071 0.0894037
523 2 0.235174 0.431853 0.106204
290 4 0.178107 0.421451 0.160979
524 4 0.253302 0.435635 0.123005
767 4 0.283801 0.494392 0.131459
766 2 0.270109 0.474678 0.124456
768 4 0.256417 0.454963 0.117453
626 4 0.27893 0.423237 0.17007
595 2 0.399183 0.437542 0.0924527
597 4 0.414419 0.45296 0.104916
659 4 0.419389 0.459839 0.123326
658 2 0.438272 0.475013 0.117134
660 4 0.457155 0.490188 0.110941
3704 4 0.471848 0.480544 0.122497
3703 2 0.496711 0.482391 0.124403
429 4 0.21625 0.0223592 0.239098
427 2 0.199924 0.00376478 0.235509
393 4 0.204547 0.0646629 0.242232
743 4 0.471046 0.0247033 0.200545
1748 4 0.459744 0.0124184 0.213914
742 2 0.47969 0.0448304 0.212601
744 4 0.488334 0.0649574 0.224658
432 4 0.478547 0.0746887 0.240731
505 2 0.0769202 0.159393 0.168398
511 2 0.0365872 0.162018 0.228288
513 4 0.0224721 0.145832 0.215484
546 4 0.212275 0.163691 0.251815
29 3 0.288546 0.152569 0.22379
26 1 0.296002 0.163167 0.243038
27 3 0.318148 0.157889 0.24633
757 2 0.392096 0.11643 0.179569
759 4 0.379525 0.133306 0.193073
430 2 0.457002 0.0860523 0.246372
521 4 0.451154 0.163715 0.252607
506 4 0.0607596 0.178203 0.171595
512 4 0.0507023 0.178205 0.241092
530 4 0.0659066 0.188813 0.189443
529 2 0.0754318 0.197533 0.210853
531 4 0.084957 0.206254 0.232263
395 4 0.0675847 0.24592 0.222792
284 4 0.178808 0.22872 0.198259
624 4 0.183173 0.242945 0.184199
283 2 0.175807 0.222564 0.222307
285 4 0.172805 0.216407 0.246354
731 4 0.29826 0.233295 0.17709
604 2 0.293333 0.219904 0.217931
606 4 0.296329 0.232613 0.196608
605 4 0.290337 0.207195 0.239255
28 3 0.294043 0.186168 0.240682
628 2 0.443552 0.242007 0.171908
630 4 0.445887 0.23055 0.194009
2694 4 0.0199589 0.308977 0.23286
300 4 0.0283245 0.296372 0.245234
298 2 0.0422158 0.276158 0.240375
299 4 0.0561071 0.255944 0.235516
394 2 0.0757258 0.252401 0.200057
396 4 0.0838669 0.258883 0.177322
497 4 0.337306 0.300431 0.238369
496 2 0.344018 0.287213 0.218233
498 4 0.350729 0.273996 0.198098
308 4 0.337554 0.284198 0.186674
363 4 0.116613 0.372621 0.188787
417 4 0.12697 0.35839 0.198475
415 2 0.145165 0.348939 0.212786
416 4 0.163359 0.339487 0.227097
735 4 0.171979 0.348618 0.242685
344 4 0.266592 0.353869 0.216502
345 4 0.262126 0.334762 0.170506
343 2 0.264359 0.344316 0.193504
645 4 0.280668 0.365568 0.225568
643 2 0.303344 0.368452 0.2357
644 4 0.32602 0.371336 0.245831
275 4 0.331815 0.350842 0.246326
2860 2 0.394077 0.403799 0.243416
2862 4 0.399206 0.386066 0.226551
713 4 0.418248 0.389806 0.223397
2537 4 0.442048 0.356221 0.184696
714 4 0.451094 0.357841 0.203394
712 2 0.434671 0.373824 0.213396
107 3 0.48599 0.394281 0.234099
412 2 0.00850729 0.441242 0.17212
1786 2 0.132409 0.489677 0.218595
1788 4 0.135689 0.476243 0.239427
291 4 0.215398 0.423463 0.194236
289 2 0.196752 0.422457 0.177607
627 4 0.230614 0.427217 0.182335
625 2 0.254772 0.425227 0.176202
246 4 0.290168 0.440533 0.169972
244 2 0.304435 0.457565 0.181441
245 4 0.318701 0.474597 0.19291
387 4 0.315887 0.484825 0.209967
385 2 0.332659 0.489112 0.228009
386 4 0.349431 0.493398 0.246051
1472 4 0.422768 0.474043 0.243743
1716 4 0.42846 0.494305 0.248333
317 4 0.0423159 0.016276 0.324441
316 2 0.0563574 0.0133216 0.303964
318 4 0.0703989 0.0103672 0.283488
1869 4 0.0304797 0.00442569 0.335869
2848 2 0.164113 0.0651438 0.254417
399 4 0.0892619 0.00635321 0.289924
397 2 0.113881 0.00232467 0.28823
2850 4 0.139222 0.065904 0.252172
2849 4 0.189003 0.0643836 0.256663
391 2 0.223349 0.0763002 0.253905
247 2 0.261122 0.993636 0.265998
1700 4 0.261673 0.00697041 0.29702
1699 2 0.272899 0.0137931 0.318294
249 4 0.251753 0.0116819 0.28055
403 2 0.270628 0.0746414 0.296629
405 4 0.282552 0.0659615 0.31682
1497 4 0.444908 0.00619945 0.319543
1496 4 0.440615 0.0435904 0.286616
1495 2 0.442761 0.0248949 0.30308
469 2 0.0632349 0.159589 0.311064
471 4 0.0730007 0.167862 0.289585
470 4 0.053469 0.151316 0.332543
1270 2 0.0884105 0.0951033 0.335273
1272 4 0.0891683 0.0886639 0.311125
392 4 0.24215 0.0879376 0.265578
350 4 0.228853 0.124312 0.268417
349 2 0.251151 0.134827 0.272588
404 4 0.258704 0.0833212 0.276439
30 3 0.283867 0.156132 0.26098
351 4 0.273449 0.145343 0.276758
516 4 0.274396 0.130529 0.293636
514 2 0.287308 0.137112 0.314011
431 4 0.435456 0.097416 0.252014
522 4 0.493177 0.157934 0.279089
420 4 0.495953 0.157731 0.298988
418 2 0.497067 0.140431 0.317006
520 2 0.472166 0.160824 0.265848
633 4 0.434065 0.156514 0.260838
458 4 0.0835256 0.18535 0.28777
459 4 0.0843447 0.216324 0.248519
457 2 0.0839351 0.200837 0.268145
544 2 0.197745 0.183539 0.256298
545 4 0.183215 0.203388 0.26078
748 2 0.220088 0.224756 0.29684
749 4 0.211103 0.233536 0.275222
750 4 0.229074 0.215976 0.318458
332 4 0.406754 0.206082 0.255652
632 4 0.396224 0.189062 0.257768
331 2 0.396113 0.228704 0.255219
333 4 0.385473 0.251326 0.254786
631 2 0.415145 0.172788 0.259303
617 4 0.188993 0.298992 0.280891
618 4 0.200761 0.250754 0.274947
616 2 0.194877 0.274873 0.277919
365 4 0.197742 0.317237 0.279434
364 2 0.210598 0.32899 0.297372
510 4 0.31444 0.316024 0.315973
765 4 0.314873 0.302657 0.301002
508 2 0.296435 0.320064 0.332846
764 4 0.321416 0.300784 0.25146
763 2 0.318145 0.301721 0.276231
1639 2 0.0599994 0.403228 0.271369
1640 4 0.0788381 0.387183 0.267784
442 2 0.0570383 0.382817 0.324185
443 4 0.0749939 0.380724 0.306911
733 2 0.163841 0.355262 0.265374
2654 4 0.140341 0.364525 0.300048
734 4 0.155703 0.361906 0.288064
2653 2 0.115747 0.368863 0.298824
2655 4 0.0911532 0.373201 0.297601
602 4 0.231833 0.416356 0.312343
601 2 0.246218 0.39891 0.323014
728 4 0.217316 0.408238 0.300159
366 4 0.223455 0.340743 0.31531
434 4 0.222365 0.348786 0.333762
614 4 0.387839 0.338238 0.279111
276 4 0.368103 0.341607 0.279471
274 2 0.349959 0.346225 0.262899
613 2 0.40825 0.338406 0.293552
2924 4 0.424028 0.335407 0.326623
615 4 0.428662 0.338574 0.307992
1641 4 0.0411607 0.419272 0.274954
338 4 0.149292 0.477068 0.257231
3672 4 0.167515 0.489237 0.293773
337 2 0.172129 0.467111 0.259361
729 4 0.209916 0.445497 0.267636
339 4 0.194965 0.457153 0.261491
727 2 0.213616 0.426868 0.283897
677 4 0.186376 0.495557 0.292764
676 2 0.210162 0.488057 0.294545
678 4 0.233947 0.480557 0.296326
375 4 0.249941 0.466586 0.291707
373 2 0.267166 0.46756 0.309805
374 4 0.28439 0.468533 0.327903
1574 4 0.333398 0.451904 0.293956
1473 4 0.393927 0.440127 0.266516
1471 2 0.408347 0.457085 0.25513
2861 4 0.388949 0.421532 0.260281
1575 4 0.34138 0.491863 0.264969
1573 2 0.337389 0.471884 0.279462
1867 2 0.00589806 0.00864278 0.33764
1701 4 0.284126 0.0206158 0.339569
466 2 0.297753 0.00672867 0.368893
468 4 0.298961 0.0259623 0.352963
762 4 0.41608 0.0768487 0.383523
2879 4 0.414336 0.0621059 0.370191
426 4 0.488614 0.00964591 0.40978
1517 4 0.422437 0.00144275 0.379682
2880 4 0.415381 0.0125148 0.363839
2878 2 0.414858 0.0373103 0.367015
1220 4 0.072353 0.0884678 0.361926
2716 2 0.0234907 0.158736 0.352298
1219 2 0.0691517 0.0888677 0.386721
1221 4 0.0659504 0.0892677 0.411515
2717 4 0.0482409 0.159941 0.348958
1271 4 0.0876528 0.101543 0.359421
515 4 0.300219 0.143694 0.334386
2910 4 0.317863 0.153277 0.33601
480 4 0.320732 0.107007 0.413713
479 4 0.316782 0.15221 0.392694
478 2 0.318757 0.129609 0.403203
650 4 0.300674 0.164624 0.391248
2656 2 0.388792 0.150479 0.35942
760 2 0.412018 0.101458 0.38178
2658 4 0.404145 0.130825 0.36121
761 4 0.407956 0.126068 0.380038
2908 2 0.337367 0.167083 0.343368
310 2 0.499532 0.12116 0.37383
312 4 0.5085 0.115803 0.351113
419 4 0.498181 0.123131 0.335023
311 4 0.490564 0.126517 0.396547
341 4 0.0741898 0.20029 0.384513
2613 4 0.0607846 0.19699 0.399589
2611 2 0.0457449 0.216955 0.4002
2612 4 0.0307051 0.23692 0.400812
340 2 0.0954078 0.211338 0.377239
342 4 0.116626 0.222386 0.369965
824 4 0.135584 0.231908 0.371698
823 2 0.142728 0.236073 0.395294
389 4 0.239202 0.206362 0.334668
388 2 0.227549 0.219695 0.352321
390 4 0.215897 0.233027 0.369975
370 2 0.234925 0.236341 0.408746
649 2 0.284609 0.171348 0.409189
372 4 0.254912 0.244943 0.396429
707 4 0.268301 0.250595 0.410745
2909 4 0.356871 0.18089 0.350727
2657 4 0.373439 0.170132 0.357629
634 2 0.217257 0.307267 0.378399
636 4 0.200194 0.294593 0.365231
635 4 0.23432 0.319941 0.391567
668 4 0.223924 0.326278 0.406953
509 4 0.27843 0.324103 0.349718
706 2 0.286251 0.267841 0.413099
708 4 0.304201 0.285088 0.415454
717 4 0.317748 0.275004 0.403607
715 2 0.341146 0.271772 0.411809
444 4 0.0390827 0.384911 0.341459
548 4 0.0301208 0.383295 0.398927
547 2 0.0123228 0.395354 0.411694
433 2 0.246159 0.344772 0.340312
603 4 0.260603 0.381464 0.333686
435 4 0.269953 0.340758 0.346862
710 4 0.261664 0.396706 0.389946
709 2 0.261184 0.409487 0.411431
2923 2 0.431188 0.346794 0.347701
2925 4 0.438347 0.358181 0.368778
117 3 0.427614 0.371291 0.380979
116 1 0.445063 0.378243 0.394259
118 3 0.462512 0.363078 0.392265
119 3 0.451968 0.399237 0.387189
585 4 0.437222 0.41403 0.391484
120 3 0.438075 0.379244 0.415911
594 4 0.248318 0.455926 0.401705
2108 4 0.24382 0.463748 0.38355
592 2 0.247203 0.477286 0.414652
2107 2 0.25968 0.463598 0.364221
2109 4 0.275539 0.463448 0.344891
543 4 0.470751 0.49794 0.383842
542 4 0.489335 0.477674 0.342073
584 4 0.421348 0.458579 0.407735
583 2 0.429285 0.436304 0.39961
541 2 0.480043 0.487807 0.362958
725 4 0.226933 0.0730465 0.494425
1181 4 0.242243 0.0610797 0.496991
598 2 0.323635 0.00584411 0.421458
600 4 0.340696 0.0162957 0.436453
2643 4 0.373197 0.0865857 0.42402
684 4 0.381077 0.077712 0.439513
682 2 0.392793 0.080987 0.461358
841 2 0.461098 0.0768236 0.499565
2502 4 0.451049 0.078117 0.464143
939 4 0.0716926 0.108356 0.417216
937 2 0.0576255 0.119851 0.434396
938 4 0.0435585 0.131346 0.451576
1034 4 0.033231 0.147248 0.444531
1033 2 0.0304396 0.156985 0.467392
1035 4 0.0276481 0.166721 0.490252
724 2 0.223235 0.0860429 0.473387
726 4 0.219537 0.0990393 0.452349
473 4 0.213015 0.114382 0.442507
472 2 0.204377 0.134788 0.45409
474 4 0.19574 0.155194 0.465673
2642 4 0.32481 0.0965928 0.431719
858 4 0.277762 0.155141 0.487391
857 4 0.262544 0.165924 0.440992
856 2 0.270153 0.160533 0.464191
2641 2 0.349004 0.0915892 0.42787
1031 4 0.392168 0.0707389 0.492677
683 4 0.404509 0.0842619 0.483202
843 4 0.449225 0.0885758 0.480961
2500 2 0.462861 0.0838681 0.442869
2501 4 0.474674 0.0896192 0.421596
452 4 0.48876 0.163473 0.445518
2847 4 0.0326563 0.245153 0.418539
983 4 0.00931266 0.173638 0.49393
825 4 0.149872 0.240239 0.418891
369 4 0.151424 0.233051 0.43717
367 2 0.146292 0.236515 0.461395
368 4 0.141161 0.239979 0.48562
9 3 0.150567 0.226638 0.498052
696 4 0.131119 0.248023 0.502292
371 4 0.214938 0.22774 0.421062
401 4 0.207632 0.214913 0.433087
400 2 0.205047 0.191546 0.441603
402 4 0.202462 0.16818 0.450119
651 4 0.268544 0.178073 0.42713
320 4 0.279728 0.160679 0.506409
640 2 0.348616 0.204686 0.493066
641 4 0.352885 0.22726 0.483199
489 4 0.413825 0.243647 0.417625
812 4 0.34446 0.242478 0.47169
267 4 0.420771 0.225589 0.422636
265 2 0.429685 0.215933 0.443908
451 2 0.469338 0.177139 0.453341
453 4 0.449915 0.190805 0.461164
266 4 0.438599 0.206278 0.465179
2508 4 0.485255 0.229075 0.496568
2846 4 0.0533034 0.287845 0.434408
2845 2 0.0429798 0.266499 0.426474
260 4 0.060147 0.30191 0.448363
259 2 0.0712712 0.298526 0.470498
261 4 0.0823955 0.295141 0.492633
667 2 0.238856 0.32303 0.426744
669 4 0.253788 0.319782 0.446534
873 4 0.264605 0.303065 0.445915
871 2 0.286353 0.299728 0.457792
872 4 0.308101 0.296391 0.469669
813 4 0.319939 0.284605 0.46052
811 2 0.3322 0.263542 0.466105
716 4 0.364544 0.268541 0.420011
487 2 0.396325 0.259828 0.425181
488 4 0.378825 0.276009 0.432738
382 2 0.0211503 0.362386 0.474898
935 4 0.0249003 0.392136 0.494216
384 4 0.0369611 0.379565 0.483847
773 4 0.156586 0.362962 0.47623
772 2 0.180095 0.361735 0.484656
774 4 0.203604 0.360508 0.493083
570 4 0.0730211 0.471311 0.483174
2137 2 0.118926 0.490831 0.419894
569 4 0.0946747 0.475036 0.438252
568 2 0.0838479 0.473173 0.460713
2138 4 0.113853 0.478455 0.44102
327 4 0.224828 0.455861 0.480714
1173 4 0.22964 0.465949 0.496744
325 2 0.239054 0.447084 0.46212
711 4 0.260703 0.422267 0.432916
326 4 0.25328 0.438307 0.443525
336 4 0.432223 0.470252 0.42046
335 4 0.439045 0.467441 0.46992
334 2 0.435634 0.468847 0.44519
240 4 0.445859 0.463175 0.488243
238 2 0.439375 0.440421 0.49633
1151 4 0.212956 0.0285629 0.541875
1182 4 0.214954 0.0272054 0.521659
1180 2 0.228599 0.0441426 0.509325
1150 2 0.204216 0.00513771 0.54209
3157 2 0.300126 0.0239663 0.562756
3158 4 0.311565 0.0393677 0.546721
962 4 0.274405 0.00169267 0.567122
3159 4 0.288686 0.00856499 0.578791
575 4 0.331017 0.0454377 0.542493
574 2 0.344763 0.0637721 0.552496
1032 4 0.415766 0.0679236 0.536676
1030 2 0.403967 0.0693312 0.514677
1142 4 0.419618 0.0687749 0.555867
1061 4 0.475492 0.0446329 0.512554
842 4 0.47297 0.0650714 0.518169
1060 2 0.49647 0.0314564 0.509163
576 4 0.35851 0.0821065 0.562499
1141 2 0.417715 0.0899797 0.568978
6 1 0.1424 0.225497 0.51974
8 3 0.160022 0.224295 0.534788
7 3 0.129516 0.206557 0.521849
10 3 0.129609 0.243804 0.5242
348 4 0.162389 0.228388 0.553817
346 2 0.186001 0.236321 0.55165
347 4 0.209614 0.244254 0.549482
319 2 0.302669 0.170495 0.508015
321 4 0.325609 0.180311 0.509621
642 4 0.344347 0.182111 0.502933
900 4 0.379779 0.166496 0.582623
3307 2 0.446566 0.245496 0.511155
3308 4 0.468463 0.241698 0.499697
3045 4 0.0257221 0.289819 0.582823
694 2 0.114888 0.266975 0.500693
695 4 0.0986571 0.285927 0.499094
1191 4 0.202494 0.261836 0.55479
1189 2 0.209448 0.28404 0.545635
1394 4 0.205459 0.322743 0.540122
1190 4 0.216402 0.306244 0.536481
270 4 0.424842 0.255497 0.541823
3309 4 0.42467 0.249294 0.522613
268 2 0.431634 0.264459 0.564155
934 2 0.0426241 0.407004 0.503702
936 4 0.0603479 0.421872 0.513188
1039 2 0.0949815 0.405636 0.530699
1041 4 0.115164 0.391132 0.53343
1136 4 0.131461 0.381956 0.526168
1135 2 0.151984 0.396231 0.526599
1393 2 0.210346 0.34204 0.524991
1395 4 0.215233 0.361337 0.509861
1137 4 0.172508 0.410507 0.527031
1237 2 0.300682 0.395123 0.565508
1238 4 0.309712 0.372483 0.559933
804 4 0.323893 0.363904 0.571471
802 2 0.32947 0.340567 0.578506
1040 4 0.0747986 0.42014 0.527968
539 4 0.189789 0.466325 0.526832
538 2 0.185157 0.443436 0.535765
540 4 0.180524 0.420546 0.544697
1028 4 0.248204 0.446135 0.546261
1171 2 0.242118 0.464782 0.51838
2243 4 0.182973 0.481842 0.515757
2242 2 0.185078 0.50148 0.500424
1172 4 0.254596 0.463614 0.540015
1239 4 0.291652 0.417763 0.571083
1029 4 0.283205 0.433336 0.579605
1027 2 0.265704 0.439735 0.562933
1979 4 0.375531 0.488299 0.53579
3324 4 0.376522 0.45547 0.583264
239 4 0.432891 0.417667 0.504416
1130 4 0.22521 0.0202491 0.613172
1129 2 0.24781 0.0244471 0.623009
1284 4 0.198014 0.0703399 0.632809
1131 4 0.270411 0.0286452 0.632846
2318 4 0.264944 0.0451528 0.641985
2317 2 0.274649 0.0613736 0.658352
2239 2 0.370461 0.00608455 0.619073
1004 4 0.398333 0.0257916 0.644729
1003 2 0.386542 0.0364521 0.66403
2241 4 0.390684 0.0184497 0.62703
88 3 0.405237 0.014884 0.612594
87 3 0.41835 0.024613 0.646447
86 1 0.424255 0.0163537 0.625806
89 3 0.439579 0.0307918 0.616053
1106 4 0.0448401 0.118328 0.671294
1282 2 0.209531 0.083268 0.650847
1143 4 0.415811 0.111185 0.58209
887 4 0.416432 0.101502 0.600839
888 4 0.420072 0.10957 0.650057
886 2 0.418252 0.105536 0.625448
953 4 0.43614 0.099177 0.656079
3461 4 0.0443341 0.239399 0.622035
3460 2 0.0548275 0.217471 0.627887
3462 4 0.0653208 0.195543 0.633739
1259 4 0.163654 0.236993 0.594856
1211 4 0.179045 0.23258 0.606573
1210 2 0.180761 0.216114 0.625311
1212 4 0.182476 0.199648 0.644048
411 4 0.294936 0.220468 0.634256
409 2 0.31174 0.235132 0.622954
1085 4 0.292681 0.203808 0.646359
410 4 0.328545 0.249796 0.611652
792 4 0.393754 0.231497 0.604415
899 4 0.391007 0.213092 0.596885
898 2 0.385393 0.189794 0.589754
879 4 0.00687771 0.285241 0.584293
3044 4 0.0493179 0.256319 0.611489
3043 2 0.03752 0.273069 0.597156
3418 2 0.0228904 0.312696 0.650217
3038 4 0.00607421 0.283195 0.663992
3419 4 0.0113753 0.290681 0.64741
1258 2 0.15616 0.259834 0.601732
1260 4 0.148666 0.282676 0.608607
897 4 0.196188 0.283457 0.638299
895 2 0.18876 0.301942 0.653409
896 4 0.181331 0.320426 0.668519
803 4 0.335047 0.317231 0.585542
791 4 0.383619 0.280326 0.6007
805 2 0.366219 0.307176 0.605685
807 4 0.380207 0.290526 0.618025
790 2 0.388687 0.255912 0.602557
806 4 0.352232 0.323826 0.593344
269 4 0.438425 0.273421 0.586488
3420 4 0.0344055 0.334712 0.653024
1281 4 0.0416873 0.353304 0.660722
1007 4 0.483782 0.411439 0.64406
1006 2 0.491508 0.394158 0.660395
894 4 0.027141 0.447645 0.622604
892 2 0.0121925 0.446878 0.642633
893 4 0.997244 0.44611 0.662661
891 4 0.326112 0.490269 0.654823
1953 4 0.33453 0.502844 0.643039
3322 2 0.400448 0.451166 0.589113
1001 4 0.462259 0.503101 0.65448
3372 4 0.476345 0.427556 0.635817
3370 2 0.455751 0.431525 0.622204
3371 4 0.435157 0.435494 0.608592
3323 4 0.424373 0.446861 0.594963
926 4 0.463149 0.485708 0.663727
925 2 0.476496 0.464618 0.662239
864 4 0.0751049 0.0152633 0.751279
943 2 0.160137 0.0785217 0.686614
2255 4 0.149057 0.041347 0.705447
945 4 0.159583 0.0568102 0.699003
2254 2 0.167284 0.0358425 0.721654
2256 4 0.18551 0.0303381 0.737861
908 4 0.182151 0.0489108 0.745558
2319 4 0.284354 0.0775944 0.674719
1257 4 0.316337 0.0456872 0.720504
1255 2 0.296317 0.0486056 0.735196
1256 4 0.276297 0.051524 0.749888
965 4 0.332634 0.0531303 0.727803
966 4 0.37491 0.0555753 0.701205
964 2 0.353772 0.0543528 0.714504
1005 4 0.374752 0.0471127 0.683331
954 4 0.430093 0.0833337 0.703123
1107 4 0.0273951 0.165005 0.667095
1105 2 0.0361176 0.141666 0.669194
852 4 0.0705108 0.135597 0.732503
834 4 0.0233227 0.134812 0.744843
1077 4 0.00877696 0.156739 0.66784
944 4 0.160691 0.100233 0.674225
917 4 0.152239 0.117755 0.676003
850 2 0.0918505 0.122784 0.730135
947 4 0.12756 0.121833 0.737073
851 4 0.11319 0.10997 0.727767
916 2 0.15238 0.137272 0.691632
918 4 0.152521 0.156789 0.70726
1283 4 0.221049 0.0961961 0.668886
1155 4 0.225806 0.113596 0.675604
1153 2 0.221348 0.138021 0.678553
1154 4 0.21689 0.162447 0.681503
950 4 0.287969 0.0976782 0.668587
949 2 0.292856 0.104409 0.692167
951 4 0.297742 0.11114 0.715746
952 2 0.433117 0.0912553 0.679601
1026 4 0.424128 0.0893471 0.722597
1024 2 0.432857 0.084057 0.745422
1299 4 0.246456 0.215853 0.733184
976 2 0.279988 0.173412 0.720778
1084 2 0.285404 0.199405 0.669871
1086 4 0.278126 0.195003 0.693384
978 4 0.277224 0.174488 0.695951
977 4 0.282752 0.172335 0.745605
1009 2 0.495737 0.188907 0.680313
1010 4 0.484957 0.197835 0.701032
1193 4 0.470579 0.187746 0.709789
1192 2 0.465619 0.179744 0.732953
152 3 0.0431797 0.323011 0.737011
780 4 0.0560069 0.269609 0.744344
153 3 0.0525812 0.288754 0.749287
1068 4 0.137411 0.324102 0.74252
991 2 0.155491 0.323093 0.704476
993 4 0.140745 0.327417 0.7242
992 4 0.170237 0.318769 0.684752
1042 2 0.324717 0.296297 0.72219
798 4 0.291753 0.325376 0.723897
1044 4 0.306523 0.312852 0.717709
1043 4 0.342911 0.279742 0.726672
3330 4 0.35793 0.26835 0.730289
1279 2 0.0631797 0.344693 0.670162
1280 4 0.0846721 0.336083 0.679601
1276 2 0.236882 0.398109 0.7485
1277 4 0.248969 0.376498 0.745027
1097 4 0.204151 0.418108 0.754752
797 4 0.262441 0.36357 0.737414
796 2 0.277097 0.344473 0.730656
1139 4 0.299733 0.406729 0.748046
3463 2 0.49223 0.35585 0.700527
3465 4 0.489731 0.354091 0.725343
999 4 0.471827 0.358527 0.737214
3464 4 0.49473 0.35761 0.675711
942 4 0.153949 0.470847 0.687837
2129 4 0.145327 0.487393 0.680169
940 2 0.164721 0.463995 0.709336
941 4 0.175493 0.457142 0.730834
1098 4 0.196386 0.461707 0.731524
1096 2 0.200268 0.439908 0.743138
1206 4 0.297242 0.415016 0.730229
1204 2 0.307182 0.430925 0.713698
1205 4 0.317122 0.446834 0.697167
890 4 0.320874 0.467876 0.699228
889 2 0.323493 0.479072 0.677025
2213 4 0.3011 0.459141 0.748431
3182 4 0.405334 0.481954 0.667879
3181 2 0.403371 0.485813 0.692504
3183 4 0.401407 0.489673 0.71713
187 3 0.406896 0.484467 0.735292
1100 4 0.497563 0.451899 0.677444
927 4 0.489844 0.443527 0.660751
863 4 0.0491547 0.0349564 0.78922
862 2 0.0621298 0.0251098 0.77025
1215 4 0.0420408 0.0310158 0.807865
1213 2 0.0415648 0.0205973 0.83059
2991 4 0.0921659 0.00667053 0.756387
907 2 0.193678 0.0612834 0.763976
909 4 0.205205 0.073656 0.782394
960 4 0.248137 0.0257736 0.797628
958 2 0.265674 0.0352488 0.782533
959 4 0.28321 0.0447239 0.767437
2322 4 0.398928 0.00387988 0.837531
1253 4 0.353864 0.0401114 0.835326
817 2 0.456921 0.0565027 0.823302
819 4 0.443626 0.0381033 0.833784
1025 4 0.441586 0.0787669 0.768248
818 4 0.470216 0.0749022 0.812819
1178 4 0.0781972 0.147326 0.746293
1177 2 0.0684814 0.163011 0.763168
832 2 0.00638226 0.126549 0.761273
946 2 0.141372 0.119897 0.757825
948 4 0.155184 0.117961 0.778578
1022 4 0.201146 0.0872455 0.796833
1021 2 0.225383 0.089142 0.80268
1023 4 0.249619 0.0910385 0.808526
1049 4 0.257068 0.109478 0.812788
1048 2 0.273039 0.128369 0.816432
1050 4 0.289009 0.147259 0.820076
1091 4 0.283195 0.160681 0.807733
1146 4 0.488497 0.127318 0.818248
3426 4 0.431626 0.134 0.803981
45 3 0.443994 0.124795 0.816812
42 3 0.455257 0.0892134 0.816884
41 1 0.461793 0.11101 0.820253
44 3 0.478786 0.116141 0.805309
3424 2 0.440627 0.151418 0.788464
1179 4 0.0587657 0.178695 0.780043
924 4 0.0210445 0.219249 0.767579
922 2 0.0317035 0.2006 0.780376
923 4 0.0423625 0.181951 0.793173
779 4 0.0347597 0.233022 0.771002
840 4 0.244897 0.199275 0.784748
839 4 0.253978 0.207293 0.833265
838 2 0.249438 0.203284 0.809007
1297 2 0.255796 0.209619 0.755524
1298 4 0.265136 0.203385 0.777864
1090 2 0.287671 0.170134 0.785022
1092 4 0.292148 0.179587 0.762311
1194 4 0.460658 0.171742 0.756116
3425 4 0.449629 0.168835 0.772947
151 1 0.0528435 0.311395 0.754356
154 3 0.0747192 0.31867 0.756988
778 2 0.0453833 0.251315 0.757673
155 3 0.0410317 0.315221 0.773447
1066 2 0.115378 0.32179 0.754114
1067 4 0.093346 0.319477 0.765707
1207 2 0.172938 0.305167 0.812103
1208 4 0.172558 0.318651 0.833155
1209 4 0.173317 0.291682 0.79105
3328 2 0.36853 0.280212 0.74958
3329 4 0.379129 0.292075 0.76887
1094 4 0.336097 0.289071 0.809913
1093 2 0.339698 0.277146 0.831593
48 3 0.495934 0.256634 0.806454
866 4 0.491058 0.276264 0.810131
865 2 0.472119 0.279446 0.826143
3346 2 0.435558 0.320812 0.828308
3347 4 0.448654 0.299521 0.828913
884 4 0.0407125 0.382998 0.759515
883 2 0.0521057 0.403176 0.768909
1278 4 0.224795 0.419719 0.751972
1138 2 0.314601 0.403911 0.76795
1140 4 0.329469 0.401094 0.787854
1017 4 0.337569 0.402375 0.805755
1015 2 0.34018 0.378353 0.812179
1016 4 0.342791 0.35433 0.818604
1020 4 0.385172 0.38257 0.812425
1018 2 0.401366 0.369475 0.826262
3348 4 0.422462 0.342103 0.827703
1167 4 0.497306 0.332066 0.782324
998 4 0.483943 0.345978 0.78408
997 2 0.477885 0.352253 0.760647
885 4 0.0634989 0.423354 0.778302
815 4 0.0556015 0.438678 0.788442
814 2 0.0729617 0.445082 0.805259
816 4 0.0903218 0.451486 0.822076
1235 4 0.219199 0.499617 0.777462
1236 4 0.227448 0.455145 0.79879
1234 2 0.223323 0.477381 0.788126
820 2 0.226482 0.427888 0.824947
822 4 0.219439 0.450426 0.816723
2212 2 0.31396 0.468158 0.767886
2214 4 0.32682 0.477175 0.787341
271 2 0.335958 0.460131 0.816393