ITEM: TIMESTEP
2570000
ITEM: NUMBER OF ATOMS
4590
ITEM: BOX BOUNDS pp pp pp
-9.9985700000000008e+00 9.9985700000000008e+00
-9.9985700000000008e+00 9.9985700000000008e+00
-9.9985700000000008e+00 9.9985700000000008e+00
ITEM: ATOMS id type xs ys zs
1248 4 0.0141192 0.0766481 0.00666298
3232 2 0.0506263 0.0781405 0.0212583
3233 4 0.0266221 0.0712464 0.0224624
465 4 0.127812 0.011172 0.0178799
567 4 0.236579 0.0336978 0.0854112
355 2 0.227493 0.0777931 0.0766966
556 2 0.376397 0.065709 0.072045
491 4 0.359641 0.0640023 0.0400245
490 2 0.351755 0.066803 0.0164627
557 4 0.358735 0.054429 0.0584066
1662 4 0.37124 0.00844844 0.0719927
745 2 0.499772 0.0488016 0.0161652
3234 4 0.0746304 0.0850346 0.0200541
2625 4 0.00202445 0.108957 0.0828148
655 2 0.0729445 0.14208 0.0712245
656 4 0.0551312 0.126822 0.0798869
702 4 0.0936892 0.0902816 0.0178688
700 2 0.114759 0.103742 0.0176961
701 4 0.13583 0.117203 0.0175235
450 4 0.134498 0.138087 0.0209436
448 2 0.129441 0.157758 0.0355252
657 4 0.0907579 0.157339 0.0625622
357 4 0.22409 0.102269 0.0728826
571 2 0.24422 0.129951 0.0640738
572 4 0.262003 0.137959 0.0484275
358 2 0.28472 0.120597 0.0256085
360 4 0.271874 0.119928 0.0470495
359 4 0.297565 0.121265 0.0041674
492 4 0.34387 0.0696037 0.992901
2894 4 0.486034 0.11322 0.0669547
2638 2 0.487083 0.125188 0.0243125
2640 4 0.490033 0.120408 0.0486768
2639 4 0.484134 0.129969 0.999948
738 4 0.0949707 0.169636 0.0755547
915 4 0.141734 0.188436 0.0469367
449 4 0.124384 0.17743 0.0501067
913 2 0.163212 0.196785 0.0566394
456 4 0.124643 0.2481 0.00537596
914 4 0.184691 0.205135 0.066342
581 4 0.192247 0.212367 0.0851725
580 2 0.217154 0.210723 0.0837321
2806 2 0.0631667 0.292137 0.0292009
2808 4 0.0598753 0.315264 0.0202838
2512 2 0.0209231 0.301689 0.0612859
2807 4 0.0664581 0.269011 0.0381181
2513 4 0.0356452 0.314677 0.0458026
477 4 0.0724441 0.270201 0.0570506
2514 4 0.00620091 0.2887 0.0767692
455 4 0.122962 0.291016 0.0309895
287 4 0.119141 0.310526 0.034536
475 2 0.0898532 0.268794 0.0749425
454 2 0.123803 0.269558 0.0181827
286 2 0.132859 0.32674 0.0477292
296 4 0.250894 0.257009 0.0356937
295 2 0.256288 0.251308 0.0119537
526 2 0.406721 0.308223 0.0886588
527 4 0.422067 0.315429 0.0702811
329 4 0.0547324 0.335204 0.0195854
328 2 0.0524337 0.359664 0.0242326
330 4 0.050135 0.384124 0.0288797
552 4 0.062408 0.387955 0.0147026
550 2 0.0763283 0.40554 0.00364943
288 4 0.146578 0.342955 0.0609223
252 4 0.146292 0.354963 0.0761999
250 2 0.133679 0.376458 0.0782152
251 4 0.121067 0.397954 0.0802305
2094 4 0.104325 0.392474 0.0697459
968 4 0.189827 0.376018 0.0175304
967 2 0.206392 0.383528 0.0346886
969 4 0.222956 0.391039 0.0518467
903 4 0.251545 0.355542 0.0118502
1619 4 0.182302 0.370806 0.999193
1121 4 0.264844 0.341593 0.0193008
1120 2 0.288498 0.339209 0.0115569
1122 4 0.312153 0.336825 0.00381307
1071 4 0.331709 0.343438 0.008901
1069 2 0.345421 0.356664 0.0250942
1070 4 0.359133 0.369891 0.0412875
14 3 0.345221 0.384573 0.042028
2652 4 0.375439 0.372604 0.0517747
2650 2 0.382103 0.365459 0.0747904
11 1 0.345558 0.405017 0.0529977
12 3 0.36581 0.41521 0.0491075
15 3 0.34293 0.40186 0.075398
2840 4 0.428783 0.334477 0.0721434
2839 2 0.447056 0.344833 0.0585777
2841 4 0.465328 0.35519 0.045012
672 4 0.479841 0.359463 0.0593502
670 2 0.4967 0.377925 0.0590284
3408 4 0.466926 0.330863 0.00521945
1046 4 0.459002 0.394928 0.000255384
282 4 0.47106 0.410678 0.998738
2983 2 0.0231883 0.447148 0.0306896
2985 4 0.0275899 0.463472 0.0491105
2984 4 0.0187867 0.430824 0.0122686
4212 4 0.00764117 0.418427 0.00166839
1710 4 0.0415941 0.47851 0.0482833
494 4 0.226827 0.461718 0.0372841
493 2 0.210583 0.47158 0.0210345
495 4 0.194339 0.481442 0.00478482
13 3 0.328621 0.418642 0.0448813
525 4 0.239629 0.474772 0.0448106
523 2 0.258307 0.49012 0.0511959
596 4 0.370341 0.424987 0.032751
595 2 0.391374 0.434513 0.0423456
597 4 0.412406 0.444039 0.0519402
659 4 0.427176 0.455814 0.0592029
658 2 0.438111 0.468368 0.0778569
380 4 0.998724 0.053837 0.163406
356 4 0.230895 0.0533175 0.0805107
565 2 0.22236 0.0153365 0.0946767
1506 4 0.302788 0.0363209 0.16864
1660 2 0.392008 0.0144476 0.0845567
254 4 0.398442 0.0702681 0.103605
253 2 0.403442 0.0609111 0.126247
255 4 0.408441 0.0515542 0.148888
1661 4 0.412777 0.0204467 0.0971207
758 4 0.413204 0.0718344 0.154752
24 3 0.461295 0.0607978 0.119935
25 3 0.486435 0.0360748 0.106729
23 3 0.461768 0.0251019 0.132973
1448 4 0.464013 0.00519297 0.135453
1447 2 0.448405 0.00384265 0.15494
21 1 0.47478 0.0426511 0.125156
22 3 0.48956 0.0488707 0.141648
771 4 0.498575 0.0323535 0.150466
2469 4 0.471898 0.00159094 0.118119
2623 2 0.0267462 0.109708 0.0864824
2624 4 0.0514679 0.11046 0.09015
2758 2 0.0678143 0.146229 0.133929
2760 4 0.0811194 0.125771 0.139371
2759 4 0.0545092 0.166687 0.128487
578 4 0.106711 0.162108 0.155963
577 2 0.122907 0.143252 0.158675
579 4 0.139103 0.124397 0.161388
236 4 0.157018 0.119019 0.151111
573 4 0.226437 0.121942 0.07972
235 2 0.17091 0.102993 0.164353
558 4 0.394059 0.0769891 0.0856835
2893 2 0.498925 0.124891 0.0849212
705 4 0.0582182 0.184402 0.120718
703 2 0.060508 0.207563 0.129854
704 4 0.0627978 0.230725 0.13899
736 2 0.101891 0.186859 0.092308
737 4 0.108811 0.204081 0.109061
462 4 0.129397 0.200902 0.109118
460 2 0.150864 0.201598 0.121919
505 2 0.108295 0.204343 0.169713
507 4 0.106262 0.179454 0.168442
756 4 0.106601 0.245322 0.158142
461 4 0.172331 0.202293 0.13472
582 4 0.242062 0.20908 0.0822918
623 4 0.180578 0.219621 0.14044
622 2 0.201025 0.207574 0.148311
278 4 0.24123 0.206953 0.102283
624 4 0.221472 0.195527 0.156182
732 4 0.27984 0.224753 0.153773
279 4 0.275197 0.211768 0.138666
277 2 0.258214 0.209361 0.120474
378 4 0.434453 0.218716 0.114925
376 2 0.44763 0.231665 0.131774
377 4 0.460806 0.244614 0.148623
629 4 0.452154 0.246372 0.167392
754 2 0.105941 0.25393 0.134676
476 4 0.107262 0.267386 0.0928344
755 4 0.105281 0.262537 0.11121
307 2 0.333757 0.267458 0.161689
519 4 0.368822 0.273393 0.147754
528 4 0.391374 0.301017 0.107037
518 4 0.389575 0.312699 0.124839
517 2 0.379198 0.293046 0.136297
309 4 0.350649 0.277866 0.146475
2093 4 0.0660434 0.41639 0.0912693
315 4 0.0458623 0.391847 0.127358
413 4 0.057252 0.391767 0.143416
313 2 0.033456 0.408458 0.11338
412 2 0.0590334 0.404446 0.164892
314 4 0.0210498 0.425068 0.0994033
2092 2 0.0851843 0.404432 0.0805076
362 4 0.108431 0.386953 0.149606
361 2 0.120465 0.370175 0.163707
612 4 0.313984 0.33712 0.168952
607 2 0.332036 0.37587 0.163927
2651 4 0.388767 0.358314 0.0978061
608 4 0.341446 0.397671 0.156095
740 4 0.34418 0.401154 0.136243
2538 4 0.400312 0.348153 0.110944
739 2 0.34832 0.407587 0.112438
2536 2 0.41184 0.354139 0.132308
741 4 0.35246 0.41402 0.0886337
714 4 0.409264 0.373278 0.155729
2537 4 0.423368 0.360125 0.153673
2771 4 0.00489337 0.428162 0.0883838
2617 2 0.0177377 0.47217 0.121244
2619 4 0.0309139 0.493075 0.11743
290 4 0.152569 0.438815 0.129551
289 2 0.176869 0.444207 0.127183
291 4 0.201169 0.449599 0.124815
627 4 0.219778 0.454026 0.132789
625 2 0.242002 0.457729 0.143631
626 4 0.264226 0.461431 0.154473
246 4 0.276546 0.45293 0.14131
244 2 0.298138 0.455521 0.15365
245 4 0.319729 0.458111 0.165989
660 4 0.449046 0.480923 0.0965109
3704 4 0.467858 0.485084 0.102657
3703 2 0.491443 0.48717 0.110693
232 2 0.00471421 0.0637051 0.201755
233 4 0.00647714 0.0647139 0.176835
234 4 0.00295127 0.0626964 0.226676
1479 4 0.154122 0.00778901 0.254065
693 4 0.251764 0.0487449 0.165381
723 4 0.236725 0.0533089 0.176534
721 2 0.220611 0.0723297 0.178462
691 2 0.259773 0.0252204 0.168143
692 4 0.267783 0.00169586 0.170905
1505 4 0.335842 0.00330961 0.186484
1504 2 0.319315 0.0198153 0.177562
248 4 0.267442 0.0375339 0.241818
757 2 0.428574 0.0760596 0.174016
759 4 0.443943 0.0802848 0.19328
1449 4 0.432797 0.00249233 0.174427
512 4 0.0546453 0.168904 0.239477
530 4 0.0701946 0.161661 0.249005
237 4 0.184802 0.0869671 0.177595
722 4 0.204497 0.0913504 0.18039
546 4 0.2353 0.123675 0.229816
544 2 0.241015 0.147452 0.224603
392 4 0.214823 0.123941 0.234034
391 2 0.198919 0.108956 0.246188
393 4 0.183016 0.0939717 0.258341
405 4 0.287681 0.0966624 0.19816
403 2 0.2933 0.107708 0.219876
404 4 0.29892 0.118754 0.241592
744 4 0.46808 0.0988895 0.223967
698 4 0.487582 0.102324 0.223514
742 2 0.457208 0.0861806 0.242554
511 2 0.0298771 0.172324 0.239626
506 4 0.110329 0.229231 0.170983
284 4 0.221843 0.204583 0.174298
283 2 0.224897 0.191229 0.195215
285 4 0.227951 0.177876 0.216133
545 4 0.24673 0.171229 0.21939
730 2 0.291604 0.206993 0.166864
605 4 0.297587 0.181557 0.245808
731 4 0.303369 0.189233 0.179954
604 2 0.303487 0.182596 0.221533
606 4 0.309388 0.183636 0.197258
498 4 0.310845 0.256691 0.196052
496 2 0.300535 0.254366 0.218713
497 4 0.290226 0.252042 0.241373
2694 4 0.0246937 0.29791 0.2415
300 4 0.0431016 0.296286 0.23458
298 2 0.0678991 0.295543 0.237697
2692 2 0.00702304 0.299077 0.223848
396 4 0.0892705 0.256322 0.207266
394 2 0.109469 0.27063 0.203735
416 4 0.137976 0.298465 0.186521
395 4 0.129667 0.284939 0.200204
415 2 0.129171 0.321697 0.189341
299 4 0.0926965 0.294801 0.240814
735 4 0.111502 0.299999 0.242183
308 4 0.316864 0.257049 0.176903
764 4 0.283118 0.269912 0.243085
630 4 0.435203 0.291491 0.180717
628 2 0.443679 0.268932 0.174054
417 4 0.120365 0.344928 0.19216
363 4 0.1325 0.353396 0.177807
609 4 0.322626 0.354069 0.17176
611 4 0.273954 0.338827 0.198875
610 2 0.293969 0.337973 0.183914
345 4 0.261951 0.337149 0.215037
343 2 0.265815 0.358182 0.227993
344 4 0.26968 0.379215 0.240949
712 2 0.408515 0.384608 0.178005
713 4 0.407766 0.395938 0.200282
2862 4 0.388799 0.400266 0.205767
414 4 0.0608148 0.417124 0.186369
681 4 0.0571966 0.428014 0.203212
679 2 0.0486077 0.450957 0.208217
680 4 0.0400189 0.473899 0.213221
1787 4 0.138031 0.487323 0.174863
1786 2 0.156015 0.470362 0.178616
1788 4 0.173998 0.453401 0.182368
338 4 0.173736 0.454479 0.201481
339 4 0.180957 0.434388 0.246702
337 2 0.177346 0.444433 0.224091
387 4 0.310176 0.459946 0.182542
385 2 0.323187 0.456519 0.203617
386 4 0.336197 0.453092 0.224692
1575 4 0.328032 0.453956 0.243989
2860 2 0.391692 0.420363 0.220359
2861 4 0.394585 0.44046 0.23495
1473 4 0.410689 0.450558 0.238971
231 4 0.469215 0.442459 0.186746
229 2 0.48727 0.459334 0.182944
1471 2 0.430941 0.460397 0.249845
1477 2 0.138869 0.0129377 0.273197
1478 4 0.123615 0.0180864 0.292328
398 4 0.109772 0.00479949 0.298667
249 4 0.282003 0.0077158 0.279229
1700 4 0.282066 0.0217667 0.293939
247 2 0.274723 0.0226249 0.260524
1699 2 0.292143 0.0220642 0.31682
743 4 0.446337 0.0734716 0.261141
1496 4 0.420766 0.0223312 0.317341
1748 4 0.430076 0.0630245 0.264366
1747 2 0.425496 0.0459361 0.282035
1749 4 0.420916 0.0288477 0.299704
432 4 0.485329 0.047582 0.313955
2717 4 0.0367799 0.103709 0.311529
2716 2 0.0282108 0.116337 0.331335
2850 4 0.147545 0.130152 0.290157
2848 2 0.155528 0.110449 0.276994
2849 4 0.16351 0.0907453 0.263832
30 3 0.297208 0.134612 0.253514
27 3 0.265095 0.152922 0.258648
26 1 0.286826 0.15069 0.265856
29 3 0.286715 0.144638 0.288256
516 4 0.313546 0.156379 0.298725
28 3 0.297735 0.170995 0.263191
351 4 0.293041 0.155637 0.303612
514 2 0.336449 0.154086 0.308492
761 4 0.418307 0.109184 0.276189
515 4 0.359351 0.151793 0.318259
760 2 0.416782 0.110887 0.301088
762 4 0.415258 0.112589 0.325987
513 4 0.00510892 0.175744 0.239775
458 4 0.119056 0.167896 0.330488
529 2 0.0885974 0.174702 0.259795
531 4 0.107 0.187744 0.270585
459 4 0.119459 0.18986 0.285564
457 2 0.119258 0.178878 0.308026
750 4 0.238454 0.222122 0.275157
748 2 0.223884 0.240186 0.265852
389 4 0.250267 0.222218 0.291491
388 2 0.243487 0.211427 0.313003
707 4 0.300027 0.23193 0.328249
349 2 0.287115 0.174162 0.319325
332 4 0.406501 0.222133 0.28423
331 2 0.395076 0.230344 0.304899
333 4 0.383651 0.238555 0.325569
633 4 0.459892 0.222401 0.2546
521 4 0.463341 0.20749 0.267328
632 4 0.417684 0.237943 0.276456
522 4 0.503909 0.179878 0.276946
631 2 0.438788 0.230172 0.265528
520 2 0.483625 0.193684 0.272137
733 2 0.119788 0.311078 0.263011
734 4 0.128073 0.322157 0.283838
749 4 0.209314 0.25825 0.256547
618 4 0.197306 0.272674 0.261209
617 4 0.180645 0.296691 0.301784
616 2 0.188976 0.284682 0.281497
365 4 0.198117 0.302342 0.30785
364 2 0.203762 0.323749 0.319472
763 2 0.268853 0.2873 0.25401
765 4 0.254588 0.304687 0.264935
510 4 0.256253 0.303605 0.285058
508 2 0.259168 0.319034 0.304517
509 4 0.262083 0.334462 0.323975
2924 4 0.4482 0.33487 0.311896
2654 4 0.137646 0.3294 0.298195
2653 2 0.122643 0.334316 0.317584
602 4 0.164528 0.398603 0.308402
728 4 0.157142 0.392766 0.292129
727 2 0.160885 0.410731 0.275146
729 4 0.164627 0.428696 0.258163
433 2 0.237437 0.364023 0.333934
601 2 0.183544 0.39387 0.323932
434 4 0.217081 0.378245 0.331015
366 4 0.209408 0.345155 0.331094
603 4 0.202559 0.389136 0.339462
645 4 0.28882 0.383938 0.249824
643 2 0.302636 0.377688 0.269704
644 4 0.316452 0.371437 0.289584
275 4 0.325335 0.352556 0.290764
276 4 0.374443 0.350736 0.300028
274 2 0.349889 0.351646 0.295396
614 4 0.378526 0.334319 0.310656
613 2 0.403343 0.336284 0.312986
107 3 0.495406 0.412538 0.276581
615 4 0.42816 0.338248 0.315315
109 3 0.499119 0.383274 0.299873
2923 2 0.453717 0.352227 0.329027
1641 4 0.095177 0.47399 0.271873
1640 4 0.125921 0.436758 0.284887
1639 2 0.110549 0.455374 0.27838
3670 2 0.162045 0.501057 0.289283
3672 4 0.176279 0.493426 0.270195
677 4 0.195871 0.489861 0.267774
375 4 0.237182 0.478776 0.30346
676 2 0.217944 0.491773 0.279363
678 4 0.240017 0.493685 0.290953
373 2 0.249769 0.476659 0.32496
1573 2 0.342464 0.442513 0.260898
1574 4 0.356897 0.431069 0.277808
1714 2 0.475771 0.47702 0.280526
1716 4 0.451061 0.480287 0.278541
1472 4 0.451193 0.470235 0.260719
1219 2 0.0558691 0.0605342 0.382222
1221 4 0.035549 0.0566917 0.396275
939 4 0.036913 0.0505279 0.416834
1220 4 0.0761893 0.0643766 0.368168
1271 4 0.0949551 0.0662036 0.362325
2429 4 0.220623 0.0123086 0.38563
1701 4 0.30222 0.0223618 0.339701
467 4 0.300042 0.0358339 0.398462
466 2 0.297921 0.0237636 0.376668
468 4 0.295799 0.0116932 0.354874
599 4 0.293815 0.0281274 0.415155
1517 4 0.430634 0.00101093 0.388468
2880 4 0.444524 0.0136008 0.395304
430 2 0.483972 0.0471966 0.338919
2878 2 0.456739 0.0332622 0.385847
2879 4 0.468953 0.0529235 0.376391
431 4 0.482615 0.0468112 0.363883
2718 4 0.0196416 0.128964 0.351141
687 4 0.00604109 0.118059 0.36181
1270 2 0.104629 0.0874064 0.353268
469 2 0.10805 0.147243 0.35188
1272 4 0.114303 0.108609 0.34421
470 4 0.10266 0.122878 0.353449
478 2 0.327736 0.126024 0.393741
479 4 0.303587 0.125894 0.387261
2910 4 0.343948 0.160199 0.348308
480 4 0.351884 0.126155 0.400222
2908 2 0.366812 0.155477 0.357261
2657 4 0.408499 0.154259 0.372685
2909 4 0.389675 0.150755 0.366213
2656 2 0.42463 0.151887 0.391641
2658 4 0.440761 0.149515 0.410597
2636 4 0.00181328 0.234203 0.373128
824 4 0.0859675 0.214905 0.395257
342 4 0.0739134 0.199954 0.393833
471 4 0.11344 0.171609 0.350311
823 2 0.107938 0.213583 0.407119
390 4 0.236706 0.200635 0.334515
401 4 0.236345 0.24316 0.404778
350 4 0.28119 0.192686 0.335039
706 2 0.298105 0.229081 0.353016
708 4 0.296183 0.226232 0.377782
717 4 0.314464 0.220633 0.383768
715 2 0.331133 0.231638 0.398809
716 4 0.347802 0.242642 0.413849
488 4 0.365447 0.246464 0.406945
371 4 0.231506 0.26198 0.408424
370 2 0.248996 0.278304 0.401157
372 4 0.266487 0.294627 0.39389
871 2 0.302776 0.323673 0.409043
444 4 0.0657908 0.348788 0.368336
408 4 0.0107512 0.406288 0.409253
442 2 0.088613 0.351598 0.358517
443 4 0.111435 0.354408 0.348697
2655 4 0.107641 0.339231 0.336973
668 4 0.230829 0.358818 0.391213
635 4 0.224171 0.352877 0.409094
435 4 0.257794 0.349801 0.336852
667 2 0.254637 0.351184 0.391525
873 4 0.296592 0.345875 0.399347
669 4 0.278445 0.34355 0.391836
2925 4 0.459233 0.369585 0.346158
117 3 0.454588 0.386532 0.352811
116 1 0.438877 0.384084 0.369434
120 3 0.418048 0.385241 0.360299
118 3 0.44191 0.363469 0.379645
119 3 0.441669 0.4011 0.38496
585 4 0.429464 0.396363 0.399579
549 4 0.0192444 0.415623 0.393185
547 2 0.0058421 0.414889 0.372089
2107 2 0.246871 0.462424 0.378111
2108 4 0.23339 0.466064 0.398852
374 4 0.262355 0.474543 0.346461
2109 4 0.260353 0.458783 0.357371
542 4 0.47652 0.475536 0.334791
541 2 0.470768 0.495144 0.3492
938 4 0.0061511 0.0394396 0.454669
937 2 0.021532 0.0449837 0.435751
1151 4 0.226901 0.0335539 0.501877
1182 4 0.211023 0.044939 0.506904
1150 2 0.221207 0.0108488 0.493089
598 2 0.289647 0.0506196 0.42525
600 4 0.28548 0.0731118 0.435345
684 4 0.341529 0.0921277 0.487693
725 4 0.230691 0.109695 0.493972
724 2 0.255034 0.114975 0.4918
650 4 0.286969 0.134716 0.421415
2641 2 0.328167 0.0839001 0.444909
649 2 0.283765 0.152359 0.438841
857 4 0.271309 0.15845 0.470439
2642 4 0.321341 0.0843821 0.42086
726 4 0.279376 0.120256 0.489627
2643 4 0.334992 0.083418 0.468958
2501 4 0.44793 0.146657 0.428658
2500 2 0.451826 0.122591 0.434207
2502 4 0.455721 0.0985239 0.439757
984 4 0.99977 0.190523 0.453458
2613 4 0.0047515 0.204225 0.468051
341 4 0.0383835 0.183556 0.424969
2611 2 0.0119012 0.224059 0.45461
340 2 0.0561485 0.191755 0.409401
2612 4 0.0190509 0.243894 0.441169
825 4 0.129909 0.21226 0.418982
369 4 0.138669 0.214616 0.437769
367 2 0.133903 0.228235 0.458188
9 3 0.127479 0.231504 0.4956
368 4 0.129136 0.241855 0.478608
400 2 0.225395 0.228828 0.422094
473 4 0.231484 0.171889 0.468569
474 4 0.203231 0.210775 0.454772
402 4 0.214445 0.214496 0.439411
472 2 0.217357 0.191332 0.46167
651 4 0.280562 0.170001 0.456267
856 2 0.278862 0.16959 0.491511
640 2 0.345572 0.239135 0.480149
487 2 0.379734 0.236096 0.424652
489 4 0.394021 0.225727 0.442359
267 4 0.402169 0.222601 0.460524
265 2 0.415314 0.201794 0.464936
642 4 0.351938 0.222096 0.497305
2517 4 0.502213 0.183063 0.448715
452 4 0.496599 0.189703 0.467226
451 2 0.471604 0.189596 0.466567
453 4 0.446609 0.189488 0.465909
266 4 0.428459 0.180988 0.469348
2847 4 0.0126078 0.259133 0.453387
2846 4 0.0470489 0.293035 0.46624
2845 2 0.0298283 0.276084 0.459814
260 4 0.0669717 0.29633 0.464942
694 2 0.140901 0.292746 0.49833
259 2 0.0893189 0.297466 0.4761
261 4 0.111666 0.298602 0.487258
695 4 0.127361 0.310183 0.486591
636 4 0.190645 0.322453 0.430333
872 4 0.30896 0.301472 0.418739
813 4 0.323683 0.287976 0.418144
641 4 0.339205 0.256174 0.462993
811 2 0.332756 0.282511 0.440794
812 4 0.341828 0.277045 0.463443
2507 4 0.499756 0.268318 0.473334
2506 2 0.476768 0.266096 0.482914
2508 4 0.453779 0.263874 0.492495
406 2 0.00354255 0.385735 0.421533
634 2 0.207408 0.337665 0.419713
1173 4 0.235776 0.41739 0.491504
326 4 0.254857 0.404006 0.441706
1395 4 0.224419 0.341994 0.496748
774 4 0.231421 0.351092 0.480176
325 2 0.242244 0.41692 0.459008
772 2 0.252242 0.363601 0.474246
709 2 0.307044 0.384711 0.454559
773 4 0.273064 0.37611 0.468317
711 4 0.282347 0.388609 0.454768
710 4 0.331741 0.380813 0.454349
334 2 0.408454 0.42147 0.480331
336 4 0.409078 0.408559 0.458928
584 4 0.403508 0.396882 0.442319
583 2 0.416486 0.396622 0.420949
384 4 0.0703949 0.421796 0.490192
383 4 0.0252495 0.438984 0.477262
382 2 0.0478222 0.43039 0.483727
570 4 0.0388689 0.497857 0.479843
592 2 0.239219 0.472738 0.434547
327 4 0.229632 0.429834 0.476309
594 4 0.223308 0.463855 0.417426
593 4 0.25513 0.481621 0.451667
1399 2 0.288205 0.50039 0.475923
1401 4 0.269563 0.489324 0.463466
1180 2 0.218558 0.0685466 0.503577
574 2 0.314406 0.0339808 0.537309
576 4 0.304315 0.0547302 0.546942
575 4 0.324498 0.0132314 0.527676
683 4 0.356817 0.060135 0.522956
1031 4 0.355506 0.0561293 0.541884
1030 2 0.361495 0.069141 0.562378
843 4 0.404801 0.0744826 0.539314
682 2 0.349173 0.0761313 0.505325
1032 4 0.367485 0.0821526 0.582872
1061 4 0.463516 0.0582378 0.509762
1060 2 0.487613 0.053626 0.504943
842 4 0.444992 0.0561779 0.515853
841 2 0.424897 0.0653302 0.527583
1181 4 0.226094 0.0921542 0.500249
1142 4 0.356657 0.0995622 0.58055
8 3 0.143018 0.222147 0.528997
348 4 0.16208 0.214468 0.532194
6 1 0.133808 0.239383 0.516487
7 3 0.115184 0.247353 0.527386
346 2 0.179707 0.225777 0.545852
347 4 0.197335 0.237087 0.55951
858 4 0.286416 0.18073 0.512583
320 4 0.300387 0.19275 0.521586
319 2 0.322903 0.198357 0.512269
321 4 0.345418 0.203964 0.502953
2813 4 0.0339324 0.302928 0.571082
2812 2 0.0110783 0.306642 0.561644
696 4 0.15444 0.275309 0.510068
10 3 0.148937 0.256248 0.514174
1191 4 0.208716 0.251922 0.553022
1189 2 0.211518 0.269416 0.53538
1190 4 0.214321 0.286911 0.517737
1394 4 0.233206 0.296327 0.515135
1393 2 0.228812 0.319161 0.505942
3308 4 0.4451 0.252835 0.507106
3307 2 0.449231 0.253781 0.531748
3309 4 0.453361 0.254727 0.55639
270 4 0.460629 0.26516 0.572383
268 2 0.470861 0.286024 0.581615
1040 4 0.0719424 0.403108 0.569141
936 4 0.064485 0.393985 0.552609
934 2 0.0655542 0.406593 0.531043
1039 2 0.0940315 0.406335 0.580403
1027 2 0.259094 0.407658 0.574386
1238 4 0.327245 0.374849 0.559844
1237 2 0.30683 0.378383 0.573841
802 2 0.355314 0.350474 0.566791
803 4 0.370301 0.338673 0.582956
804 4 0.340327 0.362275 0.550626
3324 4 0.457667 0.382357 0.542624
3322 2 0.471691 0.379764 0.563161
935 4 0.0666234 0.419202 0.509478
1135 2 0.152025 0.42642 0.576077
1137 4 0.169424 0.437621 0.562042
540 4 0.182191 0.452193 0.554925
538 2 0.193425 0.473594 0.548524
539 4 0.204659 0.494995 0.542122
1171 2 0.244846 0.419493 0.51471
2243 4 0.181044 0.491122 0.506165
1028 4 0.249582 0.42265 0.556781
1172 4 0.253916 0.421596 0.537916
239 4 0.355038 0.464284 0.521061
238 2 0.371213 0.447319 0.512359
240 4 0.387389 0.430353 0.503658
335 4 0.40783 0.43438 0.501735
1130 4 0.167823 0.0496983 0.585969
944 4 0.171894 0.0449067 0.665825
1129 2 0.189608 0.0455615 0.597521
2318 4 0.211508 0.0421226 0.629632
1131 4 0.211394 0.0414247 0.609073
2317 2 0.225017 0.053429 0.647377
2239 2 0.345498 0.019815 0.654123
2241 4 0.358273 0.0212173 0.632675
88 3 0.368159 0.00477001 0.630093
3178 2 0.00522988 0.125291 0.650648
3462 4 0.0734152 0.15664 0.654392
1282 2 0.234516 0.116424 0.648606
1284 4 0.239917 0.0963718 0.634681
1283 4 0.229116 0.136477 0.662531
1141 2 0.371511 0.11742 0.589804
1143 4 0.386366 0.135277 0.599058
887 4 0.402452 0.147992 0.597461
886 2 0.419978 0.135856 0.610528
953 4 0.443383 0.125321 0.642785
888 4 0.437504 0.12372 0.623594
952 2 0.43551 0.130623 0.665917
3044 4 0.0667851 0.220937 0.667113
3460 2 0.066713 0.179665 0.661473
3043 2 0.0532629 0.237811 0.654559
1258 2 0.150682 0.218406 0.661976
1260 4 0.129339 0.230658 0.666395
1211 4 0.189155 0.217303 0.656968
1210 2 0.208741 0.217289 0.641427
1212 4 0.228328 0.217274 0.625885
1259 4 0.172026 0.206154 0.657557
410 4 0.242059 0.24519 0.615688
411 4 0.27171 0.24647 0.655936
409 2 0.256885 0.24583 0.635812
900 4 0.374724 0.172223 0.645095
898 2 0.381841 0.19603 0.642313
899 4 0.388958 0.219838 0.639532
792 4 0.3957 0.238265 0.63321
3122 4 0.491722 0.227843 0.582229
1263 4 0.488051 0.206159 0.638156
3123 4 0.476392 0.219873 0.629156
3121 2 0.484057 0.223858 0.605692
1261 2 0.486973 0.21025 0.662799
878 4 0.0399063 0.301229 0.591069
3045 4 0.0397407 0.254684 0.642005
879 4 0.0370289 0.266851 0.627271
877 2 0.0384676 0.28404 0.60917
897 4 0.204054 0.260716 0.644245
895 2 0.191069 0.277536 0.657424
790 2 0.399346 0.261275 0.624131
805 2 0.398093 0.312722 0.590042
806 4 0.391025 0.335828 0.583614
791 4 0.402991 0.284286 0.615053
807 4 0.405161 0.289615 0.59647
269 4 0.481092 0.306887 0.590846
1041 4 0.116121 0.409563 0.591665
1136 4 0.134627 0.415218 0.590112
1029 4 0.268607 0.392667 0.591992
1239 4 0.286415 0.381918 0.587838
3323 4 0.485715 0.37717 0.583698
1007 4 0.482229 0.353972 0.646411
894 4 0.0337929 0.430854 0.655271
1953 4 0.252193 0.503625 0.649714
1001 4 0.461332 0.488574 0.666069
926 4 0.459412 0.467709 0.662724
925 2 0.482124 0.466428 0.652347
862 2 0.0763995 0.0169273 0.744965
864 4 0.0909028 0.026215 0.726839
2991 4 0.104673 0.020369 0.715025
2989 2 0.10564 0.00857849 0.692997
2254 2 0.160657 0.998722 0.735702
2255 4 0.150156 0.0195082 0.726599
943 2 0.162729 0.0337372 0.686232
945 4 0.153563 0.0225677 0.706638
2319 4 0.238525 0.0647354 0.665121
960 4 0.225102 0.0081091 0.748454
950 4 0.25561 0.059291 0.672108
958 2 0.249251 0.0136444 0.745079
2240 4 0.332724 0.0184126 0.675572
2019 4 0.314074 0.0179009 0.680231
951 4 0.286258 0.0266123 0.694323
949 2 0.270934 0.0429516 0.683216
1257 4 0.322699 0.0513571 0.735659
965 4 0.341661 0.0461831 0.736694
966 4 0.38014 0.0160728 0.726042
964 2 0.3609 0.0311279 0.731368
1005 4 0.389267 0.0107677 0.709329
1003 2 0.384539 0.000594407 0.686984
1218 4 0.421657 0.0457221 0.715608
1164 4 0.468808 0.00138049 0.717076
1217 4 0.460008 0.0158056 0.727223
1216 2 0.440832 0.0307638 0.721416
3179 4 0.0172407 0.115895 0.670463
1106 4 0.0559356 0.151992 0.713362
1105 2 0.0394245 0.142043 0.697438
1107 4 0.0229134 0.132094 0.681514
946 2 0.14652 0.144068 0.737886
851 4 0.109057 0.161517 0.738091
947 4 0.121789 0.146059 0.740985
850 2 0.0871723 0.158126 0.749699
948 4 0.17125 0.142077 0.734786
908 4 0.186688 0.135801 0.743409
1155 4 0.233059 0.135141 0.683045
1153 2 0.238992 0.132168 0.707151
1154 4 0.244926 0.129196 0.731258
1299 4 0.254931 0.146675 0.734058
1092 4 0.319339 0.147887 0.739441
977 4 0.305543 0.147216 0.726333
976 2 0.295841 0.167725 0.715824
1024 2 0.415713 0.147105 0.721446
1026 4 0.417936 0.151106 0.696865
1025 4 0.41349 0.143104 0.746027
954 4 0.427638 0.135925 0.689049
3461 4 0.0600109 0.202689 0.668554
918 4 0.196306 0.224571 0.728689
1085 4 0.274581 0.242078 0.675471
1084 2 0.271677 0.219503 0.685822
1086 4 0.268772 0.196929 0.696173
978 4 0.286139 0.188234 0.705316
1192 2 0.487915 0.184237 0.728646
1194 4 0.464715 0.186601 0.737665
1262 4 0.485894 0.214341 0.687442
154 3 0.0715123 0.30307 0.735337
3419 4 0.0148082 0.318906 0.697677
1067 4 0.078118 0.298921 0.716759
3038 4 0.00747485 0.322078 0.679462
3418 2 0.0349877 0.329591 0.707865
1066 2 0.101689 0.301436 0.708805
1068 4 0.12526 0.303951 0.700852
993 4 0.127854 0.309644 0.68323
991 2 0.152766 0.310636 0.681337
896 4 0.178084 0.294356 0.670602
992 4 0.177678 0.311628 0.679444
1043 4 0.346546 0.32378 0.72389
3330 4 0.35067 0.308617 0.736583
3329 4 0.371382 0.265091 0.723271
3328 2 0.361026 0.286854 0.729927
152 3 0.0646276 0.339239 0.742891
3420 4 0.0551672 0.340276 0.718054
1281 4 0.0566195 0.353829 0.731742
1279 2 0.0564045 0.374961 0.745104
893 4 0.00848192 0.412646 0.694367
1276 2 0.227636 0.399146 0.743829
797 4 0.246642 0.368917 0.75106
1042 2 0.32685 0.335154 0.734277
1044 4 0.307154 0.346528 0.744663
798 4 0.294122 0.359714 0.738345
796 2 0.270382 0.364315 0.744702
1006 2 0.488561 0.346894 0.669541
1008 4 0.494893 0.339817 0.692671
3464 4 0.486674 0.34659 0.711136
892 2 0.0211374 0.42175 0.674819
2129 4 0.14189 0.48597 0.674538
940 2 0.147597 0.456155 0.692991
942 4 0.131267 0.473063 0.68447
941 4 0.163928 0.439247 0.701512
1278 4 0.223455 0.419221 0.729522
1097 4 0.221371 0.423836 0.710498
1098 4 0.180346 0.449582 0.698058
1096 2 0.200858 0.436709 0.704278
2213 4 0.244643 0.493264 0.754586
890 4 0.289374 0.486921 0.705963
1205 4 0.305063 0.474759 0.7014
1204 2 0.321222 0.4625 0.716022
889 2 0.279003 0.491573 0.683693
1139 4 0.327 0.4333 0.734237
1206 4 0.33738 0.450241 0.730644
3182 4 0.380149 0.454821 0.69021
3181 2 0.385408 0.475782 0.702786
3183 4 0.390667 0.496742 0.715363
1251 4 0.447927 0.464181 0.741879
863 4 0.0618962 0.00763952 0.763092
831 4 0.149085 0.0178036 0.814919
1202 4 0.136751 0.0253933 0.800597
1201 2 0.153681 0.0382614 0.787445
1203 4 0.170611 0.0511295 0.774294
1255 2 0.305089 0.0366299 0.745568
1256 4 0.287479 0.0219028 0.755476
959 4 0.273399 0.0191798 0.741704
1049 4 0.273946 0.0831507 0.793148
1177 2 0.0605915 0.157618 0.79749
852 4 0.0652876 0.154735 0.761306
1178 4 0.0523771 0.149183 0.775431
869 4 0.082435 0.153514 0.82481
907 2 0.199672 0.129818 0.763922
1021 2 0.235918 0.0939817 0.792988
909 4 0.212657 0.123835 0.784435
1022 4 0.214552 0.104024 0.784752
1023 4 0.257284 0.0839397 0.801224
1090 2 0.319138 0.129831 0.756737
1048 2 0.297081 0.0875978 0.784771
1050 4 0.320216 0.092045 0.776393
1091 4 0.318936 0.111775 0.774032
3424 2 0.402622 0.152985 0.774262
3426 4 0.393914 0.143375 0.795639
45 3 0.404205 0.134142 0.810523
3425 4 0.411329 0.162595 0.752884
42 3 0.432835 0.110987 0.804435
41 1 0.424781 0.127786 0.817929
1144 2 0.486304 0.136354 0.820478
44 3 0.439414 0.145773 0.817058
1179 4 0.0688058 0.166052 0.819548
924 4 0.0157207 0.251472 0.8157
922 2 0.0288247 0.233885 0.827707
1297 2 0.253381 0.160445 0.754871
917 4 0.178752 0.231007 0.77507
916 2 0.187529 0.227789 0.75188
1298 4 0.251831 0.174215 0.775683
840 4 0.241401 0.184955 0.790404
838 2 0.24944 0.197045 0.810761
839 4 0.257479 0.209135 0.831117
2979 4 0.502125 0.206119 0.778549
151 1 0.0650289 0.318047 0.751831
780 4 0.0398063 0.300624 0.777056
153 3 0.0437719 0.312719 0.759457
778 2 0.0345684 0.283635 0.794638
779 4 0.0293306 0.266646 0.812219
155 3 0.0798534 0.317474 0.769109
1209 4 0.130228 0.260942 0.782178
1208 4 0.119494 0.30569 0.80175
1064 4 0.13085 0.318051 0.81217
1207 2 0.124861 0.283316 0.791964
998 4 0.462854 0.31374 0.780099
997 2 0.482597 0.322555 0.767541
48 3 0.503121 0.249295 0.834645
3362 4 0.482114 0.256849 0.772157
1280 4 0.0561894 0.396093 0.758467
2175 4 0.0414765 0.396141 0.772636
2173 2 0.0185286 0.393227 0.782127
883 2 0.0787723 0.416664 0.784522
884 4 0.0874271 0.409586 0.762157
1063 2 0.135406 0.341145 0.8206
1065 4 0.139962 0.364239 0.829031
1241 4 0.148535 0.380014 0.821549
1240 2 0.161089 0.397684 0.809085
1277 4 0.231817 0.379072 0.758137
1242 4 0.173642 0.415354 0.796621
1020 4 0.40147 0.397562 0.824034
1017 4 0.36253 0.420981 0.792958
3012 4 0.487912 0.38636 0.814452
3010 2 0.48239 0.40532 0.799114
814 2 0.0727669 0.466014 0.810459
816 4 0.0764886 0.489422 0.818422
885 4 0.0701176 0.423742 0.806886
815 4 0.0690452 0.442607 0.802495
1236 4 0.164103 0.486721 0.772956
822 4 0.165149 0.480518 0.79244
821 4 0.171686 0.432399 0.804381
820 2 0.168418 0.456458 0.79841
2212 2 0.266309 0.480926 0.756466
2214 4 0.287975 0.468588 0.758346
271 2 0.300711 0.461477 0.795368
272 4 0.287772 0.456963 0.774453