ITEM: TIMESTEP
4050000
ITEM: NUMBER OF ATOMS
4590
ITEM: BOX BOUNDS pp pp pp
-9.9985700000000008e+00 9.9985700000000008e+00
-9.9985700000000008e+00 9.9985700000000008e+00
-9.9985700000000008e+00 9.9985700000000008e+00
ITEM: ATOMS id type xs ys zs
2269 2 0.0376045 0.0673561 0.0274051
2270 4 0.0524489 0.0490923 0.0189638
3234 4 0.0583627 0.0594072 0.00195559
701 4 0.0827106 0.0624176 0.0522076
700 2 0.096256 0.0421955 0.0464834
702 4 0.109801 0.0219734 0.0407591
2253 4 0.102553 0.0290554 0.00339306
567 4 0.103822 0.0087285 0.0541813
1840 2 0.197123 0.0254893 0.0699866
1841 4 0.20566 0.0466959 0.080115
1842 4 0.188586 0.00428274 0.0598582
490 2 0.400457 0.0577784 0.00660427
654 4 0.395199 0.0224414 0.0551681
652 2 0.389541 0.00384154 0.0394449
2442 4 0.436233 0.0623355 0.0125117
2440 2 0.455679 0.0764598 0.0194057
492 4 0.419299 0.0716841 0.0153687
986 4 0.463772 0.00560428 0.0098207
1761 4 0.453037 0.00113037 0.0245142
657 4 0.0133639 0.0954418 0.0202568
2271 4 0.0227601 0.0856199 0.0358464
2760 4 0.0157341 0.162456 0.0184728
554 4 0.0934519 0.118876 0.00829218
553 2 0.0871914 0.142825 0.0047673
722 4 0.31671 0.113746 0.0183443
721 2 0.314193 0.125116 0.0404704
723 4 0.311676 0.136486 0.0625965
693 4 0.310209 0.128186 0.0814763
356 4 0.325838 0.107499 0.00157586
1506 4 0.400073 0.092104 0.0593251
1504 2 0.382512 0.103441 0.073046
255 4 0.412077 0.105526 0.0664153
2441 4 0.475126 0.090584 0.0262998
2976 4 0.494266 0.0867365 0.0227386
254 4 0.458381 0.124411 0.0665198
253 2 0.435229 0.114968 0.0664676
24 3 0.477374 0.123792 0.0737399
3261 4 0.000345889 0.175018 0.0211378
2758 2 0.0362656 0.174917 0.011518
705 4 0.0676274 0.201044 0.0170548
2759 4 0.0567971 0.187378 0.00456322
703 2 0.0659213 0.218449 0.0349248
704 4 0.0642152 0.235854 0.0527947
462 4 0.0838241 0.237746 0.059292
555 4 0.0809309 0.166774 0.00124242
454 2 0.146948 0.246034 0.0222733
460 2 0.0908147 0.244563 0.0823103
456 4 0.13292 0.229617 0.00966865
581 4 0.199128 0.212115 0.0715179
580 2 0.201687 0.236962 0.0726327
914 4 0.188655 0.195093 0.0727936
296 4 0.278883 0.243096 0.0176014
295 2 0.299631 0.239068 0.0309604
297 4 0.32038 0.23504 0.0443193
2877 4 0.436332 0.236358 0.0630534
455 4 0.160976 0.262451 0.0348779
286 2 0.156589 0.284936 0.0638835
1619 4 0.137281 0.323598 0.000410807
287 4 0.163292 0.282086 0.0399646
105 3 0.216434 0.275237 0.0643748
101 1 0.22744 0.292688 0.0547316
903 4 0.237744 0.28955 0.0168451
582 4 0.204246 0.26181 0.0737476
294 4 0.217836 0.289048 0.0118314
103 3 0.212269 0.308994 0.0482252
104 3 0.239469 0.285264 0.0363298
102 3 0.242053 0.30179 0.0699882
292 2 0.195576 0.282403 0.00258248
902 4 0.278006 0.260946 0.00900216
901 2 0.257875 0.275248 0.0129236
360 4 0.331047 0.25129 0.0424219
1121 4 0.252475 0.31162 0.082545
359 4 0.375012 0.257238 0.0193483
358 2 0.353029 0.254264 0.0308851
528 4 0.409219 0.279421 0.0699334
2840 4 0.470272 0.292494 0.0543888
2839 2 0.480572 0.311655 0.0420632
527 4 0.453749 0.301068 0.062916
526 2 0.431484 0.290244 0.0664247
2841 4 0.490873 0.330816 0.0297375
2806 2 0.0737348 0.379453 0.00391535
2807 4 0.0951104 0.385334 0.0154773
2514 4 0.093219 0.397717 0.0304842
2512 2 0.0935334 0.393719 0.055164
481 2 0.161763 0.348418 0.00800339
2513 4 0.0938477 0.38972 0.0798438
482 4 0.171841 0.363862 0.0248877
494 4 0.174567 0.34863 0.0374063
493 2 0.174823 0.358455 0.0603976
495 4 0.175079 0.368279 0.0833888
2005 2 0.354735 0.399551 0.0123548
2007 4 0.349741 0.375628 0.0176405
281 4 0.364659 0.365903 0.00812331
672 4 0.493902 0.34868 0.0216942
670 2 0.497641 0.373233 0.0188004
2772 4 0.00812213 0.46143 0.0693805
328 2 0.0476843 0.48277 0.0746371
329 4 0.0264096 0.470765 0.0693043
330 4 0.068959 0.494776 0.0799699
14 3 0.321462 0.463082 0.0184279
2006 4 0.35973 0.423474 0.00706908
15 3 0.353824 0.473281 0.0347466
13 3 0.352814 0.442153 0.0135891
11 1 0.341011 0.455554 0.028405
12 3 0.335571 0.443111 0.0469717
596 4 0.364428 0.446553 0.0731358
741 4 0.363776 0.430928 0.0609943
739 2 0.345846 0.421903 0.0759018
595 2 0.377268 0.466405 0.0812726
380 4 0.0127571 0.0389323 0.157494
232 2 0.020408 0.0767788 0.164653
449 4 0.151363 0.0688254 0.1177
1874 4 0.151496 0.00733258 0.15712
448 2 0.171272 0.0630262 0.103729
450 4 0.191181 0.0572271 0.0897581
1873 2 0.174484 0.0023714 0.14863
1660 2 0.290536 0.0294316 0.130422
1662 4 0.30158 0.00763701 0.125111
1661 4 0.279492 0.0512261 0.135733
1475 4 0.300344 0.0141565 0.106873
558 4 0.409922 0.999887 0.122341
2469 4 0.40203 0.0179005 0.120367
1749 4 0.349709 0.0130399 0.155341
2467 2 0.416078 0.0383671 0.117378
771 4 0.443657 0.0555603 0.128975
2468 4 0.430127 0.0588338 0.11439
769 2 0.467327 0.060782 0.122838
770 4 0.490996 0.0660038 0.116702
234 4 0.0184765 0.101424 0.160904
579 4 0.142122 0.163896 0.165613
691 2 0.332961 0.12604 0.0916222
1505 4 0.364951 0.114779 0.086767
692 4 0.355712 0.123894 0.101768
21 1 0.494331 0.12101 0.0893326
23 3 0.485481 0.113395 0.109385
623 4 0.0887202 0.250914 0.123608
235 2 0.172855 0.174924 0.150063
237 4 0.184828 0.189227 0.133412
913 2 0.193863 0.18879 0.0964226
915 4 0.199072 0.182488 0.120052
606 4 0.269269 0.221047 0.161476
604 2 0.251601 0.203642 0.164651
731 4 0.271243 0.240388 0.164228
2875 2 0.427701 0.235093 0.0864859
2876 4 0.41907 0.233828 0.109918
378 4 0.429802 0.226395 0.124837
376 2 0.451206 0.223473 0.137427
377 4 0.47261 0.22055 0.150017
754 2 0.0669541 0.333059 0.121612
756 4 0.054074 0.328065 0.142453
288 4 0.149885 0.287786 0.0878024
461 4 0.0978053 0.251379 0.105329
622 2 0.101345 0.251133 0.145189
251 4 0.145485 0.251851 0.138434
250 2 0.151338 0.260479 0.115708
252 4 0.15719 0.269108 0.0929815
284 4 0.150093 0.256707 0.15774
477 4 0.148536 0.332647 0.0968223
624 4 0.11397 0.251351 0.16677
278 4 0.241065 0.275419 0.134149
277 2 0.243071 0.29406 0.117606
279 4 0.245077 0.312701 0.101063
730 2 0.254932 0.259285 0.165659
518 4 0.406032 0.287952 0.0886544
517 2 0.393689 0.286472 0.110349
519 4 0.381346 0.284992 0.132043
309 4 0.365697 0.290636 0.142961
307 2 0.374183 0.286611 0.166133
755 4 0.0798342 0.338052 0.100771
396 4 0.0571747 0.34596 0.150902
476 4 0.0992433 0.340748 0.0945186
475 2 0.12389 0.336697 0.0956704
525 4 0.106736 0.387934 0.095001
523 2 0.114321 0.395743 0.117511
524 4 0.121905 0.403551 0.14002
2094 4 0.0877193 0.41227 0.155864
969 4 0.188487 0.371046 0.0981123
967 2 0.193347 0.357301 0.118425
968 4 0.198208 0.343555 0.138738
416 4 0.191654 0.342624 0.158526
1120 2 0.264076 0.333355 0.0868129
1122 4 0.275677 0.355089 0.0910809
1071 4 0.279775 0.360271 0.110389
1069 2 0.283393 0.367777 0.133964
1070 4 0.287011 0.375283 0.157538
740 4 0.327916 0.412877 0.0908094
607 2 0.344494 0.415697 0.13051
609 4 0.35053 0.411858 0.154468
2652 4 0.449182 0.355114 0.0864893
2650 2 0.443942 0.366908 0.107904
2651 4 0.438701 0.378703 0.129319
2538 4 0.428952 0.395629 0.131697
2536 2 0.443414 0.404542 0.150044
3761 4 0.0473561 0.499259 0.164588
766 2 0.140988 0.443581 0.147223
768 4 0.130111 0.421068 0.147267
767 4 0.151865 0.466095 0.147179
637 2 0.189505 0.487075 0.156476
638 4 0.171062 0.47093 0.151537
608 4 0.338458 0.419536 0.106551
597 4 0.390107 0.486257 0.0894094
659 4 0.400636 0.472493 0.100653
658 2 0.422648 0.482637 0.106799
660 4 0.44466 0.49278 0.112944
3704 4 0.462125 0.489526 0.103041
233 4 0.0223395 0.0521335 0.168402
1479 4 0.13731 0.00355381 0.170568
1805 4 0.319525 0.00449653 0.18701
1747 2 0.364503 0.0288363 0.167862
743 4 0.378366 0.0440563 0.199587
1748 4 0.379298 0.0446327 0.180383
742 2 0.396252 0.0332957 0.213352
744 4 0.414138 0.0225352 0.227117
432 4 0.428306 0.0256549 0.240957
2675 4 0.0153448 0.113279 0.176327
2674 2 0.00328396 0.131133 0.189014
1271 4 0.0495769 0.097425 0.248121
1220 4 0.0375632 0.113406 0.2442
236 4 0.160883 0.160621 0.166714
27 3 0.234564 0.1292 0.174245
29 3 0.243917 0.151119 0.203309
26 1 0.244844 0.148888 0.180232
28 3 0.233702 0.166547 0.170112
514 2 0.272564 0.128894 0.22949
30 3 0.266544 0.148417 0.173336
516 4 0.260209 0.14249 0.212528
759 4 0.285378 0.140611 0.172152
757 2 0.307977 0.129992 0.170831
515 4 0.28492 0.115299 0.246451
758 4 0.330575 0.119374 0.16951
521 4 0.481387 0.146677 0.237399
633 4 0.46598 0.136154 0.247705
520 2 0.496728 0.130545 0.226016
577 2 0.128614 0.172719 0.184714
507 4 0.0977438 0.186502 0.213086
578 4 0.115105 0.181543 0.203815
505 2 0.109513 0.189028 0.235001
605 4 0.233932 0.186238 0.167826
546 4 0.199984 0.225752 0.232037
544 2 0.189639 0.244272 0.218803
2591 4 0.481759 0.224258 0.249449
629 4 0.468747 0.216048 0.168907
332 4 0.430425 0.214613 0.220198
630 4 0.444891 0.204402 0.211286
628 2 0.456819 0.210225 0.190096
331 2 0.434995 0.204676 0.242683
298 2 0.0247302 0.312365 0.217939
299 4 0.0308423 0.331162 0.202625
300 4 0.0186182 0.293569 0.233253
2693 4 0.00478742 0.277828 0.235242
283 2 0.167262 0.265048 0.17389
285 4 0.184432 0.273389 0.19004
545 4 0.179293 0.262792 0.205568
610 2 0.23039 0.299414 0.205118
611 4 0.222681 0.309015 0.226879
345 4 0.218182 0.317591 0.244065
612 4 0.238099 0.289813 0.183356
732 4 0.238621 0.278182 0.167089
496 2 0.379845 0.289106 0.224242
308 4 0.382669 0.282585 0.189305
498 4 0.375227 0.273898 0.204939
497 4 0.384462 0.304314 0.243544
537 4 0.0250062 0.395159 0.231896
395 4 0.0466607 0.3449 0.19978
394 2 0.0519177 0.34543 0.175341
2092 2 0.0775767 0.409761 0.17858
2093 4 0.067434 0.407252 0.201296
535 2 0.00297804 0.40696 0.231078
414 4 0.0308889 0.378086 0.240716
362 4 0.122793 0.41292 0.181595
361 2 0.13379 0.390559 0.179538
363 4 0.144787 0.368198 0.17748
417 4 0.152271 0.353161 0.187486
415 2 0.171963 0.347893 0.173006
290 4 0.21873 0.403082 0.238673
289 2 0.223963 0.410549 0.215391
728 4 0.171263 0.414174 0.244561
291 4 0.229197 0.418015 0.192109
387 4 0.350112 0.390651 0.227299
245 4 0.362415 0.394299 0.213655
244 2 0.35916 0.407538 0.192695
385 2 0.35549 0.376996 0.247543
2537 4 0.457876 0.413454 0.16839
714 4 0.472562 0.400593 0.171837
712 2 0.478659 0.399091 0.196039
713 4 0.484756 0.397589 0.220242
2862 4 0.495449 0.390801 0.236368
1775 4 0.0648219 0.496506 0.17465
1382 4 0.0885372 0.466258 0.242617
627 4 0.24318 0.430934 0.188798
727 2 0.179 0.434582 0.232362
337 2 0.221342 0.478204 0.218316
339 4 0.206595 0.458253 0.22143
729 4 0.186737 0.454991 0.220163
338 4 0.236089 0.498154 0.215203
626 4 0.291315 0.439112 0.177986
625 2 0.267248 0.435023 0.183392
246 4 0.355905 0.420776 0.171735
302 4 0.382945 0.497876 0.209128
1714 2 0.400698 0.485526 0.241851
1716 4 0.390023 0.481573 0.219589
1270 2 0.0640772 0.0777046 0.253223
1272 4 0.0785775 0.0579843 0.258324
2849 4 0.0971147 0.0516662 0.251605
2848 2 0.105493 0.0289286 0.257769
2850 4 0.11387 0.00619105 0.263933
429 4 0.149689 0.0453914 0.315268
393 4 0.212261 0.0234536 0.297519
428 4 0.193828 0.0256909 0.30245
427 2 0.171759 0.0355411 0.308859
391 2 0.233325 0.0362104 0.301851
392 4 0.254389 0.0489671 0.306182
404 4 0.262619 0.0325065 0.314825
403 2 0.28579 0.0232114 0.313447
405 4 0.308961 0.0139164 0.312069
248 4 0.310839 0.00877676 0.293417
1495 2 0.49298 0.00523253 0.304515
1496 4 0.476552 0.0171432 0.289906
431 4 0.463046 0.0210301 0.276629
430 2 0.445676 0.0233425 0.258793
1219 2 0.0504263 0.132216 0.254491
1221 4 0.0632895 0.151026 0.264783
459 4 0.0769471 0.142128 0.27585
457 2 0.0965348 0.1542 0.285636
458 4 0.116122 0.166272 0.295421
2910 4 0.289827 0.124107 0.264016
2908 2 0.293005 0.125733 0.288764
2909 4 0.296183 0.12736 0.313511
2657 4 0.300014 0.146306 0.321565
761 4 0.40338 0.154545 0.329369
631 2 0.456227 0.156517 0.258448
2831 4 0.00708821 0.177821 0.323799
2830 2 0.00446697 0.202136 0.329002
471 4 0.1354 0.168624 0.292318
469 2 0.150317 0.173696 0.311733
506 4 0.121283 0.191554 0.256916
530 4 0.134311 0.205124 0.264755
529 2 0.158502 0.207705 0.258982
470 4 0.165234 0.178768 0.331148
350 4 0.202195 0.212749 0.255134
531 4 0.182692 0.210286 0.253208
349 2 0.226759 0.208774 0.257581
351 4 0.251323 0.204799 0.260029
764 4 0.251338 0.2193 0.274293
763 2 0.266893 0.228278 0.291689
510 4 0.292096 0.229456 0.324851
765 4 0.282448 0.237256 0.309085
333 4 0.439564 0.19474 0.265168
632 4 0.446474 0.17688 0.26919
2694 4 0.0158541 0.258492 0.280012
2692 2 0.0103208 0.26816 0.257627
413 4 0.0247549 0.33322 0.261934
750 4 0.139143 0.264447 0.322571
748 2 0.131553 0.286209 0.312875
749 4 0.123964 0.30797 0.303179
618 4 0.133004 0.321934 0.314578
343 2 0.23966 0.326998 0.252748
645 4 0.267339 0.329617 0.278804
275 4 0.394893 0.311935 0.259644
274 2 0.385304 0.332977 0.269155
412 2 0.0278219 0.355653 0.251325
616 2 0.141165 0.345123 0.31001
617 4 0.149325 0.368312 0.305442
2654 4 0.161561 0.380142 0.31687
735 4 0.235527 0.404446 0.250375
2653 2 0.177865 0.398905 0.314163
734 4 0.215949 0.370184 0.281091
733 2 0.225738 0.387315 0.265733
365 4 0.21239 0.360933 0.299278
364 2 0.21806 0.349287 0.320665
643 2 0.269027 0.340552 0.301226
344 4 0.261138 0.336405 0.261431
644 4 0.270715 0.351487 0.323649
1575 4 0.307814 0.369482 0.299112
1573 2 0.318228 0.391693 0.294274
1574 4 0.328642 0.413903 0.289435
386 4 0.360867 0.363341 0.267787
276 4 0.375715 0.35402 0.278665
264 4 0.0887121 0.484234 0.252165
1381 2 0.106862 0.456661 0.256663
3671 4 0.145152 0.453961 0.275084
1383 4 0.125186 0.447065 0.270709
3670 2 0.167266 0.462113 0.283434
677 4 0.194807 0.490299 0.287309
2655 4 0.194169 0.417668 0.311455
3672 4 0.18938 0.470265 0.291783
1550 4 0.332784 0.497534 0.27457
1801 2 0.327178 0.445623 0.300729
1802 4 0.323738 0.421624 0.306844
1803 4 0.330619 0.469622 0.294614
752 4 0.342047 0.484328 0.300608
1715 4 0.411374 0.489479 0.264112
2237 4 0.0047312 0.0106154 0.414073
1868 4 0.152589 0.0159287 0.358717
2642 4 0.225819 0.00573502 0.374261
480 4 0.242576 0.0166124 0.37589
651 4 0.248568 0.0766942 0.381572
478 2 0.252927 0.0393281 0.377311
479 4 0.263279 0.0620438 0.378733
2880 4 0.393821 0.076801 0.382267
1517 4 0.409715 0.0713877 0.392373
1516 2 0.42884 0.055293 0.392983
1518 4 0.447965 0.0391982 0.393594
4164 4 0.442124 0.0216821 0.400489
939 4 0.0952264 0.139917 0.40771
649 2 0.2425 0.0895563 0.402137
402 4 0.230498 0.151449 0.370944
2656 2 0.31629 0.156597 0.337513
1031 4 0.332723 0.163761 0.372682
760 2 0.401678 0.150767 0.354027
762 4 0.399975 0.146989 0.378684
2879 4 0.398221 0.126057 0.374836
2878 2 0.396021 0.101429 0.378552
2551 2 0.488595 0.132477 0.361501
2553 4 0.473765 0.144833 0.377393
420 4 0.473233 0.154441 0.396023
2637 4 0.00718039 0.235893 0.401138
2584 2 0.00125736 0.248378 0.366646
2832 4 0.00184572 0.226452 0.334204
2585 4 0.000967458 0.245705 0.341787
2613 4 0.068733 0.185601 0.397947
2611 2 0.0512878 0.187832 0.415719
341 4 0.0862959 0.188703 0.387826
340 2 0.0957304 0.211847 0.387104
707 4 0.15197 0.193148 0.357818
342 4 0.105165 0.234991 0.386383
390 4 0.149717 0.212463 0.358469
388 2 0.139957 0.232012 0.346313
708 4 0.196947 0.172056 0.363557
706 2 0.174459 0.182602 0.360688
371 4 0.23786 0.208594 0.391703
400 2 0.238036 0.175169 0.373329
401 4 0.245574 0.19889 0.375713
370 2 0.242769 0.228844 0.405524
508 2 0.303924 0.242532 0.342579
2658 4 0.332566 0.166888 0.353462
717 4 0.332364 0.250664 0.369262
1032 4 0.378182 0.169522 0.392707
1030 2 0.355452 0.166642 0.382695
488 4 0.396684 0.245484 0.379745
2586 4 0.00154726 0.25105 0.391505
389 4 0.130196 0.25156 0.334157
375 4 0.216094 0.322678 0.353778
374 4 0.242842 0.320541 0.395977
373 2 0.229468 0.321609 0.374878
602 4 0.255128 0.304626 0.401996
509 4 0.315752 0.255607 0.360308
715 2 0.357307 0.25224 0.369995
716 4 0.38225 0.253817 0.370729
487 2 0.407755 0.260379 0.3965
489 4 0.418826 0.275275 0.413255
366 4 0.22373 0.33764 0.342051
435 4 0.257302 0.350754 0.338904
433 2 0.26052 0.375479 0.340777
434 4 0.263739 0.400203 0.34265
614 4 0.362771 0.415838 0.354215
2925 4 0.397176 0.396171 0.390636
117 3 0.416004 0.396621 0.398519
116 1 0.433556 0.386121 0.409046
118 3 0.441666 0.369361 0.395199
585 4 0.451937 0.412652 0.396112
119 3 0.450224 0.401719 0.413202
2107 2 0.30918 0.455334 0.405036
2108 4 0.324046 0.439284 0.39293
615 4 0.321817 0.422518 0.382123
2923 2 0.389343 0.419636 0.394275
613 2 0.342294 0.419178 0.368169
2924 4 0.38151 0.4431 0.397915
583 2 0.44876 0.43228 0.380952
584 4 0.445583 0.451908 0.365792
542 4 0.443858 0.468417 0.377206
541 2 0.442863 0.485801 0.359262
599 4 0.283461 0.0720799 0.484934
598 2 0.28793 0.0477403 0.488511
600 4 0.292398 0.0234007 0.492088
3159 4 0.301607 0.080821 0.487714
843 4 0.361147 0.0150755 0.466205
841 2 0.372893 0.0333747 0.478548
842 4 0.384639 0.0516739 0.490891
1061 4 0.393034 0.0687166 0.499595
982 2 0.010915 0.0884073 0.494812
983 4 0.0349829 0.0944087 0.491665
1035 4 0.0512469 0.0884994 0.480753
1033 2 0.0707351 0.0991862 0.4693
1034 4 0.0902233 0.109873 0.457846
938 4 0.104886 0.108181 0.44513
937 2 0.100056 0.124049 0.42642
650 4 0.236433 0.102418 0.422702
474 4 0.22056 0.0965929 0.432164
472 2 0.219203 0.119914 0.44108
473 4 0.217846 0.143234 0.449995
3157 2 0.320322 0.0954931 0.495436
2500 2 0.361204 0.131313 0.4743
2502 4 0.347994 0.11284 0.484759
2501 4 0.374415 0.149787 0.463841
419 4 0.494632 0.140457 0.439003
418 2 0.483933 0.147449 0.417513
2612 4 0.0338426 0.190063 0.433492
2847 4 0.0441801 0.204932 0.442557
2845 2 0.0508116 0.225395 0.455304
2846 4 0.0574431 0.245858 0.46805
367 2 0.153774 0.231905 0.480628
825 4 0.162673 0.234893 0.43809
369 4 0.16202 0.22821 0.457314
372 4 0.247677 0.249094 0.419345
320 4 0.377465 0.168084 0.453074
642 4 0.377479 0.229349 0.466837
319 2 0.370754 0.191901 0.456664
321 4 0.364044 0.215718 0.460254
260 4 0.0667651 0.260799 0.459623
259 2 0.0718935 0.280659 0.445325
261 4 0.0770219 0.30052 0.431027
669 4 0.142212 0.286034 0.418833
824 4 0.16119 0.283544 0.42662
667 2 0.119188 0.295232 0.42207
823 2 0.161932 0.259219 0.432355
668 4 0.096164 0.30443 0.425306
695 4 0.118807 0.297373 0.492724
694 2 0.124584 0.273908 0.499141
636 4 0.141164 0.33284 0.449616
1394 4 0.245798 0.285326 0.497443
1190 4 0.240726 0.279565 0.478425
1189 2 0.246458 0.27188 0.455333
1191 4 0.252191 0.264195 0.432241
601 2 0.259749 0.315389 0.424086
603 4 0.26437 0.326152 0.446177
267 4 0.411987 0.290329 0.423574
640 2 0.364796 0.250896 0.466652
811 2 0.336077 0.313384 0.465675
641 4 0.352113 0.272443 0.466468
812 4 0.341285 0.289018 0.467751
265 2 0.43165 0.299966 0.435644
451 2 0.48537 0.283261 0.441206
453 4 0.468072 0.301314 0.441058
266 4 0.451312 0.309603 0.447715
444 4 0.043977 0.335671 0.417768
443 4 0.063707 0.380562 0.427578
442 2 0.053842 0.358116 0.422673
1640 4 0.0806067 0.374058 0.433368
1641 4 0.108372 0.413013 0.447936
1639 2 0.0944895 0.393536 0.440652
634 2 0.161202 0.341934 0.461489
635 4 0.18124 0.351028 0.473361
813 4 0.330868 0.337751 0.463598
873 4 0.266395 0.344962 0.450855
871 2 0.289946 0.345785 0.459212
872 4 0.313498 0.346607 0.467569
120 3 0.426252 0.377141 0.428658
548 4 0.022436 0.496658 0.440977
2138 4 0.118129 0.476288 0.440334
2139 4 0.122881 0.427005 0.447359
2137 2 0.120505 0.451647 0.443846
569 4 0.119248 0.495603 0.435975
326 4 0.20601 0.44685 0.499515
710 4 0.23607 0.459904 0.445456
711 4 0.224266 0.446343 0.49212
709 2 0.230168 0.453123 0.468788
2109 4 0.294313 0.471383 0.417143
1698 4 0.291688 0.490003 0.418342
1980 4 0.476257 0.472964 0.497056
1978 2 0.460772 0.487701 0.484086
239 4 0.495661 0.423788 0.476118
2314 2 0.196127 0.0615017 0.539578
2316 4 0.189857 0.0374205 0.537138
1151 4 0.200058 0.0331094 0.519597
1150 2 0.204932 0.0096753 0.512368
1180 2 0.255099 0.0502778 0.574262
1181 4 0.250735 0.0656076 0.554997
725 4 0.262791 0.0820828 0.556376
2241 4 0.297253 0.00744846 0.504246
1141 2 0.38358 0.0486973 0.553506
1143 4 0.370794 0.0590736 0.53469
1142 4 0.396366 0.038321 0.572322
576 4 0.410322 0.0254438 0.573796
1060 2 0.416434 0.0633495 0.506583
1062 4 0.439834 0.0579824 0.51357
2516 4 0.441404 0.0755425 0.521925
917 4 0.159409 0.149312 0.546689
916 2 0.141326 0.137998 0.559734
918 4 0.123243 0.126684 0.572779
726 4 0.248411 0.0961265 0.510586
944 4 0.178874 0.147258 0.549037
2315 4 0.202398 0.085583 0.542018
945 4 0.206132 0.10534 0.548255
943 2 0.192503 0.126299 0.548646
724 2 0.255601 0.0891047 0.533481
856 2 0.300069 0.135201 0.540246
857 4 0.32218 0.13008 0.529754
858 4 0.277959 0.140322 0.550737
1130 4 0.31584 0.0829668 0.581976
3158 4 0.339038 0.110165 0.503158
2515 2 0.464134 0.0859528 0.522299
2517 4 0.486864 0.0963631 0.522673
3461 4 0.072452 0.206814 0.564562
3044 4 0.0752587 0.22494 0.557123
3460 2 0.062301 0.189258 0.549936
3462 4 0.0521501 0.171702 0.53531
3043 2 0.0812519 0.247166 0.547362
7 3 0.116569 0.221513 0.540499
6 1 0.134676 0.234334 0.534421
9 3 0.147761 0.222258 0.519542
368 4 0.145527 0.235599 0.503941
8 3 0.146963 0.239451 0.553427
899 4 0.402482 0.194848 0.543765
898 2 0.383859 0.207032 0.555161
900 4 0.365235 0.219217 0.566558
268 2 0.450114 0.237843 0.525175
270 4 0.473952 0.242344 0.531232
269 4 0.426277 0.233341 0.519118
3309 4 0.487344 0.235886 0.544971
3045 4 0.0872451 0.269392 0.537602
348 4 0.147167 0.259325 0.557073
10 3 0.127325 0.253485 0.52453
935 4 0.0987568 0.28608 0.532729
934 2 0.107743 0.306116 0.544687
696 4 0.130362 0.250443 0.505557
936 4 0.116729 0.326152 0.556645
346 2 0.164512 0.270708 0.571029
409 2 0.220525 0.275035 0.573505
410 4 0.239457 0.268888 0.558374
1395 4 0.241616 0.284135 0.547261
1393 2 0.243707 0.28473 0.522352
1039 2 0.055862 0.369595 0.549726
1040 4 0.0405816 0.357912 0.533751
382 2 0.00279736 0.342472 0.521284
384 4 0.0273103 0.346994 0.523245
1041 4 0.0711425 0.381279 0.5657
1136 4 0.0851462 0.387282 0.550115
1135 2 0.0986198 0.40821 0.552497
774 4 0.186664 0.365445 0.545787
772 2 0.197352 0.388019 0.546936
773 4 0.208041 0.410594 0.548086
1173 4 0.282819 0.395663 0.511591
1171 2 0.305822 0.404984 0.514615
1028 4 0.332892 0.400571 0.53275
1172 4 0.328825 0.414306 0.51764
1027 2 0.346507 0.40384 0.553466
1029 4 0.360122 0.407109 0.574181
1137 4 0.112093 0.429137 0.554878
540 4 0.107399 0.445389 0.542246
538 2 0.123377 0.462201 0.532905
2243 4 0.140039 0.490532 0.507925
539 4 0.139354 0.479013 0.523565
1983 4 0.124832 0.478844 0.581213
327 4 0.195036 0.423654 0.542436
2434 2 0.227356 0.495099 0.577349
2436 4 0.239062 0.491961 0.555479
325 2 0.200523 0.435252 0.520976
1455 4 0.256945 0.498805 0.565242
1237 2 0.395056 0.419804 0.58315
1239 4 0.374541 0.420647 0.568881
1951 2 0.383655 0.488739 0.522165
881 4 0.357665 0.489168 0.545756
1953 4 0.394356 0.4778 0.502391
1643 4 0.495566 0.472387 0.501728
718 2 0.0185807 0.0120242 0.616709
720 4 0.0167437 0.036141 0.61037
3178 2 0.999954 0.0658784 0.628667
1182 4 0.259463 0.0349481 0.593527
1003 2 0.327347 0.0474716 0.605734
964 2 0.314008 0.00962874 0.643072
1004 4 0.320579 0.0697931 0.596726
1255 2 0.254662 0.018906 0.664218
1257 4 0.273438 0.00371298 0.657751
965 4 0.292916 0.000538436 0.652954
1005 4 0.334114 0.0251502 0.614741
966 4 0.335101 0.018719 0.633189
887 4 0.393056 0.00754141 0.652397
3438 4 0.46141 0.0466777 0.596469
575 4 0.453468 0.0284091 0.598903
574 2 0.431895 0.0269264 0.58635
3436 2 0.484816 0.0465639 0.605263
3180 4 0.000563633 0.0879154 0.640465
1212 4 0.116175 0.128758 0.592393
1210 2 0.116421 0.146556 0.609952
1211 4 0.116667 0.164355 0.627511
1155 4 0.224819 0.145045 0.628114
1283 4 0.227026 0.160364 0.640171
1153 2 0.243127 0.13273 0.616351
1282 2 0.213972 0.152369 0.659942
1131 4 0.27607 0.106622 0.600936
1154 4 0.261434 0.120415 0.604588
1129 2 0.295955 0.0947946 0.591456
950 4 0.332945 0.156819 0.649876
2319 4 0.35142 0.159006 0.645386
2317 2 0.360163 0.14021 0.659366
1259 4 0.125383 0.17212 0.643811
1258 2 0.144242 0.188445 0.645537
1260 4 0.163102 0.204771 0.647263
1084 2 0.20878 0.236663 0.656678
978 4 0.236739 0.21996 0.657916
1085 4 0.185892 0.236396 0.646614
949 2 0.31206 0.169962 0.653908
951 4 0.291176 0.183106 0.65794
976 2 0.253753 0.20167 0.656813
977 4 0.270767 0.183381 0.65571
993 4 0.0791732 0.296387 0.658796
895 2 0.154085 0.266549 0.634571
991 2 0.101417 0.295071 0.647453
896 4 0.134823 0.280111 0.626193
992 4 0.12366 0.293755 0.636109
411 4 0.201592 0.281181 0.588636
897 4 0.173348 0.252986 0.642949
347 4 0.181856 0.28209 0.584985
790 2 0.476772 0.311538 0.654609
791 4 0.453955 0.306695 0.663615
807 4 0.444387 0.323077 0.655779
1281 4 0.00669451 0.363766 0.65175
1279 2 0.0307536 0.366522 0.657975
1280 4 0.0548126 0.369278 0.664199
940 2 0.144431 0.409612 0.660325
890 4 0.349165 0.406353 0.607869
889 2 0.342706 0.3823 0.61008
891 4 0.336247 0.358246 0.612292
806 4 0.413456 0.358467 0.638704
803 4 0.409435 0.37605 0.64816
802 2 0.409446 0.394798 0.631617
804 4 0.409457 0.413547 0.615074
805 2 0.428921 0.340772 0.647241
3464 4 0.479332 0.40982 0.650506
2130 4 0.120961 0.463955 0.594913
2128 2 0.127134 0.448647 0.613695
2129 4 0.133306 0.43334 0.632477
942 4 0.14862 0.429297 0.645487
2435 4 0.215651 0.498237 0.599219
1238 4 0.415572 0.418962 0.597419
1205 4 0.335585 0.418388 0.616312
1204 2 0.34646 0.433091 0.633363
1206 4 0.357334 0.447794 0.650414
1139 4 0.340886 0.449726 0.662411
3372 4 0.426467 0.469008 0.638642
1007 4 0.440425 0.464948 0.652136
3370 2 0.425489 0.493519 0.643483
1006 2 0.454906 0.445084 0.64756
1008 4 0.469387 0.425221 0.642984
834 4 0.00887023 0.0815437 0.744547
2990 4 0.119946 0.00885731 0.743579
1256 4 0.235887 0.0340991 0.670686
958 2 0.249112 0.0761321 0.670947
959 4 0.245155 0.0515001 0.66928
886 2 0.409419 0.0201654 0.666471
952 2 0.403504 0.0641647 0.704865
1026 4 0.383255 0.070623 0.727579
953 4 0.415115 0.0449349 0.693884
888 4 0.425782 0.0327895 0.680545
947 4 0.135042 0.135776 0.694669
851 4 0.134174 0.144438 0.712921
850 2 0.12582 0.158475 0.731852
946 2 0.158941 0.13647 0.687353
1284 4 0.200919 0.144375 0.679712
948 4 0.18284 0.137165 0.680037
960 4 0.25307 0.100764 0.672613
2256 4 0.266088 0.115655 0.67495
2255 4 0.297926 0.113144 0.71343
2254 2 0.282007 0.1144 0.69419
954 4 0.391894 0.0833945 0.715846
2318 4 0.368906 0.121414 0.673346
3401 4 0.492331 0.098036 0.702208
1086 4 0.231668 0.23693 0.666741
1068 4 0.0687186 0.288445 0.673974
154 3 0.0137818 0.283101 0.693816
1067 4 0.0254752 0.299111 0.696711
1066 2 0.0470969 0.293778 0.685343
885 4 0.0124243 0.313474 0.702708
883 2 0.0177104 0.333006 0.717397
1299 4 0.171955 0.270789 0.712009
1297 2 0.177134 0.257643 0.732638
796 2 0.265036 0.326457 0.74245
884 4 0.0229965 0.352537 0.732085
815 4 0.0374737 0.365079 0.735461
941 4 0.140242 0.389928 0.675163
1098 4 0.156436 0.3809 0.683449
1278 4 0.206452 0.386047 0.725061
1276 2 0.228344 0.374183 0.727334
1097 4 0.185579 0.387088 0.723613
1096 2 0.171008 0.383994 0.703531
1277 4 0.250237 0.36232 0.729606
797 4 0.263091 0.346702 0.727906
1015 2 0.343011 0.40432 0.729883
1016 4 0.353848 0.390194 0.747438
3465 4 0.491171 0.391939 0.695681
999 4 0.478721 0.379147 0.705908
997 2 0.457274 0.38115 0.718604
998 4 0.435828 0.383154 0.731301
3463 2 0.485251 0.400879 0.673093
1017 4 0.332173 0.418445 0.712328
1140 4 0.333137 0.438138 0.710436
1138 2 0.337012 0.443932 0.686423
3368 4 0.46513 0.50044 0.700738
2311 2 0.00437318 0.0198665 0.800919
2313 4 0.018951 0.00645232 0.785664
2989 2 0.130435 0.0173719 0.764618
2991 4 0.140925 0.0258865 0.785658
907 2 0.161671 0.0542281 0.80624
908 4 0.149579 0.0434854 0.787172
909 4 0.173762 0.0649707 0.825308
1024 2 0.374154 0.075759 0.750294
1025 4 0.365054 0.0808949 0.773009
819 4 0.415442 0.01276 0.820216
817 2 0.427511 0.0339389 0.825781
42 3 0.48668 0.0639399 0.812374
818 4 0.439581 0.0551178 0.831345
832 2 0.0262649 0.0941394 0.757351
833 4 0.0436596 0.106735 0.770156
862 2 0.0761816 0.119518 0.796352
863 4 0.0583568 0.106787 0.784295
864 4 0.0940064 0.132249 0.808409
868 2 0.132895 0.146288 0.805073
870 4 0.109637 0.139928 0.798456
869 4 0.156153 0.152649 0.81169
1178 4 0.1144 0.165561 0.77041
1023 4 0.186719 0.162648 0.808362
41 1 0.491316 0.0864687 0.812704
43 3 0.472773 0.0978249 0.820804
45 3 0.496083 0.0934568 0.791559
922 2 0.0684468 0.227809 0.800186
923 4 0.0783262 0.210708 0.784852
1179 4 0.0735895 0.190126 0.785633
924 4 0.0585674 0.24491 0.815519
1177 2 0.0939949 0.177843 0.778022
852 4 0.117466 0.172511 0.750782
1209 4 0.139044 0.2491 0.827946
1021 2 0.207595 0.170394 0.796986
1022 4 0.22847 0.178139 0.785611
1298 4 0.182313 0.244497 0.753266
838 2 0.183491 0.241447 0.792817
801 4 0.211159 0.24146 0.826865
839 4 0.193764 0.241461 0.815613
840 4 0.173218 0.241433 0.770022
3328 2 0.2958 0.229111 0.796543
1092 4 0.276935 0.194914 0.817839
3329 4 0.28303 0.211492 0.808859
3330 4 0.30857 0.246729 0.784226
1090 2 0.266679 0.17716 0.83215
1207 2 0.154288 0.268164 0.833367
1065 4 0.216484 0.314346 0.804301
1063 2 0.196477 0.301743 0.81243
1241 4 0.225856 0.33162 0.800223
1064 4 0.17647 0.28914 0.820558
798 4 0.26698 0.306211 0.756994
1043 4 0.315609 0.262215 0.774355
1044 4 0.284722 0.29966 0.762333
1042 2 0.300165 0.280937 0.768344
3347 4 0.325505 0.283103 0.827901
3348 4 0.373821 0.291901 0.818475
3346 2 0.349663 0.287502 0.823188
1051 2 0.400518 0.310609 0.830295
865 2 0.453812 0.319612 0.808649
866 4 0.476483 0.329095 0.804036
1166 4 0.482084 0.311964 0.792668
1053 4 0.42174 0.322493 0.824503
867 4 0.431141 0.310129 0.813262
814 2 0.0387485 0.385253 0.750178
816 4 0.0400232 0.405427 0.764894
1170 4 0.00653377 0.38466 0.819977
1240 2 0.227021 0.352621 0.813742
1242 4 0.228186 0.373623 0.82726
1019 4 0.351143 0.399153 0.764973
1018 2 0.350691 0.381743 0.782914
1020 4 0.35024 0.364334 0.800856
189 3 0.407711 0.400177 0.809474
187 3 0.431701 0.408875 0.781879
1250 4 0.484968 0.37554 0.792573
1249 2 0.466584 0.392485 0.792862
1251 4 0.4482 0.409429 0.793151
84 3 0.293524 0.461259 0.776552
83 3 0.314583 0.454524 0.807465
85 3 0.304994 0.426284 0.784482
81 1 0.310612 0.448333 0.785458
82 3 0.32975 0.451825 0.773182
188 3 0.403968 0.432794 0.790329
2214 4 0.345704 0.455975 0.76132
2213 4 0.386696 0.442087 0.78637
2212 2 0.3662 0.449031 0.773845
2357 4 0.340489 0.469225 0.821497
186 1 0.419089 0.417516 0.799066
190 3 0.432834 0.427855 0.813993
1988 4 0.451505 0.424423 0.806676
1987 2 0.461195 0.446153 0.814363
1989 4 0.470885 0.467883 0.82205
1116 4 0.482383 0.482905 0.830919
1215 4 0.0812647 0.0661849 0.85193
1294 2 0.00614323 0.053843 0.84252
1213 2 0.0620057 0.0522705 0.844142
1214 4 0.0427467 0.0383561 0.836353
1296 4 0.0307659 0.0548523 0.838291