ITEM: TIMESTEP
3230000
ITEM: NUMBER OF ATOMS
4590
ITEM: BOX BOUNDS pp pp pp
-9.9985700000000008e+00 9.9985700000000008e+00
-9.9985700000000008e+00 9.9985700000000008e+00
-9.9985700000000008e+00 9.9985700000000008e+00
ITEM: ATOMS id type xs ys zs
3232 2 0.0481445 0.00878152 0.0523352
3234 4 0.0660132 0.0261343 0.0545191
2625 4 0.0200325 0.0784598 0.0669475
2270 4 0.085097 0.0265066 0.0588986
2269 2 0.100996 0.0181903 0.0414853
702 4 0.117624 0.00887376 0.0823913
2271 4 0.116896 0.00987388 0.0240719
484 2 0.185998 0.0111831 0.0465031
485 4 0.189629 0.0297245 0.0628803
1607 4 0.442398 0.0827656 0.0135487
745 2 0.453102 0.0825353 0.0535256
1606 2 0.431647 0.0840017 0.991008
655 2 0.0290756 0.148753 0.037052
656 4 0.0364137 0.124954 0.0392791
2624 4 0.024562 0.11259 0.0306797
2623 2 0.0222973 0.0955246 0.0488136
705 4 0.0788504 0.167811 0.0781372
2759 4 0.0847336 0.148585 0.0750759
553 2 0.118481 0.146329 0.00735937
554 4 0.106614 0.125629 0.999887
465 4 0.0890605 0.119662 0.0027726
555 4 0.130348 0.167029 0.0148322
463 2 0.0905133 0.0968244 0.992698
355 2 0.234126 0.11869 0.0400459
356 4 0.217008 0.10989 0.0560062
357 4 0.251244 0.127489 0.0240857
573 4 0.243021 0.123206 0.00631117
746 4 0.441328 0.0758833 0.0324946
657 4 0.0217374 0.172551 0.0348249
738 4 0.0357191 0.186006 0.023718
736 2 0.0560914 0.200267 0.0263227
737 4 0.0764638 0.214527 0.0289274
837 4 0.126379 0.186209 0.0111948
835 2 0.111191 0.203275 0.0213555
836 4 0.0960023 0.220341 0.0315161
455 4 0.172777 0.248588 0.0606936
703 2 0.0965904 0.185405 0.0790926
294 4 0.167054 0.204194 0.0173799
454 2 0.166538 0.235275 0.0404693
456 4 0.160299 0.221962 0.0202451
292 2 0.171242 0.189384 0.997674
296 4 0.285926 0.234847 0.0227588
295 2 0.289458 0.210684 0.0173874
902 4 0.277805 0.238274 0.00524565
297 4 0.292989 0.186521 0.012016
518 4 0.368159 0.236948 0.0765856
2806 2 0.0478186 0.300588 0.0171564
2807 4 0.0598556 0.311162 0.036352
475 2 0.0743648 0.296058 0.076043
477 4 0.0696475 0.307891 0.0545278
252 4 0.146072 0.312077 0.088666
287 4 0.180078 0.265726 0.0544836
286 2 0.169575 0.286256 0.064148
288 4 0.159072 0.306785 0.0738124
526 2 0.395572 0.262213 0.0526751
528 4 0.382499 0.247469 0.0680669
527 4 0.408644 0.276957 0.0372834
2840 4 0.423763 0.286786 0.0265281
2839 2 0.437067 0.306835 0.0197302
2841 4 0.450371 0.326885 0.0129323
2514 4 0.0203224 0.354144 0.0537684
2513 4 0.0536939 0.38885 0.0402591
2512 2 0.0370082 0.371497 0.0470138
329 4 0.0671034 0.384281 0.0250912
328 2 0.0752168 0.407271 0.0306419
330 4 0.0833302 0.430261 0.0361926
493 2 0.223747 0.37825 0.0618677
494 4 0.208477 0.396173 0.0534526
495 4 0.239016 0.360328 0.0702829
525 4 0.205386 0.411926 0.0642343
1121 4 0.354492 0.33298 0.0266833
102 3 0.344167 0.333308 0.0090022
1120 2 0.353449 0.337883 0.0511794
13 3 0.358919 0.414293 0.0353179
1122 4 0.352407 0.342785 0.0756754
672 4 0.456774 0.345554 0.0150852
670 2 0.466639 0.367853 0.0206181
671 4 0.476503 0.390152 0.0261511
323 4 0.494326 0.399752 0.0243172
322 2 0.4992 0.419642 0.00997165
2618 4 0.0340589 0.478604 0.0774452
1709 4 0.0401551 0.486197 0.059009
552 4 0.0887072 0.43516 0.0174603
551 4 0.100563 0.47641 0.991796
550 2 0.0946351 0.455785 0.00462828
1103 4 0.119098 0.479963 0.997743
2444 4 0.233633 0.440687 0.99977
243 4 0.241237 0.445559 0.0188124
2443 2 0.215372 0.456467 0.00630633
2336 4 0.193307 0.489755 0.00486367
2445 4 0.197112 0.472246 0.0128429
242 4 0.276831 0.413956 0.0341431
241 2 0.259034 0.429757 0.0264777
11 1 0.362227 0.432484 0.0493378
15 3 0.353197 0.451207 0.0400351
12 3 0.384829 0.435616 0.0522492
596 4 0.388748 0.447299 0.0687111
595 2 0.409482 0.458223 0.0774272
14 3 0.352492 0.428429 0.0700065
1422 4 0.0424296 0.013799 0.137313
381 4 0.0502685 0.0247184 0.152939
379 2 0.0391339 0.0463723 0.158623
700 2 0.112725 0.0186297 0.104886
701 4 0.107826 0.0283857 0.12738
566 4 0.118723 0.0221802 0.14335
565 2 0.14091 0.0303374 0.151497
450 4 0.183493 0.0892685 0.137575
448 2 0.198293 0.0812972 0.119066
449 4 0.213093 0.0733259 0.100557
237 4 0.173396 0.0943004 0.153837
1505 4 0.336751 0.0823551 0.152855
692 4 0.329884 0.0733902 0.137043
254 4 0.415384 0.0399343 0.0988066
253 2 0.409709 0.0542495 0.118505
255 4 0.404034 0.0685647 0.138204
747 4 0.464876 0.0891873 0.0745566
2469 4 0.44083 0.0261647 0.13069
557 4 0.42665 0.0143502 0.123847
23 3 0.467894 0.0611227 0.109846
2467 2 0.459772 0.0362072 0.143556
2468 4 0.478713 0.0462496 0.156422
21 1 0.470295 0.084001 0.112883
25 3 0.472261 0.0943556 0.0926949
556 2 0.409464 0.996194 0.123432
2758 2 0.0661395 0.13576 0.0857975
2760 4 0.0475454 0.122934 0.096519
577 2 0.11958 0.144117 0.155277
236 4 0.126199 0.10249 0.168193
579 4 0.129188 0.121486 0.159827
235 2 0.149798 0.0983951 0.161015
722 4 0.226018 0.0891348 0.0978395
721 2 0.25032 0.0923581 0.102761
915 4 0.199265 0.125288 0.12552
913 2 0.198108 0.149678 0.120137
723 4 0.274622 0.0955813 0.107683
693 4 0.287252 0.0956251 0.123302
691 2 0.308568 0.0845077 0.130173
1504 2 0.361177 0.078154 0.149556
1506 4 0.385603 0.0739529 0.146256
22 3 0.489273 0.0879057 0.125281
24 3 0.451973 0.0924345 0.124355
2894 4 0.509935 0.0870337 0.121323
578 4 0.109972 0.166748 0.150726
507 4 0.105363 0.183047 0.160717
462 4 0.118327 0.211482 0.0968218
704 4 0.11433 0.203 0.080048
460 2 0.115871 0.229426 0.11406
461 4 0.113414 0.24737 0.131299
914 4 0.196951 0.174068 0.114754
581 4 0.190004 0.185146 0.0990426
580 2 0.206519 0.201594 0.0899941
582 4 0.223035 0.218042 0.0809455
278 4 0.243345 0.221972 0.085918
277 2 0.251734 0.22781 0.108737
279 4 0.260122 0.233649 0.131557
732 4 0.256057 0.249613 0.142882
519 4 0.337109 0.250522 0.113361
517 2 0.352634 0.243735 0.0949731
2875 2 0.477764 0.209986 0.13884
2877 4 0.491529 0.189649 0.143538
2876 4 0.463999 0.230324 0.134141
378 4 0.445689 0.237281 0.136006
756 4 0.0384361 0.292392 0.145724
396 4 0.0439271 0.277794 0.157879
754 2 0.0576758 0.294452 0.129888
755 4 0.0769156 0.296513 0.114053
623 4 0.0950105 0.252037 0.13746
476 4 0.0790822 0.284225 0.0975582
622 2 0.0957256 0.25844 0.16162
250 2 0.126692 0.327352 0.0926996
309 4 0.337147 0.262917 0.130372
307 2 0.340776 0.272152 0.153323
377 4 0.416602 0.268946 0.16154
376 2 0.431146 0.253113 0.148773
2093 4 0.0535499 0.399132 0.132137
2092 2 0.0761725 0.390862 0.138846
251 4 0.107312 0.342627 0.0967333
2094 4 0.0987951 0.382592 0.145555
362 4 0.107524 0.388049 0.162721
969 4 0.233571 0.364039 0.0909747
967 2 0.238114 0.363234 0.115549
968 4 0.242656 0.362429 0.140123
612 4 0.246963 0.362629 0.160462
1070 4 0.396768 0.349782 0.129502
1071 4 0.363442 0.342121 0.0930129
2652 4 0.402104 0.342959 0.147414
1069 2 0.380105 0.345951 0.111257
740 4 0.351576 0.399368 0.133078
608 4 0.342401 0.409363 0.148341
2650 2 0.425035 0.34987 0.154598
2617 2 0.0182614 0.491322 0.0920698
523 2 0.209558 0.432527 0.0777752
524 4 0.21373 0.453129 0.091316
768 4 0.218391 0.463044 0.10783
766 2 0.232037 0.467121 0.128382
626 4 0.248957 0.483985 0.164436
767 4 0.245682 0.471197 0.148933
739 2 0.350338 0.410015 0.110489
741 4 0.349099 0.420663 0.0878996
597 4 0.430215 0.469146 0.0861433
659 4 0.436169 0.481351 0.102504
658 2 0.4602 0.488006 0.104347
660 4 0.484231 0.494661 0.10619
3704 4 0.501328 0.501807 0.0995215
233 4 0.0132121 0.0644021 0.177163
380 4 0.0279994 0.0680262 0.164307
567 4 0.163097 0.0384946 0.159644
398 4 0.0939177 0.0339567 0.235222
1478 4 0.106102 0.0196016 0.229597
743 4 0.403712 0.0251945 0.196599
742 2 0.41112 0.0459323 0.208442
771 4 0.476236 0.0538714 0.175593
1748 4 0.42211 0.0189752 0.190126
744 4 0.418528 0.0666701 0.220284
1747 2 0.425702 0.994246 0.189262
769 2 0.482697 0.0743633 0.18838
432 4 0.433093 0.0745291 0.232073
232 2 0.00169152 0.0843566 0.186873
30 3 0.274115 0.167843 0.238596
758 4 0.415438 0.140783 0.168702
759 4 0.454278 0.109303 0.167634
757 2 0.434858 0.125043 0.168168
2703 4 0.476406 0.111492 0.202445
2701 2 0.491157 0.129699 0.211167
770 4 0.489158 0.0948553 0.201167
2702 4 0.505909 0.147906 0.219889
2484 4 0.0417572 0.185548 0.226518
2482 2 0.0307434 0.174841 0.246247
530 4 0.0999652 0.222901 0.213904
506 4 0.0947634 0.21712 0.195751
529 2 0.0941121 0.226412 0.237958
505 2 0.100063 0.200083 0.178234
285 4 0.152695 0.254988 0.217127
545 4 0.156258 0.236091 0.221496
544 2 0.179895 0.227937 0.221645
546 4 0.203531 0.219783 0.221794
350 4 0.223194 0.227455 0.221716
349 2 0.242492 0.222968 0.236967
730 2 0.273554 0.24235 0.159199
27 3 0.266407 0.172403 0.202365
26 1 0.278473 0.180523 0.220187
29 3 0.272226 0.202529 0.224072
731 4 0.291052 0.235086 0.175516
606 4 0.308074 0.240518 0.185459
604 2 0.309494 0.217663 0.195501
605 4 0.310913 0.194809 0.205543
28 3 0.301074 0.179495 0.215035
351 4 0.261791 0.218482 0.252219
764 4 0.289987 0.21506 0.245223
332 4 0.388867 0.216315 0.222091
331 2 0.406365 0.208961 0.238366
630 4 0.391603 0.230404 0.208457
333 4 0.423864 0.201606 0.254642
395 4 0.0468489 0.255005 0.202296
394 2 0.045388 0.266399 0.180087
298 2 0.0548799 0.281691 0.231799
299 4 0.0501224 0.259255 0.22184
2694 4 0.0620954 0.319472 0.229933
283 2 0.128893 0.257502 0.209894
284 4 0.10509 0.260016 0.202661
624 4 0.0964407 0.264842 0.185779
611 4 0.27778 0.325512 0.173627
645 4 0.313806 0.323288 0.241732
343 2 0.298093 0.317934 0.204838
345 4 0.279698 0.312857 0.188682
344 4 0.316488 0.323012 0.220995
628 2 0.398013 0.2477 0.191577
308 4 0.344405 0.281387 0.176273
498 4 0.365384 0.283689 0.179723
629 4 0.404422 0.264997 0.174697
496 2 0.35847 0.301666 0.195666
497 4 0.351557 0.319644 0.21161
275 4 0.352388 0.323886 0.231775
2692 2 0.0656179 0.34419 0.228604
2693 4 0.0691404 0.368909 0.227275
535 2 0.0485002 0.405058 0.216512
537 4 0.0654267 0.386815 0.218937
361 2 0.125597 0.396124 0.177996
363 4 0.143671 0.404198 0.193272
417 4 0.153026 0.387569 0.187196
415 2 0.168301 0.378036 0.204545
416 4 0.183576 0.368502 0.221893
735 4 0.199032 0.367903 0.23345
610 2 0.262372 0.34407 0.167045
2651 4 0.447965 0.356781 0.161782
2538 4 0.444571 0.357321 0.180757
2536 2 0.441339 0.35827 0.205532
2537 4 0.438106 0.359219 0.230308
714 4 0.428552 0.368937 0.245976
413 4 0.0323415 0.441091 0.204916
536 4 0.0315737 0.4233 0.214087
412 2 0.00880584 0.449513 0.205484
1774 2 0.064075 0.466255 0.224548
1776 4 0.0501658 0.482435 0.237584
1385 4 0.042355 0.495487 0.250918
1775 4 0.0779842 0.450075 0.211512
1788 4 0.141816 0.482246 0.243736
338 4 0.138942 0.474473 0.226671
337 2 0.144853 0.450667 0.231522
339 4 0.150764 0.426862 0.236374
625 2 0.232996 0.499437 0.175909
246 4 0.325736 0.466416 0.180762
244 2 0.331659 0.479525 0.201213
609 4 0.325457 0.446966 0.176618
1716 4 0.373662 0.485031 0.210515
607 2 0.333929 0.428165 0.162479
245 4 0.337581 0.492634 0.221664
1714 2 0.386297 0.502124 0.223681
107 3 0.486846 0.428343 0.229923
397 2 0.0761141 0.0276683 0.251614
318 4 0.0385965 0.0279249 0.264471
399 4 0.0583106 0.0213798 0.268005
316 2 0.0138024 0.0306047 0.266273
2850 4 0.182138 0.0122186 0.263199
2848 2 0.17836 0.0354786 0.25484
2849 4 0.174582 0.0587387 0.246481
393 4 0.183323 0.0764001 0.243683
249 4 0.305137 0.0160859 0.324154
430 2 0.448398 0.0689904 0.251054
431 4 0.463703 0.0634516 0.270035
1496 4 0.461099 0.0528416 0.286317
1495 2 0.477424 0.0341372 0.283348
512 4 0.041151 0.0949105 0.242855
513 4 0.0417701 0.0681812 0.285115
511 2 0.0414605 0.0815459 0.263985
2483 4 0.0197296 0.164135 0.265977
2831 4 0.0208171 0.176808 0.282479
1270 2 0.151789 0.114691 0.295703
1271 4 0.143137 0.120766 0.318362
1272 4 0.160441 0.108615 0.273045
391 2 0.198176 0.0878389 0.260228
392 4 0.213028 0.0992778 0.276773
404 4 0.217629 0.112005 0.29198
403 2 0.209605 0.110961 0.315638
699 4 0.511722 0.105196 0.292006
522 4 0.494692 0.11553 0.288247
521 4 0.491747 0.165449 0.288603
520 2 0.49322 0.140489 0.288425
2832 4 0.998486 0.196726 0.322545
2830 2 0.00965146 0.186767 0.302512
469 2 0.0898934 0.169129 0.337075
531 4 0.088259 0.229922 0.262012
458 4 0.112494 0.203527 0.321326
459 4 0.0984787 0.228307 0.280214
457 2 0.105486 0.215917 0.30077
471 4 0.101823 0.189482 0.32879
389 4 0.177164 0.223657 0.286039
388 2 0.190975 0.210673 0.302343
390 4 0.204787 0.197688 0.318647
750 4 0.185653 0.238766 0.276569
515 4 0.307419 0.194059 0.314492
2910 4 0.316275 0.179231 0.324292
514 2 0.287967 0.192494 0.298861
516 4 0.268514 0.190928 0.28323
763 2 0.293443 0.232249 0.263049
633 4 0.482655 0.172278 0.270321
632 4 0.441007 0.19955 0.265591
631 2 0.461831 0.185914 0.267956
300 4 0.0596374 0.304126 0.241759
618 4 0.159583 0.301745 0.278839
616 2 0.143245 0.315547 0.291791
749 4 0.170278 0.285875 0.283282
748 2 0.177965 0.26232 0.279926
765 4 0.296898 0.249438 0.280875
510 4 0.310723 0.260579 0.291318
508 2 0.325714 0.274578 0.305619
643 2 0.298635 0.333577 0.258737
509 4 0.340704 0.288576 0.319919
614 4 0.378273 0.323416 0.295883
274 2 0.360503 0.327031 0.255215
617 4 0.126907 0.329349 0.304743
2654 4 0.133683 0.348017 0.308848
2653 2 0.141344 0.371665 0.311537
2655 4 0.149005 0.395314 0.314227
728 4 0.150326 0.413102 0.306106
727 2 0.151211 0.419431 0.281933
365 4 0.207318 0.348266 0.29225
734 4 0.209256 0.340334 0.273899
733 2 0.204144 0.354119 0.253674
364 2 0.203396 0.343303 0.316441
644 4 0.283463 0.343865 0.275741
435 4 0.292565 0.345509 0.293946
433 2 0.288593 0.3631 0.311265
434 4 0.28462 0.380692 0.328584
712 2 0.41509 0.381941 0.262556
713 4 0.401629 0.394944 0.279136
615 4 0.397358 0.359494 0.324777
276 4 0.368618 0.330176 0.278655
613 2 0.387815 0.341455 0.31033
2862 4 0.384185 0.405207 0.278389
2924 4 0.411664 0.350872 0.333148
729 4 0.152096 0.425761 0.25776
3671 4 0.160374 0.475512 0.32127
1383 4 0.146278 0.47128 0.307642
1381 2 0.121745 0.466611 0.308861
1382 4 0.0972109 0.461943 0.310079
676 2 0.239145 0.471131 0.303402
3670 2 0.185163 0.477792 0.323608
677 4 0.223585 0.465035 0.322001
678 4 0.254705 0.477226 0.284804
1575 4 0.319505 0.475357 0.295775
1574 4 0.269942 0.468749 0.295037
1573 2 0.294724 0.472053 0.295406
386 4 0.3229 0.488358 0.280599
385 2 0.335307 0.49287 0.259365
1471 2 0.402192 0.48023 0.271019
2860 2 0.383238 0.430142 0.279972
2861 4 0.38229 0.455078 0.281554
1473 4 0.396416 0.465732 0.290555
248 4 0.290856 0.0608635 0.341234
247 2 0.297996 0.0384747 0.332694
1700 4 0.295128 0.00126378 0.333184
2643 4 0.355956 0.036886 0.400825
2641 2 0.337317 0.052385 0.406951
1517 4 0.403719 0.0138211 0.395318
2878 2 0.402395 0.0557583 0.403868
2879 4 0.405994 0.080236 0.400253
687 4 0.0116844 0.141992 0.388622
2717 4 0.0604188 0.156417 0.345794
2718 4 0.0291225 0.140787 0.381528
2716 2 0.0447707 0.148602 0.363661
470 4 0.0779641 0.148776 0.34536
1220 4 0.15524 0.108097 0.328878
937 2 0.105888 0.1205 0.403607
1221 4 0.130757 0.104535 0.372337
1219 2 0.142998 0.106316 0.350607
939 4 0.114813 0.111285 0.382145
473 4 0.142807 0.125626 0.405654
405 4 0.201581 0.109917 0.339296
650 4 0.204018 0.107182 0.417665
649 2 0.224562 0.121427 0.418129
2908 2 0.313874 0.156635 0.334726
651 4 0.245106 0.135672 0.418592
2909 4 0.311474 0.134039 0.345159
2657 4 0.332622 0.134237 0.350337
2656 2 0.353953 0.121879 0.34616
2658 4 0.375284 0.109522 0.341983
760 2 0.405758 0.099385 0.364929
761 4 0.395196 0.111964 0.346078
762 4 0.41632 0.0868058 0.383781
2611 2 0.0531993 0.244587 0.393831
2613 4 0.0642192 0.224348 0.38413
341 4 0.0759274 0.212254 0.374726
342 4 0.125561 0.211032 0.380704
340 2 0.100744 0.211643 0.377715
824 4 0.127094 0.208083 0.401938
707 4 0.258738 0.240775 0.417787
706 2 0.279661 0.236242 0.404868
708 4 0.300583 0.231708 0.39195
717 4 0.312202 0.246898 0.385489
715 2 0.335087 0.252861 0.393606
716 4 0.357972 0.258824 0.401723
451 2 0.488912 0.220034 0.407458
265 2 0.433758 0.205763 0.420372
266 4 0.452146 0.197159 0.405775
453 4 0.468792 0.20674 0.40085
2612 4 0.0421793 0.264827 0.403532
2847 4 0.0420938 0.285095 0.403511
2845 2 0.0635961 0.29745 0.406703
668 4 0.195678 0.296316 0.425542
488 4 0.370371 0.248824 0.412048
1640 4 0.079011 0.396579 0.33744
444 4 0.0955348 0.344786 0.379546
442 2 0.109701 0.346756 0.400055
366 4 0.199475 0.33834 0.340631
374 4 0.218141 0.387938 0.336103
373 2 0.24178 0.384269 0.328829
602 4 0.177206 0.391484 0.37213
601 2 0.173593 0.41369 0.38304
375 4 0.265419 0.3806 0.321555
583 2 0.411329 0.421363 0.410362
116 1 0.443141 0.371161 0.409321
2923 2 0.425774 0.351517 0.353779
2925 4 0.439884 0.352161 0.374411
117 3 0.432939 0.359982 0.391998
119 3 0.432815 0.391757 0.412071
118 3 0.465558 0.374167 0.40414
585 4 0.4128 0.396783 0.4147
2138 4 0.070008 0.486431 0.388224
569 4 0.0696864 0.502342 0.40095
1639 2 0.0908359 0.415173 0.349256
2137 2 0.0817942 0.465546 0.381147
2139 4 0.0935804 0.444661 0.374071
1641 4 0.102661 0.433767 0.361072
603 4 0.16998 0.435896 0.393951
3672 4 0.209953 0.480073 0.325945
2108 4 0.265928 0.462921 0.379127
594 4 0.259309 0.46778 0.396194
592 2 0.25009 0.490697 0.400067
752 4 0.302259 0.487856 0.340297
2109 4 0.293882 0.470265 0.338319
2107 2 0.279905 0.466593 0.358723
584 4 0.409858 0.445944 0.406024
3974 4 0.492655 0.482942 0.384219
541 2 0.454829 0.499597 0.376153
543 4 0.433723 0.506588 0.364714
1151 4 0.230634 0.00121589 0.507737
1182 4 0.242302 0.0120281 0.494876
725 4 0.255549 0.0661418 0.483562
1180 2 0.240639 0.0348229 0.484737
479 4 0.292506 0.0733102 0.472001
2642 4 0.318678 0.067884 0.413078
1181 4 0.238976 0.0576178 0.474597
480 4 0.304123 0.0603485 0.425121
478 2 0.298314 0.0668294 0.448561
2880 4 0.398797 0.0312806 0.407483
600 4 0.348279 0.0147503 0.473825
684 4 0.362264 0.0254342 0.459401
682 2 0.385667 0.0219603 0.467487
683 4 0.409071 0.0184865 0.475573
843 4 0.423778 0.00467647 0.478315
983 4 0.046668 0.118179 0.479728
1033 2 0.0714645 0.123887 0.452256
1035 4 0.0647945 0.113122 0.473815
982 2 0.0284719 0.112818 0.496017
938 4 0.0969638 0.129715 0.425069
1034 4 0.0781345 0.134653 0.430697
472 2 0.164346 0.117702 0.415575
474 4 0.185886 0.109777 0.425496
724 2 0.260634 0.085412 0.498661
857 4 0.25199 0.134635 0.437395
856 2 0.264846 0.137036 0.458706
858 4 0.277702 0.139437 0.480016
320 4 0.289382 0.156119 0.474942
1031 4 0.397167 0.111516 0.457971
1030 2 0.37229 0.11348 0.459537
1032 4 0.347413 0.115445 0.461104
2502 4 0.412857 0.119407 0.447433
2517 4 0.490025 0.0956368 0.456082
2500 2 0.426297 0.139778 0.441996
823 2 0.142449 0.216598 0.419739
367 2 0.163874 0.220894 0.471395
825 4 0.157804 0.225114 0.437541
368 4 0.15596 0.224774 0.494794
369 4 0.171788 0.217013 0.447997
402 4 0.197368 0.187721 0.455648
400 2 0.216277 0.202937 0.461656
401 4 0.235186 0.218153 0.467665
371 4 0.247124 0.221228 0.453307
370 2 0.258759 0.242714 0.458613
319 2 0.303344 0.173154 0.486777
321 4 0.317307 0.190188 0.498612
640 2 0.327009 0.223367 0.501747
642 4 0.334605 0.199546 0.501743
487 2 0.39169 0.241585 0.422924
489 4 0.413008 0.234346 0.4338
267 4 0.415371 0.214367 0.434968
2501 4 0.439738 0.160149 0.43656
2846 4 0.0850984 0.309805 0.409894
260 4 0.0972706 0.305265 0.42705
259 2 0.104922 0.29172 0.446624
261 4 0.112574 0.278175 0.466199
695 4 0.122405 0.279787 0.483926
694 2 0.135301 0.2607 0.49365
667 2 0.220098 0.291062 0.424439
669 4 0.244519 0.285809 0.423336
635 4 0.195972 0.312377 0.438577
634 2 0.174377 0.321355 0.429735
1393 2 0.246437 0.33866 0.488938
1395 4 0.228926 0.351812 0.476874
1394 4 0.263949 0.325509 0.501003
873 4 0.252332 0.288465 0.441942
372 4 0.270393 0.2642 0.463919
871 2 0.274841 0.294771 0.450817
872 4 0.297349 0.301078 0.459693
813 4 0.3164 0.295017 0.45406
811 2 0.322029 0.278122 0.471611
812 4 0.327658 0.261226 0.489162
1190 4 0.26548 0.306103 0.507246
935 4 0.989555 0.388024 0.480664
934 2 0.996843 0.411243 0.474922
384 4 0.00120424 0.37249 0.472663
636 4 0.152781 0.330332 0.420892
443 4 0.123867 0.348726 0.420564
710 4 0.178115 0.405631 0.453469
772 2 0.199981 0.369318 0.461292
773 4 0.184056 0.388569 0.462285
774 4 0.215906 0.350068 0.460299
120 3 0.441154 0.358865 0.428387
548 4 0.0008119 0.447662 0.403682
1040 4 0.0135513 0.439375 0.487127
2243 4 0.171813 0.456208 0.504301
2242 2 0.170317 0.479432 0.49516
1173 4 0.252427 0.447012 0.508616
711 4 0.184347 0.453161 0.43923
326 4 0.225543 0.489648 0.460435
325 2 0.233853 0.475953 0.479633
327 4 0.242163 0.462258 0.498832
709 2 0.181231 0.429396 0.446349
446 4 0.413951 0.49805 0.442354
239 4 0.438355 0.436427 0.47515
238 2 0.453171 0.447626 0.491891
1184 4 0.025401 0.0690126 0.564631
3157 2 0.319216 0.0707322 0.521835
3159 4 0.306321 0.0504098 0.51506
599 4 0.321608 0.0417203 0.506413
2240 4 0.31237 0.0211573 0.556466
576 4 0.387732 0.0911998 0.551614
1142 4 0.37611 0.0968943 0.567241
88 3 0.40192 0.0182183 0.568473
598 2 0.334944 0.0282353 0.490119
89 3 0.418328 0.00914619 0.535414
842 4 0.430336 0.0220913 0.524731
1061 4 0.441722 0.0332182 0.539745
841 2 0.427057 0.0133839 0.501523
1060 2 0.464388 0.0412806 0.532929
86 1 0.422067 0.0138307 0.557831
87 3 0.435511 0.0324305 0.559399
1062 4 0.487053 0.0493429 0.526113
1183 2 0.0215819 0.0870396 0.547731
984 4 0.0102757 0.107456 0.512306
1185 4 0.0177627 0.105067 0.530831
3158 4 0.332111 0.0910545 0.52861
726 4 0.265719 0.104682 0.51376
1141 2 0.390166 0.0935828 0.587653
575 4 0.349903 0.0939813 0.519027
574 2 0.368818 0.0925905 0.535321
269 4 0.454597 0.169913 0.537476
3462 4 0.0717101 0.232411 0.57208
7 3 0.157041 0.220802 0.548088
6 1 0.162604 0.228005 0.526962
9 3 0.156298 0.211793 0.511606
8 3 0.185544 0.231352 0.525976
348 4 0.201089 0.242066 0.530767
346 2 0.22573 0.244118 0.534479
347 4 0.250372 0.246169 0.538192
641 4 0.319413 0.247189 0.501751
268 2 0.462705 0.187355 0.521501
3309 4 0.478407 0.202297 0.488381
270 4 0.470814 0.204796 0.505526
3043 2 0.0359007 0.296569 0.546316
3044 4 0.0553286 0.294154 0.56187
3461 4 0.0546826 0.279228 0.576437
3460 2 0.0631964 0.255819 0.574259
3045 4 0.0164728 0.298984 0.530763
696 4 0.148197 0.241613 0.503374
10 3 0.151709 0.247517 0.522578
1189 2 0.258772 0.284815 0.518517
1191 4 0.252063 0.263528 0.529787
410 4 0.243498 0.291747 0.56029
409 2 0.256401 0.276171 0.574989
1239 4 0.332465 0.407405 0.578472
1041 4 0.0449378 0.455992 0.522333
1136 4 0.0582455 0.460078 0.537278
1039 2 0.0292446 0.447683 0.50473
1135 2 0.0768366 0.443383 0.538192
1137 4 0.0954277 0.426689 0.539106
540 4 0.111259 0.435331 0.530543
538 2 0.132907 0.445235 0.522895
539 4 0.154554 0.455138 0.515248
1171 2 0.272785 0.452235 0.52216
1028 4 0.312153 0.459551 0.54196
1172 4 0.293143 0.457459 0.535705
1027 2 0.315493 0.437502 0.553269
1029 4 0.318834 0.415454 0.564578
1951 2 0.35753 0.499934 0.576923
240 4 0.467987 0.458825 0.508631
1978 2 0.502965 0.456849 0.525749
1980 4 0.487466 0.453643 0.506393
3178 2 0.00524966 0.080189 0.626709
943 2 0.156105 0.0724422 0.623786
944 4 0.148757 0.0907027 0.608367
945 4 0.163454 0.0541816 0.639204
2255 4 0.177685 0.047645 0.651886
1130 4 0.292695 0.0552635 0.591773
1129 2 0.291858 0.0664335 0.614128
1131 4 0.291021 0.0776035 0.636482
1003 2 0.350641 0.00857388 0.636108
1004 4 0.348873 0.0154791 0.612142
2239 2 0.326539 0.0156224 0.57631
3078 4 0.0184622 0.11921 0.634965
3180 4 0.0200495 0.098882 0.63424
946 2 0.141555 0.119197 0.664924
948 4 0.165807 0.122166 0.659615
916 2 0.175987 0.124781 0.619
917 4 0.158856 0.107333 0.613778
918 4 0.193117 0.14223 0.624223
1212 4 0.180055 0.152907 0.634477
1284 4 0.168951 0.13951 0.671787
2318 4 0.297424 0.0781275 0.656417
2317 2 0.299023 0.100171 0.668109
886 2 0.404513 0.0783662 0.642857
1143 4 0.404222 0.0902714 0.608065
887 4 0.407213 0.0728048 0.618629
888 4 0.401814 0.0839277 0.667084
1011 4 0.485094 0.165074 0.657176
1211 4 0.16973 0.201833 0.63508
1153 2 0.241563 0.177376 0.661744
1154 4 0.25769 0.191001 0.648347
1210 2 0.174893 0.17737 0.634779
1259 4 0.16593 0.216066 0.648171
1258 2 0.17584 0.222374 0.670243
898 2 0.304604 0.174427 0.599941
900 4 0.287792 0.191336 0.592417
978 4 0.303221 0.235416 0.653228
976 2 0.303078 0.217259 0.670418
899 4 0.321416 0.157517 0.607465
906 4 0.488334 0.178467 0.64139
904 2 0.49292 0.193739 0.622131
897 4 0.184375 0.341927 0.625227
1086 4 0.28495 0.237163 0.646327
1084 2 0.284456 0.248762 0.624182
1085 4 0.283963 0.260361 0.602038
411 4 0.269305 0.260596 0.589689
790 2 0.395988 0.263527 0.666888
806 4 0.39603 0.324012 0.623287
805 2 0.408132 0.302637 0.627953
807 4 0.420235 0.281261 0.63262
791 4 0.408102 0.274108 0.647744
803 4 0.379201 0.327773 0.612322
3419 4 0.0069581 0.332904 0.66109
3418 2 0.0247621 0.347831 0.651848
3420 4 0.042566 0.362757 0.642607
1281 4 0.0601354 0.371743 0.637691
1279 2 0.0584056 0.39286 0.650967
895 2 0.180809 0.343824 0.649902
1237 2 0.353274 0.397753 0.588422
1238 4 0.374083 0.388101 0.598372
802 2 0.38228 0.352569 0.611402
804 4 0.385359 0.377365 0.610483
2171 4 0.125569 0.486999 0.594257
1982 4 0.111278 0.491298 0.60817
1981 2 0.107154 0.494756 0.632588
1983 4 0.10303 0.498214 0.657005
2170 2 0.138439 0.501346 0.57833
890 4 0.308279 0.451177 0.673159
1952 4 0.33271 0.496951 0.577414
889 2 0.331646 0.457568 0.666966
891 4 0.355012 0.46396 0.660773
3323 4 0.395524 0.491338 0.643976
3371 4 0.396359 0.479734 0.6278
3370 2 0.418216 0.467996 0.630914
3322 2 0.382161 0.493927 0.66495
1006 2 0.447405 0.431404 0.656298
1007 4 0.440511 0.436602 0.632832
3372 4 0.440072 0.456258 0.634027
3589 2 0.15266 0.0154233 0.717737
3591 4 0.129712 0.0180705 0.727306
3590 4 0.175608 0.0127762 0.708168
2254 2 0.189592 0.0533086 0.673131
2256 4 0.201498 0.0589721 0.694376
960 4 0.220753 0.0526468 0.695712
958 2 0.233193 0.0435733 0.715412
959 4 0.245633 0.0344999 0.735112
965 4 0.318036 0.0125037 0.719448
1257 4 0.314951 0.0287047 0.731315
1255 2 0.290607 0.0335022 0.734405
964 2 0.327047 0.00884708 0.696413
966 4 0.336058 0.00519043 0.673377
954 4 0.387023 0.0438304 0.705628
952 2 0.397676 0.0642108 0.695813
1026 4 0.377092 0.0442998 0.723554
953 4 0.408328 0.0845912 0.685997
1024 2 0.387213 0.0345802 0.744249
1178 4 0.0585475 0.120807 0.710698
852 4 0.0627157 0.102772 0.700966
1177 2 0.0489361 0.135652 0.728373
1179 4 0.0393247 0.150497 0.746049
850 2 0.0853576 0.101417 0.690445
947 4 0.117303 0.116227 0.670234
851 4 0.108 0.100061 0.679924
908 4 0.137587 0.114153 0.7622
1155 4 0.225437 0.163751 0.675141
1282 2 0.193624 0.142392 0.674633
1283 4 0.218298 0.145275 0.677479
2319 4 0.300622 0.122215 0.679801
950 4 0.288402 0.133377 0.692606
1192 2 0.473808 0.165379 0.739581
1009 2 0.485983 0.160005 0.681644
1010 4 0.486873 0.154937 0.706112
923 4 0.047734 0.168099 0.74449
922 2 0.0519053 0.192733 0.74546
1260 4 0.185749 0.228681 0.692316
949 2 0.295738 0.156769 0.687689
1299 4 0.236666 0.186848 0.741399
951 4 0.303075 0.180161 0.682772
977 4 0.302936 0.199102 0.687608
792 4 0.383873 0.252946 0.686031
1193 4 0.471808 0.163886 0.714702
152 3 0.0852753 0.289828 0.717026
151 1 0.0669293 0.300534 0.725856
154 3 0.069214 0.323372 0.722453
155 3 0.0481189 0.292975 0.715479
153 3 0.0658062 0.295984 0.748581
1067 4 0.0884191 0.32611 0.728518
1044 4 0.291638 0.333821 0.740546
1280 4 0.0566757 0.413977 0.664243
884 4 0.0440323 0.37401 0.739465
1068 4 0.111669 0.364888 0.707154
991 2 0.153414 0.35679 0.69904
993 4 0.129684 0.358049 0.706817
1066 2 0.100044 0.345499 0.717836
992 4 0.177144 0.355532 0.691263
896 4 0.177243 0.345721 0.674578
1276 2 0.237592 0.3974 0.686232
1278 4 0.222298 0.413347 0.674528
798 4 0.279419 0.336408 0.724039
1277 4 0.252885 0.381453 0.697935
797 4 0.272642 0.379229 0.699117
796 2 0.276031 0.357819 0.711578
1206 4 0.307859 0.416011 0.724935
3463 2 0.469452 0.397732 0.705983
999 4 0.48255 0.380955 0.738532
1008 4 0.4543 0.426207 0.679763
3465 4 0.472236 0.378 0.721086
3464 4 0.466668 0.417463 0.69088
894 4 0.999973 0.470255 0.649363
2130 4 0.103349 0.511005 0.671714
941 4 0.191492 0.470363 0.71967
1098 4 0.196264 0.467974 0.701471
1096 2 0.208764 0.44696 0.696241
1097 4 0.221264 0.425947 0.69101
940 2 0.17052 0.483972 0.720026
1139 4 0.304617 0.407713 0.742455
1205 4 0.301678 0.431949 0.67794
1204 2 0.304769 0.42398 0.701437
187 3 0.397625 0.482016 0.725689
186 1 0.392962 0.471363 0.745536
188 3 0.37218 0.461177 0.74388
189 3 0.409319 0.45539 0.749499
3011 4 0.485132 0.444163 0.749055
832 2 0.0334435 0.0625553 0.779061
834 4 0.0542783 0.0498986 0.773503
833 4 0.0126087 0.0752121 0.78462
1214 4 0.080954 0.0252261 0.828305
1213 2 0.0929879 0.0368814 0.809744
1215 4 0.105022 0.0485367 0.791182
864 4 0.14799 0.0174322 0.763045
862 2 0.127749 0.0313633 0.767667
863 4 0.107507 0.0452945 0.77229
1256 4 0.266263 0.0382997 0.737494
1025 4 0.397334 0.0248605 0.764944
907 2 0.152216 0.126795 0.778054
32 3 0.1721 0.172355 0.831315
870 4 0.139515 0.0954519 0.842933
911 4 0.147692 0.0798306 0.833816
909 4 0.166846 0.139436 0.793907
1050 4 0.305263 0.150067 0.79049
1048 2 0.317042 0.134056 0.805658
1253 4 0.315724 0.103572 0.823585
3426 4 0.462361 0.136286 0.819899
45 3 0.478288 0.124966 0.821632
3424 2 0.470389 0.152134 0.802304
41 1 0.493688 0.109542 0.828233
42 3 0.482852 0.0915598 0.837635
1194 4 0.475808 0.166872 0.764459
3425 4 0.478417 0.167981 0.78471
924 4 0.0560766 0.217367 0.74643
779 4 0.0461015 0.230245 0.757523
1298 4 0.247137 0.232072 0.759996
838 2 0.239888 0.231208 0.804098
839 4 0.230839 0.232716 0.827358
1297 2 0.241901 0.20946 0.750697
840 4 0.248938 0.229701 0.780838
1023 4 0.250217 0.188747 0.817835
1022 4 0.274906 0.166296 0.780591
1091 4 0.318921 0.181584 0.795528
1021 2 0.262562 0.177522 0.799213
1090 2 0.31821 0.182211 0.770543
1092 4 0.317498 0.182838 0.745557
1052 4 0.414152 0.215181 0.820421
1051 2 0.435053 0.226861 0.827624
778 2 0.0521272 0.253903 0.752121
780 4 0.0581528 0.277561 0.746719
1064 4 0.214883 0.313995 0.835004
1208 4 0.199956 0.317425 0.819719
1207 2 0.193276 0.33093 0.799765
3329 4 0.306515 0.238629 0.785161
3328 2 0.2948 0.260706 0.785895
1042 2 0.292255 0.31594 0.758013
1043 4 0.292871 0.29806 0.775479
3330 4 0.283085 0.282783 0.78663
3346 2 0.362065 0.307019 0.814257
3348 4 0.363604 0.308896 0.789372
1166 4 0.479061 0.291737 0.795654
866 4 0.487196 0.275558 0.805674
1165 2 0.467587 0.310805 0.784255
865 2 0.472035 0.266601 0.823425
49 3 0.492391 0.290007 0.781038
1167 4 0.456114 0.329873 0.772856
885 4 0.0279235 0.37851 0.786592
883 2 0.0359779 0.37626 0.763029
815 4 0.0726629 0.42615 0.80885
989 4 0.166236 0.418688 0.813677
988 2 0.143458 0.420637 0.823803
1209 4 0.186596 0.344436 0.779811