ITEM: TIMESTEP
1030000
ITEM: NUMBER OF ATOMS
4590
ITEM: BOX BOUNDS pp pp pp
-9.9985700000000008e+00 9.9985700000000008e+00
-9.9985700000000008e+00 9.9985700000000008e+00
-9.9985700000000008e+00 9.9985700000000008e+00
ITEM: ATOMS id type xs ys zs
1667 4 0.0276306 0.0651771 0.0731105
3291 4 0.0184959 0.00317972 0.00613363
566 4 0.257245 0.0361633 0.0436918
484 2 0.266668 0.00289531 0.0708975
485 4 0.259054 0.0234757 0.0589118
1540 2 0.308439 0.014002 0.0176915
565 2 0.267795 0.0554575 0.0555919
1541 4 0.312748 0.0386183 0.0184982
567 4 0.278345 0.0747518 0.067492
491 4 0.332636 0.0853211 0.00706434
1760 4 0.428385 0.0142562 0.075567
1759 2 0.433253 0.0184258 0.051399
1761 4 0.438121 0.0225955 0.0272309
1109 4 0.442397 0.00844205 0.0138119
3233 4 0.00169111 0.10625 0.0111624
1248 4 0.0217623 0.113183 0.00889675
736 2 0.113697 0.130664 0.0794806
737 4 0.1313 0.146311 0.0710839
738 4 0.096094 0.115018 0.0878773
355 2 0.249625 0.107236 0.0608543
357 4 0.231887 0.124616 0.0637659
573 4 0.232679 0.135404 0.046805
571 2 0.219535 0.156005 0.0415134
356 4 0.267362 0.0898552 0.0579428
665 4 0.3391 0.141709 0.0497798
557 4 0.331279 0.0902949 0.0262748
558 4 0.347802 0.137296 0.0305822
556 2 0.33954 0.113796 0.0284285
2793 4 0.39279 0.145022 0.0648994
664 2 0.340331 0.155941 0.0703011
746 4 0.465267 0.0753887 0.0523386
1607 4 0.420447 0.116201 0.0216224
745 2 0.477766 0.0885531 0.0695335
1608 4 0.458632 0.090022 0.040524
1606 2 0.43954 0.103111 0.0310732
2640 4 0.496218 0.156559 0.0174961
2807 4 0.044875 0.222841 0.0596139
572 4 0.206391 0.176606 0.0362218
353 4 0.243665 0.226201 0.0324669
352 2 0.268053 0.226223 0.0269559
354 4 0.292442 0.226245 0.0214448
297 4 0.279939 0.195115 0.0550396
295 2 0.2771 0.180507 0.0751322
2893 2 0.499476 0.216874 0.075793
2806 2 0.0448644 0.246514 0.051565
2771 4 0.0361101 0.284381 0.0550873
2808 4 0.0448538 0.270186 0.043516
2770 2 0.0178367 0.300691 0.0500625
2772 4 0.999563 0.317001 0.0450376
287 4 0.132468 0.303758 0.0524103
455 4 0.124526 0.321408 0.0501791
286 2 0.152854 0.305881 0.0667312
454 2 0.123719 0.327331 0.0259006
288 4 0.173239 0.308004 0.0810521
252 4 0.180883 0.321831 0.0696197
250 2 0.203845 0.327042 0.0612056
329 4 0.0228703 0.385155 0.0537025
328 2 0.0457783 0.381013 0.0445783
330 4 0.0686862 0.376871 0.0354541
551 4 0.0760595 0.392359 0.0444935
550 2 0.0984666 0.402131 0.0497483
552 4 0.120874 0.411902 0.0550032
251 4 0.226806 0.332252 0.0527914
483 4 0.24447 0.342461 0.0573943
481 2 0.250127 0.353464 0.035666
902 4 0.275122 0.367577 0.00971912
482 4 0.255783 0.364467 0.0139377
1070 4 0.350421 0.335891 0.0171987
1071 4 0.360589 0.346595 0.0649769
1069 2 0.355505 0.341243 0.0410878
323 4 0.413748 0.371839 0.0705923
322 2 0.392295 0.360316 0.076266
493 2 0.369515 0.416305 0.00868508
324 4 0.370843 0.348793 0.0819397
670 2 0.438101 0.390823 0.0493508
672 4 0.447422 0.412418 0.040869
671 4 0.42878 0.369228 0.0578326
315 4 0.0320629 0.499373 0.0583246
494 4 0.361888 0.427342 0.0297848
525 4 0.346506 0.427411 0.0438949
523 2 0.346089 0.439324 0.0658742
1673 4 0.471103 0.493542 0.0960018
1666 2 0.0435474 0.0478189 0.0815084
1668 4 0.0594643 0.0304607 0.0899063
381 4 0.0266917 0.030093 0.15632
379 2 0.0140556 0.041254 0.137856
702 4 0.0750961 0.0403428 0.0829045
700 2 0.092079 0.0240787 0.091404
701 4 0.109062 0.00781462 0.0999034
450 4 0.126077 0.016983 0.105746
448 2 0.146956 0.0306751 0.107069
577 2 0.170144 0.068984 0.138556
449 4 0.167836 0.0443672 0.108391
578 4 0.173488 0.0467597 0.127598
652 2 0.324595 0.0574911 0.158159
654 4 0.334024 0.0402991 0.142644
1448 4 0.416143 0.023763 0.0877942
1476 4 0.329598 0.0216846 0.146621
1474 2 0.339767 0.00424285 0.16137
1447 2 0.415934 0.00525456 0.104604
2758 2 0.0673065 0.11242 0.11146
2760 4 0.0435527 0.105914 0.115773
591 4 0.0348662 0.103774 0.0997042
589 2 0.0180189 0.0884391 0.11001
657 4 0.0166315 0.173627 0.11872
507 4 0.127793 0.15391 0.0898192
2759 4 0.0910604 0.118926 0.107147
579 4 0.166801 0.0912083 0.149514
236 4 0.161233 0.108517 0.138238
235 2 0.175693 0.124887 0.150408
653 4 0.315167 0.0746831 0.173674
2791 2 0.40724 0.130486 0.0792198
2792 4 0.42169 0.11595 0.0935401
25 3 0.461586 0.117998 0.152129
747 4 0.490264 0.101717 0.0867285
771 4 0.491218 0.106261 0.105627
475 2 0.0911248 0.232165 0.102568
477 4 0.0776496 0.214208 0.113575
704 4 0.077478 0.194081 0.109005
705 4 0.0279167 0.187424 0.109295
703 2 0.0526973 0.190753 0.10915
505 2 0.138764 0.174975 0.0976358
506 4 0.149735 0.19604 0.105452
755 4 0.166224 0.203807 0.11313
754 2 0.179606 0.21661 0.129929
278 4 0.242117 0.216081 0.150346
756 4 0.192988 0.229412 0.146727
460 2 0.25353 0.23197 0.119611
462 4 0.23605 0.218895 0.131805
296 4 0.27426 0.165899 0.0952247
581 4 0.289442 0.165559 0.109584
580 2 0.299388 0.180266 0.12719
582 4 0.309334 0.194973 0.144796
461 4 0.27101 0.245044 0.107417
666 4 0.341562 0.170172 0.0908223
255 4 0.370378 0.222187 0.0942772
253 2 0.387958 0.206291 0.102241
254 4 0.405538 0.190395 0.110205
518 4 0.38036 0.23974 0.0975802
2895 4 0.486311 0.219252 0.0969169
476 4 0.1046 0.250122 0.0915615
623 4 0.260504 0.262214 0.103338
622 2 0.263442 0.286877 0.106212
624 4 0.266381 0.311541 0.109086
740 4 0.285016 0.312945 0.102628
739 2 0.302956 0.330154 0.0999542
517 2 0.375877 0.259761 0.111871
519 4 0.371394 0.279782 0.126163
309 4 0.359446 0.288657 0.137516
307 2 0.342135 0.277274 0.151513
2839 2 0.472961 0.320348 0.152824
2840 4 0.464657 0.296779 0.153651
527 4 0.456227 0.28391 0.166131
648 4 0.0533166 0.342486 0.151818
620 4 0.0360432 0.349103 0.14383
619 2 0.0287219 0.371789 0.136288
417 4 0.0639992 0.363899 0.115115
621 4 0.0214007 0.394476 0.128746
416 4 0.103419 0.371426 0.14495
415 2 0.0837092 0.367662 0.130032
537 4 0.116269 0.384956 0.152444
609 4 0.222075 0.379378 0.11602
607 2 0.231619 0.374157 0.138533
608 4 0.241162 0.368937 0.161046
741 4 0.320897 0.347364 0.09728
15 3 0.329569 0.364037 0.0999092
387 4 0.3429 0.392334 0.136715
12 3 0.364807 0.351791 0.101002
11 1 0.346637 0.357938 0.113698
13 3 0.340182 0.339897 0.126785
14 3 0.352644 0.375798 0.127238
245 4 0.340392 0.413549 0.142445
385 2 0.335734 0.38661 0.159975
596 4 0.427139 0.400289 0.160911
595 2 0.439794 0.41355 0.143906
2841 4 0.481266 0.343918 0.151998
290 4 0.148845 0.461619 0.139309
1788 4 0.136329 0.465181 0.153969
1786 2 0.114549 0.476906 0.157618
289 2 0.171644 0.467332 0.147839
291 4 0.194443 0.473044 0.156369
627 4 0.211859 0.464775 0.154197
246 4 0.33555 0.44674 0.105356
524 4 0.345672 0.451236 0.0878535
244 2 0.337971 0.430145 0.123901
660 4 0.476973 0.475099 0.102433
659 4 0.443614 0.443965 0.122891
597 4 0.45245 0.426812 0.126902
658 2 0.460294 0.459532 0.112662
1420 2 0.0297301 0.0236309 0.190427
1422 4 0.0372884 0.0381489 0.171525
1421 4 0.0221718 0.00911301 0.209329
674 4 0.0289923 0.999028 0.225537
1504 2 0.21767 0.0187186 0.20196
1505 4 0.239999 0.0299154 0.200838
691 2 0.233767 0.0698142 0.212134
692 4 0.23093 0.0449802 0.212767
1506 4 0.195342 0.00752177 0.203083
28 3 0.303982 0.0295416 0.238095
30 3 0.272196 0.00947479 0.235956
27 3 0.271375 0.0462678 0.229751
26 1 0.281129 0.0294983 0.242112
512 4 0.0776254 0.153406 0.224662
511 2 0.0592596 0.141835 0.237072
237 4 0.190154 0.141257 0.162577
693 4 0.236605 0.0946482 0.2115
722 4 0.196619 0.131928 0.179637
721 2 0.216629 0.121526 0.190434
723 4 0.236638 0.111123 0.201232
757 2 0.412503 0.15592 0.186897
758 4 0.428582 0.139687 0.17674
24 3 0.445087 0.129699 0.183886
23 3 0.453792 0.0930035 0.179188
22 3 0.480969 0.118513 0.184019
21 1 0.460293 0.114809 0.174642
395 4 0.0836673 0.23022 0.181919
393 4 0.0893936 0.16724 0.230679
392 4 0.120471 0.193555 0.259704
391 2 0.104932 0.180398 0.245192
546 4 0.138071 0.197055 0.250416
544 2 0.149681 0.218864 0.254258
732 4 0.208708 0.207583 0.209075
730 2 0.210439 0.196379 0.23136
277 2 0.228936 0.216514 0.171589
279 4 0.215756 0.216948 0.192832
764 4 0.281675 0.233093 0.234171
763 2 0.297895 0.230995 0.253084
759 4 0.396423 0.172152 0.197054
629 4 0.383168 0.184715 0.204508
628 2 0.387722 0.207619 0.213443
630 4 0.392276 0.230524 0.222377
377 4 0.379437 0.241135 0.233066
520 2 0.464888 0.224636 0.234843
521 4 0.45995 0.239763 0.215556
522 4 0.469825 0.209509 0.254129
646 2 0.0546175 0.323571 0.168119
394 2 0.0753731 0.251596 0.191891
647 4 0.0559185 0.304656 0.18442
362 4 0.0896929 0.287864 0.172136
396 4 0.0670789 0.272973 0.201863
2692 2 0.0324442 0.316179 0.242943
735 4 0.0627368 0.318216 0.212761
2694 4 0.0477318 0.324987 0.225226
733 2 0.0849352 0.318403 0.224267
361 2 0.113979 0.293362 0.169871
363 4 0.138265 0.29886 0.167606
339 4 0.149174 0.288801 0.18145
337 2 0.152782 0.281056 0.204949
338 4 0.156391 0.27331 0.228447
734 4 0.107134 0.31859 0.235772
497 4 0.285178 0.23739 0.215667
344 4 0.282361 0.308236 0.241684
345 4 0.295397 0.328237 0.197743
343 2 0.288879 0.318236 0.219714
496 2 0.30015 0.247417 0.198333
308 4 0.324823 0.265891 0.16551
498 4 0.315122 0.257445 0.180999
376 2 0.393748 0.258033 0.244677
528 4 0.469753 0.250081 0.200385
526 2 0.46299 0.266995 0.183258
365 4 0.0929854 0.393608 0.240685
536 4 0.134958 0.360052 0.191575
535 2 0.125613 0.372504 0.172009
299 4 0.120987 0.332189 0.230286
300 4 0.127619 0.381747 0.229435
298 2 0.124303 0.356968 0.22986
603 4 0.119798 0.399892 0.233138
601 2 0.139018 0.410628 0.244992
729 4 0.240784 0.372955 0.24837
612 4 0.254173 0.376643 0.176014
611 4 0.284335 0.337842 0.185257
610 2 0.269254 0.357243 0.180636
386 4 0.328568 0.380885 0.183236
644 4 0.346487 0.372976 0.187319
643 2 0.355904 0.367879 0.209914
645 4 0.365321 0.362782 0.232509
2652 4 0.417717 0.397424 0.178607
2650 2 0.433453 0.382403 0.190932
2651 4 0.44919 0.367381 0.203257
2536 2 0.484931 0.379407 0.222335
2538 4 0.465024 0.36624 0.214886
2619 4 0.009068 0.473329 0.195042
1787 4 0.0927684 0.488631 0.161267
625 2 0.230072 0.464646 0.171326
626 4 0.248286 0.464517 0.188456
1659 4 0.328843 0.506707 0.247065
768 4 0.263997 0.474094 0.19735
766 2 0.266841 0.497196 0.206483
1574 4 0.326483 0.44529 0.217387
1573 2 0.3509 0.44002 0.216285
1575 4 0.375316 0.434749 0.215183
230 4 0.393287 0.436583 0.206492
229 2 0.406876 0.457513 0.208057
713 4 0.420488 0.490094 0.22505
2862 4 0.506122 0.49026 0.214763
231 4 0.420465 0.478443 0.209622
712 2 0.428376 0.485349 0.248298
1568 4 0.485001 0.495197 0.216121
1403 4 0.00803897 0.0588788 0.28259
1404 4 0.0118827 0.0288884 0.242759
1402 2 0.00996084 0.0438836 0.262675
1479 4 0.151591 0.0217662 0.273389
1477 2 0.135371 0.00811112 0.286643
429 4 0.172174 0.0245399 0.269484
427 2 0.176116 0.0490649 0.272342
428 4 0.180058 0.0735899 0.275199
29 3 0.277034 0.0334122 0.264613
248 4 0.291186 0.0267412 0.275782
247 2 0.288322 0.0340641 0.299518
249 4 0.285459 0.041387 0.323253
1700 4 0.284387 0.0562244 0.335324
1747 2 0.379219 0.0360657 0.325734
1749 4 0.365552 0.0151286 0.325602
1748 4 0.392886 0.0570029 0.325866
743 4 0.404475 0.0692451 0.336424
744 4 0.445864 0.0724369 0.30854
742 2 0.425169 0.070841 0.322482
529 2 0.0248176 0.128234 0.283596
530 4 0.0195917 0.115677 0.304576
531 4 0.0300434 0.140791 0.262615
513 4 0.0408938 0.130265 0.249481
458 4 0.0163089 0.132891 0.315286
404 4 0.236538 0.115192 0.300804
604 2 0.229567 0.153137 0.277297
605 4 0.235017 0.130544 0.286516
403 2 0.254281 0.113189 0.318307
631 2 0.361296 0.156671 0.274401
632 4 0.362717 0.136979 0.289744
698 4 0.368514 0.123452 0.303407
697 2 0.382223 0.134053 0.32143
699 4 0.395933 0.144655 0.339453
2653 2 0.0142715 0.223713 0.305607
2654 4 0.998548 0.22128 0.286319
545 4 0.161291 0.240673 0.2581
388 2 0.119457 0.246959 0.327757
606 4 0.224117 0.175731 0.268077
285 4 0.169083 0.253539 0.271895
731 4 0.212169 0.185175 0.253646
765 4 0.314115 0.228898 0.271997
708 4 0.328095 0.230195 0.286291
706 2 0.343203 0.212401 0.27733
633 4 0.359874 0.176363 0.259059
707 4 0.358312 0.194608 0.268368
420 4 0.486481 0.199409 0.253873
418 2 0.483795 0.188683 0.276299
419 4 0.48111 0.177957 0.298725
311 4 0.479662 0.192936 0.31233
310 2 0.479871 0.215123 0.323857
2693 4 0.0171566 0.307372 0.26066
2718 4 0.99955 0.30073 0.267623
2717 4 0.00933456 0.269589 0.305507
2716 2 0.00444214 0.285159 0.286565
389 4 0.107426 0.267326 0.319657
750 4 0.124013 0.274759 0.30952
748 2 0.13033 0.298066 0.303035
749 4 0.136646 0.321373 0.29655
283 2 0.190527 0.265243 0.277223
284 4 0.211971 0.276946 0.28255
508 2 0.287929 0.32537 0.323813
378 4 0.408059 0.274931 0.256289
274 2 0.36846 0.326622 0.30131
614 4 0.401281 0.306456 0.316491
276 4 0.391074 0.320125 0.30977
275 4 0.345846 0.333119 0.29285
2802 4 0.0265279 0.339443 0.315226
2463 4 0.0071986 0.345314 0.318371
2529 4 0.00049697 0.409171 0.28697
364 2 0.0740421 0.404374 0.252949
366 4 0.0550987 0.415141 0.265213
680 4 0.0804434 0.419428 0.314701
618 4 0.135907 0.341088 0.302922
616 2 0.145587 0.358943 0.317506
617 4 0.155267 0.376797 0.33209
728 4 0.203746 0.403814 0.26166
727 2 0.222265 0.388385 0.255015
434 4 0.247888 0.371768 0.266626
509 4 0.29095 0.331917 0.299872
435 4 0.285425 0.347171 0.288688
433 2 0.266657 0.359469 0.277657
542 4 0.365714 0.381774 0.236406
541 2 0.377758 0.385762 0.257951
543 4 0.389801 0.389751 0.279497
446 4 0.402615 0.393585 0.293858
445 2 0.397868 0.400069 0.317535
499 2 0.039085 0.47038 0.305009
501 4 0.0504411 0.451621 0.292997
500 4 0.0277289 0.48914 0.317022
777 4 0.0156781 0.488428 0.333537
504 4 0.159533 0.421514 0.276859
1776 4 0.136553 0.504047 0.252891
1774 2 0.149845 0.483304 0.248615
1775 4 0.163136 0.462562 0.24434
602 4 0.158237 0.421364 0.256847
502 2 0.178916 0.422003 0.292645
436 2 0.231925 0.447067 0.320912
437 4 0.215582 0.428595 0.31681
503 4 0.1983 0.422493 0.308431
1437 4 0.311118 0.489083 0.310477
5 3 0.328882 0.497959 0.309522
438 4 0.248269 0.46554 0.325014
1436 4 0.265144 0.474989 0.324207
1435 2 0.288131 0.482036 0.317342
3 3 0.361785 0.500579 0.327638
1473 4 0.460646 0.503869 0.327463
1471 2 0.456661 0.493249 0.305181
714 4 0.436264 0.480605 0.271545
1472 4 0.452677 0.482628 0.282898
600 4 0.187248 0.065891 0.364469
2428 2 0.253364 0.0194652 0.40815
2429 4 0.263633 0.0405092 0.399382
1701 4 0.266127 0.0490174 0.381317
1699 2 0.275257 0.0526209 0.358321
459 4 0.00534173 0.131877 0.364065
457 2 0.0108253 0.132384 0.339676
368 4 0.150983 0.110544 0.387165
342 4 0.0997777 0.135714 0.383185
367 2 0.148335 0.130402 0.372204
369 4 0.145687 0.15026 0.357243
340 2 0.0938684 0.124559 0.404768
598 2 0.196734 0.0890162 0.365121
599 4 0.20622 0.112141 0.365773
474 4 0.209718 0.13189 0.364091
472 2 0.217921 0.155332 0.366984
468 4 0.273205 0.129921 0.343393
405 4 0.272023 0.111186 0.335811
466 2 0.295761 0.126995 0.353778
467 4 0.318317 0.124069 0.364164
684 4 0.321346 0.131118 0.38307
682 2 0.316482 0.140809 0.405599
333 4 0.41213 0.157591 0.342074
2655 4 0.0299947 0.226146 0.324896
2850 4 0.0465485 0.214812 0.328433
2848 2 0.0682392 0.208094 0.3389
687 4 0.0730173 0.200218 0.39378
470 4 0.0552196 0.210067 0.395488
390 4 0.131488 0.226592 0.335858
686 4 0.0948642 0.156034 0.38534
685 2 0.0839408 0.178126 0.38956
2849 4 0.0899299 0.201377 0.349367
371 4 0.143827 0.235976 0.349976
370 2 0.152633 0.226619 0.371425
372 4 0.161439 0.217262 0.392875
401 4 0.16629 0.208083 0.411744
473 4 0.226124 0.178774 0.369878
452 4 0.415205 0.220904 0.398246
451 2 0.400676 0.206368 0.412485
331 2 0.422373 0.18031 0.344106
350 4 0.416313 0.241 0.390727
480 4 0.457195 0.169179 0.403974
332 4 0.432616 0.203028 0.346139
312 4 0.48008 0.23731 0.335385
351 4 0.423811 0.221327 0.345367
349 2 0.420062 0.231163 0.368047
2800 2 0.0395809 0.332322 0.335328
2801 4 0.052634 0.325201 0.35543
443 4 0.070876 0.319005 0.347746
442 2 0.0872229 0.313787 0.365931
444 4 0.10357 0.308568 0.384117
260 4 0.120471 0.298511 0.390706
636 4 0.295751 0.314684 0.363612
510 4 0.284908 0.318823 0.347754
634 2 0.310481 0.330789 0.375812
613 2 0.415583 0.305672 0.336986
2838 4 0.490899 0.244248 0.350772
615 4 0.429885 0.304889 0.35748
2924 4 0.449213 0.301786 0.350896
2923 2 0.474146 0.303662 0.350921
2925 4 0.499079 0.305539 0.350946
679 2 0.083583 0.41575 0.339233
681 4 0.0867227 0.412072 0.363764
635 4 0.32521 0.346895 0.388012
668 4 0.329018 0.366755 0.389556
447 4 0.393121 0.406553 0.341212
677 4 0.0996789 0.407247 0.378192
676 2 0.115395 0.417917 0.39445
678 4 0.131112 0.428587 0.410708
1383 4 0.100175 0.495622 0.401865
1423 2 0.135421 0.491219 0.383625
1425 4 0.110936 0.487452 0.387014
752 4 0.391591 0.423706 0.352068
594 4 0.350226 0.472064 0.413086
592 2 0.341145 0.481073 0.391602
593 4 0.332065 0.490082 0.370119
751 2 0.406018 0.433303 0.370093
561 4 0.475449 0.440118 0.415266
753 4 0.420446 0.4429 0.388118
560 4 0.437033 0.452857 0.385896
559 2 0.456241 0.446488 0.400581
2236 2 0.0561067 0.00847845 0.46543
720 4 0.0342163 0.0345694 0.457604
718 2 0.0327447 0.0512068 0.438997
2237 4 0.0533351 0.0333271 0.465227
719 4 0.0312732 0.0678443 0.420391
439 2 0.301091 0.0191443 0.435797
441 4 0.307975 0.0352118 0.417919
440 4 0.294207 0.00307671 0.453675
432 4 0.407 0.000716794 0.446233
430 2 0.418044 0.0210667 0.455672
2880 4 0.489492 0.0675684 0.432799
431 4 0.429087 0.0414166 0.465112
2643 4 0.470712 0.0732783 0.43258
1034 4 0.0545505 0.151131 0.472265
1033 2 0.0700678 0.1369 0.458779
1035 4 0.0855851 0.122669 0.445293
341 4 0.0879591 0.113404 0.426351
321 4 0.210155 0.157173 0.45318
683 4 0.311619 0.150501 0.428129
575 4 0.393283 0.0824935 0.462055
576 4 0.382001 0.107136 0.420029
574 2 0.387642 0.094815 0.441042
516 4 0.388911 0.125738 0.417769
514 2 0.392661 0.150323 0.420356
1518 4 0.396173 0.0937249 0.477377
478 2 0.455089 0.148716 0.418186
479 4 0.452983 0.128253 0.432399
1516 2 0.418658 0.0913814 0.488061
2642 4 0.462088 0.119829 0.448684
2641 2 0.4664 0.0965539 0.440632
1517 4 0.441142 0.089038 0.498745
938 4 0.0434947 0.162797 0.484288
937 2 0.0249751 0.179018 0.488656
471 4 0.0520369 0.210686 0.44539
469 2 0.0536283 0.210376 0.420439
1200 4 0.0699532 0.221492 0.45044
1198 2 0.0643988 0.230586 0.473059
939 4 0.00645555 0.195239 0.493023
825 4 0.0980473 0.166547 0.464867
823 2 0.100107 0.181398 0.484877
400 2 0.158027 0.211132 0.435145
402 4 0.149765 0.214181 0.458547
347 4 0.153842 0.232349 0.464681
346 2 0.146608 0.240474 0.487194
650 4 0.221531 0.169871 0.441195
319 2 0.199624 0.169129 0.472451
320 4 0.189094 0.181084 0.491721
649 2 0.239908 0.177726 0.42617
717 4 0.266792 0.203904 0.412979
487 2 0.335357 0.247193 0.420093
488 4 0.310609 0.244639 0.422586
716 4 0.308205 0.226033 0.430184
715 2 0.287499 0.214968 0.421582
651 4 0.258285 0.18558 0.411145
515 4 0.396412 0.174908 0.422943
453 4 0.386147 0.191831 0.426725
642 4 0.367286 0.168622 0.495098
267 4 0.379435 0.252827 0.420002
265 2 0.386774 0.250904 0.443827
266 4 0.394112 0.248981 0.467652
259 2 0.112493 0.29792 0.414395
261 4 0.104514 0.297328 0.438084
695 4 0.110861 0.30808 0.453277
694 2 0.125057 0.297843 0.471132
696 4 0.139254 0.287606 0.488988
711 4 0.199108 0.306717 0.49013
709 2 0.189291 0.325418 0.476749
871 2 0.305485 0.334204 0.478738
489 4 0.360104 0.249747 0.4176
584 4 0.393441 0.260525 0.483719
583 2 0.417249 0.263511 0.490751
549 4 0.0442112 0.371587 0.398064
547 2 0.0366558 0.388389 0.414969
548 4 0.0291005 0.405192 0.431873
325 2 0.159188 0.374952 0.447378
326 4 0.156261 0.395947 0.434118
327 4 0.162115 0.353958 0.460638
710 4 0.179473 0.344119 0.463367
667 2 0.334165 0.376683 0.411919
873 4 0.30946 0.346298 0.457218
669 4 0.339313 0.386612 0.434282
334 2 0.376299 0.398716 0.449184
336 4 0.359016 0.38967 0.433543
335 4 0.393582 0.407762 0.464825
407 4 0.0398342 0.468339 0.459284
383 4 0.0536165 0.482909 0.464348
382 2 0.0561661 0.478757 0.488872
406 2 0.0370084 0.445576 0.449332
408 4 0.0341826 0.422813 0.43938
375 4 0.129499 0.429314 0.430474
374 4 0.160884 0.442615 0.467064
373 2 0.145191 0.435965 0.448769
238 2 0.410595 0.438646 0.483857
240 4 0.41113 0.416824 0.471663
1401 4 0.344895 0.487862 0.423879
239 4 0.41006 0.460467 0.496052
662 4 0.501671 0.427884 0.467395
661 2 0.500818 0.440933 0.488707
2318 4 0.139596 0.0439207 0.571512
2317 2 0.156929 0.0614006 0.575894
1150 2 0.234923 0.0431316 0.542358
1152 4 0.228782 0.0199625 0.549476
1059 4 0.217154 0.0107593 0.535033
1151 4 0.241064 0.0663006 0.53524
962 4 0.284158 0.0201722 0.573633
1031 4 0.286095 0.0403728 0.575013
3157 2 0.381652 0.030586 0.53747
3158 4 0.385007 0.00590782 0.539686
3159 4 0.378296 0.0552641 0.535255
3488 4 0.487951 0.0397404 0.58309
1060 2 0.493389 0.00798687 0.571687
1062 4 0.485783 0.030758 0.564701
2319 4 0.174261 0.0788806 0.580277
1182 4 0.240355 0.085701 0.534762
725 4 0.303228 0.0860012 0.510543
1180 2 0.262177 0.0888656 0.522974
1181 4 0.283999 0.0920302 0.511185
724 2 0.324798 0.0982862 0.513547
726 4 0.346367 0.110571 0.516552
900 4 0.364333 0.115908 0.521575
898 2 0.373182 0.138135 0.514309
899 4 0.382031 0.160363 0.507042
1271 4 0.0722379 0.214187 0.555377
1199 4 0.0588444 0.239681 0.495678
1270 2 0.0777586 0.202714 0.533857
1220 4 0.0770305 0.20222 0.571396
1272 4 0.0832793 0.191242 0.512338
824 4 0.102166 0.196248 0.504887
348 4 0.139374 0.248599 0.509707
857 4 0.213276 0.223807 0.530973
411 4 0.20567 0.222866 0.548831
409 2 0.20235 0.207268 0.568089
856 2 0.199604 0.213137 0.512962
858 4 0.185931 0.202466 0.494951
790 2 0.347652 0.232668 0.544127
791 4 0.350674 0.220649 0.522411
640 2 0.363562 0.192803 0.500256
641 4 0.359839 0.216984 0.505414
877 2 0.0732651 0.263588 0.516181
879 4 0.0525734 0.250231 0.511866
878 4 0.0939567 0.276945 0.520495
8 3 0.129673 0.253775 0.52713
9 3 0.110806 0.28623 0.521206
6 1 0.131738 0.276715 0.52432
7 3 0.14125 0.285698 0.543241
10 3 0.145049 0.28118 0.506389
1394 4 0.21714 0.322677 0.568193
772 2 0.228029 0.292281 0.513498
774 4 0.25054 0.283485 0.519904
773 4 0.205517 0.301078 0.507092
811 2 0.283819 0.30533 0.526295
812 4 0.266829 0.287681 0.531301
813 4 0.300808 0.322978 0.52129
872 4 0.30151 0.322109 0.500258
792 4 0.344629 0.244687 0.565843
269 4 0.453419 0.281923 0.504572
268 2 0.465878 0.285145 0.526009
270 4 0.478336 0.288367 0.547447
3309 4 0.483543 0.307298 0.551581
585 4 0.441057 0.266498 0.497782
1393 2 0.235146 0.335516 0.556527
1395 4 0.253152 0.348356 0.544861
1040 4 0.0556622 0.42535 0.57056
1039 2 0.078133 0.42979 0.580586
936 4 0.0524566 0.426764 0.550486
934 2 0.0483684 0.44356 0.532421
935 4 0.0442803 0.460357 0.514356
384 4 0.0587157 0.474604 0.513396
1135 2 0.134072 0.426712 0.568995
1137 4 0.150361 0.427805 0.550057
540 4 0.166891 0.434569 0.539167
538 2 0.180848 0.452547 0.549518
539 4 0.194806 0.470526 0.559869
2242 2 0.219953 0.489156 0.552523
2243 4 0.212759 0.470892 0.568009
1171 2 0.296669 0.467185 0.562079
881 4 0.311203 0.492546 0.540494
1173 4 0.295374 0.480764 0.541124
1172 4 0.297963 0.453605 0.583034
880 2 0.334542 0.496294 0.532344
928 2 0.38443 0.493773 0.506186
930 4 0.403716 0.478014 0.503978
1000 2 0.459253 0.448627 0.572298
1001 4 0.478499 0.438032 0.560361
663 4 0.499965 0.453982 0.510018
926 4 0.482254 0.424917 0.573877
1331 4 0.487863 0.482275 0.556332
961 2 0.277358 0.00212639 0.589549
1030 2 0.297705 0.0546647 0.591928
1141 2 0.308454 0.0693295 0.645409
1032 4 0.309315 0.0689566 0.608844
1142 4 0.297718 0.0744452 0.623415
1004 4 0.330462 0.0213385 0.659035
1003 2 0.329135 0.00817171 0.63782
842 4 0.376141 0.080219 0.627994
841 2 0.381795 0.0588909 0.639754
843 4 0.38745 0.0375627 0.651515
87 3 0.384482 0.0258068 0.6355
4163 4 0.409281 0.00731615 0.614198
4227 4 0.45826 0.0271268 0.655995
4225 2 0.443162 0.0175628 0.638509
4226 4 0.428064 0.00799879 0.621024
3426 4 0.432341 0.0819482 0.655158
2990 4 0.0329276 0.123499 0.620155
2989 2 0.04496 0.128168 0.64157
3078 4 0.030912 0.103977 0.614878
3076 2 0.00659394 0.0984534 0.613063
2991 4 0.0569924 0.132837 0.662985
1284 4 0.180085 0.0809371 0.599798
1282 2 0.197858 0.096905 0.607169
1283 4 0.215631 0.112873 0.614541
1155 4 0.220411 0.131934 0.614954
1153 2 0.244985 0.136151 0.616821
1154 4 0.26956 0.140367 0.618688
3424 2 0.449714 0.0975441 0.646207
3425 4 0.467087 0.11314 0.637256
1025 4 0.471132 0.130181 0.6447
1024 2 0.476761 0.152776 0.653808
1219 2 0.066822 0.204673 0.594089
1221 4 0.0566136 0.207126 0.616781
1211 4 0.178657 0.227001 0.639765
1212 4 0.191023 0.191754 0.606517
1259 4 0.173895 0.242018 0.651535
410 4 0.199029 0.191671 0.587347
1210 2 0.18484 0.209378 0.623141
1009 2 0.489982 0.206536 0.647021
1026 4 0.482391 0.175371 0.662915
1011 4 0.5009 0.21858 0.628023
1190 4 0.245133 0.337317 0.616561
1189 2 0.221275 0.331874 0.611431
806 4 0.298112 0.284182 0.630133
805 2 0.32023 0.280143 0.619194
802 2 0.274947 0.316072 0.63185
803 4 0.286216 0.296215 0.642042
807 4 0.342348 0.276104 0.608254
952 2 0.380592 0.278596 0.605371
954 4 0.403226 0.269076 0.610089
953 4 0.357958 0.288115 0.600653
3370 2 0.462056 0.315996 0.648837
3371 4 0.466706 0.293009 0.640167
3122 4 0.462284 0.274076 0.644068
896 4 0.146459 0.346305 0.6357
992 4 0.155702 0.361356 0.643369
895 2 0.162587 0.337079 0.618969
991 2 0.15858 0.384424 0.652575
1191 4 0.197416 0.326432 0.6063
897 4 0.178716 0.327854 0.602237
804 4 0.263678 0.33593 0.621659
1029 4 0.30596 0.406818 0.62644
1239 4 0.29822 0.38765 0.628474
1237 2 0.288148 0.366413 0.619946
1238 4 0.278076 0.345175 0.611418
1008 4 0.392391 0.359691 0.655339
1043 4 0.37852 0.357875 0.669336
3372 4 0.457406 0.338982 0.657508
1006 2 0.416966 0.355095 0.655757
1099 2 0.495613 0.3712 0.635635
1007 4 0.44154 0.350499 0.656175
1101 4 0.487305 0.38789 0.652297
214 3 0.00959925 0.473793 0.583662
211 1 0.00229903 0.489421 0.599182
1041 4 0.100604 0.434231 0.590612
1136 4 0.117784 0.425618 0.587934
2171 4 0.150222 0.476462 0.645612
2170 2 0.151907 0.494134 0.628004
1027 2 0.307459 0.42789 0.613065
1028 4 0.308958 0.448962 0.59969
1205 4 0.325672 0.442167 0.659999
889 2 0.320427 0.479584 0.655678
1268 4 0.43513 0.477634 0.590616
1002 4 0.440007 0.459223 0.584236
1267 2 0.423655 0.495498 0.603822
3082 2 0.0179635 0.0581692 0.705587
3083 4 0.0292791 0.0636295 0.68397
3084 4 0.00664791 0.0527089 0.727205
945 4 0.149707 0.0582425 0.670208
943 2 0.13224 0.0760528 0.671905
2254 2 0.162243 0.0430991 0.707608
2255 4 0.164354 0.0527755 0.684649
2256 4 0.160132 0.0334227 0.730566
1970 4 0.172687 0.0209984 0.740121
1143 4 0.31919 0.0642138 0.667404
1092 4 0.299183 0.0373783 0.727333
949 2 0.323315 0.0297966 0.693152
950 4 0.307686 0.0413632 0.708873
887 4 0.312506 0.0826281 0.670781
951 4 0.338944 0.01823 0.677432
1218 4 0.396953 0.0165121 0.745564
1163 4 0.466147 0.0237875 0.673627
1216 2 0.420206 0.00919357 0.740005
1162 2 0.457465 0.0187069 0.696518
1164 4 0.448783 0.0136263 0.719409
1217 4 0.443459 0.00187508 0.734445
864 4 0.0745576 0.132553 0.672066
851 4 0.995243 0.180432 0.696725
862 2 0.0910029 0.116271 0.681534
863 4 0.107448 0.0999893 0.691001
944 4 0.114773 0.093863 0.673602
831 4 0.195347 0.0943077 0.687814
829 2 0.192259 0.106047 0.709673
908 4 0.177803 0.113419 0.747449
830 4 0.189171 0.117786 0.731532
1299 4 0.229506 0.145822 0.68124
888 4 0.320603 0.112837 0.709801
886 2 0.316555 0.0977327 0.690291
1297 2 0.252582 0.153455 0.675373
1085 4 0.308535 0.148884 0.736882
1111 2 0.493451 0.112445 0.734203
1113 4 0.476719 0.126021 0.721517
43 3 0.466518 0.142355 0.730172
41 1 0.452677 0.151929 0.714198
44 3 0.431021 0.14398 0.716692
45 3 0.460382 0.147073 0.693325
1179 4 0.0473279 0.179932 0.746187
1177 2 0.0592545 0.194537 0.729767
850 2 0.00224654 0.181418 0.720707
852 4 0.00925041 0.182405 0.74469
1178 4 0.0711811 0.209142 0.713346
947 4 0.0862898 0.216115 0.7006
946 2 0.111165 0.217828 0.698737
948 4 0.13604 0.21954 0.696875
1260 4 0.155636 0.221169 0.69316
1258 2 0.164766 0.231593 0.672348
1084 2 0.308924 0.173371 0.741921
1298 4 0.275658 0.161089 0.669506
1086 4 0.309312 0.197859 0.74696
978 4 0.304355 0.215236 0.738591
976 2 0.326028 0.224766 0.746629
1193 4 0.354856 0.234253 0.73615
1192 2 0.371446 0.247266 0.722711
1194 4 0.388036 0.260278 0.709271
977 4 0.347702 0.234296 0.754667
1010 4 0.479064 0.194491 0.666018
42 3 0.452608 0.174745 0.717131
1261 2 0.4297 0.249439 0.706335
1263 4 0.453007 0.246517 0.697764
3420 4 1.8112e-05 0.310136 0.678321
1262 4 0.406394 0.252361 0.714906
3123 4 0.469549 0.249366 0.686933
3121 2 0.465917 0.261721 0.665501
1281 4 0.105122 0.382659 0.713714
1279 2 0.0868758 0.394725 0.701603
993 4 0.161458 0.407492 0.661781
822 4 0.1928 0.341744 0.752314
1096 2 0.210127 0.377056 0.74508
1097 4 0.216313 0.396052 0.730046
1278 4 0.232618 0.395663 0.71912
1276 2 0.254457 0.3912 0.707794
796 2 0.29878 0.366235 0.678413
797 4 0.28304 0.385585 0.676677
1277 4 0.276297 0.386738 0.696468
798 4 0.314519 0.346884 0.68015
1044 4 0.328563 0.35566 0.669091
1042 2 0.353542 0.356767 0.669214
1140 4 0.341155 0.41121 0.751148
1138 2 0.353869 0.416241 0.730215
1139 4 0.366584 0.421273 0.709282
3330 4 0.468324 0.402818 0.71662
3328 2 0.478723 0.398157 0.694364
3329 4 0.489122 0.393496 0.672109
3182 4 0.479275 0.395877 0.733439
3181 2 0.465411 0.411983 0.746614
1280 4 0.0686295 0.406791 0.689492
884 4 0.0663149 0.425483 0.691383
883 2 0.0647528 0.44386 0.708265
885 4 0.0631908 0.462237 0.725148
815 4 0.0600361 0.465472 0.744833
1068 4 0.171601 0.425156 0.662325
1066 2 0.176464 0.436048 0.6843
1067 4 0.181328 0.44694 0.706275
940 2 0.180657 0.466443 0.743092
942 4 0.182305 0.463796 0.718284
890 4 0.31432 0.458227 0.667158
2212 2 0.283708 0.484293 0.738327
1204 2 0.339325 0.431214 0.677855
1206 4 0.352977 0.42026 0.69571
1250 4 0.482491 0.497789 0.700508
1295 4 0.0246017 0.00961733 0.799228
1294 2 0.0247286 0.0332207 0.807477
1296 4 0.0248555 0.056824 0.815726
1286 4 0.0435715 0.0656103 0.816512
1285 2 0.0636599 0.0774709 0.807515
2049 4 0.0423634 0.00552655 0.805382
1202 4 0.121356 0.049754 0.767456
1201 2 0.109625 0.0701818 0.775838
1969 2 0.183295 0.00392888 0.754997
1090 2 0.297176 0.0324379 0.751761
1091 4 0.29517 0.0274976 0.77619
1049 4 0.298069 0.0108431 0.787677
966 4 0.38942 0.00655571 0.785169
964 2 0.386559 0.0309585 0.780531
1021 2 0.361914 0.075487 0.818774
965 4 0.383699 0.0553612 0.775894
1023 4 0.383256 0.0649631 0.82645
2322 4 0.464151 0.0319405 0.801714
2320 2 0.462731 0.0362091 0.82631
1995 4 0.465637 0.0222962 0.783576
1107 4 0.0805814 0.152096 0.800256
1105 2 0.066023 0.162026 0.782519