ITEM: TIMESTEP
200000
ITEM: NUMBER OF ATOMS
4590
ITEM: BOX BOUNDS pp pp pp
-9.9985700000000008e+00 9.9985700000000008e+00
-9.9985700000000008e+00 9.9985700000000008e+00
-9.9985700000000008e+00 9.9985700000000008e+00
ITEM: ATOMS id type xs ys zs
1667 4 0.0544087 0.0547307 0.0520971
1666 2 0.0563691 0.0379914 0.0705669
932 4 0.146111 0.0381814 0.00647597
931 2 0.142555 0.0628887 0.00791893
485 4 0.297871 0.0197896 0.0475447
1607 4 0.402059 0.00947315 0.051555
2975 4 0.492263 0.0329468 0.0103396
746 4 0.455671 0.0224046 0.0898808
2974 2 0.501779 0.0556502 0.0147191
591 4 0.067996 0.087289 0.08195
2760 4 0.00222077 0.0923802 0.0854389
1133 4 0.157999 0.0924523 0.0160075
933 4 0.138999 0.0875961 0.00936188
1134 4 0.202091 0.115979 0.0142382
1132 2 0.180045 0.104216 0.0151228
492 4 0.250931 0.0893871 0.00396033
490 2 0.256579 0.0968761 0.0271377
491 4 0.262228 0.104365 0.0503152
556 2 0.298795 0.0916958 0.0655622
557 4 0.282141 0.104704 0.0521978
558 4 0.31545 0.0786876 0.0789265
769 2 0.49361 0.162853 0.0703211
770 4 0.500378 0.138919 0.0677665
2792 4 0.49438 0.119615 0.0636172
477 4 0.0839348 0.224185 0.0749446
2834 4 0.00464185 0.228577 0.056701
475 2 0.0934231 0.206249 0.0603354
476 4 0.102911 0.188312 0.0457261
421 2 0.0925944 0.180976 0.00884446
422 4 0.107324 0.192443 0.0254793
571 2 0.289191 0.211382 0.0844256
573 4 0.297053 0.208903 0.06082
355 2 0.260167 0.229302 0.0220081
357 4 0.274922 0.221494 0.0406227
254 4 0.370641 0.199005 0.0204436
666 4 0.360864 0.201062 0.00303918
253 2 0.380419 0.203012 0.0431046
255 4 0.390196 0.207018 0.0657656
771 4 0.486842 0.186787 0.0728757
294 4 0.066504 0.280403 0.0594657
292 2 0.0718566 0.267221 0.0389045
293 4 0.0772092 0.254039 0.0183432
2806 2 0.995366 0.30389 0.0149591
2808 4 0.998435 0.328673 0.0162035
555 4 0.0938882 0.260604 0.00941232
352 2 0.234201 0.247618 0.0696121
914 4 0.196417 0.254932 0.0100789
354 4 0.22632 0.254268 0.0468338
913 2 0.190254 0.278151 0.00314434
506 4 0.194987 0.278527 0.0762226
915 4 0.184091 0.301369 0.99621
322 2 0.412407 0.293771 0.0730365
323 4 0.408528 0.316444 0.0632343
671 4 0.415303 0.333909 0.0706064
280 2 0.483517 0.314684 0.0247676
281 4 0.478458 0.314262 0.0492505
2771 4 0.0054158 0.347727 0.0139957
288 4 0.187308 0.393984 0.0661463
626 4 0.203735 0.405373 0.0733211
483 4 0.246245 0.343763 0.0382157
1290 4 0.240449 0.414139 0.0236433
286 2 0.168312 0.383151 0.0782687
251 4 0.252719 0.341565 0.0571815
481 2 0.25391 0.349212 0.015048
955 2 0.333682 0.372919 0.0541554
250 2 0.263415 0.356236 0.074373
956 4 0.337934 0.36026 0.0330166
957 4 0.32943 0.385578 0.0752943
1288 2 0.244412 0.40237 0.00194118
670 2 0.420916 0.355846 0.0812098
551 4 0.0452451 0.456086 0.00436076
550 2 0.0454246 0.457405 0.0293289
552 4 0.045604 0.458724 0.054297
315 4 0.0308602 0.466827 0.066282
243 4 0.160085 0.476952 0.0317319
241 2 0.169779 0.458715 0.0458242
242 4 0.179472 0.440477 0.0599166
1673 4 0.398147 0.467896 0.0678445
1672 2 0.410553 0.474013 0.0470157
564 4 0.441873 0.481952 0.0190571
562 2 0.447106 0.462785 0.00387841
1674 4 0.422959 0.48013 0.0261869
2576 4 0.047106 0.00470327 0.0879188
702 4 0.0787339 0.0471547 0.0989365
19 3 0.0172288 0.033512 0.121229
1668 4 0.0583296 0.0212522 0.0890367
20 3 0.018364 0.0711415 0.121852
16 1 0.00602583 0.052846 0.127482
2480 4 0.00129863 0.0419033 0.166435
18 3 0.00209389 0.052679 0.150349
700 2 0.102579 0.0496472 0.106035
701 4 0.126424 0.0521397 0.113134
450 4 0.129961 0.0713544 0.115474
448 2 0.141665 0.0832719 0.13408
1476 4 0.29824 0.0145943 0.110608
654 4 0.308965 0.031321 0.115407
652 2 0.330739 0.0404738 0.107205
653 4 0.352514 0.0496266 0.0990035
295 2 0.371018 0.0775287 0.122878
297 4 0.354705 0.0665509 0.107433
745 2 0.470638 0.0422853 0.0874459
747 4 0.485605 0.0621659 0.085011
589 2 0.046253 0.0877209 0.0942882
590 4 0.0245099 0.0881528 0.106627
380 4 0.0150725 0.0921718 0.127284
379 2 0.0165206 0.115948 0.134886
381 4 0.0179686 0.139723 0.142489
449 4 0.153369 0.0951894 0.152686
578 4 0.140955 0.110375 0.156679
237 4 0.175406 0.128174 0.101806
236 4 0.190474 0.108904 0.145422
235 2 0.18294 0.118539 0.123614
582 4 0.306317 0.116472 0.144232
296 4 0.387331 0.0885065 0.138323
630 4 0.396056 0.152319 0.140312
629 4 0.379092 0.105478 0.144651
628 2 0.387574 0.128899 0.142482
655 2 0.0170042 0.239688 0.103905
656 4 0.017852 0.216155 0.095498
738 4 0.147742 0.22511 0.155742
736 2 0.167704 0.235018 0.144403
353 4 0.242082 0.240968 0.0923904
755 4 0.25459 0.249766 0.104724
737 4 0.187665 0.244926 0.133065
572 4 0.281328 0.21386 0.108031
461 4 0.298133 0.219385 0.166936
460 2 0.288711 0.210417 0.145582
462 4 0.279289 0.201449 0.124228
623 4 0.303931 0.239517 0.167344
2895 4 0.491975 0.185646 0.132102
705 4 0.0348342 0.28476 0.1199
703 2 0.0494954 0.304619 0.115921
657 4 0.0161564 0.263221 0.112311
395 4 0.018024 0.277766 0.12706
394 2 0.00788193 0.275266 0.149777
362 4 0.0740993 0.309561 0.165074
704 4 0.0641567 0.324479 0.111943
361 2 0.0959198 0.297575 0.162754
507 4 0.193973 0.261872 0.123364
505 2 0.19448 0.2702 0.0997934
754 2 0.252395 0.262564 0.126092
622 2 0.317854 0.259353 0.161191
756 4 0.2502 0.275363 0.147459
741 4 0.331803 0.330557 0.114855
739 2 0.328887 0.308203 0.12567
740 4 0.32597 0.285849 0.136484
624 4 0.331778 0.279189 0.155039
13 3 0.391972 0.329218 0.16895
518 4 0.472969 0.25158 0.120065
324 4 0.416287 0.271099 0.0828387
517 2 0.451658 0.257309 0.108309
519 4 0.430347 0.263039 0.0965538
262 2 0.0342383 0.393921 0.156122
264 4 0.0359139 0.418483 0.15175
287 4 0.149315 0.372317 0.090391
455 4 0.152511 0.353601 0.0938784
454 2 0.137337 0.348985 0.113208
456 4 0.122164 0.344369 0.132538
537 4 0.131695 0.356116 0.14534
612 4 0.256397 0.344434 0.171238
252 4 0.274111 0.370907 0.0915644
609 4 0.280381 0.389413 0.0883199
607 2 0.298624 0.392006 0.105221
608 4 0.316867 0.394599 0.122123
387 4 0.337596 0.347975 0.112452
385 2 0.355604 0.358827 0.125984
386 4 0.373612 0.369679 0.139516
495 4 0.381509 0.387422 0.136107
493 2 0.402673 0.387478 0.122794
14 3 0.388706 0.362874 0.1516
494 4 0.423838 0.387534 0.109481
672 4 0.426529 0.377783 0.0918132
595 2 0.478939 0.413551 0.153297
2652 4 0.505012 0.38431 0.136399
596 4 0.500092 0.403105 0.145013
313 2 0.0352602 0.474637 0.0896234
314 4 0.0396602 0.482447 0.112965
1787 4 0.0832275 0.49972 0.118843
1788 4 0.117252 0.464783 0.107778
1786 2 0.10024 0.482252 0.113311
625 2 0.207956 0.417727 0.0946457
627 4 0.212176 0.430082 0.11597
291 4 0.199754 0.436981 0.1307
289 2 0.212328 0.447929 0.149334
639 4 0.238703 0.502034 0.141828
290 4 0.224902 0.458878 0.167967
637 2 0.251145 0.486551 0.157016
246 4 0.262658 0.46616 0.10689
244 2 0.251347 0.48494 0.0948671
524 4 0.282783 0.46357 0.113724
523 2 0.307417 0.465103 0.10973
660 4 0.41185 0.46293 0.0823071
525 4 0.332052 0.466635 0.105735
1559 4 0.349321 0.47715 0.106962
658 2 0.424259 0.476595 0.0991733
659 4 0.436668 0.49026 0.11604
644 4 0.440683 0.418559 0.154986
1422 4 0.00155589 0.0236121 0.204219
1420 2 0.0164043 0.0121101 0.220724
673 2 0.1454 0.00209308 0.218905
674 4 0.154411 0.999286 0.195751
675 4 0.136388 0.00490039 0.242059
691 2 0.271214 0.0733635 0.2083
692 4 0.281668 0.0523003 0.216799
1505 4 0.277656 0.0395008 0.231869
1504 2 0.2791 0.0168969 0.221278
24 3 0.418981 0.0796163 0.217055
23 3 0.42374 0.0425509 0.210132
21 1 0.426684 0.0595067 0.225696
22 3 0.414607 0.0544247 0.244603
25 3 0.448724 0.0613207 0.231136
743 4 0.478104 0.0771265 0.251058
579 4 0.128128 0.122683 0.20342
577 2 0.134542 0.116529 0.180049
392 4 0.151682 0.174132 0.209786
546 4 0.161698 0.156999 0.21253
732 4 0.175937 0.114725 0.221312
721 2 0.232607 0.103799 0.228837
723 4 0.251471 0.0929284 0.216542
722 4 0.213744 0.114671 0.241133
730 2 0.180582 0.114919 0.245879
580 2 0.311671 0.101513 0.163538
581 4 0.317026 0.0865547 0.182845
693 4 0.26076 0.0944267 0.199801
28 3 0.32682 0.139412 0.254435
27 3 0.34742 0.111621 0.239741
758 4 0.426522 0.0884437 0.201421
757 2 0.431536 0.0970641 0.178493
759 4 0.43655 0.105684 0.155564
310 2 0.487375 0.15407 0.224329
311 4 0.47181 0.1457 0.206642
312 4 0.502941 0.162441 0.242016
391 2 0.129316 0.171835 0.220727
393 4 0.106951 0.169538 0.231667
544 2 0.183932 0.168084 0.209715
545 4 0.206167 0.17917 0.206901
285 4 0.221412 0.189573 0.21597
284 4 0.243063 0.230843 0.197841
283 2 0.232238 0.210208 0.206905
279 4 0.259474 0.239908 0.19408
419 4 0.488092 0.226737 0.225272
418 2 0.469841 0.237652 0.238423
396 4 0.99774 0.272765 0.172494
647 4 0.0784118 0.328341 0.172854
337 2 0.159723 0.286811 0.17643
339 4 0.135653 0.285147 0.169871
363 4 0.11774 0.285589 0.160434
749 4 0.1024 0.254488 0.23818
733 2 0.153059 0.323146 0.244633
735 4 0.161297 0.300102 0.239507
338 4 0.183794 0.288474 0.182988
343 2 0.215241 0.303682 0.197336
344 4 0.219786 0.292281 0.175552
278 4 0.231085 0.276065 0.174396
345 4 0.210696 0.315083 0.21912
277 2 0.24528 0.257986 0.184238
307 2 0.306946 0.29842 0.211476
309 4 0.310584 0.31885 0.197527
308 4 0.303309 0.27799 0.225424
611 4 0.29692 0.31677 0.180896
610 2 0.276658 0.330602 0.176067
498 4 0.304338 0.276454 0.245093
263 4 0.0325627 0.36936 0.160493
648 4 0.0354558 0.353908 0.174207
646 2 0.0569338 0.341124 0.17353
535 2 0.129327 0.350724 0.16964
536 4 0.12696 0.345332 0.19394
299 4 0.137823 0.366168 0.246753
734 4 0.144821 0.34619 0.249759
728 4 0.289748 0.412762 0.238583
11 1 0.398887 0.351367 0.168988
12 3 0.392725 0.361046 0.188925
542 4 0.401722 0.39442 0.199598
541 2 0.402608 0.39981 0.223998
645 4 0.411185 0.410382 0.19453
543 4 0.403495 0.4052 0.248397
15 3 0.421531 0.352442 0.16681
643 2 0.425934 0.414471 0.174758
416 4 0.128047 0.475287 0.194423
417 4 0.111666 0.435334 0.169201
415 2 0.119856 0.455311 0.181812
768 4 0.219333 0.475568 0.17791
766 2 0.218149 0.471825 0.202604
767 4 0.216966 0.468083 0.227297
303 4 0.284438 0.474566 0.173128
638 4 0.263586 0.471068 0.172203
301 2 0.307949 0.46763 0.17806
302 4 0.331459 0.460693 0.182993
1574 4 0.383095 0.443623 0.179611
1573 2 0.394414 0.460676 0.193972
230 4 0.404103 0.481424 0.228627
1575 4 0.405733 0.47773 0.208333
597 4 0.457787 0.423998 0.161581
447 4 0.464489 0.435764 0.252141
232 2 0.0081146 0.00579745 0.322412
1403 4 0.0327281 0.00133501 0.298538
234 4 0.019953 0.0163764 0.303096
1464 4 0.144283 0.0100289 0.260594
1495 2 0.370119 0.993291 0.29335
1496 4 0.385419 0.00159941 0.311296
1749 4 0.397434 0.0152444 0.304965
1747 2 0.421885 0.0121407 0.309172
480 4 0.457646 0.0241949 0.308139
478 2 0.473006 0.0335019 0.325535
1748 4 0.446336 0.00903693 0.313379
399 4 0.0732266 0.109444 0.32489
530 4 0.0672744 0.12848 0.32881
529 2 0.0683096 0.14979 0.315773
531 4 0.0693449 0.171101 0.302736
513 4 0.0838144 0.176113 0.290586
397 2 0.0920008 0.0941744 0.331179
605 4 0.152386 0.124497 0.327886
604 2 0.167672 0.123266 0.308137
600 4 0.209505 0.173567 0.261298
731 4 0.185226 0.115114 0.270447
606 4 0.182958 0.122036 0.288388
404 4 0.217868 0.124841 0.259524
403 2 0.226997 0.121824 0.282606
405 4 0.236126 0.118807 0.305687
248 4 0.237875 0.108725 0.322826
247 2 0.250317 0.0898313 0.333477
29 3 0.31388 0.103679 0.254728
26 1 0.332733 0.117078 0.256583
30 3 0.342785 0.113603 0.27672
631 2 0.336569 0.098378 0.313002
633 4 0.33901 0.117349 0.296899
707 4 0.346865 0.130324 0.31261
706 2 0.365412 0.146841 0.315504
351 4 0.399315 0.169364 0.30579
708 4 0.383958 0.163359 0.318399
349 2 0.421393 0.159905 0.312736
742 2 0.48441 0.0856116 0.273716
744 4 0.490716 0.0940968 0.296375
333 4 0.476596 0.10723 0.292051
331 2 0.47084 0.126633 0.306733
332 4 0.465083 0.146036 0.321415
350 4 0.443472 0.150446 0.319682
512 4 0.112629 0.167736 0.250582
511 2 0.0982216 0.171925 0.270584
390 4 0.104727 0.229952 0.264136
389 4 0.130225 0.226824 0.30704
388 2 0.117476 0.228388 0.285588
371 4 0.184867 0.217755 0.269711
598 2 0.197593 0.191203 0.274423
370 2 0.182634 0.242659 0.26961
599 4 0.18568 0.208839 0.287547
765 4 0.35827 0.243131 0.282357
764 4 0.374501 0.197468 0.270022
763 2 0.366385 0.2203 0.276189
760 2 0.479986 0.204004 0.320536
420 4 0.45159 0.248567 0.251574
444 4 0.0474304 0.297774 0.323817
616 2 0.0818113 0.318527 0.321424
618 4 0.0666914 0.298945 0.317802
750 4 0.116522 0.290551 0.269815
748 2 0.109461 0.27252 0.253998
676 2 0.13571 0.324006 0.331517
678 4 0.158067 0.313701 0.327139
402 4 0.150128 0.304134 0.311539
400 2 0.160463 0.294258 0.291025
372 4 0.180402 0.267563 0.269509
401 4 0.170799 0.284383 0.270511
510 4 0.245744 0.326751 0.288309
496 2 0.300855 0.287426 0.267289
497 4 0.297371 0.298398 0.289485
377 4 0.303376 0.296064 0.308566
376 2 0.296052 0.27518 0.320202
615 4 0.375064 0.294086 0.324178
2694 4 0.999478 0.386591 0.263371
364 2 0.0127919 0.365837 0.28212
365 4 0.0251298 0.344119 0.280984
603 4 0.0487905 0.404761 0.281728
601 2 0.0585871 0.395143 0.302626
366 4 0.000454025 0.387555 0.283256
602 4 0.0683837 0.385526 0.323523
300 4 0.0933053 0.362836 0.269287
298 2 0.115564 0.364502 0.25802
677 4 0.113354 0.334312 0.335895
617 4 0.0969312 0.338109 0.325047
502 2 0.224222 0.400771 0.315208
508 2 0.233684 0.3419 0.304128
504 4 0.223714 0.375826 0.313565
509 4 0.221625 0.35705 0.319947
727 2 0.288346 0.394108 0.255173
433 2 0.318185 0.36743 0.2961
729 4 0.286945 0.375454 0.271763
434 4 0.303505 0.364204 0.276118
435 4 0.332865 0.370657 0.316081
118 3 0.507895 0.394546 0.282961
446 4 0.418361 0.416781 0.25568
500 4 0.0952572 0.489391 0.315917
414 4 0.178346 0.461026 0.302225
412 2 0.181002 0.462125 0.327063
437 4 0.231763 0.429744 0.298162
503 4 0.22473 0.425715 0.31685
436 2 0.247961 0.448767 0.299126
1436 4 0.280984 0.475116 0.310824
1437 4 0.317068 0.484523 0.277505
438 4 0.264159 0.46779 0.30009
1435 2 0.299026 0.479819 0.294165
229 2 0.401736 0.486602 0.252974
231 4 0.39937 0.49178 0.277321
713 4 0.398778 0.495207 0.29735
445 2 0.441425 0.426273 0.253911
316 2 0.032154 0.0129928 0.370162
318 4 0.0493072 0.0207828 0.353722
1772 4 0.016392 0.00164703 0.407177
720 4 0.0788033 0.000805669 0.407208
428 4 0.0947649 0.0109362 0.399855
398 4 0.110775 0.0789047 0.337467
1699 2 0.249322 0.039228 0.358325
1701 4 0.251394 0.0202015 0.374415
441 4 0.243586 0.013613 0.392147
1700 4 0.24725 0.0582546 0.342236
249 4 0.262759 0.070938 0.344127
698 4 0.338526 0.0694655 0.345933
632 4 0.334129 0.0794071 0.329106
697 2 0.341889 0.0452933 0.351371
699 4 0.345251 0.0211211 0.356809
1518 4 0.364079 0.0176629 0.358938
479 4 0.488367 0.0428088 0.342931
2654 4 0.00207035 0.160413 0.345868
457 2 0.0289594 0.13541 0.402021
458 4 0.0286404 0.159392 0.409088
459 4 0.0292784 0.111428 0.394954
2585 4 0.0162274 0.0968393 0.395022
368 4 0.130563 0.0985555 0.376502
367 2 0.145268 0.112124 0.361507
369 4 0.159973 0.125692 0.346512
472 2 0.238031 0.163045 0.38965
473 4 0.236378 0.153372 0.412648
684 4 0.322236 0.157645 0.379057
467 4 0.335387 0.168808 0.387773
682 2 0.299956 0.160833 0.368166
515 4 0.462115 0.144419 0.402148
453 4 0.469833 0.145535 0.384112
451 2 0.473877 0.142719 0.359599
452 4 0.477922 0.139903 0.335086
347 4 0.0451985 0.227737 0.402154
346 2 0.0244683 0.241402 0.405103
474 4 0.239683 0.172718 0.366653
683 4 0.277675 0.164022 0.357276
715 2 0.327081 0.221589 0.391738
716 4 0.331129 0.234786 0.412585
466 2 0.342687 0.17312 0.411295
717 4 0.323032 0.208391 0.370891
266 4 0.392575 0.241275 0.41067
2516 4 0.495195 0.220462 0.380938
762 4 0.457841 0.193323 0.325085
443 4 0.00498924 0.274797 0.336915
442 2 0.0262098 0.286286 0.330366
276 4 0.233518 0.256525 0.351609
274 2 0.252995 0.259508 0.367001
375 4 0.184176 0.28935 0.361329
373 2 0.192819 0.282458 0.383757
374 4 0.201461 0.275565 0.406184
651 4 0.220951 0.273572 0.41065
378 4 0.288728 0.254296 0.331839
275 4 0.272473 0.262491 0.382393
265 2 0.372241 0.255531 0.413578
613 2 0.383449 0.312764 0.33853
614 4 0.391834 0.331443 0.352882
2926 2 0.00620915 0.374407 0.355634
2927 4 0.0202532 0.39307 0.364559
408 4 0.0835732 0.400379 0.373889
406 2 0.0877363 0.396057 0.398162
548 4 0.0683935 0.394342 0.361568
668 4 0.312535 0.384313 0.397834
635 4 0.295202 0.378058 0.405769
634 2 0.272301 0.372449 0.414093
559 2 0.481482 0.346855 0.402995
561 4 0.48122 0.358932 0.381103
2461 2 0.00191396 0.441297 0.348661
2463 4 0.0252512 0.447496 0.355152
547 2 0.0546392 0.414862 0.357701
549 4 0.0408849 0.435381 0.353834
501 4 0.104985 0.464086 0.357938
499 2 0.100121 0.476738 0.336927
680 4 0.105463 0.4587 0.377737
679 2 0.101836 0.470233 0.399624
568 2 0.165541 0.480031 0.414582
569 4 0.184604 0.470548 0.401473
413 4 0.183658 0.463224 0.351901
5 3 0.333734 0.481382 0.361981
752 4 0.380921 0.424118 0.368115
751 2 0.395184 0.421074 0.388424
594 4 0.419755 0.469851 0.359249
753 4 0.409447 0.41803 0.408734
592 2 0.421555 0.489471 0.374643
588 4 0.426863 0.42885 0.407272
718 2 0.0785774 0.0155847 0.427375
719 4 0.0783514 0.0303638 0.447542
1523 4 0.153205 0.00205497 0.489857
2430 4 0.227116 0.985787 0.469137
341 4 0.189977 0.0720566 0.422375
726 4 0.311919 0.0634993 0.461576
724 2 0.291544 0.0778492 0.463601
432 4 0.326968 0.0630011 0.474936
430 2 0.349936 0.0531755 0.475982
424 2 0.403491 0.0183283 0.476671
426 4 0.389391 0.0367098 0.486078
431 4 0.372905 0.04335 0.477028
939 4 0.0952059 0.0841142 0.446448
938 4 0.122604 0.1171 0.472177
937 2 0.108905 0.100607 0.459312
687 4 0.140981 0.157779 0.42184
1034 4 0.124624 0.127653 0.487132
685 2 0.162607 0.146801 0.427921
1180 2 0.253281 0.0858316 0.504028
340 2 0.183052 0.0949104 0.429786
342 4 0.176127 0.117764 0.437197
686 4 0.184234 0.135824 0.434002
321 4 0.25393 0.146222 0.419221
725 4 0.271168 0.0921991 0.465627
1181 4 0.269162 0.0895718 0.485081
319 2 0.255791 0.156414 0.441977
320 4 0.257653 0.166605 0.464734
514 2 0.443806 0.1458 0.41912
516 4 0.425497 0.147181 0.436092
576 4 0.410559 0.159696 0.436423
469 2 0.998183 0.228652 0.457492
471 4 0.0215501 0.237542 0.457172
468 4 0.349987 0.177432 0.434817
574 2 0.389098 0.172213 0.43924
575 4 0.367637 0.184729 0.442057
641 4 0.38888 0.196136 0.496788
260 4 0.0511032 0.266971 0.466981
259 2 0.0753139 0.261058 0.464966
261 4 0.0995246 0.255146 0.462952
695 4 0.112254 0.266964 0.472235
694 2 0.124496 0.285426 0.48383
696 4 0.136739 0.303888 0.495425
10 3 0.154453 0.312576 0.501322
649 2 0.224472 0.279784 0.434613
650 4 0.227992 0.285996 0.458575
488 4 0.322744 0.27132 0.477783
487 2 0.333085 0.274539 0.455247
267 4 0.351907 0.269788 0.416486
489 4 0.343425 0.277757 0.43271
270 4 0.497511 0.321529 0.425361
584 4 0.437153 0.336481 0.461434
268 2 0.50109 0.305626 0.44432
583 2 0.439313 0.319918 0.48004
935 4 0.0776266 0.413436 0.48562
407 4 0.0918995 0.391735 0.422435
383 4 0.0763358 0.390246 0.43542
326 4 0.164185 0.340748 0.426849
382 2 0.085364 0.402482 0.455267
325 2 0.165302 0.350733 0.449746
384 4 0.0943922 0.414719 0.475115
7 3 0.165522 0.344433 0.485337
327 4 0.166419 0.360717 0.472642
710 4 0.194341 0.364896 0.436295
709 2 0.219117 0.362035 0.438067
711 4 0.243893 0.359175 0.439839
636 4 0.249401 0.36684 0.422418
667 2 0.333369 0.388784 0.410917
774 4 0.251482 0.402962 0.480458
669 4 0.354202 0.393255 0.423999
334 2 0.373727 0.369422 0.444481
336 4 0.37375 0.386527 0.426243
335 4 0.373703 0.352318 0.462718
240 4 0.368846 0.351646 0.482435
3309 4 0.479203 0.415087 0.494293
560 4 0.481744 0.334778 0.424887
1381 2 0.0613152 0.496275 0.445088
1383 4 0.0679469 0.481598 0.464213
540 4 0.0737565 0.477263 0.483023
570 4 0.146478 0.489514 0.427691
538 2 0.0981629 0.480294 0.487531
681 4 0.0982094 0.481765 0.421511
2243 4 0.138475 0.480609 0.50423
772 2 0.243075 0.426055 0.485063
773 4 0.234668 0.449148 0.489668
881 4 0.41655 0.457576 0.492902
880 2 0.400721 0.475975 0.49891
586 2 0.432255 0.436198 0.430555
662 4 0.450505 0.45742 0.46132
587 4 0.437646 0.443546 0.453839
661 2 0.467886 0.44275 0.471705
663 4 0.485268 0.428079 0.48209
1126 2 0.0378614 0.0118585 0.542776
2114 4 0.00432771 0.0259052 0.566162
1127 4 0.0565985 0.0106609 0.526264
1128 4 0.0191243 0.013056 0.559289
1059 4 0.172943 0.0697454 0.562702
1150 2 0.196991 0.0747528 0.535574
1152 4 0.173853 0.0777582 0.544562
841 2 0.380409 0.0467702 0.530437
842 4 0.402623 0.0543372 0.521807
843 4 0.358196 0.0392032 0.539067
90 3 0.4396 0.00568474 0.578784
1033 2 0.120282 0.124566 0.511561
1035 4 0.115939 0.121479 0.53599
1151 4 0.220129 0.0717475 0.526587
1182 4 0.2374 0.0820913 0.522975
411 4 0.245206 0.128967 0.514242
409 2 0.251199 0.146518 0.531011
410 4 0.257192 0.164069 0.54778
898 2 0.349338 0.145725 0.541989
900 4 0.349449 0.126665 0.558172
3158 4 0.409016 0.0932696 0.533267
3157 2 0.42256 0.112777 0.541089
3159 4 0.436104 0.132285 0.548911
1272 4 0.132777 0.198574 0.563047
1270 2 0.148417 0.198149 0.582551
856 2 0.24957 0.213458 0.57415
857 4 0.253748 0.22966 0.55557
792 4 0.31149 0.236393 0.584977
899 4 0.349228 0.164785 0.525807
642 4 0.352497 0.185159 0.529291
871 2 0.386597 0.245741 0.539
873 4 0.403728 0.229816 0.530163
640 2 0.370688 0.190647 0.51304
879 4 0.00977117 0.249118 0.528858
877 2 0.0294598 0.264455 0.52734
878 4 0.0491485 0.279792 0.525822
982 2 0.99843 0.317437 0.572589
6 1 0.154779 0.335245 0.503484
872 4 0.369467 0.261666 0.547838
812 4 0.333715 0.313284 0.544602
813 4 0.351245 0.267083 0.552271
811 2 0.34248 0.290184 0.548436
905 4 0.50174 0.276583 0.577127
585 4 0.441472 0.303355 0.498646
1041 4 0.0853023 0.382189 0.561414
1137 4 0.132145 0.337187 0.565409
9 3 0.133084 0.343433 0.504295
8 3 0.166217 0.341194 0.522776
1136 4 0.0910431 0.363916 0.555565
1135 2 0.111594 0.350551 0.560487
896 4 0.148495 0.327709 0.569739
1039 2 0.09225 0.406207 0.561128
895 2 0.172276 0.335222 0.571531
897 4 0.196056 0.342735 0.573322
1191 4 0.201928 0.362197 0.57391
1189 2 0.226782 0.360097 0.572174
1190 4 0.251637 0.357996 0.570439
804 4 0.262054 0.340839 0.567583
929 4 0.332706 0.388426 0.567478
928 2 0.34781 0.384094 0.548029
930 4 0.362915 0.379763 0.52858
239 4 0.346356 0.3817 0.515474
238 2 0.357601 0.366673 0.498954
926 4 0.468008 0.354008 0.564297
1011 4 0.471496 0.336055 0.572606
925 2 0.485156 0.365819 0.550454
1002 4 0.445644 0.410195 0.542084
3307 2 0.494936 0.402964 0.509482
936 4 0.0760301 0.429908 0.532809
934 2 0.0768283 0.421672 0.509215
1040 4 0.0991977 0.430224 0.560843
539 4 0.122569 0.483325 0.492038
1172 4 0.260105 0.465736 0.583382
1171 2 0.275159 0.44598 0.580506
1454 4 0.337221 0.485084 0.551815
1455 4 0.366778 0.496357 0.513085
1453 2 0.352 0.49072 0.53245
882 4 0.384891 0.494373 0.504919
1001 4 0.429649 0.452373 0.563668
1000 2 0.437647 0.431284 0.552876
1083 4 0.0818427 0.075329 0.654977
1057 2 0.162764 0.0674974 0.585429
1058 4 0.152585 0.0652495 0.608156
824 4 0.23257 0.0388764 0.661383
962 4 0.247131 0.049973 0.613557
961 2 0.268606 0.0371834 0.612903
963 4 0.290081 0.0243937 0.612248
949 2 0.310696 0.0278285 0.649785
951 4 0.297722 0.0205279 0.629696
950 4 0.32367 0.0351292 0.669874
1005 4 0.361479 0.0629016 0.603591
1003 2 0.372616 0.0789105 0.619239
88 3 0.412159 0.999654 0.60385
89 3 0.416484 0.033934 0.58802
86 1 0.427515 0.0150134 0.595683
87 3 0.441737 0.0210835 0.612713
808 2 0.496002 0.0719255 0.644554
3076 2 0.00937064 0.122928 0.603603
1081 2 0.0701905 0.0968136 0.660251
1082 4 0.0585383 0.118298 0.665526
3078 4 0.00910006 0.147202 0.609593
1076 4 0.0537162 0.137539 0.658966
1154 4 0.144267 0.10422 0.61329
1153 2 0.159965 0.112669 0.630822
1032 4 0.225213 0.120665 0.600827
1155 4 0.175663 0.121118 0.648354
1283 4 0.192444 0.130952 0.654747
1031 4 0.248831 0.0824076 0.62272
1030 2 0.237022 0.101536 0.611774
887 4 0.297475 0.149424 0.624056
1004 4 0.383752 0.0949195 0.634887
1141 2 0.381511 0.118907 0.65535
1142 4 0.394717 0.0982679 0.650368
1143 4 0.368304 0.139545 0.660332
3425 4 0.479276 0.155491 0.638887
809 4 0.481347 0.0838221 0.660952
1271 4 0.164056 0.197724 0.602055
948 4 0.15007 0.253778 0.658294
1260 4 0.160885 0.245154 0.644421
1221 4 0.225089 0.195588 0.593523
1219 2 0.20051 0.198637 0.590093
1220 4 0.175931 0.201685 0.586663
1210 2 0.218756 0.171574 0.658338
1212 4 0.241231 0.178705 0.65002
858 4 0.245393 0.197255 0.592729
1258 2 0.172853 0.236471 0.624258
1259 4 0.18482 0.227788 0.604095
886 2 0.276564 0.156559 0.635762
790 2 0.29363 0.249916 0.596083
888 4 0.255654 0.163694 0.647468
1025 4 0.472979 0.171059 0.651141
1024 2 0.459215 0.190346 0.659124
1026 4 0.44545 0.209633 0.667108
906 4 0.482691 0.234487 0.596254
1243 2 0.0246378 0.32359 0.627744
1245 4 0.0106525 0.32595 0.607152
1244 4 0.0386231 0.32123 0.648335
983 4 0.00562455 0.310353 0.595463
791 4 0.27577 0.263438 0.60719
798 4 0.292593 0.275363 0.660558
803 4 0.278681 0.312953 0.605617
802 2 0.270367 0.326896 0.5866
904 2 0.492215 0.255535 0.586691
1010 4 0.473184 0.317531 0.619025
1009 2 0.47234 0.326793 0.595815
952 2 0.451028 0.286857 0.636703
953 4 0.4581 0.307004 0.623694
954 4 0.443956 0.266709 0.649712
992 4 0.136855 0.383544 0.632569
991 2 0.142039 0.377675 0.656315
1067 4 0.211758 0.39527 0.660149
1239 4 0.328379 0.380551 0.584708
806 4 0.335168 0.350907 0.637543
1238 4 0.348689 0.356439 0.623526
1237 2 0.338534 0.368495 0.604117
805 2 0.342769 0.333474 0.653776
1281 4 0.0253881 0.443582 0.654328
1068 4 0.17593 0.427537 0.646885
1066 2 0.193844 0.411404 0.653517
1188 4 0.213111 0.496673 0.608699
1173 4 0.290213 0.426225 0.57763
1029 4 0.284561 0.429924 0.655933
1028 4 0.282691 0.471803 0.683199
1027 2 0.283626 0.450863 0.669566
1953 4 0.318467 0.483485 0.630639
1951 2 0.301239 0.496905 0.61846
891 4 0.327854 0.470558 0.618685
1205 4 0.339845 0.431047 0.654034
890 4 0.33984 0.44867 0.66202
889 2 0.333847 0.459614 0.640352
1268 4 0.453793 0.442454 0.637322
1267 2 0.45308 0.457317 0.657417
2990 4 0.0316184 0.0688438 0.724637
2989 2 0.0081046 0.0613634 0.720597
823 2 0.221926 0.0505104 0.680787
825 4 0.211282 0.0621443 0.700192
1147 2 0.246085 0.0632873 0.728911
1148 4 0.227875 0.0647037 0.711835
1149 4 0.264295 0.061871 0.745986
1092 4 0.314889 0.0262724 0.686055
1090 2 0.302451 0.0176094 0.70594
1091 4 0.290013 0.00894637 0.725825
1049 4 0.2959 0.0131102 0.74415
2283 4 0.404922 0.00194368 0.687053
43 3 0.405095 0.064062 0.726234
1113 4 0.386943 0.0614545 0.733789
42 3 0.397471 0.0783309 0.692309
1216 2 0.41059 0.0403652 0.68011
1217 4 0.410118 0.0648721 0.685046
1218 4 0.411063 0.0158583 0.675174
1111 2 0.380531 0.0433934 0.749847
4227 4 0.474605 0.0206968 0.663284
1164 4 0.424651 0.0728402 0.674105
1075 2 0.0402304 0.142699 0.679378
833 4 0.0288096 0.141991 0.738693
832 2 0.00457132 0.136325 0.741055
864 4 0.0489066 0.147559 0.739566
862 2 0.0609577 0.125943 0.736002
863 4 0.0730089 0.104327 0.732439
1077 4 0.0267446 0.147859 0.699791
945 4 0.137158 0.129401 0.719076
944 4 0.0922178 0.109173 0.727555
943 2 0.114688 0.119287 0.723316
909 4 0.147559 0.146033 0.723539
1211 4 0.19628 0.164443 0.666656
1282 2 0.202924 0.114093 0.669951
907 2 0.171861 0.151554 0.725568
1284 4 0.213403 0.0972344 0.685154
908 4 0.196163 0.157075 0.727597
1227 4 0.213762 0.155763 0.738128
829 2 0.283459 0.118492 0.695579
831 4 0.299145 0.135046 0.705831
830 4 0.267774 0.101939 0.685326
1298 4 0.302811 0.150427 0.719695
41 1 0.394235 0.081155 0.714907
45 3 0.371923 0.0805219 0.719427
44 3 0.403015 0.10168 0.721235
1162 2 0.448132 0.0812889 0.675667
1163 4 0.471613 0.0897376 0.677229
851 4 0.0252378 0.229895 0.723112
850 2 0.00720613 0.239035 0.708397
1178 4 0.0664973 0.249321 0.684671
1179 4 0.0925011 0.22391 0.719005
1177 2 0.0794992 0.236616 0.701838
1106 4 0.0953885 0.222391 0.737913
1065 4 0.224164 0.235874 0.735503
976 2 0.293093 0.226018 0.70693
977 4 0.308772 0.24404 0.699545
978 4 0.277414 0.207996 0.714315
1299 4 0.272271 0.189074 0.711069
1297 2 0.287541 0.16975 0.715382
1193 4 0.320554 0.229824 0.691115
1192 2 0.345275 0.233166 0.689404
1194 4 0.369995 0.236507 0.687692
1044 4 0.370715 0.231322 0.706796
1042 2 0.388301 0.226244 0.723829
1043 4 0.405887 0.221166 0.740863
1208 4 0.0687222 0.318548 0.696022
1207 2 0.0651907 0.294146 0.691871
1209 4 0.0616591 0.269743 0.68772
947 4 0.156856 0.265826 0.706351
946 2 0.153463 0.259802 0.682322
822 4 0.158842 0.33053 0.742989
1063 2 0.243349 0.248534 0.725663
820 2 0.176828 0.340355 0.728667
797 4 0.326483 0.296986 0.6903
796 2 0.309538 0.286175 0.675429
1064 4 0.262534 0.261195 0.715822
807 4 0.350369 0.316042 0.670009
1007 4 0.353656 0.320848 0.689567
1006 2 0.342487 0.328352 0.710641
1262 4 0.415887 0.310967 0.726975
1261 2 0.438492 0.301602 0.721827
1263 4 0.461096 0.292236 0.716679
3123 4 0.478105 0.292089 0.704323
892 2 0.99816 0.386531 0.706437
894 4 0.997316 0.406239 0.721803
993 4 0.147222 0.371805 0.680061
821 4 0.194815 0.350181 0.714345
942 4 0.220371 0.401102 0.678585
940 2 0.225844 0.411114 0.700833
1236 4 0.216791 0.416044 0.737221
1204 2 0.356295 0.415341 0.664422
1008 4 0.331318 0.335856 0.731716
1206 4 0.372745 0.399635 0.674809
1100 4 0.435208 0.400206 0.697747
3329 4 0.491923 0.391139 0.708365
883 2 0.0692674 0.427828 0.732008
1279 2 0.0376155 0.437424 0.67525
1280 4 0.0498429 0.431265 0.696172
884 4 0.0630945 0.438208 0.710114
941 4 0.231318 0.421126 0.723081
1139 4 0.384451 0.422833 0.721921
1138 2 0.364178 0.427381 0.735831
1989 4 0.352955 0.498177 0.742438
1987 2 0.372959 0.493793 0.728091
1988 4 0.392962 0.489408 0.713744
1228 2 0.421145 0.488986 0.69435
1269 4 0.452367 0.472179 0.677511
1229 4 0.445043 0.481739 0.693096
1099 2 0.432998 0.422199 0.709434
1101 4 0.430788 0.444192 0.721121
2988 4 0.490745 0.500864 0.749136
1295 4 0.079337 0.0304672 0.802472
2049 4 0.0845666 0.0182044 0.788172
1294 2 0.0824461 0.0548316 0.80715
1296 4 0.0855551 0.079196 0.811829
1255 2 0.286622 0.0365905 0.814659
1256 4 0.289921 0.0503158 0.794021
1050 4 0.291304 0.0534952 0.773282
1048 2 0.293602 0.0333027 0.758716
1112 4 0.374119 0.0253324 0.765905
845 4 0.441294 0.0749145 0.818149
2440 2 0.4843 0.0166573 0.817015
844 2 0.463614 0.0806336 0.808439
2441 4 0.481366 0.00480968 0.795193
3098 4 0.500363 0.0765877 0.790659
2442 4 0.487234 0.028505 0.838837
1286 4 0.094805 0.081607 0.793942
1203 4 0.148526 0.0966859 0.781887
1287 4 0.133183 0.11044 0.779925
34 3 0.13795 0.158161 0.82399
1285 2 0.113994 0.0960236 0.786933
32 3 0.131469 0.138192 0.792815
31 1 0.121451 0.149374 0.810243
33 3 0.108321 0.134427 0.822186
1201 2 0.161262 0.0920556 0.760875
35 3 0.108506 0.166165 0.801929