ITEM: TIMESTEP
4410000
ITEM: NUMBER OF ATOMS
4590
ITEM: BOX BOUNDS pp pp pp
-9.9985700000000008e+00 9.9985700000000008e+00
-9.9985700000000008e+00 9.9985700000000008e+00
-9.9985700000000008e+00 9.9985700000000008e+00
ITEM: ATOMS id type xs ys zs
702 4 0.102641 0.0325877 0.0405988
567 4 0.102601 0.0134334 0.0361066
700 2 0.119074 0.0478794 0.0516112
701 4 0.135508 0.063171 0.0626236
1841 4 0.150431 0.0572767 0.0758856
1840 2 0.170813 0.0530675 0.0620289
1842 4 0.191196 0.0488584 0.0481721
486 4 0.190387 0.0295918 0.0493418
484 2 0.198185 0.00629284 0.0447018
2180 4 0.326985 0.0236522 0.0667233
2179 2 0.339693 0.0167633 0.0463216
2181 4 0.352401 0.0098744 0.0259198
2469 4 0.453127 0.0175115 0.0563261
2467 2 0.459544 0.0341534 0.073849
148 3 0.481156 0.0817208 0.00214786
986 4 0.467037 0.00506498 0.0500456
657 4 0.025378 0.0874788 0.00324725
2759 4 0.0406808 0.116984 0.00960852
555 4 0.109895 0.149842 0.0345278
553 2 0.113069 0.125315 0.0382083
554 4 0.116242 0.100788 0.0418888
915 4 0.155639 0.158118 0.068192
449 4 0.164182 0.139269 0.0737862
464 4 0.152787 0.138249 0.00210788
448 2 0.172103 0.117505 0.0643658
450 4 0.180024 0.09574 0.0549453
356 4 0.251432 0.104869 0.0730525
722 4 0.255559 0.123972 0.0788256
721 2 0.278309 0.132501 0.0729214
723 4 0.301059 0.14103 0.0670172
693 4 0.314683 0.127366 0.0708265
255 4 0.409504 0.090505 0.0804897
2975 4 0.47013 0.108556 0.0560387
254 4 0.455744 0.0975723 0.0628094
253 2 0.432624 0.0940386 0.0716495
2976 4 0.472817 0.100761 0.00671591
2974 2 0.471473 0.104658 0.0313773
24 3 0.449114 0.141728 0.0793875
3261 4 0.0175191 0.165162 0.0113821
3259 2 0.00511624 0.17755 0.0292117
913 2 0.166569 0.180396 0.0712571
456 4 0.107492 0.203362 0.0563949
835 2 0.111019 0.190662 0.019132
836 4 0.115179 0.205748 0.0386327
454 2 0.120579 0.222978 0.0647093
455 4 0.133666 0.242594 0.0730236
914 4 0.1775 0.202673 0.0743221
580 2 0.194177 0.235496 0.0833431
581 4 0.184523 0.212937 0.0881459
903 4 0.275063 0.187923 0.0278923
901 2 0.275509 0.198181 0.00509419
295 2 0.353037 0.202696 0.0571676
297 4 0.358454 0.214633 0.0358755
360 4 0.351219 0.233689 0.0316612
358 2 0.371595 0.248123 0.0303736
296 4 0.34762 0.19076 0.0784597
2565 4 0.000283778 0.324947 0.059226
3404 4 0.0127507 0.32839 0.0440185
287 4 0.133706 0.260426 0.0654589
293 4 0.191618 0.268833 0.012777
582 4 0.203831 0.258055 0.0785402
294 4 0.196938 0.264325 0.0622956
103 3 0.199927 0.282726 0.0700776
292 2 0.194278 0.266579 0.0375363
422 4 0.174589 0.265816 0.00377698
359 4 0.39197 0.262558 0.0290861
526 2 0.406133 0.329303 0.0535854
528 4 0.394286 0.334462 0.0749913
518 4 0.379015 0.325148 0.0834446
282 4 0.407419 0.257689 0.0159356
280 2 0.412776 0.281819 0.0197091
281 4 0.418133 0.305948 0.0234825
527 4 0.41798 0.324143 0.0321795
2839 2 0.459911 0.323962 0.00610879
3407 4 0.485992 0.2733 0.0259218
3403 2 0.00853353 0.348347 0.0295572
3405 4 0.00431636 0.368303 0.0150959
2512 2 0.157203 0.408825 0.0373164
495 4 0.219234 0.344482 0.0369145
493 2 0.210836 0.342761 0.0134265
2514 4 0.17575 0.39713 0.0252985
969 4 0.201704 0.342302 0.0452303
967 2 0.198781 0.348347 0.0693155
672 4 0.47972 0.342214 0.0414524
670 2 0.484643 0.366684 0.0399737
2841 4 0.468782 0.335929 0.0261906
323 4 0.494738 0.409877 0.0345831
2513 4 0.138656 0.420519 0.0493343
525 4 0.133447 0.418622 0.0691201
551 4 0.150887 0.485372 0.0631194
550 2 0.128386 0.479969 0.0725894
1103 4 0.161377 0.481349 0.0478942
552 4 0.105884 0.474567 0.0820593
1102 2 0.170344 0.500119 0.0340203
243 4 0.280432 0.486741 0.0694539
12 3 0.326734 0.476118 0.0234913
11 1 0.320052 0.494446 0.0113012
15 3 0.299529 0.501179 0.0185189
596 4 0.334087 0.462605 0.0381708
595 2 0.338171 0.475789 0.0590199
658 2 0.406728 0.49617 0.0792513
597 4 0.342254 0.488973 0.0798691
322 2 0.49561 0.429935 0.0196807
2804 4 0.495523 0.464269 0.019184
324 4 0.496482 0.449994 0.00477828
2803 2 0.495891 0.484047 0.00389224
357 4 0.247525 0.0611289 0.0969752
1662 4 0.267943 0.00124757 0.164301
1476 4 0.330669 0.0266571 0.0871364
1474 2 0.314565 0.0132198 0.100748
1475 4 0.298461 0.999782 0.11436
743 4 0.388468 0.0528855 0.157186
742 2 0.40299 0.0690432 0.144808
1748 4 0.368622 0.0515685 0.154173
2468 4 0.46596 0.0507953 0.091372
771 4 0.472624 0.0456433 0.110382
769 2 0.487829 0.0393446 0.129206
235 2 0.143619 0.11836 0.140793
236 4 0.152652 0.137309 0.154377
237 4 0.134587 0.0994112 0.127208
579 4 0.139107 0.152378 0.154481
355 2 0.249479 0.0829987 0.0850138
606 4 0.201746 0.121899 0.142366
604 2 0.223943 0.119477 0.153619
605 4 0.246139 0.117055 0.164872
758 4 0.279614 0.163704 0.135225
757 2 0.272059 0.142859 0.146784
759 4 0.264504 0.122015 0.158343
691 2 0.336966 0.128336 0.0821257
692 4 0.35925 0.129307 0.093425
1506 4 0.40568 0.0977713 0.098493
1504 2 0.389036 0.115963 0.102644
1505 4 0.372392 0.134154 0.106795
25 3 0.486262 0.1356 0.0797913
744 4 0.417512 0.0852009 0.13243
22 3 0.469405 0.149467 0.110064
2894 4 0.487856 0.155297 0.115938
23 3 0.463688 0.113602 0.100386
21 1 0.46722 0.135052 0.0922718
462 4 0.0196994 0.207367 0.0868032
704 4 0.0118194 0.190817 0.0932363
460 2 0.0339646 0.22387 0.0990245
461 4 0.0482298 0.240372 0.111246
732 4 0.223677 0.220859 0.139225
251 4 0.21233 0.234067 0.146833
250 2 0.196209 0.251714 0.154173
730 2 0.240817 0.213493 0.155873
2875 2 0.382611 0.243775 0.0990128
2876 4 0.386984 0.219507 0.103148
378 4 0.392091 0.211063 0.120463
376 2 0.404528 0.215875 0.141614
377 4 0.416966 0.220688 0.162764
623 4 0.0518845 0.258386 0.115847
622 2 0.0660394 0.262246 0.136093
624 4 0.0801943 0.266105 0.15634
286 2 0.147184 0.268855 0.0847585
288 4 0.160662 0.277284 0.104058
477 4 0.158782 0.292866 0.117354
475 2 0.141722 0.30338 0.132307
476 4 0.124662 0.313893 0.14726
755 4 0.119862 0.326539 0.161858
506 4 0.08484 0.248541 0.163921
101 1 0.211869 0.283843 0.0899411
104 3 0.232523 0.293741 0.0862212
105 3 0.214704 0.262925 0.09849
102 3 0.200089 0.296646 0.10499
278 4 0.206183 0.305771 0.121998
277 2 0.214136 0.325046 0.135797
252 4 0.180089 0.269362 0.161513
2877 4 0.378237 0.268043 0.0948778
519 4 0.36229 0.280467 0.0984318
517 2 0.370652 0.302808 0.0909382
309 4 0.44631 0.261918 0.10824
307 2 0.448035 0.277096 0.128036
308 4 0.44976 0.292273 0.147831
498 4 0.438795 0.288995 0.164661
2770 2 0.050742 0.41275 0.166108
2771 4 0.026785 0.410919 0.159188
417 4 0.151818 0.3979 0.122852
363 4 0.13597 0.409198 0.127568
279 4 0.222089 0.344321 0.149596
415 2 0.165031 0.381147 0.109817
1121 4 0.237727 0.354597 0.158101
416 4 0.178244 0.364394 0.0967808
968 4 0.195857 0.354391 0.0934008
1120 2 0.256801 0.35687 0.142095
1122 4 0.275875 0.359143 0.126089
1071 4 0.29426 0.364875 0.11856
1069 2 0.31769 0.361149 0.110665
1070 4 0.34112 0.357424 0.102769
609 4 0.356187 0.371035 0.102629
607 2 0.368465 0.387612 0.116758
608 4 0.380742 0.40419 0.130887
2538 4 0.492342 0.381157 0.147829
2652 4 0.48931 0.347254 0.0982529
2650 2 0.496717 0.356562 0.120245
314 4 0.0139541 0.425555 0.154416
3762 4 0.0683486 0.488489 0.151425
329 4 0.0760884 0.497944 0.137067
328 2 0.0835746 0.487536 0.115601
361 2 0.125443 0.417747 0.148574
330 4 0.0910609 0.477127 0.0941344
523 2 0.139253 0.427672 0.0916936
524 4 0.145059 0.436723 0.114267
768 4 0.139234 0.455238 0.122829
766 2 0.154282 0.469765 0.136529
362 4 0.114916 0.426297 0.169581
767 4 0.16933 0.484292 0.150229
638 4 0.189549 0.479419 0.145706
637 2 0.210487 0.492199 0.140865
626 4 0.31384 0.420686 0.15289
740 4 0.385883 0.421591 0.12355
739 2 0.384642 0.433718 0.145381
741 4 0.3834 0.445845 0.167211
660 4 0.424891 0.485854 0.0929942
3704 4 0.429577 0.46649 0.0927785
1673 4 0.449145 0.467624 0.150662
3703 2 0.430229 0.467392 0.117757
3705 4 0.430882 0.468295 0.142736
234 4 0.000718992 0.061918 0.198853
1747 2 0.361871 0.0326976 0.169123
1749 4 0.35512 0.0138267 0.184072
28 3 0.241147 0.115037 0.183793
516 4 0.258618 0.126486 0.223347
29 3 0.269427 0.125961 0.206715
27 3 0.265264 0.0897344 0.197606
26 1 0.263234 0.111291 0.189837
30 3 0.276813 0.114061 0.171765
514 2 0.276621 0.129675 0.240402
577 2 0.122899 0.169388 0.163034
578 4 0.106691 0.186397 0.171588
507 4 0.0968904 0.202453 0.179134
505 2 0.0908652 0.225497 0.171528
390 4 0.162514 0.236039 0.224611
1221 4 0.0999967 0.172928 0.259151
546 4 0.21327 0.227236 0.208478
544 2 0.19821 0.208391 0.215055
545 4 0.183151 0.189546 0.221632
531 4 0.18225 0.17816 0.23675
731 4 0.257957 0.206126 0.17252
350 4 0.271949 0.211746 0.186506
349 2 0.276828 0.208651 0.210833
351 4 0.281708 0.205556 0.235159
629 4 0.417974 0.211342 0.180747
628 2 0.427138 0.203357 0.202597
332 4 0.429546 0.194236 0.244174
630 4 0.436303 0.195371 0.224447
2591 4 0.471448 0.22257 0.247995
3573 4 0.00954126 0.311023 0.208648
299 4 0.0255527 0.265105 0.236804
2463 4 0.00929782 0.254897 0.243334
756 4 0.0752728 0.320534 0.183687
396 4 0.0623247 0.315242 0.198537
395 4 0.0166946 0.294786 0.198157
394 2 0.0395096 0.305014 0.198347
754 2 0.0975671 0.323536 0.172772
291 4 0.14703 0.332147 0.21006
284 4 0.146524 0.313701 0.201789
283 2 0.159896 0.29986 0.185827
285 4 0.173268 0.286018 0.169866
612 4 0.295362 0.268621 0.214675
610 2 0.278634 0.286296 0.220416
611 4 0.261905 0.30397 0.226156
345 4 0.257099 0.308445 0.2457
497 4 0.432647 0.327702 0.195722
496 2 0.435721 0.308349 0.180191
2772 4 0.074699 0.414582 0.173028
2094 4 0.0791784 0.397805 0.183178
2092 2 0.0817179 0.381219 0.201715
2093 4 0.0842575 0.364633 0.220252
289 2 0.163914 0.350588 0.210181
290 4 0.180798 0.369029 0.210303
735 4 0.190632 0.369096 0.228932
733 2 0.202217 0.366954 0.250986
625 2 0.298068 0.418019 0.172107
244 2 0.271879 0.377348 0.210323
245 4 0.266228 0.357796 0.224848
627 4 0.282295 0.415352 0.191324
246 4 0.277529 0.3969 0.195798
275 4 0.416496 0.339575 0.194444
274 2 0.394713 0.339438 0.206719
387 4 0.36601 0.400261 0.248217
385 2 0.36797 0.376449 0.240846
276 4 0.372931 0.339301 0.218994
386 4 0.369931 0.352638 0.233474
1575 4 0.380362 0.408872 0.236818
2536 2 0.48328 0.396012 0.165784
2537 4 0.474217 0.410867 0.183739
3760 2 0.0713194 0.498093 0.174318
728 4 0.129499 0.438341 0.175632
727 2 0.143796 0.447284 0.194093
729 4 0.158093 0.456227 0.212553
338 4 0.210355 0.492245 0.187075
337 2 0.193533 0.477487 0.19823
339 4 0.176712 0.462729 0.209384
303 4 0.389255 0.463378 0.178748
1716 4 0.405854 0.501926 0.228788
301 2 0.389409 0.477755 0.199205
302 4 0.389562 0.492132 0.219661
714 4 0.468215 0.425368 0.196353
1672 2 0.46036 0.48497 0.164752
713 4 0.429208 0.415977 0.226202
712 2 0.448711 0.420672 0.211277
2862 4 0.435857 0.419848 0.246487
1272 4 0.0484488 0.0696371 0.25858
2848 2 0.030375 0.0406479 0.265093
2850 4 0.0100621 0.0272595 0.259321
2849 4 0.0506878 0.0540362 0.270866
1867 2 0.122322 0.034712 0.30676
1868 4 0.137894 0.0538135 0.310983
429 4 0.145928 0.0517175 0.292743
1869 4 0.106751 0.0156106 0.302537
427 2 0.167269 0.055058 0.28015
393 4 0.22202 0.00301822 0.260992
391 2 0.211123 0.0241425 0.268751
392 4 0.200226 0.0452667 0.27651
428 4 0.18861 0.0583985 0.267557
2643 4 0.250215 0.0238727 0.305979
2641 2 0.258793 0.0254611 0.329412
404 4 0.276834 0.0705663 0.297531
403 2 0.276033 0.0551325 0.277876
405 4 0.275232 0.0396987 0.258221
248 4 0.274418 0.0198995 0.254153
1270 2 0.0512662 0.0943992 0.25656
1220 4 0.0682499 0.134343 0.257136
1271 4 0.0540836 0.119161 0.254539
1219 2 0.0841233 0.153636 0.258143
469 2 0.175955 0.151261 0.313695
470 4 0.174819 0.151188 0.288718
515 4 0.294624 0.132864 0.257458
2910 4 0.306371 0.123141 0.269614
2909 4 0.334869 0.142746 0.305728
2908 2 0.32062 0.132944 0.287671
2657 4 0.330981 0.151587 0.323832
520 2 0.495568 0.0882787 0.250282
521 4 0.49298 0.0938805 0.274512
632 4 0.447509 0.139066 0.283132
633 4 0.489943 0.11265 0.281622
631 2 0.468726 0.125858 0.282377
333 4 0.442361 0.153577 0.270314
761 4 0.454222 0.162825 0.327906
2692 2 0.0572654 0.224643 0.295463
2694 4 0.043522 0.2106 0.310926
2693 4 0.0710089 0.238685 0.28
459 4 0.105114 0.191678 0.255981
458 4 0.133856 0.192623 0.296892
457 2 0.119485 0.19215 0.276437
388 2 0.159055 0.248154 0.246209
530 4 0.167489 0.169615 0.283759
529 2 0.174869 0.173888 0.260255
764 4 0.278031 0.194457 0.251083
763 2 0.285531 0.205708 0.272115
765 4 0.293031 0.216959 0.293147
510 4 0.30504 0.233264 0.298988
508 2 0.319874 0.241139 0.317512
331 2 0.435954 0.173907 0.257244
2590 2 0.484529 0.233476 0.266301
2592 4 0.497611 0.244381 0.284608
298 2 0.0442692 0.258479 0.252002
300 4 0.0629857 0.251854 0.2672
413 4 0.0474436 0.326795 0.278963
389 4 0.155597 0.26027 0.267806
748 2 0.140622 0.28887 0.291365
749 4 0.133282 0.312138 0.296832
750 4 0.147963 0.265602 0.285897
618 4 0.134193 0.308656 0.316722
616 2 0.140647 0.326794 0.332676
343 2 0.256861 0.328423 0.260733
537 4 0.00191188 0.371047 0.251252
412 2 0.0305506 0.341582 0.267956
414 4 0.0136575 0.356368 0.256949
3671 4 0.136965 0.401041 0.324257
734 4 0.213801 0.364812 0.273041
365 4 0.224351 0.357235 0.288174
364 2 0.213768 0.358209 0.310806
366 4 0.203185 0.359183 0.333439
645 4 0.256159 0.359273 0.292088
344 4 0.256622 0.348401 0.275767
643 2 0.270723 0.359416 0.312412
644 4 0.285286 0.359558 0.332736
1381 2 0.0631245 0.467089 0.310439
1382 4 0.060131 0.485028 0.293282
1383 4 0.066118 0.449149 0.327597
3670 2 0.142174 0.423571 0.314747
3672 4 0.147384 0.446101 0.305237
677 4 0.165387 0.454172 0.310318
676 2 0.18214 0.466325 0.324347
1425 4 0.210653 0.493605 0.333481
1573 2 0.377925 0.428603 0.251981
1574 4 0.375489 0.448335 0.267144
1802 4 0.358691 0.460078 0.271213
1801 2 0.350491 0.482856 0.26496
3988 2 0.487511 0.464646 0.294778
3990 4 0.463631 0.457625 0.292409
2861 4 0.448082 0.447639 0.286222
2860 2 0.441969 0.433744 0.266355
2642 4 0.267371 0.0270496 0.352844
480 4 0.259454 0.0435519 0.35839
478 2 0.261585 0.0660569 0.369074
4162 2 0.49357 0.00227577 0.394281
1517 4 0.434476 0.065525 0.396761
1516 2 0.446007 0.0441681 0.402769
4164 4 0.474292 0.0172601 0.399666
2880 4 0.435139 0.0852627 0.39153
1518 4 0.457538 0.0228112 0.408776
420 4 0.484466 0.0769405 0.412323
706 2 0.162976 0.13564 0.378316
708 4 0.160953 0.124163 0.400438
707 4 0.165 0.147117 0.356194
471 4 0.177091 0.151335 0.338673
650 4 0.234034 0.143915 0.373231
649 2 0.240304 0.119735 0.372131
651 4 0.246575 0.0955556 0.371031
479 4 0.263715 0.0885618 0.379759
2656 2 0.339201 0.142869 0.345778
2658 4 0.347421 0.134151 0.367723
1031 4 0.352726 0.120423 0.380302
1030 2 0.373813 0.107586 0.384271
1032 4 0.394899 0.0947494 0.38824
2553 4 0.475336 0.0901346 0.398282
2551 2 0.494663 0.0862429 0.382903
2879 4 0.448127 0.122422 0.360689
762 4 0.459015 0.136538 0.370176
760 2 0.456618 0.149681 0.349041
2878 2 0.441633 0.103842 0.376109
342 4 0.150255 0.214982 0.393203
340 2 0.126135 0.215107 0.386614
402 4 0.14484 0.19716 0.399785
341 4 0.102016 0.215232 0.380024
400 2 0.167381 0.188604 0.406411
401 4 0.189921 0.180047 0.413036
320 4 0.353988 0.232071 0.39424
319 2 0.351953 0.22019 0.416146
2585 4 0.00520248 0.259041 0.362012
374 4 0.214435 0.320062 0.378028
602 4 0.224585 0.324994 0.394282
509 4 0.334707 0.249014 0.336036
717 4 0.349178 0.254867 0.348117
715 2 0.359398 0.263827 0.369104
716 4 0.369618 0.272787 0.390091
488 4 0.379763 0.284797 0.400811
2655 4 0.151174 0.403807 0.336353
2654 4 0.163286 0.357671 0.351371
2653 2 0.15723 0.380739 0.343862
617 4 0.147101 0.344932 0.348631
373 2 0.202351 0.334916 0.361949
375 4 0.190267 0.349771 0.345871
435 4 0.275159 0.371446 0.345493
433 2 0.286668 0.385375 0.362775
434 4 0.298178 0.399305 0.380058
585 4 0.409731 0.393546 0.416675
119 3 0.393048 0.400137 0.423984
583 2 0.420577 0.405826 0.397787
568 2 0.0789999 0.48889 0.405131
2139 4 0.125279 0.416133 0.421879
678 4 0.198893 0.478478 0.338376
615 4 0.296626 0.414603 0.367115
613 2 0.295614 0.439464 0.364645
614 4 0.294602 0.464325 0.362175
2108 4 0.313463 0.469704 0.365692
2107 2 0.329442 0.479491 0.382247
543 4 0.389301 0.447501 0.345701
541 2 0.409742 0.434564 0.352024
2109 4 0.345421 0.489278 0.398801
1485 4 0.38379 0.484097 0.361047
1473 4 0.378162 0.494907 0.345661
1483 2 0.39974 0.49387 0.377638
584 4 0.431424 0.418106 0.3789
542 4 0.430182 0.421626 0.358347
982 2 0.00229802 0.0579922 0.499011
2237 4 0.0164113 0.0250286 0.426712
2236 2 0.0288836 0.0125779 0.444449
726 4 0.212161 0.0831987 0.497585
600 4 0.279374 0.0286477 0.449761
598 2 0.295038 0.0464549 0.441843
3159 4 0.321615 0.0765044 0.424879
599 4 0.310703 0.0642621 0.433924
684 4 0.366494 0.0559772 0.482791
682 2 0.359314 0.0320356 0.48214
1061 4 0.367866 0.0656864 0.464914
1060 2 0.389159 0.0785895 0.467219
683 4 0.352134 0.00809389 0.481488
418 2 0.47816 0.079472 0.436386
1035 4 0.0278065 0.0846326 0.501787
1033 2 0.0423813 0.0970399 0.4857
1034 4 0.0569562 0.109447 0.469612
938 4 0.0707984 0.122903 0.464213
937 2 0.0850956 0.114993 0.445287
939 4 0.0993927 0.107083 0.426361
474 4 0.203877 0.0945237 0.481954
473 4 0.186049 0.105783 0.43661
472 2 0.194963 0.100154 0.459282
3157 2 0.327339 0.0955675 0.440012
2502 4 0.332136 0.123624 0.472081
1062 4 0.410452 0.0914925 0.469524
3158 4 0.333064 0.114631 0.455145
2500 2 0.352663 0.118366 0.485354
2501 4 0.373191 0.113108 0.498626
2516 4 0.419362 0.107696 0.478662
419 4 0.471853 0.0820034 0.460448
2517 4 0.467839 0.100664 0.468598
2515 2 0.443601 0.10418 0.47363
2613 4 0.0681105 0.179571 0.457732
2611 2 0.0796823 0.199555 0.448145
2612 4 0.091254 0.219539 0.438557
2847 4 0.0952829 0.239181 0.438739
825 4 0.146681 0.2383 0.433769
369 4 0.162101 0.22571 0.441004
367 2 0.174155 0.221682 0.462536
371 4 0.201931 0.174009 0.428241
370 2 0.220693 0.189074 0.435038
368 4 0.186209 0.217653 0.484069
372 4 0.239455 0.20414 0.441834
1189 2 0.225167 0.241979 0.450823
1191 4 0.227956 0.219421 0.440404
10 3 0.178409 0.203018 0.495975
321 4 0.349919 0.208309 0.438053
642 4 0.33847 0.216969 0.452108
640 2 0.332662 0.229861 0.472729
641 4 0.326853 0.242752 0.493351
260 4 0.0662332 0.260129 0.489656
259 2 0.0827984 0.27727 0.497203
824 4 0.160826 0.283912 0.418931
2845 2 0.0950722 0.263365 0.445085
444 4 0.0862285 0.305836 0.451454
2846 4 0.0948615 0.287549 0.451431
823 2 0.153754 0.261106 0.42635
442 2 0.090644 0.330398 0.45299
601 2 0.235808 0.326773 0.416554
669 4 0.179637 0.293147 0.420149
667 2 0.184795 0.311642 0.436165
1190 4 0.222378 0.264537 0.461242
1394 4 0.230002 0.275382 0.475332
1393 2 0.24101 0.276998 0.497724
603 4 0.247031 0.328553 0.438826
635 4 0.208405 0.333837 0.459375
811 2 0.330899 0.281197 0.50018
812 4 0.323743 0.261563 0.486451
487 2 0.394612 0.292848 0.419246
489 4 0.409461 0.300899 0.437682
267 4 0.402667 0.284296 0.446838
265 2 0.412401 0.283927 0.469866
266 4 0.422135 0.283559 0.492894
311 4 0.482784 0.25142 0.486415
451 2 0.45788 0.261151 0.502044
453 4 0.439383 0.277875 0.500221
1641 4 0.0681337 0.398929 0.421213
1639 2 0.083384 0.385957 0.436191
709 2 0.160698 0.410568 0.440162
443 4 0.0950594 0.354961 0.454526
1640 4 0.0986343 0.372986 0.451169
668 4 0.189953 0.330137 0.452182
873 4 0.246254 0.34754 0.445231
634 2 0.196353 0.349719 0.474465
711 4 0.179057 0.397738 0.451274
326 4 0.19885 0.402439 0.452611
325 2 0.208595 0.412299 0.47342
636 4 0.184302 0.365601 0.489555
871 2 0.266486 0.345606 0.459795
872 4 0.286718 0.343672 0.474358
117 3 0.371035 0.392864 0.453567
2923 2 0.348126 0.406973 0.477095
118 3 0.356562 0.390771 0.418944
120 3 0.381307 0.36504 0.430913
116 1 0.375537 0.387055 0.43177
2925 4 0.351771 0.390738 0.458432
239 4 0.441301 0.354532 0.497359
569 4 0.0848744 0.470298 0.420783
1446 4 0.166861 0.500321 0.488473
710 4 0.142338 0.423398 0.42905
2137 2 0.111422 0.436642 0.418337
2138 4 0.0975648 0.457151 0.414794
327 4 0.21834 0.422159 0.494228
2244 4 0.171418 0.485502 0.49929
1173 4 0.330614 0.437458 0.496482
2924 4 0.34448 0.423208 0.495758
983 4 0.00827155 0.0811706 0.50624
2314 2 0.212409 0.0393768 0.554007
945 4 0.181459 0.061949 0.570195
2315 4 0.200201 0.0575552 0.566077
1151 4 0.214247 0.0118825 0.527092
2316 4 0.224616 0.0211984 0.541936
1143 4 0.399015 0.0161723 0.536616
842 4 0.386252 0.00110277 0.532387
1141 2 0.415116 0.0314884 0.548077
1142 4 0.431216 0.0468045 0.559539
576 4 0.440555 0.0403265 0.576484
943 2 0.18578 0.0851546 0.578441
724 2 0.22339 0.100871 0.511252
725 4 0.234618 0.118544 0.524918
917 4 0.191197 0.125079 0.574605
1181 4 0.239772 0.117653 0.543423
1180 2 0.25147 0.105637 0.561969
898 2 0.400081 0.137607 0.523504
899 4 0.410432 0.154141 0.539145
900 4 0.38973 0.121072 0.507863
3043 2 0.0927769 0.233499 0.57418
3044 4 0.0991751 0.21154 0.58428
3461 4 0.0968381 0.193007 0.577266
7 3 0.149727 0.195454 0.518625
9 3 0.183665 0.181191 0.526201
6 1 0.172341 0.19955 0.51765
8 3 0.177103 0.218399 0.530317
348 4 0.195689 0.2163 0.537958
346 2 0.201082 0.237122 0.550707
269 4 0.416036 0.17338 0.539477
268 2 0.433505 0.187025 0.551046
270 4 0.450974 0.200669 0.562614
3309 4 0.470665 0.207522 0.567031
3307 2 0.493968 0.20437 0.57553
452 4 0.476378 0.244426 0.503867
3045 4 0.0863787 0.255459 0.56408
935 4 0.101859 0.267975 0.564334
934 2 0.107751 0.287902 0.550427
936 4 0.113643 0.307828 0.53652
696 4 0.1087 0.310939 0.498142
261 4 0.0993636 0.294411 0.50475
694 2 0.115064 0.334449 0.503796
409 2 0.231766 0.283263 0.553022
347 4 0.206475 0.257944 0.563457
411 4 0.213532 0.277044 0.56896
410 4 0.25 0.289482 0.537084
1395 4 0.252018 0.278614 0.520116
813 4 0.338055 0.30083 0.51391
1135 2 0.0724972 0.394021 0.576836
1137 4 0.0901492 0.396483 0.5593
540 4 0.105974 0.408696 0.555914
695 4 0.121428 0.357958 0.50945
774 4 0.199855 0.404906 0.529729
772 2 0.193265 0.383273 0.519063
773 4 0.186674 0.36164 0.508397
240 4 0.413934 0.384057 0.527024
238 2 0.427618 0.369294 0.512192
538 2 0.123244 0.419616 0.541503
539 4 0.140515 0.430535 0.527092
1981 2 0.10442 0.480289 0.559211
2243 4 0.150446 0.442981 0.515191
2171 4 0.111821 0.482865 0.520989
1982 4 0.100833 0.489756 0.536348
2170 2 0.112475 0.500113 0.502899
1983 4 0.108006 0.470823 0.582074
2242 2 0.160932 0.464241 0.50724
1172 4 0.334098 0.446736 0.545497
1027 2 0.337035 0.453197 0.574496
1171 2 0.332356 0.442097 0.520989
1028 4 0.350691 0.455847 0.553719
1239 4 0.408227 0.423073 0.56822
1283 4 0.193219 0.0725713 0.62859
1154 4 0.209471 0.0804597 0.617339
1153 2 0.231983 0.0810361 0.606474
1005 4 0.319308 0.0141799 0.604265
1003 2 0.334727 0.0338567 0.603758
1155 4 0.254496 0.0816124 0.595609
1004 4 0.350146 0.0535336 0.603251
1130 4 0.364454 0.0513349 0.616352
1129 2 0.365137 0.0744174 0.625939
574 2 0.457727 0.0549357 0.587296
3438 4 0.495117 0.0707635 0.597707
575 4 0.474898 0.0695448 0.598108
944 4 0.190101 0.10836 0.586688
918 4 0.172056 0.163215 0.600682
1212 4 0.187441 0.169819 0.614558
916 2 0.181626 0.144147 0.587644
1282 2 0.187395 0.0871347 0.648062
1182 4 0.263168 0.0936216 0.580515
1131 4 0.365819 0.0974998 0.635526
2318 4 0.366575 0.113328 0.649155
2317 2 0.364613 0.137239 0.656198
2319 4 0.36265 0.16115 0.663241
3462 4 0.0745301 0.170052 0.615687
3460 2 0.0856841 0.18153 0.596477
1210 2 0.177953 0.189668 0.62644
1211 4 0.168465 0.209517 0.638321
1259 4 0.18247 0.212582 0.652558
1084 2 0.227343 0.234039 0.650163
1085 4 0.202742 0.238476 0.650703
1086 4 0.251944 0.229601 0.649623
978 4 0.27089 0.23006 0.653366
951 4 0.299441 0.180363 0.655484
976 2 0.277496 0.207078 0.660671
949 2 0.323911 0.177289 0.659599
858 4 0.367146 0.207798 0.584116
857 4 0.406044 0.236635 0.596611
856 2 0.386595 0.222217 0.590364
3418 2 0.00694381 0.317201 0.659759
895 2 0.184032 0.271752 0.664902
897 4 0.197144 0.258708 0.648077
1136 4 0.0548452 0.391559 0.594373
1041 4 0.0342899 0.396569 0.592872
1039 2 0.0207258 0.376675 0.599612
1279 2 0.0560213 0.355644 0.655358
1280 4 0.0799872 0.358603 0.648873
1040 4 0.00716164 0.356781 0.606351
3420 4 0.0202389 0.337955 0.655555
1281 4 0.0320555 0.352684 0.661843
1139 4 0.326128 0.404932 0.66122
891 4 0.341202 0.393215 0.596808
890 4 0.358534 0.375798 0.640362
889 2 0.349868 0.384506 0.618585
804 4 0.419087 0.403638 0.632052
802 2 0.43341 0.386288 0.64296
803 4 0.447733 0.368937 0.653869
806 4 0.437077 0.352768 0.65729
3464 4 0.500846 0.376189 0.655611
2130 4 0.114597 0.457491 0.595693
2129 4 0.139597 0.454126 0.638872
2128 2 0.127097 0.455808 0.617282
942 4 0.153889 0.444905 0.647383
940 2 0.170658 0.433275 0.66183
1206 4 0.32061 0.423178 0.653163
1204 2 0.318258 0.42933 0.629042
1205 4 0.315906 0.435481 0.604921
1029 4 0.32338 0.450546 0.595273
1237 2 0.413527 0.420278 0.592495
3372 4 0.403698 0.49461 0.623093
1238 4 0.418828 0.417484 0.61677
3590 4 0.076015 0.0229038 0.730357
3084 4 0.0810783 0.00743825 0.718165
3589 2 0.0861165 0.0384858 0.7471
1255 2 0.248817 0.0209969 0.668909
1256 4 0.249415 0.0429781 0.680811
959 4 0.258417 0.044329 0.698504
958 2 0.266696 0.0679137 0.69913
888 4 0.443206 0.0206675 0.731527
953 4 0.449443 0.0316185 0.746995
952 2 0.452176 0.0562555 0.74372
834 4 0.0644704 0.105455 0.738519
947 4 0.159671 0.157584 0.692857
851 4 0.143473 0.154049 0.704365
1284 4 0.181571 0.101698 0.667534
946 2 0.171661 0.136107 0.688365
948 4 0.183651 0.114631 0.683874
1022 4 0.229874 0.154811 0.735037
2256 4 0.247867 0.157149 0.728849
1021 2 0.210691 0.153012 0.750972
960 4 0.274976 0.0914984 0.699755
3402 4 0.48575 0.0959738 0.693987
954 4 0.454909 0.0808924 0.740444
1026 4 0.444471 0.0965991 0.7481
850 2 0.124432 0.169255 0.709969
1177 2 0.0979158 0.209291 0.743672
852 4 0.105392 0.184462 0.715572
1178 4 0.109817 0.189482 0.734124
1260 4 0.181135 0.222127 0.701628
1299 4 0.172947 0.216654 0.719365
1297 2 0.171049 0.226064 0.742453
1258 2 0.181803 0.217355 0.677093
2255 4 0.279996 0.176713 0.695899
2254 2 0.263931 0.166931 0.712374
977 4 0.284103 0.184096 0.667975
1043 4 0.327114 0.244976 0.749316
950 4 0.348382 0.174215 0.663715
152 3 0.0185433 0.258508 0.741037
924 4 0.03516 0.269285 0.746735
1067 4 0.0793046 0.293891 0.74549
883 2 0.0431298 0.317833 0.743789
885 4 0.0605865 0.300898 0.74959
992 4 0.152162 0.291388 0.675473
1066 2 0.0877747 0.289066 0.722465
1068 4 0.0962449 0.284241 0.69944
991 2 0.128198 0.294648 0.68182
993 4 0.104234 0.297908 0.688167
896 4 0.170919 0.284797 0.681727
797 4 0.273852 0.331681 0.732691
796 2 0.288086 0.314612 0.721237
1044 4 0.308702 0.278936 0.71756
798 4 0.30232 0.297543 0.709783
1042 2 0.317908 0.261956 0.733438
790 2 0.490049 0.296273 0.681559
791 4 0.465134 0.298244 0.680838
807 4 0.456964 0.317203 0.68628
815 4 0.0376459 0.350116 0.734688
884 4 0.0256732 0.334768 0.737989
814 2 0.0236749 0.369597 0.741792
816 4 0.00970393 0.389078 0.748897
1278 4 0.23609 0.388566 0.731459
1097 4 0.224677 0.383134 0.716419
1096 2 0.211913 0.395047 0.698521
1276 2 0.249525 0.367923 0.735765
1098 4 0.199148 0.40696 0.680623
1277 4 0.262959 0.347279 0.740071
1138 2 0.34244 0.392072 0.675139
1015 2 0.373533 0.37564 0.719311
1017 4 0.378519 0.378836 0.695018
1140 4 0.358753 0.379213 0.689057
1016 4 0.368547 0.372445 0.743603
1019 4 0.367013 0.351929 0.747861
805 2 0.447021 0.334985 0.671785
997 2 0.490762 0.356603 0.739161
941 4 0.187427 0.421646 0.676278
81 1 0.322567 0.48447 0.737902
84 3 0.306308 0.472743 0.726216
82 3 0.342177 0.472453 0.737442
2213 4 0.39426 0.426629 0.732882
2214 4 0.360587 0.463251 0.737955
2212 2 0.377424 0.44494 0.735419
3368 4 0.471693 0.475267 0.715756
3367 2 0.485547 0.491788 0.703096
1213 2 0.0380776 0.0224165 0.803945
1214 4 0.0471658 0.0437384 0.794567
3591 4 0.096218 0.0540678 0.763843
2990 4 0.103417 0.0415597 0.776823
2989 2 0.124255 0.0513194 0.786604
2991 4 0.145094 0.0610792 0.796385
908 4 0.16024 0.0634066 0.810248
907 2 0.179791 0.0522133 0.821094
1970 4 0.322272 0.00692694 0.819923
1037 4 0.335347 0.0205939 0.816144
1036 2 0.349432 0.0404899 0.821706
817 2 0.422167 0.00983645 0.806033
818 4 0.428694 0.0244207 0.825265
832 2 0.0740883 0.11273 0.760422
833 4 0.0837061 0.120005 0.782326
863 4 0.103345 0.127565 0.778179
862 2 0.119004 0.12347 0.797237
864 4 0.134663 0.119375 0.816295
31 1 0.209277 0.147758 0.804958
34 3 0.223611 0.130003 0.800747
32 3 0.200967 0.155511 0.784958
1023 4 0.191508 0.151213 0.766908
35 3 0.220569 0.164552 0.815403
33 3 0.191582 0.140685 0.818197
1024 2 0.444036 0.112593 0.767314
1025 4 0.443602 0.128588 0.786528
923 4 0.0694701 0.236392 0.762277
1179 4 0.0860147 0.2291 0.753219
1298 4 0.169151 0.235473 0.76554
840 4 0.180197 0.249143 0.77807
838 2 0.200367 0.244812 0.792198
839 4 0.220537 0.240481 0.806326
3328 2 0.310797 0.225697 0.783391
3329 4 0.294205 0.213686 0.797731
3330 4 0.327389 0.237709 0.769052
1092 4 0.293463 0.212195 0.818553
922 2 0.052315 0.252839 0.754506
1207 2 0.168725 0.297841 0.813488
1209 4 0.145789 0.288946 0.817962
801 4 0.215581 0.248463 0.824444
1208 4 0.191661 0.306735 0.809014
1064 4 0.191178 0.326235 0.812436
1020 4 0.327885 0.320791 0.748254
3347 4 0.318259 0.281172 0.829752
1051 2 0.395719 0.274483 0.819204
1052 4 0.371133 0.279012 0.818775
3346 2 0.341497 0.289669 0.826147
3348 4 0.364734 0.298166 0.822542
1053 4 0.420305 0.269953 0.819633
867 4 0.433422 0.281566 0.809866
865 2 0.455793 0.292721 0.810412
866 4 0.478163 0.303877 0.810959
1166 4 0.497637 0.308846 0.813344
4209 4 0.00524729 0.399809 0.765349
1063 2 0.200892 0.349198 0.810564
1065 4 0.210607 0.372161 0.808692
1241 4 0.19713 0.382282 0.798146
1240 2 0.182934 0.402755 0.800262
820 2 0.266217 0.414535 0.835228
188 3 0.393834 0.4129 0.748012
1018 2 0.347449 0.33636 0.748057
189 3 0.374346 0.382731 0.760443
186 1 0.386875 0.401198 0.766801
190 3 0.374461 0.414756 0.780244
187 3 0.405411 0.393986 0.778358
1251 4 0.410503 0.410947 0.788834
1119 4 0.372554 0.404516 0.827428
998 4 0.484686 0.351157 0.762796
1250 4 0.45722 0.400406 0.803225
1249 2 0.433861 0.405677 0.796029
1290 4 0.161068 0.41999 0.82089
1242 4 0.168739 0.423229 0.802378
2029 2 0.218647 0.475157 0.787761
2030 4 0.217995 0.455205 0.772706
2031 4 0.219298 0.49511 0.802816
85 3 0.316037 0.487346 0.759529
822 4 0.288397 0.424333 0.829124
1987 2 0.404369 0.454665 0.803815
1989 4 0.398189 0.476674 0.813944
1116 4 0.395356 0.495512 0.822878
1988 4 0.410548 0.432656 0.793685
3011 4 0.463561 0.418645 0.809437
3010 2 0.474072 0.424392 0.831385
829 2 0.115328 0.0125975 0.903063
830 4 0.134994 0.0280308 0.903538
933 4 0.124962 0.0455512 0.905057
912 4 0.221205 0.0039114 0.88557
909 4 0.199342 0.04102 0.831941