ITEM: TIMESTEP
640000
ITEM: NUMBER OF ATOMS
4590
ITEM: BOX BOUNDS pp pp pp
-9.9985700000000008e+00 9.9985700000000008e+00
-9.9985700000000008e+00 9.9985700000000008e+00
-9.9985700000000008e+00 9.9985700000000008e+00
ITEM: ATOMS id type xs ys zs
2576 4 0.000638289 0.0501035 0.0501547
2575 2 0.995817 0.0289832 0.0626392
702 4 0.0862715 0.032217 0.0673867
1666 2 0.094206 0.0277459 0.0272081
1668 4 0.0982982 0.0276214 0.0518743
932 4 0.128046 0.0606546 0.0110359
1667 4 0.0901138 0.0278705 0.00254203
1607 4 0.426506 0.03871 0.0286592
1606 2 0.443931 0.0401001 0.0465376
1608 4 0.461355 0.0414901 0.0644161
746 4 0.459104 0.0590608 0.0756958
3233 4 0.020675 0.133244 0.010892
2760 4 0.0764729 0.128486 0.0867377
591 4 0.0580993 0.123348 0.0809356
2758 2 0.0904019 0.141376 0.0704586
2759 4 0.104331 0.154266 0.0541796
738 4 0.175699 0.158214 0.0665857
356 4 0.222861 0.144302 0.0508966
567 4 0.228829 0.140194 0.0315641
565 2 0.234777 0.15234 0.0105341
492 4 0.242774 0.107721 0.00129691
491 4 0.291054 0.101519 0.012753
557 4 0.307529 0.108475 0.00345361
490 2 0.266914 0.10462 0.00702496
556 2 0.33191 0.105215 0.00793846
665 4 0.342677 0.153316 0.00748253
558 4 0.356291 0.101955 0.0124233
737 4 0.144002 0.195974 0.0749624
475 2 0.1017 0.244672 0.0506899
736 2 0.15985 0.177094 0.0707741
507 4 0.137537 0.21351 0.0671091
477 4 0.109754 0.235859 0.0726592
355 2 0.228143 0.164919 0.0640207
572 4 0.253567 0.239759 0.040992
573 4 0.236985 0.204105 0.0718872
571 2 0.245276 0.221932 0.0564396
357 4 0.233424 0.185535 0.0771447
664 2 0.364016 0.166233 0.00919889
254 4 0.388057 0.19888 0.0138745
666 4 0.385356 0.17915 0.0109153
253 2 0.406063 0.207341 0.998729
2806 2 0.00376264 0.289706 0.998304
476 4 0.0936467 0.253485 0.0287205
294 4 0.123752 0.301817 0.017221
456 4 0.128414 0.309166 0.0355326
292 2 0.138501 0.281692 0.0155974
454 2 0.132018 0.325579 0.0540477
455 4 0.135621 0.341992 0.0725629
293 4 0.153249 0.261566 0.0139738
250 2 0.230314 0.327774 0.0731027
352 2 0.244256 0.259182 0.006255
353 4 0.246815 0.255819 0.030899
252 4 0.210444 0.318403 0.0850416
251 4 0.250184 0.337146 0.0611639
519 4 0.316218 0.307761 0.0631039
517 2 0.330357 0.298105 0.0813261
1071 4 0.39857 0.325254 0.0436737
287 4 0.152241 0.338636 0.0819555
286 2 0.176368 0.335518 0.0877319
483 4 0.258111 0.344684 0.0447597
481 2 0.256101 0.345891 0.0198662
1069 2 0.374686 0.331729 0.0400939
1070 4 0.350802 0.338204 0.0365142
957 4 0.341995 0.35223 0.0260644
955 2 0.348061 0.371585 0.0114432
672 4 0.424495 0.39022 0.0735656
551 4 0.0373846 0.449513 0.0228322
330 4 0.0250305 0.463399 0.0171317
550 2 0.0611768 0.453097 0.0296339
552 4 0.0849689 0.456682 0.0364356
328 2 0.00184914 0.45403 0.0172557
794 4 0.157102 0.476171 0.00203042
1692 4 0.143532 0.490321 0.00330585
241 2 0.249332 0.497547 0.0161776
243 4 0.242597 0.474411 0.00950335
1289 4 0.246092 0.455063 0.0117536
1777 2 0.30309 0.500014 0.077058
1778 4 0.310664 0.503116 0.0534317
493 2 0.395937 0.453664 0.0647491
494 4 0.371842 0.447425 0.0671328
495 4 0.420032 0.459903 0.0623654
379 2 0.0242811 0.0697801 0.149565
381 4 0.0133083 0.063483 0.171132
380 4 0.0352539 0.0760773 0.127998
701 4 0.0795741 0.0247792 0.116382
700 2 0.0829228 0.0284981 0.0918843
450 4 0.0948905 0.0331008 0.128594
448 2 0.11308 0.0426237 0.142864
449 4 0.13127 0.0521466 0.157134
578 4 0.144432 0.0364474 0.159619
577 2 0.167322 0.0389797 0.169355
1566 4 0.203212 0.00260235 0.175631
1474 2 0.304984 0.00780756 0.135962
1476 4 0.313975 0.00839236 0.112638
654 4 0.312418 0.0276122 0.104714
653 4 0.306678 0.0766401 0.0967122
652 2 0.309548 0.0521262 0.100713
1475 4 0.295994 0.00722276 0.159285
297 4 0.326048 0.0843064 0.0982978
1449 4 0.40078 0.999883 0.124438
1783 2 0.405044 0.00226802 0.165462
22 3 0.409948 0.0784695 0.158439
745 2 0.472817 0.0654904 0.0955901
747 4 0.486531 0.0719199 0.115484
590 4 0.0408885 0.091183 0.11514
589 2 0.0494939 0.107266 0.0980376
295 2 0.326199 0.106103 0.110547
296 4 0.32635 0.1279 0.122796
581 4 0.33298 0.118685 0.138799
759 4 0.380642 0.165962 0.162417
580 2 0.342416 0.123207 0.161507
757 2 0.393352 0.145115 0.167807
2793 4 0.432521 0.119009 0.0777732
23 3 0.445459 0.0904642 0.161227
771 4 0.500481 0.0706556 0.130789
2791 2 0.427737 0.127589 0.100766
2792 4 0.422952 0.136168 0.123759
655 2 0.0219381 0.19914 0.103586
657 4 0.0452568 0.199425 0.112605
705 4 0.051751 0.216884 0.105571
703 2 0.0717353 0.227137 0.0945859
505 2 0.142289 0.229402 0.0858183
704 4 0.0917195 0.237391 0.0836006
755 4 0.152672 0.240919 0.123993
462 4 0.211611 0.228868 0.148074
278 4 0.218871 0.21954 0.163637
277 2 0.211037 0.195806 0.164332
279 4 0.203203 0.172071 0.165027
629 4 0.392859 0.181035 0.16665
2895 4 0.480814 0.175974 0.100162
506 4 0.147041 0.245294 0.104528
361 2 0.106016 0.310443 0.162175
754 2 0.15727 0.256505 0.142996
756 4 0.161867 0.27209 0.162
362 4 0.0888195 0.322563 0.148664
460 2 0.226875 0.248058 0.14318
623 4 0.246897 0.276962 0.122389
461 4 0.242139 0.267248 0.138286
288 4 0.200494 0.332399 0.0935084
622 2 0.254529 0.300449 0.126299
624 4 0.262161 0.323936 0.13021
518 4 0.344495 0.28845 0.0995484
12 3 0.355564 0.316544 0.141571
11 1 0.359407 0.324531 0.162798
324 4 0.412049 0.297805 0.119531
15 3 0.346095 0.34263 0.166526
322 2 0.413188 0.322652 0.122076
2840 4 0.46767 0.323598 0.158773
646 2 0.0608877 0.340796 0.155901
648 4 0.036422 0.339711 0.160944
647 4 0.0853534 0.341882 0.150859
609 4 0.205333 0.37559 0.126207
607 2 0.216402 0.361664 0.143778
626 4 0.19984 0.389766 0.139593
625 2 0.18859 0.412042 0.138054
608 4 0.22747 0.347737 0.161348
741 4 0.319099 0.345077 0.113452
740 4 0.269643 0.338758 0.117313
739 2 0.294371 0.341918 0.115382
14 3 0.381726 0.330614 0.164597
323 4 0.414326 0.3475 0.124622
671 4 0.423122 0.35415 0.108175
2839 2 0.467356 0.34248 0.142385
2841 4 0.467043 0.361362 0.125998
2650 2 0.483172 0.394178 0.112223
670 2 0.423809 0.372185 0.0908703
2651 4 0.465817 0.37618 0.112453
2652 4 0.500526 0.412177 0.111994
263 4 0.0682949 0.438489 0.159133
1787 4 0.142924 0.471746 0.0918128
1786 2 0.134847 0.49496 0.0964008
262 2 0.0876452 0.454069 0.156301
264 4 0.106995 0.469649 0.153469
289 2 0.151636 0.445083 0.166265
291 4 0.172465 0.436456 0.155453
627 4 0.177341 0.434319 0.136515
244 2 0.309219 0.434673 0.151962
245 4 0.291476 0.422421 0.164622
1779 4 0.295516 0.496913 0.100684
525 4 0.372054 0.449713 0.0868003
246 4 0.326962 0.446924 0.139302
524 4 0.336113 0.449561 0.12157
523 2 0.354084 0.449637 0.104185
596 4 0.493189 0.428999 0.102329
595 2 0.475096 0.445172 0.0963106
597 4 0.457002 0.461346 0.0902919
659 4 0.450463 0.480015 0.0899471
1402 2 0.00344723 0.0260311 0.244997
1404 4 0.0068031 0.0177957 0.221628
236 4 0.189897 0.0612617 0.180394
579 4 0.190213 0.041512 0.179091
1506 4 0.211645 0.00802401 0.194249
1504 2 0.222563 0.0191281 0.213812
692 4 0.246645 0.045791 0.236037
1505 4 0.233481 0.0302322 0.233374
235 2 0.191541 0.0840465 0.190559
691 2 0.253756 0.0693893 0.231826
1785 4 0.415951 0.99854 0.18765
25 3 0.427909 0.0755776 0.191027
2745 4 0.432536 0.00509131 0.180485
237 4 0.193186 0.106831 0.200724
732 4 0.215524 0.147138 0.213953
722 4 0.233949 0.138238 0.211924
730 2 0.202189 0.141466 0.234328
721 2 0.253174 0.123178 0.217288
693 4 0.260867 0.0929876 0.227615
723 4 0.272399 0.108118 0.222652
28 3 0.300862 0.097887 0.236719
582 4 0.351853 0.127729 0.184216
758 4 0.406062 0.124268 0.173197
24 3 0.417363 0.109444 0.178396
21 1 0.425239 0.0884492 0.17243
392 4 0.10518 0.234684 0.251912
708 4 0.322536 0.182152 0.25067
630 4 0.372362 0.226144 0.173412
628 2 0.382611 0.20359 0.170031
520 2 0.472873 0.255659 0.224324
395 4 0.0253432 0.248488 0.157108
394 2 0.0064541 0.256817 0.171215
363 4 0.123213 0.298323 0.175686
339 4 0.122216 0.291182 0.193435
337 2 0.14333 0.290369 0.206804
338 4 0.164444 0.289555 0.220172
344 4 0.179962 0.302179 0.219033
343 2 0.201454 0.314956 0.218843
309 4 0.26589 0.254236 0.18152
307 2 0.276087 0.266197 0.200966
308 4 0.286284 0.278157 0.220412
496 2 0.315409 0.258372 0.244299
498 4 0.294448 0.269256 0.236093
13 3 0.354497 0.307803 0.17811
527 4 0.482186 0.308817 0.162431
526 2 0.475421 0.294044 0.181435
521 4 0.470354 0.259838 0.199802
528 4 0.468656 0.279271 0.20044
2692 2 0.0109613 0.357253 0.236742
2694 4 0.0320798 0.365363 0.247392
735 4 0.100751 0.33534 0.238752
415 2 0.0810931 0.405882 0.185457
416 4 0.0918441 0.386507 0.197041
536 4 0.0916976 0.35177 0.245323
537 4 0.107666 0.378327 0.206074
535 2 0.0996819 0.365049 0.225698
612 4 0.220527 0.341733 0.179136
345 4 0.222946 0.327733 0.218654
610 2 0.241837 0.347277 0.190981
728 4 0.263996 0.343942 0.220163
611 4 0.263148 0.352821 0.202826
727 2 0.279341 0.352527 0.237941
387 4 0.338529 0.400493 0.181273
385 2 0.354566 0.381968 0.176292
644 4 0.385758 0.349419 0.169156
386 4 0.370602 0.363442 0.171312
643 2 0.403238 0.353767 0.186498
541 2 0.41092 0.390377 0.231179
542 4 0.418163 0.375022 0.212823
645 4 0.420717 0.358114 0.20384
417 4 0.0703421 0.425257 0.173872
1665 4 0.12895 0.472214 0.17131
290 4 0.130807 0.45371 0.177077
1774 2 0.131886 0.497844 0.246785
1663 2 0.129833 0.49688 0.167307
766 2 0.175934 0.497018 0.202266
767 4 0.191934 0.484954 0.187312
301 2 0.299126 0.469183 0.19411
303 4 0.280045 0.484084 0.187861
302 4 0.318207 0.454281 0.20036
638 4 0.288866 0.501764 0.18519
1574 4 0.33645 0.465779 0.195584
1573 2 0.35802 0.477299 0.200797
1575 4 0.379591 0.48882 0.206009
230 4 0.394586 0.481226 0.216806
229 2 0.396691 0.483183 0.241643
2862 4 0.473756 0.496423 0.21573
2860 2 0.478795 0.479518 0.23345
1568 4 0.483627 0.498166 0.197863
674 4 0.0345458 0.0113899 0.26469
427 2 0.12561 0.0294765 0.309596
428 4 0.122722 0.0518458 0.298805
1748 4 0.439768 0.0531441 0.31249
1747 2 0.442991 0.0289005 0.31769
743 4 0.440289 0.0567745 0.333278
529 2 0.0240775 0.134137 0.275762
530 4 0.0220726 0.11372 0.290056
458 4 0.00305758 0.108471 0.288195
531 4 0.0260824 0.154554 0.261469
513 4 0.0411015 0.161173 0.274484
605 4 0.188326 0.136458 0.318494
604 2 0.188894 0.129328 0.294536
606 4 0.189462 0.122198 0.270577
731 4 0.188853 0.135794 0.254704
404 4 0.249256 0.149649 0.311201
600 4 0.238766 0.161504 0.322708
369 4 0.18315 0.121584 0.330337
247 2 0.271858 0.0813878 0.31745
27 3 0.334898 0.100071 0.252514
30 3 0.309927 0.127121 0.258647
26 1 0.312574 0.104715 0.255551
707 4 0.318883 0.137867 0.27361
403 2 0.258187 0.130188 0.29829
405 4 0.267118 0.110728 0.285378
248 4 0.275007 0.0990993 0.300085
29 3 0.304986 0.0931935 0.274208
633 4 0.307341 0.129985 0.288452
631 2 0.311776 0.121757 0.311643
706 2 0.320709 0.160009 0.26214
632 4 0.316211 0.113528 0.334833
420 4 0.421975 0.161159 0.30273
418 2 0.446689 0.163752 0.299961
419 4 0.471403 0.166346 0.297193
2799 4 0.988923 0.223317 0.267255
2655 4 0.994451 0.212587 0.328786
512 4 0.0779967 0.192168 0.287855
511 2 0.0595491 0.176671 0.28117
393 4 0.09241 0.206177 0.290963
391 2 0.0987949 0.22043 0.271437
546 4 0.124798 0.232958 0.255268
544 2 0.148226 0.241691 0.255074
388 2 0.1473 0.236623 0.325654
389 4 0.127891 0.246436 0.337989
283 2 0.205832 0.249768 0.256553
284 4 0.225433 0.234307 0.257938
390 4 0.16671 0.226811 0.313318
372 4 0.225985 0.250613 0.329286
371 4 0.186999 0.225105 0.311115
370 2 0.206492 0.237859 0.320201
497 4 0.33637 0.247487 0.252505
765 4 0.340784 0.186951 0.24365
763 2 0.343877 0.209933 0.253
764 4 0.346971 0.232915 0.262351
349 2 0.409562 0.189722 0.331092
377 4 0.387931 0.238547 0.282763
376 2 0.367676 0.243713 0.296483
351 4 0.412918 0.176822 0.309938
378 4 0.347422 0.248878 0.310204
311 4 0.479548 0.182425 0.287691
310 2 0.493039 0.198719 0.30102
522 4 0.475392 0.251479 0.248847
733 2 0.109593 0.317616 0.254011
734 4 0.118435 0.299892 0.269271
750 4 0.124781 0.263779 0.326084
285 4 0.18623 0.265229 0.255168
545 4 0.171654 0.250424 0.25488
509 4 0.255366 0.325269 0.320062
435 4 0.272117 0.324018 0.30764
433 2 0.283912 0.336493 0.289462
275 4 0.316193 0.321255 0.320758
276 4 0.362369 0.325016 0.301934
613 2 0.396351 0.316216 0.323205
614 4 0.372566 0.321943 0.318041
274 2 0.339281 0.323135 0.311346
366 4 0.0413888 0.353442 0.261729
365 4 0.0759202 0.34315 0.296404
364 2 0.0586545 0.348296 0.279067
618 4 0.0728151 0.342522 0.316301
299 4 0.0763895 0.404384 0.31954
298 2 0.0875105 0.408537 0.297535
616 2 0.0935776 0.35282 0.325684
504 4 0.253977 0.382244 0.340681
502 2 0.255606 0.405077 0.330622
434 4 0.295707 0.348967 0.271284
729 4 0.294685 0.361111 0.255718
543 4 0.403676 0.405731 0.249535
117 3 0.496865 0.343556 0.326534
2923 2 0.478598 0.378392 0.33683
2924 4 0.468485 0.400964 0.333168
499 2 0.0717886 0.479862 0.307701
500 4 0.0566303 0.499154 0.302885
300 4 0.0986316 0.41269 0.275529
501 4 0.086947 0.460569 0.312516
603 4 0.1033 0.427108 0.262673
602 4 0.136525 0.464117 0.267883
601 2 0.119912 0.445613 0.265278
1775 4 0.136475 0.484375 0.267344
680 4 0.0958268 0.453649 0.328494
503 4 0.257235 0.42791 0.320563
437 4 0.265937 0.436183 0.304859
436 2 0.285171 0.434028 0.289029
1436 4 0.321992 0.437279 0.276798
438 4 0.304404 0.431872 0.273198
1 1 0.357057 0.492822 0.327418
446 4 0.397457 0.416386 0.266227
1435 2 0.33346 0.457471 0.286071
231 4 0.398797 0.48514 0.266481
1437 4 0.344928 0.477662 0.295343
5 3 0.343544 0.478931 0.315457
110 3 0.501 0.454663 0.246148
445 2 0.416612 0.424431 0.280138
2861 4 0.483834 0.462613 0.25117
447 4 0.435768 0.432475 0.29405
713 4 0.439565 0.451604 0.2991
712 2 0.437691 0.47653 0.29969
714 4 0.435818 0.501456 0.30028
318 4 0.0824403 0.00905633 0.381359
399 4 0.0810891 0.0292747 0.381823
1479 4 0.130077 0.013011 0.338467
397 2 0.103467 0.0404225 0.381438
398 4 0.125844 0.0515702 0.381054
2428 2 0.213534 0.0279555 0.395408
2429 4 0.221518 0.0509784 0.389805
1701 4 0.236083 0.0607827 0.381666
2430 4 0.20555 0.0049327 0.40101
440 4 0.331546 0.00468998 0.392812
1699 2 0.255972 0.0579983 0.366772
249 4 0.268708 0.0636762 0.334816
1700 4 0.275862 0.055214 0.351878
439 2 0.326361 0.0249857 0.406465
742 2 0.438708 0.0815243 0.33646
342 4 0.129077 0.161999 0.409362
686 4 0.116747 0.153635 0.395939
367 2 0.184492 0.0999388 0.342781
472 2 0.189651 0.156361 0.416154
474 4 0.20381 0.14807 0.397287
368 4 0.185833 0.0782937 0.355226
683 4 0.216491 0.133553 0.393754
682 2 0.241383 0.134252 0.391505
684 4 0.266276 0.13495 0.389256
467 4 0.281473 0.148829 0.393352
466 2 0.29697 0.130422 0.40015
468 4 0.312467 0.112015 0.406948
699 4 0.380652 0.107872 0.35889
698 4 0.334955 0.116457 0.340482
697 2 0.357804 0.112165 0.349686
2642 4 0.452252 0.0872129 0.414947
744 4 0.437128 0.106274 0.339643
333 4 0.440061 0.123895 0.34703
332 4 0.41646 0.134946 0.389709
331 2 0.428261 0.12942 0.36837
478 2 0.473463 0.116914 0.400128
480 4 0.490628 0.135081 0.400851
479 4 0.456299 0.0987471 0.399405
2849 4 0.0243317 0.220828 0.387706
2848 2 0.0172473 0.215581 0.364309
2850 4 0.0101628 0.210335 0.340911
444 4 0.0801256 0.235317 0.362147
346 2 0.0790626 0.224138 0.417638
687 4 0.102187 0.185052 0.35986
685 2 0.109467 0.169343 0.377899
400 2 0.141443 0.236936 0.416734
402 4 0.11906 0.238047 0.405645
347 4 0.102729 0.227547 0.410326
598 2 0.219659 0.167374 0.33773
599 4 0.200552 0.173243 0.352752
649 2 0.240604 0.243965 0.38758
651 4 0.250617 0.229601 0.405429
350 4 0.406207 0.202623 0.352247
452 4 0.423527 0.205012 0.361703
451 2 0.440677 0.196252 0.377649
453 4 0.457828 0.187492 0.393595
762 4 0.495356 0.177403 0.383734
2516 4 0.487687 0.193487 0.39439
515 4 0.450905 0.179277 0.412064
2802 4 0.00431179 0.326519 0.355134
2800 2 0.0189511 0.306933 0.360357
443 4 0.0514323 0.276259 0.36107
2801 4 0.0335904 0.287348 0.365579
442 2 0.0657789 0.255788 0.361609
260 4 0.0993361 0.292531 0.394168
748 2 0.115649 0.282812 0.339484
749 4 0.106518 0.301844 0.352885
650 4 0.230591 0.258328 0.36973
510 4 0.255067 0.307382 0.366759
508 2 0.255216 0.316325 0.343411
636 4 0.259044 0.306048 0.385702
634 2 0.281172 0.312599 0.395326
635 4 0.3033 0.319149 0.404951
668 4 0.314982 0.334905 0.409185
615 4 0.420135 0.310488 0.32837
547 2 0.00675879 0.390574 0.389386
408 4 0.0368506 0.420391 0.389903
548 4 0.0193463 0.411867 0.385738
406 2 0.0532972 0.41606 0.408231
617 4 0.11434 0.363118 0.335068
677 4 0.108461 0.36872 0.353303
676 2 0.126239 0.379177 0.367438
678 4 0.144017 0.389633 0.381572
375 4 0.154968 0.376944 0.390676
373 2 0.166807 0.389528 0.408749
667 2 0.325047 0.357756 0.410493
669 4 0.335111 0.380607 0.411801
752 4 0.372219 0.376675 0.341684
751 2 0.378472 0.395036 0.357462
753 4 0.384725 0.413398 0.373239
2925 4 0.488711 0.35582 0.340492
679 2 0.108424 0.452808 0.350076
681 4 0.121021 0.451967 0.371658
570 4 0.180616 0.484962 0.382305
3 3 0.37543 0.481087 0.335364
560 4 0.403801 0.418572 0.372873
559 2 0.420413 0.43604 0.379516
561 4 0.437024 0.453507 0.386159
588 4 0.436582 0.456532 0.406013
719 4 0.0954947 0.0338403 0.444451
718 2 0.105719 0.056533 0.442069
1151 4 0.248377 0.0485425 0.496673
441 4 0.321177 0.0452815 0.420117
1517 4 0.334747 0.060083 0.424776
432 4 0.340897 0.0464087 0.45806
1516 2 0.350155 0.0782409 0.432396
426 4 0.378636 0.0182345 0.490253
430 2 0.349957 0.0323026 0.47661
431 4 0.359018 0.0181964 0.49516
2641 2 0.460508 0.0685918 0.429448
2643 4 0.468764 0.0499706 0.443948
2880 4 0.48746 0.0527018 0.439275
720 4 0.115944 0.0792257 0.439687
1034 4 0.087492 0.0941164 0.488725
340 2 0.125653 0.144921 0.4273
1035 4 0.119452 0.124972 0.465764
341 4 0.12223 0.127842 0.445238
1033 2 0.103472 0.109544 0.477244
1518 4 0.365564 0.0963989 0.440015
575 4 0.382191 0.106881 0.445123
640 2 0.364849 0.145723 0.477241
642 4 0.373857 0.122599 0.480297
574 2 0.400469 0.116663 0.431145
899 4 0.367834 0.11801 0.499097
576 4 0.418747 0.126445 0.417167
516 4 0.421601 0.142887 0.42989
514 2 0.436253 0.161082 0.420977
471 4 0.018538 0.223534 0.480767
348 4 0.0553962 0.220729 0.42495
469 2 0.0277529 0.221533 0.457609
470 4 0.0369677 0.219533 0.434452
1200 4 0.0228445 0.235482 0.496804
473 4 0.175492 0.164653 0.43502
321 4 0.166632 0.166652 0.452348
401 4 0.163825 0.235825 0.427823
320 4 0.183295 0.187403 0.494685
319 2 0.174963 0.177028 0.473517
717 4 0.24924 0.239154 0.423785
715 2 0.269521 0.245666 0.436878
641 4 0.355841 0.168846 0.474184
695 4 0.0816994 0.283426 0.460707
259 2 0.0923161 0.289656 0.417993
261 4 0.0852961 0.286781 0.441818
694 2 0.0938703 0.290221 0.481465
327 4 0.141059 0.328856 0.480202
710 4 0.153439 0.318255 0.492713
325 2 0.126148 0.329591 0.460145
709 2 0.177935 0.322354 0.489829
773 4 0.217903 0.338458 0.487126
711 4 0.202431 0.326453 0.486946
488 4 0.300495 0.266155 0.439814
716 4 0.289803 0.252179 0.44997
487 2 0.32329 0.276075 0.437137
583 2 0.398112 0.312935 0.494291
267 4 0.362281 0.285126 0.421308
489 4 0.346085 0.285995 0.434461
265 2 0.376789 0.289924 0.441098
584 4 0.384558 0.298443 0.479077
266 4 0.391298 0.294723 0.460889
326 4 0.111236 0.330325 0.440088
772 2 0.239057 0.348954 0.478909
374 4 0.178647 0.402112 0.426822
812 4 0.275617 0.358667 0.482373
811 2 0.296461 0.346048 0.487982
774 4 0.260211 0.35945 0.470692
813 4 0.317305 0.333429 0.493591
334 2 0.354745 0.410184 0.437132
336 4 0.344076 0.397934 0.418125
407 4 0.0697438 0.411729 0.42656
383 4 0.0663497 0.424172 0.442309
382 2 0.0666293 0.431135 0.466322
384 4 0.066909 0.438097 0.490335
240 4 0.366892 0.441875 0.453951
335 4 0.365415 0.422434 0.456139
238 2 0.372492 0.444017 0.478225
662 4 0.439766 0.444938 0.468851
587 4 0.436326 0.459887 0.455907
661 2 0.454736 0.439442 0.488108
586 2 0.436454 0.458209 0.43096
1126 2 0.0237431 0.0180865 0.546314
2237 4 0.0384963 0.0099249 0.514878
1128 4 0.00838924 0.0337166 0.558361
1058 4 0.151458 0.0230372 0.541921
1889 4 0.149663 0.00956048 0.558275
1059 4 0.19329 0.0271976 0.514838
1152 4 0.205456 0.0408456 0.521152
1150 2 0.226916 0.044694 0.508912
1057 2 0.172374 0.0251174 0.528379
1182 4 0.266118 0.0541472 0.501011
1031 4 0.275527 0.0477935 0.55683
962 4 0.275981 0.0310541 0.568074
1030 2 0.272613 0.0705822 0.566697
1180 2 0.280963 0.0741786 0.502898
3157 2 0.353831 0.0624348 0.554974
3158 4 0.359608 0.0407774 0.566054
842 4 0.372314 0.0274414 0.573986
841 2 0.364984 0.00411639 0.568753
3159 4 0.348054 0.0840922 0.543894
900 4 0.366017 0.0821512 0.533904
937 2 0.0619137 0.121418 0.513434
939 4 0.0455531 0.134575 0.527013
3077 4 0.99485 0.112486 0.565521
938 4 0.0782743 0.108261 0.499854
824 4 0.160239 0.131274 0.545371
825 4 0.181997 0.0876847 0.55665
823 2 0.171118 0.109479 0.551011
725 4 0.309203 0.107932 0.510709
724 2 0.320962 0.129901 0.508643
1181 4 0.295807 0.09421 0.504784
726 4 0.33272 0.15187 0.506577
898 2 0.366925 0.10008 0.516501
1198 2 0.00852041 0.253711 0.50617
1271 4 0.140184 0.212856 0.551865
1270 2 0.124052 0.220474 0.534347
1220 4 0.130768 0.200442 0.565244
1272 4 0.107919 0.228092 0.516829
1219 2 0.151273 0.199128 0.579492
858 4 0.188835 0.169538 0.501837
856 2 0.192061 0.178027 0.525132
857 4 0.195288 0.186516 0.548428
409 2 0.215902 0.219597 0.561107
411 4 0.203175 0.198143 0.562817
410 4 0.22863 0.24105 0.559396
792 4 0.354393 0.215185 0.493644
790 2 0.345968 0.233617 0.508288
3065 4 0.498198 0.243394 0.556314
879 4 0.0285318 0.285651 0.535281
877 2 0.028406 0.306841 0.522009
878 4 0.0282802 0.328032 0.508738
10 3 0.106929 0.302607 0.52053
6 1 0.128961 0.301829 0.526243
9 3 0.131914 0.287828 0.544509
7 3 0.136085 0.322971 0.53185
696 4 0.106041 0.297016 0.502222
8 3 0.14153 0.294192 0.508296
791 4 0.337543 0.25205 0.522931
905 4 0.50054 0.262063 0.563458
1039 2 0.0453729 0.397285 0.5672
1040 4 0.0334905 0.416248 0.556047
1136 4 0.0687092 0.37012 0.563302
1041 4 0.0572554 0.378322 0.578352
896 4 0.121795 0.37842 0.577753
1137 4 0.115917 0.359266 0.575724
1135 2 0.0923132 0.364693 0.569513
895 2 0.144181 0.387847 0.571823
1393 2 0.223339 0.385664 0.55177
1395 4 0.222068 0.380056 0.527437
1394 4 0.22461 0.391271 0.576104
897 4 0.166567 0.397275 0.565893
1027 2 0.272344 0.39496 0.583934
1028 4 0.261987 0.410642 0.567443
872 4 0.32377 0.33892 0.512869
585 4 0.411667 0.327426 0.509504
873 4 0.362282 0.359007 0.537649
871 2 0.343026 0.348964 0.525259
269 4 0.421134 0.359369 0.53223
3309 4 0.48769 0.363823 0.542852
270 4 0.468335 0.36603 0.547345
268 2 0.444734 0.362699 0.539788
936 4 0.033549 0.429302 0.541944
934 2 0.0518593 0.433824 0.525529
935 4 0.0701696 0.438346 0.509113
538 2 0.142937 0.493149 0.530819
540 4 0.119175 0.497634 0.537178
539 4 0.166699 0.488664 0.52446
2243 4 0.184927 0.478396 0.525073
2242 2 0.198101 0.495795 0.512869
1173 4 0.249153 0.466818 0.528426
1171 2 0.253493 0.445541 0.54082
1172 4 0.257834 0.424264 0.553214
880 2 0.288185 0.490235 0.522023
881 4 0.265978 0.478774 0.522833
882 4 0.310392 0.501696 0.521212
1455 4 0.327155 0.498295 0.512028
930 4 0.372486 0.451521 0.521158
928 2 0.382638 0.462319 0.541296
239 4 0.378092 0.44616 0.502499
929 4 0.39279 0.473117 0.561433
1330 2 0.475079 0.472616 0.532491
1332 4 0.474061 0.451532 0.519089
1331 4 0.476097 0.493699 0.545894
663 4 0.469706 0.433945 0.507366
2318 4 0.151715 0.0177139 0.618619
2317 2 0.159143 0.0415561 0.619865
2319 4 0.166571 0.0653983 0.62111
2241 4 0.245457 0.0150471 0.642766
1284 4 0.182274 0.0742765 0.631357
951 4 0.246782 0.0352263 0.651105
961 2 0.274159 0.0180208 0.589334
1141 2 0.326735 0.0706965 0.642939
1003 2 0.330823 0.0107104 0.628953
949 2 0.263028 0.0461776 0.66664
1004 4 0.333929 0.0327137 0.640416
963 4 0.272337 0.00498745 0.610595
1142 4 0.341999 0.05099 0.640978
4227 4 0.466145 0.0246009 0.644964
809 4 0.454685 0.0404928 0.64037
808 2 0.467858 0.0499762 0.621351
4225 2 0.481783 0.00596857 0.650749
810 4 0.48103 0.0594596 0.602332
3009 4 0.498064 0.0676757 0.598069
2990 4 0.0180964 0.11355 0.62704
2989 2 0.0282852 0.100629 0.645866
3078 4 0.0186099 0.105231 0.608922
2991 4 0.0384741 0.0877091 0.664693
3076 2 0.00673017 0.108858 0.587222
1282 2 0.178326 0.0987816 0.634373
1155 4 0.181634 0.134242 0.652859
1283 4 0.174378 0.123287 0.637388
1153 2 0.196094 0.149332 0.666586
1032 4 0.2697 0.0933709 0.576565
1143 4 0.311471 0.0904029 0.644899
3426 4 0.476495 0.111467 0.641117
1221 4 0.171777 0.197813 0.593741
1210 2 0.237004 0.176101 0.630443
1211 4 0.218257 0.192248 0.626836
1259 4 0.199511 0.193239 0.633599
1258 2 0.189037 0.209087 0.649857
1260 4 0.178564 0.224936 0.666115
1212 4 0.255751 0.159955 0.63405
1009 2 0.478966 0.23188 0.648233
1011 4 0.486446 0.234587 0.624528
1010 4 0.471486 0.229174 0.671937
796 2 0.311601 0.315736 0.657511
798 4 0.306689 0.297482 0.641145
906 4 0.484131 0.250939 0.609368
952 2 0.451345 0.294469 0.645412
954 4 0.465815 0.294407 0.625021
904 2 0.492335 0.256501 0.586413
993 4 0.134166 0.380602 0.658491
1191 4 0.186817 0.367167 0.617312
1190 4 0.235336 0.359458 0.607979
1189 2 0.211076 0.363313 0.612645
804 4 0.244197 0.345036 0.595681
803 4 0.291636 0.33165 0.604112
802 2 0.267916 0.338343 0.599897
1029 4 0.282701 0.379278 0.600426
1239 4 0.294489 0.368117 0.612729
1237 2 0.314167 0.364634 0.627756
1238 4 0.333845 0.361151 0.642783
807 4 0.396679 0.35526 0.615022
806 4 0.35025 0.362806 0.631996
805 2 0.373465 0.359033 0.623509
927 4 0.479087 0.38668 0.587
925 2 0.475193 0.41057 0.580733
1100 4 0.438978 0.373488 0.640724
1099 2 0.456622 0.388315 0.650421
1007 4 0.440337 0.365121 0.658994
1101 4 0.474266 0.403143 0.660118
3329 4 0.490584 0.392032 0.664767
1159 2 0.171736 0.502087 0.59673
1161 4 0.196691 0.502091 0.595162
890 4 0.348032 0.463132 0.649861
1205 4 0.344387 0.44475 0.64752
889 2 0.345694 0.479004 0.630683
926 4 0.4713 0.43446 0.574466
1001 4 0.471678 0.45375 0.582487
1002 4 0.44784 0.46357 0.625335
1000 2 0.459759 0.45866 0.603911
1268 4 0.429951 0.472311 0.627081
1267 2 0.418976 0.487675 0.643472
2047 2 0.0569278 0.0182487 0.742895
2048 4 0.0635731 0.00390563 0.723522
945 4 0.1406 0.0832786 0.73275
2256 4 0.163497 0.0283107 0.733573
2254 2 0.179793 0.00934845 0.733337
950 4 0.279273 0.0571288 0.682175
1092 4 0.281867 0.0661186 0.699286
1090 2 0.284798 0.054626 0.721297
1091 4 0.28773 0.0431334 0.743309
1216 2 0.378069 0.0178262 0.706788
1217 4 0.3982 0.0290994 0.697155
1164 4 0.398345 0.0345614 0.677367
1218 4 0.357937 0.00655302 0.716422
1163 4 0.448103 0.0297173 0.678521
1162 2 0.423224 0.0321394 0.677944
42 3 0.418618 0.0812189 0.705019
1113 4 0.46344 0.0750338 0.714054
1111 2 0.478728 0.0597322 0.726597
1112 4 0.494015 0.0444305 0.73914
864 4 0.046395 0.0987542 0.678939
862 2 0.0663786 0.102288 0.693546
1081 2 0.00577268 0.138686 0.704539
1083 4 0.0044776 0.16297 0.698725
1082 4 0.00706776 0.114403 0.710354
909 4 0.152086 0.0910014 0.747844
863 4 0.0863622 0.105822 0.708152
943 2 0.117021 0.0904406 0.728521
944 4 0.093441 0.0976027 0.724291
1105 2 0.0966059 0.143527 0.745367
907 2 0.175682 0.0955442 0.740933
830 4 0.201353 0.115347 0.721239
829 2 0.220584 0.128244 0.730674
908 4 0.199278 0.100087 0.734023
831 4 0.239815 0.14114 0.740109
888 4 0.298084 0.154188 0.677457
886 2 0.29435 0.129489 0.676362
1298 4 0.245938 0.155822 0.728721
887 4 0.290617 0.10479 0.675267
1086 4 0.345565 0.136392 0.744795
45 3 0.425286 0.0930455 0.739783
43 3 0.453125 0.0927613 0.714435
3424 2 0.473243 0.125647 0.661453
41 1 0.430435 0.096232 0.717829
44 3 0.424665 0.117764 0.711388
3425 4 0.469992 0.139826 0.681789
1025 4 0.471874 0.15948 0.686938
850 2 0.0359839 0.21216 0.745898
851 4 0.042034 0.201764 0.723978
1106 4 0.0978723 0.16436 0.731599
1179 4 0.0995276 0.182892 0.737588
1177 2 0.114917 0.198247 0.725236
1178 4 0.130307 0.213603 0.712885
946 2 0.156639 0.236663 0.687344
947 4 0.141051 0.23005 0.705741
1154 4 0.210553 0.164422 0.680312
948 4 0.172227 0.243275 0.668947
1299 4 0.268982 0.182178 0.693014
1297 2 0.25746 0.169 0.710868
978 4 0.285305 0.191888 0.688477
976 2 0.302155 0.20995 0.69235
977 4 0.319005 0.228013 0.696223
1193 4 0.33557 0.239787 0.698489
1026 4 0.471293 0.207608 0.673372
1024 2 0.471584 0.183544 0.680155
48 3 0.463875 0.213792 0.727671
46 1 0.455562 0.234262 0.734762
50 3 0.444241 0.244357 0.717774
47 3 0.473163 0.247632 0.741134
1043 4 0.406174 0.321566 0.674251
1192 2 0.343246 0.260433 0.686658
1194 4 0.350922 0.28108 0.674827
1044 4 0.369028 0.288148 0.676268
1042 2 0.387601 0.304857 0.675259
1008 4 0.405567 0.338329 0.682951
953 4 0.436876 0.29453 0.665804
3123 4 0.470813 0.262045 0.725372
1263 4 0.455658 0.260582 0.713451
1261 2 0.441238 0.274901 0.698884
1262 4 0.426818 0.28922 0.684317
3121 2 0.489113 0.278977 0.727254
991 2 0.133662 0.359527 0.671936
992 4 0.133158 0.338452 0.685382
1068 4 0.125089 0.399077 0.662413
822 4 0.186869 0.373176 0.752915
1096 2 0.230338 0.368681 0.74205
1097 4 0.254904 0.366037 0.738215
820 2 0.176386 0.350561 0.75096
797 4 0.316513 0.33399 0.673877
1277 4 0.309882 0.352437 0.709551
1276 2 0.288915 0.351634 0.723149
1278 4 0.267947 0.350831 0.736747
1006 2 0.422952 0.351725 0.670972
3369 4 0.468058 0.348222 0.726715
3367 2 0.479952 0.358685 0.74606
884 4 0.0639858 0.431493 0.732942
1280 4 0.0493849 0.421308 0.722949
1279 2 0.0323264 0.438732 0.717416
1281 4 0.0152679 0.456155 0.711883
1066 2 0.134476 0.418066 0.675698
1067 4 0.143863 0.437055 0.688982
942 4 0.151143 0.449838 0.701059
940 2 0.157268 0.458423 0.72373
941 4 0.163393 0.467008 0.7464
1139 4 0.31518 0.419586 0.69529
1206 4 0.333426 0.422186 0.690781
1138 2 0.304957 0.430696 0.71522
1140 4 0.294734 0.441807 0.735151
1089 4 0.302626 0.459808 0.73791
1087 2 0.283461 0.475655 0.740506
1088 4 0.264296 0.491502 0.743102
1204 2 0.338906 0.433468 0.66915
1295 4 0.0437571 0.0397482 0.778907
1294 2 0.059441 0.037918 0.798293
2049 4 0.0502824 0.0325918 0.762267
1296 4 0.075125 0.0360879 0.81768
1286 4 0.0852721 0.0521296 0.819791
1285 2 0.096497 0.074125 0.815869
1049 4 0.295427 0.0468746 0.760967
1050 4 0.318053 0.0747317 0.795791
1048 2 0.30674 0.0608031 0.778379
966 4 0.326585 0.0621657 0.810982
964 2 0.342381 0.04383 0.817264
1256 4 0.367085 0.00934032 0.815912
965 4 0.358177 0.0254944 0.823546
2322 4 0.459932 0.00086474 0.770492
2441 4 0.488856 0.0185533 0.812597
2320 2 0.465708 0.0148617 0.790389
2321 4 0.471484 0.0288586 0.810286
1107 4 0.0953395 0.122694 0.759134
34 3 0.0926188 0.125476 0.779944
1201 2 0.15095 0.0957329 0.812101
1203 4 0.127013 0.101992 0.808492
1287 4 0.107722 0.0961204 0.811947
32 3 0.126743 0.118229 0.793932
31 1 0.105644 0.125766 0.799145