ITEM: TIMESTEP
5940000
ITEM: NUMBER OF ATOMS
4590
ITEM: BOX BOUNDS pp pp pp
-9.9985700000000008e+00 9.9985700000000008e+00
-9.9985700000000008e+00 9.9985700000000008e+00
-9.9985700000000008e+00 9.9985700000000008e+00
ITEM: ATOMS id type xs ys zs
2251 2 0.0271372 0.0204077 0.00722304
2253 4 0.0313954 0.0449537 0.00935364
555 4 0.0914721 0.0450217 0.00635519
553 2 0.108124 0.0610275 0.996779
486 4 0.197043 0.0212984 0.011486
484 2 0.198057 0.996554 0.0149335
1476 4 0.297241 0.00380525 0.0260774
2468 4 0.49394 0.0265137 0.0246086
2467 2 0.476106 0.0143021 0.0371786
148 3 0.486053 0.0451709 0.0243037
1761 4 0.484593 0.052658 0.0558507
1759 2 0.465605 0.0682587 0.0604599
653 4 0.494464 0.04186 0.0682945
146 1 0.499897 0.0534021 0.00760013
1668 4 0.0147029 0.131009 0.0104411
1842 4 0.160601 0.151938 0.00501116
554 4 0.124776 0.0770332 0.987203
1840 2 0.17588 0.159686 0.0232239
759 4 0.258542 0.136647 0.0828798
757 2 0.240046 0.119991 0.080514
492 4 0.400906 0.0825024 0.00691579
1254 4 0.324085 0.143773 0.0297303
2442 4 0.416054 0.0874265 0.0195171
744 4 0.347696 0.101648 0.0674915
1252 2 0.337354 0.129859 0.0137456
2440 2 0.427153 0.109324 0.0242594
1760 4 0.446617 0.0838593 0.0650691
2441 4 0.438252 0.131222 0.0290017
2976 4 0.436525 0.146048 0.0412081
2974 2 0.454908 0.162104 0.0357795
703 2 0.0655547 0.210396 0.0410554
704 4 0.0750098 0.199033 0.0612213
705 4 0.0560995 0.221759 0.0208895
623 4 0.0697294 0.188107 0.0764016
1841 4 0.191158 0.167435 0.0414366
450 4 0.196329 0.187169 0.0439287
448 2 0.194303 0.207306 0.0586105
449 4 0.192278 0.227444 0.0732924
2876 4 0.341316 0.248959 0.0731607
281 4 0.332037 0.231236 0.0667789
280 2 0.348944 0.214763 0.0585337
359 4 0.378971 0.193664 0.0363398
282 4 0.36585 0.198289 0.0502885
358 2 0.383516 0.201777 0.0131298
2975 4 0.47329 0.178159 0.030351
24 3 0.482219 0.189768 0.0163823
21 1 0.504577 0.192208 0.0106764
969 4 0.0633992 0.297105 0.0429739
462 4 0.0570627 0.292833 0.0612111
460 2 0.0792006 0.281863 0.0650545
967 2 0.0615652 0.315309 0.0259315
461 4 0.101339 0.270894 0.0688979
455 4 0.132709 0.279173 0.0172914
903 4 0.23059 0.307911 0.0742074
901 2 0.248247 0.291706 0.0670804
1292 4 0.328054 0.311484 0.00221199
902 4 0.265904 0.2755 0.0599533
1291 2 0.303388 0.307403 0.00188296
296 4 0.281764 0.272323 0.0698235
1293 4 0.278722 0.303322 0.00155393
1304 4 0.348952 0.309745 0.00260215
1303 2 0.363603 0.329892 0.00475093
968 4 0.0597311 0.333513 0.00888896
287 4 0.115604 0.355105 0.0528954
286 2 0.11897 0.354745 0.0776687
1079 4 0.183263 0.391658 0.0276764
494 4 0.192871 0.390767 0.00974533
1551 4 0.298286 0.40439 0.0580989
1070 4 0.308856 0.387749 0.0609099
607 2 0.381456 0.334782 0.0672001
609 4 0.37465 0.320849 0.0475855
2007 4 0.370638 0.368312 0.00844026
608 4 0.388262 0.348715 0.0868146
309 4 0.418125 0.356781 0.0451478
1305 4 0.378255 0.350038 0.00689972
307 2 0.432586 0.356289 0.0655396
2839 2 0.419756 0.335885 0.0155612
2841 4 0.414731 0.336974 0.0400304
3337 2 0.0766351 0.448032 0.0377131
3338 4 0.0683607 0.427742 0.0256711
2771 4 0.0305646 0.50117 0.0185433
2770 2 0.0163151 0.498929 0.0389666
2772 4 0.00206565 0.496688 0.0593899
3450 4 0.0784254 0.466208 0.0681786
3339 4 0.0849096 0.468323 0.0497552
1078 2 0.193906 0.412961 0.0352979
1080 4 0.204549 0.434264 0.0429195
2377 2 0.201786 0.472987 0.0361538
2378 4 0.196027 0.448887 0.0328112
2379 4 0.207546 0.497088 0.0394964
638 4 0.22404 0.47114 0.0621617
596 4 0.264651 0.415317 0.00602784
595 2 0.251435 0.435403 0.999169
243 4 0.248826 0.49241 0.0329891
1550 4 0.304254 0.451383 0.0420744
1549 2 0.30127 0.427887 0.0500866
12 3 0.325458 0.452953 0.0406409
1863 4 0.296251 0.469971 0.0503908
1861 2 0.296883 0.477916 0.0740901
13 3 0.321577 0.472423 0.00872692
14 3 0.335442 0.48918 0.0398936
11 1 0.334723 0.4695 0.027622
15 3 0.355795 0.463353 0.0215522
357 4 0.20697 0.0466882 0.0989043
355 2 0.216089 0.0698946 0.0970348
405 4 0.234384 0.00261607 0.15986
403 2 0.245613 0.0233203 0.151468
404 4 0.256842 0.0440245 0.143077
2179 2 0.298736 0.045953 0.149379
2180 4 0.322244 0.0426189 0.157216
2181 4 0.275227 0.049287 0.141542
742 2 0.360324 0.0881208 0.0843061
1749 4 0.332571 0.0502916 0.141273
743 4 0.372952 0.0745936 0.101121
1748 4 0.373338 0.0583724 0.113463
1747 2 0.352955 0.054332 0.127368
254 4 0.425158 0.0520172 0.130128
253 2 0.423302 0.073812 0.118016
556 2 0.453468 0.0277096 0.134125
558 4 0.474838 0.0168109 0.127075
652 2 0.491771 0.0301469 0.09022
654 4 0.489077 0.0184337 0.112146
557 4 0.432097 0.0386082 0.141174
578 4 0.138011 0.165918 0.154622
758 4 0.221549 0.103334 0.0781483
356 4 0.225207 0.093101 0.0951653
722 4 0.275165 0.122862 0.0855803
721 2 0.286668 0.13888 0.100952
723 4 0.29817 0.154899 0.116324
693 4 0.304981 0.161993 0.134252
255 4 0.421445 0.0956068 0.105903
691 2 0.328422 0.163014 0.125614
692 4 0.351864 0.164034 0.116976
1505 4 0.413913 0.12186 0.1394
1504 2 0.421237 0.109488 0.159857
2895 4 0.474164 0.152309 0.108805
2600 4 0.491454 0.161848 0.108829
622 2 0.0908943 0.181862 0.0881582
624 4 0.112059 0.175616 0.0999147
506 4 0.131858 0.174637 0.0980175
505 2 0.13378 0.16239 0.119731
507 4 0.135702 0.150143 0.141445
915 4 0.191005 0.22918 0.093755
913 2 0.191958 0.244706 0.113331
354 4 0.291508 0.240804 0.129891
352 2 0.29458 0.217525 0.138483
353 4 0.297653 0.194246 0.147074
297 4 0.291356 0.243071 0.109232
2894 4 0.429866 0.174972 0.113782
2893 2 0.452015 0.16364 0.111293
2797 2 0.0263975 0.293424 0.127972
2799 4 0.0428993 0.281483 0.142473
2798 4 0.00989562 0.305365 0.113471
756 4 0.0386043 0.262448 0.146774
1056 4 0.00387969 0.322062 0.106836
293 4 0.106992 0.261818 0.0857476
292 2 0.121162 0.270975 0.104201
294 4 0.135332 0.280133 0.122654
525 4 0.139809 0.299701 0.120056
523 2 0.135282 0.32429 0.119844
104 3 0.140597 0.267605 0.139876
102 3 0.159472 0.297109 0.126242
103 3 0.156719 0.292669 0.163462
101 1 0.158826 0.281573 0.143193
2513 4 0.238385 0.323609 0.0836275
914 4 0.19291 0.260232 0.132907
105 3 0.178079 0.26941 0.142957
295 2 0.28656 0.257697 0.0895278
519 4 0.304494 0.301928 0.16684
1121 4 0.29403 0.327998 0.139623
2875 2 0.34563 0.26459 0.0921935
2877 4 0.349945 0.28022 0.111226
2568 4 0.509351 0.307327 0.16863
2541 4 0.0316543 0.407274 0.0792523
2539 2 0.0146856 0.395597 0.0934257
2540 4 0.997717 0.38392 0.107599
288 4 0.122337 0.354384 0.102442
524 4 0.130755 0.348879 0.119632
361 2 0.109966 0.380324 0.158286
362 4 0.0869571 0.376583 0.167329
363 4 0.132974 0.384065 0.149242
416 4 0.142632 0.396438 0.16131
415 2 0.163804 0.401307 0.173688
2512 2 0.245059 0.345856 0.0928849
2514 4 0.251733 0.368103 0.102142
2445 4 0.235569 0.379958 0.106637
2443 2 0.220908 0.400011 0.109488
1069 2 0.310655 0.388022 0.0858471
1071 4 0.312454 0.388295 0.110784
1122 4 0.306625 0.371212 0.117837
1120 2 0.300328 0.349605 0.12873
2538 4 0.351914 0.341549 0.166291
308 4 0.447047 0.355797 0.0859313
2652 4 0.457826 0.344793 0.0983535
527 4 0.430896 0.363016 0.145426
2651 4 0.441728 0.346496 0.145668
2650 2 0.449777 0.345644 0.122011
672 4 0.473915 0.347623 0.0860837
526 2 0.423285 0.381377 0.160596
314 4 0.0277732 0.476203 0.134377
313 2 0.0387355 0.463737 0.153074
3449 4 0.0950642 0.468769 0.115267
3448 2 0.0867448 0.467488 0.0917227
2094 4 0.0887405 0.474333 0.133507
2092 2 0.110234 0.465485 0.142721
2093 4 0.131728 0.456637 0.151936
728 4 0.141132 0.47233 0.158176
768 4 0.194445 0.467935 0.14695
2444 4 0.206246 0.420063 0.11234
766 2 0.194139 0.451632 0.127995
767 4 0.193833 0.43533 0.109039
1786 2 0.296433 0.483674 0.129008
1787 4 0.31059 0.474644 0.110483
1862 4 0.297516 0.485861 0.0977893
1788 4 0.282275 0.492705 0.147534
516 4 0.272273 0.00561148 0.219944
514 2 0.294342 0.0163298 0.224766
515 4 0.316411 0.0270481 0.229588
2910 4 0.323961 0.0452631 0.225914
2908 2 0.337537 0.0612219 0.239558
2573 4 0.46818 0.0656538 0.21938
2572 2 0.452658 0.0821665 0.208817
577 2 0.136322 0.149728 0.173601
236 4 0.125106 0.117912 0.203589
237 4 0.112378 0.14204 0.2455
235 2 0.118742 0.129976 0.224545
579 4 0.134634 0.133537 0.19258
604 2 0.279929 0.151075 0.210057
605 4 0.268031 0.135295 0.225374
29 3 0.264733 0.119522 0.237747
606 4 0.291826 0.166856 0.194741
27 3 0.2724 0.0836127 0.229722
2574 4 0.437136 0.0986793 0.198254
1506 4 0.428561 0.0971152 0.180313
630 4 0.442879 0.158458 0.205021
628 2 0.466842 0.161776 0.198702
475 2 0.0440746 0.203287 0.207945
476 4 0.0566147 0.216333 0.19069
477 4 0.0315346 0.190242 0.2252
755 4 0.0420509 0.227588 0.182462
1221 4 0.0475069 0.182365 0.236997
457 2 0.13263 0.182516 0.245392
748 2 0.167377 0.227396 0.225278
459 4 0.14133 0.205779 0.248277
749 4 0.147217 0.222249 0.239144
750 4 0.187537 0.232543 0.211412
732 4 0.243083 0.214445 0.183738
581 4 0.230325 0.224553 0.173205
580 2 0.211877 0.236001 0.185607
582 4 0.19343 0.24745 0.198009
730 2 0.260766 0.196934 0.186158
731 4 0.278449 0.179423 0.188577
250 2 0.279152 0.229187 0.247378
251 4 0.276516 0.242455 0.22635
2517 4 0.331577 0.183228 0.239091
2515 2 0.351635 0.177913 0.225141
2516 4 0.371693 0.172598 0.211191
333 4 0.384835 0.182468 0.219691
331 2 0.409432 0.178585 0.217437
2657 4 0.330787 0.200322 0.248686
377 4 0.507998 0.158948 0.199626
332 4 0.434029 0.174702 0.215183
629 4 0.490805 0.165094 0.192383
754 2 0.0403276 0.245018 0.164618
279 4 0.171477 0.284537 0.175314
277 2 0.18915 0.300138 0.183647
278 4 0.206823 0.31574 0.191981
734 4 0.22542 0.316061 0.184303
351 4 0.292702 0.291771 0.17929
517 2 0.327702 0.311201 0.166076
350 4 0.284269 0.255313 0.212463
349 2 0.288486 0.273542 0.195877
518 4 0.35091 0.320475 0.165311
498 4 0.496301 0.294611 0.173881
275 4 0.4615 0.324979 0.2212
497 4 0.467529 0.306708 0.212951
496 2 0.481915 0.30066 0.193416
274 2 0.457486 0.317786 0.244808
3671 4 0.132579 0.411755 0.236207
417 4 0.184975 0.406176 0.186067
289 2 0.217748 0.394219 0.179977
290 4 0.233463 0.374846 0.181684
733 2 0.231699 0.339538 0.190185
291 4 0.202033 0.413591 0.178269
735 4 0.237978 0.363015 0.196066
2536 2 0.354141 0.354495 0.187566
2537 4 0.356369 0.367442 0.20884
714 4 0.369582 0.370897 0.221744
712 2 0.380683 0.35314 0.235406
713 4 0.391784 0.335384 0.249069
528 4 0.415674 0.399738 0.175766
315 4 0.0496978 0.451271 0.171772
680 4 0.0197271 0.455455 0.228666
681 4 0.0431014 0.44051 0.187061
679 2 0.0314143 0.447982 0.207864
3884 4 0.00271054 0.451166 0.237194
727 2 0.161611 0.466185 0.171138
1383 4 0.117729 0.47209 0.236669
3670 2 0.122548 0.433986 0.230701
3672 4 0.112517 0.456218 0.225195
1381 2 0.096668 0.481512 0.246304
729 4 0.18209 0.460041 0.184101
339 4 0.185805 0.441412 0.191192
337 2 0.19277 0.440336 0.215182
338 4 0.199735 0.439259 0.239172
303 4 0.403067 0.493861 0.193654
1473 4 0.353028 0.489573 0.221157
302 4 0.358316 0.476539 0.207727
301 2 0.380691 0.4852 0.200691
587 4 0.441926 0.473426 0.180951
586 2 0.459364 0.471596 0.198776
588 4 0.476801 0.469766 0.216602
3819 4 0.475343 0.481536 0.232541
3817 2 0.496441 0.494306 0.236662
2850 4 0.0736298 0.00618689 0.286872
2849 4 0.0495013 0.0477022 0.272908
1272 4 0.0300477 0.0430304 0.267058
1270 2 0.00898136 0.056345 0.26503
2848 2 0.0615655 0.0269446 0.27989
469 2 0.170741 0.0605315 0.32515
599 4 0.39495 0.068093 0.303305
1518 4 0.410824 0.0747595 0.313443
1516 2 0.407962 0.0521156 0.323653
431 4 0.476647 0.00258284 0.319716
632 4 0.483835 0.0680102 0.305205
631 2 0.479574 0.0836913 0.324208
1496 4 0.47964 0.00833969 0.338262
1517 4 0.405099 0.0294717 0.333862
1220 4 0.0685786 0.157123 0.274674
458 4 0.12393 0.159253 0.242507
471 4 0.159641 0.0787796 0.312151
707 4 0.159854 0.0968241 0.304301
706 2 0.155114 0.113283 0.322517
708 4 0.150373 0.129742 0.340733
544 2 0.23063 0.104298 0.290106
545 4 0.213262 0.113663 0.305463
531 4 0.204631 0.124202 0.319087
546 4 0.247998 0.0949328 0.274749
26 1 0.274418 0.100007 0.245732
30 3 0.263818 0.0932811 0.264733
28 3 0.296941 0.103536 0.250056
3158 4 0.285973 0.136946 0.318065
3157 2 0.304215 0.148365 0.330794
598 2 0.380834 0.0754435 0.284021
600 4 0.366717 0.082794 0.264737
2909 4 0.351114 0.0771807 0.253203
2484 4 0.0917954 0.171812 0.328259
1219 2 0.0580428 0.169744 0.255835
390 4 0.218159 0.228822 0.320757
284 4 0.237109 0.221981 0.321083
283 2 0.254175 0.217642 0.303332
252 4 0.281787 0.215919 0.268406
285 4 0.27124 0.213303 0.28558
2658 4 0.321955 0.206516 0.297516
2656 2 0.326371 0.203419 0.273101
764 4 0.429391 0.201518 0.335616
710 4 0.0130171 0.26726 0.320457
709 2 0.0302494 0.25713 0.335477
2655 4 0.132583 0.303982 0.302868
2653 2 0.152989 0.310956 0.290214
2654 4 0.173395 0.317931 0.27756
366 4 0.241713 0.306644 0.299071
344 4 0.278294 0.283529 0.256437
365 4 0.265655 0.299997 0.255675
364 2 0.253684 0.30332 0.277373
343 2 0.300809 0.276956 0.265101
612 4 0.342549 0.274467 0.278222
345 4 0.323324 0.270383 0.273764
610 2 0.351625 0.291361 0.294264
1575 4 0.348969 0.324563 0.313693
611 4 0.360702 0.308256 0.310307
2862 4 0.399707 0.330774 0.266001
387 4 0.438041 0.249799 0.288731
385 2 0.446144 0.273232 0.285502
276 4 0.453472 0.310592 0.268416
386 4 0.454247 0.296665 0.282274
246 4 0.24797 0.424485 0.289055
244 2 0.267016 0.423137 0.305199
1573 2 0.366417 0.34127 0.30724
1802 4 0.388082 0.374831 0.290214
1801 2 0.383674 0.398826 0.284739
1574 4 0.383864 0.357977 0.300787
2860 2 0.41563 0.343702 0.280302
1803 4 0.379265 0.422821 0.279264
2861 4 0.431552 0.356629 0.294604
3990 4 0.436554 0.368777 0.309547
3988 2 0.453097 0.386002 0.302145
3989 4 0.46964 0.403228 0.294743
3883 2 0.00352675 0.443426 0.260956
264 4 0.0731634 0.49805 0.275001
1382 4 0.0756069 0.490935 0.255939
1451 4 0.0838141 0.466972 0.332997
1450 2 0.0896084 0.489378 0.323531
677 4 0.203828 0.448951 0.257383
1425 4 0.192464 0.490783 0.308316
678 4 0.195436 0.472713 0.300576
676 2 0.199632 0.460832 0.27898
245 4 0.286062 0.421789 0.321342
751 2 0.353039 0.451671 0.295273
752 4 0.336142 0.470093 0.295824
753 4 0.369936 0.433249 0.294722
4 3 0.332207 0.484347 0.283188
3694 2 0.454086 0.495038 0.271318
3602 4 0.465887 0.417951 0.281204
3696 4 0.473151 0.47934 0.275224
3603 4 0.484516 0.462546 0.268362
3601 2 0.475202 0.440249 0.274783
479 4 0.197299 0.0454291 0.350235
478 2 0.212094 0.0253472 0.351966
470 4 0.181841 0.0422834 0.338149
480 4 0.226889 0.00526524 0.353696
2642 4 0.245594 0.00527153 0.352757
371 4 0.213983 0.0876164 0.393804
2643 4 0.293452 0.0197016 0.354198
2641 2 0.269523 0.0124865 0.353478
684 4 0.419523 0.0271064 0.409689
1062 4 0.420246 0.0214295 0.343785
1495 2 0.481013 0.998009 0.36099
1061 4 0.428556 0.0231026 0.393068
1060 2 0.424401 0.0222661 0.368426
617 4 0.141328 0.144172 0.350429
616 2 0.12088 0.142333 0.3647
618 4 0.100431 0.140494 0.378971
529 2 0.216352 0.130196 0.340344
530 4 0.228073 0.136189 0.361601
651 4 0.236725 0.137046 0.379075
3159 4 0.322456 0.159784 0.343523
649 2 0.252275 0.154479 0.387989
1032 4 0.313531 0.166492 0.360566
650 4 0.267825 0.171912 0.396903
633 4 0.475312 0.0993723 0.343211
2879 4 0.480159 0.0931281 0.362211
2878 2 0.464042 0.108986 0.372885
2880 4 0.447924 0.124844 0.38356
2482 2 0.074819 0.17182 0.346616
341 4 0.0554983 0.171914 0.386306
2483 4 0.0578426 0.171828 0.364973
634 2 0.0816287 0.241698 0.358053
636 4 0.0644396 0.257827 0.349712
711 4 0.0474817 0.247 0.350498
340 2 0.0745018 0.174785 0.4023
635 4 0.0988179 0.225569 0.366393
402 4 0.112506 0.184764 0.41939
342 4 0.0935052 0.177656 0.418294
388 2 0.213092 0.240618 0.342213
1191 4 0.2737 0.186557 0.407921
1030 2 0.334658 0.166649 0.373937
1031 4 0.355786 0.166806 0.387308
763 2 0.408525 0.205027 0.348938
765 4 0.387659 0.208535 0.36226
510 4 0.381621 0.227932 0.357621
3333 4 0.0028075 0.334491 0.40784
389 4 0.208026 0.252414 0.36367
716 4 0.348009 0.329988 0.343911
508 2 0.372336 0.250983 0.354867
717 4 0.349833 0.283825 0.36305
509 4 0.36305 0.274034 0.352112
715 2 0.348921 0.306907 0.353481
320 4 0.375263 0.265989 0.416097
373 2 0.259996 0.398692 0.393226
374 4 0.254002 0.375665 0.400909
375 4 0.26599 0.421718 0.385542
2923 2 0.310641 0.339487 0.407049
2925 4 0.333317 0.349188 0.402941
585 4 0.344064 0.36655 0.405579
583 2 0.341397 0.381984 0.386089
584 4 0.338729 0.397419 0.366599
488 4 0.382194 0.305344 0.381224
487 2 0.38752 0.322305 0.398806
570 4 0.0718699 0.475408 0.345994
2138 4 0.0351779 0.462259 0.391349
569 4 0.0551747 0.460536 0.390725
568 2 0.0635223 0.467972 0.36836
2137 2 0.0317336 0.457574 0.415667
668 4 0.158128 0.43391 0.338497
669 4 0.182177 0.443509 0.381278
667 2 0.170152 0.438709 0.359888
543 4 0.324545 0.410709 0.369515
542 4 0.286433 0.410416 0.337141
541 2 0.305489 0.410562 0.353328
435 4 0.279395 0.43509 0.379939
434 4 0.268754 0.467107 0.41685
433 2 0.274075 0.451098 0.398395
446 4 0.393734 0.485801 0.412259
1484 4 0.40672 0.47283 0.405641
1483 2 0.429204 0.463741 0.411728
165 3 0.0267449 0.0714413 0.431483
161 1 0.0110842 0.0814102 0.444674
2236 2 0.0651446 0.0718739 0.429851
2238 4 0.0869431 0.0707875 0.417652
944 4 0.117474 0.0243332 0.473623
943 2 0.109845 0.0235366 0.497421
1182 4 0.230701 0.0384259 0.466131
1180 2 0.20876 0.0285219 0.459371
1181 4 0.18682 0.0186179 0.452611
1151 4 0.301194 0.00533071 0.488143
2315 4 0.244945 0.0369423 0.479571
2314 2 0.268703 0.0296568 0.482342
2316 4 0.29246 0.0223713 0.485112
1141 2 0.351835 0.0890119 0.495557
760 2 0.449175 0.0596961 0.466257
2551 2 0.495994 0.0147177 0.483695
762 4 0.468238 0.05054 0.479597
2552 4 0.481077 0.0345177 0.480436
761 4 0.430112 0.0688522 0.452918
2237 4 0.0433461 0.0729604 0.442051
2613 4 0.00870835 0.161373 0.463526
2611 2 0.00877189 0.138484 0.453463
163 3 0.0196023 0.101059 0.453606
726 4 0.144702 0.0996648 0.486138
724 2 0.122888 0.11123 0.490085
474 4 0.163139 0.102309 0.491719
472 2 0.17454 0.109033 0.470505
370 2 0.206778 0.0998411 0.414391
473 4 0.18594 0.115757 0.449292
372 4 0.199574 0.112066 0.434978
3174 4 0.412113 0.133916 0.449624
2500 2 0.389685 0.134959 0.494339
1142 4 0.370761 0.103316 0.487658
2502 4 0.389305 0.11022 0.490729
2901 4 0.428326 0.1437 0.455672
3172 2 0.420592 0.110872 0.454343
3173 4 0.429071 0.0878278 0.459061
2585 4 0.00779652 0.211813 0.424242
938 4 0.0216547 0.176485 0.462662
939 4 0.0275485 0.206602 0.423178
937 2 0.0246016 0.191543 0.44292
400 2 0.130139 0.202369 0.417317
401 4 0.147773 0.219974 0.415244
824 4 0.146916 0.230959 0.43228
3462 4 0.162917 0.203687 0.489609
3460 2 0.170693 0.227351 0.491794
1393 2 0.242167 0.216043 0.483496
3461 4 0.178469 0.251014 0.493979
1190 4 0.261142 0.215003 0.447085
1189 2 0.267421 0.20078 0.427503
1394 4 0.24738 0.209159 0.46003
641 4 0.422994 0.2369 0.500753
900 4 0.405189 0.173434 0.502118
640 2 0.419383 0.247132 0.478227
2899 2 0.428566 0.166539 0.445498
2900 4 0.428807 0.189378 0.435325
312 4 0.433929 0.207845 0.439464
310 2 0.454486 0.219916 0.43192
311 4 0.475042 0.231987 0.424376
452 4 0.456 0.256779 0.431459
2636 4 0.0133662 0.341191 0.42302
259 2 0.0648632 0.301565 0.479222
260 4 0.0664053 0.32046 0.462919
2635 2 0.0338095 0.332366 0.434395
2637 4 0.0542528 0.323542 0.445769
825 4 0.143847 0.278328 0.448011
823 2 0.145382 0.254643 0.440146
3044 4 0.189655 0.264574 0.483901
812 4 0.236228 0.322765 0.470883
811 2 0.211239 0.322629 0.471713
813 4 0.186249 0.322492 0.472543
872 4 0.246257 0.337291 0.461678
873 4 0.284214 0.325886 0.431184
871 2 0.265236 0.331588 0.446431
2924 4 0.287966 0.329786 0.411156
319 2 0.392956 0.270912 0.433065
321 4 0.410648 0.275835 0.450033
642 4 0.415772 0.257365 0.4557
451 2 0.46508 0.278653 0.439473
453 4 0.474161 0.300528 0.447487
266 4 0.455665 0.30214 0.456122
265 2 0.441476 0.316857 0.470519
1029 4 0.240046 0.366998 0.491811
1028 4 0.259675 0.411625 0.480682
1027 2 0.249861 0.389311 0.486246
1951 2 0.397765 0.412802 0.452593
489 4 0.392846 0.339266 0.416389
118 3 0.403149 0.34113 0.433262
116 1 0.400667 0.35639 0.450565
890 4 0.407743 0.340402 0.484153
117 3 0.393598 0.345209 0.469384
119 3 0.384764 0.3723 0.444875
1953 4 0.395461 0.389396 0.444106
120 3 0.420594 0.366527 0.454903
267 4 0.427288 0.331575 0.484916
1444 2 0.0702564 0.451246 0.45243
2139 4 0.0282892 0.452888 0.439985
1445 4 0.0474943 0.445738 0.44367
1446 4 0.0930186 0.456754 0.461189
326 4 0.11219 0.460702 0.455723
325 2 0.110666 0.48107 0.470144
327 4 0.109141 0.501439 0.484566
1172 4 0.278908 0.406781 0.478798
1171 2 0.300177 0.413235 0.467346
613 2 0.280092 0.483149 0.444098
1173 4 0.321446 0.419689 0.455894
615 4 0.260162 0.481631 0.429076
614 4 0.300022 0.484666 0.45912
1698 4 0.354677 0.489789 0.46599
2109 4 0.367851 0.495847 0.452931
1696 2 0.331 0.496862 0.462176
2107 2 0.382786 0.476515 0.458259
2108 4 0.397722 0.457183 0.463588
1485 4 0.451688 0.454653 0.417815
661 2 0.490553 0.466815 0.432188
1952 4 0.400069 0.436208 0.46108
662 4 0.470183 0.45561 0.422985
945 4 0.102217 0.0227399 0.521219
958 2 0.271618 0.0358351 0.569102
2240 4 0.307839 0.0329783 0.546703
960 4 0.288593 0.0374326 0.550814
2239 2 0.31213 0.0487259 0.527761
2241 4 0.316422 0.0644735 0.50882
1143 4 0.332909 0.0747079 0.503456
574 2 0.459987 0.0290736 0.549064
575 4 0.462607 0.0508109 0.536989
2507 4 0.479749 0.0542644 0.546186
2506 2 0.496546 0.0720216 0.540921
576 4 0.457366 0.00733632 0.561139
9 3 0.0733319 0.149557 0.516343
725 4 0.101074 0.122795 0.494032
8 3 0.104758 0.128472 0.512839
6 1 0.0954111 0.147099 0.523041
7 3 0.0959786 0.144154 0.545848
917 4 0.111946 0.144608 0.558327
368 4 0.127244 0.167449 0.51773
916 2 0.12941 0.15051 0.57522
2501 4 0.390065 0.159698 0.49795
1261 2 0.49752 0.126117 0.547549
1262 4 0.480858 0.143797 0.553463
3308 4 0.472577 0.15789 0.565824
10 3 0.107307 0.165736 0.517586
367 2 0.142176 0.177104 0.500152
369 4 0.157108 0.186758 0.482573
410 4 0.227308 0.232593 0.520731
409 2 0.223829 0.245596 0.541802
1395 4 0.236954 0.222926 0.506961
857 4 0.323139 0.174492 0.585741
899 4 0.425824 0.218386 0.50948
898 2 0.415506 0.19591 0.505799
2847 4 0.0374077 0.312936 0.553248
2845 2 0.046967 0.301111 0.5334
2846 4 0.0565263 0.289286 0.513551
3236 4 0.0310031 0.299946 0.567939
3235 2 0.0128923 0.299864 0.585178
261 4 0.0633212 0.282671 0.495526
442 2 0.151894 0.321468 0.533659
443 4 0.16293 0.299435 0.529424
444 4 0.140858 0.343501 0.537894
3045 4 0.172477 0.301766 0.51258
411 4 0.220349 0.258599 0.562873
3043 2 0.181066 0.28317 0.49824
2242 2 0.0640342 0.404193 0.544178
2244 4 0.080456 0.397801 0.52644
538 2 0.0152893 0.423361 0.565093
2243 4 0.0476123 0.410584 0.561917
695 4 0.0845173 0.378599 0.528288
696 4 0.127042 0.352297 0.527531
694 2 0.10578 0.365448 0.52791
772 2 0.179144 0.352143 0.571083
603 4 0.185927 0.36439 0.532
774 4 0.185568 0.350892 0.546951
601 2 0.205065 0.369865 0.516869
602 4 0.224204 0.37534 0.501739
891 4 0.411985 0.345401 0.533729
889 2 0.409864 0.342901 0.508941
1238 4 0.459596 0.334593 0.566708
1239 4 0.417105 0.355544 0.550697
804 4 0.477329 0.34197 0.563263
802 2 0.490427 0.358338 0.576889
1237 2 0.43835 0.345068 0.558703
539 4 0.0397044 0.428581 0.563743
3183 4 0.349744 0.505257 0.604395
1153 2 0.198768 0.0891664 0.653456
1155 4 0.205733 0.0866101 0.629579
1255 2 0.226114 0.058272 0.602993
1257 4 0.216909 0.0779439 0.615382
959 4 0.254643 0.0342376 0.587391
1256 4 0.235319 0.0386001 0.590605
963 4 0.346853 0.0147907 0.591708
1003 2 0.370367 0.0604146 0.646514
1005 4 0.363781 0.0492659 0.667904
1026 4 0.407649 0.0690648 0.648968
966 4 0.358599 0.0601078 0.684804
953 4 0.475651 0.0209025 0.662593
952 2 0.476684 0.00543186 0.642977
1024 2 0.430249 0.0702893 0.659594
1025 4 0.452849 0.0715137 0.67022
1211 4 0.158764 0.150998 0.607859
918 4 0.146873 0.156413 0.592113
1210 2 0.164367 0.164346 0.628246
856 2 0.32478 0.149928 0.590112
858 4 0.326421 0.125365 0.594482
1004 4 0.376952 0.0715632 0.625125
1130 4 0.365598 0.0795957 0.610887
1131 4 0.325343 0.106371 0.59811
1129 2 0.345471 0.0929836 0.604499
3307 2 0.474369 0.152453 0.590163
268 2 0.479929 0.0955505 0.659272
270 4 0.491589 0.110404 0.642882
1212 4 0.169969 0.177693 0.648633
2255 4 0.202926 0.172063 0.643929
2318 4 0.321345 0.189165 0.59761
949 2 0.279782 0.253055 0.607695
950 4 0.293114 0.245157 0.588073
2319 4 0.289076 0.225584 0.586074
2317 2 0.30521 0.207375 0.591842
3309 4 0.476162 0.147017 0.614503
2997 4 0.49317 0.153439 0.621272
3386 4 0.00260847 0.300763 0.66264
3038 4 0.0621822 0.279644 0.650859
3037 2 0.041446 0.289238 0.661016
3385 2 0.992952 0.304161 0.639828
3419 4 0.0737701 0.277763 0.634241
348 4 0.164906 0.252486 0.586845
3418 2 0.0799619 0.300329 0.62543
3420 4 0.0861538 0.322894 0.616619
346 2 0.171901 0.276461 0.585635
347 4 0.178897 0.300436 0.584425
934 2 0.214095 0.31126 0.599058
935 4 0.198665 0.297406 0.585089
936 4 0.229525 0.325114 0.613028
976 2 0.250132 0.27865 0.66272
1205 4 0.247382 0.325243 0.605232
951 4 0.26645 0.260954 0.627318
977 4 0.262653 0.263944 0.646841
805 2 0.345904 0.304769 0.645682
807 4 0.33263 0.292933 0.663257
806 4 0.359179 0.316605 0.628107
85 3 0.353763 0.331924 0.614686
3401 4 0.441452 0.270714 0.673626
1281 4 0.0763264 0.339179 0.624245
1280 4 0.0341024 0.365513 0.62918
1640 4 0.0165438 0.363827 0.617263
1279 2 0.0552144 0.352346 0.626712
991 2 0.126952 0.374521 0.625149
993 4 0.137267 0.351856 0.627398
896 4 0.156468 0.353525 0.619639
992 4 0.116637 0.397187 0.622899
2129 4 0.126014 0.407962 0.636274
773 4 0.172721 0.353393 0.595215
895 2 0.179398 0.34816 0.62804
897 4 0.202329 0.342795 0.636441
1085 4 0.203868 0.349326 0.654989
1204 2 0.264824 0.337612 0.618193
1206 4 0.282265 0.34998 0.631155
1139 4 0.294519 0.362209 0.621856
1138 2 0.297336 0.383125 0.635264
1140 4 0.300153 0.404042 0.648671
798 4 0.304209 0.410035 0.668233
82 3 0.322686 0.352176 0.610566
81 1 0.344829 0.352769 0.616768
83 3 0.356092 0.367626 0.602955
84 3 0.346254 0.359825 0.638827
2214 4 0.371271 0.411622 0.620135
1017 4 0.415804 0.390169 0.639366
1015 2 0.406685 0.37551 0.657454
792 4 0.41435 0.377585 0.624053
791 4 0.459529 0.37352 0.603004
790 2 0.43694 0.375553 0.613528
1982 4 0.152804 0.50584 0.616179
2171 4 0.140989 0.496442 0.603223
1981 2 0.152737 0.488517 0.634209
2130 4 0.143168 0.452713 0.650551
2128 2 0.134591 0.430338 0.643413
1983 4 0.152669 0.471193 0.652239
1713 4 0.20589 0.494911 0.635115
2435 4 0.21859 0.480086 0.632959
2434 2 0.242517 0.478642 0.625848
2436 4 0.266445 0.477197 0.618736
2212 2 0.366904 0.43498 0.627917
2213 4 0.362537 0.458337 0.635698
3131 4 0.998289 0.0492838 0.761388
3082 2 0.0179023 0.0645369 0.731075
3084 4 0.0322323 0.0822061 0.720701
3083 4 0.00357223 0.0468676 0.741449
908 4 0.232414 0.00853038 0.713447
2320 2 0.312438 0.00915306 0.728428
965 4 0.334135 0.017503 0.694134
2322 4 0.332908 0.0134943 0.714742
964 2 0.346367 0.0388054 0.689469
886 2 0.400754 0.015725 0.689809
888 4 0.412469 0.0371817 0.68456
3591 4 0.0444076 0.097232 0.716574
3589 2 0.051146 0.107822 0.738199
1284 4 0.136875 0.0783617 0.710817
1282 2 0.154394 0.0860276 0.694707
1283 4 0.171912 0.0936935 0.678598
1154 4 0.191803 0.0917227 0.677334
1023 4 0.219936 0.119754 0.739227
1022 4 0.236397 0.142775 0.697998
2256 4 0.229409 0.151402 0.680976
1021 2 0.228167 0.131265 0.718613
2254 2 0.216168 0.161732 0.662452
269 4 0.46827 0.0806975 0.675661
1259 4 0.176726 0.186019 0.665792
1260 4 0.162023 0.231461 0.680609
1258 2 0.169374 0.20874 0.6732
1299 4 0.14248 0.236873 0.683571
3402 4 0.474237 0.233047 0.67098
1010 4 0.466655 0.180889 0.705781
1011 4 0.484149 0.217169 0.676142
1009 2 0.475402 0.199029 0.690962
3400 2 0.457844 0.251881 0.672303
3039 4 0.0207099 0.298831 0.671172
923 4 0.993923 0.260304 0.748005
1297 2 0.132838 0.25853 0.691521
1298 4 0.123197 0.280186 0.699471
1068 4 0.133455 0.298431 0.703032
1066 2 0.119255 0.307061 0.721716
1067 4 0.105056 0.31569 0.7404
1084 2 0.215603 0.329711 0.665126
1086 4 0.227338 0.310097 0.675262
978 4 0.237612 0.293357 0.678598
942 4 0.0916325 0.404326 0.671923
941 4 0.117906 0.387755 0.711113
940 2 0.104769 0.39604 0.691518
1098 4 0.135185 0.392846 0.702637
1096 2 0.159254 0.399171 0.700217
1097 4 0.183323 0.405497 0.697798
1016 4 0.397567 0.360852 0.675542
1018 2 0.399183 0.374563 0.715692
1020 4 0.402735 0.387987 0.736485
1019 4 0.395631 0.361138 0.694899
1278 4 0.184823 0.424721 0.70211
1276 2 0.208726 0.426568 0.709212
1277 4 0.232628 0.428416 0.716314
821 4 0.252004 0.423905 0.718279
796 2 0.292707 0.430695 0.67636
797 4 0.281205 0.451355 0.684487
2009 4 0.398933 0.501893 0.698025
2321 4 0.291968 0.00481183 0.742114
3590 4 0.0578845 0.118412 0.759823
948 4 0.0728303 0.10832 0.770215
834 4 0.00591888 0.160877 0.774765
946 2 0.0964815 0.108814 0.778312
947 4 0.120133 0.109309 0.786409
851 4 0.122963 0.10938 0.805822
850 2 0.133321 0.123644 0.823555
35 3 0.157269 0.149221 0.83323
1193 4 0.460504 0.126749 0.814822
154 3 0.0136822 0.179063 0.777794
152 3 0.00581241 0.215777 0.779468
151 1 0.0119243 0.197408 0.791893
155 3 0.031972 0.20146 0.801909
862 2 0.0697387 0.240702 0.817708
863 4 0.0692829 0.215994 0.821514
2270 4 0.0503959 0.191901 0.796241
922 2 0.00821523 0.243994 0.760451
2269 2 0.0586272 0.181153 0.817263
870 4 0.0893246 0.218204 0.82618
868 2 0.109466 0.204538 0.820459
869 4 0.129607 0.190871 0.814738
52 3 0.233306 0.222096 0.827352
1091 4 0.223955 0.222286 0.809788
1090 2 0.210831 0.239653 0.797486
885 4 0.00586565 0.276994 0.745518
883 2 0.0183401 0.298405 0.748856
884 4 0.0308145 0.319816 0.752194
864 4 0.0701946 0.26541 0.813901
1692 4 0.0849763 0.27662 0.809134
815 4 0.0450004 0.332758 0.757814
1209 4 0.132684 0.3265 0.807204
1207 2 0.129894 0.335488 0.830369
1690 2 0.0979608 0.285676 0.828488
840 4 0.182768 0.310891 0.786339
838 2 0.191105 0.289115 0.777312
839 4 0.199441 0.26734 0.768284
1092 4 0.197707 0.257019 0.785183
59 3 0.229464 0.330348 0.809918
57 3 0.194588 0.321235 0.799278
58 3 0.201832 0.326686 0.835754
799 2 0.249591 0.287598 0.830309
801 4 0.265077 0.288138 0.810686
3330 4 0.312588 0.304851 0.769576
3328 2 0.291882 0.304047 0.783569
3329 4 0.271177 0.303244 0.797562
1043 4 0.326476 0.308122 0.75521
3348 4 0.376897 0.249935 0.81674
1044 4 0.363926 0.316171 0.787357
1052 4 0.389506 0.262762 0.806952
1042 2 0.345201 0.312147 0.771284
1051 2 0.393574 0.286496 0.813683
1053 4 0.397642 0.310231 0.820413
188 3 0.459204 0.353234 0.789998
814 2 0.0523956 0.353994 0.768748
4209 4 0.0513041 0.368748 0.796193
4207 2 0.0594317 0.374959 0.819009