ITEM: TIMESTEP
840000
ITEM: NUMBER OF ATOMS
4590
ITEM: BOX BOUNDS pp pp pp
-9.9985700000000008e+00 9.9985700000000008e+00
-9.9985700000000008e+00 9.9985700000000008e+00
-9.9985700000000008e+00 9.9985700000000008e+00
ITEM: ATOMS id type xs ys zs
1666 2 0.0725479 0.0181848 0.0293638
1668 4 0.0632292 0.0230407 0.0520521
1667 4 0.0818666 0.0133289 0.00667545
702 4 0.0668272 0.0188925 0.0708753
566 4 0.215069 0.0800791 0.0496749
485 4 0.280788 0.0217613 0.0158502
1607 4 0.441483 0.0557736 0.0401984
1606 2 0.451586 0.0664296 0.0604363
1608 4 0.461688 0.0770857 0.0806742
3233 4 0.0113309 0.134995 0.00531283
1248 4 0.0254503 0.121683 0.999246
2760 4 0.0734386 0.102982 0.0866864
2759 4 0.104844 0.130093 0.0587691
2758 2 0.0891413 0.116537 0.0727277
738 4 0.119301 0.130455 0.0736193
567 4 0.224827 0.129118 0.050483
565 2 0.219948 0.104599 0.050079
356 4 0.224796 0.148891 0.0480227
297 4 0.306797 0.150243 0.0696179
557 4 0.348668 0.0915098 0.0215673
556 2 0.354025 0.114024 0.0310328
665 4 0.36705 0.146595 0.0570986
558 4 0.359381 0.136538 0.0404982
491 4 0.341912 0.0955092 0.00336863
475 2 0.114282 0.217443 0.0748087
477 4 0.089809 0.2204 0.0789911
355 2 0.228003 0.171286 0.0373751
573 4 0.234971 0.211807 0.0357484
357 4 0.23121 0.19368 0.0267275
571 2 0.232365 0.235605 0.0429599
664 2 0.369984 0.167228 0.0709125
666 4 0.372918 0.187862 0.0847265
621 4 0.00790009 0.325633 0.0808053
2808 4 0.0124341 0.329714 0.999516
572 4 0.229759 0.259404 0.0501715
353 4 0.233011 0.27901 0.0454255
352 2 0.249113 0.284826 0.0272025
354 4 0.265215 0.290641 0.00897946
1071 4 0.326614 0.300325 0.037204
1069 2 0.338879 0.316457 0.0225587
1070 4 0.351143 0.33259 0.00791344
2771 4 0.0177843 0.335277 0.0185864
330 4 0.0353642 0.417595 0.0475479
328 2 0.0116502 0.410047 0.049969
551 4 0.0539956 0.420452 0.0409548
550 2 0.0760314 0.411717 0.0489109
2770 2 0.00949417 0.335994 0.0421647
2772 4 0.00120403 0.336712 0.065743
456 4 0.133726 0.331509 0.00516251
454 2 0.1297 0.343763 0.0265819
455 4 0.125673 0.356018 0.0480012
287 4 0.134723 0.366925 0.0634477
286 2 0.156876 0.366832 0.0750414
552 4 0.0980671 0.402982 0.0568671
483 4 0.242984 0.333435 0.0458808
251 4 0.224913 0.330298 0.0532936
250 2 0.211358 0.344038 0.069188
252 4 0.197803 0.357779 0.0850824
481 2 0.251603 0.350648 0.0299255
902 4 0.254275 0.378933 0.997965
482 4 0.260223 0.367862 0.0139702
901 2 0.25677 0.401837 0.00767904
957 4 0.357427 0.35113 0.0131499
956 4 0.335064 0.395263 0.00587958
955 2 0.346246 0.373196 0.00951472
495 4 0.339578 0.415187 0.00681388
671 4 0.414609 0.37518 0.0560148
323 4 0.399293 0.367015 0.0666841
670 2 0.426349 0.374262 0.0339581
672 4 0.43809 0.373345 0.0119014
1788 4 0.0887674 0.495587 0.0687792
243 4 0.244015 0.49353 0.00840891
1288 2 0.264186 0.465561 0.00611257
903 4 0.259264 0.424741 0.0173934
1290 4 0.266991 0.441294 0.0114439
493 2 0.343911 0.436992 0.0182568
494 4 0.348243 0.458798 0.0296997
525 4 0.347526 0.452617 0.0484794
523 2 0.339194 0.451396 0.0720226
20 3 0.0127459 0.0133617 0.0843299
700 2 0.0873441 0.0221887 0.0847811
701 4 0.107861 0.0254849 0.098687
450 4 0.122847 0.0211057 0.109951
448 2 0.13746 0.0338425 0.125743
449 4 0.152073 0.0465793 0.141536
578 4 0.166889 0.0521134 0.129483
577 2 0.177067 0.0748981 0.131043
1474 2 0.310322 0.0127657 0.149285
1476 4 0.307182 0.0351905 0.138681
654 4 0.320114 0.0484643 0.137285
652 2 0.343461 0.0514482 0.128849
653 4 0.366809 0.054432 0.120413
746 4 0.465239 0.0820893 0.0991157
590 4 0.0211001 0.0969668 0.123603
380 4 0.027694 0.0979851 0.143138
589 2 0.0372008 0.101711 0.105071
591 4 0.0533014 0.106454 0.086539
736 2 0.138276 0.138984 0.0874903
737 4 0.157251 0.147512 0.101361
236 4 0.189022 0.113889 0.143508
579 4 0.187246 0.0976827 0.132603
235 2 0.202734 0.109713 0.163995
295 2 0.313155 0.164475 0.0891682
2791 2 0.392095 0.115447 0.103981
2793 4 0.368646 0.119285 0.111764
2792 4 0.415544 0.111609 0.0961975
745 2 0.463206 0.0934234 0.12131
747 4 0.461172 0.104758 0.143504
771 4 0.45911 0.0993806 0.162904
655 2 0.0168556 0.175102 0.104681
657 4 0.0389008 0.186847 0.105798
705 4 0.0342706 0.205704 0.11083
703 2 0.0543794 0.216457 0.100574
704 4 0.0744882 0.227211 0.0903188
396 4 0.0553855 0.209638 0.162623
476 4 0.138756 0.214487 0.0706264
507 4 0.151481 0.162133 0.114168
505 2 0.162784 0.183174 0.121565
506 4 0.174087 0.204214 0.128963
755 4 0.180545 0.220954 0.135918
460 2 0.235335 0.221361 0.149253
461 4 0.230844 0.235554 0.129165
754 2 0.180938 0.229294 0.159487
296 4 0.319513 0.178706 0.108719
581 4 0.319716 0.181779 0.128622
254 4 0.392583 0.185667 0.0751716
253 2 0.412239 0.200404 0.0798231
580 2 0.331986 0.181825 0.150408
518 4 0.339972 0.262005 0.103201
255 4 0.431896 0.215141 0.0844747
647 4 0.0696646 0.322693 0.157505
623 4 0.244285 0.25189 0.129655
622 2 0.262748 0.268007 0.13461
624 4 0.28121 0.284124 0.139566
740 4 0.284708 0.303308 0.143222
739 2 0.301269 0.317676 0.131203
517 2 0.338569 0.278618 0.121835
519 4 0.337166 0.29523 0.140469
309 4 0.357677 0.297486 0.150891
13 3 0.348494 0.314537 0.140729
12 3 0.368881 0.333533 0.115507
620 4 0.0297665 0.354387 0.115385
646 2 0.0523629 0.336688 0.146104
648 4 0.0350612 0.350683 0.134704
619 2 0.0188333 0.34001 0.0980953
417 4 0.117523 0.402884 0.142597
415 2 0.104529 0.394456 0.162226
288 4 0.179029 0.366738 0.0866352
609 4 0.230415 0.392076 0.126969
607 2 0.241462 0.382279 0.147147
608 4 0.252508 0.372482 0.167326
741 4 0.317831 0.332045 0.119184
15 3 0.333898 0.344274 0.122832
322 2 0.391099 0.355147 0.0871094
11 1 0.352875 0.335545 0.131905
324 4 0.382905 0.343279 0.107535
14 3 0.360895 0.349605 0.14853
385 2 0.380572 0.406822 0.167769
2650 2 0.450266 0.364516 0.159502
2652 4 0.448495 0.382346 0.142064
596 4 0.448985 0.391052 0.125011
595 2 0.454279 0.413547 0.115465
290 4 0.125934 0.421144 0.143964
289 2 0.143886 0.436766 0.151636
291 4 0.161839 0.452387 0.159308
626 4 0.221676 0.4345 0.140454
625 2 0.197597 0.436507 0.146882
627 4 0.173517 0.438513 0.15331
768 4 0.240389 0.444195 0.141563
766 2 0.24676 0.457805 0.161547
303 4 0.318393 0.474759 0.145718
245 4 0.377379 0.435233 0.141546
387 4 0.370826 0.428161 0.159116
244 2 0.35883 0.443969 0.127236
246 4 0.340281 0.452705 0.112925
524 4 0.330863 0.450175 0.0955657
660 4 0.466161 0.4922 0.0908727
658 2 0.462015 0.467612 0.0890241
659 4 0.457869 0.443023 0.0871755
597 4 0.459572 0.436042 0.105919
1404 4 0.00436693 0.0789546 0.232265
1504 2 0.219919 0.00848226 0.194922
1505 4 0.238436 0.0237446 0.201949
691 2 0.24387 0.0544232 0.218323
692 4 0.244934 0.0294902 0.219869
22 3 0.424748 0.0763707 0.188801
693 4 0.242806 0.0793563 0.216777
237 4 0.216446 0.105537 0.184482
722 4 0.207351 0.115167 0.200363
721 2 0.226138 0.105602 0.213806
723 4 0.244926 0.0960373 0.227249
757 2 0.383852 0.141854 0.193727
758 4 0.384587 0.117787 0.200466
24 3 0.401389 0.104864 0.19623
769 2 0.482239 0.104723 0.170758
23 3 0.429646 0.109211 0.171188
25 3 0.43716 0.105913 0.207935
21 1 0.423311 0.0992092 0.191144
394 2 0.0386995 0.226986 0.16939
395 4 0.0220135 0.244335 0.176157
392 4 0.120628 0.227253 0.23969
544 2 0.154674 0.233136 0.249172
391 2 0.103786 0.211036 0.248551
756 4 0.181331 0.237634 0.183055
462 4 0.239827 0.207167 0.169342
278 4 0.232931 0.200603 0.187931
732 4 0.20519 0.18392 0.248139
279 4 0.206064 0.192511 0.229325
277 2 0.219498 0.196557 0.208628
283 2 0.207157 0.249512 0.249937
545 4 0.178471 0.225918 0.246569
582 4 0.344256 0.18187 0.172194
759 4 0.383117 0.165921 0.186988
629 4 0.385025 0.185391 0.180851
628 2 0.386932 0.209213 0.188204
630 4 0.388839 0.233035 0.195557
521 4 0.480749 0.237257 0.20363
528 4 0.460295 0.233327 0.201527
520 2 0.495092 0.228655 0.222216
2718 4 0.00235991 0.316373 0.247552
2693 4 0.0168795 0.325777 0.23583
362 4 0.0839587 0.317941 0.170961
361 2 0.106926 0.314991 0.180395
363 4 0.129893 0.312041 0.189829
339 4 0.146233 0.300613 0.193765
337 2 0.140457 0.280865 0.207972
338 4 0.13468 0.261118 0.222179
735 4 0.120777 0.335085 0.241278
284 4 0.216289 0.27271 0.248022
345 4 0.247379 0.322206 0.20725
344 4 0.267432 0.277123 0.199119
343 2 0.257405 0.299664 0.203184
307 2 0.354313 0.296732 0.175655
498 4 0.335323 0.303037 0.2108
308 4 0.35095 0.295978 0.20042
496 2 0.335279 0.284291 0.227346
497 4 0.335235 0.265545 0.243891
2841 4 0.464433 0.331384 0.170321
2839 2 0.44955 0.311867 0.175091
2840 4 0.434667 0.29235 0.17986
527 4 0.443851 0.279549 0.191841
526 2 0.452073 0.256438 0.196684
2692 2 0.0294789 0.345847 0.227853
2694 4 0.0420782 0.365917 0.219876
416 4 0.0915349 0.386029 0.181856
537 4 0.0919535 0.386551 0.202566
536 4 0.110509 0.348288 0.228879
535 2 0.101231 0.367419 0.215723
611 4 0.234879 0.336875 0.207511
610 2 0.247191 0.355712 0.196612
612 4 0.259502 0.374548 0.185713
728 4 0.257468 0.386306 0.21742
727 2 0.261307 0.388853 0.241996
386 4 0.390317 0.385483 0.176421
644 4 0.402046 0.369778 0.177358
643 2 0.397969 0.365662 0.201681
645 4 0.393892 0.361546 0.226004
542 4 0.409165 0.358437 0.238951
2651 4 0.452038 0.346685 0.176941
263 4 0.0839426 0.484014 0.217868
262 2 0.0952553 0.497742 0.200297
602 4 0.118423 0.44868 0.237927
601 2 0.0959396 0.440731 0.245442
1774 2 0.126717 0.488109 0.247819
767 4 0.253131 0.471414 0.181532
638 4 0.260753 0.487991 0.171445
301 2 0.303502 0.48062 0.16493
1658 4 0.284537 0.49723 0.200645
302 4 0.28861 0.48648 0.184141
1574 4 0.365449 0.445496 0.212389
1573 2 0.387067 0.457239 0.207928
1575 4 0.408686 0.468982 0.203467
230 4 0.425828 0.476996 0.19656
229 2 0.44202 0.478231 0.215571
231 4 0.458213 0.479465 0.234583
429 4 0.162205 0.0260029 0.314078
1479 4 0.140937 0.0291517 0.31864
427 2 0.166795 0.02632 0.289502
428 4 0.171385 0.026637 0.264925
30 3 0.249325 0.0636693 0.258005
26 1 0.261644 0.0794911 0.268802
29 3 0.277294 0.0693033 0.282574
248 4 0.283257 0.0656799 0.301291
247 2 0.285334 0.0606767 0.3257
1748 4 0.397389 0.045337 0.323753
743 4 0.405768 0.0642708 0.325895
529 2 0.0199082 0.140549 0.301229
530 4 0.0225988 0.137077 0.325843
531 4 0.0172177 0.144022 0.276614
513 4 0.0337079 0.15379 0.270705
27 3 0.247694 0.09245 0.28171
606 4 0.209142 0.17284 0.301673
28 3 0.272351 0.0930931 0.253351
631 2 0.326299 0.1521 0.295367
633 4 0.306794 0.1519 0.279724
632 4 0.345804 0.152299 0.31101
698 4 0.366634 0.148931 0.306673
697 2 0.381886 0.138623 0.323593
420 4 0.444818 0.158625 0.265819
418 2 0.442707 0.166622 0.289415
511 2 0.0545167 0.166068 0.264268
2653 2 0.0107073 0.214699 0.280095
2655 4 0.0290386 0.208454 0.29591
2850 4 0.031043 0.206701 0.315797
512 4 0.0753256 0.178345 0.257831
546 4 0.130877 0.240355 0.251775
393 4 0.0869435 0.194818 0.257411
731 4 0.220346 0.188299 0.295592
730 2 0.212768 0.18611 0.271865
604 2 0.202326 0.172869 0.32573
285 4 0.198026 0.226315 0.251851
390 4 0.158998 0.246486 0.326738
404 4 0.238815 0.193252 0.298994
707 4 0.297552 0.166716 0.268906
765 4 0.306906 0.22595 0.274418
708 4 0.289815 0.216103 0.267587
706 2 0.293684 0.19141 0.268246
403 2 0.256701 0.185523 0.314664
763 2 0.324735 0.241928 0.267206
405 4 0.274586 0.177794 0.330334
376 2 0.389768 0.238839 0.280353
377 4 0.37265 0.221252 0.285134
419 4 0.440595 0.174619 0.313011
311 4 0.453255 0.18941 0.309008
310 2 0.467468 0.208376 0.316975
312 4 0.481681 0.227341 0.324942
2716 2 0.000371022 0.291642 0.250653
2802 4 0.0158117 0.304356 0.307779
2463 4 0.0159348 0.322087 0.29911
2800 2 0.0314484 0.294168 0.324419
733 2 0.111108 0.316299 0.254649
734 4 0.101439 0.297513 0.268019
389 4 0.148563 0.288724 0.302085
750 4 0.142967 0.296535 0.318814
748 2 0.129588 0.317607 0.317346
749 4 0.116209 0.338679 0.315879
388 2 0.15378 0.267605 0.314411
508 2 0.247735 0.325989 0.335731
275 4 0.315303 0.312591 0.328959
378 4 0.406885 0.256427 0.275572
764 4 0.342564 0.257906 0.259994
274 2 0.335773 0.319534 0.316392
276 4 0.356244 0.326477 0.303825
614 4 0.368876 0.328717 0.319033
613 2 0.391206 0.321206 0.327406
365 4 0.077285 0.419471 0.26744
366 4 0.0492311 0.37846 0.273082
2529 4 0.0167531 0.385035 0.249783
2462 4 7.89088e-05 0.364942 0.278796
364 2 0.063258 0.398966 0.270261
2461 2 0.00800688 0.343514 0.288953
681 4 0.105397 0.407356 0.323629
616 2 0.0914189 0.360263 0.321629
618 4 0.105968 0.352292 0.302922
299 4 0.109201 0.370534 0.297658
298 2 0.119766 0.371153 0.275004
300 4 0.130331 0.371773 0.252351
509 4 0.240382 0.343715 0.319702
502 2 0.217892 0.403503 0.312799
504 4 0.203544 0.38369 0.307627
503 4 0.232239 0.423317 0.317972
435 4 0.251659 0.339205 0.30237
729 4 0.265145 0.391401 0.266571
434 4 0.269173 0.382509 0.284518
433 2 0.260416 0.360857 0.293444
541 2 0.401811 0.368882 0.260445
543 4 0.394457 0.379327 0.281939
446 4 0.390366 0.373557 0.300291
445 2 0.391725 0.382035 0.323774
499 2 0.0626206 0.477691 0.297379
500 4 0.045341 0.495002 0.302568
501 4 0.0799002 0.460381 0.292189
603 4 0.0734558 0.432783 0.252956
680 4 0.078375 0.44454 0.303934
1775 4 0.117528 0.464913 0.249448
679 2 0.0918862 0.425948 0.313782
437 4 0.251997 0.421007 0.322796
436 2 0.259884 0.439044 0.307381
1436 4 0.281725 0.466784 0.303087
438 4 0.267771 0.457081 0.291965
1435 2 0.305231 0.474981 0.300748
1437 4 0.328737 0.483177 0.298409
1 1 0.360218 0.487728 0.322058
5 3 0.340557 0.494346 0.312662
3 3 0.362808 0.464793 0.319674
713 4 0.443852 0.477741 0.248837
1472 4 0.422016 0.461847 0.300285
714 4 0.441366 0.464362 0.296957
1471 2 0.42095 0.471157 0.323467
712 2 0.442609 0.471051 0.272897
1477 2 0.131111 0.0326709 0.341361
398 4 0.125993 0.0304016 0.383082
397 2 0.109154 0.0213073 0.399174
1478 4 0.121286 0.03619 0.364083
369 4 0.144624 0.060726 0.404743
399 4 0.0923156 0.0122131 0.415266
367 2 0.165984 0.0704996 0.396175
368 4 0.187344 0.0802732 0.387607
600 4 0.190277 0.0852738 0.336747
2429 4 0.25138 0.0111883 0.399841
1701 4 0.265151 0.0250186 0.407345
1699 2 0.27666 0.036441 0.388312
1700 4 0.288169 0.0478634 0.369279
249 4 0.287411 0.0556735 0.35011
1747 2 0.397 0.0212639 0.330499
742 2 0.425146 0.0754055 0.337106
2641 2 0.49739 0.0699823 0.417782
2878 2 0.50043 0.0138272 0.405414
2643 4 0.501539 0.0455798 0.414249
2880 4 0.488629 0.0356289 0.40216
744 4 0.444523 0.0865401 0.348318
457 2 0.00938448 0.133521 0.358151
458 4 0.016827 0.149519 0.340435
342 4 0.0907936 0.168536 0.407695
599 4 0.20275 0.112217 0.376986
598 2 0.196514 0.0987454 0.356867
474 4 0.210197 0.139396 0.406981
466 2 0.297248 0.162967 0.363558
467 4 0.307341 0.146449 0.379385
684 4 0.29686 0.134233 0.391619
682 2 0.274293 0.128422 0.400683
699 4 0.397138 0.128315 0.340513
575 4 0.387513 0.11689 0.414746
333 4 0.411976 0.123508 0.35276
332 4 0.447439 0.158765 0.352851
331 2 0.429707 0.141137 0.352805
2642 4 0.49324 0.0943849 0.421314
479 4 0.483764 0.108496 0.411075
478 2 0.466758 0.126731 0.409221
480 4 0.449751 0.144966 0.407367
2849 4 0.0508799 0.208932 0.361647
2848 2 0.0409615 0.207816 0.338722
687 4 0.0584105 0.191648 0.368201
685 2 0.0747536 0.190931 0.387111
686 4 0.0910967 0.190215 0.40602
401 4 0.171854 0.233889 0.405375
605 4 0.19551 0.172898 0.349786
372 4 0.163745 0.246064 0.392111
371 4 0.170923 0.244787 0.342638
370 2 0.167334 0.245426 0.367375
649 2 0.22562 0.190968 0.401065
650 4 0.20195 0.183057 0.399544
651 4 0.24929 0.198879 0.402587
321 4 0.192408 0.17733 0.416016
717 4 0.24716 0.21588 0.409966
468 4 0.287154 0.179484 0.347732
715 2 0.266717 0.230575 0.415135
716 4 0.286275 0.24527 0.420305
451 2 0.402074 0.237322 0.389535
453 4 0.377747 0.237571 0.395306
515 4 0.369662 0.219512 0.40232
2838 4 0.493813 0.238112 0.336514
351 4 0.438139 0.17712 0.351787
452 4 0.426402 0.237072 0.383764
350 4 0.428741 0.218928 0.377565
349 2 0.43344 0.198024 0.364676
2801 4 0.047085 0.28398 0.341059
443 4 0.0490872 0.295767 0.356721
442 2 0.0722738 0.294869 0.366035
444 4 0.0954605 0.293971 0.375349
260 4 0.109057 0.280782 0.383224
259 2 0.110582 0.276006 0.40772
510 4 0.255088 0.308264 0.351759
636 4 0.270519 0.319761 0.360319
634 2 0.283388 0.327106 0.380459
488 4 0.289339 0.257014 0.404746
487 2 0.311412 0.266156 0.412123
489 4 0.333484 0.275298 0.4195
615 4 0.413537 0.313695 0.335778
2924 4 0.421941 0.331675 0.334794
549 4 0.00941703 0.373127 0.397273
617 4 0.0768699 0.368234 0.340337
547 2 0.027331 0.390536 0.398361
548 4 0.0452449 0.407946 0.399448
408 4 0.0516069 0.417368 0.38184
677 4 0.0912711 0.399729 0.376833
676 2 0.105242 0.413367 0.392452
635 4 0.296257 0.334451 0.400599
668 4 0.296013 0.33802 0.41894
447 4 0.393084 0.390513 0.347257
752 4 0.388016 0.399075 0.364746
751 2 0.386556 0.397597 0.389663
753 4 0.385095 0.39612 0.41458
2923 2 0.442299 0.334706 0.34899
2925 4 0.462657 0.337738 0.363186
117 3 0.480132 0.346414 0.364075
406 2 0.0542584 0.437864 0.395913
407 4 0.0569099 0.458361 0.409986
375 4 0.12663 0.446441 0.410995
678 4 0.119213 0.427006 0.408072
1401 4 0.38329 0.476559 0.411151
594 4 0.396435 0.469057 0.398924
1473 4 0.419884 0.480466 0.346648
592 2 0.413352 0.471647 0.380695
593 4 0.430268 0.474237 0.362466
718 2 0.0809421 0.0589682 0.452191
720 4 0.0595855 0.0672295 0.462232
719 4 0.102299 0.0507069 0.442149
441 4 0.330985 0.0666079 0.435481
1151 4 0.257767 0.0407221 0.497389
1817 4 0.351891 0.0115805 0.438977
440 4 0.336477 0.018907 0.449452
439 2 0.333731 0.0427574 0.442466
1517 4 0.395217 0.0676938 0.461784
432 4 0.384907 0.0510697 0.466768
430 2 0.399385 0.0318072 0.473442
431 4 0.413862 0.0125448 0.480115
1516 2 0.394486 0.0865048 0.445328
340 2 0.0898054 0.14534 0.416975
1034 4 0.0949393 0.133871 0.492608
1035 4 0.0851018 0.118588 0.446021
341 4 0.0888172 0.122143 0.426255
1033 2 0.0900206 0.12623 0.469314
472 2 0.206449 0.128183 0.429013
473 4 0.202701 0.116969 0.451044
683 4 0.251727 0.122611 0.409747
724 2 0.319548 0.103502 0.495561
726 4 0.335351 0.115706 0.480511
576 4 0.37503 0.16314 0.429092
574 2 0.381272 0.140015 0.421919
1518 4 0.393755 0.105316 0.428872
900 4 0.352194 0.113223 0.492053
898 2 0.367092 0.133199 0.4941
471 4 0.0397102 0.223597 0.464661
469 2 0.0487857 0.200685 0.460436
470 4 0.0578613 0.177773 0.456212
1200 4 0.0482938 0.225669 0.481853
400 2 0.155729 0.221077 0.419553
348 4 0.114856 0.185116 0.483171
402 4 0.139603 0.208266 0.433731
347 4 0.148684 0.200337 0.449635
346 2 0.13177 0.192727 0.466403
858 4 0.177155 0.17749 0.483294
320 4 0.17801 0.181642 0.463711
319 2 0.185209 0.179486 0.439864
514 2 0.3655 0.198401 0.415056
516 4 0.361338 0.17729 0.427791
1198 2 0.047041 0.250549 0.483993
1199 4 0.0457882 0.27543 0.486134
261 4 0.112107 0.271229 0.432216
695 4 0.128037 0.279117 0.442671
694 2 0.124827 0.273959 0.466925
696 4 0.121616 0.2688 0.491179
710 4 0.157729 0.328937 0.471843
709 2 0.178917 0.329919 0.485082
773 4 0.206672 0.313545 0.504163
267 4 0.340742 0.279293 0.437332
265 2 0.354899 0.293395 0.452362
584 4 0.386412 0.300998 0.4753
266 4 0.369056 0.307496 0.467392
583 2 0.407556 0.312247 0.482482
585 4 0.4287 0.323495 0.489664
269 4 0.435352 0.337085 0.478077
325 2 0.138968 0.357092 0.456108
326 4 0.132079 0.381123 0.456548
327 4 0.145857 0.33306 0.455668
667 2 0.310421 0.350416 0.435186
669 4 0.324829 0.362811 0.451431
336 4 0.331288 0.375467 0.437664
560 4 0.40278 0.403821 0.418608
334 2 0.347238 0.393611 0.44411
559 2 0.422988 0.402178 0.433241
586 2 0.471022 0.408043 0.459705
561 4 0.443196 0.400535 0.447873
588 4 0.458014 0.388451 0.451213
268 2 0.45839 0.343519 0.485359
270 4 0.481428 0.349954 0.492641
382 2 0.0507717 0.453031 0.451631
384 4 0.052681 0.452822 0.476561
935 4 0.0399202 0.445288 0.490601
383 4 0.0488624 0.453241 0.426701
373 2 0.14601 0.442165 0.426204
374 4 0.16539 0.437889 0.441413
335 4 0.363189 0.411755 0.450555
240 4 0.35456 0.430095 0.454605
238 2 0.354717 0.439964 0.477578
662 4 0.470484 0.440772 0.47435
587 4 0.484031 0.427635 0.468197
661 2 0.485344 0.457359 0.485718
663 4 0.500205 0.473946 0.497085
2237 4 0.053917 0.0191112 0.502603
1058 4 0.160772 0.027311 0.517907
1150 2 0.240381 0.0242769 0.504632
1057 2 0.183759 0.0179173 0.520833
1152 4 0.222995 0.00783168 0.511875
1059 4 0.206745 0.00852368 0.523759
1030 2 0.28192 0.0552561 0.582123
1031 4 0.268384 0.0411003 0.56658
1180 2 0.280924 0.0708858 0.519956
962 4 0.272654 0.0215756 0.569783
1182 4 0.266398 0.0526318 0.510958
3158 4 0.419998 0.0328389 0.535367
3157 2 0.423881 0.0538233 0.522338
3159 4 0.427765 0.0748076 0.509309
426 4 0.421469 0.0133133 0.532411
3488 4 0.487141 0.0497906 0.531821
3487 2 0.493181 0.0625215 0.552476
3489 4 0.49922 0.0752524 0.573131
3077 4 0.0104023 0.0902645 0.565908
937 2 0.0606203 0.140956 0.51855
939 4 0.0403751 0.147684 0.53159
938 4 0.0808654 0.134228 0.50551
824 4 0.180014 0.123618 0.557277
823 2 0.182616 0.123983 0.532412
825 4 0.185219 0.124349 0.507547
1181 4 0.295451 0.0891398 0.528953
725 4 0.303744 0.0912983 0.51061
899 4 0.38199 0.153175 0.496146
642 4 0.393792 0.160039 0.510984
1271 4 0.0880667 0.191704 0.544747
1270 2 0.0961557 0.1851 0.522028
1220 4 0.085945 0.199485 0.563135
1272 4 0.104245 0.178496 0.499309
857 4 0.178752 0.198189 0.528788
409 2 0.186595 0.185756 0.565195
411 4 0.172521 0.187741 0.544624
856 2 0.177953 0.18784 0.506041
792 4 0.356915 0.222234 0.573822
790 2 0.367817 0.223422 0.551352
791 4 0.378719 0.22461 0.528881
640 2 0.386392 0.183652 0.514568
641 4 0.378991 0.207265 0.518152
877 2 0.0472043 0.292928 0.522845
878 4 0.0425483 0.296344 0.547173
879 4 0.0518603 0.289511 0.498518
984 4 0.0125101 0.260823 0.54496
6 1 0.105486 0.27729 0.528749
9 3 0.0879409 0.262171 0.530158
7 3 0.0977227 0.298227 0.534272
8 3 0.122275 0.27135 0.543623
10 3 0.113705 0.277698 0.507514
711 4 0.200105 0.330901 0.498321
772 2 0.231398 0.31033 0.506024
812 4 0.267028 0.297513 0.521121
811 2 0.291218 0.302518 0.517251
774 4 0.256124 0.307115 0.507884
813 4 0.315407 0.307524 0.51338
872 4 0.311691 0.327168 0.506868
1039 2 0.0777057 0.412714 0.56963
1394 4 0.208375 0.37741 0.537496
1393 2 0.203504 0.401797 0.534898
871 2 0.332505 0.339984 0.512135
873 4 0.353318 0.352799 0.517403
3309 4 0.483945 0.34996 0.511569
3307 2 0.500015 0.354068 0.530279
934 2 0.052139 0.438065 0.511186
1040 4 0.0657486 0.423902 0.550735
936 4 0.0643577 0.430842 0.53177
538 2 0.15134 0.480702 0.565251
540 4 0.130192 0.468096 0.569611
1395 4 0.198632 0.426183 0.532299
539 4 0.172489 0.493307 0.560891
2243 4 0.190027 0.486363 0.557556
2242 2 0.200269 0.49671 0.537228
1028 4 0.262336 0.428423 0.579509
1172 4 0.264696 0.449064 0.574522
1173 4 0.278333 0.477697 0.535858
1171 2 0.271514 0.463381 0.55519
881 4 0.282742 0.489199 0.519454
929 4 0.338828 0.485214 0.543464
928 2 0.352804 0.473953 0.526055
930 4 0.366779 0.462692 0.508647
239 4 0.354874 0.449832 0.500551
925 2 0.498104 0.417313 0.575579
1331 4 0.482758 0.471346 0.563163
926 4 0.481082 0.43553 0.57747
1330 2 0.485164 0.471084 0.538277
1332 4 0.48757 0.470823 0.513391
1001 4 0.468458 0.443774 0.564664
1911 4 0.472514 0.487856 0.566363
2318 4 0.165503 0.0193637 0.626809
2317 2 0.169552 0.0438847 0.624069
2319 4 0.1736 0.0684057 0.621329
1032 4 0.295455 0.069412 0.597666
1004 4 0.327929 0.0311176 0.652052
842 4 0.390842 0.0289943 0.58205
1141 2 0.33299 0.0698998 0.649409
1142 4 0.337791 0.0465133 0.641979
88 3 0.383431 0.0015066 0.654574
1003 2 0.345631 0.0135398 0.653733
841 2 0.400785 0.00952316 0.594183
4227 4 0.464548 0.0101248 0.652974
1163 4 0.469825 0.0444478 0.647573
1162 2 0.447749 0.0392875 0.658118
3076 2 0.024234 0.0999152 0.584367
2990 4 0.0358205 0.100336 0.620794
2989 2 0.0593768 0.100786 0.629165
3078 4 0.0380656 0.109566 0.602826
2991 4 0.0829331 0.101237 0.637536
1284 4 0.166072 0.0859802 0.630581
864 4 0.0818441 0.100798 0.657939
1282 2 0.180984 0.105873 0.627918
1283 4 0.195896 0.125766 0.625255
1153 2 0.232426 0.137381 0.640583
1155 4 0.208294 0.138298 0.634104
1154 4 0.256558 0.136465 0.647063
1143 4 0.328189 0.0932863 0.656838
886 2 0.292634 0.115718 0.663483
888 4 0.27169 0.128724 0.659315
3426 4 0.427489 0.12802 0.635332
3424 2 0.449537 0.136604 0.643418
3425 4 0.471585 0.145188 0.651505
1025 4 0.472692 0.160623 0.664433
1221 4 0.110024 0.186115 0.604874
1219 2 0.0979843 0.1928 0.584004
410 4 0.200669 0.183771 0.585765
1259 4 0.191312 0.199923 0.662237
1212 4 0.202794 0.192731 0.60468
1210 2 0.190769 0.199673 0.625474
1211 4 0.178744 0.206614 0.646268
1009 2 0.482685 0.228377 0.633273
1010 4 0.483894 0.208988 0.649014
1011 4 0.481477 0.247766 0.617531
1024 2 0.486866 0.18113 0.6625
1026 4 0.50104 0.201637 0.660567
804 4 0.241919 0.326568 0.650958
1190 4 0.227258 0.321414 0.637179
1189 2 0.207121 0.324302 0.622642
806 4 0.327506 0.322131 0.664039
807 4 0.348961 0.28017 0.647318
805 2 0.338234 0.30115 0.655679
952 2 0.391267 0.281817 0.657179
953 4 0.367275 0.285684 0.651295
954 4 0.415259 0.277949 0.663062
904 2 0.49803 0.263148 0.583296
906 4 0.493797 0.259582 0.607679
1041 4 0.0896628 0.401526 0.588526
1136 4 0.108366 0.407268 0.593923
1135 2 0.131092 0.414979 0.600939
896 4 0.138885 0.368915 0.62087
991 2 0.149969 0.379529 0.662892
992 4 0.142085 0.375148 0.639572
895 2 0.156318 0.353907 0.61107
1191 4 0.186983 0.327189 0.608105
897 4 0.173751 0.338899 0.60127
802 2 0.259211 0.3379 0.636895
1029 4 0.306599 0.406453 0.587179
803 4 0.276503 0.349231 0.622833
1239 4 0.298206 0.391756 0.597141
1237 2 0.295112 0.367807 0.603628
1238 4 0.292017 0.343859 0.610114
798 4 0.325718 0.34197 0.669484
1044 4 0.363604 0.343031 0.658145
1100 4 0.453629 0.365285 0.623706
1099 2 0.468517 0.382053 0.634768
1007 4 0.451939 0.357556 0.643154
1101 4 0.483405 0.39882 0.645831
3329 4 0.482007 0.416938 0.653965
1006 2 0.440092 0.345484 0.661568
1281 4 0.0686932 0.461942 0.641907
1279 2 0.0677654 0.451323 0.664525
1137 4 0.153819 0.42269 0.607955
2171 4 0.117748 0.49074 0.642105
1027 2 0.284468 0.417438 0.583344
1205 4 0.314454 0.447661 0.658448
890 4 0.316543 0.457534 0.639467
889 2 0.323869 0.481191 0.636021
891 4 0.331195 0.504847 0.632576
1229 4 0.410075 0.500675 0.64338
1000 2 0.4519 0.454301 0.580161
1267 2 0.428926 0.495523 0.615302
1002 4 0.435341 0.464828 0.595659
1268 4 0.445368 0.48054 0.603885
3082 2 0.00897342 0.0558174 0.718217
3131 4 0.00470364 0.0229472 0.719647
3083 4 0.0221819 0.0734882 0.706451
2254 2 0.15519 0.0212364 0.722418
2255 4 0.144451 0.0437908 0.72134
945 4 0.147039 0.0514929 0.702977
943 2 0.131113 0.070711 0.704464
2241 4 0.289855 0.0124824 0.667648
1092 4 0.261787 0.0598176 0.720294
951 4 0.300456 0.0110231 0.685047
949 2 0.285995 0.027618 0.696907
950 4 0.271534 0.0442129 0.708767
1090 2 0.266268 0.0575686 0.74479
2283 4 0.385413 0.00514155 0.732076
1218 4 0.400817 0.00459512 0.719074
1216 2 0.416578 0.0139909 0.702089
1164 4 0.425672 0.0341271 0.668662
1217 4 0.432339 0.0233866 0.685104
1076 4 0.00858774 0.14772 0.693905
1083 4 0.0156531 0.130123 0.6866
1082 4 0.035508 0.087904 0.704602
1081 2 0.0255805 0.109013 0.695601
863 4 0.103693 0.105705 0.702652
862 2 0.0927687 0.103252 0.680295
944 4 0.115187 0.0899291 0.705952
907 2 0.181075 0.109511 0.741121
830 4 0.190452 0.138647 0.709983
829 2 0.212899 0.140177 0.699075
908 4 0.182195 0.128295 0.724657
831 4 0.235345 0.141707 0.688166
1298 4 0.249406 0.152686 0.693272
887 4 0.313578 0.102711 0.667651
1111 2 0.495446 0.0972549 0.720262
1113 4 0.485255 0.117638 0.709973
43 3 0.47044 0.121007 0.721714
45 3 0.441882 0.134102 0.700961
42 3 0.467472 0.157744 0.714346
41 1 0.455556 0.138538 0.718625
44 3 0.442916 0.141675 0.737829
850 2 0.0173955 0.202965 0.724213
851 4 0.0338312 0.210655 0.707011
1179 4 0.0874972 0.171903 0.733731
1177 2 0.0888343 0.191418 0.718157
1178 4 0.0901715 0.210934 0.702584
946 2 0.128007 0.227726 0.705865
947 4 0.105686 0.22056 0.714558
948 4 0.150329 0.234892 0.697171
1260 4 0.159373 0.217482 0.696476
1258 2 0.175342 0.208703 0.679357
1086 4 0.30977 0.186361 0.73795
1297 2 0.266789 0.170252 0.689467
1299 4 0.284171 0.187817 0.685661
978 4 0.302086 0.205351 0.733382
976 2 0.309289 0.226618 0.722383
1193 4 0.32896 0.245294 0.696823
977 4 0.316493 0.247886 0.711383
1084 2 0.331554 0.17414 0.736826
1085 4 0.353339 0.161919 0.735703
50 3 0.448907 0.236103 0.736831
47 3 0.45818 0.201443 0.74711
1208 4 0.00383123 0.306299 0.75234
1194 4 0.373977 0.26673 0.693
1192 2 0.351469 0.256012 0.694912
1262 4 0.378779 0.275016 0.711099
1261 2 0.399527 0.266381 0.72206
1043 4 0.407671 0.332377 0.679247
3371 4 0.48072 0.290018 0.68373
1263 4 0.420275 0.257746 0.733021
3123 4 0.435805 0.260706 0.719541
3121 2 0.456974 0.267569 0.708142
3122 4 0.478143 0.274431 0.696742
1008 4 0.428244 0.333412 0.679982
993 4 0.157853 0.38391 0.686212
1068 4 0.148187 0.401065 0.691833
1096 2 0.209982 0.37603 0.740304
1097 4 0.22855 0.381395 0.724443
1098 4 0.191413 0.370664 0.756166
1278 4 0.239578 0.393225 0.713249
796 2 0.309537 0.359997 0.675679
797 4 0.293356 0.378024 0.681873
1277 4 0.278084 0.370117 0.691249
1276 2 0.258831 0.381671 0.702249
1042 2 0.385638 0.337704 0.668696
3328 2 0.492343 0.413882 0.676526
2129 4 0.00287423 0.479878 0.72122
1280 4 0.0668377 0.440704 0.687142
2128 2 0.0271372 0.484296 0.717101
2130 4 0.0514001 0.488714 0.712982
884 4 0.0779002 0.439308 0.703817
883 2 0.0865827 0.438882 0.727261
1066 2 0.15106 0.424833 0.699046
942 4 0.160112 0.463949 0.718404
1067 4 0.153933 0.448601 0.706259
940 2 0.162596 0.462696 0.743253
1204 2 0.308457 0.43885 0.681067
1138 2 0.311848 0.419317 0.736521
1206 4 0.30246 0.43004 0.703685
1139 4 0.295087 0.417617 0.718045
2987 4 0.502181 0.468099 0.743876
2047 2 0.072655 0.0151806 0.770698
1295 4 0.0473167 0.0469158 0.78009
1294 2 0.0506456 0.0617163 0.799965
1296 4 0.0539746 0.0765169 0.819841
2049 4 0.0659573 0.0382664 0.777581
1286 4 0.0729148 0.07481 0.822415
1202 4 0.165653 0.0839838 0.835806
1091 4 0.270749 0.0553196 0.769285
1049 4 0.278866 0.0374514 0.77218
1048 2 0.294542 0.0388257 0.791611
1050 4 0.310218 0.0402001 0.811042
966 4 0.325997 0.0529945 0.812042
964 2 0.338695 0.0398112 0.829075
2322 4 0.462684 0.0370256 0.760173
2321 4 0.465368 0.0559452 0.806385
2441 4 0.44629 0.0625923 0.808856
2320 2 0.464026 0.0464854 0.783279
2440 2 0.436457 0.0715248 0.830038
1995 4 0.467598 0.0183549 0.75564
1106 4 0.0748556 0.172356 0.748499
1105 2 0.0899071 0.156936 0.761182
1285 2 0.0908087 0.0922613 0.821753
1107 4 0.104959 0.141517 0.773866
34 3 0.112017 0.14595 0.791047
1203 4 0.127042 0.113993 0.825347
1287 4 0.108703 0.109713 0.82109