ITEM: TIMESTEP
1260000
ITEM: NUMBER OF ATOMS
4590
ITEM: BOX BOUNDS pp pp pp
-9.9985700000000008e+00 9.9985700000000008e+00
-9.9985700000000008e+00 9.9985700000000008e+00
-9.9985700000000008e+00 9.9985700000000008e+00
ITEM: ATOMS id type xs ys zs
1666 2 0.0446913 0.0773057 0.0354158
784 2 0.030872 0.024214 0.0197289
785 4 0.0206382 0.039622 0.0365527
3291 4 0.0186683 0.0360443 0.0564295
1668 4 0.0531583 0.0659938 0.0560442
702 4 0.0669073 0.0516139 0.058375
3234 4 0.0189423 0.0797491 0.0161203
590 4 0.041509 0.0592689 0.0840259
786 4 0.0411059 0.00880594 0.00290506
700 2 0.0888607 0.0513386 0.0703396
701 4 0.110814 0.0510634 0.0823041
486 4 0.234416 0.022546 0.0774132
1842 4 0.232315 0.0031149 0.0754014
490 2 0.301357 0.0668411 0.0122055
492 4 0.286921 0.046815 0.00823979
1760 4 0.393827 0.0251082 0.0573032
1448 4 0.395659 0.0207013 0.0768348
1759 2 0.406927 0.0217037 0.0362796
1761 4 0.420026 0.0182992 0.0152561
1607 4 0.419476 0.0776707 0.057028
1109 4 0.436611 0.0116144 0.0243152
1108 2 0.456046 0.0128244 0.00863102
1667 4 0.0362243 0.0886175 0.0147874
357 4 0.24874 0.160461 0.0242049
567 4 0.243119 0.114381 0.0678766
573 4 0.235719 0.165762 0.0108116
355 2 0.25286 0.142564 0.0411727
356 4 0.25698 0.124667 0.0581406
565 2 0.254018 0.0971514 0.0823515
491 4 0.315794 0.0868672 0.0161713
557 4 0.316726 0.101625 0.0286413
556 2 0.325425 0.124813 0.0252003
558 4 0.334124 0.148 0.0217592
582 4 0.327732 0.166391 0.080198
665 4 0.350558 0.141206 0.0285747
664 2 0.374288 0.146884 0.0231126
666 4 0.398017 0.152562 0.0176505
2792 4 0.412365 0.151444 0.032168
1606 2 0.433716 0.0976683 0.0617723
1608 4 0.447955 0.117666 0.0665167
913 2 0.166746 0.197392 0.000289981
755 4 0.162662 0.201846 0.0835766
571 2 0.222016 0.186267 0.00669339
914 4 0.188176 0.210077 0.00252913
572 4 0.208314 0.206773 0.00257515
352 2 0.267991 0.211552 0.0204169
354 4 0.261402 0.21078 0.0445242
297 4 0.264669 0.227805 0.0530039
295 2 0.282661 0.228181 0.0703628
253 2 0.407257 0.203975 0.0695087
254 4 0.409231 0.210669 0.0454989
2791 2 0.428331 0.170609 0.0304496
2793 4 0.444297 0.189774 0.0287313
2893 2 0.459966 0.232139 0.0445916
2894 4 0.4813 0.219109 0.0451162
2895 4 0.438632 0.245168 0.0440669
2639 4 0.499271 0.216358 0.0385671
456 4 0.120181 0.313164 0.0161932
455 4 0.136113 0.290777 0.057975
454 2 0.128147 0.301971 0.0370841
287 4 0.153331 0.29947 0.0604145
294 4 0.132715 0.313001 0.00105923
286 2 0.175904 0.310031 0.0624424
288 4 0.198477 0.320592 0.0644702
252 4 0.214794 0.331191 0.058964
1071 4 0.379006 0.318375 0.0508421
1069 2 0.370736 0.325317 0.0282899
324 4 0.398684 0.320071 0.0554577
1070 4 0.362467 0.332259 0.00573761
13 3 0.369818 0.316171 0.0678117
11 1 0.360474 0.330156 0.0837962
322 2 0.421274 0.330286 0.052209
671 4 0.456192 0.326876 0.0537847
328 2 0.0101834 0.40709 0.0537141
330 4 0.0318293 0.406853 0.0412011
250 2 0.222087 0.355058 0.0604998
251 4 0.22938 0.378925 0.0620357
483 4 0.238178 0.38612 0.0443771
481 2 0.256651 0.38841 0.0276834
482 4 0.275124 0.3907 0.0109898
957 4 0.368967 0.349332 2.239e-05
12 3 0.349383 0.347262 0.0731412
323 4 0.443863 0.340502 0.0489603
670 2 0.478439 0.334019 0.0626863
672 4 0.500685 0.341162 0.0715879
550 2 0.0619324 0.421105 0.0359341
551 4 0.0380829 0.419834 0.0285336
2984 4 0.0137514 0.457931 0.0067528
314 4 0.0444085 0.504176 0.0551985
313 2 0.020164 0.498073 0.0548213
552 4 0.0857818 0.422375 0.0433346
1618 2 0.153872 0.495241 0.0048576
493 2 0.373755 0.427446 0.0132465
494 4 0.366045 0.440966 0.0328152
525 4 0.348744 0.452911 0.0373512
523 2 0.347336 0.455271 0.0622034
381 4 0.0457797 0.0177857 0.137777
1422 4 0.0411917 0.0115587 0.154965
379 2 0.0408333 0.0307824 0.116997
380 4 0.035887 0.0437792 0.0962175
589 2 0.0362119 0.0822681 0.0922816
450 4 0.115265 0.0433731 0.101129
448 2 0.121874 0.0583641 0.120017
449 4 0.128484 0.0733552 0.138905
484 2 0.24677 0.0416099 0.0878597
566 4 0.264918 0.0799218 0.0968264
485 4 0.259123 0.0606739 0.0983062
653 4 0.31471 0.044788 0.128516
652 2 0.334621 0.0397886 0.142791
654 4 0.354531 0.0347891 0.157066
1447 2 0.413213 0.0126627 0.0927223
1449 4 0.430767 0.00462422 0.10861
2758 2 0.0459051 0.131955 0.125002
2760 4 0.0323576 0.111594 0.119797
2759 4 0.0594526 0.152315 0.130208
738 4 0.0720894 0.153554 0.14567
591 4 0.0309149 0.105267 0.100537
736 2 0.0951952 0.161066 0.139765
578 4 0.133774 0.089921 0.147478
577 2 0.141363 0.10728 0.163796
746 4 0.444692 0.126641 0.085971
745 2 0.459757 0.123006 0.105593
747 4 0.474821 0.119371 0.125215
771 4 0.485199 0.10052 0.120122
25 3 0.476363 0.121378 0.144239
21 1 0.464718 0.118259 0.16356
24 3 0.442402 0.114081 0.158767
705 4 0.00458159 0.180684 0.115242
703 2 0.013939 0.185059 0.138012
704 4 0.0232964 0.189434 0.160782
737 4 0.118301 0.168578 0.13386
507 4 0.121818 0.186758 0.129042
505 2 0.132694 0.196414 0.108704
506 4 0.14357 0.20607 0.088365
754 2 0.183399 0.212503 0.092607
756 4 0.204137 0.22316 0.101637
462 4 0.21645 0.21749 0.118488
460 2 0.23607 0.226374 0.131188
278 4 0.230408 0.193904 0.150801
296 4 0.300653 0.228557 0.0877216
581 4 0.303043 0.209461 0.0862111
580 2 0.315388 0.187926 0.0832046
461 4 0.25569 0.235258 0.143889
623 4 0.273571 0.241962 0.142002
255 4 0.405282 0.197281 0.0935185
518 4 0.400831 0.212922 0.104608
517 2 0.392667 0.226771 0.123758
519 4 0.384502 0.24062 0.142908
309 4 0.368254 0.245852 0.132327
527 4 0.465004 0.248996 0.15644
2806 2 0.0151149 0.302444 0.106688
2807 4 0.0384218 0.29656 0.113569
477 4 0.0466932 0.309005 0.100637
475 2 0.0692912 0.313037 0.110549
476 4 0.0918892 0.317069 0.120461
362 4 0.112165 0.318513 0.120034
361 2 0.120022 0.304382 0.139107
363 4 0.127879 0.29025 0.158179
609 4 0.228952 0.331534 0.123817
607 2 0.234103 0.326239 0.147704
622 2 0.292343 0.257162 0.135543
624 4 0.311116 0.272363 0.129084
740 4 0.309486 0.272041 0.108565
739 2 0.324097 0.288201 0.0962945
15 3 0.345717 0.318503 0.0966443
741 4 0.338708 0.304361 0.0840243
307 2 0.354567 0.262806 0.144591
308 4 0.340881 0.279761 0.156855
2841 4 0.457449 0.297028 0.120626
2839 2 0.453662 0.275491 0.132751
2840 4 0.449875 0.253954 0.144876
415 2 0.0713067 0.413238 0.132074
416 4 0.0850869 0.40646 0.151805
387 4 0.321494 0.407141 0.141624
385 2 0.330232 0.397581 0.163012
245 4 0.320296 0.407799 0.120591
14 3 0.377165 0.339201 0.0971381
2652 4 0.442983 0.378371 0.139095
596 4 0.434385 0.396745 0.141516
2650 2 0.461218 0.3698 0.153901
417 4 0.0575265 0.420017 0.112342
2619 4 0.0108643 0.486064 0.157874
1787 4 0.0878581 0.482207 0.0936311
537 4 0.0939974 0.42219 0.159452
1788 4 0.123651 0.458066 0.118865
1786 2 0.105755 0.470136 0.106248
290 4 0.14119 0.45018 0.111713
289 2 0.154255 0.445492 0.132509
1709 4 0.0983097 0.49875 0.0883295
291 4 0.167321 0.440804 0.153306
627 4 0.18732 0.441666 0.151149
625 2 0.211022 0.449474 0.152708
626 4 0.234724 0.457282 0.154266
244 2 0.331548 0.428699 0.112734
768 4 0.250508 0.459405 0.166034
524 4 0.345927 0.45763 0.0870555
246 4 0.3428 0.4496 0.104877
659 4 0.400078 0.45786 0.151079
658 2 0.401384 0.482817 0.150301
597 4 0.410963 0.440637 0.146581
595 2 0.422674 0.418691 0.144048
1404 4 0.0480153 0.049912 0.23732
693 4 0.232534 0.0713336 0.188795
691 2 0.249157 0.0534535 0.194196
723 4 0.245411 0.0806176 0.203025
1504 2 0.276981 0.00266832 0.210078
1505 4 0.282409 0.0225665 0.195943
692 4 0.265779 0.0355734 0.199597
27 3 0.300788 0.0532761 0.237038
30 3 0.274351 0.0273203 0.241541
1476 4 0.349132 0.0388623 0.175321
1474 2 0.363928 0.0214846 0.185532
1475 4 0.378724 0.00410679 0.195743
579 4 0.148953 0.124638 0.180113
236 4 0.159457 0.118415 0.195063
235 2 0.183427 0.124166 0.199256
237 4 0.207396 0.129918 0.203449
722 4 0.222263 0.123648 0.213667
721 2 0.233837 0.102133 0.208346
759 4 0.412477 0.156498 0.202841
757 2 0.420824 0.13871 0.187378
23 3 0.473727 0.100489 0.175453
758 4 0.429172 0.120922 0.171916
22 3 0.466127 0.137286 0.176412
511 2 0.0827643 0.181561 0.243673
512 4 0.0922407 0.185018 0.220795
393 4 0.109535 0.193152 0.214425
391 2 0.129481 0.205454 0.223143
392 4 0.149427 0.217756 0.23186
732 4 0.231627 0.179624 0.204257
277 2 0.222923 0.191901 0.174574
279 4 0.215438 0.189897 0.198346
730 2 0.24805 0.178969 0.223099
731 4 0.264473 0.178313 0.241942
763 2 0.32691 0.228703 0.240478
629 4 0.397042 0.168312 0.202392
628 2 0.399521 0.191025 0.192237
764 4 0.338139 0.243013 0.223322
630 4 0.402 0.213739 0.182081
377 4 0.407202 0.23391 0.188402
376 2 0.401459 0.243633 0.21071
520 2 0.464176 0.209144 0.22555
521 4 0.459799 0.200943 0.202339
528 4 0.462214 0.243686 0.206086
526 2 0.463609 0.246341 0.181263
522 4 0.468553 0.217344 0.248762
646 2 0.0600235 0.314789 0.182004
647 4 0.059697 0.292762 0.170176
396 4 0.0760008 0.282436 0.174691
395 4 0.111247 0.251486 0.192026
394 2 0.0936241 0.266961 0.183359
733 2 0.0883757 0.304507 0.249872
339 4 0.132108 0.284851 0.176374
337 2 0.153307 0.288031 0.189246
734 4 0.0968545 0.326566 0.241707
608 4 0.239254 0.320945 0.171592
338 4 0.174506 0.291212 0.202117
344 4 0.308605 0.301636 0.237472
343 2 0.306263 0.317309 0.218131
345 4 0.30392 0.332983 0.198791
497 4 0.340689 0.262623 0.222867
498 4 0.338471 0.270978 0.173613
496 2 0.33958 0.2668 0.19824
378 4 0.395716 0.253356 0.233018
648 4 0.06035 0.336815 0.193832
620 4 0.0476366 0.352405 0.197704
619 2 0.0247555 0.348509 0.207003
621 4 0.00187446 0.344614 0.216301
299 4 0.107929 0.341847 0.249844
298 2 0.105267 0.356049 0.229438
300 4 0.102605 0.370251 0.209032
612 4 0.246964 0.33787 0.178634
611 4 0.294086 0.348219 0.191794
610 2 0.270525 0.343044 0.185214
386 4 0.338969 0.388021 0.184399
644 4 0.357316 0.38737 0.191025
643 2 0.364408 0.400014 0.211397
645 4 0.371499 0.412657 0.231769
542 4 0.381825 0.397537 0.238837
2651 4 0.479453 0.36123 0.168706
2536 2 0.483071 0.367831 0.20991
2538 4 0.473931 0.364265 0.186912
2537 4 0.492211 0.371397 0.232908
536 4 0.128364 0.446921 0.18606
535 2 0.111181 0.434556 0.172756
1774 2 0.129473 0.470974 0.221275
1775 4 0.123838 0.456103 0.201981
1776 4 0.135108 0.485846 0.240569
601 2 0.204467 0.429693 0.243506
603 4 0.203085 0.442247 0.221927
766 2 0.253255 0.483409 0.172472
1658 4 0.323911 0.487174 0.178876
1574 4 0.302835 0.434079 0.218399
1573 2 0.314481 0.42593 0.238969
1657 2 0.319823 0.483034 0.203193
1659 4 0.315735 0.478893 0.227511
230 4 0.363466 0.459525 0.219125
229 2 0.383322 0.474421 0.222131
231 4 0.403177 0.489318 0.225138
713 4 0.423352 0.487043 0.227949
2860 2 0.497435 0.452543 0.244232
1568 4 0.491077 0.482258 0.212365
1567 2 0.498121 0.489123 0.189378
2862 4 0.486648 0.46901 0.228816
712 2 0.434393 0.473532 0.245859
1402 2 0.0370826 0.0366825 0.255503
1403 4 0.0261498 0.023453 0.273686
1478 4 0.118703 0.0172851 0.317295
1477 2 0.132436 0.0314681 0.301952
429 4 0.144679 0.0595225 0.27146
1479 4 0.146169 0.0456511 0.286608
28 3 0.309175 0.0210082 0.25439
26 1 0.292655 0.0369591 0.251065
29 3 0.286846 0.0466871 0.271315
248 4 0.282294 0.0522511 0.290183
247 2 0.277508 0.0602037 0.313399
1748 4 0.397321 0.0453532 0.305404
1747 2 0.389192 0.0223167 0.310736
1749 4 0.381064 0.99928 0.316068
743 4 0.403885 0.0467665 0.285358
742 2 0.423523 0.0621483 0.287065
744 4 0.443162 0.0775301 0.288771
530 4 0.046492 0.149743 0.305186
458 4 0.0383321 0.131038 0.308216
457 2 0.0208907 0.129947 0.326098
428 4 0.138963 0.106481 0.255243
427 2 0.141821 0.0830016 0.263352
606 4 0.262375 0.165788 0.258084
404 4 0.272708 0.11434 0.301384
605 4 0.272268 0.123249 0.282442
604 2 0.267322 0.144519 0.270263
707 4 0.321032 0.162998 0.294883
403 2 0.28487 0.124585 0.320679
633 4 0.337462 0.158696 0.283341
631 2 0.358618 0.150192 0.273079
632 4 0.379774 0.141689 0.262818
698 4 0.399781 0.144553 0.260849
697 2 0.412983 0.155197 0.279223
516 4 0.390787 0.144398 0.333474
699 4 0.426185 0.165841 0.297597
2798 4 0.00739767 0.225786 0.256194
529 2 0.0519336 0.168746 0.289874
531 4 0.0573753 0.187748 0.274562
513 4 0.0732879 0.178104 0.266552
2797 2 0.0269211 0.231413 0.270767
2654 4 0.0645525 0.236393 0.276232
2653 2 0.0826108 0.221919 0.285696
2799 4 0.0464446 0.237039 0.285339
546 4 0.153841 0.220749 0.250917
2655 4 0.100669 0.207444 0.29516
2850 4 0.0995668 0.198149 0.313955
2848 2 0.121966 0.194936 0.324591
544 2 0.159311 0.240686 0.264981
389 4 0.13402 0.24697 0.325306
2849 4 0.144365 0.191722 0.335227
765 4 0.315682 0.214393 0.257634
708 4 0.309507 0.207278 0.274704
706 2 0.315269 0.185138 0.284794
333 4 0.437682 0.182583 0.30292
311 4 0.484917 0.232615 0.324825
420 4 0.474407 0.213531 0.266376
418 2 0.475152 0.227219 0.287287
419 4 0.475897 0.240907 0.308197
331 2 0.436652 0.200574 0.320253
735 4 0.079897 0.282448 0.258038
2694 4 0.0599819 0.279876 0.263574
2692 2 0.0444894 0.281389 0.283141
2693 4 0.0289968 0.282902 0.302708
2718 4 0.0162863 0.269877 0.313072
750 4 0.128421 0.252305 0.307336
748 2 0.128643 0.275263 0.297433
749 4 0.128865 0.298221 0.28753
618 4 0.13404 0.307302 0.271151
616 2 0.142295 0.329366 0.279529
545 4 0.164781 0.260622 0.279045
284 4 0.220466 0.285533 0.264224
285 4 0.181976 0.264916 0.288598
283 2 0.201221 0.275224 0.276411
509 4 0.274227 0.307312 0.305147
435 4 0.274665 0.312105 0.286652
508 2 0.286539 0.314756 0.325597
433 2 0.263761 0.33222 0.27657
614 4 0.41047 0.323121 0.292998
613 2 0.428488 0.309194 0.303321
615 4 0.446506 0.295267 0.313643
2924 4 0.454557 0.313108 0.321254
2802 4 0.0208874 0.333848 0.328675
2463 4 0.00624517 0.337831 0.316386
366 4 0.120465 0.410093 0.274295
364 2 0.127616 0.386469 0.278285
365 4 0.134767 0.362845 0.282276
617 4 0.15055 0.35143 0.287907
678 4 0.115214 0.397929 0.327902
729 4 0.246449 0.363342 0.281716
728 4 0.214375 0.400154 0.270907
727 2 0.230412 0.381748 0.276311
1575 4 0.326127 0.41778 0.25954
434 4 0.252857 0.352336 0.266487
276 4 0.400351 0.340946 0.292471
274 2 0.380563 0.344029 0.307441
541 2 0.379473 0.396624 0.263713
543 4 0.37712 0.395711 0.288589
275 4 0.360775 0.347112 0.322412
446 4 0.387567 0.406653 0.301728
110 3 0.473704 0.39685 0.263114
106 1 0.496374 0.397079 0.260951
501 4 0.0327315 0.492245 0.335389
3959 4 0.0188366 0.488962 0.255652
680 4 0.049123 0.483612 0.328678
679 2 0.0572107 0.459971 0.327754
681 4 0.0652984 0.43633 0.326829
2690 4 0.00127532 0.484557 0.248321
602 4 0.205849 0.417138 0.265085
502 2 0.18612 0.489448 0.32899
437 4 0.216672 0.48943 0.310905
503 4 0.20802 0.477777 0.325933
436 2 0.239462 0.499265 0.313911
1435 2 0.294724 0.50144 0.318447
1437 4 0.312132 0.489417 0.331773
2 3 0.343362 0.498603 0.326722
445 2 0.389428 0.427703 0.315094
447 4 0.391288 0.448752 0.328459
1472 4 0.457276 0.46129 0.279833
1471 2 0.462302 0.463477 0.304228
714 4 0.445434 0.460022 0.263768
1473 4 0.467327 0.465664 0.328624
600 4 0.211758 0.0678113 0.382116
2428 2 0.240097 0.035698 0.390828
2429 4 0.223069 0.0540067 0.3907
249 4 0.272721 0.0681564 0.336616
2430 4 0.257125 0.0173894 0.390956
1701 4 0.319771 0.0320256 0.369168
1700 4 0.283494 0.0624088 0.352994
1699 2 0.301633 0.0472172 0.361081
2642 4 0.442159 0.0847294 0.41253
459 4 0.00344935 0.128857 0.343981
340 2 0.0486225 0.118455 0.389148
341 4 0.0398616 0.101654 0.405462
342 4 0.0573833 0.135256 0.372833
686 4 0.065731 0.143129 0.389219
1035 4 0.0293187 0.114061 0.416444
369 4 0.120526 0.147616 0.380875
367 2 0.137385 0.165833 0.383893
598 2 0.212623 0.0878998 0.396978
599 4 0.213487 0.107988 0.411841
405 4 0.297031 0.13483 0.339975
468 4 0.29861 0.127908 0.359032
466 2 0.310425 0.129179 0.381031
467 4 0.322241 0.130451 0.40303
651 4 0.251767 0.164591 0.407696
514 2 0.408473 0.143007 0.351094
515 4 0.426158 0.141616 0.368714
480 4 0.436734 0.124966 0.367548
2909 4 0.484937 0.134078 0.36611
478 2 0.431672 0.108296 0.385482
479 4 0.42661 0.0916248 0.403417
685 2 0.0739823 0.166066 0.394789
687 4 0.0822336 0.189002 0.400359
470 4 0.0702664 0.202803 0.410928
368 4 0.154243 0.18405 0.386912
388 2 0.150584 0.241181 0.343119
390 4 0.167148 0.235392 0.360932
473 4 0.219246 0.209121 0.368172
472 2 0.239253 0.209262 0.383167
371 4 0.183729 0.247639 0.366631
474 4 0.259261 0.209404 0.398161
715 2 0.299872 0.201678 0.389
717 4 0.286424 0.189445 0.371833
716 4 0.313319 0.213911 0.406167
488 4 0.326583 0.203906 0.416617
349 2 0.408337 0.226761 0.364342
350 4 0.397579 0.226004 0.386901
332 4 0.435623 0.218566 0.337586
351 4 0.419094 0.227517 0.341783
452 4 0.452187 0.220827 0.397007
2516 4 0.48603 0.196265 0.354705
2515 2 0.466116 0.20489 0.367122
2517 4 0.446202 0.213516 0.37954
2800 2 0.0414676 0.32946 0.34218
2801 4 0.0620478 0.325072 0.355685
443 4 0.0651881 0.305311 0.359438
442 2 0.0837395 0.296015 0.373388
444 4 0.102291 0.286718 0.387338
260 4 0.108069 0.281326 0.405218
370 2 0.176849 0.256117 0.389124
372 4 0.169968 0.264595 0.411618
636 4 0.304103 0.327401 0.365056
510 4 0.298851 0.322199 0.346046
2923 2 0.469184 0.321754 0.339598
2925 4 0.48381 0.330401 0.357941
375 4 0.130406 0.404927 0.339654
373 2 0.143914 0.406834 0.360608
374 4 0.157423 0.408741 0.381562
676 2 0.094709 0.410928 0.333879
634 2 0.316192 0.340276 0.382755
635 4 0.32828 0.353152 0.400454
117 3 0.488905 0.348937 0.364451
120 3 0.494495 0.384187 0.353537
548 4 0.00292334 0.423846 0.413276
677 4 0.0742038 0.423928 0.339856
326 4 0.149713 0.420235 0.396572
5 3 0.318867 0.47656 0.344243
1556 4 0.329323 0.478655 0.393792
3 3 0.355723 0.469255 0.346687
4 3 0.340975 0.499579 0.364219
593 4 0.343195 0.469455 0.404117
1 1 0.339598 0.4859 0.345527
752 4 0.404141 0.455145 0.343713
751 2 0.409543 0.449603 0.367488
753 4 0.414945 0.44406 0.391264
592 2 0.367409 0.466639 0.40968
594 4 0.391622 0.463823 0.415244
560 4 0.417036 0.492175 0.416609
1716 4 0.48281 0.472468 0.340815
719 4 0.0564881 0.0215627 0.501899
1058 4 0.203884 0.000740775 0.454968
1057 2 0.214897 0.0101075 0.475368
1059 4 0.22591 0.0194743 0.495768
1516 2 0.416289 0.0578584 0.487653
1518 4 0.393018 0.0669373 0.488749
575 4 0.387457 0.0455083 0.439341
574 2 0.376681 0.0665522 0.447478
2643 4 0.421758 0.0620839 0.452174
2879 4 0.490046 0.031015 0.476407
2878 2 0.466375 0.0301869 0.48442
2880 4 0.442705 0.0293587 0.492433
1517 4 0.439561 0.0487794 0.486557
2641 2 0.431959 0.0734066 0.432352
938 4 0.0257697 0.13383 0.480125
1034 4 0.035344 0.121628 0.465507
1033 2 0.0323313 0.117845 0.440975
937 2 0.0158661 0.143865 0.500775
684 4 0.326861 0.129405 0.423131
682 2 0.344363 0.117975 0.436849
683 4 0.361865 0.106545 0.450568
576 4 0.365905 0.0875961 0.455615
726 4 0.35393 0.125736 0.49695
469 2 0.0569561 0.220486 0.422561
471 4 0.0436458 0.238169 0.434195
823 2 0.0800678 0.187095 0.490239
1199 4 0.0541893 0.242084 0.49828
1200 4 0.0544752 0.247417 0.448559
1198 2 0.0543322 0.244751 0.47342
825 4 0.0822583 0.178012 0.467047
321 4 0.239893 0.186056 0.461663
319 2 0.229418 0.199875 0.479677
320 4 0.218944 0.213693 0.497691
649 2 0.253569 0.170688 0.431878
650 4 0.25537 0.176786 0.45606
487 2 0.329912 0.21944 0.435925
489 4 0.333242 0.234973 0.455233
267 4 0.347897 0.248884 0.456436
451 2 0.440103 0.227345 0.417903
453 4 0.428019 0.233864 0.438799
259 2 0.110207 0.280789 0.430124
261 4 0.112345 0.280252 0.45503
695 4 0.130098 0.285681 0.461089
694 2 0.135955 0.287826 0.485302
401 4 0.170786 0.269053 0.430672
402 4 0.215352 0.267634 0.453312
400 2 0.193069 0.268344 0.441992
774 4 0.197803 0.328461 0.499489
265 2 0.366236 0.265879 0.456372
266 4 0.384575 0.282875 0.456309
584 4 0.401359 0.293019 0.455401
583 2 0.424672 0.284084 0.456768
268 2 0.47493 0.274602 0.493083
269 4 0.463932 0.280033 0.471295
585 4 0.447984 0.27515 0.458135
711 4 0.138806 0.338523 0.465443
773 4 0.152883 0.340095 0.480845
327 4 0.132621 0.402201 0.43997
325 2 0.141167 0.411218 0.418271
710 4 0.134358 0.381936 0.441026
709 2 0.136582 0.36023 0.453235
772 2 0.175343 0.334278 0.490167
873 4 0.3035 0.373913 0.457952
871 2 0.305079 0.361214 0.479433
668 4 0.328547 0.353063 0.421215
669 4 0.363652 0.386771 0.43271
667 2 0.346099 0.369917 0.426962
334 2 0.380334 0.406671 0.463186
336 4 0.379844 0.389505 0.445013
382 2 0.0371728 0.474904 0.484122
406 2 0.0127793 0.449485 0.436031
407 4 0.0281008 0.468842 0.439997
408 4 0.997458 0.430128 0.432064
383 4 0.033252 0.471042 0.459731
240 4 0.388661 0.434329 0.498551
1401 4 0.345729 0.485996 0.490543
335 4 0.380824 0.423837 0.48136
1399 2 0.364755 0.498622 0.480358
662 4 0.485339 0.429543 0.483697
587 4 0.486602 0.447769 0.474357
559 2 0.438644 0.496471 0.428434
586 2 0.480144 0.468967 0.462777
588 4 0.473686 0.490165 0.451196
718 2 0.0378366 0.0138363 0.51665
720 4 0.0191852 0.00610989 0.531401
2318 4 0.184377 0.0500118 0.57077
1152 4 0.224967 0.0382261 0.504362
1150 2 0.23924 0.0586626 0.506316
2317 2 0.19278 0.0705452 0.5823
3157 2 0.321919 0.0331789 0.535834
3159 4 0.298105 0.0311933 0.528479
1151 4 0.253513 0.079099 0.50827
1031 4 0.279865 0.0273726 0.575623
962 4 0.286796 0.00878499 0.570372
3158 4 0.345734 0.0351644 0.54319
1062 4 0.496574 0.0316551 0.554236
3488 4 0.485256 0.046888 0.559797
1060 2 0.496246 0.00687274 0.557538
939 4 0.00596245 0.153901 0.521424
1221 4 0.0955034 0.101206 0.56229
1220 4 0.123897 0.142146 0.558
1219 2 0.1097 0.121676 0.560145
1271 4 0.107567 0.153315 0.55449
1180 2 0.286227 0.0899165 0.508507
1181 4 0.31017 0.0827953 0.509609
1182 4 0.262284 0.0970378 0.507406
725 4 0.329957 0.0868992 0.517387
724 2 0.341944 0.106318 0.507169
900 4 0.34999 0.143515 0.505671
898 2 0.344155 0.167784 0.504199
824 4 0.0778773 0.196178 0.513432
1270 2 0.101295 0.17209 0.539214
1272 4 0.0950233 0.190865 0.523938
346 2 0.137984 0.23271 0.549958
347 4 0.135272 0.207961 0.552263
857 4 0.230323 0.203166 0.556347
411 4 0.240868 0.194183 0.571315
856 2 0.220329 0.211808 0.535119
858 4 0.210335 0.22045 0.513891
640 2 0.365281 0.222365 0.504871
641 4 0.387431 0.233871 0.506343
642 4 0.343131 0.210859 0.503399
899 4 0.33832 0.192053 0.502727
791 4 0.396433 0.2507 0.506512
879 4 0.0481384 0.252939 0.514069
877 2 0.0692964 0.251382 0.527302
348 4 0.140696 0.257459 0.547653
878 4 0.0904545 0.249825 0.540534
8 3 0.137051 0.275979 0.552796
9 3 0.102204 0.268927 0.539366
6 1 0.118867 0.284932 0.5415
7 3 0.11062 0.302689 0.553576
10 3 0.125328 0.292217 0.520912
696 4 0.141811 0.28997 0.509515
1393 2 0.192625 0.315463 0.539359
1395 4 0.2027 0.322652 0.517633
1394 4 0.18255 0.308275 0.561084
1190 4 0.18345 0.321341 0.575341
811 2 0.308969 0.325479 0.535967
812 4 0.309183 0.305821 0.551417
790 2 0.390024 0.270545 0.520305
792 4 0.383614 0.290391 0.534098
3309 4 0.499553 0.279145 0.526944
270 4 0.485929 0.269171 0.514871
2814 4 0.00282912 0.412503 0.527126
1029 4 0.234692 0.40099 0.564788
1239 4 0.237274 0.383346 0.572994
813 4 0.308754 0.345137 0.520517
872 4 0.306657 0.348516 0.500914
936 4 0.0695831 0.459536 0.553135
934 2 0.0516311 0.470956 0.540002
935 4 0.0336791 0.482377 0.526869
1040 4 0.0635324 0.459283 0.573516
384 4 0.0410935 0.478765 0.508512
1039 2 0.0860401 0.452466 0.582008
2242 2 0.237997 0.494794 0.556319
1027 2 0.249569 0.418903 0.555679
2243 4 0.227314 0.494005 0.578912
2244 4 0.248679 0.495584 0.533726
1446 4 0.252159 0.499409 0.514089
1171 2 0.300605 0.44525 0.542147
1173 4 0.322289 0.4446 0.529715
1172 4 0.278921 0.445899 0.55458
1028 4 0.264446 0.436817 0.54657
1952 4 0.284389 0.490036 0.567857
928 2 0.397216 0.483736 0.549969
239 4 0.414602 0.445706 0.539762
930 4 0.412705 0.464269 0.547462
238 2 0.401632 0.440017 0.519157
1000 2 0.460437 0.478407 0.567919
1002 4 0.444468 0.492299 0.554608
1001 4 0.476406 0.464515 0.581229
3078 4 0.0132976 0.0734155 0.657806
3076 2 0.00896566 0.080087 0.634102
1030 2 0.297884 0.0373929 0.589768
1005 4 0.331566 0.024366 0.650265
1032 4 0.315903 0.0474131 0.603913
1141 2 0.324508 0.0781398 0.619263
1142 4 0.328054 0.0625979 0.6
951 4 0.31856 0.0117074 0.65987
1003 2 0.353095 0.011667 0.65091
841 2 0.407396 0.0239465 0.640526
843 4 0.394227 0.00280516 0.642721
842 4 0.420564 0.0450878 0.638331
4227 4 0.485295 0.015838 0.644702
1163 4 0.492524 0.00919771 0.662721
1184 4 0.00967881 0.0933931 0.592831
3077 4 0.00463377 0.0867585 0.610397
2319 4 0.201183 0.0910785 0.593831
1284 4 0.202037 0.0891245 0.613608
1282 2 0.217909 0.106932 0.621101
1283 4 0.233781 0.124739 0.628595
1155 4 0.234446 0.140551 0.638598
1153 2 0.249278 0.156033 0.651464
887 4 0.318264 0.0824727 0.65549
1143 4 0.320962 0.0936817 0.638525
886 2 0.308052 0.102489 0.666456
1025 4 0.453027 0.116946 0.665441
1024 2 0.466178 0.124449 0.645543
1026 4 0.479329 0.131952 0.625645
1010 4 0.492365 0.147723 0.625942
851 4 0.0154755 0.216826 0.653775
409 2 0.227027 0.195568 0.592092
1211 4 0.183303 0.212601 0.658126
1212 4 0.197133 0.18792 0.616892
410 4 0.213186 0.196952 0.61287
1210 2 0.190218 0.20026 0.637509
1154 4 0.264109 0.171514 0.66433
954 4 0.364201 0.2382 0.629635
806 4 0.322478 0.313564 0.594233
803 4 0.309412 0.314661 0.610921
802 2 0.291586 0.322872 0.59543
804 4 0.27376 0.331082 0.579938
805 2 0.337969 0.294273 0.597852
807 4 0.353459 0.274983 0.601471
952 2 0.368562 0.260942 0.639066
953 4 0.372922 0.283685 0.648497
3370 2 0.482465 0.309331 0.664901
3372 4 0.49213 0.326848 0.649903
1007 4 0.480726 0.329304 0.634192
895 2 0.158208 0.376155 0.621152
896 4 0.142068 0.392409 0.631176
992 4 0.131602 0.396411 0.648205
991 2 0.118663 0.380254 0.66223
897 4 0.174349 0.359901 0.611129
1191 4 0.193283 0.353403 0.612436
1189 2 0.188366 0.337372 0.593889
1237 2 0.253205 0.365912 0.581206
1238 4 0.269137 0.348479 0.589419
798 4 0.33915 0.336468 0.665773
1043 4 0.392553 0.331905 0.64814
1042 2 0.369392 0.341177 0.649803
1044 4 0.346231 0.35045 0.651466
1006 2 0.46933 0.350529 0.627498
1008 4 0.457934 0.371754 0.620805
1099 2 0.464907 0.402539 0.664503
1136 4 0.125439 0.446736 0.581095
1041 4 0.108548 0.44565 0.5905
1135 2 0.142774 0.455679 0.596738
1137 4 0.160109 0.464622 0.612381
540 4 0.169387 0.483112 0.615523
539 4 0.214911 0.486907 0.595178
538 2 0.192149 0.48501 0.60535
1951 2 0.298511 0.500298 0.585759
889 2 0.325617 0.499528 0.63495
890 4 0.322342 0.496357 0.659535
1205 4 0.32386 0.47581 0.663077
1100 4 0.465743 0.423154 0.650378
927 4 0.470048 0.43986 0.640743
926 4 0.485267 0.460463 0.597794
925 2 0.477658 0.450161 0.619269
945 4 0.132599 0.0498892 0.686897
2255 4 0.139166 0.037353 0.701164
2254 2 0.159013 0.0286018 0.713602
943 2 0.13173 0.0744222 0.691646
2256 4 0.17886 0.0198505 0.72604
1970 4 0.172418 0.0110085 0.74286
1092 4 0.311557 0.0277297 0.719423
949 2 0.310102 0.0224081 0.680826
950 4 0.301645 0.0331087 0.701782
1090 2 0.313044 0.0353859 0.743179
3424 2 0.461988 0.0832023 0.691053
3426 4 0.46178 0.0614989 0.703466
1162 2 0.484383 0.006021 0.686148
1164 4 0.476242 0.00284429 0.709574
2990 4 0.0242055 0.0890401 0.662473
2989 2 0.0453988 0.0987978 0.671462
2991 4 0.066592 0.108556 0.680452
864 4 0.0723049 0.12407 0.689616
1214 4 0.0234915 0.163789 0.751831
944 4 0.13086 0.0989553 0.696395
863 4 0.11961 0.108832 0.684072
862 2 0.0959575 0.116451 0.686844
831 4 0.224339 0.101927 0.744126
1298 4 0.276608 0.157979 0.722756
1085 4 0.295015 0.154293 0.727899
1084 2 0.3146 0.159182 0.742654
888 4 0.297841 0.122506 0.677422
1297 2 0.278696 0.163469 0.698452
1299 4 0.280784 0.168959 0.674148
3425 4 0.462196 0.104906 0.678639
45 3 0.450426 0.142875 0.738001
1179 4 0.0560197 0.167541 0.703356
850 2 0.0165976 0.196974 0.668934
852 4 0.0177196 0.177121 0.684093
1177 2 0.06982 0.184992 0.714766
1178 4 0.0836203 0.202444 0.726176
3039 4 0.00743213 0.236734 0.682735
946 2 0.117376 0.220741 0.727319
948 4 0.142226 0.221524 0.724668
1260 4 0.15817 0.224978 0.714822
947 4 0.0925257 0.219957 0.72997
1258 2 0.174035 0.219776 0.69621
1259 4 0.1899 0.214573 0.677598
1262 4 0.405389 0.217057 0.671277
1192 2 0.352505 0.239772 0.732495
1261 2 0.42669 0.222625 0.683128
1263 4 0.447991 0.228192 0.694979
3123 4 0.451495 0.248415 0.695932
1208 4 0.00602023 0.271851 0.73155
1194 4 0.361777 0.257592 0.717607
3371 4 0.472801 0.291815 0.679899
3121 2 0.463151 0.270401 0.698371
3122 4 0.474806 0.292387 0.700811
1280 4 0.0324191 0.400875 0.694829
1279 2 0.0248193 0.378653 0.703408
1281 4 0.0172194 0.356431 0.711986
884 4 0.0250528 0.410271 0.711375
1068 4 0.118925 0.357948 0.688069
1066 2 0.120245 0.346696 0.710359
1067 4 0.121565 0.335445 0.732649
993 4 0.105723 0.364097 0.676255
1096 2 0.221551 0.381003 0.710653
1097 4 0.221936 0.381571 0.685658
1278 4 0.229099 0.364526 0.67687
1098 4 0.221167 0.380436 0.735647
1277 4 0.275864 0.348453 0.669425
1276 2 0.252481 0.35649 0.673147
797 4 0.294395 0.357952 0.671788
796 2 0.316773 0.34721 0.668781
1089 4 0.341068 0.404795 0.744977
1140 4 0.347785 0.416266 0.730915
1101 4 0.46407 0.381924 0.678628
3329 4 0.477904 0.368578 0.684474
3330 4 0.460059 0.363307 0.730891
3328 2 0.468982 0.365943 0.707683
3182 4 0.456774 0.38314 0.731672
894 4 0.00765051 0.46762 0.706892
2129 4 0.0237896 0.47723 0.698968
883 2 0.0340429 0.430818 0.722429
2128 2 0.0456429 0.488253 0.704076
885 4 0.043033 0.451365 0.733483
2130 4 0.0674961 0.499277 0.709184
815 4 0.0536678 0.460833 0.747627
1983 4 0.0834909 0.48932 0.710399
940 2 0.149307 0.471059 0.728528
942 4 0.144114 0.471273 0.704071
1138 2 0.36042 0.428771 0.713333
1139 4 0.373056 0.441277 0.695751
1206 4 0.362513 0.449535 0.68086
1204 2 0.343186 0.462672 0.671969
1294 2 0.0152484 0.0210517 0.784184
1296 4 0.0388675 0.0292429 0.784654
1286 4 0.0530746 0.0425051 0.78856
1285 2 0.0707369 0.0598882 0.785236
1287 4 0.0883992 0.0772713 0.781912
1203 4 0.107542 0.0825775 0.784579
1091 4 0.314531 0.043042 0.766935
1256 4 0.321894 0.0162705 0.816755
1049 4 0.331136 0.0527577 0.773013
1048 2 0.335917 0.0376051 0.792319
1050 4 0.340698 0.0224525 0.811625
964 2 0.404981 0.0542489 0.780695
966 4 0.38303 0.0501105 0.769461
1995 4 0.477863 0.00609597 0.813232
845 4 0.477514 0.0597348 0.815904
965 4 0.426932 0.0583873 0.791929
2322 4 0.437056 0.0484311 0.807116
1112 4 0.471211 0.0782775 0.815704
2320 2 0.442819 0.0460293 0.831327
1105 2 0.0540616 0.142017 0.772338
1106 4 0.0411026 0.159327 0.759784
1107 4 0.0670207 0.124707 0.784892
34 3 0.0704998 0.118221 0.803587
31 1 0.0748448 0.115174 0.826175
1202 4 0.119733 0.11879 0.752318
1201 2 0.113638 0.100683 0.768449
1130 4 0.15368 0.159805 0.773466
1129 2 0.130248 0.16453 0.780802
909 4 0.156168 0.129694 0.829914
907 2 0.163685 0.121079 0.807677
32 3 0.0976156 0.114284 0.829314