ITEM: TIMESTEP
1410000
ITEM: NUMBER OF ATOMS
4590
ITEM: BOX BOUNDS pp pp pp
-9.9985700000000008e+00 9.9985700000000008e+00
-9.9985700000000008e+00 9.9985700000000008e+00
-9.9985700000000008e+00 9.9985700000000008e+00
ITEM: ATOMS id type xs ys zs
785 4 0.0315704 0.0320175 0.0142555
3291 4 0.0316373 0.0194267 0.0302176
702 4 0.0585798 0.070038 0.0631946
3289 2 0.0151617 0.0292648 0.0462471
700 2 0.0820027 0.0635667 0.0690823
1668 4 0.0460372 0.0809361 0.0530143
701 4 0.105426 0.0570953 0.07497
1540 2 0.29984 0.00458498 0.0250587
1542 4 0.292133 0.00865276 0.00162289
1760 4 0.397411 0.0193177 0.0108663
1759 2 0.419124 0.00750983 0.0146529
1607 4 0.438999 0.0662529 0.0484176
1606 2 0.443821 0.0685751 0.0728417
1666 2 0.0455261 0.0903415 0.0298527
1667 4 0.045015 0.0997468 0.00669114
565 2 0.237485 0.0953406 0.0758784
356 4 0.261649 0.10756 0.0424406
355 2 0.260037 0.132468 0.0409631
567 4 0.254698 0.105828 0.061083
491 4 0.309958 0.112351 0.00649897
557 4 0.307771 0.111897 0.0255813
556 2 0.320871 0.129838 0.0370557
357 4 0.258426 0.157376 0.0394856
558 4 0.333971 0.14778 0.0485301
665 4 0.353908 0.148806 0.0455932
664 2 0.370854 0.159299 0.0304967
3046 2 0.485828 0.131636 0.0153163
2640 4 0.478198 0.122732 0.0543377
3048 4 0.490877 0.124981 0.0388831
2638 2 0.47111 0.139984 0.0709901
571 2 0.236014 0.176289 0.016565
572 4 0.216348 0.177302 0.00115657
573 4 0.25568 0.175277 0.0319735
354 4 0.264797 0.228378 0.0115816
297 4 0.276643 0.21974 0.0255026
295 2 0.27901 0.209989 0.0484044
296 4 0.281377 0.200238 0.0713062
581 4 0.302183 0.201269 0.0729399
666 4 0.3878 0.169791 0.0154002
2792 4 0.40367 0.178746 0.0118698
2895 4 0.443152 0.204559 0.0685438
2771 4 0.00742528 0.298629 0.0792471
456 4 0.140711 0.26872 0.0354041
455 4 0.139698 0.283185 0.0832629
454 2 0.140204 0.275952 0.0593335
294 4 0.134961 0.275085 0.0174492
292 2 0.141532 0.291246 0.999537
741 4 0.322256 0.324596 0.0676482
739 2 0.313263 0.306926 0.0828826
1069 2 0.375669 0.333791 0.0179453
551 4 0.0136252 0.402101 0.0668326
552 4 0.0392481 0.394268 0.024609
550 2 0.0264366 0.398184 0.0457208
251 4 0.213559 0.365246 0.0371013
252 4 0.20119 0.333508 0.0737128
250 2 0.207374 0.349377 0.055407
483 4 0.233405 0.37147 0.0341752
481 2 0.249769 0.374268 0.015478
15 3 0.321291 0.343895 0.0631782
13 3 0.319349 0.381497 0.0631053
11 1 0.33072 0.362986 0.0712582
14 3 0.35305 0.364034 0.0650394
957 4 0.409066 0.401493 0.0116018
1070 4 0.381503 0.342395 0.0406852
324 4 0.408846 0.402261 0.0319201
323 4 0.450292 0.377183 0.0443329
670 2 0.473107 0.358078 0.0713095
322 2 0.429569 0.389722 0.0381265
671 4 0.465592 0.365827 0.048756
1708 2 0.0683525 0.489594 0.0683549
314 4 0.0375536 0.480174 0.0588552
1710 4 0.0529478 0.487049 0.0488255
313 2 0.0143869 0.476309 0.0502792
330 4 0.00407154 0.419765 0.066598
1618 2 0.132571 0.465747 0.0197108
1620 4 0.119179 0.451338 0.00427772
2094 4 0.160821 0.493319 0.0397318
1619 4 0.145964 0.480157 0.0351438
242 4 0.253982 0.499964 0.0266199
241 2 0.234444 0.498558 0.0110805
524 4 0.335195 0.456201 0.0674993
523 2 0.329799 0.453483 0.0432368
525 4 0.324403 0.450765 0.0189742
246 4 0.327567 0.448677 0.0850366
381 4 0.00458904 0.0313516 0.149577
450 4 0.118487 0.0644914 0.0886749
448 2 0.127066 0.0834023 0.102601
484 2 0.217119 0.0498371 0.105416
486 4 0.208883 0.0262298 0.105585
1842 4 0.220256 0.0144883 0.115443
485 4 0.225356 0.0734443 0.105248
653 4 0.357288 0.0237655 0.100857
652 2 0.362377 0.0237118 0.125337
654 4 0.367467 0.0236581 0.149817
1448 4 0.408107 0.0177579 0.0958315
1447 2 0.429934 0.0144173 0.107563
1608 4 0.448643 0.0708973 0.0972657
746 4 0.464444 0.0823841 0.105178
1449 4 0.45176 0.0110767 0.119294
1784 4 0.442053 0.00425429 0.134584
589 2 0.00197188 0.116169 0.123357
591 4 0.000413895 0.13815 0.111542
590 4 0.00352986 0.094188 0.135171
449 4 0.135646 0.102313 0.116528
578 4 0.152398 0.0966338 0.125449
507 4 0.103376 0.156446 0.148292
577 2 0.161928 0.108425 0.145332
566 4 0.220271 0.0848534 0.0906738
582 4 0.323154 0.169282 0.105154
745 2 0.465867 0.102468 0.120003
747 4 0.467291 0.122551 0.134829
771 4 0.488127 0.12249 0.135268
22 3 0.455116 0.12712 0.149793
2639 4 0.464022 0.157236 0.0876425
2758 2 0.0151293 0.171118 0.130315
2759 4 0.0287447 0.18396 0.146894
736 2 0.0672444 0.177464 0.154463
738 4 0.0435272 0.182966 0.160156
737 4 0.0909615 0.171962 0.14877
505 2 0.121044 0.172428 0.140702
506 4 0.138712 0.18841 0.133112
755 4 0.148542 0.194899 0.115425
754 2 0.168809 0.208316 0.121292
756 4 0.189075 0.221734 0.127159
462 4 0.200124 0.232285 0.115198
278 4 0.245566 0.198438 0.140761
460 2 0.21777 0.246508 0.104638
277 2 0.258471 0.188281 0.159615
580 2 0.312669 0.185275 0.0890468
307 2 0.321049 0.25119 0.149528
518 4 0.399631 0.242702 0.121222
517 2 0.375099 0.246985 0.118988
255 4 0.403764 0.223448 0.116885
253 2 0.409668 0.202295 0.128837
519 4 0.350566 0.251268 0.116753
309 4 0.339644 0.245686 0.133745
254 4 0.415572 0.181142 0.140789
2893 2 0.449316 0.186986 0.0852281
2894 4 0.45548 0.169413 0.101912
2806 2 0.0261645 0.283748 0.116732
2807 4 0.0382357 0.277828 0.137814
477 4 0.0528534 0.290502 0.138618
475 2 0.0721681 0.306376 0.138968
2808 4 0.0140934 0.289669 0.0956511
287 4 0.157935 0.287998 0.0892621
476 4 0.0914829 0.322251 0.139319
362 4 0.105326 0.310147 0.129976
361 2 0.127123 0.30827 0.142081
363 4 0.14892 0.306394 0.154187
286 2 0.174083 0.307088 0.0893774
288 4 0.190231 0.326177 0.0894926
461 4 0.235416 0.260731 0.0940782
607 2 0.231772 0.285835 0.152658
609 4 0.216037 0.266611 0.15549
623 4 0.238376 0.277249 0.0825144
608 4 0.247507 0.305059 0.149825
612 4 0.265777 0.313225 0.150572
622 2 0.262901 0.280906 0.0857291
624 4 0.287426 0.284563 0.0889439
740 4 0.304271 0.289256 0.0981169
308 4 0.302453 0.256695 0.165311
2841 4 0.465152 0.31666 0.096514
2839 2 0.468936 0.30327 0.117289
2840 4 0.47272 0.289881 0.138063
527 4 0.461074 0.282886 0.153669
415 2 0.0628898 0.373079 0.137953
417 4 0.0406099 0.365455 0.129547
416 4 0.0851698 0.380703 0.146359
537 4 0.101943 0.387525 0.136488
535 2 0.106136 0.406599 0.152102
12 3 0.329389 0.362962 0.094223
245 4 0.333861 0.402042 0.101955
387 4 0.350279 0.399592 0.115256
385 2 0.356572 0.40305 0.139207
386 4 0.362865 0.406508 0.163157
672 4 0.480622 0.35033 0.093863
2652 4 0.425236 0.393435 0.154294
596 4 0.436781 0.407124 0.144591
1709 4 0.0837573 0.492138 0.0878843
290 4 0.14754 0.458805 0.0912849
1787 4 0.094122 0.475598 0.0938299
1788 4 0.14323 0.473814 0.1031
1786 2 0.118676 0.474706 0.0984651
289 2 0.165166 0.445296 0.102773
1775 4 0.112393 0.446199 0.163639
536 4 0.110328 0.425672 0.167716
291 4 0.182793 0.431787 0.114261
627 4 0.180359 0.435028 0.134766
625 2 0.20194 0.431774 0.146967
626 4 0.223521 0.42852 0.159168
244 2 0.330714 0.42536 0.0934959
597 4 0.409084 0.446954 0.132461
659 4 0.418243 0.463258 0.137246
658 2 0.428663 0.484024 0.146488
595 2 0.422932 0.427039 0.138526
1420 2 0.00222779 0.00623296 0.17453
428 4 0.12876 0.0603021 0.213606
427 2 0.1279 0.0505757 0.236624
693 4 0.250466 0.0738287 0.194526
1504 2 0.292144 0.00427557 0.200436
691 2 0.260767 0.0512331 0.19161
1505 4 0.290911 0.0247877 0.186191
692 4 0.271069 0.0286376 0.188695
1476 4 0.364666 0.0297712 0.169029
1474 2 0.362052 0.00915859 0.182938
579 4 0.171459 0.120216 0.165215
236 4 0.184312 0.134639 0.171337
721 2 0.238736 0.100087 0.210775
235 2 0.191046 0.123309 0.192584
237 4 0.197779 0.111979 0.213832
722 4 0.21749 0.11248 0.215275
723 4 0.259981 0.0876948 0.206275
731 4 0.273427 0.150878 0.236971
730 2 0.277545 0.158175 0.213413
759 4 0.389951 0.144232 0.215399
757 2 0.405627 0.137067 0.197286
629 4 0.381294 0.162024 0.218998
758 4 0.421303 0.129901 0.179172
25 3 0.464788 0.0998766 0.173397
21 1 0.459203 0.121899 0.17182
23 3 0.476678 0.135071 0.179534
24 3 0.440041 0.126113 0.184208
511 2 0.0826974 0.218414 0.229864
512 4 0.0912409 0.224421 0.207146
393 4 0.102963 0.218154 0.191451
391 2 0.126527 0.209797 0.191663
392 4 0.150092 0.201439 0.191876
546 4 0.165039 0.213121 0.19856
544 2 0.173949 0.234436 0.208126
732 4 0.281662 0.165472 0.189855
279 4 0.271377 0.178124 0.178468
496 2 0.30108 0.249572 0.205701
498 4 0.304195 0.243863 0.181558
764 4 0.291283 0.238073 0.236956
628 2 0.383716 0.186629 0.222732
630 4 0.386137 0.211233 0.226467
377 4 0.385768 0.228212 0.216025
376 2 0.399412 0.243163 0.201346
520 2 0.461528 0.181609 0.249298
521 4 0.462059 0.178756 0.224464
646 2 0.0591992 0.30049 0.192967
648 4 0.0408088 0.317354 0.191359
647 4 0.0775896 0.283627 0.194575
620 4 0.0308021 0.332762 0.185111
619 2 0.00841215 0.330668 0.196042
735 4 0.0693948 0.298346 0.250093
339 4 0.14713 0.296246 0.196052
396 4 0.0910805 0.272158 0.203399
395 4 0.130305 0.303171 0.202868
394 2 0.110693 0.287665 0.203133
337 2 0.15992 0.317257 0.191567
545 4 0.182858 0.25575 0.217692
285 4 0.190068 0.267122 0.20548
283 2 0.212259 0.275228 0.213668
284 4 0.234449 0.283335 0.221857
497 4 0.297964 0.255281 0.229844
610 2 0.278496 0.308939 0.171668
345 4 0.306251 0.306681 0.206718
611 4 0.291215 0.304654 0.192764
343 2 0.329549 0.308395 0.197805
378 4 0.413057 0.258114 0.186667
344 4 0.352848 0.310108 0.188892
528 4 0.423716 0.274238 0.185767
526 2 0.442395 0.278562 0.169718
300 4 0.111597 0.376631 0.23548
299 4 0.100823 0.352376 0.193097
298 2 0.10621 0.364503 0.214288
338 4 0.172711 0.338269 0.187082
645 4 0.358037 0.38375 0.218685
643 2 0.365547 0.397325 0.199077
644 4 0.373058 0.410901 0.179468
2538 4 0.4157 0.371558 0.212293
2650 2 0.424874 0.379171 0.174827
2651 4 0.424512 0.364907 0.19536
2536 2 0.431683 0.378929 0.230052
2537 4 0.447666 0.3863 0.247811
106 1 0.482866 0.396447 0.250031
107 3 0.484373 0.409604 0.231223
109 3 0.488214 0.374595 0.244348
413 4 0.162675 0.478581 0.252011
412 2 0.141548 0.471038 0.240968
414 4 0.120422 0.463494 0.229926
1774 2 0.116974 0.454566 0.186751
1776 4 0.121554 0.462933 0.209864
768 4 0.236865 0.435201 0.171492
766 2 0.233761 0.456969 0.183395
767 4 0.230656 0.478738 0.195297
638 4 0.222981 0.497484 0.190962
1657 2 0.322169 0.492989 0.197574
1574 4 0.307139 0.455976 0.215121
1659 4 0.308583 0.47462 0.207732
1573 2 0.317099 0.444466 0.234958
1575 4 0.32706 0.432956 0.254795
231 4 0.395406 0.471405 0.243749
229 2 0.376437 0.483721 0.233087
230 4 0.357469 0.496037 0.222425
713 4 0.399022 0.452049 0.239521
1569 4 0.494766 0.495201 0.175985
1568 4 0.46757 0.468633 0.208469
2862 4 0.483487 0.468983 0.221234
1567 2 0.481168 0.481917 0.192227
712 2 0.423063 0.450402 0.23285
714 4 0.447104 0.448754 0.22618
2860 2 0.483797 0.4652 0.245948
1404 4 0.0597372 0.00774084 0.302739
1403 4 0.02159 0.0121097 0.270701
1402 2 0.0406636 0.00992526 0.28672
1477 2 0.113283 0.0119519 0.280747
429 4 0.12704 0.0408493 0.259642
1479 4 0.111723 0.0294058 0.262911
28 3 0.300517 0.034772 0.247403
30 3 0.277281 0.0630497 0.25624
27 3 0.312409 0.0632584 0.268846
26 1 0.294321 0.0499704 0.263805
29 3 0.287728 0.0386856 0.282978
248 4 0.278509 0.0506214 0.296438
247 2 0.280135 0.0469718 0.32112
1747 2 0.39548 0.014497 0.299384
743 4 0.412552 0.0459049 0.309355
1748 4 0.412486 0.0325631 0.296287
742 2 0.421607 0.061962 0.292462
744 4 0.430661 0.078019 0.27557
530 4 0.0520458 0.154585 0.291598
458 4 0.0434556 0.142535 0.304674
457 2 0.025189 0.149468 0.320277
529 2 0.0732237 0.167123 0.287185
606 4 0.269198 0.164943 0.250263
404 4 0.269774 0.141298 0.308752
605 4 0.282385 0.143074 0.293259
604 2 0.275791 0.154008 0.271761
633 4 0.311058 0.14053 0.303412
403 2 0.282008 0.128679 0.326535
632 4 0.355369 0.153398 0.32269
516 4 0.374301 0.156541 0.327787
631 2 0.333214 0.146964 0.313051
698 4 0.423699 0.0968213 0.278387
697 2 0.431597 0.120289 0.281859
699 4 0.439495 0.143757 0.285331
761 4 0.493199 0.15268 0.316429
333 4 0.444089 0.147477 0.303274
2797 2 0.00354973 0.236259 0.271282
513 4 0.074154 0.212406 0.252582
531 4 0.0944016 0.179661 0.282772
2653 2 0.114475 0.243062 0.286667
2655 4 0.106169 0.221974 0.297226
2850 4 0.112542 0.203791 0.293181
2848 2 0.129936 0.191867 0.306614
2849 4 0.14733 0.179943 0.320047
763 2 0.304837 0.233283 0.257414
765 4 0.318391 0.228494 0.277872
708 4 0.308504 0.226318 0.295748
706 2 0.32363 0.217971 0.313822
351 4 0.400871 0.193829 0.313416
707 4 0.338757 0.209624 0.331897
332 4 0.418944 0.187233 0.320243
522 4 0.460998 0.184461 0.274133
420 4 0.457528 0.204704 0.275632
418 2 0.463139 0.220337 0.294321
419 4 0.46875 0.23597 0.313011
331 2 0.431517 0.167355 0.311758
311 4 0.486099 0.245534 0.31739
2799 4 0.0186371 0.251281 0.284393
2693 4 0.0183907 0.261995 0.267511
2694 4 0.0529245 0.297665 0.261526
2692 2 0.0356576 0.27983 0.264519
2802 4 0.0117741 0.335328 0.330196
733 2 0.0906166 0.289229 0.259669
734 4 0.111838 0.280112 0.269245
2654 4 0.122782 0.26415 0.276108
748 2 0.161645 0.295632 0.26922
749 4 0.137286 0.29983 0.265447
618 4 0.124886 0.316067 0.264102
389 4 0.188603 0.281256 0.290459
750 4 0.186003 0.291434 0.272993
388 2 0.193044 0.272902 0.313603
509 4 0.261117 0.328319 0.318737
616 2 0.126191 0.340981 0.265767
364 2 0.137995 0.409399 0.267474
365 4 0.137324 0.384486 0.265461
617 4 0.127495 0.365895 0.267432
727 2 0.228426 0.416401 0.289455
729 4 0.246587 0.401178 0.281478
434 4 0.244597 0.380883 0.277469
435 4 0.254787 0.341591 0.306675
433 2 0.249692 0.361237 0.292072
274 2 0.364138 0.35578 0.327612
276 4 0.386789 0.351205 0.318063
614 4 0.396748 0.365633 0.307446
613 2 0.415593 0.351075 0.315067
108 3 0.461154 0.397432 0.258155
110 3 0.497408 0.404163 0.265768
615 4 0.434439 0.336517 0.322688
679 2 0.0426269 0.448682 0.306364
501 4 0.0292317 0.488482 0.293201
680 4 0.0389648 0.472531 0.29981
681 4 0.0462889 0.424832 0.312917
366 4 0.138665 0.434313 0.269487
677 4 0.136498 0.448364 0.282304
676 2 0.121133 0.458731 0.299086
678 4 0.105769 0.469098 0.315869
603 4 0.168525 0.459939 0.255612
728 4 0.210265 0.431623 0.297432
602 4 0.193854 0.429956 0.286598
601 2 0.18119 0.444947 0.271105
1437 4 0.305477 0.496235 0.314519
542 4 0.331699 0.416635 0.263887
2 3 0.322469 0.484192 0.31427
446 4 0.370502 0.439532 0.309302
541 2 0.34684 0.430556 0.278104
543 4 0.361981 0.444476 0.292322
445 2 0.380589 0.425011 0.326983
1716 4 0.47794 0.488876 0.308379
2861 4 0.484107 0.461416 0.270662
1472 4 0.429681 0.49401 0.276884
249 4 0.28176 0.0433221 0.345802
1701 4 0.326654 0.0296693 0.388854
1700 4 0.284043 0.0356551 0.363375
1699 2 0.305349 0.0326622 0.376114
2429 4 0.248548 0.0246397 0.418893
2641 2 0.415752 0.0395274 0.405517
682 2 0.352255 0.0819005 0.41832
2643 4 0.403775 0.0197627 0.41506
2642 4 0.42773 0.059292 0.395974
479 4 0.431326 0.0733117 0.38092
459 4 0.00692245 0.156401 0.335879
340 2 0.0286264 0.152119 0.405489
342 4 0.0446941 0.163606 0.390158
686 4 0.0603621 0.160205 0.378629
367 2 0.160342 0.161142 0.3746
368 4 0.139994 0.14752 0.369543
405 4 0.294243 0.116059 0.344318
468 4 0.300242 0.114451 0.363742
466 2 0.319663 0.107851 0.37804
514 2 0.38186 0.13647 0.340639
467 4 0.339084 0.10125 0.392339
684 4 0.356944 0.0938779 0.396879
515 4 0.38942 0.116398 0.35349
480 4 0.403631 0.102404 0.351132
478 2 0.417478 0.0878578 0.366026
685 2 0.0697808 0.182187 0.385927
470 4 0.0777459 0.207575 0.41221
687 4 0.0791994 0.204169 0.393225
369 4 0.18069 0.174765 0.379656
472 2 0.205214 0.179656 0.398584
474 4 0.200068 0.176058 0.374381
715 2 0.327198 0.203598 0.367306
716 4 0.320232 0.212508 0.389606
488 4 0.3273 0.220877 0.406746
717 4 0.334164 0.194688 0.345007
349 2 0.392613 0.204421 0.334506
350 4 0.384355 0.215013 0.355596
762 4 0.49232 0.185778 0.353905
760 2 0.49276 0.169229 0.335167
2516 4 0.495104 0.184387 0.37346
2515 2 0.487554 0.208167 0.375092
2517 4 0.480003 0.231948 0.376723
452 4 0.464906 0.243728 0.378954
451 2 0.445978 0.240288 0.394924
453 4 0.427049 0.236848 0.410894
2800 2 0.0311811 0.3279 0.344102
2801 4 0.0505881 0.320472 0.358008
443 4 0.069726 0.320616 0.347914
442 2 0.0838535 0.309593 0.365352
444 4 0.0979811 0.29857 0.38279
260 4 0.112825 0.292293 0.394192
401 4 0.217313 0.266376 0.415555
371 4 0.212617 0.271392 0.349487
390 4 0.197485 0.264549 0.336748
370 2 0.209125 0.268366 0.37406
372 4 0.205634 0.26534 0.398633
636 4 0.303052 0.307176 0.366355
510 4 0.284837 0.306819 0.357153
508 2 0.272977 0.317569 0.337945
634 2 0.316998 0.323055 0.379718
2923 2 0.456995 0.331127 0.351941
2925 4 0.478799 0.323602 0.36159
635 4 0.330943 0.338934 0.393081
275 4 0.341487 0.360355 0.337161
668 4 0.341061 0.353768 0.403391
667 2 0.343304 0.378666 0.402938
751 2 0.406485 0.405784 0.376159
753 4 0.407544 0.393407 0.397859
447 4 0.390675 0.410491 0.344663
669 4 0.345548 0.403565 0.402486
2924 4 0.43519 0.338652 0.342292
117 3 0.491451 0.338745 0.368291
375 4 0.101512 0.467527 0.336154
373 2 0.110926 0.461569 0.358538
374 4 0.120339 0.455611 0.380923
326 4 0.12315 0.446027 0.398755
2109 4 0.202927 0.456985 0.405702
5 3 0.310969 0.489741 0.349339
1556 4 0.319027 0.479038 0.405319
593 4 0.308156 0.463434 0.400851
592 2 0.322807 0.443174 0.400615
1 1 0.328485 0.483 0.33644
594 4 0.337459 0.422915 0.400379
752 4 0.405426 0.41816 0.354459
3 3 0.334081 0.461062 0.341525
4 3 0.346745 0.496864 0.340014
560 4 0.456548 0.476892 0.386623
561 4 0.498265 0.458879 0.407503
559 2 0.477406 0.467885 0.397063
2237 4 0.00164897 0.0202842 0.47834
2236 2 0.011695 0.00833814 0.458807
599 4 0.18632 0.0359829 0.434407
598 2 0.210984 0.036511 0.430337
600 4 0.235648 0.0370392 0.426266
1057 2 0.213465 0.00414652 0.496406
3158 4 0.331139 0.013053 0.484896
683 4 0.347567 0.0699231 0.439762
575 4 0.354596 0.0149538 0.460538
574 2 0.352721 0.0398605 0.459389
576 4 0.350846 0.0647672 0.45824
1517 4 0.422634 0.0184421 0.490906
4239 4 0.497446 0.0123161 0.483977
2879 4 0.484547 0.01657 0.469076
2878 2 0.460797 0.0117474 0.475232
2880 4 0.437048 0.00692477 0.481388
341 4 0.0125587 0.140632 0.420821
1035 4 0.00825705 0.12896 0.436088
938 4 0.0290415 0.101334 0.494494
1034 4 0.0226698 0.118055 0.482715
1033 2 0.0154634 0.123508 0.459402
825 4 0.0672403 0.15686 0.457069
824 4 0.10754 0.166347 0.485116
823 2 0.08739 0.161604 0.471092
726 4 0.322268 0.146324 0.489906
724 2 0.306311 0.129046 0.498391
900 4 0.335195 0.161375 0.492474
1200 4 0.053343 0.223756 0.454648
1198 2 0.0437466 0.227644 0.477407
471 4 0.070432 0.234191 0.453908
469 2 0.0740889 0.220883 0.433059
1199 4 0.0341501 0.231532 0.500165
473 4 0.210361 0.183254 0.422786
651 4 0.229721 0.184288 0.429713
321 4 0.224201 0.202203 0.488861
649 2 0.220674 0.190005 0.45231
650 4 0.211628 0.195722 0.474908
402 4 0.199933 0.243372 0.456414
642 4 0.331494 0.228427 0.49651
899 4 0.325412 0.21024 0.488325
898 2 0.330303 0.185807 0.4904
487 2 0.332499 0.237367 0.424808
259 2 0.113289 0.299288 0.418193
261 4 0.113753 0.306284 0.442194
695 4 0.114131 0.317775 0.458345
694 2 0.119716 0.311111 0.481788
400 2 0.208623 0.254874 0.435985
813 4 0.295972 0.324089 0.492544
811 2 0.31679 0.310288 0.493687
872 4 0.281115 0.328713 0.479401
640 2 0.332005 0.253226 0.493357
641 4 0.332515 0.278024 0.490203
489 4 0.337698 0.253857 0.44287
266 4 0.396211 0.284531 0.449055
267 4 0.350457 0.267706 0.437909
265 2 0.373334 0.276118 0.443482
584 4 0.410906 0.29871 0.447346
812 4 0.337608 0.296486 0.49483
583 2 0.428979 0.281521 0.445599
585 4 0.447053 0.264332 0.443852
3308 4 0.497658 0.329121 0.49738
408 4 0.0055796 0.405842 0.429867
711 4 0.155521 0.372419 0.479065
709 2 0.14471 0.383558 0.459464
773 4 0.14501 0.363132 0.495446
710 4 0.1339 0.394698 0.439862
327 4 0.137229 0.413583 0.434108
871 2 0.279611 0.353534 0.47679
873 4 0.278107 0.378355 0.474179
336 4 0.349166 0.399461 0.460266
334 2 0.368508 0.415306 0.460324
406 2 0.0117386 0.42205 0.447882
382 2 0.0271287 0.460132 0.490101
407 4 0.0178975 0.438258 0.465897
383 4 0.00745742 0.447863 0.480737
935 4 0.066841 0.475649 0.495094
384 4 0.0468 0.472402 0.499465
325 2 0.130189 0.429805 0.416431
2107 2 0.190884 0.465489 0.425896
1445 4 0.183148 0.487556 0.46084
1444 2 0.195279 0.492696 0.48209
2108 4 0.17884 0.473993 0.446091
1400 4 0.323435 0.491225 0.461181
1399 2 0.299334 0.485759 0.457379
1401 4 0.275234 0.480292 0.453577
238 2 0.397807 0.462187 0.471072
335 4 0.38785 0.431151 0.460382
1979 4 0.339776 0.500195 0.453083
239 4 0.407292 0.47495 0.490368
240 4 0.388322 0.449424 0.451776
719 4 0.0166712 0.0113817 0.536119
939 4 0.0688236 0.0839975 0.519344
1152 4 0.226901 0.0318535 0.511224
1150 2 0.239078 0.0524654 0.518439
2318 4 0.188002 0.047213 0.571164
1059 4 0.2151 0.0175722 0.517436
1031 4 0.255197 0.0522182 0.580814
3159 4 0.319033 0.0164671 0.533295
3157 2 0.325086 0.01476 0.509095
1151 4 0.251255 0.0730773 0.525654
962 4 0.307236 0.00381392 0.544719
1516 2 0.401781 0.0140238 0.503976
1518 4 0.380929 0.00960552 0.517045
426 4 0.454787 0.00249742 0.552814
1221 4 0.0783963 0.0992558 0.549729
937 2 0.0489325 0.0926657 0.506919
1220 4 0.106773 0.139875 0.542976
1219 2 0.0925846 0.119565 0.546352
1271 4 0.106155 0.158608 0.548725
1182 4 0.255611 0.086954 0.540265
1180 2 0.277593 0.0937664 0.530489
1181 4 0.299574 0.100579 0.520713
725 4 0.290354 0.111767 0.506875
3045 4 0.023605 0.229034 0.517064
3043 2 0.00742855 0.22651 0.535962
1270 2 0.105654 0.167082 0.525207
346 2 0.134417 0.238899 0.55588
347 4 0.14461 0.216096 0.55703
1272 4 0.105153 0.175556 0.501688
319 2 0.239676 0.191388 0.505254
858 4 0.249432 0.182382 0.540619
856 2 0.249445 0.188248 0.564925
320 4 0.255151 0.180573 0.521647
790 2 0.385802 0.24946 0.555722
792 4 0.365053 0.241049 0.566854
879 4 0.0340069 0.267761 0.526496
877 2 0.0574133 0.275837 0.523018
878 4 0.0808198 0.283913 0.519539
348 4 0.124224 0.261701 0.55473
8 3 0.127658 0.274736 0.539666
9 3 0.101173 0.286739 0.515194
6 1 0.116611 0.293312 0.531222
7 3 0.105481 0.303794 0.548409
10 3 0.131623 0.307789 0.522075
696 4 0.125302 0.304448 0.505231
1394 4 0.221127 0.316519 0.555925
1393 2 0.206491 0.320444 0.536036
1395 4 0.191856 0.324369 0.516147
1190 4 0.212773 0.317239 0.575421
774 4 0.176964 0.325459 0.503215
791 4 0.406551 0.25787 0.54459
269 4 0.423266 0.268004 0.541366
3309 4 0.45595 0.309788 0.517061
270 4 0.460362 0.29068 0.51666
268 2 0.441814 0.279342 0.529013
3307 2 0.476804 0.319454 0.50722
2812 2 0.0259219 0.40565 0.518546
2814 4 0.0130916 0.384358 0.515855
3333 4 0.00394097 0.366761 0.518508
772 2 0.160987 0.344296 0.499331
1239 4 0.263001 0.411093 0.573848
1029 4 0.250175 0.411313 0.558528
2813 4 0.0387522 0.426941 0.521236
934 2 0.0758393 0.475999 0.518419
936 4 0.0848375 0.47635 0.541745
1040 4 0.10139 0.470981 0.549292
1039 2 0.122178 0.461066 0.559024
1041 4 0.142966 0.451151 0.568757
1136 4 0.142558 0.437059 0.583408
1446 4 0.20741 0.497836 0.503341
2244 4 0.223569 0.497536 0.513747
1027 2 0.253158 0.430257 0.542484
1028 4 0.256141 0.449201 0.52644
1171 2 0.277087 0.484812 0.521407
1172 4 0.265737 0.466343 0.533868
928 2 0.381478 0.488925 0.518643
930 4 0.40196 0.48764 0.504361
929 4 0.360995 0.49021 0.532925
3076 2 0.00430933 0.0716275 0.59939
2990 4 0.0344132 0.0760093 0.627933
2989 2 0.0470688 0.0761605 0.649497
3078 4 0.0240204 0.0658469 0.613646
1284 4 0.201534 0.074738 0.631282
2319 4 0.200804 0.072474 0.61238
2317 2 0.194403 0.0598435 0.591772
1282 2 0.225681 0.0787154 0.636408
1030 2 0.273859 0.0669239 0.588602
1032 4 0.292521 0.0816295 0.59639
1283 4 0.249828 0.0826928 0.641535
1004 4 0.385021 0.999543 0.645888
841 2 0.387148 0.0149862 0.606703
842 4 0.383211 0.0290731 0.586424
1003 2 0.375841 0.0126199 0.665121
1155 4 0.244917 0.103131 0.645628
1143 4 0.321412 0.0916805 0.649347
887 4 0.330528 0.103573 0.66117
1142 4 0.302793 0.097027 0.603244
1141 2 0.312103 0.0943538 0.626295
1153 2 0.252507 0.121858 0.660353
1010 4 0.485721 0.132348 0.635815
1009 2 0.483968 0.153457 0.622528
1212 4 0.23177 0.186707 0.656341
410 4 0.244478 0.182778 0.641241
1210 2 0.210755 0.19598 0.666217
409 2 0.253785 0.181449 0.618072
411 4 0.263092 0.180121 0.594903
857 4 0.249458 0.194114 0.589231
954 4 0.326084 0.202545 0.61669
952 2 0.334736 0.196466 0.639348
953 4 0.343388 0.190388 0.662006
1011 4 0.482215 0.174565 0.60924
3123 4 0.477856 0.210338 0.663954
906 4 0.494472 0.187551 0.601038
1189 2 0.198815 0.328662 0.592737
806 4 0.314589 0.307109 0.630822
803 4 0.305875 0.314643 0.614704
805 2 0.33908 0.30208 0.631099
807 4 0.363571 0.29705 0.631377
1007 4 0.489106 0.311224 0.625399
3372 4 0.4942 0.311693 0.64433
3370 2 0.483746 0.295654 0.660413
3324 4 0.49464 0.305783 0.587068
895 2 0.158544 0.361698 0.614486
896 4 0.138869 0.366664 0.629094
992 4 0.118939 0.362918 0.630016
991 2 0.116785 0.349531 0.651024
897 4 0.178219 0.356731 0.599877
1191 4 0.184856 0.340085 0.610053
802 2 0.304432 0.336961 0.603523
1237 2 0.277107 0.393419 0.584517
1238 4 0.291214 0.375745 0.595186
804 4 0.302989 0.359279 0.592343
1006 2 0.486238 0.33137 0.61087
1008 4 0.483371 0.351516 0.596341
1135 2 0.165938 0.442332 0.590531
1137 4 0.189319 0.447606 0.597654
540 4 0.200085 0.464758 0.595339
538 2 0.212939 0.485014 0.588291
1952 4 0.394442 0.453129 0.594234
1951 2 0.38087 0.473994 0.596612
1953 4 0.367298 0.494858 0.59899
891 4 0.351355 0.498672 0.609888
890 4 0.337455 0.493256 0.657619
889 2 0.344405 0.495964 0.633753
926 4 0.488118 0.483091 0.600485
1001 4 0.475959 0.494646 0.589924
925 2 0.499166 0.469475 0.61831
2991 4 0.0597245 0.0763117 0.671061
2254 2 0.165586 0.00853769 0.730127
943 2 0.146869 0.0559916 0.70583
944 4 0.127542 0.0714913 0.702448
862 2 0.0904904 0.0818551 0.689807
2255 4 0.15487 0.0245806 0.714222
945 4 0.166195 0.0404918 0.709212
863 4 0.10739 0.0721758 0.705487
1092 4 0.290271 0.0260823 0.706383
950 4 0.306674 0.0162115 0.710919
1090 2 0.283915 0.0288253 0.730409
949 2 0.329906 0.0140691 0.701927
951 4 0.353139 0.0119268 0.692936
1005 4 0.366661 0.0256967 0.684354
1217 4 0.4469 0.0158333 0.734988
1164 4 0.464236 0.00711027 0.73252
3425 4 0.457071 0.0830851 0.706728
1216 2 0.426379 0.00909462 0.747584
864 4 0.0735905 0.0915344 0.674126
886 2 0.321647 0.113804 0.682185
888 4 0.312766 0.124036 0.703199
1297 2 0.273616 0.157024 0.712094
1154 4 0.260097 0.140586 0.675079
1299 4 0.270965 0.150634 0.688067
1298 4 0.276267 0.163414 0.736122
45 3 0.410325 0.126262 0.737533
1026 4 0.4611 0.139702 0.677532
1024 2 0.464673 0.116375 0.685796
3424 2 0.455254 0.0836251 0.731659
1262 4 0.447602 0.154203 0.673955
1025 4 0.468245 0.0930485 0.69406
42 3 0.435653 0.150075 0.75111
851 4 0.0772514 0.19154 0.705417
850 2 0.0554748 0.195672 0.693846
1082 4 0.0171275 0.189114 0.683383
852 4 0.0336983 0.199805 0.682275
1178 4 0.0595945 0.191093 0.735651
947 4 0.0965157 0.186738 0.737862
946 2 0.113544 0.201202 0.726637
948 4 0.130573 0.215667 0.715413
1260 4 0.139125 0.230486 0.705526
1258 2 0.156445 0.22374 0.688802
1211 4 0.189739 0.205254 0.676093
1259 4 0.173765 0.216993 0.672079
1085 4 0.283522 0.180243 0.745002
1192 2 0.360461 0.193562 0.698918
1193 4 0.376546 0.189411 0.717606
1194 4 0.344377 0.197713 0.68023
977 4 0.376585 0.190687 0.739399
1263 4 0.46978 0.198793 0.678486
1261 2 0.458691 0.176498 0.67622
3121 2 0.477066 0.234657 0.669711
3039 4 0.0127559 0.273771 0.745137
3037 2 0.00154657 0.291307 0.731279
1066 2 0.105277 0.31445 0.706734
1068 4 0.118285 0.325419 0.688413
1067 4 0.0922701 0.303481 0.725055
3329 4 0.408113 0.326727 0.749793
3122 4 0.476276 0.258976 0.675468
3371 4 0.473291 0.279615 0.676495
1280 4 0.0423145 0.394367 0.683951
1279 2 0.0370752 0.371243 0.69189
1281 4 0.0318359 0.348119 0.699828
884 4 0.0326913 0.407223 0.694969
3420 4 0.0137474 0.356167 0.704083
993 4 0.11463 0.336144 0.672031
1097 4 0.230848 0.412904 0.722518
1096 2 0.227128 0.405607 0.746142
1278 4 0.248251 0.405489 0.71575
1277 4 0.293836 0.393287 0.699203
797 4 0.298697 0.376909 0.688114
1276 2 0.271044 0.399388 0.707476
796 2 0.318175 0.36241 0.694078
798 4 0.337653 0.347911 0.700041
1043 4 0.394328 0.385851 0.705167
1042 2 0.373862 0.371611 0.707049
1044 4 0.353396 0.35737 0.70893
3330 4 0.415271 0.374596 0.737222
3328 2 0.411692 0.350661 0.743507
3182 4 0.429239 0.38523 0.744442
883 2 0.0326566 0.429388 0.706539
885 4 0.0326218 0.451554 0.718109
815 4 0.0303529 0.469191 0.728534
2128 2 0.0323672 0.487688 0.683716
2130 4 0.0555431 0.496922 0.682046
2129 4 0.0091913 0.478454 0.685386
942 4 0.107024 0.461481 0.731403
940 2 0.130862 0.461414 0.738946
941 4 0.154701 0.461348 0.74649
2214 4 0.315864 0.496806 0.752973
1205 4 0.351688 0.487096 0.670987
1139 4 0.346552 0.461694 0.727597
1138 2 0.356309 0.441534 0.738711
1206 4 0.340519 0.479137 0.719077
1204 2 0.346103 0.483117 0.695032
1250 4 0.497205 0.50006 0.746625
1294 2 0.00779843 0.0490732 0.816999
1296 4 0.0129945 0.0534645 0.792939
1286 4 0.0221487 0.0509652 0.77579
1285 2 0.0468274 0.053897 0.773044
1287 4 0.0715062 0.0568287 0.770297
1203 4 0.075199 0.0685983 0.755731
1254 4 0.231113 0.0107249 0.829261
1091 4 0.277558 0.0315683 0.754435
1049 4 0.289499 0.0326368 0.769888
1048 2 0.292387 0.013979 0.78628
839 4 0.318966 0.0770267 0.818932
1218 4 0.405858 0.00235589 0.76018
964 2 0.404497 0.0367871 0.794478
965 4 0.400427 0.0419345 0.818605
966 4 0.408567 0.0316397 0.770351
1107 4 0.0318993 0.0897441 0.777628
1214 4 0.0210789 0.149381 0.774016
1105 2 0.0296967 0.114007 0.783252
1106 4 0.0274942 0.138271 0.788875
1201 2 0.0904164 0.0857798 0.765651
1202 4 0.105634 0.102961 0.775571
1130 4 0.0900332 0.112761 0.785535
1129 2 0.094655 0.131023 0.801977
830 4 0.156018 0.148024 0.761675
1131 4 0.0992767 0.149285 0.818418
829 2 0.163177 0.124093 0.762785
870 4 0.0886766 0.165954 0.817363
831 4 0.170335 0.100162 0.763896
908 4 0.170507 0.160619 0.759724
1149 4 0.232174 0.110289 0.822417
1022 4 0.324565 0.0943382 0.827217
1147 2 0.254042 0.106896 0.810778
1148 4 0.275909 0.103502 0.799138
840 4 0.285204 0.0931468 0.785752
838 2 0.302085 0.0850868 0.802342
1112 4 0.413291 0.0933513 0.828807
44 3 0.405461 0.141303 0.771705
3426 4 0.453438 0.0841651 0.756591
845 4 0.487297 0.0871396 0.798441
1111 2 0.421146 0.101233 0.806416
43 3 0.432812 0.115589 0.765782
1113 4 0.429001 0.109115 0.784025
41 1 0.420949 0.133207 0.756441
1177 2 0.0616983 0.212261 0.748793
1213 2 0.0124262 0.168711 0.787307
1179 4 0.063802 0.233428 0.761934
868 2 0.0696135 0.182133 0.817468
1215 4 0.0037735 0.188041 0.800598
869 4 0.0505504 0.198313 0.817573
779 4 0.0526869 0.213662 0.830038