ITEM: TIMESTEP
5890000
ITEM: NUMBER OF ATOMS
4590
ITEM: BOX BOUNDS pp pp pp
-9.9985700000000008e+00 9.9985700000000008e+00
-9.9985700000000008e+00 9.9985700000000008e+00
-9.9985700000000008e+00 9.9985700000000008e+00
ITEM: ATOMS id type xs ys zs
2252 4 0.0502648 0.00131103 0.00452914
2251 2 0.042172 0.0249413 0.00566745
2253 4 0.0340791 0.0485715 0.00680576
484 2 0.190304 0.0168873 0.0036216
357 4 0.202205 0.0342281 0.0667569
355 2 0.209493 0.0569033 0.0743658
356 4 0.216781 0.0795785 0.0819748
485 4 0.192745 0.00120392 0.0229412
1476 4 0.285703 0.0116181 0.0121997
743 4 0.3499 0.0547267 0.0639314
742 2 0.366424 0.0734539 0.0651378
490 2 0.368755 0.0698333 0.00717641
1748 4 0.352587 0.0447925 0.0813913
491 4 0.36689 0.0450811 0.00417099
2468 4 0.491762 0.0293336 0.00674062
2467 2 0.476172 0.0221575 0.0249243
148 3 0.488821 0.0488926 0.00725249
2469 4 0.460582 0.0149813 0.0431079
1668 4 0.00663035 0.128445 0.00241785
554 4 0.111031 0.0862591 0.00149545
700 2 0.137075 0.107178 0.0226912
701 4 0.147213 0.12842 0.0311288
702 4 0.126937 0.0859361 0.0142535
1842 4 0.136552 0.142881 0.0253674
1840 2 0.152636 0.160118 0.0336978
758 4 0.233923 0.088546 0.0778299
757 2 0.25079 0.10661 0.0816188
1254 4 0.364485 0.143108 0.0221042
2442 4 0.3872 0.100614 0.0213741
2440 2 0.409583 0.111584 0.0233258
744 4 0.382947 0.092181 0.0663442
492 4 0.370619 0.0945855 0.0101818
1252 2 0.359646 0.12442 0.00621299
1760 4 0.47439 0.0902588 0.0514839
2441 4 0.431967 0.122554 0.0252775
2976 4 0.428734 0.139179 0.0356676
2974 2 0.44608 0.157054 0.0334825
1759 2 0.487808 0.0926161 0.0724506
703 2 0.0525281 0.203793 0.0294559
704 4 0.0702479 0.192753 0.0432148
705 4 0.0348083 0.214833 0.0156969
623 4 0.071671 0.181773 0.0605871
622 2 0.0900038 0.187745 0.0765063
1841 4 0.168719 0.177355 0.0420282
450 4 0.177634 0.187557 0.056225
448 2 0.183364 0.201096 0.0764496
359 4 0.355428 0.193459 0.0330655
282 4 0.346599 0.204277 0.0471983
280 2 0.340464 0.219606 0.0659756
358 2 0.365758 0.178951 0.0155156
2975 4 0.463427 0.174929 0.0312973
24 3 0.482067 0.177234 0.022209
25 3 0.499394 0.210346 0.0176195
969 4 0.0729508 0.315975 0.0294686
967 2 0.0672816 0.331434 0.0106522
462 4 0.0878648 0.304799 0.0383928
460 2 0.0971963 0.285716 0.0515822
461 4 0.106528 0.266634 0.0647716
293 4 0.107721 0.255172 0.0797614
1292 4 0.330864 0.30522 0.0130025
296 4 0.269346 0.274039 0.0794019
902 4 0.258249 0.290282 0.0775886
1303 2 0.360563 0.328728 0.0163035
2840 4 0.413373 0.32881 0.00685415
1304 4 0.343018 0.316952 0.00293623
2839 2 0.419696 0.331696 0.0308723
2541 4 0.0116115 0.401964 0.0832092
287 4 0.0954247 0.344805 0.0454475
286 2 0.0938195 0.349085 0.0700296
1078 2 0.213354 0.401315 0.0382419
1079 4 0.222285 0.378558 0.0329971
494 4 0.226411 0.368416 0.0166364
1551 4 0.304293 0.408271 0.0653569
1070 4 0.320893 0.398927 0.0675395
1069 2 0.315176 0.380595 0.0835532
309 4 0.414109 0.336633 0.0707112
1305 4 0.378108 0.340503 0.0296709
607 2 0.370739 0.368381 0.0628987
608 4 0.3705 0.38397 0.0824467
609 4 0.370978 0.352793 0.0433507
2006 4 0.399175 0.406434 0.00206192
2005 2 0.37799 0.395093 0.00897358
2007 4 0.356806 0.383752 0.0158852
2841 4 0.426019 0.334581 0.0548904
2652 4 0.495974 0.352424 0.0824
3337 2 0.0494075 0.43247 0.0537555
3339 4 0.0696651 0.430861 0.0683232
3338 4 0.0291499 0.434078 0.0391877
2522 4 0.0318824 0.498513 0.00811744
2771 4 0.0179148 0.491672 0.0210054
2770 2 0.00604397 0.497937 0.0421007
3450 4 0.0897365 0.434616 0.0670772
1080 4 0.204422 0.424072 0.0434867
2377 2 0.211347 0.465792 0.0304702
2378 4 0.21038 0.441898 0.0377699
2379 4 0.212314 0.489687 0.0231705
1550 4 0.311724 0.44451 0.031708
15 3 0.321399 0.458635 0.040774
14 3 0.302147 0.490953 0.039167
11 1 0.312849 0.474475 0.0268231
1549 2 0.308009 0.42639 0.0485324
596 4 0.298583 0.445772 0.0167364
13 3 0.329858 0.483869 0.0141399
12 3 0.297576 0.464674 0.0126869
595 2 0.277215 0.4379 0.00641143
2805 4 0.493663 0.49915 0.0331633
2803 2 0.500002 0.474975 0.0339229
2179 2 0.303869 0.0461062 0.148342
2180 4 0.327362 0.0465712 0.139796
2181 4 0.280376 0.0456411 0.156889
404 4 0.275525 0.0268496 0.151475
403 2 0.25501 0.0184494 0.16304
1749 4 0.34125 0.0357065 0.129241
1747 2 0.346919 0.0402495 0.105316
557 4 0.413852 0.011368 0.130663
254 4 0.413605 0.0539718 0.108162
253 2 0.417051 0.0772057 0.0995894
556 2 0.436755 0.0121995 0.120666
558 4 0.459658 0.0130311 0.110668
652 2 0.481322 0.0467037 0.109089
654 4 0.470101 0.0273867 0.12032
653 4 0.492542 0.0660206 0.0978575
578 4 0.1116 0.161279 0.146259
577 2 0.113444 0.146483 0.166331
722 4 0.280448 0.132985 0.0971073
759 4 0.267658 0.124674 0.0854078
721 2 0.301165 0.146959 0.0979733
723 4 0.321881 0.160932 0.0988394
691 2 0.360538 0.163539 0.0982978
692 4 0.382984 0.157004 0.0894315
255 4 0.420496 0.10044 0.0910168
2894 4 0.427118 0.133711 0.108603
2893 2 0.447849 0.146488 0.102935
1505 4 0.420173 0.128996 0.126114
1504 2 0.423568 0.114834 0.146439
2895 4 0.468581 0.159265 0.0972667
2600 4 0.487833 0.153602 0.0954947
624 4 0.108337 0.193717 0.0924255
506 4 0.11875 0.210308 0.0989279
505 2 0.1105 0.213822 0.122268
507 4 0.102249 0.217335 0.145608
449 4 0.189095 0.214635 0.0966742
915 4 0.19953 0.227445 0.108978
913 2 0.195387 0.248811 0.121287
354 4 0.272523 0.230682 0.124503
352 2 0.291458 0.224555 0.13964
353 4 0.310393 0.218429 0.154776
297 4 0.280806 0.233548 0.106417
281 4 0.33433 0.234934 0.084753
693 4 0.338091 0.170075 0.107164
2797 2 0.016993 0.291561 0.138887
2799 4 0.0316913 0.277389 0.153319
2798 4 0.00229467 0.305734 0.124455
292 2 0.119344 0.268443 0.0974805
294 4 0.130967 0.281714 0.1152
525 4 0.134241 0.30237 0.112476
523 2 0.119049 0.321962 0.109239
104 3 0.141606 0.276964 0.129954
102 3 0.154479 0.3058 0.109571
103 3 0.15962 0.305878 0.146803
101 1 0.158708 0.292506 0.127862
279 4 0.173734 0.307889 0.159547
2513 4 0.214372 0.325391 0.107743
901 2 0.237016 0.301438 0.0846507
903 4 0.215783 0.312595 0.0917128
914 4 0.191244 0.270176 0.133596
105 3 0.178604 0.28182 0.124929
2876 4 0.327228 0.25332 0.088553
295 2 0.275076 0.253794 0.0929095
351 4 0.303849 0.280419 0.16499
2875 2 0.331781 0.262758 0.111255
519 4 0.333069 0.287072 0.147403
517 2 0.337238 0.311596 0.149932
2877 4 0.336334 0.272197 0.133956
307 2 0.4243 0.332505 0.0931671
308 4 0.434492 0.328378 0.115623
2539 2 0.0221233 0.379318 0.084556
2540 4 0.0326352 0.356671 0.0859029
288 4 0.0922143 0.353365 0.0946118
524 4 0.103856 0.341555 0.106001
361 2 0.116737 0.375605 0.156099
362 4 0.0924702 0.381352 0.154295
363 4 0.141004 0.369857 0.157904
416 4 0.160676 0.37334 0.164486
2512 2 0.208534 0.348087 0.0990257
415 2 0.16985 0.395852 0.158636
2514 4 0.202695 0.370783 0.0903087
2445 4 0.21478 0.385424 0.0991955
2443 2 0.223685 0.405126 0.111753
1121 4 0.278371 0.346229 0.150134
1071 4 0.309459 0.362263 0.0995668
1122 4 0.296424 0.347266 0.103511
1120 2 0.287397 0.346748 0.126822
518 4 0.341408 0.336119 0.152462
2538 4 0.348795 0.353444 0.147323
527 4 0.450648 0.36139 0.136166
2651 4 0.465164 0.35881 0.121267
526 2 0.440228 0.379121 0.150386
2650 2 0.480569 0.355617 0.101834
528 4 0.429807 0.396852 0.164606
314 4 0.0314148 0.455587 0.134375
313 2 0.0355323 0.455881 0.159035
3448 2 0.0941961 0.433072 0.0916313
3449 4 0.0986556 0.431528 0.116185
2094 4 0.107405 0.448557 0.124956
2092 2 0.109715 0.4644 0.144162
2093 4 0.112024 0.480243 0.163367
417 4 0.179025 0.418364 0.152787
768 4 0.199361 0.480531 0.142733
638 4 0.243583 0.476859 0.0834816
2444 4 0.232589 0.424829 0.124311
766 2 0.208665 0.45849 0.135467
767 4 0.21797 0.436449 0.128201
1786 2 0.29877 0.487177 0.140413
1787 4 0.298781 0.480105 0.116431
1862 4 0.302323 0.481522 0.097667
1861 2 0.313443 0.459412 0.0941068
1863 4 0.324563 0.437302 0.0905466
1788 4 0.298758 0.49425 0.164396
739 2 0.394648 0.495558 0.150355
741 4 0.403591 0.476192 0.163398
405 4 0.234494 0.0100493 0.174605
516 4 0.283812 0.0160667 0.206047
514 2 0.285749 0.0377764 0.218299
515 4 0.287687 0.059486 0.230551
27 3 0.286918 0.0768886 0.254948
2910 4 0.303081 0.0558418 0.244437
2573 4 0.459948 0.0765764 0.217184
513 4 0.0012099 0.0940419 0.245588
236 4 0.102356 0.119406 0.194583
237 4 0.125019 0.126099 0.238655
235 2 0.113688 0.122753 0.216619
579 4 0.115288 0.131687 0.186402
457 2 0.136048 0.163011 0.245732
604 2 0.272931 0.140956 0.213787
605 4 0.270996 0.117414 0.221985
29 3 0.283568 0.101338 0.226598
26 1 0.28151 0.0985849 0.249546
606 4 0.274866 0.164498 0.20559
2517 4 0.352563 0.163283 0.237404
2657 4 0.334523 0.162227 0.246088
1506 4 0.426963 0.100672 0.166763
2574 4 0.438858 0.105777 0.182496
2572 2 0.449403 0.0911769 0.19984
475 2 0.0688966 0.216059 0.21676
476 4 0.0536617 0.227451 0.200534
755 4 0.0367742 0.235138 0.209478
477 4 0.0841316 0.204666 0.232986
748 2 0.155041 0.219665 0.214304
459 4 0.144965 0.185083 0.238083
749 4 0.144192 0.202185 0.228513
750 4 0.16589 0.237146 0.200095
732 4 0.241077 0.218178 0.190219
581 4 0.230804 0.235479 0.188462
580 2 0.206691 0.241057 0.192017
582 4 0.182579 0.246636 0.195572
730 2 0.25499 0.200527 0.201175
731 4 0.268904 0.182876 0.212131
250 2 0.278306 0.245716 0.229422
2515 2 0.369129 0.172147 0.220907
2516 4 0.385695 0.181012 0.204409
333 4 0.401557 0.184018 0.216506
331 2 0.424533 0.178065 0.20864
332 4 0.447509 0.172113 0.200775
630 4 0.462614 0.167719 0.212818
628 2 0.486537 0.171197 0.206434
756 4 0.0301298 0.267672 0.172087
754 2 0.033452 0.251405 0.190782
277 2 0.192977 0.309222 0.175457
278 4 0.212219 0.310555 0.191366
734 4 0.22618 0.322875 0.19756
350 4 0.26636 0.263446 0.193402
251 4 0.279547 0.254879 0.206191
349 2 0.285105 0.271932 0.179196
344 4 0.303085 0.295018 0.244101
365 4 0.284456 0.291638 0.23822
275 4 0.45384 0.317301 0.236305
497 4 0.459772 0.312371 0.217626
496 2 0.481862 0.316425 0.206636
3671 4 0.149539 0.394668 0.246321
289 2 0.231685 0.407241 0.208341
290 4 0.233091 0.384281 0.198541
735 4 0.244981 0.368998 0.202029
733 2 0.235581 0.345937 0.199795
2536 2 0.350241 0.361816 0.170839
2537 4 0.351687 0.370187 0.194355
714 4 0.369692 0.365172 0.204433
712 2 0.383583 0.354328 0.222171
713 4 0.397473 0.343483 0.239909
315 4 0.0396499 0.456174 0.183696
680 4 0.051192 0.440664 0.243741
681 4 0.0358243 0.463504 0.201993
679 2 0.0435081 0.452084 0.222867
728 4 0.112705 0.472249 0.181607
727 2 0.134467 0.466176 0.192318
1383 4 0.134416 0.455169 0.243276
729 4 0.156229 0.460103 0.203029
3670 2 0.149938 0.419342 0.242294
3672 4 0.150338 0.444016 0.238267
291 4 0.230279 0.430201 0.218141
339 4 0.173598 0.468512 0.196458
337 2 0.186079 0.467598 0.218104
338 4 0.19856 0.466684 0.23975
677 4 0.214993 0.461668 0.250177
625 2 0.266169 0.500075 0.190023
626 4 0.289664 0.49634 0.182329
231 4 0.411951 0.499947 0.250251
303 4 0.402064 0.468083 0.183711
1473 4 0.354887 0.492487 0.223657
302 4 0.362205 0.475677 0.212939
301 2 0.382134 0.47188 0.198325
587 4 0.43341 0.452523 0.194219
586 2 0.449213 0.471862 0.195431
588 4 0.465016 0.4912 0.196642
3819 4 0.478361 0.483831 0.209898
3817 2 0.490196 0.495347 0.228673
2849 4 0.0519956 0.031783 0.254962
1272 4 0.0363041 0.0378789 0.26606
1270 2 0.0217269 0.0575552 0.261007
2848 2 0.0613078 0.0237404 0.276728
2850 4 0.07062 0.0156977 0.298494
1271 4 0.00714968 0.0772315 0.255955
1869 4 0.0860389 0.00212525 0.298889
707 4 0.149555 0.0774647 0.331825
2908 2 0.322493 0.0511762 0.25949
598 2 0.376847 0.0565982 0.297055
599 4 0.399314 0.0650952 0.303999
600 4 0.35438 0.0481013 0.290112
2909 4 0.341905 0.0465106 0.274542
1518 4 0.406867 0.0704797 0.321978
430 2 0.451895 0.00768948 0.305941
1496 4 0.481916 0.0133051 0.332515
431 4 0.468592 0.0196663 0.320187
2484 4 0.0583075 0.164483 0.332402
458 4 0.127131 0.14094 0.253382
617 4 0.135652 0.138306 0.323661
706 2 0.150754 0.101606 0.325427
708 4 0.151953 0.125747 0.319029
544 2 0.242787 0.107081 0.295285
545 4 0.231294 0.11659 0.315351
531 4 0.230552 0.136892 0.315083
546 4 0.254281 0.0975711 0.275219
30 3 0.260076 0.102799 0.255986
28 3 0.296053 0.112909 0.260578
3158 4 0.297424 0.133837 0.303695
3157 2 0.30909 0.147474 0.321105
631 2 0.477138 0.112002 0.325999
632 4 0.485754 0.093063 0.312132
1220 4 0.0728841 0.177799 0.296123
1219 2 0.0780003 0.185751 0.272977
1221 4 0.0831165 0.193703 0.24983
390 4 0.247488 0.238595 0.331141
2658 4 0.328699 0.198766 0.27973
2656 2 0.331611 0.180496 0.262909
252 4 0.277065 0.236553 0.252653
283 2 0.268421 0.228098 0.293862
285 4 0.275656 0.226387 0.26999
284 4 0.261185 0.22981 0.317735
387 4 0.425361 0.247562 0.317123
2655 4 0.15371 0.289151 0.275721
2653 2 0.155576 0.311659 0.264993
366 4 0.247018 0.294431 0.271254
364 2 0.265737 0.293034 0.254737
343 2 0.320092 0.282242 0.257243
345 4 0.337099 0.269465 0.270384
610 2 0.35081 0.284425 0.307022
612 4 0.345274 0.268545 0.288519
1575 4 0.37353 0.30881 0.317929
2862 4 0.396139 0.332844 0.257096
611 4 0.356347 0.300304 0.325525
274 2 0.456045 0.299927 0.25415
385 2 0.44186 0.258484 0.301836
276 4 0.458249 0.282553 0.271996
386 4 0.458358 0.269406 0.286549
3883 2 0.0282241 0.411738 0.268203
3885 4 0.0142915 0.399419 0.284916
2532 4 0.00106682 0.40956 0.295762
2654 4 0.157441 0.334166 0.254264
246 4 0.256786 0.400955 0.284268
543 4 0.333533 0.414359 0.325097
1802 4 0.356376 0.372575 0.296219
1801 2 0.362899 0.392572 0.282699
1573 2 0.369371 0.332846 0.31244
1574 4 0.365212 0.356883 0.306952
1803 4 0.369423 0.412568 0.26918
2860 2 0.412772 0.348127 0.267817
2861 4 0.429406 0.36341 0.278537
3990 4 0.449522 0.361962 0.284716
3988 2 0.462273 0.382977 0.280136
3989 4 0.475024 0.403992 0.275557
3884 4 0.0421566 0.424056 0.25149
570 4 0.0748226 0.476195 0.320839
1382 4 0.102344 0.48636 0.265618
264 4 0.0866127 0.493942 0.25444
1381 2 0.11838 0.470764 0.254447
1451 4 0.0953826 0.477546 0.319515
1425 4 0.209666 0.481523 0.310265
678 4 0.219104 0.486654 0.293299
676 2 0.217049 0.474161 0.271738
668 4 0.181837 0.435126 0.324899
244 2 0.265341 0.41836 0.300049
542 4 0.292169 0.442448 0.324249
245 4 0.273896 0.435765 0.31583
541 2 0.312851 0.428403 0.324673
3 3 0.318578 0.500589 0.295287
751 2 0.35776 0.451116 0.281893
752 4 0.356286 0.473001 0.293893
753 4 0.359234 0.42923 0.269892
4 3 0.346526 0.479378 0.309896
3602 4 0.477669 0.421297 0.284785
3696 4 0.469106 0.482527 0.28532
3694 2 0.449967 0.491398 0.271898
3603 4 0.463611 0.467445 0.297956
3601 2 0.47064 0.444371 0.29137
471 4 0.161158 0.0676078 0.346533
479 4 0.22324 0.0592473 0.355565
478 2 0.242015 0.0431951 0.359436
470 4 0.207102 0.0483594 0.350939
469 2 0.18413 0.0579836 0.348736
371 4 0.219525 0.0833947 0.411962
480 4 0.260791 0.027143 0.363307
2642 4 0.253294 0.00930891 0.357376
1516 2 0.413299 0.0725363 0.346052
1495 2 0.491222 0.00389717 0.35373
1061 4 0.424588 0.021965 0.410437
684 4 0.425943 0.00133642 0.411367
1060 2 0.425182 0.0391546 0.392289
1062 4 0.425776 0.0563442 0.374142
1517 4 0.419731 0.0745929 0.370127
2482 2 0.056169 0.164439 0.357314
616 2 0.123498 0.146496 0.343919
618 4 0.111344 0.154685 0.364177
529 2 0.238149 0.141954 0.338361
530 4 0.245745 0.147016 0.361639
651 4 0.240983 0.155729 0.379757
3159 4 0.320755 0.161111 0.338515
1032 4 0.320144 0.151673 0.356028
633 4 0.468522 0.13094 0.339866
2879 4 0.452614 0.126771 0.351412
2878 2 0.451643 0.116587 0.374227
2880 4 0.450671 0.106402 0.397042
341 4 0.0635477 0.181342 0.389898
2483 4 0.0540305 0.164394 0.382226
340 2 0.0800627 0.179807 0.408609
388 2 0.223963 0.238815 0.339608
389 4 0.200438 0.239036 0.348076
649 2 0.252259 0.177811 0.382989
1191 4 0.263944 0.203129 0.406291
1030 2 0.313828 0.169966 0.37186
650 4 0.263534 0.199893 0.38622
1031 4 0.307512 0.188259 0.387692
763 2 0.408803 0.220335 0.354183
765 4 0.397775 0.240329 0.364371
510 4 0.379614 0.232392 0.368603
508 2 0.361926 0.249076 0.362776
764 4 0.419831 0.200341 0.343995
2900 4 0.429691 0.198148 0.413231
2899 2 0.418506 0.175971 0.416109
711 4 0.0336349 0.257386 0.357212
709 2 0.0117381 0.263014 0.346533
636 4 0.0464479 0.258342 0.372568
634 2 0.0707304 0.254094 0.368386
3333 4 0.00351142 0.318175 0.414061
2636 4 0.022821 0.322606 0.414588
635 4 0.095013 0.249846 0.364203
509 4 0.344238 0.265761 0.356948
717 4 0.352144 0.283076 0.353623
715 2 0.359571 0.304849 0.363419
716 4 0.366997 0.326622 0.373215
669 4 0.140995 0.415196 0.345766
373 2 0.276264 0.382034 0.379171
374 4 0.269977 0.357837 0.378785
375 4 0.282552 0.406231 0.379557
2923 2 0.317715 0.335625 0.407652
2925 4 0.321745 0.349972 0.387574
585 4 0.327282 0.362556 0.372358
583 2 0.32841 0.380287 0.354765
584 4 0.329537 0.398018 0.337171
488 4 0.359372 0.343872 0.381464
487 2 0.372439 0.35826 0.397194
489 4 0.385507 0.372647 0.412924
2138 4 0.0519295 0.460936 0.381654
569 4 0.0515394 0.458256 0.361296
568 2 0.063181 0.467226 0.341067
2137 2 0.0451198 0.453687 0.404595
667 2 0.161416 0.425161 0.335332
435 4 0.285034 0.423177 0.370434
615 4 0.261046 0.474658 0.410884
434 4 0.269971 0.459816 0.400953
433 2 0.277503 0.441497 0.385693
446 4 0.406863 0.477367 0.389028
1485 4 0.467051 0.451542 0.400459
1483 2 0.443726 0.460503 0.401352
1484 4 0.4204 0.469464 0.402246
662 4 0.476223 0.439582 0.414152
164 3 0.00856381 0.0616722 0.453199
2237 4 0.0503375 0.0757882 0.425151
161 1 0.0128547 0.0828141 0.444654
165 3 0.0330508 0.0829902 0.434131
944 4 0.0877639 0.0313504 0.500994
1182 4 0.222767 0.037374 0.485756
1180 2 0.211489 0.034993 0.463567
2315 4 0.234661 0.0211144 0.489401
1181 4 0.200211 0.032612 0.441379
2314 2 0.254568 0.0065221 0.493393
761 4 0.438101 0.0763751 0.438195
760 2 0.454986 0.0689975 0.455096
2551 2 0.492821 0.0407299 0.489933
762 4 0.471871 0.0616199 0.471997
2552 4 0.474645 0.0578145 0.491649
938 4 0.0167868 0.165199 0.481
2613 4 0.0150287 0.15925 0.462012
2238 4 0.0704893 0.121283 0.420167
2611 2 0.00778357 0.135763 0.457424
2612 4 0.00053848 0.112276 0.452837
2236 2 0.0604134 0.0985355 0.422659
163 3 0.0127184 0.0984605 0.461788
370 2 0.202676 0.100683 0.418473
474 4 0.166479 0.101502 0.485381
473 4 0.177945 0.123748 0.442087
472 2 0.172212 0.112625 0.463734
372 4 0.185827 0.117972 0.424985
3174 4 0.411723 0.133901 0.41874
2500 2 0.392768 0.141501 0.494189
2501 4 0.398038 0.164452 0.485783
2901 4 0.407322 0.153795 0.418986
1142 4 0.369462 0.109541 0.500302
1141 2 0.348473 0.0959601 0.500768
3173 4 0.421382 0.0867633 0.432358
3172 2 0.416553 0.110332 0.425549
939 4 0.00602066 0.210349 0.462391
937 2 0.0114037 0.187774 0.471695
342 4 0.0965778 0.178272 0.427319
400 2 0.130022 0.200646 0.423088
401 4 0.142774 0.221846 0.419465
402 4 0.11727 0.179446 0.426712
824 4 0.143695 0.241192 0.422564
3460 2 0.160375 0.227335 0.474086
3462 4 0.160739 0.202917 0.479454
369 4 0.154198 0.200801 0.499086
1189 2 0.260753 0.205401 0.430986
1393 2 0.255637 0.222373 0.497997
1190 4 0.257562 0.207673 0.455681
1394 4 0.257704 0.211096 0.475777
640 2 0.39889 0.24692 0.475566
641 4 0.383136 0.232377 0.48843
312 4 0.441822 0.214204 0.418157
3059 4 0.497183 0.229034 0.422145
310 2 0.450143 0.235516 0.428243
259 2 0.049583 0.313605 0.48604
260 4 0.0411256 0.322277 0.464167
2635 2 0.0399059 0.320433 0.432714
2637 4 0.0569908 0.318259 0.45084
3461 4 0.160011 0.251753 0.468718
823 2 0.131924 0.260329 0.433537
825 4 0.120153 0.279465 0.44451
3044 4 0.175308 0.259742 0.478257
812 4 0.245901 0.328456 0.449587
811 2 0.224196 0.33182 0.461534
3043 2 0.182466 0.272749 0.498376
2924 4 0.313686 0.321278 0.427729
873 4 0.309707 0.319772 0.447826
871 2 0.284843 0.317144 0.44757
872 4 0.259979 0.314516 0.447315
320 4 0.378304 0.296558 0.41748
321 4 0.402822 0.264541 0.447051
642 4 0.414645 0.261464 0.462703
319 2 0.390563 0.280549 0.432266
311 4 0.458463 0.256829 0.438329
452 4 0.472447 0.26801 0.430806
451 2 0.46661 0.291255 0.43793
453 4 0.460773 0.314501 0.445054
266 4 0.457068 0.326446 0.460758
813 4 0.20249 0.335185 0.473482
1029 4 0.230354 0.388787 0.473531
602 4 0.224496 0.389269 0.493141
1172 4 0.28703 0.416057 0.485243
1028 4 0.279051 0.399533 0.477241
1027 2 0.254703 0.39416 0.475386
118 3 0.382271 0.361315 0.429844
116 1 0.39275 0.368385 0.449302
890 4 0.397571 0.361785 0.478917
117 3 0.379979 0.362041 0.467352
119 3 0.394741 0.391503 0.449276
1953 4 0.411567 0.392007 0.438869
120 3 0.413349 0.358814 0.450952
267 4 0.415433 0.352431 0.470354
1951 2 0.421676 0.414595 0.442446
265 2 0.436251 0.339438 0.465556
1445 4 0.0508526 0.447609 0.443222
2139 4 0.0383101 0.446438 0.427535
1444 2 0.0725735 0.451024 0.455127
327 4 0.128388 0.494467 0.482418
325 2 0.120091 0.471718 0.476188
326 4 0.111794 0.448968 0.469959
1446 4 0.0942945 0.454438 0.467031
594 4 0.313696 0.489574 0.474411
1697 4 0.327149 0.486853 0.459795
613 2 0.275505 0.475709 0.431256
1173 4 0.291828 0.462197 0.466566
614 4 0.289964 0.47676 0.451628
592 2 0.296293 0.498581 0.489942
1171 2 0.289429 0.439127 0.475904
2109 4 0.383222 0.48245 0.447919
1696 2 0.348458 0.47798 0.450185
1698 4 0.369768 0.469107 0.440574
2107 2 0.404197 0.468863 0.448716
1952 4 0.431784 0.437182 0.446023
2108 4 0.425172 0.455277 0.449514
661 2 0.496485 0.448706 0.425613
945 4 0.0656986 0.00456978 0.537003
943 2 0.0767312 0.0179601 0.518999
725 4 0.119005 0.0826344 0.528351
959 4 0.239232 0.0706526 0.57605
1256 4 0.221117 0.0610429 0.578818
958 2 0.249518 0.061392 0.555226
2240 4 0.270383 0.0664233 0.524226
960 4 0.259803 0.0521315 0.534402
2239 2 0.291389 0.0785231 0.518099
1143 4 0.327484 0.0823796 0.501235
574 2 0.452798 0.0320291 0.535076
575 4 0.466275 0.0432026 0.552929
2507 4 0.473267 0.0591167 0.543254
576 4 0.439321 0.0208557 0.517224
2506 2 0.478632 0.0819143 0.534499
1163 4 0.491742 0.0101554 0.564584
9 3 0.0753698 0.161815 0.541127
8 3 0.0890376 0.134938 0.517991
6 1 0.094599 0.152593 0.531983
7 3 0.107879 0.144683 0.549018
917 4 0.114917 0.157219 0.561966
724 2 0.137383 0.0936605 0.515474
726 4 0.155762 0.104687 0.502597
916 2 0.130708 0.147711 0.57886
2241 4 0.312394 0.0906228 0.511972
857 4 0.305134 0.14497 0.582687
2502 4 0.387499 0.11855 0.502595
2508 4 0.483998 0.104712 0.525743
1263 4 0.489761 0.122328 0.519733
1261 2 0.490034 0.137817 0.539359
1262 4 0.490308 0.153306 0.558986
3308 4 0.487877 0.153105 0.578768
10 3 0.106031 0.168457 0.520308
368 4 0.125014 0.17081 0.526464
367 2 0.139606 0.185805 0.512775
410 4 0.249538 0.234885 0.539996
1395 4 0.253569 0.233651 0.520217
900 4 0.390078 0.17532 0.499804
899 4 0.371036 0.221549 0.500824
898 2 0.380557 0.198435 0.500314
2847 4 0.0124347 0.279271 0.544902
2845 2 0.0296743 0.283983 0.527416
2846 4 0.046914 0.288696 0.50993
3236 4 0.0253199 0.279719 0.561865
261 4 0.0580404 0.304933 0.507914
442 2 0.155548 0.31556 0.52448
444 4 0.137628 0.332984 0.525146
409 2 0.229893 0.249793 0.535871
411 4 0.210248 0.2647 0.531745
443 4 0.173469 0.298136 0.523813
3045 4 0.189624 0.285755 0.518494
936 4 0.241661 0.312942 0.583533
2242 2 0.0809227 0.403682 0.541447
539 4 0.0498652 0.412001 0.5675
695 4 0.0934885 0.371501 0.528142
694 2 0.108063 0.353052 0.519633
2244 4 0.0979964 0.390813 0.528483
696 4 0.122637 0.334603 0.511125
772 2 0.193668 0.377902 0.565105
603 4 0.206103 0.380634 0.538834
774 4 0.192535 0.366579 0.54284
601 2 0.2153 0.384951 0.515987
891 4 0.404687 0.354027 0.527803
889 2 0.401129 0.357906 0.50336
804 4 0.486327 0.347707 0.546167
802 2 0.485974 0.343044 0.570729
1238 4 0.470096 0.339952 0.536791
1239 4 0.42041 0.344149 0.532997
1237 2 0.445253 0.34205 0.534894
2243 4 0.0638491 0.416551 0.55441
538 2 0.0313791 0.428787 0.5662
540 4 0.0128931 0.445572 0.564899
1137 4 0.00139399 0.435755 0.552663
3183 4 0.323627 0.469935 0.559818
3181 2 0.338594 0.489872 0.561738
1153 2 0.176009 0.076556 0.642015
1155 4 0.178161 0.0801166 0.61736
1255 2 0.203922 0.0618741 0.596951
1257 4 0.186727 0.0627053 0.615084
1004 4 0.383644 0.0777117 0.646102
1003 2 0.375637 0.0560123 0.6556
1130 4 0.368672 0.0752467 0.632893
1005 4 0.36763 0.0343129 0.665097
1162 2 0.481512 0.0217016 0.584262
1164 4 0.471282 0.0332479 0.60394
954 4 0.466641 0.018582 0.615433
952 2 0.445217 0.0191495 0.628313
953 4 0.423794 0.0197169 0.641193
4073 4 0.487988 0.0472693 0.633982
1211 4 0.145373 0.144988 0.614635
1210 2 0.156442 0.156314 0.633984
918 4 0.1465 0.138203 0.595755
856 2 0.317412 0.129844 0.598359
2318 4 0.31078 0.164311 0.584495
1131 4 0.334266 0.0984575 0.604996
858 4 0.32969 0.114717 0.614031
1129 2 0.351469 0.0868521 0.618945
3307 2 0.478516 0.142765 0.59952
3309 4 0.469154 0.132424 0.620271
268 2 0.47103 0.10301 0.644985
270 4 0.478032 0.114332 0.62382
1212 4 0.16751 0.16764 0.653333
949 2 0.269749 0.241801 0.609605
950 4 0.280892 0.220768 0.60195
2319 4 0.296979 0.209549 0.600738
2317 2 0.30388 0.18693 0.592616
3235 2 0.0169082 0.283754 0.585063
3038 4 0.0663777 0.28838 0.662841
3237 4 0.00849647 0.28779 0.608261
3419 4 0.0822322 0.286689 0.652133
3386 4 0.00688559 0.2926 0.659171
3418 2 0.0894371 0.305056 0.636774
348 4 0.146879 0.267403 0.59186
3420 4 0.096642 0.323424 0.621415
347 4 0.18567 0.296741 0.603491
934 2 0.218182 0.304379 0.584299
346 2 0.166274 0.282072 0.597676
935 4 0.194703 0.295817 0.585066
978 4 0.242563 0.309854 0.661563
1086 4 0.22804 0.321717 0.654465
1084 2 0.20611 0.330391 0.646158
976 2 0.251609 0.295324 0.643336
1205 4 0.259254 0.314957 0.590735
951 4 0.258606 0.262835 0.617261
977 4 0.260655 0.280794 0.625108
805 2 0.352766 0.319047 0.630146
807 4 0.343602 0.297339 0.638511
791 4 0.448688 0.326898 0.610668
3401 4 0.448488 0.263934 0.659789
1280 4 0.0491078 0.365747 0.6176
1639 2 0.0173307 0.373287 0.611081
1640 4 0.0320338 0.356529 0.622403
1279 2 0.0707571 0.353389 0.615657
1641 4 0.00262765 0.390044 0.599759
1281 4 0.0924063 0.341032 0.613714
991 2 0.132576 0.392884 0.624443
993 4 0.139673 0.371179 0.614259
896 4 0.134387 0.35216 0.610566
895 2 0.157622 0.343864 0.614628
992 4 0.125479 0.414589 0.634627
897 4 0.180857 0.335568 0.61869
773 4 0.194801 0.389224 0.587369
1085 4 0.18418 0.339066 0.637851
1204 2 0.267981 0.337339 0.597669
1206 4 0.276708 0.359721 0.604602
1139 4 0.291452 0.365279 0.616463
1138 2 0.286085 0.377978 0.637322
1140 4 0.280719 0.390678 0.658181
806 4 0.36193 0.340754 0.62178
82 3 0.353054 0.358573 0.589404
81 1 0.360318 0.371491 0.606997
83 3 0.382385 0.377589 0.603216
84 3 0.346993 0.390436 0.608396
85 3 0.358774 0.359464 0.626274
2214 4 0.389533 0.401915 0.63777
1017 4 0.389042 0.387029 0.651965
792 4 0.432802 0.371068 0.593426
790 2 0.440745 0.348983 0.602047
803 4 0.485621 0.338381 0.595291
3465 4 0.499836 0.395069 0.6481
1981 2 0.146922 0.498005 0.633912
2129 4 0.124621 0.422473 0.653642
2130 4 0.144173 0.468499 0.653736
2128 2 0.134397 0.445486 0.653689
1983 4 0.149913 0.487252 0.656287
2435 4 0.234162 0.490816 0.642806
1453 2 0.293518 0.499815 0.592613
2434 2 0.253774 0.480357 0.631352
2436 4 0.273385 0.469899 0.619898
1455 4 0.283051 0.48266 0.607491
2212 2 0.377441 0.420898 0.648662
2213 4 0.365349 0.43988 0.659553
3131 4 0.0177396 0.0133884 0.730212
3082 2 0.0269199 0.0545018 0.72925
3084 4 0.0234288 0.0792286 0.727995
3083 4 0.0304109 0.029775 0.730506
1284 4 0.134835 0.0447034 0.707889
1282 2 0.15022 0.0608095 0.696528
1283 4 0.165605 0.0769156 0.685167
908 4 0.231942 0.0383613 0.745165
1154 4 0.173857 0.0729953 0.66667
965 4 0.324268 0.00899612 0.701408
2322 4 0.307737 0.00457525 0.711282
887 4 0.411462 0.0020441 0.694077
966 4 0.358248 0.039577 0.681137
964 2 0.341258 0.0242865 0.691273
888 4 0.401862 0.0510788 0.696114
886 2 0.406662 0.0265615 0.695095
1026 4 0.404286 0.0680222 0.687776
1024 2 0.427255 0.0771747 0.684052
3591 4 0.0384965 0.0890036 0.718775
3589 2 0.0520089 0.103736 0.733793
3590 4 0.0655213 0.118468 0.748812
1023 4 0.198051 0.13825 0.74382
1022 4 0.218426 0.117858 0.702957
2256 4 0.227788 0.131651 0.691015
1021 2 0.208238 0.128054 0.723389
2254 2 0.233283 0.152495 0.678346
269 4 0.464027 0.0916879 0.66615
1025 4 0.450223 0.0863271 0.680327
152 3 0.00566909 0.206831 0.74805
154 3 0.0205333 0.172442 0.745039
1259 4 0.163174 0.169231 0.673934
1260 4 0.15506 0.217977 0.6816
1258 2 0.159117 0.193604 0.677767
1299 4 0.146748 0.221617 0.701108
1297 2 0.138792 0.244682 0.706575
2255 4 0.238777 0.17334 0.665678
1010 4 0.478831 0.175382 0.683137
3402 4 0.427903 0.222778 0.679362
1011 4 0.440109 0.206401 0.676879
3400 2 0.438195 0.243356 0.669575
1009 2 0.45947 0.190892 0.680008
3039 4 0.0177546 0.28726 0.674471
3037 2 0.0420662 0.28782 0.668656
883 2 0.0432981 0.303529 0.744146
885 4 0.0440847 0.27878 0.747612
884 4 0.0425114 0.328279 0.74068
1298 4 0.130836 0.267747 0.712041
1068 4 0.130635 0.283809 0.700355
1066 2 0.140239 0.305256 0.708896
1067 4 0.149843 0.326703 0.717438
942 4 0.0822956 0.395613 0.704565
941 4 0.127413 0.376908 0.693831
940 2 0.104854 0.38626 0.699198
1098 4 0.147016 0.377572 0.69916
1096 2 0.166369 0.392759 0.703636
1097 4 0.185721 0.407945 0.708111
798 4 0.275498 0.391419 0.678668
796 2 0.274857 0.40895 0.696484
1015 2 0.401563 0.371255 0.666784
1016 4 0.414084 0.355482 0.681603
1019 4 0.414046 0.364739 0.699281
1018 2 0.402066 0.365992 0.721191
1020 4 0.390085 0.367244 0.743102
1278 4 0.187972 0.426853 0.711886
1277 4 0.235477 0.424444 0.72732
1276 2 0.211724 0.425648 0.719603
797 4 0.274216 0.426482 0.7143
821 4 0.248953 0.432637 0.739317
909 4 0.195739 0.0159304 0.771374
907 2 0.21384 0.0271459 0.758269
948 4 0.0602734 0.115948 0.76743
946 2 0.0692687 0.111582 0.790347
834 4 0.0135971 0.155046 0.75242
947 4 0.0782641 0.107217 0.813264
851 4 0.0974071 0.10655 0.818524
850 2 0.112292 0.123646 0.829076
35 3 0.139571 0.146383 0.825943
1193 4 0.481619 0.139825 0.814553
738 4 0.00379723 0.199979 0.789998
924 4 0.0113565 0.2269 0.752096
153 3 0.0174461 0.189131 0.779044
151 1 0.021645 0.192593 0.756488
155 3 0.0422268 0.201953 0.753763
862 2 0.0488664 0.230499 0.823964
863 4 0.0435753 0.207053 0.817074
2270 4 0.0534044 0.193437 0.829081
922 2 0.0220599 0.248945 0.75706
870 4 0.0876541 0.204841 0.79992
868 2 0.105009 0.201388 0.817585
33 3 0.130652 0.182933 0.824436
52 3 0.222329 0.227435 0.824738
1091 4 0.208747 0.238104 0.815979
3347 4 0.325998 0.237017 0.813792
1094 4 0.313366 0.244299 0.830126
923 4 0.0327633 0.270989 0.762024
864 4 0.0541576 0.253945 0.830854
1209 4 0.147421 0.319793 0.811468
840 4 0.16159 0.325117 0.797831
1090 2 0.192404 0.252833 0.804098
838 2 0.171844 0.30405 0.789099
839 4 0.182098 0.282984 0.780368
1092 4 0.176062 0.267562 0.792217