ITEM: TIMESTEP
1810000
ITEM: NUMBER OF ATOMS
4590
ITEM: BOX BOUNDS pp pp pp
-9.9985700000000008e+00 9.9985700000000008e+00
-9.9985700000000008e+00 9.9985700000000008e+00
-9.9985700000000008e+00 9.9985700000000008e+00
ITEM: ATOMS id type xs ys zs
3289 2 0.00474199 0.0571658 0.0775375
3291 4 0.00405064 0.0533368 0.0528386
566 4 0.210018 0.0223555 0.0783977
485 4 0.220963 0.00853189 0.0675071
1606 2 0.447883 0.0639474 0.0461141
1607 4 0.452415 0.0738753 0.023618
1608 4 0.443351 0.0540194 0.0686102
1448 4 0.442567 0.016147 0.0735456
1668 4 0.048767 0.0858041 0.0487293
1666 2 0.0360952 0.0840502 0.0272461
700 2 0.0660109 0.110879 0.0656631
702 4 0.046592 0.105868 0.0507307
2625 4 0.0115606 0.098305 0.0043031
450 4 0.0967583 0.101123 0.071972
571 2 0.224864 0.126389 0.0411397
914 4 0.206322 0.153095 0.0199137
572 4 0.208041 0.134087 0.0243203
357 4 0.232836 0.113263 0.0754821
355 2 0.237472 0.090469 0.0846534
573 4 0.241688 0.118692 0.0579591
491 4 0.350829 0.121291 0.014693
557 4 0.351379 0.132273 0.0306758
556 2 0.372495 0.145548 0.0289301
558 4 0.393612 0.158822 0.0271843
665 4 0.404008 0.152056 0.0123486
3046 2 0.49686 0.129742 0.0278593
3048 4 0.492645 0.120082 0.050533
2639 4 0.428735 0.141464 0.0649182
2638 2 0.426285 0.146001 0.040452
2640 4 0.423835 0.150537 0.0159858
3047 4 0.501074 0.139402 0.00518557
476 4 0.0828217 0.216366 0.0650023
475 2 0.065365 0.234265 0.0647635
296 4 0.262156 0.197338 0.0666276
295 2 0.265875 0.198242 0.0419187
297 4 0.269594 0.199145 0.0172097
354 4 0.279104 0.215961 0.0156347
581 4 0.250374 0.188008 0.0774108
2806 2 0.0106133 0.2765 0.0719269
2807 4 0.0290015 0.260545 0.0662277
477 4 0.0479084 0.252165 0.0645248
456 4 0.156299 0.264286 0.026747
287 4 0.133142 0.297899 0.0698888
454 2 0.148789 0.27162 0.0494402
455 4 0.141278 0.278954 0.0721334
294 4 0.159105 0.266986 0.00687171
286 2 0.138145 0.322332 0.0681051
608 4 0.324752 0.312934 0.0807483
740 4 0.316406 0.325486 0.0661298
670 2 0.464506 0.328851 0.0767546
328 2 0.0303529 0.374945 0.07026
552 4 0.0585901 0.396952 0.0648551
550 2 0.081603 0.406094 0.0683207
329 4 0.00987659 0.364499 0.0604216
2772 4 0.99869 0.349361 0.055853
330 4 0.0508292 0.38539 0.0800984
1103 4 0.0593881 0.406411 0.00481001
252 4 0.157028 0.357528 0.0750452
551 4 0.104616 0.415236 0.0717863
288 4 0.143148 0.346764 0.0663215
1691 4 0.117584 0.389799 0.00847562
1620 4 0.116108 0.405407 0.0223979
250 2 0.171496 0.37159 0.0602765
251 4 0.185963 0.385652 0.0455077
483 4 0.203608 0.380333 0.0347996
481 2 0.223165 0.3935 0.0264735
482 4 0.242722 0.406668 0.0181475
739 2 0.320374 0.349347 0.0724578
15 3 0.338391 0.388376 0.0783833
741 4 0.324343 0.373209 0.0787859
1069 2 0.386188 0.358854 0.0301824
11 1 0.352151 0.394455 0.0612848
13 3 0.343475 0.412989 0.0503473
1070 4 0.37179 0.36739 0.0487574
14 3 0.354503 0.376836 0.0463693
12 3 0.372847 0.399835 0.0697616
1071 4 0.400586 0.350319 0.0116075
323 4 0.461651 0.352664 0.0418769
324 4 0.459266 0.390594 0.00937559
322 2 0.460459 0.371629 0.0256263
671 4 0.461687 0.34813 0.0610845
957 4 0.451688 0.409445 0.00335703
2983 2 0.0190629 0.480514 0.0317933
2984 4 0.00119861 0.488278 0.0161164
2985 4 0.0369273 0.47275 0.0474701
1618 2 0.132134 0.424595 0.0228396
1619 4 0.14816 0.443782 0.0232812
2094 4 0.156223 0.451403 0.0403989
2092 2 0.177693 0.463875 0.0433398
2093 4 0.199164 0.476347 0.0462806
524 4 0.296275 0.443008 0.0442607
246 4 0.293587 0.44919 0.0637804
523 2 0.31584 0.430404 0.0351201
525 4 0.335404 0.4178 0.0259795
494 4 0.355116 0.428727 0.0361916
493 2 0.373082 0.429994 0.018848
495 4 0.391048 0.431262 0.0015044
658 2 0.426988 0.464444 0.0729467
659 4 0.422642 0.440846 0.0659166
660 4 0.431335 0.488042 0.0799768
956 4 0.403832 0.419035 0.992468
955 2 0.42776 0.41424 0.997912
590 4 0.0042117 0.0632445 0.121599
3290 4 0.00543333 0.0609949 0.102236
565 2 0.226258 0.0364454 0.0911624
567 4 0.242497 0.0505352 0.103927
356 4 0.242108 0.0676749 0.0938247
1505 4 0.291352 0.0250543 0.167418
1504 2 0.285952 0.000693383 0.169018
746 4 0.434333 0.0550049 0.086056
1449 4 0.418688 0.0127151 0.117349
1447 2 0.430628 0.014431 0.0954475
1784 4 0.419995 0.00760281 0.137067
745 2 0.434291 0.0731851 0.103222
701 4 0.0854297 0.11589 0.0805956
507 4 0.0769427 0.15239 0.0909173
737 4 0.0661297 0.162218 0.10583
2759 4 0.00810792 0.166165 0.104342
449 4 0.135572 0.113436 0.100999
448 2 0.116165 0.107279 0.0864855
578 4 0.141017 0.131029 0.108785
577 2 0.142946 0.139968 0.132057
579 4 0.144876 0.148907 0.155328
236 4 0.157821 0.138466 0.166303
505 2 0.0978391 0.161072 0.101554
582 4 0.243334 0.155905 0.115102
277 2 0.281087 0.149748 0.135701
278 4 0.257338 0.149129 0.127905
279 4 0.304836 0.150367 0.143497
253 2 0.4044 0.168172 0.0854107
771 4 0.493573 0.108888 0.119764
255 4 0.412863 0.147121 0.0749016
747 4 0.434249 0.0913653 0.120387
25 3 0.440968 0.109432 0.120997
21 1 0.45496 0.125998 0.127958
23 3 0.45175 0.130091 0.150571
22 3 0.476747 0.11942 0.12461
24 3 0.451008 0.145343 0.115768
758 4 0.439843 0.159298 0.131879
738 4 0.0199947 0.181335 0.10322
736 2 0.0430622 0.171776 0.104525
506 4 0.118735 0.169754 0.112191
754 2 0.134306 0.248107 0.134143
756 4 0.15407 0.233059 0.131295
462 4 0.162077 0.23317 0.112208
460 2 0.186426 0.229602 0.107785
461 4 0.210775 0.226034 0.103361
623 4 0.230169 0.233019 0.100481
622 2 0.24252 0.226896 0.121341
580 2 0.246854 0.171957 0.0962562
284 4 0.253876 0.230384 0.159578
624 4 0.25487 0.220772 0.142201
757 2 0.419782 0.163557 0.146182
309 4 0.339585 0.240918 0.150685
254 4 0.395938 0.189223 0.0959197
519 4 0.358558 0.242307 0.152458
518 4 0.390004 0.220984 0.119943
517 2 0.374281 0.231645 0.1362
528 4 0.394374 0.226185 0.10111
759 4 0.39972 0.167817 0.160484
2894 4 0.451934 0.209578 0.0971333
2895 4 0.458846 0.165814 0.12032
2893 2 0.45539 0.187696 0.108727
526 2 0.419355 0.227188 0.101499
527 4 0.444335 0.228191 0.101889
378 4 0.430702 0.198711 0.165789
396 4 0.0805702 0.299891 0.162677
647 4 0.016735 0.330502 0.128123
646 2 0.997377 0.323377 0.142255
755 4 0.114542 0.263156 0.136991
395 4 0.122865 0.280014 0.144878
394 2 0.101718 0.289953 0.153778
612 4 0.29317 0.297762 0.137127
607 2 0.313534 0.302143 0.100316
610 2 0.306283 0.309977 0.154563
609 4 0.302317 0.291351 0.119884
672 4 0.467324 0.309572 0.0924247
2841 4 0.463439 0.291362 0.0855961
2840 4 0.458224 0.24301 0.0972403
2839 2 0.460832 0.267186 0.0914182
537 4 0.0558639 0.387573 0.132723
315 4 0.0637782 0.406952 0.133734
535 2 0.0416109 0.380783 0.152112
417 4 0.140649 0.354066 0.157888
416 4 0.094408 0.336429 0.165061
415 2 0.117528 0.345248 0.161475
2651 4 0.403645 0.361332 0.150372
2538 4 0.401622 0.38183 0.15261
595 2 0.430345 0.400288 0.0858252
2652 4 0.425524 0.361301 0.105405
2650 2 0.414585 0.361317 0.127888
596 4 0.431425 0.377041 0.0949668
1708 2 0.0506947 0.477694 0.106431
1710 4 0.0501063 0.455207 0.0955156
313 2 0.0542347 0.422306 0.116461
314 4 0.0446912 0.437661 0.0991884
289 2 0.127773 0.470996 0.162905
290 4 0.105624 0.479897 0.170346
291 4 0.149922 0.462095 0.155464
627 4 0.160033 0.452881 0.141464
626 4 0.20873 0.45219 0.130111
625 2 0.184381 0.452535 0.135788
768 4 0.2129 0.454431 0.149962
766 2 0.232275 0.45989 0.164795
244 2 0.300898 0.452395 0.0874755
387 4 0.319178 0.441129 0.116289
245 4 0.308209 0.4556 0.111171
385 2 0.328068 0.442863 0.139595
386 4 0.336958 0.444596 0.1629
597 4 0.429265 0.423536 0.0766835
692 4 0.272408 0.0331759 0.168692
691 2 0.263406 0.055506 0.175437
693 4 0.254403 0.0778362 0.182182
742 2 0.40201 0.075339 0.245836
28 3 0.340134 0.0772267 0.251432
235 2 0.172628 0.12408 0.180408
237 4 0.187435 0.109693 0.194513
722 4 0.207845 0.110558 0.195646
721 2 0.224453 0.0918782 0.196278
723 4 0.241061 0.073198 0.196909
732 4 0.314874 0.143603 0.160448
730 2 0.331103 0.150546 0.178157
27 3 0.331006 0.110942 0.237553
731 4 0.347331 0.157489 0.195866
606 4 0.356233 0.155015 0.214129
604 2 0.372898 0.155019 0.232769
744 4 0.411015 0.0983899 0.242267
630 4 0.41776 0.159695 0.228436
629 4 0.428159 0.154211 0.17983
628 2 0.42296 0.156953 0.204133
605 4 0.389564 0.155023 0.251408
698 4 0.420679 0.115219 0.237925
521 4 0.429092 0.154025 0.24346
697 2 0.444261 0.112399 0.230105
699 4 0.467842 0.10958 0.222285
2797 2 0.0287862 0.254488 0.233262
2615 4 0.0153444 0.21488 0.249488
2798 4 0.0266628 0.231732 0.243403
392 4 0.180815 0.164813 0.220618
546 4 0.185168 0.159502 0.201163
285 4 0.219809 0.216494 0.193449
544 2 0.199236 0.179187 0.194858
545 4 0.213305 0.198873 0.188554
283 2 0.236843 0.223439 0.176513
391 2 0.173412 0.175411 0.24202
307 2 0.328361 0.240231 0.173018
308 4 0.317137 0.239544 0.19535
376 2 0.451923 0.207448 0.175714
377 4 0.473144 0.216185 0.185639
2694 4 0.0624457 0.295418 0.16988
2692 2 0.0447995 0.288754 0.186293
2693 4 0.0271533 0.282089 0.202705
2799 4 0.0309096 0.277243 0.22312
735 4 0.089796 0.323783 0.235265
299 4 0.0726428 0.32767 0.225914
497 4 0.270247 0.274994 0.230856
498 4 0.303267 0.252082 0.2011
496 2 0.286757 0.263538 0.215978
611 4 0.319397 0.322192 0.171999
1775 4 0.030468 0.386859 0.186333
536 4 0.027358 0.373993 0.1715
1774 2 0.0287826 0.408271 0.199134
298 2 0.0858076 0.331671 0.205037
300 4 0.0989724 0.335673 0.18416
363 4 0.152872 0.367645 0.164798
361 2 0.162798 0.364497 0.187531
339 4 0.193209 0.36154 0.212619
362 4 0.172723 0.36135 0.210263
337 2 0.203266 0.365178 0.23522
345 4 0.332176 0.337085 0.176903
343 2 0.322597 0.352022 0.194518
645 4 0.319939 0.372218 0.229899
344 4 0.313017 0.36696 0.212133
643 2 0.325732 0.39653 0.230639
2536 2 0.410275 0.398585 0.169029
2537 4 0.418927 0.41534 0.185447
108 3 0.483022 0.364424 0.217046
106 1 0.482549 0.369202 0.239748
107 3 0.472863 0.351544 0.250863
109 3 0.469931 0.388297 0.243562
110 3 0.50375 0.372221 0.247496
414 4 0.0732183 0.447912 0.213679
681 4 0.0700374 0.4604 0.229039
1776 4 0.0270972 0.429683 0.211934
679 2 0.0524081 0.47237 0.24212
413 4 0.102645 0.420491 0.183966
412 2 0.0879315 0.434202 0.198823
767 4 0.251649 0.46535 0.179627
1641 4 0.160023 0.503434 0.236665
638 4 0.265375 0.475038 0.191744
644 4 0.331526 0.420842 0.231378
1575 4 0.346966 0.446262 0.180418
1573 2 0.339566 0.443727 0.204166
1574 4 0.332166 0.441192 0.227915
714 4 0.429829 0.426918 0.19718
712 2 0.435697 0.450533 0.191429
713 4 0.441564 0.474148 0.185677
231 4 0.447775 0.489937 0.193492
397 2 0.0672347 0.00876491 0.327858
398 4 0.0839997 0.0270344 0.324643
1478 4 0.0900153 0.0422707 0.337935
428 4 0.150643 0.0536301 0.302785
1479 4 0.133088 0.0477 0.313116
1477 2 0.111552 0.0449854 0.325525
427 2 0.143047 0.0616556 0.280356
429 4 0.135451 0.069681 0.257927
247 2 0.240953 0.0549316 0.302347
249 4 0.227569 0.0617862 0.322324
405 4 0.257184 0.054281 0.263076
248 4 0.254336 0.048077 0.28237
403 2 0.271616 0.0735504 0.256322
743 4 0.393005 0.052288 0.249404
1747 2 0.392421 0.0234182 0.273096
1748 4 0.381165 0.043093 0.262542
480 4 0.395615 0.0720028 0.328186
515 4 0.380951 0.0795487 0.315683
1749 4 0.403676 0.00374332 0.283651
2718 4 0.0235598 0.145496 0.291402
404 4 0.286047 0.0928198 0.249569
30 3 0.305263 0.0908094 0.255577
26 1 0.327359 0.0962835 0.254902
633 4 0.406765 0.147837 0.26086
29 3 0.333597 0.106491 0.274784
516 4 0.35124 0.10749 0.286748
514 2 0.366095 0.0935193 0.301215
631 2 0.397616 0.152695 0.283617
762 4 0.461948 0.116292 0.330716
529 2 0.0780228 0.194326 0.323412
393 4 0.166009 0.186009 0.263423
531 4 0.0958341 0.197924 0.306237
2849 4 0.151113 0.187369 0.276257
2850 4 0.115888 0.198322 0.31002
2848 2 0.1335 0.192845 0.293138
632 4 0.388467 0.157554 0.306373
332 4 0.395908 0.17562 0.309864
331 2 0.392715 0.196986 0.322453
520 2 0.447889 0.167177 0.253401
418 2 0.483429 0.201184 0.291045
522 4 0.466687 0.18033 0.263343
420 4 0.47146 0.19895 0.269206
419 4 0.495398 0.203419 0.312883
312 4 0.483112 0.21463 0.325398
513 4 0.0611808 0.241241 0.3015
2800 2 0.00707372 0.287021 0.28192
733 2 0.0835025 0.321937 0.259393
2801 4 0.0191837 0.265295 0.27937
2654 4 0.0657669 0.306497 0.292029
734 4 0.0772089 0.320091 0.283521
2653 2 0.0793684 0.307542 0.312983
512 4 0.100154 0.263904 0.279861
511 2 0.0806673 0.252573 0.29068
749 4 0.149054 0.302014 0.293169
618 4 0.129796 0.307203 0.295636
616 2 0.132523 0.327433 0.281197
748 2 0.156196 0.280843 0.304392
750 4 0.163338 0.259671 0.315614
389 4 0.177049 0.247442 0.322767
708 4 0.287344 0.248144 0.310005
765 4 0.275949 0.258563 0.29839
763 2 0.27379 0.264086 0.2741
764 4 0.271631 0.269608 0.249809
365 4 0.140647 0.365554 0.260248
617 4 0.135251 0.347663 0.266759
364 2 0.134608 0.389807 0.260945
366 4 0.128568 0.41406 0.261642
338 4 0.213322 0.368815 0.257822
434 4 0.232897 0.37625 0.259436
729 4 0.238432 0.409821 0.266684
508 2 0.249445 0.335336 0.33179
433 2 0.242268 0.371013 0.282018
435 4 0.251638 0.365776 0.3046
727 2 0.221006 0.427054 0.271636
509 4 0.260191 0.350224 0.314818
275 4 0.334944 0.404439 0.302071
274 2 0.355709 0.39674 0.313677
276 4 0.376474 0.389041 0.325284
614 4 0.384157 0.382488 0.308856
613 2 0.404419 0.367901 0.310219
615 4 0.424681 0.353314 0.311583
2924 4 0.435623 0.357633 0.328185
501 4 0.0184923 0.490018 0.266197
680 4 0.0347788 0.48434 0.255201
603 4 0.141487 0.426251 0.269276
601 2 0.16329 0.438469 0.27
677 4 0.146311 0.483287 0.294182
676 2 0.150486 0.467742 0.313316
1640 4 0.162843 0.48429 0.282777
1639 2 0.161433 0.493862 0.259721
728 4 0.203579 0.444287 0.276587
602 4 0.185093 0.450688 0.270724
3 3 0.304852 0.479784 0.319848
1 1 0.310702 0.50145 0.325745
541 2 0.421851 0.463394 0.330753
542 4 0.443423 0.468338 0.319118
3591 4 0.084524 0.0256607 0.368258
3589 2 0.0885602 0.0137572 0.389873
3590 4 0.0925963 0.00185369 0.411488
2430 4 0.237266 0.00802276 0.406795
2428 2 0.214943 0.0131049 0.416847
1700 4 0.236553 0.0508585 0.335233
1699 2 0.247324 0.0429968 0.356383
2429 4 0.19262 0.0181869 0.426898
1701 4 0.258095 0.035135 0.377534
468 4 0.263108 0.0445705 0.394294
466 2 0.287893 0.0412966 0.393855
467 4 0.312677 0.0380226 0.393415
684 4 0.312307 0.0834812 0.413995
479 4 0.37088 0.0634739 0.370802
478 2 0.383248 0.0677384 0.349494
2642 4 0.35364 0.0755861 0.365207
2641 2 0.33365 0.0800255 0.379556
4239 4 0.502279 0.0107206 0.408619
1517 4 0.431282 0.0110378 0.405063
2878 2 0.488682 0.050957 0.417348
2880 4 0.475484 0.070409 0.425869
687 4 0.0294406 0.108757 0.344446
685 2 0.0216719 0.122689 0.3637
342 4 0.0211711 0.136476 0.401514
686 4 0.0139032 0.13662 0.382955
340 2 0.0410084 0.145289 0.413923
469 2 0.130321 0.143169 0.413235
471 4 0.125521 0.119995 0.405166
2643 4 0.31366 0.0844648 0.393904
760 2 0.456443 0.129242 0.351384
761 4 0.450938 0.142193 0.372052
2501 4 0.502239 0.161192 0.416355
530 4 0.0602115 0.190727 0.340587
457 2 0.025833 0.175607 0.335508
458 4 0.0506971 0.173559 0.33717
470 4 0.135121 0.166343 0.421304
368 4 0.146498 0.182011 0.420453
706 2 0.277378 0.238429 0.330777
707 4 0.267412 0.228714 0.351549
715 2 0.301517 0.224688 0.379067
717 4 0.28482 0.227841 0.360724
716 4 0.318213 0.221535 0.39741
349 2 0.35564 0.240893 0.349587
333 4 0.389523 0.218351 0.335043
350 4 0.377014 0.23356 0.338885
351 4 0.334266 0.248225 0.36029
311 4 0.497079 0.196407 0.369822
310 2 0.490095 0.205518 0.34761
2655 4 0.0929698 0.308587 0.333937
443 4 0.079437 0.317926 0.346635
442 2 0.0905312 0.323461 0.368348
260 4 0.102897 0.310406 0.396086
444 4 0.101625 0.328997 0.390061
259 2 0.108963 0.312595 0.420244
388 2 0.19298 0.255833 0.340115
390 4 0.208912 0.264224 0.357463
371 4 0.226021 0.27516 0.353714
372 4 0.22818 0.272833 0.403621
370 2 0.227101 0.273996 0.378668
636 4 0.224688 0.326798 0.361352
510 4 0.238698 0.320448 0.348762
634 2 0.228734 0.341762 0.380971
401 4 0.210379 0.269517 0.413959
871 2 0.353311 0.272656 0.409665
873 4 0.374694 0.280176 0.39911
547 2 0.0116002 0.393145 0.398543
548 4 0.016072 0.414159 0.411334
635 4 0.23278 0.356725 0.40059
327 4 0.185954 0.409411 0.414823
326 4 0.205058 0.425636 0.371551
325 2 0.195506 0.417524 0.393187
669 4 0.294931 0.380843 0.381105
667 2 0.273846 0.372378 0.391541
668 4 0.25276 0.363914 0.401978
753 4 0.313725 0.383826 0.389207
751 2 0.32845 0.396912 0.373809
752 4 0.343175 0.409999 0.358411
447 4 0.362384 0.416518 0.362224
117 3 0.462416 0.363033 0.386283
2925 4 0.461243 0.350698 0.370567
2923 2 0.448433 0.354165 0.349376
116 1 0.467226 0.363676 0.408769
678 4 0.15466 0.452198 0.332451
375 4 0.166052 0.459466 0.345676
373 2 0.188494 0.466697 0.353997
374 4 0.210937 0.473928 0.362317
2109 4 0.206458 0.487657 0.376186
2107 2 0.225045 0.48709 0.3929
2108 4 0.243632 0.486524 0.409615
5 3 0.313341 0.502916 0.348318
1555 2 0.282775 0.491152 0.387944
1556 4 0.279805 0.471633 0.403285
593 4 0.287822 0.455207 0.411406
543 4 0.400278 0.458451 0.342388
446 4 0.404142 0.439808 0.347578
445 2 0.383263 0.428163 0.354901
599 4 0.14221 0.0281613 0.451285
598 2 0.160306 0.0162048 0.438845
600 4 0.178402 0.00424842 0.426405
576 4 0.33906 0.0585503 0.454925
682 2 0.324063 0.080635 0.435878
683 4 0.335818 0.0777888 0.457762
1182 4 0.264138 0.0434513 0.489732
1180 2 0.272068 0.0670932 0.491564
574 2 0.345913 0.0417731 0.472151
575 4 0.352767 0.0249959 0.489377
2879 4 0.50188 0.031505 0.408826
1516 2 0.423504 0.00185272 0.426979
1033 2 0.998452 0.118318 0.48645
1200 4 0.0785369 0.160335 0.433221
1270 2 0.132935 0.144057 0.476641
1272 4 0.129357 0.16417 0.462225
1271 4 0.136513 0.123943 0.491058
1181 4 0.279998 0.090735 0.493396
726 4 0.311365 0.139409 0.503819
651 4 0.268996 0.173111 0.430627
725 4 0.274518 0.109515 0.488027
724 2 0.292942 0.124462 0.495923
2657 4 0.430967 0.0813898 0.431411
2658 4 0.446264 0.125991 0.448066
2656 2 0.438616 0.103691 0.439739
341 4 0.0608457 0.154103 0.426331
1199 4 0.0653412 0.194078 0.467689
1198 2 0.0719391 0.177207 0.450455
825 4 0.127385 0.219685 0.454562
823 2 0.121008 0.196905 0.462659
824 4 0.11463 0.174125 0.470757
367 2 0.170877 0.186954 0.417922
369 4 0.195256 0.191897 0.415391
474 4 0.211426 0.204122 0.417766
472 2 0.23341 0.192213 0.417825
402 4 0.205175 0.221453 0.426743
642 4 0.227789 0.221534 0.489556
400 2 0.207777 0.245485 0.420351
321 4 0.234141 0.202146 0.490135
649 2 0.286385 0.178564 0.447746
650 4 0.303775 0.184016 0.464865
473 4 0.255395 0.180303 0.417885
488 4 0.319133 0.213248 0.416231
640 2 0.246199 0.23405 0.478173
487 2 0.339301 0.222447 0.427799
489 4 0.359469 0.231646 0.439367
267 4 0.375622 0.223121 0.448049
265 2 0.398589 0.226976 0.438947
2517 4 0.488806 0.208991 0.422838
266 4 0.421556 0.230831 0.429846
452 4 0.473334 0.221663 0.425277
451 2 0.452235 0.235079 0.425367
453 4 0.431135 0.248495 0.425457
694 2 0.107322 0.316634 0.475888
261 4 0.115029 0.314785 0.444401
695 4 0.122707 0.327103 0.459188
641 4 0.264609 0.246566 0.466789
812 4 0.27587 0.257407 0.45546
811 2 0.29832 0.26309 0.446033
813 4 0.320771 0.268772 0.436606
872 4 0.331928 0.265137 0.420221
3308 4 0.464218 0.307438 0.483681
2508 4 0.474802 0.3122 0.466838
3307 2 0.450274 0.297254 0.501765
3352 2 0.00266011 0.354271 0.479696
3353 4 0.0155461 0.364847 0.498331
773 4 0.171818 0.412121 0.488284
711 4 0.175182 0.399364 0.472102
710 4 0.199714 0.404992 0.428891
709 2 0.187448 0.402178 0.450496
334 2 0.392657 0.403319 0.486527
336 4 0.408154 0.38591 0.477474
120 3 0.482457 0.347464 0.413648
584 4 0.421578 0.373902 0.469785
118 3 0.475929 0.384543 0.413984
583 2 0.429644 0.359994 0.450635
585 4 0.437709 0.346086 0.431485
119 3 0.447678 0.360031 0.420728
408 4 0.0219134 0.429946 0.422176
407 4 0.0420074 0.450445 0.463124
406 2 0.0319604 0.440195 0.44265
383 4 0.0563884 0.449214 0.476345
382 2 0.0617044 0.442601 0.499865
1445 4 0.252778 0.495786 0.425608
594 4 0.258748 0.41675 0.42469
592 2 0.273285 0.435979 0.418048
238 2 0.380068 0.456758 0.484203
239 4 0.370304 0.477474 0.474168
240 4 0.389831 0.436041 0.494238
930 4 0.3589 0.4881 0.486128
335 4 0.377159 0.420727 0.49558
2710 2 0.489293 0.436206 0.46507
2712 4 0.47514 0.454858 0.456298
1150 2 0.242349 0.0184828 0.503433
1152 4 0.234478 0.994777 0.502317
1151 4 0.25022 0.042189 0.504549
3158 4 0.359247 0.0217388 0.50897
3157 2 0.351986 0.00609436 0.527073
88 3 0.374136 0.0141432 0.570937
937 2 0.0416843 0.090361 0.513797
938 4 0.0178695 0.0853398 0.508068
939 4 0.065499 0.0953823 0.519526
1034 4 0.00564807 0.0997166 0.50153
1221 4 0.0841129 0.103089 0.522555
1219 2 0.102459 0.108109 0.506325
1220 4 0.120804 0.113129 0.490095
2317 2 0.240946 0.10104 0.559737
858 4 0.236385 0.165073 0.545314
856 2 0.253745 0.168588 0.562963
2319 4 0.226827 0.102902 0.580289
2318 4 0.255064 0.0991785 0.539185
857 4 0.271104 0.172103 0.580611
3043 2 0.0238972 0.227021 0.580536
3045 4 0.0234284 0.25202 0.580437
3461 4 0.0170225 0.184391 0.587092
3044 4 0.024366 0.202022 0.580634
320 4 0.24343 0.177581 0.532691
319 2 0.238786 0.189864 0.511413
900 4 0.323815 0.216152 0.536509
898 2 0.341273 0.217424 0.554364
899 4 0.35873 0.218695 0.572219
790 2 0.382371 0.244921 0.584281
791 4 0.403049 0.258748 0.581743
879 4 0.0302618 0.257256 0.562631
877 2 0.0461772 0.271054 0.549159
878 4 0.0620926 0.284851 0.535687
9 3 0.081295 0.281942 0.540531
2814 4 0.036191 0.327135 0.576234
3333 4 0.0318464 0.332381 0.557165
7 3 0.0996196 0.313282 0.5308
346 2 0.127408 0.266656 0.569936
348 4 0.124676 0.27901 0.54837
8 3 0.117418 0.280236 0.528842
6 1 0.0970192 0.29093 0.526026
10 3 0.0899455 0.288631 0.504502
1189 2 0.159593 0.321652 0.575554
696 4 0.0919367 0.306164 0.492587
1190 4 0.163555 0.331756 0.553029
803 4 0.332286 0.31824 0.550886
806 4 0.347146 0.311103 0.562525
805 2 0.364841 0.293443 0.562099
807 4 0.382536 0.275783 0.561672
269 4 0.414203 0.259934 0.565231
268 2 0.425534 0.263637 0.543252
270 4 0.436865 0.267341 0.521273
3309 4 0.43633 0.287071 0.519849
3331 2 0.0261525 0.343242 0.535375
3332 4 0.0204585 0.354103 0.513585
772 2 0.173759 0.401204 0.510694
774 4 0.175701 0.390287 0.533105
1395 4 0.190718 0.384164 0.547025
1393 2 0.185475 0.359771 0.545386
1394 4 0.180232 0.335378 0.543748
802 2 0.330076 0.343079 0.552703
1238 4 0.344148 0.376834 0.562045
804 4 0.327866 0.367919 0.554519
1237 2 0.331985 0.393042 0.576693
935 4 0.0545222 0.443705 0.538882
934 2 0.0648063 0.456255 0.557906
384 4 0.0670204 0.435987 0.523385
936 4 0.0750903 0.468804 0.57693
539 4 0.197221 0.488674 0.528482
538 2 0.190565 0.480657 0.551211
540 4 0.18391 0.47264 0.57394
2242 2 0.227568 0.501732 0.50107
2243 4 0.215549 0.490917 0.520142
1399 2 0.287096 0.506196 0.504504
1028 4 0.262652 0.431004 0.58257
1172 4 0.25929 0.440261 0.566001
1173 4 0.270515 0.476778 0.533733
1171 2 0.264903 0.45852 0.549867
880 2 0.333522 0.504475 0.56243
1401 4 0.277442 0.490593 0.521489
881 4 0.323751 0.496267 0.583932
1001 4 0.460741 0.475838 0.548444
926 4 0.480692 0.480637 0.543866
1000 2 0.441075 0.483895 0.561616
3082 2 0.0301562 0.0258625 0.63301
3083 4 0.0507622 0.0360303 0.642868
2990 4 0.0495374 0.0423234 0.662108
3084 4 0.00955014 0.0156946 0.623152
1032 4 0.277054 0.0341843 0.616009
1142 4 0.265958 0.0454984 0.628029
1141 2 0.266395 0.0693488 0.635522
1030 2 0.300822 0.0279578 0.620648
1031 4 0.324589 0.0217313 0.625287
1004 4 0.343099 0.0258472 0.627754
1003 2 0.346424 0.0327307 0.65156
89 3 0.390489 0.99193 0.597083
1163 4 0.453326 0.00124479 0.665661
1060 2 0.484222 0.0127394 0.596242
1062 4 0.48421 0.0358349 0.605822
3078 4 0.0667145 0.0939505 0.592435
3076 2 0.0422428 0.0906972 0.596401
3077 4 0.0177711 0.087444 0.600367
3179 4 0.997941 0.159069 0.639131
3462 4 0.0170053 0.166108 0.633637
1284 4 0.216358 0.0979405 0.595538
1282 2 0.225121 0.10447 0.618027
1283 4 0.233884 0.110999 0.640516
1155 4 0.233188 0.108136 0.659275
886 2 0.292855 0.125148 0.646856
888 4 0.302215 0.146442 0.65603
953 4 0.306795 0.156822 0.64094
1143 4 0.266832 0.0931992 0.643015
887 4 0.283495 0.103855 0.637682
906 4 0.480347 0.11709 0.636263
1011 4 0.492333 0.12744 0.648373
3460 2 0.0170139 0.17525 0.610364
1212 4 0.227755 0.214646 0.637604
410 4 0.242922 0.210566 0.649204
1210 2 0.205537 0.210605 0.648337
1211 4 0.183318 0.206564 0.65907
409 2 0.26053 0.22362 0.661234
952 2 0.322801 0.174355 0.633091
792 4 0.361694 0.231094 0.586819
954 4 0.338806 0.191888 0.625243
3123 4 0.48742 0.172676 0.666921
2812 2 0.0250062 0.317207 0.596272
2813 4 0.0138214 0.30728 0.61631
347 4 0.13014 0.254301 0.591502
1191 4 0.15563 0.311549 0.59808
897 4 0.149583 0.301425 0.614011
895 2 0.139971 0.301275 0.637093
896 4 0.130359 0.301125 0.660174
992 4 0.149026 0.306531 0.664913
1239 4 0.319822 0.409249 0.591341
1029 4 0.305446 0.414698 0.602658
1006 2 0.492088 0.380821 0.668297
1007 4 0.493345 0.365928 0.648252
1981 2 0.0595347 0.477068 0.650407
1983 4 0.0467059 0.47056 0.670858
1982 4 0.0723634 0.483576 0.629956
1040 4 0.0755685 0.478994 0.594364
1039 2 0.0964793 0.46769 0.60212
1041 4 0.11739 0.456386 0.609875
1136 4 0.136695 0.457301 0.614283
1135 2 0.15701 0.456648 0.59972
1137 4 0.177324 0.455995 0.585158
1027 2 0.284049 0.422851 0.592614
1952 4 0.31524 0.479579 0.590392
1951 2 0.312294 0.468899 0.612807
1953 4 0.309347 0.458219 0.635223
891 4 0.321137 0.461913 0.650566
889 2 0.306931 0.469698 0.669612
2989 2 0.0645988 0.0531459 0.678877
2991 4 0.0796603 0.0639683 0.695646
864 4 0.0989882 0.0636893 0.697841
863 4 0.119382 0.032694 0.731369
862 2 0.109185 0.0481916 0.714605
1092 4 0.315973 0.0699436 0.74127
950 4 0.317817 0.0532998 0.730402
949 2 0.326614 0.051994 0.707034
951 4 0.335411 0.0506882 0.683665
1005 4 0.349748 0.0396142 0.675367
1216 2 0.397826 0.00338426 0.720607
1218 4 0.394653 0.0133319 0.743326
1106 4 0.0322557 0.105423 0.743666
1105 2 0.0387331 0.0815782 0.747492
1214 4 0.0187618 0.120261 0.737511
1213 2 0.0309969 0.137361 0.751041
1131 4 0.121912 0.147274 0.740135
1129 2 0.12017 0.12254 0.743358
1130 4 0.118428 0.0978068 0.746582
1153 2 0.231739 0.12876 0.673337
1154 4 0.23029 0.149384 0.687399
1299 4 0.234043 0.149334 0.70727
1297 2 0.253954 0.16419 0.710104
1009 2 0.477241 0.127927 0.668302
1025 4 0.482194 0.111691 0.748369
1024 2 0.472053 0.122827 0.728411
1026 4 0.461912 0.133964 0.708453
1010 4 0.462148 0.128413 0.688231
1082 4 0.00973435 0.214022 0.705424
850 2 0.0660767 0.192864 0.699812
852 4 0.049495 0.183919 0.683374
851 4 0.0826583 0.20181 0.71625
946 2 0.122147 0.208837 0.727159
1260 4 0.166124 0.208573 0.718133
947 4 0.0972037 0.208672 0.72888
948 4 0.147091 0.209002 0.725438
1258 2 0.175478 0.214737 0.695779
1259 4 0.184832 0.2209 0.673426
411 4 0.278138 0.236674 0.673264
1298 4 0.273865 0.179046 0.712938
1085 4 0.290001 0.172951 0.704811
1084 2 0.305468 0.175802 0.724248
1086 4 0.320936 0.178654 0.743686
976 2 0.358706 0.187243 0.744094
978 4 0.334794 0.189689 0.737207
1192 2 0.412395 0.184411 0.731659
1263 4 0.469357 0.167036 0.673537
1194 4 0.424862 0.196098 0.713406
1261 2 0.449149 0.175823 0.685352
1262 4 0.428941 0.184611 0.697166
1208 4 0.0648807 0.2659 0.74304
991 2 0.152121 0.310055 0.689472
993 4 0.155217 0.313579 0.714032
1068 4 0.149438 0.330361 0.722583
1064 4 0.189515 0.278396 0.748717
3329 4 0.403837 0.31825 0.733264
3328 2 0.385338 0.327637 0.719306
3330 4 0.366838 0.337025 0.705348
3038 4 0.00373281 0.323316 0.737754
3419 4 0.00292812 0.339231 0.724633
3418 2 0.0176893 0.359372 0.723361
1281 4 0.0522784 0.380527 0.72576
1279 2 0.0531176 0.398743 0.742866
3420 4 0.0324505 0.379513 0.722089
1067 4 0.121839 0.371187 0.731084
1066 2 0.135638 0.350774 0.726834
941 4 0.136071 0.416239 0.726553
1098 4 0.150203 0.402508 0.729444
1096 2 0.174965 0.405802 0.728362
1097 4 0.199727 0.409096 0.72728
1276 2 0.230207 0.392729 0.72445
1278 4 0.20764 0.396812 0.714488
1277 4 0.252773 0.388645 0.734412
798 4 0.304816 0.354949 0.71922
797 4 0.260876 0.378733 0.717156
796 2 0.282846 0.366841 0.718188
1044 4 0.312377 0.359281 0.701823
1042 2 0.33701 0.357723 0.705822
1043 4 0.361642 0.356166 0.709822
1008 4 0.49083 0.395714 0.688342
3181 2 0.432825 0.405149 0.737759
3182 4 0.43845 0.414457 0.715245
999 4 0.498096 0.407156 0.753994
2130 4 0.0342426 0.485839 0.672233
2128 2 0.0140372 0.487346 0.686883
2129 4 0.993832 0.488854 0.701534
940 2 0.121426 0.431628 0.73974
942 4 0.106782 0.447017 0.752927
2214 4 0.30662 0.447979 0.704676
2212 2 0.293232 0.451533 0.725492
890 4 0.292724 0.477482 0.688658
1205 4 0.338024 0.446966 0.721538
1204 2 0.351132 0.468012 0.724766
1206 4 0.364239 0.489059 0.727994
1139 4 0.373975 0.485449 0.745339
1251 4 0.45982 0.498183 0.730536
1249 2 0.479559 0.482957 0.728606
1250 4 0.499299 0.467732 0.726677
1285 2 0.0172601 0.0362424 0.821412
1203 4 0.0513531 0.0656788 0.822755
1201 2 0.0726408 0.0676435 0.809787
1286 4 1 0.0182621 0.819421
1107 4 0.0452106 0.0577332 0.751318
1287 4 0.0345205 0.0542227 0.823403
944 4 0.112539 0.0344986 0.749759
943 2 0.127494 0.0162795 0.758101
1202 4 0.0939286 0.0696083 0.79682
831 4 0.11137 0.0646084 0.791155
1090 2 0.300088 0.0614567 0.758614
1091 4 0.284204 0.0529697 0.775959
1049 4 0.284096 0.0368791 0.786146
1048 2 0.293859 0.0177421 0.798939
966 4 0.407976 0.019243 0.757638
2322 4 0.410841 0.0198318 0.82645
964 2 0.40883 0.0211369 0.782555
965 4 0.409684 0.0230308 0.807472
2283 4 0.447944 0.00665256 0.831601
1995 4 0.481473 0.00338489 0.819766
1993 2 0.49199 0.0257938 0.816241
1994 4 0.502507 0.0482027 0.812717
1215 4 0.0432319 0.154461 0.764571
829 2 0.121984 0.0872311 0.792018
830 4 0.132597 0.109854 0.792881
909 4 0.141603 0.124259 0.781913
907 2 0.164115 0.129105 0.791654
908 4 0.186627 0.133952 0.801395
840 4 0.242598 0.139745 0.759493
1148 4 0.201902 0.123381 0.809185
838 2 0.252772 0.132975 0.781307
1147 2 0.197453 0.116495 0.832806
839 4 0.262946 0.126204 0.80312
1022 4 0.279686 0.120499 0.811103
1021 2 0.292934 0.108014 0.828243
3425 4 0.487272 0.0945714 0.758401
3424 2 0.473257 0.0973208 0.778924
3426 4 0.459242 0.10007 0.799448
45 3 0.461468 0.104824 0.81813
1179 4 0.0348962 0.17359 0.761621
1178 4 0.034209 0.218898 0.782773
1177 2 0.0345526 0.196244 0.772197
1209 4 0.0477671 0.234697 0.778171
1193 4 0.399928 0.172725 0.749912
977 4 0.382618 0.184797 0.750981
154 3 0.0280755 0.287864 0.802949
1207 2 0.0563239 0.250298 0.760605
3037 2 0.00447174 0.301033 0.749073
151 1 0.0203816 0.290705 0.824654
155 3 0.0326786 0.306694 0.835227
3039 4 0.00521067 0.278751 0.760392
1065 4 0.154134 0.300265 0.776476
1241 4 0.146651 0.316223 0.788981
1063 2 0.171825 0.289331 0.762596