ITEM: TIMESTEP
3350000
ITEM: NUMBER OF ATOMS
4590
ITEM: BOX BOUNDS pp pp pp
-9.9985700000000008e+00 9.9985700000000008e+00
-9.9985700000000008e+00 9.9985700000000008e+00
-9.9985700000000008e+00 9.9985700000000008e+00
ITEM: ATOMS id type xs ys zs
3234 4 0.080275 0.997112 0.0392809
2625 4 0.0181321 0.0738868 0.00664856
464 4 0.0876923 0.0667532 0.0190062
702 4 0.0655706 0.0592118 0.0531667
700 2 0.0676514 0.0405102 0.0696317
2270 4 0.0967127 0.000876087 0.0296649
2269 2 0.112532 0.0179748 0.0205786
2271 4 0.128351 0.0350735 0.0114923
932 4 0.123285 0.0543973 0.00817235
492 4 0.388918 0.0560197 0.0361201
490 2 0.370508 0.0404779 0.0294345
2442 4 0.401738 0.0559698 0.0213926
491 4 0.352098 0.024936 0.0227489
654 4 0.343775 0.00835974 0.0305683
25 3 0.481585 0.0744919 0.0642348
2440 2 0.419093 0.0513429 0.00399767
21 1 0.473873 0.084731 0.0830583
463 2 0.0818423 0.0901928 0.0125608
655 2 0.0277632 0.154648 0.0374387
656 4 0.0237758 0.131365 0.0292414
2623 2 0.0201644 0.0938404 0.0215784
465 4 0.0759924 0.113632 0.00611536
554 4 0.0767948 0.133028 0.0116123
2624 4 0.0221967 0.113794 0.0365082
1668 4 0.0306586 0.103452 0.0807611
553 2 0.0925244 0.147178 0.0249366
555 4 0.108254 0.161328 0.0382609
722 4 0.242178 0.095081 0.0519123
356 4 0.229948 0.106913 0.0389474
355 2 0.2417 0.115237 0.0185076
721 2 0.253657 0.0907179 0.0736923
1607 4 0.433057 0.113331 0.013721
747 4 0.46859 0.110092 0.0628359
745 2 0.450615 0.117545 0.0471344
746 4 0.43264 0.124998 0.0314329
2976 4 0.484782 0.107798 0.0527415
22 3 0.476379 0.107492 0.0808708
657 4 0.0317506 0.17793 0.045636
738 4 0.0326681 0.196788 0.0478271
736 2 0.0543259 0.208957 0.0506605
737 4 0.0759837 0.221127 0.053494
462 4 0.0875352 0.21707 0.0692332
837 4 0.117302 0.17475 0.0278276
835 2 0.119455 0.199203 0.0230744
836 4 0.121609 0.223656 0.0183212
456 4 0.147234 0.22695 0.0360908
294 4 0.154529 0.240798 0.0234245
454 2 0.155325 0.226765 0.0597486
704 4 0.090683 0.196968 0.0701312
581 4 0.207552 0.172354 0.077838
580 2 0.219044 0.194506 0.0762954
292 2 0.169243 0.230063 0.00629475
295 2 0.273197 0.252076 0.0114848
297 4 0.296599 0.243281 0.0110867
360 4 0.306403 0.226874 0.007486
358 2 0.315738 0.205315 0.998928
475 2 0.0738504 0.305115 0.0640259
2806 2 0.0452621 0.327255 0.0167241
477 4 0.070766 0.31833 0.0430254
2807 4 0.0522526 0.324198 0.0405351
902 4 0.253067 0.265762 0.992105
296 4 0.249794 0.260871 0.0118829
102 3 0.327859 0.332054 0.0330465
518 4 0.378673 0.270596 0.0688416
528 4 0.39933 0.272859 0.0645357
101 1 0.32941 0.318196 0.0147516
103 3 0.332407 0.296389 0.0220922
105 3 0.34714 0.3246 0.00197261
526 2 0.423938 0.277079 0.0658898
527 4 0.448546 0.281299 0.0672439
2840 4 0.463588 0.294682 0.0680205
2839 2 0.471552 0.315673 0.0570145
3407 4 0.445696 0.284471 0.00661279
2514 4 0.0704797 0.364795 0.0159772
2513 4 0.0542488 0.398305 0.0493593
2512 2 0.0623642 0.38155 0.0326683
329 4 0.059485 0.416034 0.0421015
494 4 0.193212 0.399558 0.0688641
1121 4 0.324786 0.35088 0.0395702
1120 2 0.330125 0.348258 0.0638561
741 4 0.382768 0.419194 0.0715927
2841 4 0.479515 0.336664 0.0460085
672 4 0.491821 0.348977 0.0382905
670 2 0.498261 0.372921 0.0415138
1709 4 0.0734808 0.492444 0.0816949
328 2 0.0711132 0.437859 0.0384098
330 4 0.0827414 0.459685 0.0347181
552 4 0.0771419 0.474831 0.021936
550 2 0.0992858 0.478232 0.0108335
525 4 0.190144 0.419809 0.0703596
523 2 0.199513 0.44154 0.0784298
524 4 0.208882 0.463272 0.0864999
768 4 0.216444 0.478284 0.0763542
242 4 0.290204 0.501342 0.0575274
241 2 0.299821 0.48736 0.0391651
243 4 0.309438 0.473377 0.0208028
13 3 0.377748 0.424958 0.0292664
11 1 0.378054 0.443282 0.043498
15 3 0.356919 0.451279 0.0463262
12 3 0.391189 0.459712 0.0341857
596 4 0.410249 0.464612 0.0385376
14 3 0.38704 0.437227 0.0640163
595 2 0.419685 0.479781 0.0560322
597 4 0.42912 0.494949 0.0735268
379 2 0.0201112 0.037744 0.127372
380 4 0.0245666 0.0581623 0.141099
233 4 0.00864931 0.070869 0.136375
381 4 0.0156558 0.0173257 0.113646
1422 4 0.033367 0.00500382 0.161274
701 4 0.0697322 0.0218085 0.0860968
566 4 0.111645 0.00433363 0.119421
565 2 0.12889 0.0220049 0.123359
567 4 0.146135 0.0396761 0.127297
450 4 0.165291 0.0347978 0.124755
448 2 0.179836 0.0550719 0.123144
449 4 0.19438 0.0753459 0.121533
692 4 0.324422 0.0727106 0.117537
691 2 0.303212 0.0836175 0.11003
1505 4 0.339038 0.0659826 0.13001
1749 4 0.365519 0.0367893 0.146453
1661 4 0.351618 0.0408704 0.105066
1504 2 0.359469 0.0722495 0.11703
556 2 0.408909 0.0263637 0.129296
558 4 0.3899 0.0421551 0.125495
255 4 0.392698 0.0830338 0.0876467
1660 2 0.352285 0.0159053 0.106282
1506 4 0.3799 0.0785164 0.10405
1448 4 0.438442 0.00625287 0.150781
253 2 0.415886 0.0736802 0.0877001
23 3 0.486012 0.0775857 0.101497
254 4 0.439074 0.0643267 0.0877535
557 4 0.427919 0.0105722 0.133098
24 3 0.451371 0.0799142 0.0860372
232 2 0.0128282 0.08743 0.154635
2760 4 0.0442777 0.109686 0.0933872
2758 2 0.0653945 0.121074 0.0863467
234 4 0.0170072 0.103991 0.172896
1666 2 0.00842932 0.113787 0.0856831
2759 4 0.0865112 0.132462 0.0793062
705 4 0.0955783 0.149416 0.0848144
577 2 0.132408 0.148707 0.167701
235 2 0.185453 0.131111 0.151746
237 4 0.201762 0.128976 0.132914
915 4 0.191291 0.135753 0.116662
913 2 0.193448 0.146462 0.094171
693 4 0.282002 0.0945243 0.102523
723 4 0.265136 0.0863549 0.0954723
2894 4 0.491881 0.117576 0.0887647
455 4 0.163415 0.226581 0.0834063
703 2 0.0931306 0.173192 0.0774728
460 2 0.100762 0.228007 0.0874159
287 4 0.163827 0.246079 0.0906103
507 4 0.109226 0.1842 0.163289
461 4 0.113989 0.238944 0.105599
578 4 0.113802 0.165378 0.166664
914 4 0.195605 0.157171 0.0716801
582 4 0.230537 0.216658 0.0747528
278 4 0.241795 0.228049 0.0872543
277 2 0.252362 0.237734 0.107741
730 2 0.294363 0.237827 0.144849
279 4 0.26293 0.24742 0.128227
731 4 0.305963 0.226684 0.163992
606 4 0.297546 0.208256 0.158725
377 4 0.403498 0.23657 0.158653
376 2 0.42369 0.232785 0.1444
2875 2 0.461909 0.199398 0.114473
2877 4 0.463695 0.175381 0.107754
2876 4 0.460122 0.223416 0.121192
378 4 0.443882 0.228999 0.130147
476 4 0.0769347 0.2919 0.0850264
756 4 0.0359022 0.283904 0.140038
396 4 0.0289141 0.285644 0.159368
754 2 0.0495333 0.285534 0.11914
755 4 0.0631643 0.287164 0.0982427
2565 4 0.997344 0.328817 0.0951874
252 4 0.164706 0.305893 0.123774
250 2 0.14827 0.323608 0.117354
623 4 0.103564 0.254351 0.111115
622 2 0.111989 0.256514 0.134557
624 4 0.120414 0.258678 0.157999
286 2 0.166008 0.269133 0.100041
288 4 0.16819 0.292186 0.109472
284 4 0.133903 0.245688 0.161133
732 4 0.282763 0.248971 0.125706
517 2 0.379191 0.263019 0.0926638
519 4 0.37971 0.255442 0.116486
309 4 0.373353 0.269748 0.128684
307 2 0.3641 0.277034 0.15074
1070 4 0.390586 0.336092 0.119518
2652 4 0.406654 0.324598 0.11642
2094 4 0.0661089 0.333768 0.170363
315 4 0.0028893 0.380188 0.132573
251 4 0.131834 0.341323 0.110934
493 2 0.209178 0.38434 0.0806392
968 4 0.227059 0.339659 0.148867
495 4 0.225144 0.369121 0.0924143
969 4 0.221251 0.372664 0.11175
967 2 0.224155 0.356162 0.130309
609 4 0.342763 0.421535 0.158346
1122 4 0.335463 0.345637 0.0881419
1069 2 0.368659 0.333268 0.107839
1071 4 0.346732 0.330444 0.0961592
607 2 0.345913 0.403911 0.140892
608 4 0.349064 0.386287 0.123438
740 4 0.359642 0.392947 0.107328
739 2 0.371205 0.40607 0.0894602
2650 2 0.415745 0.328106 0.139447
2651 4 0.424835 0.331614 0.162474
2618 4 0.0619548 0.486148 0.0966168
2617 2 0.056313 0.480305 0.120264
2619 4 0.0506713 0.474462 0.143912
766 2 0.209772 0.498337 0.0897156
399 4 0.0743907 0.0273191 0.240066
318 4 0.0682007 0.0107528 0.249733
398 4 0.113663 0.00059074 0.224446
397 2 0.0940269 0.0139549 0.232256
2850 4 0.1599 0.0248919 0.240013
2848 2 0.146232 0.042453 0.251414
429 4 0.162765 0.00495179 0.24473
1747 2 0.36561 0.0326014 0.171103
743 4 0.383761 0.0198508 0.199348
742 2 0.400707 0.0203667 0.217726
1748 4 0.365701 0.0284135 0.195754
744 4 0.417652 0.0208826 0.236104
2469 4 0.443381 0.0221596 0.161993
2467 2 0.450301 0.0417048 0.175968
2468 4 0.457221 0.0612499 0.189942
771 4 0.456833 0.081133 0.193062
432 4 0.42781 0.0380817 0.236749
2675 4 0.0148701 0.114613 0.18943
512 4 0.0479157 0.128981 0.232285
2674 2 0.0283952 0.112041 0.210302
2676 4 0.0419203 0.109468 0.231174
236 4 0.169143 0.133246 0.170577
579 4 0.151014 0.132036 0.168738
27 3 0.259643 0.161159 0.213785
30 3 0.288206 0.146387 0.232728
28 3 0.293507 0.158944 0.197631
26 1 0.282287 0.162391 0.217646
758 4 0.451568 0.154485 0.176309
769 2 0.477369 0.0898003 0.20439
2703 4 0.491582 0.113112 0.228921
757 2 0.463403 0.165585 0.195333
770 4 0.497906 0.0984676 0.215718
506 4 0.0949391 0.224996 0.188435
530 4 0.0971052 0.239906 0.202157
529 2 0.0953 0.229569 0.224853
505 2 0.102083 0.204598 0.175862
285 4 0.158966 0.245022 0.204401
283 2 0.146434 0.245355 0.182767
545 4 0.155021 0.23377 0.219523
544 2 0.179102 0.233649 0.22625
546 4 0.203184 0.233528 0.232976
29 3 0.287332 0.183428 0.226035
604 2 0.301932 0.187457 0.171891
605 4 0.306318 0.166658 0.185058
332 4 0.377452 0.216871 0.233654
630 4 0.381523 0.226084 0.215868
628 2 0.386029 0.225206 0.191289
629 4 0.390534 0.224328 0.166711
759 4 0.475239 0.176685 0.214356
395 4 0.0385664 0.260954 0.201771
394 2 0.0337402 0.273299 0.18057
298 2 0.0512054 0.280331 0.233247
299 4 0.0426567 0.259729 0.221947
2694 4 0.0579125 0.320084 0.250292
300 4 0.0597541 0.300932 0.244547
612 4 0.2297 0.328017 0.165411
735 4 0.176505 0.339415 0.241299
610 2 0.249646 0.321278 0.1789
611 4 0.269592 0.314539 0.192388
343 2 0.275504 0.316995 0.232508
345 4 0.278054 0.306778 0.20983
308 4 0.354846 0.28432 0.172796
498 4 0.36397 0.296505 0.186739
496 2 0.363299 0.309379 0.208163
497 4 0.362628 0.322254 0.229587
275 4 0.348291 0.32927 0.240819
2538 4 0.435939 0.335854 0.178126
2092 2 0.0514439 0.351354 0.180405
2093 4 0.0367788 0.36894 0.190448
2692 2 0.0569505 0.340688 0.236159
535 2 0.0422538 0.407509 0.203745
537 4 0.0446799 0.382725 0.2015
2693 4 0.0559885 0.361292 0.222027
362 4 0.0847409 0.340759 0.172718
361 2 0.108661 0.347513 0.169993
363 4 0.13258 0.354266 0.167267
417 4 0.141245 0.346195 0.184484
415 2 0.15072 0.34645 0.207621
416 4 0.160196 0.346704 0.230758
2537 4 0.405545 0.354124 0.213384
714 4 0.406957 0.366977 0.229258
712 2 0.408578 0.390996 0.236011
713 4 0.410199 0.415016 0.242764
2536 2 0.420742 0.344989 0.195755
414 4 0.00904523 0.428997 0.215562
536 4 0.0398278 0.432293 0.20599
1774 2 0.0385845 0.472011 0.221719
1776 4 0.0609363 0.478122 0.231111
1775 4 0.0162327 0.465899 0.212326
1385 4 0.0654403 0.473968 0.249568
385 2 0.320416 0.462818 0.241513
245 4 0.309044 0.463405 0.204126
246 4 0.330235 0.430851 0.172631
387 4 0.319065 0.473208 0.218811
244 2 0.31964 0.447128 0.188379
1715 4 0.395853 0.495359 0.178288
1272 4 0.130548 0.0671232 0.281096
2849 4 0.132565 0.0600142 0.262815
405 4 0.245553 0.0742473 0.315467
248 4 0.260075 0.0645561 0.326476
247 2 0.277722 0.0511429 0.314906
1699 2 0.305909 0.000593727 0.310452
1700 4 0.291421 0.0177482 0.299452
249 4 0.295368 0.0377296 0.303336
257 4 0.489213 0.0039425 0.290875
1497 4 0.483608 0.0120581 0.307931
430 2 0.440976 0.0491181 0.254916
431 4 0.454142 0.0601544 0.273082
1496 4 0.45893 0.0516968 0.29003
1495 2 0.471269 0.0318774 0.29898
2484 4 0.0420792 0.14757 0.285115
513 4 0.0602083 0.146087 0.277639
511 2 0.054062 0.137534 0.254962
2482 2 0.024918 0.163282 0.29427
1270 2 0.128769 0.091757 0.277198
1271 4 0.12699 0.116391 0.2733
1220 4 0.128205 0.136205 0.276026
469 2 0.0863715 0.162013 0.323924
1219 2 0.139567 0.149058 0.294216
1221 4 0.15093 0.161912 0.312405
393 4 0.194209 0.144292 0.27204
391 2 0.190061 0.121573 0.281622
392 4 0.185912 0.0988539 0.291204
404 4 0.202496 0.0975585 0.305297
403 2 0.224025 0.0859029 0.310382
516 4 0.287607 0.161172 0.248106
2910 4 0.281863 0.14525 0.312628
2908 2 0.296203 0.146689 0.333061
514 2 0.287353 0.159711 0.273066
699 4 0.492532 0.121681 0.307324
520 2 0.48311 0.148254 0.28317
522 4 0.495755 0.127203 0.287875
633 4 0.457994 0.168292 0.294044
2483 4 0.00775686 0.178994 0.303425
471 4 0.0980855 0.183434 0.318528
531 4 0.0934949 0.219232 0.247548
459 4 0.0935147 0.216517 0.266874
458 4 0.102266 0.17924 0.299038
457 2 0.0978904 0.197878 0.282956
350 4 0.211595 0.24736 0.243851
349 2 0.222621 0.243331 0.265928
750 4 0.176126 0.240812 0.334539
351 4 0.233648 0.239302 0.288004
389 4 0.184962 0.224123 0.328772
388 2 0.206796 0.213218 0.334207
764 4 0.249101 0.228214 0.294447
515 4 0.287098 0.158249 0.298025
763 2 0.267699 0.239783 0.306507
765 4 0.286296 0.251353 0.318567
331 2 0.393861 0.215181 0.252445
333 4 0.41027 0.213491 0.271235
521 4 0.470465 0.169305 0.278465
632 4 0.424795 0.200809 0.275572
631 2 0.441395 0.18455 0.284808
618 4 0.154406 0.286737 0.289169
616 2 0.143706 0.309239 0.291249
749 4 0.167191 0.277366 0.301604
748 2 0.171659 0.259089 0.318072
510 4 0.305986 0.246372 0.324259
645 4 0.283325 0.329307 0.272
344 4 0.272955 0.327212 0.255186
274 2 0.357198 0.316955 0.260674
614 4 0.368914 0.322477 0.288866
276 4 0.366105 0.304641 0.280528
613 2 0.380208 0.335368 0.307071
617 4 0.133006 0.331742 0.293329
2654 4 0.127351 0.346343 0.305263
2653 2 0.137339 0.36627 0.293934
728 4 0.154136 0.390715 0.264229
2655 4 0.147327 0.386196 0.282606
727 2 0.15528 0.415558 0.26164
364 2 0.210926 0.358268 0.316162
733 2 0.189479 0.350986 0.25927
365 4 0.195975 0.364923 0.297258
734 4 0.202453 0.362558 0.277242
366 4 0.225878 0.351613 0.335065
643 2 0.300147 0.346217 0.279498
644 4 0.31697 0.363128 0.286995
435 4 0.31437 0.38128 0.295009
433 2 0.300969 0.390753 0.313873
434 4 0.287568 0.400226 0.332738
2862 4 0.399332 0.410817 0.25919
615 4 0.391502 0.34826 0.325276
1384 2 0.0701442 0.493533 0.264409
729 4 0.156424 0.440401 0.259051
1383 4 0.149325 0.496532 0.310555
3671 4 0.159865 0.481791 0.318276
339 4 0.171408 0.45026 0.249139
338 4 0.19041 0.494033 0.26409
337 2 0.180909 0.472146 0.256614
677 4 0.220756 0.473431 0.324948
3670 2 0.182622 0.471648 0.320374
676 2 0.245087 0.473971 0.319215
3672 4 0.20538 0.461506 0.322472
678 4 0.269419 0.474511 0.313481
1575 4 0.320201 0.465729 0.277563
1574 4 0.288635 0.468288 0.316264
1573 2 0.304418 0.467008 0.296914
386 4 0.321768 0.452428 0.264216
2860 2 0.400306 0.431177 0.273672
2861 4 0.401279 0.451536 0.288154
1473 4 0.411518 0.464177 0.300014
1471 2 0.426125 0.483814 0.305132
2642 4 0.29524 0.0476869 0.412994
480 4 0.286355 0.0656742 0.410256
2641 2 0.312338 0.044061 0.395114
2643 4 0.329436 0.0404352 0.377234
762 4 0.397378 0.0667576 0.378715
760 2 0.376019 0.0753877 0.368995
2879 4 0.410502 0.0511097 0.379284
2878 2 0.427731 0.0484995 0.397215
2880 4 0.44496 0.0458893 0.415146
2717 4 0.0627622 0.137434 0.345597
687 4 0.998058 0.143264 0.341668
2718 4 0.0133985 0.136473 0.353535
2716 2 0.0380803 0.136954 0.349566
470 4 0.0746574 0.140592 0.32932
650 4 0.203223 0.121351 0.416244
649 2 0.227139 0.114337 0.418246
474 4 0.1906 0.133606 0.407727
478 2 0.274918 0.0877708 0.407785
2909 4 0.310542 0.148129 0.353493
2657 4 0.327814 0.143009 0.364408
479 4 0.263481 0.109867 0.405313
2658 4 0.351808 0.0996043 0.370811
2656 2 0.339811 0.121307 0.36761
761 4 0.354659 0.0840179 0.359275
2832 4 0.986237 0.213624 0.347385
2613 4 0.0665681 0.238544 0.367686
341 4 0.0830683 0.226981 0.366306
342 4 0.129111 0.226338 0.385809
340 2 0.10609 0.226659 0.376058
824 4 0.137384 0.215826 0.402085
390 4 0.228629 0.202313 0.339642
707 4 0.237784 0.21766 0.349502
706 2 0.251228 0.233014 0.363948
708 4 0.264672 0.248368 0.378394
488 4 0.359315 0.224558 0.413928
420 4 0.503544 0.226484 0.341462
2611 2 0.0576499 0.259298 0.378407
2612 4 0.0487317 0.280051 0.389129
2847 4 0.0603649 0.276567 0.404973
669 4 0.224616 0.328229 0.406211
667 2 0.20068 0.331254 0.399646
508 2 0.304127 0.2538 0.348061
717 4 0.310232 0.267231 0.389665
509 4 0.302269 0.261229 0.371863
716 4 0.35001 0.240418 0.403788
715 2 0.330121 0.253824 0.396726
443 4 0.0750565 0.3384 0.416402
442 2 0.0848892 0.354701 0.400192
1640 4 0.113511 0.379146 0.384074
444 4 0.0947218 0.371003 0.383982
1639 2 0.114251 0.403442 0.378213
668 4 0.176743 0.334279 0.393082
374 4 0.228274 0.380729 0.350804
602 4 0.194212 0.411373 0.393715
601 2 0.185856 0.399389 0.414007
373 2 0.249629 0.393166 0.346999
375 4 0.270984 0.405602 0.343195
2924 4 0.390507 0.365916 0.335576
2925 4 0.400909 0.35311 0.382783
2923 2 0.395708 0.359513 0.35918
117 3 0.412218 0.344161 0.397606
119 3 0.420776 0.380384 0.402833
116 1 0.419945 0.359499 0.412909
585 4 0.416299 0.396111 0.414723
118 3 0.441181 0.353177 0.419798
2137 2 0.0976846 0.453175 0.397558
2139 4 0.100031 0.438817 0.377223
1641 4 0.114991 0.427738 0.372353
751 2 0.321939 0.503731 0.364235
752 4 0.316984 0.4851 0.380157
2109 4 0.310142 0.476462 0.398043
447 4 0.386187 0.501104 0.408531
542 4 0.486155 0.478606 0.403446
541 2 0.479141 0.491586 0.383259
1151 4 0.229349 0.0118465 0.494853
725 4 0.226953 0.0732976 0.48572
1180 2 0.245688 0.0413504 0.493472
1181 4 0.244448 0.0649145 0.485203
599 4 0.319163 0.0308009 0.456857
3159 4 0.308397 0.0442903 0.465719
3157 2 0.315816 0.0664807 0.474536
598 2 0.339989 0.0177888 0.452153
843 4 0.411475 0.0575636 0.493887
600 4 0.360816 0.00477675 0.44745
682 2 0.391759 0.0269155 0.470057
683 4 0.405622 0.0401595 0.486107
684 4 0.377896 0.0136715 0.454007
1517 4 0.378689 0.996181 0.414257
2516 4 0.489985 0.0537789 0.47526
2515 2 0.485906 0.0753912 0.463367
1033 2 0.0716912 0.138594 0.480505
983 4 0.0464393 0.108453 0.49299
1035 4 0.0564793 0.125082 0.495037
1034 4 0.0869032 0.152107 0.465972
939 4 0.128105 0.151593 0.425822
937 2 0.115031 0.144349 0.445866
938 4 0.101957 0.137104 0.46591
651 4 0.251055 0.107323 0.420248
472 2 0.184142 0.154826 0.419268
724 2 0.236695 0.0959704 0.481692
726 4 0.246436 0.118643 0.477663
857 4 0.267195 0.121231 0.476564
856 2 0.280871 0.141932 0.473463
858 4 0.294548 0.162632 0.470362
1031 4 0.316406 0.135923 0.42043
3158 4 0.323235 0.088671 0.483352
320 4 0.307435 0.164091 0.485827
1030 2 0.341024 0.140269 0.420935
2502 4 0.338275 0.0921679 0.469562
1032 4 0.365642 0.144614 0.42144
2500 2 0.353916 0.110792 0.475364
2501 4 0.369557 0.129417 0.481166
2517 4 0.481828 0.0970036 0.451473
823 2 0.146 0.219749 0.425227
825 4 0.154617 0.223672 0.448369
367 2 0.16198 0.236427 0.48418
369 4 0.169201 0.227867 0.461825
402 4 0.218763 0.158682 0.448657
473 4 0.177684 0.176045 0.430809
400 2 0.237102 0.175674 0.44827
401 4 0.25544 0.192667 0.447884
371 4 0.241596 0.204537 0.455732
370 2 0.247068 0.228933 0.455508
319 2 0.306447 0.188737 0.489925
640 2 0.323259 0.244832 0.474182
321 4 0.30546 0.213383 0.494023
642 4 0.321297 0.225863 0.490353
487 2 0.371955 0.219338 0.434859
489 4 0.384596 0.214117 0.455791
267 4 0.403522 0.21514 0.461322
453 4 0.468909 0.220533 0.446661
451 2 0.492091 0.229858 0.447582
266 4 0.451389 0.211927 0.44721
265 2 0.427456 0.213534 0.454266
2845 2 0.0614727 0.285213 0.428408
2846 4 0.0625806 0.29386 0.451843
260 4 0.0793459 0.305556 0.451801
634 2 0.1529 0.319187 0.427729
259 2 0.0944533 0.30765 0.471615
636 4 0.138005 0.30908 0.445084
261 4 0.109561 0.309745 0.491428
873 4 0.234659 0.340715 0.418403
871 2 0.247008 0.323342 0.431473
1191 4 0.242646 0.261 0.470143
1189 2 0.246366 0.284041 0.479112
635 4 0.167794 0.329294 0.410375
372 4 0.252541 0.253329 0.455284
872 4 0.259357 0.305968 0.444544
813 4 0.274972 0.301074 0.43343
811 2 0.292646 0.284225 0.438808
812 4 0.31032 0.267376 0.444186
641 4 0.325221 0.263802 0.458011
1394 4 0.263904 0.317192 0.49633
1190 4 0.250085 0.307083 0.488081
382 2 0.0157078 0.362587 0.463536
384 4 0.027976 0.383059 0.456082
935 4 0.0207291 0.394123 0.440197
934 2 0.0282848 0.41737 0.445456
603 4 0.177499 0.387405 0.434298
773 4 0.191309 0.378562 0.469032
710 4 0.196541 0.396816 0.472815
772 2 0.201702 0.367661 0.48899
1393 2 0.247495 0.335226 0.501872
1395 4 0.231086 0.35326 0.507413
120 3 0.405823 0.360043 0.430768
238 2 0.446431 0.410641 0.484003
583 2 0.417924 0.412455 0.433575
239 4 0.433716 0.389313 0.486933
568 2 0.0797721 0.497715 0.437702
936 4 0.0358405 0.440617 0.450715
1039 2 0.0562893 0.448215 0.480936
1040 4 0.054682 0.445429 0.45614
2138 4 0.0953384 0.467534 0.417893
569 4 0.0967506 0.479852 0.433478
326 4 0.215349 0.455019 0.483697
325 2 0.236499 0.456956 0.496892
709 2 0.197967 0.421772 0.473397
711 4 0.199392 0.446728 0.473978
594 4 0.281567 0.493262 0.444918
2107 2 0.301751 0.476823 0.421594
2108 4 0.293361 0.477185 0.445144
445 2 0.40401 0.488927 0.421149
584 4 0.419549 0.428799 0.452427
1483 2 0.448075 0.494983 0.462457
446 4 0.421834 0.47675 0.433768
1484 4 0.438268 0.479231 0.445698
240 4 0.459147 0.43197 0.481072
984 4 0.0192574 0.0802342 0.524064
719 4 0.0147209 0.0228211 0.592142
1182 4 0.246928 0.0177863 0.50174
2240 4 0.316544 0.0124659 0.524297
2239 2 0.327689 0.0122282 0.546678
2241 4 0.338834 0.0119904 0.569059
1004 4 0.326556 0.00795327 0.583449
576 4 0.372148 0.0530991 0.567638
574 2 0.381144 0.0687908 0.550375
88 3 0.469934 0.0347917 0.571411
89 3 0.443644 0.04117 0.544718
842 4 0.448199 0.0431685 0.524625
1061 4 0.466478 0.0348478 0.522761
1060 2 0.481994 0.0361888 0.5032
86 1 0.459412 0.0261053 0.552643
87 3 0.47517 0.0225308 0.53627
841 2 0.429837 0.050366 0.509256
90 3 0.449359 0.00633779 0.557822
982 2 0.0328483 0.0943434 0.508527
575 4 0.390141 0.0844825 0.533112
3436 2 0.486046 0.122308 0.572263
6 1 0.162196 0.240615 0.536497
368 4 0.154759 0.244988 0.506535
7 3 0.158939 0.221276 0.54852
9 3 0.169342 0.235052 0.515134
346 2 0.214851 0.250505 0.540856
347 4 0.237249 0.242064 0.548084
900 4 0.319684 0.224605 0.530765
899 4 0.343821 0.195961 0.563896
898 2 0.331753 0.210283 0.54733
269 4 0.429323 0.224424 0.516208
268 2 0.448614 0.238525 0.523571
3460 2 0.080601 0.268615 0.559404
3043 2 0.0265909 0.280118 0.533352
3044 4 0.0506414 0.28694 0.532879
3461 4 0.063217 0.278334 0.544287
3045 4 0.0025405 0.273297 0.533826
879 4 0.99477 0.285072 0.518982
3462 4 0.097985 0.258897 0.574521
10 3 0.142587 0.252143 0.535376
696 4 0.139192 0.253995 0.515549
694 2 0.126091 0.274465 0.509676
695 4 0.11299 0.294936 0.503803
348 4 0.192452 0.258947 0.533629
8 3 0.178325 0.253447 0.547155
410 4 0.237024 0.301105 0.578449
409 2 0.252763 0.281778 0.580429
411 4 0.268502 0.262451 0.582409
270 4 0.467905 0.252625 0.530934
3309 4 0.486292 0.249771 0.525368
774 4 0.212095 0.356759 0.508948
1041 4 0.0578965 0.451 0.505732
1136 4 0.0572508 0.462119 0.522139
1135 2 0.0725137 0.464775 0.541765
1137 4 0.0877767 0.467431 0.56139
540 4 0.106728 0.464855 0.554489
538 2 0.128566 0.46671 0.542455
539 4 0.150405 0.468565 0.530421
2243 4 0.160733 0.485782 0.528056
2242 2 0.163207 0.494239 0.504657
1173 4 0.2503 0.449505 0.525758
327 4 0.257649 0.458893 0.510087
1171 2 0.269523 0.44974 0.541746
1172 4 0.288746 0.449974 0.557733
882 4 0.309928 0.509514 0.546516
1028 4 0.279807 0.439425 0.574105
1027 2 0.293015 0.420085 0.58286
3130 2 0.0114345 0.999167 0.62215
3132 4 0.0126811 0.0216702 0.611323
945 4 0.205252 0.0814279 0.654645
2255 4 0.207096 0.0641275 0.664503
1142 4 0.378095 0.0477495 0.585255
1005 4 0.339433 0.00601948 0.631731
1003 2 0.332994 0.00698637 0.60759
966 4 0.341717 0.0245015 0.642985
1141 2 0.381187 0.057169 0.608209
886 2 0.386127 0.0798835 0.674035
1143 4 0.384279 0.0665884 0.631163
3180 4 0.99878 0.0883089 0.619938
917 4 0.162206 0.123651 0.636547
916 2 0.159255 0.145589 0.62492
918 4 0.156304 0.167527 0.613293
944 4 0.162433 0.1063 0.647669
943 2 0.183842 0.0938637 0.651157
1130 4 0.229418 0.107277 0.612171
1155 4 0.244415 0.159373 0.650494
1282 2 0.206487 0.153144 0.667239
1129 2 0.252998 0.0998575 0.615927
1131 4 0.276579 0.0924383 0.619682
2318 4 0.282616 0.0996315 0.637248
2317 2 0.286253 0.106839 0.660912
887 4 0.384868 0.0705527 0.650871
3438 4 0.464472 0.129595 0.582589
904 2 0.460051 0.161525 0.64346
1212 4 0.154443 0.185699 0.605298
1283 4 0.226425 0.164888 0.657765
1210 2 0.172849 0.197302 0.617618
1211 4 0.191255 0.208904 0.629937
1259 4 0.20138 0.221818 0.640378
1153 2 0.243929 0.173102 0.629603
1154 4 0.243442 0.186832 0.608711
1258 2 0.19822 0.238673 0.658574
1086 4 0.275443 0.227533 0.641618
1084 2 0.274079 0.239782 0.619863
978 4 0.26491 0.216991 0.656663
905 4 0.454111 0.16779 0.619994
897 4 0.172949 0.27362 0.654642
1085 4 0.272714 0.25203 0.598107
806 4 0.402199 0.318545 0.621991
805 2 0.41083 0.300106 0.636506
791 4 0.420119 0.2744 0.669763
803 4 0.397487 0.328612 0.637185
807 4 0.419461 0.281667 0.65102
1279 2 0.071436 0.381994 0.659854
1280 4 0.0961523 0.385343 0.658102
1239 4 0.323156 0.409553 0.597399
1029 4 0.306224 0.400744 0.591615
1237 2 0.336588 0.391003 0.607431
1238 4 0.350021 0.372453 0.617463
802 2 0.381044 0.343194 0.625262
804 4 0.3646 0.357776 0.613339
1008 4 0.447813 0.414624 0.663569
3464 4 0.432588 0.403156 0.670735
889 2 0.294264 0.439337 0.638313
891 4 0.30289 0.452319 0.618763
890 4 0.285638 0.426354 0.657864
3370 2 0.409202 0.48821 0.630658
1007 4 0.440839 0.456158 0.636607
3372 4 0.425424 0.469609 0.634662
1006 2 0.444326 0.435391 0.650088
3589 2 0.186094 0.0047989 0.712876
3591 4 0.181621 0.0132161 0.735991
2990 4 0.175014 0.0119065 0.754323
2315 4 0.236391 0.00895941 0.710303
2254 2 0.201277 0.0550921 0.687079
2256 4 0.195458 0.0460567 0.709655
960 4 0.239409 0.00930686 0.728911
958 2 0.256758 0.0234894 0.740002
1257 4 0.327463 0.0301734 0.709092
1255 2 0.308646 0.0359885 0.724496
1256 4 0.289829 0.0418036 0.7399
965 4 0.337135 0.0241884 0.692781
959 4 0.274108 0.037672 0.751094
1025 4 0.351915 0.00485794 0.748805
964 2 0.339426 0.024345 0.667883
954 4 0.387833 0.059134 0.748488
952 2 0.380467 0.0747047 0.730364
1026 4 0.384963 0.0414905 0.756968
953 4 0.373102 0.0902755 0.71224
1024 2 0.368439 0.0231742 0.752887
888 4 0.387386 0.0892142 0.697198
1216 2 0.485169 0.995466 0.738069
1178 4 0.0564154 0.128204 0.717237
852 4 0.0668676 0.12966 0.700394
1177 2 0.0362868 0.138827 0.72759
1179 4 0.0161581 0.149449 0.737942
923 4 0.0117831 0.16948 0.733696
850 2 0.0887435 0.126579 0.688683
947 4 0.118867 0.131795 0.693508
946 2 0.142865 0.136372 0.688189
851 4 0.110619 0.123498 0.676973
948 4 0.166864 0.14095 0.682871
1284 4 0.186549 0.141401 0.676712
2319 4 0.28989 0.114046 0.684577
950 4 0.282389 0.128098 0.696847
949 2 0.285952 0.152787 0.698562
1011 4 0.463586 0.149282 0.687103
906 4 0.465991 0.155259 0.666926
1009 2 0.477541 0.142808 0.706815
1193 4 0.486311 0.132228 0.745125
1010 4 0.491495 0.136334 0.726526
1299 4 0.213775 0.202132 0.723892
1297 2 0.205212 0.212976 0.74473
976 2 0.278835 0.206782 0.674747
951 4 0.289516 0.177476 0.700277
977 4 0.29276 0.196572 0.692831
3419 4 0.00308719 0.332293 0.666617
151 1 0.0428181 0.300234 0.710641
154 3 0.0468717 0.321639 0.718628
155 3 0.0236196 0.300017 0.698393
153 3 0.0410689 0.285364 0.728367
780 4 0.0237681 0.277619 0.733441
152 3 0.0604078 0.293831 0.697271
1067 4 0.0569358 0.33857 0.72045
778 2 0.0250186 0.253021 0.737754
992 4 0.160058 0.330313 0.678504
1260 4 0.195061 0.255528 0.67677
895 2 0.172801 0.294331 0.668649
896 4 0.172653 0.315042 0.682657
1209 4 0.204183 0.304205 0.738883
1044 4 0.280351 0.304176 0.716953
798 4 0.282862 0.305086 0.696459
796 2 0.280109 0.329023 0.689781
1042 2 0.29038 0.288415 0.733572
790 2 0.433061 0.28045 0.690283
792 4 0.446003 0.2865 0.710803
3418 2 0.0233665 0.34661 0.669606
3420 4 0.0436458 0.360928 0.672596
1281 4 0.0467196 0.378646 0.661606
1066 2 0.0789103 0.342999 0.709373
1068 4 0.100885 0.347428 0.698297
991 2 0.138339 0.341684 0.683418
993 4 0.11662 0.353055 0.688333
1278 4 0.254193 0.395959 0.725109
1097 4 0.23754 0.4091 0.724604
1276 2 0.268506 0.38032 0.711852
1277 4 0.28282 0.364681 0.698596
797 4 0.277356 0.352961 0.683102
1139 4 0.305262 0.408127 0.734356
3463 2 0.448521 0.38884 0.683633
999 4 0.476586 0.361305 0.706039
3465 4 0.464454 0.374524 0.696531
997 2 0.47706 0.351664 0.729104
2129 4 0.153523 0.482198 0.716967
942 4 0.168054 0.474147 0.705357
941 4 0.214842 0.457237 0.710432
1098 4 0.234297 0.458527 0.717736
1096 2 0.235919 0.433813 0.72117
940 2 0.191448 0.465692 0.707894
1206 4 0.29928 0.42588 0.724903
1205 4 0.28555 0.434551 0.677606
1204 2 0.292415 0.430216 0.701255
83 3 0.283961 0.451006 0.753453
187 3 0.395338 0.480696 0.729572
2213 4 0.361993 0.472898 0.75211
189 3 0.413268 0.460222 0.755494
1295 4 0.0152095 0.0779102 0.791525
1213 2 0.0662517 0.0712026 0.814175
833 4 0.00578807 0.0609291 0.786834
1215 4 0.079737 0.0524511 0.823751
1214 4 0.0527664 0.0899541 0.804598
2991 4 0.139571 0.0442079 0.768505
864 4 0.130701 0.0601209 0.776402
862 2 0.112768 0.0591185 0.793797
863 4 0.0948353 0.058116 0.811192
2989 2 0.157293 0.0280572 0.761414
1218 4 0.482442 0.00178313 0.762107
1294 2 0.010425 0.0992943 0.803567
1296 4 0.00564047 0.120678 0.815609
908 4 0.14469 0.125998 0.759765
907 2 0.127833 0.130003 0.777792
909 4 0.110976 0.134008 0.795819
1023 4 0.251664 0.156555 0.797644
32 3 0.182644 0.167588 0.827747
1091 4 0.316646 0.145934 0.813435
1090 2 0.33048 0.160813 0.79886
1021 2 0.262711 0.166059 0.817963
1192 2 0.47783 0.142561 0.766254
3424 2 0.474708 0.141409 0.822877
1194 4 0.469348 0.152894 0.787384
3425 4 0.46008 0.151526 0.805303
45 3 0.501399 0.121901 0.829099
779 4 0.0262691 0.228424 0.742067
922 2 0.0121062 0.192985 0.742216
924 4 0.0124293 0.21649 0.750737
1298 4 0.196649 0.223821 0.765569
838 2 0.211272 0.223695 0.806836
840 4 0.198078 0.225043 0.78564
1022 4 0.273757 0.175562 0.838281
3329 4 0.309194 0.220112 0.755701
3328 2 0.310404 0.24458 0.760704
1092 4 0.344314 0.175691 0.784286
1207 2 0.213981 0.308395 0.761502
1063 2 0.23417 0.320948 0.817544
1064 4 0.217178 0.308555 0.804021
1208 4 0.223778 0.312585 0.784121
1043 4 0.300408 0.272653 0.750191
3330 4 0.311615 0.269048 0.765706
3348 4 0.306913 0.290004 0.802967
3346 2 0.326773 0.28758 0.817963
1051 2 0.372148 0.265854 0.799615
1052 4 0.351405 0.25429 0.807439
1053 4 0.39289 0.277418 0.791792
867 4 0.40994 0.268604 0.78867
1166 4 0.463732 0.299454 0.79683
866 4 0.457438 0.284032 0.786093
1165 2 0.470868 0.320309 0.785027
865 2 0.433689 0.276318 0.787381
884 4 0.0434568 0.367882 0.752702
883 2 0.0220281 0.359465 0.762457
815 4 0.0548627 0.382715 0.760641
814 2 0.0728994 0.388328 0.777022
816 4 0.0909361 0.393941 0.793403