ITEM: TIMESTEP
4850000
ITEM: NUMBER OF ATOMS
4590
ITEM: BOX BOUNDS pp pp pp
-9.9985700000000008e+00 9.9985700000000008e+00
-9.9985700000000008e+00 9.9985700000000008e+00
-9.9985700000000008e+00 9.9985700000000008e+00
ITEM: ATOMS id type xs ys zs
657 4 0.023534 0.0270438 0.0119762
565 2 0.0962488 0.000195771 0.0306664
567 4 0.104907 0.0165033 0.0138056
1841 4 0.161417 0.0687644 0.0520133
1840 2 0.154033 0.0476996 0.0407467
1842 4 0.146649 0.0266348 0.0294801
486 4 0.159461 0.0120568 0.0332635
2252 4 0.103821 0.0363082 0.0171662
484 2 0.177396 0.99891 0.0218333
357 4 0.251968 0.046379 0.0639321
355 2 0.259382 0.0596606 0.0837767
1476 4 0.301374 0.00632869 0.0815775
1474 2 0.280642 0.00672943 0.0955493
2181 4 0.360902 0.0420315 0.0413464
2179 2 0.350253 0.0239497 0.0549422
492 4 0.399451 0.0556717 0.0068344
2180 4 0.339605 0.00586798 0.068538
2976 4 0.480675 0.0678698 0.0242561
2441 4 0.464074 0.0674443 0.0117029
2440 2 0.440924 0.0608442 0.00494247
146 1 0.496178 0.0540973 0.00123635
2469 4 0.429101 0.0178585 0.0562893
2467 2 0.447481 0.0302148 0.0678949
2468 4 0.46586 0.0425711 0.0795006
2974 2 0.479402 0.0789864 0.0466163
986 4 0.425373 0.0213721 0.0373241
771 4 0.481915 0.0441722 0.0681178
147 3 0.501892 0.0656219 0.0203069
985 2 0.428579 0.00570069 0.0181067
2442 4 0.417774 0.0542441 0.998182
148 3 0.473116 0.0516216 0.000594498
836 4 0.00467572 0.126123 0.0783046
835 2 0.0282955 0.119867 0.0729991
837 4 0.0519152 0.113611 0.0676936
701 4 0.155125 0.0874164 0.0554985
700 2 0.140172 0.104542 0.0450909
702 4 0.125219 0.121667 0.0346834
554 4 0.119187 0.118422 0.0159781
722 4 0.267836 0.106387 0.07183
23 3 0.475601 0.114047 0.0395394
21 1 0.483909 0.13529 0.0352871
22 3 0.475125 0.149933 0.050701
2975 4 0.478129 0.090103 0.0689766
24 3 0.477644 0.142136 0.0140199
25 3 0.506613 0.135255 0.0370652
2894 4 0.481619 0.147395 0.0694838
2893 2 0.465765 0.160102 0.0840566
2760 4 0.0257454 0.162006 0.0155676
3261 4 0.014984 0.173113 0.0297631
3259 2 0.00243504 0.194412 0.0335163
463 2 0.109596 0.204966 0.0227421
464 4 0.126126 0.223437 0.0194631
456 4 0.12664 0.243796 0.0178821
465 4 0.0930666 0.186494 0.0260211
913 2 0.192669 0.201869 0.0800925
293 4 0.210287 0.239088 0.0700547
914 4 0.20944 0.219709 0.0750279
915 4 0.175898 0.184029 0.0851572
902 4 0.317886 0.224255 0.0463076
296 4 0.302457 0.222535 0.0328861
295 2 0.304292 0.211658 0.0104473
901 2 0.311044 0.240777 0.0637826
358 2 0.415186 0.180703 0.00378452
282 4 0.41104 0.211 0.0322323
280 2 0.394487 0.227607 0.0409152
359 4 0.419774 0.200731 0.0180329
281 4 0.377934 0.244213 0.0495981
2807 4 0.0691157 0.328427 0.015021
454 2 0.124568 0.264144 0.0322644
455 4 0.122497 0.284492 0.0466466
287 4 0.113579 0.281317 0.0637959
495 4 0.14129 0.320773 0.0111282
967 2 0.101798 0.325502 0.0193813
969 4 0.122477 0.315058 0.00997637
1619 4 0.094105 0.247942 0.990483
493 2 0.164542 0.312976 0.00625824
494 4 0.187794 0.305178 0.00138829
903 4 0.304201 0.257299 0.0812577
2007 4 0.377647 0.323798 0.0206317
307 2 0.48463 0.306298 0.0778543
309 4 0.492801 0.304514 0.0542908
524 4 0.0656322 0.370817 0.081594
2806 2 0.0521344 0.346551 0.0121334
1055 4 0.0229855 0.380567 0.00525043
523 2 0.0892988 0.378058 0.0780384
968 4 0.0811181 0.335946 0.0287862
416 4 0.132503 0.383743 0.077762
2512 2 0.172433 0.38897 0.0252586
2514 4 0.189917 0.396801 0.0413267
2005 2 0.383051 0.347989 0.0173477
526 2 0.413271 0.386616 0.0785466
2006 4 0.388455 0.37218 0.0140638
527 4 0.435195 0.397877 0.0743384
3338 4 0.0552625 0.484441 0.0541892
3337 2 0.0473989 0.491744 0.0316059
3339 4 0.0395352 0.499047 0.00902253
11 1 0.364652 0.465426 0.0221086
12 3 0.376196 0.450678 0.0354653
596 4 0.391004 0.463019 0.0405386
15 3 0.375014 0.485699 0.022619
595 2 0.409098 0.461828 0.0577539
14 3 0.342968 0.467413 0.0301252
13 3 0.364353 0.457232 0.000401979
564 4 0.389807 0.495801 0.0319734
670 2 0.46334 0.423376 0.0642792
597 4 0.427192 0.460637 0.0749692
671 4 0.481891 0.432618 0.0502917
323 4 0.498523 0.420735 0.0483985
2804 4 0.500371 0.455956 0.0101002
381 4 0.0176889 0.0508379 0.129568
379 2 0.0121648 0.0513885 0.153947
1662 4 0.198112 0.0160616 0.127316
1660 2 0.221988 0.0182688 0.120227
1475 4 0.25991 0.00713018 0.109521
757 2 0.255423 0.0735727 0.137082
758 4 0.263734 0.0592444 0.118352
356 4 0.266796 0.0729422 0.103621
1748 4 0.372162 0.0150226 0.127521
742 2 0.388457 0.0422102 0.140723
743 4 0.386311 0.0173084 0.141412
744 4 0.390602 0.0671121 0.140034
1747 2 0.358326 0.00889747 0.107615
1506 4 0.378859 0.0823168 0.135844
1749 4 0.34449 0.00277232 0.0877094
237 4 0.145762 0.10377 0.162588
235 2 0.160234 0.122949 0.169509
450 4 0.190504 0.141211 0.130143
448 2 0.178511 0.157193 0.115113
606 4 0.197098 0.121872 0.127366
604 2 0.217311 0.114077 0.139851
605 4 0.237524 0.106282 0.152335
759 4 0.247112 0.087901 0.155812
721 2 0.274317 0.112601 0.095166
723 4 0.280798 0.118814 0.118502
693 4 0.286859 0.132812 0.13091
691 2 0.306634 0.123672 0.143182
692 4 0.326408 0.114531 0.155454
1505 4 0.3465 0.116928 0.151832
1504 2 0.36268 0.0996226 0.143838
254 4 0.473034 0.102715 0.0830053
255 4 0.430445 0.0901555 0.106009
253 2 0.45174 0.0964353 0.094507
705 4 0.0105813 0.17571 0.105229
703 2 0.0245488 0.195379 0.111802
704 4 0.0385164 0.215048 0.118376
462 4 0.0434694 0.23484 0.116394
449 4 0.166518 0.173175 0.100082
292 2 0.213036 0.250123 0.0923224
580 2 0.220281 0.231282 0.144856
581 4 0.220731 0.208918 0.156029
376 2 0.416195 0.220444 0.137671
378 4 0.408926 0.244201 0.134854
377 4 0.423465 0.196687 0.140489
629 4 0.428514 0.183677 0.1545
2895 4 0.449912 0.17281 0.0986294
460 2 0.0562627 0.253607 0.126849
3405 4 0.991537 0.297895 0.109225
461 4 0.0690559 0.272374 0.137304
623 4 0.0738215 0.282563 0.153592
477 4 0.078437 0.307652 0.104377
475 2 0.0745304 0.32249 0.124119
286 2 0.105235 0.290429 0.0855333
288 4 0.0968915 0.299542 0.107271
582 4 0.219831 0.253646 0.133684
294 4 0.215786 0.261158 0.11459
103 3 0.226206 0.278541 0.110459
101 1 0.237735 0.280965 0.130449
105 3 0.230418 0.265574 0.145556
102 3 0.233932 0.302094 0.138712
278 4 0.222739 0.318296 0.138213
104 3 0.260501 0.27831 0.126836
2876 4 0.394947 0.253175 0.123666
519 4 0.383668 0.306113 0.0874754
2877 4 0.395615 0.290042 0.0898856
2875 2 0.395281 0.271609 0.106776
308 4 0.47646 0.308082 0.101418
496 2 0.465987 0.319141 0.14319
497 4 0.45805 0.323621 0.166473
498 4 0.473925 0.314661 0.119907
2772 4 0.0662989 0.407417 0.150649
476 4 0.0706238 0.337328 0.143861
755 4 0.0767775 0.342495 0.161015
525 4 0.112965 0.385299 0.0744828
415 2 0.154289 0.388248 0.0891737
363 4 0.182123 0.392326 0.119035
361 2 0.173736 0.387731 0.142137
417 4 0.176076 0.392754 0.100585
277 2 0.219437 0.342369 0.132318
362 4 0.16535 0.383136 0.16524
279 4 0.216135 0.366442 0.126423
1121 4 0.228802 0.379991 0.120931
1120 2 0.252694 0.387087 0.118943
1122 4 0.276587 0.394183 0.116955
1071 4 0.281695 0.40407 0.133478
1069 2 0.305599 0.399281 0.139034
1070 4 0.329503 0.394492 0.144589
517 2 0.386861 0.330899 0.0866727
518 4 0.390055 0.355685 0.08587
609 4 0.346338 0.394202 0.134001
528 4 0.391347 0.375355 0.0827548
672 4 0.444789 0.414135 0.0782666
2770 2 0.0439815 0.417493 0.14559
2094 4 0.080869 0.419426 0.149627
2771 4 0.0216641 0.427568 0.14053
314 4 0.0151774 0.435692 0.158808
2092 2 0.103433 0.425063 0.158808
2093 4 0.125996 0.4307 0.167989
766 2 0.135107 0.475387 0.101473
768 4 0.115108 0.489651 0.10614
767 4 0.155106 0.461124 0.0968053
728 4 0.126886 0.450808 0.165316
638 4 0.174095 0.458105 0.103844
637 2 0.195627 0.461552 0.11608
639 4 0.217158 0.464998 0.128315
1863 4 0.223948 0.463213 0.147501
1861 2 0.221201 0.484639 0.160094
607 2 0.363648 0.412177 0.132437
608 4 0.380957 0.430153 0.130874
740 4 0.391077 0.438004 0.146645
739 2 0.402823 0.449286 0.165617
233 4 0.0100324 0.0436231 0.196105
232 2 0.0156796 0.0486489 0.219939
234 4 0.0213269 0.0536747 0.243772
380 4 0.00664069 0.051939 0.178327
2675 4 0.00947161 0.0621558 0.256854
2850 4 0.100361 0.0801758 0.212738
2848 2 0.111936 0.0818442 0.234838
249 4 0.24375 0.00959419 0.19247
403 2 0.26082 0.0581521 0.256108
404 4 0.27993 0.0728398 0.249457
1566 4 0.256029 0.9993 0.179111
579 4 0.159563 0.154856 0.176194
236 4 0.174707 0.142128 0.176429
28 3 0.248273 0.122128 0.161076
27 3 0.24874 0.116117 0.198174
516 4 0.266994 0.0858541 0.240276
26 1 0.257841 0.109577 0.178086
30 3 0.253572 0.0874548 0.174764
29 3 0.280749 0.113216 0.17869
514 2 0.276157 0.10907 0.24177
2910 4 0.290694 0.152127 0.243262
332 4 0.416545 0.173271 0.21446
630 4 0.43076 0.167143 0.201641
2572 2 0.473798 0.127853 0.199535
2574 4 0.463022 0.138395 0.179588
2573 4 0.484575 0.11731 0.219482
699 4 0.477243 0.129796 0.234738
331 2 0.422694 0.163603 0.236683
1220 4 0.0438895 0.212449 0.178914
1219 2 0.0545326 0.234351 0.18459
1221 4 0.0651757 0.256253 0.190267
459 4 0.0634561 0.255212 0.209161
457 2 0.0819238 0.258012 0.225783
578 4 0.149401 0.203815 0.175546
507 4 0.139063 0.207887 0.191363
577 2 0.154482 0.179335 0.17587
505 2 0.126151 0.229293 0.19087
732 4 0.239407 0.197791 0.157557
251 4 0.246058 0.217527 0.194231
250 2 0.238731 0.24133 0.196445
730 2 0.24154 0.186553 0.179791
350 4 0.254527 0.205564 0.207656
731 4 0.243672 0.175316 0.202024
349 2 0.276741 0.205841 0.219129
351 4 0.298956 0.206119 0.230602
764 4 0.313158 0.221446 0.229987
763 2 0.318088 0.230092 0.252924
628 2 0.429637 0.17541 0.178071
394 2 0.0199222 0.325571 0.208112
622 2 0.0921995 0.275848 0.169159
458 4 0.100392 0.260812 0.242405
624 4 0.110578 0.269132 0.184726
506 4 0.113239 0.250699 0.190377
252 4 0.231404 0.265133 0.198658
285 4 0.2207 0.263458 0.215052
283 2 0.214532 0.262604 0.239268
385 2 0.389941 0.321614 0.230466
611 4 0.363198 0.312338 0.243466
387 4 0.381388 0.313904 0.25266
275 4 0.441234 0.331088 0.173843
396 4 0.0394494 0.340069 0.20231
754 2 0.0603995 0.350904 0.177934
756 4 0.0440216 0.359312 0.194853
262 2 0.0947518 0.378282 0.226382
263 4 0.0922013 0.354911 0.234895
290 4 0.165292 0.381921 0.234979
735 4 0.161766 0.383167 0.255211
264 4 0.0973023 0.401653 0.217868
289 2 0.165088 0.38141 0.209981
291 4 0.164884 0.380899 0.184984
276 4 0.409691 0.345774 0.209761
386 4 0.398494 0.329325 0.208272
713 4 0.411822 0.404631 0.242237
2538 4 0.495354 0.39111 0.180088
274 2 0.425462 0.338431 0.191802
2651 4 0.492184 0.37096 0.177954
2536 2 0.471836 0.398253 0.184682
712 2 0.425164 0.410445 0.221905
313 2 0.0160447 0.458026 0.170015
315 4 0.016912 0.48036 0.181223
1382 4 0.0928398 0.415483 0.232519
727 2 0.133273 0.466879 0.183375
729 4 0.13966 0.48295 0.201434
339 4 0.137759 0.490812 0.219591
337 2 0.151088 0.494979 0.240331
1381 2 0.105404 0.42997 0.248563
741 4 0.414569 0.460567 0.184589
303 4 0.409674 0.463595 0.204136
2537 4 0.448319 0.405395 0.189277
301 2 0.428285 0.477819 0.212882
714 4 0.438505 0.416259 0.201573
1868 4 0.138741 0.00104868 0.322284
429 4 0.153045 0.011893 0.313015
393 4 0.223725 0.0351519 0.261583
405 4 0.241709 0.0434644 0.262759
427 2 0.162781 0.0339131 0.306268
428 4 0.172516 0.0559332 0.299522
392 4 0.184162 0.0563173 0.283664
391 2 0.203944 0.0457346 0.272623
479 4 0.245121 0.0511485 0.300526
478 2 0.261101 0.0525575 0.319704
2642 4 0.294594 0.0456888 0.332508
521 4 0.484708 0.084051 0.278155
2674 2 0.00564321 0.0815159 0.272207
2676 4 0.00181482 0.100876 0.28756
513 4 0.0763096 0.126825 0.306533
511 2 0.0622939 0.139394 0.290078
512 4 0.0482783 0.151963 0.273623
2849 4 0.123511 0.0835127 0.256938
1272 4 0.121115 0.0878889 0.275986
1271 4 0.0944389 0.124262 0.297575
1270 2 0.107777 0.106076 0.28678
545 4 0.229845 0.171425 0.269317
530 4 0.234553 0.117372 0.312594
529 2 0.236018 0.136372 0.296406
531 4 0.237483 0.155372 0.280218
470 4 0.221998 0.108392 0.324978
515 4 0.28532 0.132286 0.243263
2908 2 0.304147 0.156017 0.263977
2909 4 0.317599 0.159907 0.284691
2657 4 0.316045 0.156603 0.303518
2656 2 0.323659 0.156882 0.327332
651 4 0.26272 0.151504 0.340066
697 2 0.48269 0.116886 0.255446
698 4 0.488137 0.103976 0.276154
633 4 0.450473 0.143135 0.315741
631 2 0.440507 0.140615 0.292948
2879 4 0.462306 0.132482 0.32965
333 4 0.428843 0.153934 0.258907
632 4 0.430542 0.138095 0.270155
2692 2 0.0430627 0.221579 0.285663
2693 4 0.0394651 0.23692 0.305076
2694 4 0.0466603 0.206238 0.266249
300 4 0.0263521 0.239235 0.321211
298 2 0.00202468 0.243039 0.316865
750 4 0.101828 0.253502 0.26142
546 4 0.195782 0.204715 0.254077
544 2 0.212814 0.18807 0.261697
510 4 0.314512 0.239582 0.292979
765 4 0.323019 0.238738 0.275862
2591 4 0.45135 0.233131 0.335532
2590 2 0.47194 0.241804 0.324308
748 2 0.103228 0.272381 0.277755
749 4 0.104627 0.291259 0.29409
618 4 0.113604 0.306616 0.2848
616 2 0.125433 0.326441 0.294403
388 2 0.203342 0.285841 0.311602
284 4 0.208364 0.26175 0.263484
390 4 0.187905 0.286351 0.29194
365 4 0.236037 0.310717 0.289559
364 2 0.220207 0.326263 0.278032
344 4 0.250809 0.297687 0.284262
612 4 0.318384 0.303514 0.263826
345 4 0.298387 0.299455 0.268967
343 2 0.274598 0.298571 0.276614
610 2 0.340791 0.307926 0.253646
508 2 0.329134 0.246261 0.31213
509 4 0.343756 0.25294 0.33128
2592 4 0.492531 0.250478 0.313085
535 2 0.0365819 0.365656 0.323917
537 4 0.052315 0.359406 0.305516
412 2 0.0709101 0.368696 0.275275
414 4 0.0614362 0.375454 0.297406
413 4 0.0803841 0.361938 0.253145
617 4 0.137262 0.346267 0.304006
2654 4 0.120873 0.358202 0.305126
2653 2 0.114109 0.378815 0.317556
2655 4 0.107345 0.399429 0.329986
3671 4 0.113316 0.417381 0.321893
733 2 0.17378 0.363126 0.26411
734 4 0.185794 0.343086 0.27301
366 4 0.204377 0.34181 0.266505
245 4 0.209119 0.401974 0.31589
645 4 0.274088 0.362697 0.340803
643 2 0.282331 0.371595 0.318938
644 4 0.290574 0.380494 0.297074
1575 4 0.390545 0.359538 0.277884
1574 4 0.348004 0.365083 0.252189
1573 2 0.369274 0.362311 0.265037
2862 4 0.421924 0.392837 0.256737
2860 2 0.435622 0.401658 0.275703
2861 4 0.449321 0.41048 0.294668
1383 4 0.117969 0.444458 0.264607
3672 4 0.111563 0.448466 0.282761
3670 2 0.112439 0.432923 0.302327
244 2 0.226701 0.416536 0.305694
246 4 0.244284 0.431099 0.295497
677 4 0.174779 0.489262 0.275017
676 2 0.197478 0.497152 0.281921
626 4 0.256247 0.481785 0.253428
435 4 0.305804 0.416127 0.324593
1802 4 0.335343 0.417695 0.273411
625 2 0.250643 0.460298 0.26492
627 4 0.24504 0.43881 0.276412
751 2 0.321395 0.480321 0.318462
752 4 0.329736 0.457141 0.31418
1803 4 0.347474 0.454444 0.305082
1801 2 0.341409 0.43607 0.289246
542 4 0.384047 0.479067 0.311047
541 2 0.400949 0.46519 0.323169
3989 4 0.487924 0.465948 0.281827
3990 4 0.458359 0.427419 0.293748
3988 2 0.473141 0.446684 0.287788
3602 4 0.48169 0.484314 0.28639
3601 2 0.482659 0.5023 0.303732
165 3 0.037609 0.0781333 0.386936
2237 4 0.0661816 0.0719443 0.403202
2236 2 0.080728 0.0535416 0.394546
2238 4 0.0952744 0.035139 0.38589
480 4 0.277081 0.0539665 0.338883
2641 2 0.311636 0.0506576 0.350116
2643 4 0.328679 0.0556265 0.367724
599 4 0.393108 0.0461083 0.375488
598 2 0.37014 0.0528326 0.368249
600 4 0.347171 0.0595569 0.36101
1518 4 0.39853 0.0644373 0.383178
1516 2 0.410966 0.0857937 0.37938
2552 4 0.499291 0.06908 0.386907
2551 2 0.484155 0.0620972 0.405544
762 4 0.504239 0.0663838 0.367877
161 1 0.0356286 0.0818142 0.409323
162 3 0.0338349 0.104425 0.413154
708 4 0.129155 0.139076 0.370922
706 2 0.150934 0.128584 0.364536
707 4 0.172713 0.118093 0.358151
469 2 0.204687 0.106267 0.342895
471 4 0.187377 0.104141 0.360812
370 2 0.258676 0.15118 0.422282
371 4 0.262866 0.149331 0.397702
650 4 0.277057 0.15877 0.387419
649 2 0.269888 0.155137 0.363743
1032 4 0.318935 0.119285 0.4064
1030 2 0.319945 0.135227 0.387165
1031 4 0.320955 0.151168 0.367929
2658 4 0.331272 0.157162 0.351147
2878 2 0.448315 0.11831 0.34477
3173 4 0.490368 0.133397 0.350094
761 4 0.492511 0.112749 0.353266
1517 4 0.423403 0.10715 0.375582
2880 4 0.434325 0.104139 0.35989
2517 4 0.43422 0.139246 0.401324
760 2 0.498375 0.0895662 0.360572
2586 4 0.992852 0.258414 0.397784
342 4 0.145102 0.217917 0.413115
2637 4 0.00239656 0.26487 0.41451
389 4 0.218779 0.285331 0.331265
717 4 0.361264 0.255936 0.343214
715 2 0.36697 0.274638 0.358797
716 4 0.372676 0.293341 0.37438
488 4 0.377888 0.312131 0.377552
487 2 0.386477 0.329037 0.393849
536 4 0.0208489 0.371906 0.342317
2139 4 0.0829511 0.406431 0.409535
375 4 0.253536 0.371152 0.41399
615 4 0.324418 0.40212 0.37937
433 2 0.318574 0.405537 0.343299
434 4 0.331344 0.394946 0.362006
613 2 0.315388 0.41393 0.399474
583 2 0.412698 0.413847 0.390653
585 4 0.401721 0.401388 0.409346
2137 2 0.0831817 0.431406 0.408354
568 2 0.059303 0.48797 0.390356
2138 4 0.0834124 0.45638 0.407172
569 4 0.0671924 0.465233 0.397137
1557 4 0.130774 0.489084 0.37682
1451 4 0.128336 0.493862 0.356534
1555 2 0.139651 0.487028 0.400104
1556 4 0.148529 0.484972 0.423388
584 4 0.423674 0.426307 0.371959
2108 4 0.376408 0.44939 0.42461
543 4 0.417851 0.451314 0.335291
1485 4 0.428342 0.451173 0.352523
1484 4 0.448846 0.479656 0.388146
1483 2 0.438594 0.465415 0.370334
163 3 0.0544042 0.0738031 0.420355
164 3 0.0165948 0.0713008 0.417422
1035 4 0.00338604 0.0689002 0.483006
1033 2 0.0119671 0.0816027 0.463252
983 4 0.987659 0.0740444 0.493422
1059 4 0.212201 0.00864249 0.428339
1150 2 0.211251 0.0126407 0.469286
1152 4 0.204478 0.00462273 0.446592
2240 4 0.303758 0.999231 0.490549
2239 2 0.325386 0.00400341 0.478947
2241 4 0.347015 0.00877576 0.467344
683 4 0.356976 0.00429944 0.449919
682 2 0.373109 0.0233964 0.449448
684 4 0.389242 0.0424934 0.448978
1061 4 0.404084 0.055472 0.454842
420 4 0.466968 0.0695144 0.440055
2553 4 0.469019 0.0551144 0.424181
418 2 0.481134 0.0720515 0.460502
419 4 0.4953 0.0745886 0.480948
938 4 0.00876726 0.152911 0.442111
1034 4 0.0205482 0.0943053 0.443499
937 2 0.0144717 0.129746 0.434625
939 4 0.0201761 0.106582 0.427139
472 2 0.233423 0.134716 0.470036
474 4 0.225859 0.131873 0.493698
372 4 0.254487 0.153028 0.446863
473 4 0.240987 0.137559 0.446375
3159 4 0.318599 0.121368 0.42576
3157 2 0.316743 0.111751 0.448765
3158 4 0.314888 0.102134 0.471771
1060 2 0.406326 0.0795379 0.44844
2502 4 0.330982 0.104873 0.4834
2500 2 0.341319 0.123091 0.497053
900 4 0.34418 0.159275 0.511844
2516 4 0.428181 0.107378 0.439385
1062 4 0.408568 0.103604 0.442038
2515 2 0.431201 0.123312 0.420355
2613 4 0.00839561 0.17221 0.447063
2611 2 0.0203225 0.18853 0.461779
2847 4 0.0410265 0.220912 0.469259
2845 2 0.0444887 0.23961 0.485494
2612 4 0.0322494 0.204851 0.476495
340 2 0.122832 0.218685 0.401774
341 4 0.100562 0.219452 0.390433
825 4 0.143571 0.246367 0.482343
369 4 0.142352 0.231415 0.497038
402 4 0.160012 0.211056 0.401957
400 2 0.180098 0.214846 0.416357
401 4 0.200183 0.218637 0.430758
1191 4 0.204103 0.233917 0.444885
1189 2 0.219059 0.242764 0.462864
319 2 0.320956 0.254239 0.424683
321 4 0.341492 0.240314 0.427777
642 4 0.359429 0.235233 0.433249
640 2 0.356337 0.224995 0.45585
641 4 0.353245 0.214757 0.478451
898 2 0.349214 0.182391 0.503751
899 4 0.354249 0.205507 0.495658
312 4 0.483214 0.188723 0.434396
310 2 0.480029 0.212957 0.439666
311 4 0.476844 0.23719 0.444936
1640 4 0.00386037 0.312854 0.50111
260 4 0.0206303 0.316229 0.492187
259 2 0.027982 0.292388 0.490532
823 2 0.151586 0.258283 0.461874
443 4 0.102518 0.317952 0.420527
442 2 0.110055 0.315928 0.444282
444 4 0.117592 0.313904 0.468036
824 4 0.159602 0.270199 0.441406
696 4 0.124214 0.326752 0.483544
669 4 0.176817 0.280385 0.439112
667 2 0.18615 0.302393 0.431781
668 4 0.195483 0.3244 0.424449
1190 4 0.234014 0.25161 0.480844
1394 4 0.248691 0.260491 0.493699
635 4 0.17865 0.332943 0.430444
320 4 0.300421 0.268164 0.421588
872 4 0.288683 0.322705 0.482145
871 2 0.273408 0.316352 0.463397
812 4 0.305589 0.312687 0.48317
873 4 0.258133 0.31 0.444648
452 4 0.464336 0.252504 0.452734
265 2 0.42481 0.324608 0.434566
453 4 0.451011 0.299805 0.443472
266 4 0.441695 0.316533 0.451146
451 2 0.457673 0.276155 0.448103
694 2 0.146547 0.33633 0.489435
710 4 0.0877613 0.386626 0.407913
709 2 0.109622 0.384643 0.419886
711 4 0.131483 0.382661 0.431859
636 4 0.145268 0.36943 0.437862
2244 4 0.137914 0.395205 0.504461
327 4 0.158375 0.395349 0.499948
634 2 0.161959 0.351187 0.434153
2242 2 0.11815 0.410478 0.503316
373 2 0.243966 0.391993 0.423952
601 2 0.232962 0.403595 0.477279
325 2 0.166461 0.406829 0.479259
603 4 0.231637 0.394635 0.500585
2924 4 0.324879 0.411619 0.443433
489 4 0.395065 0.345943 0.410146
267 4 0.407925 0.332682 0.417986
119 3 0.397548 0.400036 0.429567
116 1 0.394943 0.37787 0.435913
2923 2 0.342618 0.396317 0.452174
117 3 0.374682 0.375511 0.446547
118 3 0.395221 0.364182 0.417179
2925 4 0.360356 0.381015 0.460914
120 3 0.411647 0.371857 0.450178
1444 2 0.15614 0.443126 0.438197
1445 4 0.154111 0.466758 0.430286
326 4 0.174546 0.418309 0.45857
602 4 0.234286 0.412555 0.453974
374 4 0.234397 0.412834 0.433915
1446 4 0.158169 0.419494 0.446108
1171 2 0.297088 0.428209 0.455031
1173 4 0.307852 0.415878 0.43613
614 4 0.306357 0.425741 0.419577
1172 4 0.286324 0.44054 0.473932
1698 4 0.349479 0.495063 0.435706
2107 2 0.368949 0.469351 0.43769
2109 4 0.36149 0.489312 0.45077
1953 4 0.432509 0.427038 0.445646
1951 2 0.446685 0.436932 0.463711
1952 4 0.460861 0.446826 0.481775
2314 2 0.221365 0.0271644 0.533693
2315 4 0.21666 0.0341381 0.557239
1182 4 0.212416 0.0539014 0.557419
2316 4 0.22607 0.0201907 0.510147
1180 2 0.209021 0.0786672 0.556867
1143 4 0.42014 0.0399768 0.536843
842 4 0.412345 0.0214047 0.533549
1141 2 0.420287 0.0570648 0.555096
1142 4 0.420433 0.0741529 0.573348
841 2 0.425242 0.00621119 0.518448
1163 4 0.437067 0.0244913 0.577326
576 4 0.440685 0.0743507 0.57939
1162 2 0.461115 0.0202426 0.582692
4467 4 0.425314 0.0101171 0.570315
944 4 0.117228 0.150939 0.573731
943 2 0.128704 0.130465 0.58235
9 3 0.132387 0.155227 0.525198
7 3 0.13239 0.159036 0.56259
945 4 0.140181 0.109992 0.590969
1181 4 0.205626 0.103433 0.556315
725 4 0.20044 0.115737 0.540883
724 2 0.209553 0.130754 0.523089
726 4 0.218666 0.145771 0.505295
2501 4 0.351657 0.14131 0.510706
574 2 0.461287 0.0880824 0.575902
575 4 0.481889 0.101814 0.572413
3307 2 0.475408 0.168325 0.583631
270 4 0.435939 0.176428 0.582744
3308 4 0.49765 0.161085 0.574797
917 4 0.104462 0.158799 0.587199
6 1 0.143108 0.165207 0.543194
368 4 0.128724 0.20016 0.533618
10 3 0.142354 0.187872 0.541092
367 2 0.135538 0.215788 0.515328
8 3 0.165166 0.158081 0.544219
3461 4 0.12969 0.244421 0.58881
409 2 0.23935 0.215096 0.558232
348 4 0.172784 0.171888 0.554812
346 2 0.193824 0.183226 0.562155
347 4 0.214865 0.194565 0.569497
411 4 0.233814 0.190988 0.561885
410 4 0.244886 0.239203 0.554579
3309 4 0.453165 0.175565 0.592464
2846 4 0.0479509 0.258309 0.501728
261 4 0.0353337 0.268547 0.488877
3045 4 0.147163 0.309337 0.574108
3043 2 0.13902 0.285879 0.577034
935 4 0.161462 0.32339 0.573531
934 2 0.183209 0.334539 0.568244
936 4 0.204956 0.345687 0.562957
1393 2 0.243237 0.256761 0.517814
1395 4 0.237783 0.253032 0.541929
811 2 0.309079 0.306727 0.5072
813 4 0.312569 0.300766 0.531231
1135 2 0.0177978 0.405032 0.545765
1137 4 0.0308391 0.42375 0.535532
1136 4 0.00475641 0.386314 0.555999
1041 4 0.0117491 0.386791 0.575708
540 4 0.0495305 0.421774 0.540151
2243 4 0.098387 0.425752 0.502171
695 4 0.16888 0.345907 0.495325
773 4 0.175199 0.363397 0.50545
772 2 0.197336 0.374299 0.509483
774 4 0.219474 0.3852 0.513516
238 2 0.467205 0.412303 0.551542
240 4 0.462458 0.406667 0.575435
239 4 0.471952 0.417939 0.527649
538 2 0.0726298 0.420664 0.530645
539 4 0.0957292 0.419555 0.521138
1983 4 0.111225 0.449408 0.579047
1205 4 0.312741 0.427101 0.557141
1029 4 0.306598 0.426604 0.538073
1027 2 0.299973 0.427916 0.513999
1028 4 0.293349 0.429228 0.489924
1283 4 0.160484 0.0789083 0.661761
1154 4 0.166394 0.084189 0.644254
1255 2 0.22441 0.0724086 0.651809
1256 4 0.236992 0.0772951 0.630762
959 4 0.22819 0.0736947 0.612131
1130 4 0.362839 0.0586323 0.621637
1004 4 0.371956 0.0430485 0.629251
1003 2 0.366456 0.0273893 0.647952
1129 2 0.352344 0.0794985 0.630561
3438 4 0.497682 0.0159462 0.603748
1164 4 0.485164 0.015994 0.588059
1153 2 0.151442 0.0915807 0.625626
1155 4 0.136491 0.0989723 0.606998
958 2 0.251189 0.0675621 0.604475
960 4 0.274188 0.0614295 0.596819
2319 4 0.299183 0.148846 0.62547
2317 2 0.317143 0.133926 0.634415
950 4 0.302168 0.16448 0.612709
1131 4 0.341849 0.100365 0.639485
2318 4 0.335103 0.119006 0.643361
269 4 0.400108 0.141933 0.587943
858 4 0.381783 0.141665 0.594422
856 2 0.372996 0.143668 0.617745
857 4 0.364209 0.145671 0.641068
268 2 0.418023 0.15918 0.585344
916 2 0.0954243 0.165045 0.60966
918 4 0.0863864 0.171291 0.632121
3460 2 0.111704 0.23658 0.604309
3462 4 0.0937185 0.228739 0.619808
1210 2 0.0884095 0.209826 0.653352
1211 4 0.0921493 0.188885 0.640211
1086 4 0.238572 0.248538 0.632344
949 2 0.296906 0.188802 0.615149
976 2 0.274519 0.245395 0.629173
977 4 0.294805 0.231849 0.623683
951 4 0.291644 0.213123 0.61759
3044 4 0.130877 0.26242 0.57996
1084 2 0.215601 0.246227 0.641944
1085 4 0.19263 0.243916 0.651544
897 4 0.177667 0.257392 0.646769
978 4 0.254232 0.258941 0.634663
806 4 0.425021 0.272974 0.641032
805 2 0.433634 0.260178 0.660711
1281 4 0.0300338 0.35844 0.637379
1279 2 0.0504882 0.356899 0.623082
1280 4 0.0709426 0.355358 0.608784
942 4 0.138483 0.382111 0.604818
940 2 0.154415 0.373088 0.621845
941 4 0.170348 0.364064 0.638871
2129 4 0.144873 0.399063 0.598632
1098 4 0.181236 0.380043 0.64425
1096 2 0.201705 0.370375 0.654869
1206 4 0.333522 0.405016 0.596904
1139 4 0.335102 0.396005 0.615542
890 4 0.371284 0.389075 0.573518
889 2 0.388667 0.37119 0.575299
891 4 0.406049 0.353306 0.577081
1140 4 0.353659 0.389006 0.661448
1017 4 0.370602 0.381591 0.6709
1239 4 0.42511 0.352638 0.582559
1138 2 0.34438 0.392506 0.638495
1237 2 0.437691 0.351122 0.604113
1238 4 0.450273 0.349606 0.625667
804 4 0.465568 0.360793 0.63255
802 2 0.472027 0.348939 0.653596
2130 4 0.129106 0.444768 0.585861
1981 2 0.113027 0.47345 0.585674
2128 2 0.13699 0.421916 0.592247
1713 4 0.211135 0.492931 0.60133
2434 2 0.23608 0.473705 0.592895
2435 4 0.212661 0.479239 0.586107
1204 2 0.323132 0.416058 0.577023
2436 4 0.2595 0.468171 0.599682
1455 4 0.270759 0.479778 0.588762
1453 2 0.291567 0.491788 0.595687
881 4 0.376906 0.489922 0.612562
880 2 0.352723 0.496153 0.613788
3372 4 0.391508 0.500518 0.621119
3367 2 0.504152 0.476404 0.657164
1282 2 0.144322 0.0786392 0.680837
1284 4 0.12816 0.0783701 0.699914
1257 4 0.211828 0.067522 0.672857
964 2 0.329128 0.99889 0.677849
966 4 0.354111 0.998277 0.678656
1005 4 0.360956 0.01173 0.666652
953 4 0.460254 0.0319536 0.678783
888 4 0.448149 0.0180891 0.687338
952 2 0.473851 0.0526593 0.682182
954 4 0.487449 0.0733649 0.685582
833 4 0.0611151 0.14006 0.68386
1178 4 0.0437034 0.144464 0.693667
1177 2 0.0341818 0.150758 0.715913
1179 4 0.0246602 0.157052 0.738159
832 2 0.085229 0.133468 0.683367
834 4 0.109343 0.126876 0.682874
948 4 0.117623 0.0838594 0.715574
851 4 0.155738 0.129737 0.730964
947 4 0.14039 0.121141 0.739914
946 2 0.129006 0.1025 0.727744
850 2 0.177381 0.139781 0.738441
852 4 0.199023 0.149826 0.745918
152 3 0.017179 0.241379 0.722668
924 4 0.0264988 0.230974 0.738721
1212 4 0.0846698 0.230766 0.666494
1258 2 0.101619 0.236676 0.704505
1259 4 0.0939334 0.226157 0.683164
1260 4 0.109305 0.247196 0.725846
1299 4 0.118388 0.230083 0.735022
2256 4 0.242513 0.160902 0.74531
2254 2 0.254855 0.173852 0.727841
2255 4 0.267197 0.186801 0.710372
792 4 0.452559 0.191471 0.698225
790 2 0.456619 0.215239 0.69161
791 4 0.460679 0.239008 0.684996
3402 4 0.499308 0.218321 0.675381
151 1 0.00426676 0.252336 0.7071
153 3 0.0171723 0.256559 0.688285
155 3 0.996832 0.271944 0.715983
992 4 0.149111 0.293776 0.696929
991 2 0.128762 0.303738 0.707505
993 4 0.108413 0.313699 0.718081
896 4 0.152421 0.280953 0.682939
895 2 0.165044 0.269173 0.664854
1068 4 0.0922827 0.326024 0.722765
1276 2 0.253471 0.33829 0.683796
1277 4 0.269818 0.320062 0.688867
798 4 0.291832 0.303931 0.73864
796 2 0.285651 0.302811 0.714439
797 4 0.27947 0.301692 0.690237
998 4 0.496878 0.332517 0.676403
807 4 0.442247 0.247382 0.680389
803 4 0.478485 0.337084 0.674642
3420 4 0.0349604 0.349364 0.656149
3418 2 0.0107172 0.349689 0.66226
883 2 0.0404616 0.395248 0.723629
884 4 0.0168033 0.402949 0.72115
815 4 0.00352381 0.397708 0.736023
885 4 0.0641199 0.387546 0.726107
1067 4 0.0772616 0.372835 0.731921
1066 2 0.0847722 0.349429 0.727343
1278 4 0.237124 0.356517 0.678725
1097 4 0.222174 0.360708 0.665488
1015 2 0.390647 0.374133 0.683853
1016 4 0.410691 0.366676 0.696805
1019 4 0.409835 0.352831 0.710436
1018 2 0.417106 0.36193 0.732561
85 3 0.31912 0.463638 0.727507
84 3 0.343589 0.455498 0.700072
81 1 0.341207 0.462405 0.722095
83 3 0.351246 0.483118 0.72503
3368 4 0.49806 0.475226 0.681385
1008 4 0.514418 0.420931 0.708135
907 2 0.18299 0.0109913 0.813747
817 2 0.42816 0.00968846 0.784281
818 4 0.449231 0.0216331 0.790486
845 4 0.462676 0.0376131 0.794638
844 2 0.459106 0.0510944 0.815391
846 4 0.455536 0.0645758 0.836144
33 3 0.149308 0.155623 0.810196
31 1 0.172123 0.156982 0.806193
32 3 0.178568 0.138807 0.793653
34 3 0.18372 0.156723 0.826289
1193 4 0.507268 0.166021 0.806688
1192 2 0.495247 0.150834 0.822501
922 2 0.0308654 0.208717 0.749244
862 2 0.0615999 0.188733 0.789278
863 4 0.0544566 0.186708 0.765402
923 4 0.035232 0.18646 0.759768
864 4 0.0687432 0.190759 0.813153
1297 2 0.134811 0.237819 0.752216
870 4 0.113203 0.201676 0.781198
868 2 0.126078 0.187703 0.797451
869 4 0.138954 0.17373 0.813703
1298 4 0.151235 0.245555 0.769409
35 3 0.176876 0.176074 0.794724
1023 4 0.193341 0.169205 0.784253
1021 2 0.216472 0.168253 0.774808
1022 4 0.239603 0.167301 0.765362
1090 2 0.249898 0.204331 0.823655
1092 4 0.24638 0.218436 0.803311
839 4 0.232863 0.233835 0.803527
3328 2 0.291895 0.249513 0.802367
3329 4 0.290966 0.230276 0.818312
906 4 0.505846 0.215018 0.743041
1011 4 0.507819 0.21184 0.763037
1009 2 0.501208 0.193463 0.77865
838 2 0.217093 0.251623 0.811277
840 4 0.201322 0.269411 0.819027
1208 4 0.191834 0.327852 0.790691
1209 4 0.195709 0.288742 0.821613
1207 2 0.193771 0.308297 0.806152
1044 4 0.303357 0.315239 0.74986
3330 4 0.292823 0.268749 0.786421