ITEM: TIMESTEP
4900000
ITEM: NUMBER OF ATOMS
4590
ITEM: BOX BOUNDS pp pp pp
-9.9985700000000008e+00 9.9985700000000008e+00
-9.9985700000000008e+00 9.9985700000000008e+00
-9.9985700000000008e+00 9.9985700000000008e+00
ITEM: ATOMS id type xs ys zs
567 4 0.114284 0.0129975 0.034293
1841 4 0.157283 0.0749814 0.0435126
2252 4 0.116797 0.0138628 0.0139668
1840 2 0.166881 0.0524195 0.0484133
1842 4 0.176479 0.0298575 0.0533139
486 4 0.182469 0.0183159 0.0379543
484 2 0.199163 0.00196315 0.0290613
357 4 0.261749 0.0623372 0.0634618
1476 4 0.276732 0.00464535 0.0287469
2181 4 0.333511 0.0521784 0.0425588
1474 2 0.260345 0.000914582 0.0472594
2179 2 0.339066 0.0314674 0.0554188
2180 4 0.344621 0.0107565 0.0682789
2976 4 0.469212 0.068344 0.0320681
2441 4 0.451122 0.0651327 0.0249715
2440 2 0.433131 0.07795 0.0132568
2469 4 0.443852 0.0168793 0.0480155
2467 2 0.458661 0.0165752 0.0681599
2974 2 0.468264 0.0803364 0.0539876
986 4 0.426564 0.0145186 0.0366881
147 3 0.48699 0.0584072 0.0269252
2466 4 0.490022 0.0135209 0.0333677
146 1 0.474329 0.0422993 0.0164665
150 3 0.472897 0.0239783 0.0299178
2468 4 0.473469 0.0162711 0.0883043
985 2 0.420899 0.995554 0.0214102
148 3 0.453135 0.0508508 0.0124549
837 4 0.0345417 0.10255 0.0728202
701 4 0.146417 0.0892316 0.0387173
700 2 0.134709 0.100708 0.0198388
702 4 0.123002 0.112185 0.000960254
554 4 0.114011 0.124179 0.988652
353 4 0.320368 0.136316 0.00317109
352 2 0.307184 0.157535 0.00211412
722 4 0.274022 0.161326 0.070424
2442 4 0.415141 0.0907673 0.00154206
23 3 0.454035 0.123695 0.0203517
21 1 0.474685 0.128898 0.0295658
22 3 0.471413 0.138427 0.0502453
2975 4 0.467317 0.0923288 0.075907
24 3 0.48582 0.14407 0.0159924
2894 4 0.479417 0.144711 0.0660687
2893 2 0.486778 0.162363 0.0821741
3261 4 0.00180398 0.189295 0.0136482
463 2 0.124209 0.18992 0.0249548
464 4 0.112156 0.211702 0.0272905
465 4 0.136261 0.168138 0.0226191
914 4 0.181572 0.220322 0.0620771
915 4 0.161111 0.178 0.0791315
913 2 0.171341 0.199161 0.0706043
293 4 0.187065 0.226526 0.0799333
902 4 0.2835 0.232149 0.0543673
296 4 0.289037 0.215196 0.0455479
295 2 0.293633 0.20627 0.0226484
297 4 0.298229 0.197344 0.999749
354 4 0.294 0.178754 0.00105715
282 4 0.392845 0.210549 0.0159219
280 2 0.381249 0.22945 0.0274754
359 4 0.395933 0.1895 0.0179609
281 4 0.369654 0.248351 0.039029
358 2 0.391606 0.170188 0.00267991
456 4 0.0933063 0.261763 0.016173
454 2 0.0979669 0.266345 0.0403073
455 4 0.102628 0.270926 0.0644416
287 4 0.118725 0.273888 0.0747033
495 4 0.13239 0.320654 0.0146211
967 2 0.0948235 0.318704 0.0196843
969 4 0.11655 0.307019 0.0156111
493 2 0.154968 0.331374 0.0139538
494 4 0.177547 0.342095 0.0132865
422 4 0.207226 0.264235 0.00552891
901 2 0.2928 0.253666 0.0630673
903 4 0.3021 0.275183 0.0717673
2007 4 0.397159 0.333537 0.0245112
519 4 0.405997 0.305606 0.0752373
309 4 0.503475 0.33351 0.0769727
968 4 0.0730968 0.330389 0.0237576
2807 4 0.0772629 0.349902 0.0188817
2806 2 0.053237 0.356649 0.0204363
1055 4 0.0117807 0.372554 0.0179224
2808 4 0.0292112 0.363395 0.0219908
1054 2 0.00278897 0.393796 0.00827323
2444 4 0.172712 0.394831 0.991471
2513 4 0.189797 0.399673 0.00169265
2512 2 0.201507 0.411113 0.0205918
2005 2 0.384889 0.350933 0.0113954
2006 4 0.372619 0.368328 0.99828
789 4 0.387516 0.379841 0.000226699
787 2 0.378469 0.402157 0.993494
528 4 0.405119 0.369254 0.058422
526 2 0.419667 0.387193 0.0679993
517 2 0.411011 0.329462 0.0696753
518 4 0.416025 0.353318 0.0641134
323 4 0.495934 0.408464 0.0382426
3338 4 0.0533985 0.444711 0.0745378
3337 2 0.0411177 0.448636 0.0531146
3339 4 0.0288369 0.452562 0.0316913
3450 4 0.0215625 0.468168 0.0195905
2514 4 0.213218 0.422552 0.039491
11 1 0.360667 0.471439 0.0204207
12 3 0.373652 0.465311 0.0383929
596 4 0.38994 0.475645 0.0396078
15 3 0.37018 0.489345 0.010052
595 2 0.397095 0.467986 0.0623086
14 3 0.339477 0.477037 0.0280385
13 3 0.359323 0.453557 0.00569489
597 4 0.404251 0.460328 0.0850094
527 4 0.434215 0.405132 0.0775765
672 4 0.452334 0.410368 0.0857068
671 4 0.489446 0.419758 0.0535313
670 2 0.47089 0.415063 0.0696191
2803 2 0.500324 0.478933 0.00540142
1157 4 0.475624 0.498828 0.995476
379 2 0.00605778 0.0525352 0.148203
380 4 0.0057327 0.0496318 0.173035
757 2 0.246064 0.0697195 0.141465
758 4 0.242329 0.0491065 0.127815
1660 2 0.261489 0.00741917 0.103383
355 2 0.250458 0.057437 0.0852259
1662 4 0.275147 0.0080738 0.124317
356 4 0.239167 0.0525368 0.10699
1748 4 0.382608 0.0116156 0.110962
742 2 0.392691 0.0457269 0.125187
743 4 0.397874 0.0220843 0.118915
744 4 0.387508 0.0693696 0.131459
1747 2 0.362226 0.00550228 0.097833
1506 4 0.367967 0.0627385 0.131594
771 4 0.493119 0.0194547 0.0861857
1761 4 0.466492 0.0249355 0.153627
1759 2 0.476172 0.0125341 0.134193
255 4 0.467038 0.0719996 0.130292
253 2 0.474047 0.0846072 0.109869
835 2 0.0307462 0.111719 0.09577
836 4 0.0269507 0.120889 0.11872
450 4 0.192136 0.148822 0.129659
448 2 0.184714 0.159228 0.10817
606 4 0.212522 0.143987 0.132729
604 2 0.224788 0.124417 0.142307
605 4 0.237055 0.104848 0.151886
759 4 0.249799 0.0903325 0.155116
449 4 0.177292 0.169634 0.0866804
237 4 0.176335 0.0916125 0.150816
721 2 0.286283 0.152931 0.090533
723 4 0.298544 0.144536 0.110642
693 4 0.297693 0.139568 0.130518
691 2 0.317816 0.124935 0.132996
692 4 0.337939 0.110302 0.135473
1505 4 0.345234 0.10193 0.152759
1504 2 0.3566 0.0823343 0.142176
254 4 0.481056 0.0972148 0.0894463
705 4 0.0355789 0.171685 0.112939
703 2 0.0505881 0.191441 0.116035
704 4 0.0655974 0.211198 0.119132
462 4 0.0535432 0.225387 0.12858
460 2 0.0615436 0.24397 0.143272
1220 4 0.0314267 0.234623 0.171525
461 4 0.0695441 0.262553 0.157964
292 2 0.201983 0.235186 0.0980339
580 2 0.222429 0.231774 0.14758
581 4 0.227176 0.211237 0.161028
732 4 0.232903 0.199273 0.17524
582 4 0.217683 0.252312 0.134132
376 2 0.396404 0.223784 0.133699
377 4 0.40815 0.20373 0.14292
629 4 0.39883 0.191229 0.156316
2895 4 0.49414 0.180015 0.0982795
3405 4 0.00938796 0.291108 0.0872114
475 2 0.071548 0.318485 0.130543
477 4 0.0753567 0.302345 0.111829
286 2 0.10532 0.28223 0.0940912
623 4 0.0843792 0.268294 0.169151
288 4 0.0919147 0.290572 0.113479
622 2 0.108713 0.263638 0.172519
294 4 0.216901 0.243847 0.116135
103 3 0.198677 0.271796 0.115126
101 1 0.215503 0.283425 0.126084
105 3 0.227065 0.269334 0.139737
102 3 0.205985 0.300116 0.138732
278 4 0.203869 0.31744 0.149083
104 3 0.22988 0.293017 0.110602
378 4 0.384658 0.243838 0.124477
2876 4 0.399867 0.253596 0.114327
2877 4 0.404724 0.298754 0.0934031
2875 2 0.402296 0.276175 0.103865
307 2 0.489138 0.315822 0.0873062
308 4 0.474801 0.298135 0.0976398
496 2 0.454867 0.316861 0.13243
498 4 0.467765 0.310183 0.112077
497 4 0.44197 0.323539 0.152783
275 4 0.426151 0.314368 0.160345
476 4 0.0677392 0.334624 0.149257
524 4 0.0794289 0.361512 0.11655
755 4 0.0542893 0.348662 0.144682
416 4 0.137626 0.375496 0.0971219
525 4 0.127971 0.373465 0.115319
523 2 0.1037 0.367489 0.115934
415 2 0.160022 0.375859 0.108235
363 4 0.18754 0.38998 0.131248
361 2 0.185346 0.395309 0.155578
417 4 0.182417 0.376222 0.119348
277 2 0.195266 0.336869 0.135904
279 4 0.186662 0.356297 0.122725
1121 4 0.229758 0.370408 0.126856
1120 2 0.243526 0.38773 0.115212
1122 4 0.257294 0.405052 0.103569
1071 4 0.266059 0.419218 0.114339
1069 2 0.290052 0.41557 0.108322
1070 4 0.314045 0.411922 0.102304
609 4 0.329689 0.413723 0.115483
607 2 0.35135 0.424894 0.12107
2772 4 0.081502 0.418238 0.145411
2770 2 0.0588907 0.427725 0.150301
2771 4 0.0362795 0.437212 0.155191
314 4 0.0176751 0.437138 0.159672
2094 4 0.0938783 0.422446 0.160429
766 2 0.135171 0.477153 0.102665
768 4 0.111042 0.474999 0.0964711
767 4 0.159299 0.479307 0.108859
330 4 0.0941957 0.48543 0.0957248
2092 2 0.113893 0.43442 0.16944
638 4 0.174849 0.464786 0.108776
637 2 0.192481 0.462434 0.126347
639 4 0.210114 0.460081 0.143919
1863 4 0.208553 0.47719 0.154442
608 4 0.37301 0.436065 0.126658
740 4 0.378206 0.451644 0.136966
233 4 0.0218074 0.0433305 0.185819
232 2 0.0114414 0.0544039 0.205697
234 4 0.0010753 0.0654773 0.225574
2675 4 0.00976846 0.0734115 0.241092
2850 4 0.118499 0.0521103 0.219099
2848 2 0.120261 0.0548257 0.243892
405 4 0.21964 0.0510421 0.247684
403 2 0.241485 0.0631727 0.248572
30 3 0.253947 0.0874714 0.173771
236 4 0.17259 0.119811 0.191945
579 4 0.169719 0.135318 0.179199
235 2 0.174463 0.105712 0.171381
731 4 0.222628 0.150416 0.178102
544 2 0.200915 0.146799 0.251575
546 4 0.19054 0.169377 0.24879
28 3 0.252386 0.123796 0.183557
27 3 0.242285 0.0970135 0.207916
26 1 0.25683 0.10223 0.190875
29 3 0.278564 0.100907 0.198894
2572 2 0.467657 0.122051 0.1772
2574 4 0.451349 0.125772 0.158616
2573 4 0.483964 0.11833 0.195785
699 4 0.481752 0.123185 0.215314
697 2 0.488436 0.110752 0.235952
1219 2 0.0378053 0.231791 0.195535
1221 4 0.0441838 0.228958 0.219545
459 4 0.0623814 0.238656 0.217701
457 2 0.0837138 0.242532 0.230155
578 4 0.150158 0.178482 0.195165
507 4 0.150288 0.198503 0.196587
577 2 0.159939 0.1569 0.187182
505 2 0.146437 0.220406 0.185159
458 4 0.105046 0.246407 0.242609
506 4 0.142587 0.242309 0.173731
730 2 0.227766 0.174844 0.176671
250 2 0.243105 0.245689 0.200539
251 4 0.244808 0.22169 0.193732
350 4 0.261059 0.213738 0.202064
349 2 0.278501 0.206664 0.218524
351 4 0.295943 0.199589 0.234983
628 2 0.408724 0.181202 0.176973
630 4 0.418618 0.171175 0.197631
331 2 0.414971 0.174851 0.242389
332 4 0.41775 0.170152 0.217989
624 4 0.133048 0.258981 0.175887
252 4 0.241402 0.269688 0.207346
285 4 0.22917 0.266014 0.22243
283 2 0.221493 0.269506 0.245968
385 2 0.37075 0.312405 0.217518
611 4 0.349636 0.313021 0.253868
387 4 0.352413 0.307622 0.233829
386 4 0.389087 0.317188 0.201207
276 4 0.406398 0.325404 0.20494
274 2 0.416275 0.319886 0.182643
754 2 0.0404457 0.355173 0.16446
394 2 0.995825 0.337981 0.197666
396 4 0.0184838 0.348466 0.196328
756 4 0.0266021 0.361684 0.184237
262 2 0.0798568 0.392912 0.241796
290 4 0.168946 0.388794 0.231897
264 4 0.0912876 0.408835 0.226273
735 4 0.166124 0.384111 0.250648
289 2 0.166801 0.391568 0.20714
362 4 0.183152 0.400638 0.179908
291 4 0.164656 0.394341 0.182384
2538 4 0.48431 0.379039 0.16748
2651 4 0.487717 0.359307 0.164261
2536 2 0.471039 0.391669 0.184497
712 2 0.446382 0.414277 0.22682
2537 4 0.457768 0.404298 0.201513
714 4 0.460157 0.42417 0.208447
313 2 0.0102965 0.4574 0.172328
315 4 0.0029179 0.477663 0.184984
681 4 0.996455 0.494497 0.195656
1382 4 0.103467 0.423547 0.230323
2093 4 0.133909 0.446394 0.178451
728 4 0.13192 0.466249 0.174346
727 2 0.141614 0.483876 0.189194
1381 2 0.117038 0.434148 0.248452
1861 2 0.225992 0.491927 0.164632
739 2 0.387855 0.460147 0.158408
741 4 0.397505 0.468651 0.179849
303 4 0.4018 0.487184 0.186587
301 2 0.41285 0.496587 0.20695
1868 4 0.137033 0.0177804 0.316685
427 2 0.165815 0.0397679 0.328511
2849 4 0.122023 0.0575411 0.268685
317 4 0.134395 0.990163 0.26594
1272 4 0.119876 0.0741035 0.279444
393 4 0.231751 0.0426555 0.284172
428 4 0.18744 0.0517999 0.32494
392 4 0.188582 0.0398862 0.309263
391 2 0.210166 0.0412708 0.296718
404 4 0.263331 0.0753033 0.249461
479 4 0.249195 0.0454131 0.291467
478 2 0.265007 0.0501013 0.31026
480 4 0.280818 0.0547895 0.329053
1497 4 0.497505 0.0034767 0.292218
2484 4 0.998491 0.111554 0.291713
511 2 0.0560816 0.128188 0.317374
512 4 0.0465958 0.144699 0.333578
513 4 0.0655673 0.111676 0.30117
1271 4 0.0816706 0.103069 0.293658
1270 2 0.100773 0.0885864 0.286551
530 4 0.233618 0.128872 0.318077
529 2 0.227609 0.124174 0.294265
531 4 0.221601 0.119476 0.270453
545 4 0.211289 0.12422 0.25436
651 4 0.24871 0.137922 0.330078
2910 4 0.296064 0.15203 0.266049
515 4 0.28118 0.137559 0.26568
516 4 0.259194 0.0959599 0.248743
514 2 0.270187 0.11676 0.257211
2908 2 0.312435 0.159448 0.283431
2656 2 0.335734 0.14341 0.338546
2657 4 0.33406 0.158826 0.318931
2909 4 0.328805 0.166867 0.300814
521 4 0.493498 0.0987248 0.275541
698 4 0.495119 0.0983192 0.25659
633 4 0.448391 0.14422 0.307781
631 2 0.430553 0.153719 0.293059
2879 4 0.454688 0.125988 0.311027
298 2 0.00292257 0.239618 0.302077
2692 2 0.0548426 0.227681 0.274824
2693 4 0.0336535 0.224499 0.287711
2694 4 0.0760316 0.230863 0.261937
750 4 0.0958804 0.256536 0.257265
764 4 0.288575 0.20814 0.251745
763 2 0.300025 0.219738 0.270707
510 4 0.312094 0.240984 0.307088
765 4 0.311474 0.231335 0.28967
508 2 0.323684 0.253838 0.325133
632 4 0.412714 0.163218 0.278337
333 4 0.412191 0.179549 0.26679
300 4 0.0252022 0.24183 0.290946
748 2 0.103821 0.270852 0.276164
749 4 0.111762 0.285169 0.295062
618 4 0.12074 0.302702 0.290916
616 2 0.127965 0.324662 0.300441
388 2 0.180122 0.277161 0.289882
284 4 0.213815 0.272998 0.269506
390 4 0.1959 0.279145 0.270587
365 4 0.228347 0.300799 0.279244
364 2 0.215148 0.320364 0.27099
389 4 0.164344 0.275177 0.309177
344 4 0.247566 0.300481 0.274045
612 4 0.307204 0.302524 0.278159
345 4 0.295805 0.287532 0.271591
343 2 0.271685 0.294007 0.272818
610 2 0.32842 0.307773 0.266013
2682 4 0.491576 0.253902 0.320378
2592 4 0.477895 0.239894 0.319918
263 4 0.0684261 0.376989 0.257319
537 4 0.0327434 0.341837 0.319613
412 2 0.0551707 0.354714 0.291017
414 4 0.0504751 0.346825 0.314274
535 2 0.0122194 0.353458 0.327914
413 4 0.0598663 0.362603 0.26776
617 4 0.13519 0.346623 0.309965
2654 4 0.11821 0.351369 0.319027
2653 2 0.116101 0.376263 0.318013
2655 4 0.113992 0.401157 0.317
3671 4 0.127394 0.414647 0.321979
733 2 0.175373 0.363584 0.261523
734 4 0.184622 0.343057 0.272398
366 4 0.201948 0.33993 0.262735
245 4 0.198466 0.391992 0.30244
644 4 0.247793 0.414058 0.324148
1574 4 0.350618 0.408453 0.264865
1575 4 0.37128 0.362929 0.266066
1573 2 0.360949 0.385691 0.265465
1802 4 0.338057 0.424337 0.268123
713 4 0.432607 0.404385 0.245193
2862 4 0.428766 0.403856 0.265822
2860 2 0.446104 0.408577 0.283208
1383 4 0.130608 0.444748 0.266581
3672 4 0.118251 0.444594 0.282988
3670 2 0.122822 0.429621 0.302483
678 4 0.216194 0.509811 0.292185
244 2 0.202112 0.415053 0.293492
246 4 0.205757 0.438114 0.284543
627 4 0.20897 0.440766 0.264253
625 2 0.230962 0.45255 0.262614
626 4 0.252954 0.464334 0.260976
753 4 0.314717 0.495782 0.299565
751 2 0.326753 0.50175 0.320652
2 3 0.386526 0.49354 0.329105
1803 4 0.351598 0.465719 0.292718
1801 2 0.344828 0.445028 0.28042
542 4 0.368242 0.456444 0.299483
541 2 0.382527 0.450368 0.319083
2861 4 0.463442 0.413298 0.300594
3989 4 0.511082 0.456464 0.279224
3990 4 0.474621 0.422894 0.285884
3988 2 0.492852 0.439679 0.282554
3602 4 0.504632 0.473672 0.289153
3601 2 0.489723 0.488547 0.302631
164 3 0.0232838 0.0797342 0.391779
2237 4 0.0620903 0.0540668 0.409404
163 3 0.059724 0.0699723 0.396386
429 4 0.14419 0.0277358 0.332083
2236 2 0.0869537 0.0534186 0.40684
2238 4 0.111817 0.0527704 0.404277
2642 4 0.299243 0.0630551 0.330636
2641 2 0.309759 0.0541799 0.351512
2643 4 0.320276 0.0453047 0.372388
599 4 0.386107 0.0386037 0.369906
598 2 0.362207 0.0429461 0.37583
600 4 0.338307 0.0472884 0.381755
1518 4 0.387719 0.0592796 0.370132
1516 2 0.400877 0.0794108 0.363294
762 4 0.499694 0.0669174 0.364968
2552 4 0.492088 0.054803 0.378599
2551 2 0.484803 0.0624744 0.401254
165 3 0.0505807 0.105098 0.386375
161 1 0.0441867 0.0870493 0.398704
162 3 0.0429928 0.0930577 0.420877
708 4 0.129701 0.147197 0.328611
706 2 0.143977 0.135023 0.345139
707 4 0.158252 0.122849 0.361667
471 4 0.177846 0.123215 0.358237
470 4 0.204982 0.0909534 0.331339
469 2 0.191414 0.107084 0.344788
371 4 0.239851 0.135752 0.389585
650 4 0.252623 0.14803 0.378896
649 2 0.250666 0.142976 0.354487
370 2 0.240793 0.130736 0.414062
1032 4 0.308521 0.0921539 0.408762
1030 2 0.320831 0.102279 0.389497
1031 4 0.33314 0.112404 0.370232
2658 4 0.337408 0.127995 0.358161
3159 4 0.306164 0.09008 0.427892
2878 2 0.44267 0.116937 0.330998
1517 4 0.414036 0.0995421 0.356455
2880 4 0.430651 0.107887 0.350968
2517 4 0.449774 0.136706 0.400482
760 2 0.49965 0.0892722 0.353768
3174 4 0.489104 0.154109 0.388396
340 2 0.124499 0.200147 0.407175
341 4 0.106707 0.204444 0.390142
342 4 0.142292 0.195849 0.424208
2590 2 0.472727 0.241269 0.344343
2591 4 0.467558 0.242644 0.368768
509 4 0.335274 0.266693 0.343178
320 4 0.316609 0.285705 0.389465
319 2 0.334533 0.277607 0.404903
717 4 0.345106 0.2832 0.339286
715 2 0.368317 0.279164 0.347661
716 4 0.391528 0.275129 0.356036
488 4 0.388522 0.286242 0.37114
487 2 0.389284 0.29967 0.392218
489 4 0.390045 0.313099 0.413296
536 4 0.991695 0.365078 0.336215
2139 4 0.0862697 0.395576 0.405394
2137 2 0.0765155 0.418517 0.40733
710 4 0.105926 0.399096 0.407648
643 2 0.268521 0.403099 0.332835
645 4 0.289248 0.392141 0.341523
375 4 0.252422 0.391313 0.406896
583 2 0.394245 0.405563 0.392715
585 4 0.383749 0.383626 0.386905
119 3 0.377835 0.368309 0.398992
570 4 0.0587942 0.486237 0.380082
568 2 0.0640704 0.472159 0.400061
569 4 0.0693465 0.458081 0.42004
2138 4 0.0667613 0.441458 0.409265
1557 4 0.141309 0.509201 0.375962
1555 2 0.143511 0.490976 0.392938
1556 4 0.145712 0.472751 0.409914
435 4 0.321324 0.438836 0.336661
433 2 0.334539 0.426033 0.35359
584 4 0.404741 0.4275 0.398525
434 4 0.347754 0.413229 0.37052
615 4 0.348071 0.425127 0.385596
613 2 0.337039 0.424718 0.40803
543 4 0.396812 0.444291 0.338684
1485 4 0.409117 0.438707 0.353882
446 4 0.435876 0.489522 0.380527
1484 4 0.440369 0.470173 0.376989
1483 2 0.424743 0.45444 0.365435
1035 4 0.00255326 0.0674554 0.469241
1033 2 0.0197842 0.0747994 0.452678
1151 4 0.195033 0.0284334 0.491752
1059 4 0.205888 0.0093518 0.427325
1150 2 0.199536 0.0185494 0.469231
1152 4 0.204039 0.0086654 0.446709
2239 2 0.341772 0.995233 0.493126
2241 4 0.346658 0.995702 0.468609
683 4 0.352458 0.011131 0.45533
682 2 0.358123 0.0339372 0.446788
684 4 0.363787 0.0567435 0.438246
1061 4 0.3842 0.0570147 0.43366
1060 2 0.406727 0.067325 0.430278
2553 4 0.477519 0.0701458 0.423909
420 4 0.479303 0.0862672 0.435073
938 4 0.0324693 0.155276 0.427455
1034 4 0.0370151 0.0821434 0.436115
937 2 0.026933 0.132331 0.435706
939 4 0.0213968 0.109386 0.443957
472 2 0.229398 0.133021 0.478937
474 4 0.229225 0.137012 0.503619
473 4 0.229571 0.129031 0.454254
372 4 0.241734 0.125719 0.438539
3157 2 0.302481 0.108264 0.444653
3158 4 0.298798 0.126448 0.461415
2502 4 0.318107 0.126738 0.468853
2500 2 0.334806 0.135461 0.485292
2501 4 0.351505 0.144183 0.501731
2508 4 0.509757 0.0863183 0.488512
2515 2 0.438727 0.116602 0.41043
418 2 0.494697 0.0925073 0.453762
1062 4 0.429253 0.0776353 0.426896
2516 4 0.42768 0.0964979 0.420378
2613 4 0.0327013 0.160969 0.446905
2611 2 0.0300726 0.185382 0.451625
2847 4 0.0337468 0.221065 0.472082
2845 2 0.0397464 0.24351 0.481326
2612 4 0.0274439 0.209795 0.456345
402 4 0.153732 0.208215 0.415305
825 4 0.140742 0.22327 0.474173
369 4 0.124176 0.215707 0.482553
823 2 0.149288 0.246665 0.471979
400 2 0.173716 0.220183 0.424393
401 4 0.193701 0.23215 0.433482
1191 4 0.198228 0.241427 0.450053
640 2 0.363821 0.237266 0.445853
641 4 0.364869 0.220768 0.464613
899 4 0.3654 0.208324 0.480162
898 2 0.360669 0.186194 0.490794
900 4 0.355937 0.164063 0.501426
2899 2 0.483285 0.178862 0.415957
2900 4 0.491212 0.193153 0.434881
312 4 0.48368 0.195658 0.453814
310 2 0.471477 0.217219 0.457185
311 4 0.459273 0.23878 0.460556
2846 4 0.045746 0.265954 0.490569
261 4 0.0267411 0.269669 0.494441
443 4 0.105128 0.30678 0.438166
442 2 0.121063 0.311751 0.456782
444 4 0.136998 0.316721 0.475398
696 4 0.145967 0.326497 0.492062
1189 2 0.206356 0.251136 0.471614
824 4 0.157834 0.27006 0.469784
669 4 0.172886 0.280845 0.476958
667 2 0.179534 0.29686 0.458944
668 4 0.186183 0.312875 0.440931
1190 4 0.214485 0.260844 0.493174
635 4 0.173401 0.321769 0.427145
872 4 0.282717 0.316959 0.472076
812 4 0.285691 0.30774 0.489642
871 2 0.280924 0.325604 0.448683
873 4 0.279132 0.334249 0.425291
321 4 0.352457 0.26951 0.420341
642 4 0.362774 0.253763 0.427094
452 4 0.454288 0.256927 0.469833
453 4 0.430869 0.300393 0.461894
266 4 0.433404 0.317809 0.454411
451 2 0.442578 0.27866 0.465863
265 2 0.41879 0.321969 0.434555
539 4 0.0719838 0.389306 0.503533
709 2 0.11764 0.378915 0.416631
711 4 0.129353 0.358734 0.425613
694 2 0.156625 0.34828 0.498151
636 4 0.132896 0.346052 0.410699
634 2 0.153149 0.333911 0.418922
2244 4 0.137417 0.380226 0.493952
327 4 0.174793 0.398725 0.499301
2242 2 0.113961 0.384247 0.501621
325 2 0.16228 0.414405 0.484377
2243 4 0.0905043 0.388268 0.50929
695 4 0.167283 0.370064 0.504241
601 2 0.248465 0.408644 0.4878
603 4 0.244183 0.39916 0.510535
774 4 0.228181 0.389205 0.516362
373 2 0.251351 0.40727 0.426116
2924 4 0.316327 0.368785 0.481308
2923 2 0.329151 0.36188 0.460985
267 4 0.404175 0.32613 0.414698
116 1 0.381125 0.360513 0.420598
117 3 0.360662 0.358073 0.430819
118 3 0.391741 0.339888 0.420046
2925 4 0.341975 0.354975 0.440661
120 3 0.393679 0.375401 0.432404
1444 2 0.142605 0.451008 0.441114
1445 4 0.147711 0.47252 0.429437
1446 4 0.137498 0.429496 0.452791
326 4 0.149767 0.430085 0.469452
602 4 0.252746 0.418128 0.465064
374 4 0.250279 0.423227 0.445336
1172 4 0.318539 0.436093 0.484827
1171 2 0.323324 0.439326 0.460499
1173 4 0.328109 0.442559 0.436172
1028 4 0.30796 0.445967 0.496596
2107 2 0.37993 0.464602 0.453354
2109 4 0.363107 0.483086 0.452637
614 4 0.326008 0.424309 0.430465
2108 4 0.396753 0.446118 0.454072
1952 4 0.414765 0.439553 0.45181
1951 2 0.437351 0.428875 0.450804
1953 4 0.459937 0.418196 0.449799
2314 2 0.214317 0.0227641 0.5253
2315 4 0.217755 0.0264781 0.549786
1182 4 0.209927 0.04192 0.561855
2316 4 0.210879 0.0190501 0.500814
1180 2 0.222213 0.0636938 0.561484
960 4 0.285699 0.0726535 0.588195
842 4 0.425194 0.0273644 0.547487
1143 4 0.426193 0.0478111 0.54563
1141 2 0.431625 0.0697656 0.556292
841 2 0.428661 0.0100478 0.529787
1162 2 0.471714 0.0164057 0.580373
1164 4 0.493879 0.018795 0.569051
9 3 0.128392 0.161026 0.538636
1181 4 0.234499 0.0854676 0.561113
725 4 0.219199 0.0963758 0.552489
724 2 0.217356 0.113003 0.533907
726 4 0.215513 0.12963 0.515324
1142 4 0.437057 0.0917201 0.566953
576 4 0.457597 0.0937224 0.571701
574 2 0.475476 0.0867369 0.587724
3308 4 0.494679 0.151421 0.583281
3307 2 0.470676 0.15422 0.589698
7 3 0.123125 0.177737 0.571887
6 1 0.13484 0.178776 0.552118
8 3 0.15753 0.177363 0.55676
368 4 0.120105 0.191597 0.526175
10 3 0.130252 0.198506 0.541709
367 2 0.12214 0.203652 0.504364
348 4 0.17303 0.165422 0.555456
409 2 0.229928 0.219572 0.560506
346 2 0.194306 0.175475 0.563909
347 4 0.215583 0.185527 0.572361
411 4 0.219223 0.20475 0.577561
1395 4 0.254063 0.233249 0.528488
410 4 0.240633 0.234395 0.543451
259 2 0.00963797 0.286313 0.501902
3044 4 0.141461 0.253786 0.585723
3045 4 0.165469 0.296465 0.595863
3043 2 0.153465 0.275125 0.590793
935 4 0.164149 0.31376 0.58876
1393 2 0.242749 0.25038 0.514215
1394 4 0.231435 0.267511 0.499943
811 2 0.286013 0.304499 0.514432
813 4 0.286336 0.301257 0.539223
1135 2 0.0317883 0.414365 0.572784
538 2 0.0540148 0.397523 0.518856
1137 4 0.0342107 0.420783 0.54874
540 4 0.0360457 0.405739 0.534179
934 2 0.17295 0.336589 0.58361
773 4 0.178591 0.384023 0.512527
772 2 0.203386 0.386614 0.514445
936 4 0.181751 0.359419 0.578459
1029 4 0.312493 0.410799 0.531858
1204 2 0.313546 0.405502 0.57318
890 4 0.367876 0.375955 0.552462
889 2 0.378699 0.362708 0.570698
238 2 0.460684 0.400097 0.576293
239 4 0.483627 0.409896 0.574637
240 4 0.43774 0.390297 0.577949
1983 4 0.13288 0.457791 0.573129
1981 2 0.120771 0.478994 0.578514
2130 4 0.141055 0.440604 0.567222
1205 4 0.309267 0.400861 0.548986
1027 2 0.310227 0.428383 0.514227
1283 4 0.15185 0.0641995 0.657307
1155 4 0.156575 0.0941994 0.596695
1154 4 0.158654 0.0755567 0.643051
1153 2 0.157615 0.084878 0.619873
1255 2 0.214314 0.0819545 0.624258
1256 4 0.238024 0.0792754 0.63173
1257 4 0.190604 0.0846336 0.616786
959 4 0.256379 0.0823963 0.627516
958 2 0.271039 0.0775249 0.607855
1130 4 0.364089 0.073915 0.619935
1004 4 0.37065 0.0556705 0.616863
1003 2 0.365453 0.037269 0.632973
1005 4 0.360255 0.0188675 0.649084
888 4 0.476513 0.0200306 0.662211
944 4 0.116609 0.134463 0.576294
943 2 0.133034 0.115654 0.577561
945 4 0.14946 0.0968451 0.578828
917 4 0.0970845 0.155792 0.596104
2319 4 0.294937 0.149203 0.596623
2317 2 0.305976 0.130645 0.609229
950 4 0.294884 0.169793 0.600956
2318 4 0.317015 0.112087 0.621835
1131 4 0.337601 0.116327 0.619384
269 4 0.388761 0.159722 0.612705
1129 2 0.350845 0.0951212 0.61966
858 4 0.376465 0.171623 0.624423
856 2 0.361659 0.151553 0.6262
857 4 0.346853 0.131483 0.627977
268 2 0.4135 0.163276 0.611981
270 4 0.438239 0.16683 0.611257
3309 4 0.446672 0.157018 0.596115
575 4 0.493355 0.0797515 0.603747
3461 4 0.131504 0.238306 0.594958
1210 2 0.0900312 0.202576 0.661775
916 2 0.0989807 0.172959 0.614184
918 4 0.100877 0.190127 0.632263
1211 4 0.0950755 0.181152 0.649911
3460 2 0.110825 0.245567 0.606994
3462 4 0.0901462 0.252828 0.619029
949 2 0.298975 0.194329 0.603485
976 2 0.275614 0.233482 0.633156
977 4 0.29615 0.231046 0.619102
951 4 0.303066 0.218866 0.606014
1279 2 0.067428 0.331775 0.641575
1280 4 0.0836435 0.318452 0.627984
895 2 0.168341 0.276508 0.647779
1084 2 0.221778 0.25377 0.655164
1085 4 0.198107 0.259735 0.649751
1086 4 0.245448 0.247806 0.660577
897 4 0.184318 0.261971 0.635187
978 4 0.255078 0.235919 0.64721
806 4 0.375074 0.254122 0.641746
805 2 0.38367 0.261426 0.664061
1136 4 0.029366 0.407947 0.596828
1041 4 0.0148234 0.393624 0.592496
1281 4 0.0512126 0.345098 0.655167
3420 4 0.0325133 0.34473 0.660336
3418 2 0.00775987 0.341204 0.660247
942 4 0.15143 0.412639 0.623003
940 2 0.156042 0.394532 0.639617
2129 4 0.136793 0.412934 0.608657
941 4 0.160655 0.376425 0.656232
1098 4 0.167554 0.358623 0.65494
1096 2 0.188872 0.349274 0.66407
1206 4 0.317826 0.410143 0.597373
1139 4 0.323224 0.395916 0.609194
891 4 0.389521 0.349461 0.588934
1140 4 0.352939 0.372166 0.641654
1138 2 0.338082 0.384041 0.625424
1017 4 0.365694 0.376422 0.656373
1239 4 0.408248 0.347125 0.596917
1237 2 0.423031 0.35615 0.61495
1238 4 0.437814 0.365175 0.632984
804 4 0.455077 0.369223 0.645039
2128 2 0.138924 0.426769 0.58794
1713 4 0.205634 0.491896 0.602695
2434 2 0.250047 0.485897 0.604886
2435 4 0.225575 0.490656 0.6068
2436 4 0.274518 0.481138 0.602973
3369 4 0.508975 0.493627 0.645797
3367 2 0.511258 0.481816 0.667716
1282 2 0.130469 0.0724598 0.667296
1284 4 0.109087 0.08072 0.677285
966 4 0.348013 0.00848166 0.659934
886 2 0.469293 0.996648 0.667338
953 4 0.474816 0.0387294 0.657327
952 2 0.475648 0.0532078 0.677695
954 4 0.47648 0.0676862 0.698063
1178 4 0.0501584 0.150635 0.693496
1177 2 0.0312894 0.150023 0.70989
1179 4 0.0124204 0.14941 0.726284
833 4 0.0684352 0.146949 0.687124
948 4 0.112656 0.0955244 0.707861
832 2 0.0775474 0.124147 0.691841
834 4 0.0866596 0.101346 0.696558
946 2 0.127813 0.0974274 0.727655
947 4 0.142971 0.0993303 0.747449
2256 4 0.23592 0.146306 0.745267
2254 2 0.254327 0.135963 0.731874
2255 4 0.272735 0.12562 0.718481
1026 4 0.478726 0.0883188 0.700378
1024 2 0.497973 0.0942029 0.715214
152 3 0.0185965 0.235758 0.731715
924 4 0.0284277 0.228042 0.746006
1212 4 0.0849868 0.224 0.673639
1258 2 0.0913143 0.231431 0.709838
1259 4 0.0812399 0.217249 0.691878
1022 4 0.232059 0.164092 0.75588
791 4 0.401005 0.254979 0.697706
3402 4 0.496436 0.172452 0.686131
792 4 0.44868 0.254715 0.712799
790 2 0.424842 0.254847 0.705253
1260 4 0.101389 0.245612 0.727798
1299 4 0.106874 0.262878 0.735231
992 4 0.138899 0.303843 0.667942
991 2 0.123768 0.31525 0.684255
896 4 0.152364 0.291046 0.660372
1297 2 0.131596 0.264526 0.731868
993 4 0.108638 0.326658 0.700569
1298 4 0.156317 0.266174 0.728504
1277 4 0.269017 0.330966 0.707147
798 4 0.321719 0.3215 0.747896
796 2 0.303469 0.321283 0.730805
797 4 0.28522 0.321066 0.713714
807 4 0.392266 0.26873 0.686375
883 2 0.0321312 0.373153 0.727683
884 4 0.00964162 0.384067 0.728223
1067 4 0.0656402 0.348154 0.73888
885 4 0.0546209 0.36224 0.727142
1068 4 0.109285 0.339478 0.716064
1066 2 0.0874627 0.343816 0.727472
1278 4 0.228631 0.335472 0.678003
1097 4 0.210189 0.339925 0.6732
1276 2 0.248824 0.333219 0.692575
1015 2 0.382928 0.376978 0.67448
1016 4 0.400162 0.377533 0.692587
1020 4 0.404762 0.373376 0.750214
999 4 0.490479 0.368942 0.740488
802 2 0.459237 0.361465 0.668442
1019 4 0.41411 0.366278 0.701604
1018 2 0.409436 0.369827 0.725909
998 4 0.477884 0.342779 0.699774
803 4 0.463397 0.353706 0.691844
997 2 0.484182 0.355861 0.720131
85 3 0.320735 0.465755 0.709947
2288 4 0.316468 0.495334 0.747838
84 3 0.343573 0.494737 0.702456
81 1 0.338115 0.478205 0.717795
83 3 0.332415 0.48783 0.738124
82 3 0.356401 0.464593 0.72088
2214 4 0.357365 0.46386 0.741728
2991 4 0.181128 0.0107712 0.794614
908 4 0.171169 0.0145406 0.811587
1038 4 0.300688 0.0450985 0.837638
817 2 0.415634 0.011617 0.761678
818 4 0.434822 0.0276468 0.761879
845 4 0.446091 0.0346289 0.775995
844 2 0.441629 0.0512738 0.794112
846 4 0.437168 0.0679187 0.812229
864 4 0.066829 0.183688 0.837773
851 4 0.147963 0.1191 0.746551
33 3 0.150656 0.173011 0.797497
34 3 0.158894 0.15186 0.827979
31 1 0.161857 0.154158 0.805081
32 3 0.153191 0.135626 0.794564
850 2 0.168656 0.117992 0.760542
852 4 0.189349 0.116884 0.774533
1023 4 0.204748 0.153301 0.796357
1021 2 0.218403 0.158697 0.776118
35 3 0.184049 0.155835 0.800246
1192 2 0.500905 0.143263 0.81425
1193 4 0.488563 0.161459 0.802344
922 2 0.0394287 0.212526 0.762235
862 2 0.0551605 0.184558 0.815676
863 4 0.043492 0.185429 0.79358
923 4 0.0504298 0.19701 0.778465
870 4 0.0895472 0.177202 0.794943
868 2 0.113869 0.18055 0.790209
869 4 0.138191 0.183899 0.785475
1090 2 0.248631 0.207457 0.822851
1092 4 0.245952 0.230716 0.814075
839 4 0.237721 0.243239 0.800586
52 3 0.250649 0.164207 0.833159
1091 4 0.251311 0.184197 0.831626
1010 4 0.494671 0.17388 0.786911
838 2 0.220776 0.260744 0.806211
840 4 0.203832 0.278249 0.811836
1209 4 0.190383 0.293472 0.80684
1207 2 0.202412 0.311844 0.794882
1044 4 0.330495 0.317302 0.76649
3328 2 0.289939 0.265469 0.828992
3330 4 0.299214 0.278263 0.809615
1042 2 0.314827 0.30701 0.783036
1043 4 0.299159 0.296718 0.799582
1165 2 0.493031 0.268577 0.821235
4208 4 0.997574 0.383863 0.832774
1170 4 0.998076 0.39923 0.846107