ITEM: TIMESTEP
4090000
ITEM: NUMBER OF ATOMS
4590
ITEM: BOX BOUNDS pp pp pp
-9.9985700000000008e+00 9.9985700000000008e+00
-9.9985700000000008e+00 9.9985700000000008e+00
-9.9985700000000008e+00 9.9985700000000008e+00
ITEM: ATOMS id type xs ys zs
702 4 0.104988 0.0127992 0.0563399
701 4 0.0876364 0.0596508 0.058473
700 2 0.0963124 0.036225 0.0574064
2253 4 0.10324 0.0269143 0.00643935
567 4 0.0874756 0.00337781 0.0585596
2251 2 0.119928 0.010362 0.0149665
1840 2 0.19769 0.0327547 0.0763271
1842 4 0.193027 0.0146554 0.0597185
486 4 0.183889 0.0013671 0.0704925
1476 4 0.319985 0.0194133 0.0613297
490 2 0.411593 0.0459022 0.0109905
491 4 0.394099 0.0336494 0.0239912
652 2 0.381917 0.996602 0.0647962
2442 4 0.43216 0.0767898 0.00284541
2440 2 0.454804 0.079072 0.0131998
2269 2 0.0657851 0.0923873 0.996203
657 4 0.0344227 0.105623 0.0105023
2271 4 0.0547236 0.10555 0.0143574
655 2 0.0124244 0.115848 0.00444364
2760 4 0.0139814 0.161359 0.00386597
2758 2 0.03847 0.165535 0.00102957
722 4 0.293026 0.116662 0.0230214
721 2 0.297424 0.122878 0.0468374
723 4 0.301822 0.129093 0.0706534
693 4 0.307369 0.134367 0.0898937
356 4 0.308487 0.1106 0.0114334
1505 4 0.375488 0.126846 0.0919334
2441 4 0.477448 0.0813543 0.0235542
255 4 0.421891 0.0859491 0.0627634
254 4 0.468547 0.0944146 0.0786454
253 2 0.445219 0.0901818 0.0707044
2976 4 0.493852 0.0922875 0.0202601
705 4 0.060121 0.191225 0.0493063
703 2 0.0675139 0.215098 0.0485254
704 4 0.0749067 0.238971 0.0477444
462 4 0.078126 0.258901 0.048119
454 2 0.150144 0.244893 0.0145072
456 4 0.14861 0.221574 0.00561695
581 4 0.195028 0.204862 0.0706353
580 2 0.199592 0.22826 0.0630926
2877 4 0.40639 0.233248 0.0594782
2875 2 0.416023 0.229864 0.0823021
3407 4 0.468295 0.251794 0.0309791
455 4 0.151677 0.268213 0.0233975
286 2 0.152054 0.276865 0.0589352
287 4 0.141739 0.27919 0.0362774
288 4 0.162369 0.274539 0.0815929
105 3 0.217725 0.253756 0.0692515
101 1 0.227464 0.274031 0.0656811
582 4 0.204156 0.251657 0.05555
294 4 0.208337 0.269086 0.0421424
103 3 0.214617 0.286494 0.0509153
104 3 0.248831 0.27115 0.0571066
292 2 0.20088 0.273532 0.0186946
102 3 0.228928 0.285355 0.0856505
297 4 0.325555 0.276345 0.0505701
296 4 0.277244 0.263453 0.0497937
295 2 0.301399 0.269899 0.0501819
902 4 0.258961 0.266457 0.0407769
901 2 0.25875 0.266574 0.0157745
360 4 0.345771 0.271904 0.0526243
359 4 0.37483 0.280911 0.0129359
358 2 0.360301 0.276408 0.0327801
528 4 0.411373 0.294496 0.0751874
2840 4 0.452092 0.301933 0.0296087
2839 2 0.465531 0.322987 0.030757
527 4 0.44429 0.284608 0.0388639
526 2 0.427832 0.289552 0.0570257
3406 2 0.461086 0.268347 0.0136815
3408 4 0.453877 0.2849 0.996384
2807 4 0.0736722 0.388522 0.0152467
2512 2 0.0904877 0.400874 0.0507289
481 2 0.152173 0.342077 0.00763185
2513 4 0.100782 0.400058 0.0735004
2514 4 0.0801937 0.401691 0.0279573
482 4 0.165136 0.348579 0.0280001
494 4 0.17665 0.365508 0.0285113
493 2 0.178526 0.374666 0.0517014
495 4 0.180402 0.383825 0.0748915
969 4 0.188205 0.36623 0.0804167
2005 2 0.369643 0.389261 0.0120729
2007 4 0.370124 0.364269 0.0126579
281 4 0.353791 0.354934 0.00426808
2006 4 0.369162 0.414253 0.011488
2841 4 0.478969 0.344041 0.0319053
672 4 0.493455 0.345062 0.0181461
330 4 0.0709796 0.492695 0.0653367
328 2 0.0539672 0.474917 0.0697728
329 4 0.0369548 0.457138 0.074209
552 4 0.0857681 0.480238 0.0686335
14 3 0.330208 0.479066 0.0178655
15 3 0.35752 0.49801 0.0355538
13 3 0.366145 0.466791 0.0163528
11 1 0.350195 0.477307 0.0295212
12 3 0.346685 0.464701 0.0484402
596 4 0.370494 0.457493 0.071052
741 4 0.352288 0.452664 0.0636063
233 4 0.0115137 0.048921 0.144315
380 4 0.0140264 0.0487956 0.124917
232 2 0.00493173 0.0660037 0.161345
449 4 0.169331 0.0637629 0.14813
1874 4 0.137893 0.0123423 0.142774
1479 4 0.125588 0.0171508 0.156319
1873 2 0.157606 0.998108 0.136945
1841 4 0.202354 0.0508541 0.0929358
448 2 0.177684 0.0550515 0.126232
450 4 0.186038 0.0463401 0.104334
1660 2 0.272716 0.0305163 0.122655
1662 4 0.287494 0.0179282 0.106897
1661 4 0.257938 0.0431044 0.138413
1475 4 0.306469 0.0226763 0.109365
1474 2 0.313227 0.0210448 0.0853474
654 4 0.380648 0.00603205 0.0879187
2469 4 0.420916 0.0133745 0.109985
2467 2 0.440932 0.0263758 0.117435
771 4 0.459241 0.0474624 0.14324
2468 4 0.460949 0.0393771 0.124885
769 2 0.480513 0.0596698 0.138378
770 4 0.501786 0.0718772 0.133516
236 4 0.158362 0.14812 0.165365
579 4 0.138494 0.150763 0.166623
28 3 0.251888 0.165706 0.163397
759 4 0.28791 0.126249 0.172329
758 4 0.332885 0.141066 0.156253
757 2 0.310397 0.133658 0.164291
30 3 0.271372 0.133491 0.163875
691 2 0.331853 0.130174 0.0927507
1506 4 0.415973 0.10386 0.0736767
1504 2 0.39573 0.115353 0.0828051
692 4 0.356336 0.125981 0.0956078
24 3 0.476445 0.103252 0.0954087
22 3 0.493303 0.136572 0.091141
914 4 0.199564 0.199012 0.0888457
235 2 0.177064 0.161846 0.156037
237 4 0.195767 0.175571 0.146709
913 2 0.191456 0.188781 0.110171
915 4 0.183349 0.17855 0.131497
605 4 0.244838 0.184557 0.166897
604 2 0.255709 0.206766 0.163188
731 4 0.278181 0.246465 0.157522
606 4 0.266579 0.228975 0.159478
2876 4 0.425656 0.226479 0.105126
378 4 0.434135 0.210974 0.115672
376 2 0.438049 0.200683 0.138121
377 4 0.441964 0.190392 0.16057
623 4 0.0863797 0.268516 0.111299
460 2 0.0870605 0.261086 0.0713694
252 4 0.146705 0.275606 0.095429
477 4 0.136966 0.318495 0.0922933
461 4 0.095995 0.26327 0.0946198
622 2 0.090009 0.262604 0.135321
251 4 0.172461 0.292458 0.134841
250 2 0.159583 0.284032 0.115135
475 2 0.114713 0.329895 0.0920946
624 4 0.0936382 0.256693 0.159343
284 4 0.191079 0.265972 0.150775
278 4 0.198133 0.278893 0.137918
277 2 0.215058 0.285614 0.120785
1121 4 0.252677 0.291955 0.103932
279 4 0.231983 0.292335 0.103652
1120 2 0.261644 0.314825 0.0992735
517 2 0.416086 0.283222 0.117171
519 4 0.414539 0.274255 0.14046
309 4 0.395169 0.277714 0.147891
518 4 0.417634 0.292189 0.093882
2652 4 0.501076 0.337173 0.110324
755 4 0.0787757 0.349038 0.103331
754 2 0.0680595 0.340688 0.124322
756 4 0.0573434 0.332338 0.145313
396 4 0.0657883 0.329631 0.163043
476 4 0.0924608 0.341296 0.0918958
523 2 0.120056 0.406572 0.110283
524 4 0.136766 0.404961 0.128813
525 4 0.103346 0.408183 0.0917531
967 2 0.192136 0.362811 0.104872
968 4 0.196067 0.359392 0.129326
416 4 0.18522 0.352407 0.144803
415 2 0.174936 0.353905 0.167544
1122 4 0.270612 0.337696 0.0946147
1071 4 0.283387 0.344404 0.109463
1069 2 0.287852 0.363416 0.125077
1070 4 0.292317 0.382428 0.140691
609 4 0.331458 0.40231 0.155862
2650 2 0.483118 0.354565 0.110765
2651 4 0.465159 0.371957 0.111205
2538 4 0.449749 0.382831 0.119197
2536 2 0.452109 0.399992 0.137228
2537 4 0.45447 0.417152 0.15526
2092 2 0.0842981 0.423929 0.151304
2094 4 0.0843197 0.424687 0.126312
2772 4 0.0228526 0.448044 0.0872429
2770 2 0.0236445 0.431864 0.10629
3762 4 0.0382622 0.493145 0.123535
3760 2 0.0483014 0.48491 0.144903
2771 4 0.0244364 0.415685 0.125337
766 2 0.150482 0.463101 0.133203
768 4 0.130603 0.457063 0.119291
767 4 0.170361 0.469139 0.147116
638 4 0.177377 0.486534 0.13851
637 2 0.201723 0.490058 0.142985
739 2 0.347832 0.4351 0.0808347
595 2 0.390479 0.470355 0.0788189
607 2 0.339578 0.414482 0.135587
740 4 0.343376 0.417536 0.0980632
608 4 0.347699 0.426654 0.115312
597 4 0.410465 0.483217 0.0865857
659 4 0.412867 0.49341 0.103154
658 2 0.432525 0.486183 0.116811
660 4 0.452184 0.478957 0.130468
3704 4 0.46566 0.493672 0.13308
1270 2 0.0566287 0.0805004 0.251063
1272 4 0.0698648 0.0593983 0.248899
2849 4 0.0838193 0.0444791 0.244081
1477 2 0.123349 0.00735408 0.179214
2848 2 0.0938801 0.0228378 0.251539
2850 4 0.103941 0.00119662 0.258996
1806 4 0.266039 0.0153955 0.190839
1804 2 0.286982 0.00683505 0.180195
1747 2 0.355037 0.0264355 0.16028
743 4 0.381008 0.0275736 0.183783
1748 4 0.366594 0.0403063 0.177578
742 2 0.398215 0.0366365 0.199498
744 4 0.415422 0.0456994 0.215213
432 4 0.414825 0.00581942 0.227267
2675 4 0.992323 0.101342 0.173589
1271 4 0.0433926 0.101603 0.253226
27 3 0.234131 0.132698 0.166192
29 3 0.25431 0.145226 0.195321
26 1 0.253099 0.144258 0.172169
516 4 0.265855 0.137325 0.208965
514 2 0.271647 0.13304 0.232908
521 4 0.485137 0.135557 0.257
520 2 0.498964 0.131108 0.236648
577 2 0.132707 0.166347 0.185299
578 4 0.12692 0.181932 0.203975
507 4 0.120107 0.187383 0.223068
505 2 0.13692 0.191798 0.241041
350 4 0.238266 0.224072 0.216948
349 2 0.258394 0.222575 0.231706
629 4 0.453611 0.201631 0.169797
332 4 0.445339 0.22499 0.231794
630 4 0.438615 0.21962 0.213981
628 2 0.446113 0.210626 0.191889
298 2 0.0381322 0.295379 0.228823
299 4 0.0416508 0.307978 0.207514
300 4 0.0346135 0.28278 0.250132
395 4 0.0309368 0.322419 0.198172
285 4 0.162328 0.259521 0.191179
283 2 0.176704 0.262747 0.170977
545 4 0.17616 0.26428 0.205946
546 4 0.206476 0.261179 0.245595
544 2 0.191318 0.262729 0.225771
610 2 0.250551 0.293277 0.21251
345 4 0.235616 0.299717 0.249724
612 4 0.258256 0.278843 0.193604
732 4 0.245273 0.278112 0.177925
730 2 0.261727 0.262289 0.167723
611 4 0.242846 0.307711 0.231417
307 2 0.383391 0.285952 0.168351
496 2 0.364642 0.283785 0.2222
308 4 0.371614 0.29419 0.188811
498 4 0.369248 0.276792 0.19864
497 4 0.360035 0.290778 0.245759
537 4 0.0147043 0.407138 0.227456
394 2 0.0483625 0.326025 0.180607
414 4 0.02623 0.391588 0.229361
412 2 0.030312 0.369382 0.240104
535 2 0.993002 0.418084 0.221595
413 4 0.0343941 0.347176 0.250846
362 4 0.145688 0.413539 0.214451
361 2 0.147638 0.391387 0.203019
363 4 0.149587 0.369236 0.191586
417 4 0.164651 0.355404 0.190285
289 2 0.235647 0.400061 0.225446
291 4 0.252534 0.400191 0.207007
627 4 0.249594 0.394041 0.188152
246 4 0.318825 0.400133 0.171692
387 4 0.358407 0.390791 0.226769
245 4 0.350212 0.387412 0.208486
244 2 0.334519 0.393773 0.190089
385 2 0.367395 0.377292 0.2458
2862 4 0.493535 0.403987 0.227511
2093 4 0.0842764 0.423171 0.176296
3761 4 0.0583405 0.476675 0.16627
1775 4 0.0603508 0.486854 0.184664
264 4 0.0824251 0.477595 0.247508
728 4 0.164539 0.417615 0.221927
1382 4 0.102598 0.478638 0.246104
1381 2 0.120232 0.462212 0.25277
727 2 0.185373 0.430956 0.218301
337 2 0.223828 0.481103 0.214722
339 4 0.221011 0.456842 0.209371
729 4 0.206207 0.444296 0.214675
626 4 0.256219 0.431228 0.155382
625 2 0.252906 0.412634 0.171767
1714 2 0.402778 0.495448 0.236568
714 4 0.458354 0.424217 0.173582
712 2 0.474322 0.418869 0.192065
713 4 0.490289 0.413522 0.210549
1715 4 0.415689 0.481634 0.252928
393 4 0.1978 0.00297957 0.296042
428 4 0.189703 0.07968 0.319146
391 2 0.213063 0.0223803 0.300022
392 4 0.228326 0.0417811 0.304001
404 4 0.243115 0.0489985 0.316168
403 2 0.264096 0.0373418 0.309161
405 4 0.285077 0.025685 0.302154
248 4 0.288006 0.00854476 0.291746
1497 4 0.496428 0.00597056 0.302513
1495 2 0.476998 0.00261483 0.287138
1496 4 0.457568 0.999259 0.271763
431 4 0.438887 0.00550488 0.271103
430 2 0.426856 0.00566215 0.249185
1220 4 0.0404291 0.115301 0.269107
1219 2 0.0509463 0.134996 0.280362
1221 4 0.0614636 0.154691 0.291616
459 4 0.0778887 0.165921 0.288065
457 2 0.0991616 0.160738 0.300139
458 4 0.120435 0.155555 0.312213
469 2 0.163813 0.150243 0.307707
470 4 0.140521 0.153958 0.316007
471 4 0.187104 0.146528 0.299406
515 4 0.277439 0.128755 0.256851
2910 4 0.271321 0.129801 0.276389
2908 2 0.285149 0.134823 0.296606
2909 4 0.298978 0.139846 0.316823
2657 4 0.31621 0.133134 0.309113
2656 2 0.32921 0.129609 0.330179
760 2 0.398266 0.15519 0.331884
761 4 0.40757 0.174545 0.319076
633 4 0.470901 0.140199 0.269959
631 2 0.450248 0.154293 0.270056
2830 2 0.0147155 0.209041 0.319483
2831 4 0.010374 0.185406 0.312575
2832 4 0.0190569 0.232675 0.326391
506 4 0.153732 0.196212 0.259014
389 4 0.133339 0.246034 0.323721
388 2 0.139258 0.225775 0.337127
530 4 0.165859 0.185795 0.272415
529 2 0.17772 0.207127 0.277839
531 4 0.189581 0.22846 0.283263
351 4 0.278522 0.221078 0.246465
764 4 0.267398 0.218364 0.26307
763 2 0.281914 0.21988 0.283373
510 4 0.292886 0.233617 0.318926
765 4 0.296429 0.221397 0.303675
2590 2 0.493561 0.239621 0.256822
331 2 0.440504 0.204768 0.245682
2591 4 0.484239 0.219505 0.268382
333 4 0.435668 0.184545 0.259569
632 4 0.429596 0.168386 0.270153
2693 4 0.0199636 0.268822 0.24879
2692 2 0.00938026 0.258115 0.268753
748 2 0.146273 0.285883 0.318399
749 4 0.155275 0.306458 0.307406
618 4 0.146792 0.319007 0.292737
343 2 0.252191 0.310593 0.264962
645 4 0.278717 0.335967 0.289638
344 4 0.268765 0.321468 0.2802
275 4 0.369381 0.301588 0.260223
274 2 0.365719 0.326099 0.263538
616 2 0.15861 0.339088 0.301807
617 4 0.170429 0.359169 0.310877
290 4 0.21876 0.399931 0.243885
2654 4 0.172153 0.377536 0.31653
735 4 0.220332 0.401401 0.264177
2653 2 0.161655 0.386964 0.337172
734 4 0.221915 0.377373 0.308004
733 2 0.221124 0.389387 0.286091
365 4 0.20842 0.362594 0.310541
643 2 0.27148 0.344966 0.311816
1575 4 0.300971 0.384251 0.264232
1573 2 0.307751 0.399752 0.282643
435 4 0.253799 0.372462 0.340247
644 4 0.264243 0.353964 0.333993
386 4 0.376383 0.363793 0.264831
276 4 0.362057 0.35061 0.266853
3671 4 0.149468 0.442839 0.277202
1383 4 0.137865 0.445785 0.259436
676 2 0.216152 0.490639 0.306007
3670 2 0.17245 0.451544 0.28181
677 4 0.203091 0.477905 0.288906
3672 4 0.195432 0.460248 0.286417
1574 4 0.31453 0.415253 0.301053
1802 4 0.319233 0.434831 0.305041
1801 2 0.336817 0.452584 0.304155
1550 4 0.351525 0.488904 0.262664
1803 4 0.354401 0.470338 0.30327
752 4 0.362156 0.486796 0.311792
2237 4 0.997856 0.00645102 0.398634
1868 4 0.122813 0.0266004 0.334108
427 2 0.182081 0.0601814 0.332816
429 4 0.174458 0.0406828 0.346487
2642 4 0.237976 0.00392751 0.375612
480 4 0.234235 0.0231309 0.377335
651 4 0.246531 0.0661916 0.419998
478 2 0.232064 0.0412651 0.394412
479 4 0.229893 0.0593994 0.411488
1517 4 0.404141 0.0622531 0.378483
4162 2 0.449671 0.00570234 0.405921
1516 2 0.425526 0.0554312 0.389498
1518 4 0.44691 0.0486092 0.400513
4164 4 0.444503 0.0286444 0.397428
939 4 0.0848588 0.132453 0.405494
402 4 0.224012 0.158692 0.40143
2880 4 0.391787 0.0775259 0.381451
1031 4 0.347164 0.141452 0.362066
762 4 0.388963 0.135836 0.344691
2879 4 0.389595 0.122508 0.359713
2878 2 0.390691 0.100017 0.370582
2658 4 0.342209 0.126084 0.351245
2552 4 0.50309 0.100765 0.350814
2551 2 0.493004 0.118786 0.36491
2553 4 0.482919 0.136808 0.379005
420 4 0.48385 0.149379 0.395154
418 2 0.486316 0.144758 0.419603
2585 4 0.0208165 0.239395 0.344972
2584 2 0.0039539 0.242535 0.363164
2613 4 0.0853346 0.180774 0.420408
341 4 0.100893 0.187245 0.408902
340 2 0.11356 0.208232 0.403976
342 4 0.126227 0.229219 0.39905
390 4 0.145177 0.205516 0.350532
707 4 0.165426 0.20968 0.344648
708 4 0.194354 0.170249 0.355093
706 2 0.17989 0.189965 0.34987
371 4 0.232255 0.218477 0.394143
370 2 0.244992 0.239022 0.400535
400 2 0.232315 0.18076 0.393111
401 4 0.240619 0.202829 0.384793
508 2 0.305364 0.249192 0.333989
1030 2 0.35232 0.165209 0.367912
1032 4 0.357476 0.188967 0.373757
750 4 0.13727 0.265309 0.329391
824 4 0.16692 0.271799 0.411872
374 4 0.24664 0.305303 0.378678
373 2 0.225438 0.317817 0.374314
372 4 0.257729 0.259567 0.406926
375 4 0.204237 0.330332 0.36995
509 4 0.317842 0.264767 0.349053
602 4 0.261227 0.314071 0.388073
601 2 0.278902 0.324799 0.402133
603 4 0.296577 0.335526 0.416194
716 4 0.375309 0.26864 0.387607
717 4 0.334329 0.268827 0.35895
488 4 0.39485 0.273603 0.391124
715 2 0.354819 0.268734 0.373278
487 2 0.397005 0.290328 0.409585
444 4 0.0483183 0.361067 0.406854
364 2 0.207966 0.347347 0.330352
366 4 0.207513 0.332099 0.350163
2655 4 0.151156 0.396392 0.357813
433 2 0.268419 0.386464 0.354923
434 4 0.283039 0.400466 0.369599
614 4 0.332535 0.397607 0.339525
2925 4 0.393794 0.396225 0.411652
118 3 0.413192 0.360112 0.394284
116 1 0.424739 0.37532 0.407467
585 4 0.428155 0.403228 0.385243
119 3 0.438046 0.388864 0.394129
120 3 0.437644 0.364246 0.422615
2109 4 0.307142 0.479403 0.410504
2107 2 0.31148 0.461944 0.393139
2108 4 0.315818 0.444485 0.375773
615 4 0.329616 0.442513 0.361335
613 2 0.331076 0.42006 0.35043
1698 4 0.299274 0.494241 0.420122
2923 2 0.380414 0.417255 0.409679
2924 4 0.367035 0.438285 0.407706
583 2 0.438505 0.425151 0.379125
584 4 0.448855 0.447074 0.373006
542 4 0.444966 0.462302 0.361358
541 2 0.44241 0.484155 0.349479
982 2 0.0201301 0.0772225 0.498588
726 4 0.251549 0.0819107 0.496401
599 4 0.310603 0.0616758 0.471507
598 2 0.301942 0.0382386 0.47244
3159 4 0.308938 0.0791012 0.482103
2241 4 0.304719 0.00066957 0.482621
600 4 0.293281 0.0148015 0.473372
843 4 0.356444 0.0110705 0.483824
841 2 0.354577 0.0335212 0.494671
842 4 0.35271 0.0559719 0.505518
1061 4 0.410685 0.0555238 0.474231
1060 2 0.420472 0.0643399 0.495483
983 4 0.0420451 0.0892491 0.499109
1035 4 0.0547638 0.0912945 0.483884
1033 2 0.0750416 0.10183 0.473735
1034 4 0.0953194 0.112365 0.463586
938 4 0.10632 0.121823 0.449393
937 2 0.0955895 0.127138 0.427444
649 2 0.247723 0.084006 0.437503
650 4 0.248915 0.10182 0.455007
474 4 0.245366 0.120492 0.449846
472 2 0.224263 0.127067 0.461533
473 4 0.203159 0.133643 0.47322
3157 2 0.327239 0.0908238 0.494465
2500 2 0.357087 0.136829 0.483342
2501 4 0.361712 0.153546 0.465333
320 4 0.375056 0.167827 0.45956
3158 4 0.345541 0.102546 0.506827
3266 4 0.993066 0.184379 0.488407
2611 2 0.0662725 0.192079 0.431984
2612 4 0.0472104 0.203384 0.443561
2847 4 0.0572249 0.215546 0.454826
2845 2 0.0528622 0.23972 0.459494
368 4 0.161139 0.236518 0.494281
367 2 0.173723 0.232875 0.472984
369 4 0.186308 0.229232 0.451688
825 4 0.191854 0.233302 0.431796
823 2 0.179387 0.25255 0.421834
642 4 0.358965 0.221484 0.470838
319 2 0.372811 0.189015 0.472645
321 4 0.370567 0.210203 0.48573
640 2 0.344143 0.241616 0.471259
2846 4 0.0484994 0.263893 0.464161
260 4 0.0628246 0.276869 0.46643
259 2 0.0872111 0.281363 0.469637
261 4 0.111598 0.285856 0.472843
669 4 0.15216 0.276771 0.424092
667 2 0.132072 0.2818 0.438105
668 4 0.111984 0.286829 0.452119
695 4 0.144346 0.30421 0.488481
694 2 0.149016 0.27983 0.491479
696 4 0.153687 0.25545 0.494477
1394 4 0.246501 0.287181 0.487713
1190 4 0.252043 0.276799 0.471361
1189 2 0.256582 0.266463 0.44905
1191 4 0.261121 0.256127 0.42674
813 4 0.324873 0.31787 0.468814
811 2 0.325508 0.293997 0.461409
641 4 0.329321 0.261748 0.47168
489 4 0.39916 0.307053 0.428046
812 4 0.326142 0.270123 0.454004
267 4 0.416475 0.3157 0.432347
265 2 0.439191 0.314749 0.442752
451 2 0.493803 0.290653 0.439747
453 4 0.480089 0.309973 0.447736
266 4 0.461907 0.313798 0.453157
443 4 0.0777195 0.379955 0.442625
442 2 0.0630189 0.370511 0.42474
1640 4 0.0748252 0.384538 0.463573
636 4 0.128699 0.329126 0.432693
1639 2 0.0872986 0.405805 0.459412
634 2 0.151729 0.335982 0.439609
635 4 0.174758 0.342838 0.446524
873 4 0.306334 0.353679 0.41991
871 2 0.313726 0.34553 0.442363
872 4 0.321118 0.337381 0.464816
117 3 0.409559 0.388502 0.418644
547 2 0.0108342 0.485617 0.426678
1641 4 0.099772 0.427071 0.45525
2138 4 0.0994824 0.485286 0.454421
2139 4 0.106561 0.437616 0.441071
2137 2 0.103021 0.461451 0.447746
711 4 0.221641 0.447547 0.472143
710 4 0.207886 0.45997 0.425698
326 4 0.216588 0.440822 0.489653
709 2 0.214763 0.453758 0.44892
1484 4 0.402761 0.489722 0.437693
446 4 0.387782 0.49219 0.424394
1485 4 0.421678 0.518823 0.473693
1643 4 0.496073 0.477108 0.497006
1483 2 0.41222 0.504272 0.455693
239 4 0.511181 0.430126 0.462125
2314 2 0.190216 0.0650946 0.548231
2316 4 0.181434 0.049512 0.53076
1151 4 0.18398 0.0302933 0.532038
1150 2 0.197348 0.00950929 0.528231
724 2 0.252539 0.0825311 0.521377
1180 2 0.246091 0.0648704 0.573616
1181 4 0.262628 0.0813562 0.564676
725 4 0.25353 0.0831514 0.546354
2239 2 0.305806 0.996251 0.507207
1141 2 0.374089 0.0317176 0.554895
1143 4 0.351879 0.042478 0.550885
1142 4 0.3963 0.0209573 0.558906
576 4 0.404955 0.0139131 0.575439
1062 4 0.430259 0.073156 0.516736
574 2 0.427662 0.0125744 0.58582
3462 4 0.0781347 0.158111 0.547491
916 2 0.165275 0.15419 0.560529
944 4 0.205807 0.145134 0.544751
2315 4 0.198997 0.0806773 0.565703
945 4 0.209108 0.0966599 0.556586
943 2 0.207458 0.120897 0.550669
917 4 0.185404 0.143629 0.550113
856 2 0.306809 0.159581 0.567163
858 4 0.296577 0.150132 0.587928
2502 4 0.352462 0.120112 0.501351
2516 4 0.442158 0.08863 0.509314
2515 2 0.460287 0.0957273 0.525002
2517 4 0.478417 0.102825 0.540691
3461 4 0.06457 0.20577 0.554222
3044 4 0.0708702 0.214684 0.537246
3460 2 0.0713524 0.181941 0.550856
918 4 0.145147 0.164751 0.570945
7 3 0.136802 0.209317 0.523716
6 1 0.144849 0.230435 0.528011
8 3 0.151776 0.231468 0.550132
3043 2 0.0851212 0.234081 0.530475
10 3 0.128314 0.245656 0.524327
348 4 0.161662 0.246373 0.560598
9 3 0.162775 0.234646 0.513892
346 2 0.186579 0.244497 0.561497
347 4 0.211496 0.242622 0.562396
411 4 0.230599 0.237894 0.565237
857 4 0.317041 0.16903 0.546397
899 4 0.40479 0.188768 0.546204
898 2 0.384517 0.189223 0.560832
900 4 0.364244 0.189678 0.57546
269 4 0.423081 0.253025 0.564428
268 2 0.446352 0.247376 0.557236
270 4 0.469622 0.241727 0.550044
3309 4 0.477183 0.226398 0.562151
3307 2 0.499855 0.21725 0.556911
3045 4 0.0993723 0.253478 0.523703
935 4 0.113086 0.260923 0.537165
934 2 0.111553 0.281045 0.551929
936 4 0.110019 0.301166 0.566692
409 2 0.240752 0.25958 0.55804
1393 2 0.2466 0.290791 0.512454
1395 4 0.246698 0.2944 0.537196
410 4 0.250906 0.281266 0.550842
1039 2 0.0497471 0.381539 0.562593
1040 4 0.0293237 0.370018 0.553915
384 4 0.029548 0.357789 0.538425
1041 4 0.0701706 0.393061 0.571272
1136 4 0.081377 0.401229 0.557924
382 2 0.0145034 0.338101 0.535073
1135 2 0.0928159 0.413152 0.539158
774 4 0.161334 0.396576 0.576058
772 2 0.177806 0.404711 0.559097
773 4 0.194278 0.412846 0.542136
1173 4 0.266808 0.387303 0.522638
1171 2 0.288898 0.392877 0.532941
1172 4 0.310988 0.398452 0.543243
1137 4 0.104255 0.425076 0.520392
540 4 0.101699 0.442612 0.511353
538 2 0.120038 0.457253 0.519984
2243 4 0.155754 0.47632 0.519214
539 4 0.138376 0.471895 0.528614
1981 2 0.130774 0.489931 0.57045
327 4 0.212008 0.413531 0.531305
2242 2 0.170718 0.493734 0.509314
325 2 0.214298 0.427177 0.510479
1455 4 0.272611 0.493007 0.567811
1028 4 0.310682 0.41481 0.556099
1027 2 0.332837 0.426229 0.558091
1029 4 0.354991 0.437648 0.560082
1239 4 0.372792 0.431113 0.565945
1953 4 0.42123 0.500179 0.511651
1980 4 0.477294 0.482785 0.491454
1978 2 0.457708 0.488232 0.50601
718 2 0.0085018 0.0101733 0.615585
1182 4 0.229553 0.0483846 0.582555
966 4 0.324753 0.999848 0.629794
1130 4 0.328202 0.0824128 0.600603
1005 4 0.333 0.0164823 0.622933
959 4 0.259521 0.0679746 0.665194
1003 2 0.332891 0.0400401 0.614555
1004 4 0.332783 0.0635979 0.606176
3438 4 0.466239 0.0101013 0.61036
575 4 0.450369 0.0112356 0.596202
3436 2 0.487021 0.0200704 0.620049
1212 4 0.142403 0.159702 0.589885
1210 2 0.146324 0.166891 0.61351
1155 4 0.251265 0.1513 0.633215
1283 4 0.250589 0.152581 0.652957
1282 2 0.226222 0.147871 0.656001
1153 2 0.266149 0.136324 0.619822
1131 4 0.286399 0.104578 0.616787
1154 4 0.281034 0.121349 0.60643
1129 2 0.307301 0.0934955 0.608695
950 4 0.332528 0.151573 0.636293
949 2 0.312712 0.164716 0.644023
2319 4 0.349557 0.151656 0.647677
2317 2 0.35239 0.126829 0.648555
2318 4 0.355223 0.102002 0.649434
1211 4 0.150245 0.17408 0.637134
1259 4 0.157472 0.192075 0.632468
1258 2 0.168926 0.214278 0.63146
1260 4 0.180381 0.23648 0.630452
978 4 0.252899 0.228561 0.671045
951 4 0.292896 0.177859 0.651754
977 4 0.288935 0.198471 0.653819
976 2 0.270917 0.213516 0.662432
895 2 0.160161 0.266983 0.648374
896 4 0.155074 0.283048 0.666846
992 4 0.136227 0.287131 0.669868
897 4 0.165249 0.250918 0.629902
790 2 0.460307 0.302674 0.642812
791 4 0.442784 0.308839 0.659548
807 4 0.430596 0.322299 0.652069
792 4 0.47783 0.296508 0.626075
1281 4 0.0185694 0.374279 0.663121
3420 4 0.00690527 0.361888 0.655801
940 2 0.13557 0.406218 0.659931
942 4 0.122654 0.403402 0.638707
890 4 0.342402 0.398295 0.596671
889 2 0.333504 0.37515 0.593461
805 2 0.416624 0.340658 0.642429
891 4 0.324606 0.352004 0.590251
806 4 0.402652 0.359017 0.63279
803 4 0.395257 0.375432 0.643413
802 2 0.40212 0.397592 0.634086
804 4 0.408984 0.419752 0.624759
1983 4 0.120744 0.475314 0.588084
2130 4 0.115447 0.46009 0.599891
2128 2 0.118799 0.438492 0.612035
2129 4 0.122152 0.416894 0.624178
1205 4 0.329668 0.406552 0.610964
1237 2 0.384905 0.427648 0.587542
1238 4 0.397019 0.424184 0.60914
1204 2 0.341641 0.425115 0.62268
1206 4 0.353614 0.443677 0.634396
1139 4 0.348821 0.438257 0.65298
3464 4 0.490054 0.434376 0.656829
3372 4 0.417122 0.470673 0.632903
1007 4 0.432724 0.464317 0.641986
3370 2 0.417241 0.493126 0.643906
1006 2 0.454728 0.452466 0.642733
1008 4 0.476732 0.440614 0.64348
1256 4 0.265148 0.0525486 0.676316
1255 2 0.270229 0.0285601 0.671426
958 2 0.254167 0.0911185 0.672996
886 2 0.409639 0.0224947 0.672532
952 2 0.410213 0.0699563 0.708668
888 4 0.415475 0.0464478 0.676699
954 4 0.397848 0.084792 0.724548
953 4 0.422578 0.0551206 0.692787
947 4 0.14868 0.158554 0.703177
851 4 0.137282 0.16613 0.719213
850 2 0.120452 0.161549 0.737128
946 2 0.168068 0.153074 0.688369
1284 4 0.201856 0.143161 0.659045
948 4 0.187455 0.147594 0.673561
960 4 0.248814 0.114263 0.680799
2256 4 0.264769 0.120791 0.692363
2255 4 0.279126 0.164611 0.711713
2254 2 0.271947 0.142701 0.702038
1026 4 0.394525 0.0916113 0.742933
1299 4 0.161853 0.219853 0.728333
1084 2 0.21224 0.231435 0.674708
1086 4 0.234639 0.220325 0.674879
1085 4 0.189841 0.242546 0.674536
1068 4 0.0688162 0.291903 0.67492
154 3 0.0117931 0.283058 0.698123
1067 4 0.0257807 0.297187 0.699835
1066 2 0.0472985 0.294545 0.687377
885 4 0.0247913 0.314279 0.712048
883 2 0.0335805 0.334868 0.723185
155 3 0.0048016 0.316072 0.714822
991 2 0.111879 0.29275 0.670747
993 4 0.0875307 0.298368 0.671625
796 2 0.266944 0.315105 0.749459
1279 2 0.0227337 0.375123 0.687761
1280 4 0.0268981 0.375967 0.7124
815 4 0.029858 0.366621 0.746196
884 4 0.0423698 0.355457 0.734322
814 2 0.0156487 0.387156 0.744942
941 4 0.148486 0.409034 0.681154
1098 4 0.161835 0.401152 0.693082
1278 4 0.230137 0.383563 0.700819
1276 2 0.240092 0.365794 0.715322
1097 4 0.208477 0.384022 0.698723
1096 2 0.185156 0.392587 0.695902
1277 4 0.250047 0.348025 0.729826
797 4 0.259196 0.338761 0.747109
1016 4 0.341821 0.379952 0.739826
1019 4 0.324822 0.382007 0.749786
1017 4 0.346757 0.408707 0.699211
1015 2 0.344289 0.39433 0.719518
3465 4 0.478782 0.401534 0.692816
999 4 0.473594 0.392568 0.712839
997 2 0.460216 0.381528 0.730848
998 4 0.446838 0.370488 0.748857
3463 2 0.484418 0.417955 0.674823
1140 4 0.348735 0.427967 0.701917
1138 2 0.348778 0.433112 0.677449
3368 4 0.485891 0.485933 0.718036
3367 2 0.491574 0.48947 0.693945
2311 2 0.0106335 0.0212219 0.808403
2312 4 0.0253222 0.0385171 0.818905
1214 4 0.037434 0.054503 0.815852
2990 4 0.115591 0.0216707 0.748606
2989 2 0.138396 0.0283771 0.75636
2991 4 0.161202 0.0350836 0.764113
908 4 0.159183 0.0382798 0.783909
907 2 0.158864 0.0523643 0.804566
909 4 0.158545 0.0664488 0.825223
2321 4 0.350747 0.995598 0.823266
2320 2 0.373541 0.00338862 0.816562
1024 2 0.384622 0.0761454 0.759901
1025 4 0.374719 0.0606795 0.776869
819 4 0.410128 0.0255028 0.812242
2322 4 0.396334 0.0111789 0.809858
817 2 0.424471 0.0418496 0.82458
42 3 0.504934 0.066387 0.801415
818 4 0.438815 0.0581964 0.836918
834 4 0.00374651 0.0777106 0.783095
832 2 0.0278223 0.0838835 0.780369
833 4 0.051898 0.0900564 0.777643
863 4 0.0718572 0.0904367 0.784035
852 4 0.103623 0.156968 0.755043
862 2 0.0900345 0.10348 0.795198
864 4 0.108212 0.116524 0.806362
868 2 0.146069 0.13827 0.815031
870 4 0.122941 0.12891 0.813405
1022 4 0.215284 0.166571 0.767927
1091 4 0.252219 0.165177 0.837687
1038 4 0.331927 0.0911636 0.834201
41 1 0.497751 0.0850789 0.812736
43 3 0.475151 0.0881915 0.808498
922 2 0.0738476 0.23812 0.777428
923 4 0.0735192 0.213136 0.776519
1179 4 0.0622798 0.199471 0.787361
1177 2 0.0776321 0.181582 0.779027
869 4 0.169197 0.147631 0.816657
1178 4 0.0929844 0.163692 0.770694
1297 2 0.168975 0.226385 0.751393
1298 4 0.176097 0.232918 0.774453
1023 4 0.228513 0.183885 0.812937
1021 2 0.221898 0.175228 0.790432
838 2 0.193961 0.228631 0.806694
840 4 0.184229 0.218072 0.786226
32 3 0.223305 0.186549 0.832763
3328 2 0.299227 0.211233 0.811258
1092 4 0.299503 0.167843 0.821631
3329 4 0.296372 0.187039 0.816883
3330 4 0.302082 0.235428 0.805633
1090 2 0.275861 0.16651 0.829659
1043 4 0.303221 0.241653 0.786069
924 4 0.0741761 0.263105 0.778337
1064 4 0.169388 0.29933 0.815341
1208 4 0.156125 0.297284 0.829127
1207 2 0.146776 0.281875 0.846458
1065 4 0.212473 0.32029 0.801021
1063 2 0.190931 0.30981 0.808181
1241 4 0.229254 0.328664 0.79773
839 4 0.203693 0.239191 0.827163
798 4 0.274693 0.291448 0.75181
1044 4 0.274449 0.278315 0.767937
1042 2 0.288835 0.259984 0.777003
1094 4 0.312369 0.265218 0.825419
3348 4 0.367873 0.285348 0.814616
1051 2 0.392901 0.310511 0.813553
3346 2 0.347832 0.276063 0.826334
1052 4 0.368534 0.305157 0.81522
865 2 0.451556 0.31734 0.786114
866 4 0.472759 0.323042 0.774152
1166 4 0.482435 0.305074 0.773982
867 4 0.430353 0.311637 0.798076
1053 4 0.417268 0.315866 0.811885
1170 4 0.0137404 0.360104 0.808764
1168 2 0.0198759 0.376811 0.826326
1240 2 0.232121 0.351656 0.807129
1242 4 0.234987 0.374647 0.816529
1018 2 0.333942 0.367127 0.767691
85 3 0.320885 0.41486 0.780112
1020 4 0.343061 0.352246 0.785596
189 3 0.383342 0.393335 0.803251
186 1 0.400466 0.405702 0.793647
3011 4 0.488797 0.389264 0.806201
187 3 0.418687 0.39201 0.790539
1250 4 0.478376 0.385803 0.788814
1249 2 0.455605 0.394881 0.793738
1251 4 0.432834 0.403959 0.798661
2030 4 0.247417 0.482329 0.769175
2029 2 0.234426 0.491287 0.78857
84 3 0.295159 0.433558 0.759958
83 3 0.299352 0.440688 0.797052
81 1 0.310337 0.434869 0.777459
82 3 0.325928 0.451065 0.772584
2214 4 0.343069 0.44269 0.766899
188 3 0.393685 0.413957 0.773049
2213 4 0.382352 0.414024 0.755245
2212 2 0.36271 0.428357 0.761072
190 3 0.406272 0.422912 0.807386
1988 4 0.426782 0.421397 0.805822
1987 2 0.434273 0.438949 0.821977
1116 4 0.451838 0.472831 0.845701
1989 4 0.441763 0.456502 0.838131
1215 4 0.0750789 0.0683046 0.845737
1213 2 0.0562564 0.0614038 0.830795