ITEM: TIMESTEP
680000
ITEM: NUMBER OF ATOMS
4590
ITEM: BOX BOUNDS pp pp pp
-9.9985700000000008e+00 9.9985700000000008e+00
-9.9985700000000008e+00 9.9985700000000008e+00
-9.9985700000000008e+00 9.9985700000000008e+00
ITEM: ATOMS id type xs ys zs
702 4 0.079252 0.0299023 0.0637795
1668 4 0.0764915 0.0169736 0.0501229
2576 4 0.00954309 0.0572165 0.0686203
1667 4 0.0943542 0.0352902 0.00715615
700 2 0.0889679 0.0439035 0.0820756
1666 2 0.0854229 0.0261319 0.0286395
1540 2 0.346364 0.00335387 0.997912
1607 4 0.433789 0.0651758 0.0335212
1606 2 0.450503 0.0683718 0.0518411
1608 4 0.467216 0.0715678 0.070161
2976 4 0.503213 0.0271185 0.0794834
1761 4 0.45604 0.994563 0.0290213
3233 4 0.0156217 0.120846 0.0128275
2760 4 0.0672872 0.118937 0.0704809
591 4 0.0693269 0.116557 0.090472
3232 2 0.00607841 0.136981 0.0293726
2758 2 0.0818903 0.138953 0.0671251
2759 4 0.0964934 0.15897 0.0637692
738 4 0.114614 0.149131 0.0653274
736 2 0.134315 0.159445 0.0767584
356 4 0.221344 0.155035 0.0412887
567 4 0.227172 0.143974 0.0251023
565 2 0.215229 0.136468 0.0044576
556 2 0.337221 0.123799 0.00962188
558 4 0.354134 0.141932 0.0128307
665 4 0.360332 0.159889 0.0158046
2793 4 0.410413 0.144695 0.0703627
477 4 0.0953816 0.245351 0.0758672
475 2 0.107218 0.239582 0.0546118
476 4 0.119055 0.233813 0.0333564
704 4 0.0844913 0.229577 0.0708201
355 2 0.22484 0.176079 0.0543323
573 4 0.234354 0.214645 0.0600474
357 4 0.228337 0.197122 0.067376
571 2 0.249433 0.230066 0.0473983
572 4 0.264511 0.245487 0.0347491
664 2 0.369954 0.18212 0.0220002
254 4 0.394179 0.211205 0.0160687
666 4 0.379575 0.204351 0.0281958
253 2 0.418184 0.207036 0.0104495
255 4 0.442189 0.202868 0.00483028
294 4 0.155647 0.30258 0.0199579
456 4 0.144457 0.310955 0.0336816
292 2 0.141465 0.28673 0.00681192
454 2 0.146114 0.330341 0.049385
251 4 0.252389 0.326754 0.0580839
483 4 0.247638 0.320668 0.039232
352 2 0.248188 0.255598 0.99584
353 4 0.262645 0.247966 0.0147588
1071 4 0.378249 0.297311 0.00101107
1069 2 0.3663 0.314117 0.015152
621 4 0.993334 0.346357 0.0748585
455 4 0.147772 0.349728 0.0650883
287 4 0.154119 0.361038 0.0804226
250 2 0.237675 0.338055 0.0748463
902 4 0.233673 0.362742 0.00255417
481 2 0.249323 0.33705 0.0204179
482 4 0.251008 0.353432 0.00160381
1070 4 0.354351 0.330923 0.0292929
957 4 0.34367 0.348299 0.0295624
955 2 0.332546 0.355066 0.00821636
672 4 0.418126 0.406504 0.0823741
670 2 0.417972 0.38163 0.0849181
671 4 0.417818 0.356757 0.0874621
551 4 0.0318806 0.4714 0.0317716
330 4 0.0243955 0.467335 0.0491987
550 2 0.0543761 0.470354 0.0209069
552 4 0.0768715 0.469309 0.0100423
328 2 0.00372692 0.45801 0.0386611
1788 4 0.107775 0.482374 0.0668346
241 2 0.260081 0.497463 0.00946621
243 4 0.25377 0.473343 0.00757549
1777 2 0.311471 0.499716 0.0855536
493 2 0.384568 0.442357 0.0352224
494 4 0.370247 0.452626 0.0529606
495 4 0.398888 0.432087 0.0174841
525 4 0.365766 0.458455 0.0713331
1778 4 0.334646 0.503269 0.0768648
660 4 0.430625 0.503274 0.0744372
381 4 0.0038842 0.0631373 0.153021
379 2 0.0161605 0.0818665 0.1419
701 4 0.0986837 0.0579048 0.100372
450 4 0.107445 0.0510193 0.117615
448 2 0.12874 0.0481881 0.130411
449 4 0.150034 0.0453569 0.143206
578 4 0.160168 0.0337945 0.155722
577 2 0.17389 0.0494492 0.169572
1474 2 0.319396 0.0154721 0.129021
1476 4 0.317607 0.0229819 0.105239
654 4 0.310761 0.0395183 0.0943025
652 2 0.305676 0.0633579 0.09987
1662 4 0.316271 0.0109937 0.172275
653 4 0.300591 0.0871974 0.105437
1784 4 0.42344 0.00649271 0.13918
746 4 0.460223 0.0740602 0.0888604
745 2 0.476018 0.0830407 0.106037
2468 4 0.504502 0.0187444 0.143992
22 3 0.421021 0.0838413 0.149254
2724 4 0.498593 0.999912 0.151425
2467 2 0.498064 0.0227496 0.120166
2469 4 0.491625 0.0267549 0.0963397
1783 2 0.428321 0.00161296 0.163213
590 4 0.045615 0.0909562 0.126292
380 4 0.0284369 0.100596 0.130778
589 2 0.0574709 0.103756 0.108382
297 4 0.310181 0.104408 0.107588
295 2 0.306719 0.121616 0.125395
296 4 0.303256 0.138824 0.143201
581 4 0.322036 0.134448 0.148265
580 2 0.332291 0.143484 0.169202
747 4 0.491813 0.0920211 0.123214
2791 2 0.42274 0.150445 0.0913425
655 2 0.0148575 0.214161 0.0891865
657 4 0.0391069 0.213855 0.0952737
705 4 0.0537717 0.220126 0.109131
703 2 0.0691315 0.224851 0.0899755
737 4 0.154016 0.169758 0.0881895
507 4 0.144826 0.187597 0.092733
505 2 0.151409 0.209655 0.102497
506 4 0.157992 0.231712 0.112261
460 2 0.233098 0.243171 0.133343
462 4 0.235492 0.221808 0.146113
278 4 0.220449 0.218141 0.159799
309 4 0.308822 0.24923 0.166078
2792 4 0.435067 0.156196 0.112322
2895 4 0.482624 0.188628 0.089737
395 4 0.0291774 0.284853 0.157053
646 2 0.0637149 0.338971 0.1612
755 4 0.175486 0.240199 0.113035
754 2 0.178615 0.251827 0.134948
756 4 0.181745 0.263454 0.156862
623 4 0.233227 0.282884 0.129783
461 4 0.230704 0.264534 0.120573
612 4 0.227163 0.338286 0.162417
622 2 0.248839 0.302069 0.126125
624 4 0.26445 0.321255 0.122466
740 4 0.281861 0.330237 0.116466
518 4 0.337022 0.293358 0.108762
519 4 0.356206 0.251431 0.0894018
517 2 0.346614 0.272394 0.0990816
12 3 0.374645 0.32292 0.13392
11 1 0.359842 0.319621 0.151216
324 4 0.392806 0.329672 0.131183
322 2 0.408804 0.33432 0.112538
13 3 0.352268 0.297699 0.150529
15 3 0.34231 0.333975 0.148925
2876 4 0.495203 0.256579 0.114953
2839 2 0.448004 0.332356 0.158475
648 4 0.0495155 0.353205 0.146335
286 2 0.17824 0.357871 0.0861957
288 4 0.202361 0.354704 0.0919688
252 4 0.222961 0.349355 0.0916087
609 4 0.200299 0.387471 0.141417
607 2 0.213137 0.366038 0.142406
626 4 0.214738 0.401175 0.142084
608 4 0.225974 0.344604 0.143396
739 2 0.30421 0.334193 0.126957
741 4 0.32656 0.338148 0.137448
245 4 0.317826 0.40272 0.14584
387 4 0.326577 0.38532 0.144507
385 2 0.347738 0.373231 0.150096
386 4 0.368899 0.361142 0.155686
323 4 0.424802 0.338967 0.093893
2841 4 0.45615 0.350403 0.143207
2650 2 0.475444 0.368287 0.120915
2651 4 0.47569 0.351929 0.139823
2652 4 0.475199 0.384645 0.102006
596 4 0.472361 0.403515 0.110022
262 2 0.0882004 0.460629 0.159384
1786 2 0.12246 0.475948 0.0860238
1787 4 0.137146 0.469522 0.105213
264 4 0.107671 0.474602 0.152257
289 2 0.14861 0.434451 0.165257
1665 4 0.117785 0.485095 0.1652
625 2 0.200777 0.419186 0.152373
627 4 0.186816 0.437198 0.162662
291 4 0.169939 0.447309 0.163045
1779 4 0.288297 0.496162 0.0942424
244 2 0.324854 0.42417 0.135085
246 4 0.331883 0.44562 0.12433
524 4 0.344274 0.4586 0.116486
523 2 0.35502 0.458528 0.0939095
658 2 0.431477 0.480267 0.0841906
659 4 0.432328 0.45726 0.093944
595 2 0.459915 0.423379 0.101323
597 4 0.447469 0.443244 0.0926234
1422 4 0.0187911 0.0608819 0.16651
1420 2 0.0137658 0.0505013 0.188695
1421 4 0.00874045 0.0401206 0.21088
1404 4 0.00824751 0.0486119 0.229684
579 4 0.187612 0.0651038 0.183422
1504 2 0.221287 0.0166252 0.199161
692 4 0.234752 0.0494437 0.223739
1505 4 0.222719 0.0384193 0.211332
1506 4 0.219856 0.994831 0.186989
691 2 0.252092 0.0668706 0.228299
27 3 0.2965 0.0717009 0.241359
693 4 0.269432 0.0842975 0.23286
25 3 0.414078 0.0731418 0.184328
1660 2 0.336573 0.00389433 0.185026
21 1 0.422435 0.0899202 0.171394
236 4 0.195082 0.0829489 0.18555
235 2 0.187932 0.106905 0.185921
237 4 0.180781 0.130862 0.186291
732 4 0.228139 0.148505 0.226108
722 4 0.244235 0.143581 0.213775
730 2 0.205434 0.150511 0.236386
279 4 0.20951 0.170054 0.168091
721 2 0.253214 0.120412 0.216563
723 4 0.262193 0.0972438 0.21935
28 3 0.276359 0.103037 0.246362
30 3 0.313105 0.104993 0.238389
757 2 0.394242 0.141838 0.194398
582 4 0.342546 0.152519 0.19014
758 4 0.396852 0.117481 0.189387
24 3 0.410116 0.109312 0.17465
759 4 0.391632 0.166194 0.19941
23 3 0.4447 0.0936897 0.176731
277 2 0.214979 0.194097 0.163945
629 4 0.405865 0.17839 0.204547
630 4 0.404625 0.228006 0.198428
628 2 0.405245 0.203198 0.201488
708 4 0.343838 0.181474 0.246728
764 4 0.3392 0.246434 0.255433
763 2 0.335406 0.22186 0.252799
522 4 0.457199 0.240233 0.24896
520 2 0.464094 0.245931 0.225611
647 4 0.0779143 0.324737 0.176064
394 2 0.0178198 0.275019 0.17704
363 4 0.137804 0.29148 0.172746
362 4 0.0968641 0.320112 0.170539
361 2 0.117334 0.305796 0.171642
339 4 0.151134 0.30314 0.180133
337 2 0.164417 0.299113 0.20093
544 2 0.149008 0.256215 0.239201
546 4 0.126538 0.245314 0.238013
735 4 0.108591 0.327021 0.249002
338 4 0.1777 0.295085 0.221727
344 4 0.187854 0.311018 0.229702
343 2 0.212676 0.308063 0.23026
345 4 0.237498 0.305108 0.230818
545 4 0.171479 0.267117 0.24039
307 2 0.311571 0.265896 0.184513
308 4 0.31432 0.282562 0.202949
498 4 0.328458 0.289398 0.215265
14 3 0.370762 0.323604 0.171298
496 2 0.336079 0.278473 0.236424
497 4 0.3437 0.267547 0.257584
527 4 0.456013 0.303521 0.170849
2840 4 0.439858 0.314308 0.173742
526 2 0.467064 0.282367 0.178302
521 4 0.47099 0.251629 0.202263
528 4 0.478115 0.261213 0.185756
415 2 0.0739797 0.413182 0.18857
416 4 0.0850081 0.398903 0.205881
536 4 0.0966224 0.340135 0.240423
537 4 0.0932833 0.383604 0.215929
535 2 0.0949529 0.361869 0.228176
610 2 0.237116 0.341449 0.185135
728 4 0.245178 0.355619 0.224728
611 4 0.24707 0.344613 0.207852
727 2 0.264641 0.35363 0.240297
644 4 0.383555 0.362167 0.168875
643 2 0.396829 0.365731 0.189763
541 2 0.419467 0.383243 0.240927
645 4 0.410102 0.369295 0.210651
542 4 0.425502 0.379458 0.21696
263 4 0.0687293 0.446656 0.166512
417 4 0.0629514 0.42746 0.171258
290 4 0.12728 0.421592 0.167468
1775 4 0.108417 0.481088 0.242827
768 4 0.171057 0.48019 0.207103
766 2 0.19341 0.487465 0.198584
301 2 0.302096 0.478825 0.18451
302 4 0.318918 0.465665 0.19751
1574 4 0.331901 0.480579 0.200848
1573 2 0.35674 0.477979 0.202031
1575 4 0.38158 0.475378 0.203214
230 4 0.397268 0.486083 0.209183
229 2 0.404027 0.480108 0.232502
2862 4 0.483286 0.482035 0.209126
231 4 0.410786 0.474133 0.255822
1568 4 0.486655 0.500254 0.198865
429 4 0.118817 0.0257616 0.310388
427 2 0.112956 0.0380439 0.289413
428 4 0.107095 0.0503263 0.268437
1479 4 0.124088 0.0125886 0.323948
398 4 0.0919259 0.0512506 0.328864
368 4 0.172692 0.0770878 0.333002
249 4 0.280375 0.0623633 0.321471
1700 4 0.27027 0.0712153 0.336337
1749 4 0.443929 0.997798 0.311636
1748 4 0.447064 0.0472436 0.318423
1747 2 0.445497 0.022521 0.31503
743 4 0.45243 0.0592506 0.333045
457 2 0.00719113 0.116098 0.334799
529 2 0.0365135 0.147096 0.293834
530 4 0.0192384 0.132676 0.304735
458 4 0.0132382 0.114039 0.310625
531 4 0.0537886 0.161516 0.282934
367 2 0.166416 0.100856 0.337568
605 4 0.184589 0.126655 0.311309
604 2 0.183836 0.135518 0.287941
606 4 0.183084 0.144382 0.264573
731 4 0.182729 0.152516 0.246664
404 4 0.241276 0.153301 0.323754
600 4 0.225339 0.15183 0.335668
26 1 0.29713 0.0931931 0.249534
403 2 0.260522 0.141644 0.312849
247 2 0.281234 0.0861933 0.313949
29 3 0.302176 0.0924627 0.272171
405 4 0.279768 0.129988 0.301945
248 4 0.282094 0.110023 0.306428
633 4 0.323331 0.135971 0.281862
631 2 0.320975 0.12331 0.303293
632 4 0.31862 0.110648 0.324725
698 4 0.331755 0.0952579 0.323571
707 4 0.340511 0.14242 0.277784
706 2 0.342174 0.161947 0.262256
351 4 0.412452 0.167568 0.312062
420 4 0.418461 0.152056 0.300182
418 2 0.442336 0.155442 0.293575
419 4 0.466212 0.158827 0.286968
513 4 0.0695569 0.156069 0.270298
511 2 0.080738 0.177875 0.275262
512 4 0.0919191 0.199682 0.280226
393 4 0.0983002 0.218995 0.28557
391 2 0.104991 0.23463 0.267241
390 4 0.164565 0.233435 0.305028
392 4 0.111682 0.250265 0.248912
284 4 0.212064 0.248127 0.290653
371 4 0.182464 0.224127 0.311642
370 2 0.196129 0.2324 0.330878
765 4 0.331611 0.197287 0.250166
378 4 0.351662 0.231947 0.330024
376 2 0.366463 0.243757 0.313695
349 2 0.404175 0.176359 0.333956
377 4 0.381264 0.255567 0.297365
311 4 0.476699 0.172451 0.294971
310 2 0.486926 0.1898 0.30979
388 2 0.153884 0.256011 0.30622
733 2 0.104302 0.314565 0.270253
389 4 0.143204 0.278587 0.307412
734 4 0.100013 0.302108 0.291505
750 4 0.134048 0.295335 0.315123
283 2 0.199727 0.258171 0.271364
285 4 0.18739 0.268216 0.252075
275 4 0.320832 0.320927 0.300185
509 4 0.272996 0.327286 0.31862
276 4 0.362277 0.320654 0.328166
614 4 0.369605 0.301741 0.323961
274 2 0.341554 0.320791 0.314175
120 3 0.484645 0.322322 0.332363
2692 2 0.0193688 0.360336 0.249969
2694 4 0.0438396 0.359063 0.254943
366 4 0.0467354 0.355424 0.273731
364 2 0.0618854 0.354456 0.293599
618 4 0.0814269 0.33598 0.322384
365 4 0.0770354 0.353488 0.313466
299 4 0.0912502 0.392699 0.315521
298 2 0.0989413 0.403231 0.294187
729 4 0.284104 0.351642 0.255867
435 4 0.281291 0.345101 0.317036
433 2 0.280497 0.354964 0.294073
434 4 0.279704 0.364826 0.27111
503 4 0.26291 0.412901 0.319235
543 4 0.413431 0.387029 0.264894
446 4 0.406387 0.403321 0.273174
117 3 0.483033 0.357857 0.321067
2925 4 0.469875 0.371835 0.326068
499 2 0.0575743 0.477798 0.322734
500 4 0.047328 0.496083 0.309101
501 4 0.0678206 0.459513 0.336367
300 4 0.106632 0.413762 0.272854
603 4 0.123873 0.418031 0.262893
602 4 0.109157 0.464807 0.253088
601 2 0.116515 0.441419 0.257991
437 4 0.278745 0.417035 0.308726
436 2 0.282604 0.436366 0.293344
1436 4 0.307031 0.456863 0.279039
438 4 0.286464 0.455697 0.277962
1435 2 0.330059 0.463479 0.28619
1 1 0.350523 0.486863 0.332321
1437 4 0.353087 0.470094 0.29334
5 3 0.350003 0.473573 0.313834
445 2 0.411539 0.427679 0.275483
447 4 0.416691 0.452036 0.277791
713 4 0.425725 0.467996 0.267643
712 2 0.423679 0.486086 0.284781
399 4 0.0777122 0.061288 0.375746
397 2 0.0848191 0.0562693 0.352305
2428 2 0.235057 0.0230759 0.390143
2429 4 0.225842 0.043766 0.379551
1701 4 0.243807 0.0437481 0.368679
440 4 0.335244 0.00694563 0.413894
1699 2 0.257038 0.0574817 0.352508
439 2 0.325157 0.0288501 0.40729
441 4 0.315069 0.0507546 0.400686
699 4 0.357745 0.0759054 0.361659
742 2 0.442112 0.0752425 0.349262
2641 2 0.464478 0.0666944 0.401772
2643 4 0.475572 0.0461274 0.410666
369 4 0.16014 0.124625 0.342134
599 4 0.179616 0.152334 0.355914
598 2 0.202477 0.152082 0.345791
472 2 0.1852 0.160302 0.398009
474 4 0.198411 0.14462 0.3837
683 4 0.218385 0.147293 0.387137
682 2 0.240177 0.144917 0.399165
684 4 0.261968 0.142542 0.411193
466 2 0.29656 0.130243 0.40989
468 4 0.313968 0.113085 0.415157
467 4 0.279152 0.1474 0.404622
697 2 0.34475 0.0855817 0.342615
332 4 0.404 0.149987 0.379203
331 2 0.412548 0.128745 0.369158
333 4 0.421096 0.107504 0.359113
761 4 0.500118 0.139689 0.359747
2642 4 0.453384 0.0872613 0.392878
744 4 0.431794 0.0912343 0.365478
478 2 0.457279 0.128215 0.409139
479 4 0.460166 0.106892 0.396405
444 4 0.0720435 0.252626 0.38081
686 4 0.112267 0.18406 0.405626
687 4 0.112115 0.178211 0.355962
685 2 0.112191 0.181135 0.380794
400 2 0.139177 0.236953 0.39788
402 4 0.118617 0.245992 0.408869
347 4 0.115396 0.226533 0.41511
346 2 0.0931749 0.216023 0.419687
401 4 0.159737 0.227915 0.38689
372 4 0.209793 0.240674 0.350113
649 2 0.218457 0.244034 0.38802
651 4 0.23378 0.24824 0.407325
473 4 0.171989 0.175984 0.412317
350 4 0.395898 0.185151 0.355851
452 4 0.406495 0.201776 0.354932
451 2 0.411754 0.203214 0.379334
453 4 0.417013 0.204651 0.403735
2802 4 0.00761052 0.317257 0.334749
2800 2 0.0141914 0.308304 0.357148
443 4 0.0387015 0.289883 0.37983
2801 4 0.0207723 0.29935 0.379546
442 2 0.0553725 0.271254 0.38032
260 4 0.0868441 0.298949 0.40505
748 2 0.116913 0.29302 0.333184
749 4 0.099778 0.290706 0.351246
650 4 0.203135 0.239828 0.368714
510 4 0.259441 0.306166 0.361874
508 2 0.266218 0.316726 0.340247
636 4 0.277872 0.299843 0.36927
634 2 0.292954 0.30551 0.388391
635 4 0.308036 0.311177 0.407511
613 2 0.387227 0.295565 0.340589
615 4 0.40485 0.28939 0.357217
547 2 0.00513705 0.386056 0.385245
548 4 0.0177487 0.407573 0.383476
616 2 0.0992031 0.349522 0.333601
617 4 0.116979 0.363063 0.344817
677 4 0.127396 0.352584 0.358813
676 2 0.137678 0.364342 0.378338
678 4 0.14796 0.376099 0.397863
681 4 0.0936451 0.40655 0.357316
502 2 0.251542 0.39524 0.332801
375 4 0.165028 0.375437 0.408381
504 4 0.240174 0.377579 0.346367
669 4 0.327267 0.371003 0.409959
752 4 0.390542 0.3687 0.366569
751 2 0.393844 0.393156 0.362548
753 4 0.397147 0.417612 0.358526
336 4 0.333958 0.377345 0.42777
2923 2 0.452415 0.380361 0.341804
2924 4 0.434955 0.388888 0.35754
408 4 0.03492 0.413892 0.387648
406 2 0.0472126 0.426063 0.405702
680 4 0.0868614 0.452348 0.338415
679 2 0.0902532 0.429449 0.347866
4 3 0.331174 0.499621 0.333446
1401 4 0.377904 0.497554 0.405471
594 4 0.387483 0.492325 0.388266
560 4 0.408419 0.43203 0.366293
3 3 0.352527 0.473812 0.351401
592 2 0.408559 0.494673 0.37502
559 2 0.421738 0.436527 0.386971
593 4 0.429635 0.49702 0.361774
561 4 0.435057 0.441024 0.407648
2237 4 0.0269318 0.0107101 0.50175
719 4 0.0949134 0.00441956 0.451472
718 2 0.0962568 0.0281858 0.459123
720 4 0.0976002 0.051952 0.466774
1182 4 0.268969 0.0541644 0.495841
1180 2 0.2786 0.0770304 0.498933
1151 4 0.256213 0.0451404 0.48461
1517 4 0.341374 0.0690653 0.45923
432 4 0.360761 0.0628291 0.462991
430 2 0.368797 0.0425316 0.475182
431 4 0.376833 0.0222341 0.487372
2880 4 0.475166 0.0342367 0.427482
1034 4 0.10284 0.127861 0.493762
340 2 0.132519 0.151905 0.425066
1035 4 0.122872 0.129725 0.447981
341 4 0.137712 0.129746 0.435419
1033 2 0.112856 0.128793 0.470872
725 4 0.306844 0.0989089 0.509456
1181 4 0.288232 0.0998964 0.502025
1516 2 0.348955 0.0903733 0.448568
1518 4 0.356536 0.111681 0.437906
575 4 0.364637 0.113617 0.418973
640 2 0.378941 0.147455 0.482012
642 4 0.38497 0.124911 0.473034
574 2 0.379239 0.131927 0.427732
899 4 0.385483 0.104697 0.475557
576 4 0.393841 0.150237 0.43649
516 4 0.408888 0.162773 0.44237
898 2 0.377759 0.0943049 0.496947
480 4 0.454393 0.149539 0.421873
471 4 0.0257973 0.209671 0.475604
348 4 0.0709539 0.205513 0.424264
469 2 0.0444011 0.2091 0.458908
470 4 0.0630049 0.208529 0.442212
1200 4 0.0379595 0.215588 0.491011
342 4 0.127326 0.174064 0.414713
321 4 0.183078 0.171849 0.428008
320 4 0.175975 0.183979 0.475999
319 2 0.179527 0.177914 0.452003
858 4 0.170769 0.173368 0.491869
641 4 0.372911 0.169999 0.490989
514 2 0.418412 0.182961 0.431105
515 4 0.427935 0.20315 0.41984
695 4 0.0876217 0.272351 0.464815
259 2 0.0826196 0.289577 0.427842
261 4 0.0783951 0.280204 0.450635
694 2 0.102513 0.276821 0.484397
325 2 0.112284 0.328158 0.463012
326 4 0.0889897 0.329635 0.454046
717 4 0.242057 0.256153 0.424247
715 2 0.266488 0.261181 0.425974
668 4 0.303485 0.327594 0.417079
488 4 0.30409 0.272064 0.443249
716 4 0.29092 0.26621 0.4277
487 2 0.324018 0.282443 0.432279
267 4 0.362243 0.297231 0.424895
489 4 0.343945 0.292821 0.421309
265 2 0.377505 0.303539 0.443669
584 4 0.394916 0.305771 0.481714
266 4 0.392766 0.309846 0.462443
327 4 0.135578 0.326682 0.471978
710 4 0.14785 0.340179 0.463551
709 2 0.170356 0.343749 0.473842
373 2 0.161309 0.39715 0.42021
772 2 0.235118 0.338319 0.482973
773 4 0.210826 0.339268 0.488818
711 4 0.192862 0.34732 0.484134
667 2 0.315376 0.349299 0.413519
774 4 0.25941 0.337369 0.477128
813 4 0.313627 0.344236 0.487619
811 2 0.292876 0.336824 0.475802
812 4 0.272125 0.329411 0.463985
334 2 0.340317 0.401109 0.432244
407 4 0.0595052 0.438234 0.423756
384 4 0.0398209 0.423993 0.481576
935 4 0.0522276 0.432346 0.495358
383 4 0.0673085 0.429431 0.440156
382 2 0.0535647 0.426712 0.460866
374 4 0.157591 0.418862 0.432039
239 4 0.37297 0.451909 0.48388
240 4 0.347597 0.41945 0.455537
335 4 0.346675 0.424873 0.436717
238 2 0.360284 0.43568 0.469708
588 4 0.429383 0.446306 0.424635
586 2 0.442992 0.440909 0.444904
661 2 0.48374 0.432349 0.485419
587 4 0.4566 0.435512 0.465174
662 4 0.467168 0.419395 0.4719
1126 2 0.000823229 0.0245891 0.53102
1127 4 0.00960531 0.018639 0.508379
1058 4 0.175756 0.9961 0.535217
1059 4 0.218345 0.0169405 0.519325
1152 4 0.236841 0.0120775 0.516739
1150 2 0.246527 0.0286089 0.500674
1057 2 0.19705 0.00652036 0.527271
1031 4 0.29868 0.0616835 0.580704
962 4 0.306839 0.0456579 0.571523
961 2 0.301032 0.0227624 0.579724
3157 2 0.364913 0.0773069 0.546837
3158 4 0.375646 0.0646543 0.565543
842 4 0.383942 0.0601532 0.582584
900 4 0.370034 0.0839132 0.518337
843 4 0.373758 0.0112181 0.581047
841 2 0.37885 0.0356857 0.581816
937 2 0.078008 0.132665 0.522615
939 4 0.0709771 0.142336 0.544575
938 4 0.085039 0.122994 0.500656
824 4 0.154423 0.134339 0.55389
825 4 0.20366 0.126125 0.550894
823 2 0.179041 0.130232 0.552392
724 2 0.3226 0.116035 0.518601
726 4 0.338356 0.133161 0.527746
3159 4 0.35418 0.0899594 0.528132
1198 2 0.0333946 0.226117 0.513226
1199 4 0.0288297 0.236645 0.53544
1271 4 0.147945 0.219911 0.536999
1270 2 0.126266 0.219155 0.524563
1220 4 0.124622 0.19845 0.573135
1219 2 0.149318 0.197418 0.576908
1272 4 0.104588 0.218398 0.512127
856 2 0.177815 0.176859 0.515604
857 4 0.18486 0.18035 0.539339
409 2 0.210002 0.204321 0.562832
411 4 0.189871 0.197549 0.549639
410 4 0.230132 0.211094 0.576026
790 2 0.361358 0.227705 0.534204
792 4 0.374175 0.211568 0.548364
3065 4 0.485609 0.238663 0.556752
3064 2 0.497354 0.221969 0.54231
879 4 0.0139077 0.283345 0.556817
877 2 0.0309856 0.289817 0.539739
878 4 0.0480634 0.296289 0.522662
10 3 0.131337 0.29387 0.509965
6 1 0.13294 0.303692 0.530449
9 3 0.131017 0.287644 0.547097
7 3 0.115934 0.318992 0.532868
8 3 0.153271 0.314708 0.532377
696 4 0.117403 0.281291 0.503979
791 4 0.348542 0.243842 0.520043
585 4 0.417212 0.327802 0.520678
583 2 0.406064 0.316787 0.501196
905 4 0.492986 0.252786 0.569238
1039 2 0.0496453 0.393275 0.561583
1136 4 0.0615834 0.371654 0.598138
1040 4 0.0395785 0.408636 0.544616
1393 2 0.218143 0.395243 0.554764
1395 4 0.224128 0.404348 0.532259
1394 4 0.212158 0.386139 0.577268
872 4 0.32074 0.357573 0.500548
1028 4 0.256562 0.406016 0.569063
1027 2 0.2728 0.393372 0.583262
873 4 0.349565 0.377548 0.536197
871 2 0.335152 0.367561 0.518373
269 4 0.435208 0.330816 0.510449
3309 4 0.481087 0.361464 0.524399
270 4 0.462752 0.369285 0.526641
268 2 0.44898 0.35005 0.518545
927 4 0.490918 0.37932 0.574066
925 2 0.481628 0.402213 0.570225
936 4 0.0320133 0.426495 0.540722
934 2 0.0421204 0.429421 0.51804
538 2 0.146177 0.491168 0.551324
540 4 0.124961 0.478753 0.555897
539 4 0.167393 0.503583 0.546751
1172 4 0.255731 0.425978 0.568847
882 4 0.329256 0.49494 0.526776
1173 4 0.271022 0.460644 0.53621
1171 2 0.263377 0.443311 0.552529
880 2 0.306763 0.484163 0.528533
881 4 0.284269 0.473385 0.530289
928 2 0.370499 0.467834 0.520094
929 4 0.362395 0.484606 0.536774
930 4 0.378603 0.451061 0.503415
1330 2 0.492354 0.474689 0.530228
1332 4 0.494183 0.459603 0.510373
926 4 0.472337 0.425107 0.566385
1001 4 0.47068 0.439888 0.579593
1331 4 0.490525 0.489776 0.550083
2318 4 0.118913 0.0388776 0.602174
2317 2 0.132523 0.0595739 0.605583
2319 4 0.146133 0.0802701 0.608992
1284 4 0.165444 0.0814943 0.616242
963 4 0.295226 0.999867 0.587926
1030 2 0.288931 0.0844294 0.584277
2241 4 0.274527 0.011505 0.645701
951 4 0.271667 0.0292582 0.653618
1141 2 0.318598 0.0667913 0.64519
1004 4 0.325479 0.0346726 0.635902
1142 4 0.335991 0.048977 0.642882
1003 2 0.330036 0.0128537 0.647231
809 4 0.48111 0.04431 0.647631
808 2 0.489616 0.0503318 0.624903
810 4 0.498123 0.0563537 0.602175
3009 4 0.492078 0.0690615 0.587628
4227 4 0.486275 0.0259402 0.650139
2990 4 0.0418257 0.108052 0.603734
2989 2 0.0580671 0.111644 0.622401
3078 4 0.0312509 0.0910005 0.602144
2991 4 0.0743085 0.115237 0.641069
3076 2 0.00837117 0.0991368 0.596186
864 4 0.0937765 0.116939 0.644622
1282 2 0.176509 0.097768 0.631666
1155 4 0.206898 0.115428 0.646529
1283 4 0.187573 0.114042 0.647091
1153 2 0.225354 0.130114 0.654828
1032 4 0.279182 0.107175 0.58785
1143 4 0.301205 0.0846056 0.647498
888 4 0.26282 0.140183 0.656758
886 2 0.2798 0.121837 0.656223
887 4 0.29678 0.103492 0.655688
3426 4 0.471042 0.1398 0.617841
3424 2 0.471551 0.14521 0.642247
3425 4 0.47206 0.15062 0.666653
1221 4 0.174013 0.196386 0.58068
1212 4 0.231238 0.174492 0.609893
1260 4 0.171732 0.233869 0.661787
1210 2 0.227981 0.196495 0.621313
1211 4 0.224723 0.218499 0.632733
1259 4 0.205927 0.210001 0.634188
1258 2 0.188829 0.221935 0.647988
1009 2 0.46117 0.240254 0.648768
1011 4 0.47402 0.254158 0.632436
803 4 0.273335 0.311226 0.605061
807 4 0.386144 0.313137 0.605292
906 4 0.473008 0.261207 0.614302
904 2 0.482997 0.256996 0.59177
952 2 0.443972 0.305333 0.662908
954 4 0.454233 0.321956 0.647302
1041 4 0.0597121 0.377914 0.57855
1135 2 0.0861176 0.368045 0.594939
895 2 0.135237 0.394797 0.60435
896 4 0.113549 0.383032 0.6003
1137 4 0.110652 0.364436 0.591741
992 4 0.0973864 0.346757 0.657692
993 4 0.125706 0.387967 0.65838
991 2 0.111546 0.367362 0.658036
897 4 0.156924 0.406563 0.608399
1191 4 0.191472 0.375606 0.630503
1190 4 0.239871 0.366976 0.621353
1189 2 0.215671 0.371291 0.625928
804 4 0.253233 0.356808 0.609409
802 2 0.263284 0.334017 0.607235
1029 4 0.289038 0.380728 0.597462
1239 4 0.293914 0.373399 0.614262
1237 2 0.316094 0.362595 0.618323
1238 4 0.338274 0.35179 0.622384
806 4 0.351619 0.349264 0.607186
805 2 0.368882 0.331201 0.606239
1006 2 0.399774 0.356814 0.661309
1007 4 0.416813 0.37149 0.650378
1100 4 0.435208 0.367257 0.655068
1099 2 0.452063 0.384872 0.660618
1101 4 0.468918 0.402487 0.666168
3329 4 0.489245 0.398898 0.665349
1160 4 0.164995 0.497014 0.606414
1161 4 0.211519 0.485157 0.592426
1159 2 0.188257 0.491086 0.59942
890 4 0.351984 0.467558 0.645135
1205 4 0.358041 0.451402 0.657019
889 2 0.358105 0.485926 0.629313
1002 4 0.447133 0.459134 0.61929
1000 2 0.458906 0.449511 0.599441
1268 4 0.435018 0.476894 0.619498
1267 2 0.426469 0.4897 0.639197
2048 4 0.0795913 0.0112382 0.731402
909 4 0.140948 0.0742275 0.739041
945 4 0.122533 0.075301 0.730353
2254 2 0.173314 0.00163594 0.732406
2398 2 0.229272 0.00572652 0.713327
2256 4 0.171094 0.025733 0.738697
2400 4 0.24834 0.0167856 0.701525
949 2 0.269621 0.0460679 0.672014
950 4 0.267575 0.0628775 0.690411
1092 4 0.285033 0.0678381 0.700292
1090 2 0.295984 0.0584408 0.720711
1091 4 0.306935 0.0490436 0.74113
1216 2 0.385234 0.00560776 0.69395
1217 4 0.393434 0.0245389 0.679824
1164 4 0.41036 0.0298624 0.669367
1163 4 0.459713 0.0318949 0.661566
1162 2 0.435036 0.0308787 0.665466
1113 4 0.461878 0.0734422 0.704298
1111 2 0.475946 0.0606341 0.720522
1112 4 0.490014 0.047826 0.736746
43 3 0.449485 0.0869411 0.709603
845 4 0.4944 0.0605933 0.753259
1106 4 0.0864195 0.173194 0.720989
863 4 0.0896536 0.0992164 0.691201
862 2 0.0917151 0.108078 0.667912
943 2 0.103218 0.0876558 0.720381
944 4 0.0839021 0.100011 0.710409
1105 2 0.0915017 0.153705 0.735805
907 2 0.159748 0.0900158 0.734301
1107 4 0.0965839 0.134216 0.750622
830 4 0.190792 0.119849 0.723488
829 2 0.204902 0.138991 0.715762
908 4 0.178548 0.105804 0.729561
831 4 0.219012 0.158133 0.708036
1154 4 0.24381 0.144801 0.663127
1298 4 0.237035 0.166459 0.708862
1297 2 0.26104 0.170066 0.702867
45 3 0.412209 0.0912904 0.706564
1086 4 0.379933 0.128444 0.713916
1084 2 0.392706 0.136136 0.733988
42 3 0.433789 0.0943685 0.67627
41 1 0.43242 0.0984299 0.69887
44 3 0.434687 0.121228 0.702545
1025 4 0.475377 0.166118 0.677459
850 2 0.0270666 0.207984 0.722108
851 4 0.0399023 0.201504 0.701653
1214 4 0.996357 0.214268 0.748834
852 4 0.0142309 0.214464 0.742564
948 4 0.158738 0.246338 0.673294
1179 4 0.0938253 0.186393 0.707312
1177 2 0.117481 0.193944 0.704387
1178 4 0.141137 0.201495 0.701463
946 2 0.156882 0.229926 0.692065
947 4 0.155025 0.213514 0.710837
1299 4 0.285045 0.173673 0.696872
978 4 0.289824 0.18532 0.712805
976 2 0.310343 0.199269 0.709712
977 4 0.330862 0.213218 0.70662
1193 4 0.346315 0.219597 0.716486
1192 2 0.350877 0.242411 0.707329
1010 4 0.44832 0.226349 0.6651
1026 4 0.457244 0.212712 0.67653
1024 2 0.46631 0.189415 0.676995
50 3 0.439341 0.24187 0.740215
798 4 0.342142 0.337824 0.67233
1043 4 0.379844 0.326785 0.684611
1194 4 0.35544 0.265226 0.698171
1044 4 0.362339 0.279972 0.68627
1042 2 0.371091 0.303379 0.68544
953 4 0.43371 0.288709 0.678514
3123 4 0.470248 0.259316 0.735249
1263 4 0.451782 0.253703 0.72912
1261 2 0.440064 0.268851 0.713046
1262 4 0.428345 0.284 0.696972
3121 2 0.493664 0.267928 0.733604
1068 4 0.144906 0.39161 0.667797
1066 2 0.150436 0.41499 0.674725
822 4 0.186741 0.367475 0.734588
820 2 0.175706 0.352689 0.751463
1096 2 0.230039 0.373512 0.741075
1098 4 0.205121 0.372021 0.742508
796 2 0.318063 0.341988 0.677626
797 4 0.293984 0.346152 0.682923
1097 4 0.254957 0.375004 0.739643
1277 4 0.292036 0.348048 0.70401
1276 2 0.282737 0.358566 0.7247
1278 4 0.273438 0.369085 0.74539
1008 4 0.382735 0.342138 0.672239
1206 4 0.330974 0.421396 0.686477
3369 4 0.482427 0.363294 0.727505
3367 2 0.497322 0.357406 0.746705
884 4 0.0777952 0.419351 0.729437
1280 4 0.0650712 0.433324 0.722696
883 2 0.0840867 0.427839 0.752099
2129 4 0.0176699 0.470709 0.731092
1279 2 0.0508072 0.446055 0.706583
1281 4 0.0365432 0.458787 0.69047
894 4 0.00850595 0.436027 0.731802
2128 2 0.0292513 0.486796 0.746332
1067 4 0.155966 0.438369 0.681652
940 2 0.150943 0.45522 0.722104
942 4 0.153814 0.450035 0.697813
941 4 0.148072 0.460405 0.746395
1139 4 0.320292 0.425798 0.70329
1138 2 0.302848 0.432108 0.720056
1140 4 0.285405 0.438418 0.736822
1089 4 0.291709 0.458099 0.740634
1087 2 0.288872 0.482601 0.736536
1204 2 0.344507 0.436399 0.671748
3182 4 0.506753 0.447146 0.702085
2047 2 0.0759594 0.0207884 0.754223
1295 4 0.0574081 0.0284384 0.791208
1294 2 0.0710481 0.0414639 0.807624
2049 4 0.0723275 0.0303386 0.777043
1296 4 0.0846881 0.0544893 0.824039
1286 4 0.102415 0.0589177 0.832681
1285 2 0.10988 0.0787496 0.819409
1049 4 0.309077 0.0490533 0.760325
1050 4 0.317835 0.0559631 0.809072
1048 2 0.313456 0.0525082 0.784698
966 4 0.325188 0.0641987 0.82601
2001 4 0.253043 0.995363 0.838594
964 2 0.346658 0.0593445 0.837871
2321 4 0.481415 0.0134114 0.819601
34 3 0.104321 0.125786 0.766453
1201 2 0.158776 0.104014 0.797647
1203 4 0.135031 0.109123 0.803586
1287 4 0.117346 0.0985814 0.806137
32 3 0.133068 0.123834 0.790586
31 1 0.110167 0.125185 0.7889
35 3 0.100823 0.10697 0.798878
33 3 0.102996 0.144554 0.799474
1130 4 0.172229 0.170132 0.778861
1202 4 0.18252 0.098905 0.791707
1227 4 0.230378 0.161501 0.79193
1149 4 0.240004 0.147036 0.781847
1225 2 0.207341 0.157005 0.783312
1226 4 0.184304 0.152509 0.774694
1147 2 0.25949 0.134618 0.791401
1148 4 0.278976 0.122201 0.800955