ITEM: TIMESTEP
3060000
ITEM: NUMBER OF ATOMS
4590
ITEM: BOX BOUNDS pp pp pp
-9.9985700000000008e+00 9.9985700000000008e+00
-9.9985700000000008e+00 9.9985700000000008e+00
-9.9985700000000008e+00 9.9985700000000008e+00
ITEM: ATOMS id type xs ys zs
3232 2 0.0512403 0.0087895 0.0613794
3234 4 0.0748919 0.0150972 0.0664781
2623 2 0.00843748 0.085025 0.0543588
702 4 0.078164 0.0332565 0.0577848
700 2 0.0920736 0.0504022 0.0695204
463 2 0.102017 0.0594451 0.00520143
701 4 0.105983 0.0675479 0.081256
464 4 0.0937943 0.0467007 0.985323
746 4 0.438142 0.0710501 0.0339604
1607 4 0.440449 0.0624052 0.0167622
557 4 0.44781 0.00994796 0.072603
655 2 0.0398616 0.125363 0.0347018
656 4 0.0393684 0.10046 0.0325211
2624 4 0.0228102 0.0906099 0.0346759
657 4 0.0403547 0.150267 0.0368826
465 4 0.11024 0.0721896 0.0250797
554 4 0.117426 0.0882946 0.0340706
553 2 0.126927 0.110283 0.0268988
555 4 0.136428 0.132271 0.0197271
837 4 0.124418 0.147104 0.0126076
835 2 0.107745 0.165662 0.0142692
355 2 0.226126 0.137942 0.0613533
357 4 0.231312 0.157795 0.047064
573 4 0.240996 0.169343 0.0345556
356 4 0.220941 0.11809 0.0756425
571 2 0.257813 0.168873 0.0160583
745 2 0.451553 0.0798488 0.0531411
747 4 0.464964 0.0886476 0.0723218
2976 4 0.486478 0.0887729 0.075828
738 4 0.0432488 0.166861 0.0466765
736 2 0.0589097 0.181299 0.0335832
737 4 0.0745705 0.195738 0.0204899
294 4 0.150868 0.203704 0.0250118
454 2 0.168318 0.238128 0.0445041
836 4 0.0910719 0.184221 0.0159308
456 4 0.159292 0.221386 0.028273
292 2 0.159043 0.195518 0.00284594
572 4 0.27463 0.168402 0.997561
360 4 0.291166 0.159889 0.00533723
296 4 0.264203 0.226124 0.0242396
295 2 0.277269 0.223001 0.00315181
902 4 0.26277 0.245883 0.0256248
2806 2 0.0567137 0.265871 0.00883927
2807 4 0.066779 0.261526 0.0313112
477 4 0.0708172 0.265807 0.050072
475 2 0.0810061 0.259229 0.0719374
286 2 0.158352 0.288147 0.0737777
455 4 0.177343 0.254869 0.0607352
287 4 0.171117 0.274822 0.0569051
903 4 0.271687 0.292987 0.0398524
901 2 0.267228 0.269435 0.0327386
526 2 0.399365 0.268283 0.0503158
528 4 0.382383 0.264974 0.0683675
527 4 0.416346 0.271592 0.0322642
2840 4 0.429073 0.279265 0.0440418
2839 2 0.449957 0.291923 0.0386759
2841 4 0.470841 0.304582 0.03331
672 4 0.464842 0.323522 0.0341577
2513 4 0.0677551 0.365983 0.0545192
329 4 0.0720059 0.367517 0.0335539
2512 2 0.0451439 0.356665 0.0597241
328 2 0.0780886 0.390653 0.0262797
330 4 0.0841714 0.413789 0.0190055
969 4 0.272822 0.351519 0.0712511
1071 4 0.387607 0.340848 0.0819566
1122 4 0.381342 0.353948 0.068034
1120 2 0.366587 0.351363 0.0480138
1121 4 0.351833 0.348779 0.0279937
14 3 0.389382 0.38663 0.0322213
11 1 0.382591 0.405076 0.0445506
12 3 0.371511 0.397788 0.0633459
102 3 0.35208 0.333731 0.0150869
670 2 0.471852 0.34682 0.0283926
671 4 0.478862 0.370118 0.0226275
322 2 0.475863 0.407889 0.0211332
323 4 0.489027 0.38721 0.0162068
1710 4 0.0610683 0.493018 0.0592172
2985 4 0.0622149 0.497081 0.037889
552 4 0.0914375 0.426649 0.0064622
495 4 0.221203 0.409491 0.0216083
494 4 0.18767 0.413177 0.0585223
493 2 0.204436 0.411334 0.0400653
242 4 0.232778 0.425481 0.022093
241 2 0.23642 0.448125 0.0121357
13 3 0.40108 0.417483 0.0510804
15 3 0.36856 0.418 0.0321099
596 4 0.377461 0.422023 0.0985687
2803 2 0.474936 0.467966 0.011016
2805 4 0.483161 0.491457 0.00862559
324 4 0.462698 0.428567 0.0260596
2804 4 0.466712 0.444475 0.0134064
379 2 0.0116114 0.0241928 0.114975
450 4 0.103816 0.0832607 0.0939993
565 2 0.159791 0.050442 0.124349
567 4 0.141694 0.0637245 0.13536
484 2 0.170953 0.00485722 0.0861583
485 4 0.182834 0.0217762 0.100221
566 4 0.177888 0.0371594 0.113338
723 4 0.239273 0.0868926 0.139219
691 2 0.274157 0.0796704 0.134457
692 4 0.293386 0.0644867 0.139446
1505 4 0.31102 0.0571509 0.145159
1504 2 0.334977 0.0546183 0.138462
253 2 0.390738 0.0626468 0.119435
255 4 0.36707 0.06877 0.124679
1506 4 0.358933 0.0520857 0.131765
558 4 0.429288 0.0461179 0.101747
556 2 0.438549 0.0280329 0.0871749
254 4 0.414407 0.0565236 0.114191
21 1 0.447685 0.0678654 0.137016
25 3 0.435315 0.057225 0.121128
24 3 0.433735 0.0796471 0.151334
23 3 0.460132 0.0524014 0.14903
22 3 0.462047 0.0826446 0.126797
2758 2 0.0542592 0.128909 0.129943
2760 4 0.0332329 0.127616 0.143412
2759 4 0.0752855 0.130202 0.116475
705 4 0.072608 0.148277 0.108542
448 2 0.121232 0.0995244 0.101573
449 4 0.138648 0.115788 0.109147
577 2 0.119403 0.142759 0.15434
578 4 0.10082 0.158635 0.149065
915 4 0.156855 0.119056 0.0982504
913 2 0.1623 0.141066 0.10879
236 4 0.155627 0.13954 0.156537
914 4 0.167745 0.163076 0.11933
721 2 0.219938 0.0908357 0.154575
693 4 0.254929 0.094854 0.129468
759 4 0.395158 0.126502 0.159864
2894 4 0.477752 0.0925861 0.134143
757 2 0.413103 0.142554 0.16661
2893 2 0.499862 0.101327 0.126404
507 4 0.0879978 0.173604 0.145125
396 4 0.0704547 0.247478 0.162144
476 4 0.091195 0.252651 0.0938028
462 4 0.111871 0.190596 0.0936019
703 2 0.0829265 0.170852 0.105528
704 4 0.0932451 0.193427 0.102514
460 2 0.132705 0.201246 0.102416
461 4 0.153539 0.211897 0.111229
623 4 0.153168 0.209592 0.130657
622 2 0.147351 0.223817 0.15038
581 4 0.180172 0.175583 0.12658
580 2 0.19917 0.191746 0.124838
582 4 0.218168 0.207908 0.123096
278 4 0.221364 0.223222 0.10939
277 2 0.245518 0.217425 0.112244
279 4 0.269672 0.211627 0.115097
732 4 0.28615 0.21964 0.107889
730 2 0.302231 0.222182 0.126865
606 4 0.305957 0.220357 0.159867
731 4 0.318313 0.224724 0.145841
754 2 0.0843867 0.257259 0.132539
756 4 0.0717616 0.265698 0.152402
755 4 0.0970118 0.248819 0.112675
288 4 0.145588 0.301472 0.0906502
252 4 0.153157 0.310299 0.10759
518 4 0.388652 0.277981 0.0829444
309 4 0.366063 0.262519 0.146681
519 4 0.373846 0.269446 0.12994
517 2 0.381249 0.273714 0.106442
1069 2 0.395454 0.330112 0.103131
1070 4 0.403302 0.319376 0.124305
2652 4 0.400008 0.324837 0.143192
2650 2 0.42239 0.330338 0.152884
629 4 0.424217 0.253257 0.153854
377 4 0.431279 0.253498 0.133952
378 4 0.474449 0.270395 0.115203
376 2 0.452864 0.261947 0.124578
2876 4 0.489789 0.257155 0.120699
2514 4 0.0225327 0.347347 0.0649289
2094 4 0.0761847 0.395165 0.164464
2093 4 0.0903236 0.373161 0.121842
2092 2 0.0832542 0.384163 0.143153
250 2 0.162784 0.332039 0.115327
251 4 0.172411 0.35378 0.123064
967 2 0.280275 0.362527 0.0924276
968 4 0.287728 0.373536 0.113604
612 4 0.284935 0.365403 0.131741
610 2 0.273594 0.370661 0.153396
608 4 0.325091 0.388353 0.119869
740 4 0.339742 0.380285 0.109921
741 4 0.369436 0.408287 0.0810264
739 2 0.354589 0.394286 0.0954736
1708 2 0.0602274 0.499754 0.0832816
525 4 0.192485 0.428877 0.0702288
523 2 0.202759 0.441768 0.0890282
524 4 0.213034 0.45466 0.107828
768 4 0.205179 0.473062 0.10662
766 2 0.217619 0.477923 0.127758
767 4 0.230058 0.482783 0.148896
607 2 0.317406 0.408303 0.132836
609 4 0.309721 0.428252 0.145803
246 4 0.321915 0.443004 0.151557
595 2 0.38955 0.441565 0.108424
597 4 0.401639 0.461107 0.118279
659 4 0.420308 0.468046 0.111102
658 2 0.437203 0.480885 0.124325
660 4 0.454099 0.493725 0.137549
3704 4 0.467346 0.482188 0.148909
3703 2 0.489362 0.470672 0.146107
397 2 0.0794794 0.0297665 0.244031
2850 4 0.147511 0.0401789 0.24232
398 4 0.0920751 0.01746 0.22628
1478 4 0.105565 0.00598156 0.23609
743 4 0.418066 0.0304949 0.193859
742 2 0.416165 0.0510721 0.207935
744 4 0.414264 0.0716492 0.222012
1748 4 0.42021 0.0137979 0.204293
432 4 0.421335 0.0703602 0.239924
513 4 0.0411681 0.105843 0.244836
579 4 0.137985 0.126883 0.159615
722 4 0.200603 0.0947788 0.169931
235 2 0.169556 0.121661 0.167096
237 4 0.183486 0.103782 0.177655
30 3 0.286969 0.149706 0.203903
505 2 0.0832715 0.185106 0.166817
506 4 0.0785451 0.196607 0.188509
530 4 0.0949802 0.200886 0.19788
529 2 0.0954124 0.192439 0.22141
394 2 0.0550712 0.247904 0.181851
284 4 0.142048 0.23644 0.191575
283 2 0.155886 0.23694 0.212394
624 4 0.141533 0.238042 0.170103
531 4 0.0958445 0.183992 0.24494
459 4 0.114584 0.183503 0.245988
285 4 0.169725 0.237439 0.233212
544 2 0.199573 0.208127 0.244992
545 4 0.181064 0.224938 0.245094
27 3 0.298088 0.159592 0.23813
26 1 0.297361 0.165939 0.216032
29 3 0.319059 0.168889 0.208358
604 2 0.2951 0.210646 0.18019
605 4 0.284243 0.200935 0.200513
28 3 0.285581 0.185858 0.214332
333 4 0.419977 0.19374 0.235573
758 4 0.431047 0.158606 0.173356
632 4 0.425309 0.19504 0.254818
332 4 0.427808 0.231508 0.203746
331 2 0.423892 0.212624 0.219659
628 2 0.431726 0.250972 0.177594
630 4 0.439235 0.248688 0.201334
395 4 0.0396878 0.248331 0.201557
300 4 0.0246916 0.307059 0.228873
298 2 0.0284924 0.282993 0.223258
299 4 0.0322932 0.258926 0.217642
2694 4 0.0317101 0.318602 0.241787
307 2 0.361151 0.271227 0.169598
496 2 0.350814 0.313378 0.205219
498 4 0.35263 0.298361 0.18531
308 4 0.356238 0.279935 0.192516
2693 4 0.00698991 0.357497 0.222376
535 2 0.0341984 0.389962 0.218386
536 4 0.0468984 0.410854 0.223623
537 4 0.0214984 0.36907 0.21315
362 4 0.0700815 0.389292 0.182652
2692 2 0.01935 0.338049 0.232081
361 2 0.0873878 0.380418 0.198365
363 4 0.104694 0.371543 0.214078
417 4 0.123547 0.365803 0.213095
415 2 0.14206 0.362116 0.229492
416 4 0.160573 0.358428 0.245889
611 4 0.262254 0.375919 0.17505
345 4 0.269382 0.370364 0.192341
344 4 0.294172 0.381779 0.234244
343 2 0.281777 0.376071 0.213293
497 4 0.348997 0.328395 0.225128
275 4 0.366948 0.334211 0.228293
2651 4 0.444773 0.335839 0.162577
2538 4 0.45057 0.33769 0.182328
2536 2 0.452848 0.361984 0.187788
2537 4 0.455127 0.386277 0.193248
714 4 0.451349 0.40545 0.201408
712 2 0.442267 0.410177 0.224219
713 4 0.433184 0.414903 0.24703
2862 4 0.436261 0.403895 0.263487
1775 4 0.0651497 0.419475 0.224336
1774 2 0.0655547 0.443608 0.217807
681 4 0.00198798 0.440153 0.206545
679 2 0.99976 0.451098 0.228915
1776 4 0.0659598 0.467741 0.211279
1786 2 0.121027 0.496765 0.217407
1788 4 0.117845 0.472473 0.222404
338 4 0.115904 0.4665 0.240933
290 4 0.158127 0.479635 0.193803
291 4 0.207782 0.474875 0.190265
289 2 0.182954 0.477255 0.192034
627 4 0.246941 0.48264 0.188125
625 2 0.262158 0.465979 0.177354
626 4 0.277376 0.449318 0.166583
244 2 0.317832 0.461706 0.167643
245 4 0.313749 0.480408 0.183729
385 2 0.320113 0.481384 0.228943
387 4 0.315356 0.478881 0.204524
316 2 0.0571403 0.0280316 0.300916
399 4 0.0668837 0.042073 0.261781
318 4 0.0698194 0.0320931 0.279751
317 4 0.0444612 0.0239702 0.32208
2848 2 0.161218 0.0590542 0.251322
404 4 0.223168 0.0664231 0.306427
392 4 0.222271 0.0831686 0.2947
403 2 0.237911 0.0551328 0.323171
1700 4 0.303253 0.0173972 0.310637
248 4 0.305827 0.078568 0.289789
247 2 0.31114 0.0550764 0.296505
249 4 0.316453 0.0315849 0.30322
405 4 0.252655 0.0438424 0.339914
1699 2 0.316653 0.00208664 0.325169
430 2 0.437609 0.0591799 0.255265
431 4 0.453883 0.0479997 0.270606
1496 4 0.461984 0.0413329 0.287057
1495 2 0.463918 0.0164047 0.286903
511 2 0.0574796 0.116035 0.260812
512 4 0.073791 0.126227 0.276788
470 4 0.0773195 0.151249 0.33821
469 2 0.0893896 0.15982 0.31806
1272 4 0.169902 0.149011 0.324061
1270 2 0.156119 0.128249 0.326097
458 4 0.121235 0.172935 0.294411
471 4 0.10146 0.168391 0.29791
1271 4 0.142335 0.107487 0.328133
391 2 0.198335 0.0838784 0.287507
393 4 0.174399 0.0845882 0.280314
2849 4 0.174924 0.0779296 0.260324
515 4 0.293622 0.163154 0.32094
2910 4 0.312176 0.159978 0.315165
2908 2 0.333292 0.146734 0.317133
2909 4 0.354408 0.133489 0.319101
520 2 0.474996 0.153501 0.297083
521 4 0.461315 0.149671 0.276508
633 4 0.448468 0.151267 0.261768
698 4 0.500932 0.0793704 0.277532
631 2 0.436889 0.173153 0.258293
457 2 0.11791 0.178219 0.270199
748 2 0.164352 0.250613 0.28297
546 4 0.218082 0.191317 0.244891
349 2 0.234927 0.184014 0.280029
350 4 0.218548 0.181002 0.261378
750 4 0.174415 0.230806 0.294443
389 4 0.174493 0.231446 0.314601
388 2 0.195053 0.220426 0.323602
514 2 0.273474 0.177901 0.319603
516 4 0.253326 0.192647 0.318267
351 4 0.251305 0.187027 0.29868
764 4 0.360732 0.240349 0.283907
522 4 0.488677 0.157332 0.317658
618 4 0.145366 0.287774 0.267184
749 4 0.15429 0.270419 0.271496
616 2 0.150986 0.30657 0.282687
617 4 0.156605 0.325366 0.298189
365 4 0.173468 0.318011 0.308249
510 4 0.31652 0.281497 0.285177
508 2 0.302733 0.294586 0.301419
435 4 0.283325 0.328689 0.298357
509 4 0.288947 0.307675 0.317661
644 4 0.280906 0.34345 0.285052
765 4 0.319126 0.26536 0.295911
763 2 0.339929 0.252854 0.289909
1640 4 0.0662579 0.400377 0.322482
735 4 0.15163 0.366435 0.262004
733 2 0.141248 0.367817 0.284708
2654 4 0.12275 0.37223 0.324775
734 4 0.130867 0.3692 0.307412
2653 2 0.0982002 0.37673 0.323277
364 2 0.195925 0.328804 0.310329
434 4 0.236014 0.330533 0.31445
366 4 0.218383 0.339597 0.312409
645 4 0.28537 0.380854 0.252163
433 2 0.259669 0.329611 0.306404
643 2 0.283138 0.362152 0.268608
274 2 0.372403 0.341926 0.251443
613 2 0.383785 0.348636 0.311276
615 4 0.401278 0.348129 0.329133
614 4 0.366291 0.349144 0.293418
276 4 0.377859 0.349641 0.274592
2924 4 0.420612 0.343352 0.324236
680 4 0.997533 0.462044 0.251285
337 2 0.13556 0.458695 0.254271
339 4 0.155217 0.450891 0.267609
727 2 0.159358 0.428993 0.305699
729 4 0.159043 0.437714 0.282267
3671 4 0.160985 0.479475 0.32962
676 2 0.229645 0.481311 0.290117
678 4 0.248879 0.46765 0.281834
728 4 0.159674 0.420272 0.32913
375 4 0.289744 0.421357 0.306593
1575 4 0.304541 0.48289 0.258748
373 2 0.285494 0.439426 0.323345
1574 4 0.259704 0.484075 0.280859
1573 2 0.282123 0.483483 0.269804
386 4 0.32487 0.483887 0.253362
2860 2 0.420468 0.421008 0.272591
1473 4 0.400097 0.458733 0.280577
2861 4 0.404674 0.43812 0.281695
542 4 0.49466 0.464088 0.341818
1471 2 0.413781 0.478494 0.27369
1472 4 0.427466 0.498254 0.266803
1868 4 0.0105857 0.0438062 0.35959
1869 4 0.026838 0.013353 0.323408
1867 2 0.0187119 0.0285796 0.341499
2879 4 0.424737 0.0721425 0.401174
2717 4 0.0582313 0.145762 0.340703
687 4 0.015815 0.153361 0.391195
2718 4 0.0216599 0.144568 0.374788
2716 2 0.0399456 0.145165 0.357745
938 4 0.0739752 0.131955 0.421998
937 2 0.0847606 0.124444 0.400728
1220 4 0.131672 0.0916148 0.335394
1221 4 0.100134 0.0975941 0.373739
1219 2 0.115903 0.0946044 0.354566
939 4 0.095546 0.116932 0.379457
650 4 0.282368 0.110879 0.418156
2657 4 0.37413 0.141226 0.31909
2656 2 0.390266 0.141704 0.338184
2658 4 0.406403 0.142182 0.357277
760 2 0.425572 0.108029 0.376998
761 4 0.418563 0.126252 0.361379
762 4 0.432581 0.0898052 0.392617
2611 2 0.0864114 0.208842 0.369017
2612 4 0.0775721 0.229988 0.379011
2847 4 0.0648859 0.235272 0.393002
341 4 0.108224 0.176553 0.370493
2613 4 0.0952508 0.187695 0.359024
342 4 0.154004 0.17284 0.39027
340 2 0.131114 0.174696 0.380382
824 4 0.167597 0.188318 0.386872
823 2 0.170701 0.200034 0.408741
390 4 0.215614 0.209407 0.332603
487 2 0.390399 0.22754 0.402569
489 4 0.406074 0.208084 0.403558
488 4 0.374724 0.246995 0.401581
451 2 0.496296 0.178191 0.398621
267 4 0.422505 0.199287 0.394995
265 2 0.446585 0.20362 0.38984
266 4 0.470664 0.207953 0.384684
453 4 0.47539 0.191353 0.394767
2845 2 0.072177 0.258049 0.400297
2846 4 0.079468 0.280827 0.407591
636 4 0.13859 0.288169 0.395059
260 4 0.0902666 0.284389 0.425114
634 2 0.162865 0.287151 0.400966
635 4 0.187139 0.286133 0.406873
668 4 0.203198 0.293907 0.415369
667 2 0.227797 0.289431 0.415418
372 4 0.277877 0.258271 0.419979
707 4 0.283196 0.276031 0.412856
706 2 0.305062 0.283327 0.403171
708 4 0.326929 0.290623 0.393486
717 4 0.33053 0.270888 0.38692
669 4 0.252397 0.284955 0.415467
716 4 0.379607 0.261937 0.390391
715 2 0.355069 0.266412 0.388655
1639 2 0.0461425 0.402248 0.337215
2655 4 0.0736506 0.38123 0.321778
1641 4 0.0260271 0.404119 0.351947
443 4 0.0809932 0.370166 0.382065
442 2 0.0829446 0.347751 0.371159
444 4 0.0848961 0.325336 0.360253
601 2 0.188916 0.408142 0.360908
603 4 0.20242 0.397142 0.378847
2923 2 0.43092 0.355075 0.343768
2925 4 0.441228 0.366799 0.3633
117 3 0.437236 0.369472 0.383043
116 1 0.437299 0.360831 0.404362
118 3 0.458633 0.353143 0.409277
120 3 0.422388 0.343657 0.405539
547 2 0.989181 0.43402 0.413907
548 4 0.0132653 0.438334 0.408759
1383 4 0.14139 0.476117 0.333698
1381 2 0.129164 0.489087 0.351233
1382 4 0.116939 0.502058 0.368768
2137 2 0.102233 0.50293 0.40405
602 4 0.175412 0.419143 0.342969
594 4 0.230394 0.464953 0.411191
2108 4 0.237625 0.465966 0.392759
374 4 0.281244 0.457494 0.340097
2109 4 0.269789 0.453915 0.356414
2107 2 0.253707 0.45994 0.374587
541 2 0.476901 0.472999 0.356996
543 4 0.459141 0.481909 0.372174
446 4 0.453197 0.494162 0.387711
1180 2 0.234073 0.0316619 0.475974
1182 4 0.220168 0.0109918 0.473837
1181 4 0.247979 0.052332 0.47811
725 4 0.248517 0.0583908 0.460586
480 4 0.327245 0.0688887 0.445894
599 4 0.326639 0.0154163 0.47579
478 2 0.308732 0.0809057 0.434145
2642 4 0.341549 0.081756 0.443014
2641 2 0.363769 0.0706371 0.445812
2643 4 0.385989 0.0595182 0.44861
684 4 0.385533 0.0450497 0.464424
682 2 0.391745 0.0424633 0.488505
2878 2 0.437117 0.0552873 0.414879
2880 4 0.449496 0.0384321 0.428584
1517 4 0.451443 0.0192327 0.43025
1516 2 0.44098 0.998315 0.439091
1034 4 0.0585011 0.144532 0.42266
983 4 0.0144732 0.117465 0.467781
1033 2 0.0445095 0.13217 0.439291
1035 4 0.0305178 0.119808 0.455922
982 2 0.0135327 0.114112 0.492541
724 2 0.242181 0.0806783 0.45119
726 4 0.235844 0.102966 0.441793
473 4 0.23181 0.119517 0.454875
472 2 0.223698 0.143015 0.452184
474 4 0.215587 0.166512 0.449494
479 4 0.290219 0.0929226 0.422395
649 2 0.273636 0.131983 0.428333
857 4 0.262772 0.162761 0.457099
651 4 0.264905 0.153087 0.438509
856 2 0.274107 0.167965 0.47877
1031 4 0.401929 0.102475 0.479895
1030 2 0.378127 0.10749 0.485682
1032 4 0.354325 0.112506 0.49147
2516 4 0.476578 0.141574 0.444042
2502 4 0.449581 0.133332 0.483162
2500 2 0.445069 0.152553 0.46782
368 4 0.162165 0.236405 0.488556
696 4 0.142141 0.238758 0.491326
371 4 0.256979 0.216384 0.437569
402 4 0.204722 0.184116 0.452891
367 2 0.173025 0.228012 0.467655
369 4 0.183884 0.21962 0.446755
825 4 0.173804 0.211751 0.43061
401 4 0.237007 0.216362 0.432431
400 2 0.220865 0.200239 0.442661
370 2 0.267428 0.237327 0.428774
858 4 0.285442 0.173169 0.500441
640 2 0.356007 0.227607 0.479414
641 4 0.355142 0.252596 0.479458
642 4 0.356872 0.202618 0.47937
2501 4 0.440557 0.171774 0.452478
2508 4 0.488839 0.235403 0.482088
259 2 0.0947276 0.281577 0.449555
261 4 0.0991885 0.278766 0.473997
695 4 0.0984915 0.259241 0.478062
694 2 0.120316 0.249 0.484694
873 4 0.256917 0.293387 0.433106
871 2 0.271071 0.290913 0.453569
872 4 0.285224 0.288438 0.474032
813 4 0.302348 0.279647 0.466631
811 2 0.326742 0.274172 0.467002
812 4 0.351136 0.268698 0.467373
3308 4 0.475386 0.242812 0.49565
382 2 0.989558 0.384674 0.493581
710 4 0.205192 0.374187 0.43507
773 4 0.187275 0.374763 0.443685
709 2 0.211779 0.398187 0.432665
772 2 0.184684 0.362571 0.465361
774 4 0.182094 0.350379 0.487036
1395 4 0.197548 0.360359 0.494671
239 4 0.458243 0.415837 0.483178
585 4 0.429305 0.397603 0.424443
119 3 0.431284 0.377573 0.41926
583 2 0.429196 0.422153 0.429186
934 2 0.019523 0.43022 0.48122
936 4 0.0360581 0.448853 0.483354
538 2 0.157355 0.456453 0.478441
539 4 0.162608 0.472639 0.460122
570 4 0.113405 0.443655 0.451852
568 2 0.10156 0.463433 0.442173
569 4 0.0897143 0.483211 0.432493
2138 4 0.102574 0.497991 0.428558
2243 4 0.158137 0.488951 0.468509
325 2 0.245586 0.43479 0.462152
592 2 0.246082 0.477709 0.425899
326 4 0.230702 0.422901 0.445957
711 4 0.218367 0.422187 0.43026
327 4 0.26047 0.44668 0.478348
1173 4 0.270405 0.462083 0.479746
334 2 0.473625 0.46467 0.437024
336 4 0.465056 0.444193 0.425515
584 4 0.429087 0.446702 0.433928
3157 2 0.299238 0.0409704 0.533156
3158 4 0.31253 0.0621261 0.534123
575 4 0.330832 0.0641677 0.54121
3159 4 0.285946 0.0198148 0.532189
843 4 0.413999 0.0357445 0.525142
683 4 0.397956 0.0398768 0.512586
842 4 0.454632 0.0112295 0.540912
1061 4 0.469522 0.0206873 0.550584
841 2 0.434316 0.023487 0.533027
1060 2 0.4933 0.0212312 0.542872
1184 4 0.00135941 0.0860493 0.563172
1183 2 0.00677362 0.104889 0.54765
984 4 0.0125921 0.11076 0.517301
1185 4 0.0121878 0.123729 0.532128
574 2 0.341584 0.0773672 0.559523
576 4 0.352336 0.0905667 0.577835
1142 4 0.367153 0.0894666 0.59172
3267 4 0.0245523 0.215738 0.548141
3265 2 0.0127649 0.225159 0.568078
7 3 0.153077 0.223711 0.532904
10 3 0.142217 0.249613 0.508327
6 1 0.160079 0.241155 0.519643
8 3 0.169393 0.257569 0.533141
348 4 0.183171 0.263843 0.545195
9 3 0.175943 0.233282 0.504652
320 4 0.303234 0.1767 0.512564
319 2 0.322144 0.189731 0.502674
321 4 0.341053 0.202762 0.492785
3307 2 0.474289 0.229009 0.516469
3309 4 0.473191 0.215206 0.537288
270 4 0.455943 0.203954 0.534466
268 2 0.443917 0.201479 0.556248
269 4 0.431891 0.199005 0.57803
3045 4 0.0195389 0.304365 0.569731
879 4 0.000511308 0.308409 0.570278
346 2 0.206589 0.26922 0.538279
347 4 0.230008 0.274597 0.531363
1189 2 0.246143 0.310147 0.529651
1191 4 0.246213 0.285578 0.534293
383 4 0.989905 0.369887 0.513741
1136 4 0.102167 0.415845 0.532438
1041 4 0.0861366 0.427096 0.524847
1190 4 0.246072 0.334716 0.52501
1394 4 0.233325 0.349508 0.527882
1393 2 0.215436 0.354934 0.511277
1237 2 0.332156 0.388332 0.569725
1239 4 0.314846 0.40632 0.571132
1238 4 0.349466 0.370344 0.568319
804 4 0.362754 0.366536 0.583002
1040 4 0.0498326 0.441927 0.493819
1039 2 0.0679846 0.434512 0.509333
1137 4 0.145695 0.430728 0.51283
1135 2 0.123931 0.423286 0.522634
540 4 0.152102 0.440266 0.49676
1171 2 0.267897 0.460922 0.504596
1028 4 0.268732 0.453173 0.548221
1172 4 0.265388 0.459762 0.529447
1027 2 0.285218 0.437411 0.558466
1029 4 0.301704 0.42165 0.568712
240 4 0.446777 0.439182 0.525889
1978 2 0.459628 0.453862 0.560139
1980 4 0.453907 0.435744 0.543885
1979 4 0.46535 0.47198 0.576392
238 2 0.45251 0.42751 0.504533
943 2 0.156182 0.0737615 0.661424
1130 4 0.309052 0.0621008 0.587542
1129 2 0.30594 0.0533734 0.610765
1131 4 0.302828 0.0446459 0.633989
2318 4 0.293498 0.0598992 0.641241
2317 2 0.287022 0.0737302 0.661038
1004 4 0.386864 0.0123241 0.642035
88 3 0.400236 0.0180899 0.598675
87 3 0.405664 0.0143877 0.635681
1003 2 0.371393 0.0224236 0.658882
2241 4 0.373292 0.00715567 0.627834
86 1 0.416093 0.0185611 0.615607
89 3 0.426063 0.0394927 0.616543
90 3 0.431896 0.00258633 0.611901
1106 4 0.992873 0.144358 0.685755
917 4 0.143324 0.0997743 0.658258
918 4 0.116511 0.138133 0.640642
916 2 0.129918 0.118954 0.64945
1212 4 0.129333 0.153122 0.640706
944 4 0.15158 0.0903851 0.643323
1283 4 0.213003 0.168885 0.651922
1155 4 0.221217 0.1642 0.634153
1143 4 0.397813 0.0788334 0.629767
887 4 0.398321 0.092413 0.644816
1141 2 0.382483 0.08415 0.610744
1210 2 0.136295 0.17713 0.640141
1211 4 0.143256 0.201138 0.639575
1259 4 0.153006 0.215088 0.65081
1153 2 0.210358 0.181951 0.620292
1258 2 0.17548 0.224503 0.645205
1154 4 0.199499 0.199703 0.60643
411 4 0.28845 0.256112 0.630783
1085 4 0.290325 0.238175 0.639203
1084 2 0.298937 0.22304 0.657146
900 4 0.358588 0.198509 0.588508
792 4 0.427058 0.2328 0.656959
899 4 0.380583 0.153601 0.588968
898 2 0.369585 0.176055 0.588738
790 2 0.406475 0.240785 0.645223
3266 4 0.00097751 0.23458 0.588015
3043 2 0.0280919 0.28151 0.575181
3044 4 0.036645 0.258656 0.580631
3460 2 0.0741379 0.249575 0.595626
3461 4 0.049718 0.25483 0.594518
3418 2 0.0113334 0.308582 0.646471
3420 4 0.0315297 0.313167 0.632462
1281 4 0.0477335 0.305885 0.624846
1279 2 0.067124 0.31667 0.636373
3462 4 0.0985578 0.24432 0.596733
1260 4 0.197955 0.233919 0.639601
409 2 0.30717 0.265558 0.617162
410 4 0.32589 0.275004 0.603542
803 4 0.385233 0.327928 0.60547
806 4 0.394137 0.312193 0.614338
791 4 0.385891 0.24877 0.633487
805 2 0.386486 0.289589 0.621803
807 4 0.378835 0.266986 0.629269
1280 4 0.0865144 0.327455 0.6479
895 2 0.165772 0.373501 0.648928
896 4 0.164875 0.364355 0.672182
897 4 0.166669 0.382647 0.625675
802 2 0.373993 0.347232 0.594236
894 4 0.0240238 0.469029 0.659753
2130 4 0.120291 0.496125 0.642837
891 4 0.319943 0.46573 0.651365
1953 4 0.338861 0.524394 0.631731
3324 4 0.353311 0.488468 0.633104
3322 2 0.375357 0.477227 0.629524
3323 4 0.397403 0.465986 0.625945
926 4 0.499911 0.508066 0.605237
3371 4 0.414946 0.472744 0.628727
3372 4 0.436801 0.4442 0.663488
3370 2 0.425874 0.458472 0.646108
1007 4 0.452916 0.436431 0.656667
834 4 0.00845198 0.0582328 0.733447
864 4 0.0882324 0.0471787 0.743344
2989 2 0.125612 0.99691 0.736924
2990 4 0.111108 0.992369 0.71707
945 4 0.160785 0.0571378 0.679525
2255 4 0.164956 0.046537 0.695133
2254 2 0.176898 0.0417522 0.716573
2256 4 0.18884 0.0369674 0.738013
960 4 0.20855 0.0397684 0.736167
958 2 0.228175 0.0529644 0.744286
1257 4 0.316097 0.0543997 0.746374
1255 2 0.292166 0.0609216 0.749526
965 4 0.329809 0.0422382 0.737416
966 4 0.35596 0.0366891 0.695154
964 2 0.342884 0.0394637 0.716285
1005 4 0.355922 0.0325231 0.675729
954 4 0.392961 0.0430327 0.725984
952 2 0.410363 0.0554288 0.712996
1026 4 0.399152 0.0263901 0.736027
953 4 0.427765 0.0678249 0.700007
1178 4 0.049552 0.130009 0.718114
1177 2 0.0370388 0.148108 0.729988
852 4 0.0688299 0.126024 0.720569
850 2 0.0924426 0.130384 0.713596
947 4 0.135026 0.130447 0.70054
851 4 0.116055 0.134743 0.706624
946 2 0.158606 0.138699 0.699486
1282 2 0.206823 0.161207 0.674901
1284 4 0.200643 0.15353 0.69788
948 4 0.182185 0.14695 0.698433
2319 4 0.280546 0.0875611 0.680836
950 4 0.29197 0.100422 0.693639
949 2 0.29478 0.124965 0.697506
951 4 0.297591 0.149507 0.701374
977 4 0.2926 0.161621 0.7164
886 2 0.407677 0.0875985 0.667498
888 4 0.417033 0.0827841 0.690179
1194 4 0.430374 0.158347 0.746539
1192 2 0.440848 0.156306 0.723926
1193 4 0.451322 0.154264 0.701314
1297 2 0.235194 0.2289 0.735722
1298 4 0.223354 0.210222 0.74739
976 2 0.3022 0.181419 0.704523
1086 4 0.307548 0.207905 0.675089
978 4 0.3118 0.201217 0.692645
1299 4 0.247033 0.247579 0.724055
1009 2 0.483553 0.160271 0.680453
1010 4 0.461171 0.166464 0.689721
154 3 0.0660096 0.302317 0.736696
153 3 0.053676 0.285629 0.768536
1067 4 0.0712158 0.365242 0.746413
992 4 0.149642 0.351471 0.671453
1068 4 0.108406 0.345861 0.719174
991 2 0.1304 0.353421 0.687299
993 4 0.111158 0.355371 0.703146
1066 2 0.0898111 0.355551 0.732793
1276 2 0.249123 0.407257 0.721652
797 4 0.272161 0.380456 0.726044
1277 4 0.253785 0.38489 0.73181
796 2 0.287329 0.364426 0.737798
3463 2 0.457579 0.384092 0.732314
3464 4 0.45457 0.392913 0.709112
3465 4 0.460587 0.375271 0.755515
1008 4 0.454814 0.398394 0.689076
2128 2 0.126728 0.494849 0.666964
2129 4 0.133166 0.493573 0.69109
940 2 0.172912 0.494909 0.69745
941 4 0.195129 0.486671 0.705434
1098 4 0.20218 0.467684 0.70523
1096 2 0.219245 0.453237 0.716421
1097 4 0.23631 0.43879 0.727612
1278 4 0.244461 0.429623 0.711494
889 2 0.329438 0.468348 0.674348
1206 4 0.318385 0.42734 0.744368
1204 2 0.323061 0.441162 0.724063
1205 4 0.327738 0.454983 0.703759
890 4 0.338932 0.470965 0.69733
3181 2 0.386441 0.506325 0.700265
3182 4 0.373825 0.513907 0.680053
189 3 0.410401 0.45513 0.735003
187 3 0.389872 0.486593 0.736127
186 1 0.395457 0.467521 0.747713
1006 2 0.453865 0.417413 0.672872
1250 4 0.471111 0.442024 0.738761
3011 4 0.490327 0.436706 0.744602
1249 2 0.447876 0.448941 0.744882
1251 4 0.424641 0.455858 0.751003
863 4 0.0595527 0.0423299 0.784022
1215 4 0.0589003 0.0313304 0.799829
1213 2 0.052711 0.0465486 0.818677
862 2 0.0738926 0.0447543 0.763683
832 2 0.00332413 0.0631163 0.757427
2991 4 0.140117 0.00145176 0.756778
1202 4 0.160775 0.0090801 0.820478
831 4 0.173402 0.0191148 0.831411
959 4 0.2478 0.0661604 0.752405
1256 4 0.268235 0.0674435 0.752678
1252 2 0.306448 0.0675267 0.827545
1254 4 0.320472 0.0468673 0.826236
1024 2 0.391171 0.0147842 0.756686
819 4 0.447709 0.027653 0.830043
2321 4 0.460501 0.0135001 0.825736
817 2 0.455454 0.0507063 0.835852
1179 4 0.0245256 0.166208 0.741863
833 4 0.998196 0.0679999 0.781407
35 3 0.166647 0.167131 0.823408
909 4 0.189133 0.0896507 0.807792
908 4 0.168895 0.115653 0.770176
907 2 0.179014 0.102652 0.788984
1253 4 0.292425 0.088186 0.828853
1048 2 0.321396 0.136442 0.817732
1091 4 0.319377 0.155349 0.787755
1049 4 0.317851 0.114732 0.829617
1050 4 0.324941 0.158153 0.805848
3425 4 0.447673 0.159774 0.757519
3426 4 0.451411 0.133398 0.799839
45 3 0.46101 0.119312 0.808197
41 1 0.475862 0.105702 0.81882
44 3 0.492722 0.0994172 0.804169
3424 2 0.449542 0.146586 0.778679
42 3 0.464946 0.0868219 0.826135
43 3 0.484961 0.116674 0.837129
1146 4 0.505766 0.115749 0.808613
923 4 0.0279951 0.172751 0.761304
779 4 0.0415084 0.227435 0.781252
924 4 0.0404493 0.210024 0.792229
922 2 0.0342222 0.191388 0.776766
32 3 0.148252 0.199567 0.824969
838 2 0.211774 0.209188 0.784962
839 4 0.203391 0.219166 0.806301
840 4 0.220158 0.19921 0.763623
801 4 0.210953 0.236017 0.816558
1092 4 0.32997 0.192284 0.75575
1090 2 0.324674 0.173816 0.771752
3329 4 0.314674 0.230701 0.777695
778 2 0.043004 0.249435 0.769464
780 4 0.0444995 0.271435 0.757677
152 3 0.0321623 0.310755 0.750689
151 1 0.0538136 0.305288 0.756211
155 3 0.0628889 0.322136 0.768557
1209 4 0.164805 0.315432 0.798156
1207 2 0.183958 0.31268 0.813992
1208 4 0.20311 0.309928 0.829828
3328 2 0.313008 0.253748 0.787246
1042 2 0.30517 0.309217 0.769959
1043 4 0.304203 0.287822 0.782863
3330 4 0.311343 0.276796 0.796797
3347 4 0.378593 0.289924 0.813074
1094 4 0.366842 0.28757 0.829035
3346 2 0.39012 0.311166 0.806666
3348 4 0.401647 0.332409 0.800257
1165 2 0.496413 0.322154 0.805311
865 2 0.476183 0.269305 0.811658
867 4 0.459474 0.255113 0.823682
1053 4 0.444367 0.267162 0.828422
866 4 0.492893 0.283497 0.799634
1166 4 0.502752 0.30098 0.79362
885 4 0.0238032 0.385724 0.776344
883 2 0.0408451 0.370573 0.766087
815 4 0.0329296 0.401776 0.784232
884 4 0.0578869 0.355422 0.75583
1065 4 0.262264 0.328956 0.83194
1044 4 0.306137 0.330612 0.757055
798 4 0.302497 0.348396 0.749552
1138 2 0.308372 0.411418 0.771629
1140 4 0.317139 0.399246 0.791633
1241 4 0.259272 0.34555 0.821676
1240 2 0.262711 0.369674 0.827279
1017 4 0.33338 0.410979 0.792189
1015 2 0.355204 0.402942 0.80137
1019 4 0.394359 0.385373 0.803097
1016 4 0.377028 0.394905 0.81055
1167 4 0.490073 0.343327 0.817001
1018 2 0.415756 0.398154 0.801107
999 4 0.461211 0.378063 0.775042
997 2 0.467784 0.367702 0.796828