ITEM: TIMESTEP
2730000
ITEM: NUMBER OF ATOMS
4590
ITEM: BOX BOUNDS pp pp pp
-9.9985700000000008e+00 9.9985700000000008e+00
-9.9985700000000008e+00 9.9985700000000008e+00
-9.9985700000000008e+00 9.9985700000000008e+00
ITEM: ATOMS id type xs ys zs
3232 2 0.0389454 0.0509462 0.0246913
3233 4 0.0170289 0.0456896 0.0355179
1248 4 0.0113878 0.0258933 0.0338516
3234 4 0.0608619 0.0562027 0.0138648
702 4 0.0718486 0.0681676 0.0264807
463 2 0.143269 0.080595 0.00586395
465 4 0.161824 0.088121 0.0208385
355 2 0.248637 0.0657494 0.0796679
556 2 0.378644 0.0645273 0.0677142
491 4 0.398508 0.0678193 0.0292562
490 2 0.414438 0.0539079 0.0159188
557 4 0.3851 0.0626547 0.0436311
492 4 0.430368 0.0399964 0.00258141
745 2 0.474728 0.0659264 0.0143184
747 4 0.477533 0.0574476 0.0376727
2976 4 0.489104 0.0503096 0.052557
2625 4 0.0343022 0.0734223 0.0691994
655 2 0.0322512 0.153849 0.0547379
656 4 0.0183747 0.139438 0.0697365
2623 2 0.0323656 0.0983278 0.0681291
2624 4 0.030429 0.123233 0.0670587
700 2 0.0879272 0.0818513 0.0398752
701 4 0.104006 0.0955351 0.0532697
450 4 0.113351 0.110076 0.0632384
448 2 0.127862 0.12897 0.0556455
449 4 0.142372 0.147864 0.0480526
915 4 0.158776 0.154495 0.057034
571 2 0.244269 0.130644 0.0685907
572 4 0.236415 0.151725 0.0576788
913 2 0.17682 0.157706 0.0740426
360 4 0.239972 0.163095 0.0409562
914 4 0.194863 0.160917 0.0910513
357 4 0.246646 0.0903279 0.0755309
2894 4 0.476179 0.133142 0.0775348
657 4 0.0461276 0.168259 0.0397394
738 4 0.0638886 0.16083 0.0426667
2808 4 0.0620203 0.219639 0.0404387
2806 2 0.0745344 0.24122 0.0421173
736 2 0.0864725 0.170468 0.0379492
737 4 0.109056 0.180106 0.0332316
836 4 0.119184 0.19786 0.032756
835 2 0.134623 0.189171 0.0151118
358 2 0.26107 0.168847 0.0288336
359 4 0.282168 0.174599 0.0167109
2514 4 0.997197 0.330465 0.0597212
477 4 0.0955339 0.280404 0.047036
475 2 0.103116 0.280655 0.0708611
2807 4 0.0870486 0.262801 0.043796
454 2 0.142474 0.278658 0.0138439
286 2 0.148164 0.317495 0.0599541
455 4 0.134553 0.296729 0.0292013
287 4 0.150013 0.300004 0.0421832
903 4 0.249935 0.323521 0.00320418
1121 4 0.274541 0.320718 0.0325355
296 4 0.258886 0.259534 0.999679
526 2 0.402039 0.299158 0.0617035
528 4 0.380547 0.286878 0.0652295
518 4 0.369995 0.276335 0.079574
527 4 0.423532 0.311439 0.0581774
2840 4 0.437439 0.301003 0.0690547
2839 2 0.456131 0.317528 0.0706989
2512 2 0.0165739 0.340586 0.0475854
2513 4 0.035951 0.350706 0.0354495
329 4 0.0513185 0.358134 0.0460161
328 2 0.0666414 0.375096 0.0358833
2092 2 0.0797024 0.410755 0.077405
552 4 0.0730087 0.405789 0.0150838
330 4 0.0819643 0.392058 0.0257504
2094 4 0.0881448 0.387888 0.0829735
250 2 0.121864 0.36468 0.0917565
251 4 0.106089 0.384073 0.0912849
252 4 0.13764 0.345287 0.0922282
967 2 0.246386 0.357024 0.0117318
968 4 0.268125 0.36627 0.0199221
1120 2 0.292315 0.337226 0.0386014
1122 4 0.310088 0.353733 0.0446672
1071 4 0.326917 0.342806 0.043996
13 3 0.339405 0.412872 0.0593738
1069 2 0.350885 0.343825 0.0510447
1070 4 0.374853 0.344845 0.0580933
14 3 0.361136 0.383649 0.0702464
2652 4 0.386021 0.353758 0.0718104
11 1 0.36007 0.406714 0.0679433
12 3 0.376497 0.413496 0.0533386
596 4 0.389239 0.426367 0.0635885
2650 2 0.407811 0.355623 0.0839304
670 2 0.491648 0.367235 0.0832366
2841 4 0.474824 0.334052 0.0723432
1708 2 0.0301747 0.483147 0.0567915
2093 4 0.07126 0.433622 0.0718365
550 2 0.0744939 0.427183 0.00222868
1710 4 0.0288758 0.493645 0.0341361
1709 4 0.0314736 0.472648 0.079447
494 4 0.227226 0.431615 0.0524739
493 2 0.224208 0.429765 0.0277222
495 4 0.221189 0.427914 0.0029706
525 4 0.244799 0.441723 0.052505
523 2 0.243611 0.440694 0.0774591
595 2 0.41075 0.438864 0.0610779
597 4 0.432261 0.451361 0.0585672
2803 2 0.462636 0.459712 0.0188465
659 4 0.437842 0.448938 0.0788981
658 2 0.450653 0.469327 0.08563
324 4 0.474359 0.437344 0.0439736
2804 4 0.457598 0.450236 0.0414298
322 2 0.487146 0.418289 0.0539022
379 2 0.00745789 0.0100646 0.162032
567 4 0.25246 0.0355487 0.102722
566 4 0.216446 0.00111563 0.10697
565 2 0.234453 0.0183321 0.104846
356 4 0.250627 0.041171 0.083805
691 2 0.272199 0.0599197 0.140792
692 4 0.283072 0.038157 0.146568
1505 4 0.287333 0.0322107 0.164474
254 4 0.378037 0.0538295 0.106127
253 2 0.381918 0.0579368 0.130484
558 4 0.372188 0.0663998 0.0917973
255 4 0.385799 0.0620442 0.15484
758 4 0.391116 0.0767239 0.166204
2468 4 0.425922 0.00130246 0.0883333
2469 4 0.450988 0.0193192 0.127676
1448 4 0.459299 0.00716149 0.143025
21 1 0.461509 0.0534211 0.131392
22 3 0.461212 0.0347317 0.117984
2467 2 0.438455 0.0103108 0.108004
25 3 0.47266 0.0486487 0.150667
24 3 0.439652 0.0595509 0.1362
23 3 0.472247 0.0705995 0.120078
2758 2 0.0635523 0.150063 0.125562
2760 4 0.076704 0.129528 0.131088
577 2 0.109953 0.148831 0.155924
579 4 0.12721 0.131252 0.151641
236 4 0.142886 0.121371 0.160585
573 4 0.252123 0.109563 0.0795026
235 2 0.16593 0.111718 0.161579
723 4 0.241962 0.0847093 0.142512
721 2 0.220289 0.0970261 0.144448
722 4 0.198616 0.109343 0.146385
237 4 0.188974 0.102065 0.162574
693 4 0.261327 0.0816825 0.135017
757 2 0.401716 0.0965583 0.177132
2893 2 0.479739 0.134959 0.102217
2895 4 0.483298 0.136775 0.126899
2877 4 0.489297 0.14438 0.145268
2759 4 0.0504006 0.170598 0.120035
705 4 0.0564559 0.189154 0.11313
506 4 0.0529116 0.208071 0.16854
703 2 0.0777889 0.200341 0.106427
462 4 0.112324 0.198775 0.091967
704 4 0.0991219 0.211528 0.0997247
460 2 0.133464 0.19844 0.105316
461 4 0.154603 0.198105 0.118665
623 4 0.154722 0.215578 0.128163
622 2 0.158117 0.215187 0.152932
578 4 0.0926966 0.166411 0.160207
581 4 0.198107 0.173508 0.105553
580 2 0.220683 0.183757 0.102313
582 4 0.243258 0.194005 0.0990741
278 4 0.261401 0.198173 0.106907
732 4 0.302899 0.204874 0.148957
279 4 0.29822 0.2168 0.135158
277 2 0.279811 0.207486 0.121032
730 2 0.313984 0.217171 0.167695
378 4 0.456701 0.234345 0.0884992
376 2 0.450494 0.246298 0.109565
377 4 0.444286 0.258251 0.130631
756 4 0.0866341 0.259171 0.151566
476 4 0.110697 0.280905 0.0946862
755 4 0.112832 0.268169 0.109932
754 2 0.0997332 0.26367 0.130749
307 2 0.328953 0.275826 0.147308
611 4 0.278102 0.335413 0.155619
519 4 0.356471 0.274214 0.127671
517 2 0.363233 0.275275 0.103623
309 4 0.336528 0.270463 0.12409
629 4 0.442118 0.256577 0.150162
315 4 0.00831428 0.389458 0.145987
362 4 0.073586 0.41615 0.148934
413 4 0.00293957 0.407145 0.157988
288 4 0.146314 0.334987 0.077725
361 2 0.0829056 0.394317 0.156787
363 4 0.0922253 0.372485 0.16464
290 4 0.166503 0.408412 0.144234
289 2 0.189352 0.417063 0.149547
612 4 0.313536 0.369718 0.147353
609 4 0.30839 0.386387 0.158981
610 2 0.295819 0.352566 0.151486
607 2 0.330684 0.397708 0.158927
608 4 0.352978 0.409028 0.158873
15 3 0.363397 0.416701 0.0881381
672 4 0.488836 0.342408 0.0841759
2651 4 0.429601 0.357488 0.0960503
2538 4 0.446502 0.360437 0.106304
2536 2 0.450647 0.368475 0.129614
2537 4 0.454793 0.376512 0.152925
714 4 0.458395 0.37975 0.173495
2618 4 0.024451 0.484255 0.0952516
627 4 0.211715 0.444397 0.161247
767 4 0.274967 0.478563 0.139734
766 2 0.268138 0.462347 0.121969
524 4 0.242423 0.439665 0.102413
768 4 0.261309 0.44613 0.104205
740 4 0.362025 0.415973 0.142247
741 4 0.365844 0.435608 0.0964146
739 2 0.363934 0.425791 0.119331
660 4 0.463465 0.489717 0.092362
3704 4 0.472359 0.483322 0.108682
3703 2 0.495651 0.480735 0.117397
234 4 0.00499887 0.0769278 0.216644
380 4 0.0225855 0.0250301 0.175161
232 2 0.0132076 0.0606093 0.199571
233 4 0.0214163 0.0442908 0.182497
1477 2 0.163855 0.0116795 0.254635
428 4 0.198648 0.0118005 0.22839
1479 4 0.180991 0.0138591 0.236558
1506 4 0.322946 0.0283442 0.199366
1504 2 0.30514 0.0302774 0.18192
511 2 0.0530835 0.143044 0.211619
513 4 0.0327793 0.138256 0.197835
512 4 0.0733877 0.147831 0.225403
392 4 0.233119 0.140905 0.252238
404 4 0.246007 0.126273 0.24432
544 2 0.231193 0.170209 0.218836
546 4 0.253556 0.165579 0.208656
405 4 0.290966 0.105082 0.238813
403 2 0.268487 0.115678 0.241567
30 3 0.281685 0.171744 0.244706
759 4 0.412316 0.116393 0.188059
744 4 0.491626 0.103788 0.217232
742 2 0.480577 0.091974 0.236298
530 4 0.0898558 0.158542 0.220904
505 2 0.0671939 0.188061 0.173098
507 4 0.0814763 0.16805 0.177655
529 2 0.0960005 0.178921 0.234022
531 4 0.102145 0.199301 0.24714
624 4 0.161512 0.214795 0.177701
284 4 0.164393 0.205978 0.194773
283 2 0.181168 0.197912 0.211468
545 4 0.20883 0.174839 0.229016
285 4 0.197944 0.189847 0.228162
731 4 0.325069 0.229468 0.186432
605 4 0.298632 0.20859 0.244465
604 2 0.304103 0.216457 0.221371
606 4 0.309574 0.224323 0.198276
331 2 0.384296 0.224286 0.238144
333 4 0.36725 0.242428 0.240492
332 4 0.401342 0.206145 0.235797
632 4 0.420175 0.212869 0.2321
2694 4 0.028692 0.315871 0.217474
300 4 0.0490436 0.313622 0.215927
298 2 0.0642116 0.294863 0.222501
299 4 0.0793797 0.276105 0.229075
395 4 0.0818143 0.271569 0.210235
396 4 0.0995169 0.253259 0.167199
394 2 0.0906656 0.262414 0.188717
308 4 0.321378 0.28119 0.170525
498 4 0.312611 0.270455 0.183753
496 2 0.321915 0.281126 0.204362
497 4 0.331219 0.291798 0.224971
343 2 0.273238 0.328241 0.195445
344 4 0.280878 0.322995 0.218668
345 4 0.265598 0.333487 0.172222
764 4 0.331573 0.282781 0.243618
628 2 0.447757 0.262792 0.173715
630 4 0.453397 0.269008 0.197268
412 2 0.0115118 0.407284 0.181475
414 4 0.0200839 0.407423 0.204963
417 4 0.0968945 0.379958 0.182115
416 4 0.135153 0.360967 0.208121
735 4 0.14721 0.36599 0.224226
415 2 0.116024 0.370462 0.195118
733 2 0.140403 0.36375 0.24818
729 4 0.207392 0.414299 0.225701
727 2 0.207885 0.409828 0.250297
339 4 0.190193 0.423404 0.222823
645 4 0.289873 0.336483 0.232209
2862 4 0.417057 0.397652 0.21458
713 4 0.436033 0.403464 0.21142
712 2 0.447214 0.391607 0.192458
106 1 0.483754 0.365255 0.252884
107 3 0.47259 0.38251 0.242549
109 3 0.473909 0.345177 0.246692
681 4 0.0263089 0.425757 0.211351
679 2 0.027229 0.439522 0.232204
680 4 0.028149 0.453287 0.253057
1787 4 0.118241 0.495447 0.185871
1786 2 0.140464 0.489 0.195345
1788 4 0.162687 0.482553 0.204819
291 4 0.212202 0.425714 0.154861
625 2 0.234054 0.451952 0.169559
338 4 0.162472 0.46323 0.210737
337 2 0.176332 0.443317 0.21678
246 4 0.273884 0.458557 0.167273
626 4 0.256393 0.459506 0.17787
244 2 0.293681 0.470343 0.176987
245 4 0.313477 0.482129 0.1867
387 4 0.320237 0.481813 0.205206
2860 2 0.404099 0.417873 0.221538
385 2 0.329117 0.465467 0.221914
386 4 0.337996 0.449122 0.238623
2861 4 0.391142 0.438094 0.228496
1473 4 0.380094 0.454737 0.222952
1471 2 0.392541 0.471667 0.236503
231 4 0.499658 0.475527 0.179508
229 2 0.502336 0.499656 0.185488
397 2 0.108873 0.00822375 0.291074
1478 4 0.146719 0.00949989 0.272712
398 4 0.131855 0.0138154 0.282966
1700 4 0.257326 0.0134769 0.291985
1699 2 0.262508 0.0260016 0.312996
249 4 0.259382 0.994891 0.282957
1701 4 0.267689 0.0385263 0.334008
1496 4 0.432539 0.0225922 0.289047
1747 2 0.44004 0.0581086 0.270944
1749 4 0.427851 0.0368174 0.275771
1748 4 0.452228 0.0793997 0.266116
432 4 0.484832 0.0628022 0.303802
430 2 0.4749 0.0545352 0.325207
743 4 0.469528 0.0801595 0.255364
1272 4 0.0999543 0.109462 0.317417
2850 4 0.155752 0.105781 0.319882
471 4 0.0857241 0.170158 0.314294
1270 2 0.0908233 0.0942112 0.335001
469 2 0.0812331 0.153939 0.332786
2848 2 0.168768 0.115923 0.301096
391 2 0.209351 0.135773 0.258063
393 4 0.185583 0.130641 0.263887
2849 4 0.181785 0.126064 0.282311
350 4 0.220798 0.160813 0.307791
349 2 0.24476 0.157553 0.301437
351 4 0.268722 0.154294 0.295083
521 4 0.438305 0.161032 0.247077
522 4 0.468389 0.129187 0.271193
420 4 0.466958 0.132529 0.291546
520 2 0.453347 0.145109 0.259135
418 2 0.47589 0.125278 0.313746
419 4 0.484821 0.118027 0.335946
2585 4 0.0145165 0.239081 0.283394
458 4 0.100668 0.182089 0.313825
459 4 0.0990477 0.201531 0.267781
457 2 0.0998576 0.19181 0.290803
748 2 0.22639 0.245577 0.285551
750 4 0.244498 0.235437 0.299495
389 4 0.250535 0.22869 0.318092
29 3 0.281575 0.171957 0.282357
516 4 0.288323 0.164442 0.302428
28 3 0.300015 0.199024 0.263076
27 3 0.262445 0.197929 0.263065
26 1 0.281498 0.185041 0.263194
514 2 0.31091 0.171231 0.310731
515 4 0.333496 0.17802 0.319034
2910 4 0.353255 0.179469 0.325098
633 4 0.449998 0.178139 0.252228
631 2 0.435086 0.195504 0.242164
2586 4 0.00357389 0.265965 0.324115
2584 2 0.00904522 0.252523 0.303755
749 4 0.208281 0.255717 0.271607
617 4 0.172047 0.308009 0.280324
618 4 0.187341 0.261581 0.269774
616 2 0.179694 0.284795 0.275049
365 4 0.187969 0.312175 0.29287
364 2 0.20003 0.329258 0.306577
510 4 0.323387 0.313097 0.298774
508 2 0.302136 0.319327 0.310383
509 4 0.280885 0.325557 0.321992
763 2 0.331269 0.289549 0.267687
765 4 0.330964 0.296317 0.291755
1641 4 0.0440731 0.392437 0.25025
1639 2 0.0656282 0.398148 0.261561
2654 4 0.140085 0.359928 0.289768
734 4 0.133595 0.361511 0.272135
2653 2 0.128325 0.370782 0.308979
2655 4 0.116566 0.381635 0.328191
1640 4 0.0871833 0.40386 0.272872
366 4 0.212091 0.346341 0.320284
602 4 0.202083 0.395023 0.291974
601 2 0.203415 0.387131 0.315662
603 4 0.204746 0.379239 0.33935
728 4 0.208379 0.405357 0.274893
434 4 0.227507 0.350285 0.306173
643 2 0.309064 0.346031 0.245082
644 4 0.328256 0.355579 0.257955
435 4 0.2742 0.344787 0.32321
433 2 0.250854 0.347536 0.314692
275 4 0.345788 0.362182 0.254863
276 4 0.386146 0.359893 0.284304
274 2 0.365967 0.361037 0.269584
614 4 0.40205 0.349207 0.281821
1574 4 0.365303 0.408068 0.283338
108 3 0.482258 0.368055 0.275869
2924 4 0.457302 0.344521 0.307225
615 4 0.451629 0.346985 0.287963
613 2 0.42684 0.348096 0.284892
2923 2 0.45981 0.359569 0.327035
677 4 0.177753 0.478547 0.308558
676 2 0.198105 0.469708 0.297031
678 4 0.218456 0.460869 0.285504
375 4 0.234101 0.456292 0.296163
373 2 0.243499 0.440555 0.313169
374 4 0.252897 0.424819 0.330176
1472 4 0.404989 0.488596 0.250055
1575 4 0.343394 0.444536 0.257054
1573 2 0.354349 0.426302 0.270196
1716 4 0.42274 0.497091 0.254726
3601 2 0.492024 0.469496 0.277045
1715 4 0.463244 0.470092 0.266178
1714 2 0.442992 0.483591 0.260452
3602 4 0.469737 0.459436 0.282265
1219 2 0.0604255 0.0653241 0.379169
1221 4 0.0458775 0.0682294 0.399296
1220 4 0.0749735 0.0624189 0.359043
1271 4 0.0816924 0.07896 0.352585
939 4 0.0425292 0.0880072 0.403632
467 4 0.278384 0.0398564 0.392598
466 2 0.272898 0.047458 0.369419
468 4 0.267411 0.0550595 0.346239
599 4 0.28633 0.0280095 0.407717
598 2 0.310262 0.0260252 0.414681
2879 4 0.4043 0.0628174 0.358957
2878 2 0.40595 0.0390725 0.366614
2880 4 0.407601 0.0153275 0.374272
762 4 0.414078 0.0685628 0.342531
431 4 0.464967 0.0462683 0.346613
2717 4 0.0513209 0.114389 0.350815
687 4 0.984081 0.124312 0.361409
2718 4 0.00330947 0.126188 0.358325
2716 2 0.0273152 0.120288 0.35457
470 4 0.076742 0.13772 0.351278
479 4 0.307279 0.12529 0.391694
478 2 0.318401 0.109942 0.408001
650 4 0.301741 0.141922 0.400799
2908 2 0.364676 0.167224 0.343667
2909 4 0.376097 0.15498 0.362236
2656 2 0.413521 0.145276 0.353294
2657 4 0.394126 0.160293 0.358146
760 2 0.42223 0.0919056 0.338811
761 4 0.430382 0.115248 0.335091
2658 4 0.432915 0.13026 0.348442
2501 4 0.456989 0.112061 0.375097
2500 2 0.458946 0.102164 0.397975
340 2 0.0567679 0.18897 0.399325
341 4 0.032412 0.190135 0.404857
342 4 0.0811238 0.187806 0.393792
2613 4 0.0202051 0.196297 0.418998
824 4 0.0974405 0.200807 0.393317
823 2 0.109088 0.213392 0.411513
388 2 0.243013 0.225047 0.341657
370 2 0.226187 0.232126 0.395069
390 4 0.23549 0.221403 0.365222
372 4 0.220546 0.234634 0.37084
707 4 0.275636 0.215021 0.368765
706 2 0.293382 0.222711 0.384612
717 4 0.313226 0.247961 0.4097
708 4 0.311128 0.230402 0.400459
715 2 0.337364 0.249009 0.403262
716 4 0.361501 0.250058 0.396824
488 4 0.376681 0.241843 0.407569
634 2 0.199808 0.32395 0.382564
668 4 0.233419 0.316385 0.38427
636 4 0.17672 0.315433 0.386992
667 2 0.255552 0.317099 0.39588
669 4 0.277686 0.317814 0.407489
444 4 0.100602 0.376188 0.379841
443 4 0.110085 0.398426 0.336066
442 2 0.105344 0.387307 0.357954
635 4 0.222896 0.332466 0.378136
710 4 0.265378 0.353629 0.394159
709 2 0.265646 0.37312 0.409818
2925 4 0.462318 0.374618 0.346845
117 3 0.444565 0.384811 0.347949
116 1 0.438029 0.385768 0.369984
120 3 0.415756 0.381234 0.371405
118 3 0.450093 0.370062 0.382075
119 3 0.442313 0.407056 0.378161
585 4 0.44385 0.403427 0.398204
548 4 0.0512399 0.449089 0.378733
547 2 0.0414158 0.438964 0.399377
594 4 0.228864 0.455938 0.406018
2108 4 0.242674 0.446881 0.395371
2109 4 0.244693 0.43041 0.348197
2107 2 0.243683 0.438645 0.371784
542 4 0.491987 0.465684 0.335593
446 4 0.454101 0.501995 0.365541
541 2 0.480315 0.486026 0.344262
1180 2 0.252363 0.0367084 0.496386
1181 4 0.263206 0.0511033 0.479054
725 4 0.26177 0.0547844 0.459626
600 4 0.334195 0.0240408 0.421644
724 2 0.259969 0.0785995 0.452226
2642 4 0.341745 0.0791793 0.419694
682 2 0.384442 0.0754851 0.488724
937 2 0.0472987 0.0980293 0.426037
938 4 0.0520682 0.108051 0.448442
1034 4 0.053151 0.101942 0.467675
1033 2 0.0325292 0.106393 0.481095
473 4 0.215741 0.140805 0.483236
472 2 0.209805 0.160854 0.469526
480 4 0.329522 0.094594 0.424308
726 4 0.258167 0.102415 0.444825
649 2 0.299449 0.162277 0.415137
684 4 0.392127 0.081018 0.465583
2643 4 0.383074 0.0823083 0.447673
2641 2 0.36241 0.0807438 0.433684
2502 4 0.460904 0.0922666 0.420853
452 4 0.490042 0.169307 0.468978
2611 2 0.0186071 0.220212 0.42612
2612 4 0.0170092 0.244126 0.433242
825 4 0.120737 0.225977 0.42971
369 4 0.127588 0.244533 0.425382
367 2 0.130486 0.245285 0.450206
368 4 0.133385 0.246037 0.47503
9 3 0.150635 0.239896 0.482185
7 3 0.131873 0.209785 0.494594
371 4 0.231827 0.229619 0.419299
401 4 0.219969 0.233537 0.434869
400 2 0.209796 0.216381 0.449948
474 4 0.203868 0.180904 0.455816
402 4 0.199623 0.199226 0.465026
857 4 0.302935 0.173567 0.448263
856 2 0.30158 0.171401 0.473135
651 4 0.297157 0.182632 0.429476
487 2 0.383745 0.236794 0.431016
489 4 0.39081 0.231745 0.454463
267 4 0.398124 0.232487 0.473668
265 2 0.413394 0.212826 0.476003
2507 4 0.49819 0.235532 0.455529
451 2 0.466295 0.177069 0.467972
453 4 0.442548 0.184831 0.466965
266 4 0.428664 0.193164 0.478339
2847 4 0.0360104 0.245536 0.43354
2846 4 0.0486271 0.292536 0.445051
2845 2 0.0423187 0.269036 0.439295
260 4 0.0573046 0.307268 0.456375
259 2 0.0724851 0.305362 0.476151
261 4 0.0876655 0.303456 0.495927
696 4 0.126263 0.253014 0.492336
694 2 0.116305 0.27577 0.495203
871 2 0.310134 0.298913 0.441212
872 4 0.3195 0.275752 0.440199
813 4 0.33398 0.261093 0.443988
873 4 0.300769 0.322075 0.442224
811 2 0.343288 0.260346 0.467182
812 4 0.352596 0.2596 0.490377
2506 2 0.480144 0.251337 0.462579
2508 4 0.462098 0.267143 0.469628
3308 4 0.45767 0.274359 0.489157
382 2 0.0399365 0.378243 0.473269
383 4 0.0362657 0.363092 0.45372
384 4 0.0436074 0.393393 0.492818
772 2 0.205104 0.34192 0.493195
773 4 0.20067 0.353011 0.471229
711 4 0.265913 0.392612 0.425476
326 4 0.269349 0.412842 0.427662
549 4 0.0315916 0.42884 0.420021
408 4 0.0196453 0.436602 0.433135
406 2 0.999593 0.424194 0.441448
568 2 0.107684 0.481035 0.471838
570 4 0.0914626 0.462978 0.477834
593 4 0.239389 0.490974 0.440113
592 2 0.234126 0.473456 0.423066
1173 4 0.245782 0.442707 0.482231
327 4 0.261082 0.436381 0.471001
325 2 0.265215 0.424611 0.449331
584 4 0.433047 0.424288 0.442349
929 4 0.356813 0.507407 0.429689
753 4 0.371552 0.500298 0.440253
240 4 0.41523 0.473386 0.497513
334 2 0.420358 0.46033 0.459723
335 4 0.41457 0.47699 0.477446
336 4 0.426145 0.443669 0.442
583 2 0.438449 0.413858 0.420276
1150 2 0.20609 0.00844852 0.519633
1151 4 0.222024 0.0272072 0.515226
1182 4 0.24152 0.0223136 0.513718
1130 4 0.209273 0.0552457 0.57586
574 2 0.329731 0.0534146 0.5775
3157 2 0.284603 0.0123714 0.574026
576 4 0.353698 0.0577813 0.571871
683 4 0.376756 0.0699522 0.511865
1031 4 0.367367 0.0587858 0.526775
1030 2 0.384402 0.0522272 0.543862
1032 4 0.401437 0.0456686 0.560949
1142 4 0.405257 0.0604518 0.57224
1141 2 0.409878 0.0836236 0.580419
841 2 0.47321 0.0876497 0.501697
842 4 0.48896 0.0683186 0.50355
1185 4 0.012505 0.115759 0.514055
1035 4 0.0119073 0.110844 0.494516
843 4 0.45746 0.106981 0.499845
984 4 0.0368029 0.171763 0.511176
879 4 0.000918354 0.235664 0.577308
982 2 0.0142893 0.167064 0.501366
6 1 0.141572 0.229658 0.500932
8 3 0.158287 0.225247 0.516409
10 3 0.125723 0.243109 0.510233
348 4 0.176107 0.217192 0.512849
346 2 0.190869 0.223455 0.532034
347 4 0.205631 0.229718 0.551218
1191 4 0.216972 0.23915 0.56352
320 4 0.31482 0.17121 0.510525
858 4 0.300225 0.169234 0.498008
319 2 0.336422 0.181682 0.517514
321 4 0.358025 0.192154 0.524503
642 4 0.353379 0.211879 0.52327
640 2 0.359302 0.234461 0.514317
2813 4 0.00514073 0.291278 0.546075
877 2 0.998682 0.259522 0.570171
695 4 0.106348 0.298525 0.49807
1189 2 0.231748 0.25601 0.552448
1393 2 0.236881 0.310944 0.535294
1395 4 0.228088 0.329617 0.521181
1394 4 0.245674 0.292272 0.549408
1190 4 0.246525 0.27287 0.541377
641 4 0.365225 0.257043 0.505364
3307 2 0.457161 0.281048 0.513244
3309 4 0.456651 0.287736 0.537331
270 4 0.461367 0.279311 0.555316
268 2 0.470213 0.283724 0.578282
934 2 0.0540158 0.391902 0.536328
935 4 0.0482635 0.389166 0.51215
936 4 0.0597682 0.394638 0.560507
1040 4 0.0789265 0.396553 0.5569
1039 2 0.103062 0.394152 0.562974
1136 4 0.145042 0.38979 0.561978
1041 4 0.127197 0.391751 0.569048
1135 2 0.160534 0.409077 0.565606
774 4 0.209539 0.33083 0.515161
1029 4 0.267012 0.411473 0.570829
1237 2 0.299516 0.386167 0.552711
1239 4 0.282766 0.401565 0.563082
1238 4 0.316265 0.37077 0.542341
804 4 0.331034 0.371585 0.555825
803 4 0.358705 0.333847 0.573456
802 2 0.344869 0.352716 0.564641
539 4 0.164385 0.477852 0.523357
538 2 0.166493 0.457744 0.538069
1137 4 0.176027 0.428364 0.569235
2243 4 0.160244 0.496817 0.521363
540 4 0.168601 0.437637 0.552781
1028 4 0.242388 0.44498 0.543049
1172 4 0.228227 0.441673 0.529044
1171 2 0.237004 0.44219 0.505638
1027 2 0.2547 0.428226 0.556939
238 2 0.410208 0.474746 0.521969
239 4 0.405187 0.476106 0.546425
1129 2 0.220888 0.0659489 0.595244
1131 4 0.232502 0.0766522 0.614627
2318 4 0.250105 0.0743136 0.625063
575 4 0.305764 0.049048 0.583129
3158 4 0.29431 0.0337939 0.582512
2317 2 0.261477 0.0699603 0.646902
88 3 0.391398 0.00639051 0.614308
1004 4 0.389876 6.25937e-05 0.662632
2241 4 0.375813 0.993736 0.613176
86 1 0.408989 0.997057 0.626218
89 3 0.427508 0.0110012 0.625226
1107 4 0.0121763 0.12115 0.667352
1282 2 0.224256 0.115399 0.642052
1283 4 0.216404 0.113263 0.665694
1284 4 0.232107 0.117535 0.618409
1143 4 0.4145 0.106795 0.588597
953 4 0.412837 0.138707 0.65862
887 4 0.420054 0.10818 0.607958
886 2 0.414627 0.126651 0.623912
888 4 0.4092 0.145123 0.639866
3044 4 0.0276795 0.233855 0.635527
3043 2 0.021878 0.231076 0.611365
3461 4 0.0262656 0.223889 0.651981
3460 2 0.0497695 0.218658 0.658717
3045 4 0.0160766 0.228296 0.587203
1258 2 0.124955 0.225698 0.639661
1259 4 0.144349 0.218426 0.653668
1211 4 0.158198 0.221202 0.638977
1260 4 0.105562 0.232971 0.625655
1210 2 0.177567 0.211159 0.626764
1212 4 0.196935 0.201115 0.614551
411 4 0.269852 0.242798 0.651239
792 4 0.413825 0.236035 0.618912
899 4 0.420158 0.218917 0.628017
900 4 0.444973 0.19839 0.58976
898 2 0.432565 0.208654 0.608888
3123 4 0.509152 0.231231 0.619792
409 2 0.260486 0.250931 0.629529
410 4 0.251121 0.259063 0.607819
790 2 0.401644 0.253987 0.606482
805 2 0.376834 0.311391 0.59455
791 4 0.389462 0.271939 0.594052
807 4 0.380511 0.287832 0.602074
269 4 0.47906 0.288136 0.601249
894 4 0.0162388 0.415811 0.634185
1280 4 0.0722999 0.363347 0.660256
806 4 0.373158 0.334951 0.587025
3371 4 0.466792 0.412767 0.612448
3370 2 0.484682 0.407625 0.629141
2436 4 0.209286 0.499511 0.610378
891 4 0.325589 0.486743 0.658661
1953 4 0.315209 0.495358 0.644784
3322 2 0.434824 0.431265 0.595625
3324 4 0.41527 0.446727 0.593692
3323 4 0.454377 0.415802 0.597559
943 2 0.139412 0.0475548 0.691534
2989 2 0.0961213 0.0152347 0.734538
2990 4 0.114463 0.0252054 0.720778
3590 4 0.146809 0.00428564 0.688356
944 4 0.142905 0.0683506 0.678098
945 4 0.13592 0.026759 0.704969
2254 2 0.164263 0.00837409 0.740367
907 2 0.192339 0.0805732 0.756071
2319 4 0.272848 0.065607 0.66874
1257 4 0.318479 0.0543857 0.733377
950 4 0.281735 0.0693161 0.686282
1255 2 0.296757 0.0512584 0.745358
965 4 0.338048 0.0608159 0.733113
966 4 0.371408 0.0557688 0.696203
964 2 0.354728 0.0582924 0.714658
1005 4 0.379821 0.044752 0.682694
1003 2 0.384849 0.0224073 0.672663
1106 4 0.0591944 0.134788 0.677551
1105 2 0.0356854 0.127969 0.672452
852 4 0.0719506 0.147361 0.744085
946 2 0.135424 0.107161 0.732393
947 4 0.116396 0.119694 0.722097
851 4 0.10653 0.134789 0.710219
850 2 0.0892404 0.141075 0.727152
918 4 0.148625 0.171838 0.735427
948 4 0.154453 0.0946281 0.742689
908 4 0.174008 0.0944543 0.74625
1155 4 0.22503 0.111257 0.683518
1153 2 0.227125 0.13225 0.696937
1154 4 0.229219 0.153244 0.710356
951 4 0.306154 0.111184 0.69859
949 2 0.293945 0.0902503 0.692436
977 4 0.281423 0.157667 0.724899
1092 4 0.273122 0.164127 0.742354
1026 4 0.410699 0.113698 0.72103
954 4 0.406665 0.1129 0.701007
952 2 0.409751 0.125803 0.679814
1024 2 0.428728 0.1212 0.736646
1011 4 0.477689 0.161001 0.682418
1025 4 0.446757 0.128702 0.752261
906 4 0.494089 0.157127 0.671174
3462 4 0.0732734 0.213427 0.665454
916 2 0.12732 0.180312 0.725454
917 4 0.106014 0.188785 0.715481
1299 4 0.234476 0.208341 0.742341
976 2 0.284926 0.164496 0.701102
1085 4 0.257045 0.23213 0.662884
1084 2 0.268329 0.210457 0.668186
1086 4 0.279614 0.188783 0.673487
978 4 0.288429 0.171324 0.677305
1009 2 0.474383 0.174711 0.703065
1010 4 0.471078 0.188421 0.723712
1193 4 0.478311 0.202988 0.734971
1192 2 0.456688 0.200319 0.74724
3419 4 0.00454743 0.291631 0.671804
3418 2 0.0250159 0.304897 0.677303
152 3 0.0526463 0.324609 0.714415
151 1 0.0654955 0.317511 0.732126
3420 4 0.0454843 0.318163 0.682801
1281 4 0.0555425 0.330898 0.694416
153 3 0.0559795 0.298341 0.74109
154 3 0.0869113 0.312894 0.724481
1067 4 0.0910864 0.293824 0.728911
1066 2 0.114686 0.292051 0.736979
1068 4 0.138285 0.290278 0.745048
993 4 0.145925 0.296834 0.727798
991 2 0.162352 0.299944 0.709206
896 4 0.191148 0.287421 0.690488
897 4 0.237015 0.270856 0.701556
895 2 0.214081 0.279139 0.696022
992 4 0.178779 0.303054 0.690614
1043 4 0.320427 0.312002 0.732153
1042 2 0.296461 0.318988 0.730733
3330 4 0.337905 0.30822 0.723506
3329 4 0.379106 0.309378 0.69519
3328 2 0.358505 0.308799 0.709348
1279 2 0.0639212 0.347122 0.677336
155 3 0.0662457 0.333921 0.7479
1276 2 0.221214 0.403604 0.728691
1277 4 0.236148 0.38657 0.739274
797 4 0.253193 0.381699 0.727124
1278 4 0.20628 0.420638 0.718107
1044 4 0.272495 0.325974 0.729313
798 4 0.253889 0.332134 0.733722
796 2 0.253541 0.356917 0.730423
1008 4 0.489721 0.367314 0.699243
3463 2 0.477686 0.359965 0.727845
3464 4 0.492219 0.35106 0.709552
3465 4 0.463152 0.368871 0.746138
942 4 0.111726 0.489843 0.693498
940 2 0.128432 0.48307 0.710825
941 4 0.145137 0.476296 0.728152
1098 4 0.155741 0.464569 0.715737
1097 4 0.185762 0.424827 0.720207
1096 2 0.170751 0.444698 0.717972
1235 4 0.190107 0.483159 0.751043
2213 4 0.240382 0.434401 0.733887
2357 4 0.200899 0.487889 0.73407
889 2 0.317567 0.465216 0.66853
1206 4 0.322888 0.420814 0.735357
1205 4 0.323406 0.430252 0.686251
1204 2 0.323147 0.425533 0.710804
890 4 0.309544 0.443689 0.678399
2212 2 0.252166 0.446937 0.75203
3183 4 0.411167 0.508968 0.747278
1001 4 0.445812 0.494608 0.671159
925 2 0.482256 0.47189 0.67295
926 4 0.45854 0.479598 0.674783
1251 4 0.461395 0.476186 0.738782
1203 4 0.16151 0.0449744 0.770057
1201 2 0.177354 0.0410486 0.788998
831 4 0.185838 0.033621 0.825622
1202 4 0.193198 0.0371228 0.807938
909 4 0.210671 0.0666921 0.765892
1022 4 0.225729 0.0659465 0.778181
1021 2 0.232021 0.0756974 0.800329
2256 4 0.184678 0.0111368 0.754537
958 2 0.248373 0.0164905 0.768606
1256 4 0.275035 0.048131 0.757339
959 4 0.262168 0.0373074 0.767367
2321 4 0.412877 0.0254579 0.834001
819 4 0.421034 0.0379974 0.819036
817 2 0.430762 0.0602638 0.824931
1178 4 0.0809103 0.161843 0.75506
1023 4 0.238312 0.0854482 0.822476
1049 4 0.247703 0.102271 0.816887
1090 2 0.278614 0.155744 0.765261
1048 2 0.259096 0.123091 0.809021
1050 4 0.27049 0.143911 0.801154
1091 4 0.284107 0.147361 0.788168
818 4 0.44049 0.0825302 0.830826
1146 4 0.493139 0.131391 0.803674
3426 4 0.43421 0.147229 0.802635
45 3 0.424416 0.132061 0.810328
42 3 0.430149 0.0981837 0.8249
41 1 0.434923 0.120592 0.826963
828 4 0.501521 0.144284 0.817906
44 3 0.45788 0.12355 0.825341
1177 2 0.0794126 0.166578 0.779565
1179 4 0.077915 0.171313 0.80407
869 4 0.0711921 0.180324 0.820982
924 4 0.0372578 0.241133 0.776945
922 2 0.0351028 0.225976 0.796714
923 4 0.0329478 0.21082 0.816484
1297 2 0.227451 0.20468 0.766056
840 4 0.221629 0.193309 0.807856
1298 4 0.220425 0.201018 0.789771
838 2 0.239428 0.204134 0.821683
3424 2 0.434968 0.168923 0.790225
1194 4 0.435066 0.197649 0.759509
3425 4 0.435726 0.190616 0.777815
779 4 0.0404497 0.26013 0.778805
780 4 0.049194 0.305268 0.759137
778 2 0.0448218 0.282699 0.768971
1209 4 0.128572 0.283422 0.819548
3347 4 0.473371 0.32788 0.81513
1167 4 0.487859 0.314197 0.843526
3346 2 0.451762 0.329552 0.827597
2175 4 0.0289253 0.344589 0.780015
2173 2 0.0200572 0.367665 0.776271
4209 4 0.996707 0.393841 0.785156
2174 4 0.011189 0.390741 0.772527
1240 2 0.212009 0.385293 0.832372
1242 4 0.217479 0.408307 0.824273
1139 4 0.31284 0.418039 0.753776
1015 2 0.374602 0.407003 0.798813
1016 4 0.396176 0.396938 0.806457
1020 4 0.402002 0.390698 0.823662
1017 4 0.353028 0.417068 0.791169
1018 2 0.415828 0.37034 0.828086
998 4 0.46943 0.345101 0.806364
997 2 0.468486 0.359254 0.785773
999 4 0.467543 0.373406 0.765182
884 4 0.0294184 0.425918 0.764952
883 2 0.0541374 0.424824 0.76855
885 4 0.0788565 0.42373 0.772149
815 4 0.0914657 0.43946 0.774091
814 2 0.0980177 0.453371 0.793807
989 4 0.102574 0.486169 0.821715
816 4 0.10457 0.467282 0.813524
821 4 0.224019 0.425897 0.815589
1236 4 0.205002 0.489783 0.798319
1234 2 0.197554 0.486471 0.774681
820 2 0.216647 0.449411 0.811356
822 4 0.209276 0.472925 0.807123
2214 4 0.26395 0.459473 0.770173
271 2 0.294006 0.465636 0.794998