ITEM: TIMESTEP
1570000
ITEM: NUMBER OF ATOMS
4590
ITEM: BOX BOUNDS pp pp pp
-9.9985700000000008e+00 9.9985700000000008e+00
-9.9985700000000008e+00 9.9985700000000008e+00
-9.9985700000000008e+00 9.9985700000000008e+00
ITEM: ATOMS id type xs ys zs
3289 2 0.00280601 0.0561441 0.0667555
785 4 0.00815282 0.036907 0.0272871
784 2 0.00451816 0.0409766 0.00288613
3291 4 0.00976049 0.0456585 0.0451484
565 2 0.23281 0.0668781 0.0847397
567 4 0.249172 0.0812175 0.0724166
1760 4 0.413202 0.00596231 0.0391058
1448 4 0.41691 0.0696938 0.070598
1759 2 0.436136 0.00741766 0.029253
1608 4 0.404317 0.0829184 0.063266
1761 4 0.459071 0.00887301 0.0194001
702 4 0.0566407 0.110682 0.0621842
1668 4 0.0655973 0.122959 0.0495513
1666 2 0.0612569 0.12824 0.0255003
2623 2 0.0200279 0.15974 0.0418049
2625 4 0.0125944 0.13756 0.0506349
1667 4 0.0569165 0.13352 0.00144923
573 4 0.222458 0.125273 0.0035573
357 4 0.231884 0.116647 0.0196117
355 2 0.23715 0.0988823 0.0364008
356 4 0.242417 0.081118 0.0531899
490 2 0.32363 0.11817 0.0140642
492 4 0.306729 0.124869 0.996899
491 4 0.340532 0.111472 0.0312294
557 4 0.357673 0.109965 0.0411891
556 2 0.372411 0.127439 0.0513191
558 4 0.387149 0.144914 0.0614492
1606 2 0.421253 0.0986092 0.0536659
1607 4 0.438189 0.1143 0.0440657
3046 2 0.483987 0.1447 0.0104222
2640 4 0.458593 0.134153 0.0433002
3048 4 0.470707 0.132435 0.0276965
2638 2 0.455836 0.155058 0.0567368
656 4 0.0207434 0.198643 0.0431737
2624 4 0.0274614 0.18192 0.032975
655 2 0.0118816 0.210678 0.0632191
555 4 0.111442 0.22548 0.998641
354 4 0.262437 0.218613 0.00634976
297 4 0.267468 0.21744 0.0269562
295 2 0.268443 0.217 0.0519369
296 4 0.269418 0.21656 0.0769176
665 4 0.382381 0.162517 0.0513883
664 2 0.391064 0.178052 0.0338256
666 4 0.399747 0.193587 0.0162629
2792 4 0.418466 0.187146 0.00943835
2639 4 0.45308 0.175963 0.0701734
2895 4 0.444057 0.228424 0.0823282
456 4 0.132455 0.261981 0.016848
455 4 0.125993 0.290871 0.0571504
454 2 0.129224 0.276426 0.0369992
294 4 0.13254 0.266703 0.997537
286 2 0.146908 0.316307 0.0768881
287 4 0.130128 0.297794 0.0759328
670 2 0.436224 0.300583 0.0696606
671 4 0.437469 0.321188 0.0555516
550 2 0.0669602 0.405877 0.0446136
551 4 0.0898049 0.397838 0.0383953
288 4 0.163688 0.334819 0.0778434
252 4 0.170272 0.352835 0.0719626
251 4 0.198217 0.360699 0.0312447
250 2 0.184244 0.356767 0.0516036
483 4 0.198478 0.345385 0.0176541
524 4 0.302591 0.420233 0.0663872
739 2 0.309924 0.346851 0.0802245
246 4 0.308185 0.410539 0.0833303
741 4 0.327977 0.359201 0.0681107
13 3 0.350046 0.376213 0.033078
15 3 0.3476 0.358297 0.0661039
11 1 0.361967 0.366979 0.0507135
1070 4 0.374253 0.353358 0.022064
14 3 0.376138 0.350369 0.042859
12 3 0.374597 0.38347 0.0605951
955 2 0.408333 0.411218 0.0148444
957 4 0.421804 0.392895 0.025236
1069 2 0.368913 0.344287 0.999384
323 4 0.445083 0.333211 0.0423661
324 4 0.425791 0.379243 0.0392627
322 2 0.435437 0.356227 0.0408144
1045 2 0.488758 0.373016 0.00929168
1046 4 0.49626 0.393815 0.0209661
552 4 0.0441155 0.413916 0.0508318
330 4 0.0323604 0.413789 0.0329439
328 2 0.00827279 0.415792 0.0393432
1619 4 0.17483 0.468968 0.0256368
2094 4 0.180582 0.484205 0.0156171
1618 2 0.16513 0.455287 0.00709167
525 4 0.338023 0.423486 0.0312485
523 2 0.320307 0.421859 0.0488179
494 4 0.343913 0.442935 0.0343743
493 2 0.36067 0.439875 0.0160707
956 4 0.394862 0.429541 0.00445287
495 4 0.377427 0.436816 0.997767
1629 4 0.442394 0.483519 0.00867935
3290 4 0.995852 0.0666296 0.0883626
701 4 0.0814161 0.0790973 0.0920049
450 4 0.0958382 0.0713496 0.102193
566 4 0.216449 0.0525387 0.0970628
485 4 0.21176 0.0417256 0.114129
484 2 0.207743 0.017088 0.112703
653 4 0.353685 0.0344786 0.0945511
652 2 0.342738 0.031755 0.116865
654 4 0.331791 0.0290313 0.139179
1476 4 0.345641 0.0234916 0.152314
1449 4 0.422596 0.0364023 0.107477
1447 2 0.419753 0.0530481 0.0890375
1783 2 0.445209 0.0136251 0.136166
1784 4 0.432627 0.0230145 0.116705
746 4 0.465097 0.0729141 0.0961895
700 2 0.0690284 0.0948898 0.0770946
590 4 0.00350156 0.0845298 0.0973879
449 4 0.134281 0.0987693 0.118656
448 2 0.11506 0.0850594 0.110424
578 4 0.137603 0.108348 0.136716
577 2 0.154819 0.121727 0.148954
579 4 0.172035 0.135107 0.161193
277 2 0.285582 0.156815 0.162367
278 4 0.273344 0.165071 0.142187
582 4 0.284673 0.178525 0.131845
747 4 0.467879 0.107889 0.131822
745 2 0.466488 0.0904018 0.114006
25 3 0.461092 0.119627 0.147177
21 1 0.463677 0.138331 0.159911
22 3 0.469905 0.155886 0.146414
771 4 0.489779 0.158967 0.145738
24 3 0.443643 0.143633 0.170348
758 4 0.426214 0.149538 0.161852
2807 4 0.0526699 0.239909 0.110197
2759 4 0.00774671 0.179922 0.129737
736 2 0.048919 0.189045 0.134382
738 4 0.024814 0.188992 0.127739
737 4 0.073024 0.189097 0.141024
477 4 0.0710074 0.247319 0.108203
507 4 0.0920066 0.181552 0.14451
505 2 0.106932 0.201243 0.14068
506 4 0.121857 0.220934 0.136849
755 4 0.118088 0.223563 0.117032
754 2 0.137905 0.231719 0.10415
756 4 0.157723 0.239875 0.091269
462 4 0.177686 0.239092 0.0960435
460 2 0.195996 0.242592 0.112706
581 4 0.276886 0.210691 0.0943565
580 2 0.280779 0.194608 0.113101
254 4 0.376435 0.165964 0.130848
253 2 0.392414 0.185189 0.130387
255 4 0.408394 0.204415 0.129925
517 2 0.367059 0.23436 0.163152
518 4 0.388009 0.220803 0.164722
528 4 0.410283 0.213149 0.146738
2893 2 0.4466 0.203796 0.0858145
2894 4 0.449143 0.179167 0.0893008
526 2 0.420069 0.235777 0.150905
2806 2 0.0317731 0.250545 0.101515
2808 4 0.0108762 0.26118 0.0928324
647 4 0.0343336 0.321174 0.15872
2771 4 0.0179503 0.278953 0.097447
417 4 0.0851836 0.318924 0.151057
475 2 0.0902865 0.257515 0.120432
361 2 0.128357 0.315937 0.157775
476 4 0.109566 0.267711 0.13266
395 4 0.0965833 0.274911 0.146378
363 4 0.104218 0.320783 0.153416
362 4 0.152496 0.311092 0.162133
623 4 0.221 0.265362 0.130019
461 4 0.214307 0.246092 0.129368
622 2 0.245252 0.259819 0.132522
309 4 0.330796 0.248018 0.147364
609 4 0.274634 0.312682 0.14591
624 4 0.269505 0.254277 0.135026
607 2 0.274151 0.32461 0.12394
612 4 0.286603 0.310959 0.162057
610 2 0.310874 0.311671 0.168022
519 4 0.346108 0.247917 0.161581
672 4 0.434979 0.279978 0.0837697
2841 4 0.440728 0.293443 0.0990277
2839 2 0.43678 0.284792 0.122152
2840 4 0.432831 0.27614 0.145276
527 4 0.429855 0.258406 0.155072
415 2 0.0787622 0.342347 0.156999
608 4 0.273668 0.336537 0.101969
740 4 0.291871 0.334501 0.0923383
244 2 0.321816 0.406506 0.1039
2652 4 0.399406 0.393157 0.120852
2650 2 0.402752 0.379504 0.14153
596 4 0.396227 0.412243 0.11613
2651 4 0.406099 0.365851 0.162207
245 4 0.335448 0.402473 0.124469
315 4 0.0319423 0.429698 0.0759132
313 2 0.0296268 0.448838 0.0918347
314 4 0.0273112 0.467977 0.107756
1710 4 0.0354197 0.487663 0.1033
289 2 0.167702 0.485809 0.120624
536 4 0.112879 0.411661 0.176232
1788 4 0.133597 0.508343 0.101883
291 4 0.184981 0.470042 0.129457
627 4 0.188476 0.453314 0.118107
625 2 0.205365 0.448994 0.136031
626 4 0.222254 0.444674 0.153955
768 4 0.242131 0.444668 0.149031
385 2 0.333215 0.437935 0.150038
387 4 0.339261 0.417788 0.136521
659 4 0.431986 0.462475 0.118337
597 4 0.430884 0.445568 0.129879
658 2 0.446376 0.482907 0.11913
595 2 0.413556 0.428906 0.123004
427 2 0.102235 0.996145 0.237847
428 4 0.110449 0.988409 0.215535
1504 2 0.275718 0.0150217 0.192161
691 2 0.279321 0.0756329 0.210684
1505 4 0.282429 0.0327215 0.208497
692 4 0.286194 0.0518264 0.214029
27 3 0.310786 0.0314348 0.241533
1474 2 0.358332 0.00589264 0.164739
236 4 0.185319 0.151163 0.163701
235 2 0.201049 0.146506 0.18257
237 4 0.216779 0.141849 0.201439
722 4 0.213485 0.125653 0.213839
721 2 0.236414 0.116243 0.217141
693 4 0.272448 0.0994395 0.207339
723 4 0.259343 0.106832 0.220443
730 2 0.30901 0.15796 0.214191
279 4 0.297821 0.148559 0.182547
731 4 0.329127 0.16342 0.228
732 4 0.288893 0.152499 0.200383
759 4 0.393867 0.164122 0.19709
757 2 0.410041 0.15683 0.179471
629 4 0.39817 0.162689 0.21744
606 4 0.329517 0.165454 0.24784
23 3 0.480216 0.134859 0.175812
699 4 0.441849 0.148932 0.251257
521 4 0.450881 0.150817 0.232707
744 4 0.408927 0.0977016 0.254046
511 2 0.0822171 0.220403 0.224809
513 4 0.0782978 0.243736 0.216723
392 4 0.137466 0.174633 0.212385
512 4 0.0861364 0.19707 0.232894
393 4 0.0952607 0.180362 0.238589
545 4 0.161031 0.212387 0.16988
391 2 0.116363 0.177498 0.225487
546 4 0.152787 0.173438 0.20014
544 2 0.156909 0.192913 0.18501
285 4 0.174754 0.225654 0.159647
284 4 0.208275 0.243793 0.192021
283 2 0.191515 0.234724 0.175834
628 2 0.389823 0.183325 0.228826
630 4 0.381475 0.203961 0.240213
377 4 0.393888 0.219369 0.242087
376 2 0.404024 0.239776 0.231791
520 2 0.466376 0.168842 0.240464
396 4 0.083729 0.278687 0.194557
2692 2 0.0470582 0.270186 0.216503
2694 4 0.0639192 0.277739 0.199656
2693 4 0.0301973 0.262633 0.233351
394 2 0.0901562 0.276799 0.170468
735 4 0.0893579 0.282696 0.224568
339 4 0.147698 0.337837 0.200178
299 4 0.0990426 0.331042 0.230985
733 2 0.0889608 0.282733 0.249569
498 4 0.307577 0.261564 0.196593
307 2 0.31323 0.25326 0.164368
308 4 0.295664 0.258502 0.181372
496 2 0.306922 0.255162 0.220754
497 4 0.306267 0.24876 0.244915
611 4 0.335145 0.312382 0.173988
345 4 0.350455 0.308821 0.188419
343 2 0.354655 0.331876 0.197135
378 4 0.414159 0.260183 0.221496
537 4 0.0802731 0.373938 0.180041
416 4 0.0723407 0.36577 0.162941
646 2 0.0214089 0.332214 0.177057
648 4 0.00848422 0.343254 0.195394
337 2 0.158264 0.355604 0.214244
535 2 0.0965759 0.3928 0.178136
298 2 0.0916195 0.347666 0.213847
300 4 0.0841963 0.36429 0.196708
366 4 0.137496 0.400649 0.237334
338 4 0.168829 0.373372 0.228311
1574 4 0.332523 0.421765 0.222859
344 4 0.358855 0.354932 0.205851
645 4 0.372493 0.369066 0.211692
643 2 0.357539 0.38909 0.210901
644 4 0.342586 0.409114 0.210109
2538 4 0.426001 0.366686 0.167921
2536 2 0.431879 0.38107 0.187511
2537 4 0.437757 0.395453 0.2071
108 3 0.483922 0.387658 0.223941
714 4 0.426447 0.399653 0.223994
106 1 0.487386 0.387644 0.246885
1775 4 0.117618 0.429443 0.169998
1774 2 0.122704 0.443396 0.190113
1776 4 0.12779 0.45735 0.210228
414 4 0.139536 0.456629 0.225776
603 4 0.155791 0.409302 0.23676
766 2 0.254906 0.462723 0.160693
504 4 0.195717 0.477815 0.221045
601 2 0.1797 0.41195 0.243581
602 4 0.203608 0.414599 0.250402
502 2 0.202814 0.495906 0.236778
638 4 0.258468 0.494125 0.184
386 4 0.327168 0.458082 0.163555
767 4 0.267681 0.480777 0.172355
1575 4 0.35383 0.465237 0.210331
1573 2 0.343177 0.443501 0.216595
1659 4 0.366955 0.468036 0.195629
229 2 0.414309 0.473311 0.242897
230 4 0.393787 0.477457 0.256565
1657 2 0.366322 0.490702 0.185092
231 4 0.434831 0.469164 0.229228
713 4 0.429757 0.449549 0.224283
712 2 0.428102 0.424601 0.224139
1402 2 0.0454107 0.00948382 0.256424
1404 4 0.0474558 0.0337758 0.250865
429 4 0.0940221 0.00388221 0.26016
1478 4 0.0899942 0.0150106 0.312587
1477 2 0.089324 0.0188802 0.287894
1479 4 0.0886537 0.0227498 0.2632
398 4 0.103525 0.000545721 0.313346
30 3 0.317452 0.0514982 0.272289
26 1 0.327036 0.0385952 0.256155
248 4 0.26342 0.0793913 0.314323
247 2 0.265158 0.0561657 0.323418
28 3 0.337141 0.020067 0.265799
29 3 0.34276 0.0509794 0.244415
1747 2 0.400853 0.0157806 0.292185
1749 4 0.396709 0.000270853 0.311354
743 4 0.40405 0.051566 0.272712
1748 4 0.404996 0.0312904 0.273016
742 2 0.406488 0.0746338 0.263379
405 4 0.273676 0.0973296 0.309946
404 4 0.297394 0.136507 0.289863
403 2 0.285535 0.116918 0.299905
631 2 0.345688 0.157783 0.324414
697 2 0.433719 0.125908 0.25664
698 4 0.425589 0.102884 0.262023
331 2 0.452195 0.17043 0.313012
333 4 0.435135 0.169695 0.331277
2615 4 0.00227883 0.204957 0.261327
530 4 0.0420411 0.181359 0.308374
2798 4 0.01289 0.214307 0.275048
458 4 0.0303871 0.177624 0.322944
529 2 0.064211 0.187786 0.298763
531 4 0.0863809 0.194213 0.289153
2797 2 0.0229799 0.234029 0.263454
2850 4 0.104451 0.198634 0.299767
2848 2 0.113764 0.201076 0.276691
2849 4 0.123077 0.203517 0.253615
604 2 0.324335 0.166467 0.27228
708 4 0.300262 0.214868 0.31497
765 4 0.30491 0.232081 0.303752
763 2 0.298776 0.23563 0.279774
605 4 0.319153 0.167481 0.296719
633 4 0.32648 0.1702 0.314312
764 4 0.292641 0.239179 0.255796
332 4 0.469255 0.171165 0.294747
522 4 0.481872 0.186867 0.248222
420 4 0.498875 0.198538 0.253181
351 4 0.409796 0.217274 0.318528
2799 4 0.0330698 0.253751 0.25186
2655 4 0.0552093 0.296389 0.321865
2653 2 0.0745775 0.294115 0.306217
2800 2 0.00769014 0.310616 0.331297
618 4 0.135934 0.303722 0.261255
734 4 0.0885636 0.282771 0.274569
2654 4 0.0939456 0.291841 0.290568
749 4 0.149386 0.292787 0.269692
748 2 0.170633 0.289238 0.282387
616 2 0.135991 0.328528 0.258115
389 4 0.197887 0.286835 0.3147
750 4 0.19188 0.285689 0.295081
509 4 0.249073 0.3165 0.310295
508 2 0.266729 0.304388 0.323208
435 4 0.246473 0.331023 0.296134
2924 4 0.415958 0.331111 0.324322
617 4 0.136048 0.353333 0.254974
365 4 0.131881 0.364036 0.27093
364 2 0.134689 0.382343 0.254132
727 2 0.228959 0.409737 0.273211
434 4 0.247314 0.37658 0.275529
729 4 0.241829 0.392562 0.286039
433 2 0.246894 0.353802 0.285832
275 4 0.296561 0.394631 0.308279
274 2 0.319117 0.38407 0.310489
615 4 0.400385 0.335477 0.312041
276 4 0.341673 0.37351 0.312698
613 2 0.38039 0.35048 0.311508
614 4 0.360395 0.365483 0.310975
109 3 0.468904 0.378686 0.257681
110 3 0.491114 0.408888 0.254194
679 2 0.064661 0.463156 0.268497
501 4 0.0416939 0.480131 0.29151
680 4 0.0428561 0.474702 0.272551
681 4 0.0864659 0.451611 0.264443
499 2 0.0305567 0.495182 0.308082
500 4 0.0194196 0.510232 0.324654
412 2 0.132631 0.467076 0.247418
413 4 0.125727 0.477522 0.26906
677 4 0.130607 0.488175 0.285549
676 2 0.14598 0.478445 0.302701
678 4 0.161352 0.468715 0.319854
375 4 0.175284 0.461621 0.332133
728 4 0.216089 0.426913 0.260384
3 3 0.312348 0.481669 0.308683
446 4 0.376702 0.447196 0.308869
543 4 0.368179 0.433537 0.298455
541 2 0.355457 0.422967 0.279704
542 4 0.342736 0.412397 0.260952
445 2 0.3716 0.43559 0.33042
1802 4 0.35367 0.501671 0.3199
3990 4 0.499145 0.416475 0.271804
249 4 0.266896 0.03294 0.332514
1700 4 0.272285 0.0350349 0.351861
1699 2 0.286761 0.0358905 0.37223
1701 4 0.301237 0.0367461 0.392599
2642 4 0.390015 0.0751984 0.415424
2910 4 0.503007 0.0718483 0.395301
2880 4 0.490319 0.0583062 0.40047
685 2 0.0782256 0.16368 0.381345
687 4 0.0833367 0.169504 0.357573
684 4 0.329448 0.0967416 0.410879
467 4 0.318016 0.105075 0.396666
468 4 0.29537 0.125147 0.356854
466 2 0.306693 0.115111 0.37676
479 4 0.389415 0.0932587 0.406982
632 4 0.364895 0.145366 0.334516
478 2 0.401723 0.0992844 0.386068
480 4 0.414032 0.10531 0.365155
515 4 0.409813 0.112084 0.347335
2502 4 0.495314 0.088114 0.403269
516 4 0.421517 0.160129 0.339891
514 2 0.415665 0.136107 0.343613
2500 2 0.493833 0.112647 0.398672
686 4 0.0731145 0.157857 0.405118
2585 4 0.00442907 0.171517 0.385862
457 2 0.0244015 0.177264 0.347218
459 4 0.0184158 0.176905 0.371492
368 4 0.154731 0.196607 0.391573
470 4 0.139472 0.192917 0.40382
469 2 0.128528 0.207746 0.420717
367 2 0.178786 0.190346 0.388867
369 4 0.202841 0.184084 0.38616
474 4 0.220707 0.191718 0.382476
472 2 0.234818 0.181655 0.400498
370 2 0.212832 0.241112 0.379108
372 4 0.217051 0.230744 0.401465
473 4 0.24893 0.171592 0.41852
706 2 0.296386 0.206224 0.338109
707 4 0.29251 0.197579 0.361248
715 2 0.290651 0.201608 0.394063
717 4 0.296704 0.18504 0.376342
350 4 0.408089 0.218699 0.368486
349 2 0.408943 0.217987 0.343507
2515 2 0.489727 0.219132 0.383703
2517 4 0.472727 0.227645 0.399942
452 4 0.457889 0.239675 0.393591
2801 4 0.0247773 0.294224 0.323265
442 2 0.0505009 0.291404 0.377834
443 4 0.0353527 0.276764 0.364367
444 4 0.0656492 0.306044 0.391301
260 4 0.0859492 0.307932 0.387109
259 2 0.0916847 0.305591 0.411333
388 2 0.193493 0.272669 0.33483
390 4 0.189099 0.258504 0.35496
371 4 0.208612 0.251481 0.35675
510 4 0.284384 0.292276 0.336122
636 4 0.301966 0.295903 0.343018
634 2 0.318509 0.30944 0.355989
873 4 0.281212 0.309461 0.409875
635 4 0.335052 0.322978 0.368961
451 2 0.439153 0.243257 0.409755
453 4 0.420416 0.246839 0.425919
119 3 0.488556 0.329306 0.374526
2923 2 0.432417 0.32826 0.342927
2925 4 0.448876 0.325409 0.361532
325 2 0.134331 0.41408 0.392113
327 4 0.13348 0.39918 0.412174
669 4 0.310829 0.36922 0.415892
667 2 0.318595 0.353176 0.398358
594 4 0.316251 0.388141 0.410904
592 2 0.307885 0.409974 0.402044
668 4 0.326361 0.337132 0.380823
752 4 0.357567 0.425735 0.370192
120 3 0.48424 0.366573 0.371335
116 1 0.474716 0.347375 0.37904
117 3 0.454559 0.344133 0.36844
118 3 0.471001 0.348995 0.401887
2508 4 0.488537 0.35717 0.408018
326 4 0.135182 0.42898 0.372052
373 2 0.164244 0.446427 0.348638
374 4 0.153204 0.431233 0.365143
2109 4 0.178459 0.439207 0.395069
2107 2 0.190159 0.451013 0.413748
1 1 0.318022 0.484295 0.331029
1557 4 0.300163 0.492196 0.412536
1555 2 0.292999 0.469143 0.406023
1556 4 0.285834 0.44609 0.39951
593 4 0.29952 0.431808 0.393185
5 3 0.317864 0.464078 0.341513
4 3 0.339045 0.493958 0.332781
447 4 0.366498 0.423984 0.351971
753 4 0.372104 0.428069 0.417983
751 2 0.364835 0.426902 0.394088
561 4 0.492608 0.475182 0.395956
560 4 0.452406 0.448833 0.382163
559 2 0.472507 0.462008 0.389059
2428 2 0.220198 0.990632 0.433853
2429 4 0.201135 0.00260438 0.444736
600 4 0.181673 0.000580757 0.43957
3158 4 0.356925 0.018199 0.498085
575 4 0.345651 0.0296077 0.485894
574 2 0.353115 0.0508337 0.474989
576 4 0.36058 0.0720597 0.464084
2641 2 0.390432 0.0614981 0.436336
2643 4 0.390848 0.0477978 0.457248
1517 4 0.402597 0.0467722 0.472587
682 2 0.336581 0.0851468 0.431852
683 4 0.343714 0.0735521 0.452825
2879 4 0.490611 0.0189687 0.431344
2878 2 0.490465 0.0386375 0.415907
342 4 0.0679439 0.157963 0.423926
340 2 0.057431 0.13966 0.437329
341 4 0.0469182 0.121357 0.450733
1035 4 0.0381373 0.103856 0.450901
1033 2 0.0319275 0.104731 0.475105
1034 4 0.0257176 0.105606 0.499309
1272 4 0.10499 0.165082 0.483101
726 4 0.3324 0.143507 0.491932
900 4 0.343704 0.159837 0.485162
2658 4 0.478583 0.141849 0.417413
2656 2 0.475714 0.148711 0.441285
2657 4 0.472846 0.155573 0.465156
825 4 0.0623561 0.193375 0.454217
1200 4 0.0519019 0.187183 0.471058
823 2 0.0848334 0.187846 0.46367
1198 2 0.0334042 0.189068 0.487775
824 4 0.107311 0.182316 0.473124
471 4 0.117583 0.222576 0.437613
401 4 0.215715 0.231905 0.420937
649 2 0.238204 0.173721 0.454803
651 4 0.234968 0.179694 0.43074
400 2 0.232025 0.244263 0.435305
650 4 0.241441 0.167748 0.478866
716 4 0.284597 0.218176 0.411784
640 2 0.296977 0.229687 0.493615
488 4 0.295494 0.231544 0.420279
641 4 0.296191 0.254525 0.490851
642 4 0.297763 0.204849 0.49638
899 4 0.310373 0.197032 0.48267
898 2 0.327038 0.178435 0.483916
487 2 0.319122 0.237709 0.425654
489 4 0.34275 0.243873 0.431029
267 4 0.361394 0.251562 0.426412
261 4 0.0974202 0.303251 0.435557
695 4 0.0934908 0.291678 0.450752
694 2 0.103099 0.292836 0.473807
696 4 0.112707 0.293994 0.496861
402 4 0.248336 0.256621 0.449672
812 4 0.288222 0.270998 0.498942
811 2 0.298816 0.284568 0.480809
813 4 0.30941 0.298137 0.462675
872 4 0.313958 0.292179 0.443486
871 2 0.297585 0.30082 0.426681
266 4 0.409557 0.260816 0.436182
265 2 0.385475 0.256189 0.431297
585 4 0.431015 0.31529 0.44696
3307 2 0.492401 0.326252 0.493764
710 4 0.146471 0.398931 0.427586
711 4 0.190538 0.387808 0.448445
709 2 0.168505 0.39337 0.438015
773 4 0.204681 0.390703 0.461495
772 2 0.209536 0.375814 0.480986
240 4 0.375064 0.430664 0.466624
335 4 0.382714 0.413536 0.460905
336 4 0.403711 0.368157 0.461678
334 2 0.393212 0.390846 0.461291
584 4 0.409019 0.360144 0.444713
583 2 0.420017 0.337717 0.445836
2506 2 0.500745 0.358809 0.429777
406 2 0.0143207 0.428184 0.444453
407 4 0.0310338 0.435936 0.461357
383 4 0.0291854 0.444626 0.480311
382 2 0.0406114 0.45721 0.498649
1444 2 0.210783 0.475085 0.462647
1445 4 0.207565 0.482589 0.439014
1446 4 0.214002 0.467581 0.48628
2108 4 0.201859 0.462819 0.432427
1399 2 0.306204 0.498627 0.47549
1400 4 0.325888 0.496233 0.460258
239 4 0.352244 0.471047 0.485309
238 2 0.363654 0.450855 0.475967
1979 4 0.344402 0.492008 0.464913
588 4 0.502464 0.469763 0.41231
3110 4 0.992526 0.0600302 0.522342
1152 4 0.206942 0.0371352 0.519177
1150 2 0.228243 0.0483993 0.512501
1059 4 0.207377 0.0182613 0.510929
1057 2 0.208375 0.998973 0.49505
1151 4 0.249543 0.0596634 0.505824
3157 2 0.334959 0.00723989 0.502834
962 4 0.309158 0.995012 0.527904
425 4 0.416751 0.0204233 0.525262
1518 4 0.407125 0.0373401 0.521488
424 2 0.42296 0.00280222 0.541879
1516 2 0.404861 0.0420562 0.497038
939 4 0.0416861 0.134328 0.550645
937 2 0.0325455 0.117199 0.53489
1221 4 0.0447998 0.154046 0.55544
938 4 0.0234049 0.10007 0.519135
1219 2 0.0692387 0.15728 0.551261
1184 4 0.0187693 0.0822796 0.570493
1220 4 0.0936777 0.160513 0.547083
1271 4 0.100191 0.150267 0.530622
1270 2 0.10259 0.157675 0.506862
1182 4 0.250536 0.0803375 0.508731
1180 2 0.273361 0.0892534 0.513702
1181 4 0.296186 0.0981694 0.518673
725 4 0.312848 0.107749 0.520912
724 2 0.322624 0.125628 0.506422
858 4 0.25725 0.160252 0.549229
856 2 0.256446 0.160017 0.574219
3043 2 0.0138701 0.233027 0.554245
3461 4 0.00823613 0.190375 0.568813
3044 4 0.0104321 0.20916 0.560859
3045 4 0.0173082 0.256893 0.54763
1199 4 0.0149065 0.190954 0.504492
346 2 0.157899 0.253257 0.543232
347 4 0.172006 0.232741 0.545536
319 2 0.24894 0.180507 0.514362
321 4 0.241849 0.184622 0.490741
320 4 0.25603 0.176391 0.537983
792 4 0.387536 0.246966 0.527966
3065 4 0.510804 0.203247 0.576273
879 4 0.0348964 0.264306 0.555657
877 2 0.0597623 0.26653 0.554271
878 4 0.0846282 0.268753 0.552885
348 4 0.143792 0.273772 0.540927
8 3 0.125185 0.264054 0.541383
9 3 0.0927791 0.283911 0.541372
6 1 0.113982 0.282137 0.532114
7 3 0.125752 0.301349 0.536752
10 3 0.112414 0.279566 0.50954
802 2 0.321002 0.326142 0.576677
803 4 0.332298 0.308076 0.589762
790 2 0.411691 0.248839 0.534145
791 4 0.435847 0.250713 0.540323
269 4 0.434029 0.268833 0.530421
3309 4 0.479395 0.315481 0.512204
270 4 0.463966 0.308092 0.522469
268 2 0.448997 0.288462 0.526445
2814 4 0.0413318 0.378959 0.547882
3333 4 0.027016 0.377647 0.534669
3331 2 0.00503435 0.379315 0.522871
2812 2 0.0638977 0.374139 0.538252
2813 4 0.0864635 0.36932 0.528622
1394 4 0.211485 0.348938 0.566065
1395 4 0.217623 0.348339 0.516439
1393 2 0.214554 0.348639 0.541252
774 4 0.214391 0.360924 0.500478
1029 4 0.240961 0.397749 0.56824
1239 4 0.254088 0.381924 0.566326
1237 2 0.275349 0.369989 0.560784
1238 4 0.29661 0.358054 0.555242
804 4 0.309707 0.344208 0.563592
1027 2 0.253491 0.419127 0.571579
384 4 0.0520374 0.469793 0.516988
935 4 0.0600497 0.488636 0.524237
934 2 0.0840101 0.483475 0.52918
936 4 0.107971 0.478314 0.534124
1040 4 0.110292 0.466671 0.55011
1039 2 0.124753 0.464802 0.570422
2244 4 0.208317 0.472559 0.50462
2242 2 0.211474 0.485385 0.525849
2243 4 0.214631 0.498212 0.547079
1028 4 0.266022 0.440504 0.574919
928 2 0.346458 0.480867 0.516916
930 4 0.354506 0.46105 0.503967
3076 2 0.0228076 0.0713781 0.604739
3078 4 0.0118032 0.0634483 0.625743
2991 4 0.0640837 0.0787158 0.655078
3077 4 0.033812 0.079308 0.583734
864 4 0.0810565 0.0873148 0.661181
2318 4 0.23397 0.0803376 0.577949
2317 2 0.222685 0.0867218 0.599329
1031 4 0.310793 0.00505576 0.603424
1030 2 0.305336 0.0283806 0.61059
1032 4 0.299878 0.0517054 0.617756
1142 4 0.2824 0.0620598 0.614758
1005 4 0.333748 0.0181142 0.661737
842 4 0.409283 0.0486396 0.607059
841 2 0.397187 0.0271554 0.611218
1003 2 0.352561 0.0121778 0.646374
843 4 0.385091 0.00567124 0.615377
1004 4 0.371373 0.00624145 0.63101
1163 4 0.457051 0.99404 0.653911
2990 4 0.015627 0.0910697 0.655296
2989 2 0.0398554 0.0848928 0.655187
851 4 0.0480264 0.171429 0.65781
2319 4 0.2114 0.093106 0.620708
1284 4 0.206472 0.0826162 0.638464
1282 2 0.210425 0.101081 0.654854
1141 2 0.296991 0.0811847 0.621578
1143 4 0.311582 0.10031 0.628398
887 4 0.332434 0.103276 0.630063
857 4 0.255642 0.159782 0.599209
886 2 0.3408 0.126772 0.631828
953 4 0.358872 0.162303 0.64624
888 4 0.349166 0.150269 0.633592
906 4 0.489287 0.142206 0.597067
1011 4 0.481294 0.136335 0.615414
1009 2 0.463027 0.119546 0.612308
1026 4 0.473976 0.12503 0.652162
1010 4 0.444761 0.102758 0.609203
3462 4 0.0103645 0.155366 0.604458
3460 2 0.0093003 0.172871 0.586635
1212 4 0.23902 0.213865 0.660065
410 4 0.253876 0.206574 0.648376
409 2 0.250649 0.190879 0.629181
411 4 0.247422 0.175185 0.609986
952 2 0.340696 0.177926 0.653362
954 4 0.322521 0.19355 0.660484
904 2 0.495008 0.163815 0.585865
905 4 0.50073 0.185424 0.574662
3123 4 0.483074 0.221344 0.658453
3121 2 0.491575 0.244856 0.658111
806 4 0.33616 0.290599 0.599695
805 2 0.356105 0.276964 0.593259
807 4 0.376051 0.263328 0.586822
3322 2 0.487074 0.288288 0.6072
3324 4 0.464097 0.285656 0.597696
3370 2 0.504231 0.313393 0.653526
3122 4 0.500075 0.268368 0.65777
897 4 0.171106 0.34534 0.624799
896 4 0.128568 0.34014 0.650572
992 4 0.128986 0.34369 0.671179
895 2 0.149837 0.34274 0.637686
1190 4 0.222017 0.342193 0.581887
1189 2 0.200921 0.346153 0.59471
1191 4 0.179824 0.350113 0.607533
3372 4 0.509451 0.337637 0.650341
1007 4 0.492666 0.344194 0.641245
1006 2 0.492217 0.365717 0.628528
1008 4 0.491768 0.38724 0.61581
1041 4 0.139213 0.462934 0.590734
1136 4 0.156249 0.453084 0.592307
1135 2 0.170722 0.470578 0.602779
1137 4 0.185195 0.488073 0.61325
540 4 0.192698 0.503571 0.602121
1172 4 0.264254 0.460563 0.580613
1171 2 0.2754 0.480611 0.590565
1173 4 0.286546 0.500659 0.600516
891 4 0.357005 0.471095 0.608263
890 4 0.363061 0.475829 0.657676
889 2 0.360033 0.473462 0.632969
1953 4 0.359124 0.490275 0.60875
1099 2 0.505302 0.470222 0.645449
943 2 0.11735 0.0625605 0.73172
944 4 0.118829 0.0786714 0.712656
863 4 0.10511 0.0699535 0.701439
862 2 0.0930834 0.0786342 0.68131
945 4 0.115871 0.0464497 0.750784
2255 4 0.132572 0.0422331 0.760454
1092 4 0.31336 0.0632396 0.718225
950 4 0.316891 0.0509492 0.703574
1090 2 0.299331 0.052411 0.735863
949 2 0.331758 0.0411875 0.685999
1091 4 0.285302 0.0415824 0.753501
951 4 0.346625 0.0314259 0.668425
1218 4 0.41898 0.0141846 0.74772
1107 4 0.0146877 0.100102 0.732124
1105 2 0.0199454 0.121678 0.743614
1106 4 0.0252031 0.143254 0.755104
1283 4 0.214378 0.119545 0.671243
1155 4 0.223127 0.129183 0.686116
1153 2 0.239359 0.140297 0.701549
1154 4 0.255592 0.151412 0.716981
1299 4 0.254199 0.162861 0.734375
1193 4 0.423629 0.158838 0.737401
1262 4 0.452368 0.168584 0.681205
1192 2 0.429024 0.163235 0.713386
1194 4 0.43442 0.167632 0.689371
1024 2 0.464107 0.124143 0.675119
3424 2 0.464788 0.112014 0.728482
3425 4 0.458476 0.104084 0.705625
1025 4 0.454239 0.123257 0.698076
850 2 0.0381456 0.18532 0.676102
1082 4 0.0180918 0.183773 0.701669
852 4 0.0282649 0.19921 0.694394
1081 2 0.00286413 0.187006 0.721236
1178 4 0.0399586 0.24183 0.73993
1177 2 0.0157969 0.237832 0.744972
948 4 0.141846 0.18003 0.731284
1260 4 0.155729 0.194609 0.726213
1258 2 0.172884 0.20583 0.711895
1210 2 0.218022 0.20877 0.672647
1211 4 0.197024 0.203676 0.685229
1259 4 0.190038 0.21705 0.697578
1297 2 0.276319 0.17425 0.736862
1298 4 0.298439 0.185639 0.739348
1086 4 0.351937 0.206841 0.758913
1261 2 0.463446 0.190754 0.677895
1263 4 0.474524 0.212924 0.674584
3038 4 0.00178116 0.325935 0.733847
1068 4 0.141179 0.312787 0.729033
1067 4 0.111544 0.276323 0.746145
1066 2 0.126362 0.294555 0.737589
993 4 0.145153 0.317814 0.710799
3329 4 0.403962 0.304545 0.716303
3328 2 0.396016 0.327191 0.709288
3419 4 0.00594751 0.335947 0.71662
3418 2 0.0158476 0.356374 0.727103
1281 4 0.0416635 0.378561 0.727884
1279 2 0.0515984 0.401467 0.72923
3420 4 0.0257477 0.376801 0.737586
991 2 0.137069 0.330752 0.690989
1278 4 0.23664 0.399857 0.735329
1097 4 0.217779 0.398488 0.74216
1044 4 0.326745 0.363096 0.687927
1276 2 0.258762 0.390498 0.742273
798 4 0.308434 0.356107 0.690943
1277 4 0.280883 0.381139 0.749218
797 4 0.290427 0.371786 0.734882
796 2 0.299431 0.363947 0.712912
1043 4 0.374064 0.346922 0.688265
1042 2 0.350405 0.355009 0.688096
3330 4 0.388071 0.349837 0.702273
3182 4 0.458608 0.365351 0.738706
2130 4 0.0369118 0.489195 0.693094
2129 4 0.997344 0.486475 0.723552
1280 4 0.0615334 0.424372 0.730576
884 4 0.0717448 0.437924 0.742597
2128 2 0.0171278 0.487835 0.708323
942 4 0.133021 0.444444 0.739832
2214 4 0.268046 0.440093 0.766613
1205 4 0.3631 0.457333 0.667092
1204 2 0.369591 0.441813 0.68559
1206 4 0.376083 0.426293 0.704088
1139 4 0.377079 0.429066 0.723908
1138 2 0.371808 0.441401 0.745008
1249 2 0.496207 0.466533 0.75448
1101 4 0.492253 0.467003 0.666533
1988 4 0.46437 0.493619 0.743753
1251 4 0.48296 0.486253 0.746682
1296 4 0.044124 0.00364107 0.836147
1286 4 0.0540587 0.00237444 0.819235
1285 2 0.063499 0.0181661 0.802303
1287 4 0.0729393 0.0339577 0.785372
1203 4 0.0825504 0.0465177 0.797701
1201 2 0.0923443 0.0693302 0.794726
831 4 0.122137 0.0910941 0.797638
1202 4 0.102138 0.0921427 0.791752
2254 2 0.140445 0.0186127 0.758155
1050 4 0.306081 0.015181 0.806534
1049 4 0.298477 0.0282855 0.758878
1048 2 0.302279 0.0217333 0.782706
1256 4 0.323184 0.0083119 0.800116
1255 2 0.334421 0.99699 0.81937
2322 4 0.420838 0.0466308 0.818532
965 4 0.425393 0.041563 0.799201
964 2 0.424691 0.0231085 0.782345
966 4 0.423989 0.00465405 0.76549
1130 4 0.0643807 0.155225 0.795954
1129 2 0.0874093 0.150451 0.787464
830 4 0.164319 0.107205 0.776146
829 2 0.143228 0.0991493 0.786892
1131 4 0.110438 0.145678 0.778974
947 4 0.124905 0.160096 0.773903
1149 4 0.218783 0.0943775 0.829624
907 2 0.195515 0.153572 0.775559
909 4 0.209455 0.144632 0.756826
840 4 0.266 0.131138 0.832511
977 4 0.405962 0.169248 0.741218
1023 4 0.376177 0.113315 0.831251
42 3 0.437387 0.152301 0.751367
3426 4 0.471101 0.119945 0.751339
44 3 0.421963 0.123089 0.769294
45 3 0.459388 0.126562 0.767063
41 1 0.439781 0.137952 0.769186
1111 2 0.430835 0.120729 0.820088
43 3 0.439897 0.150323 0.788816
1113 4 0.429129 0.136816 0.801023
1214 4 0.0409016 0.151361 0.764562
1215 4 0.00732823 0.179657 0.788497
1213 2 0.0241149 0.165509 0.776529
779 4 0.0671995 0.224614 0.820687
778 2 0.0487302 0.23765 0.83137
869 4 0.0836036 0.226806 0.809435
946 2 0.133375 0.170063 0.752594
868 2 0.0930889 0.203702 0.81063
870 4 0.102574 0.180599 0.811825