ITEM: TIMESTEP
1820000
ITEM: NUMBER OF ATOMS
4590
ITEM: BOX BOUNDS pp pp pp
-9.9985700000000008e+00 9.9985700000000008e+00
-9.9985700000000008e+00 9.9985700000000008e+00
-9.9985700000000008e+00 9.9985700000000008e+00
ITEM: ATOMS id type xs ys zs
3289 2 0.996447 0.0487468 0.0806649
1667 4 0.0193081 0.0936189 0.0119158
566 4 0.22274 0.0174068 0.0879128
485 4 0.228159 0.00564656 0.0737395
653 4 0.304567 0.0023977 0.0435728
1606 2 0.458607 0.0666268 0.0484663
1607 4 0.473831 0.0685626 0.0287262
1608 4 0.443383 0.0646911 0.0682063
1448 4 0.439894 0.00436652 0.0770011
746 4 0.444849 0.0593154 0.0878975
1668 4 0.0489494 0.0956822 0.0521383
1666 2 0.0341288 0.0946505 0.032027
700 2 0.0738637 0.102316 0.0785161
702 4 0.0512041 0.10731 0.0692
2625 4 0.0122349 0.109055 0.00286786
450 4 0.109062 0.0966391 0.0707427
701 4 0.0965232 0.0973226 0.0878321
571 2 0.214326 0.123422 0.0448172
914 4 0.214149 0.161392 0.0221291
572 4 0.208349 0.143575 0.0312785
357 4 0.229083 0.11475 0.0731672
573 4 0.220304 0.103269 0.058356
491 4 0.337389 0.131713 0.0241571
557 4 0.351377 0.138039 0.037828
556 2 0.371068 0.151038 0.0295511
558 4 0.390758 0.164036 0.0212743
665 4 0.408129 0.157897 0.0111339
255 4 0.419673 0.150111 0.0797231
490 2 0.331722 0.120543 0.00251693
3046 2 0.517362 0.13424 0.0304929
3048 4 0.522223 0.122107 0.051808
2639 4 0.433071 0.154116 0.0655507
2638 2 0.430684 0.154466 0.0406638
2640 4 0.428298 0.154817 0.0157768
476 4 0.0734217 0.233497 0.0786643
475 2 0.0549086 0.247643 0.0695906
581 4 0.247084 0.176061 0.0707943
296 4 0.249001 0.195306 0.068867
295 2 0.25521 0.199087 0.0449434
297 4 0.261419 0.202867 0.0210199
354 4 0.280995 0.200433 0.0166039
253 2 0.396144 0.156628 0.0851157
2806 2 0.00102866 0.277143 0.076879
2807 4 0.0210476 0.262532 0.0735701
477 4 0.0363956 0.261789 0.060517
456 4 0.161394 0.270459 0.0202836
287 4 0.128235 0.303915 0.060425
454 2 0.15111 0.279718 0.041109
455 4 0.140826 0.288976 0.0619344
286 2 0.136437 0.325895 0.0690718
608 4 0.311572 0.311907 0.0801393
740 4 0.311807 0.331145 0.0706741
670 2 0.470651 0.334884 0.0653743
672 4 0.477708 0.312804 0.0747465
328 2 0.0346879 0.376857 0.0722131
552 4 0.0679387 0.398862 0.0614802
329 4 0.0119796 0.366516 0.0706092
2772 4 0.993799 0.358579 0.065364
330 4 0.0573963 0.387198 0.073817
1103 4 0.0600207 0.422366 0.996376
550 2 0.0848571 0.404367 0.0790483
252 4 0.160177 0.358832 0.0746703
551 4 0.101776 0.409871 0.0966165
288 4 0.14464 0.347876 0.0777186
1691 4 0.123699 0.395687 0.00789592
1620 4 0.113987 0.411227 0.0175654
250 2 0.182541 0.366149 0.0662146
251 4 0.204904 0.373467 0.0577589
483 4 0.200156 0.383979 0.0409053
481 2 0.211437 0.397565 0.023204
482 4 0.222718 0.411151 0.00550274
739 2 0.329304 0.348993 0.0713446
15 3 0.345217 0.387159 0.0766975
1069 2 0.392124 0.363394 0.0301245
11 1 0.358965 0.395372 0.0605044
13 3 0.351316 0.41609 0.0533843
1070 4 0.367948 0.363553 0.0365007
14 3 0.359779 0.380645 0.0425922
12 3 0.380165 0.397821 0.0690888
1071 4 0.416301 0.363236 0.0237484
323 4 0.471179 0.349233 0.0391288
324 4 0.457453 0.383511 0.00540468
322 2 0.464316 0.366372 0.0222667
671 4 0.463594 0.356965 0.056002
2983 2 0.023706 0.471824 0.029581
2984 4 0.000792527 0.471346 0.0195848
2985 4 0.0466194 0.472302 0.0395772
1618 2 0.127572 0.432218 0.0174549
1619 4 0.141157 0.453209 0.0173444
2094 4 0.152314 0.471281 0.0170953
2092 2 0.171512 0.465268 0.0319421
2093 4 0.190711 0.459255 0.0467888
524 4 0.286792 0.430247 0.0576509
246 4 0.276454 0.43442 0.0735919
523 2 0.306227 0.433865 0.0423422
525 4 0.325663 0.437482 0.0270335
494 4 0.343946 0.430635 0.0378145
493 2 0.358846 0.42826 0.0178758
495 4 0.373745 0.425886 0.997937
658 2 0.434974 0.466443 0.0824717
659 4 0.438963 0.443487 0.0733996
660 4 0.430985 0.489399 0.0915437
597 4 0.426553 0.427674 0.0734461
3290 4 0.987491 0.0545259 0.103283
565 2 0.232251 0.0393603 0.0951775
567 4 0.241761 0.0613138 0.102442
356 4 0.245151 0.0802968 0.105656
692 4 0.269352 0.0353775 0.173629
1783 2 0.428764 0.995981 0.154675
1449 4 0.41383 0.015051 0.11832
1447 2 0.426862 0.00970875 0.0976604
1784 4 0.422394 0.00262142 0.131426
745 2 0.435838 0.0780273 0.10182
507 4 0.0774172 0.1563 0.103375
2759 4 0.994698 0.169688 0.100635
449 4 0.152019 0.104589 0.0950777
448 2 0.13054 0.100614 0.0829102
578 4 0.141903 0.115833 0.107996
577 2 0.143346 0.125746 0.130905
579 4 0.144789 0.13566 0.153814
505 2 0.10138 0.151865 0.0977815
506 4 0.125343 0.14743 0.0921881
355 2 0.237117 0.0975234 0.0894114
582 4 0.244536 0.163186 0.119048
277 2 0.283639 0.151615 0.13828
278 4 0.26102 0.156478 0.128798
279 4 0.306258 0.146751 0.147762
732 4 0.317421 0.132118 0.156482
759 4 0.412047 0.16651 0.165131
771 4 0.492559 0.121075 0.123477
747 4 0.426827 0.0967392 0.115743
25 3 0.435858 0.111647 0.124861
21 1 0.452811 0.125371 0.131409
23 3 0.453109 0.127102 0.154546
22 3 0.472852 0.116553 0.124353
24 3 0.450105 0.146375 0.121928
758 4 0.43671 0.174622 0.122392
757 2 0.424378 0.170566 0.143762
737 4 0.0635623 0.168809 0.0942293
738 4 0.0140578 0.165405 0.100429
736 2 0.0388101 0.167107 0.097329
754 2 0.139919 0.246374 0.136743
756 4 0.157444 0.233733 0.124162
462 4 0.158456 0.227506 0.105297
460 2 0.183344 0.229859 0.104849
461 4 0.208233 0.232211 0.104401
623 4 0.226115 0.241179 0.111229
622 2 0.236977 0.230946 0.131291
580 2 0.24581 0.169624 0.0949214
624 4 0.247839 0.220713 0.151353
254 4 0.372615 0.163146 0.0905084
519 4 0.344382 0.230027 0.152073
518 4 0.387 0.233123 0.126096
517 2 0.365691 0.231575 0.139084
528 4 0.396902 0.22257 0.112241
2894 4 0.490817 0.195307 0.0991508
2895 4 0.453902 0.165084 0.114139
2893 2 0.472359 0.180196 0.106645
526 2 0.420581 0.229641 0.108438
527 4 0.444261 0.236713 0.104635
378 4 0.434878 0.204697 0.157207
2840 4 0.453901 0.25345 0.0991952
376 2 0.455336 0.215621 0.166551
396 4 0.0779408 0.287122 0.174942
646 2 0.0160714 0.323294 0.127067
755 4 0.122395 0.259014 0.149324
395 4 0.12253 0.279139 0.153757
394 2 0.100235 0.28313 0.16435
612 4 0.30719 0.298681 0.141982
607 2 0.31636 0.305581 0.103851
610 2 0.313082 0.310419 0.163258
609 4 0.321149 0.299255 0.127562
309 4 0.328257 0.240892 0.151123
2841 4 0.47774 0.294129 0.0825325
2839 2 0.46582 0.273789 0.0908639
647 4 0.0335063 0.331707 0.111242
537 4 0.0606952 0.399182 0.136709
315 4 0.0481771 0.41266 0.130725
535 2 0.0436233 0.387865 0.15105
417 4 0.14069 0.373712 0.15604
416 4 0.101556 0.351005 0.177339
415 2 0.121123 0.362358 0.16669
363 4 0.157012 0.381416 0.164252
741 4 0.346802 0.366842 0.0720152
2651 4 0.399108 0.36288 0.144977
2538 4 0.408915 0.376012 0.158488
2650 2 0.413232 0.36512 0.124466
595 2 0.429033 0.404041 0.0812232
2652 4 0.427355 0.36736 0.103955
596 4 0.431513 0.380407 0.0890003
1708 2 0.0553644 0.486285 0.103998
1710 4 0.056214 0.464822 0.0911995
313 2 0.056265 0.432579 0.117959
314 4 0.0643529 0.452499 0.105193
1709 4 0.0545147 0.507748 0.116796
1788 4 0.100544 0.50803 0.159612
289 2 0.125509 0.479159 0.153787
291 4 0.144722 0.468244 0.142085
627 4 0.151276 0.448907 0.144265
1786 2 0.0800707 0.513609 0.146387
626 4 0.199005 0.460448 0.153725
625 2 0.175141 0.454678 0.148995
768 4 0.207756 0.444199 0.161524
244 2 0.286422 0.447066 0.0927195
387 4 0.30255 0.443439 0.121128
245 4 0.296391 0.459713 0.111847
385 2 0.322054 0.447397 0.136263
1673 4 0.423453 0.508313 0.0968633
693 4 0.245554 0.0774626 0.186404
723 4 0.228269 0.0719924 0.196556
1505 4 0.281143 0.021435 0.16637
691 2 0.257453 0.0564201 0.180016
404 4 0.296012 0.0673954 0.252144
742 2 0.397101 0.0780845 0.238551
236 4 0.16075 0.142861 0.163034
235 2 0.175993 0.1346 0.18105
237 4 0.191237 0.126339 0.199065
722 4 0.20934 0.118183 0.193578
721 2 0.218805 0.0950875 0.195067
546 4 0.183151 0.172295 0.220632
730 2 0.327086 0.140504 0.177963
27 3 0.315853 0.104571 0.229354
731 4 0.336751 0.148891 0.199444
606 4 0.345637 0.157718 0.215978
604 2 0.368044 0.158549 0.227043
744 4 0.414305 0.0962126 0.237796
630 4 0.421321 0.154232 0.225794
605 4 0.39045 0.15938 0.238109
629 4 0.415064 0.150092 0.176353
628 2 0.418193 0.152162 0.201073
698 4 0.425152 0.105961 0.250816
521 4 0.439039 0.153543 0.23529
697 2 0.449671 0.102983 0.246923
699 4 0.474189 0.100005 0.24303
2615 4 0.0123928 0.218397 0.23921
2798 4 0.0251207 0.23272 0.24423
391 2 0.161377 0.179289 0.243528
392 4 0.163091 0.17535 0.218896
285 4 0.228865 0.203849 0.201208
544 2 0.200431 0.182102 0.205453
545 4 0.217712 0.191909 0.190275
283 2 0.244016 0.214101 0.184164
284 4 0.259167 0.224353 0.167119
307 2 0.313941 0.250118 0.169429
308 4 0.299625 0.259344 0.187735
377 4 0.475794 0.226544 0.175895
2797 2 0.0314032 0.250205 0.227497
2694 4 0.0611559 0.290452 0.166331
2692 2 0.0483399 0.288643 0.187724
2693 4 0.0355239 0.286834 0.209117
2799 4 0.0376858 0.26769 0.210765
735 4 0.0844769 0.331342 0.238667
299 4 0.0710042 0.33893 0.225735
497 4 0.27161 0.265008 0.2365
498 4 0.292715 0.242595 0.197093
496 2 0.282162 0.253801 0.216797
611 4 0.318974 0.322157 0.184534
1775 4 0.0225274 0.390437 0.179581
536 4 0.0265513 0.376548 0.165391
1774 2 0.0242585 0.405335 0.199586
298 2 0.0837607 0.336023 0.204428
300 4 0.0965173 0.333116 0.183121
361 2 0.171229 0.380943 0.184815
339 4 0.178706 0.364818 0.215451
362 4 0.185446 0.38047 0.205378
337 2 0.19346 0.361621 0.235383
345 4 0.31406 0.342242 0.184878
343 2 0.314011 0.354425 0.206713
645 4 0.326156 0.381327 0.237387
344 4 0.313962 0.366608 0.228548
643 2 0.318685 0.404642 0.232312
2536 2 0.411141 0.397539 0.171011
108 3 0.475654 0.374877 0.227496
106 1 0.483311 0.381823 0.24827
107 3 0.479258 0.365188 0.263632
109 3 0.472052 0.401015 0.25485
414 4 0.0864897 0.440248 0.241077
681 4 0.0757875 0.457111 0.239885
1776 4 0.0259896 0.420234 0.219592
679 2 0.0605352 0.471438 0.25357
290 4 0.106297 0.490074 0.165489
413 4 0.0998358 0.435935 0.193077
412 2 0.0931627 0.438092 0.217077
766 2 0.229908 0.451443 0.170578
767 4 0.25206 0.458688 0.179632
386 4 0.341559 0.451355 0.151399
638 4 0.262773 0.471898 0.171439
644 4 0.311215 0.427958 0.227237
1575 4 0.347138 0.448168 0.171508
1573 2 0.333174 0.43966 0.190423
1574 4 0.319209 0.431151 0.209338
2537 4 0.413368 0.419065 0.183535
714 4 0.419918 0.433098 0.19643
712 2 0.432802 0.454482 0.197802
713 4 0.445687 0.475866 0.199174
231 4 0.44763 0.494757 0.204051
397 2 0.060912 0.0141023 0.335624
398 4 0.0744768 0.0275785 0.351735
428 4 0.14343 0.0399318 0.28612
1479 4 0.133465 0.050981 0.299289
1477 2 0.113149 0.0457751 0.312904
427 2 0.148444 0.0607556 0.27322
429 4 0.153458 0.0815793 0.26032
247 2 0.236363 0.0578331 0.300322
249 4 0.234526 0.053837 0.324936
248 4 0.238201 0.0618291 0.275709
405 4 0.249765 0.0518384 0.263094
403 2 0.272888 0.0596169 0.257619
28 3 0.340383 0.0783875 0.240547
743 4 0.379897 0.0599565 0.239306
1747 2 0.393469 0.0285386 0.266852
1748 4 0.384967 0.0482926 0.254097
480 4 0.385879 0.0731838 0.322823
515 4 0.374764 0.0863175 0.311982
1749 4 0.40197 0.0087846 0.279607
2718 4 0.0189482 0.145656 0.284878
30 3 0.307413 0.0825177 0.258255
26 1 0.324309 0.0935279 0.247675
29 3 0.333862 0.109047 0.262038
633 4 0.389264 0.150115 0.255707
516 4 0.339182 0.0977424 0.278754
514 2 0.356973 0.09203 0.295368
631 2 0.394061 0.157352 0.279155
632 4 0.398858 0.16459 0.302602
529 2 0.0738184 0.191139 0.320297
513 4 0.0651457 0.23933 0.299377
393 4 0.159662 0.183229 0.268159
531 4 0.0922027 0.205397 0.311138
2849 4 0.154045 0.190388 0.286533
2850 4 0.106332 0.194519 0.300923
2848 2 0.130188 0.192453 0.293728
389 4 0.190779 0.246071 0.317563
706 2 0.278693 0.250576 0.339287
332 4 0.391987 0.1788 0.312481
331 2 0.392288 0.20335 0.317215
333 4 0.39259 0.227899 0.321948
520 2 0.457949 0.166954 0.244658
418 2 0.486105 0.20206 0.288273
522 4 0.476858 0.180364 0.254026
420 4 0.474648 0.193097 0.267936
312 4 0.496476 0.221122 0.325631
2800 2 0.00462227 0.288148 0.281316
733 2 0.0796333 0.322043 0.261366
2801 4 0.017514 0.267038 0.277659
2654 4 0.0834907 0.296147 0.292832
734 4 0.0747898 0.312743 0.284065
2653 2 0.0919807 0.297031 0.316333
511 2 0.0841822 0.241765 0.28335
512 4 0.103219 0.2442 0.267323
749 4 0.147128 0.286826 0.294612
618 4 0.14016 0.304587 0.289838
616 2 0.136447 0.329193 0.287406
748 2 0.159584 0.266726 0.302737
750 4 0.172041 0.246627 0.310862
708 4 0.292841 0.258494 0.320253
765 4 0.284495 0.26684 0.303437
763 2 0.282756 0.26737 0.278499
764 4 0.281017 0.2679 0.253562
365 4 0.136387 0.368038 0.271982
617 4 0.132734 0.353799 0.284974
364 2 0.136941 0.392095 0.265191
338 4 0.208214 0.358425 0.255315
434 4 0.222934 0.372528 0.257281
729 4 0.24645 0.413586 0.28633
508 2 0.242743 0.351337 0.330378
433 2 0.237133 0.362563 0.275288
435 4 0.251333 0.352598 0.293295
509 4 0.253858 0.361615 0.310478
275 4 0.334648 0.417265 0.287211
274 2 0.356797 0.410174 0.296395
276 4 0.378945 0.403083 0.305579
614 4 0.390002 0.386918 0.311486
613 2 0.408873 0.370544 0.310509
615 4 0.427743 0.35417 0.309531
2924 4 0.439895 0.361268 0.324928
501 4 0.0406993 0.483321 0.286808
680 4 0.045283 0.485766 0.267256
366 4 0.137495 0.416152 0.258401
603 4 0.146147 0.433681 0.260872
601 2 0.168325 0.441543 0.269326
677 4 0.150982 0.476272 0.288633
676 2 0.155101 0.470798 0.31268
1640 4 0.160535 0.488639 0.275714
1639 2 0.163294 0.502457 0.255059
504 4 0.203231 0.497323 0.290939
727 2 0.226521 0.426969 0.279337
728 4 0.206591 0.440352 0.272343
602 4 0.190504 0.449406 0.27778
3 3 0.317025 0.480947 0.323963
542 4 0.434983 0.466602 0.322234
3591 4 0.0753811 0.0193686 0.369456
3589 2 0.0827015 0.00738057 0.390141
1478 4 0.0928332 0.0405692 0.326518
3590 4 0.0900218 0.995393 0.410827
2430 4 0.233858 0.0115913 0.404158
1700 4 0.227204 0.0357198 0.325544
1699 2 0.237825 0.0328565 0.347998
1701 4 0.248447 0.0299932 0.370451
468 4 0.258683 0.0364161 0.386977
466 2 0.282347 0.0439404 0.38405
467 4 0.306011 0.0514648 0.381124
479 4 0.379044 0.0656734 0.371788
478 2 0.382461 0.0694286 0.347305
2642 4 0.363584 0.0789786 0.368504
4239 4 0.504345 0.0151814 0.413973
1517 4 0.435298 0.0278468 0.402187
2879 4 0.496669 0.032888 0.41876
687 4 0.0368086 0.110442 0.342468
685 2 0.0238077 0.122149 0.360332
342 4 0.0224506 0.13548 0.395111
686 4 0.0108068 0.133855 0.378196
340 2 0.0402525 0.14484 0.409965
469 2 0.131271 0.140882 0.423892
471 4 0.117788 0.129936 0.405904
684 4 0.314596 0.0741302 0.410485
2641 2 0.342541 0.0820462 0.381655
2643 4 0.321498 0.0851139 0.394807
762 4 0.464923 0.120029 0.338914
760 2 0.454433 0.136557 0.35447
761 4 0.443942 0.153084 0.370026
530 4 0.0554341 0.17688 0.329457
457 2 0.0189299 0.181984 0.329851
458 4 0.0406095 0.178297 0.341749
367 2 0.16948 0.180783 0.418642
369 4 0.184312 0.198919 0.409908
474 4 0.226164 0.20641 0.406665
707 4 0.264544 0.242658 0.358321
715 2 0.287847 0.228756 0.389306
717 4 0.267527 0.235925 0.376621
716 4 0.308167 0.221586 0.40199
488 4 0.323845 0.217672 0.41557
349 2 0.360591 0.236926 0.347347
350 4 0.376741 0.238849 0.328356
2515 2 0.498059 0.20695 0.397229
311 4 0.501169 0.18653 0.361437
310 2 0.498823 0.203826 0.343534
443 4 0.086668 0.31291 0.34522
2655 4 0.100471 0.297915 0.339835
442 2 0.0977881 0.32479 0.364204
260 4 0.111119 0.321838 0.394783
444 4 0.108908 0.336669 0.383189
388 2 0.207288 0.252436 0.335231
390 4 0.223796 0.2588 0.352898
371 4 0.23939 0.270128 0.359308
372 4 0.226796 0.270968 0.407696
370 2 0.233093 0.270548 0.383502
636 4 0.220686 0.332074 0.3627
401 4 0.207233 0.264327 0.413122
351 4 0.344441 0.235002 0.366338
873 4 0.360041 0.295541 0.401902
549 4 0.0384151 0.379595 0.393109
547 2 0.0242731 0.395972 0.405637
510 4 0.231629 0.341059 0.350278
634 2 0.228505 0.344904 0.382686
635 4 0.236325 0.357734 0.402671
327 4 0.170601 0.408995 0.413523
325 2 0.184803 0.413027 0.393344
669 4 0.292978 0.390921 0.39232
667 2 0.273676 0.375051 0.393191
668 4 0.254374 0.359181 0.394061
753 4 0.310862 0.390787 0.381191
751 2 0.332988 0.39869 0.372638
752 4 0.355114 0.406593 0.364085
447 4 0.372515 0.395983 0.362905
117 3 0.46622 0.338029 0.385665
2925 4 0.455195 0.344425 0.369458
2923 2 0.447545 0.352846 0.347193
116 1 0.467527 0.354496 0.401674
120 3 0.485196 0.350233 0.415395
118 3 0.470434 0.374972 0.391153
678 4 0.15922 0.465324 0.336726
326 4 0.199006 0.417059 0.373164
375 4 0.177819 0.459536 0.340454
373 2 0.184705 0.47369 0.359881
374 4 0.191591 0.487844 0.379309
2109 4 0.211452 0.484555 0.38387
2107 2 0.228912 0.47983 0.401132
2108 4 0.246373 0.475105 0.418395
5 3 0.311875 0.513546 0.342086
1555 2 0.285737 0.493913 0.370415
1556 4 0.292145 0.473702 0.383667
593 4 0.266797 0.462243 0.396825
543 4 0.403438 0.454541 0.359115
446 4 0.402849 0.434779 0.354223
445 2 0.387682 0.415381 0.358564
541 2 0.419211 0.460571 0.340675
599 4 0.150771 0.0289519 0.454228
598 2 0.169503 0.0288272 0.437666
2428 2 0.216914 0.028317 0.411796
2429 4 0.19997 0.0450427 0.419435
600 4 0.188234 0.0287025 0.421105
682 2 0.324151 0.0722006 0.43351
683 4 0.333706 0.070271 0.456535
1182 4 0.265072 0.0398095 0.501423
1180 2 0.273949 0.0616228 0.493024
576 4 0.348037 0.0689907 0.471671
574 2 0.352998 0.0453809 0.47824
575 4 0.357959 0.0217712 0.484809
2878 2 0.48345 0.053302 0.424565
2880 4 0.470231 0.073716 0.43037
1516 2 0.425769 0.010454 0.417414
1200 4 0.0632429 0.160572 0.442886
341 4 0.0580543 0.1542 0.42482
470 4 0.144754 0.151827 0.441881
1270 2 0.13843 0.143629 0.477193
1272 4 0.141554 0.161271 0.459753
1271 4 0.135306 0.125986 0.494633
1220 4 0.118221 0.120165 0.486561
1181 4 0.282827 0.0834362 0.484624
725 4 0.274671 0.0978281 0.494212
724 2 0.288024 0.116198 0.483751
2657 4 0.426965 0.0848669 0.43944
2658 4 0.433852 0.134104 0.444823
2656 2 0.430408 0.109486 0.442132
1199 4 0.0771895 0.17363 0.489099
1198 2 0.0702162 0.167101 0.465992
368 4 0.154647 0.162647 0.427375
825 4 0.138504 0.227705 0.457828
823 2 0.1353 0.20543 0.468723
824 4 0.132096 0.183154 0.479618
472 2 0.246031 0.191572 0.409877
402 4 0.191603 0.217193 0.419026
400 2 0.199418 0.24076 0.416074
321 4 0.226826 0.198293 0.491337
640 2 0.252209 0.232118 0.475362
651 4 0.284751 0.183029 0.418462
649 2 0.296548 0.179774 0.440266
650 4 0.308345 0.176519 0.46207
473 4 0.265898 0.176734 0.413089
487 2 0.340406 0.224564 0.432989
489 4 0.356967 0.231456 0.450408
267 4 0.376026 0.224269 0.449343
265 2 0.399497 0.229382 0.442405
2517 4 0.487617 0.216338 0.417918
266 4 0.422969 0.234494 0.435467
452 4 0.475224 0.228293 0.428826
451 2 0.451456 0.232828 0.422527
453 4 0.427687 0.237362 0.416227
259 2 0.117265 0.323945 0.418927
694 2 0.108673 0.308207 0.473971
261 4 0.123412 0.326053 0.443072
695 4 0.121951 0.326638 0.463521
696 4 0.0953963 0.289776 0.484421
641 4 0.268213 0.249682 0.46758
812 4 0.275194 0.255937 0.448945
811 2 0.297708 0.26679 0.448216
813 4 0.320222 0.277642 0.447486
871 2 0.339694 0.29166 0.415907
872 4 0.319348 0.287779 0.429911
2506 2 0.494317 0.294186 0.472462
3308 4 0.455022 0.307866 0.487993
2508 4 0.475019 0.304089 0.484899
3307 2 0.442373 0.290417 0.500671
548 4 0.0101311 0.41235 0.418165
773 4 0.180555 0.421265 0.487403
711 4 0.188858 0.407923 0.474431
710 4 0.171445 0.396459 0.428976
709 2 0.180152 0.402191 0.451704
334 2 0.40584 0.400612 0.479514
336 4 0.417203 0.389407 0.460265
584 4 0.425293 0.370463 0.463
583 2 0.43059 0.356093 0.443236
585 4 0.435888 0.341723 0.423472
119 3 0.447829 0.354617 0.413937
408 4 0.0172182 0.414873 0.438466
407 4 0.0426124 0.451887 0.460507
406 2 0.0299153 0.43338 0.449486
383 4 0.0550174 0.452771 0.476961
382 2 0.0569918 0.440614 0.498721
1444 2 0.261396 0.485902 0.450819
592 2 0.272739 0.445641 0.414552
1445 4 0.264074 0.474421 0.428769
594 4 0.278681 0.429039 0.432279
335 4 0.394476 0.411817 0.498762
930 4 0.355234 0.48562 0.495812
240 4 0.387929 0.431246 0.495386
239 4 0.355746 0.46823 0.505243
238 2 0.371838 0.449738 0.500315
2712 4 0.463909 0.439018 0.474098
2710 2 0.4873 0.432398 0.46825
1150 2 0.23488 0.0155297 0.49858
1151 4 0.245622 0.0364308 0.50712
3158 4 0.346376 0.0225529 0.500994
3157 2 0.339884 0.00823681 0.520438
88 3 0.365745 0.0148505 0.574899
937 2 0.0456415 0.0909981 0.502032
938 4 0.0259007 0.0968727 0.487856
939 4 0.0653823 0.0851236 0.516209
1034 4 0.00618616 0.0977779 0.494313
1221 4 0.0773943 0.0999604 0.507192
1219 2 0.0978078 0.110063 0.496877
2317 2 0.248151 0.100542 0.562007
858 4 0.241645 0.176356 0.546409
2319 4 0.232677 0.103397 0.581438
2318 4 0.263626 0.0976871 0.542577
726 4 0.301377 0.134567 0.47329
3043 2 0.0152963 0.235374 0.585101
3044 4 0.0039546 0.213342 0.581759
320 4 0.252514 0.185648 0.532336
319 2 0.23967 0.19197 0.511836
642 4 0.236205 0.214554 0.483143
856 2 0.261059 0.171799 0.561492
857 4 0.280473 0.167243 0.576575
900 4 0.334815 0.210313 0.546438
898 2 0.345957 0.223289 0.564676
899 4 0.3571 0.236265 0.582915
3045 4 0.026638 0.257405 0.588444
879 4 0.0396792 0.258792 0.573394
877 2 0.051719 0.274639 0.558258
878 4 0.0637588 0.290486 0.543123
9 3 0.0832241 0.288 0.537753
2814 4 0.0161081 0.313673 0.569184
7 3 0.107914 0.315809 0.5323
346 2 0.120969 0.26831 0.571375
348 4 0.121735 0.28411 0.552012
8 3 0.120095 0.280256 0.532756
6 1 0.102593 0.294176 0.526568
10 3 0.0992915 0.292974 0.504067
1189 2 0.158881 0.32631 0.580505
1190 4 0.154981 0.349291 0.571458
1394 4 0.171237 0.34519 0.559621
803 4 0.340089 0.323314 0.546319
791 4 0.398459 0.272296 0.585968
806 4 0.350775 0.317086 0.561377
805 2 0.367169 0.300608 0.57059
807 4 0.383563 0.284129 0.579802
269 4 0.433109 0.266527 0.577404
268 2 0.43797 0.269693 0.553082
270 4 0.442832 0.272859 0.528761
3309 4 0.429725 0.272968 0.513349
3333 4 0.0242308 0.329715 0.56143
3331 2 0.0241509 0.347046 0.543408
3332 4 0.0240711 0.364377 0.525386
3353 4 0.0127188 0.356908 0.510984
772 2 0.176839 0.407618 0.508023
774 4 0.173123 0.393972 0.528642
1395 4 0.188931 0.383033 0.532133
1393 2 0.180084 0.364111 0.545877
802 2 0.338519 0.348117 0.549064
804 4 0.33695 0.372919 0.55181
1237 2 0.333768 0.401712 0.572332
1238 4 0.349434 0.387894 0.55859
935 4 0.054811 0.444522 0.531762
934 2 0.0635783 0.452981 0.553597
384 4 0.0589662 0.428457 0.52048
936 4 0.0723456 0.461441 0.575431
539 4 0.21328 0.487441 0.531203
538 2 0.200829 0.472141 0.546566
540 4 0.188377 0.45684 0.56193
2243 4 0.215165 0.501539 0.51732
1028 4 0.265049 0.433233 0.572974
1172 4 0.266679 0.434818 0.552799
1173 4 0.272272 0.480665 0.53363
1171 2 0.269476 0.457741 0.543215
1401 4 0.289183 0.49254 0.532618
881 4 0.322378 0.488048 0.583863
1001 4 0.461179 0.481207 0.549157
926 4 0.480448 0.483518 0.541376
1000 2 0.444876 0.49524 0.561904
1002 4 0.428573 0.509273 0.57465
3082 2 0.0300459 0.0200969 0.640624
3083 4 0.0377298 0.0327348 0.660784
2990 4 0.0383751 0.0517108 0.667786
3084 4 0.022362 0.00745892 0.620464
3077 4 0.0212887 0.0850181 0.59168
1184 4 0.00397509 0.0819598 0.601292
1032 4 0.272453 0.0307489 0.613445
1142 4 0.267148 0.0489726 0.619884
1141 2 0.271879 0.0724381 0.627106
1030 2 0.295806 0.0220038 0.611619
1031 4 0.319159 0.0132587 0.609794
1004 4 0.354009 0.0356201 0.626381
1003 2 0.353972 0.0346013 0.651363
843 4 0.397227 0.998589 0.600217
1163 4 0.454358 0.00745594 0.668078
1060 2 0.480205 0.0165877 0.601501
1062 4 0.499253 0.028763 0.612183
3078 4 0.0694009 0.0927905 0.602884
3076 2 0.0453448 0.0889043 0.597282
3179 4 0.995989 0.155114 0.644595
1284 4 0.235741 0.115338 0.596345
1282 2 0.233276 0.114011 0.621191
1283 4 0.23081 0.112683 0.646037
1155 4 0.226813 0.110414 0.665466
886 2 0.305118 0.116438 0.645088
888 4 0.313822 0.138589 0.652753
953 4 0.316333 0.146033 0.634547
1143 4 0.27661 0.0959037 0.634329
887 4 0.296415 0.0942869 0.637423
906 4 0.495854 0.116698 0.638143
1011 4 0.494242 0.130522 0.652013
904 2 0.497734 0.130291 0.617242
3461 4 0.00903987 0.198035 0.592187
3462 4 0.00193832 0.171136 0.633741
3460 2 0.0054891 0.184585 0.612964
1212 4 0.229852 0.207265 0.644554
410 4 0.243306 0.219102 0.656336
1210 2 0.206815 0.205845 0.654168
1211 4 0.183777 0.204424 0.663782
409 2 0.262916 0.224638 0.670827
952 2 0.321301 0.170463 0.636457
790 2 0.385718 0.251253 0.590448
792 4 0.372978 0.23021 0.594928
954 4 0.32627 0.194894 0.638366
3123 4 0.486786 0.186223 0.668373
2812 2 0.0156401 0.312881 0.594171
2813 4 0.015172 0.312088 0.619158
347 4 0.120203 0.252509 0.590738
1191 4 0.162781 0.303329 0.589553
897 4 0.150081 0.30958 0.605296
895 2 0.145153 0.306867 0.629658
896 4 0.140224 0.304154 0.65402
992 4 0.126936 0.298354 0.667174
1239 4 0.318103 0.41553 0.586074
1029 4 0.30399 0.414914 0.598444
1007 4 0.497068 0.367085 0.653506
3372 4 0.499168 0.349593 0.646071
3370 2 0.493146 0.345986 0.622073
1981 2 0.0642784 0.480988 0.645717
1982 4 0.0744228 0.492891 0.626208
1040 4 0.0728837 0.467895 0.593627
2171 4 0.0617587 0.503271 0.612737
1039 2 0.0974991 0.466153 0.597656
1041 4 0.122115 0.464411 0.601684
1136 4 0.141884 0.460977 0.606427
1135 2 0.162867 0.457421 0.593303
1137 4 0.18385 0.453865 0.580179
1027 2 0.284519 0.424074 0.585709
1952 4 0.310765 0.478181 0.595932
1951 2 0.316367 0.465531 0.616759
1953 4 0.32197 0.452881 0.637587
891 4 0.318596 0.449891 0.65687
2989 2 0.0601314 0.0577714 0.678515
2991 4 0.0818876 0.0638321 0.689244
1105 2 0.0289411 0.0864198 0.754184
1107 4 0.0342881 0.0619969 0.754516
864 4 0.0966839 0.0692202 0.701594
863 4 0.126487 0.0414252 0.730575
862 2 0.111586 0.0553227 0.716084
1092 4 0.324876 0.0629469 0.7289
950 4 0.344597 0.0633823 0.7203
949 2 0.341631 0.04469 0.703961
951 4 0.338665 0.0259977 0.687621
1005 4 0.353935 0.0335824 0.676346
1216 2 0.393065 0.997719 0.715612
1218 4 0.393329 0.00714075 0.738771
1164 4 0.408231 0.995608 0.683332
1162 2 0.431294 0.00153219 0.675705
1106 4 0.023594 0.110843 0.753852
1214 4 0.0404465 0.120948 0.751579
1213 2 0.0380527 0.145594 0.748107
1131 4 0.124714 0.143231 0.75493
1129 2 0.118379 0.122098 0.743164
1130 4 0.112045 0.100965 0.731398
1153 2 0.228192 0.132855 0.676405
1154 4 0.22957 0.155297 0.687344
1299 4 0.234089 0.167892 0.702228
1009 2 0.475786 0.130489 0.668882
1025 4 0.463699 0.10083 0.741294
1024 2 0.456049 0.108218 0.718665
1026 4 0.4484 0.115606 0.696036
1010 4 0.457331 0.130457 0.685752
1082 4 0.996322 0.215645 0.701764
850 2 0.0585808 0.190012 0.709473
852 4 0.037564 0.178061 0.703097
851 4 0.0795977 0.201963 0.715848
946 2 0.118053 0.210539 0.722671
1260 4 0.159446 0.224218 0.715784
947 4 0.0953691 0.200951 0.726996
948 4 0.140736 0.220127 0.718347
1258 2 0.171811 0.224048 0.694052
1259 4 0.184176 0.223877 0.672321
1297 2 0.258894 0.170361 0.704179
411 4 0.282526 0.230174 0.685318
1298 4 0.283698 0.17283 0.70613
1085 4 0.299792 0.161228 0.705126
1084 2 0.311738 0.170536 0.725021
1086 4 0.323685 0.179844 0.744917
978 4 0.339357 0.18808 0.754988
976 2 0.363106 0.18103 0.758377
1192 2 0.414206 0.181922 0.727646
1193 4 0.40131 0.17506 0.747939
977 4 0.386854 0.17398 0.761766
1263 4 0.477433 0.175429 0.68165
1194 4 0.427102 0.188783 0.707353
1261 2 0.453147 0.180697 0.684409
1262 4 0.428861 0.185966 0.687168
1208 4 0.0923889 0.263626 0.748214
3038 4 0.00150493 0.321479 0.717301
3037 2 0.00729182 0.306387 0.736377
991 2 0.138846 0.3075 0.687166
993 4 0.150756 0.316646 0.707158
3329 4 0.419198 0.327881 0.720664
3328 2 0.394448 0.325421 0.723225
3419 4 0.0140371 0.336463 0.715832
3418 2 0.0263881 0.358079 0.718155
1281 4 0.0469941 0.379335 0.738328
1279 2 0.0579385 0.39908 0.749077
3420 4 0.038739 0.379694 0.720477
1068 4 0.151307 0.335376 0.715358
1067 4 0.126783 0.371508 0.739725
1066 2 0.139045 0.353442 0.727541
941 4 0.144392 0.41177 0.719306
1098 4 0.159156 0.400236 0.723515
1096 2 0.183919 0.399899 0.726963
1097 4 0.208681 0.399563 0.730411
1276 2 0.237562 0.394339 0.722622
1278 4 0.214546 0.392903 0.71296
1277 4 0.260579 0.395776 0.732285
798 4 0.300894 0.345175 0.708852
797 4 0.274706 0.381697 0.730785
796 2 0.2878 0.363436 0.719819
1044 4 0.319113 0.353391 0.708509
3330 4 0.369698 0.322961 0.725786
1042 2 0.343134 0.347499 0.712174
1043 4 0.367156 0.341607 0.715839
1006 2 0.498491 0.382681 0.672998
1008 4 0.499914 0.398277 0.692489
3181 2 0.440158 0.401363 0.735257
3182 4 0.446143 0.406585 0.711548
1983 4 0.054134 0.469084 0.665225
2130 4 0.0375948 0.479775 0.66631
2128 2 0.0196896 0.484884 0.682998
940 2 0.13824 0.432156 0.732411
889 2 0.304542 0.454584 0.67701
2214 4 0.311193 0.457628 0.717184
2212 2 0.291808 0.458074 0.732971
890 4 0.290488 0.459278 0.69715
2213 4 0.272424 0.458519 0.748757
1205 4 0.328441 0.449064 0.710469
1204 2 0.346618 0.462338 0.72136
1206 4 0.364794 0.475612 0.73225
1139 4 0.374648 0.488144 0.745107
1251 4 0.457347 0.496571 0.728175
1249 2 0.480013 0.486033 0.727556
1285 2 0.0198286 0.0418494 0.830789
1203 4 0.0588096 0.0626585 0.836221
1201 2 0.0727891 0.0631294 0.815496
1287 4 0.0419109 0.0535524 0.831558
944 4 0.127297 0.0417414 0.749598
943 2 0.139396 0.0207774 0.755868
1202 4 0.0867687 0.0636004 0.794771
831 4 0.104858 0.0686574 0.788373
1050 4 0.299581 0.00194763 0.824182
1090 2 0.313337 0.0542368 0.7493
1091 4 0.301797 0.0455267 0.7697
1049 4 0.296243 0.0347439 0.78658
1048 2 0.297912 0.0183458 0.805381
960 4 0.315656 0.06143 0.824174
966 4 0.40355 0.0214271 0.749505
2322 4 0.39317 0.0214595 0.818158
964 2 0.398617 0.0238991 0.773892
965 4 0.393685 0.026371 0.798279
2283 4 0.441552 0.00838413 0.829429
1993 2 0.487496 0.0340461 0.81319
1215 4 0.035659 0.170239 0.744635
829 2 0.117141 0.0904352 0.788563
830 4 0.129424 0.112213 0.788752
909 4 0.138192 0.128721 0.782428
907 2 0.160272 0.134502 0.792639
908 4 0.182351 0.140284 0.80285
840 4 0.252583 0.138552 0.758109
1148 4 0.190678 0.126345 0.814362
1147 2 0.1886 0.115678 0.836881
838 2 0.264616 0.126044 0.776107
839 4 0.276649 0.113535 0.794104
1022 4 0.272055 0.111846 0.812889
1021 2 0.28834 0.0943037 0.820116
3425 4 0.454143 0.093709 0.757367
3424 2 0.458046 0.0973833 0.78179
3426 4 0.461948 0.101058 0.806212
45 3 0.447871 0.0927787 0.817893
1179 4 0.0382391 0.182958 0.760901
1178 4 0.043713 0.232049 0.768704
1177 2 0.0409761 0.207504 0.764802
1209 4 0.0460159 0.246221 0.755095
152 3 0.992884 0.302885 0.81816
154 3 0.0195759 0.286031 0.79776
1207 2 0.0692024 0.254924 0.751654
151 1 0.0138392 0.293433 0.81899
3039 4 0.0130787 0.291294 0.755454
1065 4 0.152485 0.300109 0.785743
1241 4 0.153374 0.320361 0.78753
1064 4 0.197358 0.296656 0.763944
1063 2 0.174922 0.298383 0.774844
917 4 0.212909 0.287088 0.755729