ITEM: TIMESTEP
4430000
ITEM: NUMBER OF ATOMS
4590
ITEM: BOX BOUNDS pp pp pp
-9.9985700000000008e+00 9.9985700000000008e+00
-9.9985700000000008e+00 9.9985700000000008e+00
-9.9985700000000008e+00 9.9985700000000008e+00
ITEM: ATOMS id type xs ys zs
657 4 0.0419504 0.0742834 0.0159882
655 2 0.0178387 0.0747892 0.00938903
702 4 0.109194 0.0222503 0.0211081
567 4 0.102848 0.00864962 0.0329023
700 2 0.124872 0.0389223 0.0311782
701 4 0.140551 0.0555944 0.0412484
1841 4 0.148542 0.0595822 0.0586018
1840 2 0.165967 0.0450397 0.0690926
1842 4 0.183392 0.0304973 0.0795833
486 4 0.196153 0.016603 0.067612
357 4 0.265673 0.0534519 0.0837495
1476 4 0.313504 0.0332391 0.0723604
1474 2 0.300654 0.0166245 0.0859261
2180 4 0.320546 0.0283671 0.0542403
2179 2 0.338744 0.0160759 0.0422842
2181 4 0.356942 0.00378479 0.0303281
2469 4 0.467932 0.022689 0.0531078
2467 2 0.466523 0.0299349 0.0769969
986 4 0.457388 0.0238227 0.0359194
148 3 0.496898 0.0866384 0.00285704
254 4 0.462407 0.0711765 0.0638806
2760 4 0.0154753 0.158094 0.0159
2758 2 0.0295645 0.142095 0.00283372
555 4 0.0960205 0.142471 0.0264752
553 2 0.0994812 0.117733 0.0253758
554 4 0.102942 0.0929941 0.0242764
915 4 0.158686 0.154976 0.0794439
837 4 0.105194 0.160447 0.0198831
449 4 0.160708 0.137326 0.0696964
448 2 0.159192 0.113352 0.0627573
450 4 0.157677 0.0893786 0.0558182
464 4 0.166238 0.16997 0.00337566
721 2 0.284144 0.128847 0.0707025
723 4 0.303368 0.142383 0.0621931
693 4 0.314165 0.1357 0.0780358
722 4 0.26492 0.115311 0.0792119
255 4 0.416319 0.0850967 0.0774042
2975 4 0.471703 0.0879098 0.0579449
253 2 0.439363 0.0781366 0.0706424
2976 4 0.479371 0.0955866 0.00912917
2974 2 0.475537 0.0917482 0.033537
24 3 0.471278 0.138712 0.0672487
456 4 0.114944 0.216602 0.0281575
835 2 0.100725 0.184521 0.0249468
836 4 0.0962564 0.208595 0.0300105
454 2 0.123305 0.228527 0.0484816
455 4 0.131666 0.240452 0.0688056
913 2 0.173963 0.174623 0.0770369
914 4 0.18924 0.194269 0.0746299
903 4 0.268406 0.171356 0.0230842
295 2 0.347283 0.199129 0.0347633
297 4 0.354503 0.214504 0.0164147
360 4 0.360889 0.224513 0.999786
296 4 0.340063 0.183755 0.0531119
358 2 0.375818 0.240013 0.0125166
920 4 0.443427 0.240336 0.0154956
921 4 0.441949 0.193828 0.997179
919 2 0.442688 0.217082 0.00633706
422 4 0.165972 0.270521 0.0100228
293 4 0.164663 0.274524 0.0286203
294 4 0.19177 0.267255 0.0700097
103 3 0.195596 0.286464 0.0758351
292 2 0.178217 0.270889 0.049315
104 3 0.230308 0.292799 0.0899553
359 4 0.390746 0.255512 0.0252476
282 4 0.396092 0.266808 0.00951895
280 2 0.403357 0.289302 0.0176706
281 4 0.410621 0.311795 0.0258223
527 4 0.41378 0.332313 0.0250903
3406 2 0.49548 0.25009 0.0177685
3405 4 0.997117 0.367034 0.0150307
2512 2 0.141634 0.407713 0.0375275
2514 4 0.157258 0.407011 0.018019
2513 4 0.126011 0.408415 0.0570359
525 4 0.127738 0.414044 0.075949
495 4 0.20791 0.343359 0.0413842
493 2 0.211782 0.345258 0.0167555
969 4 0.211843 0.34048 0.0604636
967 2 0.188345 0.347917 0.064674
968 4 0.164847 0.355353 0.0688845
526 2 0.408069 0.333391 0.0494089
528 4 0.402357 0.334469 0.0737275
2007 4 0.387863 0.345574 0.00420125
2005 2 0.384404 0.369823 0.999181
2841 4 0.462386 0.334194 0.0169439
672 4 0.465158 0.348949 0.0301378
670 2 0.475907 0.3705 0.0368616
671 4 0.486655 0.392051 0.0435854
323 4 0.494731 0.40527 0.0323342
551 4 0.1422 0.491821 0.0553698
550 2 0.125877 0.489068 0.0741097
1103 4 0.152187 0.491814 0.0384649
1102 2 0.170366 0.504408 0.0267987
243 4 0.283673 0.490017 0.0661489
11 1 0.321336 0.483304 0.021117
15 3 0.30719 0.466843 0.0280146
596 4 0.336361 0.476278 0.0519559
12 3 0.340908 0.482001 0.0331328
595 2 0.338885 0.471389 0.0763467
658 2 0.412588 0.488794 0.0743813
2803 2 0.49522 0.486765 0.0117114
660 4 0.424571 0.467051 0.0773583
355 2 0.263699 0.0779333 0.0884338
1475 4 0.287805 9.99369e-06 0.0994918
1660 2 0.280186 0.0011192 0.139551
1661 4 0.275988 0.00399123 0.11507
743 4 0.381116 0.0615558 0.151276
742 2 0.404261 0.0608335 0.141843
1748 4 0.372991 0.0435678 0.157284
2468 4 0.465113 0.0371808 0.100886
771 4 0.47621 0.0304005 0.115659
769 2 0.493435 0.0295556 0.133764
744 4 0.427405 0.0601112 0.13241
1761 4 0.481849 0.00343801 0.119765
703 2 0.0152552 0.164437 0.105547
235 2 0.138744 0.135261 0.135817
236 4 0.148092 0.146238 0.156244
237 4 0.129396 0.124284 0.115389
606 4 0.189849 0.10109 0.148586
604 2 0.2132 0.109552 0.151465
605 4 0.236552 0.118013 0.154344
356 4 0.261724 0.102415 0.093118
758 4 0.273491 0.139804 0.102352
757 2 0.263308 0.131572 0.123653
759 4 0.253126 0.123339 0.144954
30 3 0.269804 0.117644 0.155218
691 2 0.334415 0.131821 0.092181
692 4 0.354664 0.127942 0.106326
1504 2 0.395 0.114697 0.0949467
1505 4 0.374771 0.12591 0.104446
1506 4 0.415229 0.103483 0.0854477
25 3 0.501385 0.134594 0.0894808
22 3 0.468877 0.14564 0.104112
2894 4 0.479335 0.15646 0.117113
23 3 0.472861 0.110181 0.0923058
21 1 0.478767 0.132248 0.0882378
2893 2 0.484897 0.146791 0.13949
462 4 0.0372373 0.189201 0.0948199
704 4 0.0376662 0.168718 0.0953196
460 2 0.0381349 0.214184 0.0952921
461 4 0.0390325 0.239167 0.0957643
2798 4 0.993757 0.248487 0.130777
287 4 0.125599 0.238289 0.0870881
505 2 0.101979 0.233462 0.159867
580 2 0.196427 0.229061 0.0877603
581 4 0.19511 0.204329 0.0911918
732 4 0.231711 0.213962 0.142688
251 4 0.221389 0.228501 0.15752
730 2 0.245874 0.206841 0.162023
250 2 0.201142 0.241969 0.16334
2875 2 0.376207 0.248226 0.104226
2876 4 0.391154 0.22872 0.108838
378 4 0.394003 0.227941 0.129665
376 2 0.405329 0.215281 0.148012
377 4 0.416655 0.20262 0.166359
623 4 0.0501622 0.254107 0.104575
622 2 0.0653583 0.258406 0.12396
624 4 0.0805544 0.262705 0.143345
506 4 0.0976107 0.256681 0.151683
286 2 0.126703 0.260747 0.098023
288 4 0.127808 0.283206 0.108958
477 4 0.145797 0.292078 0.109887
475 2 0.136627 0.306305 0.12829
476 4 0.127457 0.320531 0.146694
755 4 0.118049 0.326944 0.163888
582 4 0.197743 0.253793 0.0843289
101 1 0.210045 0.282044 0.0934443
105 3 0.213384 0.259593 0.0953082
102 3 0.200683 0.289953 0.112911
278 4 0.199137 0.306571 0.126128
277 2 0.214397 0.32606 0.129664
518 4 0.392491 0.317532 0.0714525
2877 4 0.36126 0.267733 0.0996135
519 4 0.364618 0.286132 0.0986161
517 2 0.378555 0.301832 0.0850343
309 4 0.433206 0.244188 0.105394
307 2 0.437537 0.2604 0.123931
308 4 0.441868 0.276612 0.142467
498 4 0.433919 0.293982 0.149528
2770 2 0.0483775 0.404957 0.151063
2771 4 0.0303531 0.405364 0.133738
314 4 0.0112008 0.40902 0.136657
2772 4 0.0664018 0.404551 0.168387
417 4 0.138997 0.380424 0.122902
363 4 0.129788 0.396929 0.131007
415 2 0.149847 0.375963 0.100821
416 4 0.160697 0.371503 0.0787407
361 2 0.123022 0.409883 0.151295
279 4 0.229657 0.345549 0.1332
1121 4 0.248371 0.347564 0.140802
1120 2 0.269552 0.359536 0.13504
1122 4 0.290732 0.371509 0.129278
1071 4 0.296169 0.356238 0.118813
1069 2 0.32105 0.357815 0.116908
1070 4 0.345931 0.359392 0.115003
609 4 0.357814 0.372074 0.103818
607 2 0.360546 0.396333 0.109225
608 4 0.363278 0.420592 0.114631
2538 4 0.486595 0.387822 0.15921
2652 4 0.489123 0.334712 0.134071
2650 2 0.48995 0.352788 0.151327
2651 4 0.490777 0.370863 0.168584
3762 4 0.0700455 0.502728 0.142996
329 4 0.0824508 0.490562 0.134464
552 4 0.109555 0.486315 0.0928495
328 2 0.101597 0.482245 0.120701
330 4 0.120744 0.473929 0.106938
523 2 0.130975 0.434704 0.0896542
524 4 0.134213 0.455365 0.103359
768 4 0.133934 0.467198 0.119619
766 2 0.157455 0.468974 0.127913
767 4 0.180976 0.470751 0.136207
638 4 0.194448 0.484601 0.136975
637 2 0.214823 0.492957 0.125134
626 4 0.313004 0.432787 0.169938
597 4 0.341408 0.4665 0.100738
740 4 0.373088 0.434323 0.125145
739 2 0.37613 0.441515 0.148897
741 4 0.379171 0.448708 0.17265
3704 4 0.431837 0.45848 0.0929773
1673 4 0.464161 0.48533 0.142266
3703 2 0.440833 0.46492 0.1154
3705 4 0.44983 0.471361 0.137822
1672 2 0.456134 0.503921 0.156932
2675 4 0.0104267 0.0752719 0.203567
405 4 0.267414 0.0391931 0.241946
1747 2 0.364055 0.0225173 0.167394
522 4 0.48281 0.0747988 0.235921
699 4 0.497514 0.0711861 0.222008
1220 4 0.092385 0.127962 0.244497
579 4 0.138413 0.15333 0.172068
28 3 0.237874 0.12341 0.17432
516 4 0.267569 0.130676 0.209226
29 3 0.271317 0.133283 0.189435
27 3 0.262248 0.0970318 0.1854
26 1 0.260359 0.117914 0.175939
514 2 0.286396 0.125341 0.224791
299 4 0.0281599 0.24912 0.237058
2463 4 0.0123047 0.249635 0.223846
577 2 0.122679 0.17259 0.174654
578 4 0.106945 0.191849 0.177241
507 4 0.106346 0.210243 0.168052
546 4 0.213443 0.200349 0.210929
544 2 0.19343 0.189543 0.221318
545 4 0.173418 0.178738 0.231707
531 4 0.166552 0.174368 0.250048
388 2 0.174539 0.247463 0.250318
731 4 0.260037 0.19972 0.181359
350 4 0.252611 0.21653 0.191615
349 2 0.269298 0.215326 0.210197
351 4 0.285984 0.214122 0.228778
629 4 0.405579 0.209395 0.181433
628 2 0.410446 0.208643 0.205947
332 4 0.429525 0.194271 0.230346
630 4 0.415314 0.207892 0.23046
3573 4 0.00722764 0.308012 0.203742
756 4 0.075109 0.309115 0.182299
396 4 0.0637057 0.3175 0.196437
395 4 0.0209369 0.298555 0.214119
394 2 0.0423213 0.308027 0.205278
414 4 0.0100783 0.329071 0.247428
754 2 0.0965791 0.31803 0.173094
291 4 0.15623 0.312682 0.199402
284 4 0.159911 0.295053 0.209615
252 4 0.180896 0.255437 0.16916
390 4 0.193936 0.251085 0.234962
283 2 0.167875 0.273906 0.198911
285 4 0.17584 0.252759 0.188208
612 4 0.31629 0.288659 0.203768
610 2 0.303639 0.299381 0.222481
611 4 0.290989 0.310104 0.241194
345 4 0.279778 0.318298 0.255171
275 4 0.41079 0.333242 0.183326
497 4 0.429968 0.329865 0.184133
496 2 0.431944 0.311924 0.166831
2092 2 0.0769982 0.398344 0.205119
2093 4 0.0733794 0.396815 0.229812
2094 4 0.0806169 0.399872 0.180426
289 2 0.162241 0.332301 0.213691
290 4 0.168252 0.35192 0.227979
735 4 0.187263 0.34874 0.227656
244 2 0.271101 0.383844 0.214849
245 4 0.266982 0.364506 0.230155
627 4 0.269865 0.422114 0.19287
246 4 0.27522 0.403182 0.199544
274 2 0.3991 0.343416 0.202948
385 2 0.365831 0.375307 0.239405
276 4 0.38741 0.353589 0.22257
386 4 0.375231 0.35215 0.238649
1575 4 0.37424 0.403666 0.246642
2536 2 0.478985 0.410021 0.167839
362 4 0.116255 0.422836 0.171583
728 4 0.13226 0.422231 0.184211
727 2 0.150629 0.435439 0.194855
729 4 0.168998 0.448647 0.2055
338 4 0.197561 0.502819 0.196906
337 2 0.188472 0.479765 0.193582
339 4 0.179384 0.45671 0.190258
625 2 0.291435 0.42745 0.181404
303 4 0.384895 0.451431 0.192617
301 2 0.39378 0.474512 0.196295
302 4 0.402665 0.497592 0.199973
1716 4 0.403423 0.499808 0.220122
2537 4 0.471375 0.432221 0.176467
714 4 0.450531 0.433783 0.180803
713 4 0.443074 0.440996 0.229722
712 2 0.446802 0.43739 0.205262
1272 4 0.0529868 0.0822538 0.281355
2848 2 0.0545577 0.0411709 0.267156
2850 4 0.0570133 0.0193739 0.255154
2849 4 0.0521021 0.0629678 0.279158
1867 2 0.127795 0.034288 0.306089
1868 4 0.131562 0.0567107 0.295686
429 4 0.15005 0.0574869 0.287592
1869 4 0.124028 0.0118654 0.316492
393 4 0.225934 0.99482 0.257989
427 2 0.169825 0.0517278 0.273416
391 2 0.211388 0.013734 0.265461
392 4 0.196841 0.0326484 0.272933
428 4 0.1896 0.0459686 0.259241
2643 4 0.243453 0.00138871 0.311363
404 4 0.240455 0.0653381 0.274967
2641 2 0.255447 0.0214757 0.320186
403 2 0.253934 0.0522656 0.258456
248 4 0.28151 0.0288247 0.250063
1271 4 0.0842847 0.11314 0.257539
1270 2 0.0686358 0.0976968 0.269447
1219 2 0.0945367 0.152498 0.248803
469 2 0.182726 0.161166 0.326463
530 4 0.188134 0.162971 0.293695
515 4 0.305223 0.120007 0.240356
2910 4 0.316344 0.130469 0.255254
2908 2 0.318695 0.12749 0.279968
2657 4 0.32102 0.119069 0.323424
2909 4 0.321047 0.124511 0.304682
520 2 0.482642 0.0860989 0.258225
521 4 0.482473 0.0973989 0.280529
632 4 0.439992 0.152209 0.275945
633 4 0.47236 0.114419 0.280938
631 2 0.456176 0.133314 0.278442
333 4 0.449571 0.159911 0.260649
2692 2 0.0519749 0.230929 0.314589
2694 4 0.0555165 0.209755 0.327407
1221 4 0.0966884 0.177033 0.25311
459 4 0.100043 0.186922 0.270059
458 4 0.144115 0.194531 0.292429
457 2 0.122079 0.190727 0.281244
389 4 0.155142 0.24384 0.265674
470 4 0.184378 0.177098 0.307263
529 2 0.177343 0.16867 0.271871
764 4 0.278176 0.203341 0.24282
763 2 0.288914 0.20888 0.26471
765 4 0.299651 0.21442 0.286601
510 4 0.304215 0.228888 0.298395
508 2 0.314689 0.236766 0.319689
2591 4 0.467807 0.212325 0.261042
331 2 0.439548 0.177091 0.245497
2590 2 0.488514 0.224044 0.268729
2693 4 0.0484334 0.252104 0.301772
300 4 0.0477321 0.253569 0.282861
298 2 0.037946 0.251345 0.25996
413 4 0.0513419 0.33388 0.275266
412 2 0.0307101 0.331475 0.261347
748 2 0.137016 0.278514 0.283763
749 4 0.133207 0.301305 0.293317
750 4 0.140824 0.255724 0.274209
618 4 0.127622 0.311234 0.311188
616 2 0.149594 0.316776 0.321757
3671 4 0.143315 0.405974 0.324731
617 4 0.171566 0.322318 0.332327
733 2 0.205092 0.351944 0.24489
734 4 0.222922 0.355149 0.262124
365 4 0.21792 0.357282 0.283301
364 2 0.199156 0.356569 0.299812
344 4 0.238987 0.345088 0.266081
366 4 0.180393 0.355857 0.316322
343 2 0.259382 0.331693 0.260626
645 4 0.262175 0.36697 0.283555
643 2 0.267868 0.365653 0.307866
644 4 0.273562 0.364337 0.332177
387 4 0.356431 0.398464 0.240162
1381 2 0.0635324 0.465543 0.305442
1382 4 0.0537048 0.46873 0.282673
264 4 0.0457803 0.487211 0.283309
1383 4 0.07336 0.462356 0.328212
3670 2 0.142767 0.429948 0.317651
3672 4 0.142219 0.453922 0.310571
677 4 0.139377 0.473282 0.315286
676 2 0.163156 0.48097 0.314497
678 4 0.186936 0.488658 0.313709
1425 4 0.198887 0.484448 0.328634
1573 2 0.374313 0.42606 0.257764
1574 4 0.374385 0.448453 0.268885
1802 4 0.363719 0.463339 0.275976
1801 2 0.35569 0.486391 0.27056
2862 4 0.446309 0.439134 0.249061
3988 2 0.494492 0.462297 0.308564
3990 4 0.474912 0.446749 0.308827
2861 4 0.466958 0.433912 0.294305
2860 2 0.456634 0.436523 0.271683
2642 4 0.267441 0.0415627 0.329008
480 4 0.266548 0.0434899 0.348999
478 2 0.261452 0.0674602 0.353962
4162 2 0.492021 0.00294843 0.392391
1517 4 0.435414 0.0663301 0.394037
1516 2 0.449749 0.0461693 0.3904
4164 4 0.472272 0.0158887 0.400619
2553 4 0.49605 0.0747156 0.412098
1518 4 0.464084 0.0260085 0.386763
420 4 0.487503 0.0576368 0.421165
708 4 0.163481 0.118587 0.402687
706 2 0.166552 0.132473 0.382122
707 4 0.169623 0.14636 0.361557
471 4 0.181073 0.145235 0.345663
650 4 0.210402 0.116207 0.388584
649 2 0.23067 0.113551 0.374186
651 4 0.250939 0.110895 0.359787
479 4 0.256356 0.0914306 0.358925
1032 4 0.390554 0.106054 0.396711
2656 2 0.325865 0.117346 0.347893
2658 4 0.330711 0.115623 0.372362
1031 4 0.348203 0.106977 0.370135
1030 2 0.369378 0.106516 0.383423
2880 4 0.442435 0.0831152 0.384134
2879 4 0.444447 0.123517 0.354734
762 4 0.463492 0.125217 0.350041
760 2 0.47214 0.148677 0.349992
2878 2 0.443441 0.103316 0.369434
342 4 0.139874 0.199727 0.377862
340 2 0.115546 0.194611 0.375181
402 4 0.146659 0.19605 0.397317
341 4 0.0912187 0.189495 0.372501
400 2 0.170306 0.188131 0.399118
401 4 0.193954 0.180211 0.40092
371 4 0.208486 0.173136 0.415201
320 4 0.369056 0.231088 0.390901
2901 4 0.483834 0.178197 0.409083
3174 4 0.495029 0.166003 0.399019
761 4 0.480788 0.172138 0.349943
374 4 0.221306 0.327975 0.384206
602 4 0.235904 0.323364 0.396817
373 2 0.210418 0.317583 0.364241
375 4 0.199529 0.307191 0.344275
509 4 0.325162 0.244644 0.340982
717 4 0.34008 0.254527 0.349102
715 2 0.35486 0.260582 0.368339
716 4 0.369641 0.266638 0.387576
488 4 0.368985 0.27889 0.402655
2655 4 0.149629 0.408355 0.343988
2654 4 0.160221 0.359494 0.342914
2653 2 0.154925 0.383924 0.343451
601 2 0.233438 0.335905 0.418307
435 4 0.26802 0.362276 0.350615
433 2 0.279574 0.38151 0.361648
434 4 0.291128 0.400744 0.372682
615 4 0.299143 0.416429 0.362287
585 4 0.411723 0.401195 0.414736
583 2 0.406522 0.401909 0.39029
584 4 0.401321 0.402622 0.365843
570 4 0.057203 0.497344 0.394383
568 2 0.0701227 0.476018 0.396244
569 4 0.0830425 0.454692 0.398106
2138 4 0.0886651 0.447505 0.416579
2137 2 0.113264 0.444345 0.4134
613 2 0.311397 0.438187 0.363552
614 4 0.323651 0.459945 0.364818
2108 4 0.309022 0.470509 0.372233
2107 2 0.325299 0.485601 0.383741
543 4 0.391636 0.466088 0.348481
541 2 0.391322 0.44142 0.352553
2109 4 0.341576 0.500693 0.39525
1485 4 0.4019 0.481955 0.354995
1473 4 0.389445 0.490581 0.323698
1483 2 0.416498 0.49442 0.371017
542 4 0.391009 0.416752 0.356626
1484 4 0.431095 0.506885 0.387039
2238 4 0.0408913 0.00652287 0.476248
982 2 0.010204 0.0646238 0.489194
2237 4 0.0070205 0.0235751 0.443648
2236 2 0.0239559 0.015049 0.459948
600 4 0.290472 0.0382995 0.432987
598 2 0.314696 0.0443028 0.431456
3159 4 0.349856 0.0670341 0.435324
599 4 0.33892 0.0503061 0.429925
684 4 0.360543 0.0694691 0.478095
682 2 0.35375 0.0454069 0.477894
1061 4 0.374953 0.0812901 0.47001
683 4 0.346956 0.0213447 0.477694
2241 4 0.339934 0.014381 0.493401
418 2 0.478554 0.0715489 0.439914
983 4 0.0237223 0.0837383 0.497973
1033 2 0.0485863 0.102573 0.478605
1034 4 0.0692651 0.116625 0.478938
938 4 0.0797079 0.108101 0.463798
1035 4 0.0279075 0.0885209 0.478271
937 2 0.0952402 0.118308 0.447072
939 4 0.110772 0.128514 0.430347
726 4 0.223341 0.102714 0.482491
474 4 0.220203 0.109129 0.464393
473 4 0.176285 0.119015 0.442617
472 2 0.198244 0.114072 0.453505
3157 2 0.348973 0.0916543 0.439596
2502 4 0.345193 0.122762 0.461684
3158 4 0.34809 0.116274 0.443867
1060 2 0.395669 0.0951487 0.468015
1062 4 0.416384 0.109007 0.466021
2500 2 0.352418 0.131793 0.483852
2508 4 0.490103 0.136755 0.438851
2516 4 0.426118 0.122672 0.475767
419 4 0.469604 0.0854611 0.458663
2517 4 0.470547 0.0998909 0.472978
2515 2 0.448332 0.111281 0.474372
2613 4 0.0749073 0.177781 0.447833
2847 4 0.087622 0.243328 0.434764
2611 2 0.0811669 0.201857 0.445321
2612 4 0.0874266 0.225934 0.44281
825 4 0.142677 0.225822 0.434123
369 4 0.153287 0.212628 0.446505
367 2 0.169323 0.209874 0.46549
370 2 0.224296 0.190222 0.424326
368 4 0.18536 0.207119 0.484475
372 4 0.240107 0.207308 0.433451
1189 2 0.231965 0.244509 0.455275
1191 4 0.235669 0.22172 0.445675
10 3 0.180631 0.195664 0.499526
640 2 0.340698 0.231729 0.464826
319 2 0.356759 0.225642 0.41198
321 4 0.344463 0.220196 0.433059
642 4 0.336346 0.212301 0.449701
2899 2 0.491728 0.194698 0.42613
311 4 0.499696 0.237976 0.492731
260 4 0.0684003 0.276049 0.495026
2845 2 0.084477 0.266369 0.443949
259 2 0.0898803 0.288512 0.497934
824 4 0.16322 0.270612 0.425606
444 4 0.101041 0.295257 0.452299
2846 4 0.081332 0.289411 0.453134
823 2 0.152948 0.248217 0.429864
442 2 0.103181 0.318756 0.444031
696 4 0.117071 0.316294 0.488691
669 4 0.171029 0.283677 0.43867
667 2 0.18237 0.304948 0.445312
1190 4 0.228262 0.267297 0.464875
1393 2 0.23939 0.285066 0.492447
668 4 0.193711 0.326218 0.451955
1394 4 0.245854 0.269181 0.474252
811 2 0.329933 0.284919 0.493308
641 4 0.34505 0.251157 0.479952
812 4 0.336433 0.268927 0.475219
487 2 0.382039 0.285787 0.422834
489 4 0.395093 0.292684 0.443013
267 4 0.400662 0.293715 0.461318
265 2 0.416644 0.275034 0.465881
266 4 0.432625 0.256354 0.470443
453 4 0.440471 0.261583 0.489106
1641 4 0.0773356 0.402359 0.429062
1639 2 0.0837027 0.378603 0.433567
443 4 0.105322 0.342256 0.435762
1640 4 0.0900697 0.354848 0.438073
694 2 0.120512 0.336662 0.50278
603 4 0.230972 0.348447 0.439797
635 4 0.192525 0.345326 0.458055
873 4 0.249535 0.347593 0.445213
634 2 0.185262 0.36087 0.476243
711 4 0.177225 0.400368 0.445536
326 4 0.190549 0.413819 0.452678
636 4 0.177999 0.376414 0.494432
871 2 0.269933 0.350951 0.459278
872 4 0.29033 0.35431 0.473343
2925 4 0.358761 0.394197 0.457917
118 3 0.358487 0.38276 0.420856
116 1 0.378464 0.379338 0.432153
120 3 0.3828 0.357033 0.43369
119 3 0.395792 0.390022 0.421018
117 3 0.376652 0.388179 0.453312
2923 2 0.349973 0.414917 0.468808
2139 4 0.137862 0.441185 0.410221
710 4 0.143037 0.42444 0.418105
709 2 0.160131 0.412404 0.43182
1445 4 0.171355 0.496116 0.441147
1446 4 0.187097 0.490835 0.488317
325 2 0.193287 0.418911 0.477004
1444 2 0.179226 0.493475 0.464732
1173 4 0.330709 0.425945 0.493781
2924 4 0.341185 0.435638 0.479699
2314 2 0.20714 0.034871 0.554463
945 4 0.185011 0.0642623 0.57078
2315 4 0.189355 0.0443272 0.569277
1151 4 0.230365 0.00682451 0.539941
2316 4 0.224924 0.0254147 0.539649
842 4 0.400226 0.0135831 0.520697
1143 4 0.415723 0.0249086 0.526216
1141 2 0.427335 0.0318605 0.54724
1142 4 0.438947 0.0388124 0.568264
943 2 0.179879 0.0885441 0.567742
724 2 0.229093 0.0988356 0.506513
725 4 0.234845 0.0949572 0.530535
917 4 0.161998 0.127662 0.559749
1181 4 0.231141 0.110733 0.542766
1180 2 0.243137 0.1023 0.563019
944 4 0.174746 0.112826 0.564704
898 2 0.389263 0.142235 0.529188
899 4 0.403015 0.153918 0.546496
900 4 0.375511 0.130552 0.511879
2501 4 0.359642 0.140825 0.50602
3461 4 0.0809701 0.194996 0.562983
3043 2 0.105496 0.223873 0.557377
7 3 0.15248 0.196686 0.524008
9 3 0.170578 0.16433 0.517823
3045 4 0.110701 0.247928 0.552972
3044 4 0.10029 0.199817 0.561781
6 1 0.172976 0.187362 0.519303
8 3 0.187747 0.192707 0.536381
348 4 0.188895 0.211512 0.539817
346 2 0.199586 0.229562 0.55342
347 4 0.210277 0.247613 0.567024
858 4 0.368552 0.205682 0.584926
269 4 0.418087 0.165669 0.550059
268 2 0.436716 0.17899 0.560092
270 4 0.455345 0.192312 0.570126
3309 4 0.476037 0.187715 0.5704
3307 2 0.497971 0.199402 0.567662
452 4 0.485456 0.246268 0.504681
935 4 0.121465 0.264718 0.555685
934 2 0.117096 0.288823 0.550683
936 4 0.112726 0.312929 0.545682
261 4 0.11136 0.300976 0.500841
409 2 0.227574 0.276528 0.548094
411 4 0.223826 0.264041 0.56943
410 4 0.231322 0.289015 0.526759
1395 4 0.232926 0.300951 0.510642
813 4 0.323433 0.300911 0.511397
451 2 0.462963 0.253926 0.496894
1135 2 0.0748273 0.398262 0.561745
1136 4 0.054988 0.3915 0.575378
1137 4 0.0946666 0.405024 0.548112
540 4 0.114396 0.406986 0.548668
695 4 0.123953 0.357029 0.51687
774 4 0.223613 0.389769 0.536338
772 2 0.202264 0.388842 0.523356
773 4 0.180914 0.387916 0.510374
240 4 0.402566 0.383597 0.550488
238 2 0.411188 0.382214 0.527058
239 4 0.41981 0.380831 0.503629
1239 4 0.430989 0.412356 0.568602
538 2 0.120592 0.42401 0.531436
539 4 0.126789 0.441034 0.514203
1981 2 0.127927 0.473148 0.562315
2243 4 0.140155 0.451852 0.522411
2171 4 0.122908 0.484659 0.521686
1982 4 0.120099 0.483438 0.540914
1983 4 0.135756 0.462857 0.583716
2242 2 0.156644 0.466589 0.510745
327 4 0.196024 0.424002 0.50133
2244 4 0.173133 0.481327 0.499079
1172 4 0.324592 0.461402 0.52851
1027 2 0.31897 0.447125 0.569856
1171 2 0.32765 0.443674 0.511146
1028 4 0.318165 0.451724 0.545292
1283 4 0.213961 0.0766317 0.630599
1154 4 0.216749 0.0586822 0.622982
1153 2 0.232821 0.0673529 0.605903
1155 4 0.248893 0.0760236 0.588824
1005 4 0.328818 0.0194019 0.635508
966 4 0.321021 0.00303627 0.643202
964 2 0.296068 0.00381282 0.644582
1003 2 0.340559 0.034243 0.619165
1004 4 0.352299 0.0490842 0.602822
1130 4 0.357541 0.0677813 0.609443
576 4 0.439193 0.0268806 0.583997
574 2 0.456733 0.0412205 0.594574
3438 4 0.486666 0.0714981 0.599208
575 4 0.474274 0.0555604 0.605151
3462 4 0.0711058 0.167343 0.603465
918 4 0.168046 0.157363 0.599523
916 2 0.165022 0.142513 0.579636
1282 2 0.194988 0.0854236 0.644306
1212 4 0.164438 0.159501 0.619882
1284 4 0.176015 0.0942154 0.658014
1182 4 0.255132 0.0938681 0.583272
1129 2 0.364864 0.0858037 0.625151
1131 4 0.372188 0.103826 0.640859
2318 4 0.374183 0.122501 0.629254
2317 2 0.366675 0.142538 0.642188
2319 4 0.359166 0.162576 0.655123
3460 2 0.0760379 0.18117 0.583224
1210 2 0.172435 0.181144 0.629515
1211 4 0.180432 0.202787 0.639147
1259 4 0.178646 0.217691 0.651639
1084 2 0.222106 0.246512 0.638661
1085 4 0.199367 0.256774 0.636987
1086 4 0.244845 0.23625 0.640335
978 4 0.262325 0.235521 0.649306
951 4 0.297146 0.187053 0.656923
976 2 0.270024 0.213028 0.657049
949 2 0.321725 0.182462 0.657
977 4 0.277722 0.190534 0.664792
857 4 0.40455 0.236108 0.601633
856 2 0.386551 0.220895 0.593279
950 4 0.346303 0.177871 0.657078
3420 4 0.0102712 0.319588 0.636942
896 4 0.17053 0.301574 0.656577
895 2 0.181967 0.279343 0.656236
897 4 0.193405 0.257111 0.655895
1041 4 0.0430993 0.383116 0.588877
1039 2 0.0199379 0.3799 0.59773
1279 2 0.0477329 0.338387 0.645246
1281 4 0.0236925 0.334508 0.639572
1280 4 0.0717733 0.342266 0.65092
891 4 0.364096 0.394472 0.595499
890 4 0.349141 0.392568 0.64318
889 2 0.356619 0.39352 0.619339
1237 2 0.429774 0.407734 0.593145
804 4 0.440307 0.407744 0.633509
802 2 0.439961 0.391243 0.652291
803 4 0.439615 0.374741 0.671073
1238 4 0.428558 0.403113 0.617687
2130 4 0.152587 0.457383 0.592949
2128 2 0.153942 0.454628 0.617764
942 4 0.157055 0.438513 0.657891
2129 4 0.155298 0.451872 0.642578
2435 4 0.231631 0.490718 0.58596
1206 4 0.312415 0.424936 0.658619
1204 2 0.31764 0.435176 0.636415
1205 4 0.322865 0.445415 0.61421
1029 4 0.319775 0.442527 0.594419
3372 4 0.392898 0.49808 0.621619
3084 4 0.0807473 0.998876 0.704336
3590 4 0.0975235 0.00782503 0.711304
3589 2 0.100002 0.0239081 0.730287
1255 2 0.221968 0.0165248 0.679621
1256 4 0.240465 0.030072 0.689597
1257 4 0.203471 0.00297746 0.669645
959 4 0.257001 0.0419416 0.692751
958 2 0.25826 0.0659149 0.699742
888 4 0.436454 0.0145247 0.72638
953 4 0.444619 0.0263231 0.740267
952 2 0.446894 0.0512187 0.739804
954 4 0.449169 0.0761143 0.739342
834 4 0.0762525 0.109142 0.742945
947 4 0.154362 0.140992 0.702541
851 4 0.141334 0.14117 0.716085
850 2 0.130266 0.162369 0.723383
946 2 0.164005 0.122113 0.689284
948 4 0.173649 0.103233 0.676027
1022 4 0.218641 0.158233 0.719275
1021 2 0.209057 0.156772 0.742323
2256 4 0.239649 0.163169 0.719752
960 4 0.259518 0.0898881 0.706734
924 4 0.0226063 0.249042 0.752073
852 4 0.119197 0.183568 0.730681
1178 4 0.10323 0.18018 0.742558
1299 4 0.158837 0.218584 0.711817
1177 2 0.0920259 0.202365 0.745294
1260 4 0.175433 0.223361 0.70122
1297 2 0.167641 0.224308 0.734508
1258 2 0.17704 0.220526 0.67643
2255 4 0.283149 0.187372 0.724518
2254 2 0.261399 0.17527 0.722135
152 3 0.0194849 0.251134 0.732753
884 4 0.035099 0.32 0.752317
992 4 0.157406 0.298626 0.672042
1066 2 0.101316 0.28773 0.736524
1068 4 0.122466 0.293664 0.724582
991 2 0.143674 0.303442 0.692374
993 4 0.129942 0.308259 0.712707
796 2 0.289166 0.327314 0.734767
1044 4 0.308767 0.289943 0.735509
798 4 0.306817 0.310126 0.730499
1042 2 0.317394 0.271292 0.749753
1020 4 0.345528 0.316914 0.751123
790 2 0.479602 0.282905 0.704372
791 4 0.473582 0.307103 0.706204
807 4 0.46853 0.315691 0.688371
792 4 0.485623 0.258706 0.702539
1278 4 0.231559 0.384966 0.733098
1097 4 0.243477 0.398325 0.722808
1096 2 0.223031 0.405852 0.710541
1276 2 0.248738 0.37013 0.743583
797 4 0.271515 0.344501 0.739035
1138 2 0.331092 0.394314 0.67189
1139 4 0.310423 0.408202 0.669639
1015 2 0.372787 0.373123 0.702574
1017 4 0.369193 0.369738 0.678063
1140 4 0.351761 0.380425 0.674141
1016 4 0.376381 0.376507 0.727086
1018 2 0.356307 0.337837 0.742684
2213 4 0.369358 0.426144 0.760746
1019 4 0.367087 0.35876 0.734246
806 4 0.448797 0.357004 0.668256
805 2 0.458664 0.336348 0.678313
997 2 0.485844 0.347797 0.729183
998 4 0.473742 0.344021 0.750734
940 2 0.170719 0.431036 0.677451
1098 4 0.202585 0.413379 0.698275
941 4 0.184382 0.423558 0.697011
81 1 0.325281 0.480503 0.737204
84 3 0.307387 0.470862 0.726012
82 3 0.344791 0.470905 0.729696
2214 4 0.350648 0.451985 0.722238
2212 2 0.360003 0.439064 0.741492
3369 4 0.492854 0.492673 0.674472
3368 4 0.458344 0.480345 0.708499
3367 2 0.475599 0.486509 0.691486
1215 4 0.053023 0.0151766 0.819112
1213 2 0.0485072 0.0371269 0.808023
1214 4 0.0439914 0.0590773 0.796934
3591 4 0.102481 0.0399912 0.749271
2990 4 0.114509 0.0458587 0.764796
2989 2 0.12969 0.0498135 0.784266
2991 4 0.144871 0.0537684 0.803735
908 4 0.149349 0.0406326 0.817896
907 2 0.171972 0.0301756 0.819895
909 4 0.194596 0.0197185 0.821894
1970 4 0.3402 0.0112374 0.823639
1037 4 0.34842 0.030284 0.824956
1036 2 0.345886 0.0539948 0.817436
1038 4 0.343352 0.0777057 0.809916
818 4 0.45546 0.0147891 0.814076
845 4 0.452467 0.0282908 0.827997
832 2 0.0787047 0.128857 0.758126
833 4 0.081157 0.148572 0.773308
863 4 0.0945324 0.138788 0.785408
862 2 0.116781 0.141673 0.796447
864 4 0.139029 0.144559 0.807485
870 4 0.140992 0.152767 0.825394
868 2 0.164206 0.144054 0.828612
31 1 0.209993 0.149452 0.800349
34 3 0.221874 0.131778 0.791136
32 3 0.200594 0.161762 0.783342
1023 4 0.199473 0.155311 0.76537
35 3 0.223986 0.162775 0.812406
33 3 0.19306 0.141356 0.813993
869 4 0.18742 0.13534 0.831831
1026 4 0.447177 0.0889108 0.754753
1024 2 0.432814 0.109328 0.756181
1025 4 0.418451 0.129745 0.75761
922 2 0.0472471 0.244944 0.753174
923 4 0.0718879 0.240845 0.754275
1179 4 0.0808218 0.22455 0.74803
1298 4 0.176445 0.230032 0.7572
840 4 0.194844 0.227191 0.764421
838 2 0.196032 0.241717 0.784737
3328 2 0.297163 0.233264 0.79091
3329 4 0.278676 0.220488 0.80187
3330 4 0.315651 0.246041 0.779949
1092 4 0.290721 0.207576 0.810612
1090 2 0.285161 0.188615 0.825933
883 2 0.054698 0.305907 0.758832
885 4 0.0742969 0.291814 0.765348
1067 4 0.0801651 0.281797 0.748467
1209 4 0.157365 0.269891 0.807187
839 4 0.197221 0.256244 0.805053
1207 2 0.174899 0.28718 0.811525
801 4 0.214022 0.257825 0.816483
1208 4 0.192434 0.304468 0.815863
1064 4 0.196458 0.322681 0.824757
1043 4 0.326021 0.252641 0.763997
3347 4 0.321229 0.26878 0.839139
1053 4 0.410678 0.283848 0.815181
867 4 0.429132 0.280258 0.821498
865 2 0.450485 0.293173 0.823061
866 4 0.471838 0.306088 0.824624
1166 4 0.487923 0.317858 0.822692
1170 4 0.992628 0.372125 0.838006
815 4 0.0317975 0.339319 0.752596
814 2 0.0213381 0.359025 0.763885
816 4 0.0108788 0.378732 0.775173
4209 4 0.0088435 0.39832 0.780174
1063 2 0.198 0.34348 0.810966
1065 4 0.199543 0.364279 0.797174
1241 4 0.199341 0.380323 0.783602
1240 2 0.185022 0.399494 0.790856
1277 4 0.265917 0.355293 0.754068
188 3 0.38634 0.417063 0.76014
189 3 0.386994 0.379519 0.766008
186 1 0.381994 0.400136 0.775405
190 3 0.360099 0.400729 0.781641
187 3 0.395241 0.403266 0.793949
1251 4 0.421761 0.418333 0.785176
1250 4 0.462539 0.393762 0.800477
1249 2 0.44215 0.406048 0.792827
3011 4 0.473816 0.404349 0.81375
1290 4 0.154749 0.43205 0.799882
1288 2 0.156581 0.439844 0.823569
1242 4 0.170704 0.418665 0.798109
2029 2 0.220558 0.472454 0.797712
2030 4 0.208346 0.452373 0.789179