ITEM: TIMESTEP
660000
ITEM: NUMBER OF ATOMS
4590
ITEM: BOX BOUNDS pp pp pp
-9.9985700000000008e+00 9.9985700000000008e+00
-9.9985700000000008e+00 9.9985700000000008e+00
-9.9985700000000008e+00 9.9985700000000008e+00
ITEM: ATOMS id type xs ys zs
702 4 0.0794368 0.0289244 0.059273
1666 2 0.0791878 0.0208203 0.0254928
1668 4 0.0777073 0.0125913 0.049057
1607 4 0.437948 0.0447941 0.0313901
1606 2 0.448721 0.0548806 0.0515743
1608 4 0.459493 0.0649672 0.0717584
3233 4 0.99938 0.12649 0.00483666
3232 2 0.991446 0.132516 0.0277699
1248 4 0.0142844 0.117146 0.996838
2760 4 0.0666376 0.124379 0.0662416
3234 4 0.983513 0.138542 0.0507031
2758 2 0.0871453 0.13803 0.0705158
2759 4 0.107653 0.151681 0.07479
738 4 0.135466 0.145645 0.0574288
356 4 0.224309 0.155487 0.0484688
567 4 0.218711 0.151319 0.0286421
565 2 0.225318 0.147289 0.00486629
556 2 0.33093 0.11196 0.00272072
665 4 0.354117 0.15931 0.0165591
558 4 0.347339 0.119991 0.0197922
2793 4 0.446087 0.141499 0.0793916
737 4 0.156769 0.181511 0.085007
736 2 0.146117 0.163578 0.0712179
507 4 0.142021 0.197635 0.0814914
477 4 0.102502 0.245774 0.08017
355 2 0.223646 0.176884 0.0613883
573 4 0.238276 0.213564 0.0746945
571 2 0.246098 0.23135 0.0589584
357 4 0.222982 0.198281 0.0743078
572 4 0.253921 0.249137 0.0432223
664 2 0.366231 0.18092 0.0199387
254 4 0.391472 0.204617 0.007396
666 4 0.378345 0.20253 0.0233182
253 2 0.416438 0.203669 0.00837671
255 4 0.441404 0.202721 0.00935742
2771 4 0.988493 0.329212 0.0120698
2808 4 0.0038206 0.31869 0.00551879
475 2 0.0999132 0.251102 0.0558783
476 4 0.0973245 0.256431 0.0315865
294 4 0.136986 0.304369 0.0115268
456 4 0.124064 0.314071 0.0232333
292 2 0.146059 0.281076 0.0120455
454 2 0.13461 0.326984 0.041867
251 4 0.249753 0.335457 0.0668547
483 4 0.245451 0.327152 0.0499008
352 2 0.247065 0.261197 0.0067536
353 4 0.260219 0.260957 0.0280159
519 4 0.341776 0.262761 0.0833869
1071 4 0.3989 0.320785 0.0488378
455 4 0.145155 0.339898 0.0605007
481 2 0.248946 0.333026 0.0258498
482 4 0.252442 0.3389 0.00179877
1069 2 0.377407 0.326157 0.0372463
1070 4 0.355913 0.331529 0.0256548
957 4 0.341334 0.339925 0.0360507
955 2 0.334732 0.34926 0.0138146
672 4 0.410926 0.399302 0.0740468
551 4 0.0371161 0.476181 0.00979137
330 4 0.0178542 0.47502 0.0135261
550 2 0.0611786 0.469389 0.00958494
552 4 0.0852411 0.462596 0.00937851
328 2 0.998012 0.461205 0.0198985
1690 2 0.156807 0.504302 0.0097193
241 2 0.245258 0.503549 0.0150566
243 4 0.23745 0.480705 0.00854718
1289 4 0.236752 0.467639 0.992396
1779 4 0.29229 0.493492 0.0855826
493 2 0.380433 0.452054 0.0536007
494 4 0.375051 0.46677 0.0730854
495 4 0.385814 0.437338 0.0341159
525 4 0.355912 0.472543 0.0766919
659 4 0.448231 0.481309 0.0978157
379 2 0.00966704 0.076423 0.142759
380 4 0.0247894 0.0767546 0.12285
700 2 0.0806378 0.0361686 0.083174
701 4 0.0818389 0.0434127 0.107075
450 4 0.0988944 0.0467203 0.117863
448 2 0.119572 0.0498311 0.131572
449 4 0.14025 0.052942 0.145281
578 4 0.154199 0.0366313 0.146391
577 2 0.170722 0.0510107 0.158449
579 4 0.187245 0.06539 0.170507
1474 2 0.309429 0.00791511 0.120945
1476 4 0.303442 0.0225621 0.101585
654 4 0.319757 0.0343431 0.102124
653 4 0.317732 0.083041 0.0909376
652 2 0.318744 0.0586921 0.0965306
1662 4 0.309435 0.00446672 0.156707
1449 4 0.407676 0.00786669 0.124137
1783 2 0.41267 0.00782311 0.16176
746 4 0.45593 0.0627118 0.0915327
2724 4 0.494842 0.00461217 0.161123
1784 4 0.407341 0.0201622 0.140676
745 2 0.470503 0.079853 0.10244
771 4 0.489184 0.0924258 0.13207
2468 4 0.496043 0.018236 0.145574
591 4 0.0513688 0.121073 0.0795178
590 4 0.0341246 0.0824429 0.106184
589 2 0.0427467 0.101758 0.0928507
297 4 0.306899 0.0983027 0.0960578
295 2 0.309627 0.115612 0.113894
296 4 0.312355 0.132922 0.131729
581 4 0.311301 0.138167 0.151365
22 3 0.421863 0.0879752 0.14886
580 2 0.326306 0.141657 0.17106
747 4 0.485077 0.0969942 0.113347
2792 4 0.426335 0.13292 0.124525
2791 2 0.436211 0.13721 0.101958
655 2 0.0176043 0.20576 0.101284
657 4 0.0329677 0.216339 0.117934
705 4 0.0479547 0.221031 0.104909
703 2 0.0713014 0.228379 0.0997986
505 2 0.148844 0.218046 0.0942216
704 4 0.094648 0.235728 0.0946886
506 4 0.155667 0.238456 0.106952
755 4 0.170409 0.230333 0.116019
460 2 0.231999 0.247181 0.147996
2895 4 0.494377 0.178253 0.0915962
395 4 0.00047018 0.285333 0.140634
362 4 0.0920477 0.323243 0.158285
394 2 0.996571 0.265647 0.155548
647 4 0.0888469 0.341964 0.162696
361 2 0.114704 0.312803 0.159985
363 4 0.13736 0.302364 0.161684
250 2 0.232422 0.336774 0.0848286
286 2 0.171427 0.340937 0.0910708
754 2 0.18016 0.247539 0.131318
756 4 0.189911 0.264744 0.146617
623 4 0.24821 0.278051 0.119608
461 4 0.24152 0.265247 0.133568
288 4 0.194261 0.340047 0.101219
622 2 0.264186 0.295536 0.111596
624 4 0.280163 0.313022 0.103583
517 2 0.336896 0.279675 0.101143
518 4 0.332017 0.29659 0.118899
12 3 0.364687 0.317645 0.144761
11 1 0.359209 0.326988 0.165055
324 4 0.37197 0.326846 0.127417
322 2 0.385595 0.344796 0.116585
2840 4 0.463812 0.306009 0.150971
527 4 0.471612 0.299041 0.169737
2839 2 0.459643 0.32991 0.144929
646 2 0.0681126 0.344664 0.148985
648 4 0.0473783 0.347364 0.135275
287 4 0.148592 0.341826 0.0809224
252 4 0.21509 0.338091 0.102802
609 4 0.203343 0.391781 0.135159
607 2 0.209313 0.368598 0.142377
626 4 0.20965 0.40329 0.150258
608 4 0.215282 0.345415 0.149595
741 4 0.312413 0.362473 0.115188
740 4 0.287736 0.319422 0.12138
739 2 0.300074 0.340948 0.118284
671 4 0.408095 0.376563 0.118495
670 2 0.40951 0.387932 0.0962709
323 4 0.399219 0.362747 0.105753
15 3 0.351092 0.347999 0.161693
387 4 0.33843 0.402983 0.161426
2841 4 0.455474 0.353812 0.138887
2650 2 0.466552 0.378554 0.118302
2651 4 0.471969 0.35685 0.129472
2652 4 0.461134 0.400258 0.107132
262 2 0.0911838 0.457157 0.158843
1787 4 0.126232 0.457918 0.0965261
1786 2 0.118755 0.481747 0.0953227
264 4 0.11112 0.470523 0.151838
625 2 0.196779 0.424194 0.155007
627 4 0.183908 0.445098 0.159755
244 2 0.319125 0.432469 0.13602
245 4 0.322154 0.414978 0.153629
246 4 0.316096 0.44996 0.118411
524 4 0.335262 0.448783 0.115547
523 2 0.345587 0.460663 0.0961195
596 4 0.464739 0.413715 0.0923587
595 2 0.45784 0.437605 0.0949713
597 4 0.450941 0.461496 0.0975838
3608 4 0.489492 0.51251 0.0915467
1420 2 0.0032122 0.0522744 0.196922
1404 4 9.95911e-05 0.0238831 0.231016
674 4 0.0758418 0.991036 0.244151
1421 4 0.00326933 0.0346329 0.21464
1566 4 0.199472 0.00612139 0.187459
236 4 0.192813 0.0835136 0.174185
1506 4 0.217395 0.0103648 0.180042
1504 2 0.226133 0.0255718 0.197863
692 4 0.242297 0.0443597 0.233369
1505 4 0.234871 0.0407787 0.215683
691 2 0.243612 0.0689169 0.237885
27 3 0.315636 0.0840314 0.233911
25 3 0.409401 0.0746083 0.181401
235 2 0.181321 0.0976904 0.191277
237 4 0.16983 0.111867 0.20837
732 4 0.22688 0.155859 0.228344
722 4 0.243628 0.147935 0.233804
730 2 0.207298 0.156703 0.243868
721 2 0.252824 0.124687 0.234222
693 4 0.244926 0.0934741 0.242401
723 4 0.262019 0.10144 0.234639
28 3 0.28094 0.0971038 0.240068
757 2 0.396894 0.150641 0.187177
582 4 0.34131 0.145148 0.190754
758 4 0.401642 0.126166 0.185279
24 3 0.403892 0.110821 0.172688
23 3 0.438781 0.0981483 0.180843
21 1 0.41842 0.0927996 0.171087
462 4 0.222478 0.229115 0.162423
278 4 0.235231 0.22044 0.1771
277 2 0.225337 0.198737 0.169598
279 4 0.215443 0.177034 0.162096
284 4 0.232866 0.238294 0.245803
283 2 0.212209 0.252102 0.248602
759 4 0.392146 0.175116 0.189075
629 4 0.404657 0.179957 0.174638
630 4 0.398514 0.229282 0.180123
628 2 0.401585 0.204619 0.17738
765 4 0.351779 0.19762 0.256288
708 4 0.349306 0.180892 0.245811
522 4 0.438808 0.245958 0.248992
339 4 0.134848 0.299041 0.180687
337 2 0.158262 0.297068 0.189233
733 2 0.101844 0.307224 0.260597
735 4 0.112512 0.322866 0.244265
544 2 0.157266 0.262606 0.24918
338 4 0.181677 0.295094 0.19778
344 4 0.18832 0.297914 0.216564
343 2 0.210888 0.306434 0.223143
345 4 0.233456 0.314954 0.229722
285 4 0.191553 0.265909 0.251401
545 4 0.177213 0.269411 0.235725
309 4 0.302404 0.248378 0.174703
307 2 0.305444 0.266288 0.191884
308 4 0.308484 0.284197 0.209065
498 4 0.312047 0.287812 0.227994
496 2 0.319909 0.27439 0.24757
13 3 0.343074 0.313808 0.17527
14 3 0.378249 0.32788 0.178286
520 2 0.453729 0.253225 0.230291
526 2 0.472208 0.276853 0.181249
521 4 0.46865 0.260493 0.21159
528 4 0.472803 0.254665 0.192761
2692 2 0.0140954 0.359796 0.250939
415 2 0.0778593 0.409048 0.188571
416 4 0.0899031 0.389916 0.199252
536 4 0.0992719 0.338933 0.24376
537 4 0.0914593 0.37913 0.215057
535 2 0.0953656 0.359031 0.229409
612 4 0.223943 0.351653 0.166629
610 2 0.243798 0.351941 0.181823
728 4 0.266985 0.352371 0.216618
611 4 0.263654 0.352228 0.197016
727 2 0.277609 0.360795 0.237626
385 2 0.351862 0.38211 0.164437
644 4 0.379662 0.347881 0.176025
386 4 0.365294 0.361236 0.167447
643 2 0.398194 0.353795 0.191734
541 2 0.410979 0.387903 0.243139
542 4 0.414364 0.372203 0.223976
645 4 0.416726 0.359709 0.207442
263 4 0.0712477 0.44379 0.165848
417 4 0.0658156 0.428181 0.177891
289 2 0.145223 0.445014 0.176946
1665 4 0.102565 0.493716 0.195801
290 4 0.121832 0.438047 0.182374
1663 2 0.123154 0.502389 0.184573
768 4 0.159929 0.482312 0.198429
291 4 0.168615 0.451981 0.171517
766 2 0.179487 0.491563 0.185895
767 4 0.199044 0.500814 0.173361
638 4 0.290154 0.506246 0.193803
301 2 0.30291 0.474304 0.201961
303 4 0.289031 0.488019 0.186327
302 4 0.316789 0.460589 0.217596
1574 4 0.334841 0.457959 0.208711
1573 2 0.359556 0.461733 0.208998
1575 4 0.384272 0.465507 0.209285
230 4 0.400887 0.469747 0.217762
229 2 0.409404 0.467285 0.241141
2860 2 0.486968 0.468892 0.22619
2861 4 0.494257 0.451274 0.242366
110 3 0.504233 0.447274 0.259832
429 4 0.124037 0.0149416 0.307958
427 2 0.117981 0.0390764 0.305506
428 4 0.111925 0.0632112 0.303054
1479 4 0.12476 0.0130711 0.327803
247 2 0.279212 0.0893039 0.311772
249 4 0.287545 0.072898 0.328701
29 3 0.304474 0.0906045 0.269193
1749 4 0.44185 0.0149013 0.317378
1748 4 0.443755 0.0621692 0.301166
1747 2 0.442802 0.0385352 0.309272
743 4 0.45377 0.0758732 0.309826
457 2 0.00688321 0.107653 0.328688
529 2 0.0307549 0.135193 0.283781
530 4 0.0269799 0.112618 0.293845
458 4 0.0183593 0.102224 0.307148
531 4 0.0345299 0.157769 0.273717
605 4 0.177827 0.14065 0.316435
604 2 0.179675 0.140786 0.2915
606 4 0.181523 0.140923 0.266565
731 4 0.187715 0.157546 0.259392
404 4 0.237487 0.158938 0.323311
369 4 0.187266 0.124685 0.320416
30 3 0.310943 0.119181 0.245546
26 1 0.303 0.097903 0.247217
403 2 0.247381 0.139857 0.310536
405 4 0.257276 0.120776 0.29776
248 4 0.270879 0.10571 0.294843
633 4 0.329325 0.126348 0.273424
631 2 0.331327 0.126987 0.298339
632 4 0.333329 0.127626 0.323254
707 4 0.345823 0.135123 0.265656
706 2 0.347565 0.158007 0.255734
351 4 0.409624 0.154221 0.316606
420 4 0.429985 0.152839 0.307809
418 2 0.453888 0.155366 0.30092
742 2 0.440606 0.0909989 0.324763
419 4 0.477791 0.157893 0.294032
513 4 0.044873 0.174429 0.270391
511 2 0.0652843 0.185629 0.279509
512 4 0.0856957 0.196828 0.288626
393 4 0.0925805 0.215117 0.290067
391 2 0.10898 0.227523 0.275842
546 4 0.13732 0.255801 0.262634
388 2 0.151913 0.242878 0.30936
600 4 0.232249 0.178726 0.323794
598 2 0.208385 0.173811 0.329408
390 4 0.171739 0.228351 0.30477
371 4 0.190179 0.232626 0.313901
370 2 0.201991 0.227881 0.335422
764 4 0.326823 0.240489 0.262623
763 2 0.339301 0.219054 0.259456
349 2 0.40863 0.169616 0.336283
377 4 0.396972 0.252936 0.301826
376 2 0.374148 0.248273 0.310911
378 4 0.351325 0.24361 0.319995
311 4 0.486857 0.172927 0.301868
310 2 0.496423 0.194121 0.311058
392 4 0.12538 0.239929 0.261618
389 4 0.132088 0.257406 0.31395
734 4 0.0911758 0.291583 0.276928
750 4 0.120102 0.270306 0.323035
509 4 0.253579 0.327933 0.316368
275 4 0.329438 0.333136 0.286882
497 4 0.327772 0.260968 0.267146
276 4 0.368633 0.310856 0.308517
614 4 0.376067 0.322109 0.324381
274 2 0.349035 0.321996 0.297699
2694 4 0.0390617 0.358802 0.250006
618 4 0.081094 0.332003 0.311747
366 4 0.0509886 0.369531 0.263426
365 4 0.0796209 0.3442 0.295664
364 2 0.0653047 0.356865 0.279545
299 4 0.0869369 0.392391 0.306486
298 2 0.098087 0.410024 0.292704
300 4 0.109237 0.427657 0.278922
502 2 0.25083 0.398748 0.328663
435 4 0.266386 0.342214 0.309271
433 2 0.281134 0.354129 0.292971
434 4 0.295882 0.366045 0.27667
729 4 0.288234 0.36922 0.258634
543 4 0.407594 0.403604 0.262302
446 4 0.40555 0.404677 0.282152
117 3 0.482121 0.340335 0.314239
2923 2 0.46573 0.376159 0.329424
2924 4 0.454844 0.398643 0.330488
499 2 0.0643355 0.482644 0.323448
500 4 0.0453827 0.495941 0.314005
603 4 0.100784 0.439265 0.264032
602 4 0.142088 0.467343 0.261531
601 2 0.121436 0.453304 0.262782
1775 4 0.133081 0.483743 0.25247
503 4 0.255625 0.421787 0.320214
437 4 0.272874 0.41793 0.311919
436 2 0.283848 0.430164 0.293075
1436 4 0.310365 0.448669 0.286413
438 4 0.294822 0.442397 0.274231
1435 2 0.332093 0.460218 0.290851
1 1 0.357786 0.49264 0.328766
1437 4 0.353821 0.471766 0.295289
5 3 0.347583 0.480489 0.312428
231 4 0.417921 0.464824 0.26452
714 4 0.441565 0.507523 0.300728
445 2 0.415296 0.427656 0.280677
447 4 0.425041 0.450635 0.279202
713 4 0.441387 0.458564 0.290543
712 2 0.441476 0.483044 0.295635
318 4 0.0909436 0.99525 0.385689
399 4 0.0687766 0.0479521 0.377166
397 2 0.0886498 0.0497892 0.362105
398 4 0.108523 0.0516263 0.347043
719 4 0.0933246 0.0238035 0.431329
2428 2 0.223307 0.0190288 0.388261
2429 4 0.236604 0.0400749 0.390591
1701 4 0.252253 0.0456906 0.378267
2430 4 0.21001 0.997983 0.385931
368 4 0.171903 0.0830556 0.343474
1699 2 0.262154 0.059145 0.359662
1700 4 0.272055 0.0725995 0.341058
439 2 0.3268 0.0157897 0.409012
699 4 0.365118 0.0744948 0.343487
441 4 0.330535 0.0363285 0.422774
2641 2 0.460604 0.0687413 0.408946
2643 4 0.46906 0.0473171 0.418677
2880 4 0.487533 0.0397049 0.414872
367 2 0.179585 0.10387 0.331945
472 2 0.185751 0.150788 0.404128
474 4 0.194947 0.138286 0.384524
683 4 0.212957 0.135522 0.394461
682 2 0.23701 0.133252 0.400901
684 4 0.261063 0.130982 0.407342
467 4 0.274219 0.143231 0.416796
466 2 0.296952 0.134339 0.411382
468 4 0.319685 0.125447 0.405967
698 4 0.330744 0.108908 0.331873
697 2 0.347931 0.0917012 0.33768
332 4 0.427089 0.140558 0.395278
2642 4 0.452149 0.0901654 0.399215
744 4 0.427443 0.106125 0.3397
333 4 0.420544 0.121844 0.349369
331 2 0.423817 0.131201 0.372324
478 2 0.470497 0.127217 0.407147
480 4 0.485229 0.147296 0.404911
2850 4 0.997666 0.219375 0.339859
2849 4 0.00184425 0.214583 0.38946
2848 2 0.999755 0.216979 0.36466
444 4 0.0790313 0.244082 0.371493
686 4 0.117969 0.16508 0.40052
687 4 0.110435 0.191904 0.358995
685 2 0.114202 0.178492 0.379758
400 2 0.140515 0.228953 0.391017
401 4 0.156618 0.221161 0.373547
402 4 0.124413 0.236745 0.408486
372 4 0.213802 0.223137 0.356943
599 4 0.18452 0.168897 0.335021
649 2 0.229024 0.242755 0.377991
650 4 0.214087 0.243158 0.357944
651 4 0.243962 0.242351 0.398038
717 4 0.263465 0.245482 0.403896
350 4 0.407635 0.185011 0.35596
452 4 0.412194 0.204273 0.360767
451 2 0.424836 0.201202 0.38212
453 4 0.437478 0.198131 0.403472
515 4 0.436366 0.193015 0.422918
2802 4 0.998273 0.328498 0.3638
2800 2 0.0189542 0.314446 0.363906
443 4 0.0536135 0.286697 0.365282
2801 4 0.0396351 0.300393 0.364012
442 2 0.0663224 0.26539 0.368388
260 4 0.100418 0.292657 0.4038
748 2 0.108403 0.288788 0.335148
749 4 0.096705 0.30727 0.347262
510 4 0.26461 0.314803 0.363343
508 2 0.259095 0.321368 0.339856
636 4 0.267741 0.30475 0.380661
634 2 0.28311 0.311766 0.399093
635 4 0.298479 0.318782 0.417525
613 2 0.390273 0.305263 0.336196
615 4 0.404478 0.288417 0.348012
547 2 0.00648097 0.384461 0.383273
408 4 0.0263575 0.419678 0.387897
548 4 0.0118437 0.408488 0.3789
616 2 0.0930831 0.340893 0.331807
617 4 0.105072 0.349783 0.351867
677 4 0.11913 0.350745 0.36511
676 2 0.133927 0.36135 0.38225
678 4 0.148724 0.371955 0.399389
375 4 0.167974 0.377321 0.404562
373 2 0.162532 0.40008 0.413373
504 4 0.246035 0.375709 0.337112
752 4 0.385037 0.365719 0.351075
751 2 0.384869 0.38882 0.36064
753 4 0.384701 0.411921 0.370205
560 4 0.386379 0.431407 0.367368
2925 4 0.476617 0.353675 0.32836
501 4 0.0832882 0.469347 0.33289
406 2 0.0455123 0.425378 0.402923
680 4 0.102082 0.459981 0.329899
679 2 0.114065 0.446955 0.34756
681 4 0.126047 0.433929 0.365221
3 3 0.372626 0.47922 0.340515
4 3 0.341884 0.501402 0.343215
559 2 0.407806 0.437297 0.378828
593 4 0.432201 0.497495 0.373771
561 4 0.429234 0.443188 0.390288
588 4 0.429445 0.451333 0.409596
2236 2 0.0401266 0.991843 0.487012
718 2 0.095228 0.0408397 0.449531
720 4 0.0971314 0.057876 0.467734
1517 4 0.332384 0.066986 0.451188
1182 4 0.277375 0.0610628 0.496834
1151 4 0.260527 0.0534428 0.506438
432 4 0.343624 0.0512886 0.450057
1516 2 0.341984 0.086847 0.439417
430 2 0.350063 0.0344739 0.467406
431 4 0.356502 0.0176591 0.484754
342 4 0.116831 0.170194 0.419875
1034 4 0.089967 0.117535 0.493632
340 2 0.12443 0.152276 0.435571
1035 4 0.132832 0.125714 0.469211
341 4 0.132029 0.134357 0.451267
1033 2 0.1114 0.121625 0.481421
473 4 0.176554 0.16329 0.423731
321 4 0.176783 0.177836 0.437435
1518 4 0.351584 0.106708 0.427646
575 4 0.366902 0.109805 0.439162
640 2 0.362925 0.15637 0.481468
642 4 0.366721 0.131795 0.478858
574 2 0.388031 0.122223 0.43421
899 4 0.380138 0.120254 0.486434
576 4 0.409161 0.134641 0.429259
516 4 0.409266 0.153315 0.436707
479 4 0.455765 0.107138 0.409383
471 4 0.0338555 0.214485 0.484379
348 4 0.0675972 0.206124 0.425585
469 2 0.043879 0.208431 0.462287
470 4 0.0539026 0.202377 0.440195
1200 4 0.0238122 0.216192 0.500662
346 2 0.0883468 0.219839 0.423029
347 4 0.109096 0.233554 0.420474
1272 4 0.123262 0.23141 0.502087
320 4 0.185147 0.177883 0.486738
319 2 0.180965 0.17786 0.462087
715 2 0.273289 0.256923 0.42384
641 4 0.359129 0.180946 0.484078
514 2 0.422816 0.173165 0.429813
695 4 0.0752888 0.281493 0.462155
259 2 0.0932183 0.282785 0.425615
261 4 0.0860184 0.272913 0.447429
694 2 0.0925966 0.283914 0.480037
327 4 0.128886 0.32663 0.485387
710 4 0.147535 0.323088 0.48872
709 2 0.170777 0.331331 0.492842
773 4 0.20611 0.324227 0.492227
711 4 0.19402 0.339575 0.496965
668 4 0.313707 0.329823 0.42457
488 4 0.297542 0.274537 0.432422
716 4 0.283112 0.268364 0.443785
487 2 0.322436 0.276114 0.430702
583 2 0.406165 0.308791 0.49604
267 4 0.367077 0.278654 0.426949
489 4 0.347331 0.277692 0.428982
265 2 0.378156 0.290062 0.446244
584 4 0.39825 0.291267 0.480058
266 4 0.389234 0.301471 0.465539
325 2 0.114758 0.336044 0.467031
326 4 0.100629 0.345458 0.448675
374 4 0.157089 0.422838 0.422183
772 2 0.225963 0.338993 0.488625
667 2 0.324439 0.351044 0.416847
669 4 0.335172 0.372266 0.409124
812 4 0.2592 0.343332 0.473864
811 2 0.282841 0.347143 0.481057
774 4 0.245816 0.35376 0.485022
813 4 0.306483 0.350955 0.488249
336 4 0.331658 0.391881 0.412355
334 2 0.342176 0.407634 0.428677
1383 4 0.0653338 0.495694 0.456904
384 4 0.0647036 0.425638 0.482638
382 2 0.0704177 0.42529 0.458298
383 4 0.0761318 0.424941 0.433959
407 4 0.0646671 0.431079 0.417949
935 4 0.0454539 0.422636 0.488435
240 4 0.355954 0.434426 0.46139
335 4 0.352693 0.423387 0.444999
238 2 0.369195 0.442268 0.481097
662 4 0.458015 0.432616 0.466116
587 4 0.452197 0.427898 0.447462
661 2 0.471074 0.441475 0.48551
586 2 0.440821 0.439615 0.428529
1126 2 0.014861 0.0196051 0.535792
2237 4 0.0469429 0.000367547 0.509508
1128 4 0.996872 0.0309647 0.548927
1127 4 0.0328503 0.00824553 0.522658
1058 4 0.156298 0.0157037 0.53464
1889 4 0.148628 0.000730893 0.547063
1059 4 0.195503 0.0363469 0.511453
1152 4 0.215286 0.0321619 0.507486
1150 2 0.237907 0.0428023 0.506962
1057 2 0.175901 0.0260253 0.523046
1031 4 0.293536 0.061144 0.576007
962 4 0.284044 0.0503147 0.56149
1030 2 0.278524 0.0810253 0.57387
1180 2 0.290977 0.0820298 0.496095
3157 2 0.374227 0.0672932 0.553682
3158 4 0.375863 0.0587397 0.57712
842 4 0.389763 0.0459308 0.58468
841 2 0.382528 0.0222614 0.588229
900 4 0.362379 0.0825233 0.514032
426 4 0.36533 0.0111708 0.501786
937 2 0.0618302 0.12515 0.520261
939 4 0.0450261 0.117238 0.537
938 4 0.0786342 0.133061 0.503521
824 4 0.16551 0.141237 0.560419
825 4 0.186604 0.0992903 0.543207
823 2 0.176057 0.120264 0.551813
725 4 0.312638 0.1125 0.509542
724 2 0.326088 0.131963 0.517635
1181 4 0.304579 0.102997 0.495356
726 4 0.339537 0.151425 0.525729
1032 4 0.263513 0.100907 0.571733
3159 4 0.372591 0.0758468 0.530244
898 2 0.371259 0.101389 0.500233
1271 4 0.12956 0.210897 0.547256
1270 2 0.126411 0.221154 0.524672
1220 4 0.139988 0.210995 0.566049
1219 2 0.15382 0.204206 0.585741
856 2 0.186476 0.182051 0.526772
857 4 0.187249 0.194246 0.548586
409 2 0.214482 0.21593 0.560231
411 4 0.207672 0.197031 0.545344
410 4 0.221293 0.234829 0.575118
858 4 0.185703 0.169856 0.504957
790 2 0.353461 0.235944 0.519665
792 4 0.355306 0.211083 0.517733
3065 4 0.497835 0.235179 0.556398
1198 2 0.023038 0.238444 0.512038
879 4 0.00408071 0.282432 0.532375
877 2 0.0170831 0.303576 0.529367
878 4 0.0300856 0.32472 0.52636
1199 4 0.0222638 0.260696 0.523415
10 3 0.116296 0.297221 0.512451
6 1 0.127835 0.303635 0.531007
9 3 0.116861 0.29629 0.550087
7 3 0.129143 0.326595 0.531556
696 4 0.109904 0.286336 0.497918
8 3 0.149326 0.29491 0.530375
791 4 0.351615 0.260804 0.521598
585 4 0.414081 0.326316 0.512021
905 4 0.497692 0.254502 0.557004
1039 2 0.0495576 0.397341 0.564685
1136 4 0.0607257 0.355386 0.57594
1041 4 0.058218 0.374723 0.5709
1135 2 0.0842222 0.357402 0.584248
1393 2 0.207173 0.385949 0.553942
1395 4 0.225144 0.374711 0.540679
1394 4 0.189202 0.397188 0.567205
872 4 0.316729 0.350349 0.505936
1172 4 0.266681 0.414778 0.556988
873 4 0.352902 0.35675 0.539866
871 2 0.334815 0.35355 0.522901
269 4 0.427523 0.33973 0.518715
3309 4 0.477473 0.370779 0.522809
270 4 0.476339 0.350578 0.51883
268 2 0.451931 0.345154 0.518773
927 4 0.481597 0.380616 0.572048
925 2 0.476938 0.404633 0.566887
1040 4 0.0408973 0.419958 0.55847
936 4 0.0457205 0.423696 0.538431
934 2 0.0455872 0.423166 0.513433
538 2 0.139976 0.488709 0.538316
539 4 0.16307 0.479186 0.537254
540 4 0.116881 0.498233 0.539377
2243 4 0.170204 0.4917 0.522275
1028 4 0.272078 0.418949 0.575426
1173 4 0.269569 0.4602 0.536272
1171 2 0.268125 0.437489 0.54663
880 2 0.296432 0.484886 0.529347
881 4 0.28401 0.469979 0.545116
1455 4 0.327249 0.505918 0.518209
930 4 0.397202 0.459481 0.508752
928 2 0.38318 0.465358 0.528601
239 4 0.382436 0.45011 0.500804
929 4 0.369157 0.471235 0.548451
1330 2 0.484558 0.483705 0.534752
1332 4 0.48463 0.466269 0.516832
1331 4 0.484485 0.501142 0.552672
663 4 0.484134 0.450335 0.504904
926 4 0.472278 0.42865 0.561725
2318 4 0.140965 0.020383 0.617146
2317 2 0.146635 0.0438674 0.610703
2319 4 0.152304 0.0673519 0.604259
1284 4 0.163819 0.0851499 0.608525
2241 4 0.251471 0.0140827 0.656519
951 4 0.253173 0.0290636 0.668356
961 2 0.28962 0.02685 0.568085
1141 2 0.321423 0.0644256 0.647028
1003 2 0.334343 0.0118965 0.633452
1004 4 0.326412 0.0349108 0.639163
963 4 0.295196 0.00338534 0.57468
1142 4 0.336113 0.0511002 0.631802
809 4 0.454838 0.0487569 0.638968
808 2 0.46927 0.0608542 0.62252
810 4 0.483703 0.0729515 0.606072
3009 4 0.490857 0.0597462 0.593183
1163 4 0.448806 0.0459898 0.657928
4227 4 0.476236 0.0124411 0.645051
2990 4 0.0269546 0.0960827 0.618808
2989 2 0.0466505 0.097588 0.634137
3078 4 0.0186844 0.114205 0.621501
2991 4 0.0663465 0.0990933 0.649466
3076 2 0.00627281 0.111108 0.600018
864 4 0.0782029 0.115504 0.651162
1282 2 0.181641 0.0971663 0.621298
1155 4 0.202433 0.126095 0.643961
1283 4 0.199462 0.109183 0.634072
1153 2 0.215308 0.142123 0.658191
1212 4 0.233705 0.15344 0.621555
1143 4 0.306733 0.077751 0.662253
888 4 0.28114 0.128758 0.664252
3426 4 0.46537 0.116958 0.646129
3424 2 0.466751 0.138885 0.658066
1221 4 0.167652 0.197418 0.605433
1260 4 0.172147 0.223447 0.653741
948 4 0.152637 0.227055 0.659308
1210 2 0.224831 0.176276 0.616562
1211 4 0.215957 0.199113 0.611569
1259 4 0.212908 0.208065 0.629192
1258 2 0.192527 0.215756 0.641467
1009 2 0.469389 0.238828 0.644332
1011 4 0.473099 0.241848 0.61979
796 2 0.323468 0.327301 0.662496
906 4 0.478656 0.249644 0.602991
904 2 0.488174 0.252073 0.579998
952 2 0.439412 0.304692 0.657819
954 4 0.447316 0.302391 0.63421
895 2 0.136236 0.388548 0.592651
897 4 0.147772 0.409924 0.598582
896 4 0.124699 0.367172 0.586721
1137 4 0.107719 0.359419 0.592556
1068 4 0.135777 0.402669 0.663109
992 4 0.0993075 0.358001 0.658366
1191 4 0.193788 0.364142 0.625082
1190 4 0.238243 0.351385 0.606065
1189 2 0.216016 0.357763 0.615574
804 4 0.25447 0.340004 0.612217
1027 2 0.280866 0.397362 0.584477
803 4 0.299158 0.341808 0.589846
802 2 0.276814 0.340906 0.601032
1029 4 0.289654 0.375774 0.593527
1239 4 0.297813 0.361328 0.615972
1237 2 0.319547 0.369305 0.625415
797 4 0.328436 0.351672 0.659939
1238 4 0.341281 0.377283 0.634858
807 4 0.394802 0.346048 0.605222
806 4 0.355146 0.370399 0.623527
805 2 0.374974 0.358223 0.614374
1006 2 0.402874 0.349786 0.662767
1100 4 0.427807 0.37683 0.644243
1099 2 0.448526 0.390442 0.6475
1007 4 0.410627 0.368497 0.648106
1101 4 0.469246 0.404054 0.650757
1204 2 0.34063 0.43473 0.666222
890 4 0.349822 0.462887 0.643166
1205 4 0.357071 0.451595 0.65783
889 2 0.349742 0.483115 0.628469
1001 4 0.459656 0.442147 0.568749
1002 4 0.449181 0.46184 0.613505
1000 2 0.454418 0.451994 0.591127
1268 4 0.442823 0.476548 0.625265
1267 2 0.427848 0.492394 0.637506
2048 4 0.0834875 0.0115972 0.728302
945 4 0.134172 0.0914335 0.72504
2256 4 0.143079 0.011291 0.736038
2254 2 0.165291 0.00383994 0.727303
2400 4 0.242579 0.0254004 0.713722
949 2 0.268214 0.0479981 0.674715
950 4 0.283255 0.0669326 0.681074
1092 4 0.277265 0.0634417 0.70075
1090 2 0.291896 0.0698297 0.719993
1091 4 0.306528 0.0762178 0.739236
1216 2 0.375493 0.0123646 0.688624
1217 4 0.389739 0.0317182 0.681718
1164 4 0.40829 0.0382595 0.686202
1162 2 0.428548 0.0421246 0.672065
1113 4 0.463989 0.0712134 0.702555
1111 2 0.471816 0.0605589 0.723778
1112 4 0.479643 0.0499045 0.745
45 3 0.412429 0.087019 0.711142
862 2 0.0834512 0.121619 0.674832
1082 4 0.00322386 0.114172 0.683358
909 4 0.151908 0.0836287 0.723737
863 4 0.0886994 0.127733 0.698501
943 2 0.114168 0.105529 0.719909
944 4 0.0941639 0.119625 0.714778
1105 2 0.0889032 0.148933 0.741317
907 2 0.172117 0.097765 0.727853
830 4 0.203708 0.118155 0.717789
829 2 0.219769 0.136993 0.714273
908 4 0.192326 0.111901 0.731969
831 4 0.23583 0.155831 0.710756
1154 4 0.228183 0.158151 0.672422
886 2 0.295626 0.109817 0.671773
887 4 0.310113 0.0908764 0.679294
1086 4 0.361673 0.106695 0.737248
43 3 0.449792 0.0824853 0.712192
42 3 0.433723 0.10217 0.684498
41 1 0.432463 0.0969698 0.70687
44 3 0.434394 0.116511 0.719233
3425 4 0.468132 0.160812 0.670002
1025 4 0.471255 0.16836 0.686508
1106 4 0.0815989 0.166718 0.725333
850 2 0.0319904 0.218294 0.738859
851 4 0.0410743 0.202532 0.721706
1179 4 0.0950846 0.175253 0.711691
1177 2 0.112549 0.192437 0.716681
1178 4 0.130013 0.20962 0.721672
946 2 0.148049 0.222282 0.68342
947 4 0.143461 0.217509 0.707531
1298 4 0.23843 0.175049 0.707199
1299 4 0.286874 0.179787 0.695734
1297 2 0.262652 0.177418 0.701466
978 4 0.292198 0.199722 0.692957
976 2 0.308582 0.216269 0.702063
977 4 0.324966 0.232816 0.71117
1193 4 0.328901 0.242567 0.693915
1010 4 0.465679 0.235809 0.668873
1026 4 0.463983 0.21537 0.671086
1024 2 0.467619 0.191865 0.678797
48 3 0.457876 0.215885 0.734412
46 1 0.456413 0.237839 0.741778
47 3 0.476701 0.248162 0.738464
821 4 0.164412 0.330545 0.75184
798 4 0.318499 0.30293 0.665053
1043 4 0.382727 0.320081 0.667361
1192 2 0.344007 0.262387 0.695954
1194 4 0.359114 0.282206 0.697993
1044 4 0.374508 0.290254 0.706649
1042 2 0.378618 0.305168 0.687005
953 4 0.431508 0.306992 0.681429
50 3 0.440351 0.248921 0.730037
3123 4 0.469919 0.264727 0.729219
1263 4 0.451892 0.265607 0.72202
1261 2 0.437038 0.278399 0.706499
1262 4 0.422184 0.291191 0.690978
3121 2 0.488914 0.280831 0.731459
883 2 0.0753471 0.400987 0.749456
993 4 0.131767 0.390293 0.678475
991 2 0.115537 0.374147 0.668421
822 4 0.192021 0.371703 0.745172
820 2 0.178216 0.351124 0.748506
1097 4 0.255947 0.379863 0.744905
1277 4 0.291702 0.339506 0.711649
1276 2 0.279185 0.350785 0.730123
1278 4 0.266668 0.362064 0.748597
1008 4 0.395122 0.331075 0.677429
3329 4 0.473303 0.393169 0.667663
3369 4 0.471863 0.357586 0.726757
3367 2 0.489133 0.362011 0.744289
3328 2 0.48838 0.408554 0.680358
2129 4 0.0557484 0.482837 0.724198
884 4 0.0647377 0.405297 0.727229
1280 4 0.0509374 0.413148 0.715196
1279 2 0.0376161 0.433726 0.710267
1281 4 0.0242949 0.454303 0.705338
894 4 0.00614148 0.444989 0.704438
2128 2 0.0453183 0.49313 0.744458
1066 2 0.149976 0.420609 0.673195
1067 4 0.164176 0.438548 0.683281
940 2 0.159163 0.45567 0.724207
941 4 0.153852 0.467384 0.745649
942 4 0.164474 0.443957 0.702765
1139 4 0.317704 0.423715 0.692999
1206 4 0.324189 0.417864 0.674614
1138 2 0.30697 0.433872 0.713168
1140 4 0.296236 0.44403 0.733337
1089 4 0.295202 0.448876 0.753264
1087 2 0.280747 0.469137 0.750867
3182 4 0.490776 0.436995 0.702468
1251 4 0.487349 0.502649 0.732493
2047 2 0.0734555 0.023043 0.74814
1295 4 0.0538017 0.0257263 0.7848
1294 2 0.0676882 0.0352826 0.803267
2049 4 0.0634235 0.0344887 0.767977
1296 4 0.0815747 0.0448389 0.821734
1286 4 0.0946525 0.0559646 0.83085
1285 2 0.105636 0.0754927 0.819751
1202 4 0.17992 0.0876027 0.808315
1049 4 0.309206 0.0626175 0.75426
1050 4 0.317514 0.0650795 0.80351
1048 2 0.31336 0.0638485 0.778885
966 4 0.334187 0.0569468 0.813261
2441 4 0.483127 0.00843207 0.83442
845 4 0.498984 0.0539705 0.748548
1107 4 0.0962075 0.131147 0.757302
34 3 0.102933 0.113698 0.763007
1201 2 0.15662 0.0961027 0.80515
1203 4 0.133319 0.104603 0.801985
1287 4 0.11662 0.0950209 0.808652
32 3 0.129508 0.119661 0.788908
31 1 0.10693 0.116687 0.785668
35 3 0.100042 0.0983333 0.797259
33 3 0.0957146 0.135523 0.793272
1227 4 0.229138 0.148433 0.786274
1149 4 0.243498 0.141493 0.775349
1225 2 0.205377 0.155267 0.782548
1226 4 0.181616 0.162101 0.778822
1147 2 0.259691 0.133778 0.792768
1148 4 0.275885 0.126063 0.810187
840 4 0.285928 0.141166 0.80205
838 2 0.310685 0.142416 0.805325