ITEM: TIMESTEP
5660000
ITEM: NUMBER OF ATOMS
4590
ITEM: BOX BOUNDS pp pp pp
-9.9985700000000008e+00 9.9985700000000008e+00
-9.9985700000000008e+00 9.9985700000000008e+00
-9.9985700000000008e+00 9.9985700000000008e+00
ITEM: ATOMS id type xs ys zs
566 4 0.0778858 0.0191641 0.0500911
565 2 0.0659625 0.0266856 0.0294407
567 4 0.0540391 0.0342072 0.00879034
3908 4 0.0883138 0.00142943 0.0484058
484 2 0.132257 0.0129183 0.0396975
486 4 0.133586 0.0336887 0.025841
702 4 0.149421 0.0432295 0.0331938
700 2 0.161078 0.0639384 0.0409686
1748 4 0.350206 0.0794482 0.0659767
743 4 0.368258 0.0736078 0.0697912
1747 2 0.338247 0.0575431 0.0644476
2468 4 0.49341 0.0139732 0.00807171
2467 2 0.484818 0.0112384 0.0313929
2469 4 0.476226 0.0085037 0.0547142
1668 4 0.0072739 0.0997921 0.0359476
554 4 0.103316 0.0915916 0.023042
701 4 0.172734 0.0846472 0.0487433
357 4 0.224184 0.0807073 0.0528935
355 2 0.246411 0.0840605 0.0419422
1842 4 0.173008 0.105131 0.0457176
1840 2 0.181072 0.124229 0.0596963
1841 4 0.189135 0.143328 0.0736751
356 4 0.268637 0.0874136 0.0309909
758 4 0.281146 0.0957528 0.0438541
757 2 0.294822 0.108093 0.0607617
1253 4 0.330206 0.111628 0.982887
2976 4 0.417655 0.120725 0.0323735
2440 2 0.422109 0.0786273 0.0151604
255 4 0.430969 0.103567 0.0648503
2441 4 0.423653 0.100615 0.0269641
2974 2 0.436388 0.136741 0.0365896
2975 4 0.45512 0.152757 0.0408057
2894 4 0.474019 0.146125 0.0338407
2893 2 0.491155 0.128378 0.0379134
24 3 0.461899 0.166337 0.0543913
21 1 0.473172 0.163789 0.0745121
23 3 0.495537 0.159071 0.0705197
703 2 0.048416 0.227313 0.0367146
704 4 0.065169 0.237748 0.0520651
705 4 0.031663 0.216879 0.0213641
2967 4 0.01586 0.216529 0.00757173
462 4 0.0800424 0.249132 0.0561595
460 2 0.103951 0.256331 0.0548397
461 4 0.127859 0.26353 0.0535198
913 2 0.202848 0.233222 0.0740202
915 4 0.207294 0.211361 0.085312
449 4 0.210762 0.192324 0.0876288
353 4 0.292662 0.206429 0.0447701
352 2 0.299131 0.22954 0.051785
572 4 0.359815 0.175782 0.982647
359 4 0.359233 0.22144 0.0237607
282 4 0.36068 0.208886 0.0381583
280 2 0.36026 0.223111 0.0587167
358 2 0.355416 0.208321 0.00282002
360 4 0.351598 0.195203 0.981879
25 3 0.471335 0.182805 0.0869093
293 4 0.143005 0.25623 0.0637371
524 4 0.098898 0.312619 0.078083
288 4 0.0928831 0.326354 0.0652458
286 2 0.0896295 0.330023 0.0407278
287 4 0.0863759 0.333692 0.0162098
914 4 0.198403 0.255083 0.0627284
901 2 0.224979 0.311228 0.0835003
902 4 0.24545 0.296982 0.081725
903 4 0.204507 0.325475 0.0852756
354 4 0.3056 0.252651 0.0588
297 4 0.295869 0.268242 0.0542578
295 2 0.274439 0.280029 0.0594557
296 4 0.253009 0.291816 0.0646536
2841 4 0.42737 0.281786 0.045997
309 4 0.440124 0.292696 0.056978
307 2 0.461512 0.305647 0.05693
2839 2 0.427723 0.27678 0.0215023
308 4 0.4829 0.318598 0.0568821
2807 4 0.0440941 0.392588 0.00235543
968 4 0.0510552 0.376126 0.993075
967 2 0.0702711 0.360557 0.996752
2514 4 0.221789 0.384222 0.0648503
2445 4 0.231268 0.398697 0.0547376
2512 2 0.21028 0.362522 0.0695252
2513 4 0.198772 0.340822 0.0742002
1070 4 0.291268 0.406239 0.0747896
1069 2 0.275268 0.387046 0.0756795
1071 4 0.259268 0.367852 0.0765694
607 2 0.367639 0.382355 0.0442419
608 4 0.374658 0.406087 0.0406792
609 4 0.360621 0.358623 0.0478046
3339 4 0.0388359 0.447944 0.0900455
3337 2 0.0390544 0.467675 0.0746887
3338 4 0.039273 0.487406 0.0593318
766 2 0.161157 0.484658 0.0841543
2443 2 0.222551 0.421031 0.0476396
2444 4 0.213833 0.443365 0.0405416
2377 2 0.22429 0.475141 0.0321875
2379 4 0.226502 0.498791 0.0399961
2378 4 0.222078 0.451492 0.0243789
1080 4 0.216263 0.41838 0.0150604
2387 4 0.306392 0.483401 0.0135196
1551 4 0.368572 0.422456 0.0307901
1549 2 0.361843 0.429667 0.00781418
323 4 0.491227 0.432484 0.0721851
322 2 0.491601 0.447392 0.0521158
324 4 0.491975 0.462301 0.0320464
2804 4 0.504408 0.476723 0.0241443
380 4 0.00759907 0.0558122 0.109705
1749 4 0.326289 0.0356379 0.0629186
2180 4 0.33078 0.0335609 0.0833337
2179 2 0.319628 0.0191143 0.100425
557 4 0.374446 0.0440844 0.109152
556 2 0.397204 0.0344518 0.105347
742 2 0.388409 0.082611 0.0815413
654 4 0.434653 0.0130642 0.107562
578 4 0.118274 0.0914264 0.113702
577 2 0.112379 0.107187 0.132197
579 4 0.106485 0.122947 0.150691
236 4 0.0925205 0.13646 0.144533
450 4 0.203677 0.149835 0.0622278
722 4 0.304046 0.112907 0.0940944
759 4 0.308498 0.120433 0.0776693
721 2 0.325961 0.115094 0.105933
744 4 0.40856 0.0916142 0.0932914
1505 4 0.405545 0.10551 0.108492
1504 2 0.412112 0.108576 0.132422
723 4 0.347875 0.117281 0.117771
693 4 0.360617 0.13024 0.125996
691 2 0.374549 0.15044 0.121195
1506 4 0.418679 0.111641 0.156352
254 4 0.472912 0.0799312 0.0783729
253 2 0.45194 0.0917492 0.0716116
2601 4 0.484303 0.139247 0.135443
2599 2 0.478972 0.115298 0.130627
2600 4 0.47364 0.0913493 0.12581
378 4 0.496458 0.149394 0.148816
22 3 0.463826 0.146255 0.0861037
623 4 0.0566504 0.196454 0.101852
622 2 0.0784834 0.205066 0.110473
624 4 0.100317 0.213677 0.119095
506 4 0.116514 0.212724 0.130323
505 2 0.122343 0.191408 0.142021
448 2 0.207219 0.17108 0.0749283
692 4 0.38848 0.17064 0.116394
2876 4 0.347812 0.248444 0.0923049
281 4 0.359841 0.237336 0.0792751
376 2 0.483894 0.168867 0.158204
836 4 0.0228526 0.268257 0.13609
835 2 0.00353419 0.257978 0.148186
523 2 0.107122 0.317474 0.101191
525 4 0.115347 0.322329 0.124299
102 3 0.134204 0.318205 0.131409
294 4 0.159097 0.271816 0.108445
292 2 0.151051 0.264023 0.0860912
101 1 0.153223 0.305294 0.132279
104 3 0.150265 0.286662 0.11877
103 3 0.156798 0.298676 0.154229
105 3 0.170942 0.317531 0.124868
2875 2 0.341291 0.258362 0.114312
2877 4 0.33477 0.26828 0.136318
519 4 0.334353 0.288441 0.135781
517 2 0.343677 0.309248 0.146044
2651 4 0.455452 0.337206 0.110146
527 4 0.44329 0.320195 0.108508
526 2 0.426792 0.329817 0.124645
2539 2 0.00442489 0.411365 0.104938
3449 4 0.0808144 0.411578 0.120913
2540 4 0.998691 0.400936 0.126927
2797 2 0.0202081 0.325653 0.160588
363 4 0.147819 0.388718 0.156459
416 4 0.157657 0.399045 0.142225
415 2 0.162402 0.386907 0.120886
417 4 0.167146 0.374769 0.0995479
1121 4 0.273081 0.343009 0.136275
1122 4 0.252973 0.362243 0.0947243
1120 2 0.263027 0.352626 0.1155
1863 4 0.292765 0.419034 0.0891234
528 4 0.410293 0.339438 0.140782
2650 2 0.478451 0.346913 0.108735
2652 4 0.501451 0.356619 0.107325
1466 4 0.00700198 0.434673 0.0685017
3448 2 0.0694862 0.427586 0.105403
3450 4 0.058158 0.443595 0.0898926
2770 2 0.0368965 0.502611 0.120939
314 4 0.0280347 0.47072 0.137802
2771 4 0.0259225 0.490285 0.139722
313 2 0.0247296 0.44775 0.147108
315 4 0.0214246 0.424779 0.156414
2094 4 0.0920012 0.484347 0.128974
2092 2 0.11456 0.474761 0.124036
728 4 0.143831 0.462916 0.139569
2093 4 0.137119 0.465175 0.119098
727 2 0.155314 0.464348 0.161734
767 4 0.180413 0.470235 0.0909644
638 4 0.194663 0.47856 0.103665
637 2 0.211959 0.495925 0.108614
729 4 0.166797 0.46578 0.183898
1861 2 0.299487 0.427252 0.111761
1862 4 0.30621 0.43547 0.134398
1787 4 0.292471 0.443271 0.148041
514 2 0.281744 0.0114755 0.232354
515 4 0.299443 0.0186015 0.248515
516 4 0.264046 0.00434948 0.216193
1448 4 0.407452 0.998787 0.216403
1447 2 0.424493 0.0123517 0.228683
699 4 0.469786 0.072632 0.188933
697 2 0.486844 0.0737159 0.207182
237 4 0.0755517 0.144838 0.190821
235 2 0.0840361 0.140649 0.167677
604 2 0.243671 0.153868 0.207537
546 4 0.228734 0.12727 0.235637
606 4 0.229294 0.169138 0.193924
605 4 0.258048 0.138598 0.22115
29 3 0.270135 0.131012 0.206708
26 1 0.277932 0.114935 0.221512
27 3 0.280743 0.095121 0.21017
28 3 0.298373 0.121511 0.230304
30 3 0.262865 0.111886 0.238316
333 4 0.40211 0.139748 0.246657
331 2 0.418162 0.149955 0.230429
2516 4 0.39593 0.123924 0.258125
2574 4 0.422768 0.118181 0.174146
2572 2 0.442458 0.104803 0.181797
2573 4 0.462147 0.0914252 0.189449
2693 4 0.980494 0.171799 0.244779
477 4 0.037066 0.224851 0.236347
475 2 0.0435988 0.245575 0.223978
507 4 0.128171 0.170092 0.15372
458 4 0.154231 0.192665 0.254776
457 2 0.140966 0.211952 0.24599
580 2 0.184581 0.232272 0.218129
731 4 0.236521 0.183205 0.180302
732 4 0.196232 0.212591 0.184039
581 4 0.192657 0.228732 0.194732
730 2 0.216377 0.197898 0.182171
250 2 0.288208 0.230199 0.226339
252 4 0.265 0.228319 0.235452
251 4 0.311416 0.232079 0.217226
332 4 0.434213 0.160162 0.214201
377 4 0.47133 0.188339 0.167593
629 4 0.45803 0.201307 0.175712
630 4 0.443603 0.176415 0.216614
628 2 0.450817 0.188861 0.196163
476 4 0.0501316 0.2663 0.211609
755 4 0.0369302 0.278069 0.219508
754 2 0.0217674 0.297693 0.216323
756 4 0.00660465 0.317318 0.213137
395 4 0.00887183 0.328682 0.229581
279 4 0.173887 0.295201 0.162412
750 4 0.171865 0.247202 0.255487
582 4 0.176505 0.235812 0.241526
277 2 0.192808 0.288985 0.17753
278 4 0.211729 0.282769 0.192647
349 2 0.32647 0.269321 0.235107
350 4 0.313576 0.249793 0.226299
518 4 0.353001 0.330055 0.156306
2538 4 0.369467 0.32736 0.167554
386 4 0.400698 0.308108 0.244338
351 4 0.339365 0.288848 0.243914
276 4 0.417745 0.31504 0.235811
274 2 0.43732 0.317237 0.220411
275 4 0.456895 0.319434 0.20501
681 4 0.00455435 0.419035 0.165447
2799 4 0.0451179 0.323516 0.160934
361 2 0.141357 0.368618 0.169853
362 4 0.134895 0.348518 0.183248
291 4 0.147106 0.347232 0.198825
3671 4 0.134348 0.373413 0.25682
289 2 0.162091 0.343692 0.218525
290 4 0.177076 0.340153 0.238225
735 4 0.19375 0.34934 0.236929
2536 2 0.371843 0.342494 0.187315
714 4 0.385804 0.373206 0.211353
2537 4 0.374219 0.357628 0.207076
712 2 0.402912 0.384955 0.225298
497 4 0.475103 0.32285 0.198596
587 4 0.481734 0.396711 0.217274
713 4 0.420021 0.396703 0.239242
2862 4 0.426246 0.380129 0.246134
2860 2 0.448985 0.37762 0.256225
679 2 0.000917598 0.416573 0.190062
3884 4 0.99702 0.429537 0.227598
263 4 0.073348 0.499067 0.252826
262 2 0.0979272 0.494911 0.254766
339 4 0.174363 0.463857 0.201341
337 2 0.178828 0.481698 0.21828
627 4 0.249664 0.487929 0.238928
338 4 0.183293 0.49954 0.235219
677 4 0.202451 0.491862 0.236341
1786 2 0.285955 0.455536 0.168832
625 2 0.26176 0.488095 0.217046
626 4 0.273856 0.488261 0.195164
1788 4 0.279439 0.467802 0.189624
303 4 0.351759 0.490773 0.18405
586 2 0.484239 0.419795 0.22655
3817 2 0.495422 0.48114 0.228228
3819 4 0.487062 0.458292 0.222465
513 4 0.0112102 0.0803519 0.275813
1272 4 0.0695443 0.0504178 0.274008
1270 2 0.0464078 0.0591852 0.270401
1271 4 0.0232712 0.0679527 0.266794
2849 4 0.0792088 0.0603392 0.259328
2850 4 0.119295 0.0328925 0.27118
2848 2 0.099252 0.0466159 0.265254
1869 4 0.115483 0.0186664 0.285552
1867 2 0.130363 0.00573388 0.30093
2910 4 0.317582 0.014979 0.252586
2908 2 0.327131 0.0262413 0.272764
2909 4 0.336679 0.0375036 0.292942
600 4 0.344787 0.0572948 0.290252
598 2 0.360623 0.0683029 0.306165
599 4 0.376458 0.079311 0.322079
1517 4 0.387043 0.0647757 0.32914
1449 4 0.441534 0.0259161 0.240963
432 4 0.446092 0.0220534 0.259025
431 4 0.451845 0.0137916 0.308009
430 2 0.448969 0.0179225 0.283517
2483 4 0.0468855 0.123105 0.324032
471 4 0.148404 0.102086 0.329059
544 2 0.229389 0.135221 0.259334
531 4 0.226232 0.137921 0.302116
545 4 0.230045 0.143171 0.283031
529 2 0.21765 0.142379 0.325174
469 2 0.168208 0.0909388 0.339484
2657 4 0.283881 0.151944 0.28932
2656 2 0.285522 0.136291 0.308748
2515 2 0.402343 0.131794 0.280975
2517 4 0.408755 0.139664 0.303825
2879 4 0.483592 0.115406 0.324077
631 2 0.475361 0.118633 0.279357
633 4 0.476074 0.11431 0.303974
632 4 0.474649 0.122955 0.25474
1221 4 0.0337841 0.227913 0.255417
1219 2 0.0323436 0.211047 0.273819
1220 4 0.0309031 0.194181 0.292221
300 4 0.0208458 0.200726 0.308786
459 4 0.1277 0.23124 0.237204
618 4 0.155689 0.253005 0.329053
390 4 0.232749 0.238359 0.311494
284 4 0.247048 0.239746 0.297717
283 2 0.258146 0.23344 0.276217
285 4 0.269244 0.227134 0.254717
510 4 0.35819 0.217548 0.321918
765 4 0.364685 0.220967 0.303506
763 2 0.368321 0.233579 0.282225
508 2 0.348491 0.235921 0.33583
3572 4 0.0276731 0.269312 0.293018
3571 2 0.00384397 0.264091 0.287532
2654 4 0.109375 0.298417 0.31456
2653 2 0.11516 0.309391 0.292851
617 4 0.126974 0.293571 0.323528
616 2 0.141332 0.273288 0.32629
2655 4 0.120946 0.320365 0.271142
388 2 0.231803 0.256356 0.328826
749 4 0.19098 0.289048 0.27509
748 2 0.181423 0.268125 0.265289
364 2 0.244897 0.301415 0.268796
366 4 0.232863 0.321409 0.259818
734 4 0.216191 0.320138 0.270758
365 4 0.256932 0.281422 0.277774
344 4 0.274372 0.275295 0.267126
345 4 0.313467 0.280908 0.297797
343 2 0.29392 0.278102 0.282461
612 4 0.327867 0.294949 0.299988
610 2 0.348249 0.308095 0.29391
764 4 0.371958 0.246191 0.260944
385 2 0.410883 0.301568 0.266217
611 4 0.368631 0.32124 0.287832
387 4 0.421068 0.295028 0.288095
3670 2 0.142708 0.396936 0.258228
669 4 0.129604 0.38164 0.300725
3672 4 0.151068 0.420458 0.259637
667 2 0.128904 0.370752 0.323223
733 2 0.204971 0.334739 0.253844
1575 4 0.363606 0.334255 0.273155
1573 2 0.366678 0.357401 0.2821
1574 4 0.36975 0.380547 0.291044
1802 4 0.358774 0.39513 0.283485
2861 4 0.471724 0.375111 0.266317
3990 4 0.467484 0.391021 0.2791
3988 2 0.474202 0.409035 0.295086
1385 4 0.0257306 0.482664 0.29704
1384 2 0.0398957 0.488488 0.277276
1386 4 0.0540607 0.494312 0.257513
1383 4 0.145691 0.435172 0.273778
1450 2 0.0822243 0.504599 0.314863
1382 4 0.117603 0.471468 0.253919
264 4 0.122506 0.490754 0.256705
1381 2 0.131647 0.45332 0.263848
1451 4 0.0903156 0.481865 0.321411
676 2 0.221163 0.494207 0.252758
246 4 0.197874 0.439736 0.2915
244 2 0.219777 0.450787 0.296328
245 4 0.24168 0.461838 0.301156
644 4 0.256947 0.474436 0.299327
643 2 0.276092 0.485081 0.28727
541 2 0.327778 0.430086 0.314159
645 4 0.295236 0.495725 0.275212
1803 4 0.376739 0.432535 0.255577
542 4 0.335678 0.43277 0.290589
1801 2 0.367757 0.413832 0.269531
751 2 0.351102 0.478865 0.318281
752 4 0.358673 0.497076 0.302912
588 4 0.486744 0.442878 0.235827
3694 2 0.432012 0.483975 0.255454
3696 4 0.436359 0.481878 0.279988
3603 4 0.446908 0.484004 0.296566
3601 2 0.461921 0.464226 0.299499
3602 4 0.476934 0.444447 0.302432
3989 4 0.48092 0.427049 0.311072
479 4 0.208167 0.0754073 0.347846
470 4 0.188013 0.0797911 0.34991
478 2 0.220981 0.0539858 0.349291
480 4 0.233796 0.0325644 0.350736
2643 4 0.279475 0.0472627 0.399502
2641 2 0.26571 0.0422442 0.37924
2642 4 0.251946 0.0372258 0.358979
1516 2 0.399707 0.0514261 0.346069
1060 2 0.403201 0.00906512 0.384084
1062 4 0.401439 0.0213711 0.36239
1518 4 0.412371 0.0380765 0.362998
760 2 0.459334 0.0586645 0.415818
2482 2 0.0435829 0.142128 0.339919
2484 4 0.0402803 0.16115 0.355807
2238 4 0.0492349 0.160587 0.399616
707 4 0.135224 0.113998 0.32102
706 2 0.115135 0.0993282 0.323553
708 4 0.0950466 0.0846582 0.326085
530 4 0.209067 0.146837 0.348231
371 4 0.208561 0.163122 0.414902
649 2 0.200391 0.163034 0.372807
651 4 0.191953 0.156976 0.350063
2658 4 0.287163 0.120637 0.328176
1031 4 0.307571 0.120718 0.373225
1030 2 0.323573 0.135878 0.385026
3174 4 0.389836 0.111738 0.414801
3172 2 0.407647 0.0941895 0.414692
1032 4 0.339575 0.151039 0.396828
3173 4 0.425458 0.0766413 0.414584
2878 2 0.479386 0.121658 0.347918
2880 4 0.47518 0.12791 0.37176
761 4 0.445253 0.0763716 0.405171
341 4 0.0472122 0.175438 0.385934
340 2 0.0677671 0.189422 0.383268
342 4 0.0883219 0.203407 0.380602
402 4 0.106803 0.207952 0.382997
400 2 0.123616 0.211571 0.401147
650 4 0.208828 0.169093 0.395551
710 4 0.046968 0.279713 0.372171
709 2 0.0681195 0.283637 0.359427
536 4 0.0355405 0.291919 0.361263
535 2 0.0172433 0.305825 0.351413
711 4 0.0892709 0.287561 0.346684
636 4 0.0963872 0.301395 0.359573
634 2 0.106354 0.324293 0.358336
389 4 0.230858 0.274354 0.346157
873 4 0.302208 0.329312 0.403203
871 2 0.278968 0.328587 0.412398
509 4 0.338792 0.254294 0.349742
717 4 0.34409 0.26087 0.365748
715 2 0.361819 0.273492 0.378059
716 4 0.379548 0.286114 0.39037
488 4 0.365496 0.299848 0.399559
487 2 0.369622 0.322607 0.409055
2139 4 0.0281635 0.432113 0.4233
635 4 0.11632 0.347191 0.3571
668 4 0.128204 0.359865 0.345721
2924 4 0.321039 0.338036 0.400573
435 4 0.258853 0.404594 0.398145
375 4 0.267151 0.397749 0.381109
374 4 0.255414 0.355932 0.356324
2923 2 0.324258 0.36283 0.400391
373 2 0.261283 0.37684 0.368716
433 2 0.266399 0.424783 0.410819
583 2 0.324564 0.410225 0.369968
585 4 0.315199 0.402363 0.391778
584 4 0.33393 0.418087 0.348158
2925 4 0.327478 0.387625 0.400209
489 4 0.373749 0.345366 0.418552
1953 4 0.428672 0.385058 0.429458
2138 4 0.061352 0.449696 0.390284
569 4 0.0539134 0.456411 0.372966
568 2 0.0662185 0.462822 0.352166
2137 2 0.0447577 0.440905 0.406792
570 4 0.0785237 0.469232 0.331365
543 4 0.319879 0.427401 0.33773
753 4 0.343531 0.460654 0.333651
1483 2 0.494955 0.447443 0.404317
445 2 0.458631 0.482764 0.377128
446 4 0.460848 0.459246 0.385325
1484 4 0.474655 0.446336 0.389762
164 3 0.0166382 0.0803731 0.455578
1034 4 0.0131666 0.0579781 0.415714
162 3 0.00585281 0.0755895 0.419893
161 1 0.0227273 0.0834584 0.433402
2551 2 0.492427 0.0208557 0.449871
762 4 0.473415 0.0409574 0.426466
2552 4 0.470184 0.0277038 0.440733
2236 2 0.0449969 0.141209 0.414837
2237 4 0.0407589 0.121831 0.430059
163 3 0.0258514 0.106047 0.429114
165 3 0.0418824 0.0719793 0.428934
2612 4 0.020794 0.123768 0.441837
370 2 0.216163 0.142331 0.426526
473 4 0.226777 0.123899 0.45801
472 2 0.226532 0.12271 0.482984
372 4 0.223766 0.12154 0.43815
2901 4 0.383707 0.127175 0.40414
2899 2 0.389778 0.151048 0.408432
3159 4 0.360774 0.12492 0.433209
3157 2 0.352608 0.110504 0.451936
3158 4 0.344443 0.0960873 0.470662
823 2 0.118562 0.24089 0.447095
401 4 0.140429 0.215189 0.419297
824 4 0.13383 0.226916 0.433067
825 4 0.103293 0.254864 0.461123
1191 4 0.190755 0.185911 0.439236
1189 2 0.197843 0.208748 0.446546
1190 4 0.204931 0.231584 0.453855
1394 4 0.202536 0.234127 0.472874
1393 2 0.187082 0.23451 0.492527
2900 4 0.395849 0.17492 0.412723
641 4 0.361055 0.240828 0.47596
899 4 0.350839 0.223579 0.483109
312 4 0.405192 0.174705 0.430642
900 4 0.355387 0.178724 0.504743
898 2 0.353113 0.201152 0.493926
310 2 0.415785 0.195077 0.440539
311 4 0.426379 0.215449 0.450435
452 4 0.413978 0.228561 0.457572
3059 4 0.471391 0.230402 0.480145
260 4 0.0273068 0.308644 0.459014
259 2 0.0360088 0.29673 0.479201
2637 4 0.0303798 0.317178 0.439842
872 4 0.255728 0.327862 0.421594
640 2 0.352239 0.263395 0.469784
642 4 0.343422 0.285963 0.463608
321 4 0.359928 0.296906 0.463948
319 2 0.346668 0.317737 0.467873
451 2 0.417208 0.251979 0.465717
265 2 0.420067 0.311477 0.458243
266 4 0.42649 0.287312 0.458256
453 4 0.420438 0.275397 0.473862
2635 2 0.0150041 0.336046 0.445563
2636 4 0.999628 0.354915 0.451285
695 4 0.103222 0.401434 0.494503
694 2 0.106107 0.376878 0.490781
696 4 0.108991 0.352321 0.487059
813 4 0.257888 0.379094 0.463695
602 4 0.246001 0.378053 0.480256
811 2 0.253213 0.36192 0.446134
812 4 0.248538 0.344746 0.428573
119 3 0.410014 0.381787 0.436491
120 3 0.420929 0.346344 0.442995
116 1 0.403069 0.359737 0.438491
1171 2 0.343141 0.399707 0.476799
118 3 0.392769 0.352865 0.418867
889 2 0.398968 0.346169 0.493431
890 4 0.401311 0.348273 0.468627
117 3 0.387935 0.358244 0.45575
320 4 0.333407 0.338568 0.471798
1172 4 0.340059 0.380924 0.493013
267 4 0.413644 0.335641 0.45823
325 2 0.157829 0.489675 0.493251
1446 4 0.152957 0.453288 0.481947
1444 2 0.135729 0.443358 0.466788
1445 4 0.118501 0.433429 0.45163
326 4 0.145333 0.468169 0.490702
613 2 0.314094 0.435718 0.436415
434 4 0.273946 0.444972 0.423493
615 4 0.292765 0.445617 0.427914
2109 4 0.392316 0.481711 0.468979
1173 4 0.346222 0.418489 0.460585
2107 2 0.403944 0.464814 0.454681
1698 4 0.374125 0.483425 0.461093
1696 2 0.35065 0.490969 0.456949
614 4 0.335423 0.425819 0.444916
1951 2 0.42767 0.408732 0.437443
1952 4 0.426668 0.432405 0.445427
2108 4 0.415573 0.447917 0.440382
944 4 0.119964 0.0570224 0.539732
943 2 0.119548 0.0546165 0.514848
945 4 0.119131 0.0522105 0.489964
1182 4 0.201527 0.0221949 0.537161
1180 2 0.192794 0.0456219 0.536844
1181 4 0.184062 0.069049 0.536528
2315 4 0.219506 0.0145525 0.536236
2314 2 0.237947 0.00475839 0.522481
2240 4 0.294826 0.0479898 0.577557
2239 2 0.315297 0.0595297 0.569015
2241 4 0.335767 0.0710696 0.560473
576 4 0.442983 0.0210597 0.537076
574 2 0.441528 0.0460208 0.53712
575 4 0.440073 0.070982 0.537163
2507 4 0.455071 0.0836298 0.542241
1968 4 0.484737 0.9993 0.544026
9 3 0.0886061 0.122841 0.546152
6 1 0.106283 0.137834 0.545098
10 3 0.098432 0.158836 0.541107
8 3 0.121002 0.131558 0.528295
7 3 0.117434 0.13761 0.565217
917 4 0.134622 0.147266 0.562676
725 4 0.173829 0.0861508 0.532652
724 2 0.1918 0.102291 0.526195
726 4 0.209772 0.118431 0.519739
474 4 0.226286 0.121521 0.507958
1142 4 0.35511 0.11206 0.525692
2502 4 0.340332 0.122838 0.519041
1143 4 0.329366 0.0898147 0.56234
1141 2 0.342238 0.100937 0.544016
2500 2 0.342696 0.144619 0.506992
2506 2 0.473292 0.094313 0.52886
2508 4 0.491513 0.104996 0.515479
1263 4 0.503924 0.11567 0.528127
1261 2 0.507042 0.133481 0.545396
368 4 0.0949324 0.176342 0.549559
367 2 0.0980708 0.193915 0.532052
3462 4 0.112056 0.228179 0.515407
369 4 0.101209 0.211489 0.514545
3460 2 0.129897 0.244676 0.521298
409 2 0.190979 0.233772 0.55084
410 4 0.181278 0.240523 0.528806
1395 4 0.171629 0.234892 0.51218
411 4 0.20068 0.227021 0.572874
2501 4 0.34506 0.1664 0.494942
3058 2 0.494072 0.238973 0.48625
2847 4 0.0283682 0.265964 0.555484
2845 2 0.0386466 0.267429 0.532738
2846 4 0.048925 0.268893 0.509992
1639 2 0.025902 0.315663 0.555133
1641 4 0.00173668 0.309936 0.558033
261 4 0.0447107 0.284815 0.499387
3461 4 0.147738 0.261174 0.52719
3044 4 0.165387 0.267341 0.51913
443 4 0.119293 0.31748 0.546773
3043 2 0.175002 0.286275 0.532328
3045 4 0.184618 0.30521 0.545527
935 4 0.202229 0.296162 0.545593
934 2 0.218554 0.313284 0.553688
1640 4 0.0500674 0.32139 0.552233
1280 4 0.0632884 0.331544 0.560499
442 2 0.112027 0.329517 0.526097
444 4 0.10476 0.341553 0.505421
2244 4 0.114782 0.414735 0.505711
936 4 0.234878 0.330407 0.561782
772 2 0.237385 0.413656 0.563597
1205 4 0.253506 0.330531 0.568849
603 4 0.246771 0.385988 0.529624
774 4 0.243685 0.396119 0.546926
601 2 0.246386 0.38202 0.50494
1204 2 0.276033 0.332985 0.579418
1029 4 0.286946 0.364655 0.52322
1027 2 0.304705 0.377359 0.511038
891 4 0.396626 0.344064 0.518236
1239 4 0.403372 0.337746 0.536679
1028 4 0.322465 0.390062 0.498857
804 4 0.464476 0.339804 0.564785
1237 2 0.426659 0.334986 0.545355
1238 4 0.449946 0.332226 0.554031
802 2 0.48123 0.352856 0.577981
538 2 0.0621378 0.423418 0.562816
539 4 0.0759126 0.419864 0.542254
2243 4 0.080584 0.437677 0.534081
2242 2 0.0976831 0.426206 0.519896
2172 4 0.118112 0.520868 0.558914
773 4 0.231085 0.431194 0.580268
3182 4 0.371677 0.499574 0.586213
3324 4 0.388212 0.510319 0.581922
1154 4 0.139103 0.0522303 0.652916
1153 2 0.160325 0.0651818 0.65025
1283 4 0.119795 0.0480158 0.650986
1256 4 0.226103 0.0400969 0.608975
1255 2 0.211698 0.0544577 0.623516
1257 4 0.197293 0.0688186 0.638057
1155 4 0.181546 0.0781333 0.647585
959 4 0.243763 0.0495352 0.617633
963 4 0.29589 0.027674 0.576333
961 2 0.279535 0.00879359 0.577433
958 2 0.265993 0.0608228 0.619523
960 4 0.288224 0.0721105 0.621414
1130 4 0.361946 0.0715926 0.661783
1162 2 0.491182 0.0443586 0.583575
4467 4 0.499169 0.00170044 0.577322
1026 4 0.455361 0.0614608 0.654648
1164 4 0.483192 0.0679762 0.58546
916 2 0.142562 0.158163 0.583733
918 4 0.150501 0.16906 0.60479
1211 4 0.159255 0.165775 0.621474
857 4 0.311043 0.141499 0.597658
2318 4 0.305614 0.154827 0.611537
856 2 0.325249 0.130261 0.614893
1131 4 0.330375 0.100885 0.636368
1129 2 0.346161 0.0862389 0.649076
858 4 0.339455 0.119022 0.632129
1024 2 0.447777 0.0851628 0.652223
269 4 0.450836 0.125104 0.647163
1025 4 0.440193 0.108865 0.649797
268 2 0.462622 0.144339 0.636379
270 4 0.474407 0.163574 0.625595
348 4 0.158277 0.228488 0.624943
1210 2 0.159103 0.18226 0.640273
347 4 0.186733 0.235427 0.584412
346 2 0.172505 0.231958 0.604677
977 4 0.207765 0.239455 0.633001
1212 4 0.158951 0.198745 0.659072
951 4 0.215863 0.220884 0.638315
949 2 0.238012 0.210201 0.633793
2317 2 0.292751 0.174741 0.619484
2319 4 0.279889 0.194655 0.627431
950 4 0.260162 0.199518 0.629272
3386 4 0.000755752 0.275641 0.661343
1085 4 0.145318 0.315216 0.657202
1084 2 0.16364 0.298619 0.653457
897 4 0.139778 0.331214 0.66697
976 2 0.204164 0.26052 0.645981
1086 4 0.181963 0.282022 0.649713
978 4 0.200563 0.281585 0.658961
807 4 0.37725 0.343218 0.660694
1135 2 0.00671622 0.418693 0.582831
540 4 0.048363 0.426971 0.583379
1279 2 0.0658957 0.342814 0.582665
1137 4 0.0278349 0.431132 0.587777
3418 2 0.0539231 0.352633 0.643844
3420 4 0.059649 0.360655 0.620865
1281 4 0.0685031 0.354085 0.604832
895 2 0.132541 0.353941 0.659468
991 2 0.111785 0.399935 0.636663
992 4 0.0974953 0.403741 0.616501
993 4 0.126075 0.396128 0.656824
896 4 0.125304 0.376668 0.651966
1206 4 0.298559 0.335439 0.589988
1138 2 0.29484 0.35655 0.625961
1139 4 0.300384 0.33772 0.610472
84 3 0.328097 0.351624 0.661428
1140 4 0.289296 0.375379 0.64145
792 4 0.399967 0.350128 0.596855
790 2 0.38806 0.347237 0.618651
791 4 0.376153 0.344347 0.640446
85 3 0.351624 0.380737 0.65736
81 1 0.349973 0.358025 0.657086
83 3 0.356668 0.349848 0.636429
2212 2 0.371764 0.408871 0.657567
2214 4 0.365416 0.388621 0.670788
2434 2 0.252515 0.499623 0.621524
1454 4 0.327606 0.485068 0.598997
2436 4 0.265134 0.481157 0.610345
1455 4 0.282135 0.469439 0.612739
1453 2 0.30487 0.477253 0.605868
3183 4 0.39246 0.49397 0.63135
3181 2 0.382069 0.496772 0.608781
2213 4 0.378112 0.429121 0.644345
882 4 0.333212 0.504561 0.591501
3491 4 0.490006 0.487336 0.604205
3082 2 0.0328252 0.0203337 0.733217
3084 4 0.0561334 0.0272896 0.727427
3591 4 0.0573811 0.0465964 0.719532
3589 2 0.0677759 0.0638043 0.734399
3083 4 0.00951696 0.0133778 0.739007
1284 4 0.101056 0.0352413 0.695555
1282 2 0.110425 0.0416286 0.67327
3590 4 0.0781707 0.0810123 0.749265
964 2 0.33509 0.00450132 0.693085
1004 4 0.38019 0.066768 0.666713
966 4 0.358593 0.0128031 0.691127
1003 2 0.375221 0.0475145 0.681871
1005 4 0.370252 0.0282609 0.69703
954 4 0.45334 0.0525017 0.673186
953 4 0.438804 0.0147962 0.702643
952 2 0.446072 0.033649 0.687914
2255 4 0.265257 0.11823 0.679022
2254 2 0.241947 0.126461 0.68278
1022 4 0.204846 0.123188 0.696152
2256 4 0.218638 0.134691 0.686539
1021 2 0.198844 0.135228 0.717228
1023 4 0.192841 0.147268 0.738303
832 2 0.00403775 0.169 0.718745
154 3 0.0102397 0.200651 0.740431
834 4 0.0185426 0.187918 0.726287
1259 4 0.158743 0.191084 0.677225
1258 2 0.174637 0.208763 0.684973
1260 4 0.190531 0.226442 0.69272
1299 4 0.184164 0.242884 0.703307
3401 4 0.479982 0.221156 0.701824
3400 2 0.470433 0.203218 0.716392
3402 4 0.460884 0.18528 0.73096
1011 4 0.464032 0.169362 0.740245
3039 4 0.00726008 0.292246 0.670905
883 2 0.0792262 0.30262 0.727413
884 4 0.0591097 0.317267 0.72497
885 4 0.0993428 0.287973 0.729857
3037 2 0.0211387 0.312788 0.674157
1067 4 0.107092 0.275126 0.74246
1298 4 0.167665 0.276639 0.736308
1066 2 0.131353 0.280288 0.745608
1297 2 0.175914 0.259762 0.719808
805 2 0.390564 0.323664 0.66879
806 4 0.403878 0.30411 0.676887
3419 4 0.0481972 0.344611 0.666823
815 4 0.057379 0.336637 0.731412
3038 4 0.0350172 0.33333 0.677409
814 2 0.0491897 0.34381 0.753921
1098 4 0.153489 0.411777 0.726251
1096 2 0.171798 0.394749 0.726348
1097 4 0.190107 0.377721 0.726446
1278 4 0.193156 0.367395 0.710348
1276 2 0.217393 0.363046 0.706008
1277 4 0.24163 0.358697 0.701668
797 4 0.255558 0.371634 0.694706
798 4 0.290519 0.366021 0.659394
796 2 0.273038 0.368828 0.67705
1044 4 0.304905 0.364096 0.748474
82 3 0.36366 0.349237 0.673353
1016 4 0.37736 0.359486 0.719213
1017 4 0.361955 0.396207 0.688964
1015 2 0.369657 0.377847 0.704088
1019 4 0.392061 0.363098 0.734971
189 3 0.46259 0.324733 0.74061
941 4 0.147919 0.422969 0.709992
942 4 0.123902 0.437524 0.668615
2128 2 0.110843 0.477839 0.67017
2129 4 0.110825 0.452947 0.667809
940 2 0.135911 0.430247 0.689303
3053 4 0.459895 0.00960227 0.818208
4080 4 0.456051 0.0186653 0.79886
948 4 0.0760435 0.0865541 0.770196
946 2 0.073751 0.108666 0.78164
947 4 0.0714585 0.130779 0.793084
851 4 0.0843442 0.127191 0.809045
850 2 0.106097 0.13404 0.819297
852 4 0.12785 0.140888 0.829548
35 3 0.145058 0.145816 0.821028
31 1 0.153683 0.165416 0.82878
34 3 0.176846 0.16493 0.827496
3147 4 0.483857 0.121743 0.78744
1192 2 0.462572 0.147512 0.822742
1193 4 0.455525 0.142658 0.799248
1010 4 0.475756 0.134519 0.774145
1009 2 0.469894 0.151941 0.757195
155 3 0.0117034 0.187983 0.775857
2270 4 0.0414661 0.185404 0.829567
924 4 0.00886842 0.23816 0.75869
922 2 0.0280991 0.251494 0.767498
923 4 0.0473299 0.264827 0.776305
869 4 0.132564 0.180335 0.800321
33 3 0.14543 0.183171 0.816328
868 2 0.110336 0.184656 0.789718
870 4 0.0881079 0.188978 0.779115
1090 2 0.199724 0.234433 0.799625
1091 4 0.206574 0.218594 0.81772
52 3 0.227201 0.218097 0.821448
1092 4 0.192875 0.250271 0.781531
1093 2 0.278378 0.244161 0.827888
1094 4 0.292337 0.248187 0.807538
3347 4 0.301177 0.248718 0.789651
1095 4 0.264419 0.240136 0.848238
1068 4 0.155615 0.285451 0.748757
1209 4 0.143123 0.309236 0.80697
840 4 0.146508 0.296318 0.79172
838 2 0.161966 0.27667 0.792125
839 4 0.177425 0.257022 0.79253
3328 2 0.290693 0.301427 0.797133
3330 4 0.299414 0.300613 0.773713
3329 4 0.281973 0.302241 0.820552
1043 4 0.306942 0.318729 0.769413
1042 2 0.305924 0.341412 0.758943
801 4 0.276647 0.314997 0.835987
3346 2 0.324735 0.257094 0.789857
3348 4 0.348293 0.265471 0.790064
1051 2 0.3688 0.29336 0.818693
1052 4 0.359094 0.279787 0.800071
1053 4 0.378505 0.306932 0.837315
190 3 0.483519 0.327903 0.771748
188 3 0.449635 0.31162 0.773846
186 1 0.462269 0.328142 0.763559
816 4 0.0410003 0.350983 0.776431
4209 4 0.0591195 0.346979 0.78268
4207 2 0.0705285 0.345882 0.804902
4208 4 0.0819376 0.344784 0.827124
1207 2 0.151669 0.332644 0.809017
1064 4 0.210446 0.397271 0.791054
57 3 0.226024 0.385702 0.785781
58 3 0.25172 0.37071 0.808751
56 1 0.246864 0.376005 0.786688
59 3 0.246741 0.356737 0.77376
60 3 0.262317 0.390668 0.778634
989 4 0.261827 0.388043 0.81492
821 4 0.267988 0.397785 0.796516
820 2 0.281114 0.417979 0.7898
1018 2 0.395499 0.359605 0.75949