LAMMPS data file via write_data, version 4 Feb 2025, timestep = 10500000, units = lj

4000 atoms
4 atom types
3000 bonds
1 bond types
3500 angles
2 angle types

-10.515914 10.515914 xlo xhi
-10.515914 10.515914 ylo yhi
-10.515914 10.515914 zlo zhi
2.1316282072803006e-14 0 0 xy xz yz

Masses

1 1
2 1
3 0.1
4 0.1

Bond Coeffs # harmonic/omp

1 100 0.45

Angle Coeffs # harmonic/omp

1 100 180
2 100 109.471

Atoms # full

2236 448 1 0 -10.490278421369137 -10.112648292903868 -10.025448933169455 16 1 1
2238 448 3 0 -10.122617999138743 -10.32122674855253 -10.16696794360729 16 1 1
2926 642 4 0 -9.732021839878602 -10.34793781903072 -10.061291490626799 5 0 0
2239 448 3 0 -10.389508377641212 -9.802245045622401 -9.774556212796432 16 1 1
2924 642 2 0 -9.386704872229808 -10.314502046991757 -10.324788540881668 5 0 0
192 39 3 0 2.128750023523205 -9.704361954821099 -10.126389029184942 3 0 0
3988 996 4 0 1.9638789390651095 -9.873626423884712 -10.467702132341879 13 1 1
967 194 3 0 3.64065983917053 -9.894901803576024 -10.294273384638752 4 0 1
966 194 1 0 3.5123536118955876 -10.292710990078655 -10.468743799867733 4 0 1
2308 462 3 0 4.872972452319578 -9.649034546876885 -10.07945714648493 14 1 1
2237 448 3 0 10.314297838644636 -9.953275475926926 -10.379468631928878 15 1 1
2240 448 3 0 10.293627324269357 -10.397162984051668 -9.816375045135697 15 1 1
2665 555 4 0 -6.371259188216963 -9.208184069544815 -10.067013119345111 3 0 0
223 45 3 0 -6.465152401971216 -8.867977909541011 -10.238885780619361 3 0 0
2663 555 2 0 -6.326269777389814 -9.553347546838504 -9.726729383313288 3 0 0
3298 766 4 0 1.6000251273546002 -8.825643891365711 -10.29783687907263 13 1 0
195 39 3 0 1.6486432740933559 -9.1327168499353 -10.025259679393452 3 0 0
191 39 1 0 1.9303201631087727 -9.414844373356962 -9.810935191049523 3 0 0
2306 462 1 0 4.958421082663781 -9.526837841036947 -10.50414968974095 14 1 1
3093 698 4 0 5.606009784182264 -9.08182672603623 -10.363866761964285 3 0 1
260 52 3 0 5.8687317995165085 -9.476745796222788 -9.820258424103574 3 0 0
2993 665 2 0 6.917620260164538 -9.006699431098241 -10.316964673185769 3 0 1
2995 665 4 0 6.723376623742356 -9.03372456869605 -9.914945884987796 3 0 1
222 45 3 0 -6.733212976841541 -8.212334054938918 -10.386354913628596 3 0 0
221 45 1 0 -6.462569746537083 -8.455905304166231 -10.102618009208728 3 0 0
225 45 3 0 -6.612575574582037 -8.439017877068308 -9.692116346610032 3 0 0
224 45 3 0 -6.026822135857817 -8.281811767473844 -10.115065454104291 3 0 0
3297 766 4 0 0.6999668404847252 -8.652746896176666 -10.148315059563133 13 1 0
1077 216 3 0 0.3927895914423374 -8.38341870792588 -10.141464859668492 4 0 1
1079 216 3 0 0.029980706749825003 -7.913573416809805 -9.671133387478367 4 0 1
1076 216 1 0 0.24523464737371192 -8.31302742900031 -9.696485637044207 4 0 1
3296 766 2 0 1.1529351312292562 -8.741297833667822 -10.226794248936862 13 1 0
105 21 3 0 4.14439234858404 -7.973955469650647 -9.83316395747957 3 0 0
3092 698 2 0 5.716649687761814 -8.652079614254014 -10.197125765046412 3 0 1
998 200 3 0 5.548287855554586 -7.954291585269554 -10.088350891957306 3 0 1
3094 698 4 0 5.823335742253141 -8.253862103282717 -10.044908357079052 3 0 1
3159 720 4 0 -7.119719147880028 -7.526206308458953 -9.742207170162898 4 0 1
3158 720 2 0 -6.7007899520008785 -7.326562517110867 -9.841633411295359 4 0 1
3160 720 4 0 -6.306544722373604 -7.141255516216833 -9.92636439609048 4 0 1
997 200 3 0 4.879029473063078 -7.657554590033271 -10.034747651709026 3 0 1
996 200 1 0 5.268386236554402 -7.638835545456256 -10.252833513689952 3 0 1
1000 200 3 0 5.4538526328542005 -7.23692447538384 -10.209559129698523 3 0 1
3187 729 4 0 5.796290876521107 -7.1327998300400495 -9.968234039639853 3 0 1
4 1 3 0 -7.7008278548298374 -6.761171877643876 -9.751280622780497 4 0 0
945 189 3 0 -6.053011983664343 -6.911625875921407 -9.692033764310752 4 0 1
1246 250 1 0 -3.4447821320037644 -6.236137861253343 -9.68746954219593 5 0 1
1250 250 3 0 -3.1126362886054073 -6.461182097612631 -9.895720424077732 5 0 1
3418 806 4 0 -2.7269160495099145 -6.396086009618966 -9.887277760227626 6 0 0
3416 806 2 0 -2.2489951316847936 -6.309805499396375 -9.891128606519802 6 0 0
3417 806 4 0 -1.7788469888112424 -6.222114089066311 -9.904321522152333 6 0 0
1472 295 3 0 -1.3993917792031247 -6.21973242519596 -10.042601970406032 6 0 0
1471 295 1 0 -1.0576879474340917 -6.276377401626736 -10.349536267495226 6 0 0
1474 295 3 0 -1.0070673848386829 -6.7377359870343625 -10.440069018434643 6 0 0
3185 729 2 0 6.150500839563255 -6.952797509826232 -10.200712621415224 3 0 1
3186 729 4 0 6.507317982397561 -6.7720006444480205 -10.435340781716494 3 0 1
1247 250 3 0 -3.642384117902706 -5.940756562778814 -9.976784995900795 5 0 1
3214 738 4 0 -3.7997189588178335 -5.8642334331963095 -10.34843288758155 5 0 1
1473 295 3 0 -0.6634733994858895 -6.1059523870878 -10.18124569503477 6 0 0
3985 995 4 0 -0.26383882926773516 -6.082000650442677 -10.12296434328689 6 0 1
3983 995 2 0 0.1990477030964719 -5.966505129005383 -10.10374779629313 6 0 1
3984 995 4 0 0.64324143028756 -5.862964793125338 -10.081865721145686 6 0 1
1267 254 3 0 0.8820815792856038 -5.6521249462123775 -9.829898990074545 6 0 0
1270 254 3 0 1.6655852210999402 -5.565908349588774 -9.780684417868526 6 0 0
1266 254 1 0 1.2673103193820676 -5.38294282044064 -9.655181891573495 6 0 0
2658 553 4 0 1.983341907967299 -5.672034732703661 -9.959598635744042 5 0 0
2657 553 2 0 2.4323547137820487 -5.611939359259154 -9.951402982117134 5 0 0
2659 553 4 0 2.9034129109865585 -5.545171064660614 -9.94757813399856 5 0 0
1012 203 3 0 3.2420152845182546 -5.47028842384495 -9.74402948321391 5 0 1
1013 203 3 0 3.990048886059368 -5.432264921932222 -9.785913249652294 5 0 1
2653 551 4 0 4.320304568570826 -5.437980751559885 -10.067987173045145 5 0 0
2651 551 2 0 4.7719731857675765 -5.281282322720261 -9.997248981346965 5 0 0
67 14 3 0 9.034435910551329 -5.290400978760794 -10.434489759184475 6 0 0
69 14 3 0 8.88324782809942 -6.0202668158392445 -10.442229253859793 6 0 0
1268 254 3 0 1.2404231821912788 -4.966269131985009 -9.825553520171209 6 0 0
1011 203 1 0 3.6104448951104384 -5.190128949892682 -9.713732467115175 5 0 1
1014 203 3 0 3.5782085533278405 -4.876027327946451 -10.023812020258852 5 0 1
2652 551 4 0 5.208865680929831 -5.137742704998873 -9.91624093335488 5 0 0
1230 246 3 0 5.571730247135969 -5.085130357680634 -9.756735872600126 7 0 1
1226 246 1 0 5.9528134487925595 -4.903556865362553 -9.956129034871614 7 0 1
1228 246 3 0 6.005212732041654 -4.481804210929289 -9.824764133397576 7 0 1
1229 246 3 0 5.917308111511426 -4.925873032062716 -10.383393612776091 7 0 1
1227 246 3 0 6.316901820449845 -5.152417980335566 -9.831695875446815 7 0 1
3031 677 4 0 6.706298072162381 -5.094147598426487 -9.672332043399157 7 0 1
3029 677 2 0 7.116851652004867 -5.159461786631669 -9.898897805014165 7 0 1
3030 677 4 0 7.512777330533927 -5.219936647847891 -10.108319600046636 7 0 1
404 81 3 0 8.618879473793323 -5.2057677164878715 -10.141375229705915 5 0 0
402 81 3 0 7.901582329491619 -5.105508804799089 -10.024751674906618 5 0 0
401 81 1 0 8.28558282164279 -4.896110653933159 -10.119889403272644 5 0 0
403 81 3 0 8.370597855228075 -4.62659381044268 -9.81870951864328 5 0 0
2518 506 4 0 9.303739345632758 -4.994723698633225 -10.38024660093561 7 0 0
2516 506 2 0 9.55769570508234 -4.772682581403724 -10.064313538288049 7 0 0
2517 506 4 0 9.817405855096423 -4.540629116479584 -9.75277936795698 7 0 0
2602 534 4 0 6.354651887713365 -4.317660508631825 -9.928712044420458 7 0 0
2600 534 2 0 6.7324684256561 -4.107162835269787 -9.794892004400891 7 0 0
2601 534 4 0 7.126937995352263 -3.879656663747067 -9.640017766193049 7 0 0
1442 289 3 0 -8.112583471766285 -3.4085304196797583 -9.992037025683755 9 0 0
164 33 3 0 3.563491222401362 -2.6696957807498034 -10.379228066199124 7 0 0
162 33 3 0 4.250685953057291 -2.7353581115749686 -10.117265034545053 7 0 0
71 15 1 0 5.205502493314892 -2.8919991748137406 -10.365354130920597 -2 -1 0
72 15 3 0 5.051291367904099 -3.2234255549712314 -10.11566663012566 -2 -1 0
75 15 3 0 5.519646777616471 -2.688794969745201 -10.143861872814119 -2 -1 0
248 50 3 0 -9.80986432372752 -2.0128571497732235 -9.786805282529205 9 0 0
2640 547 4 0 -9.837266676079102 -2.1463799027572446 -10.153978368470856 9 0 0
161 33 1 0 3.9726680371331184 -2.4757896244764392 -10.352999567647602 7 0 0
165 33 3 0 3.9289761821505778 -2.092142827728603 -10.161099468529098 7 0 0
2980 660 4 0 4.235436522080912 -1.8671354119032806 -10.038232117485359 8 0 1
74 15 3 0 4.863272721383339 -2.6140563992147197 -10.463383880659693 -2 -1 0
3001 667 4 0 5.8443332362417895 -2.4244855755296744 -10.190031068578199 9 0 1
2999 667 2 0 6.255797563861838 -2.3470243778156483 -9.992283805294067 9 0 1
2318 464 3 0 7.00053290061634 -2.056729620317631 -9.78195357533995 9 0 1
3000 667 4 0 6.674962996408761 -2.2752750775483133 -9.799705540450331 9 0 1
9 2 3 0 -4.05169411355614 -1.5540881054756142 -9.884686925028719 6 0 0
6 2 1 0 -3.920086015809768 -1.1723768764238311 -10.00414620674164 6 0 0
10 2 3 0 -4.073916213317162 -1.0831852384553908 -10.38618872961063 6 0 0
8 2 3 0 -3.4414818866935812 -1.1603873563251028 -10.01334443935342 6 0 0
3312 771 4 0 -1.1144551269421115 -1.5542610518029143 -10.294906737485194 9 0 0
3311 771 2 0 -1.2856173683529946 -1.559311318805726 -9.870558367877322 9 0 0
2113 423 3 0 3.7760087104266873 -1.0291595265115028 -10.10076287696027 8 0 1
2978 660 2 0 4.541458982701457 -1.7099973353189952 -9.768135069988585 8 0 1
2316 464 1 0 7.176181159943026 -1.6731515521140121 -9.705732065486385 9 0 1
2320 464 3 0 7.189996743175941 -1.4312672270902969 -10.086530270612572 9 0 1
3265 755 4 0 7.15626519453801 -1.1690415152470166 -10.381464620716262 8 0 0
2609 537 2 0 -9.77121887290014 -0.38621010373431197 -10.025697216969903 9 0 0
2050 410 3 0 -10.452413129217039 -0.24611671483333097 -9.654678245089448 11 0 0
2611 537 4 0 -10.045838086824114 -0.2502237671200831 -9.692266129242544 9 0 0
2610 537 4 0 -9.463530619316993 -0.5281337474212364 -10.4023384436307 9 0 0
40 8 3 0 -9.121069868172649 -0.7762852099290303 -10.392816004865965 9 0 0
7 2 3 0 -4.07516227213097 -0.8633434714387995 -9.683916210231478 6 0 0
3343 781 4 0 2.411277251232093 -0.16122548924033708 -10.464954100418248 9 0 0
3341 781 2 0 2.7342737102666472 -0.15148186634405825 -10.13000982390363 9 0 0
3342 781 4 0 3.0539760472656265 -0.1397970246342748 -9.801417495807339 9 0 0
2115 423 3 0 3.339299772481324 -0.4250847319720794 -9.870097389982712 8 0 1
2111 423 1 0 3.6682356814160073 -0.7452110818074758 -9.73976636243468 8 0 1
3808 936 4 0 -7.543914485358487 -10.011243448807248 -9.391292595628949 14 1 1
3806 936 2 0 -7.379690503868138 -10.353811631356466 -9.1760368059883 14 1 1
2664 555 4 0 -6.301960856098968 -9.886308736995394 -9.411405915438243 3 0 0
444 89 3 0 -6.111433181935978 -9.748453143816686 -9.051662625607268 4 0 0
193 39 3 0 1.6890640957529257 -9.664827736694383 -9.497133114121956 3 0 0
2953 651 4 0 6.768638001527799 -9.85353157356347 -9.187334931503834 4 0 1
257 52 3 0 6.451003244950938 -9.704497507626817 -9.37099473007338 3 0 0
2951 651 2 0 7.2084648072603965 -9.920483164578883 -9.243435544349229 4 0 1
2952 651 4 0 7.680806596894138 -9.998179001944594 -9.311934493362987 4 0 1
1204 241 3 0 8.03540481792699 -10.086336785822796 -9.159685736848838 5 0 1
1201 241 1 0 8.48908843874221 -10.009768107749572 -9.093081601411729 5 0 1
1205 241 3 0 8.686624182619815 -9.97145884196455 -9.48075945616222 5 0 1
1203 241 3 0 8.671550646799757 -10.360640448084062 -8.858874992615537 5 0 1
2522 508 2 0 9.46725869954353 -10.213337877386026 -9.609976781611463 6 0 0
2524 508 4 0 9.052804508644146 -10.093889847377689 -9.581011598710301 6 0 0
2523 508 4 0 9.923999217883578 -10.351330111414878 -9.636334834457065 6 0 0
664 133 3 0 -8.268199042510961 -9.329876612012269 -8.976937685075313 5 0 1
661 133 1 0 -7.971526034959482 -8.98578387290253 -8.998333415936543 5 0 1
665 133 3 0 -7.599356753083354 -9.122684247093327 -9.17764727440855 5 0 1
3886 962 4 0 -6.7247815573187335 -8.778637617348604 -9.508620661900625 13 1 1
445 89 3 0 -5.797372398553037 -9.107065902773991 -8.788952986260814 4 0 0
194 39 3 0 2.2652504584170536 -9.168594639432394 -9.582448070485349 3 0 0
2541 514 4 0 2.6107651107142367 -8.974297769088228 -9.59441735969483 3 0 0
2540 514 2 0 3.0765508238006802 -8.93229079382626 -9.592205870743562 3 0 0
2542 514 4 0 3.5401058231976776 -8.900330728347235 -9.584963606522725 3 0 0
2549 517 2 0 5.125417627576901 -9.004284509254404 -9.191012958152779 3 0 0
2551 517 4 0 4.735046027087398 -8.781773279252818 -9.383570224750734 3 0 0
258 52 3 0 5.892456291754089 -9.200998665924388 -9.103193854753684 3 0 0
2550 517 4 0 5.49806669923939 -9.193146269674179 -9.01149362748388 3 0 0
259 52 3 0 6.406507382787412 -8.993131455762859 -9.63882972912764 3 0 0
256 52 1 0 6.156615175467456 -9.340214219850038 -9.493793219897201 3 0 0
1202 241 3 0 8.54541801685619 -9.620257311233493 -8.845956476225998 5 0 1
662 133 3 0 -8.144545193389849 -8.652397446839425 -9.246663593823333 5 0 1
3884 962 2 0 -6.691401567486048 -8.684938935152253 -9.041974600294713 13 1 1
1080 216 3 0 -0.0370962739611258 -8.647314248726188 -9.57488548006859 4 0 1
1078 216 3 0 0.6021049173044908 -8.30147053738782 -9.414464241349036 4 0 1
102 21 3 0 3.799260021380846 -8.581048442236822 -9.545464805430024 3 0 0
101 21 1 0 4.1163082740201435 -8.238101751014396 -9.466391685205496 3 0 0
103 21 3 0 3.972003478268613 -7.9906741154622285 -9.116453198463484 3 0 0
104 21 3 0 4.541910912734155 -8.424133137820247 -9.374493064914178 3 0 0
2672 558 2 0 -8.863012942080331 -7.062141002325655 -9.173621452181864 4 0 0
2674 558 4 0 -8.439426147815993 -7.289997783118121 -9.173107814759323 4 0 0
3 1 3 0 -8.05278821290658 -7.216363010110041 -9.258770616453635 4 0 0
5 1 3 0 -7.382497348220847 -7.403310483870681 -9.476292269274042 4 0 0
1 1 1 0 -7.6581055630937005 -7.061553831090139 -9.37384390109282 4 0 0
942 189 3 0 -5.79516340430147 -7.171448754484919 -9.032964233578133 4 0 1
3703 901 4 0 -6.070830493932292 -7.248636172891395 -8.7769120828566 14 1 1
931 187 1 0 -9.967061204882086 -6.727883593266484 -8.863963972905536 4 0 1
932 187 3 0 -9.94050815883591 -6.299906855301695 -9.003847298484278 4 0 1
935 187 3 0 -10.27785702760125 -6.937971226718553 -9.092385277237595 4 0 1
2673 558 4 0 -9.262164927853421 -6.847342837295395 -9.175507571880743 4 0 0
933 187 3 0 -9.56580152197659 -6.928813022066225 -8.927503554211969 4 0 1
2 1 3 0 -7.47901384180985 -6.829823671871182 -9.012221817169431 4 0 0
2932 644 4 0 -7.231031548265916 -6.52984903049599 -8.93433921958759 5 0 0
2930 644 2 0 -6.814360982944455 -6.424497636233817 -9.019512532869667 5 0 0
2931 644 4 0 -6.387605513255743 -6.3186548555371616 -9.115195840709703 5 0 0
941 189 1 0 -5.818879420495591 -6.805992345874298 -9.308520298859388 4 0 1
943 189 3 0 -6.02280750697648 -6.458744424609456 -9.08752776461103 4 0 1
944 189 3 0 -5.41996299887797 -6.688063462326119 -9.41841301403027 4 0 1
3170 724 2 0 -4.576016693058008 -6.684855143064714 -9.451064964449001 4 0 1
3171 724 4 0 -5.050807145573306 -6.70972702757339 -9.317189441497861 4 0 1
1249 250 3 0 -3.7451263830044725 -6.530028493268307 -9.535488912050518 5 0 1
3172 724 4 0 -4.120795404975413 -6.674563849369987 -9.569696582847723 4 0 1
418 84 3 0 -9.279738351390257 -5.777618720503727 -9.106773194128012 5 0 0
416 84 1 0 -8.859291379146653 -5.591727665286235 -9.039772524574378 5 0 0
417 84 3 0 -8.555258174120638 -5.770652925191314 -9.340976227470687 5 0 0
1248 250 3 0 -3.2728524302638213 -6.010098912522444 -9.343506523232733 5 0 1
1269 254 3 0 1.244253625922891 -5.3619046400883015 -9.208965686821063 6 0 0
2565 522 4 0 -10.018406248890802 -4.722304993124985 -9.242402023679185 7 0 0
849 170 3 0 -10.374622403281265 -4.697163821102072 -9.333185445869292 7 0 1
420 84 3 0 -8.876587175699948 -5.142692133618687 -9.093149426450704 5 0 0
2564 522 2 0 -9.615996134201307 -4.811091827342233 -9.112044157912344 7 0 0
2566 522 4 0 -9.178142255031482 -4.922029207210209 -8.976125024903611 7 0 0
1015 203 3 0 3.6316337107287247 -4.997936796465355 -9.31085108901048 5 0 1
848 170 3 0 10.253758835087845 -4.392487383941775 -8.809198489931246 6 0 1
2848 616 4 0 -10.212441061428146 -3.6112264672822283 -9.261276175864948 8 0 0
850 170 3 0 -10.346741808679543 -3.9673792750445784 -9.233533439377592 7 0 1
1445 289 3 0 -8.606520706337395 -3.574655300374955 -9.476897357183546 9 0 0
2090 418 3 0 7.1747733539648575 -3.5443541836954324 -9.397763699185337 6 0 1
2637 546 4 0 8.315000133354522 -4.340174829567099 -9.54457783269111 6 0 0
2636 546 2 0 8.244839898049792 -3.924384686564216 -9.556124792215984 6 0 0
846 170 1 0 10.417464172468518 -4.33598670515396 -9.229170168004371 6 0 1
847 170 3 0 10.081992491936186 -4.281048559865363 -9.51716190833212 6 0 1
2846 616 2 0 -9.996918330878547 -3.231532691739062 -9.14880074960914 8 0 0
2847 616 4 0 -9.774085186071861 -2.8359699080375167 -9.046377267666704 8 0 0
1441 289 1 0 -8.282748928017957 -3.2849002945996997 -9.589947679933534 9 0 0
1444 289 3 0 -8.451917978126122 -2.8953150450942164 -9.604632000386925 9 0 0
1443 289 3 0 -7.965876836811099 -3.2998963071759544 -9.281351085159496 9 0 0
2088 418 3 0 7.847554915027958 -3.269957097012491 -9.441931007800397 6 0 1
2087 418 3 0 7.276684881859795 -2.8244159383586913 -9.311938182207637 6 0 1
2089 418 3 0 7.510295704042926 -3.295757792360715 -8.777127829274818 6 0 1
2086 418 1 0 7.454295408112982 -3.2373455056134244 -9.236266383291523 6 0 1
2638 546 4 0 8.16767108301787 -3.4672291301171363 -9.57316662589104 6 0 0
250 50 3 0 -9.678187118793945 -2.516339635468859 -9.265938524288252 9 0 0
247 50 3 0 -9.855396910658396 -1.844732280628449 -9.065925070946731 9 0 0
246 50 1 0 -9.63646020633137 -2.090981039716313 -9.373181725554614 9 0 0
249 50 3 0 -9.210129161475079 -1.9767539982297535 -9.371633279646124 9 0 0
1374 275 3 0 -0.435354742575754 -2.316251983018322 -8.97093058465788 8 0 0
2689 563 4 0 -8.915761273525316 -1.7267808660541917 -9.436453395096938 9 0 0
2687 563 2 0 -8.78752244632861 -1.319662075630692 -9.310852983037218 9 0 0
2688 563 4 0 -8.651581410088149 -0.9111650898912185 -9.192325655064485 9 0 0
1449 290 3 0 -1.8118334650238435 -0.9667347809580757 -8.957012666568959 9 0 0
1446 290 1 0 -1.4493025320564499 -1.150258406344987 -8.808617548529856 9 0 0
1450 290 3 0 -1.2466318541666261 -1.3756046350661997 -9.142667729244405 9 0 0
3313 771 4 0 -1.4612919897470835 -1.5654715081850288 -9.445079838229782 9 0 0
3433 811 4 0 2.498167497772503 -1.0664585926651622 -8.771385116330062 8 0 0
3431 811 2 0 2.7918688411347183 -1.0223272407275434 -9.053439171478948 8 0 0
3432 811 4 0 3.1114137823657124 -0.9678980166351305 -9.377133019931222 8 0 0
2114 423 3 0 3.5040684371702167 -0.989345963443677 -9.403153101268662 8 0 1
2979 660 4 0 4.835152866209514 -1.5593723087621356 -9.50286814217578 8 0 1
1118 224 3 0 5.125658848776709 -1.5648592096628775 -9.230662360711325 8 0 1
1116 224 1 0 5.272732690745244 -1.2669899140280467 -8.967702812002806 8 0 1
1117 224 3 0 5.727250556540154 -1.3168937315771991 -8.915695112035822 8 0 1
3843 948 4 0 5.990482506273883 -1.0206548504350348 -9.008996911760153 8 0 1
2319 464 3 0 6.925166268984194 -1.465091679341489 -9.407922022885954 9 0 1
3844 948 4 0 6.740870970077394 -1.1319862896514774 -9.497772735437634 8 0 1
3842 948 2 0 6.358825569186523 -1.0773901027608428 -9.25580360503073 8 0 1
2317 464 3 0 7.600346443523415 -1.7329895875176486 -9.540547761241964 9 0 1
470 94 3 0 -8.420454488279695 -0.5945355818911704 -9.328499055861887 9 0 0
466 94 1 0 -8.344934682235861 -0.16738157184543212 -9.18982661691599 9 0 0
467 94 3 0 -7.900584270595603 -0.07405637917821295 -9.223484917556988 9 0 0
468 94 3 0 -8.489289024233065 -0.124277096643862 -8.764764354195378 9 0 0
2179 436 3 0 1.2434902370493965 -0.21675742586004176 -8.947497835131356 11 0 1
3391 797 4 0 4.196530227316025 -0.23019801781150306 -9.40769059071507 8 0 0
2112 423 3 0 4.054604159053856 -0.5276356719571496 -9.606422011119932 8 0 1
1120 224 3 0 5.187610599786478 -0.8615930120478144 -9.13954458652613 8 0 1
3389 797 2 0 4.573930849478312 -0.39037228557434744 -9.256318334737372 8 0 0
3390 797 4 0 4.965784222707638 -0.5515934023511182 -9.115274785512673 8 0 0
3855 952 4 0 7.5597732749433195 -0.47483765741715445 -8.763689111441364 10 0 1
3302 768 2 0 9.437113558739503 -0.7001012476562529 -8.948561191783703 9 0 0
3304 768 4 0 9.768441141915252 -0.5424269150845547 -9.238350665434703 9 0 0
2047 410 3 0 9.959539145594539 -0.16298741813633555 -9.274083438408065 10 0 0
443 89 3 0 -5.766770861130569 -9.730408714612775 -8.357305373880145 4 0 0
2655 552 4 0 9.020183995212102 -10.3193874046694 -8.663063689282998 6 0 0
2654 552 2 0 9.399854694931976 -10.438895794372947 -8.457233767691456 6 0 0
663 133 3 0 -7.885476726819235 -8.826394147940741 -8.582607419043796 5 0 1
442 89 3 0 -6.431509454225294 -9.36172988550496 -8.477039128809299 4 0 0
2787 596 4 0 -5.870022702752503 -9.624362972781347 -7.964691210212705 4 0 0
441 89 1 0 -6.021340967747299 -9.480670861708761 -8.676788274451205 4 0 0
2173 435 3 0 -7.201623258270425 -8.067905907192918 -8.234529649034588 13 1 1
3885 962 4 0 -6.6658915169626045 -8.589442692118656 -8.605715530357255 13 1 1
2171 435 1 0 -6.892505341242485 -8.273620933122967 -7.988558520899073 13 1 1
2175 435 3 0 -6.744351290873439 -8.615367438859813 -8.218460352692809 13 1 1
2174 435 3 0 -6.557654232441065 -7.997861574552335 -7.896744694514254 13 1 1
3193 731 4 0 -5.714066965556579 -8.72972562028523 -8.743085940287763 6 0 1
3191 731 2 0 -5.3666380819878094 -8.506272868713637 -8.678710324044046 6 0 1
3192 731 4 0 -4.996397135422289 -8.260027248784532 -8.612582547854434 6 0 1
176 36 1 0 -4.561355187255574 -8.318283374655202 -7.96364412946918 5 0 0
178 36 3 0 -4.9141787815924625 -8.213616884802127 -8.228508889125983 5 0 0
177 36 3 0 -4.2090159337307185 -8.41793914042759 -8.232618086887271 5 0 0
2690 564 2 0 9.108475277772909 -8.083377113663797 -8.61395523533627 4 0 0
2691 564 4 0 9.495753984057137 -8.301815619122204 -8.566521735142787 4 0 0
1149 230 3 0 10.485422889774652 -8.580735322005411 -8.17190910641393 4 0 1
1150 230 3 0 9.850202666765034 -8.415394924029055 -8.467301743712778 4 0 1
1146 230 1 0 10.114908406848896 -8.338010747813783 -8.121775872968225 4 0 1
1148 230 3 0 10.220538798559156 -7.930169774030188 -8.111256214919816 4 0 1
3702 901 4 0 -6.486029613461347 -7.739804997069416 -8.213495966349692 14 1 1
3701 901 2 0 -6.2816591899439835 -7.490501232725475 -8.49957414216659 14 1 1
56 12 1 0 -2.9226504155832442 -7.185320779663194 -8.34061172377702 5 0 0
60 12 3 0 -3.3717539930333116 -7.187687219196548 -8.182820216730311 5 0 0
59 12 3 0 -2.7933915670242726 -7.592697659725622 -8.393768067653285 5 0 0
170 34 3 0 6.561923512838762 -7.189983641587528 -8.307352263123864 3 0 0
2544 515 4 0 6.612237476724813 -7.569518255472013 -8.310147339998675 3 0 0
2545 515 4 0 7.413424310271266 -7.848578184810738 -7.913181185194108 3 0 0
2543 515 2 0 7.018502059558015 -7.7042072036075275 -8.11150542241411 3 0 0
1257 252 3 0 7.730799040043644 -7.794516233308418 -8.18816279270929 3 0 1
2692 564 4 0 8.692735194642404 -7.855662185851201 -8.660793068079279 4 0 0
1256 252 1 0 8.175722871593722 -7.671932700358335 -8.133943234644537 3 0 1
1260 252 3 0 8.383231211860886 -7.651801829848728 -8.554910259730613 3 0 1
1258 252 3 0 8.18824791207148 -7.257541290060485 -7.937065755057919 3 0 1
934 187 3 0 -10.061603341725922 -6.735317565032524 -8.4467587592924 4 0 1
58 12 3 0 -2.900806396177929 -6.973962200992833 -8.721885554310052 5 0 0
57 12 3 0 -2.663870521192532 -6.988493525549042 -8.032300670205977 5 0 0
167 34 3 0 6.266656091142709 -6.553728577681431 -8.580677008819015 3 0 0
166 34 1 0 6.445996150533757 -6.755928031992877 -8.211434524582259 3 0 0
168 34 3 0 6.837941520977443 -6.5137683246834195 -8.069466302480082 3 0 0
2604 535 4 0 7.235907788381878 -6.417054520338822 -8.066081694365906 3 0 0
2603 535 2 0 7.617262682475991 -6.635664245721493 -8.04448119384982 3 0 0
2605 535 4 0 8.02045135890564 -6.87200610343751 -8.013830222357202 3 0 0
3151 717 4 0 8.407921932681807 -6.905973533853738 -7.931417293096992 3 0 1
419 84 3 0 -8.72973202141433 -5.671622550148062 -8.633653480145055 5 0 0
175 35 3 0 5.973826204235236 -4.434897292803912 -8.21020114875767 7 0 0
171 35 1 0 6.090482426207499 -4.065066132730377 -8.011617897470185 7 0 0
172 35 3 0 5.78692636273504 -3.767457196004818 -8.084361321690047 7 0 0
2998 666 4 0 6.7038877378807715 -3.6206817403122127 -8.038187864362424 6 0 1
173 35 3 0 6.49515850031038 -3.9247310486440146 -8.190694945016517 7 0 0
2996 666 2 0 7.108821289976868 -3.516139156723213 -8.201663555118147 6 0 1
1375 275 3 0 -0.014268457240781629 -2.8357329504323374 -8.688626701732469 8 0 0
319 64 3 0 4.00121441960434 -2.9322316642074604 -8.077544532058042 8 0 0
2997 666 4 0 7.506341797207108 -3.4212734006242016 -8.373674287310843 6 0 1
3374 792 2 0 -1.184562717527708 -2.0839225901475995 -8.17540808172249 9 0 0
3375 792 4 0 -1.4870142880103625 -1.7606757387095922 -8.26773784982246 9 0 0
3376 792 4 0 -0.8549180472568949 -2.4340026660992997 -8.06981712617014 9 0 0
1373 275 3 0 -0.4991716562969941 -2.472845323806988 -8.270410210160849 8 0 0
1371 275 1 0 -0.21579323548709262 -2.4361726925116134 -8.60904407463226 8 0 0
1372 275 3 0 0.06566943233717737 -2.146438908237018 -8.527840578862346 8 0 0
2734 578 4 0 0.43995983540873773 -2.0575331114005326 -8.667896358408283 7 0 0
2732 578 2 0 0.7695878863546515 -1.8282877403098006 -8.508407587761994 7 0 0
2252 451 3 0 2.064257197221572 -1.8098424084353884 -8.59142990269976 9 0 1
3330 777 4 0 2.3172168689697923 -1.9865530412509642 -8.330256913170244 8 0 0
3329 777 2 0 2.631799114117289 -2.225118722058294 -8.158207364749995 8 0 0
3331 777 4 0 2.958816438402275 -2.456382036171952 -7.9745799086513225 8 0 0
318 64 3 0 3.3170355733377423 -2.6104668577164842 -8.090712485629743 8 0 0
316 64 1 0 3.754075630331265 -2.565892098864685 -7.942977696336954 8 0 0
2802 601 4 0 4.248064755712411 -1.9517132182506476 -8.102880959629601 8 0 0
317 64 3 0 3.9269870467434878 -2.194748762835264 -8.123224738320726 8 0 0
2801 601 2 0 4.568828516066203 -1.8093567808192947 -8.36408258358953 8 0 0
1505 301 3 0 -10.187876239179388 -1.3664225352998365 -8.60676271131779 9 0 0
1501 301 1 0 -9.900176434881917 -1.2675283168500524 -8.279977497948625 9 0 0
1502 301 3 0 -10.043058162972532 -1.41523413639991 -7.908189345434671 9 0 0
1504 301 3 0 -9.489703400917008 -1.4589164172472273 -8.387662626457344 9 0 0
3224 742 2 0 -2.176314191484277 -1.4216598528177062 -8.044727767730636 9 0 0
3226 742 4 0 -1.858202419769647 -1.6062666945648303 -8.290323568032093 9 0 0
1448 290 3 0 -1.5580998612445285 -1.4208830031675763 -8.4854671659104 9 0 0
2733 578 4 0 1.1158437747250431 -1.5910329783329509 -8.35130156220279 7 0 0
2253 451 3 0 1.4556883220209382 -1.4064091209645113 -8.464960315967133 9 0 1
2251 451 1 0 1.9180419931474368 -1.4106962105423975 -8.44906262776389 9 0 1
2254 451 3 0 2.061995416406516 -1.340398439731354 -8.012858516449846 9 0 1
2255 451 3 0 2.0858708100547787 -1.085242479354319 -8.719243760659445 9 0 1
1119 224 3 0 5.0730716132178255 -1.3054182718750234 -8.556524817687887 8 0 1
2803 601 4 0 4.908224321458938 -1.6525635789448998 -8.631317232664923 8 0 0
774 155 3 0 8.903653594241776 -0.9159155176190179 -8.3544275940279 9 0 0
1503 301 3 0 -9.852855073341349 -0.8305978033837178 -8.254376832342356 9 0 0
2650 550 4 0 -10.07862304314715 -0.31666683101820325 -8.078602995415517 11 0 0
2648 550 2 0 -10.149608077905093 -0.04923336380460874 -8.41820963401304 11 0 0
3828 943 4 0 -9.507614911283186 -0.6859424251910813 -8.218540738473731 9 0 1
3827 943 2 0 -9.113358404175141 -0.4635647451343079 -8.342786239615446 9 0 1
3829 943 4 0 -8.735903537465726 -0.2654893567389376 -8.462143457687564 9 0 1
1583 317 3 0 -8.097292745726792 -0.1587903956060721 -8.076824567613848 10 0 0
1447 290 3 0 -1.164261105420067 -0.8276680844551549 -8.635254628559014 9 0 0
2176 436 1 0 1.5562001739921083 -0.08605514252821855 -8.649642553111137 11 0 1
2180 436 3 0 1.805758815175249 -0.41294508346740244 -8.541889296430229 11 0 1
344 69 3 0 6.505442535545702 -0.18435344642210083 -8.656797246873918 8 0 0
341 69 1 0 6.8898340596204495 -9.975130535444521e-05 -8.543765408746523 8 0 0
342 69 3 0 7.216834268188075 -0.2629126267579682 -8.65735538382171 8 0 0
3854 952 2 0 7.852024173486255 -0.5529306266900189 -8.440098641256588 10 0 1
3856 952 4 0 8.150365060285433 -0.6270111199814892 -8.108331058929314 10 0 1
771 155 1 0 8.86031784514626 -0.8137163023462595 -7.892525900204456 9 0 0
3303 768 4 0 9.133963502685456 -0.8418226812647074 -8.66199599127205 9 0 0
3325 775 4 0 -9.738753058613277 -10.364082246653885 -7.117852466291584 16 1 0
3436 812 4 0 -8.419407728652208 -10.18403675049969 -7.506866405870895 15 1 0
3434 812 2 0 -8.239594698738284 -9.881201062258716 -7.252607678651591 15 1 0
2786 596 2 0 -5.817560125150227 -9.755431667043124 -7.51310792101642 4 0 0
2788 596 4 0 -5.766018356784463 -9.867615572372197 -7.090273005436218 4 0 0
1132 227 3 0 -2.934706578360127 -10.180470040160419 -7.122521546064206 7 0 1
3287 763 2 0 9.467653345951446 -10.459140295094581 -7.056224473160684 15 1 0
3776 926 2 0 -4.716184221630233 -9.060757660494428 -7.240008292638078 15 1 1
3778 926 4 0 -4.4371614100251655 -9.002793085315723 -7.5960311235787845 15 1 1
2073 415 3 0 8.18539208624958 -9.568417169607534 -7.090133187328459 15 1 0
2172 435 3 0 -7.077729818749134 -8.413576778113985 -7.608135077656011 13 1 1
179 36 3 0 -4.6614229199327415 -8.677837014620179 -7.703557522884142 5 0 0
180 36 3 0 -4.463386622226663 -7.970328286025507 -7.710109881686131 5 0 0
1259 252 3 0 8.384540294148517 -7.949873111792258 -7.8760746732415905 3 0 1
1147 230 3 0 9.907812091767758 -8.450218884431756 -7.749228036377881 4 0 1
169 34 3 0 6.117852766157446 -6.750974897192122 -7.8646661852388 3 0 0
3149 717 2 0 8.6328603713527 -6.640568568024142 -7.670289501936724 3 0 1
3150 717 4 0 8.86723022043716 -6.351427865275962 -7.400466425543591 3 0 1
24 5 3 0 9.14557057499204 -6.600991463800901 -7.215471179007466 3 0 0