LAMMPS data file via write_data, version 29 Aug 2024, timestep = 900000, units = lj

85 atoms
4 atom types
60 bonds
1 bond types

-2.087063 2.087063 xlo xhi
-2.087063 2.087063 ylo yhi
-2.087063 2.087063 zlo zhi

Masses

1 1
2 1
3 1
4 1

Bond Coeffs # zero

1 0

Atoms # bond

62 18 2 -0.5929958306349482 -1.3958317256239456 -0.7920792927529147 0 0 0
63 18 4 -0.32878825151486096 -1.5983738925839932 -0.9001118144238859 0 0 0
31 7 4 -1.2159860364197774 -1.0447285354538225 -0.6332624859442687 0 0 0
29 7 2 -1.4539257577917197 -0.8185663516701064 -0.5118732128614933 0 0 0
37 9 4 -1.9987237406041631 -0.8813954654564768 -1.75977691927155 0 0 0
64 18 4 -0.8572034097550354 -1.1932895586638983 -0.6840467710819434 0 0 0
60 17 4 -2.0011248943807693 -0.4015601528671466 -0.22101949531924187 1 0 0
30 7 4 -1.6918654791636618 -0.5924041678863903 -0.39048393977871787 0 0 0
55 15 4 -1.9669511860142903 -0.47582554826143003 -1.7368890711446585 0 0 1
5 1 3 -0.0012386983126129736 -1.7634434890145516 -1.147369126277898 0 0 1
35 9 2 -1.9641390789953814 -1.219408380720976 -1.6758056724316572 0 0 0
36 9 4 -1.9295544173865997 -1.5574212959854752 -1.5918344255917645 0 0 0
19 4 3 -0.8006597169406308 -2.042129423591814 -1.5747083586615371 1 -1 1
53 15 2 -1.9838339317262046 -0.12623296813096424 -1.7368605247001445 0 0 1
20 4 3 -0.9560562168077718 -1.9170480997180803 -2.022151322758642 1 -1 1
25 5 3 -1.928499680700292 -1.9071675967971773 -1.301345362687399 1 1 1
17 4 3 -0.658204393931293 -1.6177574914703854 -1.7737399293225704 1 -1 1
16 4 1 -0.7255939925004367 -1.904527093402547 -1.8305011609190291 1 -1 1
18 4 3 -0.48745496842606556 -2.0411704911338893 -1.951404465321052 1 -1 1
56 16 2 -2.031254006226364 -1.8637543634233509 0.9340841681659432 1 0 0
57 16 4 -1.7544089712068516 -2.0671469118672263 1.0010789278301955 1 0 0
79 23 4 -0.019134022611101253 -0.19106158308983076 0.7510207271191388 0 0 0
85 25 4 -1.3309640636009463 0.6038316264985368 -0.14229155137724622 0 0 0
83 25 2 -1.0460292129785123 0.7637454419967226 -0.0168335802729785 0 0 0
21 5 1 -1.9237196172559998 1.9973425984157527 -1.169877245763738 1 0 1
8 2 3 -1.8988621377900665 1.0529291770946236 -1.9145414887683019 0 0 1
24 5 3 -1.8204377459566525 1.793252810304502 -1.3639891603789271 1 0 1
23 5 3 -1.7444354575900778 2.006454790254984 -0.9295163088402567 1 0 1
10 2 3 -2.060982566640861 0.6440536457419537 -1.6988185593349132 0 0 1
54 15 4 -2.0007166774381187 0.2233596119995016 -1.7368319782556307 0 0 1
32 8 2 -1.1157937909581799 1.760022092094593 0.9213805467359587 0 0 0
11 3 1 -0.2757101050026914 1.2350907318782647 0.5350817293385449 0 0 0
12 3 3 -0.44805900856626163 1.4582297973919445 0.6375747187681119 0 0 0
13 3 3 -0.1258367169294433 1.111420360958349 0.7636486316889699 0 0 0
84 25 4 -0.7610943623560783 0.9236592574949084 0.10862439083128907 0 0 0
14 3 3 -0.44829449805859894 1.0272954937847376 0.4045635764046676 0 0 0
78 23 4 -0.351726241086795 0.3878274394116724 0.5406165545440194 0 0 0
33 8 4 -0.829482477095816 1.5869195793424127 0.8186121097860439 0 0 0
15 3 3 -0.08065191994549745 1.3434195067686818 0.3345410154223247 0 0 0
77 23 2 -0.18543013184894808 0.09838292816092084 0.645818640831579 0 0 0
34 8 4 -1.402105104820544 1.9331246048467734 1.0241489836858735 0 0 0
82 24 4 0.7319718769591392 -0.0920726497353882 -0.08985305524180717 0 0 1
59 17 2 1.9671034854825775 -0.12122439346375954 -0.25998142573601285 0 0 0
1 1 1 0.27992803648745046 -1.8140630816592545 -1.2389241427837363 0 0 1
39 10 4 0.2446358450786173 -1.6441580066640407 -1.9450272522573149 0 0 1
2 1 3 0.47191348493368523 -1.681718413165153 -1.0501743711120504 0 0 1
3 1 3 0.3171226914010456 -1.7016034058558387 -1.514548163707309 0 0 1
38 10 2 0.31055142752005904 -1.499650962562829 1.9172127907063135 0 0 0
58 16 4 1.8660269587541238 -1.6603618149794757 0.8670894085016909 0 0 0
41 11 2 0.24725239500981336 -0.8075944751299043 1.1126077127008143 0 0 0
43 11 4 0.3623167445161055 -1.077143272463037 1.3039284939270772 0 0 0
76 22 4 1.6076404992778157 -1.3162592002866127 0.88148703241335 0 0 1
81 24 4 0.9257215488435226 -0.5947283278013362 0.3571350138969746 0 0 1
40 10 4 0.37646700996150084 -1.355143918461617 1.605326833669942 0 0 0
75 22 4 1.2005107406871232 -0.8012811927245591 0.6384993549528329 0 0 1
74 22 2 1.4040756199824693 -1.0587701965055858 0.7599931936830914 0 0 1
42 11 4 0.1321880455035212 -0.5380456777967718 0.9212869314745514 0 0 0
80 24 2 0.828846712901331 -0.3434004887683621 0.13364097932758362 0 0 1
4 1 3 0.3319165877821683 2.064640304845211 -1.2436030225399703 0 -1 1
48 13 4 0.36071296658731883 1.6492576594727053 -1.2123560633515666 0 0 1
46 12 4 0.35851544235591615 0.6458354106870892 -0.7954195134213965 0 0 1
44 12 2 0.45412063604748826 0.3790976895855969 -0.5899672438289392 0 0 1
49 13 4 0.368354235982406 0.960960087997805 -1.0851237400049123 0 0 1
47 13 2 0.3645336012848624 1.3051088737352552 -1.1487399016782394 0 0 1
66 19 4 1.7676776653621975 1.2035911424266315 -0.7204869425507836 -1 0 0
65 19 2 1.7422713789795534 0.8860915822627985 -0.5754057586978167 -1 0 0
67 19 4 1.7168650925969093 0.5685920220989653 -0.43032457484484965 -1 0 0
28 6 4 1.415835810905647 0.8816109541025043 -2.051022137197276 -1 -1 1
7 2 3 1.794147482055957 0.9802641658084607 -1.8575726654670173 -1 0 1
22 5 3 1.97261763733557 1.922703643511152 -1.0846572989489007 0 0 1
70 20 4 0.6465876586003182 1.9217455526739002 -0.33202061735064936 0 -1 0
72 21 4 1.603617256435099 1.9267777011687466 -0.8676474711184053 0 -1 1
71 21 2 1.2941708582827494 1.94766207170499 -0.7054538530629951 0 -1 1
73 21 4 0.9847244601303997 1.9685464422412335 -0.543260235007585 0 -1 1
45 12 4 0.5497258297390606 0.11235996848410468 -0.3845149742364819 0 0 1
68 20 2 0.41546092037379845 1.7771522749862045 -0.11253664316501458 0 -1 0
9 2 3 2.0755122155293786 1.074381797446701 -1.4677337498643601 -1 0 1
6 2 1 2.0645174242134576 0.9379070906302468 -1.734666308592756 -1 0 1
61 17 4 1.7612058653459242 0.1591113659396275 -0.2989433561527839 0 0 0
51 14 4 0.017477639303990933 0.8900284292595344 1.1039922847845804 -1 -1 0
27 6 4 0.7796091772969893 0.833341854746729 1.8352049834470856 -1 -1 0
50 14 2 0.21411173218756926 0.8585610165021724 1.391820072620041 -1 -1 0
69 20 4 0.18433418214727892 1.6325589972985088 0.10694733102062008 0 -1 0
52 14 4 0.41074582507114754 0.8270936037448102 1.679647860455501 -1 -1 0
26 6 2 1.097722494101318 0.8574764044246165 1.9791544231249047 -1 -1 0

Velocities

62 0.11826152864446735 -0.0012253981609796373 0.2639105459404245
63 0.3223184228855739 0.17717344735413518 0.4284914425204024
31 0.09676943791097646 0.16284991433439575 -0.02081762728000959
29 -0.06845362553184751 -0.03390458713737854 0.021898651602332224
37 -0.08689194000793306 0.03780712664376297 0.07019235210000886
64 -0.08579536559663913 -0.17962424367609436 0.09932964936044669
60 -0.07311520679181534 -0.024389003635137407 0.15904533579575392
30 -0.23367668897467153 -0.23065908860915282 0.06461493048467404
55 0.16631256252636056 -0.154309276640627 -0.08652283936761666
5 0.018709275979857203 0.18681186213289294 0.02357842711846546
35 -0.11740234096012993 0.06350490902701338 0.1862008025907934
36 -0.14791274191232678 0.0892026914102638 0.302209253081578
19 -0.06238028912922289 -0.055973498072918355 -0.12751558407392527
53 0.15323029565816113 -0.15494970376359052 0.019409282219552928
20 0.19777949349691434 0.22745404933869212 -0.13863750837060113
25 0.11317847378457868 -0.11528823625578022 -0.21584640596659843
17 0.3791909967236943 -0.11686996747380973 0.05869320509306958
16 0.14475582310502372 -0.03878385210487307 -0.057481722664144544
18 0.06443543568044491 -0.20974677307260975 -0.02246584155584406
56 -0.07709756118856721 -0.05663247277766475 -0.007910214299000384
57 -0.1910911154040552 -0.16723924827807815 0.12735343333569915
79 -0.26834810610314336 -0.24142795235290815 -0.16872880044665006
85 -0.09910387582506056 0.018473231070801427 0.3028312177173631
83 -0.026104508103369988 -0.003999091447519837 0.16568226696634805
21 0.027007080065116238 -0.05442340734666558 -0.08789124122967285
8 0.07192990464321208 -0.014583923859592462 -0.1015693362606982
24 0.05309908037939824 -0.16282226569901156 0.03996248016725139
23 -0.04621653435764449 0.028210559070490276 -0.0364067621647742
10 0.0987410845389071 0.020505594909017325 -0.01491241173620983
54 0.1401480287899617 -0.15559013088655396 0.12534140380672254
32 0.029893412664920155 -0.1699156662856164 -0.028533192820254807
11 0.10807409411209787 -0.01291208026895857 -0.18354125701721516
12 0.03823056062518958 -0.057497821443978844 -0.20391958540894028
13 0.08002815596532897 -0.0025277050071633757 -0.15953262210237704
84 0.04689485961832054 -0.026471413965841115 0.028533316215333004
14 0.18131935034479543 -0.036725872903255574 -0.24248014948444246
78 0.09380103764200451 -0.003006469831240366 -0.08521528639415499
33 0.09926467156974911 -0.17529406073945714 0.17379342119639687
15 0.13271761107774271 0.0451026324211517 -0.12823287485638496
77 -0.08727353423056941 -0.12221721109207427 -0.12697204342040253
34 -0.03947784623990889 -0.16453727183177566 -0.23085980683690657
82 -0.2104357496863599 0.3770459346362006 0.24056046932428565
59 -0.16043284244423017 -0.09504254390860503 0.11212208351455305
1 -0.018758588133837073 0.1350884712875012 -0.06288870860072919
39 0.12729806974863345 0.3821108799638526 -0.0393818735938945
2 0.058874020774853264 0.23099955720791665 -0.20910161186419113
3 -0.12787458779240404 -0.009379024150131199 -0.13655899171270205
38 0.051494491334899736 0.10633528510161308 -0.18317851483174358
58 0.03689599302692083 0.05397430272274868 -0.1431738619336999
41 0.10891995953684055 0.07127153669977068 0.13581618519811658
43 0.07306326709010613 0.0005658549481973307 0.05776504828965362
76 0.05741563550900889 -0.1509213286583238 0.00635945685631939
81 -0.14274549375803033 0.02429222162710859 -0.18546571532456024
40 -0.024309087078833926 -0.1694403097606263 -0.32697515606959265
75 -0.0540419612886993 0.018955746500743317 0.553138880248371
74 0.001686837110154738 -0.06598279107879017 0.27974916855234533
42 0.14477665198357498 0.14197721845134403 0.21386732210657955
80 -0.1765906217221951 0.20066907813165466 0.02754737699986273
4 -0.024742285171565508 0.13192244907018577 0.07052587992647841
48 -0.12400288211472248 0.011672509850449049 0.09007763347003306
46 0.021858926197438955 0.1842865196307571 -0.05222851356980707
44 -0.07761609174310961 0.0353299616278573 -0.19932839485652376
49 -0.09536160530026218 -0.02808820361859754 -0.12673879734882687
47 -0.10968224370749233 -0.008207846884074239 -0.01833058193939689
66 0.06513310887815213 0.09429979743394408 -0.21047341037703116
65 0.09816878395373961 0.16413000828301824 -0.05186996890068451
67 0.13120445902932712 0.23396021913209253 0.1067334725756622
28 -0.07006094137014457 -0.2175197726225792 0.23203737915822026
7 0.0817514823002491 0.028706952924279085 0.03659489960943705
22 -0.012033089947567722 0.03220717980351079 -0.13927479079006566
70 -0.11914088953607387 -0.16334481134669998 0.20940617589280697
72 0.15781192705126354 0.0246070207356269 0.07928331518620889
71 0.08074101506895602 0.17223791284947246 -0.08676818974749702
73 0.0036701030866485157 0.319868804963318 -0.2528196946812029
45 -0.17709110968365815 -0.1136265963750425 -0.3464282761432404
68 -0.20201566811901708 -0.10172195053877285 0.1627315798617298
9 0.194866942366635 0.04753391611656137 -0.049591084178147185
6 0.11182242863961665 0.020540614606720513 -0.032369655552792496
61 -0.24775047809664505 -0.16569608418207266 0.06519883123335218
51 0.11627150518173898 0.14503925722727035 -0.01155300648210831
27 -0.18285904471687126 0.05053556340170556 0.43636734408892697
50 0.0664889883973425 0.1972213736322754 0.028161630908514146
69 -0.28489044670196023 -0.04009908973084576 0.11605698383065269
52 0.016706471612946083 0.2494034900372804 0.06787626829913661
26 -0.12645999304350802 -0.08349210461043675 0.33420236162357364

Bonds

1 1 62 63
2 1 62 64
3 1 29 30
4 1 29 31
5 1 35 36
6 1 35 37
7 1 53 54
8 1 53 55
9 1 16 17
10 1 16 18
11 1 16 19
12 1 16 20
13 1 56 57
14 1 56 58
15 1 83 84
16 1 83 85
17 1 21 22
18 1 21 23
19 1 21 24
20 1 21 25
21 1 32 33
22 1 32 34
23 1 11 12
24 1 11 13
25 1 11 14
26 1 11 15
27 1 77 78
28 1 77 79
29 1 59 60
30 1 59 61
31 1 1 2
32 1 1 3
33 1 1 4
34 1 1 5
35 1 38 39
36 1 38 40
37 1 41 42
38 1 41 43
39 1 74 75
40 1 74 76
41 1 80 81
42 1 80 82
43 1 44 45
44 1 44 46
45 1 47 48
46 1 47 49
47 1 65 66
48 1 65 67
49 1 71 72
50 1 71 73
51 1 68 69
52 1 68 70
53 1 6 7
54 1 6 8
55 1 6 9
56 1 6 10
57 1 50 51
58 1 50 52
59 1 26 27
60 1 26 28
