ITEM: TIMESTEP
9000
ITEM: NUMBER OF ATOMS
4590
ITEM: BOX BOUNDS xy xz yz pp pp pp
-9.9985700000000008e+00 1.3598055200000001e+01 3.5994852000000002e+00
-9.9985700000000008e+00 9.9985700000000008e+00 0.0000000000000000e+00
-9.9985700000000008e+00 9.9985700000000008e+00 0.0000000000000000e+00
ITEM: ATOMS id type xs ys zs
1504 2 0.049028 0.0369663 0.0514629
1506 4 0.0688903 0.0367075 0.0667091
1505 4 0.0291656 0.0372251 0.0362167
1125 4 0.0193404 0.0551981 0.0387989
1123 2 0.998336 0.0709613 0.0456275
1403 4 0.0702705 0.0513704 0.0790767
770 4 0.221958 0.0393315 0.0342244
769 2 0.216048 0.0372849 0.0583404
771 4 0.210139 0.0352384 0.0824564
867 4 0.235705 0.0498287 0.0299962
865 2 0.244711 0.0671353 0.0166262
2723 4 0.303342 0.00112382 0.0790229
1496 4 0.315633 0.0129725 0.0848393
77 3 0.359212 0.0619219 0.00612992
78 3 0.362446 0.0273384 0.0205415
76 1 0.366611 0.0395685 0.00187865
1495 2 0.335831 0.997028 0.0764317
3835 2 0.419396 0.0479728 0.00292948
3837 4 0.444192 0.0411804 0.00775817
1565 4 0.46132 0.0397564 0.0165183
3203 4 0.47438 0.0242123 0.0716549
3202 2 0.478292 0.00389768 0.05708
1564 2 0.481415 0.0346033 0.0013117
243 4 0.0537215 0.121903 0.0145005
623 4 0.123833 0.113003 0.0627619
622 2 0.13406 0.133289 0.0581731
624 4 0.144287 0.153574 0.0535842
55 3 0.161576 0.145565 0.0433835
53 3 0.176043 0.163006 0.0150376
51 1 0.170093 0.164097 0.0374901
54 3 0.188944 0.165721 0.0505028
866 4 0.253716 0.084442 0.00325623
460 2 0.292886 0.0846687 0.00794732
913 2 0.277226 0.131328 0.0720994
915 4 0.297135 0.142871 0.0691816
461 4 0.313271 0.0899404 0.019875
914 4 0.257316 0.119785 0.0750171
828 4 0.303985 0.157767 0.0616358
826 2 0.308132 0.162993 0.0377197
875 4 0.24126 0.112165 0.0809702
1784 4 0.328754 0.0950059 0.0310236
1783 2 0.343954 0.0988045 0.0499561
1785 4 0.359155 0.102603 0.0688885
572 4 0.373681 0.110942 0.0588645
571 2 0.380997 0.132968 0.0624406
573 4 0.388313 0.154994 0.0660168
2854 2 0.439272 0.119801 0.0307932
2856 4 0.446673 0.141717 0.0267702
2855 4 0.43187 0.0978863 0.0348162
486 4 0.474287 0.128526 0.0618514
484 2 0.467713 0.118157 0.0829803
763 2 0.060858 0.219951 0.0776088
912 4 0.0981577 0.203052 0.0635739
764 4 0.0780866 0.209381 0.0609184
910 2 0.120186 0.188305 0.0578831
911 4 0.142213 0.173559 0.0521923
52 3 0.153778 0.182791 0.0409482
827 4 0.312279 0.16822 0.0138036
527 4 0.35909 0.220689 0.0412647
526 2 0.350161 0.229139 0.0189288
747 4 0.378409 0.21218 0.0393364
528 4 0.341232 0.23759 0.996593
746 4 0.394833 0.171753 0.0673117
745 2 0.386621 0.191966 0.0533241
28 3 0.389871 0.241643 0.0361435
2829 4 0.431105 0.249229 0.0657383
29 3 0.425851 0.237684 0.0497438
2840 4 0.45242 0.200379 0.0107251
2841 4 0.492435 0.170415 0.0308304
2839 2 0.472427 0.185397 0.0207777
362 4 0.0396655 0.29771 0.0741131
361 2 0.0434778 0.312377 0.0549184
955 2 0.109174 0.280935 0.0335593
1595 4 0.0892499 0.25596 0.0136887
957 4 0.0880911 0.273489 0.0253783
363 4 0.04729 0.327043 0.0357237
956 4 0.130257 0.288381 0.0417402
545 4 0.188999 0.276704 0.0322463
546 4 0.140219 0.298 0.0270583
544 2 0.164609 0.287352 0.0296523
27 3 0.417397 0.252959 0.0158797
26 1 0.409294 0.251158 0.0372079
30 3 0.404289 0.271891 0.0465456
2454 4 0.405965 0.310238 0.014984
562 2 0.422675 0.322646 0.0416632
1071 4 0.446005 0.303452 0.0702698
564 4 0.403307 0.32652 0.025489
2827 2 0.454613 0.253466 0.0699986
563 4 0.442042 0.318771 0.0578375
3300 4 0.398457 0.255465 0.0076769
2828 4 0.478121 0.257704 0.074259
2357 4 0.0992553 0.367127 0.0716549
2356 2 0.102522 0.384463 0.0548077
2358 4 0.105789 0.4018 0.0379604
924 4 0.124147 0.398032 0.0294921
922 2 0.143721 0.40729 0.0200948
3213 4 0.304716 0.388062 0.00395435
3211 2 0.285213 0.401397 0.0163985
1156 2 0.337897 0.408663 0.00581908
3880 2 0.399051 0.396716 0.0719823
3881 4 0.390842 0.397518 0.0483286
3801 4 0.397079 0.41115 0.0366893
3799 2 0.405297 0.422876 0.0171701
923 4 0.163296 0.416548 0.0106976
1236 4 0.17536 0.43126 0.00821947
1234 2 0.191516 0.444852 0.0179373
626 4 0.222879 0.454228 0.0410049
1235 4 0.207671 0.458443 0.027655
625 2 0.247178 0.443486 0.0379127
3212 4 0.265711 0.414732 0.0288426
627 4 0.271477 0.432743 0.0348206
2165 4 0.421967 0.476306 0.0328461
3800 4 0.413515 0.434603 0.997651
1157 4 0.35198 0.42635 0.00958787
2783 4 0.485273 0.479052 0.0522072
2782 2 0.491411 0.458727 0.0665566
2784 4 0.49755 0.438401 0.0809059
1593 4 0.473888 0.49123 0.0661755
2798 4 0.000338348 0.0442848 0.135244
2797 2 0.0213035 0.0512487 0.126132
2799 4 0.0422686 0.0582127 0.11702
1402 2 0.076589 0.0734197 0.0848374
477 4 0.180198 0.0696613 0.133345
476 4 0.19627 0.0501329 0.0890541
17 3 0.183287 0.061801 0.15122
475 2 0.188234 0.0598971 0.111199
876 4 0.235916 0.0678452 0.0999178
2722 2 0.280636 0.996575 0.0861693
698 4 0.249586 0.0338447 0.15402
699 4 0.24457 0.0675201 0.117067
697 2 0.247078 0.0506824 0.135543
2724 4 0.25793 0.992026 0.0933156
629 4 0.469256 0.0227043 0.0904713
628 2 0.484786 0.0350259 0.103056
630 4 0.500316 0.0473476 0.115641
731 4 0.0170747 0.0954728 0.16095
1532 4 0.0622442 0.147134 0.122812
1404 4 0.0829074 0.0954691 0.0905981
1533 4 0.0913972 0.10491 0.106896
1531 2 0.0768207 0.126022 0.114854
18 3 0.16774 0.0976354 0.157986
874 2 0.238588 0.0900052 0.090444
23 3 0.245637 0.137142 0.156222
420 4 0.440807 0.154027 0.14928
311 4 0.427521 0.140416 0.150045
312 4 0.442952 0.107671 0.113473
310 2 0.435236 0.124044 0.131759
485 4 0.461139 0.107789 0.104109
765 4 0.0436294 0.23052 0.0942991
531 4 0.0181208 0.214336 0.166535
692 4 0.112729 0.198718 0.153003
2760 4 0.129222 0.207019 0.158763
691 2 0.116187 0.176403 0.164267
2758 2 0.132138 0.230685 0.155072
419 4 0.420137 0.202398 0.1535
418 2 0.430472 0.178213 0.15139
402 4 0.383632 0.238214 0.163197
3343 2 0.474659 0.216179 0.161712
3345 4 0.480185 0.237208 0.151901
549 4 0.0665006 0.313039 0.0993201
547 2 0.073162 0.307149 0.122966
2597 4 0.0753036 0.330736 0.0973246
448 2 0.108272 0.283815 0.166815
548 4 0.0798234 0.301259 0.146611
449 4 0.0882999 0.302385 0.164867
2759 4 0.135054 0.254351 0.151381
450 4 0.128244 0.265245 0.168764
2094 4 0.19507 0.309179 0.145138
2092 2 0.199236 0.332693 0.143816
557 4 0.380207 0.248745 0.146361
556 2 0.404634 0.251143 0.145142
558 4 0.429061 0.253541 0.143922
519 4 0.430216 0.272192 0.150877
517 2 0.442398 0.291273 0.155028
1761 4 0.486012 0.2644 0.0903944
1069 2 0.458834 0.315283 0.0864395
518 4 0.45458 0.310354 0.159178
1070 4 0.471663 0.327114 0.102609
3608 4 0.459187 0.325608 0.172262
2596 2 0.0840371 0.352076 0.0939107
2844 4 0.0628315 0.359648 0.143609
2598 4 0.0927706 0.373417 0.0904969
2842 2 0.083023 0.352539 0.158339
2093 4 0.203402 0.356207 0.142495
272 4 0.246766 0.367847 0.117382
1222 2 0.212885 0.390657 0.149851
1224 4 0.206861 0.415382 0.153227
1223 4 0.218908 0.365933 0.146474
271 2 0.271778 0.362026 0.11326
273 4 0.296791 0.356205 0.109139
15 3 0.313482 0.353103 0.122421
13 3 0.351431 0.344561 0.118075
11 1 0.331741 0.358979 0.111886
12 3 0.328947 0.357565 0.0891298
14 3 0.333489 0.380804 0.117352
3882 4 0.40726 0.395914 0.095636
659 4 0.426957 0.393605 0.0957912
521 4 0.488691 0.333379 0.0939468
658 2 0.438498 0.385258 0.117116
3607 2 0.461937 0.347235 0.161617
3609 4 0.464687 0.368862 0.150971
660 4 0.450038 0.376912 0.13844
1779 4 0.0319712 0.492002 0.126036
1778 4 0.0674861 0.496375 0.0919222
1777 2 0.0497287 0.494189 0.108979
702 4 0.0838212 0.490753 0.103505
700 2 0.105088 0.498036 0.0956068
610 2 0.451704 0.451503 0.159289
612 4 0.474012 0.457975 0.153603
4367 4 0.495142 0.450398 0.0976583
611 4 0.429396 0.445031 0.164975
1625 4 0.472138 0.473757 0.166861
4366 2 0.494326 0.453106 0.122513
730 2 0.00488249 0.0804219 0.174239
16 1 0.176791 0.077312 0.167798
20 3 0.195261 0.0795132 0.180363
19 3 0.160538 0.0700277 0.181096
333 4 0.402161 0.0221179 0.246994
2477 4 0.0245735 0.109313 0.170908
2478 4 0.037012 0.15486 0.171512
2476 2 0.0307927 0.132087 0.17121
530 4 0.026933 0.167787 0.184802
693 4 0.119644 0.154087 0.175531
366 4 0.136477 0.151037 0.187405
364 2 0.153419 0.131309 0.179878
743 4 0.209043 0.0917105 0.183138
365 4 0.170362 0.111582 0.172351
742 2 0.222054 0.108783 0.174475
24 3 0.280538 0.133948 0.172219
744 4 0.235065 0.125855 0.165813
22 3 0.259371 0.167846 0.166168
25 3 0.248998 0.145703 0.192558
21 1 0.258577 0.146081 0.171932
422 4 0.363589 0.163197 0.256489
2836 2 0.483797 0.165559 0.23959
529 2 0.0225269 0.191062 0.175669
1700 4 0.35564 0.174887 0.241894
401 4 0.373268 0.20611 0.197975
1699 2 0.36229 0.181281 0.219015
400 2 0.37845 0.222162 0.180586
1701 4 0.36894 0.187675 0.196136
2853 4 0.453919 0.200942 0.243778
3344 4 0.469134 0.195149 0.171523
2837 4 0.467951 0.18564 0.248092
302 4 0.0187425 0.306923 0.179765
301 2 0.00410849 0.290505 0.186566
754 2 0.181995 0.284087 0.232899
755 4 0.198659 0.298757 0.226792
344 4 0.146376 0.266632 0.245148
756 4 0.165331 0.269416 0.239006
510 4 0.206295 0.312333 0.217019
508 2 0.223677 0.321772 0.203904
509 4 0.241059 0.331211 0.19079
494 4 0.304941 0.274521 0.174579
493 2 0.323209 0.287923 0.178811
495 4 0.341477 0.301325 0.183043
105 3 0.391987 0.257185 0.217007
101 1 0.396243 0.269569 0.234986
103 3 0.384713 0.291375 0.232737
588 4 0.39916 0.302417 0.23038
586 2 0.391649 0.325009 0.220236
750 4 0.416805 0.287862 0.22973
104 3 0.419407 0.269394 0.236791
748 2 0.441366 0.289317 0.227105
749 4 0.465927 0.290772 0.224479
289 2 0.00807493 0.390919 0.240282
2843 4 0.103214 0.34543 0.17307
1914 4 0.115356 0.358834 0.181418
1912 2 0.118494 0.357417 0.206214
1913 4 0.121633 0.356 0.231011
602 4 0.121603 0.341965 0.246
587 4 0.384139 0.347602 0.210092
387 4 0.40033 0.356516 0.210562
385 2 0.390413 0.380004 0.204149
386 4 0.380496 0.403492 0.197737
2651 4 0.389818 0.410771 0.182067
1530 4 0.487387 0.375227 0.229095
1528 2 0.464501 0.373148 0.238028
315 4 0.170369 0.483324 0.247244
1758 4 0.190365 0.439134 0.245979
413 4 0.182214 0.49239 0.234967
1757 4 0.182359 0.438668 0.196633
1756 2 0.186362 0.438901 0.221306
412 2 0.20516 0.498651 0.237509
2650 2 0.409168 0.423341 0.182289
1862 4 0.427956 0.434823 0.24664
1624 2 0.468818 0.497715 0.173945
2652 4 0.428519 0.435911 0.182511
417 4 0.0534655 0.995921 0.29323
298 2 0.0309633 0.0616065 0.31155
300 4 0.0416458 0.0633238 0.289157
354 4 0.119572 0.0569868 0.318072
352 2 0.136002 0.0719089 0.311981
440 4 0.10151 0.0512598 0.322635
466 2 0.217253 0.0695225 0.282135
498 4 0.226536 0.0094455 0.328245
496 2 0.234665 0.0200181 0.307929
497 4 0.242795 0.0305906 0.287612
467 4 0.23423 0.0494063 0.288627
331 2 0.398161 0.0424411 0.261555
332 4 0.39416 0.0627643 0.276116
3891 4 0.406789 0.00516881 0.258379
353 4 0.152431 0.0868311 0.305889
389 4 0.153632 0.102168 0.317182
468 4 0.200277 0.0896386 0.275644
388 2 0.170025 0.103918 0.298663
390 4 0.186418 0.105667 0.280144
421 2 0.370181 0.143798 0.271957
423 4 0.376773 0.124399 0.287425
2895 4 0.359214 0.117268 0.295172
2893 2 0.359405 0.121061 0.319871
343 2 0.14599 0.242591 0.250148
345 4 0.145604 0.21855 0.255148
337 2 0.195444 0.221712 0.331314
338 4 0.208451 0.229661 0.312511
507 4 0.204924 0.24435 0.299812
505 2 0.221571 0.252005 0.284265
2851 2 0.458306 0.213951 0.264043
2852 4 0.462693 0.22696 0.284308
275 4 0.483565 0.219326 0.288427
274 2 0.489411 0.236374 0.304398
2802 4 0.0314992 0.284684 0.257042
2800 2 0.0172189 0.267538 0.262482
2801 4 0.00293856 0.250392 0.267922
2616 4 0.0483943 0.294677 0.255523
2614 2 0.0669416 0.303658 0.267267
2615 4 0.085489 0.312639 0.279011
4298 4 0.0976103 0.30666 0.294881
4297 2 0.110006 0.310215 0.31592
506 4 0.238218 0.25966 0.268719
648 4 0.25878 0.255586 0.265449
646 2 0.267575 0.272693 0.279289
647 4 0.27637 0.2898 0.293129
2955 4 0.284238 0.284767 0.312528
2953 2 0.307854 0.287825 0.318168
2954 4 0.331471 0.290883 0.323807
473 4 0.348333 0.299737 0.320488
102 3 0.388859 0.260481 0.254096
2937 4 0.492889 0.274581 0.325
276 4 0.495258 0.253423 0.320369
290 4 0.0230073 0.400302 0.256434
1821 4 0.0258592 0.388201 0.271984
1819 2 0.0510918 0.381584 0.273826
1820 4 0.0763244 0.374968 0.275669
603 4 0.0791037 0.355332 0.27273
570 4 0.0951239 0.400083 0.273214
601 2 0.100354 0.348648 0.259365
248 4 0.326094 0.368283 0.29967
247 2 0.318735 0.35102 0.314423
1430 4 0.345419 0.37011 0.293093
1429 2 0.348816 0.390726 0.280861
1431 4 0.352212 0.411343 0.268628
811 2 0.426165 0.37219 0.288559
813 4 0.415934 0.368654 0.310798
267 4 0.423928 0.35568 0.325498
1529 4 0.441614 0.37107 0.24696
812 4 0.436397 0.375727 0.266321
619 2 0.00753158 0.472656 0.26936
568 2 0.0943062 0.414714 0.293408
620 4 0.0220135 0.480852 0.286777
1787 4 0.0653225 0.489275 0.272048
569 4 0.0934884 0.429345 0.313603
597 4 0.410131 0.426778 0.247236
596 4 0.361978 0.42286 0.257149
595 2 0.386054 0.424819 0.252192
3682 2 0.432812 0.503895 0.277577
1861 2 0.442229 0.45005 0.256832
1863 4 0.456502 0.465276 0.267024
3684 4 0.443355 0.481458 0.268664
231 4 0.498971 0.489787 0.256094
470 4 0.0129833 0.0548177 0.393175
299 4 0.0202808 0.0598892 0.333942
1773 4 0.0128663 0.041332 0.337915
439 2 0.103396 0.0291657 0.334153
441 4 0.105282 0.00707158 0.345671
705 4 0.175946 0.0356501 0.397062
703 2 0.197894 0.0199532 0.393439
432 4 0.370369 0.0783941 0.402719
430 2 0.395239 0.0767261 0.407045
431 4 0.420109 0.0750582 0.411371
3488 4 0.473395 0.00174702 0.395244
2558 4 0.473777 0.00629382 0.415
3402 4 0.50245 0.0144281 0.35104
1518 4 0.291809 0.118334 0.41473
1516 2 0.31373 0.114123 0.402098
2894 4 0.359595 0.124854 0.34457
1517 4 0.335651 0.109912 0.389466
278 4 0.363647 0.138469 0.358144
277 2 0.35909 0.123632 0.376927
279 4 0.354533 0.108795 0.39571
257 4 0.434883 0.0867411 0.410503
2533 2 0.0713006 0.241115 0.380405
2534 4 0.0893438 0.236408 0.362874
348 4 0.108239 0.228081 0.368627
346 2 0.126001 0.207656 0.371725
347 4 0.143762 0.187231 0.374824
339 4 0.182437 0.213764 0.350117
261 4 0.174448 0.215047 0.368259
259 2 0.194055 0.206328 0.383219
260 4 0.213662 0.197609 0.398178
371 4 0.272977 0.169556 0.408478
370 2 0.251785 0.182074 0.398
372 4 0.230593 0.194591 0.387521
598 2 0.297086 0.200375 0.418227
1210 2 0.343884 0.224183 0.395647
599 4 0.309661 0.219559 0.418765
1212 4 0.359189 0.223757 0.37582
1211 4 0.328579 0.224608 0.415474
804 4 0.378526 0.223754 0.36831
802 2 0.385614 0.245554 0.362955
2580 4 0.0118623 0.324261 0.346051
2535 4 0.0532575 0.245822 0.397936
1220 4 0.0297757 0.330191 0.341502
1151 4 0.0484499 0.259222 0.413534
1150 2 0.0498259 0.283546 0.414195
457 2 0.0720455 0.329532 0.407595
459 4 0.0691865 0.305727 0.404858
4299 4 0.122401 0.31377 0.336959
472 2 0.368517 0.292906 0.335295
736 2 0.313883 0.319699 0.364275
737 4 0.325377 0.303186 0.381004
803 4 0.392701 0.267355 0.3576
474 4 0.3887 0.286076 0.350102
613 2 0.386943 0.332486 0.404892
2935 2 0.500994 0.269117 0.348337
1219 2 0.0412754 0.346988 0.352997
1221 4 0.0527751 0.363784 0.364492
2529 4 0.0839636 0.367077 0.400923
458 4 0.0749045 0.353336 0.410333
1641 4 0.0222582 0.410544 0.390368
2527 2 0.0749818 0.38778 0.413921
1397 4 0.114495 0.330086 0.346403
1396 2 0.125715 0.348349 0.355413
1398 4 0.136936 0.366612 0.364423
678 4 0.138705 0.385822 0.367598
676 2 0.14873 0.386861 0.390397
677 4 0.158755 0.387899 0.413197
538 2 0.272618 0.399094 0.39884
539 4 0.292965 0.38126 0.395171
249 4 0.311376 0.333757 0.329176
738 4 0.302389 0.336212 0.347546
768 4 0.304836 0.371533 0.379454
766 2 0.327231 0.378954 0.376811
767 4 0.349626 0.386375 0.374169
1473 4 0.356318 0.402857 0.366367
615 4 0.400395 0.344648 0.389641
266 4 0.40745 0.344348 0.370547
265 2 0.415689 0.350014 0.348023
1639 2 0.0110214 0.426838 0.373317
680 4 0.00283765 0.45242 0.338572
1159 2 0.0268573 0.500358 0.382213
1161 4 0.0433918 0.478843 0.380816
1444 2 0.0722665 0.448305 0.379807
1445 4 0.0573604 0.467028 0.391706
1446 4 0.0871726 0.429583 0.367909
540 4 0.252272 0.416928 0.402509
1471 2 0.357577 0.426573 0.360698
560 4 0.378535 0.448746 0.353125
1472 4 0.358837 0.45029 0.355029
559 2 0.397166 0.462228 0.353169
561 4 0.415796 0.47571 0.353212
1587 4 0.430884 0.486782 0.355929
3070 2 0.495833 0.480462 0.386447
3071 4 0.48178 0.493431 0.368568
1600 2 0.130586 0.0583723 0.494153
1602 4 0.132326 0.0338963 0.489794
1601 4 0.128845 0.0828484 0.498512
1426 2 0.367405 0.0229916 0.4604
1428 4 0.356033 0.041761 0.474857
1817 4 0.388241 0.0131599 0.432182
1427 4 0.378777 0.00422212 0.445944
1490 4 0.0271505 0.166514 0.459349
1489 2 0.00766306 0.162958 0.473751
721 2 0.0685469 0.153119 0.456776
735 4 0.120556 0.102467 0.496883
723 4 0.0910581 0.141396 0.448318
734 4 0.096616 0.123255 0.456133
733 2 0.108586 0.112861 0.476508
238 2 0.16205 0.161351 0.442666
792 4 0.216546 0.0993578 0.430849
790 2 0.194489 0.110217 0.441005
240 4 0.172754 0.137351 0.439761
791 4 0.172431 0.121075 0.45116
1200 4 0.228347 0.113531 0.427713
1199 4 0.272692 0.128824 0.420736
1217 4 0.277587 0.0842334 0.478758
1198 2 0.250519 0.121178 0.424225
1216 2 0.282049 0.102504 0.493966
1026 4 0.382629 0.152599 0.472867
1024 2 0.372762 0.14465 0.493708
2658 4 0.384708 0.157465 0.45414
256 2 0.443094 0.0855994 0.434163
2657 4 0.404201 0.141987 0.40962
2656 2 0.394454 0.149726 0.43188
258 4 0.451305 0.0844577 0.457823
900 4 0.461727 0.0982564 0.464623
898 2 0.474772 0.0931152 0.48588
722 4 0.0460357 0.164842 0.465234
502 2 0.113472 0.247158 0.459356
504 4 0.138113 0.237032 0.460749
717 4 0.150446 0.232297 0.476701
715 2 0.15795 0.209103 0.467975
239 4 0.151345 0.18535 0.445572
716 4 0.165453 0.185909 0.459249
600 4 0.284512 0.181192 0.41769
954 4 0.434743 0.164538 0.484388
952 2 0.440275 0.170566 0.461041
953 4 0.445806 0.176593 0.437694
2719 2 9.74243e-06 0.264173 0.465856
2847 4 0.038939 0.255179 0.485401
2720 4 0.0242259 0.257109 0.472842
3128 4 0.0224597 0.326032 0.487029
1152 4 0.0512019 0.30787 0.414857
383 4 0.0749885 0.265696 0.472884
382 2 0.0778609 0.288904 0.478957
384 4 0.0807333 0.312111 0.48503
503 4 0.0888304 0.257284 0.457964
1178 4 0.100878 0.312396 0.48834
1177 2 0.111009 0.328956 0.47496
651 4 0.277689 0.318366 0.449867
649 2 0.300554 0.304774 0.44502
650 4 0.323419 0.291183 0.440172
873 4 0.337219 0.298373 0.45077
871 2 0.359289 0.302335 0.441259
614 4 0.373491 0.320323 0.420144
872 4 0.381358 0.306297 0.431749
1009 2 0.50015 0.316066 0.449166
1011 4 0.479023 0.33324 0.451384
2958 4 0.00560247 0.335772 0.480557
3127 2 0.0430819 0.334672 0.49469
1121 4 0.0563303 0.414783 0.443756
3354 4 0.0958752 0.419075 0.496726
2528 4 0.066 0.408483 0.426919
1179 4 0.121141 0.345516 0.461579
696 4 0.121694 0.365561 0.463039
695 4 0.145347 0.388573 0.428417
694 2 0.13352 0.377067 0.445728
728 4 0.285949 0.334307 0.458746
727 2 0.28649 0.345215 0.481105
1455 4 0.383595 0.40676 0.492416
2536 2 0.491771 0.403206 0.449914
2456 4 0.458456 0.332569 0.45087
2455 2 0.458072 0.357154 0.452974
2538 4 0.472035 0.392175 0.455544
2457 4 0.457687 0.381739 0.455078
3822 4 0.00508229 0.459291 0.495256
3820 2 0.998108 0.436949 0.492986
1122 4 0.0882618 0.425257 0.479075
1120 2 0.0722961 0.42002 0.461416
936 4 0.117024 0.450776 0.440673
935 4 0.141198 0.47445 0.474314
934 2 0.129111 0.462613 0.457493
1682 4 0.156601 0.484208 0.478209
2344 2 0.240223 0.478716 0.446401
2223 4 0.200397 0.466979 0.450517
2221 2 0.18521 0.487546 0.442136
1173 4 0.236115 0.428912 0.484788
1171 2 0.21794 0.419975 0.497194
2345 4 0.217192 0.474762 0.453173
2346 4 0.263253 0.48267 0.43963
264 4 0.2798 0.490629 0.440919
2459 4 0.0338995 0.0708021 0.546999
2458 2 0.0317697 0.0730216 0.571844
2132 4 0.136142 0.0699805 0.551214
2131 2 0.129262 0.0551793 0.568963
857 4 0.153894 0.0731786 0.543517
856 2 0.177477 0.0663297 0.55239
858 4 0.20106 0.0594809 0.561263
887 4 0.21213 0.0679652 0.575722
2114 4 0.184996 0.00257262 0.518356
3159 4 0.401043 0.072788 0.529042
1142 4 0.414457 0.0645907 0.54268
1141 2 0.421591 0.0406656 0.535989
1143 4 0.428725 0.0167405 0.529299
411 4 0.448917 0.0118009 0.523745
1058 4 0.292071 0.14117 0.564886
1218 4 0.28651 0.120775 0.509174
1057 2 0.297589 0.130636 0.542501
1059 4 0.303108 0.120103 0.520115
3158 4 0.374086 0.117737 0.517893
1025 4 0.362895 0.136702 0.51455
1262 4 0.362032 0.154752 0.573036
3157 2 0.387565 0.0952626 0.523467
1084 2 0.396337 0.151882 0.569301
1085 4 0.416767 0.137173 0.559679
2508 4 0.433676 0.145924 0.565661
2506 2 0.456926 0.145819 0.574907
899 4 0.487818 0.087974 0.507137
3267 4 0.056741 0.20016 0.568755
3266 4 0.0681554 0.211476 0.521939
3265 2 0.0624482 0.205818 0.545347
710 4 0.316597 0.206327 0.514699
709 2 0.331461 0.21387 0.532167
711 4 0.346325 0.221414 0.549635
890 4 0.357244 0.225855 0.534878
889 2 0.377882 0.236587 0.535646
2846 4 0.0335918 0.282241 0.527451
2845 2 0.0362654 0.26871 0.506426
1258 2 0.156938 0.318348 0.580518
807 4 0.318069 0.291905 0.583058
373 2 0.335389 0.32949 0.50416
1167 4 0.369106 0.303017 0.517869
891 4 0.398521 0.247319 0.536414
374 4 0.360161 0.32018 0.506403
1165 2 0.376364 0.302623 0.541814
1166 4 0.383622 0.302229 0.56576
798 4 0.396209 0.2892 0.577327
801 4 0.412046 0.258826 0.528708
799 2 0.427275 0.274772 0.522125
800 4 0.442504 0.290718 0.515542
3380 4 0.452513 0.310541 0.550439
3379 2 0.464942 0.305431 0.57204
3318 4 0.0307371 0.38401 0.542062
3316 2 0.0429012 0.372335 0.561749
3129 4 0.063704 0.343312 0.502352
3352 2 0.116388 0.414739 0.511457
3262 2 0.153143 0.375649 0.546021
3264 4 0.159483 0.359763 0.565014
3263 4 0.146803 0.391534 0.527029
3353 4 0.136901 0.410403 0.526189
1260 4 0.156885 0.34057 0.569759
1172 4 0.199765 0.411037 0.509599
816 4 0.290828 0.339263 0.56593
375 4 0.310616 0.3388 0.501917
814 2 0.29416 0.342142 0.541393
815 4 0.297493 0.34502 0.516856
729 4 0.28703 0.356124 0.503464
1237 2 0.385172 0.406379 0.555681
1239 4 0.407028 0.398442 0.543645
1453 2 0.400207 0.389868 0.504892
1454 4 0.41682 0.372976 0.517367
1238 4 0.363316 0.414317 0.567718
663 4 0.434619 0.378278 0.514773
662 4 0.466191 0.334388 0.518512
661 2 0.450405 0.356333 0.516643
982 2 0.999091 0.471446 0.536149
984 4 0.00799661 0.464195 0.513459
617 4 0.233258 0.487742 0.586527
1400 4 0.377725 0.421314 0.506795
1399 2 0.381633 0.444885 0.50858
2436 4 0.392314 0.476766 0.52605
1401 4 0.385541 0.468455 0.510364
335 4 0.36194 0.427921 0.58339
2434 2 0.380138 0.500471 0.526867
2173 2 0.461445 0.474783 0.515176
2175 4 0.483777 0.459162 0.515524
2174 4 0.439113 0.490404 0.514828
881 4 0.442176 0.497999 0.532309
2460 4 0.02964 0.0752412 0.596688
2133 4 0.122382 0.0403781 0.586712
3732 4 0.155797 0.0176808 0.619558
49 3 0.143972 0.0613802 0.667107
3730 2 0.140059 0.00123405 0.617301
48 3 0.172683 0.0362991 0.651944
843 4 0.169793 0.0229888 0.633768
886 2 0.204154 0.0727406 0.599211
888 4 0.196179 0.077516 0.6227
831 4 0.192316 0.077159 0.64365
50 3 0.177441 0.0715903 0.658927
46 1 0.167351 0.0544911 0.6662
841 2 0.193874 0.0160545 0.626302
842 4 0.217955 0.00912025 0.618836
2299 2 0.287273 0.0167124 0.64923
2301 4 0.295048 0.0381268 0.654831
1050 4 0.308506 0.037828 0.639359
1048 2 0.322422 0.0554504 0.644118
1049 4 0.336338 0.0730727 0.648876
725 4 0.390369 0.0688077 0.653184
724 2 0.396657 0.052076 0.634895
3426 4 0.369715 0.0756875 0.655637
726 4 0.402945 0.0353443 0.616606
1163 4 0.4099 0.0175833 0.606469
1162 2 0.429619 0.0043908 0.618729
1272 4 0.0499905 0.14303 0.63097
1270 2 0.0293879 0.160828 0.628585
1523 4 0.0658539 0.139558 0.643219
1522 2 0.0855928 0.149283 0.634923
2915 4 0.115821 0.151877 0.642877
1524 4 0.105332 0.159008 0.626626
2914 2 0.134023 0.164218 0.650346
829 2 0.197097 0.0991259 0.651795
830 4 0.201877 0.121093 0.65994
1086 4 0.375907 0.166592 0.578923
1261 2 0.342124 0.157523 0.588552
1263 4 0.322215 0.160294 0.604068
3424 2 0.366376 0.100511 0.658415
3425 4 0.363037 0.125334 0.661192
641 4 0.485528 0.140855 0.603694
2507 4 0.480176 0.145713 0.584153
640 2 0.492431 0.121834 0.619546
642 4 0.499334 0.102813 0.635397
1271 4 0.00878518 0.178625 0.626199
864 4 0.0143799 0.192275 0.614056
862 2 0.00977558 0.217069 0.617283
863 4 0.00517122 0.241863 0.62051
821 4 0.0582723 0.20514 0.588156
820 2 0.0707673 0.216653 0.604902
822 4 0.0832623 0.228166 0.621649
1066 2 0.0840337 0.232613 0.659078
1068 4 0.0800568 0.242504 0.63622
2916 4 0.152225 0.176559 0.657815
1282 2 0.154068 0.217114 0.66212
1283 4 0.160875 0.239556 0.660155
1284 4 0.14726 0.194671 0.664085
960 4 0.266193 0.200957 0.650832
1394 4 0.273964 0.19835 0.632733
1393 2 0.292249 0.1881 0.616927
1395 4 0.310534 0.177851 0.60112
806 4 0.344029 0.24665 0.594693
669 4 0.16157 0.25528 0.647727
1259 4 0.156991 0.296125 0.591277
668 4 0.155812 0.286382 0.608569
667 2 0.158691 0.270831 0.628148
1137 4 0.28886 0.323085 0.629665
805 2 0.331049 0.269277 0.588875
796 2 0.409335 0.288149 0.598697
797 4 0.422462 0.287098 0.620067
1007 4 0.41753 0.272546 0.632864
1006 2 0.429222 0.268715 0.654988
3065 4 0.484176 0.29473 0.610874
3064 2 0.493504 0.274173 0.623949
3381 4 0.477372 0.30032 0.59364
3317 4 0.0550653 0.360659 0.581437
500 4 0.0636474 0.375088 0.59149
499 2 0.0721638 0.394514 0.601664
2243 4 0.133948 0.37975 0.653011
3431 4 0.218687 0.401971 0.586953
3114 4 0.195624 0.364001 0.655851
1230 4 0.257796 0.406954 0.656995
1135 2 0.291826 0.333175 0.607293
2309 4 0.275565 0.402164 0.647398
1136 4 0.294792 0.343265 0.584921
2308 2 0.290984 0.412245 0.662449
3371 4 0.495442 0.329896 0.639913
501 4 0.0806801 0.413939 0.611838
2045 4 0.168606 0.45781 0.587868
2044 2 0.161211 0.481351 0.595679
3430 2 0.201717 0.423044 0.58422
1228 2 0.235993 0.422115 0.651386
3432 4 0.184748 0.444117 0.581488
1229 4 0.214189 0.437277 0.645777
616 2 0.256227 0.488643 0.595978
618 4 0.279195 0.489545 0.60543
334 2 0.374009 0.444769 0.594034
336 4 0.386077 0.461618 0.604678
1267 2 0.497287 0.437095 0.666805
2316 4 0.00354374 0.0556896 0.694139
2314 2 0.0274382 0.0449856 0.699432
2315 4 0.0513326 0.0342815 0.704724
2375 4 0.0565533 0.0187704 0.692409
977 4 0.171609 0.0641426 0.707819
944 4 0.166955 0.0453877 0.707391
943 2 0.168304 0.0360073 0.730566
47 3 0.175185 0.0482081 0.687289
1780 2 0.00804241 0.114085 0.712913
1781 4 0.020789 0.132179 0.719367
965 4 0.0298242 0.146273 0.724054
964 2 0.0300006 0.167396 0.71128
1782 4 0.995296 0.0959898 0.706459
3236 4 0.140455 0.121866 0.695411
3235 2 0.137139 0.145606 0.703203
3237 4 0.133824 0.169345 0.710994
978 4 0.147891 0.11167 0.711269
516 4 0.205621 0.135689 0.670745
976 2 0.15975 0.0879064 0.709544
514 2 0.220926 0.152657 0.670303
1225 2 0.286304 0.128288 0.734979
1227 4 0.30946 0.118659 0.726405
1226 4 0.263147 0.137918 0.743552
917 4 0.312652 0.106938 0.710121
916 2 0.336366 0.102312 0.719075
918 4 0.360081 0.097686 0.728029
3356 4 0.354404 0.091725 0.746605
4467 4 0.488584 0.107494 0.744834
1064 4 0.489689 0.127337 0.743631
966 4 0.0301771 0.188519 0.698506
893 4 0.0201972 0.245278 0.721792
1067 4 0.0880106 0.222721 0.681937
962 4 0.0820637 0.21009 0.694833
961 2 0.101937 0.197245 0.707153
963 4 0.121809 0.1844 0.719474
958 2 0.255156 0.189109 0.668478
515 4 0.236231 0.169626 0.669862
959 4 0.244119 0.177261 0.686124
3038 4 0.00975461 0.309217 0.696022
892 2 0.0329897 0.263035 0.714427
3037 2 0.999998 0.325968 0.678726
894 4 0.0457823 0.280792 0.707063
3077 4 0.046551 0.304669 0.671248
3076 2 0.0595592 0.322233 0.67868
1130 4 0.129891 0.251831 0.709289
1129 2 0.138011 0.271771 0.7188
1131 4 0.146132 0.291711 0.728311
1039 2 0.13687 0.323846 0.741812
1040 4 0.155404 0.30627 0.732867
9 3 0.210748 0.323743 0.725515
8 3 0.222251 0.286529 0.719476
6 1 0.22308 0.307827 0.711535
10 3 0.214489 0.310202 0.690407
7 3 0.245346 0.310822 0.711227
3113 4 0.208762 0.330985 0.692714
941 4 0.289962 0.286616 0.752389
942 4 0.331934 0.281182 0.724269
1098 4 0.343242 0.294555 0.724877
1096 2 0.348915 0.317003 0.719688
940 2 0.310948 0.283899 0.738329
1008 4 0.440914 0.264885 0.677111
2121 4 0.44151 0.283453 0.682742
2119 2 0.456213 0.29446 0.697762
2120 4 0.470917 0.305468 0.712783
3078 4 0.0725674 0.339797 0.686112
948 4 0.0796282 0.35526 0.69384
946 2 0.0922799 0.352357 0.715511
947 4 0.104932 0.349454 0.737182
2242 2 0.143786 0.392792 0.67052
2244 4 0.153625 0.405835 0.688029
1245 4 0.193317 0.335445 0.729882
3112 2 0.202193 0.347493 0.674282
1097 4 0.354589 0.33945 0.714498
2310 4 0.306403 0.422327 0.677501
1029 4 0.374961 0.342957 0.715557
1027 2 0.376133 0.357598 0.735466
2592 4 0.478782 0.33566 0.744566
1205 4 0.493142 0.341833 0.733625
1937 4 0.0675701 0.465233 0.728866
2171 4 0.0573366 0.478259 0.740701
1936 2 0.0720738 0.455125 0.706154
1938 4 0.0765776 0.445017 0.683443
1904 4 0.187702 0.475332 0.741356
1903 2 0.209445 0.458878 0.742656
2373 4 0.249696 0.447859 0.745036
1905 4 0.231187 0.442423 0.743956
2015 4 0.3108 0.423729 0.696692
2014 2 0.314815 0.441308 0.712959
2016 4 0.31883 0.458887 0.729226
772 2 0.343131 0.47952 0.745542
2741 4 0.386461 0.476644 0.733904
2740 2 0.408079 0.483947 0.727124
774 4 0.367934 0.476812 0.740383
2742 4 0.429696 0.49125 0.720345
2027 4 0.447876 0.485159 0.710393
1269 4 0.495234 0.421543 0.685773
2269 2 0.0120732 0.0163294 0.755681
1891 2 0.0581327 0.0138016 0.79199
1892 4 0.0466936 0.0119623 0.770007
1893 4 0.0695718 0.0156408 0.813974
2511 4 0.0823849 0.0087642 0.829772
2271 4 0.0367129 0.00684028 0.752637
907 2 0.174733 0.00308689 0.783861
945 4 0.169653 0.0266269 0.753741
908 4 0.16671 0.0253449 0.773201
3357 4 0.381538 0.0751447 0.787134
44 3 0.382378 0.0765121 0.82991
845 4 0.432236 0.00934182 0.815283
1092 4 0.424857 0.0738321 0.826232
1091 4 0.437057 0.0267727 0.809734
1090 2 0.430957 0.0503024 0.817983
2998 2 0.124959 0.160888 0.812155
3000 4 0.120589 0.148445 0.791498
1079 4 0.105279 0.159325 0.780969
3009 4 0.225226 0.12588 0.814921
3007 2 0.224003 0.148028 0.826191
1043 4 0.22462 0.121262 0.794598
1044 4 0.247418 0.135569 0.75395
1042 2 0.236019 0.128416 0.774274
42 3 0.386697 0.0906673 0.795776
902 4 0.346638 0.153505 0.786206
3355 2 0.367971 0.0834349 0.76687
41 1 0.390337 0.0933035 0.818255
43 3 0.37869 0.114066 0.824944
2052 4 0.378309 0.134581 0.819236
45 3 0.413005 0.0919623 0.821983
2050 2 0.39582 0.144321 0.831855
1063 2 0.48662 0.146613 0.759551
1065 4 0.483551 0.165889 0.775472
3029 4 0.0161679 0.176904 0.758015
2049 4 0.0120622 0.19681 0.754127
1078 2 0.0879644 0.178279 0.772447
1080 4 0.0706498 0.197234 0.763925
1095 4 0.221467 0.189925 0.833412