ITEM: TIMESTEP
2818500
ITEM: NUMBER OF ATOMS
4590
ITEM: BOX BOUNDS xy xz yz pp pp pp
-9.9985700000000008e+00 9.9985700000000008e+00 0.0000000000000000e+00
-9.9985700000000008e+00 9.9985700000000008e+00 0.0000000000000000e+00
-9.9985700000000008e+00 9.9985700000000008e+00 0.0000000000000000e+00
ITEM: ATOMS id type xs ys zs
2523 4 0.067577 0.0312915 0.0207666
2522 4 0.0953142 0.0499239 0.983561
2521 2 0.0814456 0.0406077 0.00216381
53 3 0.235649 0.0846098 0.0315037
52 3 0.225631 0.0675046 0.999571
51 1 0.240163 0.0667559 0.0173879
1347 4 0.205912 0.0626588 0.00493193
4233 4 0.202105 0.994429 0.0371756
4231 2 0.184393 0.999935 0.0539438
4028 4 0.216753 0.00908223 0.0389257
54 3 0.237117 0.0467354 0.0287149
55 3 0.26155 0.068152 0.00968891
671 4 0.331324 0.0819152 0.0367931
465 4 0.350564 0.0177828 0.0550242
463 2 0.372153 0.0269881 0.0464004
1570 2 0.422879 0.052669 0.0403969
464 4 0.393742 0.0361935 0.0377766
1571 4 0.403315 0.0494174 0.0251707
1572 4 0.442444 0.0559206 0.0556232
1935 4 0.463173 0.0570955 0.0549392
1933 2 0.477042 0.0511182 0.0350119
1934 4 0.490911 0.0451408 0.0150846
1566 4 0.0210694 0.100768 0.0561397
1564 2 0.0419911 0.109268 0.0668737
1565 4 0.0629128 0.117767 0.0776077
2400 4 0.0794666 0.0906964 0.0221662
486 4 0.0653059 0.0996885 0.0115481
2398 2 0.103317 0.0970562 0.026153
2399 4 0.127167 0.103416 0.0301397
699 4 0.131732 0.12161 0.0256495
697 2 0.149854 0.121472 0.0428762
867 4 0.149911 0.16211 0.0741174
698 4 0.167976 0.121335 0.0601029
3410 4 0.225228 0.1017 0.0245621
3409 2 0.205393 0.108848 0.0380041
3411 4 0.185558 0.115995 0.051446
3509 4 0.279624 0.0728547 0.00343423
3508 2 0.296457 0.0819975 0.0195036
3510 4 0.31329 0.0911403 0.035573
670 2 0.349044 0.0984264 0.0430021
672 4 0.366765 0.114938 0.049211
2673 4 0.368818 0.125805 0.0650372
2671 2 0.356124 0.136397 0.0837953
655 2 0.0537069 0.21913 0.0254737
657 4 0.0398436 0.201064 0.015148
656 4 0.0675703 0.237196 0.0357994
3504 4 0.23283 0.198403 0.0784895
3502 2 0.228937 0.208114 0.0557798
3503 4 0.225044 0.217825 0.0330702
3083 4 0.367336 0.198077 0.0537165
3082 2 0.369351 0.208692 0.0311679
3084 4 0.371366 0.219308 0.00861937
1785 4 0.470178 0.221183 0.0120008
911 4 0.468513 0.235207 0.0259103
912 4 0.49979 0.22813 0.0642825
910 2 0.484151 0.231669 0.0450964
3518 4 0.0764718 0.252081 0.0268068
3517 2 0.0919235 0.256965 0.0458484
3444 4 0.10612 0.324674 0.0475574
3442 2 0.0994688 0.308923 0.0293139
3519 4 0.107375 0.26185 0.0648901
3443 4 0.0928179 0.293171 0.0110703
2889 4 0.226861 0.279593 0.0323681
2887 2 0.234354 0.292969 0.0126169
1765 2 0.303884 0.256838 0.0716159
1766 4 0.317314 0.261526 0.0510529
2476 2 0.3278 0.251642 0.0105555
2477 4 0.324387 0.251264 0.0353224
3030 4 0.128122 0.359737 0.0185692
2820 4 0.241824 0.404002 0.0794579
2952 4 0.247278 0.416638 0.0647614
2992 2 0.276076 0.359143 0.0524263
2993 4 0.289156 0.370833 0.0346089
4533 4 0.305095 0.381231 0.0286861
4531 2 0.328954 0.376455 0.0344412
2994 4 0.262996 0.347453 0.0702437
4532 4 0.352813 0.371679 0.0401963
1140 4 0.369199 0.379126 0.0329839
1138 2 0.378447 0.367475 0.0128861
4367 4 0.0133578 0.417578 0.0337314
1664 4 0.0304781 0.425579 0.0263193
1663 2 0.0505906 0.438232 0.0341016
1665 4 0.0707031 0.450885 0.041884
482 4 0.0461575 0.500309 0.0654732
1559 4 0.0892682 0.457605 0.0427692
1558 2 0.111467 0.451953 0.0327459
1560 4 0.133666 0.446302 0.0227226
1583 4 0.143718 0.440912 0.0392758
1582 2 0.167205 0.449479 0.0388797
1584 4 0.190692 0.458045 0.0384837
3710 4 0.20344 0.451996 0.0234723
3709 2 0.225672 0.463194 0.0258227
3711 4 0.247905 0.474392 0.0281731
2950 2 0.26991 0.427093 0.0628454
2951 4 0.292542 0.437548 0.0609293
246 4 0.263589 0.478261 0.015476
133 3 0.306022 0.45195 0.0657763
132 3 0.317482 0.482756 0.0475468
131 1 0.320735 0.469883 0.0663316
245 4 0.300226 0.493376 0.0459732
244 2 0.281907 0.485818 0.0307246
134 3 0.34262 0.462174 0.0664437
4506 4 0.381269 0.445684 0.0226601
4505 4 0.349465 0.472597 0.0503171
4504 2 0.365367 0.459141 0.0364886
2772 4 0.399401 0.452507 0.0212087
3532 2 0.494096 0.423684 0.0800526
2715 4 0.0776884 0.043556 0.159004
3278 4 0.0822659 0.0292236 0.144104
3277 2 0.0749775 0.00578111 0.139361
2713 2 0.0800258 0.0672413 0.151342
477 4 0.14903 0.00563672 0.09676
475 2 0.159371 0.01968 0.114678
476 4 0.169713 0.0337232 0.132596
2859 4 0.184847 0.0275879 0.144618
2857 2 0.185913 0.0425013 0.164659
579 4 0.43832 0.0188406 0.0920762
577 2 0.461143 0.00864638 0.0926848
578 4 0.483966 0.998452 0.0932934
531 4 0.027245 0.129908 0.142542
365 4 0.0333872 0.143659 0.1561
529 2 0.00719025 0.136206 0.129003
2714 4 0.0823632 0.0909266 0.14368
2639 4 0.0777272 0.125203 0.0898476
866 4 0.100915 0.170505 0.0795616
2638 2 0.0796092 0.117291 0.113492
2640 4 0.0814911 0.109378 0.137136
865 2 0.125413 0.166307 0.0768395
2661 4 0.152118 0.160137 0.0942002
3498 4 0.323875 0.149581 0.106329
3496 2 0.309195 0.153139 0.126254
2672 4 0.34343 0.146989 0.102553
3363 4 0.496522 0.094185 0.096874
2912 4 0.478623 0.087612 0.102605
2913 4 0.438404 0.0972887 0.130703
2911 2 0.458513 0.0924503 0.116654
1497 4 0.478693 0.145929 0.164425
2945 4 0.488041 0.140448 0.147984
2844 4 0.00563368 0.215205 0.0876234
2842 2 0.0104146 0.236115 0.100472
2659 2 0.170379 0.168602 0.109034
1047 4 0.207756 0.178177 0.129349
2660 4 0.18864 0.177068 0.123868
1045 2 0.22195 0.191245 0.113444
1046 4 0.236143 0.204314 0.0975387
2891 4 0.255718 0.203585 0.0954737
2890 2 0.263413 0.227356 0.0964157
3497 4 0.294514 0.156697 0.146179
2766 4 0.279208 0.164343 0.156079
2717 4 0.378882 0.174736 0.145048
22 3 0.383873 0.164123 0.160934
2718 4 0.389193 0.203414 0.105399
2716 2 0.384038 0.189075 0.125224
875 4 0.474245 0.22309 0.136977
874 2 0.487461 0.230009 0.157044
2724 4 0.457146 0.216985 0.148937
2722 2 0.434669 0.211445 0.158385
2843 4 0.0151956 0.257025 0.113322
3212 4 0.0414233 0.296759 0.162465
3211 2 0.055552 0.317073 0.158876
3213 4 0.0696807 0.337388 0.155288
2892 4 0.271108 0.251128 0.0973576
1767 4 0.290454 0.25215 0.092179
1016 4 0.258511 0.308541 0.17223
328 2 0.418026 0.317393 0.0993542
330 4 0.415719 0.294996 0.08848
4031 4 0.434408 0.323913 0.164086
105 3 0.415198 0.325091 0.160282
4030 2 0.45646 0.313333 0.158897
4032 4 0.478512 0.302753 0.153708
2555 4 0.0143991 0.403996 0.157775
2554 2 0.0366993 0.394396 0.163753
561 4 0.0689346 0.402007 0.170792
2818 2 0.245145 0.383824 0.0938453
2819 4 0.248465 0.363645 0.108233
1439 4 0.211157 0.402217 0.166549
3543 4 0.312323 0.37829 0.1403
3541 2 0.31081 0.395791 0.158093
3554 4 0.322936 0.371917 0.125361
2451 4 0.381654 0.386165 0.0937831
3555 4 0.369477 0.377008 0.107791
2449 2 0.401393 0.372526 0.100822
3553 2 0.346207 0.374463 0.116576
102 3 0.390435 0.34116 0.137446
101 1 0.400819 0.342593 0.157922
329 4 0.420334 0.339789 0.110228
2450 4 0.421131 0.358887 0.107861
1787 4 0.47872 0.380338 0.167872
1788 4 0.430978 0.366059 0.163681
3341 4 0.487347 0.396699 0.160974
1786 2 0.454849 0.373198 0.165777
4360 2 0.0398689 0.458649 0.155278
4362 4 0.0163768 0.460294 0.146875
4361 4 0.063361 0.457004 0.16368
1794 4 0.100233 0.441699 0.14342
3647 4 0.147479 0.451972 0.0967429
1792 2 0.119687 0.442367 0.127728
1793 4 0.139141 0.443036 0.112036
3646 2 0.160214 0.472406 0.103483
750 4 0.239699 0.48077 0.0957121
749 4 0.191091 0.485677 0.106391
3648 4 0.17295 0.492841 0.110223
1440 4 0.221251 0.449111 0.152412
748 2 0.215395 0.483223 0.101052
1438 2 0.216204 0.425664 0.15948
3257 4 0.255889 0.493368 0.0989618
3256 2 0.279868 0.495462 0.0921946
135 3 0.316861 0.482541 0.0848626
3258 4 0.303848 0.497557 0.0854274
702 4 0.395797 0.464142 0.136708
700 2 0.414482 0.453922 0.149807
701 4 0.433168 0.443702 0.162906
3534 4 0.481857 0.443819 0.0884163
324 4 0.446134 0.428511 0.165788
558 4 0.0210516 0.0724725 0.231968
2472 4 0.0410115 0.0721652 0.23025
2470 2 0.0659799 0.0722383 0.231579
556 2 0.996863 0.073391 0.225701
2471 4 0.0909484 0.0723115 0.232908
706 2 0.208237 0.0224352 0.22804
20 3 0.184189 0.055367 0.204329
2858 4 0.18698 0.0574146 0.184701
707 4 0.212813 0.0226298 0.203459
708 4 0.20366 0.0222405 0.25262
1199 4 0.249905 0.0617823 0.222498
16 1 0.180321 0.0765674 0.211693
1198 2 0.253754 0.0709348 0.245446
548 4 0.46078 0.0428711 0.202224
547 2 0.483106 0.0447112 0.191118
3677 4 0.480931 0.0434727 0.241145
549 4 0.505432 0.0465513 0.180012
1389 4 0.498373 0.0326553 0.244502
364 2 0.0388251 0.150698 0.179468
366 4 0.044263 0.157736 0.202836
19 3 0.157484 0.0803614 0.213259
312 4 0.105655 0.0860325 0.237038
310 2 0.130566 0.0870203 0.23513
311 4 0.155478 0.0880082 0.233223
18 3 0.190311 0.0797015 0.2324
3479 4 0.173458 0.08753 0.2423
17 3 0.18934 0.0915446 0.196743
24 3 0.416794 0.150738 0.173172
1495 2 0.453847 0.144951 0.161801
1496 4 0.429001 0.143972 0.159176
357 4 0.0582505 0.167526 0.213893
355 2 0.0716946 0.188539 0.212194
356 4 0.0851388 0.209552 0.210495
660 4 0.102078 0.210446 0.220546
658 2 0.12448 0.208688 0.209581
659 4 0.146882 0.20693 0.198615
3593 4 0.260659 0.241498 0.219731
3592 2 0.275141 0.221352 0.21663
3594 4 0.289623 0.201206 0.213528
2765 4 0.286063 0.188641 0.199244
2764 2 0.282635 0.176492 0.177661
23 3 0.397102 0.175508 0.194221
21 1 0.402975 0.16937 0.172629
25 3 0.413612 0.186634 0.162264
2723 4 0.412191 0.205906 0.167833
2596 2 0.465042 0.247731 0.226877
2598 4 0.440871 0.242555 0.223112
705 4 0.432071 0.234027 0.237831
703 2 0.427737 0.210302 0.244427
363 4 0.0217253 0.295271 0.16666
361 2 0.00126572 0.289941 0.180009
3657 4 0.243787 0.249931 0.214789
3656 4 0.196639 0.255378 0.199035
3655 2 0.220213 0.252655 0.206912
434 4 0.184159 0.317859 0.235947
3195 4 0.290073 0.308884 0.219956
1015 2 0.282279 0.31486 0.176741
1017 4 0.306046 0.321178 0.181252
3193 2 0.301293 0.288231 0.228486
3194 4 0.312513 0.267578 0.237015
1573 2 0.345848 0.334171 0.187879
1574 4 0.370844 0.333596 0.187613
2597 4 0.489212 0.252907 0.230641
2556 4 0.0589995 0.384796 0.169731
559 2 0.0827174 0.406531 0.191158
560 4 0.0965001 0.411056 0.211523
265 2 0.135439 0.404906 0.215793
267 4 0.111448 0.39912 0.219813
266 4 0.159429 0.410691 0.211772
108 3 0.177106 0.407404 0.205159
106 1 0.196393 0.394599 0.203596
107 3 0.192157 0.373692 0.212204
435 4 0.192763 0.355904 0.204653
433 2 0.188461 0.336882 0.2203
109 3 0.213453 0.404445 0.215861
1742 4 0.22335 0.422368 0.210613
110 3 0.202652 0.392606 0.18179
1575 4 0.320852 0.334746 0.188145
1741 2 0.247544 0.416088 0.211255
1743 4 0.271738 0.409808 0.211897
104 3 0.384683 0.341885 0.174581
1472 4 0.351003 0.40743 0.231353
1471 2 0.373148 0.416812 0.224514
103 3 0.412479 0.362624 0.159033
1624 2 0.490455 0.399043 0.217341
4001 4 0.488112 0.359912 0.230083
1626 4 0.496911 0.378813 0.230541
644 4 0.436011 0.393871 0.24188
3542 4 0.309297 0.413292 0.175887
569 4 0.300919 0.414185 0.195185
568 2 0.320082 0.418267 0.210719
1752 4 0.322501 0.503602 0.218494
1750 2 0.314722 0.489105 0.237323
570 4 0.339244 0.422349 0.226253
1473 4 0.395293 0.426194 0.217675
2622 4 0.409207 0.440533 0.215621
322 2 0.463279 0.433597 0.183263
1625 4 0.484 0.419273 0.20414
323 4 0.480424 0.438683 0.200739
2620 2 0.430314 0.444627 0.228385
2621 4 0.451421 0.448721 0.241149
3401 4 0.20393 0.0395948 0.262551
3402 4 0.178015 0.0488261 0.304312
3400 2 0.190972 0.0442104 0.283432
1517 4 0.179854 0.0683747 0.312079
1516 2 0.189224 0.0825053 0.330456
1200 4 0.257603 0.0800873 0.268394
3676 2 0.458524 0.0349212 0.248213
3678 4 0.436116 0.0263696 0.255281
1701 4 0.476389 0.041035 0.308015
1699 2 0.468381 0.0267571 0.326914
1338 4 0.491727 0.0529753 0.315529
3478 2 0.181394 0.103875 0.259477
3480 4 0.18933 0.12022 0.276654
744 4 0.205919 0.120262 0.288678
742 2 0.227318 0.132929 0.291285
743 4 0.248717 0.145597 0.293892
2568 4 0.478495 0.146227 0.259683
2566 2 0.459906 0.162196 0.254722
813 4 0.0376703 0.248168 0.276531
3974 4 0.279226 0.183597 0.290014
3973 2 0.294157 0.184031 0.310065
2567 4 0.441317 0.178166 0.24976
704 4 0.423403 0.186576 0.251023
812 4 0.0641224 0.286785 0.258931
811 2 0.0508964 0.267477 0.267731
421 2 0.0280726 0.280522 0.318481
423 4 0.0418864 0.300094 0.311319
1698 4 0.0355043 0.394783 0.300882
1696 2 0.0475499 0.392684 0.322692
650 4 0.184491 0.362361 0.293714
649 2 0.206366 0.374297 0.295755
651 4 0.228241 0.386234 0.297795
2578 2 0.31366 0.36494 0.291765
2580 4 0.295276 0.376096 0.279008
2114 4 0.347129 0.348904 0.316839
2579 4 0.332045 0.353785 0.304522
2113 2 0.341476 0.326874 0.327227
4000 2 0.50317 0.352617 0.248663
643 2 0.434239 0.394369 0.266817
645 4 0.432467 0.394867 0.291753
2157 4 0.436861 0.388396 0.310879
2155 2 0.458838 0.396703 0.319435
2156 4 0.480814 0.40501 0.327992
1429 2 0.00925186 0.473631 0.286974
1431 4 0.0148011 0.486643 0.266356
314 4 0.0217127 0.479594 0.248495
275 4 0.11093 0.427109 0.305758
3208 2 0.155526 0.487 0.274837
3209 4 0.137658 0.47771 0.289657
274 2 0.128428 0.44362 0.298947
276 4 0.145926 0.460131 0.292137
1644 4 0.184612 0.507712 0.31521
1642 2 0.201351 0.494878 0.328638
1591 2 0.298509 0.493034 0.292661
1592 4 0.297481 0.476683 0.273773
1751 4 0.306943 0.474608 0.256152
443 4 0.406364 0.494681 0.265052
1758 4 0.402987 0.467588 0.328421
2474 4 0.459418 0.432606 0.251234
2473 2 0.479093 0.447979 0.252574
1530 4 0.465895 0.46719 0.336877
684 4 0.221095 0.0168461 0.40729
3890 4 0.220327 0.0314028 0.389862
3889 2 0.23866 0.0264142 0.373607
3891 4 0.256992 0.0214256 0.357352
497 4 0.266565 0.0380913 0.363966
496 2 0.289956 0.0454671 0.368827
498 4 0.313347 0.052843 0.373688
2062 2 0.335055 0.994758 0.416518
2296 2 0.365108 0.993056 0.356501
2298 4 0.350719 0.990608 0.376803
2064 4 0.346839 0.987645 0.395644
1700 4 0.460373 0.0124793 0.345814
257 4 0.153814 0.152434 0.356945
256 2 0.131185 0.150621 0.346466
258 4 0.108555 0.148809 0.335987
1518 4 0.198593 0.0966359 0.348834
3080 4 0.161116 0.142561 0.373875
3079 2 0.177719 0.147332 0.391952
2941 2 0.243872 0.138814 0.415893
3081 4 0.194322 0.152103 0.410028
2943 4 0.24944 0.162452 0.409942
2626 2 0.00755594 0.230358 0.386644
2627 4 0.0186456 0.237887 0.365536
900 4 0.0331814 0.224069 0.366344
898 2 0.0565462 0.232107 0.362512
899 4 0.079911 0.240144 0.358679
939 4 0.0898323 0.228081 0.37246
937 2 0.113259 0.234311 0.378588
938 4 0.136685 0.240542 0.384716
2601 4 0.20229 0.166469 0.421744
3975 4 0.309089 0.184465 0.330115
384 4 0.326062 0.193233 0.325044
2900 4 0.265453 0.199674 0.368585
2899 2 0.283047 0.196402 0.386048
2901 4 0.300641 0.19313 0.40351
4299 4 0.294778 0.204166 0.419351
382 2 0.347361 0.190222 0.337791
2726 4 0.417773 0.196593 0.395225
3993 4 0.419217 0.207377 0.412893
383 4 0.36866 0.187211 0.350538
2727 4 0.376955 0.184577 0.368953
2725 2 0.397364 0.190585 0.382089
2637 4 0.448144 0.222705 0.351277
2635 2 0.472502 0.219955 0.356208
3991 2 0.44082 0.219944 0.41211
3992 4 0.462422 0.23251 0.411328
422 4 0.0142589 0.260949 0.325643
470 4 0.0255005 0.308138 0.370721
1494 4 0.0333643 0.320695 0.385148
864 4 0.113095 0.324601 0.409777
517 2 0.293569 0.310187 0.381083
519 4 0.302624 0.332279 0.388507
518 4 0.284515 0.288095 0.373659
426 4 0.368892 0.282579 0.384926
424 2 0.392562 0.290372 0.382873
2115 4 0.335823 0.304844 0.337615
425 4 0.416231 0.298164 0.380819
2108 4 0.436096 0.296845 0.387272
2107 2 0.442329 0.288531 0.410013
2463 4 0.00951197 0.382763 0.356897
2461 2 0.0098449 0.400786 0.374224
1697 4 0.0595955 0.390584 0.344502
1492 2 0.0491267 0.339508 0.380374
1493 4 0.0648891 0.358322 0.3756
2462 4 0.0101778 0.418808 0.391552
2961 4 0.0817811 0.346575 0.377046
2959 2 0.1001 0.36231 0.383529
2960 4 0.118419 0.378044 0.390013
1221 4 0.13412 0.37302 0.402502
1160 4 0.190565 0.413932 0.422631
452 4 0.231648 0.408208 0.368825
451 2 0.213664 0.408801 0.386187
873 4 0.319942 0.329708 0.398651
871 2 0.315131 0.352284 0.408261
2128 2 0.269736 0.409804 0.375951
872 4 0.31032 0.374861 0.41787
2130 4 0.289759 0.405005 0.390138
2129 4 0.249714 0.414602 0.361764
2150 4 0.291913 0.411283 0.410078
2925 4 0.392143 0.407131 0.41486
309 4 0.0196554 0.426924 0.407813
1391 4 0.137036 0.506037 0.390332
453 4 0.19568 0.409393 0.403549
1643 4 0.218089 0.482044 0.342066
2920 2 0.22428 0.465862 0.378825
2922 4 0.226204 0.481759 0.359621
2921 4 0.222356 0.449966 0.398029
1756 2 0.42696 0.460798 0.330515
1757 4 0.450933 0.454008 0.33261
1528 2 0.482312 0.464574 0.355554
682 2 0.214215 0.0332324 0.424878
2832 4 0.210628 0.0648666 0.42888
683 4 0.207336 0.0496188 0.442467
2063 4 0.32327 0.00187073 0.437392
441 4 0.324344 0.0160158 0.45316
439 2 0.322474 0.0294294 0.474178
440 4 0.320604 0.042843 0.495196
3624 4 0.491135 0.00572541 0.478167
2837 4 0.114797 0.165531 0.481221
2836 2 0.0977922 0.172509 0.498172
2830 2 0.213685 0.0895181 0.426024
2942 4 0.238305 0.115175 0.421844
2831 4 0.216742 0.11417 0.423168
2120 4 0.435428 0.168521 0.488167
3374 4 0.449182 0.168616 0.502723
3373 2 0.472437 0.160221 0.498992
3375 4 0.495692 0.151827 0.495261
3160 2 0.0573587 0.244436 0.467857
3162 4 0.0816777 0.248495 0.472016
2599 2 0.195666 0.177158 0.443356
2600 4 0.189041 0.187846 0.464967
1032 4 0.218533 0.228675 0.497647
4297 2 0.315099 0.218294 0.422905
2121 4 0.401686 0.196949 0.464627
2972 4 0.390118 0.211924 0.459189
4298 4 0.33542 0.232422 0.426459
2973 4 0.349776 0.218316 0.43034
2971 2 0.369947 0.21512 0.444764
2119 2 0.418557 0.182735 0.476397
503 4 0.0166171 0.25327 0.46274
3161 4 0.0330397 0.240376 0.463698
4022 4 0.0955476 0.258976 0.480541
862 2 0.120856 0.310277 0.428745
863 4 0.128616 0.295953 0.447713
4021 2 0.110099 0.278048 0.47349
4023 4 0.12465 0.29712 0.46644
2570 4 0.250999 0.292868 0.452043
2569 2 0.25904 0.314312 0.442009
3264 4 0.371251 0.324524 0.485104
335 4 0.377458 0.310364 0.499
2109 4 0.448562 0.280216 0.432755
308 4 0.062367 0.413779 0.430257
1219 2 0.150642 0.35912 0.415111
1220 4 0.167163 0.34522 0.42772
1491 4 0.163688 0.346691 0.503422
1161 4 0.144093 0.432349 0.421243
1736 4 0.132464 0.416552 0.425318
1159 2 0.167329 0.423141 0.421937
2883 4 0.173819 0.361446 0.493719
2882 4 0.172229 0.354445 0.44423
2881 2 0.173024 0.357945 0.468974
661 2 0.22708 0.399505 0.483249
663 4 0.230587 0.393861 0.459145
3060 4 0.249495 0.393829 0.453126
2571 4 0.26708 0.335757 0.431976
3058 2 0.260015 0.374313 0.441568
2149 2 0.30431 0.405638 0.431045
2151 4 0.316708 0.399993 0.452012
3059 4 0.270536 0.354796 0.43001
1150 2 0.310667 0.378796 0.48191
1151 4 0.302003 0.393916 0.463979
3262 2 0.351138 0.336602 0.49375
3447 4 0.399671 0.420101 0.486026
3263 4 0.331025 0.34868 0.502396
2923 2 0.411382 0.41949 0.424973
3445 2 0.376607 0.41134 0.490085
3446 4 0.353543 0.402578 0.494143
2936 4 0.488971 0.401314 0.414575
2935 2 0.469184 0.411968 0.425534
1988 4 0.481553 0.349262 0.497139
307 2 0.0410112 0.420352 0.419035
1737 4 0.0825938 0.41995 0.426795
1735 2 0.107529 0.418251 0.426057
1488 4 0.215225 0.46297 0.410257
1487 4 0.193906 0.472826 0.454407
1486 2 0.204566 0.467898 0.432332
877 2 0.198271 0.488857 0.493368
878 4 0.195424 0.486971 0.468598
2937 4 0.449396 0.422622 0.436493
2924 4 0.430622 0.43185 0.435086
2301 4 0.0789463 0.0137583 0.571149
2299 2 0.0595639 0.0126355 0.555393
2300 4 0.0401815 0.0115127 0.539637
1781 4 0.0258276 0.0102857 0.553295
2499 4 0.0938687 0.0082747 0.584195
1601 4 0.0784301 0.0924498 0.540039
4225 2 0.316708 0.073848 0.544989
4226 4 0.32079 0.059873 0.565317
1218 4 0.490284 0.0510176 0.573994
3272 4 0.0494967 0.0990165 0.592214
2720 4 0.00769819 0.163355 0.528364
1602 4 0.0541915 0.0816294 0.58242
831 4 0.0907131 0.157388 0.567588
1600 2 0.0663108 0.0870396 0.56123
829 2 0.113239 0.155849 0.578331
830 4 0.135764 0.15431 0.589074
3027 4 0.154451 0.146906 0.585978
3025 2 0.167128 0.138274 0.566231
3026 4 0.179804 0.129642 0.546483
797 4 0.197462 0.128087 0.536089
796 2 0.202297 0.149252 0.523684
798 4 0.207131 0.170417 0.511279
4227 4 0.312625 0.0878231 0.524661
807 4 0.0651612 0.185516 0.50373
805 2 0.0457323 0.178131 0.517628
806 4 0.0263034 0.170746 0.531525
2838 4 0.0807875 0.179487 0.515122
1031 4 0.222332 0.184054 0.519904
1030 2 0.220433 0.206364 0.508775
3494 4 0.259159 0.22856 0.53572
3493 2 0.280602 0.233686 0.547514
3495 4 0.302045 0.238813 0.559308
3960 4 0.319337 0.244367 0.567197
958 2 0.388535 0.176529 0.571884
960 4 0.364452 0.172659 0.566384
4080 4 0.3489 0.172474 0.579583
959 4 0.412617 0.180399 0.577383
4514 4 0.426296 0.182973 0.565201
4513 2 0.443519 0.199773 0.572005
4515 4 0.460742 0.216573 0.578809
2917 2 0.00863066 0.292781 0.558495
2918 4 0.0195905 0.313547 0.567089
398 4 0.00757996 0.255203 0.548692
2919 4 0.997671 0.272016 0.549901
3183 4 0.23045 0.335726 0.526431
3181 2 0.224421 0.311817 0.522288
3182 4 0.218392 0.287908 0.518145
3958 2 0.337458 0.249979 0.550908
3959 4 0.355579 0.255591 0.534619
336 4 0.366566 0.273106 0.530527
334 2 0.372012 0.291735 0.514763
727 2 0.468667 0.322468 0.570258
1490 4 0.137784 0.355234 0.545334
1489 2 0.150736 0.350963 0.524378
4084 2 0.195802 0.401055 0.576871
4086 4 0.204185 0.40414 0.553517
662 4 0.223574 0.405148 0.507354
1152 4 0.319332 0.363675 0.49984
3513 4 0.415962 0.416249 0.496905
729 4 0.469558 0.343366 0.556558
1989 4 0.483713 0.335767 0.545244
2845 2 0.432285 0.415007 0.574251
1987 2 0.482633 0.342514 0.521191
3706 2 0.502123 0.407781 0.531639
3707 4 0.479293 0.415755 0.525285
879 4 0.201117 0.490743 0.518137
3317 4 0.215579 0.488143 0.532327
3316 2 0.21934 0.489226 0.557022
3318 4 0.2231 0.490309 0.581718
3694 2 0.330552 0.444998 0.578488
1815 4 0.410069 0.43761 0.553204
3696 4 0.352118 0.442488 0.566086
1813 2 0.385479 0.441008 0.550214
1814 4 0.360889 0.444406 0.547224
2846 4 0.426703 0.425567 0.552285
3512 4 0.462998 0.416272 0.513888
3238 2 0.46923 0.479954 0.570936
8 3 0.498692 0.491088 0.54938
3511 2 0.43948 0.41626 0.505396
3239 4 0.451076 0.483285 0.587804
3240 4 0.487383 0.476623 0.554067
2374 2 0.0457054 0.0405462 0.650153
2376 4 0.0628958 0.0435527 0.632246
2498 4 0.0777387 0.0384918 0.620631
2375 4 0.0285149 0.0375398 0.66806
842 4 0.0129801 0.0475396 0.659547
2497 2 0.0858037 0.0233832 0.602413
3358 2 0.132435 0.015602 0.639863
3359 4 0.149714 0.0322181 0.646973
3582 4 0.163373 0.044804 0.653668
4136 4 0.124454 0.0732214 0.605245
3758 4 0.191058 0.0455187 0.598825
479 4 0.234224 0.0636983 0.635551
3757 2 0.203135 0.0569123 0.61752
3759 4 0.215211 0.068306 0.636216
478 2 0.255822 0.051828 0.639773
480 4 0.277419 0.0399576 0.643994
723 4 0.282406 0.0205306 0.646162
721 2 0.30388 0.0230352 0.633602
726 4 0.315124 0.0660998 0.582622
724 2 0.333155 0.069249 0.599655
722 4 0.325355 0.0255398 0.621042
725 4 0.351186 0.0723983 0.616688
219 3 0.370132 0.0719661 0.621143
220 3 0.402541 0.0752244 0.602257
216 1 0.393264 0.0708521 0.622591
2017 2 0.363791 0.00988047 0.600397
2018 4 0.386139 0.0144655 0.610634
689 4 0.396433 0.0298358 0.623384
218 3 0.39974 0.0497986 0.629884
688 2 0.417521 0.0165997 0.625686
690 4 0.438609 0.00336364 0.627987
2604 4 0.451 0.990238 0.618688
3271 2 0.0288345 0.113071 0.593055
3273 4 0.00817216 0.127125 0.593895
2508 4 0.0698729 0.121805 0.65761
4135 2 0.132982 0.0926057 0.618538
4137 4 0.141511 0.11199 0.63183
2506 2 0.0831583 0.142603 0.653597
2507 4 0.0964438 0.163402 0.649584
4286 4 0.116133 0.168088 0.650122
733 2 0.175391 0.117453 0.657689
1062 4 0.208366 0.0972565 0.646727
1060 2 0.225734 0.110453 0.634504
1061 4 0.243102 0.12365 0.62228
3147 4 0.246823 0.11999 0.603054
735 4 0.193111 0.108244 0.642644
3145 2 0.248384 0.143885 0.595859
217 3 0.400529 0.0865399 0.637766
221 1 0.367005 0.152394 0.651547
223 3 0.381411 0.149252 0.633632
1128 4 0.398397 0.139078 0.631514
224 3 0.366143 0.133153 0.664488
1126 2 0.416118 0.13552 0.614237
3087 4 0.497161 0.143734 0.610606
3085 2 0.472775 0.145021 0.605239
3086 4 0.448388 0.146308 0.599872
1127 4 0.433839 0.131962 0.596961
2014 2 0.0138966 0.201987 0.649126
2015 4 0.0360234 0.20516 0.660329
240 4 0.251038 0.180261 0.60413
3451 2 0.245171 0.233223 0.657384
3376 2 0.242644 0.166796 0.660259
3378 4 0.262193 0.179064 0.650639
3146 4 0.249945 0.167781 0.588663
238 2 0.253526 0.203171 0.594427
239 4 0.256015 0.22608 0.584725
3452 4 0.264715 0.232192 0.641822
225 3 0.346174 0.157587 0.643948
4079 4 0.332179 0.18165 0.625811
1166 4 0.336849 0.19086 0.64466
4078 2 0.340539 0.177062 0.602697
1165 2 0.344755 0.205657 0.6632
3121 2 0.413729 0.191397 0.661826
1136 4 0.468447 0.232277 0.588192
1135 2 0.491177 0.239397 0.595794
373 2 0.469508 0.183485 0.656335
374 4 0.493142 0.178614 0.662882
375 4 0.445873 0.188356 0.649787
3122 4 0.434767 0.204197 0.657492
1401 4 0.0738422 0.253365 0.667103
800 4 0.227283 0.242339 0.613809
799 2 0.229604 0.263182 0.600195
801 4 0.231924 0.284026 0.586582
2217 4 0.31299 0.256957 0.645871
2215 2 0.293655 0.256391 0.630027
2216 4 0.274321 0.255826 0.614183
728 4 0.467776 0.301571 0.583959
3073 2 0.996121 0.405738 0.609064
3128 4 0.141081 0.401238 0.629491
4085 4 0.187419 0.397971 0.600225
3127 2 0.16554 0.398557 0.625046
3129 4 0.189999 0.395877 0.620601
1239 4 0.293151 0.413042 0.65954
1237 2 0.276548 0.394551 0.662296
2847 4 0.437867 0.404447 0.596218
4215 4 0.444451 0.407185 0.61457
4213 2 0.460435 0.391444 0.625612
4214 4 0.476419 0.375702 0.636654
2153 4 0.488471 0.367888 0.650527
3075 4 0.0199321 0.408113 0.601813
3177 4 0.0288869 0.426012 0.605709
3175 2 0.0537638 0.427355 0.607835
3330 4 0.0263737 0.495034 0.607849
3176 4 0.0786406 0.428699 0.609961
4197 4 0.140913 0.421724 0.630398
4195 2 0.116387 0.425903 0.627915
4196 4 0.0918605 0.430081 0.625431
1268 4 0.207864 0.486498 0.59323
1284 4 0.28498 0.425955 0.647015
3695 4 0.308987 0.447508 0.59089
1282 2 0.299483 0.433831 0.628231
1283 4 0.313985 0.441706 0.609447
1111 2 0.381126 0.461113 0.653122
1112 4 0.382512 0.451599 0.63004
1272 4 0.399029 0.464222 0.628247
1270 2 0.416579 0.47387 0.613277
1271 4 0.43413 0.483517 0.598307
2996 4 0.99118 0.0886379 0.725153
3580 2 0.183234 0.0417882 0.668555
3581 4 0.203096 0.0387724 0.683442
3144 4 0.222078 0.0326795 0.686637
3142 2 0.235404 0.0487965 0.700343
3414 4 0.188391 0.9946 0.746662
3143 4 0.24873 0.0649135 0.71405
917 4 0.246781 0.0801392 0.727787
916 2 0.251341 0.0729245 0.751289
4336 2 0.421093 0.000840044 0.724449
4338 4 0.435542 0.00997739 0.706204
1901 4 0.441878 0.0293989 0.701457
1900 2 0.463231 0.0423928 0.702091
1902 4 0.484584 0.0553867 0.702725
2995 2 0.0140187 0.0986881 0.72354
2997 4 0.036857 0.108738 0.721928
2460 4 0.0355385 0.12282 0.708166
2458 2 0.0604901 0.124423 0.70796
2459 4 0.0854417 0.126026 0.707753
734 4 0.157671 0.126661 0.672734
4287 4 0.15041 0.165305 0.686428
4285 2 0.133271 0.166697 0.668275
3377 4 0.223096 0.154528 0.669878
3464 4 0.305203 0.175412 0.766172
3556 2 0.376269 0.125388 0.699017
3558 4 0.381569 0.136188 0.677098
3557 4 0.370969 0.114587 0.720936
4498 2 0.482296 0.114617 0.721873
3294 4 0.451367 0.101742 0.732543
4500 4 0.458405 0.110902 0.715497
3010 2 0.500338 0.166449 0.705419
1400 4 0.0401569 0.217485 0.675975
1399 2 0.0569995 0.235425 0.671539
3453 4 0.225627 0.234255 0.672945
809 4 0.170662 0.168054 0.693122
810 4 0.219953 0.166822 0.684783
808 2 0.195308 0.167438 0.688953
222 3 0.374887 0.169707 0.664481
3123 4 0.392691 0.178597 0.666159
1167 4 0.352662 0.220454 0.68174
1524 4 0.367058 0.228877 0.693542
1522 2 0.382573 0.22989 0.713124
1523 4 0.398087 0.230904 0.732707
2982 4 0.398296 0.248894 0.741264
3012 4 0.496267 0.170461 0.681078
892 2 0.0189481 0.29542 0.730942
894 4 0.0319576 0.30785 0.713579
891 4 0.0501335 0.301177 0.708791
889 2 0.0628546 0.285011 0.694578
890 4 0.0755756 0.268845 0.680365
1189 2 0.22725 0.318533 0.721867
1190 4 0.239436 0.316193 0.70016
566 4 0.256946 0.312155 0.709352
565 2 0.280285 0.303632 0.70655
567 4 0.303623 0.29511 0.703748
3008 4 0.316748 0.289255 0.69066
3007 2 0.335661 0.280472 0.676863
3009 4 0.354574 0.271689 0.663066
3098 4 0.471734 0.273816 0.730648
3097 2 0.494076 0.265771 0.722819
2535 4 0.26251 0.351626 0.724507
2533 2 0.257237 0.365472 0.704366
2534 4 0.251964 0.379319 0.684225
1238 4 0.259945 0.37606 0.665052
1905 4 0.290641 0.398429 0.697343
1903 2 0.298187 0.411079 0.717548
1904 4 0.305732 0.423729 0.737753
1094 4 0.314348 0.350449 0.757658
1093 2 0.333179 0.357585 0.742837
378 4 0.355282 0.405477 0.714847
1095 4 0.352009 0.364721 0.728015
1204 2 0.392117 0.349757 0.735498
1206 4 0.371655 0.364125 0.735241
3169 2 0.445578 0.364937 0.737579
3170 4 0.427986 0.347456 0.740757
1205 4 0.412579 0.33539 0.735754
3171 4 0.46317 0.382419 0.734401
3784 2 0.154546 0.490031 0.713307
2915 4 0.162126 0.458149 0.729405
3786 4 0.166326 0.476939 0.731055
1176 4 0.212098 0.498508 0.708944
3327 4 0.198989 0.498727 0.692911
1174 2 0.234953 0.489479 0.713561
2914 2 0.172715 0.441956 0.745243
882 4 0.272575 0.488509 0.730552
880 2 0.290019 0.495422 0.714027
881 4 0.307464 0.502335 0.697502
1170 4 0.317247 0.424924 0.75406
1168 2 0.320627 0.449477 0.750755
1175 4 0.257809 0.480451 0.718178
4456 2 0.339734 0.500005 0.670189
4458 4 0.324234 0.493157 0.688575
376 2 0.373654 0.420724 0.707418
1113 4 0.37974 0.470627 0.676204
377 4 0.392025 0.435971 0.699989
3399 4 0.3828 0.463923 0.695519
3397 2 0.390667 0.48672 0.702122
2589 4 0.407013 0.446867 0.69146
2329 2 0.464959 0.500334 0.72761
2588 4 0.454622 0.43471 0.682174
2587 2 0.430818 0.440789 0.686817
2330 4 0.470066 0.508109 0.704402
3365 4 0.0320067 0.0630652 0.820754
3364 2 0.0550559 0.072375 0.818059
2052 4 0.110291 0.00510153 0.837141
3412 2 0.192545 0.00277367 0.769924
2440 2 0.234276 0.00648506 0.816023
2441 4 0.210998 0.00785223 0.806997
3413 4 0.196699 0.0109477 0.793186
2442 4 0.257554 0.00511789 0.82505
2321 4 0.262266 0.0225068 0.814773
2320 2 0.283317 0.0285174 0.802694
2322 4 0.304369 0.034528 0.790614
515 4 0.319066 0.0490366 0.788626
918 4 0.255902 0.0657097 0.774791
3198 4 0.27193 0.0762574 0.78345
514 2 0.343493 0.0500596 0.79386
516 4 0.367921 0.0510826 0.799095
88 3 0.381114 0.0655061 0.79399
87 3 0.397755 0.0328884 0.785516
86 1 0.401421 0.0552642 0.789394
90 3 0.410841 0.0646378 0.770899
1354 2 0.498025 0.0202487 0.756819
89 3 0.415703 0.0574897 0.807545
4354 2 0.447393 0.00617068 0.786088
4355 4 0.465885 0.0176657 0.773796
3293 4 0.414511 0.0801468 0.758545
1356 4 0.478995 0.0322622 0.767715
3233 4 0.99371 0.12371 0.762733
3366 4 0.0781051 0.0816848 0.815365