ITEM: TIMESTEP
376000
ITEM: NUMBER OF ATOMS
4590
ITEM: BOX BOUNDS xy xz yz pp pp pp
-1.9597197199999982e+01 9.9985700000000008e+00 -9.5986271999999815e+00
-9.9985700000000008e+00 9.9985700000000008e+00 0.0000000000000000e+00
-9.9985700000000008e+00 9.9985700000000008e+00 0.0000000000000000e+00
ITEM: ATOMS id type xs ys zs
572 4 0.111206 0.072564 0.0263743
571 2 0.131372 0.0654859 0.0219217
573 4 0.151539 0.0584079 0.0174691
2856 4 0.168913 0.0629427 0.0300146
2854 2 0.191523 0.0784155 0.017554
2798 4 0.316757 0.0341911 0.00898093
2797 2 0.297771 0.0127295 0.999538
2353 2 0.187103 0.477577 0.454643
1785 4 0.121441 0.0938671 0.0275415
1783 2 0.140827 0.115769 0.0357128
1784 4 0.160213 0.137671 0.0438841
461 4 0.166631 0.136703 0.0618633
460 2 0.193284 0.148375 0.068633
462 4 0.219937 0.160047 0.0754028
2715 4 0.23053 0.133744 0.0333821
866 4 0.241419 0.167873 0.0758555
2713 2 0.257421 0.147848 0.0287555
2855 4 0.214132 0.0938883 0.00509344
2714 4 0.284312 0.161952 0.0241289
485 4 0.470328 0.0886098 0.0307775
484 2 0.487512 0.11192 0.0375506
3343 2 0.0272485 0.232588 0.0639853
3084 4 0.0176343 0.172734 0.0124116
3344 4 0.0290731 0.242299 0.0411199
3082 2 0.0432145 0.18264 0.022074
3083 4 0.0687948 0.192547 0.0317365
3470 4 0.0897951 0.206533 0.0244205
3469 2 0.115003 0.207491 0.0209843
3471 4 0.14021 0.208449 0.0175481
2804 4 0.232742 0.221201 0.0165106
2639 4 0.161116 0.212596 0.0152068
2638 2 0.187399 0.216839 0.0195994
2640 4 0.213682 0.221082 0.0239919
2803 2 0.255648 0.224246 0.0290014
2805 4 0.278555 0.22729 0.0414921
3102 4 0.293123 0.220196 0.0478889
3941 4 0.300886 0.177046 0.0317432
3100 2 0.317494 0.225752 0.0589894
3101 4 0.341866 0.231307 0.07009
3940 2 0.327725 0.182347 0.0343551
3942 4 0.354565 0.187647 0.036967
509 4 0.359607 0.248567 0.0646251
3363 4 0.376535 0.194111 0.0357041
3361 2 0.404085 0.205508 0.0384996
3362 4 0.431634 0.216905 0.041295
833 4 0.45409 0.226839 0.0407145
832 2 0.478465 0.22617 0.0445698
521 4 0.998562 0.291601 0.0301558
520 2 0.0247344 0.294628 0.0279337
522 4 0.0509071 0.297654 0.0257116
293 4 0.277118 0.303534 0.0219413
1596 4 0.301594 0.282668 0.0770319
4547 4 0.336409 0.324978 0.047571
1594 2 0.328822 0.291806 0.0725648
292 2 0.270283 0.281107 0.011607
1595 4 0.356049 0.300944 0.0680978
957 4 0.355469 0.294372 0.0495728
955 2 0.373475 0.289722 0.0356452
956 4 0.391481 0.285072 0.0217175
546 4 0.413136 0.293292 0.0207762
544 2 0.437843 0.293665 0.0256127
545 4 0.462551 0.294038 0.0304492
3405 4 0.472898 0.289036 0.0163012
3403 2 0.496247 0.294051 0.0290095
4548 4 0.338532 0.364019 0.0740364
4546 2 0.337471 0.344499 0.0608037
3800 4 0.317327 0.361475 0.0774565
1236 4 0.491989 0.385939 0.0152329
540 4 0.499905 0.426534 0.473398
2164 2 0.0445019 0.43705 0.0074732
2165 4 0.0693994 0.439055 0.0144214
2357 4 0.445303 0.417518 0.0175792
2356 2 0.472277 0.429492 0.0231687
2358 4 0.499251 0.441466 0.0287582
3520 2 0.0484063 0.0379473 0.156463
2947 2 0.0170716 0.00533364 0.0952299
2553 4 0.00745036 0.0323293 0.137389
3521 4 0.0221846 0.0308275 0.149083
3522 4 0.0746279 0.0450672 0.163843
1223 4 0.496632 0.376778 0.030027
3783 4 0.105608 0.000947374 0.110189
3956 4 0.146479 0.0579169 0.163852
2577 4 0.0963467 0.00932598 0.121311
3781 2 0.131222 0.00910417 0.11956
2768 4 0.166827 0.0697193 0.163939
3782 4 0.156836 0.017261 0.128931
2767 2 0.19142 0.0707441 0.157362
1038 4 0.176646 0.0165334 0.137618
2769 4 0.216013 0.0717688 0.150784
1036 2 0.189879 0.0186736 0.159335
2523 4 0.229664 0.0637738 0.144249
2521 2 0.256272 0.0715337 0.137823
2522 4 0.282881 0.0792935 0.131397
419 4 0.293009 0.0734779 0.145039
418 2 0.31051 0.0671236 0.132294
420 4 0.328011 0.0607693 0.119548
3278 4 0.0115728 0.114873 0.152382
2933 4 0.0231344 0.10553 0.161339
2932 2 0.0495454 0.121104 0.156433
2934 4 0.0759564 0.136679 0.151526
698 4 0.0961047 0.137278 0.148044
697 2 0.104521 0.123657 0.133347
699 4 0.112938 0.110035 0.118651
876 4 0.127615 0.104593 0.129589
874 2 0.149805 0.103586 0.119096
875 4 0.171995 0.102579 0.108604
914 4 0.193247 0.10616 0.10271
913 2 0.220615 0.114423 0.105756
915 4 0.247982 0.122686 0.108803
828 4 0.269333 0.126074 0.110301
25 3 0.283494 0.112687 0.149353
22 3 0.314655 0.146653 0.145056
21 1 0.299213 0.131496 0.160311
826 2 0.292516 0.124482 0.103288
827 4 0.315699 0.122889 0.0962762
3479 4 0.331907 0.12293 0.0839709
742 2 0.355422 0.13145 0.168122
3478 2 0.354461 0.124826 0.0963449
743 4 0.3797 0.141324 0.156041
3480 4 0.377015 0.126721 0.108719
20 3 0.397239 0.145462 0.145112
366 4 0.492329 0.167667 0.113125
3345 4 0.0254238 0.222877 0.0868507
2762 4 0.181805 0.24428 0.118292
865 2 0.267664 0.173074 0.081701
343 2 0.289502 0.247682 0.149241
345 4 0.271922 0.22364 0.152516
770 4 0.316175 0.18851 0.0842271
867 4 0.293908 0.178275 0.0875465
769 2 0.330815 0.195351 0.105427
771 4 0.345455 0.202192 0.126626
476 4 0.344058 0.185167 0.132946
475 2 0.363571 0.178907 0.141827
16 1 0.411389 0.16799 0.145196
477 4 0.383085 0.172647 0.150709
17 3 0.397898 0.178422 0.136356
19 3 0.41811 0.175448 0.166942
18 3 0.432447 0.173301 0.132249
365 4 0.453185 0.175289 0.137835
364 2 0.472757 0.171478 0.12548
2355 4 0.195049 0.482048 0.430736
4032 4 0.024221 0.281628 0.0833121
3408 4 0.0450601 0.295787 0.0894659
3406 2 0.0671907 0.308671 0.10378
3407 4 0.0893213 0.321555 0.118095
3608 4 0.109318 0.326735 0.127685
3607 2 0.133919 0.33172 0.138036
2765 4 0.127454 0.299306 0.140724
2764 2 0.1427 0.286709 0.144344
2766 4 0.157946 0.274111 0.147963
2763 4 0.179454 0.280488 0.146581
2761 2 0.18063 0.262384 0.132437
344 4 0.307082 0.271723 0.145967
756 4 0.327142 0.275388 0.141956
754 2 0.350931 0.27768 0.131702
755 4 0.37472 0.279972 0.121447
510 4 0.382661 0.279278 0.103206
508 2 0.371134 0.263923 0.0839153
2520 4 0.473042 0.258939 0.0881605
2902 2 0.470114 0.282927 0.154381
2904 4 0.48087 0.297237 0.134249
2518 2 0.487587 0.254934 0.106544
3609 4 0.15852 0.336705 0.148386
660 4 0.17849 0.339479 0.15834
658 2 0.202716 0.34146 0.167259
3882 4 0.296095 0.412817 0.147969
3880 2 0.303547 0.397264 0.135292
3881 4 0.311 0.38171 0.122614
2951 4 0.37312 0.366801 0.104002
3801 4 0.309158 0.364525 0.126432
3799 2 0.313243 0.363 0.101944
2564 4 0.400859 0.413221 0.0939797
2563 2 0.396405 0.417275 0.117808
2950 2 0.39634 0.363535 0.103715
2952 4 0.419559 0.360268 0.103427
3656 4 0.437258 0.359441 0.113792
3655 2 0.463616 0.362727 0.114355
3657 4 0.489974 0.366012 0.114918
2651 4 0.00706381 0.448013 0.166118
2650 2 0.0330897 0.45039 0.165584
2652 4 0.0591156 0.452768 0.16505
611 4 0.0682998 0.44105 0.156731
610 2 0.0924322 0.439483 0.154868
612 4 0.116565 0.437916 0.153006
4368 4 0.137664 0.441084 0.148737
4366 2 0.164156 0.445155 0.151282
4367 4 0.190648 0.449225 0.153828
2784 4 0.212289 0.45651 0.162154
2565 4 0.39195 0.42133 0.141635
3210 4 0.395522 0.427098 0.160798
2890 2 0.482267 0.461532 0.153561
2891 4 0.46149 0.461988 0.167131
416 4 0.0343469 0.0448631 0.222537
415 2 0.0304252 0.0336894 0.244858
4508 4 0.0237028 0.0351664 0.205633
3957 4 0.0914967 0.04093 0.168245
3955 2 0.118988 0.0494234 0.166049
1037 4 0.203111 0.0208138 0.181052
2945 4 0.224592 0.0242154 0.182004
2944 2 0.248586 0.0409419 0.191519
2946 4 0.27258 0.0576683 0.201033
350 4 0.280008 0.0579634 0.220955
349 2 0.289445 0.0703303 0.242402
3504 4 0.186122 0.146881 0.182494
3502 2 0.213056 0.153342 0.186427
3503 4 0.239989 0.159803 0.19036
732 4 0.243596 0.151836 0.206206
730 2 0.266602 0.151115 0.197299
23 3 0.313517 0.12629 0.175443
24 3 0.285771 0.141007 0.171432
731 4 0.289608 0.150393 0.188393
744 4 0.331144 0.121576 0.180202
402 4 0.0692918 0.170689 0.203453
400 2 0.07737 0.174554 0.227359
2477 4 0.331986 0.182285 0.201463
2476 2 0.352876 0.178208 0.210768
2478 4 0.373766 0.174131 0.220073
530 4 0.392555 0.18815 0.212353
529 2 0.410903 0.184485 0.197951
531 4 0.429251 0.180819 0.183548
3790 2 0.112359 0.276308 0.246072
3791 4 0.127891 0.280468 0.225464
2786 4 0.140377 0.27556 0.213491
2785 2 0.166049 0.284596 0.204091
2787 4 0.191721 0.293633 0.194691
2492 4 0.209828 0.289681 0.195356
2491 2 0.231312 0.300011 0.179691
2493 4 0.252795 0.310342 0.164026
2903 4 0.459358 0.268618 0.174513
1488 4 0.00592129 0.392539 0.206726
1486 2 0.033236 0.403461 0.211052
659 4 0.226942 0.343441 0.176178
2706 4 0.248324 0.34793 0.17394
2704 2 0.275218 0.357675 0.179995
2705 4 0.302112 0.36742 0.186049
749 4 0.320951 0.366505 0.194979
748 2 0.346974 0.3722 0.202073
750 4 0.372998 0.377894 0.209167
569 4 0.394436 0.382532 0.214039
568 2 0.42102 0.38989 0.220336
570 4 0.447604 0.397249 0.226632
102 3 0.469333 0.403317 0.22418
101 1 0.478622 0.393423 0.239484
3593 4 0.484476 0.39998 0.170025
103 3 0.48314 0.377 0.228765
1742 4 0.0271909 0.469808 0.232155
1741 2 0.0520642 0.469736 0.229974
1698 4 0.0556073 0.423313 0.252361
1487 4 0.0605507 0.414383 0.215379
1743 4 0.0769375 0.469663 0.227792
108 3 0.09061 0.460669 0.218896
110 3 0.0829737 0.424473 0.215338
106 1 0.0916955 0.442433 0.229339
107 3 0.0772369 0.437339 0.248284
109 3 0.11596 0.447599 0.235435
413 4 0.128103 0.464112 0.244753
412 2 0.150942 0.485809 0.244969
287 4 0.216818 0.435973 0.244124
2782 2 0.238708 0.461089 0.166347
1779 4 0.269918 0.49413 0.191028
286 2 0.240812 0.443872 0.231687
2783 4 0.265126 0.465669 0.170541
288 4 0.264805 0.451771 0.21925
1593 4 0.284598 0.465241 0.172174
1591 2 0.310887 0.468752 0.174912
1592 4 0.337177 0.472263 0.17765
1625 4 0.354593 0.4675 0.185515
1624 2 0.380905 0.471018 0.18297
1626 4 0.407217 0.474535 0.180424
120 3 0.4293 0.487935 0.180848
3209 4 0.43554 0.419924 0.184468
1656 4 0.489322 0.491833 0.191268
118 3 0.441075 0.46217 0.167773
3535 2 0.46688 0.46837 0.23594
119 3 0.436722 0.46561 0.205143
116 1 0.443624 0.47703 0.184994
3537 4 0.449696 0.46058 0.216351
117 3 0.468078 0.492368 0.186328
3208 2 0.415531 0.423511 0.172633
417 4 0.0265035 0.0225157 0.26718
2585 4 0.0050586 0.0179545 0.273403
2641 2 0.210244 0.0841942 0.324388
351 4 0.298882 0.0826973 0.263849
468 4 0.247636 0.0187775 0.306141
466 2 0.274275 0.0257873 0.300283
3722 4 0.284073 0.0829525 0.277545
390 4 0.233906 0.00552983 0.319118
498 4 0.353834 0.0703456 0.270089
496 2 0.327443 0.0533873 0.272208
467 4 0.300915 0.0327971 0.294425
497 4 0.301052 0.036429 0.274328
3890 4 0.386455 0.00943251 0.312453
3889 2 0.37228 0.0053687 0.291024
3250 2 0.0240102 0.162392 0.329548
3723 4 0.248955 0.099184 0.297447
2642 4 0.227248 0.090511 0.304638
3721 2 0.266514 0.0910682 0.287496
261 4 0.0811596 0.235222 0.330067
339 4 0.0799492 0.232938 0.3105
762 4 0.0369696 0.178008 0.30001
760 2 0.039084 0.195747 0.283592
761 4 0.0411984 0.213486 0.267175
306 4 0.0258739 0.2209 0.265195
3251 4 0.019112 0.174679 0.310636
401 4 0.0854482 0.178419 0.251266
505 2 0.176092 0.256756 0.298922
507 4 0.148469 0.245746 0.296693
338 4 0.128524 0.230992 0.303727
337 2 0.104236 0.231965 0.307113
473 4 0.148422 0.177772 0.328265
648 4 0.221874 0.228141 0.272253
646 2 0.20365 0.215641 0.290128
647 4 0.185426 0.203142 0.308004
2955 4 0.294368 0.216702 0.292368
2953 2 0.319903 0.235256 0.294461
2837 4 0.470275 0.23981 0.30422
2802 4 0.013259 0.26708 0.295916
2616 4 0.0308388 0.263866 0.290444
3792 4 0.0968271 0.272148 0.266679
2900 4 0.123616 0.332683 0.321019
3974 4 0.104096 0.332086 0.325798
2615 4 0.0776349 0.27316 0.265502
2614 2 0.0542368 0.268513 0.277973
1330 2 0.272266 0.323259 0.269657
1332 4 0.256965 0.298512 0.270673
4298 4 0.234398 0.330622 0.324231
4299 4 0.204546 0.28595 0.303387
506 4 0.203715 0.267765 0.301151
4297 2 0.219472 0.308286 0.313809
1397 4 0.280795 0.310498 0.321354
2954 4 0.345439 0.25381 0.296555
2838 4 0.463366 0.281808 0.306263
2836 2 0.466821 0.260809 0.305242
1697 4 0.0146069 0.393858 0.282553
603 4 0.0827921 0.384748 0.325787
601 2 0.0585188 0.380818 0.315368
602 4 0.0342456 0.376888 0.304948
1696 2 0.0351071 0.408586 0.267457
290 4 0.160855 0.411108 0.289984
1821 4 0.146923 0.40232 0.303131
1819 2 0.12226 0.401251 0.309521
1820 4 0.0975971 0.400181 0.315911
289 2 0.179781 0.415491 0.272012
2901 4 0.171337 0.343406 0.297077
2899 2 0.147476 0.338044 0.309048
2611 2 0.277114 0.355575 0.327021
2612 4 0.281043 0.335076 0.323101
1331 4 0.287568 0.348007 0.268641
1530 4 0.376176 0.360855 0.287913
269 4 0.362734 0.3653 0.275806
268 2 0.335817 0.360079 0.27439
270 4 0.308899 0.354858 0.272974
105 3 0.461736 0.384137 0.256156
2514 4 0.456775 0.364958 0.261885
2512 2 0.439112 0.363701 0.280122
2513 4 0.421449 0.362443 0.298358
2499 4 0.421411 0.354619 0.315558
1529 4 0.416445 0.404712 0.302336
1528 2 0.396311 0.382784 0.295124
2692 2 0.0648905 0.495277 0.283634
248 4 0.0223313 0.460806 0.251332
247 2 0.00217168 0.446096 0.266734
2694 4 0.0381639 0.486944 0.27737
3672 4 0.0217019 0.49168 0.284852
1431 4 0.122755 0.45798 0.293661
1429 2 0.0973385 0.457073 0.293141
1430 4 0.0719217 0.456167 0.292622
315 4 0.188583 0.459921 0.291276
313 2 0.161884 0.454765 0.287842
314 4 0.135185 0.449609 0.284408
597 4 0.254416 0.496203 0.256794
291 4 0.198706 0.419873 0.25404
595 2 0.23244 0.482581 0.270983
596 4 0.210464 0.468959 0.285171
811 2 0.411861 0.429078 0.325729
3536 4 0.484063 0.47616 0.25553
812 4 0.426144 0.42393 0.307897
3816 4 0.00362595 0.0365671 0.414347
2830 2 0.106926 0.0702765 0.344561
2832 4 0.087112 0.0471787 0.3485
2943 4 0.185151 0.0787506 0.362291
369 4 0.221395 0.0602175 0.378932
3138 4 0.204531 0.0423612 0.380409
2643 4 0.19324 0.0778775 0.344139
3136 2 0.184519 0.0381633 0.397251
388 2 0.230119 0.00570865 0.343819
1772 4 0.290618 0.0625667 0.388587
368 4 0.269202 0.0593929 0.392216
353 4 0.208067 0.00394269 0.379827
367 2 0.245299 0.0598052 0.385574
389 4 0.226332 0.00588748 0.36852
1773 4 0.314234 0.0330238 0.402704
1771 2 0.302426 0.0477953 0.395646
4021 2 0.162474 0.428137 0.419649
1975 2 0.131042 0.449251 0.478636
489 4 0.361441 0.00327162 0.393551
2626 2 0.0405906 0.133686 0.376551
2627 4 0.0219968 0.132688 0.359345
3252 4 0.0289084 0.150106 0.34846
3207 4 0.0788488 0.145916 0.382581
2628 4 0.0591844 0.134683 0.393756
430 2 0.157208 0.098758 0.409196
431 4 0.175518 0.105545 0.390419
2941 2 0.16558 0.0858526 0.355459
2942 4 0.146009 0.0929546 0.348627
2831 4 0.12674 0.0933742 0.340622
258 4 0.250357 0.128417 0.397726
256 2 0.222736 0.117201 0.39551
257 4 0.195115 0.105986 0.393295
900 4 0.270183 0.138064 0.405646
898 2 0.291214 0.157138 0.394676
259 2 0.0564692 0.231271 0.339554
260 4 0.0317788 0.227321 0.349041
372 4 0.0133448 0.213009 0.356714
474 4 0.159156 0.226158 0.330122
1212 4 0.12543 0.20875 0.397935
3206 4 0.121029 0.18944 0.39496
3205 2 0.0999391 0.167678 0.38877
472 2 0.153789 0.201965 0.329194
803 4 0.180225 0.235634 0.338735
2529 4 0.306945 0.235596 0.35597
2528 4 0.3299 0.203649 0.359724
2527 2 0.318422 0.219622 0.357847
899 4 0.312245 0.176212 0.383705
2685 4 0.495153 0.211893 0.412195
3060 4 0.493292 0.208787 0.391838
2485 2 0.0220684 0.274995 0.36829
3973 2 0.0823481 0.314086 0.337172
2487 4 0.0490288 0.282314 0.363617
3975 4 0.0606002 0.296086 0.348546
513 4 0.184755 0.317723 0.366308
511 2 0.15858 0.301168 0.361969
512 4 0.132405 0.284612 0.357631
804 4 0.227301 0.267754 0.360341
802 2 0.203763 0.251694 0.349538
2823 4 0.351048 0.310709 0.396463
677 4 0.316699 0.252588 0.365836
676 2 0.295707 0.259099 0.366904
678 4 0.274715 0.26561 0.367973
1398 4 0.285099 0.27743 0.352979
1396 2 0.282947 0.293964 0.337166
1151 4 0.40241 0.273967 0.381461
2535 4 0.381749 0.266656 0.390023
2533 2 0.358545 0.263838 0.401844
2821 2 0.376746 0.323555 0.405334
457 2 0.492345 0.283607 0.415429
459 4 0.466424 0.281352 0.413655
1152 4 0.450667 0.283934 0.404077
1150 2 0.426539 0.278951 0.392769
651 4 0.150271 0.37431 0.378279
2455 2 0.214514 0.345442 0.357147
871 2 0.238474 0.407188 0.382782
2456 4 0.201794 0.351517 0.375688
1009 2 0.188465 0.343089 0.411853
1011 4 0.191487 0.336144 0.388689
873 4 0.214616 0.408097 0.388623
650 4 0.200663 0.41278 0.377042
649 2 0.175467 0.393545 0.37766
2613 4 0.273184 0.376075 0.330941
872 4 0.262332 0.406279 0.37694
2457 4 0.227234 0.339366 0.338607
2497 2 0.402334 0.347504 0.333703
2498 4 0.383256 0.340389 0.351848
2346 4 0.121197 0.467187 0.378882
2344 2 0.106538 0.477504 0.390463
2345 4 0.0918779 0.48782 0.402044
2876 4 0.119923 0.429007 0.418567
4023 4 0.187792 0.430702 0.413451
263 4 0.186723 0.490246 0.417118
262 2 0.163105 0.480292 0.404035
264 4 0.139488 0.470339 0.390951
3696 4 0.282214 0.473681 0.404903
3597 4 0.260999 0.469344 0.400339
3595 2 0.235138 0.455257 0.408211
3596 4 0.209277 0.44117 0.416083
3989 4 0.345345 0.466461 0.400797
615 4 0.323954 0.433627 0.343823
266 4 0.326572 0.417583 0.336433
3695 4 0.326036 0.46352 0.40998
613 2 0.303304 0.426995 0.360439
3694 2 0.304125 0.4686 0.407441
614 4 0.282653 0.420363 0.377055
813 4 0.397578 0.434226 0.343561
267 4 0.380165 0.428204 0.330421
3990 4 0.396675 0.470488 0.407458
3988 2 0.37101 0.468474 0.404128
265 2 0.353369 0.422893 0.333427
2206 2 0.0382729 0.0125566 0.500888
703 2 0.171166 0.00157083 0.450527
704 4 0.155473 0.0132993 0.456269
3137 4 0.164508 0.0339654 0.414094
298 2 0.352167 0.0450615 0.43252
299 4 0.332562 0.0381932 0.414855
440 4 0.431497 0.0493103 0.455574
439 2 0.40441 0.0426866 0.452457
441 4 0.377322 0.0360629 0.449341
300 4 0.371772 0.0519299 0.450185
3050 4 0.473708 0.0813251 0.48051
471 4 0.0124161 0.155743 0.443548
399 4 0.11697 0.157224 0.435797
397 2 0.10119 0.167622 0.44505
432 4 0.138898 0.0919708 0.427972
891 4 0.240932 0.165829 0.498362
600 4 0.00686214 0.236444 0.474054
1033 2 0.0442901 0.176584 0.46046
1035 4 0.0186433 0.173272 0.454504
598 2 0.0265314 0.250366 0.457845
2725 2 0.12813 0.242847 0.478847
1210 2 0.116566 0.216656 0.417995
1211 4 0.107702 0.224563 0.438055
398 4 0.0854095 0.178019 0.454304
1034 4 0.0699368 0.179897 0.466417
2726 4 0.10057 0.229744 0.477811
889 2 0.267031 0.182028 0.493164
696 4 0.338146 0.240254 0.4541
694 2 0.323815 0.218306 0.46546
695 4 0.309483 0.196358 0.476821
890 4 0.293131 0.198227 0.487966
2683 2 0.495055 0.225324 0.432244
2684 4 0.494956 0.238755 0.452292
3962 4 0.133929 0.316556 0.47428
576 4 0.0998486 0.27056 0.425216
599 4 0.0462006 0.264289 0.441637
2727 4 0.15569 0.255949 0.479883
3027 4 0.175807 0.258004 0.477691
575 4 0.152381 0.279439 0.434801
3961 2 0.158033 0.327511 0.462031
574 2 0.126115 0.274999 0.430009
3025 2 0.188442 0.255107 0.498187
4213 2 0.291101 0.317303 0.491977
3433 2 0.416599 0.332113 0.451196
1179 4 0.355458 0.258003 0.4518
3435 4 0.398351 0.326679 0.432459
1177 2 0.360043 0.2745 0.470292
1178 4 0.364628 0.290996 0.488783
2534 4 0.33534 0.26102 0.413665
3985 2 0.0565588 0.410203 0.479735
3986 4 0.0298201 0.397633 0.485938
2678 4 0.0219785 0.379887 0.476298
1010 4 0.185443 0.350035 0.435016
3963 4 0.182136 0.338465 0.449781
1173 4 0.386006 0.382163 0.430773
4082 4 0.364055 0.372379 0.435155
4081 2 0.341591 0.360924 0.449512
4083 4 0.319126 0.349469 0.463869
4215 4 0.304656 0.332128 0.4729
662 4 0.446015 0.349394 0.486634
3434 4 0.434846 0.337547 0.469933
1172 4 0.424091 0.374822 0.457523
2822 4 0.402443 0.336402 0.414204
1171 2 0.405048 0.378492 0.444148
143 3 0.488009 0.367041 0.460135
2354 4 0.179156 0.473105 0.47855
142 3 0.485683 0.335005 0.474833
141 1 0.473032 0.347881 0.471878
145 3 0.467232 0.353516 0.492239
144 3 0.451518 0.33565 0.459873
1492 2 0.0314087 0.432495 0.428998
3431 4 0.0295478 0.462358 0.491097
1494 4 0.00701578 0.433656 0.430148
2875 2 0.0965095 0.429676 0.426403
1976 4 0.104158 0.433814 0.481404
3987 4 0.0832974 0.422774 0.473532
2877 4 0.0730962 0.430346 0.434238
1493 4 0.0558015 0.431334 0.427848
2223 4 0.0886836 0.485051 0.421151
1977 4 0.157926 0.464687 0.475867
4022 4 0.137156 0.425572 0.425848
2873 4 0.0785374 0.500104 0.0330291
1566 4 0.498868 0.00485415 0.0599837
2949 4 0.0387208 0.999745 0.0966148
3891 4 0.358105 0.00130489 0.269594
707 4 0.361145 0.998926 0.374087
2166 4 0.0196044 0.435045 0.000524973
294 4 0.263448 0.258681 0.00127275
3622 2 0.0126694 0.0563441 0.508847
3624 4 0.0311585 0.0467868 0.509984
724 2 0.0297918 0.0746874 0.559926
726 4 0.0110548 0.0746665 0.576493
725 4 0.0485287 0.0747083 0.543358
1058 4 0.0668309 0.0764492 0.551919
2207 4 0.0262712 0.0274968 0.506749
1057 2 0.0895799 0.0774624 0.563256
1059 4 0.112329 0.0784756 0.574594
1995 4 0.104966 0.0223794 0.581161
734 4 0.0240182 0.10715 0.51243
721 2 0.0720259 0.120003 0.516231
723 4 0.0461902 0.116412 0.510673
722 4 0.0978616 0.123594 0.52179
1489 2 0.145131 0.128816 0.521746
1491 4 0.171858 0.133342 0.523079
2654 4 0.191228 0.139696 0.532113
1216 2 0.162074 0.102879 0.582917
1218 4 0.13477 0.0908203 0.578809
1490 4 0.118403 0.124289 0.520414
2653 2 0.217621 0.149666 0.524435
4227 4 0.197445 0.114859 0.567629
2655 4 0.244013 0.159637 0.516757
4225 2 0.219929 0.110736 0.564509
4226 4 0.242413 0.106613 0.561389
1217 4 0.189377 0.114937 0.587026
3033 4 0.272456 0.130029 0.505606
3031 2 0.300189 0.140633 0.505412
3032 4 0.327922 0.151238 0.505218
1263 4 0.476173 0.123318 0.578481
1261 2 0.500108 0.121475 0.580886
2720 4 0.160831 0.199515 0.560577
2719 2 0.175347 0.21683 0.54364
2721 4 0.189863 0.234145 0.526703
3026 4 0.201077 0.25221 0.518682
3266 4 0.00194889 0.270775 0.568351
3265 2 0.0254951 0.288155 0.57794
3267 4 0.0490413 0.305536 0.58753
1121 4 0.111346 0.337806 0.505903
2845 2 0.187957 0.273865 0.582409
2847 4 0.211758 0.283866 0.569596
3057 4 0.225459 0.294087 0.553976
3055 2 0.249023 0.299999 0.541302
3056 4 0.272587 0.305911 0.528627
4214 4 0.277546 0.302478 0.511055
3162 4 0.374198 0.286225 0.503152
3160 2 0.368394 0.273263 0.524529
3161 4 0.36259 0.260301 0.545907
711 4 0.449884 0.272428 0.544189
709 2 0.474769 0.289987 0.537402
710 4 0.499654 0.307545 0.530616
3322 2 0.0311735 0.383902 0.572633
3324 4 0.0470117 0.399599 0.555031
3064 2 0.0685355 0.357382 0.571202
3065 4 0.0873364 0.360675 0.553375
1122 4 0.0797835 0.348934 0.537762
1120 2 0.0955647 0.34337 0.521833
3123 4 0.204043 0.382716 0.55978
3121 2 0.229071 0.400011 0.566584
3122 4 0.254099 0.417306 0.573388
3580 2 0.286725 0.401858 0.563372
3581 4 0.30565 0.392782 0.562511
3582 4 0.2678 0.410935 0.564233
663 4 0.419095 0.366762 0.517553
661 2 0.432555 0.358078 0.502093
3430 2 0.0491971 0.480104 0.504749
3432 4 0.0688463 0.497849 0.518401
2045 4 0.0863903 0.497747 0.527803
1401 4 0.238095 0.489109 0.508016
2435 4 0.330847 0.492122 0.519516
1813 2 0.38165 0.488983 0.57293
1815 4 0.396816 0.490809 0.552494
2038 2 0.415966 0.475828 0.534659
2039 4 0.421722 0.469768 0.512001
2040 4 0.41021 0.481888 0.557317
1994 4 0.0499242 0.00466638 0.58575
4137 4 0.0291277 0.00127042 0.590207
830 4 0.0778861 0.0774244 0.648297
2604 4 0.125804 0.0342067 0.589941
1993 2 0.0774452 0.0135229 0.583455
829 2 0.100975 0.0739431 0.648309
831 4 0.124064 0.0704618 0.648321
2602 2 0.153377 0.0473938 0.589747
2603 4 0.180949 0.0605809 0.589554
3462 4 0.202537 0.0656515 0.589261
3460 2 0.226146 0.0630442 0.589826
2019 4 0.188611 0.0123988 0.622388
2017 2 0.211164 0.0112926 0.631932
3461 4 0.249756 0.0604369 0.590391
2018 4 0.233717 0.0101863 0.641476
3104 4 0.261156 0.0500629 0.58883
218 3 0.247298 0.00756982 0.628357
3103 2 0.286004 0.0547565 0.598452
3342 4 3.34068e-05 0.2948 0.937371
3105 4 0.310853 0.0594501 0.608074
2811 4 0.318805 0.0608998 0.627391
2809 2 0.319818 0.0641151 0.652181
3013 2 0.499617 0.245726 0.844118
2201 4 0.335483 0.00480687 0.636746
1062 4 0.358188 0.0095485 0.633883
1060 2 0.385715 0.0184333 0.636142
1061 4 0.413242 0.0273182 0.638401
2300 4 0.436318 0.0332982 0.637054
2299 2 0.463587 0.0402647 0.63911
2301 4 0.490856 0.0472312 0.641166
3219 4 0.0111828 0.129654 0.662145
3217 2 0.0385073 0.139371 0.666301
958 2 0.419927 0.129182 0.657548
960 4 0.422213 0.130789 0.632642
1394 4 0.437936 0.145045 0.623254
1395 4 0.469031 0.134989 0.589949
1393 2 0.453483 0.140017 0.606601
668 4 0.00585474 0.232137 0.627375
1259 4 0.02353 0.228176 0.628204
1258 2 0.0491272 0.233082 0.620399
1260 4 0.0747244 0.237988 0.612595
3264 4 0.0968143 0.243188 0.608452
3262 2 0.121022 0.24998 0.596609
1306 2 0.156781 0.219933 0.662075
3099 4 0.227445 0.216544 0.639553
1307 4 0.184009 0.226659 0.660093
3098 4 0.203837 0.239206 0.667798
3097 2 0.215641 0.227875 0.653675
3413 4 0.24927 0.225111 0.638713
3412 2 0.249722 0.202793 0.637155
3414 4 0.250174 0.180475 0.635597
1201 2 0.392173 0.182677 0.665365
1203 4 0.41585 0.180315 0.66737
516 4 0.435793 0.180403 0.6604
514 2 0.461273 0.195898 0.652683
515 4 0.486754 0.211392 0.644965
4329 4 0.498738 0.202636 0.652614
821 4 0.0548238 0.293214 0.599018
820 2 0.0725852 0.304723 0.617537
822 4 0.0903466 0.316232 0.636057
3263 4 0.14523 0.256772 0.584767
2846 4 0.164157 0.263864 0.595222
4197 4 0.435005 0.325729 0.590877
3959 4 0.454558 0.325943 0.59363
3958 2 0.479004 0.328106 0.602149
4251 4 0.474623 0.329649 0.671052
3323 4 0.0153354 0.368206 0.590236
3066 4 0.0497347 0.354089 0.589029
2120 4 0.0353154 0.358713 0.649341
2119 2 0.0443873 0.353758 0.627673
1008 4 0.0365119 0.352949 0.667669
2121 4 0.0534592 0.348803 0.606004
3354 4 0.230779 0.391024 0.626299
3352 2 0.258317 0.400252 0.628751
3353 4 0.285855 0.409479 0.631203
3318 4 0.305164 0.408645 0.623967
3316 2 0.330785 0.410668 0.627635
3317 4 0.356406 0.412691 0.631303
500 4 0.37552 0.411929 0.636733
499 2 0.402795 0.419296 0.639456
4086 4 0.394817 0.351591 0.628108
4195 2 0.418735 0.332978 0.604389
4196 4 0.402464 0.340226 0.617901
4084 2 0.414673 0.368882 0.641988
4085 4 0.434529 0.386173 0.655868
2309 4 0.00185463 0.464824 0.614534
1814 4 0.366484 0.487158 0.593367
4373 4 0.496795 0.493695 0.791216
4092 4 0.3974 0.495847 0.6271
501 4 0.430069 0.426663 0.64218
3114 4 0.452864 0.43721 0.641488
3112 2 0.478116 0.437953 0.643686
1128 4 0.0310379 0.00730371 0.724436
1126 2 0.0367192 0.0289184 0.736095
1127 4 0.0424006 0.0505331 0.747755
918 4 0.0465939 0.0619884 0.731848
3234 4 0.11079 0.0260037 0.74056
3232 2 0.122616 0.0106546 0.735957
4163 4 0.143972 0.0398479 0.682841
4162 2 0.16361 0.0593606 0.694628
4164 4 0.183248 0.0788733 0.706415
3131 4 0.198594 0.00529786 0.700511
2316 4 0.27852 0.0385159 0.675843
4549 2 0.271304 0.0757611 0.70783
2254 2 0.23942 0.0220897 0.720468
2255 4 0.262833 0.0395492 0.730183
2314 2 0.253502 0.0215788 0.668555
4550 4 0.271925 0.0557017 0.718681
1154 4 0.304799 0.0250683 0.73069
2810 4 0.320831 0.0673304 0.676972
4286 4 0.32152 0.0217245 0.722624
4465 2 0.336621 0.0785446 0.740341
4285 2 0.347881 0.0343407 0.715294
4467 4 0.359934 0.0848988 0.727142
4287 4 0.374241 0.0469569 0.707963
1022 4 0.396335 0.0514252 0.709919
1021 2 0.422058 0.0615858 0.719266
1023 4 0.447781 0.0717463 0.728614
1893 4 0.469771 0.0762711 0.725273
944 4 0.428237 0.00546942 0.699385
1891 2 0.492797 0.0783524 0.736922
1144 2 0.00611983 0.123696 0.747432
1145 4 0.0280809 0.139377 0.734358
4139 4 0.0474411 0.145092 0.74376
916 2 0.0582436 0.0849754 0.741666
3218 4 0.0658319 0.149087 0.670458
3023 4 0.0890795 0.155103 0.672751
3022 2 0.115791 0.159567 0.674026
917 4 0.0698933 0.107962 0.751484
3415 2 0.182438 0.154379 0.748977
3024 4 0.142503 0.164031 0.6753
3417 4 0.203716 0.150758 0.739905
4499 4 0.20351 0.0903703 0.699889
4498 2 0.230174 0.0954862 0.703489
3244 2 0.250718 0.168165 0.745173
977 4 0.275268 0.157569 0.744517
4500 4 0.256839 0.100602 0.707089
4551 4 0.270684 0.0958205 0.696978
976 2 0.30135 0.160091 0.744041
3236 4 0.330954 0.146402 0.740342
3235 2 0.351237 0.141689 0.730612
3237 4 0.37152 0.136976 0.720883
963 4 0.388106 0.155429 0.719625
961 2 0.402094 0.149812 0.70187
962 4 0.416082 0.144195 0.684115
959 4 0.417642 0.127575 0.682454
1064 4 0.480543 0.152526 0.710732
1063 2 0.48655 0.149425 0.734384
3292 2 0.0155274 0.223737 0.732407
3147 4 0.00940525 0.177674 0.735371
3145 2 0.0251828 0.176267 0.716596
3293 4 0.0369434 0.219289 0.739531
3248 4 0.0554496 0.215919 0.738856
3146 4 0.0409603 0.17486 0.697822
4080 4 0.0642093 0.18168 0.700053
3247 2 0.0828908 0.223822 0.736982
1308 4 0.129552 0.213207 0.664057
4079 4 0.113508 0.206563 0.678002
4078 2 0.0888585 0.194121 0.689028
3249 4 0.110332 0.231724 0.735107
3386 4 0.129834 0.234454 0.742448
808 2 0.191691 0.180928 0.683342
809 4 0.218659 0.189234 0.688642
810 4 0.164724 0.172622 0.678041
3143 4 0.24126 0.19862 0.689286
3142 2 0.26724 0.201058 0.691211
3246 4 0.278025 0.176037 0.742073
3144 4 0.293221 0.203497 0.693137
3018 4 0.304449 0.196186 0.70436
3016 2 0.329218 0.205972 0.715609
3017 4 0.353987 0.215757 0.726858
3012 4 0.375101 0.222047 0.736893
1202 4 0.368496 0.185039 0.663359
3010 2 0.402663 0.231579 0.739336
3011 4 0.430224 0.24111 0.74178
3465 4 0.452839 0.249956 0.746024
1234 2 0.471357 0.373315 0.999312
1067 4 0.0165012 0.275214 0.72317
1006 2 0.0189948 0.331139 0.677662
1066 2 0.0437696 0.281735 0.723072
4318 2 0.117868 0.294039 0.72034
4319 4 0.0910202 0.288068 0.724134
1068 4 0.0710379 0.288257 0.722974
2047 2 0.183696 0.300139 0.724561
2049 4 0.16254 0.305985 0.728663
4320 4 0.144716 0.300011 0.716545
3115 2 0.253185 0.30189 0.719883
3116 4 0.227581 0.299942 0.72346
2048 4 0.204852 0.294294 0.720459
3451 2 0.32704 0.321257 0.70924
3453 4 0.354717 0.331305 0.710617
3452 4 0.299362 0.311208 0.707863
3117 4 0.27879 0.303838 0.716307
3108 4 0.361349 0.315948 0.70931
3106 2 0.387285 0.319313 0.704585
3107 4 0.413221 0.322677 0.69986
4250 4 0.433618 0.332389 0.697552
4249 2 0.454121 0.331019 0.684302
4492 2 0.255928 0.41781 0.74568
3372 4 0.449263 0.383572 0.667143
2244 4 0.459775 0.371061 0.703208
2242 2 0.465618 0.379325 0.726732
3370 2 0.476074 0.388774 0.6645
772 2 0.046412 0.451589 0.734323
773 4 0.0376537 0.46858 0.727225
2741 4 0.0765046 0.440806 0.744852
774 4 0.0551704 0.434598 0.741421
4200 4 0.0931762 0.500568 0.694055
4493 4 0.260124 0.428791 0.723242
3327 4 0.49435 0.474279 0.727905
3192 4 0.481312 0.464911 0.74219
3021 4 0.043752 0.0335777 0.790493
3053 4 0.06428 0.0353537 0.790508
3019 2 0.0174986 0.0165593 0.793411
3052 2 0.0848681 0.0571778 0.797337
3054 4 0.105456 0.0790019 0.804166
3087 4 0.203376 0.0572745 0.75249
3393 4 0.200084 0.0342 0.818594
3086 4 0.202203 0.0410938 0.799345
3085 2 0.20279 0.0491841 0.775918
4466 4 0.313308 0.0721904 0.75354
2400 4 0.0984247 0.00636113 0.951395
2263 2 0.275833 0.00566175 0.83232
2264 4 0.298903 0.00619037 0.822106