ITEM: TIMESTEP
498000
ITEM: NUMBER OF ATOMS
4590
ITEM: BOX BOUNDS xy xz yz pp pp pp
-1.0798455600000011e+01 9.9985700000000008e+00 -7.9988560000001030e-01
-9.9985700000000008e+00 9.9985700000000008e+00 0.0000000000000000e+00
-9.9985700000000008e+00 9.9985700000000008e+00 0.0000000000000000e+00
ITEM: ATOMS id type xs ys zs
2948 4 0.0630558 0.0172589 0.0758888
2798 4 0.203296 0.0190417 0.0330228
2854 2 0.378037 0.0787487 0.00689585
1248 4 0.484652 0.0218618 0.0365399
4401 4 0.473196 0.0275391 0.0199569
2856 4 0.385171 0.0955783 0.0242224
573 4 0.397965 0.104383 0.0367268
571 2 0.420448 0.112957 0.0445682
572 4 0.442931 0.121531 0.0524095
1785 4 0.456296 0.132354 0.0411177
1783 2 0.480032 0.139995 0.0368954
2470 2 0.0343605 0.21415 0.0836227
2471 4 0.0589528 0.216385 0.079174
2857 2 0.101695 0.23145 0.0767076
2859 4 0.126491 0.235526 0.0780322
2858 4 0.0768984 0.227373 0.075383
2567 4 0.146133 0.231868 0.0721641
2566 2 0.169899 0.240212 0.0747064
2568 4 0.193666 0.248556 0.0772487
564 4 0.330141 0.231049 0.0420341
562 2 0.351021 0.245635 0.0413353
3514 2 0.434882 0.239979 0.00557105
2818 2 0.437919 0.244577 0.078906
3084 4 0.470051 0.229515 0.00932113
3082 2 0.493523 0.235448 0.0164006
2819 4 0.461653 0.247796 0.0713144
957 4 0.0162952 0.322209 0.000229269
2912 4 0.174363 0.295519 0.0359454
2911 2 0.195776 0.308046 0.0415078
3261 4 0.18469 0.283934 0.0228539
3259 2 0.186719 0.264926 0.00685098
2913 4 0.21719 0.320572 0.0470702
330 4 0.230007 0.316896 0.0315887
12 3 0.243526 0.263513 0.0749208
328 2 0.244212 0.317475 0.011004
323 4 0.337515 0.309715 0.0106285
322 2 0.356029 0.294054 0.0143081
3140 4 0.328103 0.327881 0.00686395
563 4 0.371901 0.260221 0.0406366
324 4 0.374543 0.278393 0.0179878
273 4 0.38666 0.271573 0.0327395
271 2 0.404244 0.282699 0.0471503
272 4 0.421828 0.293824 0.061561
3515 4 0.416527 0.254872 0.0122227
2094 4 0.433538 0.290614 0.0771175
2454 4 0.383181 0.267963 0.00367657
2828 4 0.421718 0.326642 0.0308026
2827 2 0.446404 0.331475 0.0294197
3343 2 0.494371 0.270892 0.0617381
3344 4 0.477228 0.260426 0.0770983
955 2 0.0373751 0.335182 0.00607239
956 4 0.0584549 0.348155 0.0119155
1595 4 0.00812986 0.363577 0.0716128
4547 4 0.0237874 0.368098 0.0598362
4546 2 0.047496 0.361108 0.0589024
545 4 0.118925 0.339873 0.0222071
544 2 0.0966886 0.342314 0.0112341
4548 4 0.0712046 0.354117 0.0579687
3405 4 0.127814 0.34108 0.0398444
3404 4 0.170569 0.343678 0.0658218
3403 2 0.149191 0.342379 0.0528331
3657 4 0.183108 0.350512 0.0508836
3655 2 0.203443 0.365764 0.0490178
3656 4 0.223779 0.381016 0.047152
1223 4 0.26873 0.377893 0.0116409
1222 2 0.267516 0.374522 0.0363927
1224 4 0.266302 0.371151 0.0611445
3139 2 0.32861 0.345144 0.0249512
3141 4 0.329118 0.362406 0.0430385
1760 4 0.346597 0.364022 0.0531781
1759 2 0.338261 0.359888 0.0764446
536 4 0.361938 0.371647 0.0425452
535 2 0.385139 0.381354 0.045796
537 4 0.408339 0.391062 0.0490468
4188 4 0.42563 0.40201 0.0524878
2829 4 0.471091 0.336308 0.0280368
4186 2 0.447903 0.401964 0.0638474
4187 4 0.470175 0.401918 0.075207
2450 4 0.468467 0.382129 0.077282
29 3 0.485958 0.342302 0.0399353
523 2 0.0312075 0.477493 0.0043669
525 4 0.0130608 0.480093 0.0212585
4533 4 0.127504 0.499376 0.0653199
2873 4 0.144742 0.496876 0.0748083
2357 4 0.339231 0.480855 0.0864424
3906 4 0.012328 0.0389061 0.116289
2552 4 0.0251978 0.058123 0.116803
2551 2 0.0415823 0.0541447 0.135124
2553 4 0.0579667 0.0501664 0.153445
2947 2 0.0580324 0.00112278 0.0944803
3520 2 0.0969591 0.0495278 0.161663
3521 4 0.074469 0.0595813 0.161864
3522 4 0.119449 0.0394743 0.161461
2577 4 0.136775 0.0227956 0.101018
3957 4 0.138478 0.0489805 0.15651
3955 2 0.163131 0.0499074 0.160796
3783 4 0.167829 0.0140525 0.132552
3956 4 0.187784 0.0508342 0.165082
419 4 0.315052 0.0774728 0.141886
418 2 0.333534 0.0711634 0.126576
2522 4 0.300557 0.067627 0.151828
420 4 0.352016 0.064854 0.111266
2521 2 0.284108 0.0773668 0.167537
3480 4 0.473685 0.0288294 0.0948969
3478 2 0.477612 0.0410355 0.116446
3479 4 0.481539 0.0532416 0.137995
827 4 0.486062 0.0725359 0.134973
1125 4 0.00616225 0.143122 0.0969448
1123 2 0.0221635 0.142147 0.116101
1124 4 0.0381647 0.141173 0.135256
3291 4 0.0492215 0.126161 0.137035
3289 2 0.0714659 0.11563 0.136312
3290 4 0.0937102 0.105098 0.13559
3992 4 0.106542 0.0993559 0.121993
3991 2 0.12511 0.112586 0.110824
450 4 0.128325 0.160344 0.16495
2759 4 0.108888 0.154942 0.164484
3993 4 0.143678 0.125817 0.0996554
2886 4 0.158576 0.127154 0.111744
2884 2 0.178537 0.13601 0.124487
2885 4 0.198497 0.144866 0.137229
448 2 0.152363 0.167111 0.161141
3279 4 0.210117 0.147787 0.153885
3277 2 0.232864 0.139237 0.14953
3278 4 0.255611 0.130687 0.145175
2933 4 0.27088 0.117236 0.14191
2932 2 0.293613 0.128412 0.143816
2934 4 0.316346 0.139588 0.145722
698 4 0.327007 0.123262 0.149654
697 2 0.350219 0.132849 0.146171
699 4 0.373431 0.142436 0.142688
876 4 0.392378 0.147418 0.137208
874 2 0.415748 0.155475 0.131816
875 4 0.439118 0.163532 0.126425
914 4 0.459031 0.163085 0.12695
913 2 0.478493 0.148948 0.122034
915 4 0.497956 0.13481 0.117117
826 2 0.492795 0.0941223 0.123803
2472 4 0.00976809 0.211915 0.0880713
2519 4 0.0813239 0.244157 0.158081
2849 4 0.178047 0.244857 0.149309
2848 2 0.196682 0.237946 0.134484
449 4 0.176401 0.173878 0.157333
765 4 0.222595 0.214465 0.124017
2850 4 0.215317 0.231035 0.11966
763 2 0.246256 0.220954 0.11806
764 4 0.269916 0.227443 0.112103
912 4 0.283841 0.240565 0.107756
2596 2 0.276259 0.218387 0.164483
2597 4 0.253542 0.20782 0.168545
2844 4 0.315013 0.221903 0.149433
910 2 0.30852 0.239151 0.104392
2598 4 0.298976 0.228954 0.160421
2842 2 0.335836 0.214385 0.160497
624 4 0.350113 0.244328 0.0916397
911 4 0.3332 0.237738 0.101027
2843 4 0.35666 0.206866 0.171561
623 4 0.398281 0.233805 0.0970313
2820 4 0.414186 0.241358 0.0864975
622 2 0.374197 0.239066 0.0943355
2904 4 0.0217342 0.278073 0.11017
2520 4 0.0443911 0.276264 0.155043
2902 2 0.00410008 0.293114 0.118318
2518 2 0.0628575 0.260211 0.156562
558 4 0.13456 0.293145 0.159543
13 3 0.208738 0.256937 0.0882418
15 3 0.224575 0.291702 0.0888874
11 1 0.228516 0.269551 0.0910473
427 2 0.229188 0.324692 0.142488
428 4 0.230068 0.311878 0.163913
14 3 0.237528 0.26545 0.111961
2717 4 0.254215 0.27569 0.116866
2716 2 0.276755 0.287278 0.118751
2718 4 0.299294 0.298866 0.120637
2673 4 0.313556 0.286397 0.117796
2671 2 0.338121 0.291551 0.115504
2672 4 0.362686 0.296706 0.113213
2092 2 0.455177 0.300493 0.0858516
2093 4 0.476816 0.310372 0.0945857
495 4 0.496007 0.30548 0.0879174
2782 2 0.000648805 0.401025 0.136147
2783 4 0.0243514 0.409199 0.132689
3882 4 0.0284436 0.393587 0.121049
3880 2 0.0528927 0.392582 0.116105
3881 4 0.0773419 0.391578 0.111161
3801 4 0.0947273 0.403099 0.116813
3799 2 0.116087 0.391767 0.112233
3800 4 0.137446 0.380436 0.107653
2951 4 0.1481 0.391065 0.119335
2950 2 0.173117 0.391513 0.119191
2952 4 0.198134 0.391961 0.119048
2565 4 0.217632 0.395702 0.114468
2661 4 0.274257 0.334624 0.0864852
2563 2 0.235443 0.397315 0.132008
2660 4 0.244162 0.371716 0.0977832
429 4 0.228308 0.337507 0.121063
2659 2 0.259209 0.35317 0.0921342
3594 4 0.28867 0.350256 0.128136
2564 4 0.253254 0.398929 0.149548
3592 2 0.285881 0.370139 0.142867
3593 4 0.283092 0.390022 0.157598
1761 4 0.329925 0.355754 0.0997112
2449 2 0.489097 0.380329 0.0911876
2356 2 0.354319 0.464096 0.0962408
2358 4 0.369406 0.447338 0.106039
1592 4 0.368157 0.469077 0.163447
924 4 0.388394 0.45304 0.106372
1625 4 0.385332 0.459853 0.158312
922 2 0.409483 0.466614 0.102038
923 4 0.430573 0.480187 0.0977042
2890 2 0.462944 0.460562 0.160257
2892 4 0.474728 0.448968 0.141799
4508 4 0.0174116 0.00858435 0.243457
4509 4 0.0183603 0.0152968 0.193907
4507 2 0.017886 0.0119406 0.218682
2768 4 0.205501 0.0611941 0.168242
2767 2 0.22749 0.0714692 0.175589
2769 4 0.24948 0.0817444 0.182936
2944 2 0.280914 0.00204634 0.201189
2946 4 0.298936 0.0199578 0.203405
350 4 0.31616 0.0332201 0.202799
349 2 0.332257 0.0466506 0.217036
351 4 0.348354 0.0600811 0.231274
3722 4 0.366158 0.0686117 0.235631
498 4 0.382563 0.0230055 0.237952
691 2 0.0225008 0.149336 0.175049
692 4 0.0452925 0.160499 0.173917
2758 2 0.0858357 0.16288 0.168487
2760 4 0.0627837 0.170819 0.172489
2523 4 0.267659 0.0871066 0.183246
402 4 0.449224 0.157618 0.212364
548 4 0.192614 0.181899 0.167261
547 2 0.213244 0.196497 0.170459
549 4 0.233874 0.211095 0.173657
761 4 0.318862 0.185319 0.233482
306 4 0.302228 0.192359 0.243217
401 4 0.415723 0.186448 0.234011
400 2 0.432474 0.172033 0.223187
556 2 0.150895 0.286057 0.176827
557 4 0.16723 0.27897 0.194112
518 4 0.222198 0.315536 0.181057
517 2 0.242729 0.312165 0.194722
2936 4 0.24463 0.285255 0.244682
519 4 0.26326 0.308793 0.208387
2907 4 0.307475 0.252046 0.24129
2905 2 0.330414 0.260197 0.248174
569 4 0.0193113 0.366698 0.191078
568 2 0.0434219 0.37416 0.189501
570 4 0.0675326 0.381622 0.187923
1332 4 0.0187943 0.335496 0.245651
750 4 0.999554 0.359218 0.194409
3209 4 0.0857939 0.385532 0.199112
3208 2 0.0929665 0.40804 0.19021
102 3 0.10501 0.381501 0.208065
105 3 0.112137 0.352755 0.230383
101 1 0.120174 0.365568 0.213124
104 3 0.140313 0.376209 0.21917
103 3 0.123209 0.352329 0.194403
2514 4 0.125029 0.348181 0.244528
620 4 0.160395 0.382769 0.219439
619 2 0.181246 0.391693 0.230644
621 4 0.202097 0.400617 0.241849
2556 4 0.263297 0.379981 0.227372
2554 2 0.271415 0.402671 0.235011
2964 4 0.250515 0.364781 0.22997
2962 2 0.257381 0.348077 0.246981
3210 4 0.100139 0.430548 0.181307
2555 4 0.279534 0.42536 0.24265
1591 2 0.361633 0.492611 0.1674
1624 2 0.408555 0.464141 0.166995
120 3 0.423847 0.47658 0.193049
1626 4 0.431779 0.468429 0.175678
3537 4 0.439409 0.46729 0.230132
2891 4 0.451159 0.472157 0.178716
116 1 0.440765 0.490266 0.201008
119 3 0.44467 0.485548 0.223355
118 3 0.460066 0.487419 0.188625
416 4 0.0458728 0.0091022 0.312394
466 2 0.311319 0.0121157 0.302746
467 4 0.328268 0.0144613 0.284427
468 4 0.294371 0.00976996 0.321065
497 4 0.377337 0.00856206 0.285602
496 2 0.37995 0.0157838 0.261777
3721 2 0.381642 0.0766168 0.253829
2559 4 0.483205 0.0209892 0.322736
2557 2 0.470331 0.0108955 0.303558
279 4 0.0228507 0.15168 0.305964
1517 4 0.00468956 0.145548 0.300034
277 2 0.0429892 0.158795 0.292533
2664 4 0.012417 0.102305 0.321852
278 4 0.0631278 0.16591 0.279103
2942 4 0.306389 0.0908138 0.321948
2831 4 0.289896 0.101336 0.323929
3252 4 0.350884 0.102185 0.267249
3250 2 0.347457 0.125317 0.275685
3251 4 0.34403 0.148449 0.28412
762 4 0.342275 0.156356 0.266011
2941 2 0.331343 0.0918411 0.323802
2943 4 0.356298 0.0928684 0.325656
3723 4 0.397126 0.084622 0.272026
2642 4 0.395499 0.0896937 0.290653
2641 2 0.384193 0.0976338 0.311318
2894 4 0.0843411 0.168575 0.275717
2893 2 0.109254 0.171282 0.274111
2738 4 0.0958766 0.196874 0.329985
2543 4 0.0805702 0.209891 0.328428
2737 2 0.113565 0.214752 0.334171
423 4 0.145021 0.171617 0.257266
2895 4 0.134167 0.173989 0.272505
2637 4 0.149682 0.23713 0.331437
421 2 0.166272 0.176553 0.269819
422 4 0.187522 0.18149 0.282372
1700 4 0.195878 0.197659 0.272922
2635 2 0.17234 0.23076 0.323716
2636 4 0.194998 0.22439 0.315995
1699 2 0.21864 0.194353 0.26343
1701 4 0.241402 0.191048 0.253937
305 4 0.257215 0.188291 0.264956
304 2 0.279721 0.190325 0.254087
760 2 0.330569 0.170837 0.249747
1463 4 0.415679 0.244312 0.265489
2836 2 0.0127136 0.294011 0.284595
2838 4 0.0356184 0.29508 0.294663
2498 4 0.0485563 0.309647 0.2996
2497 2 0.0724813 0.309268 0.292396
2499 4 0.0964063 0.308889 0.285191
2513 4 0.106894 0.327086 0.286442
2935 2 0.245069 0.281386 0.269378
2937 4 0.245509 0.277517 0.294073
276 4 0.254529 0.284648 0.310922
274 2 0.261123 0.298936 0.330538
2963 4 0.264248 0.331373 0.263992
3194 4 0.309989 0.327893 0.30152
2906 4 0.353353 0.268348 0.255059
2579 4 0.318277 0.314174 0.311707
1464 4 0.373271 0.264922 0.251104
2601 4 0.428973 0.256856 0.27483
1462 2 0.394475 0.254617 0.258296
2599 2 0.452729 0.264558 0.270821
2600 4 0.476485 0.272259 0.266812
2801 4 0.494048 0.269598 0.258255
1330 2 0.0277535 0.356194 0.257081
1331 4 0.0367127 0.376893 0.268511
270 4 0.0575564 0.374219 0.266775
268 2 0.0817025 0.380403 0.270751
269 4 0.105849 0.386586 0.274726
2512 2 0.115961 0.337633 0.265485
1530 4 0.116971 0.392222 0.291378
1528 2 0.139435 0.399142 0.282157
812 4 0.194986 0.406319 0.259513
1529 4 0.161899 0.406062 0.272935
811 2 0.207495 0.414396 0.279797
3195 4 0.27719 0.346358 0.26935
3193 2 0.293589 0.337126 0.285435
2622 4 0.379917 0.406823 0.327073
1821 4 0.00514974 0.422648 0.334525
1429 2 0.0353297 0.451487 0.317382
1430 4 0.0177739 0.433201 0.320167
1431 4 0.0528855 0.469773 0.314597
314 4 0.0616705 0.483924 0.301447
3671 4 0.0245314 0.490023 0.325165
681 4 0.0128533 0.475479 0.332811
313 2 0.0846408 0.479844 0.292882
315 4 0.107611 0.475764 0.284316
596 4 0.112097 0.47769 0.263468
595 2 0.134282 0.467541 0.260027
597 4 0.156466 0.457393 0.256586
813 4 0.220004 0.422474 0.300082
265 2 0.224009 0.440969 0.326455
267 4 0.237325 0.430996 0.308081
3606 4 0.397212 0.418055 0.322451
3604 2 0.419256 0.423988 0.311751
3605 4 0.441299 0.42992 0.301051
3535 2 0.45248 0.470445 0.25129
3536 4 0.465551 0.4736 0.272448
231 4 0.48008 0.48518 0.282051
3816 4 0.0481917 0.0148471 0.331852
1181 4 0.111713 0.995843 0.404817
3814 2 0.0566986 0.0146554 0.355361
3815 4 0.0652054 0.0144637 0.378869
703 2 0.146709 0.00159973 0.393403
705 4 0.162839 0.0141322 0.378441
354 4 0.170415 0.00874505 0.359441
352 2 0.194223 0.00660256 0.352392
388 2 0.257179 0.00760813 0.345049
389 4 0.23447 0.0101494 0.354968
353 4 0.21803 0.00446008 0.345343
390 4 0.279888 0.0050669 0.335129
367 2 0.335384 0.056065 0.402683
368 4 0.337731 0.0758179 0.387433
299 4 0.42292 0.0019479 0.406855
432 4 0.381078 0.0754719 0.39603
1772 4 0.364792 0.0266403 0.416977
1773 4 0.407785 0.0114942 0.39773
1771 2 0.386289 0.0190672 0.407354
3497 4 0.0264085 0.118863 0.388004
3496 2 0.0223984 0.111928 0.364273
3498 4 0.0183882 0.104992 0.340542
2777 4 0.0395359 0.12936 0.400823
2832 4 0.277198 0.109127 0.371582
2830 2 0.283547 0.105231 0.347756
2627 4 0.297537 0.114926 0.372791
2628 4 0.331766 0.141337 0.399302
2626 2 0.314652 0.128132 0.386046
3207 4 0.347729 0.130334 0.393618
430 2 0.398556 0.0879059 0.382531
2643 4 0.372888 0.105574 0.331983
3205 2 0.371078 0.137732 0.399864
3206 4 0.394427 0.145131 0.406109
431 4 0.416034 0.10034 0.369032
257 4 0.424635 0.116949 0.376806
1212 4 0.407337 0.161403 0.404455
256 2 0.448822 0.123472 0.379994
258 4 0.47301 0.129995 0.383183
900 4 0.491468 0.140503 0.381388
2922 4 0.00358175 0.22517 0.405452
2920 2 0.0117623 0.221407 0.382179
2921 4 0.0199429 0.217645 0.358906
2544 4 0.0396538 0.217812 0.35559
2542 2 0.060112 0.213852 0.342009
2739 4 0.131253 0.232629 0.338356
3852 4 0.231908 0.173848 0.354773
3850 2 0.241884 0.19681 0.358764
3851 4 0.25186 0.219771 0.362755
3888 4 0.270026 0.214497 0.370461
3886 2 0.287892 0.21792 0.387757
3887 4 0.305759 0.221344 0.405052
469 2 0.353447 0.205377 0.400392
470 4 0.359924 0.208489 0.37641
3438 4 0.376785 0.20667 0.366293
3436 2 0.399912 0.210996 0.35737
3437 4 0.423038 0.215323 0.348448
1210 2 0.414141 0.184805 0.41102
371 4 0.441684 0.211313 0.345505
370 2 0.466475 0.215509 0.344371
372 4 0.491266 0.219706 0.343237
2533 2 0.00815761 0.2978 0.401608
2535 4 0.0215521 0.311417 0.418181
1151 4 0.0197374 0.270389 0.374831
1150 2 0.0445065 0.270936 0.371301
2823 4 0.0385267 0.312237 0.405789
2821 2 0.0589367 0.327425 0.404249
459 4 0.0889873 0.275764 0.365589
1152 4 0.0692756 0.271484 0.367772
457 2 0.104208 0.286199 0.382827
458 4 0.119429 0.296635 0.400065
452 4 0.135569 0.310203 0.400861
451 2 0.158595 0.307088 0.40978
2550 4 0.197555 0.297434 0.407659
2548 2 0.221374 0.298904 0.400015
275 4 0.267716 0.313224 0.350153
2549 4 0.245194 0.300374 0.39237
2852 4 0.268751 0.321208 0.36739
2851 2 0.292365 0.329118 0.371841
2957 4 0.263136 0.304972 0.400388
2578 2 0.328335 0.3243 0.33243
2580 4 0.338393 0.334427 0.353154
346 2 0.382164 0.260468 0.400858
2882 4 0.395197 0.267279 0.36017
348 4 0.381555 0.266139 0.376521
2881 2 0.41931 0.274906 0.36062
2883 4 0.443423 0.282534 0.361071
426 4 0.462705 0.289305 0.362452
424 2 0.481596 0.306435 0.362991
2822 4 0.0793467 0.342613 0.402708
3435 4 0.0986949 0.345761 0.407723
650 4 0.0792007 0.412783 0.343016
2853 4 0.31598 0.337028 0.376292
1221 4 0.334994 0.334549 0.373834
1219 2 0.359372 0.338333 0.378728
1220 4 0.383749 0.342118 0.383621
2621 4 0.38047 0.394133 0.375432
2620 2 0.380193 0.400478 0.351252
1472 4 0.397552 0.401786 0.385369
2961 4 0.404707 0.34569 0.380968
1471 2 0.420672 0.410221 0.391283
2959 2 0.427738 0.351964 0.389148
2960 4 0.450768 0.358239 0.397328
2462 4 0.470691 0.355547 0.397324
2461 2 0.494623 0.363791 0.396898
649 2 0.0585579 0.419111 0.355202
651 4 0.0379151 0.425438 0.367388
873 4 0.091375 0.429278 0.344219
871 2 0.114856 0.434035 0.35197
2345 4 0.120162 0.482892 0.399344
2344 2 0.142806 0.474265 0.394628
872 4 0.138338 0.438792 0.359721
2223 4 0.110948 0.499673 0.394929
614 4 0.150672 0.435385 0.374667
613 2 0.171493 0.438254 0.36095
264 4 0.181733 0.478497 0.391798
2346 4 0.16545 0.465638 0.389912
615 4 0.192315 0.441123 0.347232
266 4 0.210693 0.450942 0.344829
1473 4 0.443792 0.418657 0.397197
768 4 0.409108 0.474847 0.414003
766 2 0.421612 0.467826 0.393694
767 4 0.434116 0.460804 0.373386
1736 4 0.453984 0.426546 0.412322
605 4 0.0959589 0.000851903 0.449169
604 2 0.109276 0.0124825 0.467189
606 4 0.122593 0.0241132 0.48521
2208 4 0.128421 0.0429764 0.48925
3137 4 0.268034 0.0325889 0.443665
369 4 0.333036 0.0363121 0.417934
3138 4 0.314329 0.0312927 0.424929
3136 2 0.291182 0.0319408 0.434297
440 4 0.411683 0.0149145 0.502057
439 2 0.427553 0.0163614 0.482742
441 4 0.443423 0.0178084 0.463428
298 2 0.436007 0.00388297 0.428119
300 4 0.449094 0.00581804 0.449384
2776 2 0.0498136 0.120847 0.421798
2778 4 0.0600914 0.112333 0.442773
2910 4 0.0732353 0.115702 0.458025
2908 2 0.0948854 0.127248 0.464578
2909 4 0.116536 0.138794 0.47113
2113 2 0.192523 0.112783 0.456368
2115 4 0.173608 0.125537 0.447139
2114 4 0.211438 0.10003 0.465598
1602 4 0.23038 0.0971044 0.470881
1600 2 0.2543 0.101076 0.477577
1601 4 0.278219 0.105047 0.484272
735 4 0.296187 0.105031 0.494028
733 2 0.320711 0.110207 0.496692
734 4 0.345234 0.115384 0.499357
723 4 0.366084 0.115236 0.501523
721 2 0.390918 0.119197 0.502311
397 2 0.412568 0.147259 0.457211
398 4 0.387828 0.145221 0.460819
1034 4 0.36786 0.145542 0.460427
399 4 0.437307 0.149297 0.453603
1489 2 0.455893 0.139564 0.497433
1491 4 0.476926 0.151757 0.490057
2654 4 0.495004 0.164907 0.48917
1490 4 0.43486 0.12737 0.504809
3059 4 0.018556 0.230636 0.418362
1032 4 0.0467283 0.179343 0.457939
1030 2 0.0227819 0.173066 0.462871
3058 2 0.0347082 0.241563 0.434449
240 4 0.0636714 0.174652 0.450071
238 2 0.0880698 0.176771 0.444636
239 4 0.112468 0.178889 0.439201
716 4 0.124083 0.195889 0.438575
801 4 0.13174 0.235171 0.497675
715 2 0.148579 0.197129 0.443673
373 2 0.166584 0.237915 0.491964
374 4 0.145774 0.224193 0.486824
717 4 0.173076 0.19837 0.448771
504 4 0.191498 0.197112 0.458399
375 4 0.187393 0.251636 0.497104
502 2 0.21644 0.197129 0.456631
503 4 0.241382 0.197145 0.454864
383 4 0.259407 0.205184 0.446778
382 2 0.278364 0.219314 0.456122
471 4 0.34697 0.202265 0.424374
384 4 0.29732 0.233444 0.465465
954 4 0.310752 0.219839 0.466755
952 2 0.327854 0.23176 0.481131
1035 4 0.354237 0.184414 0.432871
953 4 0.344956 0.243682 0.495507
1033 2 0.361049 0.164978 0.446649
1211 4 0.420945 0.208208 0.417585
598 2 0.412309 0.237015 0.438193
599 4 0.42733 0.21795 0.434644
3060 4 0.0508604 0.25249 0.450537
1171 2 0.0525166 0.327381 0.492622
1173 4 0.0282798 0.320376 0.494108
4082 4 0.00965441 0.324457 0.487639
2685 4 0.0623926 0.267156 0.459996
2683 2 0.0850732 0.276523 0.466312
2684 4 0.107754 0.285889 0.472629
711 4 0.120543 0.300713 0.478939
453 4 0.18162 0.303973 0.418698
728 4 0.203741 0.26337 0.493887
727 2 0.214462 0.277604 0.476012
709 2 0.141216 0.308627 0.491112
729 4 0.225184 0.291838 0.458137
2956 2 0.278721 0.303698 0.419857
2958 4 0.294307 0.302425 0.439327
3128 4 0.304551 0.316589 0.447809
3127 2 0.328687 0.323634 0.450362
3129 4 0.352823 0.330678 0.452915
600 4 0.397289 0.256081 0.441742
347 4 0.382774 0.254797 0.425196
4081 2 0.000564046 0.346548 0.481503
661 2 0.107778 0.350092 0.482354
3433 2 0.113923 0.352545 0.426576
662 4 0.124431 0.354582 0.464088
3434 4 0.129151 0.359329 0.44543
1172 4 0.0767534 0.334385 0.491136
3695 4 0.121918 0.418334 0.428532
3989 4 0.138906 0.412455 0.438452
3694 2 0.0976842 0.417685 0.434755
144 3 0.175595 0.344326 0.457465
143 3 0.16391 0.373561 0.436861
145 3 0.174853 0.378748 0.472575
141 1 0.178525 0.367091 0.453453
142 3 0.200134 0.371521 0.446368
2571 4 0.22078 0.369225 0.444881
2569 2 0.245769 0.370007 0.446178
2570 4 0.270758 0.37079 0.447476
2925 4 0.286844 0.376655 0.438597
2923 2 0.311587 0.375145 0.44137
2924 4 0.33633 0.373635 0.444143
2972 4 0.350593 0.370698 0.457888
2971 2 0.370388 0.385955 0.452952
983 4 0.338688 0.399426 0.506452
2973 4 0.390183 0.401211 0.448015
3596 4 0.0103478 0.42549 0.423814
3595 2 0.0326043 0.424126 0.435018
2354 4 0.0237841 0.447281 0.487987
2353 2 0.035794 0.467558 0.478574
2355 4 0.0478039 0.487836 0.469161
3597 4 0.0548607 0.422762 0.446222
1977 4 0.00872383 0.431717 0.49325
3696 4 0.0734503 0.417036 0.440979
2918 4 0.182038 0.465093 0.497654
3988 2 0.162873 0.419317 0.442543
3990 4 0.186841 0.42618 0.446635
4483 2 0.445955 0.450425 0.500874
538 2 0.387505 0.459803 0.436451
4484 4 0.421714 0.454975 0.503695
540 4 0.386084 0.443078 0.455022
539 4 0.388925 0.476528 0.41788
2108 4 0.474617 0.463016 0.489584
2107 2 0.495667 0.477274 0.491162
1735 2 0.476773 0.436732 0.416848
3714 4 0.0226708 0.0320776 0.569502
3712 2 0.000529172 0.0206212 0.574377
4136 4 0.0410141 0.0276716 0.56429
3623 4 0.043021 0.0724763 0.523136
3622 2 0.067763 0.0744834 0.526734
4135 2 0.065607 0.0285909 0.568908
3624 4 0.0925051 0.0764904 0.530333
4137 4 0.0902 0.0295102 0.573526
2207 4 0.0941597 0.0587423 0.521416
2206 2 0.11129 0.0508593 0.505333
1994 4 0.108507 0.0281951 0.582721
2604 4 0.175465 0.0393661 0.578297
1995 4 0.157283 0.0342887 0.57232
1993 2 0.132895 0.0312419 0.57752
2602 2 0.199741 0.0397615 0.572258
3462 4 0.242957 0.0376527 0.557312
2603 4 0.224017 0.0401568 0.566219
3460 2 0.266422 0.045902 0.561995
3461 4 0.289886 0.0541512 0.566678
3104 4 0.309789 0.060478 0.568255
3103 2 0.333127 0.0684226 0.573925
2811 4 0.375794 0.0734711 0.574367
2809 2 0.398546 0.0789386 0.583724
3466 2 0.187647 0.148616 0.562898
3467 4 0.202625 0.131257 0.571743
1164 4 0.203681 0.111304 0.570326
1217 4 0.417153 0.146663 0.563272
1216 2 0.396776 0.140595 0.576798
722 4 0.415752 0.123157 0.503099
4227 4 0.432663 0.132998 0.563133
4225 2 0.456513 0.139388 0.568395
4226 4 0.480362 0.145778 0.573656
3380 4 0.0879571 0.231534 0.550113
800 4 0.101314 0.224113 0.536138
3379 2 0.102424 0.237226 0.569862
799 2 0.116527 0.229642 0.516907
3468 4 0.17267 0.165975 0.554052
2915 4 0.338526 0.201508 0.580365
2914 2 0.363523 0.202469 0.58152
1284 4 0.405144 0.199279 0.571814
2916 4 0.38852 0.20343 0.582674
1282 2 0.429398 0.204608 0.576152
1283 4 0.453652 0.209937 0.58049
806 4 0.179267 0.32221 0.512042
710 4 0.161888 0.31654 0.503286
805 2 0.202074 0.331913 0.506711
3494 4 0.249293 0.324762 0.587378
3493 2 0.226431 0.31527 0.581932
3181 2 0.290767 0.332584 0.578871
3182 4 0.314936 0.329423 0.573878
4515 4 0.419567 0.276065 0.565907
3222 4 0.438382 0.27562 0.559737
334 2 0.446873 0.328247 0.575649
3220 2 0.461837 0.267875 0.559107
3221 4 0.485293 0.26013 0.558478
3580 2 0.0693703 0.414695 0.527444
3582 4 0.0856477 0.403903 0.542594
3122 4 0.0878576 0.409336 0.56088
3121 2 0.0799496 0.413557 0.584163
663 4 0.0911249 0.345602 0.50062
3821 4 0.241911 0.352221 0.508349
3820 2 0.260595 0.369584 0.508025
3822 4 0.279279 0.386946 0.507702
807 4 0.224881 0.341616 0.501379
984 4 0.294069 0.375266 0.509839
3872 4 0.328156 0.344648 0.575688
982 2 0.316379 0.387346 0.508146
3871 2 0.348438 0.355092 0.564665
3873 4 0.368721 0.365535 0.553642
1239 4 0.379509 0.35777 0.540316
335 4 0.437597 0.342498 0.557616
1237 2 0.403054 0.357766 0.54873
1238 4 0.426599 0.357761 0.557145
3581 4 0.053093 0.425487 0.512295
4068 4 0.00942579 0.472966 0.555753
4066 2 0.0272781 0.462667 0.542133
4067 4 0.0451303 0.452367 0.528513
2045 4 0.059885 0.462555 0.539448
2044 2 0.0825986 0.470693 0.547046
2046 4 0.105312 0.47883 0.554644
3771 4 0.117728 0.480945 0.540013
3769 2 0.142332 0.480807 0.535596
3770 4 0.166937 0.480669 0.531179
2917 2 0.205108 0.466955 0.507293
2919 4 0.228179 0.468817 0.516932
1401 4 0.359533 0.495476 0.505738
501 4 0.344066 0.421255 0.584507
2040 4 0.387863 0.471302 0.546595
1815 4 0.397215 0.481761 0.561387
2038 2 0.39917 0.456142 0.530676
2039 4 0.410478 0.440982 0.514757
4485 4 0.470197 0.445876 0.498053
1163 4 0.233603 0.0816568 0.595901
218 3 0.260775 0.0188045 0.605051
216 1 0.273341 0.0013989 0.597335
220 3 0.295118 0.00851343 0.594861
2200 2 0.325505 0.011386 0.615623
2315 4 0.323028 0.0503504 0.649675
2202 4 0.30202 0.00256984 0.612104
2018 4 0.341045 0.0597451 0.657706
2314 2 0.320007 0.0332258 0.667744
2201 4 0.348989 0.0202022 0.619141
3105 4 0.356465 0.0763672 0.579595
1062 4 0.368733 0.0265665 0.618438
1060 2 0.39357 0.0279516 0.621458
1061 4 0.418408 0.0293366 0.624477
2017 2 0.353515 0.0808574 0.664362
2300 4 0.438843 0.0296292 0.629041
2299 2 0.463722 0.0332806 0.62868
2301 4 0.488601 0.036932 0.628319
3420 4 0.0724354 0.163805 0.629646
3418 2 0.0952752 0.156958 0.636283
3419 4 0.118115 0.150112 0.64292
3558 4 0.136385 0.15283 0.63659
3556 2 0.161309 0.153451 0.634389
3557 4 0.186232 0.154073 0.632187
2319 4 0.206346 0.155956 0.637765
726 4 0.253516 0.0873064 0.599713
1162 2 0.218642 0.0964803 0.583114
2317 2 0.230463 0.150498 0.639559
2318 4 0.254579 0.14504 0.641353
3374 4 0.273964 0.152456 0.641411
724 2 0.278363 0.0904368 0.601768
1059 4 0.356455 0.134365 0.590656
3373 2 0.298482 0.151394 0.645974
725 4 0.30321 0.0935673 0.603824
3375 4 0.323001 0.150333 0.650537
1058 4 0.31219 0.110359 0.59767
3219 4 0.342549 0.154479 0.648655
1057 2 0.334323 0.122362 0.594163
1218 4 0.376399 0.134526 0.590325
3217 2 0.365816 0.160719 0.65617
2810 4 0.421297 0.0844061 0.593082
3023 4 0.408546 0.166454 0.662353
3218 4 0.389082 0.166959 0.663685
3022 2 0.433383 0.164416 0.66204
3024 4 0.45822 0.162378 0.661727
642 4 0.0557981 0.169635 0.619404
641 4 0.00586052 0.167348 0.622698
640 2 0.0308293 0.168491 0.621051
3314 4 0.0345146 0.22147 0.667356
3381 4 0.116891 0.242917 0.589611
1523 4 0.275394 0.201313 0.588509
1270 2 0.256128 0.213848 0.621812
1271 4 0.238882 0.212607 0.63992
1272 4 0.273374 0.21509 0.603704
1522 2 0.299872 0.197233 0.589663
1524 4 0.32435 0.193152 0.590817
862 2 0.309679 0.237387 0.639786
864 4 0.305282 0.214728 0.629808
669 4 0.469761 0.216686 0.589231
667 2 0.493612 0.225199 0.589188
810 4 0.47581 0.172559 0.662487
894 4 0.0819623 0.268777 0.66177
892 2 0.104456 0.278303 0.655026
893 4 0.126949 0.287828 0.648281
816 4 0.129558 0.256709 0.598108
3077 4 0.138102 0.292971 0.663533
3960 4 0.184707 0.303966 0.584444
3959 4 0.139046 0.320609 0.593246
3495 4 0.20357 0.305778 0.576486
3958 2 0.161876 0.312287 0.588845
814 2 0.145098 0.265697 0.615826
815 4 0.160639 0.274685 0.633544
1136 4 0.172656 0.286549 0.621795
1135 2 0.184328 0.300678 0.639179
1137 4 0.195999 0.314808 0.656563
3183 4 0.266599 0.335745 0.583864
863 4 0.314076 0.260047 0.649763
4514 4 0.405971 0.248506 0.605721
4513 2 0.412769 0.262286 0.585814
336 4 0.456148 0.313997 0.593681
4197 4 0.139246 0.335928 0.60638
4195 2 0.144416 0.360085 0.611271
4196 4 0.149587 0.384243 0.616163
4086 4 0.160689 0.399139 0.610069
4084 2 0.184451 0.401819 0.617715
4085 4 0.208213 0.4045 0.625361
3317 4 0.289303 0.412977 0.597423
6 1 0.37985 0.406533 0.659462
7 3 0.394861 0.390179 0.655428
4316 4 0.411519 0.396909 0.646248
4315 2 0.434246 0.401933 0.655866
4317 4 0.456974 0.406957 0.665484
929 4 0.476176 0.41225 0.659325
3123 4 0.0720415 0.417779 0.607447
3075 4 0.026821 0.498991 0.660953
3354 4 0.207274 0.477126 0.600366
500 4 0.295105 0.429452 0.586522
3352 2 0.226826 0.465187 0.609393
3353 4 0.246377 0.453249 0.618419
3318 4 0.253118 0.434608 0.623114
3316 2 0.271211 0.423793 0.610269
499 2 0.319586 0.425354 0.585514
3114 4 0.360576 0.432212 0.589116
3112 2 0.366642 0.435257 0.613211
10 3 0.376299 0.417995 0.640195
3113 4 0.372708 0.438302 0.637307
928 2 0.497968 0.423659 0.653018
1126 2 0.0720502 0.00693735 0.711736
1127 4 0.092541 0.0176879 0.701383
918 4 0.105696 0.0332199 0.703294
916 2 0.115836 0.0478762 0.721157
917 4 0.125977 0.0625324 0.73902
3234 4 0.15491 0.0389892 0.707513
3232 2 0.176763 0.0345789 0.718489
3233 4 0.198615 0.0301686 0.729464
3132 4 0.193573 0.0213444 0.747246
830 4 0.23649 0.0729875 0.667552
4049 4 0.238425 0.00889213 0.716276
4048 2 0.254345 0.00211672 0.698468
4162 2 0.299395 0.0695166 0.747949
2316 4 0.316986 0.0161012 0.685812
1155 4 0.322524 0.00731237 0.70256
1153 2 0.332246 0.0220252 0.720596
1154 4 0.341968 0.036738 0.738632
4287 4 0.42904 0.0220821 0.7299
4467 4 0.46595 0.0769835 0.705163
4285 2 0.442603 0.0424042 0.722854
4286 4 0.456166 0.0627263 0.715808
1296 4 0.435667 0.00404402 0.734856
829 2 0.24324 0.0906939 0.68414
831 4 0.24999 0.1084 0.700728
1145 4 0.270514 0.14938 0.744816
1144 2 0.275213 0.125069 0.743417
1146 4 0.279912 0.100757 0.742018
2322 4 0.284476 0.163651 0.739343
4163 4 0.278149 0.0800665 0.741286
2019 4 0.365985 0.10197 0.671019
3147 4 0.385478 0.105066 0.673917
3145 2 0.405395 0.113025 0.687248
3146 4 0.425313 0.120984 0.70058
4550 4 0.435717 0.114443 0.745322
3416 4 0.488036 0.151506 0.735703
4465 2 0.457591 0.0969779 0.717059
4466 4 0.449231 0.116972 0.728954
4356 4 0.471163 0.156292 0.745312
3360 4 0.0173909 0.21174 0.663568
3313 2 0.05523 0.214135 0.678757
3315 4 0.0759455 0.206799 0.690158
2320 2 0.307555 0.170133 0.731443
2321 4 0.330635 0.176616 0.723543
1095 4 0.358725 0.238146 0.737528
3294 4 0.346144 0.175473 0.708565
3008 4 0.373569 0.248432 0.747821
3292 2 0.367142 0.183241 0.720265