ITEM: TIMESTEP
1594500
ITEM: NUMBER OF ATOMS
4590
ITEM: BOX BOUNDS xy xz yz pp pp pp
-1.2198255400000008e+01 9.9985700000000008e+00 -2.1996854000000070e+00
-9.9985700000000008e+00 9.9985700000000008e+00 0.0000000000000000e+00
-9.9985700000000008e+00 9.9985700000000008e+00 0.0000000000000000e+00
ITEM: ATOMS id type xs ys zs
1827 4 0.069808 0.011242 0.0716022
2552 4 0.0641412 0.0298782 0.075005
2551 2 0.0880355 0.0402412 0.0752282
2553 4 0.11193 0.0506042 0.0754513
971 4 0.126766 0.0656504 0.0757738
970 2 0.131506 0.0613763 0.0516954
972 4 0.136246 0.0571021 0.0276171
1256 4 0.17568 0.0847424 0.0426966
534 4 0.183629 0.0406047 0.0289968
532 2 0.181304 0.0287912 0.00698376
1531 2 0.205303 0.016474 0.0666567
1533 4 0.217573 0.0379938 0.0586552
54 3 0.236566 0.0473642 0.0650105
51 1 0.239388 0.0658802 0.0789729
55 3 0.259813 0.0776483 0.0752041
52 3 0.222716 0.0793037 0.07455
3837 4 0.276888 0.0651268 0.0103007
2639 4 0.279426 0.0810997 0.0715462
2640 4 0.320955 0.0588122 0.0798944
2638 2 0.300191 0.069956 0.0757203
3269 4 0.278059 0.0831748 0.019597
2522 4 0.398276 0.0511029 0.00673366
418 2 0.396481 0.0651273 0.0395178
419 4 0.405991 0.066992 0.016385
420 4 0.386972 0.0632625 0.0626506
1037 4 0.37783 0.0481572 0.0739025
1036 2 0.359418 0.0313227 0.0821222
3101 4 0.104786 0.156165 0.041527
3100 2 0.0840818 0.161568 0.0295947
3288 4 0.119277 0.161874 0.00395771
573 4 0.135123 0.122734 0.0132013
571 2 0.125932 0.100478 0.00401378
2856 4 0.15577 0.127765 0.0134466
2854 2 0.180571 0.133346 0.0164519
3942 4 0.19873 0.164149 0.0647783
1255 2 0.200702 0.0851525 0.0416213
1257 4 0.225724 0.0855627 0.0405459
2855 4 0.205372 0.138927 0.0194572
3940 2 0.223866 0.166158 0.0641508
1125 4 0.219627 0.151911 0.0138735
1123 2 0.242383 0.150365 0.00401526
3270 4 0.232644 0.0984156 0.0267237
3268 2 0.255352 0.0907952 0.0231604
867 4 0.0149306 0.222721 0.00787226
3102 4 0.0633779 0.16697 0.0176625
771 4 0.0804535 0.214733 0.00628615
3082 2 0.11613 0.228326 0.0114817
769 2 0.0561439 0.216972 0.00214132
3362 4 0.111891 0.175337 0.0367932
3361 2 0.129447 0.188595 0.0505873
3084 4 0.133466 0.243951 0.0231928
3632 4 0.152158 0.248654 0.0271615
345 4 0.138011 0.218263 0.070881
3363 4 0.147004 0.201852 0.0643813
3941 4 0.249002 0.168168 0.0635233
366 4 0.251416 0.188276 0.0695067
666 4 0.21097 0.242001 0.0396461
528 4 0.274669 0.211712 0.00248254
697 2 0.300741 0.166562 0.0014756
699 4 0.317279 0.182689 0.0136053
3631 2 0.174826 0.250976 0.0380002
3633 4 0.197494 0.253298 0.0488389
2351 4 0.219651 0.328173 0.00963088
664 2 0.226497 0.251015 0.0214072
665 4 0.242024 0.260029 0.00316833
2520 4 0.260501 0.332804 0.0566925
988 2 0.223889 0.33236 0.0391975
989 4 0.240999 0.328278 0.0565236
251 4 0.304117 0.308165 0.0484847
250 2 0.325316 0.299521 0.0407492
252 4 0.346514 0.290876 0.0330136
3006 4 0.357268 0.281539 0.0196271
2093 4 0.447448 0.301861 0.0144609
495 4 0.465603 0.297513 0.0239325
493 2 0.484007 0.295079 0.0403822
2358 4 0.0626579 0.373159 0.0326413
2356 2 0.0872392 0.374283 0.0377159
2357 4 0.111821 0.375408 0.0427905
363 4 0.12325 0.379279 0.0577073
361 2 0.134656 0.36515 0.0737566
990 4 0.206779 0.336442 0.0218713
2518 2 0.281286 0.349057 0.0570672
2519 4 0.302072 0.36531 0.0574419
587 4 0.229677 0.361497 0.081093
2903 4 0.307052 0.366296 0.0779547
2902 2 0.329035 0.378345 0.070657
2904 4 0.351018 0.390394 0.0633593
1223 4 0.392468 0.406642 0.0472757
1222 2 0.40708 0.406673 0.0269839
1224 4 0.421692 0.406704 0.00669205
134 3 0.440843 0.368239 0.00457439
1236 4 0.475661 0.405443 0.0480466
1234 2 0.476359 0.391723 0.0272603
1235 4 0.477057 0.378003 0.00647394
2772 4 0.0152245 0.446973 0.0371509
2770 2 0.0137167 0.460444 0.0162995
536 4 0.129702 0.425179 0.0577145
535 2 0.148924 0.429132 0.0416949
4187 4 0.188253 0.43334 0.0275201
1596 4 0.17803 0.488469 0.0136418
537 4 0.168145 0.433084 0.0256754
4186 2 0.208905 0.445647 0.0174543
387 4 0.179348 0.433435 0.0705584
4188 4 0.229557 0.457953 0.00738856
2166 4 0.169609 0.473392 0.00131783
3258 4 0.294509 0.472928 0.0574072
3256 2 0.319436 0.477617 0.0547076
3257 4 0.344363 0.482307 0.052008
3534 4 0.360719 0.481048 0.0610345
3532 2 0.382777 0.487612 0.0722991
3533 4 0.404835 0.494176 0.0835636
349 2 0.0118918 0.0553817 0.137789
351 4 0.0358245 0.055651 0.130457
3278 4 0.0537115 0.058192 0.140962
3277 2 0.0771356 0.0590348 0.132011
3279 4 0.10056 0.0598777 0.123061
3497 4 0.13267 0.0803991 0.153875
477 4 0.115038 0.0743752 0.116058
475 2 0.136485 0.0643744 0.120157
476 4 0.157932 0.0543736 0.124256
2715 4 0.176096 0.048985 0.130344
2713 2 0.197738 0.0495748 0.117724
2714 4 0.21938 0.0501646 0.105103
53 3 0.237748 0.0591208 0.101152
3782 4 0.324819 0.0111433 0.10158
2858 4 0.307546 0.0643996 0.15251
2471 4 0.325895 0.0593038 0.157484
1038 4 0.341007 0.0144881 0.0903419
3905 4 0.275042 0.00122323 0.146211
3781 2 0.306663 0.00254793 0.117552
2470 2 0.35097 0.0628689 0.155684
2472 4 0.376045 0.0664341 0.153885
834 4 0.389064 0.0824242 0.147763
832 2 0.412444 0.0892255 0.155932
401 4 0.476003 0.151949 0.106205
2597 4 0.495628 0.160612 0.103732
765 4 0.455471 0.0992163 0.159671
833 4 0.435824 0.0960267 0.1641
557 4 0.0854843 0.200962 0.159613
556 2 0.103527 0.191173 0.146815
558 4 0.12157 0.181384 0.134017
344 4 0.156878 0.217871 0.117173
343 2 0.147445 0.218067 0.0940272
2762 4 0.172453 0.232612 0.116451
2761 2 0.191978 0.23803 0.131862
3992 4 0.189121 0.183711 0.145378
2763 4 0.211504 0.243447 0.147273
2913 4 0.223102 0.229197 0.14068
3991 2 0.205866 0.185327 0.164035
2911 2 0.244928 0.243255 0.144717
364 2 0.263817 0.20191 0.0874085
365 4 0.276218 0.215543 0.10531
529 2 0.295847 0.20329 0.132826
531 4 0.296371 0.218434 0.112964
14 3 0.302834 0.238894 0.112061
530 4 0.295322 0.188146 0.152689
402 4 0.459385 0.196966 0.109207
400 2 0.467694 0.174458 0.107706
3521 4 0.478842 0.207678 0.108773
3520 2 0.497137 0.22667 0.107414
564 4 0.0158258 0.260277 0.13677
756 4 0.033012 0.25347 0.128906
754 2 0.0472602 0.269971 0.142988
755 4 0.0615084 0.286472 0.157071
1767 4 0.0770279 0.276628 0.164851
1586 4 0.192765 0.292531 0.158025
1585 2 0.195226 0.316037 0.166548
2912 4 0.266754 0.257314 0.148755
15 3 0.27797 0.255705 0.132589
12 3 0.31462 0.267385 0.134997
11 1 0.297583 0.259017 0.120877
13 3 0.295605 0.274281 0.103787
3345 4 0.332477 0.260296 0.130572
3343 2 0.343609 0.25366 0.151559
569 4 0.445455 0.280951 0.12599
568 2 0.45599 0.304091 0.131076
570 4 0.466525 0.327232 0.136162
3609 4 0.00905275 0.391335 0.152653
3607 2 0.0308692 0.401342 0.162446
2450 4 0.00308936 0.366834 0.0862266
701 4 0.137404 0.351845 0.107794
362 4 0.146062 0.351021 0.0898058
700 2 0.159148 0.350834 0.119897
2651 4 0.182818 0.40499 0.131066
702 4 0.180893 0.349823 0.132001
588 4 0.195919 0.35207 0.117716
586 2 0.212798 0.356784 0.0994043
386 4 0.183268 0.4036 0.110039
2650 2 0.206114 0.411254 0.139719
2705 4 0.166007 0.407074 0.142761
2704 2 0.159186 0.414543 0.165366
2951 4 0.472317 0.346556 0.132532
2952 4 0.494995 0.381158 0.16331
2950 2 0.483656 0.363857 0.147921
593 4 0.212718 0.486922 0.143436
592 2 0.198771 0.470206 0.129323
594 4 0.184825 0.453489 0.115211
385 2 0.181308 0.418518 0.0902985
2652 4 0.22941 0.417519 0.148372
1573 2 0.29521 0.443289 0.15616
1015 2 0.30097 0.48186 0.10976
1017 4 0.30797 0.463036 0.123491
1575 4 0.299001 0.463769 0.141898
4533 4 0.482218 0.459491 0.0822112
1583 4 0.496388 0.472748 0.167368
18 3 0.260106 0.0720228 0.238436
4024 2 0.200435 0.00520754 0.213026
4025 4 0.2233 0.0164497 0.218595
1851 4 0.239224 0.0291248 0.216098
1849 2 0.25771 0.0222862 0.23053
16 1 0.267759 0.0825525 0.218806
19 3 0.272258 0.066732 0.203021
2859 4 0.289862 0.0770199 0.196982
2857 2 0.298704 0.0707097 0.174746
1850 4 0.276197 0.0154476 0.244962
691 2 0.0526576 0.165776 0.249052
693 4 0.0560048 0.141583 0.247112
3496 2 0.140104 0.0967726 0.171913
3498 4 0.147537 0.113146 0.189951
2664 4 0.167009 0.121983 0.18977
2662 2 0.18171 0.120993 0.209892
2663 4 0.19641 0.120003 0.230014
2633 4 0.214958 0.120718 0.222275
2632 2 0.239349 0.129369 0.221309
17 3 0.251304 0.094624 0.210609
2634 4 0.26374 0.138019 0.220343
2669 4 0.278862 0.145049 0.208401
20 3 0.286694 0.0966737 0.222946
743 4 0.299565 0.0890134 0.21124
2668 2 0.303759 0.144706 0.206574
2670 4 0.328655 0.144364 0.204747
742 2 0.322256 0.0977641 0.219987
22 3 0.346013 0.144023 0.195339
744 4 0.344946 0.106515 0.228733
23 3 0.359315 0.120363 0.219831
21 1 0.36341 0.13146 0.199657
24 3 0.364576 0.116098 0.182503
25 3 0.383035 0.145213 0.200866
2844 4 0.401636 0.153165 0.196232
2842 2 0.426235 0.154735 0.201339
2843 4 0.450834 0.156305 0.206446
763 2 0.479136 0.104078 0.167827
2906 4 0.466623 0.166424 0.212848
2758 2 0.00709747 0.186143 0.236698
2760 4 0.0319064 0.186705 0.240228
3993 4 0.222611 0.186943 0.182693
2801 4 0.237927 0.176627 0.184736
2800 2 0.261527 0.183402 0.177188
2802 4 0.285127 0.190177 0.169641
3344 4 0.354741 0.247023 0.172545
2905 2 0.488564 0.17277 0.224411
265 2 0.0152819 0.298247 0.231737
267 4 0.0399784 0.304286 0.228394
560 4 0.0587017 0.309111 0.221514
1765 2 0.096717 0.274772 0.179884
559 2 0.0759576 0.326297 0.231195
1766 4 0.116406 0.272916 0.194917
2477 4 0.137258 0.275476 0.194242
2476 2 0.161088 0.27082 0.190934
620 4 0.157732 0.32544 0.235442
2478 4 0.184918 0.266163 0.187627
2955 4 0.202548 0.264499 0.196757
619 2 0.180359 0.318758 0.241334
621 4 0.202987 0.312076 0.247227
2953 2 0.227626 0.269164 0.196574
2954 4 0.252703 0.273829 0.196391
2849 4 0.267623 0.287727 0.202703
2848 2 0.289231 0.28683 0.190325
2850 4 0.310838 0.285933 0.177946
2819 4 0.32754 0.294007 0.184909
2818 2 0.351077 0.304523 0.188616
2820 4 0.374614 0.315039 0.192323
339 4 0.416632 0.25722 0.218231
3519 4 0.394068 0.317242 0.197632
3517 2 0.417463 0.310702 0.198593
337 2 0.414023 0.26556 0.241538
3518 4 0.440858 0.304163 0.199555
3608 4 0.0526856 0.411349 0.17224
561 4 0.0932134 0.343483 0.240877
1587 4 0.197687 0.339542 0.175071
658 2 0.164393 0.39624 0.219359
659 4 0.154027 0.404146 0.198468
660 4 0.174759 0.388333 0.24025
103 3 0.281718 0.409437 0.222468
2786 4 0.316383 0.346745 0.24913
3882 4 0.0698807 0.421245 0.180621
3880 2 0.0910168 0.431338 0.19168
3881 4 0.112153 0.441431 0.202739
3800 4 0.129147 0.449344 0.213175
3799 2 0.152584 0.451354 0.222239
2706 4 0.152366 0.422012 0.187971
3801 4 0.176021 0.453365 0.231304
750 4 0.194296 0.445648 0.230088
748 2 0.218147 0.440874 0.227222
749 4 0.241997 0.4361 0.224355
104 3 0.28082 0.422395 0.186815
102 3 0.258044 0.434439 0.213021
101 1 0.279052 0.427905 0.20923
105 3 0.294961 0.445045 0.214545
1574 4 0.291418 0.42281 0.170422
1624 2 0.31107 0.463316 0.24251
1626 4 0.312439 0.458457 0.218057
3817 2 0.356998 0.473779 0.211534
3819 4 0.331922 0.469796 0.213048
3818 4 0.382075 0.477763 0.21002
434 4 0.400953 0.480794 0.214126
433 2 0.42315 0.480623 0.202654
435 4 0.445348 0.480452 0.191182
1584 4 0.45446 0.492997 0.179241
1582 2 0.475424 0.482872 0.173304
3487 2 0.103859 0.00745771 0.27509
3488 4 0.0792616 0.000817245 0.271704
3489 4 0.128456 0.0140982 0.278477
3478 2 0.262265 0.0731644 0.27316
3480 4 0.270035 0.0629265 0.294165
2933 4 0.284952 0.0549461 0.28591
2932 2 0.300221 0.045891 0.302602
2934 4 0.31549 0.0368359 0.319295
4509 4 0.31255 0.00790117 0.27308
4507 2 0.335041 0.0120291 0.26201
4508 4 0.357531 0.016157 0.25094
2894 4 0.0107117 0.0830935 0.264542
278 4 0.0176246 0.100869 0.276123
277 2 0.0385718 0.114089 0.26773
279 4 0.0595191 0.127309 0.259336
506 4 0.0649098 0.144332 0.316147
505 2 0.0759577 0.163193 0.329892
3479 4 0.254495 0.0834023 0.252155
760 2 0.307594 0.161881 0.272007
761 4 0.316562 0.140197 0.2669
306 4 0.333174 0.131575 0.260661
304 2 0.349388 0.124811 0.277745
305 4 0.365602 0.118047 0.294828
1699 2 0.445753 0.165157 0.280198
3852 4 0.471848 0.139965 0.292264
1700 4 0.452635 0.145504 0.292735
3850 2 0.496224 0.148604 0.293605
692 4 0.0493104 0.189969 0.250992
762 4 0.298626 0.183564 0.277115
3251 4 0.303128 0.197164 0.291363
3250 2 0.321115 0.215629 0.285919
3252 4 0.339102 0.234094 0.280476
1701 4 0.438872 0.184809 0.267661
3193 2 0.0217078 0.317935 0.31777
3195 4 0.046751 0.31849 0.318642
1494 4 0.0653768 0.315023 0.324177
1492 2 0.084153 0.303434 0.314752
1493 4 0.102929 0.291845 0.305327
2935 2 0.133424 0.328009 0.272513
2937 4 0.11693 0.328214 0.291283
2936 4 0.149918 0.327805 0.253742
2493 4 0.215092 0.3125 0.265278
2491 2 0.237963 0.324352 0.260854
1193 4 0.351364 0.294716 0.267405
1194 4 0.342677 0.282801 0.315409
3792 4 0.358145 0.314192 0.266124
1192 2 0.347021 0.288759 0.291407
338 4 0.411413 0.273901 0.264844
519 4 0.430276 0.281813 0.266245
517 2 0.431655 0.293863 0.288153
518 4 0.433034 0.305912 0.310062
2684 4 0.42087 0.308929 0.324176
3206 4 0.489557 0.259745 0.29149
2345 4 0.0385301 0.353805 0.262571
2344 2 0.059046 0.359773 0.276542
2621 4 0.0264797 0.412982 0.330904
1472 4 0.0440523 0.416414 0.320622
2346 4 0.079562 0.36574 0.290514
459 4 0.0822517 0.360755 0.310601
457 2 0.105717 0.363757 0.319598
458 4 0.129182 0.366759 0.328595
1332 4 0.187834 0.400211 0.251563
268 2 0.19406 0.353312 0.311192
1330 2 0.201037 0.384331 0.263792
270 4 0.202557 0.357358 0.287869
1331 4 0.214239 0.368452 0.27602
2492 4 0.260834 0.336205 0.256429
2787 4 0.270153 0.355179 0.263472
2785 2 0.293268 0.350962 0.256301
3790 2 0.346765 0.334144 0.25958
3791 4 0.335384 0.354095 0.253036
2474 4 0.445324 0.382293 0.323462
2622 4 0.998204 0.448109 0.315612
2540 4 0.00687716 0.458656 0.298807
2620 2 0.0123421 0.430546 0.323258
2046 4 0.0730232 0.484336 0.32508
1471 2 0.0663789 0.420708 0.331986
3920 4 0.12985 0.476686 0.313401
1625 4 0.3097 0.468175 0.266963
1913 4 0.317011 0.485736 0.27561
2502 4 0.349984 0.457057 0.310782
1914 4 0.356503 0.474396 0.302302
1912 2 0.336757 0.480066 0.288956
443 4 0.477128 0.442859 0.330586
2643 4 0.0522551 0.0731163 0.404496
431 4 0.208911 0.0301189 0.401314
430 2 0.194427 0.0435044 0.415148
320 4 0.323645 0.000333793 0.378354
319 2 0.299308 0.00158208 0.373392
2910 4 0.341367 0.0659564 0.402866
321 4 0.27497 0.00283038 0.368431
2776 2 0.356936 0.079769 0.37168
2778 4 0.356405 0.079915 0.396677
2777 4 0.357468 0.0796231 0.346683
802 2 0.0225154 0.156869 0.401237
2642 4 0.0314975 0.0954896 0.366273
2641 2 0.0418763 0.084303 0.385385
804 4 0.0455308 0.150533 0.396467
513 4 0.0605436 0.156975 0.409675
511 2 0.0755433 0.138676 0.408717
512 4 0.0905429 0.120377 0.407759
574 2 0.126251 0.11772 0.404842
575 4 0.146582 0.119352 0.39013
791 4 0.147963 0.116027 0.370407
790 2 0.172735 0.11504 0.372679
792 4 0.197508 0.114054 0.374951
1200 4 0.214243 0.125336 0.372998
1198 2 0.232468 0.143488 0.367307
1199 4 0.250693 0.16164 0.361617
1518 4 0.270452 0.165656 0.362769
1516 2 0.291589 0.155744 0.368503
503 4 0.332546 0.146445 0.372867
1517 4 0.312725 0.145831 0.374236
502 2 0.355298 0.159195 0.375476
716 4 0.424762 0.149963 0.347519
715 2 0.407041 0.16406 0.35494
898 2 0.402888 0.15922 0.410862
678 4 0.43857 0.136955 0.349824
677 4 0.488685 0.138197 0.348663
676 2 0.463628 0.137576 0.349243
507 4 0.0870057 0.182054 0.343636
647 4 0.103734 0.193421 0.338151
646 2 0.128324 0.19968 0.341991
648 4 0.152913 0.205939 0.34583
2600 4 0.169136 0.196582 0.347345
2599 2 0.191482 0.199402 0.358819
2601 4 0.213828 0.202223 0.370293
348 4 0.232756 0.206344 0.376306
346 2 0.257148 0.208264 0.382372
347 4 0.28154 0.210185 0.388437
600 4 0.299389 0.212025 0.381499
598 2 0.320794 0.220712 0.370029
599 4 0.342199 0.2294 0.35856
504 4 0.378051 0.171944 0.378084
1211 4 0.386699 0.209316 0.353241
717 4 0.38932 0.178156 0.36236
1212 4 0.426528 0.243941 0.355344
1210 2 0.406614 0.226629 0.354293
939 4 0.419034 0.190144 0.408936
899 4 0.405786 0.17952 0.39628
423 4 0.445732 0.247343 0.360944
260 4 0.499476 0.21373 0.356542
421 2 0.463109 0.231274 0.361615
422 4 0.480487 0.215205 0.362285
3072 4 0.0157476 0.270857 0.372003
585 4 0.0222571 0.276999 0.391596
583 2 0.0420856 0.291606 0.40053
1529 4 0.12749 0.317775 0.344568
584 4 0.0619142 0.306212 0.409464
3060 4 0.271702 0.255728 0.344354
3058 2 0.288045 0.268742 0.359634
2528 4 0.301739 0.293722 0.390688
2527 2 0.30671 0.300549 0.414369
3059 4 0.304389 0.281755 0.374914
1150 2 0.32257 0.315726 0.354739
1151 4 0.336846 0.296886 0.353012
2685 4 0.37376 0.302629 0.341682
2683 2 0.397315 0.305779 0.332929
1735 2 0.0181927 0.364324 0.387677
1737 4 0.0418743 0.372119 0.394271
308 4 0.0617814 0.374013 0.396085
452 4 0.130511 0.385552 0.335704
307 2 0.0807815 0.392015 0.399468
309 4 0.0997817 0.410017 0.402852
2109 4 0.119958 0.414822 0.406405
451 2 0.140069 0.388636 0.358741
269 4 0.185563 0.349267 0.334515
1528 2 0.146865 0.335111 0.340149
1530 4 0.16624 0.352447 0.335729
453 4 0.149628 0.39172 0.381777
2462 4 0.16364 0.383413 0.394141
2461 2 0.160394 0.36712 0.413052
425 4 0.292192 0.348325 0.411346
424 2 0.302868 0.350192 0.388717
1152 4 0.308294 0.334566 0.356466
426 4 0.313544 0.352059 0.366088
2473 2 0.452713 0.399261 0.340977
142 3 0.436588 0.375226 0.381555
2475 4 0.460101 0.416229 0.358492
141 1 0.45265 0.375971 0.398085
143 3 0.464333 0.397204 0.398531
2571 4 0.466784 0.416987 0.403084
145 3 0.467047 0.360485 0.393655
3596 4 0.480364 0.413609 0.359995
262 2 0.00607867 0.433929 0.383706
264 4 0.0293217 0.442452 0.391125
1161 4 0.048278 0.446598 0.395261
1159 2 0.070687 0.452652 0.406021
2107 2 0.144911 0.419936 0.404365
3091 2 0.137137 0.498091 0.365585
1473 4 0.0887055 0.425002 0.34335
644 4 0.0979736 0.441555 0.335041
3092 4 0.114386 0.492705 0.37584
2045 4 0.0979926 0.482128 0.36821
2044 2 0.0855079 0.483232 0.346645
643 2 0.121144 0.44677 0.344388
645 4 0.144315 0.451985 0.353736
2108 4 0.169863 0.42505 0.402326
1390 2 0.238969 0.492341 0.416156
2500 2 0.35351 0.454924 0.335409
326 4 0.37188 0.444795 0.370185
2501 4 0.357036 0.45279 0.360036
325 2 0.374306 0.448798 0.394787
2941 2 0.0812552 0.0732307 0.429019
2943 4 0.0603047 0.0821695 0.421007
2942 4 0.102206 0.0642919 0.43703
2831 4 0.117018 0.069406 0.42337
2830 2 0.139647 0.0640387 0.430935
2832 4 0.162276 0.0586714 0.4385
432 4 0.179942 0.05689 0.428982
2908 2 0.345024 0.0668399 0.427599
2909 4 0.348682 0.0677235 0.452331
1143 4 0.368148 0.066517 0.459027
1141 2 0.369274 0.0774612 0.481508
576 4 0.105919 0.116088 0.419553
3158 4 0.303357 0.103102 0.44178
3157 2 0.308683 0.11859 0.461072
3159 4 0.314009 0.134078 0.480364
900 4 0.39999 0.138919 0.425445
2626 2 0.423361 0.13394 0.462975
2627 4 0.416124 0.138402 0.439618
2628 4 0.430597 0.129477 0.486332
256 2 0.495354 0.15906 0.435526
258 4 0.470431 0.154137 0.438073
397 2 0.0120258 0.201093 0.493036
3373 2 0.0885234 0.168634 0.487609
3438 4 0.118602 0.205165 0.42233
3026 4 0.10395 0.214236 0.42947
3025 2 0.0874606 0.231107 0.427477
3375 4 0.100061 0.172774 0.465581
3436 2 0.119272 0.189269 0.441479
3437 4 0.119942 0.173373 0.460627
3027 4 0.0709708 0.247978 0.425485
2720 4 0.124225 0.242357 0.47342
3156 4 0.270641 0.17041 0.485866
952 2 0.264236 0.215002 0.46793
954 4 0.257476 0.191028 0.47371
953 4 0.270996 0.238977 0.46215
1397 4 0.291474 0.237544 0.456764
2612 4 0.383264 0.241358 0.423672
937 2 0.435249 0.204786 0.422989
938 4 0.451465 0.219428 0.437042
332 4 0.458765 0.211277 0.452328
331 2 0.483535 0.20965 0.452041
3963 4 0.076994 0.279209 0.470608
3961 2 0.0711302 0.290872 0.449678
3962 4 0.0652664 0.302535 0.428748
2721 4 0.0821879 0.263852 0.481613
2719 2 0.103207 0.253105 0.477516
2538 4 0.133064 0.31219 0.439743
2536 2 0.139993 0.328756 0.457763
1491 4 0.221496 0.265248 0.493671
2654 4 0.239822 0.268072 0.486967
2653 2 0.264515 0.266654 0.489356
2655 4 0.289208 0.265237 0.491745
1396 2 0.311274 0.25167 0.447134
2611 2 0.364637 0.25602 0.424392
2529 4 0.31168 0.307375 0.43805
3222 4 0.305011 0.277141 0.48753
1398 4 0.331074 0.265796 0.437504
2613 4 0.34601 0.270683 0.425112
1220 4 0.135332 0.357752 0.485065
2537 4 0.146921 0.345321 0.475783
2463 4 0.157148 0.350827 0.431963
2959 2 0.202714 0.401249 0.497102
2961 4 0.227089 0.407038 0.491796
1219 2 0.150036 0.372631 0.500332
3988 2 0.342254 0.36869 0.488797
3990 4 0.317269 0.364432 0.491251
3989 4 0.367238 0.372949 0.486343
144 3 0.442071 0.371317 0.418467
3695 4 0.385529 0.373856 0.494399
2957 4 0.424496 0.372057 0.429374
2956 2 0.427821 0.387132 0.449252
2958 4 0.431145 0.402208 0.46913
3512 4 0.447545 0.398866 0.481214
3513 4 0.496569 0.414945 0.478181
3511 2 0.472057 0.406906 0.479697
3430 2 0.130638 0.486147 0.422432
3431 4 0.110798 0.468712 0.422487
1160 4 0.0930959 0.458706 0.416781
3703 2 0.20261 0.443433 0.418605
3705 4 0.22492 0.457335 0.418895
3704 4 0.1803 0.429531 0.418316
1392 4 0.242165 0.46885 0.42248
4083 4 0.238984 0.422005 0.482795
4081 2 0.262817 0.425117 0.490777
4082 4 0.286649 0.42823 0.49876
2921 4 0.379903 0.439399 0.435283
327 4 0.376732 0.452801 0.419388
2920 2 0.400355 0.443694 0.44969
2922 4 0.420808 0.44799 0.464096
2925 4 0.471546 0.466006 0.443654
2923 2 0.451427 0.464722 0.458636
2924 4 0.431308 0.463438 0.473618
2570 4 0.482331 0.451239 0.437564
2569 2 0.474558 0.434113 0.420324
3462 4 0.251067 0.0772987 0.524147
3468 4 0.265708 0.0683745 0.533411
3466 2 0.289362 0.0784309 0.537364
1602 4 0.02192 0.0946878 0.570457
3374 4 0.0769861 0.164495 0.509637
3272 4 0.0413581 0.0924202 0.573111
3461 4 0.231623 0.11986 0.513793
3460 2 0.241345 0.0985792 0.51897
3155 4 0.247815 0.133635 0.514073
3154 2 0.259228 0.152022 0.499969
3467 4 0.313016 0.0884873 0.541317
1179 4 0.319685 0.107257 0.535276
1177 2 0.342072 0.100643 0.528409
2315 4 0.317093 0.106206 0.574282
1142 4 0.3704 0.0884054 0.503989
1178 4 0.364458 0.094028 0.521543
2115 4 0.427897 0.131744 0.507231
2113 2 0.438594 0.145821 0.525761
2114 4 0.449291 0.159899 0.54429
1030 2 0.488538 0.162618 0.554121
398 4 0.0255011 0.196957 0.513384
2919 4 0.045214 0.19733 0.518807
2917 2 0.0679109 0.209745 0.52281
2918 4 0.0906077 0.22216 0.526814
801 4 0.110799 0.227708 0.531058
799 2 0.133989 0.23413 0.522202
800 4 0.157179 0.240552 0.513346
1490 4 0.174091 0.249351 0.506459
1136 4 0.397747 0.226021 0.563549
4515 4 0.385645 0.229373 0.547417
4513 2 0.398149 0.223771 0.526883
1135 2 0.4147 0.230879 0.58177
2751 4 0.430727 0.216816 0.508631
4514 4 0.410653 0.218169 0.506349
2749 2 0.4523 0.230552 0.514464
2750 4 0.473874 0.244287 0.520297
1031 4 0.468033 0.168817 0.54238
3266 4 0.488477 0.242501 0.532906
728 4 0.0727741 0.287828 0.545152
727 2 0.088819 0.288917 0.525906
729 4 0.104864 0.290007 0.50666
709 2 0.201454 0.32757 0.531731
710 4 0.176817 0.325844 0.526775
1489 2 0.197793 0.2573 0.500065
711 4 0.226091 0.329296 0.536687
696 4 0.306862 0.281585 0.546123
694 2 0.32754 0.291997 0.557754
3220 2 0.322857 0.274392 0.504508
3221 4 0.340703 0.271644 0.521487
695 4 0.348218 0.302408 0.569384
890 4 0.358902 0.31699 0.558234
3161 4 0.359827 0.276339 0.523817
889 2 0.382893 0.31796 0.565567
3160 2 0.384713 0.275503 0.523057
891 4 0.406884 0.318931 0.572901
3162 4 0.4096 0.274668 0.522298
3381 4 0.425824 0.325442 0.566838
864 4 0.424196 0.269573 0.534186
862 2 0.445897 0.274087 0.546643
3379 2 0.446425 0.323356 0.58051
863 4 0.467598 0.2786 0.559099
3263 4 0.481574 0.290278 0.568632
663 4 0.00140254 0.377879 0.525231
539 4 0.0163506 0.391753 0.530534
538 2 0.0360712 0.378485 0.53128
540 4 0.0557918 0.365218 0.532026
1221 4 0.164739 0.387509 0.515599
3495 4 0.160603 0.392521 0.579574
3960 4 0.177013 0.383868 0.580897
3958 2 0.20199 0.383896 0.58212
2960 4 0.178339 0.395459 0.502408
3128 4 0.245935 0.338945 0.535425
3127 2 0.2611 0.35682 0.52396
3129 4 0.276265 0.374695 0.512495
3694 2 0.399198 0.380827 0.51465
3696 4 0.412868 0.387797 0.534902
1543 2 0.00998406 0.488974 0.533755
1173 4 0.299254 0.445012 0.498461
1172 4 0.34223 0.475014 0.503611
1171 2 0.320742 0.460013 0.501036
1268 4 0.446125 0.495465 0.565985
3145 2 0.0132067 0.0325082 0.613074
3146 4 0.0349628 0.0470701 0.610439
3271 2 0.0470756 0.0735939 0.587605
3273 4 0.052793 0.0547675 0.602099
2202 4 0.166524 0.00826697 0.659669
4574 4 0.122291 0.00182009 0.594541
2200 2 0.190424 0.018228 0.657229
2201 4 0.214324 0.028189 0.654788
2657 4 0.233901 0.0315486 0.661364
2132 4 0.249579 0.0157577 0.600169
2656 2 0.2589 0.0346169 0.664118
2131 2 0.262583 0.0383562 0.602136
2133 4 0.275588 0.0609546 0.604103
2316 4 0.293535 0.0720184 0.604943
961 2 0.309405 0.0391087 0.6408
963 4 0.319008 0.0302019 0.619971
962 4 0.299803 0.0480155 0.66163
2658 4 0.283899 0.0376853 0.666872
1258 2 0.415242 0.0819413 0.664654
1128 4 0.47035 0.0263773 0.663951
1126 2 0.493199 0.026243 0.653832
2376 4 0.450042 0.0285916 0.666341
1308 4 0.0302492 0.163451 0.65721
4079 4 0.0108986 0.157411 0.656409
1524 4 0.171882 0.162761 0.666133
2314 2 0.305314 0.0891121 0.589613
3001 2 0.304734 0.109951 0.65554
2995 2 0.327828 0.142186 0.612717
2997 4 0.334973 0.122224 0.624526
3002 4 0.324918 0.114647 0.640831
2996 4 0.320683 0.162148 0.600909
1395 4 0.351024 0.16473 0.656587
225 3 0.401183 0.145997 0.652467
221 1 0.420813 0.140567 0.661411
222 3 0.427026 0.12195 0.650718
1260 4 0.409429 0.0881876 0.641331
1394 4 0.400187 0.16556 0.646995
224 3 0.437648 0.158113 0.658516
1393 2 0.375605 0.165145 0.651791
3237 4 0.438173 0.110856 0.640217
726 4 0.454034 0.148176 0.656709
3235 2 0.455197 0.107343 0.622619
724 2 0.476109 0.140255 0.662704
4136 4 0.488779 0.0980216 0.614269
3236 4 0.472221 0.103829 0.60502
1306 2 0.0528524 0.173889 0.649732
1307 4 0.0754556 0.184326 0.642254
960 4 0.087456 0.181337 0.626273
958 2 0.111228 0.182499 0.634321
959 4 0.135 0.183661 0.642369
375 4 0.318055 0.23144 0.653495
1086 4 0.337216 0.178819 0.658779
1137 4 0.431653 0.235737 0.599991
3011 4 0.41833 0.176613 0.65277
3010 2 0.437856 0.194141 0.649892
3012 4 0.457382 0.211668 0.647014
3123 4 0.476332 0.221595 0.650394
3121 2 0.498486 0.231452 0.641222
3064 2 0.024285 0.256171 0.645803
3065 4 0.049085 0.262885 0.644731
821 4 0.0567275 0.281294 0.651075
820 2 0.0803594 0.29087 0.646206
822 4 0.103991 0.300446 0.641337
816 4 0.111964 0.317937 0.649215
814 2 0.132214 0.320787 0.634397
815 4 0.152465 0.323637 0.619579
3247 2 0.187135 0.264304 0.664342
4085 4 0.173137 0.32636 0.621854
4084 2 0.198141 0.326478 0.621042
3249 4 0.211132 0.26562 0.656958
1166 4 0.229337 0.276803 0.656557
1165 2 0.253893 0.281073 0.651384
1167 4 0.27845 0.285343 0.646211
3323 4 0.29113 0.301618 0.644468
4086 4 0.223144 0.326597 0.62023
3322 2 0.307254 0.291239 0.659278
797 4 0.43771 0.253982 0.592733
3380 4 0.467026 0.321269 0.594182
796 2 0.459991 0.259831 0.603814
2535 4 0.48687 0.318593 0.591053
798 4 0.482273 0.26568 0.614895
2533 2 0.495931 0.332151 0.610652
3494 4 0.13556 0.373148 0.619579
3183 4 0.131467 0.384563 0.634298
3181 2 0.140772 0.396229 0.654906
3493 2 0.148082 0.382834 0.599577
2310 4 0.296276 0.383427 0.586154
3959 4 0.226966 0.383924 0.583343
2309 4 0.24603 0.380442 0.586386
2308 2 0.271153 0.381935 0.58627
4196 4 0.240305 0.337073 0.628194
4195 2 0.262247 0.351282 0.631027
4197 4 0.284189 0.36549 0.633859
2015 4 0.303128 0.357649 0.633499
3330 4 0.316867 0.382825 0.588158
3328 2 0.336142 0.397506 0.598046
2014 2 0.328044 0.357347 0.635112
2016 4 0.35296 0.357044 0.636724
2217 4 0.3733 0.356585 0.637576
3329 4 0.355417 0.412188 0.607935
2215 2 0.39585 0.363141 0.647858
2216 4 0.4184 0.369696 0.65814
928 2 0.465017 0.415209 0.60869
929 4 0.440119 0.415123 0.611092
930 4 0.489914 0.415294 0.606288
1239 4 0.188551 0.442849 0.600253
1237 2 0.184834 0.466691 0.604318
1238 4 0.181117 0.490534 0.608383
4316 4 0.375726 0.418767 0.61132
1953 4 0.410291 0.497697 0.62166
4317 4 0.424231 0.416942 0.600133
4315 2 0.399979 0.417855 0.605727
3353 4 0.434977 0.47327 0.625732
3352 2 0.459919 0.47919 0.626042
3354 4 0.484861 0.48511 0.626351
4287 4 0.176403 0.0227446 0.699909
3132 4 0.192689 0.0367727 0.699148
4285 2 0.186911 0.0121131 0.719294
3130 2 0.198677 0.0608024 0.693101
4286 4 0.197419 0.00148166 0.738679
2978 4 0.315607 0.00528198 0.685416
843 4 0.33597 0.00163872 0.687864
2375 4 0.400538 0.030097 0.671953
841 2 0.359659 0.0115262 0.68379
842 4 0.383349 0.0214138 0.679717
1259 4 0.421054 0.075695 0.687976
2374 2 0.42529 0.0293443 0.669147
2318 4 0.182255 0.129358 0.669486
3131 4 0.204665 0.0848322 0.687054
2317 2 0.204918 0.130008 0.680182
2319 4 0.22758 0.130659 0.690878
3557 4 0.232108 0.149151 0.699293
2459 4 0.222933 0.093046 0.687817
2458 2 0.24685 0.0920454 0.680969
2460 4 0.270767 0.0910448 0.674121
3556 2 0.247849 0.165882 0.711624
3003 4 0.284551 0.105256 0.670248
223 3 0.417939 0.135816 0.684001
725 4 0.498183 0.132334 0.668698
2508 4 0.180643 0.183179 0.731475
1522 2 0.176188 0.17276 0.688825
1523 4 0.180495 0.182759 0.711516
2506 2 0.200556 0.17347 0.741
3558 4 0.26359 0.182612 0.723956
374 4 0.281053 0.235718 0.686332
3056 4 0.268942 0.240595 0.701359
373 2 0.299554 0.233579 0.669913
1085 4 0.289323 0.171987 0.674003
1084 2 0.31327 0.175403 0.666391
1043 4 0.0458569 0.27055 0.694653
1042 2 0.068573 0.262404 0.693509
1044 4 0.091289 0.254259 0.692365
3107 4 0.105888 0.268114 0.694169
3106 2 0.127784 0.259976 0.687882
3108 4 0.14968 0.251839 0.681594
3248 4 0.163138 0.262987 0.671726
3099 4 0.23742 0.303367 0.733434
3246 4 0.256035 0.312171 0.725685
3244 2 0.277568 0.324101 0.717084
3057 4 0.269266 0.290314 0.702852
3055 2 0.269104 0.265454 0.702105
3324 4 0.323379 0.28086 0.674088
3175 2 0.019143 0.383761 0.675156
1284 4 0.0336311 0.346181 0.734808
3177 4 0.0396053 0.399941 0.678948
993 4 0.0209355 0.416714 0.740061
2916 4 0.0497028 0.360609 0.737837
2914 2 0.0733515 0.363588 0.729326
2915 4 0.0970003 0.366567 0.720815
4251 4 0.112048 0.37093 0.732379
4249 2 0.134999 0.380906 0.725443
3182 4 0.150077 0.407896 0.675515
4250 4 0.15795 0.390881 0.718507
566 4 0.171302 0.38921 0.703978
565 2 0.195304 0.390421 0.711326
567 4 0.219307 0.391633 0.718673
3245 4 0.299102 0.336031 0.708482
3149 4 0.237068 0.391567 0.707375
3148 2 0.259846 0.39446 0.717975
3150 4 0.282625 0.397353 0.728576
3170 4 0.298233 0.410649 0.721842
3169 2 0.319551 0.399773 0.721774
3171 4 0.340869 0.388898 0.721706
2742 4 0.360922 0.392801 0.725666
2740 2 0.384333 0.386393 0.724074
1206 4 0.434732 0.373336 0.669367
2741 4 0.407743 0.379984 0.722482
1205 4 0.419256 0.392323 0.712165
1204 2 0.426994 0.38283 0.690766
1169 4 0.00574592 0.416089 0.727431