ITEM: TIMESTEP
963500
ITEM: NUMBER OF ATOMS
4590
ITEM: BOX BOUNDS xy xz yz pp pp pp
-9.9985700000000008e+00 1.5397797799999992e+01 5.3992277999999914e+00
-9.9985700000000008e+00 9.9985700000000008e+00 0.0000000000000000e+00
-9.9985700000000008e+00 9.9985700000000008e+00 0.0000000000000000e+00
ITEM: ATOMS id type xs ys zs
1285 2 0.076506 0.0151747 0.0181436
1286 4 0.0905166 0.0304007 0.0262031
486 4 0.107341 0.036987 0.0312039
484 2 0.132752 0.0346647 0.0335534
485 4 0.158164 0.0323424 0.0359029
1566 4 0.164454 0.0491935 0.0278511
1564 2 0.182693 0.0600421 0.0355578
1565 4 0.200932 0.0708907 0.0432645
1247 4 0.21168 0.075445 0.0267776
1246 2 0.226081 0.0782224 0.00708188
4231 2 0.286407 0.0261441 0.0798233
4233 4 0.304333 0.0390559 0.0797474
51 1 0.342013 0.0684983 0.00983117
53 3 0.352017 0.0509099 0.0240238
55 3 0.326231 0.0845371 0.0212444
1496 4 0.399745 0.00406501 0.0766444
2638 2 0.0173659 0.145699 0.0275957
2639 4 0.0325487 0.140605 0.00738223
2640 4 0.00218307 0.150793 0.0478092
2713 2 0.00824595 0.140933 0.0825915
3102 4 0.151533 0.145452 0.039488
3942 4 0.153635 0.163203 0.0313446
3100 2 0.156541 0.136427 0.0163121
3277 2 0.219927 0.130736 0.0771074
3278 4 0.244771 0.124718 0.0700497
915 4 0.396544 0.0981338 0.0889437
1256 4 0.398839 0.113121 0.00720727
2470 2 0.0245977 0.230978 0.0812543
2471 4 0.048082 0.215014 0.0796176
3940 2 0.149548 0.178109 0.0514193
3941 4 0.145462 0.193014 0.0714941
366 4 0.162821 0.19181 0.0807316
563 4 0.272917 0.252043 0.0310667
3048 4 0.26191 0.246908 0.014949
329 4 0.373561 0.179787 0.0367402
330 4 0.389173 0.221824 0.0341542
328 2 0.381367 0.200805 0.0354472
2913 4 0.406011 0.229419 0.033877
30 3 0.00396743 0.292689 0.00411356
493 2 0.0155357 0.299697 0.0751426
26 1 0.0238221 0.290171 0.0161397
28 3 0.0198008 0.286191 0.0384242
494 4 0.0285635 0.285555 0.0566936
29 3 0.0317393 0.309254 0.0142882
27 3 0.0404786 0.272238 0.00789576
2829 4 0.0478787 0.316439 0.0117242
2827 2 0.0713743 0.320193 0.00850036
522 4 0.122755 0.27194 0.0509363
4032 4 0.118941 0.284938 0.0656674
520 2 0.128832 0.277165 0.0276596
521 4 0.13491 0.282391 0.00438298
4030 2 0.119759 0.307171 0.0748521
2828 4 0.09487 0.323947 0.00527656
910 2 0.220418 0.319979 0.034383
564 4 0.236882 0.283292 0.0586814
912 4 0.224724 0.298862 0.0476985
562 2 0.254899 0.267668 0.0448741
2904 4 0.292848 0.336208 0.0636966
2911 2 0.401227 0.251188 0.0461282
2912 4 0.396443 0.272958 0.0583794
15 3 0.407464 0.280943 0.0727176
771 4 0.478437 0.250263 0.00700051
3083 4 0.496405 0.252846 0.000324269
357 4 0.108824 0.334772 0.00725492
355 2 0.122224 0.351224 0.00124124
1046 4 0.198116 0.351244 0.0292241
2841 4 0.150537 0.405439 0.0217113
911 4 0.216113 0.341096 0.0210675
3213 4 0.187328 0.403329 0.0100568
3211 2 0.210907 0.407316 0.00888759
1045 2 0.177463 0.358534 0.0142946
3212 4 0.234487 0.411302 0.00771834
2661 4 0.25177 0.410363 0.998004
2659 2 0.268471 0.407341 0.0170746
2660 4 0.285172 0.404319 0.0361457
3139 2 0.284413 0.394933 0.0777589
3140 4 0.291526 0.400189 0.0548516
2902 2 0.316007 0.340475 0.0597048
2903 4 0.339166 0.344742 0.0557131
2519 4 0.348008 0.357109 0.0653279
2518 2 0.372472 0.345954 0.0716948
1222 2 0.425468 0.361684 0.0710229
1224 4 0.406509 0.350206 0.0683942
1223 4 0.444426 0.373161 0.0736517
1236 4 0.440807 0.38826 0.0603275
1234 2 0.456579 0.40192 0.0525838
1235 4 0.47235 0.415579 0.04484
2165 4 0.0915747 0.480681 0.00176864
2839 2 0.150714 0.429492 0.0231787
2840 4 0.15089 0.453544 0.0246461
1596 4 0.159871 0.467682 0.0302476
1594 2 0.183523 0.46622 0.0393132
1595 4 0.207174 0.464758 0.0483788
4547 4 0.208624 0.44905 0.0599445
4546 2 0.234355 0.440675 0.0578904
4548 4 0.260086 0.4323 0.0558363
544 2 0.48544 0.443734 0.0163602
546 4 0.477909 0.430052 0.0340239
316 2 0.0258621 0.00334506 0.16358
317 4 0.00331375 0.00421524 0.152331
3782 4 0.144123 0.00305374 0.158672
3781 2 0.161759 0.0113258 0.145945
3783 4 0.179395 0.0195978 0.133218
3905 4 0.179845 0.0344377 0.121361
3904 2 0.205157 0.0300498 0.126241
3906 4 0.230468 0.025662 0.131121
2781 4 0.23991 0.0370499 0.141339
4232 4 0.268481 0.0132323 0.0798992
1449 4 0.320259 0.00540247 0.105014
1495 2 0.411539 0.000320532 0.0988905
2715 4 0.0230748 0.127521 0.100471
476 4 0.0405484 0.112266 0.102839
20 3 0.034531 0.154168 0.166047
475 2 0.055807 0.122664 0.116648
477 4 0.0710657 0.133061 0.130458
17 3 0.0663759 0.145698 0.144893
16 1 0.0541368 0.160284 0.160625
3279 4 0.195083 0.136754 0.0841651
3991 2 0.299813 0.153117 0.139259
827 4 0.325619 0.119328 0.0775999
3992 4 0.322044 0.152645 0.150939
826 2 0.350793 0.108713 0.0814551
3993 4 0.277583 0.15359 0.12758
828 4 0.375967 0.0980981 0.0853103
913 2 0.421294 0.0984304 0.0918667
914 4 0.446045 0.0987269 0.0947897
875 4 0.464715 0.0996752 0.0885557
874 2 0.482617 0.109547 0.0987876
876 4 0.500519 0.119419 0.10902
834 4 0.00145875 0.247303 0.103189
2858 4 0.0533444 0.207316 0.0970991
2857 2 0.058081 0.198858 0.120501
2859 4 0.0628177 0.1904 0.143902
19 3 0.0483987 0.181721 0.151745
364 2 0.167852 0.186064 0.104816
531 4 0.173226 0.181877 0.148394
365 4 0.172884 0.180319 0.1289
529 2 0.190908 0.194032 0.154558
2800 2 0.245921 0.18375 0.145895
2801 4 0.264236 0.170815 0.130463
530 4 0.20859 0.206186 0.160721
2802 4 0.227606 0.196685 0.161328
2820 4 0.302778 0.220438 0.085137
2818 2 0.323249 0.223705 0.0977277
2819 4 0.343721 0.226973 0.110318
3344 4 0.354916 0.237355 0.102865
756 4 0.460265 0.17947 0.0810097
754 2 0.471177 0.198548 0.0827907
755 4 0.482089 0.217627 0.0845717
2472 4 0.00111336 0.246942 0.082891
495 4 0.00250783 0.313839 0.0935917
4031 4 0.120578 0.329404 0.0840368
558 4 0.298449 0.311118 0.166111
2849 4 0.283474 0.302622 0.161995
556 2 0.313579 0.316341 0.148102
3343 2 0.362827 0.258313 0.104223
3345 4 0.370737 0.279271 0.105582
12 3 0.378122 0.293932 0.0963123
557 4 0.32871 0.321564 0.130094
2568 4 0.383542 0.339526 0.154454
13 3 0.401418 0.315675 0.0868693
11 1 0.400547 0.29389 0.0911381
14 3 0.414704 0.285312 0.109155
2717 4 0.410064 0.273994 0.125003
2716 2 0.431357 0.277321 0.136034
2718 4 0.452649 0.280648 0.147065
2673 4 0.465266 0.293863 0.152128
2671 2 0.49116 0.287791 0.152243
3801 4 0.00695794 0.35765 0.133762
3881 4 0.0241414 0.35535 0.142187
3880 2 0.0453513 0.363863 0.142496
3882 4 0.0665612 0.372375 0.142804
2783 4 0.0799365 0.379157 0.132432
2782 2 0.102052 0.373489 0.119421
2784 4 0.124168 0.367821 0.10641
1761 4 0.24515 0.382653 0.145905
1759 2 0.260978 0.377198 0.126173
1760 4 0.276805 0.371742 0.106441
3141 4 0.2773 0.389676 0.100666
2566 2 0.361124 0.338039 0.144342
2567 4 0.338707 0.336551 0.13423
2520 4 0.396936 0.334798 0.0780618
2691 4 0.410012 0.440754 0.140999
2689 2 0.402759 0.42867 0.160198
3518 4 0.430135 0.443543 0.141102
3517 2 0.442897 0.457767 0.153235
3519 4 0.455659 0.471992 0.165368
3662 4 0.0610917 0.99978 0.189666
318 4 0.0484105 0.00247488 0.174829
3661 2 0.082566 0.00786931 0.189488
3663 4 0.10404 0.0159582 0.189309
4509 4 0.179595 0.0126334 0.227834
2547 4 0.20027 0.0103045 0.228197
2545 2 0.215801 0.0224641 0.21709
2779 2 0.239665 0.0403801 0.166111
2546 4 0.231331 0.0346238 0.205982
2780 4 0.239419 0.0437103 0.190883
3679 2 0.396174 0.00832883 0.226652
3681 4 0.416215 0.0184885 0.228351
349 2 0.484001 0.0121672 0.177726
743 4 0.0214593 0.142366 0.171093
18 3 0.0678708 0.159484 0.179467
549 4 0.491647 0.150722 0.196042
2933 4 0.485691 0.133692 0.195463
547 2 0.467047 0.164444 0.195547
647 4 0.123019 0.185021 0.250528
448 2 0.421109 0.169085 0.229552
449 4 0.4317 0.169075 0.206902
548 4 0.442446 0.178166 0.195052
2962 2 0.188045 0.322727 0.235729
2964 4 0.18115 0.303506 0.246204
2842 2 0.249384 0.279029 0.243355
2844 4 0.265044 0.282124 0.224821
2850 4 0.265229 0.289437 0.205022
2848 2 0.274352 0.296029 0.183508
3210 4 0.0361831 0.382021 0.191358
3208 2 0.010559 0.389261 0.18782
108 3 0.115389 0.406237 0.241895
2963 4 0.194939 0.341947 0.225254
106 1 0.138289 0.407204 0.242932
267 4 0.358761 0.339124 0.202029
3594 4 0.354488 0.4055 0.215158
1821 4 0.309748 0.39291 0.236215
265 2 0.353654 0.355314 0.221069
266 4 0.348547 0.371504 0.240109
2690 4 0.395507 0.416585 0.179396
107 3 0.144781 0.413242 0.222275
3592 2 0.366097 0.418221 0.199761
3593 4 0.377705 0.430943 0.184364
737 4 0.423193 0.441122 0.220712
736 2 0.440077 0.452784 0.230087
3716 4 0.452475 0.485476 0.239412
738 4 0.456962 0.464445 0.239462
354 4 0.213667 0.0515784 0.331445
352 2 0.235694 0.0486842 0.318584
353 4 0.257721 0.04579 0.305722
388 2 0.296922 0.0137964 0.312774
389 4 0.275592 0.00569701 0.310216
390 4 0.318252 0.0218958 0.315332
468 4 0.33437 0.0276626 0.325022
2759 4 0.193345 0.138076 0.268317
2600 4 0.157181 0.172241 0.305696
2758 2 0.219127 0.129998 0.266602
2760 4 0.244908 0.12192 0.264888
692 4 0.252179 0.138064 0.267037
691 2 0.277048 0.135504 0.27287
693 4 0.301918 0.132944 0.278703
279 4 0.314993 0.141394 0.288386
277 2 0.334204 0.152403 0.291838
278 4 0.353414 0.163412 0.295289
450 4 0.410517 0.169094 0.252203
646 2 0.130398 0.179932 0.27426
648 4 0.137778 0.174842 0.297992
2599 2 0.147925 0.176625 0.328951
3852 4 0.164631 0.237405 0.332683
2907 4 0.302602 0.183633 0.256476
2905 2 0.312805 0.202992 0.259989
2906 4 0.323008 0.222351 0.263502
2895 4 0.410816 0.163409 0.271299
1464 4 0.336823 0.221177 0.277583
2893 2 0.385704 0.164377 0.273877
2894 4 0.360591 0.165344 0.276455
1462 2 0.350814 0.237319 0.282867
1516 2 0.446531 0.177604 0.324484
1517 4 0.464375 0.181619 0.308648
2615 4 0.472306 0.192148 0.295896
2614 2 0.488927 0.205613 0.290098
3792 4 0.0147046 0.307712 0.292531
1193 4 0.0250726 0.316403 0.305965
1192 2 0.0466242 0.321884 0.314009
1194 4 0.0681757 0.327365 0.322053
3456 4 0.0883583 0.324887 0.326523
3454 2 0.110051 0.330655 0.319358
2554 2 0.153686 0.29054 0.271567
2555 4 0.137102 0.277611 0.278988
2556 4 0.17027 0.303468 0.264146
2843 4 0.233724 0.275935 0.261889
1463 4 0.364805 0.253461 0.288151
2637 4 0.374807 0.268097 0.292858
2635 2 0.386751 0.286328 0.295747
2739 4 0.345272 0.294472 0.323295
2636 4 0.398695 0.304559 0.298635
1586 4 0.412421 0.312777 0.305678
1585 2 0.435719 0.316925 0.302256
1587 4 0.459018 0.321074 0.298833
560 4 0.482983 0.28503 0.245708
559 2 0.480118 0.298051 0.267043
561 4 0.477253 0.311072 0.288379
1332 4 0.999213 0.346416 0.266621
1330 2 0.0198075 0.354686 0.260642
270 4 0.0590954 0.354366 0.260024
1331 4 0.0404015 0.362955 0.254663
3455 4 0.131743 0.336424 0.312192
269 4 0.103482 0.354171 0.283158
268 2 0.0812886 0.354269 0.271591
1530 4 0.123529 0.345709 0.277063
1528 2 0.140537 0.357261 0.267758
2486 4 0.141752 0.350661 0.311834
109 3 0.152463 0.386381 0.248561
1529 4 0.157546 0.368814 0.258453
1743 4 0.177374 0.365182 0.263737
2485 2 0.166398 0.349752 0.317214
2487 4 0.191045 0.348842 0.322595
1741 2 0.188473 0.381647 0.274342
1742 4 0.199572 0.398112 0.284946
248 4 0.206871 0.407442 0.271032
3975 4 0.20706 0.35232 0.331639
247 2 0.229596 0.413192 0.272688
1820 4 0.267141 0.40641 0.264507
1819 2 0.288444 0.39966 0.250361
3973 2 0.228072 0.361143 0.331874
2899 2 0.286167 0.360995 0.333815
2900 4 0.264879 0.35275 0.33174
615 4 0.36273 0.371999 0.254771
2901 4 0.307455 0.36924 0.335889
613 2 0.368686 0.381074 0.276501
614 4 0.374641 0.390148 0.29823
110 3 0.140561 0.422679 0.258345
249 4 0.252321 0.418941 0.274344
275 4 0.328517 0.444016 0.296231
274 2 0.34637 0.457008 0.295886
276 4 0.364223 0.469999 0.295541
4361 4 0.381521 0.475925 0.297028
4360 2 0.405234 0.479061 0.293542
5 3 0.451963 0.495445 0.257188
4362 4 0.428948 0.482196 0.290057
4 3 0.462982 0.457822 0.258394
2 3 0.450649 0.477763 0.289486
1 1 0.462656 0.477405 0.26981
3 3 0.485108 0.478174 0.274743
331 2 0.00906743 0.0529724 0.35999
332 4 0.0347268 0.0496322 0.358944
3723 4 0.0389188 0.0668577 0.362111
3721 2 0.0636312 0.0661533 0.366942
3722 4 0.0883437 0.0654489 0.371773
1182 4 0.110724 0.0418142 0.376568
1180 2 0.135122 0.0362463 0.368199
3488 4 0.085678 0.0626158 0.410513
2642 4 0.101787 0.0777331 0.371982
1181 4 0.159519 0.0306784 0.35983
704 4 0.166446 0.046063 0.353904
703 2 0.190591 0.0485924 0.352373
705 4 0.214736 0.0511217 0.350841
467 4 0.361987 0.0312921 0.365885
466 2 0.348179 0.0294773 0.345454
368 4 0.432159 0.00854231 0.40049
2641 2 0.116652 0.0910121 0.36157
347 4 0.104672 0.166804 0.388363
2643 4 0.131518 0.104291 0.351157
2943 4 0.152457 0.105483 0.349062
2941 2 0.176106 0.108307 0.353674
2942 4 0.199755 0.111132 0.358286
2627 4 0.280235 0.0887406 0.391798
2831 4 0.213795 0.101529 0.371411
2830 2 0.238234 0.0924856 0.379127
2832 4 0.262672 0.0834424 0.386843
2626 2 0.296422 0.0999419 0.380366
2628 4 0.312608 0.111143 0.368935
792 4 0.365565 0.15744 0.397356
1200 4 0.37782 0.16324 0.384779
1210 2 0.0202443 0.227149 0.391164
600 4 0.0859665 0.165631 0.381959
1211 4 0.0451612 0.218985 0.384633
599 4 0.0432669 0.203063 0.375855
598 2 0.0646167 0.184347 0.378907
346 2 0.12692 0.168524 0.378048
348 4 0.149167 0.170244 0.367732
2601 4 0.13867 0.181009 0.352206
3850 2 0.189204 0.236564 0.338317
3851 4 0.213777 0.235722 0.343951
3888 4 0.231701 0.241349 0.34183
2654 4 0.18456 0.220932 0.416041
1198 2 0.395868 0.166401 0.368719
1199 4 0.413916 0.169562 0.352658
1518 4 0.428686 0.173589 0.340319
2925 4 0.144664 0.3227 0.398571
2923 2 0.169784 0.310505 0.398794
2924 4 0.194903 0.29831 0.399016
2922 4 0.210523 0.300094 0.388982
3886 2 0.2435 0.259869 0.341926
2920 2 0.222354 0.306208 0.368831
2921 4 0.234185 0.312322 0.34868
3887 4 0.255299 0.278389 0.342021
2544 4 0.27241 0.284516 0.350469
2542 2 0.283056 0.292722 0.370279
2543 4 0.293703 0.300927 0.390089
3059 4 0.309646 0.303948 0.400829
2737 2 0.329006 0.309313 0.339252
3058 2 0.329952 0.30758 0.413435
2683 2 0.378981 0.324554 0.406761
2738 4 0.312739 0.324154 0.355209
2684 4 0.393948 0.32558 0.386968
371 4 0.492218 0.284146 0.408112
3437 4 0.479528 0.272137 0.416277
451 2 0.0143251 0.375857 0.368713
453 4 0.0388706 0.377308 0.36761
2550 4 0.0597535 0.372763 0.366893
2548 2 0.0798232 0.382919 0.365593
2549 4 0.0998929 0.393074 0.364293
1493 4 0.116279 0.395073 0.353915
2570 4 0.137692 0.340367 0.388913
1492 2 0.136029 0.405704 0.354621
2569 2 0.14115 0.36238 0.396141
2571 4 0.144608 0.384393 0.40337
143 3 0.194747 0.395911 0.406551
2474 4 0.170239 0.42087 0.367814
142 3 0.166163 0.378501 0.407846
1219 2 0.226911 0.336657 0.419061
1494 4 0.15578 0.416334 0.355327
3596 4 0.211514 0.403952 0.403311
3974 4 0.249084 0.369966 0.332109
3595 2 0.234218 0.40923 0.399417
1220 4 0.238532 0.354807 0.414285
2961 4 0.257351 0.341762 0.411106
2959 2 0.277015 0.352393 0.409007
2960 4 0.296678 0.363024 0.406907
3597 4 0.256921 0.414507 0.395523
3071 4 0.354341 0.345072 0.335839
3070 2 0.37619 0.351779 0.340359
872 4 0.352879 0.412889 0.336767
2462 4 0.316647 0.350634 0.404536
873 4 0.319433 0.392013 0.359951
2461 2 0.332973 0.365034 0.407579
871 2 0.336156 0.402451 0.348359
650 4 0.310031 0.409364 0.368018
2538 4 0.35607 0.397188 0.410484
2463 4 0.349298 0.379434 0.410622
3072 4 0.398039 0.358485 0.344879
585 4 0.418863 0.358656 0.341516
2537 4 0.4043 0.39799 0.398113
583 2 0.413561 0.374983 0.360433
584 4 0.408258 0.39131 0.379349
2536 2 0.380185 0.397589 0.404298
3605 4 0.00660766 0.429494 0.363713
3604 2 0.0294979 0.433335 0.357556
3606 4 0.0523882 0.437176 0.351399
2622 4 0.0662696 0.447372 0.355788
2620 2 0.0860313 0.455733 0.347395
2621 4 0.105793 0.464094 0.339002
2473 2 0.194886 0.420288 0.362809
1472 4 0.120597 0.467621 0.349162
1471 2 0.144002 0.472064 0.34927
1473 4 0.167408 0.476507 0.349379
1736 4 0.180986 0.485857 0.354417
651 4 0.271399 0.4238 0.40097
2475 4 0.219534 0.419707 0.357803
1735 2 0.204222 0.490394 0.356918
1737 4 0.227459 0.49493 0.359418
308 4 0.243459 0.501588 0.36697
649 2 0.290715 0.416582 0.384494
733 2 0.0427125 0.0708186 0.484225
734 4 0.0173964 0.0721019 0.484006
735 4 0.0680285 0.0695353 0.484444
1026 4 0.0973187 0.0248273 0.481271
3487 2 0.104544 0.0612058 0.427291
3489 4 0.12341 0.0597958 0.444069
1427 4 0.143082 0.0497109 0.445866
1426 2 0.167821 0.0394704 0.451985
1428 4 0.19256 0.02923 0.458104
3138 4 0.396889 0.0653741 0.427346
3136 2 0.409344 0.0521498 0.446617
3137 4 0.4218 0.0389255 0.465887
2333 4 0.416849 0.0260646 0.478661
723 4 0.00768016 0.0841819 0.498103
1601 4 0.0799036 0.0831049 0.48052
1600 2 0.0992847 0.091602 0.489639
473 4 0.109654 0.13577 0.4407
1602 4 0.118666 0.100099 0.498759
472 2 0.130828 0.144286 0.442008
474 4 0.152001 0.152802 0.443316
803 4 0.169543 0.156839 0.45227
512 4 0.258984 0.161561 0.44662
790 2 0.353446 0.159432 0.419426
576 4 0.27979 0.160704 0.446724
574 2 0.305514 0.155416 0.449352
791 4 0.341328 0.161425 0.441496
575 4 0.331238 0.150127 0.451979
802 2 0.186114 0.168107 0.462927
2655 4 0.159052 0.214855 0.457597
2653 2 0.171806 0.217894 0.436819
804 4 0.202684 0.179374 0.473584
1491 4 0.201127 0.227534 0.418264
513 4 0.222078 0.179266 0.480609
511 2 0.240531 0.170414 0.463615
1489 2 0.225005 0.227298 0.42588
1490 4 0.248883 0.227061 0.433496
399 4 0.25761 0.235507 0.446242
695 4 0.376448 0.200295 0.489837
694 2 0.397547 0.206734 0.497721
2528 4 0.433971 0.219452 0.444474
2527 2 0.455265 0.226416 0.438176
2529 4 0.476559 0.233379 0.431879
2727 4 0.487116 0.241449 0.444513
1120 2 0.0097311 0.258999 0.442696
1122 4 0.0331193 0.263047 0.439619
1221 4 0.215291 0.318506 0.423837
397 2 0.278059 0.245155 0.447012
1034 4 0.316406 0.253187 0.458067
398 4 0.298508 0.254804 0.447782
2535 4 0.247287 0.278382 0.462834
2534 4 0.272433 0.301881 0.493766
2533 2 0.25986 0.290132 0.4783
2918 4 0.276604 0.318003 0.485632
1033 2 0.337864 0.258009 0.448903
1035 4 0.359321 0.26283 0.43974
3060 4 0.350257 0.311211 0.426041
2685 4 0.364013 0.323529 0.426553
471 4 0.375421 0.268012 0.429823
469 2 0.399258 0.271306 0.431537
470 4 0.423095 0.274601 0.433252
3438 4 0.428928 0.290054 0.425523
3436 2 0.454228 0.281096 0.4209
3129 4 0.101641 0.333554 0.461371
3127 2 0.109728 0.351773 0.472511
3128 4 0.117814 0.369992 0.483652
2958 4 0.1385 0.368194 0.481399
2956 2 0.148356 0.380171 0.463781
2957 4 0.158212 0.392147 0.446163
141 1 0.181979 0.385762 0.420511
144 3 0.170155 0.401015 0.436207
145 3 0.196296 0.367931 0.431018
3696 4 0.20655 0.374145 0.446223
2917 2 0.278397 0.340874 0.479421
3694 2 0.2242 0.385775 0.453822
3695 4 0.241849 0.397404 0.461421
3989 4 0.258543 0.388831 0.451092
3988 2 0.282116 0.392896 0.450981
2919 4 0.280191 0.363745 0.47321
3990 4 0.305689 0.396961 0.450869
2223 4 0.314535 0.387674 0.467286
2221 2 0.339197 0.388415 0.469842
2222 4 0.363859 0.389155 0.472398
1381 2 0.0688631 0.498431 0.435323
4484 4 0.0920162 0.437295 0.460409
1383 4 0.0871423 0.479049 0.444229
4483 2 0.116372 0.439162 0.458487
4485 4 0.140727 0.44103 0.456564
2107 2 0.158056 0.471872 0.474044
2109 4 0.166779 0.487701 0.488388
2108 4 0.149333 0.456044 0.4597
768 4 0.238393 0.499435 0.427142
540 4 0.197526 0.46534 0.446185
538 2 0.20851 0.48361 0.440018
4022 4 0.327594 0.443863 0.460628
4023 4 0.305979 0.428497 0.420618
2875 2 0.299554 0.442434 0.493636
2876 4 0.316387 0.446607 0.476747
4021 2 0.316787 0.43618 0.440623
3157 2 0.0411067 0.0181057 0.545849
3158 4 0.0485676 0.0334944 0.529929
1025 4 0.0623445 0.0226355 0.516356
1142 4 0.0135114 0.00725333 0.568805
1024 2 0.0798316 0.0237314 0.498813
2656 2 0.181867 0.00935104 0.526716
2657 4 0.171405 0.0339574 0.524454
217 3 0.327772 0.0582099 0.564802
216 1 0.336164 0.044653 0.582773
218 3 0.35395 0.0268379 0.575519
1994 4 0.37103 0.0291768 0.584011
1993 2 0.38551 0.00775823 0.574482
2334 4 0.409014 0.00220612 0.520227
2332 2 0.412931 0.0141353 0.499444
1057 2 0.0143481 0.0825962 0.579997
3467 4 0.187209 0.134731 0.511347
2115 4 0.17422 0.123797 0.508454
2113 2 0.156592 0.110614 0.50689
2114 4 0.138963 0.0974302 0.505327
3466 2 0.205962 0.145932 0.516393
3468 4 0.224715 0.157134 0.521439
4225 2 0.374505 0.164308 0.57832
1217 4 0.407755 0.131185 0.575884
4227 4 0.398721 0.151703 0.572566
3713 4 0.493318 0.0878728 0.580062
3381 4 0.251166 0.248662 0.553188
799 2 0.286627 0.248947 0.557721
891 4 0.315855 0.204591 0.526639
374 4 0.328122 0.243711 0.573931
801 4 0.30636 0.248714 0.573156
889 2 0.336429 0.203989 0.512211
373 2 0.351397 0.244771 0.56563
375 4 0.374673 0.245832 0.557329
890 4 0.357004 0.203386 0.497782
1179 4 0.438926 0.212102 0.509668
1177 2 0.460117 0.218896 0.51666
696 4 0.418647 0.213173 0.505605
1178 4 0.481307 0.22569 0.523652
3162 4 0.492936 0.230317 0.537629
3380 4 0.200594 0.260456 0.563961
2121 4 0.188663 0.267668 0.580352
3379 2 0.22588 0.254559 0.558574
800 4 0.266895 0.249181 0.542286
728 4 0.381016 0.259866 0.54754
727 2 0.397012 0.267014 0.531643
729 4 0.413009 0.274163 0.515745
1136 4 0.392893 0.311793 0.554018
1135 2 0.40903 0.299046 0.571382
711 4 0.488123 0.281114 0.560573
709 2 0.486993 0.289358 0.536993
710 4 0.485862 0.297602 0.513413
3582 4 0.294407 0.37088 0.543181
3580 2 0.27631 0.370377 0.560284
3581 4 0.258213 0.369874 0.577386
3873 4 0.334034 0.393474 0.561984
1239 4 0.336695 0.392198 0.58214
816 4 0.47671 0.342931 0.558862
814 2 0.465757 0.341447 0.58109
3511 2 0.99794 0.459748 0.579912
2877 4 0.282721 0.438262 0.510525
3871 2 0.322392 0.417545 0.557585
3872 4 0.310749 0.441615 0.553186
1187 4 0.312817 0.459733 0.55234
1186 2 0.318661 0.481666 0.549948
2810 4 0.0426737 0.0634187 0.613498
1058 4 0.0311562 0.0754716 0.598782
2809 2 0.0671467 0.0647222 0.610814
2811 4 0.0916197 0.0660257 0.608129
1162 2 0.106647 0.0782664 0.640746
1163 4 0.125717 0.0782619 0.65692
1164 4 0.0875777 0.0782709 0.624573
3001 2 0.211565 0.0401876 0.665922
225 3 0.277769 0.066573 0.644075
223 3 0.249042 0.0555707 0.661158
3272 4 0.288997 0.0582274 0.627522
1924 2 0.293434 0.0143265 0.592693
1925 4 0.301429 0.0335721 0.583705
221 1 0.266244 0.0666872 0.663735
3003 4 0.234986 0.0442575 0.663206
3271 2 0.307303 0.0706809 0.628275
220 3 0.318759 0.0369474 0.591693
219 3 0.344462 0.0569881 0.598618
1468 2 0.359616 0.0683202 0.654009
4137 4 0.364889 0.0471733 0.594023
3273 4 0.325609 0.0831345 0.629029
1470 4 0.343825 0.0807299 0.636221
4135 2 0.380295 0.0624815 0.597039
4136 4 0.3957 0.0777898 0.600055
3460 2 0.465195 0.0121825 0.596929
3712 2 0.480741 0.0703256 0.584244
3714 4 0.468164 0.0527784 0.588427
3461 4 0.468968 0.0347117 0.592402
1394 4 0.139119 0.148096 0.663385
1393 2 0.145342 0.138443 0.640605
1395 4 0.151565 0.12879 0.617826
1263 4 0.172529 0.12527 0.621902
1261 2 0.197919 0.121181 0.61758
1262 4 0.223308 0.117092 0.613258
726 4 0.202683 0.151371 0.660761
1084 2 0.259301 0.164254 0.6295
1085 4 0.284564 0.159266 0.634823
2508 4 0.304087 0.149946 0.639846
2506 2 0.328909 0.14529 0.632901
2507 4 0.35373 0.140633 0.625956
1218 4 0.410462 0.0867361 0.596829
641 4 0.369938 0.140722 0.637819
1216 2 0.409109 0.108961 0.586357
640 2 0.394722 0.140369 0.633873
642 4 0.419505 0.140015 0.629927
3420 4 0.438069 0.136468 0.641056
3418 2 0.458246 0.143054 0.651045
3419 4 0.478423 0.14964 0.661034
3011 4 0.0260628 0.176658 0.644775
3010 2 0.0319883 0.198319 0.648944
3012 4 0.0379138 0.219979 0.653112
3142 2 0.0619524 0.24757 0.645291
3144 4 0.0414543 0.237986 0.644684
1522 2 0.118139 0.233103 0.637706
959 4 0.134727 0.212009 0.66252
1524 4 0.140694 0.217333 0.644164
1086 4 0.234038 0.169243 0.624178
1283 4 0.265766 0.236053 0.61437
1259 4 0.325928 0.211335 0.633552
668 4 0.335987 0.199987 0.649132
1258 2 0.342009 0.199201 0.615832
4226 4 0.350288 0.176912 0.584073
1260 4 0.358089 0.187067 0.598112
3143 4 0.0824506 0.257155 0.645899
1523 4 0.095585 0.248873 0.631247
2120 4 0.178946 0.273664 0.629334
2119 2 0.183805 0.270666 0.604843
1282 2 0.267835 0.257655 0.624174
1284 4 0.269904 0.279257 0.633978
2916 4 0.282915 0.284744 0.646746
2914 2 0.302013 0.282033 0.663495
1137 4 0.425168 0.2863 0.588746
864 4 0.412502 0.277019 0.655723
796 2 0.430271 0.269863 0.622192
797 4 0.429508 0.26699 0.597402
798 4 0.431034 0.272736 0.646982
3494 4 0.015791 0.382827 0.595706
3493 2 0.0380458 0.389558 0.595076
3183 4 0.00201167 0.371847 0.590254
3495 4 0.0603007 0.396289 0.594446
3960 4 0.0779007 0.401223 0.594703
3958 2 0.0970649 0.401036 0.610821
3959 4 0.116229 0.40085 0.626939
2308 2 0.144136 0.404559 0.644918
2310 4 0.167142 0.391909 0.653939
3122 4 0.277631 0.405556 0.666048
1237 2 0.339059 0.393926 0.606923
1238 4 0.341423 0.395655 0.631705
4197 4 0.35981 0.399258 0.628912
815 4 0.454804 0.339962 0.603318
4195 2 0.38217 0.388445 0.640329
4196 4 0.404529 0.377632 0.651747
4086 4 0.422459 0.365398 0.647932
4084 2 0.442027 0.358841 0.63164
4085 4 0.461596 0.352284 0.615348
3512 4 0.00798181 0.472801 0.596368
4129 2 0.0391265 0.493144 0.640318
2309 4 0.12113 0.417209 0.635898
4130 4 0.0582661 0.472089 0.63942
2038 2 0.270358 0.43356 0.640152
2040 4 0.271963 0.442361 0.617089
2039 4 0.268753 0.42476 0.663214
1815 4 0.277647 0.458435 0.618611
1813 2 0.291036 0.474699 0.611939
1814 4 0.304426 0.490964 0.605268
2978 4 0.0113756 0.0405264 0.742174
2996 4 0.129296 0.0638059 0.669589
3002 4 0.188144 0.0361177 0.668638
2995 2 0.155045 0.0591761 0.671479
2997 4 0.180793 0.0545463 0.673368
1126 2 0.211509 0.0115885 0.739856
2376 4 0.179093 0.00793553 0.739488
1127 4 0.231092 0.0145816 0.725699
3086 4 0.249314 0.0106628 0.717319
222 3 0.281564 0.0559185 0.679832
2460 4 0.30064 0.0574003 0.683999
2458 2 0.316393 0.0699841 0.694003
2258 4 0.372577 0.0385011 0.677023
1469 4 0.375406 0.0559106 0.671797
2459 4 0.332147 0.0825679 0.704007
2257 2 0.392865 0.0287075 0.691785
2259 4 0.413154 0.0189138 0.706547
918 4 0.429652 0.0262734 0.706609
916 2 0.452184 0.0323334 0.708694
917 4 0.474717 0.0383934 0.71078
3234 4 0.487553 0.0284216 0.725206
1195 2 0.0242813 0.143822 0.735488
1196 4 0.00447839 0.141163 0.749524
1197 4 0.0440841 0.146481 0.721452
4080 4 0.0644305 0.141669 0.7267
4078 2 0.0860236 0.147231 0.734504
4079 4 0.107617 0.152792 0.742308
1308 4 0.114169 0.154806 0.724733
960 4 0.147793 0.162475 0.669378
4499 4 0.188355 0.0956658 0.746149
4498 2 0.203194 0.0892593 0.725844
1306 2 0.134649 0.164209 0.722116
224 3 0.256549 0.0885369 0.670559
4500 4 0.218033 0.0828528 0.705539
724 2 0.212083 0.141327 0.68266
725 4 0.221483 0.131283 0.704559
4164 4 0.24035 0.129829 0.712256
4162 2 0.265075 0.130739 0.713161
4163 4 0.289799 0.131649 0.714066
1133 4 0.348051 0.0898536 0.696224
1132 2 0.367072 0.099351 0.704534
1134 4 0.386093 0.108848 0.712844
3377 4 0.39889 0.114936 0.725928
3376 2 0.417743 0.110967 0.743052
3452 4 0.0844169 0.206288 0.715904
3451 2 0.0943378 0.225343 0.721829
958 2 0.14126 0.187242 0.665949
3108 4 0.121735 0.241916 0.718958
1307 4 0.15513 0.173613 0.7195
1079 4 0.175627 0.173289 0.721464
3453 4 0.104259 0.244398 0.727755
1078 2 0.195201 0.182738 0.728274
1080 4 0.214774 0.192186 0.735084
3098 4 0.252285 0.1993 0.713723
667 2 0.325602 0.201836 0.672024
3097 2 0.273464 0.205877 0.706307
3099 4 0.294643 0.212454 0.698891
669 4 0.315216 0.203686 0.694915
516 4 0.482109 0.16683 0.669368
1227 4 0.437272 0.243196 0.742257
1202 4 0.482416 0.24925 0.706324
3751 2 0.468601 0.251503 0.735013
3246 4 0.0468234 0.291336 0.684357
3244 2 0.0703842 0.288898 0.694089
3245 4 0.093945 0.286459 0.703821
3117 4 0.090594 0.304818 0.696572
3115 2 0.108999 0.316927 0.699538
3106 2 0.138292 0.256167 0.72136
3107 4 0.154849 0.270417 0.723761
3116 4 0.127405 0.329035 0.702504
1112 4 0.0781918 0.307674 0.7493
2915 4 0.32111 0.279321 0.680244
4251 4 0.327084 0.282013 0.699287
4249 2 0.334583 0.295825 0.716847
4250 4 0.342082 0.309636 0.734407
1028 4 0.353841 0.308929 0.752462
863 4 0.371062 0.279328 0.684521
862 2 0.391782 0.278174 0.670122
3753 4 0.480987 0.263597 0.719718
2048 4 0.144677 0.336812 0.709679
1205 4 0.0876497 0.413897 0.741673
2047 2 0.164368 0.347501 0.708602
2049 4 0.18406 0.358191 0.707524
2741 4 0.159993 0.385806 0.729369
2016 4 0.177597 0.377062 0.720125
2014 2 0.176439 0.39765 0.706637
4320 4 0.203587 0.344483 0.709683
4318 2 0.221843 0.354498 0.700435
4319 4 0.2401 0.364514 0.691187
3121 2 0.264459 0.391843 0.678392
3123 4 0.251286 0.37813 0.690737
1068 4 0.297052 0.37596 0.736916
1066 2 0.315118 0.388342 0.733238
1067 4 0.333184 0.400724 0.72956
137 3 0.349986 0.407023 0.733193
2243 4 0.415238 0.390195 0.718269
2242 2 0.438241 0.388719 0.728854
2244 4 0.461244 0.387244 0.739438
1008 4 0.470177 0.401525 0.734211
1006 2 0.495188 0.396549 0.740557
3075 4 0.00897537 0.458528 0.693189
3073 2 0.0191435 0.477011 0.70052
3074 4 0.0293117 0.495495 0.707852
1204 2 0.0889669 0.437378 0.737774
1206 4 0.0902841 0.460859 0.733876
2129 4 0.10841 0.464561 0.72989
2015 4 0.17528 0.418239 0.693148
2128 2 0.129379 0.458236 0.715254
2130 4 0.150347 0.451911 0.700619
3176 4 0.187156 0.443372 0.669111
3175 2 0.196414 0.451679 0.689699
3177 4 0.205671 0.459987 0.710288
3223 2 0.236142 0.47949 0.710174
3225 4 0.21473 0.473448 0.717767
3224 4 0.257555 0.485532 0.702581
138 3 0.338517 0.441829 0.719161
136 1 0.35606 0.426824 0.730617
140 3 0.376201 0.422987 0.71883
3327 4 0.393639 0.429886 0.712099
3325 2 0.406917 0.441809 0.726619
3326 4 0.420196 0.453732 0.74114
3476 4 0.435595 0.458096 0.731541
3475 2 0.459449 0.45821 0.724147
3477 4 0.483303 0.458324 0.716754
2977 2 0.0291502 0.0259575 0.757052
1065 4 0.058994 0.00734352 0.787628
2050 2 0.00262385 0.0518169 0.816192
2979 4 0.0469248 0.0113885 0.77193
2051 4 0.00862534 0.0705878 0.828452
1063 2 0.0714643 0.0242179 0.794738
1064 4 0.0839345 0.0410923 0.801848
3067 2 0.11524 0.0779075 0.772183
3069 4 0.100653 0.067229 0.757833
3486 4 0.16419 0.00775287 0.834301
1128 4 0.191926 0.00859548 0.754013
2999 4 0.175307 0.0204266 0.826535
2998 2 0.186307 0.0392685 0.829911
4152 4 0.278029 0.00646567 0.775364
1049 4 0.27966 0.00954896 0.794688
1048 2 0.297885 0.00453961 0.812448
1050 4 0.316109 0.99953 0.830208
3021 4 0.350855 0.0706134 0.786526
3053 4 0.357731 0.05844 0.770397
3052 2 0.382062 0.0588401 0.765131
3054 4 0.406394 0.0592402 0.759864
3068 4 0.129828 0.0885861 0.786533
3393 4 0.146856 0.0816879 0.77359
3391 2 0.170316 0.0850583 0.769121
3392 4 0.193775 0.0884287 0.764653
3063 4 0.130721 0.163514 0.81396
3464 4 0.26814 0.159979 0.7753
45 3 0.227323 0.0956555 0.832879
3020 4 0.317784 0.108827 0.80939
3019 2 0.334319 0.0897201 0.797958
3311 4 0.277354 0.166996 0.790812
3378 4 0.436596 0.106998 0.760177