ITEM: TIMESTEP
2026000
ITEM: NUMBER OF ATOMS
4590
ITEM: BOX BOUNDS xy xz yz pp pp pp
-9.9985700000000008e+00 9.9985700000000008e+00 0.0000000000000000e+00
-9.9985700000000008e+00 9.9985700000000008e+00 0.0000000000000000e+00
-9.9985700000000008e+00 9.9985700000000008e+00 0.0000000000000000e+00
ITEM: ATOMS id type xs ys zs
2552 4 0.0211081 0.0294182 0.0633177
2551 2 0.0412011 0.0376812 0.0509403
2553 4 0.0612941 0.0459441 0.0385628
4400 4 0.0654653 0.0530843 0.0199229
1827 4 0.0115987 0.0337071 0.0812752
4399 2 0.0900204 0.0532581 0.0246343
4401 4 0.114576 0.0534319 0.0293457
1566 4 0.120963 0.0476406 0.0114981
1564 2 0.145235 0.0536125 0.0108875
1565 4 0.169507 0.0595845 0.0102769
1531 2 0.35471 0.0614141 0.0206106
2638 2 0.396172 0.0298715 0.0651712
1533 4 0.364645 0.0475971 0.0389294
2639 4 0.377772 0.0357886 0.0493095
1532 4 0.344775 0.0752311 0.0022918
2640 4 0.414573 0.0239544 0.0810328
2522 4 0.431594 0.0291705 0.0227119
55 3 0.438906 0.0797981 0.0314076
51 1 0.444097 0.0620455 0.0446945
52 3 0.466677 0.0578808 0.0432954
3291 4 0.480347 0.0587368 0.0578092
53 3 0.432543 0.0432106 0.0376129
419 4 0.452166 0.996186 0.0566028
54 3 0.438703 0.0668206 0.0667513
3289 2 0.500283 0.0721115 0.0647981
1232 4 0.0537627 0.118912 0.0186196
699 4 0.192144 0.15126 0.0539347
697 2 0.198682 0.138997 0.0747206
1125 4 0.22396 0.105018 0.0473631
1123 2 0.2387 0.0969679 0.0288397
1124 4 0.253439 0.0889182 0.0103163
2400 4 0.392752 0.134034 0.05751
2398 2 0.404349 0.127804 0.0362529
671 4 0.4036 0.154998 0.0794206
2399 4 0.415946 0.121575 0.0149958
2517 4 0.413026 0.102968 0.00861627
1785 4 0.0830648 0.195002 0.074026
3633 4 0.00391783 0.229365 0.0127764
1784 4 0.113615 0.212241 0.0383848
1783 2 0.0983401 0.203621 0.0562054
933 4 0.129438 0.221951 0.0296868
931 2 0.14944 0.220081 0.0147994
932 4 0.169442 0.21821 0.999912
1254 4 0.182476 0.213521 0.016467
1252 2 0.204114 0.217464 0.0283602
1253 4 0.225751 0.221408 0.0402535
294 4 0.24409 0.216424 0.0496133
292 2 0.261236 0.223386 0.0327985
293 4 0.278382 0.230348 0.0159838
670 2 0.414342 0.176587 0.0728088
672 4 0.425083 0.198176 0.0661971
3100 2 0.446699 0.231211 0.073112
3101 4 0.43421 0.210182 0.0783071
2229 4 0.154985 0.337576 0.997042
2788 2 0.21896 0.313271 0.0140248
2789 4 0.243637 0.314893 0.0103376
2790 4 0.194283 0.311648 0.0177121
1586 4 0.385166 0.281466 0.0380464
702 4 0.381711 0.29794 0.0257611
700 2 0.375751 0.291428 0.00236779
1585 2 0.380594 0.273054 0.0611443
1587 4 0.376021 0.264643 0.0842422
2854 2 0.44846 0.320253 0.00488542
2856 4 0.467245 0.30433 0.00921537
3102 4 0.459188 0.25224 0.067917
1672 2 0.0221909 0.402138 0.999026
4187 4 0.00777759 0.396196 0.028426
4186 2 0.00379107 0.387387 0.0514841
1674 4 0.00501767 0.409934 0.0154416
2227 2 0.161963 0.338276 0.0210426
2228 4 0.168941 0.338977 0.0450428
2453 4 0.186714 0.329165 0.0495088
2452 2 0.205945 0.340742 0.0605225
2454 4 0.225177 0.35232 0.0715361
324 4 0.235765 0.369256 0.0749188
2449 2 0.366705 0.384056 0.0608162
2450 4 0.380324 0.376423 0.041285
537 4 0.378819 0.39627 0.0110713
2855 4 0.429675 0.336176 0.000555466
1069 2 0.484434 0.405703 0.0199443
4366 2 0.0163953 0.441763 0.0489167
4367 4 0.0408791 0.440286 0.0537674
1664 4 0.0588688 0.432557 0.0566712
1663 2 0.0801584 0.44318 0.0643579
1665 4 0.101448 0.453803 0.0720446
1559 4 0.105803 0.472474 0.0692366
1558 2 0.129133 0.470721 0.0604167
1560 4 0.152464 0.468968 0.0515968
1774 2 0.216548 0.485403 0.0585702
1775 4 0.210273 0.490729 0.0349599
1776 4 0.222824 0.480078 0.0821805
167 3 0.193033 0.500621 0.0372675
3646 2 0.323105 0.489841 0.0728624
1236 4 0.30886 0.484469 0.0137849
3648 4 0.334584 0.492299 0.0507854
132 3 0.412322 0.420959 0.0276189
1234 2 0.330024 0.471339 0.0115722
4404 4 0.352305 0.487903 0.0575058
4402 2 0.372761 0.494064 0.0445145
1235 4 0.351187 0.458209 0.00935951
134 3 0.429032 0.453429 0.0187235
131 1 0.431564 0.43333 0.0300377
135 3 0.435213 0.437277 0.0521679
133 3 0.449334 0.421388 0.0210915
1224 4 0.469201 0.444012 0.0184278
3258 4 0.427007 0.436268 0.0727081
1222 2 0.484917 0.463434 0.0194139
1070 4 0.468488 0.423935 0.013739
2470 2 0.063215 0.0898173 0.160843
834 4 0.079918 0.0412224 0.0959375
832 2 0.0971676 0.0592846 0.0947563
833 4 0.114417 0.0773469 0.0935751
312 4 0.231834 0.0246941 0.11382
310 2 0.233086 0.00530142 0.129554
3906 4 0.336871 0.00582907 0.160794
3781 2 0.41114 0.991392 0.144626
2714 4 0.427937 0.0262871 0.0960903
2713 2 0.450928 0.0351531 0.100329
2715 4 0.473919 0.0440191 0.104568
476 4 0.492751 0.051832 0.107323
3782 4 0.435848 0.993511 0.141421
1038 4 0.449652 0.00371642 0.152372
2673 4 0.0279364 0.154202 0.111893
2671 2 0.0230143 0.134333 0.126251
2672 4 0.0180922 0.114463 0.140609
2472 4 0.0844701 0.0937764 0.148284
765 4 0.113555 0.0977253 0.0951785
763 2 0.127466 0.111839 0.110424
764 4 0.141378 0.125954 0.12567
3504 4 0.156772 0.119196 0.136562
558 4 0.0960969 0.102408 0.162866
698 4 0.205221 0.126734 0.0955065
3502 2 0.178915 0.113721 0.146802
3503 4 0.201059 0.108245 0.157043
732 4 0.214263 0.0989779 0.115722
730 2 0.231891 0.112131 0.127614
731 4 0.249519 0.125284 0.139506
2596 2 0.286619 0.109618 0.1466
2598 4 0.263018 0.110739 0.13842
2597 4 0.31022 0.108497 0.154781
2944 2 0.460144 0.108365 0.123765
2945 4 0.480711 0.122213 0.120543
1497 4 0.493395 0.135558 0.11266
2946 4 0.439576 0.0945165 0.126988
2717 4 0.0638605 0.192025 0.0786715
2718 4 0.0254843 0.173247 0.10466
2716 2 0.0446724 0.182636 0.0916655
2768 4 0.117244 0.185577 0.137911
2767 2 0.120681 0.178148 0.161537
2820 4 0.358439 0.213296 0.102768
914 4 0.346991 0.174571 0.156468
913 2 0.353063 0.194194 0.170726
2818 2 0.365016 0.237413 0.103301
1765 2 0.0599328 0.261019 0.150158
2891 4 0.0435482 0.318633 0.0933826
2890 2 0.0437145 0.295675 0.103286
2892 4 0.0438807 0.272717 0.11319
1767 4 0.0562251 0.271571 0.127795
3209 4 0.0419395 0.331599 0.156007
2819 4 0.371593 0.26153 0.103834
3791 4 0.461877 0.289113 0.171379
1046 4 0.0410749 0.33659 0.103408
2556 4 0.0248473 0.341758 0.159188
1047 4 0.0690386 0.377389 0.110773
1045 2 0.0550568 0.35699 0.10709
2554 2 0.000994471 0.340477 0.166577
322 2 0.251229 0.381034 0.0906453
323 4 0.266693 0.392812 0.106372
3405 4 0.267761 0.388106 0.125703
3403 2 0.292514 0.389372 0.128999
3404 4 0.317267 0.390638 0.132294
2451 4 0.353087 0.391689 0.0803473
3657 4 0.33034 0.406777 0.135167
3655 2 0.344656 0.405165 0.11473
3656 4 0.358972 0.403553 0.0942941
101 1 0.406908 0.388682 0.168228
103 3 0.396207 0.407622 0.160155
104 3 0.391238 0.372523 0.173859
102 3 0.420635 0.380316 0.151774
1573 2 0.448695 0.391971 0.127463
1575 4 0.469014 0.405277 0.121523
1574 4 0.428377 0.378664 0.133403
1017 4 0.478205 0.414117 0.105892
387 4 0.00541342 0.459809 0.127181
385 2 0.00594058 0.438847 0.1408
1680 4 0.104578 0.479332 0.120666
1794 4 0.243073 0.485703 0.0829984
3647 4 0.311626 0.487383 0.0949394
1793 4 0.29241 0.483627 0.0908875
1792 2 0.267741 0.484665 0.086943
748 2 0.419126 0.44185 0.150165
749 4 0.411502 0.421832 0.163063
750 4 0.426749 0.461868 0.137266
3257 4 0.433053 0.455234 0.118582
3256 2 0.43003 0.445751 0.0956451
2471 4 0.04196 0.0858583 0.173403
1180 2 0.0212087 0.0308174 0.210288
1182 4 0.0256139 0.03956 0.233296
2858 4 0.0316258 0.0765765 0.187145
2857 2 0.0337351 0.0875317 0.209522
1181 4 0.0168034 0.0220748 0.187281
305 4 0.224601 0.069056 0.20789
2781 4 0.329368 0.0124807 0.177494
2779 2 0.33444 0.0170965 0.201539
2780 4 0.339512 0.0217123 0.225584
2546 4 0.354312 0.0349176 0.224845
2545 2 0.376328 0.0394088 0.235813
350 4 0.450687 0.0610585 0.234957
349 2 0.469073 0.0728747 0.222812
2664 4 0.0159388 0.154622 0.17798
2662 2 0.0322136 0.138839 0.188525
2663 4 0.0484884 0.123056 0.19907
2859 4 0.0358445 0.098487 0.231899
19 3 0.0372756 0.110957 0.24772
556 2 0.114948 0.113986 0.174518
557 4 0.1338 0.125564 0.18617
304 2 0.238955 0.0885456 0.214158
306 4 0.253309 0.108035 0.220426
761 4 0.263941 0.100817 0.236045
3992 4 0.391564 0.130255 0.180553
3991 2 0.409075 0.146552 0.187829
351 4 0.48746 0.0846908 0.210666
3993 4 0.426587 0.16285 0.195104
2477 4 0.052904 0.232968 0.175102
2478 4 0.0243995 0.201894 0.201985
2476 2 0.0386517 0.217431 0.188543
2759 4 0.0813516 0.16316 0.242723
2895 4 0.0111408 0.192015 0.192763
548 4 0.0985988 0.165589 0.233797
549 4 0.134549 0.177421 0.201113
2769 4 0.124118 0.17072 0.185163
547 2 0.116574 0.171505 0.217455
519 4 0.149296 0.238049 0.243081
2684 4 0.228027 0.248554 0.234215
915 4 0.359135 0.213816 0.184984
828 4 0.378357 0.210662 0.182951
826 2 0.399201 0.224472 0.182912
2670 4 0.445667 0.166078 0.200956
2668 2 0.452574 0.186822 0.188826
2634 4 0.479264 0.213552 0.178219
2669 4 0.459482 0.207567 0.176696
2632 2 0.494698 0.2217 0.196124
1766 4 0.0636405 0.250467 0.17252
615 4 0.0139801 0.280227 0.235955
613 2 0.00459003 0.260677 0.223511
2955 4 0.0725445 0.26713 0.203934
2953 2 0.0951921 0.275559 0.210355
2954 4 0.11784 0.283987 0.216777
266 4 0.13736 0.288062 0.213401
265 2 0.160638 0.297033 0.215082
267 4 0.183917 0.306004 0.216763
560 4 0.202448 0.315611 0.219407
559 2 0.225713 0.322969 0.213948
2683 2 0.249303 0.260284 0.240123
561 4 0.248977 0.330326 0.208489
827 4 0.420046 0.238281 0.182873
3792 4 0.423184 0.258256 0.17855
3790 2 0.442531 0.273685 0.174964
619 2 0.498675 0.323458 0.243322
621 4 0.492644 0.311944 0.221962
2705 4 0.0113039 0.413131 0.173912
3208 2 0.0611476 0.342344 0.167872
2706 4 0.0250828 0.372999 0.200374
3210 4 0.0803556 0.353089 0.179738
2704 2 0.0181933 0.393065 0.187143
3800 4 0.0875298 0.358284 0.198484
3799 2 0.100124 0.377957 0.207403
3801 4 0.112718 0.39763 0.216321
3608 4 0.131427 0.398254 0.222618
3455 4 0.321062 0.332534 0.194334
3454 2 0.342282 0.337911 0.206416
105 3 0.419457 0.394027 0.186466
3456 4 0.363502 0.343287 0.218498
288 4 0.375244 0.349911 0.235914
286 2 0.382795 0.373677 0.237749
287 4 0.390345 0.397443 0.239585
3819 4 0.466224 0.414253 0.214416
3817 2 0.488106 0.411527 0.20263
443 4 0.0120711 0.492094 0.230152
442 2 0.0368242 0.492875 0.233596
444 4 0.0615773 0.493656 0.23704
3607 2 0.137811 0.42021 0.2125
3609 4 0.144195 0.442167 0.202383
428 4 0.159594 0.453983 0.201675
427 2 0.180267 0.454968 0.187646
429 4 0.200941 0.455954 0.173616
3881 4 0.381659 0.456038 0.196579
4434 4 0.400281 0.448467 0.200112
3880 2 0.368069 0.438484 0.208083
3882 4 0.354478 0.42093 0.219587
1626 4 0.342847 0.412247 0.233557
2565 4 0.503905 0.492033 0.201282
4432 2 0.42457 0.452356 0.204595
4433 4 0.44886 0.456244 0.209078
2564 4 0.465972 0.459529 0.199
2563 2 0.484938 0.475781 0.200141
1428 4 0.0302916 0.032881 0.25151
1426 2 0.0504668 0.0406526 0.26407
1427 4 0.0706419 0.0484243 0.276629
704 4 0.0661348 0.0597717 0.291949
703 2 0.0897058 0.0639365 0.299178
705 4 0.113277 0.0681013 0.306407
1700 4 0.320227 0.0727171 0.330357
2644 2 0.329016 0.00336756 0.330601
1699 2 0.306437 0.0776563 0.310093
1701 4 0.292647 0.0825956 0.28983
2615 4 0.263206 0.0611544 0.315933
2547 4 0.398345 0.0439001 0.246782
4509 4 0.413531 0.0400753 0.259532
4507 2 0.411332 0.0235762 0.27819
3887 4 0.389342 0.0677157 0.31526
2642 4 0.38659 0.0616563 0.334167
4508 4 0.409134 0.00707715 0.296849
487 2 0.479814 0.0225064 0.331301
707 4 0.451454 0.00821075 0.31687
489 4 0.463519 0.0247773 0.312473
2758 2 0.0717161 0.150878 0.262255
17 3 0.0495909 0.12457 0.280517
16 1 0.04332 0.105417 0.269427
20 3 0.0608181 0.0908438 0.269142
2760 4 0.0620807 0.138596 0.281787
3479 4 0.00816111 0.0980146 0.271895
18 3 0.0252772 0.0959085 0.280493
743 4 0.124643 0.0840685 0.308202
742 2 0.144062 0.0996898 0.306184
744 4 0.163481 0.115311 0.304166
354 4 0.180918 0.113101 0.313162
352 2 0.205719 0.11321 0.316335
353 4 0.23052 0.113318 0.319507
2616 4 0.24505 0.105082 0.331473
762 4 0.280986 0.096088 0.282818
760 2 0.272463 0.0984527 0.259431
2614 2 0.254128 0.0831184 0.323703
3886 2 0.402416 0.0867084 0.305587
3888 4 0.415489 0.105701 0.295914
518 4 0.1591 0.227192 0.290901
517 2 0.154198 0.232621 0.266991
473 4 0.179118 0.213274 0.336557
1493 4 0.0845241 0.28786 0.286191
1492 2 0.0982642 0.307856 0.29224
1494 4 0.112004 0.327851 0.298288
2528 4 0.23574 0.328812 0.323938
3195 4 0.205274 0.302469 0.254116
3193 2 0.192257 0.323172 0.259323
2527 2 0.260273 0.331946 0.320263
2685 4 0.27058 0.272015 0.246031
372 4 0.32509 0.27789 0.306478
3206 4 0.285455 0.282215 0.255731
3205 2 0.301203 0.28677 0.27461
3207 4 0.316951 0.291326 0.293489
2529 4 0.284806 0.33508 0.316588
371 4 0.366458 0.256225 0.324369
370 2 0.345774 0.267058 0.315424
471 4 0.477755 0.262226 0.320722
1035 4 0.482037 0.250505 0.305414
1788 4 0.51141 0.318676 0.276357
247 2 0.0167951 0.35456 0.288258
249 4 0.0390689 0.363399 0.295395
872 4 0.0533184 0.365485 0.309326
871 2 0.0773695 0.366601 0.316071
2580 4 0.121502 0.343735 0.28874
2578 2 0.144724 0.350153 0.282051
873 4 0.101421 0.367717 0.322815
650 4 0.115473 0.364469 0.335634
2579 4 0.167945 0.356571 0.275361
3194 4 0.17924 0.343876 0.26453
2473 2 0.250702 0.396584 0.331882
2475 4 0.272372 0.392582 0.320068
3596 4 0.287094 0.386535 0.306634
3595 2 0.310022 0.395202 0.301696
291 4 0.40399 0.407891 0.251781
3597 4 0.33295 0.403868 0.296758
1625 4 0.343757 0.414286 0.283515
1624 2 0.343302 0.413267 0.258536
620 4 0.504705 0.334972 0.264682
289 2 0.426493 0.413511 0.261122
290 4 0.448995 0.419132 0.270463
2513 4 0.464105 0.406152 0.274748
1698 4 0.133005 0.419772 0.315921
1697 4 0.0844645 0.43109 0.319986
1696 2 0.108735 0.425431 0.317953
2622 4 0.140941 0.434459 0.305679
2620 2 0.161106 0.447766 0.299238
1472 4 0.202186 0.460317 0.287158
2621 4 0.181271 0.461073 0.292798
1471 2 0.224787 0.470401 0.290723
1473 4 0.247388 0.480484 0.294289
644 4 0.266023 0.477257 0.304725
643 2 0.283274 0.47157 0.287542
4001 4 0.31732 0.458155 0.262209
645 4 0.300524 0.465882 0.270359
4000 2 0.33967 0.466273 0.269939
4002 4 0.36202 0.474392 0.277668
596 4 0.380494 0.48675 0.27924
595 2 0.403325 0.496944 0.279158
2512 2 0.486204 0.4175 0.277586
1631 4 0.472326 0.463412 0.305185
1630 2 0.455903 0.480839 0.297989
1632 4 0.439481 0.498265 0.290794
1518 4 0.182029 0.0760017 0.358294
3852 4 0.328182 0.0736977 0.349838
2641 2 0.400997 0.0446853 0.345551
3850 2 0.341976 0.0586451 0.364271
2646 4 0.344021 0.0191903 0.342834
3851 4 0.35577 0.0435925 0.378705
488 4 0.496108 0.0202356 0.35013
2643 4 0.415403 0.0277143 0.356936
2943 4 0.425827 0.0429666 0.365028
2942 4 0.464436 0.0485655 0.396313
2941 2 0.445132 0.0457661 0.38067
2831 4 0.482779 0.0591223 0.392042
2830 2 0.501669 0.0659856 0.406916
2933 4 0.0135063 0.155541 0.370621
2934 4 0.054001 0.139647 0.345956
791 4 0.0700681 0.128843 0.342757
2932 2 0.0337536 0.147594 0.358289
790 2 0.0910912 0.125223 0.3558
1199 4 0.165342 0.084936 0.365842
1198 2 0.142146 0.0941436 0.364311
1200 4 0.11895 0.103351 0.362779
792 4 0.112114 0.121603 0.368843
1516 2 0.196875 0.0908361 0.371885
1517 4 0.211722 0.105671 0.385476
503 4 0.220321 0.123206 0.38104
502 2 0.241325 0.136483 0.378254
504 4 0.262328 0.14976 0.375468
677 4 0.315422 0.111163 0.347301
676 2 0.327394 0.133055 0.345683
678 4 0.339366 0.154946 0.344065
716 4 0.345709 0.157855 0.362102
803 4 0.152162 0.197006 0.388806
474 4 0.154327 0.185636 0.370058
953 4 0.092321 0.241346 0.383519
472 2 0.166722 0.199455 0.353308
802 2 0.167464 0.198818 0.408497
715 2 0.367132 0.162662 0.374066
717 4 0.388555 0.167469 0.386031
952 2 0.0741696 0.258316 0.380742
954 4 0.0560183 0.275286 0.377966
1397 4 0.112731 0.242388 0.385469
1396 2 0.134315 0.253676 0.379816
1398 4 0.155898 0.264963 0.374164
2613 4 0.161554 0.281961 0.385087
3058 2 0.186548 0.320476 0.349174
2611 2 0.183213 0.274701 0.395254
1210 2 0.241179 0.267177 0.40536
3060 4 0.175564 0.303539 0.33442
2569 2 0.228734 0.332973 0.394366
2570 4 0.245871 0.336067 0.412309
2571 4 0.211598 0.329879 0.376422
1212 4 0.262368 0.266709 0.392094
423 4 0.280482 0.27193 0.400852
421 2 0.301612 0.284865 0.397477
422 4 0.322743 0.297799 0.394102
2925 4 0.258975 0.319915 0.40594
260 4 0.34206 0.303054 0.392345
2486 4 0.380536 0.254504 0.337207
2485 2 0.403102 0.25546 0.347933
259 2 0.364136 0.29158 0.389861
261 4 0.386212 0.280105 0.387376
1193 4 0.401601 0.285872 0.377016
469 2 0.459109 0.266107 0.336922
1192 2 0.423253 0.288692 0.389199
2487 4 0.425669 0.256416 0.358658
470 4 0.440463 0.269989 0.353122
1150 2 0.474092 0.317568 0.390677
1194 4 0.444905 0.291512 0.401382
1151 4 0.455829 0.300846 0.387208
1152 4 0.492355 0.33429 0.394146
649 2 0.137501 0.374809 0.341378
651 4 0.15953 0.385149 0.347121
2474 4 0.229032 0.400586 0.343697
3059 4 0.197532 0.337413 0.363928
142 3 0.214205 0.387404 0.344695
145 3 0.178403 0.385575 0.355078
143 3 0.202073 0.357852 0.364499
144 3 0.205075 0.392023 0.380861
141 1 0.199764 0.380718 0.361306
2957 4 0.226984 0.39536 0.386735
2956 2 0.2517 0.398992 0.387772
2958 4 0.276417 0.402624 0.388809
3512 4 0.289654 0.401938 0.403651
3511 2 0.31338 0.408363 0.408232
2852 4 0.395633 0.352813 0.364399
2851 2 0.409092 0.369604 0.37713
3447 4 0.352373 0.406018 0.421911
3445 2 0.376495 0.410444 0.41704
2853 4 0.422551 0.386396 0.389862
768 4 0.437932 0.395248 0.383324
766 2 0.46249 0.39926 0.385773
767 4 0.487048 0.403273 0.388221
457 2 0.00366046 0.4303 0.340538
451 2 0.0624207 0.43937 0.342538
452 4 0.0428479 0.430048 0.354996
458 4 0.0259716 0.421929 0.348108
636 4 0.0615752 0.468175 0.39052
634 2 0.0588369 0.473039 0.414893
453 4 0.0819935 0.448691 0.330079
1752 4 0.111183 0.48464 0.336846
3687 4 0.0800754 0.473902 0.389114
3685 2 0.0984843 0.477893 0.372671
3686 4 0.116893 0.481885 0.356229
1977 4 0.227762 0.482688 0.416626
3446 4 0.400616 0.414871 0.412169
2156 4 0.499189 0.4194 0.384536
2920 2 0.489954 0.480762 0.417358
2922 4 0.47189 0.468476 0.405195
1642 2 0.433841 0.480985 0.414767
1643 4 0.453467 0.472164 0.40203
2194 2 0.0530864 0.00757488 0.45716
2196 4 0.0625044 0.0279391 0.468196
2499 4 0.992463 0.112676 0.423964
3437 4 0.308335 0.158641 0.437142
258 4 0.402511 0.135422 0.465163
256 2 0.418759 0.142352 0.447467
3079 2 0.474537 0.159406 0.436325
257 4 0.435006 0.149283 0.42977
3080 4 0.449913 0.158788 0.440624
3081 4 0.499161 0.160025 0.432026
3265 2 0.0416384 0.226738 0.461304
3267 4 0.0560833 0.219053 0.442398
332 4 0.0728735 0.208611 0.446542
3266 4 0.0271935 0.234423 0.480211
2750 4 0.0265847 0.224697 0.497946
331 2 0.0954109 0.219358 0.445212
333 4 0.117948 0.230105 0.443881
3050 4 0.135816 0.240007 0.442106
3374 4 0.247681 0.186404 0.453236
804 4 0.182767 0.200631 0.428187
513 4 0.19091 0.210062 0.443304
511 2 0.209666 0.194095 0.447599
512 4 0.228422 0.178128 0.451894
3375 4 0.290552 0.161349 0.447319
3373 2 0.269117 0.173876 0.450277
3436 2 0.327354 0.173591 0.443464
1009 2 0.275863 0.216484 0.498203
1010 4 0.291817 0.227708 0.48256
3438 4 0.346372 0.188542 0.449787
2456 4 0.382419 0.225109 0.454711
2455 2 0.384612 0.205529 0.439317
2457 4 0.386805 0.185948 0.423923
984 4 0.375533 0.229061 0.472498
3822 4 0.444183 0.235139 0.472994
3820 2 0.451171 0.214383 0.485059
3821 4 0.458159 0.193627 0.497123
2537 4 0.434641 0.237658 0.455989
3049 2 0.149699 0.257889 0.452722
2612 4 0.204872 0.267442 0.405421
3051 4 0.163582 0.27577 0.463338
1211 4 0.219989 0.267644 0.418626
2653 2 0.286799 0.321894 0.481394
2923 2 0.274706 0.32572 0.424488
983 4 0.350646 0.268799 0.489882
982 2 0.36309 0.24893 0.48119
2538 4 0.435535 0.287352 0.461506
2536 2 0.435088 0.262505 0.458748
2883 4 0.434559 0.333736 0.499326
2924 4 0.290437 0.331526 0.443035
3513 4 0.337106 0.414788 0.412814
2654 4 0.287755 0.317905 0.456729
4023 4 0.43949 0.327804 0.480546
2875 2 0.494108 0.368594 0.444061
4021 2 0.447721 0.345711 0.465158
4022 4 0.455952 0.363618 0.44977
2876 4 0.470725 0.364528 0.436195
3118 2 0.0845662 0.493659 0.462905
3119 4 0.0639709 0.495329 0.448826
635 4 0.0560986 0.477903 0.439265
2222 4 0.112947 0.413097 0.484147
4067 4 0.16491 0.466481 0.459716
4066 2 0.143129 0.478439 0.462504
4068 4 0.121348 0.490397 0.465293
4083 4 0.168347 0.459072 0.441771
1173 4 0.228669 0.467801 0.430095
4082 4 0.203721 0.428799 0.423523
4081 2 0.186034 0.443936 0.432647
1171 2 0.253078 0.463285 0.427099
1545 4 0.257735 0.464107 0.493173
3704 4 0.2922 0.447287 0.42828
3703 2 0.312612 0.459503 0.43598
3705 4 0.333024 0.47172 0.443681
1172 4 0.277488 0.458769 0.424104
3422 4 0.406715 0.416187 0.431922
1390 2 0.375249 0.479236 0.437263
1644 4 0.414216 0.489806 0.427504
1392 4 0.351866 0.470556 0.435504
1391 4 0.398632 0.487916 0.439022
3421 2 0.419979 0.422423 0.452179
3423 4 0.433243 0.428659 0.472436
3113 4 0.452564 0.432692 0.475256
3112 2 0.467163 0.446398 0.490229
4048 2 0.0511004 0.0723853 0.522812
4050 4 0.0674761 0.0572899 0.511448
721 2 0.0216923 0.011291 0.57582
1926 4 0.0851551 0.0515743 0.518327
1924 2 0.108203 0.0610044 0.520575
1925 4 0.131251 0.0704345 0.522823
216 1 0.154388 0.0807469 0.554662
220 3 0.14236 0.0796548 0.535354
4553 4 0.114632 0.0172 0.546545
217 3 0.141284 0.0898163 0.57125
4552 2 0.131167 0.00306491 0.558872
219 3 0.160971 0.0594497 0.561104
734 4 0.247995 0.00574373 0.58671
3712 2 0.269334 0.0814874 0.540434
888 4 0.297505 0.0493721 0.546036
886 2 0.318241 0.0397135 0.53594
3714 4 0.288033 0.066876 0.548312
735 4 0.295463 0.0187268 0.577823
733 2 0.271729 0.0122353 0.582267
887 4 0.338976 0.0300549 0.525843
3623 4 0.349914 0.0125905 0.526552
3622 2 0.373912 0.00663364 0.53027
3624 4 0.39791 0.000676787 0.533987
4049 4 0.0347247 0.0874806 0.534176
3087 4 0.0236661 0.0958388 0.549135
4283 4 0.232296 0.0875154 0.528537
4282 2 0.21279 0.0929472 0.543205
4284 4 0.193283 0.098379 0.557874
218 3 0.173033 0.0942207 0.551622
3713 4 0.250636 0.0960988 0.532556
3025 2 0.324877 0.161984 0.525905
3027 4 0.345256 0.147497 0.525752
2749 2 0.0393712 0.220619 0.519042
2751 4 0.0521578 0.216541 0.540139
4514 4 0.0683348 0.205511 0.534353
4513 2 0.0905379 0.215661 0.539754
1136 4 0.125654 0.209505 0.543606
4515 4 0.112741 0.225811 0.545155
1135 2 0.146755 0.199531 0.534638
1137 4 0.167856 0.189556 0.525671
797 4 0.182432 0.180931 0.536578
796 2 0.206637 0.186697 0.534111
798 4 0.230842 0.192464 0.531645
2121 4 0.233046 0.206534 0.54507
2119 2 0.255199 0.215442 0.552494
2120 4 0.277351 0.224349 0.559917
3235 2 0.335609 0.207408 0.579842
1011 4 0.25991 0.205261 0.513847
3026 4 0.304498 0.176471 0.526058
3237 4 0.345288 0.22891 0.571526
727 2 0.132244 0.298628 0.584264
729 4 0.123461 0.321647 0.580001
3434 4 0.121132 0.339856 0.569902
801 4 0.287301 0.3322 0.525279
799 2 0.309829 0.324878 0.533283
800 4 0.332357 0.317556 0.541287
2655 4 0.285842 0.325883 0.506059
1490 4 0.345113 0.326723 0.530144
1489 2 0.364132 0.31155 0.524382
1491 4 0.383151 0.296376 0.51862
2882 4 0.390147 0.312317 0.507662
2881 2 0.412353 0.323027 0.503494
3222 4 0.451326 0.284726 0.502221
3220 2 0.473264 0.279097 0.512816
3221 4 0.495202 0.273468 0.52341
3433 2 0.142511 0.351052 0.563358
2823 4 0.166469 0.408589 0.515566
3435 4 0.163889 0.362247 0.556814
2221 2 0.133741 0.418426 0.496968
2223 4 0.154535 0.423754 0.50979
2821 2 0.169967 0.387001 0.527684
2822 4 0.173466 0.365412 0.539802
3812 4 0.0314628 0.485823 0.527239
3707 4 0.168196 0.461014 0.561688
2679 4 0.163687 0.451722 0.579915
1007 4 0.100793 0.425945 0.583935
3706 2 0.186496 0.464437 0.544997
3708 4 0.204795 0.46786 0.528306
1544 4 0.223639 0.461268 0.529645
1543 2 0.240687 0.462687 0.511409
4316 4 0.341442 0.43013 0.575564
4317 4 0.387036 0.40959 0.575614
4315 2 0.364239 0.41986 0.575589
3114 4 0.481762 0.460104 0.505202
501 4 0.491684 0.446024 0.513056
722 4 0.0459602 0.0108454 0.581825
2019 4 0.0674978 0.00987672 0.584128
3031 2 0.00468687 0.0713736 0.653484
3033 4 0.0244111 0.0674812 0.66835
2017 2 0.0852966 0.0235234 0.595181
2018 4 0.103095 0.0371701 0.606235
689 4 0.109048 0.0525168 0.615852
688 2 0.131535 0.0633575 0.617266
690 4 0.154022 0.0741981 0.618679
1057 2 0.241439 0.0216205 0.625535
1059 4 0.24236 0.0324616 0.648047
1218 4 0.170104 0.0617269 0.618854
1216 2 0.188712 0.076988 0.612072
1058 4 0.240518 0.0107794 0.603022
1217 4 0.207321 0.0922492 0.60529
3146 4 0.249811 0.0475276 0.65597
1062 4 0.305085 0.0218855 0.594763
1060 2 0.325504 0.0155451 0.607726
3145 2 0.271445 0.0597595 0.658711
3147 4 0.29308 0.0719913 0.661453
1061 4 0.345923 0.00920464 0.62069
2202 4 0.361885 0.0047585 0.632528
2200 2 0.385226 0.0136728 0.633481
2201 4 0.408568 0.0225871 0.634433
2656 2 0.44567 0.032796 0.630793
962 4 0.485785 0.0460346 0.620973
2658 4 0.466492 0.0375096 0.617777
2657 4 0.424848 0.0280824 0.643808
4080 4 0.00304352 0.153894 0.644959
4078 2 0.0277359 0.155445 0.648577
4079 4 0.0524282 0.156996 0.652195
1308 4 0.0603949 0.173047 0.661016
960 4 0.124518 0.168251 0.645208
240 4 0.221691 0.0874733 0.61811
238 2 0.24573 0.0942201 0.616769
3314 4 0.266898 0.156662 0.630594
223 3 0.197286 0.162035 0.679693
1032 4 0.288691 0.103223 0.622154
239 4 0.269769 0.100967 0.615428
1030 2 0.308692 0.105825 0.607376
1031 4 0.328693 0.108426 0.592599
4354 2 0.33151 0.0907337 0.655151
4225 2 0.270754 0.143339 0.665651
726 4 0.295392 0.17027 0.663962
4226 4 0.293722 0.151194 0.659649
4356 4 0.309343 0.0846539 0.664991
4355 4 0.353677 0.0968134 0.645311
4137 4 0.33562 0.127501 0.594184
4135 2 0.339277 0.152037 0.591059
1197 4 0.370349 0.107308 0.640564
1195 2 0.388907 0.114294 0.655795
831 4 0.404839 0.169253 0.621158
1306 2 0.082915 0.172986 0.650153
1307 4 0.105435 0.172926 0.63929
958 2 0.142588 0.172386 0.628428
959 4 0.160659 0.176521 0.611648
3315 4 0.242605 0.188767 0.600932
3313 2 0.254752 0.172714 0.615763
3236 4 0.32593 0.185906 0.588157
2048 4 0.308 0.248079 0.648354
2047 2 0.330919 0.245898 0.658107
4136 4 0.342935 0.176573 0.587933
829 2 0.413475 0.189884 0.60998
830 4 0.422111 0.210516 0.598802
1203 4 0.397295 0.189541 0.66003
1130 4 0.00757418 0.281855 0.648221
728 4 0.141026 0.275608 0.588527
3323 4 0.155285 0.28314 0.601799
3322 2 0.16832 0.284025 0.623118
3324 4 0.181355 0.28491 0.644437
3008 4 0.192875 0.296171 0.656437
3007 2 0.215027 0.304564 0.648434
3009 4 0.237179 0.312958 0.640432
4214 4 0.24372 0.323829 0.624026
3116 4 0.300182 0.260536 0.635755
4213 2 0.260819 0.330478 0.607037
3115 2 0.289891 0.283262 0.634084
3117 4 0.2796 0.305989 0.632412
821 4 0.331857 0.323872 0.636034
3064 2 0.314487 0.325839 0.600634
3986 4 0.413973 0.313712 0.625032
3065 4 0.332673 0.319143 0.616433
820 2 0.334627 0.318515 0.6603
3985 2 0.433109 0.329323 0.621118
1238 4 0.111816 0.376326 0.663188
3066 4 0.296301 0.332534 0.584835
4215 4 0.277917 0.337126 0.590048
2309 4 0.253938 0.375431 0.638312
2308 2 0.260172 0.38797 0.617597
2310 4 0.266406 0.400509 0.596883
3330 4 0.28617 0.404358 0.601485
3328 2 0.307536 0.415892 0.595517
3987 4 0.452244 0.344933 0.617204
2845 2 0.448313 0.382586 0.616263
2847 4 0.446044 0.360429 0.627625
2846 4 0.450583 0.404743 0.6049
1008 4 0.0639799 0.454892 0.601473
3074 4 0.0575644 0.444656 0.61795
3075 4 0.00910519 0.433446 0.612778
3073 2 0.0333348 0.439051 0.615364
1006 2 0.0823866 0.440418 0.592704
2677 2 0.139766 0.445563 0.583793
2678 4 0.115846 0.439403 0.587672
3318 4 0.154434 0.50877 0.60174
3329 4 0.328902 0.427427 0.589549
929 4 0.39164 0.428209 0.584037
928 2 0.409495 0.435825 0.599796
930 4 0.42735 0.443442 0.615556
3353 4 0.445737 0.448055 0.608592
3352 2 0.469105 0.439161 0.608749
3354 4 0.492473 0.430266 0.608907
3413 4 0.0159122 0.069497 0.740406
2995 2 0.0548127 0.0761907 0.697113
2997 4 0.0371317 0.062926 0.685425
1259 4 0.0907469 0.0795564 0.711198
1085 4 0.157063 0.0655084 0.715151
1260 4 0.13737 0.0624739 0.717137
1258 2 0.114058 0.0710151 0.714167
1084 2 0.177048 0.0755988 0.726284
1086 4 0.197034 0.0856892 0.737417
2259 4 0.253973 0.0154195 0.721436
916 2 0.38608 0.0594951 0.713418
917 4 0.398184 0.0406867 0.702241
2271 4 0.444501 0.0327251 0.712269
2996 4 0.0724937 0.0894555 0.708801
4227 4 0.247787 0.135485 0.671652
222 3 0.200714 0.127699 0.664794
225 3 0.231303 0.146761 0.674482
221 1 0.209656 0.142407 0.680055
224 3 0.208689 0.132822 0.701164
1196 4 0.407464 0.121281 0.671027
918 4 0.373976 0.0783034 0.724594
3558 4 0.347807 0.163916 0.720646
4164 4 0.345878 0.122455 0.696778
4162 2 0.364287 0.109408 0.70755
4163 4 0.382696 0.0963604 0.718322
2317 2 0.413019 0.137659 0.704503
2319 4 0.405927 0.15432 0.721746
2318 4 0.42011 0.120999 0.68726
724 2 0.316957 0.176187 0.675147
2980 2 0.309742 0.222313 0.725125
2981 4 0.305719 0.233038 0.74735
3168 4 0.286068 0.237678 0.751203
2982 4 0.313765 0.211587 0.702899
725 4 0.338522 0.182103 0.686332
2049 4 0.353838 0.243717 0.667859
3556 2 0.354921 0.1876 0.724345
3557 4 0.362035 0.211283 0.728043
1202 4 0.355848 0.194511 0.687565
1201 2 0.376571 0.192026 0.673798
3751 2 0.414997 0.189377 0.742358
3753 4 0.401634 0.170492 0.732875
3752 4 0.428361 0.208263 0.751841
2535 4 0.01739 0.342313 0.673897
2741 4 0.0019554 0.331626 0.673258
3245 4 0.28972 0.306331 0.732142
815 4 0.307289 0.298437 0.732902
814 2 0.316305 0.311802 0.71379
816 4 0.325322 0.325167 0.694678
3244 2 0.276917 0.29081 0.746988
822 4 0.337397 0.313157 0.684565
2534 4 0.0665855 0.350943 0.676366
1239 4 0.082437 0.339615 0.680213
2533 2 0.0419877 0.346628 0.675132
1237 2 0.0971265 0.35797 0.671701
2587 2 0.0727248 0.50081 0.674043
1955 4 0.00410298 0.470694 0.69529
2588 4 0.0582593 0.48054 0.671793
2242 2 0.0356415 0.457587 0.688056
2243 4 0.0588338 0.462256 0.679962
2244 4 0.0124491 0.452917 0.696149
1053 4 0.0939189 0.498375 0.7227
1051 2 0.101435 0.481668 0.739717
1281 4 0.168641 0.44414 0.704131
1176 4 0.209666 0.483508 0.743245
1280 4 0.198724 0.468031 0.736146
1279 2 0.183682 0.456086 0.720139
1174 2 0.230958 0.482174 0.730205
1175 4 0.25225 0.480839 0.717165
882 4 0.270875 0.474025 0.714597
880 2 0.293914 0.480454 0.707311
881 4 0.316952 0.486884 0.700024
1065 4 0.0267444 0.0305477 0.749325
1063 2 0.0467636 0.0423026 0.758611
1064 4 0.0667828 0.0540574 0.767898
3197 4 0.0793449 0.0402046 0.762138
4498 2 0.058526 0.0724703 0.817194
4499 4 0.0768056 0.0726098 0.834254
3196 2 0.101197 0.0432357 0.773906
3198 4 0.123049 0.0462668 0.785673
3293 4 0.136403 0.0531242 0.77006
3292 2 0.159227 0.0447629 0.77592
88 3 0.208573 0.0849745 0.753417
3294 4 0.182051 0.0364016 0.78178
2032 2 0.226142 0.0752856 0.812081
2033 4 0.209431 0.086693 0.79739
2034 4 0.242852 0.0638783 0.826771