ITEM: TIMESTEP
1535000
ITEM: NUMBER OF ATOMS
4590
ITEM: BOX BOUNDS xy xz yz pp pp pp
-1.5997711999999993e+01 9.9985700000000008e+00 -5.9991419999999920e+00
-9.9985700000000008e+00 9.9985700000000008e+00 0.0000000000000000e+00
-9.9985700000000008e+00 9.9985700000000008e+00 0.0000000000000000e+00
ITEM: ATOMS id type xs ys zs
2551 2 0.025822 0.0166346 0.0561822
2553 4 0.0435066 0.0385159 0.0514119
971 4 0.0595058 0.0417516 0.0633218
970 2 0.0808682 0.0590168 0.0552455
972 4 0.102231 0.076282 0.0471692
1531 2 0.182342 0.0330891 0.0758642
1532 4 0.178761 0.00945642 0.06849
1403 4 0.26757 0.0521507 0.0138197
311 4 0.194458 0.00137459 0.0706749
1402 2 0.290669 0.068225 0.0195429
1036 2 0.336177 0.025605 0.0752004
1037 4 0.350966 0.0296152 0.0545965
418 2 0.379606 0.0513899 0.0332834
420 4 0.370479 0.0303842 0.0465482
419 4 0.388732 0.0723956 0.0200186
2854 2 0.0258766 0.11677 0.0396998
2856 4 0.000447401 0.106624 0.0442971
1256 4 0.113446 0.0873692 0.0318696
2855 4 0.0513057 0.126916 0.0351026
1125 4 0.0719098 0.135137 0.0319086
1123 2 0.0972368 0.146491 0.0358759
3941 4 0.0709441 0.161662 0.0754317
1124 4 0.122564 0.157845 0.0398433
698 4 0.121583 0.167233 0.0230237
52 3 0.192806 0.0858262 0.0607346
51 1 0.198046 0.0880341 0.0831695
1255 2 0.138523 0.0943146 0.0388169
1257 4 0.1636 0.10126 0.0457642
3270 4 0.17831 0.106131 0.0313346
3268 2 0.201327 0.122987 0.0270335
3269 4 0.224343 0.139844 0.0227325
2638 2 0.255062 0.100711 0.0794033
2640 4 0.273812 0.0935294 0.0677155
3837 4 0.216076 0.0915735 0.000110677
1404 4 0.313768 0.0842993 0.0252661
2523 4 0.332674 0.0957391 0.0234016
2521 2 0.355915 0.0912648 0.0225054
2522 4 0.379157 0.0867905 0.0216092
740 4 0.463263 0.116094 0.0374813
739 2 0.472287 0.114479 0.0144128
527 4 0.0342687 0.21412 0.0396835
526 2 0.054456 0.219821 0.0238317
3942 4 0.0389408 0.171656 0.0411422
3940 2 0.0549425 0.166659 0.058287
528 4 0.0746433 0.225523 0.00797985
366 4 0.0890399 0.174405 0.0712974
697 2 0.144937 0.184352 0.0225262
699 4 0.168291 0.20147 0.0220288
402 4 0.306448 0.18845 0.0792562
665 4 0.00922391 0.257899 0.039251
251 4 0.029703 0.270232 0.0345837
250 2 0.0547746 0.27367 0.0286315
2093 4 0.101398 0.313574 0.0375061
495 4 0.0992301 0.307067 0.0560227
252 4 0.0798461 0.277107 0.0226793
3006 4 0.0871457 0.27349 0.00401594
2092 2 0.0935987 0.331693 0.0264727
493 2 0.124383 0.308435 0.0593581
494 4 0.149535 0.309803 0.0626936
521 4 0.159516 0.315721 0.0454219
520 2 0.181287 0.308651 0.0433365
522 4 0.203058 0.301581 0.041251
4032 4 0.211443 0.287075 0.0458693
1071 4 0.221378 0.278628 0.00506224
4030 2 0.236502 0.292512 0.0527089
4031 4 0.26156 0.297948 0.0595484
330 4 0.282271 0.303266 0.0637801
328 2 0.307991 0.312305 0.0600282
329 4 0.333712 0.321345 0.0562764
911 4 0.354522 0.326546 0.0585849
910 2 0.379082 0.325556 0.0560679
912 4 0.403642 0.324567 0.0535509
357 4 0.424663 0.33205 0.054117
1047 4 0.489946 0.329182 0.070364
1224 4 0.00803632 0.382279 0.0125237
1222 2 0.0322002 0.387128 0.0217947
1223 4 0.0563641 0.391976 0.0310657
1236 4 0.0740982 0.398711 0.0199823
1234 2 0.0870421 0.382388 0.0136227
1235 4 0.0999859 0.366065 0.0072632
2094 4 0.0857999 0.349811 0.0154393
2583 4 0.236869 0.418071 0.0771369
3140 4 0.290313 0.415089 0.0676738
4548 4 0.292858 0.401583 0.0560863
4546 2 0.311805 0.404411 0.039068
4547 4 0.330753 0.407239 0.0220497
3338 4 0.349433 0.405939 0.0156711
2452 2 0.342593 0.363434 0.0717209
2453 4 0.364235 0.373299 0.0583477
3337 2 0.343797 0.386424 4.01807e-05
2229 4 0.380157 0.37308 0.043959
2227 2 0.392045 0.373497 0.0218986
2228 4 0.403933 0.373914 0.999838
355 2 0.449916 0.334896 0.0587845
356 4 0.475168 0.337742 0.0634521
1665 4 0.125281 0.499125 0.0704141
4533 4 0.0602652 0.420818 0.0684518
4531 2 0.0753222 0.422864 0.0481445
4532 4 0.0903792 0.42491 0.0278372
3656 4 0.111938 0.432319 0.0262558
3655 2 0.13525 0.440239 0.0373971
3089 4 0.157706 0.418684 0.0108575
3088 2 0.18338 0.425284 0.0153544
3657 4 0.158562 0.448159 0.0485385
3404 4 0.162021 0.439248 0.0672359
3090 4 0.209054 0.431885 0.0198513
2581 2 0.229116 0.421311 0.0539303
2582 4 0.221363 0.424552 0.0307236
2660 4 0.445586 0.48487 0.0425068
2659 2 0.445652 0.465977 0.0578472
2661 4 0.445719 0.447084 0.0731876
3277 2 0.0139617 0.0522811 0.148781
3279 4 0.03904 0.0525819 0.149608
477 4 0.0502882 0.0439373 0.139805
475 2 0.0754622 0.0567378 0.137314
476 4 0.100636 0.0695383 0.134823
2715 4 0.118067 0.08273 0.124953
2713 2 0.138893 0.0801929 0.112593
2464 2 0.133972 0.0175013 0.11572
2466 4 0.116418 0.999341 0.103521
1533 4 0.185924 0.0567217 0.0832384
2465 4 0.151526 0.0356618 0.12792
2714 4 0.159718 0.0776558 0.100234
54 3 0.204374 0.0694261 0.0902612
2470 2 0.263687 0.0725679 0.161028
3783 4 0.276362 0.0150073 0.145786
3905 4 0.265413 0.999732 0.158203
3781 2 0.289968 0.0185006 0.124448
3782 4 0.303575 0.0219939 0.103111
1038 4 0.321388 0.0215947 0.0958042
2472 4 0.287916 0.0731137 0.154264
53 3 0.178472 0.0895286 0.0947995
55 3 0.216041 0.106886 0.0864879
2639 4 0.236312 0.107892 0.091091
834 4 0.301486 0.0914093 0.148509
401 4 0.33326 0.156797 0.092694
2597 4 0.331625 0.144306 0.10789
2596 2 0.3531 0.155072 0.121172
832 2 0.325404 0.0938791 0.157561
2598 4 0.374576 0.165837 0.134453
833 4 0.349321 0.0963488 0.166612
3502 2 0.444295 0.154336 0.163876
2911 2 0.00491593 0.241692 0.135635
530 4 0.0740629 0.214896 0.157689
2802 4 0.0614916 0.196016 0.159858
14 3 0.0708613 0.244918 0.126236
2912 4 0.0294367 0.246449 0.143956
364 2 0.0960429 0.184764 0.0937181
529 2 0.0931655 0.20883 0.145417
531 4 0.112268 0.202763 0.133144
365 4 0.103046 0.195124 0.116139
3522 4 0.312775 0.227591 0.134481
3520 2 0.313241 0.216014 0.112673
3521 4 0.313708 0.204436 0.0908643
400 2 0.319854 0.172624 0.0859751
731 4 0.388406 0.169753 0.119505
730 2 0.411964 0.175908 0.130271
732 4 0.435523 0.182063 0.141036
3503 4 0.449517 0.176523 0.152435
15 3 0.0467667 0.250675 0.153026
13 3 0.0655723 0.279276 0.130775
11 1 0.0669349 0.260057 0.141647
12 3 0.0852679 0.265655 0.156495
272 4 0.206089 0.32394 0.140976
2782 2 0.342662 0.32681 0.134711
2783 4 0.347773 0.314166 0.154357
3408 4 0.35131 0.297831 0.163766
3406 2 0.377155 0.307671 0.165827
3407 4 0.403001 0.317511 0.167887
2951 4 0.0653965 0.359691 0.12683
2950 2 0.0850054 0.364687 0.14333
2952 4 0.104614 0.369684 0.159831
813 4 0.122409 0.377737 0.151349
811 2 0.144259 0.371374 0.146854
812 4 0.166109 0.36501 0.14236
3405 4 0.171646 0.408252 0.101614
271 2 0.231714 0.333225 0.136814
107 3 0.252474 0.380716 0.143009
273 4 0.25734 0.342511 0.132652
3139 2 0.297101 0.412408 0.091345
108 3 0.287676 0.405745 0.147402
323 4 0.275345 0.356095 0.138413
106 1 0.27229 0.386448 0.156001
110 3 0.282329 0.369439 0.155697
2454 4 0.32095 0.353568 0.0850941
322 2 0.28943 0.353122 0.118613
1760 4 0.323281 0.414536 0.124112
324 4 0.303515 0.350149 0.0988136
3141 4 0.30389 0.409726 0.115016
2691 4 0.303127 0.376526 0.161669
2689 2 0.328634 0.380709 0.157248
2784 4 0.33755 0.339455 0.115064
2690 4 0.354141 0.384891 0.152828
3593 4 0.367275 0.376127 0.159777
3592 2 0.391603 0.390002 0.164877
1439 4 0.0181062 0.491817 0.149648
1663 2 0.116228 0.480296 0.0865091
1664 4 0.107174 0.461467 0.102604
4367 4 0.114608 0.463325 0.120142
4366 2 0.135516 0.459517 0.131296
3403 2 0.166833 0.42375 0.0844247
4368 4 0.156425 0.455708 0.14245
2813 4 0.227481 0.422252 0.0953567
2814 4 0.233453 0.42993 0.144635
2812 2 0.230467 0.426091 0.119996
1759 2 0.348396 0.427558 0.1217
1761 4 0.373511 0.440581 0.119288
3213 4 0.389677 0.442648 0.108017
3211 2 0.410565 0.438779 0.0968791
3212 4 0.431453 0.434911 0.0857417
3498 4 0.00469702 0.0645196 0.202944
2664 4 0.0239015 0.0717393 0.209762
17 3 0.125106 0.0497574 0.218416
20 3 0.159072 0.0749954 0.226119
16 1 0.148995 0.0541588 0.217761
19 3 0.15588 0.0530107 0.195742
18 3 0.15535 0.0383246 0.230581
2859 4 0.174411 0.0608563 0.18659
3479 4 0.162976 0.0297713 0.247029
2949 4 0.162784 0.00740797 0.196778
743 4 0.17983 0.083102 0.224374
2471 4 0.239458 0.0720222 0.167792
2858 4 0.225194 0.0791247 0.175875
4026 4 0.182692 0.00885085 0.199625
2857 2 0.199803 0.0699905 0.181232
4024 2 0.208586 0.0187647 0.200879
2932 2 0.247791 0.075299 0.24878
4025 4 0.23448 0.0286785 0.202134
2934 4 0.272457 0.0810769 0.24066
1851 4 0.252323 0.0367137 0.212107
1849 2 0.277151 0.046265 0.21929
1850 4 0.301979 0.0558163 0.226473
4508 4 0.315977 0.0516014 0.239448
2662 2 0.0473689 0.0886855 0.209498
2663 4 0.0708362 0.105632 0.209234
2633 4 0.0901001 0.104462 0.213331
2632 2 0.115728 0.115704 0.211462
2634 4 0.141356 0.126947 0.209593
2669 4 0.157532 0.140983 0.200612
2668 2 0.183591 0.149556 0.200641
2670 4 0.209651 0.158129 0.200669
742 2 0.202233 0.0995996 0.231329
22 3 0.227828 0.157939 0.207946
744 4 0.224636 0.116097 0.238283
23 3 0.23657 0.134809 0.233082
21 1 0.244641 0.148157 0.214543
24 3 0.24891 0.135212 0.197097
25 3 0.264554 0.164427 0.21983
765 4 0.366952 0.101238 0.176556
763 2 0.392478 0.112721 0.174161
764 4 0.418004 0.124204 0.171765
3504 4 0.439072 0.13215 0.175317
2801 4 0.0155861 0.186045 0.183515
2800 2 0.0385388 0.19103 0.171687
2844 4 0.281663 0.169534 0.206818
2842 2 0.306164 0.168114 0.205485
2843 4 0.330666 0.166693 0.204151
2906 4 0.351879 0.174638 0.204123
2905 2 0.375706 0.19097 0.203666
2907 4 0.399533 0.207303 0.20321
2848 2 0.00874556 0.29028 0.187162
2850 4 0.0338161 0.301759 0.182092
2819 4 0.0558835 0.306612 0.180646
2818 2 0.0812347 0.317716 0.18477
2820 4 0.106586 0.32882 0.188894
3345 4 0.103403 0.274513 0.166976
3343 2 0.128908 0.282007 0.17228
3344 4 0.154414 0.289501 0.177585
338 4 0.13111 0.254155 0.247804
339 4 0.162854 0.279933 0.21231
569 4 0.174089 0.291032 0.17442
337 2 0.146982 0.267044 0.230057
570 4 0.221985 0.297391 0.193006
568 2 0.198037 0.294212 0.183713
3209 4 0.242321 0.306045 0.18865
3208 2 0.267684 0.314899 0.194237
3210 4 0.293046 0.323754 0.199825
3456 4 0.312019 0.33313 0.209666
2567 4 0.40753 0.321189 0.186466
2566 2 0.426101 0.328074 0.20394
3519 4 0.126612 0.336879 0.19052
3517 2 0.14733 0.337413 0.204743
3518 4 0.168047 0.337946 0.218966
1741 2 0.248978 0.373331 0.210069
1742 4 0.2397 0.374194 0.233166
109 3 0.266169 0.390206 0.177721
1743 4 0.258257 0.372467 0.186971
3454 2 0.33637 0.345831 0.216144
3455 4 0.36072 0.358533 0.222622
2514 4 0.376526 0.366065 0.234939
3594 4 0.415932 0.403877 0.169977
2568 4 0.444672 0.33496 0.221415
2555 4 0.463475 0.33595 0.213407
2554 2 0.48914 0.34486 0.209263
1583 4 0.0138669 0.493231 0.168954
4386 4 0.178956 0.497323 0.178464
1758 4 0.300116 0.438093 0.227722
1421 4 0.124155 0.0287763 0.286712
1420 2 0.111575 0.0108876 0.270802
3488 4 0.133184 0.0354315 0.303792
3487 2 0.130242 0.0195865 0.323049
3478 2 0.18825 0.0395959 0.252521
3480 4 0.213524 0.0494206 0.258014
2933 4 0.223126 0.0695211 0.2569
2547 4 0.294616 0.0132895 0.278401
4507 2 0.311712 0.0414936 0.262284
4509 4 0.307446 0.0313858 0.285121
3928 2 0.460562 0.0189068 0.292759
3929 4 0.465919 0.0346537 0.273347
3930 4 0.455204 0.00315984 0.312171
762 4 0.140788 0.158946 0.292742
760 2 0.158738 0.153719 0.278014
761 4 0.176689 0.148493 0.263286
306 4 0.1958 0.155525 0.253916
304 2 0.218671 0.153973 0.262757
305 4 0.241542 0.152421 0.271598
1701 4 0.257506 0.16056 0.28359
504 4 0.252044 0.157836 0.31792
717 4 0.268383 0.162327 0.32959
3252 4 0.104609 0.191796 0.284618
3250 2 0.124101 0.18389 0.293816
3251 4 0.143593 0.175983 0.303015
3205 2 0.221663 0.245407 0.312377
3206 4 0.198158 0.228653 0.314123
503 4 0.216531 0.180148 0.332802
1517 4 0.198636 0.184672 0.328275
502 2 0.234288 0.168992 0.325361
1699 2 0.283458 0.169351 0.285669
1700 4 0.30941 0.178143 0.287748
3852 4 0.324546 0.174661 0.276129
3850 2 0.349202 0.17367 0.277373
3888 4 0.384651 0.187657 0.290839
3851 4 0.373858 0.172679 0.278617
3886 2 0.406621 0.182769 0.29805
3887 4 0.428592 0.177881 0.30526
1192 2 0.0465048 0.308625 0.30191
1194 4 0.0479989 0.303383 0.326165
1193 4 0.0450106 0.313867 0.277655
2683 2 0.0969031 0.2914 0.329347
3792 4 0.0436003 0.330534 0.271026
1151 4 0.0275905 0.300336 0.32685
518 4 0.116147 0.275591 0.309312
2684 4 0.102559 0.285655 0.306159
517 2 0.12186 0.265044 0.288452
519 4 0.127574 0.254498 0.267592
372 4 0.255549 0.277498 0.322089
3207 4 0.245168 0.26216 0.310632
288 4 0.311997 0.297419 0.308846
286 2 0.331256 0.317387 0.31595
3791 4 0.00539053 0.352611 0.269208
3790 2 0.0244954 0.341572 0.270117
2473 2 0.0689458 0.4063 0.309163
2474 4 0.0589487 0.387384 0.293394
871 2 0.1934 0.359552 0.323619
248 4 0.249269 0.368096 0.248646
249 4 0.21172 0.361473 0.283174
872 4 0.204502 0.358149 0.301473
247 2 0.230494 0.364784 0.26591
287 4 0.350515 0.337354 0.323053
2512 2 0.392948 0.370099 0.254368
289 2 0.383887 0.361236 0.310302
291 4 0.366652 0.353027 0.32873
290 4 0.401122 0.369444 0.291874
2513 4 0.40937 0.374133 0.273798
2475 4 0.0789429 0.425216 0.324933
2548 2 0.118685 0.4761 0.319007
2550 4 0.0993888 0.454932 0.315918
444 4 0.0874907 0.445357 0.331017
2549 4 0.137982 0.497267 0.322096
1757 4 0.290207 0.416716 0.272795
1756 2 0.295162 0.427404 0.250259
2564 4 0.356568 0.49562 0.252444
3543 4 0.341269 0.458269 0.256258
3541 2 0.357519 0.455613 0.274354
3542 4 0.37377 0.452956 0.292451
1576 2 0.398286 0.465784 0.320213
1578 4 0.382801 0.44652 0.307568
4433 4 0.452883 0.496035 0.26152
1577 4 0.41377 0.485048 0.332859
2942 4 0.0213712 0.0526046 0.413383
2831 4 0.0310272 0.048837 0.397298
2830 2 0.0561303 0.0615543 0.39409
2832 4 0.0812333 0.0742717 0.390882
430 2 0.111262 0.0823038 0.378053
432 4 0.0865926 0.0686559 0.374101
3489 4 0.1273 0.00374156 0.342306
2776 2 0.294798 0.0795876 0.3881
2778 4 0.290698 0.0671209 0.409771
2910 4 0.296485 0.0505497 0.414809
575 4 0.00956625 0.154693 0.391734
791 4 0.0263745 0.153339 0.37986
790 2 0.0478416 0.148616 0.37096
792 4 0.0693086 0.143893 0.362061
1200 4 0.084299 0.148676 0.377321
1198 2 0.108695 0.156159 0.368459
1199 4 0.133091 0.163641 0.359597
431 4 0.135931 0.0959517 0.382005
939 4 0.197669 0.134517 0.387116
937 2 0.189906 0.153916 0.395139
898 2 0.24027 0.140501 0.399866
899 4 0.215335 0.130429 0.393267
900 4 0.265206 0.150574 0.406464
2777 4 0.298898 0.0920543 0.366429
676 2 0.335115 0.163633 0.374625
2615 4 0.362933 0.144924 0.365447
677 4 0.35589 0.155735 0.379834
2614 2 0.388532 0.154858 0.36931
2497 2 0.430394 0.145486 0.406659
2499 4 0.417287 0.1511 0.387297
2616 4 0.414131 0.164791 0.373173
2601 4 0.00489785 0.212682 0.343926
348 4 0.0252827 0.219756 0.347121
347 4 0.068047 0.205338 0.355805
346 2 0.0466648 0.212547 0.351463
600 4 0.0907273 0.211469 0.354004
598 2 0.116103 0.220165 0.359595
1398 4 0.0891745 0.244634 0.403452
599 4 0.141478 0.22886 0.365186
1211 4 0.161768 0.233165 0.369854
1518 4 0.151682 0.169223 0.349981
938 4 0.182144 0.173315 0.403162
1210 2 0.187735 0.239391 0.37224
1516 2 0.175159 0.176948 0.339128
423 4 0.234076 0.24876 0.371246
1212 4 0.213701 0.245617 0.374625
332 4 0.201849 0.178177 0.415593
258 4 0.278443 0.170643 0.407503
256 2 0.303158 0.175171 0.415194
715 2 0.2913 0.172552 0.340844
678 4 0.31434 0.17153 0.369416
716 4 0.314216 0.182777 0.352099
1150 2 0.0162444 0.309695 0.345215
1152 4 0.00489826 0.319054 0.36358
3059 4 0.0331496 0.26175 0.380191
3058 2 0.0575018 0.271246 0.371669
2528 4 0.0425695 0.263805 0.4015
2685 4 0.0912477 0.297145 0.352536
3060 4 0.081854 0.280743 0.363148
2613 4 0.0938494 0.265404 0.4017
2612 4 0.137111 0.285313 0.374979
2611 2 0.11548 0.275358 0.388339
370 2 0.248997 0.29554 0.334601
371 4 0.242446 0.313581 0.347113
421 2 0.259965 0.253369 0.373092
2487 4 0.298788 0.299751 0.413085
422 4 0.285853 0.257979 0.374938
2485 2 0.313695 0.306895 0.392806
260 4 0.305932 0.267491 0.370824
2486 4 0.328602 0.31404 0.372527
259 2 0.326008 0.273091 0.354842
261 4 0.346083 0.27869 0.338859
1697 4 0.461494 0.323465 0.350045
4299 4 0.502219 0.299498 0.371711
2901 4 0.492737 0.285373 0.358457
2571 4 0.0340893 0.410496 0.393904
142 3 0.0451927 0.384285 0.365617
144 3 0.034015 0.370811 0.399971
143 3 0.0530602 0.407639 0.395054
2957 4 0.0210504 0.36313 0.415624
3596 4 0.089155 0.373824 0.391122
145 3 0.0720627 0.381601 0.390512
141 1 0.0512251 0.386064 0.387882
3595 2 0.109847 0.391015 0.381722
3597 4 0.130538 0.408206 0.372322
649 2 0.161267 0.390372 0.356303
651 4 0.148113 0.40426 0.367803
650 4 0.174422 0.376483 0.344803
873 4 0.182298 0.360954 0.345765
2852 4 0.202314 0.41208 0.407933
2851 2 0.220153 0.399506 0.407702
2853 4 0.237992 0.386933 0.407471
1696 2 0.485987 0.336519 0.355647
3687 4 0.045167 0.49431 0.374382
636 4 0.0323195 0.499945 0.388108
443 4 0.0484836 0.442077 0.363331
2569 2 0.0320294 0.430691 0.406209
634 2 0.018754 0.488863 0.408046
768 4 0.124215 0.461182 0.392434
442 2 0.0679872 0.443717 0.347174
766 2 0.118843 0.474979 0.410992
1430 4 0.286794 0.479052 0.394554
1429 2 0.301799 0.481281 0.37419
1431 4 0.316804 0.48351 0.353826
314 4 0.331622 0.499697 0.34745
1143 4 0.271847 0.0666608 0.468517
2908 2 0.285926 0.0508178 0.437434
2909 4 0.275367 0.0510859 0.460059
299 4 0.496219 0.00189919 0.455815
3157 2 0.198534 0.0867011 0.491572
3158 4 0.175108 0.0894431 0.486125
1141 2 0.270847 0.0822339 0.487238
2628 4 0.279932 0.157661 0.475033
2627 4 0.272157 0.119407 0.443038
2626 2 0.276045 0.138534 0.459036
2115 4 0.296308 0.161849 0.489024
3159 4 0.22196 0.0839592 0.497019
2498 4 0.443502 0.139872 0.42602
954 4 0.0252104 0.239888 0.477995
952 2 0.026334 0.226938 0.457202
1397 4 0.0478056 0.219399 0.430316
953 4 0.0274576 0.213987 0.436408
3222 4 0.024956 0.240276 0.498974
1396 2 0.06849 0.232017 0.416884
331 2 0.224686 0.192719 0.424104
3050 4 0.269087 0.210366 0.439204
333 4 0.247523 0.207261 0.432615
3049 2 0.29131 0.210584 0.450787
3051 4 0.313533 0.210801 0.46237
257 4 0.327872 0.179699 0.422886
1010 4 0.333328 0.220843 0.467121
1009 2 0.359017 0.228766 0.462768
3080 4 0.345516 0.184047 0.43231
1011 4 0.384706 0.23669 0.458415
3079 2 0.371264 0.190776 0.428206
983 4 0.403437 0.250274 0.456764
3081 4 0.397012 0.197505 0.424103
384 4 0.410597 0.192795 0.434793
382 2 0.431655 0.197198 0.449498
383 4 0.452713 0.201601 0.464203
2727 4 0.456596 0.185819 0.472933
982 2 0.426428 0.249047 0.465598
2725 2 0.481203 0.185144 0.469903
2529 4 0.0082036 0.270859 0.434967
2653 2 0.00398565 0.26877 0.494395
2527 2 0.0253866 0.267332 0.418233
1034 4 0.213479 0.252267 0.471044
1033 2 0.238807 0.264837 0.472624
470 4 0.30658 0.28885 0.425705
1035 4 0.264135 0.277408 0.474204
469 2 0.293713 0.280874 0.446962
471 4 0.280846 0.272899 0.468219
2972 4 0.496302 0.308105 0.474148
984 4 0.449419 0.24782 0.474431
2456 4 0.470052 0.255259 0.468767
2455 2 0.493373 0.257565 0.47915
2956 2 0.0117726 0.37767 0.430714
3512 4 0.00824116 0.402434 0.463261
2958 4 0.00249472 0.39221 0.445804
3422 4 0.123141 0.411163 0.49394
3421 2 0.14771 0.409882 0.493021
3423 4 0.172279 0.408601 0.492103
3113 4 0.191745 0.40989 0.483997
2882 4 0.250352 0.374489 0.415725
2881 2 0.273349 0.382758 0.427382
2883 4 0.296346 0.391028 0.43904
4021 2 0.333469 0.387836 0.448712
4023 4 0.310811 0.379803 0.436437
2876 4 0.373806 0.409247 0.454171
4022 4 0.356127 0.395869 0.460987
2875 2 0.391785 0.402561 0.467627
2877 4 0.409765 0.395875 0.481083
935 4 0.00103338 0.495579 0.434322
2570 4 0.0299695 0.450887 0.418515
2925 4 0.0122778 0.444897 0.430738
635 4 0.00518858 0.477782 0.427983
3511 2 0.0296355 0.418088 0.473328
3513 4 0.0510298 0.433741 0.483394
3446 4 0.108177 0.418156 0.498175
3119 4 0.115826 0.499464 0.487852
3120 4 0.114804 0.476143 0.444022
767 4 0.113471 0.488776 0.429549
3118 2 0.115315 0.487803 0.465937
3445 2 0.086389 0.425344 0.498582
3112 2 0.217628 0.41673 0.487233
3114 4 0.243511 0.42357 0.49047
4066 2 0.256876 0.476837 0.467939
4067 4 0.253939 0.495345 0.48245
1976 4 0.268714 0.463683 0.435349
4068 4 0.259813 0.458328 0.453429
1975 2 0.292394 0.463251 0.427728
501 4 0.263741 0.436647 0.492279
499 2 0.289343 0.442143 0.496884
2355 4 0.352516 0.427615 0.437507
2353 2 0.332595 0.435279 0.42898
2354 4 0.312673 0.442942 0.420453
1977 4 0.316074 0.462819 0.420107
3987 4 0.335393 0.451043 0.492948
500 4 0.314946 0.447639 0.501489
3985 2 0.359552 0.450018 0.498002
3468 4 0.168991 0.0636417 0.558569
3462 4 0.158478 0.0703701 0.544635
3466 2 0.194979 0.0686224 0.557936
3467 4 0.220967 0.0736031 0.557302
2132 4 0.208022 0.0126878 0.574417
1083 4 0.268551 0.00463035 0.547039
3154 2 0.1484 0.14166 0.518382
3461 4 0.15831 0.115968 0.529474
3155 4 0.150091 0.118957 0.51226
3460 2 0.158394 0.0931688 0.537054
3156 4 0.146708 0.164362 0.524504
1179 4 0.235995 0.0911362 0.554971
1177 2 0.255624 0.0999023 0.538866
1178 4 0.275253 0.108668 0.522761
2113 2 0.299921 0.160889 0.513703
1031 4 0.303649 0.161106 0.558428
1142 4 0.269848 0.097807 0.50596
2114 4 0.303534 0.159929 0.538382
1030 2 0.322853 0.151513 0.565177
1032 4 0.342057 0.141921 0.571925
1217 4 0.489056 0.164734 0.575049
3220 2 0.045568 0.23847 0.512181
3221 4 0.06618 0.236665 0.525389
3161 4 0.0841346 0.250046 0.530113
1136 4 0.135747 0.196755 0.562885
1135 2 0.141556 0.2187 0.574843
4515 4 0.153278 0.193589 0.554084
4513 2 0.177899 0.196876 0.546615
2749 2 0.238364 0.233837 0.551928
4514 4 0.202519 0.200163 0.539145
2751 4 0.216435 0.215773 0.546801
3266 4 0.274814 0.244055 0.564984
694 2 0.00402764 0.284371 0.56613
695 4 0.0296565 0.290266 0.570725
889 2 0.0587378 0.313605 0.576088
891 4 0.0830618 0.322525 0.567314
2655 4 0.0242341 0.281106 0.508508
3381 4 0.0952466 0.312988 0.577941
3160 2 0.105142 0.261246 0.543836
3162 4 0.12615 0.272445 0.55756
864 4 0.147314 0.280147 0.559273
3379 2 0.121024 0.323345 0.575952
862 2 0.172814 0.290466 0.563367
863 4 0.198314 0.300785 0.567462
3263 4 0.20914 0.287722 0.567167
3262 2 0.230794 0.289268 0.580349
2750 4 0.260294 0.251902 0.557055
3265 2 0.298259 0.253697 0.554506
3267 4 0.321705 0.26334 0.544028
335 4 0.263509 0.280654 0.581682
2222 4 0.426421 0.314396 0.549268
3694 2 0.031572 0.364031 0.508697
3695 4 0.00680168 0.350285 0.505536
3696 4 0.0563423 0.377776 0.511859
3380 4 0.146802 0.333702 0.573962
1186 2 0.433385 0.387597 0.510714
1188 4 0.447305 0.374829 0.522842
1187 4 0.419466 0.400365 0.498587
2221 2 0.444747 0.334175 0.558237
3873 4 0.45859 0.386814 0.535733
2223 4 0.463073 0.353953 0.567205
3871 2 0.479095 0.405275 0.543505
2823 4 0.482129 0.351901 0.564301
3813 4 0.0803416 0.462836 0.554061
3811 2 0.104778 0.474363 0.546833
3812 4 0.129214 0.48589 0.539604
3240 4 0.126361 0.426534 0.573965
3318 4 0.13847 0.497808 0.554847
3447 4 0.0646012 0.432532 0.49899
8 3 0.145919 0.424133 0.57326
10 3 0.178055 0.445101 0.555652
6 1 0.164676 0.443321 0.574373
9 3 0.156671 0.462 0.576442
1399 2 0.374395 0.45645 0.577929
1400 4 0.380092 0.449774 0.555096
3986 4 0.38371 0.448992 0.503055
2677 2 0.428817 0.468274 0.506342
3707 4 0.474533 0.477292 0.51405
2679 4 0.454586 0.47705 0.509928
2678 4 0.403047 0.459497 0.502757
3872 4 0.4996 0.423735 0.551277
3273 4 0.00975065 0.0695415 0.636496
1154 4 0.0826573 0.0240802 0.652794
2202 4 0.141873 0.0147817 0.653881
2200 2 0.166771 0.0277945 0.657773
2460 4 0.171984 0.0841909 0.654975
2131 2 0.216948 0.0348434 0.58578
2201 4 0.191668 0.0408073 0.661665
2314 2 0.220455 0.0799794 0.616102
2316 4 0.225225 0.0751671 0.592366
2133 4 0.225875 0.056999 0.597143
2657 4 0.212887 0.0460335 0.655727
2656 2 0.237614 0.0469295 0.650615
2658 4 0.262342 0.0478255 0.645502
962 4 0.2823 0.0477563 0.6449
961 2 0.308274 0.0542206 0.64729
963 4 0.334249 0.0606849 0.64968
1260 4 0.346473 0.0665836 0.665713
1258 2 0.372259 0.073018 0.66188
1259 4 0.398046 0.0794523 0.658047
4227 4 0.450712 0.0768711 0.648033
3032 4 0.461482 0.0791937 0.664226
3086 4 0.49793 0.0320027 0.664026
3271 2 0.00793479 0.0858571 0.618778
2317 2 0.0375751 0.123482 0.667762
2318 4 0.0303709 0.111303 0.646216
3272 4 0.00611893 0.102173 0.60106
2995 2 0.174491 0.154126 0.615075
2997 4 0.184221 0.135021 0.619672
3002 4 0.199021 0.134826 0.632135
3001 2 0.193946 0.115307 0.647742
3003 4 0.188872 0.095788 0.663348
2315 4 0.215686 0.0847917 0.639839
239 4 0.351474 0.143739 0.589767
238 2 0.377503 0.150932 0.591665
3237 4 0.335467 0.0914978 0.61395
3235 2 0.361561 0.0980214 0.613741
3236 4 0.387655 0.104545 0.613531
4136 4 0.391821 0.122477 0.604811
240 4 0.403533 0.158126 0.593564
4135 2 0.417628 0.129095 0.608546
4137 4 0.443434 0.135714 0.612281
4225 2 0.455464 0.0958477 0.631779
4226 4 0.460217 0.114824 0.615525
1218 4 0.471956 0.134256 0.613888
1216 2 0.480506 0.149495 0.594469
1085 4 0.0864993 0.176459 0.616832
1084 2 0.108188 0.186444 0.6301
1137 4 0.147364 0.240645 0.586801
1086 4 0.129877 0.196428 0.643369
1395 4 0.138311 0.179984 0.645469
797 4 0.161666 0.24505 0.600665
2996 4 0.164761 0.17323 0.610477
1393 2 0.161595 0.194095 0.653415
1394 4 0.184879 0.208207 0.661361
3011 4 0.194395 0.200662 0.646101
3010 2 0.21981 0.204248 0.65056
3012 4 0.245226 0.207833 0.65502
3123 4 0.264244 0.221058 0.652799
3121 2 0.288398 0.227115 0.643335
3122 4 0.312552 0.233172 0.63387
3143 4 0.331177 0.233323 0.625725
3142 2 0.356435 0.2365 0.620792
3144 4 0.381694 0.239677 0.615859
3581 4 0.400144 0.240955 0.607403
3580 2 0.417136 0.236192 0.623625
4328 4 0.434666 0.218332 0.654884
3582 4 0.434128 0.231429 0.639848
3359 4 0.43582 0.203821 0.641501
3360 4 0.419693 0.169633 0.60548
3358 2 0.427756 0.186727 0.62349
1167 4 0.00616649 0.308287 0.658107
3323 4 0.0247909 0.316396 0.649014
890 4 0.0344137 0.304686 0.584863
375 4 0.0587486 0.25523 0.6304
3322 2 0.0416644 0.310666 0.633308
3324 4 0.0585378 0.304935 0.617603
374 4 0.0210458 0.263183 0.659218
373 2 0.0398972 0.259207 0.644809
796 2 0.183205 0.258156 0.612642
893 4 0.194199 0.308708 0.661047
798 4 0.204743 0.271263 0.624618
2121 4 0.222692 0.283511 0.631431
2119 2 0.242967 0.280995 0.644719
3264 4 0.252448 0.290814 0.593532
334 2 0.284551 0.294244 0.594037
2120 4 0.263243 0.278479 0.658007
3117 4 0.282979 0.289171 0.666138
2048 4 0.340846 0.324711 0.644718
336 4 0.305594 0.307835 0.606392
3115 2 0.30799 0.302511 0.663724
3116 4 0.333002 0.315852 0.661309
2047 2 0.363965 0.320031 0.646081
2049 4 0.387084 0.31535 0.647443
4320 4 0.399089 0.304085 0.640071
4318 2 0.403805 0.281999 0.643031
4319 4 0.408522 0.259914 0.645991
2014 2 0.00568106 0.360217 0.643721
2016 4 0.0316429 0.367574 0.646323
2217 4 0.0525094 0.366635 0.648171
2535 4 0.152635 0.340229 0.59234
2533 2 0.178044 0.344338 0.587463
1334 4 0.185118 0.381525 0.654837
1333 2 0.210736 0.390211 0.659328
2534 4 0.203454 0.348447 0.582586
1335 4 0.236355 0.398897 0.663818
2846 4 0.271305 0.372173 0.611815
2845 2 0.291914 0.366004 0.620908
2847 4 0.312523 0.359835 0.630001
1815 4 0.331814 0.369054 0.625588
1813 2 0.347715 0.382229 0.643162
1814 4 0.363616 0.395403 0.660736
2588 4 0.438806 0.407864 0.649117
2243 4 0.420982 0.411984 0.658295
4130 4 0.0501756 0.499062 0.654524
4317 4 0.0165466 0.420466 0.615887
929 4 0.0310376 0.421126 0.629331
4129 2 0.0254411 0.496965 0.648223
4131 4 0.000706632 0.494868 0.641923
928 2 0.0559091 0.421574 0.625719
3238 2 0.10501 0.423083 0.588126
3239 4 0.083658 0.419632 0.602287
930 4 0.0807806 0.422021 0.622107
7 3 0.177935 0.44199 0.592835
2385 4 0.187335 0.437103 0.608451
2383 2 0.210412 0.432421 0.610426
2384 4 0.233489 0.427739 0.6124
3440 4 0.248225 0.441558 0.623155
3439 2 0.273143 0.444468 0.629364
3441 4 0.298061 0.447379 0.635574
2153 4 0.307697 0.445092 0.61873
2152 2 0.333269 0.447831 0.616463
2154 4 0.35884 0.45057 0.614195
1401 4 0.368698 0.463126 0.600762
2587 2 0.46476 0.417349 0.648017
1008 4 0.443946 0.477489 0.606789
1007 4 0.415578 0.441697 0.636936
1006 2 0.429762 0.459593 0.621862
2589 4 0.490714 0.426833 0.646917
1155 4 0.0418442 0.0128245 0.683981
1153 2 0.0622507 0.0184524 0.668387
3131 4 0.107906 0.0721664 0.681079
3130 2 0.104226 0.057256 0.701134
3132 4 0.100547 0.0423457 0.72119
978 4 0.156769 0.000262502 0.71252
2459 4 0.126418 0.0683391 0.679139
4287 4 0.107559 0.0314614 0.733305
4285 2 0.123843 0.018662 0.725796
2458 2 0.149201 0.076265 0.667057
4286 4 0.140127 0.00586253 0.718286
976 2 0.178786 0.0185482 0.71671
977 4 0.200802 0.036834 0.7209
2979 4 0.242223 0.0261428 0.714448
2977 2 0.262708 0.017588 0.709906
2978 4 0.283193 0.00903326 0.705363
843 4 0.299784 0.0251098 0.706516
841 2 0.321358 0.0175677 0.706183
842 4 0.342932 0.0100257 0.70585
2375 4 0.360683 0.0124985 0.694213
2374 2 0.384188 0.0104746 0.687913
2376 4 0.407694 0.00845068 0.681613
1128 4 0.427882 0.0178853 0.68602
3031 2 0.458415 0.0749755 0.688806
1126 2 0.452229 0.0211503 0.677745
89 3 0.478757 0.0578818 0.731714
3414 4 0.49614 0.0547275 0.722383
1127 4 0.476577 0.0244152 0.669469
3033 4 0.455349 0.0707573 0.713385
88 3 0.449096 0.0318625 0.748737
3557 4 0.0493851 0.141715 0.708037
2319 4 0.0447793 0.13566 0.689309
3556 2 0.069135 0.162067 0.713023
222 3 0.276499 0.139107 0.672647
223 3 0.28303 0.106122 0.68005
221 1 0.289015 0.128589 0.685798
225 3 0.283816 0.130816 0.70769
224 3 0.312658 0.13841 0.68211
726 4 0.333653 0.145021 0.68907
724 2 0.346119 0.127502 0.687022
725 4 0.358585 0.109983 0.684975
4164 4 0.379317 0.118702 0.685818
4162 2 0.402918 0.122393 0.696093
4163 4 0.426519 0.126083 0.706368
1196 4 0.441945 0.115852 0.706395
1195 2 0.466342 0.129051 0.700625
1197 4 0.490739 0.142249 0.694854
3558 4 0.0888849 0.182418 0.718008
4327 2 0.417888 0.208938 0.673379
515 4 0.406763 0.210326 0.708385
514 2 0.409598 0.197527 0.7288
4329 4 0.401109 0.199545 0.691874
516 4 0.412432 0.184728 0.749216
3056 4 0.0124003 0.265195 0.677307
892 2 0.217324 0.322815 0.66937
2289 4 0.252206 0.332307 0.691732
2287 2 0.26725 0.329342 0.710772
1020 4 0.30035 0.329425 0.739808
2288 4 0.282294 0.326376 0.729811
2740 2 0.0292355 0.41027 0.742062
2741 4 0.0535904 0.41024 0.736445
2742 4 0.00488057 0.410301 0.74768
2215 2 0.069112 0.371137 0.667466
1205 4 0.0640369 0.398882 0.743392
1204 2 0.0753773 0.390603 0.724272
1206 4 0.0867176 0.382324 0.705153
2216 4 0.0857146 0.375639 0.686762
894 4 0.240449 0.336922 0.677693
1271 4 0.256298 0.358383 0.704535
1270 2 0.263837 0.383346 0.703109
1272 4 0.271376 0.408309 0.701683
1018 2 0.323228 0.339136 0.728304
1019 4 0.346105 0.348848 0.716801
1111 2 0.436746 0.407489 0.724278
1113 4 0.440414 0.387918 0.736575
1905 4 0.458223 0.385936 0.728067