ITEM: TIMESTEP
1698500
ITEM: NUMBER OF ATOMS
4590
ITEM: BOX BOUNDS xy xz yz pp pp pp
-1.0598484200000001e+01 9.9985700000000008e+00 -5.9991420000000062e-01
-9.9985700000000008e+00 9.9985700000000008e+00 0.0000000000000000e+00
-9.9985700000000008e+00 9.9985700000000008e+00 0.0000000000000000e+00
ITEM: ATOMS id type xs ys zs
1246 2 0.0102284 0.047762 0.0162406
1247 4 0.0226196 0.0611504 0.0336242
3290 4 0.0545268 0.0702045 0.0801415
3289 2 0.068786 0.0776544 0.0608368
2552 4 0.0809386 0.0101212 0.0634918
2551 2 0.100416 0.0253326 0.0691517
2553 4 0.119892 0.0405441 0.0748117
971 4 0.21587 0.0470864 0.0409797
970 2 0.232248 0.0410445 0.0232463
2714 4 0.241678 0.0318529 0.0693915
53 3 0.243896 0.0221449 0.05105
972 4 0.248626 0.0350027 0.00551293
51 1 0.254489 0.00303073 0.0580043
1256 4 0.267113 0.0392019 0.01242
55 3 0.274935 0.00862062 0.0667334
1255 2 0.291252 0.0442587 0.017341
1257 4 0.315391 0.0493155 0.022262
2638 2 0.313538 0.0266673 0.0671272
2640 4 0.334403 0.0392077 0.0601884
2639 4 0.292673 0.0141269 0.074066
3270 4 0.36012 0.0763087 0.0372807
3268 2 0.376749 0.0664711 0.021725
3269 4 0.393378 0.0566334 0.00616934
418 2 0.39568 0.00948719 0.0377168
1037 4 0.406287 0.031042 0.0705545
419 4 0.394978 0.00387231 0.0133578
420 4 0.396382 0.0151021 0.0620758
2718 4 0.0546016 0.149655 0.0743647
3291 4 0.0830452 0.0851043 0.041532
2716 2 0.0665007 0.15925 0.0544071
3101 4 0.373476 0.157247 0.0253573
2856 4 0.412024 0.151541 0.0162368
2854 2 0.430913 0.138202 0.00756602
1123 2 0.488164 0.122634 0.999889
1125 4 0.465738 0.123265 0.0108866
2717 4 0.0783999 0.168845 0.0344495
1785 4 0.0803372 0.182248 0.0207658
1783 2 0.102729 0.189637 0.0118724
1784 4 0.12512 0.197027 0.00297896
931 2 0.169186 0.204713 0.00737797
932 4 0.194008 0.204731 0.0103988
933 4 0.144365 0.204695 0.0043571
510 4 0.223202 0.22993 0.0589148
508 2 0.242707 0.218537 0.0689877
509 4 0.262211 0.207143 0.0790606
302 4 0.281749 0.204259 0.0751935
1254 4 0.220687 0.226794 0.0397218
1252 2 0.219309 0.237103 0.0170047
301 2 0.300846 0.207594 0.0592817
303 4 0.319942 0.21093 0.0433698
623 4 0.321743 0.230903 0.0403047
622 2 0.339004 0.231257 0.0222079
624 4 0.356265 0.23161 0.00411109
3100 2 0.379052 0.167028 0.00296028
3470 4 0.443318 0.236168 0.0179382
866 4 0.444565 0.224328 0.00299473
3469 2 0.458158 0.246773 0.0353116
251 4 0.0152906 0.330449 0.020603
2093 4 0.124009 0.307821 0.00054892
495 4 0.110874 0.319298 0.010121
493 2 0.119504 0.322291 0.0334292
494 4 0.128134 0.325284 0.0567375
521 4 0.145496 0.31667 0.0521679
520 2 0.161736 0.305127 0.0668924
522 4 0.177976 0.293584 0.081617
4032 4 0.195932 0.30488 0.078134
4030 2 0.217434 0.293991 0.0726485
4031 4 0.238936 0.283101 0.067163
330 4 0.252582 0.291598 0.0555246
328 2 0.275554 0.29934 0.0624652
329 4 0.298525 0.307083 0.0694058
910 2 0.342563 0.299545 0.06949
911 4 0.318112 0.30328 0.0722994
912 4 0.367014 0.29581 0.0666807
357 4 0.385836 0.295272 0.0725909
355 2 0.409309 0.294023 0.0810103
3471 4 0.472998 0.257377 0.052685
3047 4 0.48801 0.265261 0.0640711
2228 4 0.495924 0.316979 0.0254687
2904 4 0.0371281 0.336736 0.0424603
2902 2 0.022695 0.341602 0.0621818
2903 4 0.0082618 0.346467 0.0819032
4188 4 0.0349781 0.383783 0.0152683
4186 2 0.0472061 0.405949 0.0156631
1222 2 0.198508 0.413857 0.0129518
1236 4 0.202008 0.353508 0.0591385
1223 4 0.173675 0.416109 0.0127512
1234 2 0.217244 0.367586 0.0447309
134 3 0.249359 0.380791 0.0166358
1235 4 0.23248 0.381663 0.0303234
131 1 0.253196 0.39891 0.00251953
1224 4 0.223341 0.411605 0.0131523
2803 2 0.345522 0.350368 0.0022903
2805 4 0.321347 0.344075 0.00548972
3339 4 0.389319 0.359514 0.00286828
3657 4 0.401402 0.410456 0.0514859
3404 4 0.389002 0.39209 0.0495952
3403 2 0.3846 0.37742 0.0694513
3337 2 0.410423 0.37155 0.0099441
3338 4 0.431526 0.383586 0.0170199
2454 4 0.428164 0.343068 0.0840314
2452 2 0.437862 0.343202 0.0609835
4547 4 0.449772 0.391962 0.0158847
2453 4 0.447561 0.343336 0.0379357
2227 2 0.478795 0.334661 0.0262978
4546 2 0.47255 0.40152 0.0211766
2229 4 0.461666 0.352342 0.027127
4548 4 0.495328 0.411078 0.0264685
4187 4 0.0594341 0.428115 0.016058
387 4 0.0287848 0.434492 0.0743323
133 3 0.242674 0.417532 0.0108155
3258 4 0.27323 0.460961 0.031764
3256 2 0.291026 0.448463 0.0435436
3257 4 0.308823 0.435965 0.0553232
3534 4 0.315342 0.437727 0.0739699
3532 2 0.3381 0.44628 0.0807315
3893 4 0.359401 0.469503 0.075121
3894 4 0.395643 0.49617 0.0520216
3892 2 0.377522 0.482836 0.0635713
3656 4 0.393108 0.456382 0.0687484
3655 2 0.397255 0.433419 0.0601172
3088 2 0.421668 0.448176 0.00667527
3090 4 0.442705 0.45545 0.0184579
2582 4 0.461589 0.458233 0.0105495
2581 2 0.478013 0.46061 0.0293142
2583 4 0.494438 0.462988 0.0480789
2886 4 0.0391043 0.0572446 0.0866903
2884 2 0.0244112 0.0762647 0.0922062
1495 2 0.0331601 0.0758827 0.161557
2945 4 0.064821 0.0682996 0.155046
475 2 0.244031 0.0616907 0.146638
476 4 0.25362 0.0651176 0.123759
2715 4 0.253396 0.0660496 0.104277
2713 2 0.247537 0.0489512 0.0868341
3905 4 0.301807 0.0112842 0.134874
3783 4 0.320438 0.0146404 0.128311
3781 2 0.344208 0.0135102 0.120741
3782 4 0.367978 0.01238 0.113171
1038 4 0.371555 0.0303905 0.106545
1036 2 0.388921 0.0307163 0.0885497
1496 4 0.0118434 0.0840699 0.151902
876 4 0.0144625 0.112737 0.0884696
2885 4 0.00971798 0.0952848 0.0977222
2673 4 0.0614805 0.150727 0.0930317
2671 2 0.0815831 0.146574 0.107131
2672 4 0.101686 0.14242 0.12123
2766 4 0.120162 0.143561 0.130699
2764 2 0.139978 0.142063 0.115584
2765 4 0.159795 0.140565 0.100469
914 4 0.307148 0.148237 0.120271
2633 4 0.499922 0.124745 0.163369
913 2 0.319883 0.167029 0.109139
915 4 0.332617 0.185821 0.0980077
828 4 0.348355 0.199512 0.0996684
826 2 0.36456 0.218785 0.102758
827 4 0.380764 0.238058 0.105847
558 4 0.456948 0.194042 0.165353
569 4 0.0976604 0.281149 0.130339
568 2 0.119335 0.293981 0.127644
570 4 0.14101 0.306813 0.124949
273 4 0.171609 0.250806 0.122128
2951 4 0.1601 0.310402 0.130892
2950 2 0.177173 0.317258 0.14803
271 2 0.190798 0.267218 0.124638
272 4 0.209986 0.28363 0.127147
2952 4 0.194245 0.324114 0.165168
2784 4 0.227058 0.277727 0.135536
2782 2 0.25202 0.279863 0.136372
2783 4 0.276982 0.281999 0.137208
3408 4 0.287472 0.293934 0.150659
3406 2 0.307273 0.298768 0.165338
356 4 0.432782 0.292773 0.0894297
1047 4 0.447423 0.306009 0.0835513
1045 2 0.472116 0.30812 0.0873107
1046 4 0.496808 0.310232 0.0910701
324 4 0.426492 0.332664 0.101197
323 4 0.385099 0.358707 0.107816
3405 4 0.380198 0.36275 0.0893074
322 2 0.405795 0.345685 0.104506
2689 2 0.48862 0.412608 0.151593
2690 4 0.497776 0.402044 0.131005
385 2 0.0131312 0.4267 0.092407
1573 2 0.219622 0.439864 0.150534
1575 4 0.233559 0.442225 0.129861
594 4 0.253362 0.494871 0.104381
1017 4 0.252006 0.44031 0.120543
1015 2 0.275231 0.442024 0.111313
1016 4 0.298457 0.443737 0.102082
3533 4 0.360858 0.454833 0.087493
435 4 0.344019 0.456645 0.1635
1584 4 0.3592 0.443055 0.158114
4532 4 0.397622 0.469863 0.0846
1582 2 0.380302 0.457108 0.158245
4533 4 0.422928 0.475224 0.127492
4531 2 0.410275 0.472543 0.106046
1583 4 0.401404 0.471162 0.158375
1439 4 0.441948 0.436282 0.156687
1438 2 0.456844 0.456799 0.156137
1440 4 0.47174 0.477316 0.155587
1745 4 0.491387 0.47273 0.153585
1497 4 0.0544768 0.0676955 0.171212
2944 2 0.0825536 0.0544699 0.165272
2946 4 0.100286 0.0406402 0.175498
350 4 0.1183 0.0433002 0.180024
2947 2 0.100019 0.00111758 0.211586
2949 4 0.119774 0.00995357 0.224518
3277 2 0.194366 0.0681345 0.178431
3278 4 0.172624 0.0753133 0.187995
349 2 0.135932 0.0598691 0.187579
351 4 0.153563 0.076438 0.195134
4024 2 0.162919 0.0202995 0.21901
4026 4 0.13801 0.0208481 0.220904
4025 4 0.187828 0.0197509 0.217117
3279 4 0.216109 0.0609557 0.168866
477 4 0.234442 0.0582639 0.169517
1851 4 0.208051 0.0149474 0.215502
1849 2 0.216344 0.0361446 0.226329
1850 4 0.224638 0.0573418 0.237156
2546 4 0.263407 0.00310126 0.227187
2545 2 0.286925 0.00496602 0.235628
4509 4 0.324385 0.0114338 0.228725
2547 4 0.310443 0.00683078 0.244068
4507 2 0.345008 0.0111174 0.242846
2769 4 0.223048 0.146882 0.20472
2767 2 0.223151 0.164835 0.222118
3497 4 0.332283 0.087441 0.206248
692 4 0.318423 0.15192 0.245649
3496 2 0.357181 0.0897739 0.204422
3498 4 0.382078 0.0921068 0.202597
2664 4 0.396519 0.105607 0.198351
2662 2 0.416126 0.121534 0.195986
2663 4 0.435734 0.13746 0.19362
557 4 0.445026 0.155223 0.194986
17 3 0.488282 0.127453 0.239615
16 1 0.499237 0.108018 0.243892
2768 4 0.223254 0.182787 0.239516
549 4 0.239539 0.196069 0.241594
556 2 0.450987 0.174633 0.18017
811 2 0.213056 0.323703 0.195382
813 4 0.21122 0.332106 0.171925
812 4 0.214892 0.3153 0.218839
248 4 0.266604 0.315885 0.244121
3209 4 0.280108 0.320459 0.229625
3407 4 0.327073 0.303601 0.180018
2567 4 0.339831 0.311824 0.193081
2566 2 0.363953 0.319154 0.193523
2637 4 0.435637 0.273608 0.246838
2568 4 0.388074 0.326483 0.193965
2635 2 0.454168 0.281942 0.231954
2636 4 0.4727 0.290276 0.217071
2962 2 0.476777 0.322717 0.199851
2963 4 0.486903 0.301161 0.206518
3208 2 0.294279 0.338699 0.219286
3210 4 0.30845 0.356939 0.208947
3456 4 0.320803 0.371689 0.208614
3454 2 0.34299 0.383821 0.209939
3455 4 0.365177 0.395954 0.211264
2555 4 0.399434 0.338847 0.181551
2554 2 0.424148 0.343408 0.182178
2556 4 0.448861 0.347969 0.182804
2514 4 0.464477 0.396646 0.231183
107 3 0.480625 0.400957 0.219297
2964 4 0.466651 0.344273 0.193184
110 3 0.492011 0.414994 0.186499
106 1 0.497464 0.412815 0.208487
3881 4 0.0258368 0.460066 0.212953
3800 4 0.0461463 0.462317 0.217655
3880 2 0.00372643 0.456057 0.201747
3799 2 0.0651157 0.447211 0.213211
2650 2 0.0978557 0.481505 0.177433
2651 4 0.106556 0.460973 0.188241
3801 4 0.0840851 0.432106 0.208766
750 4 0.122217 0.437529 0.216403
748 2 0.145197 0.446384 0.21085
749 4 0.168178 0.45524 0.205298
102 3 0.183604 0.45603 0.218286
103 3 0.205769 0.426723 0.223049
101 1 0.204251 0.44773 0.21343
104 3 0.206486 0.446164 0.190392
1574 4 0.205685 0.437502 0.171206
105 3 0.220476 0.461792 0.221866
1626 4 0.234662 0.465002 0.237313
3819 4 0.251388 0.473053 0.229391
3817 2 0.270919 0.470569 0.214073
3818 4 0.29045 0.468086 0.198755
434 4 0.301575 0.471724 0.184317
433 2 0.322797 0.464184 0.173908
2691 4 0.479465 0.423172 0.172181
3488 4 0.00223961 0.00238628 0.285697
3401 4 0.418017 0.998997 0.294179
4508 4 0.365631 0.0108011 0.256967
2932 2 0.416902 0.0687517 0.33199
2933 4 0.427432 0.0766885 0.31063
3480 4 0.442353 0.0804706 0.297395
2895 4 0.182921 0.13131 0.291916
2893 2 0.200674 0.11425 0.292641
279 4 0.276305 0.114154 0.268282
2894 4 0.218428 0.0971906 0.293365
278 4 0.232658 0.0915965 0.280346
277 2 0.254482 0.102875 0.274314
693 4 0.295011 0.111404 0.264793
691 2 0.306717 0.131662 0.255221
3478 2 0.453621 0.0884234 0.276412
3479 4 0.464889 0.0963762 0.25543
18 3 0.485174 0.0937256 0.256067
547 2 0.262423 0.198813 0.251478
548 4 0.285308 0.201558 0.261362
2760 4 0.326828 0.16641 0.256541
2759 4 0.301104 0.20517 0.273141
2758 2 0.313966 0.18579 0.264841
3206 4 0.0020692 0.272244 0.290598
3205 2 0.0268686 0.274311 0.293595
3207 4 0.0516679 0.276379 0.296592
372 4 0.0692165 0.279 0.30712
370 2 0.0926197 0.274438 0.314207
371 4 0.116023 0.269875 0.321294
2486 4 0.134748 0.278206 0.329427
249 4 0.23904 0.303665 0.284267
247 2 0.252822 0.309775 0.264194
871 2 0.244121 0.322233 0.31683
872 4 0.232037 0.317376 0.295404
288 4 0.332083 0.323778 0.293257
3975 4 0.420483 0.285081 0.253378
2900 4 0.402934 0.307527 0.30917
3974 4 0.396199 0.294622 0.295875
3973 2 0.408341 0.289851 0.274627
2899 2 0.417229 0.318954 0.326489
1462 2 0.451131 0.275543 0.322067
1464 4 0.459413 0.278922 0.298682
2474 4 0.180951 0.407247 0.306427
2473 2 0.205082 0.410674 0.312435
3595 2 0.260971 0.416147 0.31567
3597 4 0.28183 0.412806 0.32889
3596 4 0.240113 0.419487 0.30245
2475 4 0.229213 0.414102 0.318442
286 2 0.349642 0.341601 0.297467
287 4 0.367201 0.359424 0.301677
291 4 0.385384 0.359895 0.291896
289 2 0.407507 0.371678 0.288361
290 4 0.429629 0.38346 0.284827
2513 4 0.442301 0.376789 0.27169
2512 2 0.453389 0.386718 0.251437
2044 2 0.143958 0.492608 0.307951
2046 4 0.13975 0.471894 0.294413
3920 4 0.17096 0.497872 0.264724
1913 4 0.250945 0.474399 0.294145
1624 2 0.243313 0.461031 0.260389
1912 2 0.251527 0.469866 0.318724
1625 4 0.251964 0.457059 0.283465
443 4 0.483806 0.455859 0.32441
2943 4 0.196539 0.0540527 0.382091
2641 2 0.17994 0.0718781 0.347571
2643 4 0.195325 0.0583933 0.3615
2941 2 0.201497 0.0546544 0.406594
431 4 0.301289 0.0426656 0.406085
2934 4 0.406373 0.0608148 0.353351
2908 2 0.490194 0.0556508 0.405839
2910 4 0.473941 0.0361742 0.405235
2778 4 0.454337 0.0275189 0.409251
2642 4 0.164555 0.0853628 0.333641
473 4 0.210716 0.141829 0.378265
472 2 0.235033 0.146832 0.382281
474 4 0.25935 0.151835 0.386297
803 4 0.266543 0.158019 0.404102
791 4 0.416115 0.129569 0.401752
790 2 0.435022 0.125359 0.386093
792 4 0.453929 0.12115 0.370434
1200 4 0.469831 0.113827 0.379215
1198 2 0.493188 0.123162 0.376868
261 4 0.00211383 0.226957 0.369984
802 2 0.288824 0.170047 0.40429
804 4 0.311105 0.182074 0.404478
513 4 0.322422 0.172275 0.417387
2738 4 0.42653 0.231095 0.383296
506 4 0.494739 0.245228 0.345893
2543 4 0.443349 0.220738 0.380955
2542 2 0.465879 0.22099 0.391812
2544 4 0.488409 0.221242 0.402668
3071 4 0.497837 0.239526 0.405562
1033 2 0.127705 0.329294 0.407428
2485 2 0.153256 0.284047 0.345396
2487 4 0.171763 0.289888 0.361364
469 2 0.159494 0.287145 0.399576
470 4 0.173228 0.280705 0.379834
1035 4 0.145128 0.3131 0.413925
2838 4 0.27885 0.258135 0.35993
873 4 0.256204 0.32709 0.338256
650 4 0.268254 0.326678 0.355063
2836 2 0.289279 0.259573 0.382629
2837 4 0.299707 0.261011 0.405328
2737 2 0.426515 0.252575 0.370513
2739 4 0.4265 0.274054 0.357731
4298 4 0.431489 0.312126 0.399316
4297 2 0.43903 0.32243 0.377713
2973 4 0.415792 0.310858 0.412139
2901 4 0.431525 0.330381 0.343808
1463 4 0.44285 0.272164 0.345451
1034 4 0.110282 0.345488 0.40093
144 3 0.236907 0.387928 0.405986
141 1 0.253469 0.397048 0.392205
145 3 0.257953 0.382553 0.375343
651 4 0.262358 0.36557 0.385693
649 2 0.265306 0.346124 0.370378
143 3 0.272729 0.401653 0.404516
142 3 0.24608 0.416673 0.383241
2571 4 0.288375 0.408589 0.413364
2852 4 0.41865 0.374374 0.352027
2851 2 0.430878 0.380302 0.373118
2853 4 0.443106 0.38623 0.394209
4299 4 0.446572 0.332735 0.35611
768 4 0.462679 0.388092 0.399259
766 2 0.4598 0.411068 0.408454
3704 4 0.0575442 0.434089 0.373858
3703 2 0.0773684 0.4391 0.388453
1390 2 0.115373 0.478335 0.407482
1392 4 0.11469 0.453433 0.405233
3705 4 0.0971926 0.444111 0.403047
1914 4 0.252109 0.465333 0.343303
2501 4 0.269814 0.472582 0.395839
2500 2 0.270562 0.466257 0.371666
2502 4 0.271309 0.459933 0.347494
326 4 0.266404 0.487199 0.409649
2569 2 0.312303 0.416075 0.410662
2570 4 0.336231 0.423561 0.407959
2925 4 0.353964 0.431241 0.415546
3623 4 0.0781294 0.0545833 0.462598
3622 2 0.0704649 0.0781199 0.461525
2942 4 0.206455 0.0552561 0.431098
2831 4 0.217985 0.0630965 0.445588
2830 2 0.236371 0.0471117 0.449297
2832 4 0.254757 0.0311269 0.453006
432 4 0.268145 0.0421593 0.443541
430 2 0.284717 0.0424125 0.424813
2776 2 0.438093 0.0116976 0.420485
3722 4 0.490088 0.0287381 0.472392
298 2 0.462884 0.00332495 0.475745
299 4 0.474802 0.0236367 0.48495
3624 4 0.0628004 0.101656 0.460453
511 2 0.341405 0.15675 0.41982
512 4 0.360387 0.141225 0.422253
576 4 0.368194 0.136545 0.440187
574 2 0.391045 0.13711 0.430014
575 4 0.413896 0.137676 0.419841
3437 4 0.419445 0.158868 0.501679
3436 2 0.434897 0.147458 0.486009
3438 4 0.450348 0.136048 0.470339
3026 4 0.460147 0.126668 0.455828
3154 2 0.481596 0.10893 0.48874
3025 2 0.466116 0.145158 0.439891
2726 4 0.018686 0.170672 0.452984
3049 2 0.00479245 0.222021 0.454642
3051 4 0.0290839 0.223782 0.460521
1010 4 0.0485182 0.232514 0.458793
1009 2 0.0726315 0.233353 0.465444
1011 4 0.0967448 0.234192 0.472096
983 4 0.116751 0.236494 0.468464
982 2 0.140288 0.241716 0.475627
984 4 0.163824 0.246937 0.48279
2456 4 0.182229 0.2461 0.47665
1122 4 0.407353 0.184423 0.476071
1120 2 0.414324 0.201916 0.492733
3027 4 0.472085 0.163648 0.423954
471 4 0.14576 0.293584 0.419317
2455 2 0.205346 0.255306 0.472322
2457 4 0.228464 0.264511 0.467995
3822 4 0.246232 0.268788 0.459342
3820 2 0.270941 0.272514 0.456834
3821 4 0.29565 0.276241 0.454327
807 4 0.31365 0.283654 0.45364
805 2 0.337359 0.292262 0.452561
806 4 0.361068 0.300869 0.451483
2971 2 0.39614 0.302724 0.425642
2972 4 0.376488 0.29459 0.439146
3990 4 0.148443 0.380844 0.42759
3695 4 0.163925 0.377074 0.479903
3989 4 0.171502 0.362454 0.467653
3988 2 0.159973 0.371649 0.447621
2957 4 0.228351 0.382298 0.422939
2956 2 0.236012 0.37453 0.445356
2958 4 0.243673 0.366763 0.467773
3512 4 0.253573 0.379683 0.478542
3511 2 0.273839 0.390032 0.489491
3447 4 0.311551 0.399134 0.490812
3445 2 0.334624 0.408571 0.494905
2882 4 0.430715 0.362075 0.454302
2881 2 0.454122 0.36975 0.448903
2883 4 0.477529 0.377424 0.443504
4023 4 0.489134 0.394149 0.440592
1160 4 0.00708839 0.460774 0.416398
1221 4 0.00800049 0.43113 0.465028
3431 4 0.0249081 0.465068 0.426791
2960 4 0.0255797 0.42688 0.455624
3430 2 0.040117 0.481071 0.439126
2959 2 0.0474866 0.431731 0.466942
2961 4 0.0693934 0.436581 0.47826
4083 4 0.0819646 0.437376 0.462152
4081 2 0.105712 0.436795 0.469904
4082 4 0.129459 0.436215 0.477656
1173 4 0.150202 0.437185 0.478057
1171 2 0.172289 0.443309 0.467666
1172 4 0.194375 0.449432 0.457275
2924 4 0.35781 0.478061 0.432944
2923 2 0.355887 0.454651 0.424245
2922 4 0.355556 0.496829 0.438962
3446 4 0.357697 0.418007 0.498998
2155 2 0.456013 0.443104 0.455782
767 4 0.456922 0.434044 0.417649
934 2 0.496254 0.484211 0.419761
2156 4 0.46619 0.435055 0.434526
2157 4 0.445836 0.451152 0.477039
733 2 0.0128997 0.0643592 0.568818
735 4 0.0342605 0.0771983 0.57333
3273 4 0.109419 0.0561541 0.583614
2132 4 0.342568 0.031041 0.579666
3462 4 0.444722 0.0539873 0.5359
3460 2 0.444574 0.072361 0.518956
3468 4 0.448383 0.037815 0.547243
3466 2 0.470391 0.0266165 0.546535
3467 4 0.492399 0.0154181 0.545828
856 2 0.0238227 0.0997665 0.507707
857 4 0.0467338 0.104253 0.516996
2207 4 0.064851 0.112626 0.520482
2206 2 0.0865079 0.122268 0.529181
2208 4 0.108165 0.131909 0.53788
606 4 0.117637 0.148624 0.532878
604 2 0.141254 0.141398 0.530666
605 4 0.164872 0.134172 0.528453
3219 4 0.18056 0.131803 0.515461
3217 2 0.199789 0.1165 0.517293
3218 4 0.219018 0.101196 0.519125
3374 4 0.384258 0.133059 0.540821
3373 2 0.392222 0.147542 0.521881
3375 4 0.400186 0.162025 0.50294
3461 4 0.444426 0.0907347 0.502011
3155 4 0.465343 0.0964224 0.503459
3315 4 0.299502 0.22526 0.569414
1121 4 0.421294 0.21941 0.509395
399 4 0.436195 0.216902 0.521449
397 2 0.461062 0.220155 0.522477
398 4 0.485929 0.223408 0.523505
2919 4 0.49883 0.217285 0.539523
864 4 0.0188387 0.298085 0.505693
862 2 0.0398925 0.292632 0.517746
863 4 0.0609463 0.287179 0.529798
3263 4 0.0764054 0.298812 0.52386
3262 2 0.100716 0.305298 0.525099
3264 4 0.125027 0.311784 0.526339
335 4 0.140779 0.322905 0.531794
2222 4 0.474992 0.288156 0.554899
2221 2 0.489161 0.299264 0.537281
3958 2 0.0397739 0.380609 0.573064
3960 4 0.0151073 0.382174 0.569605
3959 4 0.0644405 0.379044 0.576523
695 4 0.00681319 0.343295 0.579069
3696 4 0.146315 0.371173 0.526402
334 2 0.15352 0.339277 0.546184
336 4 0.166261 0.355649 0.560575
3694 2 0.15512 0.374124 0.503152
3513 4 0.294105 0.400381 0.50044
3113 4 0.436305 0.395271 0.511069
3423 4 0.416718 0.400275 0.511714
3421 2 0.395713 0.413081 0.509796
3112 2 0.460703 0.397546 0.505772
2847 4 0.453968 0.373686 0.578474
1815 4 0.474676 0.372882 0.577969
1813 2 0.485634 0.394156 0.569839
3114 4 0.485102 0.399821 0.500475
1814 4 0.496592 0.415431 0.561708
501 4 0.494696 0.412254 0.513401
3422 4 0.374709 0.425887 0.507879
3238 2 0.427366 0.474168 0.578275
3240 4 0.440486 0.466855 0.558432
8 3 0.459297 0.457971 0.560119
6 1 0.481132 0.452876 0.554735
10 3 0.485462 0.45839 0.533034
7 3 0.483766 0.430291 0.557583
9 3 0.495941 0.464404 0.568747
808 2 0.0577463 0.0610121 0.655392
810 4 0.0738619 0.0736853 0.640662
4573 2 0.110566 0.00266976 0.59476
3271 2 0.129646 0.0702182 0.589544
1060 2 0.166459 0.0158364 0.624249
1062 4 0.150754 0.0133281 0.604894
4574 4 0.131236 0.0160868 0.600628
1061 4 0.182163 0.0183448 0.643604
3272 4 0.149872 0.0842823 0.595474
2202 4 0.197932 0.0219843 0.657597
2200 2 0.222935 0.0222623 0.656962
2201 4 0.247937 0.0225403 0.656327
2657 4 0.26281 0.0339945 0.649344
2656 2 0.282788 0.0484442 0.65521
2658 4 0.302766 0.0628938 0.661076
963 4 0.353772 0.0198189 0.666629
2131 2 0.36092 0.0406998 0.594007
2133 4 0.379272 0.0503586 0.608348
2316 4 0.390366 0.0611317 0.6207
2314 2 0.408468 0.0779632 0.626379
3024 4 0.0821634 0.0842865 0.655597
3022 2 0.104956 0.0874546 0.645598
3023 4 0.127749 0.0906227 0.6356
1602 4 0.169626 0.0894647 0.590685
669 4 0.139285 0.139994 0.657826
667 2 0.159067 0.15569 0.660262
1600 2 0.179046 0.0908878 0.61382
1601 4 0.188466 0.0923109 0.636955
1262 4 0.192233 0.157301 0.660117
4079 4 0.301635 0.163054 0.638641
1308 4 0.31101 0.146025 0.643752
1306 2 0.334652 0.146432 0.635588
1307 4 0.358294 0.146839 0.627425
960 4 0.372395 0.134178 0.633196
958 2 0.392355 0.140394 0.619211
959 4 0.412315 0.14661 0.605227
2315 4 0.42657 0.0947947 0.632058
2048 4 0.137138 0.23396 0.638375
668 4 0.178848 0.171386 0.662699
2047 2 0.150792 0.231394 0.659113
4078 2 0.278965 0.171073 0.644642
1263 4 0.237649 0.179447 0.657361
1261 2 0.214941 0.168374 0.658739
4080 4 0.256296 0.179092 0.650643
3313 2 0.303556 0.211646 0.589907
3314 4 0.30761 0.198033 0.610399
831 4 0.325139 0.204945 0.616466
829 2 0.346628 0.214324 0.625818
830 4 0.368117 0.223702 0.63517
1203 4 0.37413 0.22681 0.654005
798 4 0.00964648 0.270336 0.605027
889 2 0.0382803 0.320173 0.594323
2121 4 0.0248132 0.257919 0.603244
2119 2 0.0463141 0.261296 0.615728
891 4 0.06123 0.312268 0.599329
890 4 0.0153305 0.328077 0.589317
2120 4 0.0678151 0.264672 0.628212
3117 4 0.0845536 0.270678 0.635697
3381 4 0.0793502 0.319688 0.592355
3115 2 0.107301 0.261057 0.634294
3379 2 0.101345 0.32739 0.601958
3116 4 0.130048 0.251436 0.632891
1239 4 0.999614 0.414399 0.597634
2309 4 0.074168 0.387579 0.59197
2308 2 0.0970656 0.397097 0.596796
2310 4 0.119963 0.406616 0.601623
3330 4 0.135924 0.413541 0.612152
2535 4 0.122219 0.351821 0.620925
3380 4 0.123339 0.335092 0.611561
3328 2 0.160877 0.413352 0.610669
2533 2 0.146732 0.352498 0.625908
2534 4 0.171245 0.353176 0.63089
893 4 0.18311 0.343212 0.642398
3329 4 0.185831 0.413162 0.609186
892 2 0.180758 0.334718 0.665821
2846 4 0.426434 0.353041 0.615218
2845 2 0.440201 0.363364 0.596846
1238 4 0.0356372 0.427075 0.630339
1237 2 0.0176259 0.420737 0.613986
4316 4 0.202216 0.42047 0.619657
4315 2 0.227128 0.423377 0.618993
4317 4 0.25204 0.426283 0.618329
929 4 0.267847 0.4385 0.623386
928 2 0.2898 0.448415 0.615776
930 4 0.311754 0.458331 0.608166
3353 4 0.324561 0.468235 0.618635
3352 2 0.347133 0.458141 0.618477
3354 4 0.369705 0.448047 0.61832
4131 4 0.38618 0.451165 0.629505
4129 2 0.406652 0.459358 0.641708
3239 4 0.414246 0.48148 0.598119
4130 4 0.427125 0.467552 0.653911
3384 4 0.445401 0.477169 0.656227
809 4 0.0416307 0.0483389 0.670122
4152 4 0.145894 0.00949477 0.732684
962 4 0.316671 0.0520142 0.670508
4286 4 0.320417 0.0536418 0.721254
4285 2 0.339526 0.0701514 0.718766
961 2 0.335222 0.0359166 0.668568
2978 4 0.310722 0.0106764 0.744014
843 4 0.364439 0.0288533 0.680348
3130 2 0.395773 0.0771506 0.695701
841 2 0.386313 0.0178384 0.683636
842 4 0.408187 0.00682356 0.686925
3131 4 0.413998 0.0675026 0.681944
2375 4 0.424358 0.0198 0.68453
4287 4 0.358634 0.086661 0.716278
2460 4 0.47831 0.0824444 0.673577
2374 2 0.448573 0.0262947 0.686996
2376 4 0.472787 0.0327894 0.689461
2458 2 0.454279 0.0809124 0.680475
2459 4 0.430249 0.0793803 0.687373
3132 4 0.377547 0.0867986 0.709459
1134 4 0.418979 0.140725 0.735126
3003 4 0.497374 0.0890438 0.674596
1132 2 0.43195 0.124549 0.748634
2318 4 0.489025 0.139907 0.67851
4328 4 0.0021458 0.210836 0.731463
4319 4 0.0176431 0.220263 0.721596
4318 2 0.0423176 0.220297 0.725646
4320 4 0.0669921 0.22033 0.729695
2049 4 0.164445 0.228828 0.679851
1201 2 0.383959 0.209276 0.668513
3752 4 0.373669 0.180168 0.742763
3751 2 0.381763 0.18996 0.721118
1202 4 0.393788 0.191741 0.683021
3753 4 0.389857 0.199751 0.699474
3242 4 0.038197 0.282742 0.746812
2289 4 0.18527 0.330888 0.707425
2287 2 0.202185 0.31885 0.720908
894 4 0.178407 0.326223 0.689244
2288 4 0.219099 0.306812 0.734392
1020 4 0.236795 0.313134 0.727252
1018 2 0.259081 0.324591 0.730783
2217 4 0.0351246 0.34603 0.678214
2016 4 0.0173487 0.341475 0.687395
3148 2 0.0115259 0.382606 0.734319
3150 4 0.0346415 0.389354 0.741711
2215 2 0.0570817 0.347732 0.690148
3170 4 0.0375041 0.408891 0.746948
2216 4 0.0790388 0.349435 0.702082
1206 4 0.0971238 0.340887 0.698053
1204 2 0.116796 0.352178 0.709186
1205 4 0.136468 0.363468 0.720318
2741 4 0.12453 0.375868 0.730896
2740 2 0.114564 0.394893 0.743231
1019 4 0.281366 0.336049 0.734315
1333 2 0.469277 0.418693 0.702377
1335 4 0.480632 0.401698 0.716362
1272 4 0.494769 0.406487 0.729362
2009 4 0.00165357 0.429465 0.738505
3038 4 0.118329 0.492096 0.73362
3190 2 0.200972 0.4956 0.741561
3191 4 0.177562 0.488253 0.735775
3382 2 0.451279 0.465265 0.677312
1334 4 0.457922 0.435688 0.688392
3383 4 0.457157 0.453361 0.698398
2395 2 0.49665 0.496855 0.74644
4192 2 0.0147498 0.0815419 0.801965
4194 4 0.0394776 0.0842196 0.798721
2510 4 0.408087 0.0285364 0.791271
1049 4 0.404481 0.012725 0.802872
1048 2 0.393103 0.00493946 0.823857
2509 2 0.431862 0.0321729 0.784069
2269 2 0.481346 0.0194582 0.80827
2270 4 0.468493 0.0324315 0.791492
2511 4 0.455637 0.0358094 0.776867
2271 4 0.4942 0.00648496 0.825048
2180 4 0.0589212 0.0846994 0.792922
2179 2 0.0754706 0.103425 0.797277
2181 4 0.09202 0.12215 0.801631
3052 2 0.11409 0.148524 0.793594
3053 4 0.128689 0.147901 0.773318
3054 4 0.0994904 0.149147 0.81387
3188 4 0.405993 0.164076 0.798825
1133 4 0.444921 0.108374 0.762142
4500 4 0.45797 0.120773 0.770408
4498 2 0.480096 0.129363 0.778964
2001 4 0.0200487 0.184937 0.823925
846 4 0.0396219 0.191573 0.826401
844 2 0.0547748 0.186229 0.807371
845 4 0.0699277 0.180885 0.788342
4260 4 0.309512 0.174587 0.827657
4258 2 0.331664 0.18683 0.828514
4259 4 0.353816 0.199073 0.829372
1093 2 0.344876 0.219363 0.769634
1095 4 0.324598 0.208164 0.759531
3187 2 0.392757 0.165973 0.777732
60 3 0.366615 0.215287 0.792744
3189 4 0.379522 0.167871 0.75664
3284 4 0.412799 0.169812 0.817569
1094 4 0.365155 0.230562 0.779736
58 3 0.37398 0.194576 0.823157
56 1 0.380809 0.212863 0.810329
57 3 0.402012 0.209403 0.802377
839 4 0.411707 0.227918 0.803572
59 3 0.38126 0.232079 0.823333
838 2 0.436046 0.233843 0.801066
840 4 0.460386 0.239768 0.798559
3241 2 0.0329511 0.284306 0.771199
3243 4 0.0277053 0.28587 0.795586
3167 4 0.0244101 0.298335 0.81121
3166 2 0.0446672 0.302598 0.825417
884 4 0.131335 0.325794 0.821613
2982 4 0.127643 0.313139 0.836142
885 4 0.178665 0.311837 0.81652
883 2 0.155 0.318816 0.819066
1215 4 0.196242 0.308335 0.807501
1214 4 0.203047 0.261633 0.823383
1213 2 0.199644 0.284984 0.815442
2606 4 0.28288 0.332367 0.800882
2605 2 0.307737 0.332516 0.803622
2607 4 0.332595 0.332666 0.806362
1029 4 0.418865 0.324758 0.812146
1096 2 0.401537 0.291663 0.826264
1098 4 0.390254 0.269147 0.823871
1097 4 0.41282 0.314178 0.828658
1027 2 0.44338 0.330375 0.811204
3449 4 0.475495 0.252252 0.802308
3448 2 0.499089 0.260498 0.798824
3490 2 0.00500949 0.382823 0.79604
3491 4 0.0286442 0.375513 0.794387
2171 4 0.0425883 0.390863 0.79654
2170 2 0.0560225 0.394527 0.817378
3169 2 0.0614437 0.413486 0.753075
3171 4 0.0853833 0.418081 0.759203
2742 4 0.104597 0.413919 0.755567
2993 4 0.351019 0.343111 0.807662
2992 2 0.358352 0.346218 0.831393
2371 2 0.494501 0.367597 0.817407
1028 4 0.467895 0.335991 0.810263
2373 4 0.473502 0.353854 0.813872
2146 2 0.05367 0.450711 0.823796
2147 4 0.0658734 0.438885 0.805695
2592 4 0.116838 0.498795 0.751971
1936 2 0.108984 0.44996 0.813203
2590 2 0.107605 0.494331 0.774829
1937 4 0.086163 0.44034 0.808208
1938 4 0.131805 0.45958 0.818198
2591 4 0.0983732 0.489867 0.797687
3474 4 0.144217 0.473485 0.827404
3472 2 0.153748 0.496766 0.82513
1100 4 0.202948 0.448575 0.80729
1099 2 0.182909 0.439656 0.81973
1101 4 0.16287 0.430738 0.83217
4374 4 0.208993 0.459773 0.790797
4372 2 0.232737 0.46701 0.795194
4373 4 0.25648 0.474246 0.799592
4527 4 0.261925 0.486287 0.783911
975 4 0.0232474 0.0794481 0.85438
44 3 0.188102 2.04102e-06 0.91868
45 3 0.165407 0.00855302 0.890084
2998 2 0.334956 0.0185785 0.912491
2442 4 0.326412 0.0777943 0.888455
2999 4 0.336052 0.00279065 0.893166
129 3 0.343924 0.00101712 0.87658
1265 4 0.381071 0.0436342 0.891695
126 1 0.366006 0.00605303 0.870915
128 3 0.373586 0.0249468 0.882416
127 3 0.367197 0.0102737 0.848328
1264 2 0.380624 0.0601052 0.910484
973 2 0.00179158 0.0843186 0.865991
657 4 0.0542135 0.126184 0.915074
655 2 0.0292171 0.124938 0.915906
3233 4 0.128415 0.153126 0.878074
3232 2 0.13459 0.139188 0.85839
3365 4 0.131321 0.087132 0.895884
2807 4 0.199081 0.0866055 0.90001
3234 4 0.140766 0.12525 0.838707
3364 2 0.156006 0.0871521 0.891901
3366 4 0.180691 0.0871721 0.887918
582 4 0.187563 0.14374 0.912891
870 4 0.207218 0.139932 0.905114
868 2 0.22483 0.152145 0.891749
3063 4 0.257201 0.159337 0.892341
3061 2 0.279726 0.149319 0.894297
869 4 0.242442 0.164359 0.878384
2806 2 0.215832 0.0974717 0.915415
2440 2 0.313348 0.0983686 0.892287
2441 4 0.300283 0.118943 0.89612
3062 4 0.302251 0.139302 0.896252
1999 2 0.00627979 0.178463 0.8439
1243 2 0.0110975 0.245277 0.885335
1073 4 0.17039 0.22499 0.893691
1072 2 0.184224 0.244804 0.90126
671 4 0.225954 0.201982 0.883965
670 2 0.231205 0.213116 0.905806
3283 2 0.420478 0.185256 0.835861
3285 4 0.428158 0.200699 0.854152
3348 4 0.429043 0.217021 0.864953
3346 2 0.450456 0.228163 0.857422
3347 4 0.471869 0.239306 0.849892
818 4 0.49017 0.246413 0.902191
1245 4 0.0340919 0.254536 0.890175
3135 4 0.0430212 0.271694 0.894071
3168 4 0.0649243 0.306862 0.839623
2980 2 0.104228 0.307626 0.843509