ITEM: TIMESTEP
958000
ITEM: NUMBER OF ATOMS
4590
ITEM: BOX BOUNDS xy xz yz pp pp pp
-9.9985700000000008e+00 1.3198112399999999e+01 3.1995423999999986e+00
-9.9985700000000008e+00 9.9985700000000008e+00 0.0000000000000000e+00
-9.9985700000000008e+00 9.9985700000000008e+00 0.0000000000000000e+00
ITEM: ATOMS id type xs ys zs
1285 2 0.0803628 0.010884 0.021034
1286 4 0.096624 0.0270662 0.0238583
486 4 0.110788 0.0379128 0.0314475
484 2 0.133289 0.0446671 0.0362928
485 4 0.15579 0.0514215 0.041138
1566 4 0.175555 0.0460244 0.0452408
1564 2 0.188644 0.0605023 0.0318906
1565 4 0.201734 0.0749801 0.0185405
4231 2 0.293974 0.0271044 0.0811063
4233 4 0.317381 0.0309293 0.075309
3270 4 0.308427 0.047342 0.00213135
51 1 0.340328 0.0653702 0.0109237
53 3 0.347167 0.0582035 0.0322459
52 3 0.326813 0.0510807 0.00224676
1257 4 0.369503 0.0798635 0.00124665
2638 2 0.0112834 0.141374 0.0255804
2714 4 0.0111844 0.156576 0.0613548
2639 4 0.0227174 0.132569 0.00443448
2640 4 0.99985 0.150179 0.0467262
2713 2 0.0115517 0.144166 0.0830009
1247 4 0.21817 0.0844514 0.0159761
3102 4 0.159834 0.125513 0.0348997
3940 2 0.149822 0.162989 0.0564886
3942 4 0.148936 0.142095 0.0434224
3100 2 0.164103 0.117865 0.0112898
3277 2 0.215451 0.126369 0.0803488
3278 4 0.230962 0.141017 0.0707643
1246 2 0.239091 0.0855125 0.00258817
55 3 0.328331 0.0864257 0.0118487
1255 2 0.381508 0.0995181 0.00431106
1256 4 0.393512 0.119173 0.00737547
2472 4 0.00459267 0.247876 0.0747034
2470 2 0.0281209 0.236526 0.079698
3941 4 0.150708 0.183884 0.0695548
366 4 0.159688 0.194697 0.0824464
563 4 0.266868 0.236692 0.0245631
3048 4 0.284281 0.237021 0.0141599
2820 4 0.294723 0.222208 0.0798086
329 4 0.372727 0.180026 0.0436789
330 4 0.392032 0.220519 0.029669
328 2 0.382379 0.200272 0.036674
2913 4 0.405561 0.232121 0.0340377
3083 4 0.498922 0.243478 0.00328248
493 2 0.0136987 0.302177 0.0756336
26 1 0.027458 0.295327 0.0154748
28 3 0.0288421 0.288444 0.0376321
494 4 0.0255079 0.300409 0.0535157
29 3 0.0343512 0.316068 0.0134923
30 3 0.0058011 0.296488 0.00797228
27 3 0.0415407 0.280065 0.00279761
2829 4 0.051408 0.323127 0.0116113
2827 2 0.074793 0.326373 0.0181852
522 4 0.132276 0.264998 0.0531127
4032 4 0.135445 0.271734 0.0717712
520 2 0.143941 0.270931 0.0323558
521 4 0.155606 0.276864 0.0115989
4277 4 0.160815 0.295702 0.00780881
4030 2 0.133237 0.294007 0.0830509
562 2 0.254124 0.255974 0.0372148
910 2 0.232011 0.309652 0.0311245
912 4 0.24664 0.287806 0.036019
564 4 0.24138 0.275257 0.0498666
911 4 0.217382 0.331498 0.0262299
2912 4 0.389111 0.273966 0.0596235
2911 2 0.397336 0.253044 0.0468306
15 3 0.403183 0.284076 0.0682493
243 4 0.471206 0.309427 0.0071561
241 2 0.492059 0.319857 0.00412135
771 4 0.48224 0.256 0.00561701
2828 4 0.098178 0.32962 0.024759
357 4 0.108306 0.345239 0.0180281
2841 4 0.134068 0.403541 0.0116457
355 2 0.125961 0.352744 0.00342273
3213 4 0.189937 0.38957 0.00285992
3211 2 0.208511 0.400485 0.0125099
1046 4 0.205259 0.33382 0.00960145
3212 4 0.227085 0.411399 0.02216
2661 4 0.242251 0.402889 0.00753405
2659 2 0.264186 0.403306 0.0194056
2904 4 0.291604 0.344299 0.0534876
2660 4 0.28612 0.403722 0.0312772
3140 4 0.285189 0.410202 0.0508253
2902 2 0.316795 0.342701 0.0525731
2903 4 0.341986 0.341102 0.0516586
2519 4 0.350703 0.350898 0.0665877
3139 2 0.285178 0.395874 0.0711861
2518 2 0.374013 0.34172 0.0745819
1222 2 0.428964 0.361259 0.0664196
1224 4 0.412427 0.347675 0.0759343
2520 4 0.397322 0.332542 0.0825762
1223 4 0.445502 0.374844 0.056905
1236 4 0.453505 0.390373 0.0522115
1234 2 0.473112 0.402768 0.0498828
2839 2 0.141883 0.423357 0.022221
2840 4 0.149697 0.443173 0.0327962
1596 4 0.159131 0.454708 0.0200858
1594 2 0.178198 0.455894 0.0359903
1595 4 0.197265 0.45708 0.0518949
4547 4 0.206838 0.439266 0.0581414
4546 2 0.231286 0.440125 0.0626167
4548 4 0.255733 0.440983 0.0670921
544 2 0.497475 0.445249 0.017152
1235 4 0.492718 0.415164 0.0475541
546 4 0.494058 0.426012 0.0317443
316 2 0.0320188 0.0102137 0.159877
317 4 0.00707707 0.0101492 0.158272
318 4 0.0569605 0.0102782 0.161482
3781 2 0.148761 0.00910014 0.144817
3783 4 0.157955 0.0210444 0.125864
3905 4 0.177591 0.0219027 0.123497
3904 2 0.201558 0.0257751 0.125881
3906 4 0.225525 0.0296474 0.128265
2781 4 0.244486 0.0255406 0.135971
2779 2 0.241082 0.0353759 0.158886
4232 4 0.270566 0.0232795 0.0869037
1449 4 0.323239 0.00770112 0.114379
1497 4 0.424449 0.999968 0.122702
2715 4 0.0119189 0.131756 0.104647
476 4 0.0282402 0.119319 0.111708
475 2 0.0482381 0.125282 0.123982
477 4 0.068236 0.131245 0.136256
17 3 0.0693484 0.140131 0.15432
3279 4 0.199941 0.111721 0.0899334
3991 2 0.296384 0.161167 0.135368
827 4 0.332875 0.113639 0.108546
3992 4 0.318126 0.15014 0.145589
826 2 0.355414 0.105358 0.0982225
828 4 0.377953 0.0970762 0.0878994
915 4 0.394361 0.103676 0.0971063
914 4 0.443349 0.0958586 0.0844273
913 2 0.418855 0.0997671 0.0907668
875 4 0.454907 0.110179 0.0927101
874 2 0.476571 0.117704 0.0994613
2858 4 0.0471038 0.218706 0.102053
2857 2 0.0512543 0.201875 0.120486
2471 4 0.0516492 0.225177 0.0846925
2859 4 0.0554047 0.185043 0.138919
19 3 0.0579013 0.177122 0.158025
364 2 0.16016 0.195247 0.107438
531 4 0.167779 0.193772 0.151169
365 4 0.160631 0.195798 0.132429
529 2 0.18777 0.196921 0.165141
2800 2 0.240367 0.193598 0.149087
3993 4 0.274643 0.172194 0.125147
2801 4 0.258204 0.183496 0.132961
2819 4 0.332879 0.223025 0.111967
2818 2 0.313801 0.222616 0.0958877
3344 4 0.342485 0.233989 0.099357
756 4 0.457944 0.17553 0.0863126
755 4 0.47499 0.219328 0.0882948
510 4 0.490582 0.229766 0.0930727
754 2 0.466467 0.197429 0.0873037
495 4 0.00188947 0.303945 0.0977515
4031 4 0.131029 0.316281 0.0943306
558 4 0.299315 0.302749 0.144355
556 2 0.316993 0.316837 0.138932
3343 2 0.356236 0.252278 0.102904
2849 4 0.287326 0.29581 0.159642
3345 4 0.369986 0.270568 0.106451
13 3 0.391982 0.314552 0.0894363
11 1 0.397008 0.291387 0.0892289
12 3 0.378066 0.282723 0.095622
14 3 0.414388 0.284243 0.104186
2717 4 0.414201 0.268424 0.117145
2716 2 0.435333 0.265404 0.130916
2568 4 0.394017 0.325075 0.138207
2718 4 0.456466 0.262383 0.144688
2673 4 0.470701 0.270382 0.153625
2671 2 0.49306 0.278429 0.154767
3801 4 0.0122556 0.346874 0.141993
3881 4 0.0209732 0.351994 0.12546
3210 4 0.0278279 0.385977 0.163583
3880 2 0.0425759 0.361158 0.128469
3882 4 0.0641786 0.370321 0.131478
2783 4 0.0826977 0.374544 0.129816
2782 2 0.104372 0.37672 0.118179
2784 4 0.126047 0.378897 0.106541
1761 4 0.238973 0.367145 0.134316
1759 2 0.259834 0.370743 0.121958
557 4 0.334672 0.330925 0.133509
1760 4 0.280694 0.374342 0.109599
3141 4 0.285168 0.381545 0.0915469
2567 4 0.345446 0.345345 0.132274
2566 2 0.369731 0.33521 0.135241
2691 4 0.415924 0.431826 0.129844
2689 2 0.404843 0.4272 0.151386
3518 4 0.431888 0.441132 0.134025
3517 2 0.444361 0.458148 0.144258
3519 4 0.456834 0.475165 0.154491
3662 4 0.0616203 0.0188412 0.178483
3661 2 0.0841137 0.0137595 0.189855
3663 4 0.106607 0.00867792 0.201226
4509 4 0.187444 0.0013164 0.226377
2547 4 0.199134 0.0119957 0.213896
2545 2 0.214203 0.0282224 0.206837
2546 4 0.229273 0.0444491 0.199779
2780 4 0.237678 0.0452113 0.1818
3679 2 0.404551 0.00757428 0.224005
350 4 0.468783 0.00548478 0.165198
2946 4 0.451148 0.000808763 0.172282
3681 4 0.415833 0.0232268 0.237793
349 2 0.490697 0.0124959 0.171934
743 4 0.0243632 0.142415 0.178295
20 3 0.0373335 0.152565 0.172671
16 1 0.0587185 0.156497 0.16836
18 3 0.0709383 0.156028 0.188126
450 4 0.418156 0.150093 0.249795
448 2 0.423806 0.163483 0.23017
547 2 0.463793 0.16616 0.19022
2933 4 0.499699 0.142431 0.200281
549 4 0.487478 0.153988 0.188097
530 4 0.207761 0.200071 0.179113
2802 4 0.222531 0.203699 0.165212
449 4 0.429455 0.176873 0.210544
548 4 0.440109 0.178331 0.192344
2962 2 0.192271 0.324125 0.242587
2844 4 0.263774 0.268724 0.217543
2842 2 0.24907 0.27153 0.237892
2850 4 0.275495 0.273908 0.201901
2848 2 0.281411 0.284859 0.180771
3208 2 0.00790068 0.390076 0.178977
107 3 0.142453 0.408198 0.229073
2963 4 0.204774 0.339058 0.229154
3594 4 0.345008 0.402029 0.213473
1821 4 0.309353 0.399359 0.244898
267 4 0.360592 0.336844 0.208943
265 2 0.360721 0.359678 0.218402
266 4 0.36085 0.382512 0.227862
3592 2 0.361438 0.411806 0.199128
615 4 0.369592 0.375582 0.24644
3593 4 0.377869 0.421584 0.184784
2690 4 0.393761 0.422574 0.172927
737 4 0.432032 0.434085 0.21531
736 2 0.439113 0.453455 0.227409
3716 4 0.447472 0.491899 0.234336
738 4 0.446194 0.472824 0.239508
4367 4 0.493687 0.43966 0.197388
705 4 0.206602 0.0566608 0.337182
354 4 0.219456 0.0634663 0.325078
352 2 0.239116 0.0580437 0.309501
3741 4 0.265063 0.00730225 0.305588
353 4 0.258775 0.0526212 0.293924
389 4 0.283255 0.010157 0.313508
388 2 0.307633 0.0115055 0.317813
390 4 0.332011 0.012854 0.322118
2759 4 0.201047 0.125234 0.282087
2758 2 0.221534 0.132837 0.272272
2760 4 0.242022 0.14044 0.262457
692 4 0.260561 0.143146 0.258054
691 2 0.28144 0.138748 0.272153
693 4 0.302319 0.134351 0.286253
279 4 0.316202 0.134633 0.299632
277 2 0.330883 0.152331 0.297328
2893 2 0.382683 0.163233 0.272702
2894 4 0.358997 0.167667 0.281509
2895 4 0.40637 0.158798 0.263895
647 4 0.112447 0.189983 0.250296
646 2 0.121161 0.189735 0.273745
648 4 0.129874 0.189487 0.297194
2599 2 0.144949 0.177856 0.322851
2600 4 0.141669 0.172296 0.298833
2907 4 0.284535 0.193483 0.258693
278 4 0.345564 0.170028 0.295025
2905 2 0.29753 0.210454 0.2682
2906 4 0.310525 0.227425 0.277706
1464 4 0.326766 0.228897 0.289987
1462 2 0.340816 0.247103 0.287539
1516 2 0.438901 0.178732 0.328147
1517 4 0.461953 0.181466 0.320026
2615 4 0.471923 0.193595 0.30607
2614 2 0.488644 0.207142 0.296856
3792 4 0.0123636 0.302083 0.292767
1193 4 0.0219013 0.31057 0.307333
1192 2 0.0442341 0.314594 0.316338
1194 4 0.0665669 0.318617 0.325342
3454 2 0.107373 0.329073 0.320069
3456 4 0.0839453 0.325199 0.325714
2964 4 0.179768 0.309193 0.25602
2554 2 0.158059 0.2931 0.28096
2555 4 0.137149 0.283429 0.286185
2556 4 0.17897 0.302772 0.275736
3455 4 0.130801 0.332947 0.314423
2843 4 0.234365 0.274335 0.258242
1463 4 0.354866 0.265309 0.28509
2637 4 0.366026 0.278513 0.294644
2635 2 0.381918 0.29344 0.302903
2636 4 0.39781 0.308367 0.311161
1586 4 0.414076 0.317626 0.311516
1585 2 0.43889 0.317932 0.308889
560 4 0.490411 0.289996 0.258694
559 2 0.486977 0.300234 0.281435
561 4 0.483542 0.310472 0.304175
1587 4 0.463705 0.318237 0.306263
1330 2 0.0225953 0.352686 0.268952
270 4 0.0624431 0.360303 0.266063
1331 4 0.0477885 0.350186 0.266894
269 4 0.109904 0.341635 0.279264
268 2 0.0861734 0.350969 0.272663
108 3 0.11145 0.409338 0.250554
1530 4 0.130781 0.336751 0.279016
106 1 0.134804 0.408226 0.250769
1528 2 0.143518 0.353153 0.268054
2486 4 0.149301 0.337896 0.315768
1529 4 0.156255 0.369556 0.257091
109 3 0.144828 0.388668 0.261178
1743 4 0.175774 0.363653 0.260061
2485 2 0.170216 0.34792 0.319961
2487 4 0.191132 0.357944 0.324155
1741 2 0.186297 0.383882 0.265228
1742 4 0.19682 0.40411 0.270395
247 2 0.233047 0.410795 0.273559
249 4 0.255055 0.409208 0.285782
248 4 0.211039 0.412382 0.261335
3975 4 0.207258 0.366584 0.324403
3973 2 0.23053 0.371073 0.329834
1820 4 0.266786 0.401201 0.27155
1819 2 0.28807 0.40028 0.258224
2901 4 0.315982 0.365201 0.319334
2899 2 0.29383 0.372216 0.330896
872 4 0.364266 0.395985 0.328253
613 2 0.368559 0.390479 0.266475
614 4 0.367526 0.405376 0.286511
3072 4 0.400014 0.359395 0.332179
110 3 0.14046 0.426281 0.261709
275 4 0.332973 0.447777 0.320431
274 2 0.347622 0.458329 0.304717
276 4 0.362272 0.46888 0.289003
4361 4 0.381969 0.464938 0.284698
4360 2 0.404019 0.473575 0.285947
4362 4 0.426069 0.482211 0.287197
4 3 0.455601 0.461958 0.255493
2 3 0.445108 0.48559 0.283939
1 1 0.459532 0.481421 0.26598
3 3 0.481697 0.478865 0.273632
5 3 0.455611 0.498921 0.25145
331 2 0.00152431 0.0553462 0.349397
332 4 0.0214343 0.0553834 0.334279
3723 4 0.039076 0.0600972 0.339109
3721 2 0.0593755 0.0666361 0.350369
3722 4 0.079675 0.073175 0.361629
1182 4 0.108885 0.0412973 0.371594
1180 2 0.134093 0.0356626 0.369979
3488 4 0.0832655 0.065378 0.409601
1181 4 0.159302 0.0300279 0.368363
2642 4 0.0910325 0.086369 0.366503
704 4 0.164789 0.0388518 0.350922
703 2 0.185696 0.0477563 0.344052
2627 4 0.274152 0.0838858 0.376048
468 4 0.340392 0.0267926 0.332798
467 4 0.356815 0.0587292 0.36469
466 2 0.348604 0.0427609 0.348744
368 4 0.428792 0.0100515 0.384236
2641 2 0.108759 0.0988916 0.35761
2643 4 0.126486 0.111414 0.348717
2943 4 0.146099 0.105463 0.344451
2941 2 0.17058 0.103967 0.350391
2942 4 0.195061 0.10247 0.356331
2831 4 0.212282 0.102813 0.366682
2830 2 0.236447 0.101413 0.373754
2832 4 0.260613 0.100013 0.380826
2626 2 0.298499 0.0863172 0.373319
2628 4 0.322845 0.0887487 0.37059
792 4 0.371295 0.163513 0.399165
1200 4 0.36878 0.160205 0.380334
790 2 0.350159 0.161832 0.411978
1198 2 0.387214 0.163108 0.364222
1199 4 0.405649 0.166011 0.34811
1210 2 0.0200358 0.216206 0.39661
1211 4 0.0396193 0.199845 0.388264
599 4 0.0428477 0.20772 0.370629
347 4 0.100564 0.166809 0.376603
598 2 0.0664215 0.195123 0.369316
600 4 0.0899953 0.182525 0.368003
346 2 0.12274 0.174312 0.371863
3852 4 0.16866 0.250816 0.33675
348 4 0.144915 0.181815 0.367122
2601 4 0.148228 0.183416 0.34687
3850 2 0.19227 0.238522 0.339116
3851 4 0.215881 0.226229 0.341482
3888 4 0.226824 0.240175 0.348431
1518 4 0.415849 0.175998 0.336267
2925 4 0.141048 0.319239 0.401392
2923 2 0.163904 0.306206 0.3965
2924 4 0.186759 0.293174 0.391608
2922 4 0.206168 0.29451 0.388387
3886 2 0.239678 0.25928 0.345786
2920 2 0.215957 0.306124 0.369554
2921 4 0.225747 0.317737 0.350722
3887 4 0.252533 0.278385 0.34314
2544 4 0.259404 0.288729 0.358708
2542 2 0.278181 0.298765 0.369149
2543 4 0.296957 0.308801 0.37959
2737 2 0.330844 0.316549 0.344883
3059 4 0.316982 0.301405 0.385163
3058 2 0.334793 0.297572 0.402903
2739 4 0.340714 0.29387 0.336404
2683 2 0.374413 0.325567 0.410219
371 4 0.483526 0.286937 0.407513
451 2 0.0098891 0.371793 0.36875
453 4 0.0331415 0.377794 0.370466
2550 4 0.0491035 0.387516 0.378399
2548 2 0.0706334 0.395616 0.372191
2549 4 0.0921633 0.403717 0.365982
1493 4 0.111701 0.405895 0.372625
2570 4 0.133619 0.337927 0.392862
2569 2 0.141587 0.359824 0.396623
2571 4 0.149554 0.38172 0.400385
1492 2 0.135194 0.411285 0.370914
142 3 0.165453 0.375752 0.410973
1494 4 0.158688 0.416675 0.369204
143 3 0.192062 0.397948 0.407751
3974 4 0.253802 0.375563 0.335265
3596 4 0.21167 0.398581 0.403949
3595 2 0.236553 0.397706 0.400451
1220 4 0.236547 0.350913 0.403899
2961 4 0.252934 0.344852 0.416058
3597 4 0.261435 0.396831 0.396953
2959 2 0.274209 0.351953 0.407543
651 4 0.278375 0.40167 0.38744
2900 4 0.271677 0.379232 0.342459
3071 4 0.353802 0.347469 0.338724
2738 4 0.320975 0.339228 0.353363
649 2 0.292255 0.414662 0.373237
2462 4 0.311476 0.367335 0.405254
873 4 0.321192 0.413757 0.352052
2461 2 0.333043 0.374511 0.41285
871 2 0.342729 0.404871 0.340153
2960 4 0.295484 0.359054 0.399029
3070 2 0.376908 0.353432 0.335452
2684 4 0.383844 0.343444 0.397789
585 4 0.414075 0.36991 0.338205
2537 4 0.415187 0.383018 0.404794
583 2 0.416225 0.376876 0.361996
584 4 0.418374 0.383843 0.385787
3605 4 0.00399072 0.430495 0.368163
3604 2 0.0250986 0.438784 0.360869
3606 4 0.0462064 0.447073 0.353576
2622 4 0.0649676 0.449474 0.345944
2620 2 0.0880384 0.456039 0.346436
2621 4 0.111109 0.462605 0.346928
2474 4 0.170749 0.417695 0.353573
1472 4 0.127116 0.471177 0.338737
1471 2 0.151157 0.475098 0.33985
2475 4 0.220786 0.417028 0.356274
1473 4 0.175199 0.479019 0.340964
2473 2 0.195768 0.417362 0.354923
1736 4 0.195266 0.475829 0.342233
1735 2 0.213615 0.487691 0.350868
1737 4 0.231964 0.499553 0.359502
650 4 0.306134 0.427654 0.359035
733 2 0.0361202 0.0732438 0.485008
734 4 0.0130297 0.0759325 0.495228
735 4 0.0592107 0.0705551 0.474788
1024 2 0.0765979 0.0128596 0.50006
1026 4 0.0859727 0.0122672 0.47685
3487 2 0.100378 0.064672 0.427924
3489 4 0.11749 0.063966 0.446246
1427 4 0.133144 0.051001 0.439344
1426 2 0.155337 0.0488522 0.45131
1601 4 0.0723598 0.0772694 0.487804
1428 4 0.177529 0.0467035 0.463277
3138 4 0.402874 0.0527552 0.421068
3136 2 0.414197 0.0479719 0.443222
3137 4 0.425521 0.0431886 0.465377
2333 4 0.425752 0.0283247 0.479467
2332 2 0.418911 0.0138829 0.497712
1602 4 0.112253 0.100172 0.496691
1600 2 0.0923064 0.0887205 0.492247
473 4 0.119675 0.131256 0.422751
472 2 0.132361 0.14185 0.440247
474 4 0.145047 0.152445 0.457744
803 4 0.161334 0.158059 0.452674
802 2 0.186112 0.156019 0.457481
804 4 0.210891 0.153979 0.462287
576 4 0.280044 0.154627 0.458629
574 2 0.303963 0.15557 0.451929
512 4 0.263058 0.165792 0.453048
791 4 0.329022 0.160151 0.424791
575 4 0.327883 0.156513 0.445228
513 4 0.21244 0.172268 0.452377
2655 4 0.136974 0.233974 0.447609
2653 2 0.159792 0.223425 0.439399
2654 4 0.182611 0.212876 0.43119
1491 4 0.192932 0.222245 0.415765
511 2 0.237749 0.16903 0.452713
1489 2 0.215958 0.226999 0.421832
1490 4 0.238983 0.231753 0.427899
399 4 0.255984 0.237385 0.436881
397 2 0.278939 0.242538 0.442639
398 4 0.301894 0.247692 0.448397
1034 4 0.319715 0.252222 0.450927
890 4 0.355056 0.203891 0.489991
695 4 0.37532 0.200323 0.485761
694 2 0.397632 0.206166 0.492876
696 4 0.419944 0.21201 0.499991
2528 4 0.434289 0.217929 0.429682
2527 2 0.456803 0.222181 0.437997
2529 4 0.479317 0.226433 0.446313
2727 4 0.481403 0.242511 0.43617
1120 2 0.00311138 0.274545 0.442495
1122 4 0.0268322 0.27441 0.450465
1221 4 0.206733 0.328177 0.433307
2535 4 0.25727 0.263719 0.476406
2534 4 0.267773 0.309857 0.483629
2533 2 0.262521 0.286788 0.480018
1033 2 0.342809 0.254692 0.442721
2918 4 0.285657 0.309337 0.47608
1035 4 0.365904 0.257162 0.434515
3060 4 0.352605 0.29374 0.420644
2917 2 0.289122 0.333247 0.476668
2685 4 0.364981 0.307691 0.42265
470 4 0.416981 0.293269 0.427164
471 4 0.382992 0.261968 0.426658
469 2 0.399986 0.277618 0.426911
3438 4 0.435959 0.28743 0.430769
3437 4 0.486508 0.27948 0.427716
3436 2 0.461233 0.283455 0.429243
3129 4 0.0825458 0.343646 0.457354
3127 2 0.095543 0.356762 0.472363
3128 4 0.10854 0.369878 0.487372
2958 4 0.123824 0.377043 0.478021
2956 2 0.144172 0.38308 0.466425
2957 4 0.16452 0.389117 0.454829
141 1 0.181749 0.384893 0.422386
144 3 0.171492 0.397991 0.439713
1219 2 0.22164 0.339545 0.418603
145 3 0.197393 0.368141 0.430748
3696 4 0.213372 0.367088 0.443079
3694 2 0.230872 0.375407 0.45727
3695 4 0.248371 0.383727 0.471462
3989 4 0.262219 0.387564 0.457268
3988 2 0.284835 0.395096 0.458263
2919 4 0.292586 0.357157 0.477256
3990 4 0.307452 0.402628 0.459259
2223 4 0.323051 0.388391 0.45677
2221 2 0.343259 0.397408 0.465435
2463 4 0.35461 0.381688 0.420446
2536 2 0.39307 0.386448 0.416971
2222 4 0.363468 0.406426 0.4741
2538 4 0.370954 0.389878 0.429147
1381 2 0.0816827 0.496396 0.429834
4484 4 0.0949641 0.433689 0.462791
2107 2 0.162549 0.472411 0.477519
1383 4 0.0968925 0.479708 0.443597
4483 2 0.117903 0.439544 0.458223
2109 4 0.172475 0.490801 0.488537
4485 4 0.140841 0.445399 0.453654
2108 4 0.152622 0.454021 0.466501
540 4 0.206453 0.46862 0.463003
538 2 0.214035 0.48631 0.448726
4022 4 0.313381 0.458057 0.461508
3120 4 0.286645 0.494499 0.441834
2876 4 0.305025 0.455465 0.479013
2875 2 0.293103 0.445435 0.497496
4023 4 0.297238 0.439947 0.418962
4021 2 0.305309 0.449002 0.440235
1142 4 0.0125085 0.00359619 0.557783
3157 2 0.0498653 0.0109503 0.548969
3158 4 0.0661103 0.0248076 0.539362
1025 4 0.0672232 0.0134519 0.52327
2656 2 0.175542 0.0147834 0.532625
2657 4 0.182527 0.0301482 0.515307
2658 4 0.168556 0.999419 0.549943
217 3 0.328131 0.0484829 0.553697
216 1 0.336237 0.0439257 0.575004
218 3 0.353571 0.0257713 0.574224
1993 2 0.383805 0.00972135 0.580579
2931 4 0.393496 0.0082712 0.519782
2334 4 0.41207 0.999441 0.515956
722 4 0.99973 0.0836259 0.550629
2114 4 0.129606 0.106523 0.502449
3467 4 0.184285 0.140813 0.51709
2115 4 0.170349 0.127873 0.512194
3466 2 0.199447 0.155057 0.527958
2113 2 0.149978 0.117198 0.507322
3468 4 0.214609 0.1693 0.538827
4225 2 0.366035 0.149003 0.584045
4227 4 0.387842 0.133657 0.580144
799 2 0.281573 0.243768 0.5632
800 4 0.26092 0.249279 0.548921
891 4 0.331306 0.204154 0.53402
374 4 0.319371 0.243699 0.571776
801 4 0.302225 0.238257 0.57748
889 2 0.343181 0.204023 0.512006
373 2 0.340736 0.248592 0.561254
1179 4 0.437035 0.214346 0.508894
1177 2 0.459421 0.221062 0.514345
1178 4 0.481806 0.227778 0.519796
3380 4 0.20819 0.254399 0.580067
2121 4 0.189439 0.260639 0.576397
3381 4 0.242226 0.259214 0.544486
3379 2 0.225208 0.256806 0.562276
375 4 0.362101 0.253485 0.550731
729 4 0.418834 0.268561 0.518253
728 4 0.378512 0.261925 0.545531
727 2 0.398673 0.265243 0.531892
1136 4 0.404964 0.319279 0.551825
1135 2 0.414877 0.306134 0.571608
711 4 0.469049 0.300121 0.559766
709 2 0.484221 0.291955 0.540628
710 4 0.499393 0.28379 0.52149
3581 4 0.25875 0.352816 0.575772
3582 4 0.257431 0.392455 0.5457
3580 2 0.258091 0.372635 0.560736
3871 2 0.318569 0.416163 0.560815
3873 4 0.333271 0.395775 0.569683
816 4 0.459449 0.351421 0.554721
814 2 0.458737 0.344144 0.578569
3511 2 0.999774 0.466831 0.573922
2877 4 0.281181 0.435406 0.515979
3872 4 0.303867 0.43655 0.551947
1187 4 0.317274 0.448094 0.554195
1186 2 0.328262 0.468445 0.55705
1188 4 0.339249 0.488796 0.559906
2809 2 0.0616248 0.068377 0.611705
2810 4 0.0365154 0.0718012 0.608514
2811 4 0.0867342 0.0649528 0.614897
1164 4 0.0976625 0.0774721 0.623788
1162 2 0.112837 0.0780404 0.643583
1163 4 0.128011 0.0786087 0.663377
3272 4 0.286425 0.0710149 0.633473
1924 2 0.302017 0.0071123 0.608941
225 3 0.279884 0.0707878 0.651668
1925 4 0.311373 0.0236474 0.594528
3271 2 0.309885 0.0764141 0.631379
220 3 0.319136 0.039079 0.588255
1994 4 0.36916 0.0317404 0.584657
219 3 0.344393 0.0625469 0.58323
4137 4 0.364276 0.0527454 0.58535
3273 4 0.333344 0.0818133 0.629284
1468 2 0.35964 0.0691483 0.656223
4135 2 0.385196 0.0633922 0.585525
3714 4 0.456663 0.0633511 0.585677
3712 2 0.474479 0.0780718 0.584409
4136 4 0.406115 0.0740389 0.5857
3460 2 0.463738 0.0218549 0.592627
3461 4 0.468324 0.0452312 0.589557
1218 4 0.42007 0.0824321 0.595378
1058 4 0.0269068 0.0910493 0.606092
1057 2 0.0131167 0.0950595 0.585206
1394 4 0.130871 0.148291 0.655301
960 4 0.135014 0.162838 0.666905
1393 2 0.146491 0.13366 0.639978
1395 4 0.162111 0.119029 0.624656
1263 4 0.1718 0.135414 0.624752
1261 2 0.196393 0.136341 0.621256
1262 4 0.220985 0.137269 0.617761
726 4 0.200488 0.145716 0.657703
1086 4 0.243472 0.161758 0.631239
1084 2 0.264732 0.145234 0.628883
1085 4 0.285993 0.12871 0.626527
2508 4 0.301428 0.139626 0.627893
4226 4 0.344229 0.164348 0.587946
1470 4 0.352056 0.0813183 0.635121
2506 2 0.324108 0.147033 0.627004
2507 4 0.346787 0.154441 0.626116
641 4 0.365825 0.150268 0.632833
1217 4 0.407357 0.131039 0.584713
1216 2 0.413714 0.106735 0.590046
640 2 0.390352 0.145022 0.63888
642 4 0.414879 0.139776 0.644928
3420 4 0.434993 0.136705 0.639566
3418 2 0.451375 0.148014 0.652463
3713 4 0.492296 0.0927924 0.583141
3558 4 0.490032 0.142644 0.606456
3419 4 0.467758 0.159323 0.665361
3011 4 0.0204744 0.175693 0.651757
3010 2 0.0386649 0.189999 0.652802
3144 4 0.048731 0.219623 0.666153
3012 4 0.0568554 0.204306 0.653848
3142 2 0.0614056 0.236556 0.656063
1522 2 0.115944 0.238169 0.64222
958 2 0.13436 0.187284 0.662788
959 4 0.133707 0.211731 0.658672
1524 4 0.138324 0.223168 0.643191
1283 4 0.262899 0.236715 0.624164
668 4 0.342693 0.21195 0.646955
1259 4 0.331244 0.204852 0.633384
1258 2 0.341062 0.192917 0.612885
1260 4 0.35088 0.180981 0.592387
667 2 0.324296 0.213917 0.664111
3143 4 0.0740802 0.253489 0.645974
1523 4 0.0935644 0.253171 0.641248
2120 4 0.166743 0.267792 0.620951
2119 2 0.178091 0.264215 0.598674
1282 2 0.273382 0.257323 0.627421
1284 4 0.283865 0.277931 0.630679
2916 4 0.285717 0.290964 0.644506
2914 2 0.300873 0.289024 0.664531
1137 4 0.42479 0.292989 0.591392
864 4 0.411182 0.285449 0.661445
796 2 0.424023 0.281559 0.627018
797 4 0.419871 0.278214 0.602687
798 4 0.428174 0.284905 0.65135
815 4 0.458026 0.336867 0.602417
3494 4 0.0135378 0.383756 0.599458
3493 2 0.0370062 0.389265 0.598074
3495 4 0.0604747 0.394774 0.59669
3960 4 0.0806026 0.395745 0.598513
3958 2 0.0952163 0.407837 0.612836
2309 4 0.121578 0.412247 0.641575
2308 2 0.142417 0.417022 0.653224
3122 4 0.266553 0.405497 0.668241
1239 4 0.324776 0.392886 0.586714
1237 2 0.339374 0.388766 0.607058
1238 4 0.353973 0.384645 0.627402
4197 4 0.360489 0.386817 0.645117
4195 2 0.384936 0.387611 0.640571
4196 4 0.409384 0.388405 0.636025
4086 4 0.429083 0.377982 0.637967
4084 2 0.439335 0.355431 0.629453
4085 4 0.449588 0.332881 0.620939
3512 4 0.00659608 0.485098 0.587942
4129 2 0.0270993 0.475558 0.638189
4130 4 0.0399713 0.45229 0.638408
4131 4 0.0142274 0.498827 0.63797
3959 4 0.10983 0.419929 0.627158
2310 4 0.163256 0.421797 0.664873
2038 2 0.27624 0.439163 0.648702
2039 4 0.27775 0.419998 0.664685
1815 4 0.271388 0.470881 0.617876
2040 4 0.27473 0.458329 0.63272
1813 2 0.292081 0.481688 0.615499
1814 4 0.312774 0.492496 0.613121
2978 4 0.0234928 0.043152 0.740611
2996 4 0.12853 0.0637599 0.677622
2374 2 0.157355 0.00254709 0.737788
2995 2 0.152386 0.0518009 0.678451
3001 2 0.215022 0.0389955 0.669831
3002 4 0.1925 0.0314553 0.667535
2997 4 0.176242 0.0398419 0.679281
1126 2 0.211096 0.0150694 0.743986
4500 4 0.223953 0.0764131 0.711727
2376 4 0.171721 0.0176533 0.748527
3003 4 0.237545 0.0465356 0.672126
1127 4 0.233116 0.0115345 0.731642
223 3 0.257164 0.0495056 0.668467
221 1 0.270344 0.0661861 0.671464
222 3 0.287195 0.0589016 0.686631
3086 4 0.25019 0.0187009 0.724893
2460 4 0.303564 0.0691319 0.687285
3085 2 0.259429 0.000571535 0.708883
2258 4 0.371448 0.0372177 0.676357
2458 2 0.320181 0.0797613 0.700576
1469 4 0.367223 0.0569783 0.677325
2257 2 0.395072 0.0270529 0.682516
2259 4 0.418696 0.0168882 0.688676
918 4 0.419033 0.0338759 0.69921
916 2 0.441997 0.033164 0.709337
917 4 0.464961 0.0324521 0.719463
3234 4 0.480362 0.025718 0.731943
1195 2 0.0186836 0.152595 0.727965
1197 4 0.0370265 0.146049 0.711137
4080 4 0.055808 0.146032 0.721388
4078 2 0.0746939 0.155839 0.731906
4498 2 0.212735 0.0832057 0.733554
724 2 0.215377 0.13942 0.677523
725 4 0.230266 0.133124 0.697342
224 3 0.257148 0.0853393 0.679765
4164 4 0.240803 0.11855 0.708842
4162 2 0.264677 0.116571 0.716985
4163 4 0.288551 0.114592 0.725128
2459 4 0.336798 0.0903906 0.713867
1133 4 0.352579 0.0905137 0.701931
1132 2 0.371821 0.102211 0.708455
1134 4 0.391063 0.113909 0.71498
3377 4 0.407978 0.106069 0.725727
3376 2 0.42793 0.103783 0.7411
4079 4 0.0935799 0.165646 0.742424
1308 4 0.11502 0.16485 0.743061
3452 4 0.0792045 0.212344 0.739505
3451 2 0.0922762 0.230298 0.732531
3108 4 0.12323 0.238537 0.723606
1306 2 0.13137 0.175283 0.729218
3453 4 0.105348 0.248252 0.725558
1307 4 0.147721 0.185715 0.715375
1079 4 0.167191 0.184106 0.723129
1078 2 0.190061 0.182954 0.733579
1080 4 0.212931 0.181801 0.744029
3465 4 0.231996 0.17298 0.736976
3098 4 0.251443 0.205305 0.71898
3097 2 0.26962 0.212636 0.704943
3099 4 0.287797 0.219967 0.690906
669 4 0.305899 0.215884 0.681268
516 4 0.479163 0.171268 0.673738
514 2 0.497464 0.184888 0.678235
3751 2 0.463764 0.249951 0.734589
3246 4 0.0484805 0.282122 0.670254
3244 2 0.0659574 0.289152 0.685411
3245 4 0.0834343 0.296182 0.700569
3117 4 0.102764 0.290812 0.695876
3115 2 0.115148 0.310405 0.696585
1112 4 0.0704684 0.307702 0.743758
3116 4 0.127532 0.329998 0.697294
3106 2 0.133515 0.256696 0.712585
3107 4 0.1438 0.274855 0.701563
2048 4 0.144947 0.328755 0.707519
2915 4 0.31603 0.287083 0.684556
4251 4 0.325926 0.284784 0.702305
4249 2 0.333993 0.295429 0.722711
4250 4 0.34206 0.306073 0.743118
1028 4 0.359411 0.312375 0.742904
863 4 0.383926 0.260001 0.69097
862 2 0.397554 0.272725 0.676207
3753 4 0.47304 0.259267 0.714035
1202 4 0.488788 0.258455 0.701266
2047 2 0.16753 0.336114 0.710058
2049 4 0.190113 0.343474 0.712598
2741 4 0.161364 0.390036 0.734116
2016 4 0.178319 0.390619 0.722589
2014 2 0.171432 0.406962 0.704155
4320 4 0.197096 0.357526 0.702861
4318 2 0.221545 0.360138 0.702797
4319 4 0.245993 0.362751 0.702734
3121 2 0.260038 0.392709 0.687948
3123 4 0.253523 0.379921 0.707655
1068 4 0.282827 0.377363 0.731095
1066 2 0.30117 0.391457 0.729585
1067 4 0.319513 0.405552 0.728076
137 3 0.33924 0.406037 0.733866
2243 4 0.417742 0.391109 0.71192
2242 2 0.436698 0.400105 0.723248
2244 4 0.455654 0.4091 0.734576
1008 4 0.475035 0.407629 0.727649
1006 2 0.497837 0.393395 0.72879
3075 4 0.00292177 0.457985 0.691196
3073 2 0.0204656 0.469728 0.701687
3074 4 0.0380094 0.48147 0.712178
3653 4 0.0424874 0.498548 0.717618
1204 2 0.0857718 0.436785 0.726837
1205 4 0.0667606 0.424551 0.732824
2015 4 0.164544 0.423305 0.68572
1206 4 0.104783 0.449018 0.720849
2129 4 0.114287 0.462544 0.713932
2128 2 0.135573 0.452095 0.702474
2130 4 0.156859 0.441647 0.691017
3176 4 0.172049 0.450364 0.695991
3223 2 0.240923 0.501875 0.703795
3175 2 0.190157 0.464539 0.692978
3177 4 0.208264 0.478715 0.689965
3225 4 0.222449 0.48866 0.698629
138 3 0.334269 0.443021 0.727234
136 1 0.349703 0.424699 0.734045
140 3 0.367692 0.421487 0.719799
3327 4 0.381051 0.42848 0.705392
3325 2 0.397423 0.442319 0.714784
3326 4 0.413796 0.456159 0.724175
3476 4 0.429794 0.463057 0.735466
3475 2 0.45493 0.460547 0.732804
3477 4 0.480066 0.458036 0.730141
1065 4 0.0473393 0.00705602 0.787063
2977 2 0.0282541 0.0242452 0.756881
2051 4 0.00534157 0.0701894 0.834469
2050 2 0.00554982 0.0537215 0.815811
1063 2 0.0697266 0.0136725 0.792693
2979 4 0.0330154 0.00533832 0.773151
2052 4 0.00575806 0.0372536 0.797153
1064 4 0.092114 0.0202891 0.798323
3067 2 0.109199 0.0796618 0.775241
3068 4 0.127919 0.0674224 0.789184
3393 4 0.146242 0.0708519 0.788791
3486 4 0.164124 0.0152911 0.826031
1128 4 0.189075 0.0186043 0.75633
2999 4 0.170849 0.0307195 0.818212
2998 2 0.189414 0.0446066 0.818748
3000 4 0.207978 0.0584937 0.819285
42 3 0.22296 0.0635959 0.831684
3391 2 0.165943 0.079073 0.778024
4150 2 0.25743 0.00296276 0.777356
4152 4 0.27883 0.0122667 0.781198
1049 4 0.287985 0.0112068 0.800164
1048 2 0.312124 0.0105742 0.807018
1050 4 0.336262 0.00994157 0.813872