LAMMPS data file via write_data, version 4 Feb 2025, timestep = 4000, units = lj

64 atoms
4 atom types
48 bonds
1 bond types
56 angles
2 angle types

-2.5 2.5 xlo xhi
-2.5 2.5 ylo yhi
-2.5 2.5 zlo zhi
0 0 0 xy xz yz

Masses

1 1
2 1
3 0.1
4 0.1

Bond Coeffs # harmonic/omp

1 100 0.45

Angle Coeffs # harmonic/omp

1 100 180
2 100 109.471

Atoms # full

9 2 3 0 -1.7540888234549565 -1.7858512411942158 -2.481657026252934 -1 -1 2
10 2 3 0 -2.245376025694506 -2.2302123237241016 -2.1611594916833137 -1 -1 2
28 6 3 0 -2.201534933627881 -0.637994810247275 -1.7789088051906286 3 1 1
34 7 3 0 -1.3701127020288488 -2.260927571347359 0.45527714377291373 2 1 0
33 7 3 0 -0.6771846011385896 -2.1116557352672154 0.517394156074189 2 1 0
42 9 4 0 -0.699513454045152 -2.0377294056340878 0.13287600092042595 -1 -1 0
41 9 2 0 -0.3629012192398271 -1.7645133311971 0.015715944069944587 -1 -1 0
31 7 1 0 -1.0009537818462055 -2.3098195511628634 0.7026003652970614 2 1 0
43 9 4 0 -0.014976324379158967 -1.4936349426549587 -0.10670325188955587 -1 -1 0
52 12 4 0 -0.8701091608281097 1.8765481629127763 0.6277912056313939 1 -1 0
32 7 3 0 -0.9061700431187236 2.253402587543585 0.7365270846023568 2 0 0
8 2 3 0 -1.8619286299221298 -2.423737848061278 2.2416651460927897 -1 -1 1
6 2 1 0 -2.0524395298246407 -2.085757254618934 2.440423612430738 -1 -1 1
7 2 3 0 -2.368099185615197 -1.9096195661060307 2.171689573727445 -1 -1 1
35 7 3 0 -1.0689604723392687 -2.135956073177039 1.1233352131780543 2 1 0
15 3 3 0 -1.829232236187337 1.3676067066424435 1.5722158612490649 -2 -3 0
12 3 3 0 -1.6905328750475568 1.0746702621310567 2.215440044471684 -2 -3 0
11 3 1 0 -1.5495964134665223 1.3688142924706281 1.8892881698081103 -2 -3 0
51 12 4 0 -1.1327286396687517 1.3387677711765145 1.3315627239854866 1 -1 0
14 3 3 0 -1.1321102896991706 1.2290400473623775 1.726073742531586 -2 -3 0
13 3 3 0 -1.5103316875338169 1.7758275035492659 2.0645701713028517 -2 -3 0
50 12 2 0 -0.9978370416299587 1.617607735088086 0.9696960674035502 1 -1 0
47 11 2 0 0.700307370432669 -2.310551430012111 -0.9526773815461753 1 1 1
59 15 2 0 1.5052785904480475 -0.8708799737873507 -0.9522887271909282 1 0 2
61 15 4 0 1.7746947916402345 -0.7738849682488631 -1.2889506028869908 1 0 2
27 6 3 0 2.08829640598318 -0.7005394988352749 -1.5654730026540125 2 1 1
29 6 3 0 2.2817813809399015 -0.9254993686524216 -2.2528984376627106 2 1 1
26 6 1 0 2.363948479061505 -0.6126316825879385 -1.9104870590110525 2 1 1
30 6 3 0 2.280797788733783 -0.19519565372085435 -2.0689219014420095 2 1 1
23 5 3 0 1.135206069836166 1.6081544614650154 -1.8892765187297993 2 0 0
22 5 3 0 0.9789633994801816 2.2786079940609145 -1.5604390976752387 2 0 0
48 11 4 0 0.888070220437132 2.36516256597233 -1.1830755746465107 1 0 1
45 10 4 0 1.5380053866881296 2.348601455264136 -2.3540898852320726 2 1 1
58 14 4 0 1.632198509537191 1.9410070988961134 -0.9225555376648631 1 -1 1
24 5 3 0 1.5570979754131722 2.2207664034390096 -2.0005942364696367 2 0 0
25 5 3 0 1.5822827279769296 1.884535270410085 -1.3262651880960472 2 0 0
21 5 1 0 1.318927443504756 2.0043306536936782 -1.6992303721526532 2 0 0
55 13 4 0 0.7506053249507882 -1.849966545602849 0.4188124820110595 2 1 1
4 1 3 0 0.6862173095175095 -1.7490095195097473 -0.440277135347662 1 1 0
53 13 2 0 1.0577460691898652 -2.1472081779617143 0.5743833795214548 2 1 1
49 11 4 0 0.5155026820202089 -1.9877442314170024 -0.7315279336497116 1 1 1
54 13 4 0 1.3586573979555494 -2.4416873738422216 0.747789862651751 2 1 1
1 1 1 0 0.6464406435169638 -1.3706616299774175 -0.18422385901365113 1 1 0
2 1 3 0 0.7638083540478413 -1.4822604532472408 0.2511458480030315 1 1 0
3 1 3 0 0.9187888274910216 -1.0665079173364111 -0.34372072397211184 1 1 0
5 1 3 0 0.2293495431683108 -1.220611487875505 -0.19510558994100702 1 1 0
60 15 4 0 1.2183033909492647 -0.9684994500472577 -0.5997432780924972 1 0 2
38 8 3 0 2.0932919590071135 0.3823805670207623 -0.018831449364454578 1 -1 1
37 8 3 0 1.4196091368546164 0.6658991071412235 0.15808406154297394 1 -1 1
64 16 4 0 1.8659011115543747 1.2053561709604281 0.3960294710831209 3 1 1
40 8 3 0 1.988481052867206 1.1040143141563767 0.040276696051841476 1 -1 1
36 8 1 0 1.80039704488064 0.7350500704129503 -0.08614539779797958 1 -1 1
39 8 3 0 1.6861813508553212 0.7591843671229936 -0.5353815718629602 1 -1 1
57 14 4 0 1.8435677204981076 1.086138139299453 -0.7353182325043237 1 -1 1
62 16 2 0 2.055633340679152 1.5044383547420752 0.6606216201924013 3 1 1
56 14 2 0 1.742438614446601 1.5039626735027731 -0.826943893439751 1 -1 1
19 4 3 0 2.0152751921293994 -2.120653530163585 1.2575254571663352 2 1 0
18 4 3 0 1.4839123896039808 2.419083802016768 1.0839006715190407 2 0 0
44 10 2 0 1.8742314936845865 2.3084577878737065 2.309518935666965 2 1 0
63 16 4 0 2.2497732756831743 1.8230209777012458 0.924712702702204 3 1 1
20 4 3 0 2.1913160154247437 2.213299951510371 1.0016797266340682 2 0 0
46 10 4 0 2.1921387588482872 2.2627544578717256 1.9792745516311037 2 1 0
17 4 3 0 1.9012413429240134 2.313147307745292 1.671217022794302 2 0 0
16 4 1 0 1.8922814249903634 2.4627445512496973 1.2549321902543276 2 0 0

Velocities

9 -0.1838274364019613 -0.05651248263297262 -0.8782121608543997
10 1.1860274222635625 -0.2932529615308395 -0.6100609216183666
28 0.4746321813311707 -0.5064129424736822 0.0327168456890771
34 0.8777274585887284 0.9448513820650454 -0.7802067024706257
33 0.7256271720689769 0.9049154918455194 0.5748558442394254
42 0.10944282290196322 -0.21833711590036287 0.6457119860203805
41 0.5843405752879226 0.16137788664878008 -0.10814850015907455
31 -0.3716132000623046 0.13601388621203392 -0.04389659811904373
43 1.4733459188121225 0.35015801773938854 0.8587173720894739
52 1.1317032075235467 0.10495849412459074 0.3243397257901022
32 -0.6620732168994785 0.4815479868948564 0.9005582705939478
8 0.29886777027541345 0.21520310439780627 0.7203747001446892
6 0.7959069084390661 -0.07413602717586734 0.01283764327859383
7 0.90103113301023 0.8392646037862455 1.5819641642626807
35 0.15750219411182467 1.8058974864451016 -1.9805422956902863
15 -0.03767104296943802 -1.6632430520234969 -0.5025891557761305
12 0.5506121634753856 -0.7158034268682311 0.6393095569383903
11 0.6997376999371779 -0.748059366615045 -0.2935241213614079
51 0.9097617614711699 0.6379276673874733 -0.26824348870123427
14 0.8461900867341442 0.41590086144690563 1.4500928780140379
13 0.35936233555141606 1.3635020460194525 1.484450103240385
50 0.866965483207585 0.2578258792558322 -0.026343585170496443
47 0.6849607150952136 0.2464330457476935 -0.09375525269012448
59 0.2899858236776923 -0.09408100226050391 0.06662264685165623
61 0.44213824111394967 0.5538692026292847 -0.33121016982034746
27 -0.8305361573540334 -0.8769268712450522 0.3571872212447036
29 0.12646557037011252 -1.5878258875227658 1.3116453665019376
26 0.31012248270842785 0.06987439687573119 0.47613307381773595
30 1.6257459655079392 -0.5775670446628173 -0.2559587989449299
23 1.2133931500374526 -0.1092223894052823 0.3177229817211758
22 0.8583501426296262 0.2637244304406754 -0.26224429576165464
48 1.5898056231887305 -0.11849423700206302 0.3557663904127034
45 2.2463176572925967 0.8912615269339644 1.0585708853392808
58 0.5513761215089831 0.6913993513051622 -1.1158404853259176
24 1.8771514787646864 0.2940454054260264 -1.0594460450511656
25 2.478221244173893 -0.8900100435357385 -0.3706091975795742
21 0.9409730252173863 -0.02285008904146892 -0.06003626146517868
55 0.14974583260124216 -0.17448328203099417 0.6877844478576616
4 -0.24474806956509185 -0.904228356189455 0.0021171909209470596
53 -0.04574046088812471 0.017684355845981235 -0.4026408743847553
49 1.1225719973376649 0.017121488880286775 0.9323839154110968
54 0.460728545540951 -0.2590318770700935 -0.19824465305955175
1 0.11029005514491308 -0.17355146828977716 0.48177959309851837
2 0.007842857290208033 0.052010468241312585 -0.6965744535840854
3 0.7878333888735582 0.6789374163907317 -0.5817329945959462
5 1.1195388709726561 0.17902297692023525 -1.560306200697575
60 0.8222097750344544 -0.2676207454829005 2.6671897442806634
38 1.286588189022214 -0.310137354056234 1.1517008272700162
37 1.2212374393332595 0.6721177340264901 -0.6261637670851439
64 1.453481411276395 -0.15054350619911147 0.5044399531761025
40 1.0868514566978709 0.027691680672540357 0.35237254167061616
36 1.1542735470108543 -0.21577922850914244 0.4637954642227386
39 1.611505562334099 -0.5775249908678495 1.9318940472193187
57 1.2376928236445979 -0.4048147455311954 -0.9770875830041945
62 0.5667037324328921 0.2417787403694237 -0.36485552547830186
56 0.4552141971551694 0.3342996322620705 -0.021852604314914894
19 0.5645997766404272 0.08054201673319841 -0.8952834491020275
18 0.7980007429277297 0.00548527255524827 -1.2985047498980988
44 0.5274452588821739 0.00035628843289452075 -0.2897902388745335
63 -0.16711936294480312 -0.9031416955284127 0.16933970816326238
20 1.0126640225427632 -0.02033179916339869 0.5885731588873842
46 0.823826406404868 1.024995399220241 0.9949373466193426
17 1.6486919793884667 -0.35780527563038583 0.12744469090185845
16 0.9902972597243119 -0.2942501921512612 -0.5369160769413706

Bonds

1 1 41 42
2 1 41 43
3 1 31 32
4 1 31 33
5 1 31 34
6 1 31 35
7 1 6 7
8 1 6 8
9 1 6 9
10 1 6 10
11 1 11 12
12 1 11 13
13 1 11 14
14 1 11 15
15 1 50 51
16 1 50 52
17 1 47 48
18 1 47 49
19 1 59 60
20 1 59 61
21 1 26 27
22 1 26 28
23 1 26 29
24 1 26 30
25 1 21 22
26 1 21 23
27 1 21 24
28 1 21 25
29 1 53 54
30 1 53 55
31 1 1 2
32 1 1 3
33 1 1 4
34 1 1 5
35 1 36 37
36 1 36 38
37 1 36 39
38 1 36 40
39 1 62 63
40 1 62 64
41 1 56 57
42 1 56 58
43 1 44 45
44 1 44 46
45 1 16 17
46 1 16 18
47 1 16 19
48 1 16 20

Angles

1 1 42 41 43
2 2 32 31 33
3 2 32 31 34
4 2 32 31 35
5 2 33 31 34
6 2 33 31 35
7 2 34 31 35
8 2 7 6 8
9 2 7 6 9
10 2 7 6 10
11 2 8 6 9
12 2 8 6 10
13 2 9 6 10
14 2 12 11 13
15 2 12 11 14
16 2 12 11 15
17 2 13 11 14
18 2 13 11 15
19 2 14 11 15
20 1 51 50 52
21 1 48 47 49
22 1 60 59 61
23 2 27 26 28
24 2 27 26 29
25 2 27 26 30
26 2 28 26 29
27 2 28 26 30
28 2 29 26 30
29 2 22 21 23
30 2 22 21 24
31 2 22 21 25
32 2 23 21 24
33 2 23 21 25
34 2 24 21 25
35 1 54 53 55
36 2 2 1 3
37 2 2 1 4
38 2 2 1 5
39 2 3 1 4
40 2 3 1 5
41 2 4 1 5
42 2 37 36 38
43 2 37 36 39
44 2 37 36 40
45 2 38 36 39
46 2 38 36 40
47 2 39 36 40
48 1 63 62 64
49 1 57 56 58
50 1 45 44 46
51 2 17 16 18
52 2 17 16 19
53 2 17 16 20
54 2 18 16 19
55 2 18 16 20
56 2 19 16 20
