LAMMPS data file via write_data, version 19 Nov 2024, timestep = 1000000, units = lj

160 atoms
4 atom types
110 bonds
1 bond types
75 angles
2 angle types

-3.758247 3.758247 xlo xhi
-3.758247 3.758247 ylo yhi
-3.758247 3.758247 zlo zhi

Masses

1 1
2 1
3 0.1
4 0.1

Bond Coeffs # harmonic/omp

1 100 0.45

Angle Coeffs # harmonic/omp

1 100 180
2 100 109.471

Atoms # full

93 28 4 0 -3.4363980841658357 -3.691853012091055 -2.119012672737668 0 1 1
54 15 4 0 -3.3412775477820733 -3.6014970784060734 -2.4919645043171337 0 0 1
44 12 2 0 -0.05674048734524304 -1.4341847442444209 -3.668205656096114 -1 0 1
139 43 4 0 -0.9710810550717325 -2.4380800416372472 1.773833556833483 1 1 0
137 43 2 0 -1.2336486978349088 -2.1331253916723507 1.9540530529568259 1 1 0
153 48 4 0 -0.967150690549999 -0.6021423345630859 1.0516014126923865 0 1 0
152 48 2 0 -0.9699619315289535 -0.1548727349702419 1.0884733230470511 0 1 0
141 44 4 0 -0.22672386162522104 -1.4552289407644141 0.8976110238458442 0 1 0
140 44 2 0 -0.595564028932364 -1.2203481359568729 1.0285196457408483 0 1 0
142 44 4 0 -0.9585397737430235 -0.9893818645068965 1.168372860188695 0 1 0
31 7 4 0 -1.4866680892371675 -1.7649240667008148 2.515665070769742 0 0 -1
138 43 4 0 -1.5101243466474363 -1.8189108025996135 2.129490314492055 1 1 0
119 37 2 0 -2.5579882898338346 -0.6306496497679244 2.772937762220982 0 0 0
120 37 4 0 -2.8663986319586483 -0.36964154426027446 2.966827650533156 0 0 0
60 17 4 0 -3.183803018350819 -0.17879020125276748 3.1421237993125963 0 0 0
59 17 2 0 -3.585293983212457 -0.3138171490599451 3.080852463183046 0 0 0
121 37 4 0 -2.2640178769023476 -0.8805096582353861 2.5930748753602546 0 0 0
30 7 4 0 -2.2059420054696597 -1.2597547822480586 2.671621924899371 0 0 -1
29 7 2 0 -1.841513171218222 -1.5210584605870459 2.5933332742570503 0 0 -1
46 12 4 0 -0.38315455877674676 -1.3847095478272526 3.583307525481197 -1 0 0
106 32 4 0 -0.9703125047155045 -0.5120758043833854 3.0360860579330726 0 0 0
104 32 2 0 -0.8669091813945811 -0.9101133087057505 3.247601300528995 0 0 0
105 32 4 0 -0.7591620103692568 -1.3198669543141577 3.4757441505720768 0 0 0
133 41 4 0 -3.4483276134778227 1.5833199820600496 -3.023599471642757 1 0 1
136 42 4 0 -3.358512430496627 1.8176713271535903 -3.3369093796027185 1 0 1
134 42 2 0 -3.0541887840329833 1.9953257913838345 -3.6265381632030085 1 0 1
77 23 2 0 -2.4928245472053434 3.3270730645405724 -3.6682582114625006 0 0 0
55 15 4 0 -2.904044950912163 3.494078220581417 -3.1577152780666533 0 -1 1
78 23 4 0 -2.7793318258592095 3.6245998534317665 -3.5343135895767146 0 0 0
5 1 3 0 -1.9004648048469202 2.7666061018816284 -3.7322655368983813 0 -1 1
89 27 2 0 -1.2028856237826866 1.9865857312297577 -3.207481840723313 0 0 1
88 26 4 0 -0.48299419702954466 2.1658405763644253 -2.953905812654754 0 0 1
91 27 4 0 -1.5422977187914777 1.9659703490196068 -3.442355078400754 0 0 1
63 18 4 0 -0.09860837423213892 3.7100124042177676 -2.3213053647864554 0 0 0
90 27 4 0 -0.8386649451547868 2.009567175223961 -2.9575817896163454 0 0 1
86 26 2 0 -0.07046876830156254 2.1651995195487674 -2.8561427405610145 0 0 1
53 15 2 0 -3.1220994799835955 3.706923783090553 -2.8220163287406144 0 -1 1
147 46 4 0 -1.6593685107746161 1.1857838892221253 1.2222237497325215 0 1 0
146 46 2 0 -1.3512751797734721 0.9002755124486541 1.0565903115157291 0 1 0
67 19 4 0 -1.720220368220103 1.2472247354179913 1.611052399625001 0 0 0
65 19 2 0 -2.031540967139738 1.5736032886391038 1.7654069432983908 0 0 0
148 46 4 0 -1.0141507797706935 0.609496997562272 0.8967403995716364 0 1 0
154 48 4 0 -0.9750102945215752 0.26499990807632845 1.117999028698665 0 1 0
135 42 4 0 -2.756912502270167 2.175333303056191 3.6040927768850866 1 0 0
66 19 4 0 -2.324035814891935 1.8900949142910692 1.918730553940092 0 0 0
50 14 2 0 -2.166128996979462 2.392827970089667 2.480507052486217 0 -1 0
51 14 4 0 -2.1895752320512853 2.5547694905081766 2.8997135760042916 0 -1 0
1 1 1 0 -1.9591606461834647 2.385425442120576 3.583225254946512 0 -1 0
52 14 4 0 -2.1391185983788956 2.231893327375983 2.059433674324258 0 -1 0
3 1 3 0 -1.8839145709200904 2.437133979078135 3.1346076980183133 0 -1 0
4 1 3 0 -2.381377974598118 2.2301443908524443 3.6610743000536354 0 -1 0
79 23 4 0 -2.194057612353023 3.016926165210357 3.705762941114514 0 0 -1
2 1 3 0 -1.6670921548882554 2.100206670766681 3.736677385650708 0 -1 0
94 28 4 0 3.1955287858647776 -3.753222122456335 -1.8378671221567953 -1 1 1
45 12 4 0 0.30777285785655234 -1.4937467771748694 -3.383999471715849 -1 0 1
111 34 4 0 0.08604106632373501 -3.633474358060141 -2.6527143806893783 0 1 1
19 4 3 0 1.769611080177193 -3.5572113154440603 -2.0542715969267764 0 1 1
115 35 4 0 2.0568894530704926 -3.2824549510737455 -2.1221718170067208 0 0 1
113 35 2 0 2.2000131840624455 -3.0017538139038327 -2.480778446922167 0 0 1
114 35 4 0 2.3389778598006075 -2.744256833180384 -2.823969626653707 0 0 1
123 38 4 0 2.6718656080897025 -2.5435631945032915 -2.867484167513642 0 0 1
92 28 2 0 3.62361388042869 -3.7199739009495225 -1.9754661497268207 -1 1 1
122 38 2 0 2.7768487086781506 -2.4793560530468133 -3.323271663852747 0 0 1
56 16 2 0 0.9685786157897994 -1.520544007059956 -3.2581331769901447 -1 0 1
57 16 4 0 0.5708092226427418 -1.49720121793454 -3.0855693178249313 -1 0 1
109 33 4 0 1.5525099718286939 -1.3469252070266895 -3.7272994722685695 -1 0 1
58 16 4 0 1.3724005526894212 -1.5381509526224544 -3.4184376384731316 -1 0 1
124 38 4 0 2.8689520424307493 -2.4124407561848518 -3.7332861768943273 0 0 1
72 21 4 0 2.1431520025256927 -0.14127449870729233 -0.05295663372813905 0 0 0
117 36 4 0 0.12450935195217537 -1.2544730910318325 0.9938694085776055 0 0 0
116 36 2 0 0.5242172790265559 -1.0286685247522367 1.0798942177364643 0 0 0
118 36 4 0 0.92663657123432 -0.8060313774126819 1.1697342375518762 0 0 0
130 40 4 0 0.8827824515002801 -0.6643395843680964 1.537165730277197 0 1 0
80 24 2 0 1.6740071012588504 -0.6701020132485931 0.42604854877390474 0 0 0
81 24 4 0 1.8230216547265685 -0.3248019718174301 0.1564112613878315 0 0 0
128 40 2 0 1.0409480253571006 -0.47094840507840247 1.91678952900566 0 1 0
82 24 4 0 1.5203985465347525 -1.0039531389845455 0.6896420519841285 0 0 0
40 10 4 0 1.473972760008413 -0.024395180041427315 2.466859415623882 -1 0 0
103 31 4 0 2.9932353010184776 -2.4296716269564334 3.4083679023780595 0 0 -1
101 31 2 0 2.930905593106109 -2.0390725504214267 3.1941655208223745 0 0 -1
107 33 2 0 1.9622569764411772 -1.1940266964900452 3.732913529544981 -1 0 0
24 5 3 0 2.687817417810848 -0.8551799774794752 3.4964444345423873 0 1 0
25 5 3 0 2.5417220821029094 -0.5953167705555168 2.81642858103687 0 1 0
129 40 4 0 1.2118866753625464 -0.2715925137374474 2.294534624206138 0 1 0
102 31 4 0 2.8640826682147282 -1.6600979918073522 2.9712077909612975 0 0 -1
108 33 4 0 2.385313892598271 -1.023462633918324 3.6855124950644367 -1 0 0
39 10 4 0 2.3779402911108893 -0.26950530741334694 2.6571766495275795 -1 0 0
21 5 1 0 2.815473801368234 -0.8653537788072315 3.080617184790662 0 1 0
61 17 4 0 3.5129983933530005 -0.45840951081004366 3.012708868440089 -1 0 0
22 5 3 0 3.219543932354326 -0.7222018662672451 3.052331993814698 0 1 0
38 10 2 0 1.927883457840719 -0.14582091047064175 2.5598801183224205 -1 0 0
23 5 3 0 2.8113733583211635 -1.260577544046105 2.9311186446446484 0 1 0
14 3 3 0 2.2296543010526557 1.6370073839758517 -2.9661944148307455 0 0 1
11 3 1 0 2.554605551194122 1.817596276232913 -3.150521312829958 0 0 1
15 3 3 0 2.52188106507541 1.766167313575523 -3.5887032912972354 0 0 1
131 41 2 0 3.62545285282163 1.4489753926127733 -3.02159060952279 0 0 1
132 41 4 0 3.208459324035432 1.3259648238048916 -3.0200055030594917 0 0 1
13 3 3 0 2.9186961410346415 1.6272351638169382 -3.0212749592264365 0 0 1
64 18 4 0 0.2404909328352849 3.6204952468034697 -1.4815360614827835 0 0 0
17 4 3 0 1.523030971911293 3.3755996747122494 -2.5016196582485604 0 0 1
83 25 2 0 0.9903390341361041 2.744545223538843 -2.6858500394560156 0 0 1
84 25 4 0 1.393198349003769 2.9735452303705903 -2.6011142864733 0 0 1
85 25 4 0 0.5823787935212406 2.5148622264649925 -2.779203609280094 0 0 1
87 26 4 0 0.3856329545480984 2.1583379885693357 -2.751941668354528 0 0 1
95 29 2 0 2.634062606532531 3.5082818039564065 -1.4417416309365514 0 -1 0
157 49 4 0 2.350130243811525 3.030735353660895 -2.3447019200659294 0 0 1
18 4 3 0 2.207850190063714 3.362170983188195 -2.201374417340645 0 0 1
12 3 3 0 2.573689961336995 2.2706933356577244 -3.037899709936594 0 0 1
156 49 4 0 2.7731655620150177 2.6243033801991724 -3.0131918087847698 0 0 1
155 49 2 0 2.5546769378479737 2.83184354586405 -2.668378264981178 0 0 1
16 4 1 0 1.7882081504862817 3.4851579878457475 -2.126219908069977 0 0 1
96 29 4 0 2.483224360362809 3.359682735634581 -1.027707564779844 0 -1 0
125 39 2 0 2.5072182972243366 1.711190404005029 -1.376651954325394 0 0 0
126 39 4 0 2.842190772496019 1.444097561779178 -1.2031325768637398 0 0 0
27 6 4 0 3.111607188990028 1.1221402066272026 -1.1620669077415975 0 0 0
26 6 2 0 3.0394692415409685 0.924242506755834 -0.7534432906067557 0 0 0
28 6 4 0 2.9670511550104757 0.7241170604669294 -0.3412693673222636 0 0 0
10 2 3 0 3.0713557550523642 0.8970712138565639 -0.006342215051212357 0 0 0
43 11 4 0 0.4452409681933377 3.259699445073025 -1.5079003917110794 0 0 0
62 18 2 0 0.06581462662626449 3.6647882815834767 -1.8938815149079966 0 0 0
110 34 2 0 0.141969269690787 3.7005561095990407 -3.1038247088712443 0 0 1
70 20 4 0 2.099847945475458 2.2880553396236554 -1.356836341868507 0 0 0
34 8 4 0 1.6523346405676664 2.3306146770201743 -0.014485364993649158 0 0 0
42 11 4 0 0.7545306518722111 2.8781895999915994 -0.713787756659442 0 0 0
41 11 2 0 0.6031289742581565 3.062124657586487 -1.1012028586923597 0 0 0
33 8 4 0 1.053734408204426 2.625121138549571 -0.5898663776278754 0 0 0
32 8 2 0 1.3592550722675267 2.479096184451837 -0.2992241868440187 0 0 0
68 20 2 0 1.861265136308781 2.7045985683012552 -1.369341708304329 0 0 0
69 20 4 0 1.6447358228581748 3.0873871129930137 -1.3777878384255173 0 0 0
127 39 4 0 2.1888497928011543 1.9542588766112612 -1.5460546897843224 0 0 0
20 4 3 0 1.6179854611373266 3.265471437131007 -1.7436637797319032 0 0 1
97 29 4 0 2.785686400697026 3.660161138742867 -1.8242763864594986 0 -1 0
112 34 4 0 0.1971740253044316 3.5336074635358328 -3.5316177614182576 0 0 1
150 47 4 0 0.16732545654876813 3.4884905470020997 3.580770721290967 0 0 0
71 21 2 0 2.346211769526644 0.14119516250755515 0.22741566422264278 0 0 0
73 21 4 0 2.569541913206046 0.4422064141255652 0.505209210665718 0 0 0
9 2 3 0 2.9127325189795163 0.5704163126722918 0.6505458634583897 0 0 0
8 2 3 0 3.5533755833443195 1.0220806308930719 0.5604984330998019 0 0 0
49 13 4 0 2.5366786686127396 1.5443218593253374 0.4211456830060093 0 0 1
98 30 2 0 2.5623639097458555 2.308973745850789 1.749819005713373 0 -1 0
74 22 2 0 3.2217230454688726 3.1996421996901834 1.2723440205961705 0 0 0
75 22 4 0 2.971282667511546 2.8111014598612707 1.2452617909958597 0 0 0
100 30 4 0 2.920192573999141 2.444816289581387 1.4728743547263368 0 -1 0
76 22 4 0 3.4636104004612096 3.5748546636646 1.2937690959713855 0 0 0
36 9 4 0 1.833393033830662 2.0301407399614937 1.9635946800455197 0 -1 0
145 45 4 0 3.161421661451418 1.9563626639299796 2.862746923597925 0 0 0
143 45 2 0 2.900268022327621 1.9258949021431477 3.200828649848977 0 0 0
151 47 4 0 0.048364165797237 3.107110892919416 2.758001943860043 0 0 0
149 47 2 0 0.10677911271689702 3.303189110366551 3.176172918280571 0 0 0
35 9 2 0 1.3793847359838278 2.0167766289739717 2.0124526794931494 0 -1 0
160 50 4 0 0.05539223359449047 2.7438855356130154 2.598527011059511 0 0 0
159 50 4 0 0.5924756243226754 2.1082145218349275 2.277295419061238 0 0 0
158 50 2 0 0.32611115851482364 2.4265626294262637 2.435471514963733 0 0 0
37 9 4 0 0.9291054210844915 2.005008509460756 2.0668375310871414 0 -1 0
99 30 4 0 2.212149287728917 2.175870287168944 2.019935579659399 0 -1 0
144 45 4 0 2.6338636572881082 1.8844561434266471 3.5537376345605503 0 0 0
48 13 4 0 1.8665567569986712 2.111749523867863 0.2718465262051903 0 0 1
7 2 3 0 2.8553248121980537 1.3317242670445182 0.5629676032984211 0 0 0
6 2 1 0 3.0995991157829885 0.9582428387034013 0.4366842496352127 0 0 0
47 13 2 0 2.198468325718082 1.8324457951259479 0.34838926312586405 0 0 1

Velocities

93 -0.989248057067629 0.8956139043247738 -0.4712647456146667
54 0.48840448970072625 -0.22088923378774658 0.20296159403582395
44 0.011525609898242141 0.006269384409692167 0.21748780522609765
139 0.6028457199356094 1.377158199013917 0.5062550551977847
137 -0.29361120139467733 0.14260764520508762 -0.08036248726782824
153 1.6185776559820007 0.21307420987652212 0.035908897184831305
152 0.19607052512115714 -0.11342225379626386 0.19098823530530823
141 0.6113357366635443 -0.5893547060727251 -0.469851578979534
140 -0.19194538891315083 -0.08911421661961139 -0.006828964407542606
142 -0.2940708651749635 0.8425385545402801 -0.03942539806071228
31 0.039137369085131136 -0.30406165493589726 -0.5320024113032311
138 -0.3418585665365329 0.1721685187864415 0.4634430072011238
119 -0.17898999988899014 0.12154782238616851 -0.07169645905977484
120 -0.7959557680155747 -1.0770936573782985 0.32210196288863613
60 -1.0924004394221412 -0.012702177210651085 1.4976694575177092
59 -0.15990866144205443 -0.0899950822356915 0.22325669039414303
121 0.21814731839439236 0.1047735408875771 0.5004230365369836
30 -0.6353400079435854 -0.2034047775687569 0.8140197023675663
29 0.33381831381017 -0.007472476785219942 -0.07665517615530651
46 0.2573746923244604 0.6218488204506349 0.4561348583870408
106 -0.7812296859073846 1.055985355116372 -1.2535540489537618
104 0.16144979650935445 -0.10057034875280706 -0.055491667426421656
105 -0.11739747741577597 1.449871711194491 0.022410427179209443
133 0.46347991438378505 0.5161586070530763 1.0154417614795324
136 -0.5933378701153441 0.10216991248879823 -0.20539964413441608
134 0.2231645338721632 -0.005356726068123964 0.06165992939503595
77 0.13317592417230362 0.20116712858150965 -0.12818893872533826
55 -0.02475476572520002 0.6835391322327738 0.07726239119046711
78 -0.22871766204661123 -0.3560504301840323 0.020823562097971333
5 -1.0962763774238977 -0.12806347292500236 0.8876280006380324
89 -0.3916408498796362 0.008543524795798035 -0.15991875886985074
88 -1.9621868544785446 0.5865646938559279 0.000766566996776779
91 0.36709145546129124 0.052216898732903236 -0.33287782684565653
63 -0.3684079425438921 0.11808391280208412 0.6208713145997495
90 0.35127743599869116 -0.924966820400379 1.884609900835297
86 0.5382915387102047 -0.09456843110500397 -0.03593438941691769
53 0.1257799877655443 -0.03373734244535237 -0.19146397248211602
147 0.2554420610976835 0.5738386076799912 0.3213464721960081
146 -0.1925767656838662 -0.39631038233519617 -0.14643114503466287
67 -0.38904091690589154 -0.6549936592655341 -0.6447395408167543
65 -0.12382315088252824 0.08396200547742129 0.20665744927261398
148 -0.07320631171234845 -0.7587410965563266 0.4231079510803157
154 -0.05945661826890471 0.6061827530990653 0.12104092521396492
135 0.193204432718841 -0.9027669232687391 -0.7077974041086097
66 -2.2880674703632 0.7106629215576225 0.11408436104535227
50 0.19025255139525954 0.07168977109865106 -0.21426988128365868
51 0.2945763793747294 -1.0375485027827427 0.36032653161661093
1 -0.45371899529132387 -0.10516026629322345 -0.07501924608372663
52 0.6198446014006271 -0.02636189291266001 -0.7266661362679601
3 0.3500361386576922 -0.26660538698085756 0.6515848791614122
4 -1.1560381280158478 -1.0688862526588738 -0.5472845745496331
79 -0.07706072956497921 -0.6298417216006296 -1.4038997623805574
2 -0.34150024859519595 1.0755857195821883 0.026142885585743666
94 -0.000708406073388998 0.6163343538991757 -0.02173968165247046
45 0.22753855489356226 -0.007513176247888862 0.5071576246688475
111 1.5531298706325745 -0.011859934913904968 0.20600501389346576
19 -0.6661405162686546 0.8484096626033699 -0.07813739019913332
115 -1.3203349020369552 0.8115748396561737 -0.4366542007859936
113 -0.01870142421197434 -0.15364923559081411 -0.0306687919223543
114 -0.9365594454729917 -0.13727351937289828 0.8988914080024974
123 -0.22359509973319872 -0.5622056102995446 -0.02596924015412659
92 -0.14147802563677633 -0.185325867054861 0.22815344246614022
122 -0.12532055602978007 -0.04552042677301117 -0.3670183320666175
56 -0.4064654260626225 0.23329808544357672 -0.1629172515271044
57 0.006850467473510521 1.1245492217200632 0.7399816026296299
109 0.803489245248596 0.15443912411584676 -0.11846288738836419
58 0.18275531620781765 0.25196815914122805 -0.036671638638888476
124 0.8541614283603542 -0.757041291219718 1.91371067715202
72 0.02729176059005496 0.484260745776112 0.32207504595365793
117 -0.9129162745467997 0.19551137130074236 0.37521817312051864
116 -0.3634821935083559 -0.33270653789575055 0.02764174655740073
118 0.8339403849533082 0.5058909643396234 -0.7633759250842581
130 -0.5066903916129338 0.38566414362123563 0.749218699403645
80 -0.1735675163768977 -0.2972111053503983 0.30703501889197365
81 0.6817215671893423 -0.9727791435890877 -0.22571945488475723
128 -0.1111365936933475 0.3020817030104198 0.03208819507412762
82 -1.020153876365888 -0.25521936551917995 1.2709444622320911
40 0.3720670807035292 -1.4302304526388616 0.17020410152648188
103 -0.8372796110523766 0.1677392888300454 -0.5015708676576403
101 -0.126938107687168 -0.24606171094389886 0.16058434929351745
107 -0.1615448515329813 0.21777148044885314 -0.05011856476821019
24 0.5450056991118616 -0.8921875803258571 -0.2974476401551267
25 1.0404222222439337 -0.5319267884958807 -0.14455692890691996
129 -0.9925954773170869 0.07929567230306309 -0.6198658394286859
102 0.30718899488452317 0.28860505400592107 -1.4318801623359096
108 0.7489257150887626 -0.151677513771731 0.2225116053162461
39 -1.5783780985973255 0.6557600038899744 -0.12879046704631797
21 -0.009541299947481093 -0.19330650524956847 0.011973573690946019
61 1.3809150846562883 0.36866265008870824 -0.5761321351577634
22 -0.18529192634673652 -0.13224452546355506 0.22015392708508452
38 0.13184562092971597 0.19122225419001307 -0.01659469098770262
23 -1.2345093988955123 0.5452314636062997 -0.9097005247292563
14 -0.09180150624543612 -0.991263423666389 -0.3727017753995452
11 0.15157438312318017 -0.10528423812585026 -0.020245322860415815
15 0.510783816183544 0.16517114838296149 0.5082959363179801
131 -0.24516400276827557 -0.17089648580296424 -0.07881995821313817
132 0.5516354508931027 -0.2779576021244715 -0.06891692679809015
13 1.0001479657396126 0.019407831080596537 -0.32949655683955126
64 0.040704816822731985 0.004040421728846523 0.21870590417007618
17 0.21870831997796322 1.002121565413342 0.05569228717229569
83 -0.11707898607484638 -0.46435731078688663 0.08769317645098672
84 0.12716803168377483 -0.5329570202829531 -0.427420243101641
85 -0.2430981531265841 -0.5206027472711826 -0.5295273329148094
87 -0.33243638592936947 -0.5868173859569155 -0.4276288292470329
95 0.12837430570982017 -0.3356423438947868 -0.0869628532549331
157 0.797585515851125 -0.4409177872033715 -0.31199300417815035
18 -0.39406071615575045 1.432657843906037 -0.49029187803601015
12 -0.1913495631082173 -0.4087787233827634 -0.3978634646138431
156 -0.14738928776508745 1.251085266765304 -0.2649168221121715
155 -0.04463488344589342 0.06695771415501302 0.023680159540331983
16 0.10939209725180842 -0.2176517670683778 -0.2452882975446146
96 -1.3273164631922134 0.7408769793480725 1.1142814195381356
125 0.2585060887802069 -0.19903032285840852 -0.12133856896523589
126 0.02720364464871965 -0.04875072619148119 0.46532038908704215
27 -0.06923874381255969 -0.4036340239040271 -1.506684029918067
26 0.137103490409754 -0.08289355846871792 -0.5121741088216591
28 0.3011713452253072 0.5534378412922738 0.407597298573663
10 0.19172350678414238 -0.6602470859387499 0.5313467602172921
43 -0.9174482140326932 0.5449274477833157 -0.07936233469489754
62 0.012865638104035015 -0.2923185376481088 -0.06516442008339066
110 0.44373022808121043 0.16857952680565502 -0.09871809233756876
70 -0.2681440496007049 1.0237982092723896 -0.19900833090052894
34 -0.8464865639387422 -0.3418851403593227 -0.4418223898038864
42 0.913691400061372 -1.2091098830436346 -0.31161898749662365
41 0.02229875018727088 -0.2387868609674314 0.15061036329758476
33 0.02930457575799495 0.7954190164853128 -0.6894657409159929
32 -0.061397224410237594 0.1650984255905742 0.06552315185651111
68 -0.3129616081745873 -0.3728966858220843 -0.5646319401092271
69 -0.48906117661472726 0.9948654194663212 0.2790832959028698
127 -0.47080537679482015 -0.82057768270457 1.2959072829232041
20 -0.6026736715336349 -0.1697027946501591 -0.6360692819031281
97 0.21796270196036088 0.6839550829580727 -0.202771823531177
112 -1.1166453481380607 1.2417353807627853 0.3364103568262782
150 1.1706028479221318 0.32478821748711406 0.5057214869693057
71 -0.22046782628290515 0.1184166414072609 -0.28299101450108943
73 0.6243732856335173 -1.000937811620172 0.9275515806073288
9 -0.322269353392834 0.7556570190333157 -1.483666290112037
8 0.4855393339891036 -0.33532900736576643 -0.5222390109991282
49 0.001762505315922971 0.041070289868400056 0.3121792501321358
98 -0.25065008094326646 0.22196145832807057 0.023259893709768026
74 -0.22414416046800262 0.11100741874195352 0.31438416221110016
75 0.29702641524749585 0.40472227081301587 -0.4511755351282258
100 -1.4250194066967459 -0.07846243468775195 0.09139771287035972
76 -0.8020586889786536 -0.6850053773248936 0.46930999741048446
36 0.7252221579841583 -0.29268333863197293 -0.44985779462540576
145 0.12028253859242617 0.16685577671671406 -0.40426611593592554
143 -0.04607790037362314 -0.08510662643058793 0.19459076937156983
151 0.4023300927088679 -0.729336232178334 0.2152141490999483
149 0.5586027697964829 0.08339789165004982 -0.3392743253738649
35 0.0670970694909136 -0.057076127364089936 -0.085639267624787
160 -0.22554638033384775 0.19163666462609666 0.1564930495535367
159 -0.05467861397453636 -0.773613864571081 -0.6267136833287641
158 -0.40573719605883796 0.26082635099048435 0.6022889423976142
37 0.4123118539349851 1.060450419318735 1.354118264186189
99 -1.38917556513317 -0.11016599714830537 1.077403917651004
144 -1.0325587844972814 -0.6932595429703996 -0.7161168949935661
48 -0.6207917003931555 0.09966850757494808 1.108647643170985
7 0.6737972789275769 1.1319644497651693 0.07994329003463353
6 0.09088546436176759 0.01925331985773441 0.002780869341238404
47 0.10148064795687985 -0.2761717720378191 -0.044443685330434676

Bonds

1 1 44 45
2 1 44 46
3 1 137 138
4 1 137 139
5 1 152 153
6 1 152 154
7 1 140 141
8 1 140 142
9 1 119 120
10 1 119 121
11 1 59 60
12 1 59 61
13 1 29 30
14 1 29 31
15 1 104 105
16 1 104 106
17 1 134 135
18 1 134 136
19 1 77 78
20 1 77 79
21 1 89 90
22 1 89 91
23 1 86 87
24 1 86 88
25 1 53 54
26 1 53 55
27 1 146 147
28 1 146 148
29 1 65 66
30 1 65 67
31 1 50 51
32 1 50 52
33 1 1 2
34 1 1 3
35 1 1 4
36 1 1 5
37 1 113 114
38 1 113 115
39 1 92 93
40 1 92 94
41 1 122 123
42 1 122 124
43 1 56 57
44 1 56 58
45 1 116 117
46 1 116 118
47 1 80 81
48 1 80 82
49 1 128 129
50 1 128 130
51 1 101 102
52 1 101 103
53 1 107 108
54 1 107 109
55 1 21 22
56 1 21 23
57 1 21 24
58 1 21 25
59 1 38 39
60 1 38 40
61 1 11 12
62 1 11 13
63 1 11 14
64 1 11 15
65 1 131 132
66 1 131 133
67 1 83 84
68 1 83 85
69 1 95 96
70 1 95 97
71 1 155 156
72 1 155 157
73 1 16 17
74 1 16 18
75 1 16 19
76 1 16 20
77 1 125 126
78 1 125 127
79 1 26 27
80 1 26 28
81 1 62 63
82 1 62 64
83 1 110 111
84 1 110 112
85 1 41 42
86 1 41 43
87 1 32 33
88 1 32 34
89 1 68 69
90 1 68 70
91 1 71 72
92 1 71 73
93 1 98 99
94 1 98 100
95 1 74 75
96 1 74 76
97 1 143 144
98 1 143 145
99 1 149 150
100 1 149 151
101 1 35 36
102 1 35 37
103 1 158 159
104 1 158 160
105 1 6 7
106 1 6 8
107 1 6 9
108 1 6 10
109 1 47 48
110 1 47 49

Angles

1 1 45 44 46
2 1 138 137 139
3 1 153 152 154
4 1 141 140 142
5 1 120 119 121
6 1 60 59 61
7 1 30 29 31
8 1 105 104 106
9 1 135 134 136
10 1 78 77 79
11 1 90 89 91
12 1 87 86 88
13 1 54 53 55
14 1 147 146 148
15 1 66 65 67
16 1 51 50 52
17 2 2 1 3
18 2 2 1 4
19 2 2 1 5
20 2 3 1 4
21 2 3 1 5
22 2 4 1 5
23 1 114 113 115
24 1 93 92 94
25 1 123 122 124
26 1 57 56 58
27 1 117 116 118
28 1 81 80 82
29 1 129 128 130
30 1 102 101 103
31 1 108 107 109
32 2 22 21 23
33 2 22 21 24
34 2 22 21 25
35 2 23 21 24
36 2 23 21 25
37 2 24 21 25
38 1 39 38 40
39 2 12 11 13
40 2 12 11 14
41 2 12 11 15
42 2 13 11 14
43 2 13 11 15
44 2 14 11 15
45 1 132 131 133
46 1 84 83 85
47 1 96 95 97
48 1 156 155 157
49 2 17 16 18
50 2 17 16 19
51 2 17 16 20
52 2 18 16 19
53 2 18 16 20
54 2 19 16 20
55 1 126 125 127
56 1 27 26 28
57 1 63 62 64
58 1 111 110 112
59 1 42 41 43
60 1 33 32 34
61 1 69 68 70
62 1 72 71 73
63 1 99 98 100
64 1 75 74 76
65 1 144 143 145
66 1 150 149 151
67 1 36 35 37
68 1 159 158 160
69 2 7 6 8
70 2 7 6 9
71 2 7 6 10
72 2 8 6 9
73 2 8 6 10
74 2 9 6 10
75 1 48 47 49
