LAMMPS data file via write_data, version 4 Feb 2025, timestep = 10000000, units = lj

4590 atoms
4 atom types
3090 bonds
1 bond types

-11.911732 11.911732 xlo xhi
-11.911732 11.911732 ylo yhi
-11.911732 11.911732 zlo zhi
0 0 0 xy xz yz

Masses

1 1
2 1
3 1
4 1

Bond Coeffs # zero

1 0

Atoms # bond

1067 326 4 -11.20150731220088 -11.437157738136545 -11.145582064316457 3 0 1
4577 1496 4 -11.507497878258363 -11.205935008106703 -11.25654732631718 6 1 1
2294 735 4 -11.578162679974534 -11.466798435327544 -10.956080464218573 3 1 1
1066 326 2 -10.748226445257632 -11.399930938201738 -10.937854707480168 3 0 1
4576 1496 2 -11.625434523438111 -11.097190449692844 -11.730114156964305 6 1 1
1068 326 4 -10.294945578314387 -11.362704138266935 -10.730127350643881 3 0 1
3089 1000 4 -10.110564501481665 -11.00222347889858 -10.759882944660744 6 0 1
1863 591 4 -9.921344249920237 -11.338635075498336 -10.886143192231073 2 1 1
1861 591 2 -9.452683099986913 -11.282754322116144 -11.051170827257668 2 1 1
3088 1000 2 -10.125171528451784 -10.524229575457136 -10.613908806294047 6 0 1
1862 591 4 -8.984021950053592 -11.22687356873395 -11.21619846228426 2 1 1
3460 1124 2 -8.225775961874644 -10.87000408908833 -11.340983349972545 3 0 1
3461 1124 4 -7.837486036385049 -10.556249352537325 -11.369075033968985 3 0 1
3462 1124 4 -8.61406588736424 -11.183758825639332 -11.312891665976105 3 0 1
3374 1095 4 -7.454419679624107 -10.439193433044096 -11.248517777521569 1 0 1
2630 847 4 -7.531763574737697 -10.52533751715334 -11.638837792510294 2 0 0
3408 1106 4 -5.209887090966359 -11.265556096256345 -11.138787514471911 6 0 1
3406 1106 2 -4.858222667129161 -11.20625177336569 -11.489237470962202 6 0 1
2579 830 4 -5.4783754708113594 -11.476512303359005 -11.357658243699358 6 0 0
2578 830 2 -5.855484818626703 -11.77540268363379 -11.221815298363072 6 0 0
3407 1106 4 -4.506558243291957 -11.146947450475032 -11.839687427452493 6 0 1
2398 770 2 -0.6583924467894864 -11.461837248529921 -11.097200360988081 7 1 0
2399 770 4 -0.811441913994317 -11.781593354793104 -11.44980777862468 7 1 0
2400 770 4 -0.5053429795846576 -11.142081142266736 -10.744592943351487 7 1 0
1340 417 4 -0.18267818078967046 -11.282824372259013 -10.551211798161686 8 1 0
3090 1000 4 -10.139778555421902 -10.046235672015696 -10.467934667927352 6 0 1
3373 1095 2 -7.103460291585554 -10.150664546983872 -11.039762436560734 1 0 1
3375 1095 4 -6.752500903547001 -9.862135660923649 -10.831007095599901 1 0 1
3424 1112 2 -6.240853090178345 -9.49642841788134 -10.576358818609279 1 0 1
3426 1112 4 -6.420469769104406 -9.695469413861916 -10.99840218376466 1 0 1
735 215 4 -9.104055903581909 -7.541319058387775 -11.530596871758775 2 0 0
635 182 4 -9.443822551289552 -7.467153016635288 -11.398554539251709 2 0 0
650 187 4 -11.309432592691028 -6.415700182682773 -11.581864117917446 2 0 0
2154 688 4 -11.137871879516617 -6.316379749520718 -11.257214570412025 3 0 1
2152 688 2 -10.788600602108446 -6.5934905520921046 -11.030898454542736 3 0 1
2153 688 4 -10.43932932470028 -6.870601354663485 -10.80458233867345 3 0 1
634 182 2 -9.773100814762309 -7.2665508751216565 -11.08022377743933 2 0 0
636 182 4 -10.102379078235064 -7.065948733608025 -10.761893015626951 2 0 0
2609 840 4 -8.574042945751483 -4.968770718732562 -11.554064503084364 5 0 0
608 173 4 -8.239601850951754 -4.867456897237016 -11.330865615944907 3 0 0
607 173 2 -7.801678962695514 -4.776330926845786 -11.107438488512281 3 0 0
609 173 4 -7.363756074439272 -4.685204956454557 -10.884011361079654 3 0 0
419 110 4 -7.073115628274355 -4.676743698899531 -10.597167692319394 3 0 0
418 110 2 -6.60510945509412 -4.500759664866741 -10.597247403762642 3 0 0
420 110 4 -6.13710328191389 -4.324775630833951 -10.59732711520589 3 0 0
4206 1372 4 -10.98773938865609 -1.3117592216113554 -11.518150276845113 4 1 1
4204 1372 2 -10.63956954067797 -1.0255875529295508 -11.734676793175327 4 1 1
2684 865 4 -10.253297101816733 -0.4004301164334567 -11.777004151174618 4 0 0
3272 1061 4 -9.925043662786065 -0.6326739386416573 -11.863298245655772 4 0 1
4239 1383 4 -9.06558437691324 -11.840314952479055 -9.324023299760778 9 1 1
3477 1129 4 -8.980492208103357 -11.599725753778571 -9.003478514209812 7 0 1
3161 1024 4 -9.889360263502404 -9.750909864173105 -10.38807772976628 7 0 1
3160 1024 2 -9.982323339838054 -9.280874916928578 -10.24516192442655 7 0 1
3425 1112 4 -6.061236411252287 -9.297387421900764 -10.154315453453897 1 0 1
1132 348 2 -5.220463257920299 -9.312921953353007 -9.977146275806325 6 0 1
1133 348 4 -5.717283013359845 -9.352917947932513 -9.937516857894893 6 0 1
1134 348 4 -4.723643502480753 -9.2729259587735 -10.016775693717756 6 0 1
1640 517 4 -4.337026570586375 -9.164879900418232 -9.921885351042032 6 1 0
3162 1024 4 -10.075286416173705 -8.810839969684054 -10.102246119086821 7 0 1
3449 1120 4 -9.669544120278536 -8.761360353283198 -9.992728049208592 7 0 1
3448 1120 2 -9.60651720159073 -8.360021585471548 -9.701257893682433 7 0 1
3450 1120 4 -9.54349028290292 -7.9586828176599 -9.409787738156272 7 0 1
3246 1052 4 -9.63670560486484 -7.785629511228365 -9.03358397236521 2 0 0
1639 517 2 -4.084774730504535 -8.766623005399616 -9.755270058625252 6 1 0
1641 517 4 -3.8325228904226893 -8.368366110381 -9.58865476620847 6 1 0
1707 539 4 -3.6117373058056508 -8.034172225254709 -9.670005196938536 5 1 1
1705 539 2 -3.3094045018157168 -7.645132348549171 -9.584898879875924 5 1 1
1706 539 4 -3.0070716978257828 -7.256092471843636 -9.499792562813308 5 1 1
3051 987 4 -2.869682661541157 -6.898551991463161 -9.560408863835884 5 0 1
3049 987 2 -2.6790818438906694 -6.82619175817728 -9.10386165649203 5 0 1
2989 967 2 -1.6364094994437224 -6.107247477003785 -9.827793671079963 2 0 1
2991 967 4 -1.2110183935598489 -6.3697778574162 -9.838747348021759 2 0 1
3654 1188 4 -0.8848623351658187 -6.472170209862548 -9.622527659573826 3 0 0
3652 1188 2 -0.45998228725929735 -6.2124693151718935 -9.577443173651131 3 0 0
2990 967 4 -2.0618006053276012 -5.844717096591372 -9.816839994138167 2 0 1
3653 1188 4 -0.035102239352783116 -5.95276842048124 -9.53235868772844 3 0 0
1752 554 4 -5.9664492311186805 -4.2527133417979 -10.224815063634075 4 0 0
1750 554 2 -6.053641153795117 -4.002143257812287 -9.801008317657367 4 0 0
1751 554 4 -6.140833076471555 -3.751573173826678 -9.37720157168066 4 0 0
2863 925 2 -1.9823445061538667 -4.200997401944402 -9.19354011281204 4 0 0
2864 925 4 -1.5194762627803033 -4.035927240599515 -9.101317643094927 4 0 0
2865 925 4 -2.445212749527414 -4.36606756328929 -9.285762582529147 4 0 0
561 157 4 -1.4331714344693793 -3.667699814969847 -8.991415734582796 3 0 0
3262 1058 2 -3.7313507566907678 -1.6678952793885564 -9.170934964713268 4 0 1
3264 1058 4 -3.700444885799241 -1.4464450433023526 -9.618153740895025 4 0 1
3335 1082 4 -3.4188676795329798 -1.196629169107382 -9.53885777859721 4 0 1
3334 1082 2 -3.291504364528773 -0.718421352611541 -9.467471561126615 4 0 1
3336 1082 4 -3.1641410495245665 -0.24021353611570007 -9.39608534365602 4 0 1
1664 525 4 -0.10953117381401967 -0.08666631950010384 -9.637979874644337 5 0 0
3471 1127 4 -0.023587698339710528 -0.18867793522088938 -10.03881584230575 8 0 1
1123 345 2 -9.03184637333896 -11.294955090667361 -7.489625317264498 5 0 1
3475 1129 2 -8.755745451324364 -11.486716583524146 -8.571369877924868 7 0 1
4040 1317 4 -8.471921489447812 -11.568482207590845 -7.765680066764644 7 1 0
4039 1317 2 -8.054499647728552 -11.843529759647264 -7.776054098822442 7 1 0
1125 345 4 -8.640206480989242 -11.227530523942841 -7.793059289215334 5 0 1
3476 1129 4 -8.53099869454537 -11.37370741326972 -8.139261241639922 7 0 1
3706 1206 2 -3.167286922517375 -10.919416173909896 -7.723100094067927 7 1 0
3707 1206 4 -2.774832388453264 -10.810135683159265 -8.012991968407379 7 1 0
1635 515 4 -2.4122153924898875 -10.653235814646663 -7.946103714977774 3 1 0
1633 515 2 -2.095993316409414 -10.477653770882727 -7.600886891006141 3 1 0
4404 1438 4 -0.974751148866499 -11.579572926682134 -8.085241356524506 3 0 1
3371 1094 4 -0.8035245888803431 -11.217862712007982 -8.113772274357872 7 0 1
3370 1094 2 -0.3734543228793328 -10.978130645384342 -8.026776247228353 7 0 1
809 240 4 -7.820760171855553 -9.081037026019217 -8.733613385703816 2 0 0
2984 965 4 -8.111261521419532 -9.012159835607049 -8.446679345661193 3 0 0
3244 1052 2 -9.239304912547134 -7.912546356020858 -8.757967021907945 2 0 0
3245 1052 4 -8.841904220229427 -8.03946320081335 -8.482350071450679 2 0 0
2983 965 2 -8.51999759101144 -8.726896574924737 -8.407189292168223 3 0 0
2985 965 4 -8.928733660603342 -8.441633314242427 -8.367699238675254 3 0 0
808 240 2 -7.368472248088376 -8.925636937089582 -8.587714150112335 2 0 0
810 240 4 -6.916184324321197 -8.77023684815994 -8.441814914520856 2 0 0
1103 338 4 -6.863468103500478 -8.44884754066294 -8.199843480127496 5 0 1
1102 338 2 -6.579964040452382 -8.046438348627147 -8.112136487425774 5 0 1
1104 338 4 -6.296459977404287 -7.644029156591351 -8.024429494724048 5 0 1
2823 911 4 -5.999176695623536 -7.580002730716678 -8.271244104579345 2 0 0
2821 911 2 -5.551166330867938 -7.762361144977418 -8.397861474726872 2 0 0
2822 911 4 -5.103155966112337 -7.94471955923817 -8.524478844874396 2 0 0
3362 1091 4 -2.297014882730375 -7.833060285115934 -8.114056802011474 6 0 1
3361 1091 2 -2.2912370294812856 -7.339302927678073 -8.19260802156464 6 0 1
3050 987 4 -2.48848102624018 -6.753831524891399 -8.647314449148178 5 0 1
1734 548 4 -2.1618241315668794 -6.577486314525449 -8.533601121921361 7 1 0
3363 1091 4 -2.285459176232207 -6.845545570240215 -8.2711592411178 6 0 1
1732 548 2 -1.862514367058349 -6.181050255125495 -8.47657171730502 7 1 0
512 141 4 -11.535372495912306 -5.2638470048389525 -7.750555730344503 3 0 0
1198 370 2 -10.887229214937799 -4.6877776065587184 -7.98975983395108 2 0 0
1199 370 4 -11.241632095122053 -5.0336500643488895 -7.92068678120281 2 0 0
1733 548 4 -1.5632046025498187 -5.784614195725531 -8.419542312688685 7 1 0
3623 1178 4 -1.438042856095615 -5.406455450988917 -8.328632855252359 6 1 0
3622 1178 2 -1.2845742015281214 -5.009058770675023 -8.066863161597396 6 1 0
3624 1178 4 -1.131105546960633 -4.611662090361125 -7.805093467942429 6 1 0
1200 370 4 -10.53282633475355 -4.3419051487685385 -8.058832886699347 2 0 0
4508 1473 4 -9.368019335635182 -4.22276175302634 -8.285883427224517 6 1 0
4509 1473 4 -10.335021498472676 -3.987680933256584 -8.187682762292125 6 1 0
4507 1473 2 -9.851520417053932 -4.105221343141462 -8.236783094758321 6 1 0
2522 811 4 -9.137413763374981 -4.007098731895095 -8.072773793934084 5 0 0
2521 811 2 -8.706016273828928 -3.8155559079436134 -8.237721415522296 5 0 0
2523 811 4 -8.274618784282874 -3.624013083992132 -8.40266903711051 5 0 0
3717 1209 4 -7.997806682320823 -3.5433282180506005 -8.117402590848396 7 1 0
3715 1209 2 -7.636323985223095 -3.280473777650318 -7.893264256565879 7 1 0
3716 1209 4 -7.274841288125369 -3.017619337250032 -7.669125922283355 7 1 0
1778 563 4 -0.7514479314688334 -4.447843248303254 -7.826808151756199 1 1 0
1777 563 2 -0.35293050244347235 -4.1459499616999995 -7.833482197441841 1 1 0
559 157 2 -1.1629933213916424 -3.3506556114104455 -8.714853026469608 3 0 0
560 157 4 -0.8928152083139054 -3.033611407851044 -8.43829031835642 3 0 0
489 133 4 -1.028048937117573 -3.134028861183614 -8.053948429097275 4 0 0
3348 1086 4 -6.89113709922304 -2.9353089503505867 -7.81805895818867 4 0 1
3346 1086 2 -6.416455090576151 -2.8219846271702025 -7.709271569083279 4 0 1
3347 1086 4 -5.9417730819292665 -2.7086603039898147 -7.600484179977892 4 0 1
3499 1137 2 -5.125470354763007 -2.411486017329368 -7.753798750098496 4 0 1
3500 1137 4 -4.675129851493718 -2.202105231694844 -7.811706489715582 4 0 1
3501 1137 4 -5.575810858032299 -2.6208668029638957 -7.695891010481411 4 0 1
148 30 3 -4.039937826402456 -1.7504471973950348 -8.438344840619907 4 0 1
146 30 1 -4.02455236245648 -1.711183646590813 -7.976260798171542 4 0 1
147 30 3 -4.3395398223400266 -1.991645095223106 -7.792618611758322 4 0 1
3263 1058 4 -3.7622566275822944 -1.8893455154747603 -8.72371618853151 4 0 1
150 30 3 -3.611837043871807 -1.8289599691879985 -7.823962714057916 4 0 1
827 246 4 -3.220123834797109 -1.9007041097910822 -7.8468691044292465 4 0 1
1560 490 4 -1.7545452755081783 -2.305899618319442 -7.447372686403696 4 0 0
826 246 2 -2.9632294249216837 -1.6330571074428573 -7.511652037706842 4 0 1
487 133 2 -0.690536558989189 -2.9733987744191523 -7.721858865477969 4 0 0
2311 741 2 -1.1141767333684633 -1.7479752148346783 -7.55879160021051 3 1 0
2312 741 4 -1.4152241823045983 -2.1418750495978625 -7.493879422405706 3 1 0
1885 599 2 -5.198941033540725 -0.01310493121919798 -7.460190161243983 4 1 1
149 30 3 -4.1209516599070835 -1.2749134720405522 -7.85105925610324 4 0 1
3387 1099 4 -4.037365840526488 -0.9057346266543647 -7.712323435019967 4 0 1
3385 1099 2 -4.215137130378724 -0.45276467483610894 -7.597365050362132 4 0 1
2313 741 4 -0.8131292844323337 -1.354075380071496 -7.6237037780153125 3 1 0
899 270 4 -0.7478811813803379 -1.0371900217183025 -7.821154294503243 3 0 1
900 270 4 -0.36236176225777506 -1.044417860232393 -8.743825704191645 3 0 1
898 270 2 -0.5551214718190547 -1.0408039409753478 -8.282489999347444 3 0 1
3699 1203 4 -11.455632426421369 -11.725709470302967 -6.914260272038103 7 1 0
3885 1265 4 -11.81568855357021 -11.62918026414799 -6.882455696334306 7 1 0
985 299 2 -10.004792517685079 -11.213487133779838 -6.7520032849537595 3 0 1
987 299 4 -9.812888849129749 -11.404420093941399 -7.1723811071995565 3 0 1
1124 345 4 -9.423486265688679 -11.36237965739188 -7.186191345313664 5 0 1
986 299 4 -10.196696186240414 -11.022554173618277 -6.331625462707963 3 0 1
17 4 3 -9.578895556377296 -11.7278648897545 -7.304400236024058 7 0 0
1670 527 4 -10.050262438094773 -10.922362468761026 -5.9783256697468365 2 1 0
984 298 4 -10.413605206060652 -10.79728304208639 -6.073279600675975 3 0 1
2373 761 4 -6.074784030974724 -11.730619007473859 -7.415174308862472 5 1 1
2371 761 2 -5.614273563249091 -11.603502283673025 -7.267622403681794 5 1 1
2162 691 4 -4.78532114039318 -11.524027977755521 -7.261718298108681 9 1 1
2372 761 4 -5.1537630955234635 -11.476385559872188 -7.120070498501115 5 1 1
2161 691 2 -4.305381056340187 -11.415882741117167 -7.350949611656818 9 1 1
3708 1206 4 -3.559741456581481 -11.028696664660524 -7.433208219728482 7 1 0
2163 691 4 -3.8254409722871987 -11.307737504478812 -7.440180925204954 9 1 1
1634 515 4 -1.779771240328941 -10.30207172711879 -7.255670067034506 3 1 0
3719 1210 4 -1.4446352860063083 -10.329244053869495 -7.0265425427474195 6 1 0
3720 1210 4 -0.47869061738249385 -10.32290685132361 -6.767871420925614 6 1 0
3026 979 4 -0.0873274883995041 -10.273341323798983 -6.869042964544804 8 0 1
3718 1210 2 -0.961662951694402 -10.326075452596552 -6.897206981836518 6 1 0
2621 844 4 -10.818735057928945 -5.78162481225924 -6.4183569414306 3 0 0
4310 1407 4 -10.939826437821267 -5.558763298501631 -6.091258020402 3 0 0
4309 1407 2 -11.416269582137055 -5.412280613046374 -6.051956449007312 3 0 0
4311 1407 4 -11.892712726452839 -5.265797927591113 -6.012654877612624 3 0 0
2622 844 4 -9.824932554909898 -5.882214385784205 -6.371048139342608 3 0 0
2620 844 2 -10.321833806419425 -5.831919599021724 -6.394702540386604 3 0 0
879 263 4 -9.738158155092496 -5.574259100630436 -6.591372398272697 3 0 1
877 263 2 -9.385241934773173 -5.269664491361781 -6.410617092866007 3 0 1
878 263 4 -9.032325714453851 -4.965069882093123 -6.229861787459314 3 0 1
3642 1184 4 -8.756722138382335 -4.834897906764945 -6.001729057526468 2 1 0
452 121 4 -3.805127986783635 -3.3896824093048377 -6.092114454202223 3 0 0
2126 679 4 -2.9999519567128115 -3.047952979019719 -5.969958068255665 3 1 1
2127 679 4 -2.6859512542384163 -3.2125691696767174 -6.905000829438096 3 1 1
2125 679 2 -2.842951605475612 -3.130261074348219 -6.43747944884688 3 1 1
2557 823 2 -0.06631274990488478 -3.9260929021560615 -6.3740813206964795 4 0 0
2936 949 4 -0.8255441469723959 -4.278244565746012 -6.195176382231033 2 0 0
2559 823 4 -0.5265605241862588 -4.120317725096826 -6.395268184649484 4 0 0
2935 949 2 -1.1239621860876206 -3.9160442905527066 -6.022672995581853 2 0 0
3508 1140 2 -10.60771727377185 -1.6196239456961372 -6.6930351652640265 5 0 0
1803 571 4 -11.398643367913433 -1.6434734520750975 -6.943911902604978 5 0 0
3509 1140 4 -11.01375502770121 -1.7027678816590868 -6.972714438389393 5 0 0
3510 1140 4 -10.201679519842495 -1.536480009733184 -6.413355892138665 5 0 0
1559 490 4 -2.4791520774139055 -2.85809824180585 -7.035034884226898 4 0 0
1558 490 2 -2.1168486764610392 -2.5819989300626442 -7.241203785315297 4 0 0
488 133 4 -0.35302418086080856 -2.8127686876546925 -7.389769301858663 4 0 0
2273 728 4 -0.5832711199449871 -2.8704251119241686 -6.007631270588664 4 0 1
2272 728 2 -0.467253413914019 -2.8598336944181373 -6.493869603322815 4 0 1
2274 728 4 -0.35123570788305614 -2.849242276912099 -6.980107936056964 4 0 1
1801 571 2 -11.809373484522633 -1.3975742063265084 -7.088252230485229 5 0 0
2339 750 4 -9.954460546511514 -1.2363824983626053 -6.346965155550277 4 1 1
2338 750 2 -9.513849883372602 -1.043517996519391 -6.4835876186124235 4 1 1
2340 750 4 -9.07323922023369 -0.8506534946761803 -6.620210081674571 4 1 1
404 105 4 -7.594723813226128 -1.0657799361264253 -6.694091620608208 5 0 0
2670 860 4 -8.680373014883376 -0.8112383065945679 -6.665676673684007 5 0 0
2669 860 4 -7.861158206552641 -1.3838691363540185 -6.696983101221611 5 0 0
2668 860 2 -8.270765610718009 -1.0975537214742932 -6.681329887452809 5 0 0
1647 519 4 -6.52919439806697 -1.1143300822817537 -7.196304016899126 6 0 0
405 105 4 -6.7485390073977065 -1.4238539514809077 -7.0887480128250715 5 0 0
403 105 2 -7.171631410311918 -1.2448169438036683 -6.89141981671664 5 0 0
1645 519 2 -6.117936835263132 -0.8483879632160889 -7.297012631642682 6 0 0
1886 599 4 -5.646059699793339 -0.18853143212785106 -7.321227583763378 4 1 1
1646 519 4 -5.706679272459294 -0.5824458441504241 -7.397721246386233 6 0 0
828 246 4 -2.7063350150462657 -1.3654101050946341 -7.176434970984439 4 0 1
3604 1172 2 -2.8851263835991627 -1.3193461893828236 -6.344449353638373 5 0 0
1076 329 4 -2.5252833179868546 -1.0218001701131918 -7.105085821895406 4 0 1
3605 1172 4 -2.779560269522271 -1.1879541088723258 -6.815184889240716 5 0 0
1075 329 2 -2.188086372564131 -0.6646953184129671 -7.011413063213217 4 0 1
1077 329 4 -1.8508894271414071 -0.3075904667127425 -6.917740304531027 4 0 1
1685 532 4 -1.549762879721257 -0.42834533544119857 -6.634196374596778 5 1 0
1684 532 2 -1.1590006563944666 -0.6432962687664521 -6.408141485036845 5 1 0
3409 1107 2 -0.1420348589770306 -0.6221076309958598 -6.00885663629678 5 0 1
1686 532 4 -0.7682384330676602 -0.8582472020917056 -6.182086595476908 5 1 0
982 298 2 -10.852329184029623 -10.725337916534116 -5.844489069980144 3 0 1
983 298 4 -11.291053161998596 -10.653392790981846 -5.6156985392843115 3 0 1
3834 1248 4 -11.700324385496923 -10.532754724403446 -5.441878855210313 6 1 0
1669 527 2 -9.740253162015646 -10.943352647319948 -5.586594067581147 2 1 0
1671 527 4 -9.430243885936521 -10.96434282587887 -5.194862465415455 2 1 0
3567 1159 4 -9.199212676459368 -10.813242415758841 -4.872747832342748 6 1 0
3565 1159 2 -8.718005255463133 -10.87642064656743 -4.7525485464617 6 1 0
3566 1159 4 -8.236797834466897 -10.939598877376019 -4.632349260580652 6 1 0
1454 455 4 -7.888961232931318 -10.998064268011543 -4.8445495233359415 9 1 0
1453 455 2 -7.6235106860042166 -11.355772700219338 -4.61743612708724 9 1 0
2745 885 4 -9.366314069573686 -8.713733409627805 -5.576079435623607 5 0 0
2743 885 2 -9.117158647614595 -8.329769960681224 -5.374848630540359 5 0 0
1365 425 4 -8.699176790267956 -7.579925277984259 -5.328114607890254 3 1 0
2744 885 4 -8.868003225655503 -7.94580651173464 -5.173617825457109 5 0 0
1363 425 2 -8.33168436696208 -7.410218409185584 -5.034603071103927 3 1 0
1364 425 4 -7.964191943656202 -7.240511540386913 -4.7410915343175954 3 1 0
2405 772 4 -7.875225496410162 -6.867334590341649 -4.815879704587309 3 0 0
2404 772 2 -7.377674945817314 -6.841509818931016 -4.773730487697986 3 0 0
3228 1046 4 -6.491987358090696 -6.7539881115756115 -4.822133741419064 3 0 0
3226 1046 2 -6.225830626617274 -6.441175505643833 -4.53698635080445 3 0 0
2406 772 4 -6.880124395224462 -6.815685047520387 -4.731581270808666 3 0 0
3640 1184 2 -8.375278944114331 -4.75548650714689 -5.688368275456824 2 1 0
3641 1184 4 -7.993835749846328 -4.676075107528836 -5.375007493387182 2 1 0
633 181 4 -7.718029508597923 -4.867363923415302 -5.155871793086628 4 -1 0
631 181 2 -7.442834735120681 -4.915379140249369 -4.741188360604218 4 -1 0
2706 872 4 -4.126896082209561 -4.758424439037382 -4.48697879811907 3 0 0
1392 434 4 -4.185093000805539 -5.123616817372954 -4.629132784322678 3 1 0
451 121 2 -3.8216943136355557 -3.129076746580319 -5.665722338027226 3 0 0
1216 376 2 -1.8291095036796694 -3.846326922333045 -5.142800041325808 3 0 0
1218 376 4 -2.1732743711923295 -4.001946549975113 -4.815182608058829 3 0 0
65 13 3 -2.1231474548350224 -4.351712009709415 -4.610901794492176 3 0 0
1217 376 4 -1.4849446361670093 -3.690707294690977 -5.470417474592788 3 0 0
2937 949 4 -1.4223802252028417 -3.5538440153594006 -5.850169608932673 2 0 0
1151 354 4 -0.8453582400677018 -3.0749690704222594 -5.795956442267411 4 0 0
453 121 4 -3.838260640487487 -2.8684710838558 -5.2393302218522315 3 0 0
1206 372 4 -3.7318837245543044 -2.761414616159289 -4.860650408862668 4 0 0
1204 372 2 -3.8768257089973925 -2.404939679987187 -4.541405459506222 4 0 0
3320 1077 4 -2.781861341753677 -2.7285551495873985 -5.916861842598695 5 0 0
3319 1077 2 -2.5699932359971847 -2.778809012788244 -5.466765815398489 5 0 0
3321 1077 4 -2.3581251302406887 -2.8290628759890915 -5.016669788198283 5 0 0
1117 343 2 -1.8466500205929819 -2.636543322239511 -4.645089300168494 4 0 0
1118 343 4 -2.345923081979983 -2.6232814705669973 -4.668552467503095 4 0 0
1152 354 4 -1.085558090524808 -2.8043769097804887 -4.863709809423912 4 0 0
1119 343 4 -1.347376959205981 -2.6498051739120285 -4.621626132833897 4 0 0
2297 736 4 -0.9977792104709859 -2.737346834382942 -4.47657653122885 5 0 0
1150 354 2 -0.9654581652962531 -2.939672990101375 -5.329833125845661 4 0 0
332 81 4 -11.644323570164557 -0.12911685487091518 -5.094429777051552 5 0 0
1287 399 4 -11.881993152120996 -0.35520851268875475 -4.857381957342598 5 0 0
3184 1032 2 -3.460701670500889 -1.06443804118787 -5.305841437132938 4 0 1
3186 1032 4 -3.0873607363380025 -1.1407694340470957 -5.629554285731856 4 0 1
3606 1172 4 -2.990692497676056 -1.4507382698933249 -5.873713818036031 5 0 0
3185 1032 4 -3.8340426046637823 -0.9881066483286443 -4.982128588534019 4 0 1
2604 838 4 -3.8415854065407924 -0.9605633265020188 -4.600997065377404 5 0 0
3411 1107 4 -0.6267847283304846 -0.6182796168231253 -5.886370282943352 5 0 1
1455 455 4 -7.358060139077115 -11.713481132427134 -4.3903227308385375 9 1 0
581 164 4 -6.430552979533448 -11.61642445376194 -3.4317935676129103 8 1 0
582 164 4 -7.2114364490662 -11.798788831876653 -4.029258650620761 8 1 0
580 164 2 -6.8209947142998235 -11.707606642819298 -3.7305261091168394 8 1 0
4557 1489 4 -1.1752172771258724 -10.706044460459703 -3.0430258707549225 5 0 0
4390 1434 2 -2.534169052583291 -10.113240108916239 -3.052527656480841 5 1 1
4391 1434 4 -2.0603353208890436 -10.043899011171279 -3.196310383483066 5 1 1
4022 1311 4 -1.8109617994802338 -9.745733825714485 -3.1575702044810257 6 1 0
4021 1311 2 -1.4219356196150912 -10.059515081859134 -3.1717021022215093 6 1 0
4023 1311 4 -1.0329094397499414 -10.373296338003783 -3.185833999961975 6 1 0
1057 323 2 -2.9939442774131972 -7.810854520509067 -3.1849609400817656 1 0 0
755 222 4 -3.8007180304815353 -7.6583168203841225 -3.31402997834736 2 1 0
1058 323 4 -3.4029919973228875 -7.536455381935126 -3.2708960964685048 1 0 0
1045 319 2 -1.8562832132076519 -8.227756782913849 -3.1890446144558453 1 0 0
1059 323 4 -2.584896557503505 -8.085253659083007 -3.099025783695028 1 0 0
1046 319 4 -1.4744013133179816 -8.460350168545133 -3.4127997347334347 1 0 0
3035 982 4 -0.13939629881589255 -8.56958689583755 -3.333749206040002 2 0 1
3034 982 2 -0.6323989607650269 -8.515586799068647 -3.2702487208819147 2 0 1
3036 982 4 -1.12540162271417 -8.461586702299746 -3.2067482357238255 2 0 1
3227 1046 4 -5.959673895143852 -6.1283628997120525 -4.251838960189836 3 0 0
754 222 2 -4.061077291520702 -7.393935041226072 -2.9788953899028883 2 1 0
632 181 4 -7.16763996164344 -4.963394357083436 -4.326504928121806 4 -1 0
4301 1404 4 -6.7776307306027705 -5.064152699078627 -4.237931423849945 2 1 1
4302 1404 4 -6.047502620932093 -5.743680103780239 -4.166136873593837 2 1 1
4300 1404 2 -6.412566675767432 -5.403916401429434 -4.202034148721891 2 1 1
14 3 3 -5.370680595809005 -5.949205983743348 -3.317337857350992 2 0 0
15 3 3 -5.790448320347504 -5.950813437708559 -3.942391834921408 2 0 0
13 3 3 -5.040437698081967 -5.920452224261992 -4.001233221282891 2 0 0
1391 434 4 -4.922304650642025 -5.554002974456715 -4.108280239250434 3 1 0
11 3 1 -5.409312574223962 -5.790391974097967 -3.7516023715739646 2 0 0
12 3 3 -5.4270714502032344 -5.33086052371291 -3.7408575072629624 2 0 0
1390 434 2 -4.553698825723779 -5.338809895914834 -4.368706511786556 3 1 0
2704 872 2 -3.627852915667628 -4.744236511241058 -4.459508181216203 3 0 0
2705 872 4 -3.12880974912569 -4.730048583444727 -4.432037564313338 3 0 0
63 13 3 -2.032564201857811 -5.00134650646854 -4.241213307778864 3 0 0
64 13 3 -2.7249606563345434 -4.778956786270585 -4.461961250498152 3 0 0
4046 1319 4 -1.8756691849137752 -5.348235584548271 -4.129702638091925 4 0 0
4045 1319 2 -1.6895065589069809 -5.528245830066921 -3.701988105764187 4 0 0
1492 468 2 -2.1260257141171373 -4.670393976524148 -3.0939135795298576 4 0 0
4047 1319 4 -1.5033439329001848 -5.708256075585571 -3.274273573436453 4 0 0
61 13 1 -2.3108266494222445 -4.636258250257762 -4.308891755394602 3 0 0
1493 468 4 -2.170980769811127 -4.4947779672725705 -3.5598943135440457 4 0 0
62 13 3 -2.3678054932450223 -4.4165245660790795 -3.908803647156457 3 0 0
2633 848 4 -2.04932119178417 -4.179565977262847 -3.7643927877825067 3 0 0
2632 848 2 -1.9250950753738216 -3.718358782538152 -3.6165553428522745 3 0 0
2634 848 4 -1.8008689589634592 -3.257151587813455 -3.4687178979220405 3 0 0
1508 473 4 -1.4194276556901286 -3.202800641666453 -3.387811643398921 3 1 0
1205 372 4 -4.021767693440481 -2.0484647438150887 -4.222160510149776 4 0 0
2603 838 4 -3.928152255768948 -1.7401747356004122 -3.9807452081475017 5 0 0
2296 736 2 -0.5215810723862297 -2.643635590374739 -4.356353300194437 5 0 0
2298 736 4 -0.04538293430147533 -2.5499243463665344 -4.236130069160027 5 0 0
1507 473 2 -1.0566460907542456 -2.8846928118943183 -3.256673641322637 3 1 0
1327 413 2 -0.3186474769195904 -1.890989038944742 -3.166103342514468 4 0 0
1328 413 4 -0.6869968825898667 -2.2110398985995605 -3.275128102809905 4 0 0
1509 473 4 -0.693864525818368 -2.5665849821221816 -3.1255356392463547 3 1 0
2602 838 2 -3.8848688311548667 -1.3503690310512102 -4.290871136762454 5 0 0
4555 1489 2 -1.0975043425838997 -11.130525442241288 -2.790485715662742 5 0 0
4556 1489 4 -1.01979140804192 -11.555006424022872 -2.537945560570563 5 0 0
4359 1423 4 -0.7562704628994723 -11.872211442668645 -2.417772934059382 1 1 1
4392 1434 4 -3.008002784277542 -10.1825812066612 -2.908744929478612 5 1 1
2349 753 4 -11.125092348955018 -8.87902868775001 -1.8913072074817734 3 1 0
1047 319 4 -2.2381651130973292 -7.9951633972825675 -2.965289494178256 1 0 0
2275 729 2 -4.360891478196917 -6.916526361785083 -1.8554122430513669 3 0 0
2277 729 4 -4.170294731450235 -7.108586445658934 -2.2758711959820666 3 0 0
756 222 4 -4.321436552559869 -7.12955326206802 -2.643760801458418 2 1 0
771 227 4 -3.29075020647851 -5.222555615930853 -2.643325923449394 3 0 0
1179 363 4 -2.9880199284791473 -5.394909628971571 -2.4401336399576987 4 0 0
769 227 2 -3.488143953605059 -4.7633904071287425 -2.6575680563219635 3 0 0
2779 897 2 -1.4989783462739137 -5.531972819627112 -2.5194380223389015 4 0 0
1177 363 2 -2.5354391548046245 -5.386615890659438 -2.227761643893883 4 0 0
2781 897 4 -1.69520851928824 -5.489336275209658 -2.0615342905949294 4 0 0
1178 363 4 -2.082858381130105 -5.378322152347305 -2.015389647830066 4 0 0
893 268 4 -1.8658005595209364 -5.49057158756014 -1.7159899643445229 3 0 0
1494 468 4 -2.0810706584231458 -4.846009985775732 -2.6279328455156854 4 0 0
1913 608 4 -2.1046346833048624 -4.6951411873298055 -2.2581645643297925 3 0 0
2780 897 4 -1.3027481732595891 -5.574609364044567 -2.9773417540828717 4 0 0
454 122 2 -0.3525824864451792 -5.526758370064148 -1.700604417393503 2 0 0
456 122 4 -0.0842861404750952 -5.1792950790325545 -1.9399504400686993 2 0 0
770 227 4 -3.685537700731615 -4.304225198326632 -2.6718101891945363 3 0 0
2211 707 4 -3.7562930989906214 -3.950881649151622 -2.4632909272481793 3 0 0
2209 707 2 -3.337076600902366 -3.810566215885842 -2.2296903609770844 3 0 0
2210 707 4 -2.917860102814114 -3.670250782620057 -1.9960897947059877 3 0 0
1912 608 2 -2.35044768614687 -4.283777670230195 -2.115490732828137 3 0 0
1914 608 4 -2.5962606889888775 -3.872414153130583 -1.9728169013264782 3 0 0
2687 866 4 -2.6729009868821034 -1.6449693944581245 -1.5241075665157222 2 0 0
3295 1069 2 -5.887549977479734 -0.020300917605789337 -1.7366522759133947 6 -1 0
1747 553 2 -1.9422450562102185 -0.0002639939091917398 -1.9229125495391148 3 1 0
725 212 4 -2.7282748248977686 -1.2734206111239175 -1.6690944411617483 2 0 0
1749 553 4 -2.1706044152811934 -0.23279377428255366 -2.3020985336743927 3 1 0
724 212 2 -2.5193474060438223 -0.9437315072663548 -1.9815917470874869 2 0 0
726 212 4 -2.310419987189876 -0.6140424034087886 -2.2940890530132307 2 0 0
2886 932 4 -0.4043108732139409 -0.21716975818663187 -1.4924719844878105 3 1 0
1002 304 4 -8.860721839333483 -11.697250949823538 -0.1377119317869031 1 0 0
1000 304 2 -8.585822576885702 -11.342828386771076 -0.35865363714231435 1 0 0
1001 304 4 -8.31092331443792 -10.988405823718615 -0.5795953424977291 1 0 0
685 199 2 -7.7011831913536035 -10.607647267329725 -0.3120930164088609 2 0 0
686 199 4 -7.9313564862482915 -10.872010230219182 -0.6686496035984533 2 0 0
3210 1040 4 -4.571698878192222 -11.80342261988913 -0.586364231533631 3 0 0