LAMMPS data file via write_data, version 4 Feb 2025, timestep = 8500000, units = lj

4590 atoms
4 atom types
3090 bonds
1 bond types

-11.911732 11.911732 xlo xhi
-11.911732 11.911732 ylo yhi
-11.911732 11.911732 zlo zhi

Masses

1 1
2 1
3 1
4 1

Bond Coeffs # zero

1 0

Atoms # bond

1009 307 2 -9.369332974539025 -11.0762495638579 -11.498689587708396 0 0 1
2682 864 4 -9.383355272708599 -11.059903815398995 -10.70038960490204 1 0 0
1010 307 4 -9.575993051462556 -11.038970922247586 -11.04492542486051 0 0 1
1423 445 2 -5.020908474568604 -11.125071247808302 -11.382587971145565 0 1 0
1425 445 4 -5.2467820392957805 -10.790314435809288 -11.677408271629405 0 1 0
1424 445 4 -4.795034909841427 -11.459828059807316 -11.087767670661727 0 1 0
558 156 4 -4.424817886512495 -11.44421761034894 -10.897601196736083 0 0 0
557 156 4 -3.844637207961075 -11.876319708502798 -10.207182369496717 0 0 0
556 156 2 -4.134727547236785 -11.660268659425869 -10.552391783116402 0 0 0
1384 432 2 -0.2849771231380543 -10.735434013514713 -11.749857703440357 0 0 0
2525 812 4 -0.9229930800893518 -0.045706957840436824 -5.032203936707212 0 0 0
445 119 2 -8.702993865443306 -10.112676495294105 -10.762817955640179 0 0 0
446 119 4 -8.330446974820005 -9.888624307788874 -11.009818829242755 0 0 0
3804 1238 4 -8.413853452753253 -9.657455944726939 -11.332222522762983 0 1 0
3802 1238 2 -7.9808619138594885 -9.769373418262886 -11.555813234475169 0 1 0
2619 843 4 -1.8788400301926529 -9.545141386483307 -11.181398909724653 0 0 0
2442 784 4 -2.167701678106476 -9.61120664469342 -10.910513420699036 0 0 0
2617 843 2 -1.900204608182682 -9.868854339006683 -11.561863729617604 0 0 0
2440 784 2 -2.007370114148524 -9.73472851671314 -10.453308721760033 0 0 0
1306 406 2 -11.549353772130132 -6.778420437869211 -10.721078112481122 0 1 0
1308 406 4 -11.642051692898873 -6.577836803566268 -11.169601580244462 0 1 0
899 270 4 -11.577921647517279 -6.237117059931496 -11.019681636166771 0 0 1
898 270 2 -11.418947117572081 -5.7632394077048925 -11.032607174810288 0 0 1
900 270 4 -11.259972587626883 -5.289361755478289 -11.045532713453802 0 0 1
1834 582 2 -11.044256413766584 -4.513516846694727 -10.817740350211059 0 1 0
1836 582 4 -11.320419122591792 -4.920305035394302 -10.908611290498559 0 1 0
494 135 4 -1.7991461466929064 -5.428107765634941 -10.671830950035847 0 0 0
493 135 2 -2.1042471863717642 -5.607114362980469 -11.025200436117762 0 0 0
495 135 4 -2.409348226050622 -5.786120960325997 -11.378569922199677 0 0 0
873 261 4 -1.578253859506213 -5.2209609192676405 -10.386391965957426 0 0 1
336 82 4 -2.6053705591422096 -5.579411427523959 -11.680451362740868 0 0 0
1835 582 4 -10.768093704941377 -4.106728657995153 -10.726869409923557 0 1 0
653 188 4 -10.757886303174827 -3.7851466097259325 -10.473061108181174 0 0 0
436 116 2 -5.081388263665507 -3.068850256844184 -10.78294045775992 0 0 0
437 116 4 -4.90412551460959 -3.5281715332712293 -10.695751680854578 0 0 0
400 104 2 -1.9166477649133096 -4.279036621610405 -11.847992550114503 0 0 0
401 104 4 -1.5631025559710712 -4.1133018881100964 -11.53568215428104 0 0 0
261 57 4 -1.1717309164667737 -4.129138680905511 -11.376522885976387 0 0 0
259 57 2 -0.8769197694157538 -4.195941176106723 -10.978246833207601 0 0 0
3539 1150 4 -11.304599544842175 -2.4253846503549545 -10.72588612496328 1 0 0
3538 1150 2 -11.477821238596029 -2.488423525898072 -11.190666013709246 1 0 0
3540 1150 4 -11.651042932349883 -2.551462401441189 -11.655445902455211 1 0 0
687 199 4 -5.628457894007755 -1.5962982603809897 -10.745190807365038 0 0 0
686 199 4 -5.4895412056554465 -2.568983601793721 -10.559219357140478 0 0 0
685 199 2 -5.558999549831601 -2.0826409310873553 -10.652205082252758 0 0 0
438 116 4 -5.258651012721423 -2.6095289804171387 -10.870129234665264 0 0 0
3502 1138 2 -11.692042984589067 -9.276800606109578 -0.6079144877055186 1 0 0
2680 864 2 -9.318107271879917 -11.396070061070178 -10.336061519710398 1 0 0
4255 1389 2 -8.944640503504827 -11.733656346467388 -9.231592417940043 1 1 1
4257 1389 4 -8.994636086475868 -11.900107666471804 -9.700414772091234 1 1 1
2681 864 4 -9.252859271051236 -11.73223630674136 -9.971733434518754 1 0 0
447 119 4 -9.075540756066605 -10.336728682799334 -10.515817082037602 0 0 0
1530 480 4 -3.493780147903473 -11.668306657518025 -10.108525080851813 0 1 0
1529 480 4 -3.3596088348504054 -11.102303753328787 -9.295113271740037 0 1 0
1528 480 2 -3.426694491376939 -11.385305205423405 -9.701819176295924 0 1 0
1792 568 2 -3.10265882510823 -10.487919737751307 -9.014135074633693 0 1 0
1793 568 4 -3.4470949162633056 -10.709434867341344 -9.301005823356064 0 1 0
2441 784 4 -1.8470385501905717 -9.858250388732861 -9.99610402282103 0 0 0
1794 568 4 -2.758222733953155 -10.266404608161269 -8.727264325911323 0 1 0
2515 809 2 -1.4562233717131041 -9.877522528230504 -9.390893794107189 0 0 0
2517 809 4 -1.5972254610589127 -10.115257119232702 -9.80754793730205 0 0 0
1339 417 2 -10.074075958394923 -7.405583058290589 -8.692345130861577 0 1 0
1341 417 4 -9.58519863271036 -7.301347254118083 -8.680775448058332 0 1 0
625 179 2 -5.552007632485079 -7.884846602831563 -9.074199270528277 0 0 0
282 64 4 -5.468858448638766 -7.655432838629386 -9.817778024568888 0 0 0
280 64 2 -5.04784306331079 -7.512419367061639 -10.046455072534972 0 0 0
626 179 4 -5.461896339486745 -7.5556661278935735 -9.439603388996161 0 0 0
484 132 2 -3.18651059884926 -7.647485389253835 -9.313880348536719 0 0 0
485 132 4 -3.0246172314872855 -8.1129545682926 -9.229447055525291 0 0 0
1307 406 4 -11.45665585136139 -6.979004072172153 -10.272554644717783 0 1 0
1710 540 4 -11.551063986532494 -7.483635823789884 -9.035197636707977 0 0 0
1708 540 2 -11.591727880488913 -7.241944512135321 -9.47100924462887 0 0 0
1709 540 4 -11.63239177444533 -7.000253200480758 -9.906820852549762 0 0 0
2712 874 4 -9.344066935818653 -7.306374707700921 -9.009763820667978 1 0 0
365 92 4 -7.18045149869532 -6.394299491110802 -9.143416074363586 0 0 0
281 64 4 -4.6268276779828135 -7.369405895493893 -10.275132120501056 0 0 0
347 86 4 -4.40759609869002 -7.014868706481853 -10.197008422368263 0 0 0
346 86 2 -4.068652628319093 -7.014067318350229 -9.82942621160402 0 0 0
348 86 4 -3.7297091579481663 -7.013265930218605 -9.461844000839774 0 0 0
486 132 4 -3.348403966211235 -7.182016210215069 -9.398313641548148 0 0 0
2796 902 4 -3.4189957606220123 -6.820045624915423 -9.618909877913406 1 0 0
2794 902 2 -3.2588056508614605 -6.430973980293036 -9.34879437653455 1 0 0
2795 902 4 -3.098615541100909 -6.041902335670648 -9.078678875155692 1 0 0
366 92 4 -7.705863796703787 -5.54480255001163 -9.095490463634729 0 0 0
297 69 4 -7.961675096648115 -5.208446808397919 -9.139564658290583 0 0 0
364 92 2 -7.443157647699554 -5.969551020561216 -9.119453268999157 0 0 0
497 136 4 -4.911405496629113 -4.706039443325319 -9.488623754422028 0 0 0
496 136 2 -4.555697138822658 -4.82379474530575 -9.157556913674735 0 0 0
1404 438 4 -5.079239402382872 -4.4310111422957394 -9.7441830933403 0 1 0
871 261 2 -1.1996056220606828 -5.2218987783380735 -10.05985769103452 0 0 1
872 261 4 -0.8209573846151523 -5.2228366374085065 -9.733323416111613 0 0 1
656 189 4 -0.658945525445487 -4.976693110629017 -9.488467333968737 0 0 0
652 188 2 -10.927336972985435 -3.5378910185100474 -10.072872223886394 0 0 0
1185 365 4 -11.272562862745362 -3.4577740181950567 -9.350707563277693 0 0 1
654 188 4 -11.096787642796043 -3.290635427294162 -9.672683339591613 0 0 0
1183 365 2 -11.616180595164812 -3.1159451949924786 -9.227907279908823 0 0 1
1403 438 4 -5.1157092540056 -3.644771024730229 -10.361027018051761 0 1 0
1402 438 2 -5.097474328194236 -4.037891083512984 -10.05260505569603 0 1 0
3387 1099 4 -1.8135295634061155 -3.4850639510911017 -8.720051243652879 0 0 1
260 57 4 -0.582108622364732 -4.262743671307936 -10.579970780438815 0 0 0
492 134 4 -0.28663128235309165 -4.2542002913673285 -10.295124624900712 0 0 0
3428 1113 4 -11.030113239497961 -2.4811335666845618 -10.473898139121976 1 0 1
3427 1113 2 -10.6023483808468 -2.449472869946369 -10.216964634133287 1 0 1
874 262 2 -10.200636010624256 -2.325432823092623 -9.101726773721579 0 0 1
3429 1113 4 -10.17458352219564 -2.417812173208176 -9.960031129144598 1 0 1
875 262 4 -10.312861657832777 -2.374723775511466 -9.586469804737266 0 0 1
1344 418 4 -7.503517800370378 -1.8310384216596538 -9.152376418633354 0 0 0
481 131 2 -6.106200740154279 -1.1458772260614205 -10.33305580922436 0 0 0
3048 986 4 -7.143864290094915 -1.6956372733399487 -9.134599347227851 0 0 1
482 131 4 -6.537833115023988 -1.0672412270695428 -10.093243648093768 0 0 0
1811 574 4 -6.874689566393921 -0.862287384188813 -10.21859738612752 0 0 0
3047 986 4 -6.895669386263403 -1.134021904282048 -9.923894898303566 0 0 1
3046 986 2 -7.01976683817916 -1.4148295888109983 -9.529247122765709 0 0 1
1810 574 2 -7.114019967770081 -0.4236919324479962 -10.19975624260089 0 0 0
483 131 4 -5.6745683652845695 -1.2245132250532982 -10.572867970354952 0 0 0
3582 1164 4 -9.479010841849366 -11.259274019780381 -7.757820268606318 1 1 1
3581 1164 4 -8.986477009262533 -11.22424803907824 -8.62740844954868 1 1 1
3580 1164 2 -9.23274392555595 -11.24176102942931 -8.1926143590775 1 1 1
4256 1389 4 -8.894644920533784 -11.567205026462972 -8.762770063788851 1 1 1
1845 585 4 -5.742641365484267 -8.763356605877785 -7.181108934742793 0 0 0
4132 1348 2 -3.123616246218652 -8.816198678764005 -7.458251298349442 0 1 1
4266 1392 4 -2.5722599490329956 -9.895123447066034 -8.71250958725328 0 1 1
4264 1392 2 -2.6676690510553995 -9.72977524925739 -8.250387226040653 0 1 1
4265 1392 4 -2.7630781530778035 -9.564427051448748 -7.788264864828025 0 1 1
4134 1348 4 -2.8562500523076757 -9.215670463664097 -7.595865292631635 0 1 1
2516 809 4 -1.3152212823672973 -9.639787937228304 -8.974239650912326 0 0 0
3078 996 4 -1.4049434252647446 -9.557990149871449 -8.593857237944077 0 1 0
3076 996 2 -1.1501436688136426 -9.456362156194112 -8.175827532045378 0 1 0
3077 996 4 -0.8953439123625415 -9.354734162516776 -7.757797826146677 0 1 0
4409 1440 4 -0.5715259648245329 -9.473116820874138 -7.520534110290259 0 1 0
34 7 3 -11.432542310172456 -7.863482282686097 -8.921545613086188 0 0 0
35 7 3 -10.74035731579215 -7.857557168260741 -8.625328080564016 0 0 0
1354 422 2 -11.059995039943562 -8.763787923006758 -7.637367677020631 0 0 0
1356 422 4 -11.067952678728203 -8.628161517880816 -8.118555950171004 0 0 0
33 7 3 -11.239424856368474 -8.368816181181666 -8.387744807478631 0 0 0
31 7 1 -11.18079942695972 -7.933802647232073 -8.538165166164644 0 0 0
1340 417 4 -10.562953284079486 -7.509818862463096 -8.703914813664822 0 1 0
32 7 3 -11.323130868312465 -7.6430117551077785 -8.211389374741975 0 0 0
810 240 4 -5.680277414811957 -8.884675002866267 -7.575039419633756 0 0 0
809 240 4 -5.81959877885907 -8.510634743390714 -8.491927330891096 0 0 0
627 179 4 -5.642118925483413 -8.214027077769552 -8.708795152060393 0 0 0
808 240 2 -5.749938096835513 -8.69765487312849 -8.033483375262426 0 0 0
4133 1348 4 -3.3909824401296285 -8.416726893863913 -7.320637304067249 0 1 1
692 201 4 -11.195249555812714 -7.2615750484884245 -8.161404955665413 0 0 0
691 201 2 -11.304353848223501 -6.919485880242553 -7.81345200719899 0 0 0
693 201 4 -11.413458140634289 -6.577396711996682 -7.465499058732566 0 0 0
2710 874 2 -9.126873791657362 -6.869197951609661 -8.90158054070853 1 0 0
1465 459 2 -9.330810994313946 -5.957814325158915 -8.312704236853703 0 1 0
1467 459 4 -9.13594715138896 -6.104273890112002 -8.74925627104214 0 1 0
2711 874 4 -8.90968064749607 -6.4320211955183995 -8.793397260749083 1 0 0
1466 459 4 -9.525674837238933 -5.811354760205828 -7.876152202665265 0 1 0
1126 346 2 -0.31212617742754634 -6.456494196501368 -8.178108152079346 0 0 1
1128 346 4 -0.6504340319129955 -6.235652136402699 -7.8835295036924276 0 0 1
295 69 2 -7.794543371326655 -4.757127526360866 -9.003999574097056 0 0 0
526 146 2 -3.5005677261014867 -5.307089496022483 -8.893834462382124 0 0 0
527 146 4 -3.812420188072765 -4.916274803908101 -8.890382160325004 0 0 0
498 136 4 -4.199988781016202 -4.94155004728618 -8.826490072927443 0 0 0
528 146 4 -3.188715264130209 -5.6979041881368655 -8.897286764439244 0 0 0
546 152 4 -2.735015458320415 -4.797836082636974 -8.57346660652496 0 0 0
544 152 2 -2.385358155338073 -4.844383930039158 -8.219103701620107 0 0 0
545 152 4 -2.0357008523557307 -4.8909317774413426 -7.864740796715253 0 0 0
1103 338 4 -1.7140512784284634 -4.781095396008133 -7.653830044648575 0 0 1
655 189 2 -0.7416995326604624 -4.924334104827886 -8.998150794577334 0 0 0
1371 427 4 -0.6847883324299777 -5.952575810134247 -7.595029836777653 0 1 0
1102 338 2 -1.2735482398874292 -4.846613800932355 -7.8811281125066435 0 0 1
657 189 4 -0.8244535398754378 -4.871975099026755 -8.507834255185932 0 0 0
1104 338 4 -0.8330452013463946 -4.912132205856577 -8.108426180364713 0 0 1
296 69 4 -7.627411646005195 -4.305808244323813 -8.86843448990353 0 0 0
1536 482 4 -7.279669998232043 -4.471095751914194 -8.805584268710206 0 0 0
1535 482 4 -6.590071781574272 -3.807776358330794 -8.51496134862861 0 0 0
1534 482 2 -6.9348708899031575 -4.139436055122494 -8.660272808669408 0 0 0
1448 453 4 -6.379224356900343 -3.7178276028575086 -8.855682527195913 0 0 0
1447 453 2 -6.142879762969614 -3.299127144887418 -8.718455855535698 0 0 0
3385 1099 2 -2.2297462614872106 -3.5304814919304457 -8.446736576606689 0 0 1
1660 524 2 -3.0457696277787987 -3.8989396686846156 -7.586515451051772 0 0 0
1662 524 4 -2.8034663687775567 -3.9394488544484223 -8.022001543304544 0 0 0
3386 1099 4 -2.645962959568305 -3.5758990327697897 -8.1734219095605 0 0 1
876 262 4 -10.088410363415736 -2.276141870673778 -8.616983742705889 0 0 1
3085 999 2 -10.676028229620119 -2.5151647639605157 -8.123267845794803 1 0 1
3087 999 4 -10.875920695484686 -2.6825265052272247 -7.696614532611137 1 0 1
3269 1060 4 -10.775362528632376 -2.32979913638921 -7.493453792689469 1 0 1
3086 999 4 -10.476135763755552 -2.3478030226938067 -8.549921158978469 1 0 1
1342 418 2 -7.574281024538416 -2.0810794116566913 -8.725208922881375 0 0 0
1343 418 4 -7.645044248706454 -2.3311204016537284 -8.298041427129395 0 0 0
1717 543 2 -7.321323615961585 -2.1850286508387335 -7.570445188005823 0 0 0
1718 543 4 -7.4704863602616856 -2.0990060429186905 -8.039860341830215 0 0 0
1513 475 2 -6.44155089031158 -2.236721516981537 -8.534924302345388 0 0 0
1514 475 4 -6.6729525717682225 -1.7935879807638124 -8.54419419438385 0 0 0
1515 475 4 -6.210149208854938 -2.6798550531992613 -8.525654410306926 0 0 0
1388 433 4 -6.545843303796236 -1.5343622475655232 -8.252447811825231 0 0 0
1449 453 4 -5.906535169038886 -2.8804266869173274 -8.581229183875482 0 0 0
1563 491 4 -7.477296679224755 -0.7170748644192769 -7.63490788710841 0 0 0
1389 433 4 -7.219494627259586 -1.0059299304131917 -7.735772690898862 0 0 0
1387 433 2 -6.882668965527911 -1.2701460889893574 -7.994110251362047 0 0 0
3338 1083 4 -9.564782690250311 -11.495321051735521 -7.449910587139482 1 0 1
3337 1083 2 -9.37295828323475 -11.823550289680545 -7.125150730890385 1 0 1
4408 1440 2 -0.09746062898648752 -9.489644525736136 -7.362455356726073 0 1 0
1355 422 4 -11.052037401158922 -8.8994143281327 -7.156179403870258 0 0 0
1844 585 4 -6.594309134799179 -9.001363082955464 -6.714188248137854 0 0 0
1843 585 2 -6.168475250141723 -8.882359844416625 -6.947648591440323 0 0 0
672 194 4 -3.155208730485129 -8.281364702828542 -6.978603800078322 0 0 0
670 194 2 -3.3834585940489736 -7.966813398192423 -6.664025548231904 0 0 0
671 194 4 -3.6117084576128184 -7.652262093556304 -6.349447296385485 0 0 0
533 148 4 -3.5058389013893927 -7.274871067005045 -6.345070259341103 0 0 0
426 112 4 -11.711173218921589 -6.856663233858949 -6.7523914748403815 0 0 0
27 6 3 -11.595744258982492 -6.2879329074965105 -7.2542694163872685 0 0 0
30 6 3 -11.326478719531888 -5.854861299707989 -6.709342768304102 0 0 0
28 6 3 -11.437364571550583 -6.588963177348796 -6.584048071426563 0 0 0
29 6 3 -10.87770588471204 -6.358547861778345 -7.043712010186192 0 0 0
333 81 4 -10.479860985518789 -6.4341266663050005 -7.120128814962658 0 0 0
26 6 1 -11.308411550546767 -6.270099025929464 -6.895491118087352 0 0 0
331 81 2 -10.133001088657977 -6.151587418420355 -7.343421863116627 0 0 0
332 81 4 -9.786141191797165 -5.869048170535712 -7.566714911270598 0 0 0
1775 562 4 -4.6664816839009715 -5.796496293878381 -6.5307984709666735 0 0 0
614 175 4 -4.952848272136698 -5.8057319911310525 -6.806537086763251 0 0 0
532 148 2 -3.704897209890117 -7.097251832519803 -5.922190610554288 0 0 0
396 102 4 -11.438549810158184 -5.523575772221632 -6.4939042105230325 0 0 0
394 102 2 -11.158623625900647 -5.146758580013795 -6.666096356172205 0 0 0
395 102 4 -10.87869744164311 -4.769941387805959 -6.838288501821378 0 0 0
3612 1174 4 -10.519589445820776 -4.581484865211168 -6.787508177910004 1 1 0
585 165 4 -9.612915385295032 -5.515484676538184 -7.632641459363007 0 0 0
584 165 4 -9.210063471778184 -4.7857032772636225 -7.080256226894443 0 0 0
583 165 2 -9.411489428536607 -5.150593976900905 -7.356448843128725 0 0 0
613 175 2 -5.256680609685066 -5.462732166920906 -6.60644453005208 0 0 0
615 175 4 -5.560512947233433 -5.11973234271076 -6.406351973340908 0 0 0
372 94 4 -5.561892639396647 -5.038107550689575 -6.006791280252322 0 0 0
370 94 2 -5.689576425323164 -4.571549353425073 -5.880219958948314 0 0 0
1774 562 2 -4.186926433014676 -5.664797534609203 -6.479008528365858 0 0 0
1776 562 4 -3.707371182128381 -5.533098775340026 -6.427218585765043 0 0 0
2402 771 4 -3.521845588544675 -5.847737580440254 -6.570468535043258 0 0 0
2401 771 2 -3.1108999600566234 -5.5634878872865325 -6.552418538685005 0 0 0
264 58 4 -2.0732572050343157 -4.663539604568628 -7.529495486955479 0 0 0
2403 771 4 -2.6999543315685717 -5.2792381941328115 -6.534368542326752 0 0 0
262 58 2 -2.3381303452774547 -4.778530047871603 -7.1213050687346025 0 0 0
263 58 4 -2.6030034855205937 -4.893520491174577 -6.713114650513726 0 0 0
1799 570 4 -1.4202464694104266 -4.747108390438093 -6.133726213786956 0 1 0
1798 570 2 -1.2453722501313207 -5.173896937080117 -6.326782018896792 0 1 0
1369 427 2 -0.9679645684663661 -5.755504455232212 -7.233126396034766 0 1 0
1370 427 4 -1.2511408045027534 -5.558433100330176 -6.871222955291882 0 1 0
1800 570 4 -1.0704980308522136 -5.600685483722139 -6.519837824006629 0 1 0
3610 1174 2 -10.459652392658317 -4.255930049573535 -6.412779460471194 1 1 0
3611 1174 4 -10.399715339495858 -3.9303752339359015 -6.038050743032385 1 1 0
1770 560 4 -7.876956361242629 -3.0102254906124624 -6.2473736686857 0 0 0
1842 584 4 -6.167209235410752 -3.993783354824856 -5.91222448311464 0 0 0
1661 524 4 -3.28807288678004 -3.858430482920809 -7.1510293587990015 0 0 0
529 147 2 -3.5964520432432687 -3.7818467674651384 -6.485358849398167 0 0 0
531 147 4 -4.000119477777447 -3.8611794595905 -6.201177698974203 0 0 0
377 96 4 -4.30002541047011 -4.077677945066275 -6.026459008982953 0 0 0
530 147 4 -3.1927846087090903 -3.702514075339777 -6.76953999982213 0 0 0
3268 1060 2 -11.123099219572458 -2.2216235392919343 -7.150850182132742 1 0 1
3270 1060 4 -11.47083591051254 -2.1134479421946586 -6.808246571576016 1 0 1
1269 393 4 -11.2967303204207 -2.043635763134344 -6.433623655463247 0 0 0
1267 393 2 -11.0501353163016 -2.2336982418981925 -6.0423856740383455 0 0 0
1557 489 4 -7.981386103166776 -2.7362840461918387 -5.993063293882667 0 0 0
1768 560 2 -7.55395370193259 -2.811742299152744 -6.573370148402039 0 0 0
1719 543 4 -7.172160871661485 -2.2710512587587783 -7.10103003418143 0 0 0
1769 560 4 -7.230951042622551 -2.613259107693026 -6.899366628118377 0 0 0
231 47 4 -0.16560448047864615 -2.7453790905182096 -6.117234622980194 0 0 0
1562 491 4 -7.235346248305614 -0.2653830310520122 -6.776167835260691 0 0 0
2628 846 4 -7.112068608610645 -0.3422038621531796 -6.3891611228012835 0 0 0
1561 491 2 -7.356321463765184 -0.49122894773564457 -7.20553786118455 0 0 0
2626 846 2 -6.990276268940691 -0.5927881603748564 -5.973981480378266 0 0 0
534 148 4 -3.903955518390842 -6.919632598034561 -5.499310961767472 0 0 0
503 138 4 -3.88955469865156 -6.541935529759536 -5.579301439619557 0 0 0
502 138 2 -3.8926821171955517 -6.105802739956217 -5.33480520465645 0 0 0
1200 370 4 -11.872250406672322 -5.005145559370663 -5.514348969847485 0 0 0
1198 370 2 -11.637101171552441 -4.5959135755969145 -5.349321636719143 0 0 0
2838 916 4 -10.174981292586116 -4.377866849682226 -4.746548732787269 1 0 0
2836 916 2 -10.277244234205002 -4.285066890922963 -5.22710097596723 1 0 0
504 138 4 -3.8958095357395415 -5.669669950152898 -5.090308969693345 0 0 0
2849 920 4 -3.5866853441110336 -5.4820189966311315 -4.952811851862265 0 0 0
2848 920 2 -3.886310505025176 -5.0857757220668445 -4.896101797110663 0 0 0
2850 920 4 -4.1859356659393185 -4.6895324475025575 -4.8393917423590604 0 0 0
572 161 4 -1.5773884678199364 -4.397726720685233 -5.951659340085614 0 0 0
408 106 4 -1.3085364931057644 -4.638160007226228 -5.759582472156604 0 0 0
406 106 2 -1.0729864832360114 -4.623018822649549 -5.318802552718463 0 0 0
617 176 4 -0.46148543415989285 -4.754184062324511 -4.921078247774594 0 0 0
407 106 4 -0.8374364733662584 -4.607877638072871 -4.878022633280322 0 0 0
3639 1183 4 -11.496308761820886 -4.179751047599122 -4.781764072690807 1 1 0
1199 370 4 -11.401951936432562 -4.186681591823167 -5.1842943035908 0 0 0
2837 916 4 -10.379507175823885 -4.192266932163699 -5.707653219147191 1 0 0
744 218 4 -9.566825408340218 -3.09607055792325 -5.184920523695939 0 0 0
742 218 2 -9.460025384213477 -3.473639108101747 -4.875024178505166 0 0 0
743 218 4 -9.353225360086736 -3.851207658280244 -4.565127833314393 0 0 0
1841 584 4 -6.536130485977748 -3.6332053096894916 -5.055556178432441 0 0 0
1840 584 2 -6.351669860694249 -3.8134943322571737 -5.483890330773541 0 0 0
1451 454 4 -6.574025355886004 -3.880207981747346 -4.752049690259677 0 0 0
1450 454 2 -6.260524177140605 -3.693333141944036 -4.410297140637116 0 0 0
371 94 4 -5.81726021124968 -4.104991156160572 -5.753648637644306 0 0 0
378 96 4 -4.3820134334019425 -4.5069533325893305 -5.127014399370443 0 0 0
376 96 2 -4.341019421936026 -4.2923156388278025 -5.576736704176698 0 0 0
2204 705 4 -4.3043777998183845 -4.30642928571357 -4.8046499110762415 0 0 1
2203 705 2 -4.231503806052669 -3.882276058265538 -4.550124036796218 0 0 1
1077 329 4 -4.165673325032886 -3.221959281610192 -4.632601058330337 0 0 1
571 161 2 -1.967112687202455 -4.143151005301636 -5.769159373063597 0 0 0
573 161 4 -2.3568369065849732 -3.888575289918039 -5.58665940604158 0 0 0
1268 393 4 -10.803540312182498 -2.4237607206620413 -5.651147692613444 0 0 0
1545 485 4 -10.74337201023505 -2.75386070028374 -5.48394578091337 0 0 0
1543 485 2 -10.327170467058732 -2.900640447996563 -5.248930927938887 0 0 0
1830 580 4 -9.685828717932162 -2.731965540339942 -5.130734165057179 0 0 0
1544 485 4 -9.910968923882413 -3.047420195709386 -5.013916074964404 0 0 0
1828 580 2 -9.304617736775379 -2.411270480252195 -5.173546152629393 0 0 0
1829 580 4 -8.923406755618597 -2.090575420164448 -5.2163581402016055 0 0 0
1556 489 4 -8.663325796496443 -2.33928230249141 -5.378776821495578 0 0 0
1555 489 2 -8.322355949831609 -2.5377831743416244 -5.685920057689122 0 0 0
1895 602 4 -8.582606896476392 -2.168364419153231 -5.042759471107753 0 0 1
1894 602 2 -8.231234420181094 -1.9490752140949477 -4.762670864687154 0 0 1
1896 602 4 -7.879861943885795 -1.7297860090366641 -4.4825822582665555 0 0 1
1075 329 2 -4.089422094044945 -2.7376542815323206 -4.534445993905508 0 0 1
1492 468 2 -4.437276989436793 -1.6450593733691654 -4.640889308732759 0 0 -1
1166 359 4 -7.799743973504718 -1.478279536475251 -4.793461912747086 0 0 1
1165 359 2 -7.395803056190356 -1.2883718818201921 -5.018776843506162 0 0 1
2627 846 4 -6.868483929270736 -0.8433724585965332 -5.558801837955249 0 0 0
1167 359 4 -6.991862138875996 -1.0984642271651337 -5.244091774265238 0 0 1
1494 468 4 -4.682016622690791 -1.2279351770103868 -4.51396446196526 0 0 -1
647 186 4 -4.603925550530507 -0.8177094383065653 -4.545927947613838 0 0 0
293 68 4 -9.402127212245613 -9.004078975516393 -4.10903836236859 0 0 0
292 68 2 -9.895469067850321 -8.938111291437462 -4.156599671912177 0 0 0
1787 566 4 -11.719848614267093 -8.301077107670105 -3.6571898406560024 0 1 0
1686 532 4 -11.42408397917938 -8.398032237351 -3.8712947063341328 0 1 0
1684 532 2 -11.01160040062092 -8.679972867910008 -3.8904461621337583 0 1 0
3861 1257 4 -1.8175491327646895 -0.34366299990634064 -0.7343731587759608 0 0 0
1685 532 4 -10.599116822062456 -8.961913498469015 -3.909597617933384 0 1 0
294 68 4 -10.388810923455027 -8.872143607358531 -4.204160981455765 0 0 0
885 265 4 -8.841220813289038 -6.995905286421157 -2.778289109169698 0 0 0
1489 467 2 -7.945903771840381 -4.614097621881655 -3.4256328810084837 0 0 0
1490 467 4 -8.20388969247365 -4.417251271514862 -3.806020550501207 0 0 0
2736 882 4 -2.574162235038326 -4.7311258604025594 -3.3985155935459783 0 0 0
3637 1183 2 -11.369372926889124 -4.293827781674225 -4.311791953780857 1 1 0
3638 1183 4 -11.242437091957363 -4.407904515749328 -3.8418198348709076 1 1 0
3994 1302 2 -10.888027901208138 -3.8555177242728216 -3.3594249037540487 1 0 0
3996 1302 4 -11.219957730942177 -4.002491980807755 -3.7032579388860225 1 0 0
3995 1302 4 -10.5560980714741 -3.7085434677378877 -3.015591868622075 1 0 0
1337 416 4 -9.154947944699805 -4.120692948540071 -4.354248295175135 0 0 0
1336 416 2 -8.845427870410752 -4.385693077741832 -4.06446862864308 0 0 0
1338 416 4 -8.5359077961217 -4.650693206943593 -3.7746889621110236 0 0 0
1452 454 4 -5.947022998395204 -3.5064583021407256 -4.068544591014554 0 0 0
249 53 4 -5.100135474732853 -3.0661254728196847 -3.0490059675768606 0 0 0
989 300 4 -5.220596960609454 -2.905702157279712 -3.3947476907791923 0 0 1
988 300 2 -5.529229815824143 -3.010090008499043 -3.774021915054454 0 0 1
990 300 4 -5.837862671038833 -3.1144778597183738 -4.153296139329714 0 0 1
2205 705 4 -4.158629812286954 -3.4581228308175063 -4.295598162516193 0 0 1
1411 441 2 -1.918049968927425 -3.478088891816185 -4.299418420250269 0 0 0
1413 441 4 -2.3084703282764125 -3.1661945185280125 -4.3165602671940935 0 0 0
1412 441 4 -1.5276296095784376 -3.7899832651043575 -4.282276573306445 0 0 0
639 183 4 -1.2236458467592453 -3.6917133272633222 -4.582395026577399 0 0 0
637 183 2 -0.8167256146772334 -3.402149111413341 -4.5585520061788385 0 0 0
638 183 4 -0.40980538259522115 -3.1125848955633595 -4.534708985780278 0 0 0
1076 329 4 -4.013170863057004 -2.2533492814544496 -4.436290929480679 0 0 1
1493 468 4 -4.192537356182793 -2.062183569727944 -4.7678141555002576 0 0 -1
373 95 2 -3.8666379092256364 -1.5614202341014691 -3.2394019808702867 0 0 0
375 95 4 -3.96414021199973 -2.0400748117733007 -3.132710386883563 0 0 0
3819 1243 4 -4.166096511361713 -2.3669370816760464 -3.224727340443274 0 0 -1
3817 1243 2 -4.436788858060891 -2.5537847278805508 -2.8481458611511448 0 0 -1
1677 529 4 -2.0546356221728947 -1.952335174439097 -4.194255033641602 0 0 0
1676 529 4 -2.225311524351479 -2.865783852748478 -4.563688719854467 0 0 0
1675 529 2 -2.139973573262187 -2.4090595135937876 -4.378971876748034 0 0 0
1773 561 4 -2.435463459097412 -1.8066430257795476 -4.264939696359269 0 0 0
1617 509 4 -11.484268883923319 -0.42770206038559233 -3.0348346061817764 0 0 0
1481 464 4 -11.002793848345338 -1.289704533360144 -2.838741478645863 0 0 0
3618 1176 4 -0.02467435534838852 -10.194689998397932 -2.9500954918315268 0 1 0
1304 405 4 -9.880972438909392 -1.4891412453366564 -3.4272962364538633 0 0 0
2893 935 2 -9.316712528269436 -0.9234508948594568 -3.2739977756209497 1 0 0
2895 935 4 -9.525887781883261 -1.3203097564264732 -3.4947889830335743 1 0 0
2894 935 4 -9.107537274655611 -0.5265920332924396 -3.053206568208325 1 0 0
1303 405 2 -10.284880147653292 -1.5156200588834405 -3.1337703683432103 0 0 0
374 95 4 -3.7691356064515427 -1.0827656564296373 -3.34609357485701 0 0 0
646 186 2 -4.269573421774298 -0.5075678851076397 -4.340938018651381 0 0 0
22 5 3 -3.5308057171987506 -0.8504278143552026 -3.58928141448772 0 0 0
21 5 1 -3.304968511700686 -0.46460591531720546 -3.697628167255661 0 0 0
25 5 3 -3.2415788393934717 -0.2170193531691046 -3.320689652789057 0 0 0
648 186 4 -3.93522129301809 -0.19742633190871411 -4.135948089688925 0 0 0
24 5 3 -3.5570075108674084 -0.22436374488837263 -4.0043202643929945 0 0 0
23 5 3 -2.895153044398765 -0.5778321598934923 -3.8834536237977457 0 0 0
1772 561 4 -2.623573086725037 -0.8592472305071648 -4.005988011494406 0 0 0
1771 561 2 -2.5295182729112247 -1.3329451281433566 -4.135463853926837 0 0 0
2489 800 4 -4.077105259822085 -11.44004001288482 -1.5700620987292588 0 0 0
328 80 2 -0.1732644292687594 -11.434931546153075 -1.8521896161484517 0 0 0
2081 664 4 -0.7452525724648366 -11.19357806922515 -2.479109985912916 -1 1 0
330 80 4 -0.579086501806314 -11.300136771779616 -2.1113012026169886 0 0 0
2080 664 2 -0.5560732171288421 -10.799703659905108 -2.7221616701238682 -1 1 0
2082 664 4 -0.36689386179284755 -10.405829250585064 -2.9652133543348214 -1 1 0
611 174 4 -11.54008319745252 -6.892490207610871 -1.5504166024472266 0 0 0
610 174 2 -11.140466255678417 -6.759409023899536 -1.8198524916471084 0 0 0
612 174 4 -10.740849313904313 -6.626327840188201 -2.0892883808469884 0 0 0
2979 963 4 -10.525047714788924 -6.340937053478016 -1.8960816716166877 1 0 0
883 265 2 -8.67414651047222 -6.525281398564495 -2.7538078200600014 0 0 0
884 265 4 -8.507072207655401 -6.054657510707832 -2.7293265309503036 0 0 0
1022 311 4 -8.339371310607499 -5.691986744991984 -2.6402279456367053 0 0 0
1021 311 2 -8.085724272022777 -5.720167756024373 -2.2102639815261185 0 0 0
1491 467 4 -7.6879178512071125 -4.810943972248447 -3.0452452115157613 0 0 0
1487 466 4 -7.649556854111425 -4.508810266314538 -2.7661143478887373 0 0 0
1023 311 4 -7.832077233438056 -5.748348767056761 -1.7803000174155321 0 0 0
468 126 4 -7.845923033757581 -5.358749883453701 -1.662619335881192 0 0 0
1486 466 2 -7.213401853196224 -4.563278029195876 -2.5277824826606006 0 0 0
1488 466 4 -6.777246852281024 -4.617745792077215 -2.2894506174324643 0 0 0
2734 882 2 -2.671930543147845 -4.766265325032084 -2.909428100396657 0 0 0
2735 882 4 -2.769698851257364 -4.801404789661608 -2.4203406072473355 0 0 0
4443 1451 4 -0.1142066440425197 -5.399129041068542 -1.8022805451236341 0 0 0