LAMMPS data file via write_data, version 4 Feb 2025, timestep = 10000000, units = lj

4590 atoms
4 atom types
3090 bonds
1 bond types

-11.911732 11.911732 xlo xhi
-11.911732 11.911732 ylo yhi
-11.911732 11.911732 zlo zhi

Masses

1 1
2 1
3 1
4 1

Bond Coeffs # zero

1 0

Atoms # bond

2069 660 4 -6.502389697826714 -10.649989082293907 -11.077707873291697 0 1 1
1629 513 4 -6.614696741421482 -11.043247693363133 -11.014579083382804 0 1 0
1627 513 2 -6.715264805182827 -11.531984257156614 -10.982600406707284 0 1 0
2068 660 2 -6.491113925495458 -10.337746724993163 -11.46806356655891 0 1 1
253 55 2 -1.8467390592833566 -11.400742099955835 -10.933848771998273 0 0 0
255 55 4 -1.9094310574300164 -11.505004531574572 -11.418822027674288 0 0 0
2529 813 4 -2.167814373912516 -11.774711348664868 -11.519201293989083 0 0 0
270 60 4 -4.646437995512882 -0.07145927163873413 -0.19438331794268146 0 0 0
389 100 4 -7.684832732123522 -11.90335274462498 -4.1759891571685355 0 0 0
507 139 4 -8.547020862010712 -10.26824642308886 -11.535888039816621 0 0 0
505 139 2 -8.37633926559627 -10.01341571709746 -11.141009445906064 0 0 0
314 75 4 -8.420888112384747 -10.485477269535068 -11.851403399568104 0 0 0
506 139 4 -8.20565766918183 -9.758585011106062 -10.746130851995508 0 0 0
2070 660 4 -6.479838153164202 -10.02550436769242 -11.858419259826126 0 1 1
874 262 2 -7.217746886263748 -9.11337313706652 -10.436914165397578 0 0 1
876 262 4 -7.5440835753631665 -9.168100374331107 -10.81175986011624 0 0 1
418 110 2 -10.663017688129536 -8.240196372589747 -10.918947795077235 0 0 0
420 110 4 -10.938660926552327 -8.385265104510994 -10.527826499146464 0 0 0
419 110 4 -10.387374449706742 -8.095127640668498 -11.310069091008009 0 0 0
626 179 4 -10.420095893027018 -7.746383371242766 -11.533921115853706 0 0 0
3051 987 4 -8.082424489487408 -7.971018017402636 -11.128931483698285 1 0 1
1203 371 4 -7.976146770511882 -7.611595701225282 -11.248527054967711 0 0 1
3049 987 2 -7.9407009695846575 -8.435012252468338 -11.008002604879554 1 0 1
3050 987 4 -7.798977449681905 -8.89900648753404 -10.887073726060821 1 0 1
877 263 2 -4.451610544394824 -7.805376922450075 -11.641242043654737 0 0 1
879 263 4 -4.460615175836271 -7.872135119841203 -11.145800564069402 0 0 1
2534 815 4 -4.525912023738182 -7.9089284945520415 -10.75192331853011 0 0 0
964 292 2 -9.410702372944467 -6.792372582290516 -11.595343195685103 0 0 1
965 292 4 -9.026963426591537 -6.8699479929742795 -11.284334390811239 0 0 1
1201 371 2 -8.35987124802095 -7.319991554026319 -11.38165311063167 0 0 1
1202 371 4 -8.743595725530017 -7.028387406827356 -11.514779166295627 0 0 1
2687 866 4 -6.185112977404511 -7.380738549622665 -10.731207759435168 0 0 0
2686 866 2 -6.501844197393681 -7.271941675265092 -10.359933501757338 0 0 0
3186 1032 4 -5.891760830973858 -7.148456075375157 -10.856771831968002 0 0 1
3184 1032 2 -5.4280920928936025 -7.050573383010056 -10.69730308938047 0 0 1
3185 1032 4 -4.964423354813348 -6.952690690644955 -10.53783434679294 0 0 1
2544 818 4 -4.613301114552935 -6.933326146545235 -10.716119752245355 0 0 0
2542 818 2 -4.173233054297142 -6.919272598210851 -10.953064049754232 0 0 0
2478 796 4 -3.481719300258739 -6.613560141767015 -11.266694696234147 0 0 0
2543 818 4 -3.7331649940413483 -6.905219049876467 -11.19000834726311 0 0 0
2476 796 2 -3.1463697451042942 -6.258930639212108 -11.375223917069748 0 0 0
3386 1099 4 -1.8086607998900566 -6.456260186591871 -10.85277980024553 0 0 1
150 30 3 -1.9213678014690272 -6.40005514152491 -11.221164698639157 0 0 1
146 30 1 -1.9712308671981957 -6.101308504820771 -11.56125898223419 0 0 1
2477 796 4 -2.811020189949849 -5.9043011366572005 -11.48375313790535 0 0 0
149 30 3 -2.3894199226799047 -5.901775594489182 -11.536671758521768 0 0 1
3385 1099 2 -1.8215422526900054 -6.319151504404602 -10.372118508438158 0 0 1
148 30 3 -1.6396313930588362 -5.777612733710231 -11.537534806471568 0 0 1
2469 793 4 -2.586121472387505 -5.555307594997803 -11.472166146026739 0 0 0
3263 1058 4 -1.243475072078036 -5.780074486926662 -11.424129866546101 0 0 1
3262 1058 2 -1.0067064565265262 -5.37125519580883 -11.260400181090203 0 0 1
3335 1082 4 -0.4981488053501206 -4.630074405486162 -11.141379032637868 0 0 1
3264 1058 4 -0.7699378409750164 -4.962435904690999 -11.096670495634305 0 0 1
841 251 2 -11.321378782582673 -3.163982442726219 -10.714827308533152 0 0 1
843 251 4 -10.931360793311123 -3.4612130544839057 -10.812499881339624 0 0 1
1937 616 4 -10.86975139653653 -3.7273049031916954 -11.10682469584747 0 0 1
1936 616 2 -10.730643626363165 -3.837102524084694 -11.574364545190182 0 0 1
2203 705 2 -11.875827811063886 -4.285704029254556 -10.568460951199933 0 0 1
2423 778 4 -2.453523738791754 -0.48720948539087183 -1.3499554256680673 0 0 0
983 298 4 -7.7238287685266265 -3.4184480255558984 -10.567483534016768 0 0 1
827 246 4 -7.889799927196063 -3.080461860232949 -10.653341200644961 0 0 1
982 298 2 -7.405146662180823 -3.8026782083879995 -10.53904268846331 0 0 1
984 298 4 -7.08646455583502 -4.1869083912201 -10.510601842909852 0 0 1
3334 1082 2 -0.5779492105211556 -4.480491960760741 -10.670999411943791 0 0 1
842 251 4 -11.711396771854224 -2.8667518309685325 -10.61715473572668 0 0 1
826 246 2 -7.809121672681843 -2.6055990869757464 -10.519190666457666 0 0 1
828 246 4 -7.728443418167624 -2.130736313718546 -10.38504013227037 0 0 1
3604 1172 2 -8.3152031952131 -1.512813911842171 -10.467404135585216 1 0 0
3605 1172 4 -7.8992693977370445 -1.7817078197320146 -10.535925244860707 1 0 0
856 256 2 -0.08338596736690018 -1.5755782450265345 -7.458518905683218 0 0 1
2456 789 4 -1.3526451252800358 -1.9378614463396053 -11.828434708958525 0 0 0
258 56 4 -1.1626091302218093 -1.7612767277690566 -11.516208971433183 0 0 0
256 56 2 -0.695541685581298 -1.7193612111004615 -11.342741131130882 0 0 0
257 56 4 -0.2284742409407866 -1.677445694431866 -11.169273290828581 0 0 0
3606 1172 4 -8.731136992689153 -1.2439200039523275 -10.398883026309726 1 0 0
254 55 4 -1.7840470611366968 -11.296479668337097 -10.448875516322257 0 0 0
996 302 4 -1.7568050896896183 -11.052454052249898 -10.108577075610935 0 0 0
994 302 2 -1.760322916998139 -10.566945402499126 -9.989124256859043 0 0 0
942 284 4 -8.14163612598589 -9.898254899409967 -10.374445261077335 0 0 1
941 284 4 -7.755385938911776 -9.980053229273842 -9.455685321693004 0 0 1
940 284 2 -7.948511032448833 -9.939154064341905 -9.915065291385169 0 0 1
1634 515 4 -7.617508364680152 -10.275524531689637 -9.233199476938504 0 1 0
875 262 4 -6.891410197164328 -9.05864589980193 -10.062068470678915 0 0 1
1598 503 4 -6.588741365989452 -9.15295755593478 -9.812878589790783 0 1 0
3567 1159 4 -6.674643066597087 -8.776334932656047 -9.867632984744708 1 1 0
1597 503 2 -6.252233166249396 -9.518044049978897 -9.753937234404377 0 1 0
1599 503 4 -5.915724966509339 -9.883130544023015 -9.694995879017974 0 1 0
1103 338 4 -5.516120342958791 -9.905987291340402 -9.630503938000722 0 0 1
1102 338 2 -5.231867188776784 -10.134421418936123 -9.288425008969995 0 0 1
1104 338 4 -4.947614034594777 -10.362855546531843 -8.946346079939266 0 0 1
995 302 4 -1.7638407443066593 -10.081436752748353 -9.86967143810715 0 0 0
1338 416 4 -2.009498870946063 -9.881374887238389 -9.635990626969523 0 1 0
1336 416 2 -2.324373659019399 -9.855266640662293 -9.248470011652167 0 1 0
714 208 4 -10.864890110108501 -8.150816518260676 -10.202740135740521 0 0 0
712 208 2 -10.921085764553212 -7.706433397772592 -9.98055622397684 0 0 0
3565 1159 2 -6.799469343560045 -8.575013510250288 -9.427305736598035 1 1 0
3566 1159 4 -6.924295620523003 -8.37369208784453 -8.986978488451362 1 1 0
2533 815 2 -4.558638566443845 -7.7339369029451595 -10.284690061719608 0 0 0
2535 815 4 -4.591365109149509 -7.558945311338278 -9.817456804909105 0 0 0
4308 1406 4 -2.9793309076905112 -7.886508099261579 -9.024656378116003 0 1 1
4128 1346 4 -3.190524303918705 -8.154015441854968 -8.824696187109057 0 1 1
453 121 4 -11.04104493926572 -6.866870322051401 -9.684945033084876 0 0 0
713 208 4 -10.977281418997922 -7.262050277284509 -9.75837231221316 0 0 0
451 121 2 -10.812171457243615 -6.594849791599537 -9.33334617040219 0 0 0
452 121 4 -10.58329797522151 -6.322829261147671 -8.981747307719505 0 0 0
3183 1031 4 -8.275649163652561 -7.005624165271785 -9.192040295442714 1 0 1
2991 967 4 -7.91438898764062 -7.2192723542284325 -9.205690684321723 0 0 1
2989 967 2 -7.559611936345624 -7.156467884089768 -9.552373309217595 0 0 1
4300 1404 2 -6.937659876711183 -6.2987562136339035 -9.976605154916724 0 1 1
4302 1404 4 -6.940324488351525 -6.784499678551376 -9.858088547917042 0 1 1
2688 866 4 -6.818575417382851 -7.163144800907519 -9.988659244079507 0 0 0
2990 967 4 -7.204834885050627 -7.093663413951105 -9.899055934113466 0 0 1
750 220 4 -4.805599966261773 -7.2744056457186055 -9.624462007582391 0 0 0
748 220 2 -4.590147471710966 -6.9464127271363445 -9.314621939238924 0 0 0
749 220 4 -4.374694977160159 -6.6184198085540835 -9.004781870895455 0 0 0
4306 1406 2 -3.130670480062864 -7.410012741156365 -9.031621113462847 0 1 1
3462 1124 4 -1.6007771512587363 -6.168252731015213 -9.589144029392028 0 0 1
4301 1404 4 -6.934995265070841 -5.813012748716431 -10.095121761916406 0 1 1
1124 345 4 -6.192102373002267 -4.92402948654169 -9.178516774788028 0 0 1
985 299 2 -6.554377931299658 -4.652920004252501 -9.943282273389215 0 0 1
987 299 4 -6.29668563495858 -4.832862707445131 -9.554418153196371 0 0 1
3387 1099 4 -1.8344237054899544 -6.182042822217335 -9.891457216630785 0 0 1
3460 1124 2 -1.2493447799065163 -5.8316905375153825 -9.474160646802957 0 0 1
3461 1124 4 -0.8979124085542977 -5.495128344015552 -9.359177264213887 0 0 1
3374 1095 4 -0.7264089671196741 -5.53986737918892 -8.99747745295805 0 0 1
1547 486 4 -11.512103091623937 -4.049168057923445 -9.856220576457662 0 0 0
2204 705 4 -11.55704143239801 -4.29946292482106 -10.183511684972128 0 0 1
1546 486 2 -11.78340811335458 -3.719806195397421 -9.595616760874151 0 0 0
986 299 4 -6.812070227640737 -4.472977301059871 -10.33214639358206 0 0 1
3140 1017 4 -4.164398992913327 -3.2437851794643096 -9.649760179143891 0 0 1
2498 803 4 -3.9747956950679844 -3.5625714155772785 -9.512707835882544 0 0 0
2497 803 2 -3.643369744591959 -3.796584426367613 -9.22048403443582 0 0 0
3336 1082 4 -0.6577496156921907 -4.33090951603532 -10.200619791249714 0 0 1
4393 1435 2 -0.7624014586108041 -4.163408585486954 -9.407029060940054 0 0 1
4395 1435 4 -0.6720490648727909 -4.11936122531703 -8.917236987700884 0 0 1
4394 1435 4 -0.8527538523488173 -4.207455945656877 -9.896821134179225 0 0 1
1356 422 4 -10.057281541104214 -1.8253364117966768 -8.872923804952027 0 0 0
1076 329 4 -7.74004403514397 -1.7930669134514663 -10.166161080586333 0 0 1
1075 329 2 -7.593965338098337 -1.7964513531714592 -9.68798793220049 0 0 1
1077 329 4 -7.447886641052705 -1.7998357928914517 -9.209814783814647 0 0 1
1191 367 4 -7.771132131185381 -1.9810435301158642 -9.01527004832998 0 0 1
3139 1017 2 -4.134374241216485 -2.758895901833802 -9.76800104654566 0 0 1
3141 1017 4 -4.1043494895196435 -2.2740066242032952 -9.886241913947428 0 0 1
322 78 2 -3.9859567678322074 -1.5623432285001035 -9.804759696198632 0 0 0
324 78 4 -3.8725122389369044 -1.9750133477735043 -10.063281864536494 0 0 0
2804 905 4 -8.822410358979281 -0.37472607071729785 -9.434027104496026 1 0 0
2895 935 4 -0.2654778296370349 -9.784501643743194 -1.1082489219973657 0 0 0
2803 905 2 -8.837969734197411 -0.7770802369520959 -9.730454213169455 1 0 0
2805 905 4 -8.85352910941554 -1.1794344031868942 -10.026881321842886 1 0 0
323 78 4 -4.0994012967275095 -1.149673109226701 -9.546237527860772 0 0 0
3047 986 4 -3.832836652557259 -1.23595615960589 -9.256931521100633 0 0 1
1654 522 2 -11.312826836250773 -11.325325627947066 -8.343947146696008 0 1 0
1655 522 4 -11.629851003530955 -11.45201406963617 -7.978644920994197 0 1 0
1656 522 4 -10.995802668970589 -11.198637186257962 -8.70924937239782 0 1 0
975 295 4 -4.74418900013688 -11.554146731885421 -7.688906135247359 0 1 1
1026 312 4 -5.040854524719072 -11.687769126653826 -7.935953775411786 0 1 1
1024 312 2 -4.670863184201833 -11.859122080427884 -8.225340321704332 0 1 1
1633 515 2 -7.400660965782708 -10.105369514372917 -8.81603706770992 0 1 0
569 160 4 -6.806535012172437 -9.807756883934676 -8.427370377253844 0 0 0
1635 515 4 -7.183813566885263 -9.935214497056197 -8.398874658481336 0 1 0
568 160 2 -6.689331413598829 -9.52258568942144 -8.03374529382956 0 0 0
570 160 4 -6.572127815025221 -9.237414494908204 -7.640120210405275 0 0 0
2937 949 4 -4.757430909782987 -10.041313700316676 -8.763044524475832 0 0 0
2935 949 2 -4.372097354946356 -10.00037104167751 -8.447067072400396 0 0 0
1576 496 2 -4.048121888215638 -9.489678822722913 -7.548386282249928 0 1 0
2936 949 4 -3.986763800109725 -9.959428383038345 -8.131089620324959 0 0 0
3641 1184 4 -3.641312664346272 -9.803836418096283 -8.24138423759008 0 1 0
1578 496 4 -3.7810750529801247 -9.774559749713063 -7.860682368084865 0 1 0
3640 1184 2 -3.1549723570534662 -9.80370444791156 -8.35745786976524 0 1 0
3642 1184 4 -2.6686320497606606 -9.803572477726837 -8.4735315019404 0 1 0
1337 416 4 -2.639248447092735 -9.829158394086198 -8.86094939633481 0 1 0
3451 1121 2 -7.507428132817691 -8.098041989098864 -7.474988016132979 1 0 1
3419 1110 4 -6.687249784960115 -8.065347772730487 -8.854023433584265 1 0 1
3418 1110 2 -6.768361774296665 -8.094371304110771 -8.36150086576426 1 0 1
3420 1110 4 -6.849473763633214 -8.123394835491055 -7.868978297944254 1 0 1
3452 1121 4 -7.111589938999289 -7.860613078638083 -7.667184886013241 1 0 1
4493 1468 4 -4.912941352229106 -7.596836407436397 -7.648055245530966 0 1 1
1236 382 4 -4.8537718672484536 -7.945048608650163 -7.8440646290240705 0 1 1
1234 382 2 -4.4433516293695225 -8.19955126787901 -7.973616258828096 0 1 1
1235 382 4 -4.032931391490591 -8.454053927107855 -8.10316788863212 0 1 1
4127 1346 4 -3.7471322496204977 -8.701537279856488 -8.199870265998097 0 1 1
4126 1346 2 -3.4688282767696013 -8.427776360855729 -8.512283226553578 0 1 1
3157 1023 2 -2.0163018645699933 -7.954136892433352 -7.766964741174557 0 0 1
3158 1023 4 -1.7468226772903197 -8.369470888376476 -7.836811999076638 0 0 1
2907 939 4 -1.4471582667408813 -8.514285177044385 -7.636157500672583 0 0 0
3159 1023 4 -2.2857810518496664 -7.538802896490227 -7.697117483272477 0 0 1
2905 939 2 -1.060755934610279 -8.493537759482672 -7.3195145118216365 0 0 0
2127 679 4 -10.367779993087563 -6.215963539328381 -8.672317819927754 0 1 1
2125 679 2 -9.87010115945388 -6.256324844103865 -8.698523613756324 0 1 1
2126 679 4 -9.372422325820196 -6.296686148879349 -8.724729407584894 0 1 1
3181 1031 2 -8.657828787506325 -6.750973440773671 -8.994323974356284 1 0 1
3182 1031 4 -9.04000841136009 -6.496322716275557 -8.796607653269854 1 0 1
642 184 4 -6.629098097717959 -6.160365289262224 -7.699612131355745 0 0 0
3649 1187 2 -4.225623133553605 -6.42193524020756 -7.5020804028550785 0 1 0
20 4 3 -4.137036382263374 -6.325381371770186 -8.881619316984795 0 0 0
17 4 3 -3.644567074729186 -6.148058034917893 -8.34961328756021 0 0 0
18 4 3 -3.5167684732170117 -6.742543198887847 -8.791376694001817 0 0 0
16 4 1 -3.8447668584476307 -6.494741497807639 -8.576175912804901 0 0 0
19 4 3 -4.071064567261619 -6.7620144416894155 -8.27178386222833 0 0 0
3651 1187 4 -3.983792664646111 -6.5498363822761325 -7.920600799211013 0 1 0
4307 1406 4 -3.2820100524352167 -6.933517383051152 -9.03858584880969 0 1 1
3221 1044 4 -1.9956434655240092 -7.244452366719268 -7.617432605698155 0 0 1
3220 1044 2 -2.026830389355167 -6.7522177648603785 -7.535380960290243 0 0 1
3222 1044 4 -2.058017313186323 -6.25998316300149 -7.453329314882332 0 0 1
640 184 2 -6.544601358979964 -5.746230897036168 -7.96673196648232 0 0 0
641 184 4 -6.460104620241971 -5.332096504810112 -8.233851801608894 0 0 0
1125 345 4 -6.428510728441452 -4.936219366086112 -8.206939450888742 0 0 1
1123 345 2 -6.31030655072186 -4.930124426313901 -8.692728112838385 0 0 1
3424 1112 2 -1.3954182328398552 -5.686096865388136 -7.5427063042063685 0 0 1
3375 1095 4 -0.8276549162496862 -5.481046560205017 -8.004356428592597 0 0 1
3426 1112 4 -1.006502850135222 -5.404150228458343 -7.681453985337528 0 0 1
3373 1095 2 -0.7770319416846801 -5.5104569696969685 -8.500916940775323 0 0 1
2499 803 4 -3.3119437941159338 -4.030597437157948 -8.928260232989095 0 0 0
4115 1342 4 -2.9501160965626076 -4.133981544341032 -8.816143007408398 0 0 1
4114 1342 2 -2.50252251857786 -3.9484657023669296 -8.692676974331919 0 0 1
4116 1342 4 -2.054928940593113 -3.7629498603928266 -8.569210941255438 0 0 1
4166 1359 4 -1.7647401461233239 -3.7186851151197877 -8.308679955699743 0 0 1
4167 1359 4 -0.8692964285668916 -3.7891438716538457 -8.748243503227707 0 0 1
4165 1359 2 -1.3170182873451077 -3.7539144933868167 -8.528461729463725 0 0 1
1354 422 2 -9.64624982952416 -2.0996665576608056 -8.79679297580651 0 0 0
684 198 4 -9.161616802071942 -2.4201180823662463 -8.314063518494889 0 0 0
1355 422 4 -9.235218117944108 -2.3739967035249343 -8.720662146660993 0 0 0
682 198 2 -9.019300516119705 -2.2075981739772477 -7.884434186057344 0 0 0
683 198 4 -8.876984230167468 -1.9950782655882489 -7.4548048536198 0 0 0
34 7 3 -8.609363492404015 -1.6900565625097244 -7.453110343769714 0 0 0
1189 367 2 -7.875355114968148 -1.9041479397439205 -8.532336680428937 0 0 1
1190 367 4 -7.979578098750914 -1.827252349371977 -8.049403312527895 0 0 1
32 7 3 -7.921230234209648 -1.5735407928811895 -7.732030931740443 0 0 0
31 7 1 -8.246353078444072 -1.4010676144075578 -7.4560814094291255 0 0 0
33 7 3 -8.375717272477532 -0.9858972224499938 -7.617940764869566 0 0 0
410 107 4 -8.698196697328939 -0.8188722727976576 -7.449431762360546 0 0 0
3046 986 2 -3.841078377137659 -0.8583137047463196 -8.929336877885959 0 0 1
3048 986 4 -3.849320101718059 -0.48067124988674925 -8.601742234671285 0 0 1
1032 314 4 -3.6368275174933316 -0.12453492228898988 -8.540522842163968 0 0 1
3434 1115 4 -3.500651299719318 -0.4807416282512029 -8.423106708938427 0 0 1
3433 1115 2 -3.0244327614747304 -0.5584347626072194 -8.292035427927845 0 0 1
3435 1115 4 -2.5482142232301426 -0.6361278969632358 -8.160964146917262 0 0 1
645 185 4 -2.5604291760147904 -0.6224999078782871 -7.757980432882082 0 0 0
3505 1139 2 -8.362844171478121 -11.550908093229467 -5.838138047020653 1 1 0
3506 1139 4 -8.563670379938944 -11.130530422837627 -6.0196633847310554 1 1 0
1348 420 2 -6.365742890831436 -11.424557451253316 -6.130458435134396 0 1 0
1350 420 4 -6.291251322740976 -11.897753026742565 -6.273765635305118 0 1 0
1349 420 4 -6.440234458921896 -10.951361875764066 -5.987151234963675 0 1 0
1463 458 4 -6.450655348581856 -10.549785613039484 -6.064874513851543 0 1 0
973 295 2 -4.82513500962654 -11.314912012048833 -7.257380362700281 0 1 1
974 295 4 -4.9060810191162 -11.075677292212244 -6.8258545901532015 0 1 1
1575 495 4 -4.751616113916519 -11.073068472085904 -6.450665293122261 0 1 0
1573 495 2 -4.4773812138252955 -11.334945969667107 -6.1247582575552935 0 1 0
308 73 4 -9.451469381736548 -9.549904089999263 -5.994583377099335 0 0 0
352 88 2 -9.073530196383098 -9.229403443382566 -6.445181060915347 0 0 0
353 88 4 -9.455903096801293 -9.169574932334097 -6.128619038096052 0 0 0
354 88 4 -8.691157295964903 -9.289231954431033 -6.761743083734642 0 0 0
4242 1384 4 -8.703190596070254 -9.21574251210112 -7.153145423568676 1 1 1
611 174 4 -8.244827099450305 -9.923706736387379 -5.979220739497558 0 0 0
2919 943 4 -8.065391314337889 -9.800697571325099 -6.307037022658609 1 0 0
4240 1384 2 -8.27521898087978 -8.957461994620507 -7.164611498794435 1 1 1
610 174 2 -8.24015455840773 -10.419142974679882 -5.9119816054606185 0 0 0
2917 943 2 -7.619037278582388 -9.587848735610153 -6.233121882809354 1 0 0
3326 1079 4 -6.525757207784674 -9.191715652093414 -7.244849026341957 0 0 1
3325 1079 2 -6.324887034045473 -9.298975287243032 -6.7997124810326826 0 0 1
3327 1079 4 -6.12401686030627 -9.40623492239265 -6.3545759357234095 0 0 1
1462 458 2 -6.655309829728534 -10.095575882196668 -6.107419357891082 0 1 0
2918 943 4 -7.172683242826887 -9.37499989989521 -6.159206742960099 1 0 0
1464 458 4 -6.859964310875212 -9.641366151353854 -6.149964201930622 0 1 0
2712 874 4 -4.589443006406746 -8.920382309805207 -7.233578399479705 0 0 0
3428 1113 4 -6.060607480767936 -9.015451116609459 -6.347065007568901 0 0 1
1577 496 4 -4.315168723451151 -9.204797895732764 -7.236090196414991 0 1 0
3453 1121 4 -7.903266326636093 -8.335470899559644 -7.282791146252717 1 0 1
4241 1384 4 -7.847247365689306 -8.699181477139895 -7.176077574020195 1 1 1
4492 1468 2 -4.944117261073576 -7.463743629763865 -7.1671037144602225 0 1 1
2710 874 2 -4.842445093912422 -8.736756729755541 -6.843358474222079 0 0 0
3088 1000 2 -5.282092885053966 -7.9070927488118015 -6.287495710104593 0 0 1
3090 1000 4 -5.40822982304182 -8.389707513648174 -6.253254482945682 0 0 1
2711 874 4 -5.0954471814180975 -8.553131149705875 -6.4531385489644535 0 0 0
3089 1000 4 -5.155955947066112 -7.424477983975426 -6.321736937263504 0 0 1
2906 939 4 -0.674353602479677 -8.472790341920959 -7.00287152297069 0 0 0
2598 836 4 -0.3535897709450381 -8.736386008852072 -6.970572563722996 0 0 0
2548 820 2 -0.31617226949385463 -8.058529999664845 -6.448646331938055 0 0 0
2549 820 4 -0.47019926186990535 -8.47304990714104 -6.681989281103348 0 0 0
2550 820 4 -0.16214527711780335 -7.644010092188651 -6.215303382772761 0 0 0
4494 1468 4 -4.9752931699180465 -7.330650852091333 -6.6861521833894795 0 1 1
3475 1129 2 -4.688620585780307 -6.667114130285796 -6.515789841116315 0 0 1
3477 1129 4 -4.48178467239802 -6.238851977392229 -6.670096138245364 0 0 1
3476 1129 4 -4.895456499162593 -7.095376283179364 -6.361483543987268 0 0 1
3650 1187 4 -4.4674536024611 -6.294034098138988 -7.083560006499143 0 1 0
3425 1112 4 -1.7843336155444889 -5.968043502317929 -7.403958623075208 0 0 1
321 77 4 -7.553474080944413 -4.799604779584616 -6.413756439507914 0 0 0
1475 462 4 -7.522865772317322 -4.964179603423237 -6.033647533221709 0 0 0
2618 843 4 -2.6510577447765225 -4.367669077018839 -5.927853483399721 0 0 0
319 77 2 -7.622375713448556 -4.364340369602591 -6.177541582987204 0 0 0
675 195 4 -7.848515810502338 -3.625206944613567 -5.7568574024536385 0 0 0
673 195 2 -8.054348104615588 -3.216975092583545 -5.959292136845311 0 0 0
320 77 4 -7.691277345952699 -3.929075959620565 -5.941326726466494 0 0 0
2471 794 4 -3.1236861256028865 -3.093019178785375 -5.968812520808566 0 0 0
2619 843 4 -2.8986951890389903 -3.4136598570130725 -6.096797569846546 0 0 0
2617 843 2 -2.7748764669077564 -3.890664467015956 -6.012325526623133 0 0 0
1399 437 2 -8.326524538561824 -2.045636655024877 -6.57034287768971 0 0 0
1401 437 4 -8.35991204680082 -2.4051249022614285 -6.224433244415556 0 0 0
1400 437 4 -8.293137030322823 -1.6861484077883269 -6.916252510963866 0 0 0
674 195 4 -8.260180398728838 -2.8087432405535244 -6.161726871236982 0 0 0
2488 800 2 -2.375961126915682 -1.7332032289125514 -6.433374764015195 0 0 0
2489 800 4 -2.2718822812178647 -1.4797000473603201 -6.851589697777015 0 0 0
2470 794 2 -2.987699235428305 -2.614414396309295 -6.018259744100187 0 0 0
2490 800 4 -2.4800399726134996 -1.986706410464783 -6.015159830253374 0 0 0
404 105 4 -9.542924050003956 -0.07003260809068182 -7.014232755538634 0 0 0
409 107 2 -8.900410124041864 -0.4281734618193938 -7.21180985857831 0 0 0
411 107 4 -9.102623550754789 -0.0374746508411295 -6.974187954796077 0 0 0
35 7 3 -8.078404744277163 -1.3582139572545893 -7.034943758394568 0 0 0
1716 542 4 -6.759748088848384 -1.0325243717539687 -6.939676190023224 0 0 0
431 114 4 -6.787327846163147 -1.0478606489285571 -6.567598869952736 0 0 0
430 114 2 -6.897698584180557 -1.060121492300921 -6.080086847630031 0 0 0
1714 542 2 -6.260876595043246 -1.0621740550116183 -6.955428299435124 0 0 0
1715 542 4 -5.762005101238108 -1.0918237382692686 -6.971180408847025 0 0 0
889 267 2 -5.293597515108485 -0.7423963028042142 -6.353599882540885 0 0 1
891 267 4 -5.493040969898175 -1.0521823966955641 -6.6916159833012046 0 0 1
644 185 4 -2.464640202472208 -1.1502396507425194 -6.913992733712771 0 0 0
643 185 2 -2.512534689243499 -0.8863697793104033 -7.3359865832974265 0 0 0
548 153 4 -9.794974388717911 -10.520081880053315 -4.442627932353128 0 0 0
612 174 4 -8.235482017365156 -10.914579212972386 -5.844742471423679 0 0 0
1668 526 4 -7.791825437772546 -10.813406080095595 -5.053532521920303 0 1 0
1667 526 4 -8.659871208170758 -10.618627167934013 -4.596851324726291 0 1 0
1666 526 2 -8.225848322971652 -10.716016624014804 -4.825191923323297 0 1 0
266 59 4 -7.585311073435776 -11.175330324491922 -5.034307494001778 0 0 0
265 59 2 -7.115434779453589 -11.014919789221963 -5.093339083236107 0 0 0
267 59 4 -6.645558485471403 -10.854509253952004 -5.152370672470437 0 0 0
576 162 4 -6.269983866367445 -10.798603241440976 -5.299790433080348 0 0 0
574 162 2 -6.040168003765575 -10.628831877882812 -4.8894706146312625 0 0 0
756 222 4 -6.3518202767516385 -11.731996692098624 -4.2031070360310006 0 1 0
1631 514 4 -4.4655007863264755 -10.706880481208831 -4.6497440333883775 0 1 0
575 162 4 -5.810352141163705 -10.45906051432465 -4.479150796182176 0 0 0
1630 514 2 -4.875786108529443 -10.95571361194541 -4.509216358420322 0 1 0
1574 495 4 -4.203146313734072 -11.59682346724831 -5.798851221988326 0 1 0
1735 549 2 -3.412977901469643 -11.464555713373683 -5.425649690580817 0 1 0
1736 549 4 -3.8794780898806245 -11.37255003947524 -5.580286459116111 0 1 0
1509 473 4 -4.475291807564291 -10.648617872824127 -5.074496163092871 0 1 0
1507 473 2 -4.008129445863913 -10.470643400840217 -5.065308392255244 0 1 0
1737 549 4 -2.9464777130586626 -11.556561387272126 -5.271012922045525 0 1 0
307 73 2 -9.710443702168124 -9.962862080229163 -5.883237071989029 0 0 0
309 73 4 -9.969418022599701 -10.375820070459064 -5.771890766878722 0 0 0
547 153 2 -9.92186036098521 -10.495938990224426 -4.925656990394937 0 0 0
549 153 4 -10.04874633325251 -10.471796100395537 -5.408686048436746 0 0 0
318 76 4 -6.910297418791367 -9.393703861761036 -5.849295945221999 0 0 0
316 76 2 -6.8548955521357104 -9.312130240670283 -5.3591160012084975 0 0 0
317 76 4 -6.799493685480054 -9.23055661957953 -4.868936057194996 0 0 0
4 1 3 -6.984567119174538 -9.06190724219378 -4.555484814655424 0 0 0
5 1 3 -6.898802527554579 -9.809933380425445 -4.55663865430826 0 0 0
1508 473 4 -3.5409670841635354 -10.292668928856306 -5.056120621417619 0 1 0
284 65 4 -3.3932683126983405 -10.145093602068552 -4.710266058778523 0 0 0
2390 767 4 -1.2474619219629601 -9.300032764033114 -5.647969376744202 0 0 0
2690 867 4 -1.6373090885652215 -9.453938190311487 -5.7232063682631935 0 0 0
2391 767 4 -0.5622939277602513 -10.021073335803777 -5.544793247815602 0 0 0
2389 767 2 -0.9048779248616063 -9.660553049918445 -5.5963813122799015 0 0 0
746 219 4 -6.638309009695831 -8.902978206337838 -4.708406830522242 0 0 0
3427 1113 2 -5.8439769622089255 -8.9022051379377 -5.910892373462668 0 0 1
3429 1113 4 -5.627346443649915 -8.788959159265943 -5.474719739356435 0 0 1
4481 1464 4 -5.433887792666603 -8.412374752484972 -5.376947614481332 0 0 1
4480 1464 2 -5.153810195015023 -8.222206328265294 -5.008990402669589 0 0 1
4482 1464 4 -4.873732597363443 -8.032037904045618 -4.641033190857846 0 0 1
2689 867 2 -1.8665495100829024 -9.014025518928477 -5.6605511952989565 0 0 0
2817 909 4 -1.9724995415000217 -8.24013926025243 -5.826239730428686 0 0 0
2691 867 4 -2.095789931600583 -8.57411284754547 -5.5978960223347185 0 0 0
2815 909 2 -1.839109174193442 -7.813001972327766 -5.6031685597803635 0 0 0
2684 865 4 -0.080387738824092 -7.724095641723873 -5.852442759381412 0 0 0
1485 465 4 -7.55245238478127 -6.323532255307429 -5.6451726916782485 0 0 0
1483 465 2 -7.209207264186256 -6.541842781238907 -5.354443777645525 0 0 0
1484 465 4 -6.8659621435912435 -6.760153307170386 -5.063714863612801 0 0 0
2816 909 4 -1.7057188068868623 -7.385864684403102 -5.380097389132041 0 0 0
1233 381 4 -1.9453290736205873 -7.383009086003269 -5.045597691551777 0 0 0
1231 381 2 -2.187274060061613 -7.358818552296979 -4.608702461989884 0 0 0
2683 865 2 -0.3659614422116479 -7.441030827270755 -5.555252633784844 0 0 0
2685 865 4 -0.6515351455992038 -7.157966012817637 -5.258062508188274 0 0 0
2405 772 4 -0.517260610536459 -7.109537116135794 -4.881599253745069 0 0 0
1474 462 2 -7.553021413032694 -5.447180452050941 -5.90794623029575 0 0 0
1476 462 4 -7.583177053748066 -5.930181300678645 -5.782244927369791 0 0 0
2748 886 4 -1.9706303478353417 -4.519152380887265 -4.9471241761094635 0 0 0
2746 886 2 -2.184051519913123 -4.599808748239596 -5.392035351193745 0 0 0
2747 886 4 -2.3974726919909055 -4.680465115591928 -5.836946526278026 0 0 0
1782 564 4 -8.63449426352321 -3.607651961353248 -4.517182011394711 0 0 0
1497 469 4 -8.340544018953658 -3.349182900333124 -4.6309077503300475 0 0 0
2669 860 4 -1.9493083161567966 -4.36764198066566 -4.572059428315141 0 0 0
2472 794 4 -2.8517123452537243 -2.1358096138332154 -6.06770696739181 0 0 0
2879 930 4 -2.6821197595039634 -2.074172768922188 -5.696436224295666 0 0 0
2878 930 2 -2.4161417343250973 -1.8251464880361907 -5.354030614601481 0 0 0
2880 930 4 -2.1501637091462316 -1.576120207150194 -5.0116250049072955 0 0 0
4028 1313 4 -6.999235174088159 -1.3390109526795089 -5.311416969623132 1 0 0
432 114 4 -7.008069322197968 -1.072382335673285 -5.5925748253073255 0 0 0
4027 1313 2 -7.100673908586287 -1.6231004178524417 -4.912664717063636 1 0 0
890 267 4 -5.094154060318795 -0.43261020891286417 -6.015583781780565 0 0 1
296 69 4 -4.890256740435177 -0.26696702659820915 -5.709221681302645 0 0 0
295 69 2 -4.395451622853897 -0.271103646838048 -5.637452718731135 0 0 0
599 170 4 -3.53981233759542 -0.41443023195830603 -5.519037903126893 0 0 0
297 69 4 -3.9006465052726176 -0.2752402670778868 -5.5656837561596255 0 0 0
598 170 2 -3.07315198210485 -0.29846094582487104 -5.656075260394837 0 0 0
600 170 4 -2.6064916266142797 -0.18249165969143594 -5.79311261766278 0 0 0
2541 817 4 -2.213993882429113 -0.1393893735834854 -5.7214724633535825 0 -1 0
654 188 4 -9.615410587163586 -10.603541019478568 -4.088219388753992 0 0 0
652 188 2 -9.124374053375593 -10.670059707927365 -4.154990539503694 0 0 0
653 188 4 -8.6333375195876 -10.736578396376162 -4.221761690253396 0 0 0