LAMMPS data file via write_data, version 4 Feb 2025, timestep = 500000, units = lj

160 atoms
4 atom types
110 bonds
1 bond types

-3.839648 3.839648 xlo xhi
-3.839648 3.839648 ylo yhi
-3.839648 3.839648 zlo zhi
-5.329070518200751e-15 0 0 xy xz yz

Masses

1 1
2 1
3 0.1
4 0.1

Bond Coeffs # zero

1 0

Atoms # bond

73 21 4 -1.2259209031924803 -3.4913227804252096 -2.905521843108883 4 1 0
116 36 2 -0.09996098914579754 -2.4268596209074476 -3.2137560034347876 1 0 1
117 36 4 -0.1428751786967113 -2.370095888979651 -2.71884570615539 1 0 1
118 36 4 -0.057046799594882014 -2.483623352835245 -3.708666300714188 1 0 1
149 47 2 -0.44487518090999956 -0.5768172278139487 -2.8918787131812778 3 0 0
151 47 4 -0.7607504504805291 -0.7185303206377314 -2.531127956193396 3 0 0
150 47 4 -0.12899991133946775 -0.4351041349901661 -3.2526294701691616 3 0 0
106 32 4 -0.12280380142768843 -0.044102965909076364 -3.268258736035494 3 -1 0
2 1 3 -0.9038358675468503 -2.365144511316914 1.3533313829480353 1 0 0
1 1 1 -0.798795952182279 -2.042066158432835 1.663472758436502 1 0 0
109 33 4 -0.025503346982512554 -1.9370568359239646 1.6116882410097806 2 0 0
54 15 4 -3.571690128142297 -1.707190673165011 1.5399437604595723 4 1 0
58 16 4 -3.3703944593831516 -1.6234096664306983 1.1944067963246892 2 1 0
57 16 4 -2.468663600301711 -1.3257772636852092 1.5079379403816193 2 1 0
56 16 2 -2.9195290298424315 -1.4745934650579522 1.351172368353152 2 1 0
52 14 4 -2.210423094024557 -1.2921966458147014 1.777487328750651 2 1 0
51 14 4 -1.3400164857701724 -1.5607684750793602 1.3648654273793963 2 1 0
50 14 2 -1.7752197898973638 -1.4264825604470306 1.5711763780650236 2 1 0
3 1 3 -1.1421435340304518 -1.7302724425966112 1.677436129158067 1 0 0
5 1 3 -0.4094172117864838 -1.8391123911439622 1.542660733436867 1 0 0
121 37 4 -2.684614124404463 -2.3355028788531254 3.0564163687971084 2 0 0
148 46 4 -2.7201132876822696 -1.9667283418153674 3.0598153989207293 2 0 0
119 37 2 -2.265638673553883 -2.608357728410926 3.0536747889183045 2 0 0
4 1 3 -0.7503294297881875 -2.243028548115733 2.0788820979281746 1 0 0
120 37 4 -1.8466632227033013 -2.881212577968727 3.050933209039497 2 0 0
26 6 2 -1.2926353668724206 -2.8052344033510854 2.5059009383636437 1 0 0
27 6 4 -1.5765565592202 -3.097440363785558 2.79573898362861 1 0 0
28 6 4 -1.0087141745246386 -2.5130284429166148 2.216062893098677 1 0 0
83 25 2 -0.10626092186386593 -2.8653263200272847 3.3470896020891536 1 0 0
85 25 4 -0.22150143979176606 -2.4410210674507433 3.585172986016691 1 0 0
146 46 2 -3.1266321019158365 -1.8262168455994652 2.8048686776396656 2 0 0
147 46 4 -3.533150916149406 -1.6857053493835634 2.5499219563586 2 0 0
111 34 4 -2.158614920438822 0.9881070428751824 -3.2938324489818323 4 0 0
110 34 2 -1.772346866709273 0.9506571060565352 -2.9785639862618463 4 0 0
112 34 4 -1.3860788129797257 0.9132071692378996 -2.663295523541859 4 0 0
80 24 2 -0.8258881733508128 2.626135915376715 -3.678124117744275 4 0 1
71 21 2 -1.0559787023505982 3.728166993671048 -3.003991737809092 4 0 0
72 21 4 -0.8860365015087077 3.2683607677673012 -3.1024616325093026 4 0 0
82 24 4 -0.7096280178564429 2.975182480246025 -3.3395227542069605 4 0 1
93 28 4 -2.4208304366904656 0.9400362193688889 1.430081446597017 3 0 0
92 28 2 -1.9733076233707405 0.7337115443858129 1.3455142345862634 3 0 0
90 27 4 -2.6745385897873275 0.9342558918439523 1.743715428617127 3 0 0
94 28 4 -1.5257848100510158 0.5273868694027368 1.2609470225755133 3 0 0
137 43 2 -0.8136569899366908 0.6731581991378337 0.8827211310418499 4 0 0
138 43 4 -1.3048683387932414 0.5973003387105327 0.937106248585478 4 0 0
139 43 4 -0.32244564108013574 0.7490160595651392 0.8283360134982138 4 0 0
78 23 4 -0.12299057203323027 0.9090074221935986 0.5183373926824335 3 0 0
123 38 4 -3.409937235724916 3.009497926249105 1.8640240189145385 2 -1 0
22 5 3 -3.8170336227238297 3.1770737997086367 1.2967095828367339 3 0 0
49 13 4 -1.107053799205754 3.6102336453541928 1.5145385144219925 1 -1 0
47 13 2 -0.6126570343397093 3.66552110409353 1.564695093997598 1 -1 0
42 11 4 -1.4402987448095872 3.4878153301109145 1.6945374819894021 1 -1 0
48 13 4 -0.11826026947366675 3.7208085628328695 1.6148516735732055 1 -1 0
89 27 2 -2.770594655998763 1.3516586641092956 2.0016831706903813 3 0 0
91 27 4 -2.8666507222101982 1.769061436374637 2.259650912763633 3 0 0
63 18 4 -2.932052399344621 1.6409067110768931 2.6360640320555766 4 0 0
122 38 2 -2.92612067845488 3.1061109535567266 1.9451929583224739 2 -1 0
124 38 4 -2.4423041211848453 3.202723980864349 2.026361897730418 2 -1 0
23 5 3 -3.7611357011837616 3.135963772896473 2.045098079610542 3 0 0
62 18 2 -2.6994675779596244 1.9981618543398452 2.8973583590186025 4 0 0
64 18 4 -2.4668827565746287 2.3554169976027963 3.1586526859816284 4 0 0
43 11 4 -2.247476617032711 3.422406819623188 2.2812117231785245 1 -1 0
144 45 4 -2.105534114156028 2.2506616901397476 3.035286219432495 4 0 0
145 45 4 -1.3261120442308947 2.1572582076348827 3.6547824424667454 4 0 0
41 11 2 -1.843887680921149 3.4551110748670504 1.9878746025839624 1 -1 0
76 22 4 -0.19654923422025616 2.9506296610054137 3.032793770457515 4 0 0
74 22 2 -0.5729824069653828 2.715170811840246 2.8028829845169967 4 0 0
75 22 4 -0.9494155797105126 2.479711962675077 2.572972198576473 4 0 0
143 45 2 -1.715823079193461 2.203959948887317 3.34503433094962 4 0 0
81 24 4 -0.9421483288451831 2.277089350507396 3.662570518718406 4 0 0
115 35 4 0.15371356276445036 -2.38556359902192 -2.4523318813680035 3 0 0
113 35 2 0.4020385312374892 -1.9912352223555185 -2.271108814943168 3 0 0
114 35 4 0.6503634997105299 -1.5969068456891202 -2.0898857485183333 3 0 0
15 3 3 2.492027190689748 -3.350722550524145 -0.04360556705334018 3 1 0
131 41 2 3.1316276030944503 -3.050531404589024 -0.5522048417597083 2 1 0
132 41 4 2.8025454406975583 -3.1847508437205474 -0.20050759136657081 2 1 0
133 41 4 3.460709765491344 -2.9163119654574996 -0.9039020921528462 2 1 0
141 44 4 3.48094802384249 -2.7971231859606056 -1.2802313793148175 1 1 0
140 44 2 3.4153535286630263 -2.3703076444300235 -1.5322736292590653 1 1 0
142 44 4 3.349759033483561 -1.9434921028994414 -1.7843158792033136 1 1 0
129 40 4 1.365755282665233 -0.8889221945542936 -1.4219746108582125 1 0 1
35 9 2 1.8265291318040817 -0.4940251562640361 -0.8435757603122056 2 0 0
128 40 2 1.0406999349814527 -0.5532235003509967 -1.5998600381083459 1 0 1
37 9 4 1.5575654891527528 -0.8599467350141636 -1.0527692724376405 2 0 0
130 40 4 0.7156445872976698 -0.2175248061477002 -1.777745465358477 1 0 1
100 30 4 2.496555586501669 -0.07006253484696856 -0.611083965845789 1 0 0
98 30 2 2.938559941509977 -0.2899513550900452 -0.6903248204892019 1 0 0
103 31 4 3.4025828369774227 -0.8482026896315173 -0.968013938987974 0 0 0
101 31 2 3.4290156570777577 -1.2493593465790647 -1.265292311087285 0 0 0
36 9 4 2.095492774455415 -0.12810357751391033 -0.6343822481867734 2 0 0
102 31 4 3.4554484771780962 -1.6505160035266147 -1.562570683186594 0 0 0
99 30 4 3.380564296518281 -0.5098401753331245 -0.7695656751326143 1 0 0
46 12 4 0.16734398536721473 -3.7328157044095946 1.7916665528499665 1 0 0
155 49 2 3.164169933278441 -3.3451125275826707 1.1947815912757673 4 1 1
14 3 3 2.670207404922237 -3.1830542270047255 0.6684616643543779 3 1 0
156 49 4 2.8901924536836527 -3.0126213303014255 0.9410413254677183 4 1 1
157 49 4 3.4381474128732195 -3.6776037248639146 1.448521857083811 4 1 1
11 3 1 2.407351149725779 -3.448340910722783 0.3930874477252835 3 1 0
13 3 3 1.9584128302434594 -3.3779375213746667 0.48688038953050095 3 1 0
55 15 4 3.242067701751416 -2.044732139392769 1.9099644054985876 3 1 0
108 33 4 0.7258549469813587 -1.522691100407704 1.0981047735500762 2 0 0
107 33 2 0.35017579999942194 -1.7298739681658355 1.3548965072799306 2 0 0
97 29 4 0.8630967148340454 -1.2222031498514556 0.869854338643115 2 0 0
95 29 2 1.345603144382824 -1.1405338657529547 0.97241389011096 2 0 0
96 29 4 1.8281095739315973 -1.0588645816544573 1.0749734415788086 2 0 0
31 7 4 1.8886187296373262 -0.7019890806440547 1.2674281991988399 2 0 -1
53 15 2 3.6748367868045606 -1.875961406278889 1.7249540829790768 3 1 0
19 4 3 3.509588506278986 -0.21464857850503005 1.3349631704030513 3 0 0
29 7 2 2.2163552412294103 -0.325113155300075 1.291003316829919 2 0 -1
44 12 2 0.15884050955616225 -3.6130166800746717 2.277028133830601 1 0 0
45 12 4 0.1503370337451111 -3.4932176557397483 2.7623897148112317 1 0 0
84 25 4 0.00897959606403731 -3.2896315726038283 3.1090062181616234 1 0 0
70 20 4 2.3272048649529196 -2.7713717431957603 2.1209832348188535 3 1 0
68 20 2 2.6894059247430158 -2.4322428027130387 2.182663139647531 3 1 0
69 20 4 3.051606984533111 -2.093113862230319 2.244343044476205 3 1 0
104 32 2 0.0562579904174787 0.4202459437541033 -3.3164108670069243 3 -1 0
105 32 4 0.2353197822626476 0.8845948534172856 -3.364562997978356 3 -1 0
60 17 4 0.07487139938040821 0.9672267577004328 -3.723985061411673 3 0 0
135 42 4 0.39238585600444553 0.7106422495040987 -0.9033007913082804 3 0 0
134 42 2 0.45535076857437806 0.4029200061940714 -1.2923278510789786 3 0 0
136 42 4 0.5183156811443159 0.0951977628840388 -1.681354910849676 3 0 0
79 23 4 0.4794118523765003 1.368349067670335 1.1711176818649656 3 0 0
88 26 4 0.7969094054711969 1.6095959011740866 1.204203242153151 4 0 1
77 23 2 0.17821064017163346 1.13867824493197 0.8447275372736978 3 0 0
20 4 3 2.9071832797446127 0.23609912463862281 1.3061704546730977 3 0 0
16 4 1 3.3611754764737776 0.22069106072653488 1.273712220391253 3 0 0
18 4 3 3.4955652304663176 0.37684474465876105 0.857952866049208 3 0 0
17 4 3 3.5455325533086017 0.4878930598157809 1.5996210191495943 3 0 0
30 7 4 2.5440917528214935 0.05176277004390517 1.3145784344609948 2 0 -1
154 48 4 3.5038326333493806 0.8365229324108854 1.8270500788304385 4 0 0
86 26 2 0.951565034523981 2.0808615124593266 1.2673840753038532 4 0 1
10 2 3 1.177460785895986 2.6153285857870014 1.745242324151294 2 -1 0
87 26 4 1.1062206635767624 2.5521271237445675 1.330564908454558 4 0 1
7 2 3 1.5282781314141576 3.257388725205686 1.597965468099614 2 -1 0
40 10 4 1.5625727563944714 3.1651659496448423 1.2276146678790778 2 -1 1
24 5 3 3.563462519622551 3.7231255594737847 1.717949250353707 2 0 0
21 5 1 3.6463252974139997 3.2672778751724683 1.6927323255439508 2 0 0
38 10 2 1.9398068259512242 3.311992039451321 0.9341224808081541 2 -1 1
39 10 4 2.317040895507984 3.4588181292578004 0.6406302937372224 2 -1 1
25 5 3 3.253605749966685 3.037026156747769 1.70527472152301 2 0 0
12 3 3 2.5082157734418575 3.789121999242894 0.4718843823554777 3 0 0
59 17 2 0.08468125894439726 1.129315901741434 3.4824146414593984 3 0 -1
61 17 4 0.0944911185083841 1.2914050457824389 3.0095183443304685 3 0 -1
66 19 4 0.4387065727714705 1.478800821253675 2.896105263136573 3 0 0
65 19 2 0.9263012516200777 1.3940287727014335 2.824941351959604 3 0 0
67 19 4 1.4138959304686893 1.309256724149186 2.753777440782637 3 0 0
160 50 4 1.561283166350282 1.2339433836034002 2.388889226656858 4 0 0
152 48 2 3.191550575642926 1.1656705852652967 2.037144541646638 4 0 0
153 48 4 2.8792685179364725 1.4948182381197035 2.24723900446284 4 0 0
158 50 2 2.024341029436251 1.4143550868120838 2.333837400187907 4 0 0
159 50 4 2.487398892522221 1.594766790020771 2.2787855737189573 4 0 0
6 2 1 1.4091640194944595 2.9614598397256793 1.9293845804896956 2 -1 0
34 8 4 0.9649093173527628 3.0447781483700376 2.5720089197175677 3 -1 0
8 2 3 1.794064049438178 2.8030201402349655 2.1344397167411757 2 -1 0
9 2 3 1.1439277036861788 3.182340556044441 2.239481717235979 2 -1 0
32 8 2 0.559977007514965 3.079310245917379 2.8632769732784005 3 -1 0
33 8 4 0.15504469767716245 3.113842343464728 3.154545026839234 3 -1 0
126 39 4 3.1050686547356894 2.9199931702934507 2.0439979249848848 2 -1 0
127 39 4 2.11856859081151 2.8029344629100277 1.9294676125304844 2 -1 0
125 39 2 2.6118186227735998 2.8614638166017383 1.9867327687576872 2 -1 0

Velocities

73 0.18476430098997945 -0.08270933028205923 1.1483759335409662
116 -0.04327728813866322 0.07764592141910978 0.3791841333821101
117 -0.07222362895578574 -0.6481692501257795 0.45992149701891827
118 -0.014330947321540576 0.8034610929640029 0.29844676974530193
149 -0.16293467881642892 -0.015860139582290298 -0.021388204931613364
151 0.4686374088277651 0.36376288915585736 0.6807438267292845
150 -0.7945067664606273 -0.39548316832044034 -0.7235202365925122
106 -0.40015407299968325 -0.10005419682908123 -0.9603652045624989
2 -0.0514785592838006 0.5463557501893418 -0.542285427751722
1 0.0759842419695701 -0.05361077525592807 0.03953931746704517
109 0.2738483018094965 0.0011509722899685493 -0.24571497307280676
54 0.12232911725446416 -0.3012517816427951 -0.7067342741018807
58 -0.06857922604444436 -0.421767357158654 -0.03811153954353892
57 -0.2716596696315442 -0.09217261836302623 0.23307435696752576
56 -0.1701194478379941 -0.2569699877608401 0.09748140871199341
52 0.24876801837952445 0.521807222467504 -0.027180692457626707
51 -0.10056825941311377 -0.9019057044006381 0.16259023813030699
50 0.07409987948320648 -0.19004924096656814 0.0677047728363396
3 0.1479164100493171 -0.00310973917685297 0.6806491707462271
5 0.0995534635332039 0.08427844467285042 0.3471448113995862
121 -0.16756691823050623 0.28002563917502427 -0.4964545032859936
148 0.6431356140995468 -0.028696604325855385 -0.42785818994457664
119 -0.14870952255200717 0.3032325354819558 0.07574225128659773
4 0.10559320533536264 -0.8366813289053362 -0.34274104468113065
120 -0.1298521268735099 0.32643943178888835 0.6479390058591883
26 -0.0845961162204779 0.16891860380591592 0.12493412758699704
27 -0.13852689474981328 0.23341808356111052 0.1371312809000307
28 -0.03066533769114258 0.10441912405072135 0.11273697427396343
83 0.05435765711630717 0.22177210634060326 -0.0428151755174216
85 -0.4568633191261248 0.15370132571095452 -0.16895900358160204
146 0.19994410948460187 -0.17216639799367567 0.19975196913263357
147 -0.24324739513034868 -0.3156361916614967 0.8273621282098487
111 -0.0012843632293442486 0.22322506776367362 0.2077526056729413
110 0.20373199384551516 0.033518257423884985 -0.06596920375035441
112 0.4087483509203763 -0.15618855291590386 -0.33969101317364875
80 -0.1365181252107119 0.16966535454162038 0.0559628062025443
71 -0.018435875132152117 0.03489660613651808 0.24851550912407405
72 -0.2216360512542845 0.15250254255509707 -0.6513449152928189
82 -0.4061818044922383 -0.12806576627849398 0.4554657012778312
93 0.051135824025076194 -0.05256531943312179 0.09905384988615809
92 -0.00682201630741876 -0.2404909657698388 0.2508398938545609
90 0.0022219214083355754 0.31020772596169344 0.6227085930594284
94 -0.06477985663991252 -0.42841661210655557 0.40262593782296296
137 0.36576281240036557 0.08940893307418653 0.18491092960115982
138 0.3539344950057237 0.04239148500221641 0.012495419505301253
139 0.3775911297950083 0.13642638114615696 0.35732643969701894
78 0.022269704521266587 -0.4085510006990038 0.3156513642455172
123 0.027585816675837135 0.6549795436784972 -0.9163091496987512
22 -0.11079759371910305 0.5308530962653754 -0.25387907544371147
49 0.4461192758766397 -0.764285917372039 -1.2119740763717355
47 0.22966261614066236 0.018960580969704353 0.05828088744515303
42 0.1658006273775247 0.23808162205159303 -0.466518867187277
48 0.01320595640467967 0.802207079311446 1.328535851262039
89 -0.07905890882953102 0.2626046116180331 0.669465663222857
91 -0.16033973906739746 0.21500149727437287 0.7162227333862855
63 -0.13302200902425226 0.020066503852258333 -0.3698339479850333
122 -0.042742488974482726 0.0002713002063337061 0.2821699346251955
124 -0.1130707946248107 -0.6544369432658302 1.4806490189491388
23 -0.1573125624776301 -0.5739929457896447 -0.31109553641334275
62 0.10895014260476929 -0.24351562791710585 -0.22483314571596
64 0.35092229423379184 -0.507097759686471 -0.07983234344688608
43 0.7873489929829955 -0.07524529182345627 0.35370707793010175
144 0.1771455919726693 -1.0220809647485856 -0.037912319354707846
145 0.2299337539625542 0.49062038914362377 0.12374688521825265
41 0.4765748101802605 0.08141816511406864 -0.056405894628588686
76 -0.33768967781864306 0.6155105287186149 0.33030961518755436
74 0.16565571211881341 0.23231365045699862 -0.10136922312514594
75 0.6690011020562749 -0.15088322780461966 -0.5330480614378486
143 0.2035396729676124 -0.26573028780248137 0.0429172829317729
81 0.1331455540708166 0.4673964753617386 -0.34354008887274257
115 0.054752098996583926 0.3514301434167513 -0.6799037427188933
113 -0.026374713522514696 0.10773664128370997 -0.038480116860730024
114 -0.10750152604161306 -0.13595686084933045 0.6029435089974307
15 0.1220663382838595 -0.13014020911617502 -0.15444883062348902
131 -0.04316712912126362 0.16373059947880145 0.49027366699619684
132 0.35178221605061316 -0.9144755716875212 0.44834563628795465
133 -0.4381164742931411 1.2419367706451185 0.5322016977044414
141 0.37864370276099013 -0.30566294522279813 -0.4251120910481541
140 0.08354944220283754 -0.04870931043459152 0.0868243932863438
142 -0.21154481835531502 0.20824432435361578 0.598760877620841
129 -0.6974558589091885 -0.2117533668750598 -0.2528271172609365
35 0.18699978440525453 0.14061020188496892 -0.17770658070165835
128 -0.5490842949727269 0.03555349649591823 -0.05724548218369385
37 0.07632493186630707 -0.027703068787389096 0.25900182056011134
130 -0.40071273103626504 0.2828603598668955 0.13833615289354886
100 0.2895402411358607 0.8073241670710474 0.33201794944832597
98 -0.0023496254348994994 0.36740179242032245 -0.07538833390195632
103 0.043553258420485845 0.4601358728496298 -0.560429484947667
101 0.059488758313879474 -0.019538382849663694 0.08827497211225942
36 0.2976746369442015 0.3089234725573263 -0.6144149819634269
102 0.07542425820727322 -0.4992126385489598 0.7369794291721878
99 -0.29423949200566113 -0.07252058223040025 -0.4827946172522372
46 -0.326674531898988 0.13113921654854452 0.07880320327066072
155 0.13507919394266593 -0.1983842763322264 -0.11685228035150659
14 -0.14951229437155356 0.0030226632721823132 -0.1178479495855321
156 0.5226919724222072 0.21229726020534057 0.0027563864208106637
157 -0.25253358453687413 -0.6090658128697932 -0.23646094712382315
11 -0.12421117138592314 0.02866600290997368 -0.16670266088133828
13 -0.1407651789892754 0.23410207602217464 -0.4001438498320578
55 0.1442296525141247 0.7486610975096365 0.302249448659746
108 0.28910589892774663 0.2197463505828561 -0.047028099194229234
107 0.28147710036862145 0.11044866143641224 -0.14637153613351792
97 0.19360238647323624 -1.0246286038220969 -0.5291281104719403
95 -0.03658365887835855 -0.30738218575454473 -0.017337091047274333
96 -0.26676970422995155 0.40986423231300506 0.49445392837739
31 0.048339349295652756 -0.3791647842134598 0.16004770526507456
53 0.13327938488429492 0.2237046579334211 -0.2022424127210673
19 0.9740991521075827 0.008572537873090591 -0.18701791466614207
29 -0.25145856006490863 -0.11201366602503968 0.057005430708087265
44 0.03509807967294742 0.2189438576358474 0.0634699907249966
45 0.3968706912448829 0.30674849872315013 0.04813677817933183
84 0.5655786333587391 0.2898428869702542 0.08332865254676014
70 -0.35302259732585706 0.31180139204376767 -0.4798839982070193
68 -0.21363419080602775 0.1405757752937544 -0.35696866369924574
69 -0.0742457842861994 -0.03064984145625932 -0.2340533291914725
104 -0.3120310958142898 -0.057838611541732636 -0.2255730098114497
105 -0.22390811862889606 -0.015623026254382562 0.5092191849395956
60 0.1208880690427963 -0.08447510577629556 -0.015070778214283577
135 0.35944407591588895 0.2985013498401905 -0.0615173711834206
134 0.3775397091758892 0.0492723577882596 0.13855290215025406
136 0.39563534243588955 -0.19995663426367227 0.33862317548392995
79 -0.6590635451953857 1.0722735190164745 -0.0976127986067614
88 -0.25855945246753453 -0.23301344672070678 -0.9607427671368725
77 -0.3183969203370611 0.33186125915873493 0.10901928281937638
20 0.24297702269461618 -0.9064238683686443 0.7855391471267018
16 0.21340459290169128 -0.2180991995227286 0.04515976598052823
18 -0.70195692456763 -0.023655884803688715 -0.17768727016964814
17 0.339597744462821 0.06918467568801756 -0.26175765843778276
30 -0.551256469425469 0.15513745216337893 -0.046036843848899604
154 -0.17330051187698797 -0.39351328384134 -0.5031085957178939
86 -0.07980147040695273 -0.43354281310749176 0.09745012709974452
10 -0.33784322640222497 0.40311973303907933 -0.37208011531140706
87 0.09895651165362754 -0.6340721794942833 1.155643021336363
7 0.4478178089516043 0.10853978070109659 0.2151162136564558
40 -0.7611310925445269 0.12879303069434084 -0.9662396126481291
24 0.37438501467994545 0.2056917116250578 0.5117897701935281
21 -0.03482801609093123 0.16677888544004413 -0.12952840171693442
38 0.017899928848176996 -0.05584016856514545 -0.057299137411765476
39 0.7969309502408826 -0.2404733678246317 0.8516413378245987
25 -0.24184791022974605 0.5019233522725443 -0.45902629590773114
12 -0.3373784694713772 0.011124334360511877 0.007815441867136536
59 -0.08864459337670534 -0.1743867845237234 -0.05023462599893118
61 -0.2981772557962068 -0.26429846327115103 -0.08539847378357888
66 0.27300442697674354 0.7903518501042235 0.341210400416474
65 0.11902018719284016 0.17167033540148047 0.023140093379415194
67 -0.03496405259106147 -0.4470111793012636 -0.2949302136576442
160 0.05887059289931797 -0.15544061439314108 -0.21949295168337832
152 0.04053963650638695 -0.3724554930253164 -0.21824614773321474
153 0.2543797848897617 -0.35139770220929134 0.06661630025146664
158 0.018262502686134798 -0.04564679327424946 -0.20125072217181175
159 -0.02234558752704813 0.06414702784464252 -0.1830084926602452
6 -0.08219584671906491 0.04915075130184145 -0.028398610020612957
34 -0.07607182561645501 -0.304016908743254 -0.36796016969919293
8 -0.3835567379443765 -0.48174231640717113 0.12707057746252043
9 -0.04175322247004232 0.15929466513586615 -0.0722613968271626
32 -0.013503723733128548 0.015919701333555584 -0.3189064364763126
33 0.04906437815019767 0.3358563114103656 -0.269852703253432
126 0.13587625662460248 -1.5082706124131797 0.09370718723637861
127 -0.20628528219025266 0.8870838425457395 0.5926570454542001
125 -0.03520451278282222 -0.3105933849337207 0.3431821163452895

Bonds

1 1 116 117
2 1 116 118
3 1 149 150
4 1 149 151
5 1 1 2
6 1 1 3
7 1 1 4
8 1 1 5
9 1 56 57
10 1 56 58
11 1 50 51
12 1 50 52
13 1 119 120
14 1 119 121
15 1 26 27
16 1 26 28
17 1 83 84
18 1 83 85
19 1 146 147
20 1 146 148
21 1 110 111
22 1 110 112
23 1 80 81
24 1 80 82
25 1 71 72
26 1 71 73
27 1 92 93
28 1 92 94
29 1 137 138
30 1 137 139
31 1 47 48
32 1 47 49
33 1 89 90
34 1 89 91
35 1 122 123
36 1 122 124
37 1 62 63
38 1 62 64
39 1 41 42
40 1 41 43
41 1 74 75
42 1 74 76
43 1 143 144
44 1 143 145
45 1 113 114
46 1 113 115
47 1 131 132
48 1 131 133
49 1 140 141
50 1 140 142
51 1 35 36
52 1 35 37
53 1 128 129
54 1 128 130
55 1 98 99
56 1 98 100
57 1 101 102
58 1 101 103
59 1 155 156
60 1 155 157
61 1 11 12
62 1 11 13
63 1 11 14
64 1 11 15
65 1 107 108
66 1 107 109
67 1 95 96
68 1 95 97
69 1 53 54
70 1 53 55
71 1 29 30
72 1 29 31
73 1 44 45
74 1 44 46
75 1 68 69
76 1 68 70
77 1 104 105
78 1 104 106
79 1 134 135
80 1 134 136
81 1 77 78
82 1 77 79
83 1 16 17
84 1 16 18
85 1 16 19
86 1 16 20
87 1 86 87
88 1 86 88
89 1 21 22
90 1 21 23
91 1 21 24
92 1 21 25
93 1 38 39
94 1 38 40
95 1 59 60
96 1 59 61
97 1 65 66
98 1 65 67
99 1 152 153
100 1 152 154
101 1 158 159
102 1 158 160
103 1 6 7
104 1 6 8
105 1 6 9
106 1 6 10
107 1 32 33
108 1 32 34
109 1 125 126
110 1 125 127
