LAMMPS data file via write_data, version 4 Feb 2025, timestep = 100000, units = lj

160 atoms
4 atom types
110 bonds
1 bond types

-3.839648 3.839648 xlo xhi
-3.839648 3.839648 ylo yhi
-3.839648 3.839648 zlo zhi
0 0 0 xy xz yz

Masses

1 1
2 1
3 0.1
4 0.1

Bond Coeffs # zero

1 0

Atoms # bond

115 35 4 -3.6090233431586904 -3.7117128124473417 -3.798975556819959 1 0 0
73 21 4 -3.016362231588988 -0.12451575130759496 -3.6362291983191435 1 0 0
98 30 2 -3.4378237488442376 -0.6539728801236957 -3.4210234062487284 1 0 0
99 30 4 -3.1401912931836753 -0.2753190771627021 -3.286716024398459 1 0 0
100 30 4 -3.7354562045048016 -1.0326266830846849 -3.555330788099001 1 0 0
147 46 4 -3.8371170718617007 -0.9374689669234471 2.695186143981959 1 0 0
117 36 4 -3.583822360298179 -1.0005847206868714 3.7431483074751415 1 0 0
118 36 4 -3.531315733095686 -1.204941151779248 2.765661075555729 1 0 0
116 36 2 -3.5575690466969325 -1.1027629362330589 3.2544046915154365 1 0 0
72 21 4 -2.4925624120264933 0.5459085711718825 -3.1107085039863547 1 0 0
82 24 4 -2.109183320835831 0.4960745878394772 -3.1154474766796967 1 0 1
71 21 2 -2.7544623218077398 0.21069640993214245 -3.3734688511527504 1 0 0
80 24 2 -1.6196830736838383 0.5849424467842099 -3.0655187104149717 1 0 1
81 24 4 -1.1301828265318434 0.6738103057289382 -3.015589944150244 1 0 1
35 9 2 -3.0480759818765124 2.8012274666961123 -2.7778586263037095 0 -1 0
36 9 4 -2.929771511660009 3.2693046362659186 -2.9078929415626567 0 -1 0
114 35 4 -3.1785620613711996 3.5400478400731434 -3.004046043736713 1 -1 0
113 35 2 -3.3937927022649443 3.7538155138129015 -3.4015108002783356 1 -1 0
37 9 4 -3.1663804520930148 2.3331502971263096 -2.6478243110447632 0 -1 0
119 37 2 -3.190211156281193 0.8833230485198871 -0.8338175147749558 1 0 0
109 33 4 -2.3931832697381252 0.9059919169091493 -0.6358423378520475 1 0 0
120 37 4 -2.710423158204361 1.023994458701503 -0.8297701568614824 1 0 0
107 33 2 -2.043104924264096 1.2599567050255227 -0.6822811050570521 1 0 0
121 37 4 -3.6699991543580257 0.7426516383382755 -0.837864872688431 1 0 0
108 33 4 -1.6930265787900667 1.6139214931418961 -0.7287198722620554 1 0 0
55 15 4 -3.087280774600077 2.4123577041074795 -0.1539056169331685 1 0 0
14 3 3 -3.435517218647478 2.274413522120582 -0.06847428562102831 2 0 0
38 10 2 -1.3269381414194936 2.030065269898255 -0.3015052494835171 1 -1 1
39 10 4 -1.6870833021059748 2.023453603962754 -0.6482786578223023 1 -1 1
56 16 2 -2.389002846704978 1.6692474039779293 1.0816798359955704 1 0 0
57 16 4 -2.1953545665908454 1.6609617552852574 1.5425829272680605 1 0 0
58 16 4 -2.5826511268191092 1.6775330526705994 0.6207767447230768 1 0 0
84 25 4 -0.12037378291902767 1.0933434040710641 1.8209433693672792 0 0 0
54 15 4 -2.727185029066791 2.031180802372749 0.6975827731312836 1 0 0
52 14 4 -3.240681412709182 3.1820373028413074 1.7071495823417142 0 0 0
50 14 2 -3.5642164212833007 2.867039016955031 1.4924329868833586 0 0 0
53 15 2 -2.9072329018334346 2.2217692532401165 0.2718385780990542 1 0 0
154 48 4 -0.563225785063517 2.1257383709870834 1.3346425689948114 1 0 0
152 48 2 -0.7767379626067519 2.154524011155328 0.8834399381967954 1 0 0
16 4 1 -0.21029072426620932 2.7095927775075865 1.7966949215012042 1 0 0
18 4 3 -0.08650455945522761 3.100224795564832 1.5790149294223412 1 0 0
17 4 3 -0.29595884560429697 2.384907287349279 1.4823052560214856 1 0 0
153 48 4 -0.9902501401499899 2.1833096513235764 0.4322373073987795 1 0 0
151 47 4 -0.11267576177807914 3.4852107708518596 1.448328835778725 1 0 0
149 47 2 -0.1464165296012072 3.5719171813685997 0.9570615964370561 1 0 0
40 10 4 -0.966792980733012 2.0366769358337558 0.045268158855266805 1 -1 1
150 47 4 -0.18015729742433262 3.6586235918853354 0.4657943570953891 1 0 0
139 43 4 -3.7234550046669472 3.7152696525847637 3.5452125003219632 2 0 -1
76 22 4 -1.1536782489566404 2.507670205057161 3.0550542729768737 1 0 0
75 22 4 -0.4909427050970523 2.9158064246045163 2.4271913620563095 1 0 0
74 22 2 -0.8223104770268481 2.7117383148308343 2.741122817516589 1 0 0
19 4 3 -0.5948566807968603 2.782203104327842 2.045966273740102 1 0 0
46 12 4 1.0280554656826006 -1.9809341609590227 -3.1830316864904304 0 0 1
97 29 4 2.8728902659595428 -2.0407902705638756 -2.173674894820545 0 0 0
48 13 4 0.8642431636074472 -1.8987659212934291 -3.546629851700848 0 0 1
44 12 2 1.453216521169701 -1.914649560877374 -2.928384887332712 0 0 1
45 12 4 1.8783775766568014 -1.8483649607957244 -2.6737380881749933 0 0 1
96 29 4 2.2013705730355047 -1.7357288766631425 -2.8489487288038466 0 0 0
95 29 2 2.5371304194975237 -1.8882595736135106 -2.511311811812196 0 0 0
59 17 2 1.4943568902877975 -3.5096029149661954 -0.10394395944607071 1 1 0
60 17 4 1.0402529804822138 -3.717122715731889 -0.13090793719777727 1 1 0
125 39 2 2.970405911924907 -3.2565702381663977 -0.1501609684795624 0 0 0
126 39 4 3.1112704568281813 -3.6534221198584014 -0.41972477525604157 0 0 0
128 40 2 2.770488133863408 -2.4560260931502693 -1.58600833282371 0 0 1
129 40 4 2.9157953689168044 -2.8576932673000495 -1.3261081186402675 0 0 1
130 40 4 2.6251808988100076 -2.0543589190004896 -1.8459085470071486 0 0 1
101 31 2 2.934400125460454 -3.5847788368501523 -1.8340518905625918 0 0 0
103 31 4 2.853159407802266 -3.1424235383947656 -1.6156004841628935 0 0 0
61 17 4 1.948460800093382 -3.3020831142005016 -0.07697998169436637 1 1 0
9 2 3 1.9147708147247884 -3.0182196437364848 0.2232118488788335 0 0 0
43 11 4 0.7076469760254356 -1.9374818519084969 0.3818717653914425 0 0 0
124 38 4 1.893035041097265 -3.266176568417485 1.3105216659653913 0 0 0
7 2 3 2.07989410023869 -2.854841756958493 0.9380142734971293 0 0 0
8 2 3 2.5849051227867075 -2.7070927340124236 0.40132480497836864 0 0 0
6 2 1 2.1320894693280246 -2.717683121552053 0.5020517804336992 0 0 0
127 39 4 2.8295413670216294 -2.859718356474393 0.11940283829691678 0 0 0
10 2 3 1.9522317153695963 -2.3021827295708346 0.4529690139280107 0 0 0
122 38 2 2.0681954214335625 -3.6197165208833493 1.6176488458672247 0 0 0
42 11 4 1.1039523306435286 -1.604820716674404 1.2376061118462363 0 0 0
41 11 2 0.905799653334483 -1.7711512842914479 0.8097389386188412 0 0 0
79 23 4 1.4800585415896559 -1.5639486223354209 1.2946763885017476 0 0 0
77 23 2 1.975604548701439 -1.5045901639940178 1.2644883684350856 0 0 0
148 46 4 3.820664495770147 -0.8520128159638118 1.6990765422355074 0 0 0
78 23 4 2.4711505558132294 -1.445231705652612 1.2343003483684272 0 0 0
94 28 4 2.8220899104288653 -1.3350679585003689 1.1264251777927021 0 0 0
92 28 2 3.282815432538064 -1.2624989568462985 1.3066095332828414 0 0 0
93 28 4 3.7435409546472713 -1.1899299551922273 1.4867938887729895 0 0 0
49 13 4 0.7337510855774974 -2.338749577937434 3.244191417242724 0 0 0
47 13 2 0.7989971245924736 -2.1187577496154306 3.68842878277094 0 0 0
138 43 4 3.1846494842110222 -3.4853914584992176 3.125492458056336 1 1 -1
137 43 2 3.5702452397720417 -3.724708902957228 3.3353524791891496 1 1 -1
157 49 4 2.9878322721863104 -3.7917574676548 2.937940118460036 1 1 0
30 7 4 2.255655635428958 -0.2529758507271418 2.8267810182592847 0 0 -1
146 46 2 3.8314217119542255 -0.8947408914436275 2.197131343108731 0 0 0
32 8 2 2.6011033045495773 0.2775090198989809 -2.4947781477470676 0 0 0
34 8 4 2.8895166558293472 0.5416892359202943 -2.8062714480306585 0 0 0
68 20 2 2.8505922261299097 1.1618202082430344 -3.4098352710059747 0 0 0
69 20 4 2.7532872637630192 0.7951305828280621 -3.0841495689669114 0 0 0
70 20 4 2.9478971884968037 1.528509833658013 -3.7355209730450394 0 0 0
33 8 4 2.3126899532698055 0.013328803877666218 -2.183284847463476 0 0 0
141 44 4 3.1905993669968917 2.3398933658638525 -2.2836302853313075 0 0 0
140 44 2 3.156449939686444 2.8387056102356962 -2.2880823377968253 0 0 0
102 31 4 3.0156408431186397 3.652161864694462 -2.0525032969622905 0 -1 0
142 44 4 3.1223005123759937 3.3375178546075355 -2.2925343902623427 0 0 0
133 41 4 3.2462100533636735 2.1293287448152722 -1.9473660258758674 1 0 0
135 42 4 1.9155097906884557 1.6947585680371078 -1.6214644017045021 1 0 0
66 19 4 3.159903629227895 0.5124134239671734 -0.21612072639821456 0 0 0
65 19 2 3.4043875260099017 0.9253382694023213 -0.07568314136806853 0 0 0
110 34 2 2.1910135112623093 1.2613592500619686 -1.074026942711253 1 0 0
112 34 4 2.2513594430288397 1.5671895701486362 -1.4649573111119056 1 0 0
111 34 4 2.1306675794957797 0.9555289299752947 -0.6830965743106021 1 0 0
12 3 3 3.761273440364953 1.7005596193828585 -0.12125526656725771 1 0 0
63 18 4 2.7834618856595994 0.5767505653329388 -0.08793744902638823 0 0 0
104 32 2 0.440628921103984 3.6386178195000256 -0.1417599962699847 0 -1 0
105 32 4 0.8750657759422151 3.691826632122489 -0.3834910528899642 0 -1 0
136 42 4 2.307446394694456 2.5789252757992984 -1.8757120408141867 1 0 0
134 42 2 2.1114780926914585 2.136841921918203 -1.7485882212593444 1 0 0
132 41 4 3.6983914920789407 2.1058450265913646 -1.0557493767034214 1 0 0
11 3 1 3.8260624974942457 2.1444333243190683 -0.22313307222660939 1 0 0
13 3 3 3.4953324386373006 2.395643066869862 -0.01622818645186097 1 0 0
27 6 4 3.1940569820693674 3.6401015613913654 -0.36282217589183174 -1 -1 0
28 6 4 3.240807020323348 2.6546872793509544 -0.19920003431562483 -1 -1 0
131 41 2 3.4723007727213067 2.117586885703315 -1.5015577012896464 1 0 0
26 6 2 3.2174320011963604 3.1473944203711564 -0.2810111051037274 -1 -1 0
15 3 3 3.8034735194060496 2.19955191256449 -0.6746324126436192 1 0 0
89 27 2 1.2653319165606436 0.6254592727147332 0.7332780849909208 0 0 0
91 27 4 0.7807914024748972 0.712778903499061 0.8204269581360264 0 0 0
83 25 2 0.1656597397239179 0.9160715884418464 1.4511346171841457 0 0 0
85 25 4 0.4516932623668537 0.7387997728126225 1.081325865001006 0 0 0
90 27 4 1.749872430646397 0.5381396419304081 0.6461292118458126 0 0 0
64 18 4 1.8860377266375665 0.39277698470559796 0.31304497263083997 0 0 0
62 18 2 2.334749806148586 0.4847637750192644 0.11255376180222543 0 0 0
67 19 4 3.648871422791903 1.3382631148374755 0.06475444366208016 0 0 0
106 32 4 0.006192066265744867 3.5854090068775597 0.09997106034999748 0 -1 0
5 1 3 3.0302838556092513 2.3009404474306714 1.2095432971018387 -1 -1 0
1 1 1 3.281344142932801 2.3655393540515113 0.8351156835950602 -1 -1 0
4 1 3 3.162429482346345 2.765310350662627 0.6317895835057734 -1 -1 0
2 1 3 3.20551661878055 2.0205262097601975 0.5404690476646734 -1 -1 0
3 1 3 3.7319118336708015 2.3719988015094686 0.9457822540213319 -1 -1 0
51 14 4 3.7915445701425834 2.552040731068757 1.2777163914249967 -1 0 0
144 45 4 0.8903096649871576 1.0933081570450693 1.9957604065565673 0 0 0
143 45 2 1.1850617356467095 0.6967724064023435 2.0724303334755896 0 0 0
31 7 4 1.6397236992646218 0.46061762643586635 2.493009526348733 0 0 -1
145 45 4 1.4798138063062578 0.30023665575960967 2.1491002603946137 0 0 0
87 26 4 2.8120592760931715 1.5685890140895302 3.5771000650756872 0 0 0
29 7 2 1.9476896673467894 0.10382088785436139 2.6598952723040097 0 0 -1
86 26 2 3.1746393064778213 1.8487594739257065 3.3769944262799476 0 0 0
160 50 4 1.3514917723170599 2.5449191098649853 2.3291918002611625 1 0 0
20 4 3 0.12709824047230844 2.5696932457096744 2.0687167284621197 1 0 0
158 50 2 0.853077291488566 2.5185401622466697 2.358981385286173 1 0 0
24 5 3 1.7195998569188142 3.4030669596005088 2.65939425653237 1 0 0
25 5 3 1.6987769016683365 2.754110900452089 2.2781821003114513 1 0 0
159 50 4 0.35466281066006866 2.492161214628354 2.3887709703111857 1 0 0
22 5 3 1.319679186378385 3.3453043741394315 2.025653455412613 1 0 0
21 5 1 1.7034256624667639 3.2077923404291497 2.238791972057309 1 0 0
155 49 2 2.524877011096027 3.7177981705488485 2.8551016766166577 1 0 0
23 5 3 2.070322610698415 3.341184439548249 1.9880048988414987 1 0 0
123 38 4 2.2433558017698716 3.7060395266507897 1.9247760257690598 0 -1 0
156 49 4 2.0619217500057423 3.548057808752493 2.7722632347732863 1 0 0
88 26 4 3.5372193368624747 2.128929933761873 3.1768887874842062 0 0 0

Velocities

115 -0.7961356399243459 0.507786284248344 0.32623923013277595
73 -0.8540594122374037 0.6839807926996768 -0.2310479420244203
98 -0.018817353710256838 -0.005437944203860497 0.3378416099709179
99 -0.27690266781211714 0.09821375504610877 0.6175394041972765
100 0.23926796039160453 -0.10908964345382942 0.058143815744558736
147 0.1332289182779584 -0.09007421684175143 -0.10975400025616278
117 -0.4596516907031426 -1.0642335152363038 0.1610795381274941
118 -0.17313564958857197 0.3387720867527428 -0.11684597566089913
116 -0.3163936701458577 -0.36273071424178227 0.022116781233298015
72 0.08337267779446506 -0.44178740163798524 0.27078178031325467
82 -0.00988903179406821 -0.20895547345921428 0.7492118943342211
71 -0.38534336722146956 0.12109669553084614 0.01986691914441698
80 -0.006655970486206751 0.20321662014883893 -0.016107094507200194
81 -0.0034229091783404735 0.6153887137568952 -0.7814260833486251
35 0.09466127441193449 0.16843703267081456 -0.003386876015488646
36 -0.25967731768255947 0.2892438647518006 0.10911219131979966
114 -0.1722170879442626 -0.3140218094906129 -0.45361287726021843
113 -0.48417636393430397 0.09688223737886509 -0.06368682356372252
37 0.44899986650642937 0.047630200589828336 -0.11588594335077725
119 -0.09326809061979033 -0.09429012995130655 -0.018751075593333385
109 -0.29208956511006223 0.13375030231596702 -0.7278060503302473
120 -0.04863396893572033 -0.24884593583483466 0.06197567778697867
107 -0.02525710394565093 -0.10240486944400144 -0.5163295774021787
121 -0.13790221230385985 0.060265675932222 -0.09947782897364557
108 0.24157535721876064 -0.33856004120396965 -0.3048531044741101
55 -0.27190338272250886 0.7963481884601831 0.21767286400823402
14 -0.0778628492601317 0.20144648109788132 -0.43474261658358515
38 0.0046134418723618505 0.14391948558830675 0.26580331330067924
39 -0.10289730619469573 -0.20676326143884335 0.3841459102695819
56 -0.09043541221325249 0.09630521921974394 0.07948977300788168
57 0.2751611248460494 -0.17873110152635516 -0.07905988010669052
58 -0.4560319492725543 0.37134153996584285 0.23803942612245343
84 -0.18367337261253208 -0.416846246375064 0.3423506988793215
54 0.1687733448259724 -0.22418964940956843 -0.4255454723033516
52 0.26094178006815216 0.24026493549309025 -0.32274554005480566
50 0.0988918727250538 0.2411468723022281 -0.07986492333866922
53 -0.05156501894826846 0.28607926952530766 -0.10393630414755892
154 0.31957229883351324 0.33491637157633997 -0.005193840956920381
152 0.02844069739990665 0.12284034926634226 0.11904187507195751
16 0.012771934893589063 0.37113398600627434 -0.1900919405167235
18 0.09677988780218058 0.16898396235650076 -0.5050844985905726
17 0.40622277068878637 -0.0017828440202284357 0.08782994075254102
153 -0.26269090403370066 -0.08923567304365655 0.24327759110083746
151 0.5741172093512545 0.11768052401101932 -0.12693361614617882
149 0.1406784619163399 -0.0816481431931022 -0.13234440089133853
40 0.11212418993941915 0.49460223261545644 0.1474607163317766
150 -0.29276028551857647 -0.2809768103972248 -0.13775518563649694
139 -0.6788307917046459 -0.2818380647343751 1.0037163991275009
76 1.3735221760363807 -0.4589746447957748 0.9702030617365157
75 -0.6466369884772705 0.41513657118896313 -0.5939386853525057
74 0.36344259377956034 -0.021919036803406546 0.18813218819200644
19 -0.24260220375609987 0.5282837316802836 -0.6298499742399806
46 0.07248241420859433 -0.8631742590170433 0.08059894808755405
97 0.6341847666868947 0.11077399570920907 -0.4307210491107537
48 -0.4696957868662065 0.6906009429111628 -0.26685600879076704
44 0.019195545596593637 -0.18159682091830176 -0.00784756685727864
45 -0.034091323015407834 0.49998061718043973 -0.0962940818021118
96 -0.5197656402597188 -0.378544841507477 0.49576480766511444
95 0.05720956321358848 -0.13388542289913505 0.03252187927718261
59 -0.20007681741159192 0.3033336678516981 0.20415239130049206
60 -0.43773999458085944 0.8225059524905611 0.21100433657370768
125 -0.1592360387497175 0.18527244981212942 0.22457360988856895
126 -0.5841377728271578 -0.22326489274830538 0.6039774279664385
128 -0.07360798518825894 -0.20432847180968408 0.28755373970092735
129 0.2063462590371618 0.08127046655599499 0.5724139007129648
130 -0.3535622294136797 -0.48992741017536223 0.0026935786888896973
101 -0.14670050172554283 -0.01733704989927727 -0.1301242771602757
103 -0.645761974474256 -0.009777757941741426 -0.33103949853543846
61 0.03758635975767535 -0.21583861678716437 0.19730044602727645
9 0.17324962198866295 -0.27694903401517207 -0.16375691767741685
43 -0.44011916605375684 0.26538225874987037 0.09130381550262659
124 0.35846915251170214 0.5598844200635833 0.035615353472074965
7 0.043108268387088006 -0.22528841978932396 -0.1455015888838393
8 -0.2346118314008216 0.6091771165728245 -0.1771024205797327
6 -0.20628431287196455 -0.04451404284879393 -0.11848556965852822
127 0.26566569532772333 0.5938097923725644 -0.15483020818930118
10 -0.7897832382471646 -0.2820311702078936 0.009069813243083022
122 -0.1723597926979517 0.3008507184695715 0.04018451625566728
42 0.4319171361469803 -0.24006585457274038 -0.11605821526423629
41 -0.004101014953387405 0.01265820208856491 -0.012377199880804353
79 0.04200932861571884 -0.48823200946439493 -0.03547669886490826
77 -0.0237982014482566 -0.016822375559106137 -0.18879813474022245
148 0.172761208868713 0.010339304812302712 -0.1019934039560597
78 -0.08960573151223222 0.4545872583461833 -0.3421195706155369
94 0.12165883621592448 0.09286341331045009 -0.24304832643816393
92 0.03673810142738725 -0.0970361089166935 0.05057265328512713
93 -0.048182633361151375 -0.2869356311438379 0.34419363300841876
49 0.009572447588690275 -0.5827717558883665 0.2933451536562365
47 -0.2300616696387585 0.053914593511398094 0.013244572432733331
138 0.37642646904041793 -0.13826415749352944 -0.7714931124327952
137 -0.15120216133211098 -0.21005111111395336 0.1161116433473522
157 0.3163448638252263 0.011152956766497496 -0.46909317842988935
30 -1.1084256530104695 -0.9175186650313962 0.49169801587947687
146 0.15299506357333578 -0.039867456014724134 -0.10587370210611122
32 -0.004120734096743902 0.45079196300408697 0.13198577452032847
34 0.7132983409878838 -0.15364328391243076 0.28361507214447096
68 0.11532508662029663 -0.3541733797551342 -0.25942410837340646
69 0.4518358303806198 -0.32065956060997725 -0.12115552361733112
70 -0.2211856571400269 -0.3876871989002906 -0.3976926931294826
33 -0.7215398091813721 1.0552272099206061 -0.01964352310381498
141 0.32159550582896906 -0.2599984922729041 0.18668261906579345
140 -0.033962860287888516 -0.28336157582330984 0.29676577948826177
102 0.35236097102317243 -0.024896341856814073 0.07079094421488741
142 -0.38952122640474596 -0.3067246593737154 0.40684893991073
133 0.32739560890464026 0.5149848490668456 -0.1328069761024791
135 -0.06040998008481789 0.29089775338898055 0.7110899208298597
66 -0.36471528907819695 -0.018804483915622477 0.5436430816554763
65 0.0987171056947552 -0.14510306525470296 0.108232418973099
110 -0.031044117424203703 -0.1905325105145211 -0.1498321122639775
112 0.5072705668865402 -0.5351302525718089 -0.3363230803971801
111 -0.5693588017349481 0.15406523154276416 0.03665885586922821
12 -0.1108632659276029 0.2003199840443779 -0.12082020824208595
63 -0.37923982750389085 -0.17809431165061246 -0.5035286495571897
104 0.026096874929127597 0.1849546484727884 -0.08611950479119274
105 0.5793890127033248 -0.05139453238037642 0.8562266945297763
136 -0.019387018517880363 -0.09359522667198293 -0.5627777773752123
134 -0.03989849930134922 0.0986512633584992 0.07415607172732525
132 -0.5430911139890411 -0.22536706329775624 0.2891590423831016
11 -0.27319505877808914 0.2614705198755547 0.042380319467202436
13 -0.01679208983093533 0.1246179994592441 0.6183913648089838
27 0.13909042971772734 -0.2241591550244431 -0.10056612441102163
28 0.005347694909759185 -0.16173255512680068 0.31361901186694946
131 -0.10784775254219951 0.14480889288454543 0.07817603314031078
26 0.07221906231374323 -0.1929458550756219 0.10652644372796401
15 -0.8710602658247428 0.5127874067117648 0.10297337720215456
89 -0.26019230041299174 0.02053764661792615 -0.05467265612884981
91 -0.3861268057760365 -0.3935811731974731 -0.3399290982491574
83 0.04385261059559834 0.08293908024853541 0.2787573135759337
85 0.27137859380372853 0.5827244068721342 0.21516392827254588
90 -0.13425779504994623 0.4346564664333263 0.2305837859914584
64 -0.20009715054296448 0.17421445534829272 0.05904499409605826
62 -0.2896684890234278 -0.0019399281511601795 -0.2222418277305663
67 0.5621495004677092 -0.2714016465937814 -0.32717824370927795
106 -0.527195262845074 0.4213038293259541 -1.0284657041121652
5 -0.5266856554091659 0.9086929570375213 0.1721019425192952
1 -0.2615503281310215 0.40776925811835135 0.26345646789884397
4 0.19384879325155374 0.35371981996794094 -0.10916096895050204
2 -0.390935859129033 0.24703570318830284 0.4849615499204525
3 -0.3180941978163854 0.10770386588514042 0.511183434286143
51 -0.06315803461804345 0.2420288091113667 0.16301569337746719
144 0.5979415059412421 0.476180193409164 -0.2102859232086302
143 -0.12771694507397793 -0.044715658905085394 -0.11457198406325457
31 0.5237067002724982 0.3302380485404139 0.14744142681270858
145 -0.8533753960891977 -0.5656115112193361 -0.018858044917878652
87 -0.08739805491967444 -0.17418504329853565 -0.5359810947238615
29 -0.2923594763689875 -0.2936403082454924 0.31956972134609307
86 -0.009810728679322953 0.061104639788410575 -0.06596627155285949
160 0.0073807616501452705 0.4539758851323459 -0.020885427310312482
20 -0.1988223409980825 0.7743940494389514 0.27974452297122193
158 0.01915510484854094 0.07538456343931857 -0.1591330931926878
24 -0.556623403949174 0.26679646697321924 -0.38299717112974124
25 -0.62230411896389 0.2066181935861298 -0.2769661990460265
159 0.030929448046935412 -0.3032067582537097 -0.29738075907506334
22 -0.15759017249713875 0.34858113925713674 -0.6422601076965477
21 -0.36990510578529 0.19701791041299072 -0.35778017160000686
155 0.15083708599801823 0.18070284191378633 0.10845216948954531
23 -0.1342275140108928 -0.032001935019084576 -0.1348036195227549
123 -0.7031887379076047 0.04181701687555589 0.04475367903926257
156 -0.014670691829189592 0.3502527270610757 0.6859975174089813
88 0.06777659756103058 0.296394322875358 0.4040485516181402

Bonds

1 1 98 99
2 1 98 100
3 1 116 117
4 1 116 118
5 1 71 72
6 1 71 73
7 1 80 81
8 1 80 82
9 1 35 36
10 1 35 37
11 1 113 114
12 1 113 115
13 1 119 120
14 1 119 121
15 1 107 108
16 1 107 109
17 1 38 39
18 1 38 40
19 1 56 57
20 1 56 58
21 1 50 51
22 1 50 52
23 1 53 54
24 1 53 55
25 1 152 153
26 1 152 154
27 1 16 17
28 1 16 18
29 1 16 19
30 1 16 20
31 1 149 150
32 1 149 151
33 1 74 75
34 1 74 76
35 1 44 45
36 1 44 46
37 1 95 96
38 1 95 97
39 1 59 60
40 1 59 61
41 1 125 126
42 1 125 127
43 1 128 129
44 1 128 130
45 1 101 102
46 1 101 103
47 1 6 7
48 1 6 8
49 1 6 9
50 1 6 10
51 1 122 123
52 1 122 124
53 1 41 42
54 1 41 43
55 1 77 78
56 1 77 79
57 1 92 93
58 1 92 94
59 1 47 48
60 1 47 49
61 1 137 138
62 1 137 139
63 1 146 147
64 1 146 148
65 1 32 33
66 1 32 34
67 1 68 69
68 1 68 70
69 1 140 141
70 1 140 142
71 1 65 66
72 1 65 67
73 1 110 111
74 1 110 112
75 1 104 105
76 1 104 106
77 1 134 135
78 1 134 136
79 1 11 12
80 1 11 13
81 1 11 14
82 1 11 15
83 1 131 132
84 1 131 133
85 1 26 27
86 1 26 28
87 1 89 90
88 1 89 91
89 1 83 84
90 1 83 85
91 1 62 63
92 1 62 64
93 1 1 2
94 1 1 3
95 1 1 4
96 1 1 5
97 1 143 144
98 1 143 145
99 1 29 30
100 1 29 31
101 1 86 87
102 1 86 88
103 1 158 159
104 1 158 160
105 1 21 22
106 1 21 23
107 1 21 24
108 1 21 25
109 1 155 156
110 1 155 157
