LAMMPS data file via write_data, version 4 Feb 2025, timestep = 1000, units = lj

160 atoms
4 atom types
110 bonds
1 bond types

-3.839648 3.839648 xlo xhi
-3.839648 3.839648 ylo yhi
-3.839648 3.839648 zlo zhi

Masses

1 1
2 1
3 0.1
4 0.1

Bond Coeffs # zero

1 0

Atoms # bond

36 9 4 -3.287866386583241 -2.7953826218194315 -2.655208077972234 0 0 0
35 9 2 -3.5150877096439133 -2.7544566665520116 -2.211704372765606 0 0 0
114 35 4 -3.467946129682858 -1.9909273554875473 -3.271396084081872 1 0 0
37 9 4 -3.742309032704586 -2.7135307112845912 -1.7682006675589776 0 0 0
29 7 2 -0.61379296304223 -0.49562676432911223 -3.58925959453771 0 0 0
31 7 4 -0.6675305831124005 -0.6369474216722071 -3.112666749441073 0 0 0
1 1 1 -2.629425421119591 -3.129617149906503 -0.9709180016320075 0 0 0
2 1 3 -2.483562872467477 -3.1615202130101236 -0.535824550215747 0 0 0
3 1 3 -2.6672738506925118 -3.5567715603559393 -1.1481370920609324 0 0 0
4 1 3 -3.042865441642168 -2.9190305430554013 -0.9754600766235133 0 0 0
5 1 3 -2.3289231560912937 -2.887234695079641 -1.2124736563059673 0 0 0
26 6 2 -3.074968430245739 -2.0297000571273376 -0.5240949494626069 0 0 0
28 6 4 -3.5151869660598183 -1.7935564930019203 -0.5030270153482954 0 0 0
106 32 4 -0.22904184868545252 -3.1462862121453474 -1.4149102192763723 0 0 0
27 6 4 -2.63474989443166 -2.2658436212527557 -0.5451628835769182 0 0 0
32 8 2 -2.6207066703687873 -0.7124848112319365 -1.6546029047866029 0 0 0
33 8 4 -2.2701967011674156 -0.9789782190311493 -1.8915080020091346 0 0 0
34 8 4 -2.9712166395701596 -0.44599140343272375 -1.4176978075640712 0 0 0
41 11 2 -1.9841972004773616 -2.805462020391665 1.2117865674227792 0 0 0
43 11 4 -2.422472132011345 -2.8051033991181997 0.9711313040694481 0 0 0
42 11 4 -1.5459222689433783 -2.8058206416651306 1.45244183077611 0 0 0
76 22 4 -1.4010387560992394 -3.3801775396357145 0.42612467747933674 0 1 0
38 10 2 -2.2831615649948835 -3.3600090712114534 3.495799023046888 0 0 0
39 10 4 -1.9546500897568062 -2.9903151809929343 3.422269177596154 0 0 0
40 10 4 -2.611673040232961 -3.729702961429972 3.5693288684976214 0 0 0
30 7 4 -0.5600553429720596 -0.3543061069860174 3.613443560365654 0 0 -1
44 12 2 -3.0309147116249955 -0.7781775646865452 2.1546145883485908 0 0 0
45 12 4 -2.7066237351681126 -1.037677110733909 2.432994451467045 0 0 0
46 12 4 -3.355205688081879 -0.5186780186391815 1.8762347252301366 0 0 0
47 13 2 -2.288891308915249 -0.8789512075738782 3.4382717202850683 0 0 0
49 13 4 -2.3455671851549234 -1.30164992270371 3.6992576227397014 0 0 0
48 13 4 -2.2322154326755745 -0.45625249244404664 3.1772858178304357 0 0 0
87 26 4 -2.4937456660915047 0.7439788804792323 -3.8051137927628047 0 0 1
67 19 4 -0.7888434940836411 1.2870992383746032 -2.0571018610292477 0 0 0
68 20 2 -1.868505537735329 0.2514559880253153 -3.4114632349228797 0 0 0
69 20 4 -1.3849502445181343 0.21583368145398385 -3.2893758495132044 0 0 0
53 15 2 -3.093876378397931 2.306584292531426 -2.1293999835740376 0 0 0
54 15 4 -3.3135623793208078 2.7087416479789637 -1.9293811783132377 0 0 0
55 15 4 -2.8741903774750543 1.9044269370838887 -2.329418788834837 0 0 0
58 16 4 -0.40367151564586407 2.9606327347550314 -2.0266876685676767 0 0 0
59 17 2 -0.5600527245846169 3.237445044048825 -3.3629620629438315 0 0 0
60 17 4 -0.22501062735768307 2.873008639169179 -3.4331966689737823 0 0 0
61 17 4 -0.8950948218115504 3.601881448928471 -3.2927274569138807 0 0 0
73 21 4 -0.8073802318424337 2.490050116712305 -3.2706375481484913 0 0 0
71 21 2 -1.2956098667980505 2.3853913442533905 -3.296682987259682 0 0 0
72 21 4 -1.7838395017536672 2.280732571794476 -3.322728426370873 0 0 0
62 18 2 -2.763907479781498 0.5841945935886214 -0.9440247000683158 0 0 0
63 18 4 -2.6365886537184013 0.30674589485066006 -1.340019821374794 0 0 0
64 18 4 -2.891226305844595 0.8616432923265827 -0.5480295787618374 0 0 0
65 19 2 -0.9683419200141272 1.0936855235971044 -1.6324002598732732 0 0 0
66 19 4 -1.1478403459446134 0.9002718088196057 -1.2076986587172984 0 0 0
94 28 4 -0.4286665309245898 1.19277768017184 -0.12230852522951852 0 0 0
50 14 2 -1.945827987806127 3.0956209656392293 -0.6177521420093596 0 0 0
51 14 4 -1.709359436392238 3.462344502792228 -0.861876027547442 0 0 0
52 14 4 -2.182296539220016 2.7288974284862304 -0.3736282564712772 0 0 0
56 16 2 -0.5463187564546185 2.513591077616932 -1.854044911775315 0 0 0
57 16 4 -0.6889659972633728 2.0665494204788324 -1.6814021549829536 0 0 0
70 20 4 -2.3520608309525235 0.28707829459664674 -3.533550620332555 0 0 0
77 23 2 -2.1991472890647525 0.42520604017700026 0.7879174451642917 0 0 0
78 23 4 -2.195093495226294 0.8458378886435451 1.0581995474410286 0 0 0
79 23 4 -2.2032010829032105 0.004574191710455422 0.5176353428875551 0 0 0
81 24 4 -2.086364862678424 1.8816730664528523 3.284401198537045 0 0 0
80 24 2 -1.932386403038291 2.2302423997358907 2.9606882796390463 0 0 0
93 28 4 -0.505262540621107 1.258669371434731 0.8725740489072958 0 0 0
92 28 2 -0.4669645357728484 1.2257235258032855 0.37513276183888866 0 0 0
91 27 4 -3.1432786336884013 2.0543504641733494 1.486767657943965 0 0 0
89 27 2 -3.2382189572954863 2.2383523784665704 1.941882621980313 0 0 0
74 22 2 -1.3466831354743454 3.8140238187709787 0.5344235934662706 0 0 0
75 22 4 -1.2923275148494513 3.3289291771776726 0.6427225094532042 0 0 0
86 26 2 -2.5649776790267573 1.150162102006603 3.59144347468921 0 0 0
88 26 4 -2.6362096919620104 1.5563453235339737 3.308704742141225 0 0 0
90 27 4 -3.333159280902571 2.4223542927597923 2.3969975860166612 0 0 0
82 24 4 -1.7784079433981577 2.578811733018929 2.6369753607410478 0 0 0
85 25 4 -3.434890612976268 1.4928077937888098 1.4289898111568702 0 0 0
95 29 2 0.6215407190854345 -1.780718383449672 -2.4977834247183703 0 0 0
97 29 4 0.665962929473053 -2.2115573634072234 -2.747592232756487 0 0 0
101 31 2 0.26195362095312363 -2.891287193250101 -3.7781826745024065 0 0 0
102 31 4 0.2966349582031301 -3.220144678140463 -3.4031493966747743 0 0 0
127 39 4 2.611749762165495 -0.49125484569268624 -0.5060534732701231 0 0 0
96 29 4 0.577118508697816 -1.3498794034921209 -2.2479746166802532 0 0 0
110 34 2 1.241177806152826 -0.39730933663492296 -2.289971874568908 0 0 0
111 34 4 1.4893509884957814 -0.8041333504337309 -2.4413135190769624 0 0 0
109 33 4 2.5933640146819648 -0.8708992826313682 -1.5582794377922837 0 0 0
98 30 2 2.378586945125971 -0.4426626586210459 -3.033422979788259 0 0 0
99 30 4 2.611256792725528 -0.007659985167921879 -2.951952640973275 0 0 0
100 30 4 2.1459170975264144 -0.8776653320741701 -3.114893318603243 0 0 0
115 35 4 3.329714207395954 -1.53210518828483 -3.3818532103748478 0 0 0
113 35 2 3.7705320388565475 -1.7615162718861888 -3.3266246472283596 0 0 0
104 32 2 0.16567380803780427 -2.9110732385393296 -1.217744280572609 0 0 0
105 32 4 0.5603894647610612 -2.675860264933312 -1.020578341868846 0 0 0
6 2 1 0.5395843401811914 -1.377098701443561 -0.40739992305158274 0 0 0
107 33 2 2.1158328651060496 -0.9214349774061065 -1.4189591422918146 0 0 0
8 2 3 0.45939608796595033 -1.7158279078105754 -0.7142099114167466 0 0 0
9 2 3 0.27480535223361346 -1.0088277890976252 -0.5052192598993792 0 0 0
10 2 3 0.9793892889840838 -1.259319364276996 -0.4173816435988881 0 0 0
108 33 4 1.6383017155301343 -0.9719706721808448 -1.2796388467913455 0 0 0
125 39 2 2.618365342241208 -0.8826269130423444 -0.19495198018674054 0 0 0
119 37 2 1.354887494971755 -0.5323669132208583 0.9126565904703564 0 0 0
120 37 4 1.0678375091409507 -0.8971547764443853 1.0984847919881762 0 0 0
121 37 4 1.6419374808025595 -0.16757904999733103 0.7268283889525367 0 0 0
151 47 4 1.0767151295218043 -3.7823500337285325 0.47556557484717493 0 1 0
126 39 4 2.6249809223169214 -1.2739989803920029 0.11614951289664194 0 0 0
130 40 4 0.7275499061522599 -2.260220536659204 2.572181186658822 0 0 0
128 40 2 1.1424577729278145 -2.5074239033386845 2.442790469874019 0 0 0
129 40 4 1.557365639703369 -2.754627270018165 2.3133997530892163 0 0 0
122 38 2 2.953465855848741 -2.7617742939376186 2.861761490699183 0 0 0
123 38 4 3.2168712122212475 -3.1510052922579708 3.032398087538231 0 0 0
124 38 4 2.690060499476235 -2.372543295617267 2.691124893860135 0 0 0
144 45 4 0.8232601281005536 -0.2140065635559318 2.4981097531737673 0 0 0
116 36 2 3.0358119400838612 -0.2724837737772707 2.907501413336922 0 0 0
117 36 4 3.2744782902838434 -0.4995437219044031 3.283642548070585 0 0 0
118 36 4 2.7971455898838786 -0.045423825650138444 2.531360278603259 0 0 0
103 31 4 0.2272722837031173 -2.5624297083597396 3.5260800476699616 0 0 -1
7 2 3 0.43300997334273106 -1.529313508034041 0.01339997831199724 0 0 0
140 44 2 1.9080162608096183 3.4439339009871826 -2.8320583996153834 0 0 0
141 44 4 1.7595709243705986 3.6028400492946404 -2.38182199713376 0 0 0
133 41 4 2.796426014646207 3.8286181105268517 -1.745365553911114 0 0 0
137 43 2 3.376995868636353 2.4191980293095305 -2.77423682345268 0 0 0
138 43 4 3.2004842393602213 2.7153116195934808 -2.4120761044625665 0 0 0
139 43 4 3.5535074979124843 2.1230844390255807 -3.1363975424427935 0 0 0
142 44 4 2.056461597248638 3.2850277526797242 -3.282294802097007 0 0 0
112 34 4 0.9930046238098706 0.009514677163885155 -2.1386302300608535 0 0 0
132 41 4 3.0715283636325634 2.9859989830765405 -2.208303674654115 0 0 0
14 3 3 2.3928044728587374 1.5963565968407323 -0.3917683402057458 0 0 0
134 42 2 3.4782171662307397 1.1085218100751073 -1.6829272812325342 0 0 0
135 42 4 3.2699564777483565 1.5223753779457243 -1.870950444682149 0 0 0
136 42 4 3.6864778547131234 0.6946682422044905 -1.4949041177829192 0 0 0
131 41 2 2.933977189139385 3.4073085468016964 -1.9768346142826145 0 0 0
13 3 3 2.498648630305568 2.137319342160718 0.13144894019527012 0 0 0
15 3 3 2.1322035687242984 1.5038713991100978 0.30854134626520313 0 0 0
146 46 2 2.267109989852902 0.5708629478493092 1.0772115979576653 0 0 0
147 46 4 2.530314166822256 0.23972832480007428 0.810615606532582 0 0 0
148 46 4 2.0039058128835476 0.9019975708985442 1.3438075893827484 0 0 0
157 49 4 2.728905583069252 3.0910362037054293 2.0132470659851376 0 0 0
16 4 1 1.165657899226562 2.378240503719054 1.6189612034217857 0 0 0
18 4 3 1.3394407048493004 1.959699907308683 1.5193454133765323 0 0 0
19 4 3 0.7512852082678627 2.333270069900494 1.8228556198971178 0 0 0
20 4 3 1.125468617090398 2.6244942215542713 1.2379836082095315 0 0 0
149 47 2 0.901020708111532 3.4353520384985963 0.39770341376416274 0 0 0
84 25 4 3.3341313861295303 1.0842654955109212 1.3619492725709528 -1 0 0
155 49 2 2.862476208536512 2.6734123443387543 1.7729364334697095 0 0 0
156 49 4 2.996046834003772 2.2557884849720793 1.5326258009542812 0 0 0
143 45 2 0.4526593859486703 0.10703708460003689 2.5960182098829927 0 0 0
145 45 4 0.08205864379678707 0.42808073275600544 2.693926666592218 0 0 0
152 48 2 1.6002600953847512 1.43434404529309 2.4297906035566474 0 0 0
154 48 4 1.301585847094681 1.7085121387022595 2.7224090410563044 0 0 0
153 48 4 1.8989343436748216 1.16017595188392 2.137172166056991 0 0 0
17 4 3 1.451416822425602 2.5928083462289746 1.9086204493863543 0 0 0
160 50 4 0.7255453711044084 3.2919282380535617 3.0824735383121635 0 0 0
159 50 4 0.19140554591610087 3.4906722071322758 2.2607707441690104 0 0 0
158 50 2 0.4584754585102547 3.3913002225929185 2.671622141240587 0 0 0
21 5 1 3.44402936363433 3.2737294158932837 3.234381482873702 0 0 0
22 5 3 3.666923780563704 3.2779023368203064 3.6367503007916038 0 0 0
23 5 3 3.224745093612532 2.867383401600258 3.188584915434892 0 0 0
24 5 3 3.136461244314666 3.6211192333627142 3.229673330718337 0 0 0
25 5 3 3.744162719911572 3.3273253454927763 2.896080662921809 0 0 0
83 25 2 3.789268386576631 1.2885366446498654 1.3954695418639114 -1 0 0
11 3 1 2.469337184975651 1.6800784587184203 0.058157646840749574 0 0 0
12 3 3 2.8671639054871467 1.4840899787145465 0.18031498862927892 0 0 0
150 47 4 0.7253262867012599 2.973758110725725 0.31984125268115066 0 0 0

Velocities

36 -0.6522929950559035 -0.1239337130722454 -0.09403670209052253
35 -0.13076682473038942 0.01495389870128195 0.16034168735929036
114 0.5482522669059811 0.5521809422309079 -0.5628559783299069
37 0.3907593455951254 0.15384151047480946 0.4147200768091035
29 -0.1734763312281379 0.27701393869921687 -0.16239844649823268
31 0.34470760474168094 -0.14539919393118345 -0.22922641175988978
1 -0.0009144168218431805 0.17829228182323956 0.006201789119877505
2 0.3396819416481721 0.4262160697583766 -0.08980224063675361
3 0.327857348568074 0.100213011406914 0.12418236144127781
4 -0.22778929846484236 -0.261810853735432 0.25263755752993244
5 -0.42863918711232457 0.44583843426643505 -0.2574383610487926
26 -0.06565302916004256 0.08846632625257858 0.0021582806169239037
28 0.44334843287632403 1.0366879561663178 0.009536463754800316
106 -0.06505637285135502 -0.30876286278710763 0.694656907649611
27 -0.5746544911964107 -0.8597553036611606 -0.005219902520952462
32 0.2714867114396262 0.01076742009388997 -0.13018597864706663
33 -0.20931013551395 -0.5268839173388195 -0.23674152005804597
34 0.7522835583932024 0.5484187575265994 -0.023630437236087293
41 0.12345048637635125 0.23099535525190312 -0.44757577192140674
43 0.1381587447531806 0.9909520637228468 -0.4732295814599673
42 0.1087422279995219 -0.5289613532190404 -0.4219219623828462
76 0.4063873907346708 0.46615376633446887 0.23110572500657212
38 0.22773631700168823 -0.08072869121237004 0.09874729183827574
39 0.07328465276357143 0.11647530216723423 0.400202670554453
40 0.38218798123980524 -0.2779326845919741 -0.2027080868779016
30 -0.6916602671979566 0.6994270713296171 -0.09557048123657537
44 0.036576459866826505 -0.10004451817346963 0.15208036255659044
45 -0.1365389919469767 -0.7269724568764393 -0.23066189256126599
46 0.2096919116806297 0.5268834205295001 0.5348226176744468
47 -0.049505843965031236 0.15078636317129473 -0.2946094178558097
49 0.7623093845771669 0.15722882054106815 -0.1078807194223991
48 -0.8613210725072291 0.14434390580152112 -0.4813381162892202
87 0.44598722987286504 -0.3849437979153856 -0.3754922335048048
67 0.03460139183222671 0.5746982219579876 0.1115699630500826
68 0.06638785793078456 0.2212232967538498 -0.2593777632267077
69 -0.10464828053475728 -0.5288093915290901 0.19920799105114545
53 -0.09519496842061197 -0.10562119413075852 0.10819643730202605
54 0.05415181601236513 0.18646058388666564 -0.3150309561860649
55 -0.24454175285358906 -0.3977029721481827 0.5314238307901169
58 0.14661447385545856 0.05947249236836583 0.3310693946349743
59 0.23106904351448782 -0.034274683875145096 0.29620028916825536
60 0.19250998044209394 -0.05644964034361701 0.22732330361095074
61 0.2696281065868817 -0.01209972740667319 0.36507727472555995
73 0.05022370793958833 0.6546987293743102 -1.41687132614676
71 0.08250725196609705 0.19368880472321082 -0.16955313920683793
72 0.11479079599260573 -0.26732111992788865 1.0777650477330842
62 0.029820795784804136 -0.03593242935700753 -0.31710546053972893
63 -0.4396762289545925 0.32678086631920045 -0.7221865670973765
64 0.49931782052420104 -0.3986457250332157 0.08797564601791846
65 -0.2355393102642971 0.026553308148702104 -0.25223505770279137
66 -0.5056800123608212 -0.5215916056605837 -0.6160400784556654
94 0.40972222315755347 -0.5214920462504316 0.06729836020584243
50 -0.06991347278624559 0.3149323757941677 -0.1250191079056871
51 0.40729188169091624 0.15670040058935222 0.09952536524787983
52 -0.5471188272634073 0.47316435099898335 -0.3495635810592541
56 -0.09520828641371105 0.03198674409693884 0.06009003331511848
57 -0.33703104668288064 0.00450099582551184 -0.21088932800473725
70 0.23742399639632622 0.9712559850367894 -0.7179635175045607
77 -0.17723330170909524 0.029837059274252762 -0.005250824638934782
78 0.37605650604451635 -0.10646205906807601 0.19856891338699045
79 -0.7305231094627067 0.1661361776165813 -0.20907056266486007
81 -0.7863598713237532 -0.05022572580737755 -0.16540715705496706
80 -0.24755046954157653 -0.04753565604831617 0.09378150255759413
93 -0.20718782302556682 -0.29608161264034616 0.004873382431881915
92 0.10126720006599334 -0.40878682944538886 0.03608587131886215
91 -0.1370215124928107 0.06066176711676946 0.1314171309794227
89 0.1346031695767733 0.1238475057950183 0.16253418812236867
74 0.19889635448475607 0.38302900260207434 -0.03708784975027903
75 -0.008594681765158624 0.29990423886967993 -0.3052814245071301
86 0.21682923564925294 -0.19858443009890953 -0.0500347598824522
88 -0.012328758574359167 -0.012225062282433419 0.27542271373990046
90 0.4062278516463575 0.1870332444732671 0.19365124526531452
82 0.2912589322405998 -0.04484558628925507 0.3529701621701555
85 0.2822352703751888 -0.4057601983448487 0.9595273778616132
95 0.4137163259411144 0.12518548444298358 -0.07364078126311574
97 0.7837353766045657 -0.11144500772029095 0.4002684652371655
101 -0.04192798158775622 0.04102262523026039 0.0069632513732192525
102 -0.3065076500601127 -0.5720521619685179 -0.5061598959133136
127 -0.18890330172273803 -0.22686743271823376 -0.33472506464872276
96 0.043697275277663095 0.3618159766062584 -0.5475500277633967
110 -0.15056160887817857 -0.020148159452419996 0.018125532944959614
111 -0.023603196906823276 -0.0036730364478812644 0.18202752790632362
109 -0.3413296379965927 0.16091053796572224 -1.0247397288301028
98 -0.4237956596713545 -0.12399334120184803 -0.05569171921245279
99 0.07931815468513687 -0.4108863404291962 0.039309814596086845
100 -0.9269094740278461 0.16289965802550005 -0.15069325302099246
115 -0.3637049980632399 -0.8134778847434363 1.0433736164402603
113 0.09227363442137056 -0.1306484712562643 0.24025881905517663
104 -0.18826554402083379 0.2205752707920912 0.3098307656265025
105 -0.3114747151903126 0.7499134043712902 -0.07499537639660597
6 0.1760029749142882 -0.04115294718043168 0.3360968267270527
107 -0.12809150957686594 0.09029081972676925 -0.31946537006766235
8 0.6491531192815885 -0.1264048383613656 0.30655483652166765
9 -0.113308330220037 -0.2894132593504891 0.18455728899782833
10 0.07236029110725437 0.36495087140486426 0.5613158475948684
108 0.08514661884286082 0.01967110148781627 0.3858089886947781
125 0.1489247508593617 -0.08829601716001789 -0.1675832990032213
119 -0.27238570198152157 0.16412710568256678 0.031002956029272513
120 -0.2684767111579163 0.21481065752408773 0.13653494835980898
121 -0.2762946928051268 0.11344355384104579 -0.07452903630126395
151 0.28901228137508284 0.5666531927251449 -1.0057779835300649
126 0.48675280344146155 0.050275398398197974 -0.00044153335771976443
130 -0.28556819010198436 -0.5095206419197571 0.16194285333892816
128 0.12611369072924708 0.40344930842031873 -0.26219263179562974
129 0.5377955715604787 1.3164192587603942 -0.6863281169301877
122 -0.23369661265914715 0.2906911322860644 0.30870769306493345
123 -0.7626370982970158 0.25753172420425674 1.0495750682338114
124 0.29524387297872157 0.3238505403678721 -0.4321596821039444
144 -0.4910035610215654 -0.5240410698161384 0.4076601921286347
116 -0.11685211975511176 -0.11283794272896948 0.3731387666068846
117 -0.8254594292509198 0.4808204275320415 1.1811247351032406
118 0.5917551897406962 -0.7064963129899804 -0.43484720188947135
103 0.2226516868846002 0.6540974124290384 0.520086398659752
7 0.09710018928485928 -0.12436678850780475 0.2860127057107444
140 0.3789566597410651 0.18625684718742183 -0.20476569559306948
141 0.6531307133344006 0.04147775998940284 -0.06327081339455712
133 0.41217816161593446 -0.29016416115248894 0.8187173217519136
137 0.2623813695218183 -0.1291048879206839 0.06456631223908858
138 0.1691796718421544 -0.9567008649210804 0.6958087981245956
139 0.35558306720148214 0.6984910890797127 -0.5666761736464184
142 0.10478260614772955 0.3310359343854409 -0.34626057779158187
112 -0.27752002084953387 -0.036623282456958735 -0.14577646201640443
132 -1.3418604775748937 0.619931046312927 -1.8801396603868503
14 0.47094229014613265 -0.07323684600356797 0.1290503904422505
134 -0.11341930581586739 0.06532846366123218 -0.06368539083273092
135 0.020401819379338867 0.10065670323710735 -0.13414990929152903
136 -0.24724043101107362 0.030000224085357012 0.006779127626067194
131 -0.46484115797947967 0.1648834425802191 -0.5307111693174684
13 -0.7510244179881675 0.20848369095218597 0.08497256790478173
15 0.03696187672995222 -0.2881202311222078 -0.06082163766675333
146 -0.3136609385328882 0.09848752976965848 -0.06617745910628184
147 -0.5059746117617089 0.002141900812791947 -0.13637502079891745
148 -0.12134726530406742 0.194833158726525 0.0040201025863537965
157 0.28997972149882445 -0.1730061751529057 0.5048147783713826
16 -0.17299197163520746 0.09011726778102996 0.33217413203630125
18 -0.2535505685342343 0.1821385173425984 -0.1949945792314035
19 0.002722043647827438 -0.09893706261960586 0.6475787184408324
20 -0.5032622155015071 0.43358704574158335 0.589023970526745
149 0.06900109153778934 0.524488942811226 -0.2593627848862719
84 -0.03859042070594991 0.5190677250365499 -0.3201765405336693
155 1.3827190329275455e-05 -0.07106232220840937 0.16648138745440566
156 -0.28995206711816573 0.03088153073608682 -0.1718520034625713
143 -0.23033842310500927 -0.12563918437221278 0.08795643800760694
145 0.030326714811546723 0.27276270107171274 -0.23174731611342073
152 0.15839929773867945 0.036181314378096754 0.0012762965202302817
154 0.642829431462335 -0.1883340692692956 0.7060909434607423
153 -0.3260308359849764 0.2606966980254893 -0.7035383504202821
17 0.07328985196572746 -0.16796037154844976 0.28038201197204393
160 -0.49778476391881415 0.0486830768749561 0.18827784631408392
159 0.09098195738812476 -0.2473532417174006 -0.26604601531202
158 -0.20340140326534475 -0.09933508242122224 -0.038884084498968
21 -0.1903014626948367 0.10619154135633704 0.028559537811782398
22 -0.2187870787182118 0.183976620695388 0.043532601132632034
23 -0.575762466777234 0.28305086454879375 0.30498754410670414
24 0.1427742214586046 0.3973419099296208 -0.24772473007701093
25 -0.11166257234648991 -0.42612272495976267 0.01399343700003499
83 0.12182242483461944 0.05665376334585057 0.3196754186639719
11 -0.01851332321238485 0.14770552064164402 0.1711943425452336
12 0.1704517729722618 0.7625342908570354 0.5422239586721956
150 -0.15101009829950407 0.48232469289730734 0.487052413757521

Bonds

1 1 35 36
2 1 35 37
3 1 29 30
4 1 29 31
5 1 1 2
6 1 1 3
7 1 1 4
8 1 1 5
9 1 26 27
10 1 26 28
11 1 32 33
12 1 32 34
13 1 41 42
14 1 41 43
15 1 38 39
16 1 38 40
17 1 44 45
18 1 44 46
19 1 47 48
20 1 47 49
21 1 68 69
22 1 68 70
23 1 53 54
24 1 53 55
25 1 59 60
26 1 59 61
27 1 71 72
28 1 71 73
29 1 62 63
30 1 62 64
31 1 65 66
32 1 65 67
33 1 50 51
34 1 50 52
35 1 56 57
36 1 56 58
37 1 77 78
38 1 77 79
39 1 80 81
40 1 80 82
41 1 92 93
42 1 92 94
43 1 89 90
44 1 89 91
45 1 74 75
46 1 74 76
47 1 86 87
48 1 86 88
49 1 95 96
50 1 95 97
51 1 101 102
52 1 101 103
53 1 110 111
54 1 110 112
55 1 98 99
56 1 98 100
57 1 113 114
58 1 113 115
59 1 104 105
60 1 104 106
61 1 6 7
62 1 6 8
63 1 6 9
64 1 6 10
65 1 107 108
66 1 107 109
67 1 125 126
68 1 125 127
69 1 119 120
70 1 119 121
71 1 128 129
72 1 128 130
73 1 122 123
74 1 122 124
75 1 116 117
76 1 116 118
77 1 140 141
78 1 140 142
79 1 137 138
80 1 137 139
81 1 134 135
82 1 134 136
83 1 131 132
84 1 131 133
85 1 146 147
86 1 146 148
87 1 16 17
88 1 16 18
89 1 16 19
90 1 16 20
91 1 149 150
92 1 149 151
93 1 155 156
94 1 155 157
95 1 143 144
96 1 143 145
97 1 152 153
98 1 152 154
99 1 158 159
100 1 158 160
101 1 21 22
102 1 21 23
103 1 21 24
104 1 21 25
105 1 83 84
106 1 83 85
107 1 11 12
108 1 11 13
109 1 11 14
110 1 11 15
