LAMMPS data file via write_data, version 4 Feb 2025, timestep = 100000, units = lj

4590 atoms
4 atom types
3090 bonds
1 bond types

-11.911732 11.911732 xlo xhi
-11.911732 11.911732 ylo yhi
-11.911732 11.911732 zlo zhi
0 0 0 xy xz yz

Masses

1 1
2 1
3 1
4 1

Bond Coeffs # zero

1 0

Atoms # bond

232 48 2 -11.454204203274239 -11.267216578792585 -11.052595712794185 1 0 0
1385 432 4 -10.87188532688758 -10.786895080353371 -11.48623548430076 1 0 0
233 48 4 -11.036139769587482 -11.037451071723861 -11.202426123183772 1 0 0
234 48 4 -11.872268636960994 -11.496982085861308 -10.9027653024046 1 0 0
1384 432 2 -10.38491421009309 -10.779204133549758 -11.599375794525438 1 0 0
1386 432 4 -9.897943093298599 -10.771513186746144 -11.712516104750119 1 0 0
2930 947 4 -9.501623718423229 -10.817972904241095 -11.609971420268707 1 0 0
2929 947 2 -9.11796071500479 -10.790714522644588 -11.290500338573478 1 0 0
2931 947 4 -8.734297711586356 -10.763456141048083 -10.971029256878252 1 0 0
2618 843 4 -8.396167474161247 -10.995361578408213 -10.972766868619688 1 0 0
2617 843 2 -7.932961553059606 -10.807474206275751 -10.985257497325904 1 0 0
2619 843 4 -7.469755631957963 -10.61958683414329 -10.997748126032118 1 0 0
2442 784 4 -7.09808039046041 -10.749018405709036 -11.056850534062912 1 0 0
2440 784 2 -6.672219522604027 -10.489520057486729 -11.020446827330426 1 0 0
2598 836 4 -11.604065363360396 -9.667451031145008 -10.485191597170056 1 0 0
786 232 4 -11.200625143816618 -9.676490583571525 -10.509447499269017 1 0 1
1531 481 2 -9.362528792685975 -9.393551172687415 -10.5212800750558 1 0 0
1533 481 4 -8.877599069861319 -9.349034103862373 -10.634707197094274 1 0 0
2441 784 4 -6.246358654747643 -10.230021709264422 -10.98404312059794 1 0 0
2517 809 4 -5.832450896590032 -10.209441391873883 -10.97006922269428 1 0 0
2515 809 2 -5.346796040938279 -10.121117113657483 -10.890402655022443 1 0 0
2516 809 4 -4.861141185286528 -10.032792835441082 -10.810736087350609 1 0 0
3078 996 4 -4.498584765000264 -10.122562397682314 -10.663271566968545 1 1 0
2747 886 4 -6.101860265120598 -7.507145087408921 -11.810732149899449 2 0 0
2794 902 2 -5.036738755963454 -7.859959749338506 -11.0543649739574 3 0 0
2796 902 4 -4.97381140440676 -7.663431953186311 -10.598931722236022 3 0 0
2795 902 4 -5.099666107520152 -8.0564875454907 -11.509798225678777 3 0 0
524 145 4 -7.237804192305532 -6.29963681355257 -10.742636951765189 2 0 0
523 145 2 -6.817299834884778 -6.526993601243802 -10.889149255208727 2 0 0
525 145 4 -6.39679547746403 -6.754350388935033 -11.035661558652263 2 0 0
2660 857 4 -5.984260428453772 -6.9067150555936525 -11.06376683878414 3 0 0
2659 857 2 -5.568175298555515 -6.855568570859293 -11.336276394595881 3 0 0
2661 857 4 -5.1520901686572556 -6.804422086124932 -11.608785950407626 3 0 0
4130 1347 4 -4.774173599227014 -6.710414223791416 -11.738270398179688 3 1 1
4129 1347 2 -4.308889500493018 -6.568007025591865 -11.853353625123972 3 1 1
3936 1282 4 -11.825225793425437 -4.0384048826996 -11.800421644745832 4 0 0
2741 884 4 -5.222670439637858 -1.905633913809961 -11.227133283846328 5 0 0
2740 884 2 -5.066877126240306 -2.0517871492862785 -11.679198678570737 5 0 0
2580 830 4 -5.162944551051388 -2.237062261724576 -10.926414025817968 5 0 0
2578 830 2 -4.911683631050088 -1.978641747892885 -10.57985988338316 5 0 0
4091 1334 4 -3.0924964426785486 -2.195071621204834 -11.48542049719131 5 0 1
66 14 1 -3.035160405168119 -1.4964835069579756 -11.862138158257864 4 0 0
70 14 3 -2.9124349875629783 -1.89058240856688 -11.669745713288885 4 0 0
4090 1334 2 -2.8012032225273042 -2.292105209195883 -11.09079777919828 5 0 1
4092 1334 4 -2.509910002376044 -2.389138797186936 -10.69617506120525 5 0 1
3539 1150 4 -4.241079307370896 -1.0659208500309933 -10.598053042069175 5 0 0
3538 1150 2 -3.8782150285041634 -1.1086474562750155 -10.939375252642602 5 0 0
3540 1150 4 -3.515350749637431 -1.1513740625190376 -11.280697463216029 5 0 0
67 14 3 -3.2174949280395744 -1.2216684611283082 -11.541481348029176 4 0 0
1420 444 2 -0.9665823292899702 -0.02979142079135144 -11.33496131653689 5 0 0
1422 444 4 -1.3290882117280418 -0.13851214796956413 -11.661729079546411 5 0 0
2900 937 4 -11.68053693085541 -10.499236153070601 -9.294311830402366 1 0 0
4341 1417 4 -9.464243441821148 -10.722852974316586 -9.200341956484062 9 1 1
4339 1417 2 -8.967008774696879 -10.775302689379608 -9.20156556122016 9 1 1
4524 1478 4 -8.08137760134305 -10.72604899626776 -9.150605883096553 6 1 1
4340 1417 4 -8.469774107572608 -10.827752404442622 -9.202789165956256 9 1 1
4125 1345 4 -8.208620225976881 -11.085117868207124 -9.074341278778293 9 1 1
4033 1315 2 -6.733184370487009 -11.858593216372057 -8.963929809039337 8 1 1
4035 1315 4 -6.3028080606470045 -11.859250579204028 -9.218440600989458 8 1 1
3339 1083 4 -5.946054319776261 -11.693140358318136 -9.284547337340136 3 0 1
3337 1083 2 -5.485493200717174 -11.498459910595916 -9.28359289746907 3 0 1
3338 1083 4 -5.02493208165809 -11.303779462873695 -9.282638457598 3 0 1
3582 1164 4 -4.665651344107928 -11.172400133349534 -9.41581585367718 1 1 1
3580 1164 2 -4.172565657036591 -11.090377743967238 -9.403694731959192 1 1 1
3581 1164 4 -3.679479969965257 -11.008355354584944 -9.3915736102412 1 1 1
4256 1389 4 -3.3804256305448597 -11.17607732273786 -9.60662460443308 1 1 1
4255 1389 2 -2.880611462310169 -11.164096178737115 -9.600033163949096 1 1 1
4257 1389 4 -2.3807972940754674 -11.152115034736369 -9.593441723465112 1 1 1
2681 864 4 -1.9693087034494088 -11.226280162638796 -9.609965924941289 1 0 0
2680 864 2 -1.5509488613897027 -10.960121877717812 -9.545490509478164 1 0 0
2682 864 4 -1.1325890193300001 -10.693963592796829 -9.481015094015039 1 0 0
1010 307 4 -0.7506238779853387 -10.783619967343224 -9.622205592239062 0 0 1
1009 307 2 -0.35416986807041795 -11.023050267920508 -9.810562604302342 0 0 1
784 232 2 -10.72469450478318 -9.558149550379357 -10.411996532225563 1 0 1
3426 1112 4 -11.683809163453573 -10.121730811840614 -9.072307157467232 1 0 1
1844 585 4 -10.744898751827098 -9.360862722123185 -9.321154519187107 2 0 0
785 232 4 -10.248763865749744 -9.439808517187187 -10.314545565182108 1 0 1
1532 481 4 -9.847458515510631 -9.438068241512456 -10.407852953017326 1 0 0
1843 585 2 -10.412530177061825 -9.004740654824696 -9.433990130499327 2 0 0
1425 445 4 -8.536280019579419 -9.37019320663679 -10.41399754300186 1 1 0
1423 445 2 -8.054135269028999 -9.303591414730269 -10.299511460320714 1 1 0
4522 1478 2 -7.794411277016127 -10.391524609003609 -9.38674770776084 6 1 1
1424 445 4 -7.571990518478575 -9.236989622823748 -10.185025377639569 1 1 0
4523 1478 4 -7.507444952689204 -10.057000221739457 -9.622889532425127 6 1 1
2073 661 4 -7.12660052665158 -9.884964367454776 -9.589455073135003 3 1 1
2071 661 2 -6.66949997629968 -10.070074399481406 -9.671774206930518 3 1 1
558 156 4 -7.192505715318405 -9.088823098903683 -10.056256009512152 1 0 0
556 156 2 -6.732206664347309 -8.987896129182197 -9.889079989480155 1 0 0
2072 661 4 -6.212399425947784 -10.255184431508038 -9.754093340726035 3 1 1
1530 480 4 -5.866444651169013 -8.983197995933095 -9.70855047957774 1 1 0
3076 996 2 -4.068389678885961 -10.087274238380706 -10.410902848933931 1 1 0
4409 1440 4 -3.4225765924960747 -9.928799478056384 -9.825354221300968 1 1 0
3077 996 4 -3.638194592771658 -10.051986079079098 -10.158534130899316 1 1 0
4408 1440 2 -3.2822107102052556 -9.99581467418892 -9.350165310233681 1 1 0
810 240 4 -9.849017423793375 -8.444848801759575 -9.306444174944529 2 0 0
1845 585 4 -10.080161602296553 -8.648618587526204 -9.546825741811544 2 0 0
808 240 2 -9.36740121295737 -8.344394610635591 -9.39568798099093 2 0 0
809 240 4 -8.885785002121366 -8.243940419511606 -9.484931787037333 2 0 0
627 179 4 -8.565368582362211 -8.01147153974233 -9.517575915575865 2 0 0
625 179 2 -8.07286201473801 -8.080880634711708 -9.466460150425847 2 0 0
626 179 4 -7.580355447113809 -8.150289729681084 -9.415344385275832 2 0 0
557 156 4 -6.271907613376214 -8.88696915946071 -9.721903969448155 1 0 0
282 64 4 -7.3019843983448744 -7.848036339886888 -9.389006585565348 2 0 0
280 64 2 -6.848131984684168 -7.710911568690725 -9.547837408869833 2 0 0
281 64 4 -6.394279571023461 -7.57378679749456 -9.70666823217432 2 0 0
347 86 4 -6.120766526184272 -7.71601096820046 -9.960998478756812 2 0 0
346 86 2 -5.650528020186933 -7.654227292983981 -10.119315677850786 2 0 0
1528 480 2 -5.4257203288995655 -8.763883563015753 -9.620900138824517 1 1 0
1529 480 4 -4.984996006630119 -8.544569130098413 -9.533249798071294 1 1 0
1793 568 4 -4.581835425772677 -8.540942432872967 -9.538380281113874 1 1 0
348 86 4 -5.180289514189589 -7.592443617767504 -10.27763287694476 2 0 0
1792 568 2 -4.099229655214982 -8.47341982178917 -9.42640312035494 1 1 0
1794 568 4 -3.6166238846572814 -8.405897210705373 -9.314425959596011 1 1 0
4266 1392 4 -3.2199846718165652 -8.488873754012893 -9.195324121621065 1 1 1
4264 1392 2 -2.754579888288186 -8.368541228429722 -9.057738979699655 1 1 1
3292 1068 2 -6.259063074199858 -6.350898214819182 -9.53730069230483 3 0 1
3294 1068 4 -6.435418241485086 -6.271338143395496 -9.076251623574214 3 0 1
3293 1068 4 -6.082707906914625 -6.430458286242869 -9.998349761035445 3 0 1
486 132 4 -4.8268202825968 -7.393804321012555 -10.320357763938873 2 0 0
2909 940 4 -5.708647203558827 -6.309800499712164 -10.132869909039208 3 0 0
2908 940 2 -5.231784641277635 -6.252872514925247 -9.993705507788794 3 0 0
2910 940 4 -4.754922078996442 -6.195944530138324 -9.854541106538388 3 0 0
398 103 4 -4.4450344909116115 -6.28987321559481 -9.623983171827797 2 0 0
484 132 2 -4.457411452553118 -7.198988615929392 -10.045406222231803 2 0 0
485 132 4 -4.088002622509436 -7.004172910846231 -9.770454680524733 2 0 0
397 103 2 -3.9532783592148153 -6.229046979042964 -9.557034996471351 2 0 0
399 103 4 -3.461522227518026 -6.168220742491119 -9.490086821114906 2 0 0
3615 1175 4 -3.1727451826342215 -6.224622086351534 -9.765768038459617 3 0 0
3613 1175 2 -2.698856579746449 -6.115453563674555 -9.649483162683138 3 0 0
3614 1175 4 -2.224967976858677 -6.00628504099758 -9.53319828690666 3 0 0
2507 806 4 -1.9346068900191487 -6.287843133172325 -9.42850955070048 3 0 0
2506 806 2 -1.5137206219661365 -6.230454291149363 -9.164755686316397 3 0 0
906 272 4 -0.7362532565576405 -6.196434859064884 -9.07185323865683 2 0 0
904 272 2 -0.37393293570208286 -6.115794058364415 -9.406856059320003 2 0 0
905 272 4 -0.011612614846521652 -6.035153257663944 -9.741858879983175 2 0 0
749 220 4 -10.57318463006624 -3.7525078729902006 -9.205412154519955 4 0 0
2686 866 2 -4.838176116102153 -3.413324004800794 -9.445237182642272 4 0 0
2688 866 4 -5.309360757617592 -3.276989167677641 -9.542113381084134 4 0 0
2687 866 4 -4.3669914745867215 -3.54965884192395 -9.348360984200418 4 0 0
2690 867 4 -4.087499519809796 -3.7473876624693006 -9.131724700155555 4 0 0
263 58 4 -0.8917358138828604 -3.973728741666539 -9.961556377658265 3 0 0
2403 771 4 -0.8770303935627002 -4.007713811028791 -9.560652141945146 3 0 0
262 58 2 -0.45038186552248405 -4.14413722045704 -10.12327403359669 3 0 0
2401 771 2 -0.7879416972941442 -4.125637232307808 -9.08299623059981 3 0 0
264 58 4 -0.00902791716210416 -4.314545699247539 -10.284991689535119 3 0 0
687 199 4 -11.450661272651969 -2.3548304324226237 -9.457805916795122 4 0 0
483 131 4 -11.13769686911175 -2.0471526736266785 -9.473295398627295 4 0 0
481 131 2 -10.86905024616901 -2.0818630492837613 -9.053030819076108 4 0 0
2579 830 4 -4.660422711048792 -1.7202212340611904 -10.23330574094835 5 0 0
4484 1465 4 -4.435947169150324 -1.81217507087681 -9.92820090038534 5 0 1
4483 1465 2 -3.957424853494291 -1.6999921134800484 -9.836319924264819 5 0 1
4485 1465 4 -3.4789025378382537 -1.5878091560832868 -9.744438948144298 5 0 1
3569 1160 4 -3.0690136824176744 -1.5630470913620567 -9.784926187810033 5 0 0
3568 1160 2 -2.796569284211719 -1.8761916100909133 -10.063668894264039 5 0 0
3570 1160 4 -2.5241248860057652 -2.1893361288197806 -10.342411600718046 5 0 0
874 262 2 -6.07606244990268 -0.9651640615251083 -9.342935412409885 4 0 1
876 262 4 -6.505730139523243 -0.903357443874869 -9.0948219157773 4 0 1
3086 999 4 -6.892484930083264 -0.8776932863102456 -8.979965795823768 5 0 1
875 262 4 -5.646394760282116 -1.0269706791753421 -9.591048909042469 4 0 1
3429 1113 4 -5.455592575569357 -0.9369811176777656 -9.943059008629993 5 0 1
3428 1113 4 -4.531717170970794 -1.0231761509789887 -10.315897748899689 5 0 1
3427 1113 2 -4.993654873270076 -0.9800786343283772 -10.12947837876484 5 0 1
2528 813 4 -0.6170348288623018 -0.1451983008611233 -9.657744844239788 5 0 0
2527 813 2 -0.21513506863318987 -0.20938911296602214 -9.367312472294326 5 0 0
4123 1345 2 -7.866703337084022 -11.380122178426653 -8.859760003313635 9 1 1
4124 1345 4 -7.5247864481911595 -11.675126488646182 -8.645178727848977 9 1 1
4034 1315 4 -7.16356068032702 -11.857935853540083 -8.709419017089216 8 1 1
4383 1431 4 -3.567344208685496 -10.79762726455119 -8.021691913393488 1 1 0
3425 1112 4 -10.741561053453621 -10.186504802160508 -8.743733539075855 1 0 1
3424 1112 2 -11.212685108453597 -10.154117807000562 -8.908020348271544 1 0 1
4381 1431 2 -3.4824750050530664 -10.394668242985698 -8.305290367818115 1 1 0
4382 1431 4 -3.397605801420637 -9.991709221420201 -8.588888822242742 1 1 0
4410 1440 4 -3.141844827914438 -10.062829870321455 -8.874976399166396 1 1 0
2712 874 4 -4.468931367011895 -7.551604786141303 -7.496609415853394 3 0 0
4265 1392 4 -2.2891751047597992 -8.248208702846552 -8.920153837778246 1 1 1
4134 1348 4 -1.9085526400252188 -8.136262348695537 -8.856759333829674 1 1 1
4132 1348 2 -1.4253004981670951 -8.070836487655315 -8.746336747863726 1 1 1
4133 1348 4 -0.9420483563089732 -8.005410626615094 -8.635914161897778 1 1 1
672 194 4 -0.60462947260317 -8.066807856968284 -8.431531053881274 1 0 0
670 194 2 -0.12734707037322046 -7.996009391907231 -8.562663978765606 1 0 0
3930 1280 4 -6.2217345567417315 -6.255499720620821 -8.737551151407638 3 0 0
3928 1280 2 -5.812989684353807 -6.2055081615573 -8.453944804417919 3 0 0
3929 1280 4 -5.404244811965881 -6.15551660249378 -8.1703384574282 3 0 0
3676 1196 2 -4.673760074519704 -6.10710434553552 -7.78392203237137 3 1 0
3677 1196 4 -5.166680030225859 -6.16758741442133 -7.842039828869452 3 1 0
1339 417 2 -3.6120701384302443 -7.440508620834008 -7.515976465575093 2 1 0
3678 1196 4 -4.18084011881355 -6.04662127664971 -7.725804235873287 3 1 0
1355 422 4 -3.52328309435949 -6.540754657855404 -8.732715780365892 2 0 0
1354 422 2 -3.061171178141823 -6.614606372904765 -8.55667125341965 2 0 0
1340 417 4 -3.1236554190466403 -7.442296472242239 -7.62297034780355 2 1 0
35 7 3 -2.747537360116832 -7.34847152223126 -7.697694043476879 2 0 0
1356 422 4 -2.599059261924161 -6.688458087954123 -8.380626726473405 2 0 0
33 7 3 -2.6057952924238066 -6.666931434125183 -7.984628897556379 2 0 0
31 7 1 -2.4957496435856967 -6.971671273074545 -7.652489050893046 2 0 0
34 7 3 -2.044948432138966 -7.0783987295043085 -7.67852546990375 2 0 0
1710 540 4 -1.6492318505342727 -6.993285884011628 -7.605209571310348 2 0 0
1708 540 2 -1.153358229591861 -6.973321733150013 -7.666142031203436 2 0 0
2508 806 4 -1.0928343539131262 -6.173065449126399 -8.901001821932317 3 0 0
1709 540 4 -0.6574846086494492 -6.9533575822883975 -7.727074491096523 2 0 0
1307 406 4 -0.2499620931330817 -6.946862516094163 -7.765783162229384 2 1 0
606 172 4 -0.7675855361549644 -6.187651071848026 -8.661472022271651 2 0 0
604 172 2 -0.46747304731294825 -6.005695809804261 -8.305332024891973 2 0 0
2877 929 4 -5.986275997990558 -4.565501480090591 -8.108121184875507 4 0 0
3325 1079 2 -6.3358294757436076 -4.485401138570242 -7.4492437658677275 4 0 1
2875 929 2 -5.492667645841888 -4.6042086958744095 -8.17775397082466 4 0 0
2876 929 4 -4.999059293693218 -4.6429159116582275 -8.24738675677381 4 0 0
2775 895 4 -4.693275379346085 -4.493592796511606 -8.066625611430378 4 0 0
3720 1210 4 -3.830095587140015 -5.830131378122395 -7.703743028659604 3 1 0
3718 1210 2 -3.3760668710007415 -5.6293677550010655 -7.7634935319144684 3 1 0
3719 1210 4 -2.922038154861472 -5.428604131879733 -7.823244035169333 3 1 0
430 114 2 -2.1004579943494672 -5.361360925795208 -7.650372577363537 2 0 0
431 114 4 -2.5711897760574463 -5.529913429632509 -7.646187907666146 2 0 0
432 114 4 -1.6297262126414829 -5.192808421957909 -7.654557247060928 2 0 0
605 172 4 -0.1673605584709339 -5.8237405477604955 -7.9491920275122965 2 0 0
1776 562 4 -0.6265892970872304 -4.505880560467447 -8.310187509388703 3 0 0
748 220 2 -10.19146686846652 -3.799331960599025 -8.885888320417362 4 0 0
750 220 4 -9.809749106866802 -3.846156048207849 -8.566364486314768 4 0 0
2424 778 4 -9.51155971186061 -3.859431260033567 -8.299871672862153 4 0 0
2422 778 2 -9.127796309306222 -3.751252858800717 -7.998157590937611 4 0 0
2423 778 4 -8.744032906751837 -3.6430744575678666 -7.696443509013066 4 0 0
3071 994 4 -8.435574897876364 -3.3861534396074138 -7.660400112335012 4 0 0
3070 994 2 -7.957670148653802 -3.3312450951747223 -7.5240279284287395 4 0 0
3326 1079 4 -6.325326463603056 -4.387760200339046 -7.9395050624498325 4 0 1
229 47 2 -6.046511352235495 -3.165846840385843 -7.7322889498347935 4 0 0
2773 895 2 -4.5540205778825715 -4.241466171715923 -7.657911424411036 4 0 0
231 47 4 -5.769533396423217 -3.0075636291797387 -8.117306358513229 4 0 0
2689 867 2 -3.874470307437157 -3.4878948370306997 -8.761193887052476 4 0 0
2691 867 4 -3.6614410950645215 -3.2284020115921024 -8.390663073949408 4 0 0
2917 943 2 -3.0886069669982117 -3.292587684639157 -8.018802856504578 4 0 0
2919 943 4 -3.588027377796985 -3.311582649332788 -8.0336467739377 4 0 0
2918 943 4 -2.5891865561994383 -3.273592719945519 -8.003958939071461 4 0 0
804 238 4 -2.4450706526151915 -3.1295318685416067 -7.685412623598998 3 0 0
802 238 2 -2.000886280126357 -3.1412468997242193 -7.456148669709086 3 0 0
2863 925 2 -0.9069116817323923 -3.2222998310580113 -7.617409293404505 4 0 0
2865 925 4 -0.5628328372274556 -3.4988285983447085 -7.852191233345873 4 0 0
2402 771 4 -0.6988530010255882 -4.243560653586826 -8.605340319254475 3 0 0
1774 562 2 -0.7651651605136269 -4.3744501064980135 -7.848106214533833 3 0 0
1812 574 4 -11.241619061292544 -2.8697485768694317 -7.6782120332844555 4 0 0
1810 574 2 -11.018343885443054 -2.6148154506554206 -8.045864968001348 4 0 0
482 131 4 -10.600403623226267 -2.1165734249408423 -8.632766239524921 4 0 0
1811 574 4 -10.795068709593563 -2.3598823244414096 -8.413517902718244 4 0 0
3047 986 4 -10.404579711494655 -2.263783271970345 -8.297303354653028 4 0 1
3046 986 2 -9.983581309558023 -2.1253158583438374 -8.065789252166608 4 0 1
3048 986 4 -9.56258290762139 -1.9868484447173262 -7.834275149680191 4 0 1
521 144 4 -10.57744483615654 -0.029344794764645243 -7.9223986708525675 5 0 0
3268 1060 2 -8.273539570580656 -0.9412423509132442 -7.702660449207598 5 0 1
3269 1060 4 -7.850560238483197 -0.9346592094523967 -7.969204448901511 5 0 1
3087 999 4 -7.476275373180283 -0.8179403514619512 -8.170267500993731 5 0 1
3085 999 2 -7.184380151631774 -0.8478168188861002 -8.57511664840875 5 0 1
3119 1010 4 -5.864310561886198 -9.072393944069404 -7.364124026406875 2 0 1
3118 1010 2 -5.407659989240753 -8.87314070927532 -7.321855830918291 2 0 1
2711 874 4 -5.2769027122246195 -7.6982990702926015 -6.925919660336063 3 0 0
1467 459 4 -5.360464677565893 -7.543148198766603 -6.574302995874677 2 1 0
2710 874 2 -4.872917039618261 -7.6249519282169524 -7.21126453809473 3 0 0
3120 1010 4 -4.951009416595308 -8.673887474481239 -7.279587635429705 2 0 1
1230 380 4 -4.670544351652727 -8.486656368058517 -7.044045697982103 1 0 1
1228 380 2 -4.180423764221649 -8.543734515266934 -7.124781686357356 1 0 1
1229 380 4 -3.6903031767905645 -8.600812662475349 -7.205517674732612 1 0 1
3374 1095 4 -3.4194476104471363 -8.322651283837578 -7.2131713712116685 2 0 1
3373 1095 2 -2.921912196765293 -8.273621788739927 -7.2054577792551715 2 0 1
3375 1095 4 -2.4243767830834475 -8.224592293642276 -7.1977441872986745 2 0 1
2840 917 4 -2.022768050871081 -8.225479581196907 -7.1452764952630705 2 0 0
2839 917 2 -1.5388420523003052 -8.174246048489554 -7.030403906474005 2 0 0
2841 917 4 -1.054916053729528 -8.123012515782197 -6.915531317684941 2 0 0
2904 938 4 -0.6736239299446112 -8.107627794455487 -7.012670633479923 2 0 0
2902 938 2 -0.17461795401392344 -8.080201948092313 -7.0282781977327184 2 0 0
616 176 2 -11.763600002566461 -7.156023118915597 -6.285878748012727 3 0 0
617 176 4 -11.302192999881163 -7.264248156007203 -6.126564806550526 3 0 0
407 106 4 -7.820291398203939 -6.408619396198614 -6.034483036278519 3 0 0
406 106 2 -7.63669061969252 -6.106821481154255 -6.388347210447728 3 0 0
3149 1020 4 -6.519023301957563 -6.5422394285676 -6.62124968658039 3 0 0
3148 1020 2 -6.022682287204323 -6.52748673455171 -6.562688440317786 3 0 0
1465 459 2 -5.268710343058088 -7.294069273096734 -6.150575015821692 2 1 0
3150 1020 4 -5.526341272451085 -6.512734040535819 -6.504127194055187 3 0 0
3345 1085 4 -5.408683161246098 -6.188928868183156 -6.705869016607318 3 0 0
3343 1085 2 -4.927419512419946 -6.310104748537776 -6.645123295092925 3 0 0
1341 417 4 -4.100484857813834 -7.438720769425776 -7.408982583346635 2 1 0
3344 1085 4 -4.446155863593798 -6.431280628892398 -6.58437757357853 3 0 0
425 112 4 -4.311260060472343 -6.05814533785044 -6.687010514803365 2 0 0
424 112 2 -3.9240935068090925 -6.01978134873111 -6.372951229478432 2 0 0
693 201 4 -3.127157771360947 -6.863723685637214 -6.15954686558801 2 0 0
426 112 4 -3.536926953145848 -5.981417359611778 -6.058891944153499 2 0 0
691 201 2 -2.8420986921417395 -6.9542699953719245 -6.56021820828266 2 0 0
692 201 4 -2.557039612922532 -7.044816305106636 -6.960889550977312 2 0 0
32 7 3 -2.5800553690117702 -6.781427574782527 -7.242249277306933 2 0 0
3611 1174 4 -0.8254029936929097 -6.34969715163954 -6.2623494978536955 3 1 0
2837 916 4 -0.6907390663443813 -6.733207618747521 -6.279978639288584 3 0 0
2836 916 2 -0.2286579825417263 -6.716343823587658 -6.470236997552811 3 0 0
532 148 2 -11.883490841422134 -5.5991166119988085 -5.963875328762221 3 0 0
547 153 2 -11.839746010486808 -5.56491381518593 -7.416921053395965 3 0 0
549 153 4 -11.339974745918429 -5.5769106286160675 -7.40777991315915 3 0 0
1127 346 4 -10.945317345429128 -5.647412188123278 -7.37162910223301 3 0 1
503 138 4 -11.229569977727298 -5.31588752229844 -6.1931076229769095 3 0 0
502 138 2 -10.832562181015591 -5.024131479278941 -6.2784679518467605 3 0 0
1126 346 2 -10.511291919445062 -5.406708735552021 -7.310763091811797 3 0 1
504 138 4 -10.435554384303884 -4.732375436259441 -6.363828280716613 3 0 0
2849 920 4 -10.052375497262492 -4.666765626416643 -6.304864325694601 3 0 0
1128 346 4 -10.077266493460996 -5.166005282980762 -7.249897081390583 3 0 1
2848 920 2 -9.790074960434294 -4.91127868770106 -5.9564407853564845 3 0 0
1371 427 4 -9.713617779124554 -4.985479118408477 -7.271779587635033 3 1 0
1369 427 2 -9.219705026072102 -4.985992271897574 -7.19399862367085 3 1 0
1370 427 4 -8.725792273019653 -4.98650542538667 -7.116217659706669 3 1 0
1800 570 4 -8.335148413083663 -4.8673718418449585 -7.082544428141291 3 1 0
1798 570 2 -7.940669999249252 -5.16395369236682 -7.002528260697227 3 1 0
1799 570 4 -7.546191585414839 -5.460535542888682 -6.922512093253168 3 1 0
408 106 4 -7.4530898411810975 -5.805023566109899 -6.74221138461694 3 0 0
572 161 4 -7.167927286280803 -5.563429805823884 -6.904508147808572 3 0 0
571 161 2 -6.6758113042342035 -5.502501110652603 -6.840355586844331 3 0 0
573 161 4 -6.183695322187603 -5.441572415481326 -6.776203025880088 3 0 0
3327 1079 4 -6.346332487884162 -4.583042076801437 -6.958982469285623 4 0 1
1452 454 4 -5.821038556331135 -5.2985868404223595 -6.702354402689897 3 0 0
1450 454 2 -5.334073172513952 -5.23350657575527 -6.6094264066967625 3 0 0
1451 454 4 -4.847107788696771 -5.168426311088175 -6.516498410703627 3 0 0
1841 584 4 -4.492747628143604 -4.949307665330193 -6.40893089907335 3 0 0
1840 584 2 -4.060084263689827 -4.70303362332105 -6.455544410384875 3 0 0
3454 1122 2 -8.969902734208127 -3.2426871342606045 -7.045861475402097 4 0 0
3456 1122 4 -9.271086861054672 -2.990320149105493 -6.736695138106069 4 0 0
3455 1122 4 -8.668718607361582 -3.495054119415716 -7.355027812698125 4 0 0
3072 994 4 -7.479765399431242 -3.276336750742031 -7.387655744522466 4 0 0
20 4 3 -7.030877840357588 -4.072784035354684 -6.96399669968419 4 0 0
18 4 3 -7.14767206213852 -3.3908889292125206 -7.261086317553871 4 0 0
17 4 3 -6.918992409519338 -3.462815161922048 -6.548745848493794 4 0 0
16 4 1 -6.88555366260255 -3.6412305577572983 -6.971414280266987 4 0 0
230 47 4 -6.32348930804777 -3.3241300515919487 -7.347271541156358 4 0 0
609 173 4 -6.799129458733078 -3.0819037246754633 -6.4521047015478965 4 0 0
19 4 3 -6.441766055653072 -3.6258723800440524 -7.106017584262864 4 0 0
1742 551 4 -6.146466528459141 -4.287943481835316 -6.732690577799605 3 0 0
3515 1142 4 -7.1818923117681415 -3.0025791058541333 -7.366551928467813 4 0 0
1741 551 2 -5.723138190705013 -4.034960450955489 -6.650142877175918 3 0 0
3605 1172 4 -4.9494132853252495 -3.6779856255056025 -6.50026812173482 4 0 0
1743 551 4 -5.29980985295089 -3.7819774200756626 -6.567595176552238 3 0 0
3604 1172 2 -4.467140577659903 -3.6238250903378653 -6.379914908767343 4 0 0
2774 895 4 -4.414765776419055 -3.9893395469202426 -7.249197237391696 4 0 0
1842 584 4 -3.6274208992360464 -4.456759581311904 -6.502157921696401 3 0 0
3606 1172 4 -3.984867869994549 -3.569664555170135 -6.259561695799865 4 0 0
13 3 3 -3.5883343240814316 -3.5372455322832366 -6.219207198196414 3 0 0
371 94 4 -3.302231910458522 -4.227888664325508 -6.59138391099359 3 0 0
370 94 2 -2.815063403473566 -4.127758343226382 -6.539900704352549 3 0 0
372 94 4 -2.32789489648861 -4.027628022127257 -6.4884174977115086 3 0 0
803 238 4 -1.55670190763753 -3.152961930906832 -7.226884715819177 3 0 0
615 175 4 -1.9286678849971164 -3.943233913651916 -6.5403749755794305 3 0 0
613 175 2 -1.6012796960398106 -4.034275028721622 -6.907148104171926 3 0 0
614 175 4 -1.2738915070825083 -4.125316143791332 -7.27392123276442 3 0 0
1775 562 4 -0.9037410239400234 -4.24301965252858 -7.386024919678965 3 0 0
742 218 2 -11.587687292743068 -2.406049223459487 -6.253506948439687 4 0 0
1544 485 4 -10.867982445250869 -2.051668053608047 -6.050732836086873 4 0 0
744 218 4 -11.105031152538595 -2.366209611320407 -6.129169900950709 4 0 0
1543 485 2 -10.491184811882706 -1.8257972461427787 -6.289527607448529 4 0 0
1344 418 4 -9.456826693242093 -2.037749472693516 -7.431412541610424 4 0 0
1342 418 2 -8.971250263949091 -2.123654688314595 -7.34878396022815 4 0 0
1545 485 4 -10.11438717851454 -1.599926438677512 -6.528322378810184 4 0 0
1718 543 4 -8.426522307532995 -2.1580427932210746 -6.870578046381956 4 0 0
1343 418 4 -8.485673834656088 -2.209559903935668 -7.266155378845879 4 0 0
1717 543 2 -8.495656786757355 -2.1503528889287438 -6.375440507079268 4 0 0
607 173 2 -6.668475507282827 -2.774641507959176 -6.079911870868342 4 0 0
3516 1142 4 -6.609742208015596 -2.2040297559592794 -7.179323281616477 4 0 0
3514 1142 2 -6.89581725989187 -2.6033044309067073 -7.272937605042145 4 0 0
1941 617 4 -6.240266244599168 -1.9567362914007802 -7.069428393030747 4 1 1
1939 617 2 -5.925160983030496 -1.5684934326612332 -7.070217529109632 4 1 1
2425 779 2 -5.115100401242427 -2.724030820067945 -6.066518176392538 4 0 0
2427 779 4 -5.296849773887597 -2.3266867934041215 -6.309562297970633 4 0 0
911 274 4 -1.5711972669628071 -2.954527355647718 -5.999915270283871 3 0 0
3506 1139 4 -1.9591001052279164 -2.8781637040513015 -6.091398017314476 4 0 0
2864 925 4 -1.2509905262373344 -2.9457710637713177 -7.382627353463143 4 0 0
912 274 4 -1.343407682552062 -2.933489065198817 -6.9733988366699595 3 0 0
910 274 2 -1.457302474757432 -2.94400821042327 -6.486657053476913 3 0 0
1268 393 4 -9.804097012337092 -1.4134478969550237 -6.730379569647438 4 0 0
1267 393 2 -9.42538425594562 -1.2092013455320458 -6.985086193266994 4 0 0
1269 393 4 -9.046671499554147 -1.0049547941090697 -7.239792816886554 4 0 0
3270 1060 4 -8.696518902678115 -0.9478254923740899 -7.436116449513689 5 0 1
2497 803 2 -8.105839773786329 -0.02461018386031455 -6.030239192659828 6 0 0
2498 803 4 -7.606914651755041 -0.011106668876037062 -6.060117698907383 6 0 0
2499 803 4 -8.604764895817613 -0.03811369884459204 -6.000360686412275 6 0 0
1940 617 4 -5.610055721461825 -1.1802505739216897 -7.071006665188519 4 1 1
1505 472 4 -9.750260680637918 -10.644411892423207 -4.569368282285745 1 1 0
3740 1217 4 -9.360832012818763 -10.584184390485577 -4.600064527781776 1 1 0
2463 791 4 -11.848812792453202 -6.084508344602218 -4.738120972568388 3 0 0
2519 810 4 -11.328645235992166 -6.8899267198362235 -4.469331166300991 3 0 0
2520 810 4 -10.441392001317066 -6.926270742466584 -4.929172835025954 3 0 0
2518 810 2 -10.885018618654618 -6.908098731151404 -4.699252000663473 3 0 0
2461 791 2 -11.390358405020775 -5.9643766446892394 -4.897491497309695 3 0 0
2552 821 4 -6.502194887339206 -6.069402464554773 -5.610645504933223 3 0 0
2551 821 2 -6.022739033763114 -6.090022214765498 -5.470306867641929 3 0 0
584 165 4 -6.1666189896214085 -7.1867716269631625 -4.920923450329331 2 0 0
2553 821 4 -5.5432831801870215 -6.110641964976224 -5.329968230350637 3 0 0
585 165 4 -5.25060229264956 -7.118296919420968 -5.31619192876481 2 0 0
583 165 2 -5.708610641135484 -7.152534273192065 -5.118557689547072 2 0 0
1466 459 4 -5.176956008550283 -7.044990347426864 -5.726847035768707 2 1 0
331 81 2 -4.526411821350067 -6.911187506562524 -5.35937904279161 2 0 0
332 81 4 -5.0113057466004705 -6.808214210543369 -5.4246813798891065 2 0 0
29 6 3 -3.8010720682605843 -6.7464183277828855 -5.450814970445638 2 0 0
333 81 4 -4.041517896099665 -7.014160802581678 -5.294076705694115 2 0 0
27 6 3 -3.1600885465955066 -6.968830491531758 -5.77414829902252 2 0 0
30 6 3 -3.1365994511719304 -6.569884068334338 -5.1438373548052905 2 0 0
26 6 1 -3.3601026324927297 -6.629856958056476 -5.536077410419146 2 0 0
28 6 3 -3.3450168703815404 -6.240488074943218 -5.788000942296539 2 0 0
396 102 4 -2.744218660628098 -6.554984738721144 -5.1115349589044925 2 0 0
394 102 2 -2.2999118434393857 -6.509519474345006 -5.336320194227524 2 0 0