LAMMPS data file via write_data, version 19 Nov 2024, timestep = 10000, units = lj

14 atoms
4 atom types
10 bonds
1 bond types
9 angles
2 angle types

-1.220522 1.220522 xlo xhi
-1.220522 1.220522 ylo yhi
-1.220522 1.220522 zlo zhi

Masses

1 1
2 1
3 0.1
4 0.1

Bond Coeffs # harmonic/omp

1 100 0.45

Angle Coeffs # harmonic/omp

1 100 180
2 100 109.471

Atoms # full

10 3 4 0 -0.9587751257798436 -0.7631920451047016 -0.29190433679249855 1 0 0
3 1 3 0 -1.079315890321724 -0.12276003613332405 -1.0636655109591082 0 0 0
5 1 3 0 -0.35784326323892524 -0.0478248524374247 -1.2005492037499281 0 0 0
4 1 3 0 -0.7817466869030147 -0.35398756399220693 0.748010054800416 0 0 -1
6 2 2 0 -0.9096749803209516 -1.2016172672761392 0.7976112647801952 0 1 0
8 2 4 0 -0.8998035809369437 -0.7362526513715265 0.8427110904798958 0 1 0
1 1 1 0 -0.7585245941289862 -0.04177646541599469 1.0612846257499091 0 0 -1
7 2 4 0 -0.9284227518124708 0.7713264192149133 0.7592350840031195 0 0 0
2 1 3 0 -0.836227965755937 0.3835844864533622 0.8696259115041823 0 0 -1
9 3 2 0 1.1051316845482944 -0.5267891473235748 -0.3705265350529546 0 0 0
11 3 4 0 0.7266318204640453 -0.2848145441165074 -0.4501834836236005 0 0 0
14 4 4 0 0.032091001355342805 -0.19793820488733757 -1.2164420248981656 0 0 0
13 4 4 0 0.9473938461010013 -0.20064648664995063 1.2013429872710657 0 0 -1
12 4 2 0 0.4978414008354617 -0.2005176367935365 1.2129797933749336 0 0 -1

Velocities

10 -0.12829218352827457 -0.18367681283392695 0.1453073843126092
3 1.0518779263047784 0.4330940469274837 -0.9096636399699265
5 -0.51979826968511 -0.2574484272233969 0.008959579467622242
4 0.4701910658556603 -0.06917296704921072 0.6094963750202643
6 -0.005802069692509786 -0.3095034666849322 -0.21671838479096556
8 -0.8164555971450266 -0.9060176713050364 -1.139469538082215
1 0.3890250971714484 -0.24754683244200432 -0.18390492775528527
7 1.1652448654926442 0.7608324126441318 -0.048530593227843456
2 -0.05098002108059062 -0.1801448588811375 0.054108152018806324
9 0.1592460431501339 0.007437055395874159 0.19524740179094713
11 1.4074482660654377 0.8065075484711556 0.6451097885388035
14 0.6371588491662233 -0.15973286799823022 0.09125369259198449
13 0.3399272044913939 -1.6946217323471056 1.3829121063170744
12 -0.22005145832784248 -0.21412086649079018 0.22681815445672177

Bonds

1 1 6 7
2 1 6 8
3 1 1 2
4 1 1 3
5 1 1 4
6 1 1 5
7 1 9 10
8 1 9 11
9 1 12 13
10 1 12 14

Angles

1 1 7 6 8
2 2 2 1 3
3 2 2 1 4
4 2 2 1 5
5 2 3 1 4
6 2 3 1 5
7 2 4 1 5
8 1 10 9 11
9 1 13 12 14
