LAMMPS data file via write_data, version 27 Jun 2024, timestep = 1500000, units = lj

1600 atoms
4 atom types
1100 bonds
1 bond types

-8 8 xlo xhi
-8 8 ylo yhi
-8 8 zlo zhi

Masses

1 1
2 1
3 0.5
4 0.5

Bond Coeffs # zero

1 0

Atoms # bond

396 99 4 -5.99060811107754 -6.815176268391911 -7.272149477664835 0 0 0
346 82 4 -6.036484092606953 -7.073165466047819 -6.972403441819763 0 0 0
395 99 2 -6.35933917194886 -6.513039310281381 -7.1213162475978935 0 0 0
344 82 2 -5.907266407733008 -7.518097810161026 -6.784419402396878 0 0 0
1057 319 4 -4.087354963346069 -7.043210582874346 -7.378970560857586 1 0 0
1055 319 2 -3.6628571830218495 -7.294339517650525 -7.4610430447848595 1 0 0
331 77 4 -2.949240476818786 -7.81188352605673 -7.658465936938287 0 0 0
262 54 4 -4.461686836949824 -6.916475577916926 -7.2896343241806925 0 0 0
397 99 4 -6.72807023282018 -6.2109023521708515 -6.970483017530952 0 0 0
358 86 4 -6.776580351632175 -6.283446310893062 -6.580894548272859 0 0 0
287 63 2 -7.769238694947281 -0.23770118799348552 -1.6173150474717657 1 0 0
18 4 3 -7.505223422370359 -3.8224054543270727 -6.926518005402294 0 0 0
355 85 4 -6.9415013804342305 -4.351710259137364 -7.944532340285065 0 0 0
353 85 2 -7.185832941744271 -4.042958033868905 -7.636353574729142 0 0 0
16 4 1 -7.383480401644523 -3.408538730669584 -6.755658495998911 0 0 0
17 4 3 -7.526629779511889 -3.0804424677662134 -7.044554840532772 0 0 0
354 85 4 -7.4301645030543115 -3.7342058086004446 -7.32817480917322 0 0 0
20 4 3 -7.577732736543141 -3.34521509546786 -6.348649715244399 0 0 0
376 92 4 -7.544502451846622 -3.089635478080965 -7.440789720548004 0 0 0
588 163 4 -5.557190736507856 -2.935741260244571 -6.527827850141385 0 1 0
367 89 4 -5.882809873996792 -2.967363026015495 -6.763540019695131 0 0 0
366 89 4 -6.654126433090972 -3.5788508700129475 -6.9400432273443515 0 0 0
19 4 3 -6.9218445534787625 -3.382920111314352 -6.716466276992947 0 0 0
566 156 2 -6.7287961451514215 -1.6718941751410807 -7.514522305688131 0 0 0
587 163 2 -5.1440535473622395 -3.2111965967876968 -6.58649658555278 0 1 0
365 89 2 -6.268468153543882 -3.273106948014221 -6.851791623519741 0 0 0
589 163 4 -4.730916358216623 -3.4866519333308226 -6.645165320964175 0 1 0
690 197 4 -4.345041996187874 -3.550769104128746 -6.700613394517825 0 1 0
1015 305 4 -4.91279455886024 -0.28438611896451016 -1.8875358949350982 0 0 0
1106 336 2 -0.26029287522077854 -2.580806512059363 -7.88777480875388 0 0 1
288 63 4 -7.994166040985538 -0.5192643736212335 -1.96391259723711 1 0 0
792 231 4 -7.321340280069264 -1.2322490361007734 -7.3556092038648595 0 0 1
568 156 4 -7.08879550081729 -1.35019628457313 -7.644564341677615 0 0 0
791 231 2 -7.4726543814567 -0.9980161809522112 -6.940592321930805 0 0 1
357 86 4 -6.829043216245655 -6.157678203437616 -5.590223043189754 0 0 0
280 60 4 -7.796127444396568 -5.349884229454691 -5.926389291923436 0 0 0
356 86 2 -6.802811783938915 -6.220562257165339 -6.085558795731306 0 0 0
30 6 3 -7.02100778572479 -6.289205831899724 -5.259394076186885 0 0 0
278 60 2 -7.328298591786728 -5.176168699165093 -5.895420288033015 0 0 0
26 6 1 -6.7513219312713355 -6.263974730070356 -4.89328899371986 0 0 0
933 278 4 -6.815075448114024 -4.614382650125676 -5.758744192367663 1 0 0
27 6 3 -6.736357581201883 -5.828499230284052 -4.745853728898762 0 0 0
279 60 4 -6.860469739176889 -5.002453168875494 -5.864451284142594 0 0 0
310 70 4 -5.044799748270606 -5.997348936396364 -4.608136113735254 0 0 0
308 70 2 -5.495764889459363 -6.159254727203471 -4.751024029024579 0 0 0
28 6 3 -6.321580154830683 -6.399859740371986 -5.003549002594151 0 0 0
932 278 2 -6.482807929894805 -4.543447706922575 -5.3919110829443 1 0 0
112 23 3 -4.818179908985631 -5.743571249259053 -4.832603732169299 0 1 0
111 23 1 -4.529897427027568 -5.471076624014006 -4.599709142690153 0 1 0
114 23 3 -4.415045254930282 -5.110213682394354 -4.86782649746255 0 1 0
1033 311 4 -4.442873473312311 -4.779689529143693 -5.036097269439071 1 0 0
934 278 4 -6.1505404116755855 -4.472512763719474 -5.025077973520936 1 0 0
1192 364 4 -6.095723392910121 -4.4796847525882155 -4.639370176523463 1 0 0
1190 364 2 -5.690658767770144 -4.191496340360019 -4.692943383610603 1 0 0
1191 364 4 -5.285594142630168 -3.903307928131823 -4.746516590697744 1 0 0
1305 402 4 -5.39969772459091 -3.5230997435117533 -4.759643487875148 1 0 0
689 197 2 -4.17734934751376 -3.757404074848088 -6.277315432726751 0 1 0
691 197 4 -4.009656698839647 -3.96403904556743 -5.854017470935677 0 1 0
1032 311 4 -3.841496729449931 -4.1596473364446 -5.539975916748505 1 0 0
1031 311 2 -4.142185101381121 -4.469668432794147 -5.288036593093787 1 0 0
1435 445 4 -7.9683702576183375 -3.3074993561048376 -6.3266455461907 0 0 0
1304 402 2 -5.413803327598093 -3.101275843387375 -4.4915658326189485 1 0 0
895 265 4 -7.066253027776803 -6.744915065399162 -3.2335422062289574 0 1 0
893 265 2 -7.063261005244591 -6.727715270032629 -3.733237328118812 0 1 0
913 271 4 -7.096148765134604 -6.401741447806246 -2.9952811353283297 1 0 0
260 54 2 -4.564416080567058 -6.742640304683728 -7.7470487973729725 0 0 0
309 70 4 -5.946730030648121 -6.321160518010577 -4.8939119443139045 0 0 0
35 7 3 -2.03610629502294 -7.641456312447362 -3.77311288876308 0 0 0
31 7 1 -1.7977729410175427 -7.311270856682447 -3.569213950144329 0 0 0
33 7 3 -2.056369675102324 -6.927555743271375 -3.534711184159356 0 0 0
871 257 4 -1.9542020868825276 -6.533906130746174 -3.47551679791264 0 1 0
34 7 3 -1.4124624186745565 -7.22135259243118 -3.8115989891335667 0 0 0
869 257 2 -2.327062651385985 -6.2227489444699176 -3.594496648588315 0 1 0
32 7 3 -1.6789284100779556 -7.4489895533736865 -3.1467100589818733 0 0 0
1342 414 4 -1.1295163476579977 -7.185920846117824 -4.109218958992313 0 1 0
1340 414 2 -0.8104935147400273 -7.561097352197415 -4.195630887352369 0 1 0
325 75 4 -1.4454723039230468 -7.754278888202976 -3.3013586387086375 0 0 0
1341 414 4 -0.4914706818220569 -7.936273858277007 -4.282042815712424 0 1 0
188 38 3 -7.811963248824024 -0.7132789812651659 -6.16516501685244 1 0 0
894 265 4 -7.06026898271238 -6.710515474666096 -4.232932450008667 0 1 0
412 104 4 -6.866405998808128 -5.490935803683188 -4.595341255577086 0 0 0
29 6 3 -6.919858608228491 -6.5315828817913015 -4.553758044242881 0 0 0
410 104 2 -6.493604103943307 -5.371717795912394 -4.284204928851385 0 0 0
411 104 4 -6.1208022090784855 -5.2524997881416 -3.9730686021256845 0 0 0
403 101 4 -5.9421019864812505 -4.8938076588943975 -3.9193039075241156 0 0 0
401 101 2 -5.4557408268698095 -5.0092390296260145 -3.930636209692422 0 0 0
402 101 4 -4.9693796672583685 -5.1246704003576316 -3.941968511860728 0 0 0
115 23 3 -4.735570931955976 -5.323994808741887 -4.2209409431449405 0 1 0
113 23 3 -4.150091351504368 -5.713804618658394 -4.489570749694892 0 1 0
457 119 4 -4.0062562259859575 -5.778229458272711 -4.112331560700555 0 0 0
455 119 2 -3.559172700262764 -5.877662485428476 -3.9117588952210345 0 0 0
456 119 4 -3.1120891745395705 -5.977095512584241 -3.7111862297415144 0 0 0
870 257 4 -2.6999232158894424 -5.911591758193661 -3.71347649926399 0 1 0
515 139 2 -7.109410615205652 -3.8690407917579166 -4.006553273204066 0 0 1
516 139 4 -7.591267246925433 -3.736015537866321 -4.0174375873645385 0 0 1
45 9 3 -7.761784300696086 -3.3751059950518716 -3.962108500532872 0 0 1
41 9 1 -7.754819540806694 -3.070219106839068 -3.623884495595913 0 0 1
517 139 4 -6.627553983485871 -4.002066045649513 -3.9956689590435928 0 0 1
976 292 4 -0.44437122712446553 -4.542722967482416 -4.126078254264858 0 0 0
987 296 4 -0.6446233563562511 -4.423877202923844 -3.773088745166183 0 0 0
986 296 2 -0.9304325711424087 -4.461583578192149 -3.3645654018827846 0 0 0
404 102 2 -6.79101323503358 -2.2840904293133577 -3.7652917236717256 0 0 0
406 102 4 -7.088903766992527 -2.667950511813656 -3.6473397502584763 0 0 0
405 102 4 -6.493122703074633 -1.9002303468130595 -3.883243697084975 0 0 0
567 156 4 -6.368796789485553 -1.9935920657090316 -7.384480269698647 0 0 0
42 9 3 -7.467790456712759 -2.728097357905604 -3.734188683145185 0 0 1
1569 490 4 -6.109263156969487 -1.8389078873416858 -3.9256136047114802 0 0 1
1306 402 4 -5.427908930605277 -2.6794519432629964 -4.223488177362749 1 0 0
1568 490 2 -5.704820463823076 -2.0773052160945094 -4.09763924699773 0 0 1
1570 490 4 -5.300377770676665 -2.315702544847333 -4.2696648892839795 0 0 1
676 192 4 -1.5368431798399718 -0.5224654724917167 -3.0766733874479795 0 0 0
323 75 2 -1.1430437394594817 -7.899156345963154 -2.9304846902713613 0 0 0
861 254 4 -1.2738670587743341 -7.961664553168639 -0.399603072728839 0 1 0
823 241 4 -6.114873090885501 -2.1728710689840933 -7.62182604181301 0 0 1
911 271 2 -7.407272236659019 -6.066491473414568 -2.7932671750756386 1 0 0
912 271 4 -7.718395708183435 -5.73124149902289 -2.5912532148229475 1 0 0
484 128 4 -7.5921594697060035 -5.756728176617569 -2.192557559500405 0 0 0
286 62 4 -7.2507117329336905 -0.04192097920535845 -1.031053666533543 1 0 0
523 141 4 -3.588161594714493 -5.249839814344487 -1.4709850638692945 0 0 0
43 9 3 -7.605829390810294 -3.270849528870554 -3.232924946589218 0 0 1
522 141 4 -3.0324258320128417 -4.448733365422463 -1.6932151688280075 0 0 0
521 141 2 -3.3102937133636674 -4.849286589883475 -1.582100116348651 0 0 0
1318 406 4 -1.8192065287877015 -4.141031158983174 -1.893179988171791 0 0 0
54 11 3 -2.8500101211932196 -4.253183922991483 -1.3920322501378373 0 0 0
52 11 3 -2.2266220871440843 -4.2157564461856945 -1.810226634347269 0 0 0
51 11 1 -2.4286208463341414 -4.062039993404968 -1.4266021390003374 0 0 0
53 11 3 -2.4657271855809597 -3.600183823082618 -1.4513407226880197 0 0 0
1405 435 4 -2.1739349036386675 -3.418049968068731 -1.6553937067608162 0 0 0
1316 406 2 -1.660104903981751 -4.179138240943167 -2.3656569963834087 0 0 0
1403 435 2 -2.1405591268686717 -3.10395779020187 -2.042991644484757 0 0 0
988 296 4 -1.2162417859285664 -4.499289953460455 -2.9560420585993863 0 0 0
1317 406 4 -1.5010032791758006 -4.2172453229031595 -2.8381340045950263 0 0 0
1404 435 4 -2.107183350098676 -2.789865612335009 -2.4305895822086976 0 0 0
904 268 4 -1.7292851453982918 -2.6358102784086146 -2.3786409054858844 0 0 0
902 268 2 -1.460355992381768 -2.217177922082505 -2.427875658401523 0 0 0
903 268 4 -1.191426839365244 -1.7985455657563953 -2.4771104113171614 0 0 0
1300 400 4 -1.3780508578580477 -1.524111013234711 -2.7069258530478373 0 0 0
348 83 4 -6.815230279889683 -1.0174621563711932 -1.9032932379159322 0 0 0
347 83 2 -6.3268079986097625 -1.0383359459232204 -2.0082120639628163 0 0 0
349 83 4 -5.838385717329842 -1.0592097354752477 -2.1131308900097006 0 0 0
1287 396 4 -5.659801950117541 -0.9131172411608675 -2.445958574350457 1 1 0
1286 396 2 -5.251871205674244 -0.7872793686456044 -2.1856561779366506 1 1 0
1299 400 4 -1.8869778204270502 -0.712009177485776 -2.992379798796534 0 0 0
1298 400 2 -1.632514339142549 -1.1180600953602435 -2.8496528259221856 0 0 0
374 92 2 -7.399898349046234 -2.980228657171002 -7.906750878791554 0 0 0
793 231 4 -7.623968482844137 -0.763783325803649 -6.525575439996751 0 0 1
284 62 2 -7.182475980048495 -0.2358311267637502 -0.5752656273068941 1 0 0
747 216 4 -4.269296443382397 -7.479160855220296 -1.3177101516403638 0 1 0
746 216 2 -3.8375472779142967 -7.282520711150608 -1.1598326299412591 0 1 0
748 216 4 -3.4057981124461962 -7.0858805670809195 -1.0019551082421545 0 1 0
706 202 4 -3.191207775087319 -7.1709996244809195 -0.6736764612749404 0 1 0
860 254 2 -1.5662625840852107 -7.575629264786517 -0.5240282024330465 0 1 0
862 254 4 -1.8586581093960872 -7.189593976404396 -0.648453332137254 0 1 0
704 202 2 -2.6986232422278746 -7.236628306257873 -0.6184192977948809 0 1 0
705 202 4 -2.20603870936843 -7.302256988034826 -0.5631621343148214 0 1 0
285 62 4 -7.114240227163299 -0.42974127432214193 -0.11947758808024517 1 0 0
1056 319 4 -3.23835940269763 -7.545468452426704 -7.543115528712133 1 0 0
345 82 4 -5.778048722859063 -7.963030154274233 -6.596435362973994 0 0 0
674 192 2 -1.5586635099263604 -0.0497386007809453 -3.2380833560294415 0 0 0
55 11 3 -2.175159016155855 -4.178503298371898 -1.0666113068408871 0 0 0
1181 361 2 -1.9603215096948967 -3.9111712273178347 -0.3087871783418512 0 0 0
1288 396 4 -4.843940461230948 -0.6614414961303414 -1.925353781522844 1 1 0
1183 361 4 -1.9916698985158399 -4.207495719319185 -0.7102956763322084 0 0 0
1314 405 4 -2.713801780805185 -2.519816503023542 -0.09139829549235819 1 1 0
920 274 2 -7.284539813165968 -1.2702754095816877 -0.2093404556321733 1 0 0
1016 306 2 -7.9104077957786085 -2.0209060545167765 -1.0299583959335714 1 0 0
1017 306 4 -7.5824099090068415 -1.9513764198739014 -0.6590365494757451 1 0 0
921 274 4 -7.486432091811348 -1.7042170226834719 -0.3540269589488205 1 0 0
1222 374 4 -2.996322293844481 -1.4563275657606676 -0.008332062235463303 1 0 1
922 274 4 -7.082647534520588 -0.8363337964799036 -0.06465395231552609 1 0 0
1313 405 2 -2.4425629991664475 -2.939546292668199 -0.07538495667795166 1 1 0
1315 405 4 -2.1713242175277103 -3.3592760823128573 -0.05937161786354476 1 1 0
132 27 3 -0.8607124874993473 -7.8054921437697224 6.780599078017961 0 0 -1
398 100 2 -1.6887736938387676 -7.905627216170581 7.858369170829283 0 0 -1
866 256 2 -7.662854242565969 -4.5784824937531345 1.4068847398595083 0 1 0
154 31 3 -0.051063383069383295 -2.1833861170252433 3.4955182842188783 0 0 0
538 146 4 -2.945641859462016 -5.804782466490705 1.3892469650854464 0 0 0
536 146 2 -2.8386660994223285 -6.238297199303187 1.6142384386982342 0 0 0
1228 376 4 -3.259200042159603 -5.6387128632151216 1.1999572241622827 0 0 0
1226 376 2 -2.9343164562839865 -5.2723395357614065 1.0988570730293914 0 0 0
454 118 4 -2.435831898662036 -4.769762636233494 1.3081968762400011 0 0 0
1227 376 4 -2.6094328704083702 -4.9059662083076905 0.9977569218965003 0 0 0
452 118 2 -1.9805664110078764 -4.834393339000926 1.5045542239782717 0 0 0
826 242 4 -7.539237949901107 -4.117441637367526 1.9475251417643997 0 1 0
1011 304 4 -2.41719110472245 -0.690795321376761 0.7225649774684896 0 0 0
1012 304 4 -3.088153641673501 -1.3400609142131554 0.3644260882550804 0 0 0
1010 304 2 -2.7526723731979756 -1.0154281177949582 0.543495532861785 0 0 0
477 126 4 -2.6545085240570545 -6.9969697142436456 2.058556760296557 0 0 0
537 146 4 -2.731690339382641 -6.671811932115668 1.839229912311022 0 0 0
476 126 2 -2.3233956334147003 -7.370989555347897 2.036798724750691 0 0 0
478 126 4 -1.9922827427723462 -7.745009396452148 2.015040689204825 0 0 0
453 118 4 -1.5253009233537165 -4.899024041768358 1.7009115717165422 0 0 0
868 256 4 -7.324809009240347 -4.394582701259675 1.7261123804965444 0 1 0
824 242 2 -7.27320998521799 -3.6942682720301914 1.9351386622147797 0 1 0
825 242 4 -7.007182020534874 -3.271094906692857 1.9227521826651597 0 1 0
92 19 3 -7.0812232886818105 -3.0314021053257534 2.2318609089382058 0 0 0
94 19 3 -6.803906478650207 -3.200645032189342 2.909616188209818 0 0 0
1398 433 4 -7.1428392163459815 -3.052460969973445 3.0981303865536374 0 0 -1
1513 471 4 -5.124507838638481 -3.821348919063785 2.2822592064369416 1 1 0
1537 479 4 -5.328098616713219 -3.461190748355767 2.2836997048111067 1 0 0
1535 479 2 -5.798859460436996 -3.3041570229665607 2.2226698997412493 1 0 0
1511 471 2 -4.692728573823269 -3.699134656186255 2.06173632684179 1 1 0
1512 471 4 -4.260949309008057 -3.576920393308725 1.8412134472466382 1 1 0
500 134 2 -0.7752457576831366 -4.4818370833100065 1.542892290465273 0 0 0
502 134 4 -1.2505385973794243 -4.615697210937155 1.6214937075331766 0 0 0
501 134 4 -0.299952917986849 -4.347976955682858 1.4642908733973696 0 0 0
95 19 3 -6.378193181809824 -2.8457265571330725 2.400007451081986 0 0 0
91 19 1 -6.7999317932003 -2.8882891436751144 2.566515618717342 0 0 0
93 19 3 -6.950193979977582 -2.478398573635276 2.7237129336350154 0 0 0
1188 363 4 -7.216976199788614 -2.246959222769298 2.8873062296973537 1 0 0
1187 363 2 -7.492846014768752 -2.0385420425119256 3.2484961024186005 1 0 0
1536 479 4 -6.269620304160774 -3.1471232975773544 2.161640094671392 1 0 0
1436 446 2 -5.5267916226487 -0.5358108422077587 2.5807986116007493 1 0 -1
1438 446 4 -5.428348924719039 -0.9355022896216689 2.864622116773423 1 0 -1
991 297 4 -7.958564555952659 -2.9458112112639565 6.160450780720199 1 0 -1
1437 446 4 -5.625234320578361 -0.13611939479384844 2.2969751064280755 1 0 -1
1416 439 4 -5.225831528692554 -7.212924157504336 4.591283400178741 1 1 -1
264 55 4 -2.568010979165992 -6.594522290055998 3.638628228609154 0 0 0
265 55 4 -2.980576480606735 -7.436931194156764 3.2920204599242973 0 0 0
433 111 4 -3.1646608313592943 -7.742042727931952 3.4842375569745845 0 0 0
263 55 2 -2.7742937298863635 -7.015726742106381 3.4653243442667256 0 0 0
296 66 2 -2.0422352766383893 -6.065796298333007 3.447187688393341 0 0 -1
297 66 4 -2.194080372051761 -6.471256065780766 3.697278559838328 0 0 -1
1044 315 4 -1.5906996847085546 -5.482621100190934 3.4075435156902794 1 0 0
298 66 4 -1.8903901812250177 -5.660336530885248 3.197096816948354 0 0 -1
1043 315 2 -1.2926874390759073 -5.09366549146404 3.507053494551085 1 0 0
1045 315 4 -0.9946751934432599 -4.704709882737146 3.6065634734118905 1 0 0
1399 433 4 -7.175519188630453 -3.4509883620648716 4.014704408203985 0 0 -1
1397 433 2 -7.159179202488217 -3.2517246660191583 3.5564173973788114 0 0 -1
361 87 4 -0.6057452895964706 -4.773285146089653 3.596337232279266 0 0 0
832 244 4 -1.2250767314451982 -1.5152169231758539 7.556946929747498 0 0 0
359 87 2 -0.25920975829104725 -4.414261904538248 3.56447130111777 0 0 0
462 121 4 -7.648016909189546 -3.8063637014371206 5.1356655868750645 0 0 0
314 72 2 -7.721883104516947 -2.2178624735312398 4.369980881913029 0 0 -1
155 31 3 -0.5890102831524885 -2.554690558694479 3.869210864139427 0 0 0
151 31 1 -0.18423837989825323 -2.3495726217286457 3.907763922005498 0 0 0
153 31 3 -0.21046150161185345 -2.004392657057231 4.216735020778563 0 0 0
831 244 4 -1.7718667885944113 -0.6786140415484232 7.52353657423548 0 0 0
274 58 4 -0.468415571879351 -2.057518352169638 4.5081783622707885 0 0 -1
1189 363 4 -7.768715829748889 -1.8301248622545532 3.6096859751398473 1 0 0
316 72 4 -7.757654139619279 -2.1234117702892465 3.8802876129121158 0 0 -1
227 46 3 -5.541349529093936 -0.7346206717416809 3.717565595473979 1 0 0
891 264 4 -5.887769883395322 -0.5728399278783037 3.840681254639407 0 0 0
229 46 3 -5.512689969518379 -1.2260254818736067 3.149586773488386 1 0 0
226 46 1 -5.358964451894767 -1.1329729665873387 3.577383097257363 1 0 0
228 46 3 -5.490016102303977 -1.4689381125648397 3.8693640651531123 1 0 0
470 124 2 -5.623257714150583 -1.6217042218126505 4.6210637241700905 0 0 0
471 124 4 -5.789789331857061 -1.5756329453371518 4.151867967808227 0 0 0
230 46 3 -4.904942644134241 -1.0974937378172278 3.5750544917212186 1 0 0
644 182 2 -4.373152948858018 -1.4656640732207773 4.0847768885314935 0 0 0
646 182 4 -4.563393847818543 -1.2584737147971279 3.671399874488657 0 0 0
1329 410 4 -5.415612687055579 -7.550960640298047 4.703549960642699 1 1 -1
1415 439 2 -5.352003044400041 -6.820902747411404 4.874832271897224 1 1 -1
1231 377 4 -7.996705965014936 -3.416076889115723 7.380518433801816 1 0 0
971 291 2 -0.44307639296424234 -6.655187327024289 6.860499041327088 1 0 0
972 291 4 -0.3258274285023588 -6.172353904601871 6.80460121914706 1 0 0
929 277 2 -5.19549069350301 -6.314977454420224 5.974996360717685 1 0 -1
1417 439 4 -5.478174560107528 -6.428881337318472 5.158381143615708 1 1 -1
930 277 4 -5.345475594355041 -6.300042472648823 5.498255890612729 1 0 -1
1225 375 4 -0.2363039556274129 -5.368759560088035 6.056461976230342 0 0 0
1223 375 2 -0.09196562696183345 -5.76135958504454 5.782542887296805 0 0 0
964 288 4 -0.2830893688188511 -5.1191404734706945 5.741755121427271 0 0 -1
340 80 4 -1.2647465077141777 -3.7438302993308312 6.740535241902076 0 0 -1
962 288 2 -0.3063964722278509 -4.628835630720491 5.83692833250256 0 0 -1
339 80 4 -0.6303582210627772 -4.263323144470529 6.168102987737303 0 0 -1
338 80 2 -0.9475523643884775 -4.00357672190068 6.454319114819689 0 0 -1
963 288 4 -0.32970357563685065 -4.138530787970288 5.932101543577849 0 0 -1
77 16 3 -5.559544023357072 -1.7997356094963903 6.175983230519313 0 0 -1
78 16 3 -5.391144877632432 -1.7863737825651222 5.443615024423314 0 0 -1
80 16 3 -4.98081358327903 -1.3932541711086421 5.937563604705279 0 0 -1
76 16 1 -5.400725477827637 -1.5360275413439233 5.83417228220547 0 0 -1
318 73 4 -4.663273628312085 -1.4974100795484047 5.731827563622452 0 0 0
319 73 4 -4.168087116567502 -1.4878029490692213 4.863093990177643 0 0 0
317 73 2 -4.415680372439794 -1.492606514308813 5.2974607769000475 0 0 0
272 58 2 -0.3133963475111602 -1.9441110219160094 4.96981438504309 0 0 -1
560 154 2 -0.5662133218620535 -2.1278767455217893 6.1290015830807905 0 0 0
561 154 4 -0.3010155400925618 -2.0967651472798963 5.706269747280155 0 0 0
273 58 4 -0.15837712314296937 -1.830703691662381 5.431450407815392 0 0 -1
472 124 4 -5.456726096444105 -1.6677754982881492 5.090259480531955 0 0 0
686 196 2 -6.1511684564135996 -0.4221936896026063 5.664057979777557 0 0 -1
687 196 4 -5.95788876770092 -0.8800436928546431 5.718979163789194 0 0 -1
79 16 3 -5.683413009662872 -1.1717998888279306 5.78196139744384 0 0 -1
990 297 4 -7.767956616931453 -3.491232117356607 5.344249427634356 1 0 -1
645 182 4 -4.182912049897493 -1.6728544316444267 4.49815390257433 0 0 0
883 261 4 -0.20539098161302805 -0.23732923715380624 5.999471424931607 0 0 0
337 79 4 -0.6094261369394581 -0.18042736790429614 6.035017186049723 0 0 -1
261 54 4 -4.667145324184292 -6.5688050314505295 7.7955367294347475 0 0 -1
658 186 4 -5.357163782274808 -0.08673927709000966 1.9961704271616085 0 0 0
59 12 3 -4.58672523393915 -6.523532342660668 7.394235889564097 0 0 0
989 297 2 -7.863260586442056 -3.218521664310282 5.752350104177276 1 0 -1
399 100 4 -1.6733881412998164 -7.5314943531846055 7.527026620578053 0 0 -1
1107 336 4 -0.6729917964453518 -2.6970133380420394 7.85497905616319 0 0 0
134 27 3 -1.4252697874997384 -7.399360646341647 6.495586338279722 0 0 -1
629 177 2 -7.9773981196838655 -5.558584072952559 6.044029055015484 0 0 0
973 291 4 -0.5603253574261259 -7.138020749446707 6.916396863507116 1 0 0
135 27 3 -1.4348905640632923 -7.613963892783836 7.217218437950175 0 0 -1
133 27 3 -0.9426786315621295 -7.089604048699685 6.994341414873513 0 0 -1
131 27 1 -1.1685258291541247 -7.4767395669782095 6.874261717059682 0 0 -1
630 177 4 -7.516201671451638 -5.750421528743699 6.0663052013060925 0 0 0
489 130 4 -7.285572468743543 -5.792480177268172 6.383032867891005 0 0 0
490 130 4 -6.538085075527637 -5.844060824378416 7.045303230980716 0 0 0
488 130 2 -6.91182877213559 -5.818270500823294 6.714168049435861 0 0 0
744 215 4 -7.088201956821158 -5.009281479305493 7.116143758588563 0 1 -1
931 277 4 -5.045505792650979 -6.329912436191625 6.451736830822641 1 0 -1
801 234 4 -6.281832172697793 -6.045491070258397 7.3221906768295355 0 1 0
800 234 2 -5.842267556559503 -6.052497290559805 7.560379385874038 0 1 0
802 234 4 -5.4027029404212135 -6.059503510861214 7.79856809491854 0 1 0
58 12 3 -5.123554400198011 -6.004366327591599 7.53523622662441 0 0 0
56 12 1 -4.784079274838347 -6.1308801867206455 7.245320923974969 0 0 0
57 12 3 -4.964102352868505 -6.20377872484167 6.828334719747102 0 0 0
552 151 4 -3.47300290416612 -5.254502900578268 7.867210007751057 0 0 0
60 12 3 -4.471747008424506 -5.800557212200827 7.218204732111559 0 0 0
553 151 4 -4.073858411419396 -5.736509672832785 7.229525029957012 0 0 0
551 151 2 -3.773430657792758 -5.495506286705527 7.548367518854034 0 0 0
304 68 4 -3.2313205437118064 -5.02907676898695 7.629845643359909 0 0 -1
743 215 2 -6.86180808844836 -4.730629523595572 7.4641364365894605 0 1 -1
375 92 4 -7.255294246245846 -2.870821836261039 7.627287962964896 0 0 -1
726 209 4 -6.72847451519519 -0.03572163923316002 5.49542081958941 0 0 -1
745 215 4 -6.635414220075561 -4.451977567885651 7.812129114590358 0 1 -1
303 68 4 -2.5901773663551095 -4.328747992859487 7.316038327548489 0 0 -1
302 68 2 -2.910748955033458 -4.678912380923219 7.472941985454199 0 0 -1
333 78 4 -2.4678580255140603 -4.133197077742144 6.995037938986592 0 0 -1
332 78 2 -2.044642174392305 -3.9784168020680912 6.778401354768801 0 0 -1
334 78 4 -1.6214263232705497 -3.8236365263940377 6.561764770551009 0 0 -1
1006 302 4 -7.692948074814796 -3.1648166378378653 6.3772545072939515 1 0 -1
1005 302 4 -7.416462956046091 -2.792716778432898 7.263311883387768 1 0 -1
1004 302 2 -7.554705515430443 -2.9787667081353817 6.82028319534086 1 0 -1
1500 467 4 -0.1335674786225265 -4.717545116238251 1.4828509460616184 0 1 0
890 264 2 -6.13022635732418 -0.13570989010920806 3.852178573021237 0 0 0
600 167 4 -5.9297334282756795 -2.277238618892434 7.3548917962589755 0 0 -1
601 167 4 -5.725034528570333 -1.7491139247376677 6.530766400531266 0 0 -1
599 167 2 -5.827383978423006 -2.0131762718150505 6.94282909839512 0 0 -1
450 117 4 -0.11643174326637332 -1.8459461011465625 3.2774103113559607 0 0 0
822 241 4 -6.077035571436117 -2.637510192297524 7.493482595502554 0 0 0
201 41 1 -0.8876546641094898 -2.244323774371056 7.279185985752447 0 0 0
562 154 4 -0.8314111036315452 -2.1589883437636823 6.551733418881427 0 0 0
202 41 3 -1.0880164607599903 -1.8513101860362624 7.409552660279307 0 0 0
204 41 3 -0.639524299559456 -2.165956576696534 6.895011670477583 0 0 0
203 41 3 -1.2172457162279577 -2.559445311101945 7.193348025316492 0 0 0
205 41 3 -0.615009039861052 -2.391594730200777 7.612915860272514 0 0 0
830 244 2 -1.4984717600198048 -1.0969154823621385 7.540241751991489 0 0 0
1506 469 4 -1.920584085371155 -0.32667267161415237 7.593115159319891 0 0 0
463 121 4 -7.535016076101988 -3.6091212813143696 4.161845151976702 0 0 0
315 72 4 -7.686112069414614 -2.312313176773233 4.859674150913943 0 0 -1
461 121 2 -7.591516492645767 -3.707742491375745 4.648755369425883 0 0 0
821 241 2 -6.095954331160809 -2.4051906306408086 7.935828276844772 0 0 0
1221 374 4 -3.0945028000630823 -2.449654751411321 0.05217984110604161 1 0 1
1182 361 4 -1.9289731208739533 -3.614846735316484 0.09272131964850616 0 0 0
1220 374 2 -3.0454125469537816 -1.9529911585859943 0.021923889435289154 1 0 1
887 263 2 -7.0021108662334965 1.3142108546729399 -7.836728164072081 0 0 1
609 170 4 -0.1674423365337233 7.893469972061916 -4.4295921358663986 0 0 0
254 52 2 -4.679080850868034 0.7525801834795894 -7.780618228111836 0 0 0
289 63 4 -7.544311348909023 0.04386199763426227 -1.270717497706421 1 0 0
735 212 4 -4.338627345156326 0.5724064650529455 -7.051227351030678 0 0 0
734 212 2 -4.425531122277141 0.785473323873808 -6.6073239300094535 0 0 0
255 52 4 -4.559291540694729 0.8157035795526304 -7.29930132830838 0 0 0
531 144 4 -1.1878118420310506 1.3541794961971807 -7.423519420502124 0 0 1
532 144 4 -0.26925278436738387 0.9591431720480142 -7.409535136939802 0 0 1
530 144 2 -0.7285323131992173 1.1566613341225975 -7.416527278720963 0 0 1
889 263 4 -6.513219872555668 1.224579265391872 -7.782397928441673 0 0 1
888 263 4 -7.491001859911325 1.4038424439540078 -7.891058399702489 0 0 1
363 88 4 -7.741382534802791 1.4951840257405005 -7.604281475102628 0 0 0
547 149 4 -7.579273211572709 3.3875671633333573 -7.435726381709657 0 -1 1
1583 495 2 -7.76041890226198 2.6757707692676167 -7.894647420337498 1 0 1
1585 495 4 -7.637242526046006 3.0109410919970765 -7.544663942007833 1 0 1
545 149 2 -7.649470528194096 3.7476174136580833 -7.095967417177064 0 -1 1
761 221 2 -7.458628849804069 4.82965095731131 -6.766856318436107 1 0 1
546 149 4 -7.719667844815482 4.107667663982809 -6.756208452644472 0 -1 1
762 221 4 -7.780289532778859 4.475434528362958 -6.911994619691385 1 0 1
1422 441 4 -7.2221144495353276 5.582419395239046 -6.635395656090841 1 0 0
763 221 4 -7.136968166829279 5.183867386259663 -6.621718017180828 1 0 1
1421 441 2 -7.407174485630459 5.8705603831849515 -6.271077726109312 1 0 0
807 236 4 -6.311895256713069 5.164333207449239 -6.915146404117218 0 0 0
806 236 2 -6.286507801040737 5.034281994919424 -6.433023847899392 0 0 0
487 129 4 -6.201528209322018 5.141751842214427 -7.310795197816274 0 0 0
485 129 2 -5.968895664185277 5.230330213772193 -7.744426344109269 0 0 0
756 219 4 -7.850762412842576 2.292219672649731 -1.7710068771253302 0 0 0
603 168 4 -6.0094082262358315 7.757531787071955 -6.461966594397591 0 0 0
998 300 2 -0.538917521412332 6.013014561574433 -3.674684781742763 0 -1 0
329 77 2 -2.801987632823404 7.7700688433497564 -7.427051204281914 0 -1 0
571 157 4 -3.0158825421775215 7.121381752474077 -7.209813262483418 -1 0 0
330 77 4 -2.654734788828022 7.3520212127562425 -7.195636471625541 0 -1 0
569 157 2 -2.989661658915035 6.881985305989919 -6.77163315488873 -1 0 0
1277 393 2 -1.5866493130793693 7.554675114061222 -7.174260950022694 0 0 0
400 100 4 -1.7041592463777182 7.720239920843443 -7.810288278919487 0 -1 0
1278 393 4 -1.8958729551177447 7.805077479848249 -7.477047003883803 0 0 0
223 45 3 -0.3326417347129547 7.100478875769164 -6.7171169796293935 0 0 1
221 45 1 -0.6970217864205707 7.139284670706894 -6.432474593121681 0 0 1
222 45 3 -0.9004145978440364 6.7284518293864775 -6.394425404512054 0 0 1
224 45 3 -1.002354681282947 7.442287709433588 -6.606431432128807 0 0 1
1279 393 4 -1.277425671040994 7.304272748274196 -6.871474896161584 0 0 0
715 205 4 -0.06979502164580861 7.114667687674301 -7.046778994491821 0 0 0
394 98 4 -0.3054348161492674 7.078657730489071 -0.21363400431818952 0 -1 0
736 212 4 -4.512434899397955 0.9985401826946705 -6.163420508988229 0 0 0
729 210 4 -4.541443607023743 0.6739146569273692 -5.933729984491474 0 0 0
728 210 2 -4.389869383279717 0.9018795732230589 -5.51533154802846 0 0 0
730 210 4 -4.238295159535691 1.1298444895187485 -5.096933111565446 0 0 0
3 1 3 -4.226539411946509 1.5085353510343378 -5.211660623589781 0 0 0
1346 416 2 -7.766468611113327 2.5928816351881694 -5.911618348155319 0 0 0
1348 416 4 -7.518746573736869 2.9318190236812565 -5.640039190487535 0 0 0
252 51 4 -7.351463588183083 2.8136512202948 -5.300116705491403 0 0 0
103 21 3 -0.4518046467581376 5.410565935980878 -0.18585408336484502 0 0 0
251 51 2 -7.111704107854968 2.8093314866032895 -4.861372210946313 0 0 0
168 34 3 -1.0137982824310887 7.7631684917017125 -0.33198133688941045 0 -1 0
1 1 1 -3.988311815699233 1.9051634202241798 -5.1765353176554125 0 0 0