LAMMPS data file via write_data, version 4 Feb 2025, timestep = 10500000, units = lj

4000 atoms
4 atom types
3000 bonds
1 bond types
3500 angles
2 angle types

-10.515914 10.515914 xlo xhi
-10.515914 10.515914 ylo yhi
-10.515914 10.515914 zlo zhi
2.1316282072803006e-14 0 0 xy xz yz

Masses

1 1
2 1
3 0.1
4 0.1

Bond Coeffs # harmonic/omp

1 100 0.45

Angle Coeffs # harmonic/omp

1 100 180
2 100 109.471

Atoms # full

778 156 3 0 10.128114635440438 -8.461327535108692 -9.658677620427978 2 0 0
779 156 3 0 9.888875338576232 -7.890592883001001 -10.057612226988725 2 0 0
3478 826 4 0 -3.452471145673144 -7.595630744240608 -9.702816417092436 13 1 0
2613 538 4 0 -2.1177069480490136 -7.281018071762641 -10.122095901814085 3 0 0
1009 202 3 0 -1.9421423727040086 -7.142953428618658 -9.793343833493717 4 0 1
1158 232 3 0 1.7484044442924738 -7.498544952568899 -10.232415581627782 2 0 1
194 39 3 0 5.985392812693805 -6.906390934832996 -10.490349135003278 3 0 0
1238 248 3 0 1.371270222979101 -5.720509995648202 -10.142536771104059 5 0 1
1236 248 1 0 1.6909613452710257 -5.55136147923859 -10.402661634836972 5 0 1
3945 982 4 0 2.799237106729299 -5.882921485315106 -9.803012772793632 5 0 1
3944 982 2 0 3.248555505812808 -5.8465115704134485 -9.931472002431223 5 0 1
3946 982 4 0 3.6530518137244297 -5.800944921427523 -10.049646443169557 5 0 1
2230 446 3 0 4.005354901637082 -5.606467966420396 -10.08224160107479 13 1 1
2226 446 1 0 4.206649591509116 -5.3329222731112536 -10.381671157712288 13 1 1
2228 446 3 0 4.624139612619459 -5.468764048774095 -10.446963817203189 13 1 1
574 115 3 0 4.974004976148914 -5.804219558521701 -9.71214161656066 5 0 0
2542 514 4 0 4.981670997207429 -5.51273936662062 -10.298438676227814 4 0 0
2540 514 2 0 5.346007863892698 -5.260267004320528 -10.397490023005519 4 0 0
2930 644 2 0 -10.381542975266264 -4.399564652522505 -9.963740869991994 6 0 0
3330 777 4 0 -7.760446892771178 -5.171528477285702 -9.663146177703586 6 0 0
708 142 3 0 -7.429270060315039 -4.941090772322513 -9.729598073589035 7 0 0
1237 248 3 0 1.9389832250388839 -5.239523041095895 -10.155469121820751 5 0 1
2803 601 4 0 2.127493483180306 -5.239483810134426 -9.811897055850533 7 0 0
3921 974 4 0 4.259889253868172 -4.624545980055532 -10.000376393008084 7 0 1
2229 446 3 0 4.208780407493098 -4.941231044564145 -10.244682477741836 13 1 1
3920 974 2 0 4.637169185995964 -4.4076971063438535 -9.856570257770972 7 0 1
342 69 3 0 6.110388078170098 -5.010319330924122 -10.419314394028085 5 0 0
2541 514 4 0 5.706901456737713 -5.001435366436745 -10.487402612163722 4 0 0
341 69 1 0 6.461677789469077 -4.722097974220048 -10.493072762361336 5 0 0
344 69 3 0 6.843084088354059 -4.909661217525469 -10.337579716543061 5 0 0
3112 704 4 0 7.151289095452357 -4.698189990714243 -10.490439183046751 6 0 1
1350 270 3 0 8.788953965899308 -4.771323211058023 -10.37395200557035 5 0 0
2931 644 4 0 10.225053753364646 -4.498580133386416 -9.799409973939017 5 0 0
2932 644 4 0 -9.95444826318201 -4.298331904370491 -10.12585653382741 6 0 0
887 178 3 0 -9.670302707786924 -4.111601642223055 -10.298268344573478 5 0 0
888 178 3 0 -9.202855776343114 -3.5705176530383884 -10.390181045556991 5 0 0
886 178 1 0 -9.249193771130862 -4.021393818112852 -10.356305887192299 5 0 0
889 178 3 0 -9.006195175812922 -4.159522005081849 -9.998370605932429 5 0 0
3237 746 4 0 -8.601812840994175 -4.08599213579678 -10.004108139968139 6 0 0
3236 746 2 0 -8.153702493732462 -4.082521674564325 -10.041929156899737 6 0 0
710 142 3 0 -7.373220658077072 -4.238032402893089 -9.847802340294036 7 0 0
3238 746 4 0 -7.695712546182818 -4.089989803644865 -10.078155983270578 6 0 0
419 84 3 0 -5.197361654335425 -3.9792794606140127 -9.79000904922596 6 0 0
59 12 3 0 0.584838716428365 -4.014626718194529 -9.987181704313757 6 0 0
56 12 1 0 0.8435471424704808 -3.6723505602683213 -9.894015160584123 6 0 0
57 12 3 0 1.2275349610656896 -3.8237369820301375 -9.70540699343872 6 0 0
2568 523 4 0 3.830330148003714 -3.5842627502939903 -10.206617069613241 5 0 0
2567 523 2 0 3.8083399602579693 -3.9463454756562504 -10.512193092577952 5 0 0
3341 781 2 0 5.183387912480846 -3.5246719474529256 -10.45238318670294 8 0 0
3922 974 4 0 4.993877569231525 -4.204773401567572 -9.714322098649452 7 0 1
343 69 3 0 6.380313958366768 -4.332084796403704 -10.283983883775896 5 0 0
1349 270 3 0 8.722605891327328 -4.081110019282874 -10.211934814888592 5 0 0
1312 263 3 0 9.609557633389395 -3.9719306649490695 -9.783761291493565 6 0 0
3418 806 4 0 -1.983428570677713 -3.052767681235081 -9.653359534567759 7 0 0
58 12 3 0 0.9410065881842105 -3.4386480879280583 -10.265281645330607 6 0 0
1118 224 3 0 3.0957616220042716 -2.839267581501529 -10.25868169354739 6 0 1
1116 224 1 0 3.3911791855868323 -2.94825987426573 -9.929764687744425 6 0 1
1120 224 3 0 3.5537568309674192 -3.3572326668326955 -9.989385018440554 6 0 1
1119 224 3 0 3.7577713645381134 -2.6306190492097015 -9.939268188255012 6 0 1
3343 781 4 0 5.161343347778152 -3.318082667217409 -10.036889352125309 8 0 0
202 41 3 0 4.892872355795449 -3.309105936649475 -9.712732558706145 8 0 0
3264 755 4 0 1.6266636811902622 -2.051728077414559 -9.982095458472564 7 0 0
3263 755 2 0 1.3373516619574506 -2.054156076234772 -10.324656730454905 7 0 0
7 2 3 0 1.8021339809701473 -2.315789918418819 -9.722546920688119 7 0 0
2632 544 4 0 4.145847268631838 -2.608319229692877 -10.065258073575212 8 0 0
2630 544 2 0 4.5535547781275465 -2.4898342672101865 -10.115078900166182 8 0 0
2631 544 4 0 4.954388595790977 -2.3681146194128555 -10.159714194768512 8 0 0
1165 233 3 0 5.211506837458629 -2.082241660192489 -10.037115220366207 8 0 1
1161 233 1 0 5.503278263465193 -1.8598463607656281 -9.765967046101832 8 0 1
1162 233 3 0 5.889180276047627 -2.091662134491985 -9.741909342763698 8 0 1
3379 793 4 0 7.230206850158451 -1.9384469849465038 -10.12519280130139 8 0 0
3377 793 2 0 7.061874362954297 -2.1103690370060946 -10.497049578339006 8 0 0
438 88 3 0 -8.849404272149734 -0.9783179672193167 -9.868802604164117 11 0 0
439 88 3 0 -9.220765009853217 -1.1096839047799474 -10.462846579193387 11 0 0
2427 486 3 0 0.4554442054221113 -1.459688432052559 -9.747398602848397 9 0 1
2426 486 1 0 0.6296375036590653 -1.07637094767491 -9.945302427099657 9 0 1
2428 486 3 0 0.5686750916775072 -1.0839957165841856 -10.39207493161235 9 0 1
2430 486 3 0 1.0629526207788214 -1.0536549524812955 -9.85388049790642 9 0 1
1164 233 3 0 5.5699126408700135 -1.4844507145771644 -9.91580183537739 8 0 1
3088 696 4 0 5.521298019060419 -1.0897962442943356 -9.980109777854194 8 0 1
250 50 3 0 7.414791977712861 -1.5620458536282769 -10.137803981604815 8 0 0
249 50 3 0 7.547658091507673 -1.0244410047843324 -9.642242258541266 8 0 0
246 50 1 0 7.544833470677402 -1.4892790298545417 -9.721453321182196 8 0 0
247 50 3 0 7.978809545851805 -1.6575457031291911 -9.666986925523439 8 0 0
118 24 3 0 9.558905435684869 -1.1217444715169442 -9.647743060203315 1 -1 0
3797 933 2 0 -10.301322825748734 -0.37087575405185014 -10.368196434292454 12 0 1
437 88 3 0 -9.100385907170743 -0.4453456188514 -10.208177402351422 11 0 0
436 88 1 0 -8.934694320933197 -0.8268205045335808 -10.24417146099632 11 0 0
440 88 3 0 -8.547337212755446 -0.7895566104124931 -10.473832099530867 11 0 0
2769 590 4 0 -8.165073168692105 -0.8099983059920248 -10.387195555066706 11 0 0
2768 590 2 0 -7.892668826052724 -0.43302167841051364 -10.421357015745306 11 0 0
2770 590 4 0 -7.643238200315137 -0.09566375207410083 -10.45337586618115 11 0 0
1255 251 3 0 -6.7411250771652025 -0.21152653306076097 -10.191356399105153 11 0 0
2429 486 3 0 0.40328650446620173 -0.7182488741937334 -9.770868739920584 9 0 1
3277 759 4 0 1.2672777222562441 -0.7669488694503759 -10.000037412684474 11 0 0
3275 759 2 0 1.7040779539208284 -0.6188446766632598 -10.073197946865148 11 0 0
3276 759 4 0 2.122149720384245 -0.47843899183355454 -10.159104715935586 11 0 0
2448 490 3 0 2.4953987321794315 -0.5855166960833937 -10.200066631384512 10 0 1
2446 490 1 0 2.691728837193901 -0.23003692000662923 -10.372426324234143 10 0 1
2449 490 3 0 3.107034472552334 -0.19256418358968652 -10.189201625589035 10 0 1
3760 920 4 0 3.4747788503623873 -0.04556176358532049 -10.197275507978695 10 0 1
3086 696 2 0 5.8218128230081785 -0.7753565119362857 -9.876315209342271 8 0 1
3087 696 4 0 6.13025964760349 -0.446490143289461 -9.760449471367185 8 0 1
2526 509 4 0 6.491202372251577 -0.44190467512766674 -9.873702075334327 7 0 0
2525 509 2 0 6.910130166284835 -0.6148423941514771 -9.876526918574967 7 0 0
2527 509 4 0 7.320040532073877 -0.7894783401058163 -9.876207977032676 7 0 0
119 24 3 0 9.617510556298308 -0.3810397592784085 -9.760343399542666 1 -1 0
120 24 3 0 10.090038983656596 -0.8721642191857342 -10.093482524197888 1 -1 0
3799 933 4 0 10.342138285737741 -0.6000360147483761 -10.220069844343405 11 0 1
116 24 1 0 9.851977888961065 -0.781479786283839 -9.71543188007248 1 -1 0
170 34 3 0 -2.6377640357560947 -9.483522316874495 -9.08685623052594 2 0 0
2604 535 4 0 -1.779272720902517 -8.969223811756013 -8.855557492591208 2 0 0
935 187 3 0 -4.426811415122046 -7.89442430367686 -9.56497032512936 3 0 1
934 187 3 0 -4.055422416567664 -8.513081090331704 -9.519477210311036 3 0 1
932 187 3 0 -4.07982351098864 -8.065607724122977 -8.936452289177957 3 0 1
931 187 1 0 -4.065183048509508 -8.090571620921004 -9.393374608279569 3 0 1
777 156 3 0 9.512436387589561 -8.132585792392112 -9.474900378284525 2 0 0
776 156 1 0 9.918283674155616 -8.07026007432721 -9.635840138054276 2 0 0
2885 629 2 0 -7.229941774120054 -7.586049708301797 -8.81988846013278 3 0 0
351 71 1 0 -6.1694946513537285 -7.292067646525741 -8.995909410297486 3 0 0
2886 629 4 0 -6.885518671659152 -7.716872209366699 -9.070959233622993 3 0 0
354 71 3 0 -6.185805695273097 -7.123205578290901 -9.419079251660973 3 0 0
355 71 3 0 -6.482250997584998 -7.655706636669797 -8.947393538537774 3 0 0
352 71 3 0 -5.775764748166384 -7.435644793918855 -8.913581327357141 3 0 0
3187 729 4 0 -5.381267852525748 -7.498700296826786 -8.831707300080222 3 0 1
3185 729 2 0 -5.095921335417529 -7.6188389774080605 -9.163987785701783 3 0 1
3186 729 4 0 -4.805838058270648 -7.730027364398215 -9.500491921434467 3 0 1
933 187 3 0 -3.695132136686352 -7.87820053981417 -9.535322182446707 3 0 1
3476 826 2 0 -3.1079640748603206 -7.337345021590517 -9.545366432357122 13 1 0
3477 826 4 0 -2.772774456915312 -7.068519550646593 -9.39187089359432 13 1 0
1006 202 1 0 -2.040007213287229 -7.123908958658485 -9.346754898131127 4 0 1
1010 202 3 0 -2.061500873311756 -7.562589321411879 -9.17972832542894 4 0 1
780 156 3 0 10.15685441060529 -7.775217676897675 -9.353465512687649 2 0 0
2529 510 4 0 10.116524914370475 -7.634939286100792 -9.00273856674747 2 0 0
1008 202 3 0 -2.4191846781541724 -6.9296577769178835 -9.292931768341205 4 0 1
1007 202 3 0 -1.7250305110965645 -6.88981668221418 -9.134037227113977 4 0 1
3028 676 4 0 -1.379673542220969 -6.686991682276899 -9.091193584080381 3 0 1
3026 676 2 0 -0.912489727575954 -6.702888606564378 -8.982866484910488 3 0 1
3027 676 4 0 -0.4459212299827673 -6.727121993856137 -8.867689428944251 3 0 1
2090 418 3 0 -0.04963034030045321 -6.6355553838161825 -8.917445856023841 4 0 1
2088 418 3 0 0.3248718030519111 -6.419013128860769 -9.499591692524454 4 0 1
2086 418 1 0 0.26645064952454867 -6.339858928027027 -9.075959907504874 4 0 1
2089 418 3 0 0.6567374697420529 -6.39792338473328 -8.850073716751469 4 0 1
2652 551 4 0 1.060136455994808 -6.428330393857383 -8.940099039266165 4 0 0
2651 551 2 0 1.488150607918577 -6.263781494490596 -8.868177847518865 4 0 0
1 1 1 0 2.736435960811331 -6.211449424527505 -9.03500351859362 4 0 0
3 1 3 0 2.787142756900014 -6.6488827614659405 -9.038709109810343 4 0 0
76 16 1 0 7.845340427158915 -6.399425093490109 -9.096384001295407 4 0 0
77 16 3 0 7.385576847357209 -6.46197664376555 -9.059142826392288 4 0 0
3834 945 4 0 7.2308544095583525 -6.6948277611738 -8.801597902154851 12 1 1
80 16 3 0 7.9315387706079665 -6.1721125141507045 -9.483720073615357 4 0 0
79 16 3 0 8.0467933738172 -6.807604555856974 -9.095204770407861 4 0 0
3331 777 4 0 -8.204780574765817 -5.750544342873175 -9.14572630396775 6 0 0
2170 434 3 0 -8.421192345132068 -5.5227806462876705 -8.867893028675905 6 0 1
3329 777 2 0 -7.977775355215239 -5.452210304312655 -9.411880080610707 6 0 0
2087 418 3 0 0.1240933182988666 -5.914087544768493 -9.020217864710668 4 0 1
2653 551 4 0 1.9016129407714484 -6.106540360218109 -8.796698772845856 4 0 0
2 1 3 0 2.333993070832882 -6.100334112083296 -8.82010346644522 4 0 0
4 1 3 0 2.7148168696500203 -6.060765144646553 -9.45359270041441 4 0 0
5 1 3 0 3.107480530145761 -6.014835353704889 -8.803298009514627 4 0 0
2595 532 4 0 3.4815007015099564 -5.85829774698253 -8.92843365657211 4 0 0
2594 532 2 0 3.9453253203277665 -5.813261049721457 -8.899647096206829 4 0 0
2596 532 4 0 4.4024643370031065 -5.77604372580352 -8.88323597252766 4 0 0
572 115 3 0 4.751744177063557 -5.645272565445363 -9.023504509598784 5 0 0
571 115 1 0 5.026683102857767 -5.519799838634681 -9.362557155202214 5 0 0
573 115 3 0 5.450817945603887 -5.5421954715930735 -9.228815627514143 5 0 0
3190 730 4 0 5.849857199663424 -5.520256516946074 -9.23381441227754 3 0 1
3188 730 2 0 6.269079628154676 -5.385180651604404 -9.260382063186633 3 0 1
706 142 1 0 -7.235688910613144 -4.560512225367946 -9.598009173004371 7 0 0
709 142 3 0 -7.344227517509751 -4.4659051733637805 -9.156576461742327 7 0 0
707 142 3 0 -6.756034516534614 -4.611533927598805 -9.636936117339818 7 0 0
2801 601 2 0 2.4189396337452944 -5.214053167950748 -9.497315272285531 7 0 0
2802 601 4 0 2.7297150174002596 -5.187401609506042 -9.173071155979153 7 0 0
1374 275 3 0 2.9432678540501414 -4.870220552838056 -9.027158602518249 7 0 0
1371 275 1 0 3.3633280874927767 -4.735769096226185 -8.979320975314842 7 0 0
1373 275 3 0 3.6351033154399115 -4.997326777783459 -9.232712994026103 7 0 0
575 115 3 0 4.923476563540092 -5.095494561891899 -9.493545457038499 5 0 0
3189 730 4 0 6.7129271033080204 -5.237202198228621 -9.295540626038385 3 0 1
1000 200 3 0 7.0595848628762585 -5.052344253448683 -9.313656256762915 4 0 1
996 200 1 0 7.338370693955115 -4.714792428192804 -9.163724877166677 4 0 1
998 200 3 0 7.787573335135464 -4.800778459445974 -9.307618413290243 4 0 1
3094 698 4 0 8.180649398663226 -4.895890999709217 -9.266383457753799 4 0 1
3092 698 2 0 8.531287476362442 -4.637544750628803 -9.259350781649138 4 0 1
1313 263 3 0 9.907104273808 -4.610408662466603 -9.585475523003668 6 0 0
2657 553 2 0 -10.441703706962592 -3.5698702296343416 -8.943262455466394 6 0 0
3406 802 4 0 -7.558237369619252 -4.293043759155172 -8.889013118247819 7 0 0
416 84 1 0 -4.900159278983191 -3.813364510457868 -9.482385721853495 6 0 0
417 84 3 0 -4.546708467982538 -4.0545335246132295 -9.48367467075574 6 0 0
420 84 3 0 -5.092896476157318 -3.8102196638433794 -9.0607062914267 6 0 0
2566 522 4 0 -4.180383058109831 -4.158706139615083 -9.364042666749576 6 0 0
2564 522 2 0 -3.8058211402501323 -4.075101451398719 -9.125047143663886 6 0 0
2565 522 4 0 -3.446312670971394 -4.000376181163132 -8.894675427992155 6 0 0
1510 302 3 0 -3.144272755449416 -3.7952378303245027 -8.7802796464739 16 1 0
3417 806 4 0 -2.3734282087719336 -3.6904584697946925 -9.169832800964121 7 0 0
2980 660 4 0 1.6136422735494662 -3.8642267330436635 -9.625910868463853 6 0 1
2978 660 2 0 1.832996461070982 -3.5385756827070196 -9.421250552921576 6 0 1
1375 275 3 0 3.400816159647599 -4.305567740234326 -9.121344024098885 7 0 0
3498 833 4 0 3.5827516013638245 -3.946307084678333 -9.174936805872123 7 0 0
3497 833 2 0 3.9602623976875115 -3.75928425657962 -9.124913530802043 7 0 0
3499 833 4 0 4.363520894085813 -3.545994369503635 -9.06860001213179 7 0 0
203 41 3 0 5.169225232388705 -3.953858173276646 -9.474432813269782 8 0 0
201 41 1 0 5.06599280146669 -3.5343756792671774 -9.351161464611925 8 0 0
205 41 3 0 4.7731658287356105 -3.549082722787028 -9.031425273854516 8 0 0
997 200 3 0 7.20471440616552 -4.336318984274191 -9.31754520233813 4 0 1
3093 698 4 0 8.894324256718102 -4.366250556111311 -9.264861580543155 4 0 1
1315 263 3 0 9.285533142726239 -4.351883432554705 -9.210629577213664 6 0 0
1311 263 1 0 9.702534131535925 -4.23351034613237 -9.438343931983615 6 0 0
1314 263 3 0 9.972454691496472 -4.011240494028287 -9.138922429999168 6 0 0
2659 553 4 0 10.214900624740777 -3.832081486837385 -8.898278049390916 5 0 0
1588 318 3 0 -9.729060115603057 -3.3271274471861982 -9.19796977178836 15 1 0
2658 553 4 0 -10.071161111189143 -3.299727552432171 -9.002639891061403 6 0 0
1590 318 3 0 -9.018817330844962 -3.3016348135475253 -9.502589323108793 15 1 0
1586 318 1 0 -9.322469188243216 -3.083076226563599 -9.218923852821566 15 1 0
1587 318 3 0 -9.158912535629195 -3.0562777184765952 -8.856418551796002 15 1 0
1589 318 3 0 -9.401104064575982 -2.686576260353174 -9.375163775480322 15 1 0
418 84 3 0 -4.799198691784301 -3.4342783419554106 -9.587918183865069 6 0 0
3416 806 2 0 -2.181821582924446 -3.369903250680089 -9.412659781922194 7 0 0
1270 254 3 0 -1.6413813367527794 -2.827479006949935 -9.620434716099437 8 0 0
1269 254 3 0 -0.8899550903626015 -2.8919803169187768 -9.562756028387223 8 0 0
1267 254 3 0 -1.3229008697471993 -2.961132587752905 -8.992283924096492 8 0 0
1266 254 1 0 -1.2733149358363889 -2.750790387791259 -9.343299107164366 8 0 0
3120 707 4 0 -1.0910716983322946 -3.279365577212676 -8.841442108100296 7 0 1
60 12 3 0 0.6217117731294746 -3.3960112393536193 -9.58825224912691 6 0 0
3154 718 4 0 0.5329063493766988 -3.022127840216638 -9.415318562887004 7 0 1
3152 718 2 0 0.8240778411350735 -2.747676426203002 -9.262401961638531 7 0 1
2979 660 4 0 2.0901314470580328 -3.187214403322397 -9.19738178023095 6 0 1
10 2 3 0 2.1835482471891883 -2.8008380091309 -9.29799443546071 7 0 0
1117 224 3 0 3.18445007016115 -2.932962421558204 -9.534732440875791 6 0 1
204 41 3 0 5.435406023320976 -3.3244408431154264 -9.200364452764328 8 0 0
1268 254 3 0 -1.234451953569156 -2.318367238559391 -9.250141285448382 8 0 0
3153 718 4 0 1.1324903312143721 -2.464368739951407 -9.092413085669405 7 0 1
9 2 3 0 1.5100859936569808 -2.5864298204159004 -9.090333882423508 7 0 0
6 2 1 0 1.8956612893432752 -2.4515441219510556 -9.293169571779728 7 0 0
8 2 3 0 2.081485777612606 -2.122337462597974 -9.061925843036567 7 0 0
2928 643 4 0 2.2838575823825877 -1.7696894430357766 -8.979379568796363 8 0 0
2927 643 2 0 2.723179067468644 -1.7979601974829222 -8.998080053181948 8 0 0
2929 643 4 0 3.162064432941957 -1.8232451457521908 -9.00724730093746 8 0 0
40 8 3 0 4.108459045258503 -1.835474112824615 -9.255372650491266 9 0 0
1163 233 3 0 5.319599849703758 -1.8162763662033843 -9.353071964159932 8 0 1
3570 857 4 0 6.1591437070583535 -1.8636868158999906 -9.525008524161343 8 0 0
3569 857 2 0 6.5414665593292245 -1.8024432774014034 -9.367874293203021 8 0 0
3984 995 4 0 -1.1541605366685683 -1.154462983579105 -9.077747938251765 9 0 1
37 8 3 0 3.440691287981384 -1.6014493908099627 -9.17503019252809 9 0 0
36 8 1 0 3.849578179254408 -1.5154099212058068 -9.08589388502968 9 0 0
38 8 3 0 3.9624169500289597 -1.116670372692683 -9.266772454644482 9 0 0
3571 857 4 0 6.935836266574407 -1.733283096554576 -9.215476017379745 8 0 0
248 50 3 0 7.260712613241955 -1.6956716881264224 -9.428381400615114 8 0 0
2668 556 4 0 8.35136664028988 -1.5292862503408742 -9.498313394766752 8 0 0
2666 556 2 0 8.800288242337688 -1.3653262659940602 -9.443938620313817 8 0 0
2667 556 4 0 9.250268103044478 -1.1988690859117934 -9.38394057781285 8 0 0
3985 995 4 0 -0.9176631012446173 -0.4499630035363307 -9.55963653012979 9 0 1
3983 995 2 0 -1.0341946945284963 -0.8101524861537346 -9.316679577969913 9 0 1
1578 316 3 0 -0.8051725125912732 -0.11989212400851024 -9.351685375714071 11 0 0
3397 799 4 0 9.386471096983934 -0.2508653236581875 -9.458403710548227 11 0 0
117 24 3 0 10.153249994131675 -0.7496768473239914 -9.336809692504543 1 -1 0
2602 534 4 0 10.316200507378506 -0.5246016152767599 -9.03065703285978 9 0 0
2600 534 2 0 10.349364054191602 -0.06657066552486235 -8.998079986708479 9 0 0
3744 915 4 0 -2.2696328365066165 -9.757967803321792 -8.144117600289729 12 1 1
3743 915 2 0 -1.8875436660242109 -9.953095779597705 -8.054874217193385 12 1 1
3745 915 4 0 -1.4801477964819192 -10.163562618942503 -7.953354863200074 12 1 1
567 114 3 0 -0.692328405516097 -10.311613773945389 -8.268820285747022 3 0 0
168 34 3 0 -1.991819414967411 -9.279877187706285 -8.753036563308603 2 0 0
167 34 3 0 -2.6222212873027484 -8.916451547198504 -8.63396750268998 2 0 0
169 34 3 0 -2.556281353484123 -9.579154173831572 -8.366094010157507 2 0 0
166 34 1 0 -2.455828957410141 -9.307197922300535 -8.709543593025304 2 0 0
2603 535 2 0 -1.42612612339936 -8.917871657695276 -8.61922513571994 2 0 0
2605 535 4 0 -1.036661359137721 -8.867536044468165 -8.369208089866156 2 0 0
105 21 3 0 -0.5355604472097486 -9.572742663484032 -8.237950820492015 2 0 0
102 21 3 0 -0.7259863548055154 -8.859525219542027 -8.128377075973278 2 0 0
101 21 1 0 -0.385058745655952 -9.142686394644418 -8.236804698971948 2 0 0
103 21 3 0 -0.24256813266911337 -9.035302422559608 -8.641923517572177 2 0 0
104 21 3 0 -0.0630093144042938 -9.096919179368184 -7.955843770347953 2 0 0
3039 680 4 0 0.3448283837547166 -9.059608701311879 -8.013644304564176 3 0 1
1041 209 1 0 -4.466198375475295 -8.2627929446642 -7.962690965659324 5 0 1
1044 209 3 0 -4.615208492756752 -8.536044250483695 -8.246503731395553 5 0 1
2242 449 3 0 4.241783814547414 -8.6319912976707 -8.549431863558167 16 1 1
2241 449 1 0 4.221396927608335 -8.48682841254913 -8.13069325452523 16 1 1
2245 449 3 0 3.8101186343530316 -8.335335560123657 -8.03392702168021 16 1 1
2244 449 3 0 4.543525436840847 -8.129802779929602 -8.070148092669466 16 1 1
1258 252 3 0 6.453345333535337 -8.00324116377088 -8.353776607670664 2 0 1
259 52 3 0 8.962653911858704 -8.269095541784596 -8.104964131954988 2 0 0
25 5 3 0 -10.013197541414307 -7.574949707183844 -8.117306985515242 3 0 0
2530 510 4 0 -10.310495071260313 -7.532065251695631 -8.386197373213362 3 0 0
2887 629 4 0 -7.589198392315562 -7.444152444734847 -8.559159732311361 3 0 0
47 10 3 0 -7.560765371298591 -7.201258558086149 -8.239609417222116 3 0 0
1042 209 3 0 -4.429217504277262 -7.820343877612503 -8.162964784400128 5 0 1
1256 252 1 0 6.4816273128309145 -7.760888044021005 -7.976707471602052 2 0 1
1260 252 3 0 6.457749746389096 -7.309585453777228 -8.07467506560876 2 0 1
3835 945 4 0 6.773707796333889 -7.035703937705851 -8.10902816859228 12 1 1
2528 510 2 0 10.41369346824351 -7.588449838820594 -8.703086726850165 2 0 0
48 10 3 0 -8.154284727230877 -6.788691469767628 -8.001862071661128 3 0 0
3778 926 4 0 -8.501008820549677 -6.582147491379823 -7.9374721456218165 13 1 1
50 10 3 0 -7.4362688318798975 -6.5227839531522696 -7.933479793271977 3 0 0
2926 642 4 0 -7.0780603125419255 -6.265093036052352 -7.972410875734365 3 0 0
46 10 1 0 -7.702998081972101 -6.909910186738095 -7.917780343595433 3 0 0
353 71 3 0 -6.295906133707347 -6.946279228815034 -8.6847290401573 3 0 0
2924 642 2 0 -6.637923083510777 -6.358146566869207 -8.053400031624497 3 0 0
2925 642 4 0 -6.196557836535551 -6.44974063990024 -8.140515004858292 3 0 0
922 185 3 0 -5.812492292584139 -6.41696422197963 -8.21975206612922 3 0 1
921 185 1 0 -5.427890819304678 -6.197664867686589 -8.05303013439429 3 0 1
923 185 3 0 -5.071893583086117 -6.310434653997448 -8.305108265366718 3 0 1
2664 555 4 0 -4.77273030423567 -6.296791856510134 -8.046620453045689 3 0 0
2663 555 2 0 -4.363972930109986 -6.416409250598319 -7.983929901774611 3 0 0
2665 555 4 0 -3.9276547991923003 -6.531225183587106 -7.912303207571562 3 0 0
365 73 3 0 -2.8562230786132465 -6.697526024769263 -8.108486387868167 4 0 0
361 73 1 0 -3.0830020333705423 -6.3149676426819426 -7.935864796341995 4 0 0
3833 945 2 0 7.004930479859089 -6.866131025129721 -8.454243012881424 12 1 1
78 16 3 0 7.997918221942742 -6.155659008458694 -8.732073698948282 4 0 0
2169 434 3 0 -8.853009536402164 -5.5604057193083785 -8.264601553752138 6 0 1
2166 434 1 0 -8.442768179213445 -5.465770732595199 -8.406928704504164 6 0 1
2168 434 3 0 -8.1294642076923 -5.750207905019167 -8.200169963709442 6 0 1
924 185 3 0 -5.494751765595401 -5.7421142944790375 -8.071711943145946 3 0 1
363 73 3 0 -3.044139117748145 -5.976719449298039 -8.23193017826604 4 0 0
2679 560 4 0 -2.7557513006856738 -5.758600210750571 -8.41005525000165 5 0 0
2678 560 2 0 -2.345719931014264 -5.547711121503086 -8.336511845373005 5 0 0
2680 560 4 0 -1.9578282785117533 -5.350833307881513 -8.274529449945339 5 0 0
2167 434 3 0 -8.347640951832316 -5.055554017502347 -8.306904986112178 6 0 1
3405 802 4 0 -8.115334147767005 -4.731826212810383 -8.310198702320768 7 0 0
3404 802 2 0 -7.835803602103617 -4.508671077592556 -8.60169387177678 7 0 0
1219 244 3 0 -1.7426036607225193 -5.013301826792615 -8.288513911842674 5 0 1
1216 244 1 0 -1.7079728189957954 -4.545145011156666 -8.309171269137297 5 0 1
1218 244 3 0 -1.3504889507943059 -4.437517461794395 -8.55876971284523 5 0 1
1372 275 3 0 3.4936689990922574 -4.7506283171512855 -8.551869191506258 7 0 0
999 200 3 0 7.3214525265366905 -4.714545398360387 -8.71423681348563 4 0 1
1506 302 1 0 -2.7916566591662386 -3.7106011943016206 -8.511736227001151 16 1 0
1508 302 3 0 -2.768332991004818 -4.028963445226063 -8.188405374862015 16 1 0
1507 302 3 0 -2.4260866059029453 -3.7161679670626047 -8.7540917016684 16 1 0
1220 244 3 0 -2.059387669364959 -4.380260431294825 -8.485390060261501 5 0 1
3119 707 2 0 -1.1067312199488093 -3.693683197161427 -8.667081712194305 7 0 1
3121 707 4 0 -1.122200238207089 -4.101391864326101 -8.503153642231764 7 0 1
1509 302 3 0 -2.8441588054681084 -3.2962082535994544 -8.325273596480882 16 1 0
2673 558 4 0 -2.74297131586066 -3.0647558418010785 -7.99892458464243 6 0 0
2672 558 2 0 -2.325345553239094 -2.9396926007218296 -7.917232969113021 6 0 0
382 77 3 0 -1.1007579530363731 -3.084354371351232 -8.003412105747277 7 0 0
2701 567 4 0 -2.0314566510907675 -1.213353216497243 -8.00864118520577 10 0 0
954 191 3 0 -1.1149605900396988 -1.6641867579262115 -8.194350160662603 9 0 1
951 191 1 0 -1.2447005595783533 -1.24615509236577 -8.236251485886802 9 0 1
952 191 3 0 -1.2721491318008713 -1.1365810336297493 -8.674068130701064 9 0 1
955 191 3 0 -0.9382444029841235 -0.9707314720933358 -8.04647272683221 9 0 1
953 191 3 0 -1.6394036125214893 -1.201515284175743 -8.044731813529875 9 0 1
39 8 3 0 3.9042185403656102 -1.502507348735838 -8.655133471027323 9 0 0
2533 511 4 0 -0.605449115830444 -0.77577607433577 -8.225847962259227 9 0 0
2531 511 2 0 -0.3878721692570011 -0.3984036702701559 -8.127753001209465 9 0 0
1188 238 3 0 0.8282807882684065 -0.12523477581671116 -8.430635746332657 9 0 1
2114 423 3 0 7.661131440027139 -0.7962241027409789 -8.454729159201381 8 0 1
2112 423 3 0 7.1204673765802955 -0.3988550595580733 -8.239449232347583 8 0 1
2115 423 3 0 7.597809318179481 -0.10503670806062892 -8.699513725862634 8 0 1
2111 423 1 0 7.542946879216556 -0.39681714876340735 -8.3428678101352 8 0 1
2113 423 3 0 7.8024055958378025 -0.26260757682223534 -7.987728183018094 8 0 1
569 114 3 0 -1.2320268035448994 -10.428147680018721 -7.803229835329092 3 0 0
566 114 1 0 -0.7967309941178069 -10.417117900129984 -7.8580598207073376 3 0 0
568 114 3 0 -0.6192638861542257 -10.102248842303233 -7.581011788959311 3 0 0
753 151 3 0 -0.11645092011017155 -10.178172972671218 -7.018548720815073 4 0 0
3038 680 2 0 0.7614109041002184 -8.954630772277339 -7.884126720970123 3 0 1
3040 680 4 0 1.1973556447818101 -8.859580443656816 -7.760494998669648 3 0 1
1204 241 3 0 1.6198903243988063 -8.875777589114573 -7.761161516273028 6 0 1
2243 449 3 0 4.324437907203826 -8.826317766699795 -7.849829065487243 16 1 1
1043 209 3 0 -4.753610624476362 -8.246467915972442 -7.593688945330381 5 0 1
1045 209 3 0 -4.0712317677205325 -8.392877828332457 -7.830818978768229 5 0 1
1202 241 3 0 1.6269116461890327 -8.168461171705585 -7.615376175864089 6 0 1
1203 241 3 0 1.6592721978222702 -8.670509659510751 -7.060602346317883 6 0 1
1205 241 3 0 2.2727459430116106 -8.59128603631979 -7.53130432253473 6 0 1
1201 241 1 0 1.7857544282620434 -8.586064727574676 -7.493081148621627 6 0 1
3370 790 4 0 2.6447942034956586 -8.7244150927703 -7.619898989436222 16 1 0
3368 790 2 0 3.042928818316181 -8.596387193532607 -7.74176066246534 16 1 0
3369 790 4 0 3.4553280516288503 -8.471000412244186 -7.876835956661143 16 1 0
2544 515 4 0 4.879853274647132 -8.074660154871193 -7.8465924196661945 2 0 0
2543 515 2 0 5.29946290881626 -7.974986309962918 -7.7461458527050695 2 0 0
257 52 3 0 8.912849881043462 -8.168332109868238 -7.366542818079616 2 0 0
256 52 1 0 8.883533516316811 -7.954599880404854 -7.749946014991608 2 0 0
24 5 3 0 -9.654391205326073 -7.17445714492329 -7.63286470791312 3 0 0
22 5 3 0 -10.171599548891981 -7.686335229802553 -7.419354912077624 3 0 0
21 5 1 0 -10.049561546417765 -7.376948354379062 -7.736628795623408 3 0 0
23 5 3 0 -10.366631205122854 -7.07591371900811 -7.762139233302754 3 0 0
3777 926 4 0 -9.281979780969534 -7.052723655328792 -7.719057547341288 13 1 1
49 10 3 0 -7.675424230436369 -7.085835663155428 -7.525549658260141 3 0 0
2545 515 4 0 5.751373879325383 -7.87119878839028 -7.6556687911906645 2 0 0
1259 252 3 0 6.138315924034094 -7.872776755623269 -7.692900229591754 2 0 1
1257 252 3 0 6.89351123083185 -7.848452647642838 -7.760902019450711 2 0 1
2551 517 4 0 7.242383208019254 -7.6787493285447805 -7.5916063656851644 2 0 0
2549 517 2 0 7.68029724448863 -7.702235694302055 -7.592862081876552 2 0 0
260 52 3 0 8.47037949402168 -7.771780096232623 -7.804854011923581 2 0 0
2550 517 4 0 8.123996835506494 -7.727984174364891 -7.593605255946618 2 0 0
258 52 3 0 9.19968049813881 -7.6132242250874524 -7.764074231169063 2 0 0
3150 717 4 0 9.365100609366001 -7.243042426711853 -7.831857270317523 2 0 1
3151 717 4 0 10.279339186543448 -7.125865412278198 -7.805041415823498 2 0 1
3149 717 2 0 9.824573584283117 -7.186615425065774 -7.814790284400931 2 0 1
3776 926 2 0 -8.885473661207648 -6.809491098823507 -7.831477325880283 13 1 1
925 185 3 0 -5.348380802942024 -6.324047127520863 -7.626982289621373 3 0 1
362 73 3 0 -3.5188387334477174 -6.4212225512723995 -7.877605902731199 4 0 0
364 73 3 0 -2.897475645622473 -6.196081046742648 -7.540026884366337 4 0 0