LAMMPS data file via write_data, version 19 Nov 2024, timestep = 10000, units = lj

11 atoms
4 atom types
8 bonds
1 bond types
8 angles
2 angle types

-1.087554 1.087554 xlo xhi
-1.087554 1.087554 ylo yhi
-1.087554 1.087554 zlo zhi

Masses

1 1
2 1
3 0.1
4 0.1

Bond Coeffs # harmonic/omp

1 100 0.45

Angle Coeffs # harmonic/omp

1 100 180
2 100 109.471

Atoms # full

6 2 2 0 -0.504970970498352 -0.12860024201023762 0.44455416619087323 0 0 0
7 2 4 0 -0.06435174599645567 -0.1525641575515455 0.6051008135099122 0 0 0
8 2 4 0 -0.9902880599005619 -0.10653462978544202 0.27554689132950205 0 0 0
5 1 3 0 0.14734810532486547 -0.027584742140547045 -0.12108762851036932 0 0 0
2 1 3 0 0.801037497521355 -0.05439158971903983 0.18389683597797063 0 0 0
9 3 2 0 0.4245237603391375 0.6492643556452894 -1.0043521799002435 0 0 0
11 3 4 0 0.6255558003408623 0.6802711639502486 -0.6090722688794135 0 0 0
4 1 3 0 0.6171218074077071 0.49992544423966045 -0.27670320433083384 0 0 0
1 1 1 0 0.46473465006603804 0.21775391172489011 0.04986610191023881 0 0 0
10 3 4 0 0.20501399627674752 0.6084595577922606 0.7665582554584353 0 0 -1
3 1 3 0 0.3105713906645009 0.4503452858448271 0.3992347471755242 0 0 0

Velocities

6 -0.06052603040442301 -0.4118571884100401 -0.14387491659846327
7 -1.0645059044868967 0.7776894798469144 0.24998248888496738
8 -0.7308269854369702 0.3693440595598507 -0.7782275415494088
5 0.6824114444659682 -0.5780938583293295 -2.595050867081257
2 0.38440780341158454 -0.025181006017350783 0.38274000094493627
9 0.29944043611526827 0.1489581491349502 0.2644929995354592
11 -0.14145459444807768 0.4299982547657208 0.1395050321179252
4 -0.3638075470542846 0.04185578320599302 -0.8639724263914191
1 0.4489923491669 -0.07270201955239255 0.016357502309100658
10 0.1895146962857061 -0.23242778230007435 -0.31558879926861894
3 0.4773435606724949 -0.5442089409351221 -0.8340828935544944

Bonds

1 1 6 7
2 1 6 8
3 1 9 10
4 1 9 11
5 1 1 2
6 1 1 3
7 1 1 4
8 1 1 5

Angles

1 1 7 6 8
2 1 10 9 11
3 2 2 1 3
4 2 2 1 4
5 2 2 1 5
6 2 3 1 4
7 2 3 1 5
8 2 4 1 5
