LAMMPS data file via write_data, version 29 Aug 2024, timestep = 100000, units = lj

664 atoms
4 atom types
476 bonds
1 bond types
438 angles
2 angle types

-4.496439 4.496439 xlo xhi
-4.496439 4.496439 ylo yhi
-4.496439 4.496439 zlo zhi
0 0 0 xy xz yz

Masses

1 1
2 1
3 0.1
4 0.1

Bond Coeffs # harmonic/omp

1 100 0.45

Angle Coeffs # harmonic/omp

1 100 180
2 100 109.471

Atoms # full

516 139 4 0 -3.3940168079933883 -3.2848691958316865 -3.5222696395000184 1 0 0
529 143 4 0 -3.729983673369965 -3.385888383665226 -3.343222791329977 1 0 0
143 29 3 0 -2.180562957537256 -3.089614264390141 -4.303886645591019 1 0 0
275 59 2 0 -1.9007740792778596 -2.8659333957694226 -3.2840794861792144 1 0 0
515 139 2 0 -3.133607666171126 -3.0027614193114793 -3.770899989411562 1 0 0
1 1 1 0 -3.933501504590851 -2.151873111396856 -3.3753597420280093 1 0 0
5 1 3 0 -3.581289610119835 -2.4338777855432583 -3.460648397970223 1 0 0
3 1 3 0 -3.793726930869572 -1.7216177034059186 -3.4013759290240793 1 0 0
2 1 3 0 -4.249688457909509 -2.2223061781250646 -3.67846133438971 1 0 0
339 80 4 0 -2.8720277850719595 -2.4286299891336105 -4.292840985022152 1 0 1
517 139 4 0 -2.871332758968885 -2.708163676391597 -4.018309162039817 1 0 0
142 29 3 0 -2.5248408586878575 -2.493169116973252 -4.1084288448978 1 0 0
141 29 1 0 -2.1495264956712834 -2.6604868990071506 -4.29061823712473 1 0 0
276 59 4 0 -1.6972601289439484 -2.5937902025508 -3.6238836732498254 1 0 0
145 29 3 0 -1.7832846104470534 -2.5378756573528674 -4.0099769852988425 1 0 0
313 71 4 0 -1.3918568510522178 -2.4577593631627046 -3.8813262516710867 1 0 1
311 71 2 0 -0.9667791069508729 -2.3974441167023453 -4.071973534208739 1 0 1
496 132 4 0 -0.11419471439994311 -2.4586609229209717 -4.300406983885995 1 0 0
312 71 4 0 -0.48852580879063634 -2.3371295446030045 -4.2710604740745985 1 0 1
361 87 4 0 -3.4900082928264142 -1.4487112223854233 -3.39114975361211 1 0 1
359 87 2 0 -3.1354939933643386 -1.1749598562837789 -3.537135718516301 1 0 1
360 87 4 0 -2.7894783191424697 -0.9063418884386021 -3.677217788100345 1 0 1
21 5 1 0 -2.734838005419952 -0.061278528326206505 -3.9270353646476917 1 0 1
23 5 3 0 -2.6907248837357525 -0.5303489376128381 -3.8364674912098526 1 0 1
349 83 4 0 -2.428857305518428 -0.8175694256221422 -3.890385119820972 1 0 1
347 83 2 0 -2.0245275900127084 -0.8324038083837579 -4.110628095185395 1 0 1
348 83 4 0 -1.6185310116289706 -0.8480958041696032 -4.339365922670738 1 0 1
24 5 3 0 -2.740101493683195 -0.002656376564962315 -4.381381584195137 1 0 1
42 9 3 0 -1.2217656712861875 -0.7723402200671474 -4.364201895356851 1 0 1
253 51 4 0 -0.23361117602959602 -1.0846219436129276 -3.9357074267704353 1 0 0
44 9 3 0 -0.49461860613806685 -0.879495950537367 -4.1577103434056975 1 0 1
251 51 2 0 -0.056885631394261615 -0.9110887482774301 -3.5159573882607202 1 0 0
285 62 4 0 -0.6088315764185515 -0.13811749066497203 -0.6356933517011796 1 0 0
527 143 2 0 -3.5755329358818377 -3.6081106126555995 -2.9611067114105145 1 0 0
266 56 2 0 -3.665549056867061 -4.260309831325452 -2.023058887752731 1 0 0
88 18 3 0 -3.9251912080363915 -3.1778845904272344 -2.627631236975199 2 1 0
20 4 3 0 -3.10763448469131 -3.6847367688448247 -2.4045181701924574 1 0 0
528 143 4 0 -3.4283345372207954 -3.8144478286336416 -2.617609868118952 1 0 0
268 56 4 0 -3.3413305763639976 -4.012110253699214 -2.289320244519032 1 0 0
277 59 4 0 -2.1306488758825894 -3.1428093887323723 -2.9315907055560846 1 0 0
17 4 3 0 -2.834521577525151 -3.00291264724523 -2.1041935355259715 1 0 0
16 4 1 0 -2.6992110652412604 -3.4059489661815725 -2.301661965010663 1 0 0
504 135 4 0 -2.074915431384026 -3.4799658104764903 -2.7170902816529416 1 0 0
503 135 2 0 -1.6980856971792178 -3.7812299687435087 -2.7134076147729855 1 0 0
18 4 3 0 -2.4425730009703432 -3.3039928116356103 -2.72478879819505 1 0 0
19 4 3 0 -2.4462896238849123 -3.6240683150037376 -2.0327278153729234 1 0 0
505 135 4 0 -1.3369038505840805 -4.056561757233014 -2.708303412643064 1 0 0
499 133 4 0 -0.21182178967809762 -3.495714840334197 -2.9020398315026235 1 0 0
284 62 2 0 -0.6248263736176289 -0.05664268637997871 -1.1003673208402418 1 0 0
140 28 3 0 -1.1421750790065417 -4.354706313287719 -2.527519050919609 1 0 0
498 133 4 0 -0.9393348762664417 -4.087700205279758 -2.793652614995443 1 0 0
497 133 2 0 -0.5783514580828539 -3.7859433574981733 -2.8456084334113187 1 0 0
86 18 1 0 -4.196218136292239 -2.8460541556132584 -2.4561981831485333 2 1 0
87 18 3 0 -3.990451881533158 -2.654695614306501 -2.1012597399453528 2 1 0
254 52 2 0 -3.2913270556872263 -2.1220498730024304 -2.1265250039445682 1 0 0
256 52 4 0 -3.702400752617051 -2.3681104196727065 -2.1673042913914933 1 0 0
4 1 3 0 -4.087056577020424 -2.2330492562679356 -2.96309764527926 1 0 0
510 137 4 0 -4.3809107284505195 -2.1304673876311684 -2.71714052395762 2 0 0
90 18 3 0 -4.27982506151784 -2.517791479930344 -2.773881892740754 2 1 0
255 52 4 0 -2.8685741405446845 -1.861828326832602 -2.083177935443985 1 0 0
490 130 4 0 -2.540372547783917 -1.9600526414010795 -1.8795021952954034 2 0 0
289 63 4 0 -2.5275509835134176 -1.624184596070728 -2.0779187466695146 1 0 0
488 130 2 0 -2.266316112506583 -2.240798312013454 -1.6188421933314876 2 0 0
489 130 4 0 -1.9961348709929343 -2.5077749233826685 -1.3600722645377998 2 0 0
9 2 3 0 -0.3980469573776091 -0.0769222448060134 -0.28590973725888436 1 0 0
584 162 2 0 -4.336008068224826 -0.7949603388607831 -1.9362949976255823 2 0 0
586 162 4 0 -3.9970516886981597 -0.5907924456732938 -1.66184253426648 2 0 0
371 91 2 0 -3.404551248753782 -0.08436438103040977 -1.923216933582462 1 0 0
373 91 4 0 -3.7209548936898855 -0.2913361598425004 -1.7023314870044999 1 0 0
281 61 2 0 -2.3150212625389215 -0.20643277279893102 -2.224898220945734 1 0 0
287 63 2 0 -2.224309315387938 -1.2665560711513688 -2.1074345620370947 1 0 0
288 63 4 0 -1.8950074418215013 -0.8893229763479455 -2.135407972188012 1 0 0
283 61 4 0 -1.9805030649937314 -0.5049451256454693 -2.299316201396999 1 0 0
259 53 4 0 -1.6069130803638125 -0.576919744348706 -2.116707378857087 1 0 0
257 53 2 0 -1.2087098438055945 -0.30616577046130544 -1.9993845602065772 1 0 0
258 53 4 0 -0.8382821252119359 -0.05308913141360261 -1.8993140606942744 1 0 0
150 30 3 0 -2.9637183802901106 -0.4181199444324779 -0.24685747713955752 2 0 0
518 140 2 0 -3.521351023457635 -0.4837482073701116 -0.9169121540014862 2 0 0
519 140 4 0 -3.289011635035454 -0.5026903376843102 -0.49834966477958753 2 0 0
520 140 4 0 -3.76546133098245 -0.46653292258551815 -1.3497741318048062 2 0 0
41 9 1 0 -0.7741437622713447 -0.7066934020319704 -4.475667452025143 1 0 1
177 36 3 0 -0.5728713643217258 -4.2866854436679365 1.101602224136104 1 0 0
296 66 2 0 -0.9348627140312575 -1.7925238278756375 1.4655608445650783 1 0 0
549 150 4 0 -2.9733958193082968 -0.4231060695910598 0.642857514579604 2 0 0
548 150 2 0 -3.0826962368740727 -0.7477044568692421 0.919318156889152 2 0 0
550 150 4 0 -3.195247112769237 -1.089930706854219 1.223002688372972 2 0 0
38 8 3 0 -3.5378617508236134 -1.1257509009939 1.4386700888746935 1 0 0
561 154 4 0 -3.1361808772208635 -0.048121120827734565 0.752542183654751 2 0 0
149 30 3 0 -2.8934224737896868 -0.09994391604835862 0.4385704067480134 2 0 0
397 99 4 0 -1.9269085667687809 -0.05002194007526839 0.11983281776633792 1 0 0
297 66 4 0 -0.8490073602159405 -1.3761772480647516 1.314656812723583 1 0 0
332 78 2 0 -0.5211527846286201 -0.7657907974009568 0.9174112858386483 1 0 0
334 78 4 0 -0.7806605033993916 -1.0435467654253463 1.133631402134192 1 0 0
333 78 4 0 -0.23668243718738236 -0.4739822020966118 0.7022229245563318 1 0 0
7 2 3 0 -0.1547997506506853 -0.1449300558571185 0.4491807748766625 1 0 0
33 7 3 0 -1.0569789521512543 -1.0428033173304945 1.4148472207983938 1 0 0
569 157 2 0 -1.799031322212187 -3.7267293152928898 2.375520331926487 1 0 0
570 157 4 0 -1.6619635179529517 -3.303512979922807 2.405054301020283 1 0 0
571 157 4 0 -1.9432638692572501 -4.221212869691059 2.3407821510990665 1 0 0
190 38 3 0 -1.2955247850876814 -3.291240501962218 1.534154470294621 1 0 0
187 38 3 0 -1.3358697163801003 -3.066293529366356 2.2564910674298897 1 0 0
178 36 3 0 -0.702887986403566 -3.773363418996095 1.6399938397798426 1 0 0
174 35 3 0 -1.3112697666888948 -3.140777182856557 2.5707013438762756 1 0 0
180 36 3 0 -0.034941502436280025 -4.051401409668675 1.5508076121950767 1 0 0
176 36 1 0 -0.4620305745260236 -4.1513142565402 1.534780161674985 1 0 0
189 38 3 0 -0.6903941739112156 -3.120726193705606 1.8982319777004006 1 0 0
186 38 1 0 -1.1114603644811183 -3.021835443120438 1.8465040083439783 1 0 0
40 8 3 0 -3.3611716478284235 -1.6959021266946115 1.8394502040071492 1 0 0
298 66 4 0 -1.0187612069600704 -2.207300491903968 1.6086190144508326 1 0 0
188 38 3 0 -1.145721912816736 -2.58079348736867 1.702263403660396 1 0 0
175 35 3 0 -1.4887089461995537 -2.5219142976085642 2.9162405446187414 1 0 0
36 8 1 0 -3.685835333163038 -1.4002066082592308 1.746588871598468 1 0 0
39 8 3 0 -3.7998532596693613 -1.166941752234648 2.127815532665079 1 0 0
350 84 2 0 -3.458883086753576 -0.9303033112183297 2.9009195701103403 1 0 0
351 84 4 0 -3.7039154722280836 -1.0350935305052782 2.509728421756054 1 0 0
37 8 3 0 -4.059216081296023 -1.622737781173707 1.5908006457385104 1 0 0
34 7 3 0 -1.6539351281810064 -0.6137333126652003 1.49571489645463 1 0 0
317 73 2 0 -1.7676125597785415 -1.417729539412631 2.6250021225270164 1 0 0
318 73 4 0 -1.662725398266013 -1.4030778634356604 2.2043213136048267 1 0 0
32 7 3 0 -1.487058134067277 -1.1078321801882036 2.0146108432837435 1 0 0
31 7 1 0 -1.3137051369944355 -0.8217920921745261 1.7115780650229633 1 0 0
35 7 3 0 -1.0715265966416139 -0.5280482096456587 1.9158579725554032 1 0 0
556 152 4 0 -1.9323037900925994 -3.3601348245058418 3.381776091468182 1 0 0
172 35 3 0 -1.6055607766170161 -3.188706030553142 3.2434026770256326 1 0 0
554 152 2 0 -2.091885738100329 -3.050132361644853 3.6984884303365275 1 0 0
171 35 1 0 -1.3282704996031791 -2.9431831377618827 2.9622537692118938 1 0 0
541 147 4 0 -0.06240087384392634 -4.272059628247889 2.9586432379882446 1 0 0
546 149 4 0 -0.1621754359861285 -3.910177817823903 3.12446282812349 1 0 0
545 149 2 0 -0.4153896568826294 -3.541266784615864 3.2328419886322033 1 0 0
547 149 4 0 -0.6623466155161233 -3.1694766847703484 3.353112376462989 1 0 0
43 9 3 0 -0.6925709819238342 -0.2553587138291009 4.485618711680167 1 0 0
173 35 3 0 -0.8996545005141288 -2.9112536221468237 3.155596072324018 1 0 0
340 80 4 0 -3.3855587774230567 -2.127976453353063 4.017552077123997 1 0 0
338 80 2 0 -3.1371388069574926 -2.2733628480977566 4.349635002032101 1 0 0
555 152 4 0 -2.2379570420706822 -2.744248453681712 4.005828100120687 1 0 0
144 29 3 0 -2.0961828720749236 -2.5012142843426766 4.293192799534753 1 0 -1
320 74 2 0 -2.1024151106957216 -1.97644643232677 3.6931815722632058 1 0 0
322 74 4 0 -2.2118876380112695 -2.3547134191223917 3.952829535931097 1 0 0
321 74 4 0 -1.999505374632006 -1.6017521587319679 3.4439036257452287 1 0 0
319 73 4 0 -1.8952294167329664 -1.4328101967050362 3.0861641879076336 1 0 0
559 153 4 0 -0.7350524800116065 -2.813105290862464 3.526360349138037 1 0 0
557 153 2 0 -0.5510585649190465 -2.6571985460705143 3.9480408276274597 1 0 0
558 153 4 0 -0.37007356103804945 -2.4962099317973765 4.367695169360927 1 0 0
525 142 4 0 -0.20626680849999168 -2.1434823174359723 4.460748203586983 1 0 -1
352 84 4 0 -3.2223111173153605 -0.8309545982430553 3.286450984207975 1 0 0
305 69 2 0 -3.016373639033757 -0.2538471939289204 3.926968824256149 1 0 0
306 69 4 0 -3.16464657539745 -0.571944088578102 3.590972207578621 1 0 0
315 72 4 0 -1.6944130672747968 -1.374317208708976 3.413805567036772 1 0 0
354 85 4 0 -2.859082329204047 -0.726990102963335 3.3882386429070204 1 0 0
353 85 2 0 -2.444475915178277 -0.97971084833627 3.3743552020925476 1 0 0
355 85 4 0 -2.0498812187285322 -1.2208063530052895 3.3684792706244417 1 0 0
337 79 4 0 -4.341458641862312 -1.6482530713066041 1.2889120332696429 1 0 0
357 86 4 0 -0.5661325435641174 -0.8353256616817264 3.7371513109426244 1 0 0
316 72 4 0 -0.9179636773656021 -1.0268512315929206 3.8202654317765115 1 0 0
45 9 3 0 -0.6873345300837044 -0.9013874268644422 4.115062661716748 1 0 0
356 86 2 0 -0.1754474933698278 -0.7473820722161917 3.5255959090839832 1 0 0
314 72 2 0 -1.311960387530216 -1.1959912928850356 3.616891628112776 1 0 0
430 110 4 0 -0.379601508745961 -0.046248527141526274 4.477149158133499 1 0 0
539 147 2 0 -0.3108489302482704 -4.432035961453046 2.5968023546072887 1 0 0
514 138 4 0 -2.058631473162115 -4.458672425028442 2.0582580498312604 1 0 0
148 30 3 0 -2.269884558769057 -0.2718098665546673 0.05640981772337206 2 0 0
146 30 1 0 -2.712117566436826 -0.11887294127291614 0.03036389891159441 2 0 0
22 5 3 0 -3.1191610470593023 0.09390952787248974 -3.7506758655955497 1 0 1
651 184 4 0 -2.083349399804107 0.47216265966543247 -3.6933802647567315 2 0 1
652 184 4 0 -1.8473476382406089 1.2855892345989206 -4.065853625208301 2 0 1
650 184 2 0 -1.9672776722802685 0.8686771509878959 -3.8788008897193063 2 0 1
104 21 3 0 -1.5963445121841366 1.2632716169840732 -4.366949121069656 1 0 1
25 5 3 0 -2.3736463848397245 0.17922762793107516 -3.73669151021381 1 0 1
304 68 4 0 -0.70525906454814 0.49552003899818153 -3.442605453362465 1 0 0
302 68 2 0 -0.6844904915238152 0.2752858018744755 -3.862094498500675 1 0 0
381 94 4 0 -0.3813029007318729 0.3096807664332202 -3.24693646683553 1 0 0
303 68 4 0 -0.6600384249181097 0.0619857447732679 -4.271166850884746 1 0 0
595 165 4 0 -1.5037401900579423 1.4705791208995285 -4.0594514107074735 2 0 0
593 165 2 0 -1.2702262000336493 1.7234780336694957 -3.721901830066637 2 0 0
594 165 4 0 -1.0463143919859013 1.963702688435169 -3.3829987611224417 2 0 0
63 13 3 0 -0.712014729153231 2.1690029267005793 -3.37751863946522 1 0 0
62 13 3 0 -0.22161398717998093 2.7118153081535006 -3.365145842985461 1 0 0
61 13 1 0 -0.3069775243378139 2.253970726375294 -3.45862380484202 1 0 0
426 109 4 0 -0.24507066249677134 1.9338343506419724 -4.185386861064178 1 0 1
64 13 3 0 -0.21549523538583415 2.1654005287802844 -3.884277076448329 1 0 0
65 13 3 0 -0.04131351175640319 2.006120425734797 -3.1907436941626104 1 0 0
425 109 2 0 -0.46861676694985555 1.7148048513023264 -4.480351153601232 1 0 1
533 145 2 0 -0.20441208664742128 3.8736601358790432 -3.0635647114121656 1 -1 1
372 91 4 0 -3.0692631083650648 0.13548689035386907 -2.1574028078593543 1 0 0
282 61 4 0 -2.652372593646616 0.11236897684533886 -2.163126923721324 1 0 0
380 94 2 0 -0.18199442149414669 0.5677656350397609 -2.9102424777584748 1 0 0
286 62 4 0 -0.6449705264579677 0.04380502602957037 -1.552448722443831 1 0 0
78 16 3 0 -0.6611293403344303 2.9256604984395223 -1.1665566120057553 1 0 0
13 3 3 0 -0.062096435272149364 0.7722819255125719 -2.1863872128663457 1 0 0
399 100 4 0 -0.16023041828583473 1.1366170471072783 -2.3606688658618427 1 0 0
11 3 1 0 -0.033711144572126095 0.40503329619161654 -1.8776662990940594 1 0 0
15 3 3 0 -0.45827798135284237 0.12292403346756231 -1.9016103831811808 1 0 0
583 161 4 0 -2.67718979044988 2.852318277871821 -1.5540233101400864 2 0 0
612 171 4 0 -2.4065673493164628 3.0989773733255603 -1.7807604818219636 2 0 0
363 88 4 0 -0.9682691048443886 2.225901403680038 -3.082651266609892 1 0 0
362 88 2 0 -0.9793980660394923 2.34834739731843 -2.6154540261615216 1 0 0
364 88 4 0 -0.9917034369015196 2.461879899215437 -2.1762969165003736 1 0 0
398 100 2 0 -0.16827394291026465 1.5714426042056084 -2.599533788522514 1 0 0
79 16 3 0 -0.7499242591845814 2.673639337160658 -1.8800691707792652 1 0 0
400 100 4 0 -0.16788897049962515 1.9671259455002383 -2.823442496971813 1 0 0
76 16 1 0 -0.43885498930463207 2.7415762576746525 -1.5606270660389194 1 0 0
579 160 4 0 -0.1408629842309006 2.89831437464278 -3.022032010457367 2 0 0
77 16 3 0 -0.13514999074446088 3.0186705441234247 -1.7067382284086912 1 0 0
267 56 4 0 -4.017624839387472 4.463361542865498 -1.7241336236083864 1 -1 0
264 55 4 0 -4.304331780275047 4.202256783355197 -1.5155710767566926 1 -1 0
611 171 2 0 -2.051435891603939 3.388301645693214 -1.961502524099529 2 0 0
613 171 4 0 -1.7001890529948933 3.67000587466591 -2.1355382380993753 2 0 0
578 160 2 0 -0.06908825465412871 2.9531996171526087 -2.5617390775940736 2 0 0
137 28 3 0 -1.4578142819400624 3.9829732149486636 -2.2878035264006535 1 -1 0
139 28 3 0 -1.16982549308743 4.063186123864276 -2.9685139783356704 1 -1 0
136 28 1 0 -1.1162952907094743 4.184772135990179 -2.5570753012440153 1 -1 0
138 28 3 0 -0.6892821948770149 4.043994744970791 -2.409014761364322 1 -1 0
534 145 4 0 -0.40890849566057685 4.101365402507645 -2.704914827752752 1 -1 1
552 151 4 0 -0.3568565239878865 4.191866116987032 -2.2953688072696106 1 -1 1
507 136 4 0 -3.886441616535938 3.6919164455075224 -0.3305341173154934 1 -1 0
147 30 3 0 -2.7173106274480805 0.28656624164385036 -0.1492149561415319 2 0 0
125 25 3 0 -3.4426058400849193 1.4546577134137726 -0.5975458406615424 1 -1 0
124 25 3 0 -4.152922174840392 1.6587906080494816 -0.6406578649696124 1 -1 0
121 25 1 0 -3.6983433224521294 1.7988953048079024 -0.6260895694668589 1 -1 0
122 25 3 0 -3.588940084333098 2.037762648362489 -0.996984639358268 1 -1 0
582 161 4 0 -3.291559758158418 2.239675955777906 -1.216655780574226 2 0 0
123 25 3 0 -3.642483293057614 2.058307800864669 -0.2646576564027008 1 -1 0
406 102 4 0 -0.10820823816909009 2.157440489315495 -1.121148194372159 1 0 0
581 161 2 0 -2.98709783282976 2.5467017939320655 -1.3827621255961082 2 0 0
68 14 3 0 -0.08946625781978579 1.5741097431872442 -0.18324482584368873 1 0 0
80 16 3 0 -0.24239694341433538 2.335378326503747 -1.4676905297650369 1 0 0
279 60 4 0 -3.65651839541408 3.933767547932404 -0.5465052600692637 1 -1 0
278 60 2 0 -3.770956519177756 4.069411007186797 -0.9816206989892695 1 -1 0
280 60 4 0 -3.898784267092781 4.200164347630934 -1.4394612683534143 1 -1 0
535 145 4 0 -0.015603547129257045 3.653723652608602 -3.4017166147956654 1 -1 1
580 160 4 0 -0.009960721926332461 3.0157804255564864 -2.0784665439845034 2 0 0
625 175 4 0 -4.455654236094694 1.3709306943456294 -0.7074274318016314 2 0 0
404 102 2 0 -0.024429751418836965 2.054750214704277 -0.6638635560709285 1 0 0
562 154 4 0 -3.462682879102344 0.8073014865493313 0.8364326537596396 2 0 0
560 154 2 0 -3.2907563864450387 0.3715134410321488 0.7952368113508586 2 0 0
395 99 2 0 -1.5159534866907047 0.09824044911596097 0.23161861336126766 1 0 0
10 2 3 0 -0.7103925940631726 0.34396937480153067 0.2823719752290268 1 0 0
479 127 2 0 -0.3945661084822474 1.4502180880412832 1.2591608958422027 1 0 0
6 2 1 0 -0.31788011083993517 0.15885339024947864 0.13331645871588282 1 0 0
70 14 3 0 -0.044197856389383006 0.8787563434958221 0.07794288128965388 1 0 0
66 14 1 0 -0.2524125599770555 1.2753171441351894 0.13828240130841962 1 0 0
67 14 3 0 -0.6771967824453986 1.2280626849292977 0.09672496093549299 1 0 0
396 99 4 0 -1.08678177365075 0.24889973380307318 0.35364342578624886 1 0 0
238 48 3 0 -3.7171467804276697 2.8176909321854913 1.0926744489316107 2 0 0
531 144 4 0 -3.3575611603139106 2.792578527870197 0.8441430376542263 1 -1 0
530 144 2 0 -3.397665551603956 2.537391507235424 0.44386389036608964 1 -1 0
69 14 3 0 -0.16156699104160133 1.4248108057163638 0.5423403187793943 1 0 0
480 127 4 0 -0.17872245091040195 1.57771341090585 0.9047952487784485 1 0 0
53 11 3 0 -0.04130646121195625 2.5258953720211013 0.48280660097546235 1 0 0
240 48 3 0 -4.448891512690169 2.99496834522302 0.9495701642057828 2 0 0
207 42 3 0 -3.060232696942756 3.0418710944559235 1.010619093744876 2 0 0
206 42 1 0 -3.07760572257693 3.51361786910691 0.9334843178591106 2 0 0
210 42 3 0 -3.5338184155138053 3.648006410717607 0.8850837543707426 2 0 0
506 136 2 0 -3.8438401806914335 3.7109887735153633 0.11687339343981318 1 -1 0
508 136 4 0 -3.7939024830657413 3.7317055624126985 0.5945433230116306 1 -1 0
237 48 3 0 -3.9275625215530034 3.544336313910807 0.9134387175900693 2 0 0
236 48 1 0 -4.063309972953365 3.1473012252034858 1.1298547896806452 2 0 0
208 42 3 0 -2.8759647000781436 3.7385823035456474 1.3187480280726538 2 0 0
209 42 3 0 -2.858955778873205 3.6233586038173717 0.5513236134823858 2 0 0
513 138 4 0 -2.607856149823699 4.043457576964271 1.4644864894268563 1 -1 0
637 179 4 0 -0.404263009723115 3.3957344561661342 1.4334706617230362 2 0 0
645 182 4 0 -4.31446651129294 0.7793709175928791 1.7675763973724443 2 0 0
646 182 4 0 -3.5636974756492377 1.2525349090070304 1.9626963788756093 2 0 0
419 107 2 0 -3.1724523260864586 1.2700157694947638 2.5856224713182225 1 0 0
644 182 2 0 -3.936428812509652 1.0167111496687662 1.8577996620328383 2 0 0
420 107 4 0 -3.220116192415653 1.3739575102399249 2.1640986042120653 1 0 0
447 116 4 0 -0.9555778432962563 0.9235176530136586 2.769929798641865 1 0 0
481 127 4 0 -0.6239070534166027 1.3218884089950178 1.6301515740331487 1 0 0
446 116 2 0 -0.9041740310055095 1.0069084439012244 2.340264787045366 1 0 0
448 116 4 0 -0.8524422141345416 1.0937770448957664 1.9067410486281782 1 0 0
618 173 4 0 -3.5132792354409506 2.956488701176693 3.0254440585504563 2 0 0
564 155 4 0 -3.832401859495724 2.9555579898324913 2.765845051614243 1 -1 0
414 105 4 0 -0.03943826500008907 1.6086318376865316 2.744104488419283 1 0 0
168 34 3 0 -2.154670577433032 4.185057011362885 3.1935749834405796 1 -1 0
476 126 2 0 -0.04884864851700055 2.9937598676364123 2.360878152146486 1 0 0
563 155 2 0 -4.033255833551869 3.046891851228003 2.3412600339404213 1 -1 0
239 48 3 0 -4.130860261115272 3.234272660053663 1.5787534358853499 2 0 0
617 173 2 0 -3.1187982632814775 3.20540068377003 2.914659941677792 2 0 0
565 155 4 0 -4.217308740770747 3.1368471781901057 1.95318054359395 1 -1 0
331 77 4 0 -4.322958138800764 3.498092246543841 1.82145676423543 1 -1 0
512 138 2 0 -2.3453685922954333 4.2746656270126655 1.7497669281679897 1 -1 0
167 34 3 0 -2.4767998540710425 3.7347668584996034 2.6673358693501266 1 -1 0
232 47 3 0 -4.458567599847832 0.29183660925743293 3.321507422883257 2 0 0
166 34 1 0 -2.0869518780937697 4.012250734894738 2.7801904006238756 1 -1 0
170 34 3 0 -2.0319993216989065 4.382933682393921 2.4323022390405074 1 -1 0
538 146 4 0 -1.700678266240387 4.471415233064387 2.2307437022797245 1 -1 0
169 34 3 0 -1.7019510224072665 3.7438946338701617 2.787456770303492 1 -1 0
619 173 4 0 -2.7267938028862826 3.448722534086202 2.813443548617216 2 0 0
325 75 4 0 -1.3131427094466188 3.6345799891936315 2.8917513349789337 0 -1 0
536 146 2 0 -1.2457121109839173 4.3450202598866285 2.1184756720462667 1 -1 0
323 75 2 0 -0.866925756856523 3.5058630432968707 2.829275360420832 0 -1 0
115 23 3 0 -0.08616637003139882 3.497608196393455 2.900365248261104 1 0 0
537 146 4 0 -0.8322522685173803 4.219400852173245 2.0086718885226 1 -1 0
540 147 4 0 -0.557030787930616 4.393735740757422 2.2401482618124993 1 -1 0
636 179 4 0 -0.45279534745949235 4.120179807125754 1.9897776507024165 2 0 0
324 75 4 0 -0.4381047707633927 3.3778524697093424 2.762276676631102 0 -1 0
477 126 4 0 -0.12507532575308744 3.3995323090001808 2.530422127339146 1 0 0
635 179 2 0 -0.4251498684462387 3.7561954555952104 1.7086300932963683 2 0 0
643 181 4 0 -3.9088844589180174 3.0605487088938803 3.1424397897114975 2 0 0
179 36 3 0 -0.5680857687525314 4.483341217357252 1.8585852557571645 1 -1 0
421 107 4 0 -3.1178491559415917 1.1578618561663792 3.0372105226763564 1 0 0
634 178 4 0 -4.084286280448507 0.49131999276788285 3.42697642970471 2 0 0
632 178 2 0 -3.684282641520846 0.7084617939857996 3.3692872650640835 2 0 0
633 178 4 0 -3.2915654278929223 0.9367247276010877 3.3204802904562776 2 0 0
293 65 2 0 -3.0797884398279383 0.7476745142535322 4.383402673289878 1 0 -1
294 65 4 0 -3.321415014425691 1.1164079172796972 4.2815811062772875 1 0 -1
622 174 4 0 -2.9160540458522313 1.050445278338704 3.3474920619169026 2 0 0
295 65 4 0 -2.816821122775154 0.3598165114321352 4.484124985012097 1 0 -1
164 33 3 0 -1.7432276957651585 0.22055498341386048 3.144705468607383 2 0 0
620 174 2 0 -2.491489697918004 1.1112583400306448 3.470539439082896 2 0 0
326 76 2 0 -2.0814932874719565 0.25232426289510457 4.189437825382352 1 0 0
327 76 4 0 -1.6488770104662644 0.35918873119919237 4.008117750842216 1 0 0
163 33 3 0 -1.8267838973746482 0.9562340493473274 3.305108713139842 2 0 0
161 33 1 0 -1.5249327915344932 0.5853087896786748 3.292139466450096 2 0 0
621 174 4 0 -2.029509848632758 1.174953616937973 3.603940500603799 2 0 0
103 21 3 0 -1.781363268247126 1.374091925045004 3.8715403526388394 1 0 0
328 76 4 0 -2.492071551790176 0.14254125210624569 4.349398674238155 1 0 0
472 124 4 0 -0.7594455395349953 1.396739476426812 3.811516051595045 1 0 0
101 21 1 0 -1.465418066625416 1.191810896501976 4.163796940525404 1 0 0
102 21 3 0 -1.4252748345770092 0.7272075827383171 4.072541944368823 1 0 0
165 33 3 0 -1.3576577706583102 0.49258386613296423 3.7234420850062078 2 0 0
162 33 3 0 -1.196773391833124 0.6693161511661501 3.0267194937130784 2 0 0
105 21 3 0 -1.0783531162827273 1.3953505779115671 4.091720476339151 1 0 0
471 124 4 0 -0.23138510049576322 1.5541473400822676 3.0745167597637018 1 0 0
470 124 2 0 -0.5035426261876279 1.479662158040477 3.44842260721422 1 0 0
640 180 4 0 -3.812907911971598 2.696941586710494 3.057917477787223 2 0 0
639 180 4 0 -4.478235722111198 1.9674743342125138 3.212492853097368 2 0 0
638 180 2 0 -4.165892594966833 2.3234070640706985 3.1392785854177765 2 0 0
427 109 4 0 -0.7015524921012037 1.47737722447798 4.198766008629984 1 0 0
642 181 4 0 -4.2912771553430895 3.6888033505264053 3.663480780715715 2 0 0
641 181 2 0 -4.099074300270325 3.3685966382339965 3.401054887259786 2 0 0
307 69 4 0 -2.8752523467107003 0.04969436905878233 4.246351748255184 1 0 0
532 144 4 0 -3.4399676164459874 2.2767556338293717 0.028006114957029205 1 -1 0
155 31 3 0 0.5752285339304102 -4.057017917771655 -3.2526672489625073 1 0 0
271 57 4 0 0.5452949765949562 -4.225001154497823 -3.6113069287594777 0 0 0
269 57 2 0 0.43481636192066553 -4.273623622859699 -4.055297576436064 0 0 0
270 57 4 0 0.3244678761824291 -4.3153219826005715 -4.494077148046208 0 0 0
523 141 4 0 0.6789996497667969 -2.2570954627275626 -3.2656895988680157 1 0 0
495 132 4 0 0.393099183807756 -2.4455118364830972 -3.4919756771574453 1 0 0
135 27 3 0 0.3762874841701871 -2.4860781425853418 -3.0920044246471514 1 0 0
494 132 2 0 0.14125276738743064 -2.4515392904571094 -3.893781572804824 1 0 0
245 49 3 0 0.7773868871340941 -0.20284687361995601 -4.0391249123741355 1 0 1
241 49 1 0 1.0775614195514773 -0.048363724435101396 -4.336449298652452 1 0 1
205 41 3 0 2.9463480363609076 -0.060658585103884555 -0.3866960079043684 1 0 0
601 167 4 0 2.7563453831193554 -0.23732804421019704 -3.2347753715494014 1 0 0
299 67 2 0 3.3453392182760284 -4.421707878824191 -1.5833931860727875 0 0 0
153 31 3 0 0.916280533445871 -3.5799761290459595 -2.810404200470579 1 0 0
486 129 4 0 1.000235892600994 -3.201669389745491 -2.652914586993278 1 0 0
151 31 1 0 0.5449907342279374 -3.8177525337291964 -2.873974114066863 1 0 0
485 129 2 0 1.2630458233003417 -3.036149080128814 -2.3064524493294276 1 0 0
154 31 3 0 0.4759976636865435 -4.099938530813171 -2.515906939540411 1 0 0
553 151 4 0 0.3972418016374082 -4.293717700026633 -2.1665487306331372 1 0 1
152 31 3 0 0.19214681800126332 -3.524876593141677 -2.8983142886239284 1 0 0
346 82 4 0 3.5478740413127428 -4.2062663336021355 -2.9507256108017454 0 0 1
58 12 3 0 3.3507747167347457 -3.341580198824986 -2.50941505334331 1 1 0
300 67 4 0 3.2286843779486896 -4.024646104417605 -1.7842910909699032 0 0 0
409 103 4 0 3.2631391627513953 -3.63654437668915 -1.7601699782970393 1 1 0
57 12 3 0 4.077341304849912 -3.3666086182230366 -2.272201000670708 1 1 0
56 12 1 0 3.6805008348933663 -3.6184427601273503 -2.366049299973445 1 1 0
60 12 3 0 3.5287361481353203 -3.8161272610825288 -1.9888602047390296 1 1 0
59 12 3 0 3.7760311289344886 -3.9590883990801453 -2.709252612998011 1 1 0
385 95 4 0 4.185426335178769 -3.0995899708020174 -1.9630011429788725 1 1 0
89 18 3 0 4.3823165777249065 -3.0523829895379557 -2.3170537605570725 1 1 0
521 141 2 0 1.0562338866481955 -2.023701877743423 -3.024135141382566 1 0 0
132 27 3 0 0.6374398625504849 -2.974871882067488 -2.608130257150881 1 0 0
522 141 4 0 1.4121619790520121 -1.8102498548398698 -2.8027939467883063 1 0 0
131 27 1 0 0.27368822591231634 -2.8001600030363556 -2.7716476399513867 1 0 0
487 129 4 0 1.527868987690959 -2.876084899498455 -1.962633766111705 1 0 0
484 128 4 0 1.782919862384305 -1.579689061234692 -2.679254633211134 1 0 0
383 95 2 0 4.189976095831718 -2.9878484556896963 -1.5138746200617943 1 1 0
509 137 2 0 4.4354686043104214 -1.7598763146893135 -2.5115057055990566 1 0 0
272 58 2 0 0.28077315513893364 -0.543009606956947 -2.4017775449877763 1 0 0
274 58 4 0 0.43977179506322983 -0.23450889651763962 -2.0433028937164432 1 0 0
273 58 4 0 0.1421566729460748 -0.8085956264310581 -2.7119704855995073 1 0 0
482 128 2 0 2.1931365607340725 -1.3703644701499682 -2.5354731272443036 1 0 0
483 128 4 0 2.612146378555056 -1.1559031154470003 -2.3837385190264966 1 0 0
606 169 4 0 2.7881567252182915 -0.9097966826056512 -2.120231326675424 1 0 0
600 167 4 0 2.8346722356515075 -0.848209128464898 -2.512275167692512 1 0 0
605 169 2 0 2.8144539087542615 -0.555995908629261 -1.7507587010841879 1 0 0
599 167 2 0 2.7995440646458665 -0.535680883730957 -2.878161735387712 1 0 0
261 54 4 0 3.011231858056644 -1.1621615253861663 -2.352404524540507 0 0 0
260 54 2 0 3.4725454501368604 -1.1692222758721331 -2.314655284683299 0 0 0
511 137 4 0 4.248607592407331 -1.3964019619383756 -2.2992704431573547 1 0 0
262 54 4 0 3.928264231713311 -1.1688794972522056 -2.2591838597097733 0 0 0
585 162 4 0 4.309605057464744 -0.9949985999801236 -2.222846703555592 1 0 0
403 101 4 0 1.19089237386551 -4.418256889118436 -1.0101354729032863 1 1 0
408 103 4 0 2.9108602547642866 -3.0303274813895658 -1.184762953523733 1 1 0
407 103 2 0 3.0855850127649607 -3.3409490973966163 -1.4745355247672007 1 1 0
194 39 3 0 3.356094384414269 -2.1848236365109663 -0.9185295628204839 2 1 0
195 39 3 0 3.1223737863610745 -2.888891476931832 -0.8806648842008782 2 1 0
193 39 3 0 3.4768717009744803 -2.591766498934132 -0.28613530664432396 2 1 0
191 39 1 0 3.4464333348640945 -2.6045786879292945 -0.7634953097438686 2 1 0
291 64 4 0 3.622659164917633 -2.8585169593115873 -0.024622983028648626 0 0 0