LAMMPS data file via write_data, version 29 Aug 2024, timestep = 900000, units = lj

664 atoms
4 atom types
476 bonds
1 bond types
438 angles
2 angle types

-4.496439 4.496439 xlo xhi
-4.496439 4.496439 ylo yhi
-4.496439 4.496439 zlo zhi

Masses

1 1
2 1
3 0.1
4 0.1

Bond Coeffs # harmonic/omp

1 100 0.45

Angle Coeffs # harmonic/omp

1 100 180
2 100 109.471

Atoms # full

2 1 3 0 -3.1966559136249653 -3.9762395969915003 -3.543769036151495 0 0 0
5 1 3 0 -2.8410988903261813 -4.132899386045834 -4.178929393153597 0 0 0
4 1 3 0 -2.5231943928404634 -4.259026182561426 -3.534211930405677 0 0 0
3 1 3 0 -2.5894073285363217 -3.562229748511103 -3.7617310543363756 0 0 0
1 1 1 0 -2.787054415623339 -3.991098275817495 -3.7579506004933414 0 0 0
90 18 3 0 -2.395930552688015 -4.25671362752495 -3.1988814294774985 0 1 0
361 87 4 0 -2.4470096244079325 -3.237354832039319 -3.920416427724683 0 0 1
22 5 3 0 -3.0190417405071965 -2.0460580041390304 -4.052296866754421 0 0 1
487 129 4 0 -4.187517185605643 -2.13259695133163 -2.9165378248420235 1 0 0
286 62 4 0 -1.0461130352326755 -0.6017564927761782 -1.4576327396264583 0 0 0
489 130 4 0 -3.800658578388881 -2.2457689996530616 -2.797296073949354 1 0 0
488 130 2 0 -3.3820063889546033 -2.3173754202513592 -2.6467521513355714 1 0 0
23 5 3 0 -2.280843915166745 -1.9243433440401003 -4.140294604695648 0 0 1
359 87 2 0 -2.330023490348178 -2.7855289574653517 -4.049997075174307 0 0 1
360 87 4 0 -2.2199800936727145 -2.338373238993258 -4.163123565773683 0 0 1
347 83 2 0 -1.4641559260837165 -1.9532746237945673 -4.115622894094853 0 0 1
349 83 4 0 -1.8982871786295727 -2.0735513001455037 -4.181967468414074 0 0 1
21 5 1 0 -2.720902949539841 -1.7375712156388246 -4.1887344751143765 0 0 1
348 83 4 0 -1.0460538032351896 -1.8314698138155914 -4.056435884281959 0 0 1
42 9 3 0 -0.6612093641822498 -1.7896693853316747 -4.112516215675125 0 0 1
44 9 3 0 -0.08389390122400454 -1.338910586051243 -3.922125634198193 0 0 1
253 51 4 0 -0.0776824015123125 -1.1500060065918485 -3.569464680570972 0 0 0
41 9 1 0 -0.3771413745179591 -1.4337387660367653 -4.248358681438892 0 0 1
650 184 2 0 -2.8048477606509876 -0.6145786101287583 -3.8524304416674098 1 0 1
651 184 4 0 -2.8863398978732526 -1.045441786496166 -3.7272131479895765 1 0 1
25 5 3 0 -2.7596473586843207 -1.3606960159192965 -3.9381664443845947 0 0 1
652 184 4 0 -2.7318179560322577 -0.19019071934672735 -3.9816135272005067 1 0 1
251 51 2 0 -0.1461966979693624 -1.2313758525467833 -3.1199580312410102 0 0 0
302 68 2 0 -0.9835718644839644 -0.5512208027748786 -3.847670110722807 0 0 0
303 68 4 0 -0.8317660762283946 -0.7621864078306739 -4.21388435447791 0 0 0
43 9 3 0 -0.6102036586044387 -1.0742740792107504 -4.326956488001812 0 0 1
304 68 4 0 -1.1306816216972178 -0.34304332944323046 -3.4744268038338153 0 0 0
409 103 4 0 -1.4452357588819187 -4.353893652642636 -1.606246620847181 0 1 0
381 94 4 0 -0.8765155459495869 -0.06119051109394869 -3.2981508981704697 0 0 0
87 18 3 0 -2.320799587258636 -3.661489089048234 -2.7979465946731525 0 1 0
256 52 4 0 -2.2279672606624996 -3.320367701067706 -2.9291634393806842 0 0 0
86 18 1 0 -2.258506679438359 -4.084626516878984 -2.795793417057314 0 1 0
89 18 3 0 -2.4989475441813815 -4.2859029355412 -2.450711162738903 0 1 0
383 95 2 0 -2.709845313722505 -4.474072866241002 -1.8567458056124853 0 1 0
88 18 3 0 -1.8078366888125952 -4.175315423020403 -2.7361658754363454 0 1 0
490 130 4 0 -2.9695517815475725 -2.385374903865822 -2.493833586677752 1 0 0
254 52 2 0 -2.444008956244525 -2.9636161056400643 -2.701151500520584 0 0 0
255 52 4 0 -2.650777875000628 -2.624943164360411 -2.49038407790972 0 0 0
289 63 4 0 -2.5878794438339336 -2.231682471376177 -2.437593735868315 0 0 0
287 63 2 0 -2.407693886984228 -1.7890679047663842 -2.311514566237866 0 0 0
288 63 4 0 -2.2432862429779266 -1.3949397051322707 -2.214853055141645 0 0 0
281 61 2 0 -2.7455552861912227 -0.79763437259334 -2.0523273794459693 0 0 0
259 53 4 0 -2.0104099104687556 -1.106678610552426 -2.071899319284244 0 0 0
283 61 4 0 -2.3650832328765454 -1.0246780735021652 -2.1893726151975685 0 0 0
257 53 2 0 -1.6036677023244104 -0.883733508659041 -1.9463223968038852 0 0 0
258 53 4 0 -1.2126030822202736 -0.6668697530886097 -1.8275044134489347 0 0 0
274 58 4 0 -0.07483730340626572 -0.338524826821429 -1.8725775850585817 0 0 0
15 3 3 0 -0.9706704283100287 -0.3342662185512522 -1.746411659435031 0 0 0
9 2 3 0 -0.880518991425328 -0.6567534783069742 -0.22458396903270797 0 0 0
252 51 4 0 -0.21995965950891702 -1.3171470208558953 -2.6829413969945204 0 0 0
193 39 3 0 -3.026942706177069 -4.141899355929281 -0.5706696716194372 1 1 0
408 103 4 0 -2.0397280984037955 -3.953953943799694 -1.0495099590333135 0 1 0
291 64 4 0 -3.0808145419913684 -4.11672149613485 -0.18591376419433056 0 0 0
195 39 3 0 -2.3715736031610932 -4.077439314651623 -0.8559977567916718 1 1 0
384 95 4 0 -2.9973153720673684 -4.388482138414392 -1.5211119817948922 0 1 0
273 58 4 0 -0.1083625729739167 -1.1059901787325512 -2.37282083595025 0 0 0
191 39 1 0 -2.7060129536422424 -4.356033302299645 -0.7601199048170145 1 1 0
407 103 2 0 -1.7571337385525623 -4.151128907389629 -1.318462783678645 0 1 0
372 91 4 0 -3.253741981271778 -0.6843672100440803 -1.5441545578005829 0 0 0
282 61 4 0 -3.140887150961729 -0.573524955916868 -1.913140577106452 0 0 0
371 91 2 0 -3.5066644178042625 -0.5531752971438554 -1.2023618721475497 0 0 0
285 62 4 0 -0.9047953674591288 -0.888852640610034 -0.5912411230704758 0 0 0
586 162 4 0 -4.104953656915231 -0.23275009301616578 -0.7429320207859837 1 0 0
373 91 4 0 -3.769960949391997 -0.4014571974277243 -0.8537156268399183 0 0 0
284 62 2 0 -0.9808160603005791 -0.7465155196785445 -1.0377662345089071 0 0 0
271 57 4 0 -4.492420801840475 -2.75961878394151 -4.308092059316243 0 0 0
272 58 2 0 -0.0856127509413256 -0.7253342824470531 -2.125546378171964 0 0 0
344 82 2 0 -1.3211580021571616 -4.440865760811877 -3.3501045890859067 0 0 1
59 12 3 0 -1.532245029067185 -4.394742325784268 -2.6395834686936146 0 1 0
346 82 4 0 -1.580243599065378 -4.330260702058384 -3.030161159174078 0 0 1
520 140 4 0 -3.7872069926199363 -0.15442852258348905 -0.5414451194376275 1 0 0
518 140 2 0 -3.536061954531929 -0.039588591284102866 -0.24045374819446194 1 0 0
290 64 2 0 -3.113797563802795 -3.7897212748647524 0.14927732656562742 0 0 0
292 64 4 0 -3.1339663025580844 -3.4827035957791534 0.4652120616784359 0 0 0
336 79 4 0 -3.1317327556801637 -3.1594588168397277 0.7178039958763706 0 0 0
178 36 3 0 -4.219811819658816 -1.6718658839369798 1.4279854966110483 1 0 0
335 79 2 0 -2.86338935387036 -2.8754641251576842 0.931503067478999 0 0 0
337 79 4 0 -2.56471342906381 -2.5674315122185476 1.1642605111771287 0 0 0
37 8 3 0 -2.496973873458643 -2.368912903068274 1.4979780307433714 0 0 0
40 8 3 0 -1.7744112754247896 -2.301585935234633 1.4056181712155955 0 0 0
36 8 1 0 -2.132810924343305 -2.1454592941668054 1.6301743175639865 0 0 0
31 7 1 0 -0.38191384827581115 -2.1387338332978065 1.460206333759602 0 0 0
35 7 3 0 -0.7418148049286092 -1.9425255434725355 1.5975279285130304 0 0 0
562 154 4 0 -4.012618200580155 -1.308879844189101 1.387527404960626 1 0 0
560 154 2 0 -3.6409356351516093 -1.0454287752891946 1.2663973751676885 1 0 0
561 154 4 0 -3.260187495505518 -0.7779822885114313 1.128992819486404 1 0 0
150 30 3 0 -3.302983082337974 -0.047905919636428894 0.4626431123072128 1 0 0
146 30 1 0 -3.02899891894401 -0.2001267753944505 0.7974408361329559 1 0 0
149 30 3 0 -3.023640431190859 -0.6540147288112437 0.8113177914881722 1 0 0
549 150 4 0 -2.8791704385606027 -0.7947433600645237 1.1664385787822902 1 0 0
548 150 2 0 -2.5196312278641186 -1.0995147284005844 1.2155665233833943 1 0 0
395 99 2 0 -1.9348763989960638 -0.4333378038060255 0.4739183856827941 0 0 0
396 99 4 0 -1.5674957124997235 -0.707320320111752 0.46650722845376547 0 0 0
332 78 2 0 -0.1300147519871659 -1.2075752675539977 0.807494822738851 0 0 0
333 78 4 0 -0.31180326799442915 -0.8665324870069012 0.5734172045803272 0 0 0
7 2 3 0 -0.5076026681306103 -0.5801964929613095 0.37799507398786747 0 0 0
10 2 3 0 -1.198252350283964 -0.5668515816127723 0.406779152150601 0 0 0
6 2 1 0 -0.8490621526621932 -0.45499051426526127 0.17281829460079887 0 0 0
8 2 3 0 -0.850868375165201 -0.0382770500438082 0.1295283907820802 0 0 0
636 179 4 0 -4.389914232944064 -2.554266703793908 1.8312859076743937 1 1 0
637 179 4 0 -3.735505793024512 -3.0890394096869285 2.071982546494642 1 1 0
635 179 2 0 -4.0680213561035865 -2.8189270058722924 1.958083192151662 1 1 0
38 8 3 0 -2.189425175819636 -1.699949292987108 1.5317559987976839 0 0 0
350 84 2 0 -2.0446419560380162 -2.329248681456436 2.7076709490530004 0 0 0
351 84 4 0 -1.7535836581641682 -2.2785973422555044 2.3454858979602498 0 0 0
39 8 3 0 -2.069460131805931 -2.2044774827750926 2.0780020393057814 0 0 0
32 7 3 0 -0.18977543017227905 -2.353342813103927 1.7918460737371975 0 0 0
317 73 2 0 -0.14838630015487114 -2.54007086814368 2.668802285553475 0 0 0
318 73 4 0 -0.184146151781168 -2.3807646672828224 2.2210027602360496 0 0 0
550 150 4 0 -2.162418779814174 -1.4053409317398229 1.2654677001034467 1 0 0
354 85 4 0 -0.9850572478988857 -3.400166869342093 3.473870137867735 0 0 0
269 57 2 0 -4.382148257962676 -2.390600979764485 4.443296261628045 0 0 -1
568 156 4 0 -4.286987672616064 -2.03102233963307 3.7970266505213854 1 0 0
294 65 4 0 -3.9604344099513176 -1.93594670229464 4.007505473361596 0 0 -1
293 65 2 0 -3.5357974140555775 -1.739019840696504 4.0521871094168445 0 0 -1
270 57 4 0 -4.285824686260202 -2.0418693415045683 4.1935147134319655 0 0 -1
295 65 4 0 -3.130920213079236 -1.5613108475752258 4.092279044891598 0 0 -1
307 69 4 0 -2.734486840329184 -1.6231527307042977 3.9528576728848273 0 0 0
352 84 4 0 -2.3310578359014866 -2.3705976489176033 3.060783982799645 0 0 0
305 69 2 0 -2.486757937366201 -1.8842758802010877 3.6740122998643603 0 0 0
306 69 4 0 -2.2257223655931604 -2.157059616874811 3.377136052113443 0 0 0
24 5 3 0 -2.810027294969869 -1.6422588545649681 4.34652899328553 0 0 0
45 9 3 0 -0.1521955676482142 -1.5524689999224557 4.371768282577669 0 0 0
319 73 4 0 -0.10529468370638563 -2.681339097984984 3.1135791098710155 0 0 0
353 85 2 0 -0.6651822138770701 -3.0726466691262027 3.4613054750658194 0 0 0
428 110 2 0 -0.24588908976221094 -0.3842833820864537 4.373935946516013 0 0 0
316 72 4 0 -0.2036793030517122 -1.7611293467633784 4.039784902946542 0 0 0
355 85 4 0 -0.32586939196178244 -2.7395085189529076 3.4561124871271165 0 0 0
315 72 4 0 -0.07698049060851606 -2.4438164526313435 3.4443420428985925 0 0 0
314 72 2 0 -0.1432608208967602 -2.096043733925133 3.7476267019491596 0 0 0
164 33 3 0 -3.1449528009959935 -0.38059855469480786 3.0797206460156583 1 0 0
161 33 1 0 -2.8954944694846194 -0.05800666640200694 3.291092740871182 1 0 0
165 33 3 0 -2.677888391490094 -0.24790501575669838 3.667625911392353 1 0 0
328 76 4 0 -2.8147232620749714 -1.29406223164634 4.172665796623483 0 0 0
327 76 4 0 -2.856876707097334 -0.43038733218994996 3.9597744246493507 0 0 0
102 21 3 0 -2.603725459824508 -0.13309761329261394 4.068361728523114 0 0 0
326 76 2 0 -2.8335825670845747 -0.8587395502674041 4.0674374113146605 0 0 0
33 7 3 0 -0.08871199946024107 -1.8298002824364161 1.296213048772085 0 0 0
34 7 3 0 -0.47791880370500656 -2.427399950583756 1.142952648300611 0 0 0
180 36 3 0 -4.482428504682307 -2.0937031211647286 0.885198228706712 1 0 0
147 30 3 0 -3.182651574880094 -0.04092347214147505 1.189326083397065 1 0 0
148 30 3 0 -2.5996531614678524 -0.04028857379377372 0.7235427347506979 1 0 0
397 99 4 0 -2.312542265843122 -0.13945222763948906 0.4687819697408478 0 0 0
430 110 4 0 -0.5354236221243481 -0.7159695403041324 4.487946607089185 0 0 0
595 165 4 0 -2.665462911884203 0.18465263832373005 -3.8493450987714044 1 0 0
104 21 3 0 -2.776819576515765 0.12518709323294971 -4.223826644956087 0 0 1
593 165 2 0 -2.641929369876387 0.5456631251007534 -3.5730775429239494 1 0 0
594 165 4 0 -2.615631324133878 0.8858768053034626 -3.2986118681490284 1 0 0
425 109 2 0 -2.209718427568822 1.1692025541233517 -4.35683509348555 0 0 1
63 13 3 0 -2.596865427277063 1.2700971810119823 -3.1839748266182832 0 0 0
65 13 3 0 -1.8689674993692493 1.4390858622435003 -3.0079591565442225 0 0 0
426 109 4 0 -1.996168474367883 1.3779875737027805 -4.011275614000311 0 0 1
435 112 4 0 -1.7655928485598218 1.6480808815489076 -3.867694137443505 0 0 1
64 13 3 0 -2.1362587010945457 1.5576717766968953 -3.7080671227980235 0 0 0
61 13 1 0 -2.244181673809257 1.5641803451942629 -3.2671517165121036 0 0 0
226 46 1 0 -2.1168508295035737 2.6840970197861256 -3.249612323880013 1 0 0
228 46 3 0 -2.4107061745132503 2.3537504115889165 -3.097839570372363 1 0 0
62 13 3 0 -2.3746438431966688 1.9748324266083743 -3.151579729586267 0 0 0
229 46 3 0 -2.0694054176313017 2.6323231065754804 -3.6924454659711485 1 0 0
230 46 3 0 -1.6990081166676023 2.644258064713972 -3.034552539485368 1 0 0
433 111 4 0 -1.9515046860148966 2.689673557027689 -4.091766737370783 0 0 1
192 39 3 0 -2.868529387600488 4.4354007975351095 -1.177435120313323 1 0 0
434 112 2 0 -1.3828900258087669 1.8739080725036068 -4.08906991613426 0 0 1
436 112 4 0 -1.0114331665910679 2.0772175641543527 -4.304701299891985 0 0 1
374 92 2 0 -1.0221678489073895 2.9496421522252643 -3.270133853850852 0 0 0
375 92 4 0 -1.2891869986860154 2.637713537059841 -3.065204115337494 0 0 0
509 137 2 0 -2.2880657079469984 3.915554340673329 -3.343092906223624 1 -1 0
511 137 4 0 -2.2698325134351194 3.4704449260496326 -3.2866288648110324 1 -1 0
227 46 3 0 -2.288733790140055 3.092994187529611 -3.171817200990164 1 0 0
510 137 4 0 -2.2998114708273736 4.413840252657857 -3.40598412412384 1 -1 0
394 98 4 0 -0.3116909883411202 3.6394463238366237 -0.9455827142089787 0 0 0
109 22 3 0 -0.8581696704564986 4.184706268355903 -3.9771327734773183 0 0 1
108 22 3 0 -0.6229729464839568 3.5824681505337312 -3.704591391448922 0 0 1
106 22 1 0 -0.5615661593213127 3.8754014633867984 -4.0169221364646575 0 0 1
107 22 3 0 -0.11537295211935615 4.061271075250425 -3.963643208146326 0 0 1
376 92 4 0 -0.746647932434584 3.258022492115553 -3.4692406314024278 0 0 0
345 82 4 0 -1.029974418064543 4.433186104189846 -3.7160089749279783 0 -1 1
393 98 4 0 -0.6358142701219589 2.9114223572498883 -0.5003420393154504 0 0 0
110 22 3 0 -0.5992448323036019 3.6864296131347047 -4.399065235091176 0 0 1
364 88 4 0 -2.8086868400743685 0.9577379447545987 -2.026944364516341 0 0 0
362 88 2 0 -2.73865078386855 0.9735416418384168 -2.4880595239412426 0 0 0
363 88 4 0 -2.669548673532529 0.9806595056292285 -2.93104909821561 0 0 0
79 16 3 0 -2.5947740022807095 1.2100266951759615 -1.8175795576725027 0 0 0
398 100 2 0 -1.5581505296940001 0.9154326780364352 -2.4975977337180946 0 0 0
400 100 4 0 -1.8489270329453462 1.2427683403550627 -2.6624428944686604 0 0 0
399 100 4 0 -1.2328202585709316 0.5529006392699128 -2.3199489820390973 0 0 0
380 94 2 0 -0.8929546000601697 0.1550137992751486 -2.9141694827294895 0 0 0
382 94 4 0 -0.9143435987988979 0.39278044928168043 -2.5095493802120217 0 0 0
13 3 3 0 -0.93895520129995 0.3521104705331743 -2.1006903194643813 0 0 0
412 104 4 0 -0.8394703810234216 0.7078847006000761 -2.277163805267499 0 0 0
410 104 2 0 -0.5586895879647539 1.0808705709265272 -2.182306928097873 0 0 0
11 3 1 0 -0.74671328029749 0.08367626709201588 -1.753969616324635 0 0 0
411 104 4 0 -0.27563111892049025 1.4472773575135205 -2.0844041399151534 0 0 0
580 160 4 0 -2.696027473432644 2.1850992802861384 -1.8970973272437908 1 0 0
579 160 4 0 -2.4882318666441443 2.1359382111147447 -2.790284767962291 1 0 0
578 160 2 0 -2.5890716658987807 2.1603988308183326 -2.341457139881687 1 0 0
95 19 3 0 -1.6850340684746348 1.619391689359719 -2.6833718724673785 0 0 0
386 96 2 0 -1.4974800422144163 1.7147131369259474 -1.559813043672171 0 0 0
390 97 4 0 -2.6306101471871464 2.323173063722314 -1.5284457460722116 0 0 0
92 19 3 0 -1.4569854632806147 2.332712367383737 -2.8869527819683594 0 0 0
91 19 1 0 -1.3308500414930544 1.939409420888086 -2.6566601301681203 0 0 0
387 96 4 0 -1.1850484199646325 1.899052833695903 -1.8355097504621103 0 0 0
93 19 3 0 -0.942169751311382 1.7547966751241677 -2.8603198551773295 0 0 0
94 19 3 0 -1.2476277160509965 2.0272705470596044 -2.2082574745278873 0 0 0
84 17 3 0 -0.9200756082595313 2.097645051377663 -2.0659559051381096 0 0 0
213 43 3 0 -0.08541054842130019 1.591177662919793 -2.3977352855673946 0 0 0
81 17 1 0 -0.4700698911966216 2.1319714405109407 -1.8725460905346245 0 0 0
85 17 3 0 -0.17939261522064162 1.8348928290595248 -2.09869772618955 0 0 0
82 17 3 0 -0.3079266691320017 2.560332013448085 -1.9220522175055115 0 0 0
301 67 4 0 -0.5470460308482821 3.9358446554464432 -1.0803387403581894 0 -1 0
56 12 1 0 -1.583602351655842 4.2618771562649975 -2.2779414364569126 0 0 0
58 12 3 0 -1.4516167899206693 3.8562558435203402 -2.4257567211066755 0 0 0
57 12 3 0 -2.035316735509375 4.247926212755294 -2.1450443151771874 0 0 0
60 12 3 0 -1.315389910960562 4.390520203640702 -1.9136305162425555 0 0 0
385 95 4 0 -2.425591743506389 4.433252272435968 -2.182051230357725 0 0 0
299 67 2 0 -0.855294334035767 4.1443991976945735 -1.3098080720226153 0 -1 0
300 67 4 0 -1.1537839163147685 4.357278530730176 -1.5301896289309223 0 -1 0
265 55 4 0 -0.15715728359980535 3.9916244685061133 -1.024131983672111 0 -1 0
404 102 2 0 -1.9958138295119938 1.2934166472770339 -0.48901639125300544 0 0 0
80 16 3 0 -2.19297546434886 1.4717982375505976 -1.2285841931340482 0 0 0
406 102 4 0 -1.9249502668532814 1.4238032808383418 -0.9242913493126684 0 0 0
388 96 4 0 -1.8105000145316106 1.5349306550375996 -1.295590126082711 0 0 0
603 168 4 0 -0.7492307211914544 0.24866721302620848 -0.1302698727028813 0 0 0
12 3 3 0 -0.7850405395177321 0.28264269009632725 -1.3649595793917935 0 0 0
604 168 4 0 -0.5983581411632298 0.34857439159941234 -1.0097652959676502 0 0 0
602 168 2 0 -0.6661614429802694 0.2986403659238763 -0.5816410386114151 0 0 0
128 26 3 0 -0.19690710193421657 0.2523245930776698 -0.9951770940133097 0 0 0
76 16 1 0 -2.598651722432275 1.493585658538542 -1.4514902146888162 0 0 0
77 16 3 0 -2.6659822881349906 1.934045553715984 -1.5876387287503033 0 0 0
78 16 3 0 -2.9249834653124447 1.3744402778456548 -1.1758678051699918 0 0 0
389 97 2 0 -2.439760145669243 2.5772270329977975 -1.188833497865054 0 0 0
391 97 4 0 -2.23656839628267 2.8299316619681187 -0.8355121698005622 0 0 0
369 90 4 0 -1.9366200468600943 2.9556518826249207 -0.5782558956388489 0 0 0
368 90 2 0 -1.491017247593261 2.8848869206296293 -0.5523624863210659 0 0 0
370 90 4 0 -1.0119249000151969 2.8159705150404024 -0.5361104360082187 0 0 0
83 17 3 0 -0.48269728854525396 2.0207425053916688 -1.451629068173017 0 0 0
452 118 2 0 -0.2996105312467172 1.8497109029926833 -0.7301605090029468 0 0 0
453 118 4 0 -0.3599121942266778 1.7368937520571195 -1.1865529922354556 0 0 0
454 118 4 0 -0.2463020741113131 1.9587414056605992 -0.2659704807643068 0 0 0
72 15 3 0 -0.8021740733596199 2.6779349887944868 -0.22649264437292727 0 0 0
402 101 4 0 -2.2817428864887748 3.13949736560544 -0.5768089287337251 0 0 0
403 101 4 0 -2.672183158264007 3.9429909201121296 -0.42660667638924166 0 0 0
194 39 3 0 -2.555214737417926 4.320512356400008 -0.48459551927713773 1 0 0
401 101 2 0 -2.477682003526574 3.5519080283290987 -0.4957445808847912 0 0 0
392 98 2 0 -0.4692090688292031 3.295571593784288 -0.7353629832156702 0 0 0
14 3 3 0 -0.27253630977454596 0.01997317962775423 -1.847293781015162 0 0 0
450 117 4 0 -0.738172169032484 3.30710477930023 -4.424630791444372 0 0 1
405 102 4 0 -2.0559398688727155 1.173515610411332 -0.05545133394258793 0 0 0
449 117 2 0 -0.7685934357561569 2.8711756755963385 -4.444006543057753 0 0 1
451 117 4 0 -0.8048685049705386 2.373928970485249 -4.466502756478865 0 0 1
479 127 2 0 -2.9646549961409114 1.1029031420658075 1.3439600820605284 0 0 0
118 24 3 0 -0.011024732537409833 1.917090057033128 2.7870455829201437 0 0 0
519 140 4 0 -3.255113504604391 0.10485330465461451 0.09703289711382734 1 0 0
420 107 4 0 -4.454777776996523 1.0015982376796886 2.261381184741852 0 0 0
480 127 4 0 -2.8770408084086068 1.1372564567044927 0.8932494211591363 0 0 0
55 11 3 0 -2.710865088037106 1.291620164602596 0.5904313096825529 0 0 0
69 14 3 0 -2.606101276438752 0.9055143879190164 0.7494226506428097 0 0 0
66 14 1 0 -2.2658467797746313 0.6109169936382077 0.5574781887133837 0 0 0
70 14 3 0 -1.9345605262929897 0.5283024272281345 0.8622951146125344 0 0 0
67 14 3 0 -2.4673857334743774 0.21621033849915264 0.4432491952255507 0 0 0
475 125 4 0 -1.4265698600287828 3.2086227499836664 2.914670483003779 0 0 0
115 23 3 0 -2.4734221397118183 3.1725958104313623 3.022024865844473 0 0 0
114 23 3 0 -1.9878000305925692 3.637005615734703 3.363097361810569 0 0 0
68 14 3 0 -2.080857840036408 0.8186913849669469 0.16269813056760712 0 0 0
574 158 4 0 -0.4592904070189569 1.1390717584990486 0.5774982019764283 0 0 0
572 158 2 0 -0.6111930279096598 0.7335784905887107 0.4154548708375634 0 0 0
182 37 3 0 -0.07929797072541854 1.2232536526204116 0.5199419779291825 0 0 0
573 158 4 0 -0.7580069241573753 0.33032699848317904 0.25298764359737935 0 0 0
54 11 3 0 -2.2214208759482155 1.4939320861581362 0.09758186286460842 0 0 0
53 11 3 0 -2.7860346727823986 1.9442975535514417 0.2265268009456954 0 0 0
51 11 1 0 -2.4942547551298446 1.64542756359989 0.4157312405878316 0 0 0
468 123 4 0 -2.285047997744939 2.0383543468283407 1.0630034420086438 0 0 0
52 11 3 0 -2.2730654825670737 1.8426340029409358 0.7210561198299064 0 0 0
423 108 4 0 -1.9308205055832388 1.9611695585367095 0.8998896358571388 0 0 0
422 108 2 0 -1.550547504979052 2.1916761702685053 0.8139945138517974 0 0 0
424 108 4 0 -1.1415197423336758 2.4389222075707413 0.730510517022825 0 0 0
73 15 3 0 -0.8445644389154029 2.4986705588163476 0.4800172911993905 0 0 0
71 15 1 0 -0.5662718639461992 2.5312219507075966 0.13264598459796303 0 0 0
184 37 3 0 -0.17791560093139502 1.8322970950548572 0.10524285051548204 0 0 0
49 10 3 0 -0.3752846409468436 2.8617291587939993 1.2856807603456317 0 -1 0
222 45 3 0 -0.0765647666228589 2.6228454789837765 1.1933661415397532 0 0 0
50 10 3 0 -0.8808554341045508 2.7359073629590758 0.768987720826809 0 -1 0
75 15 3 0 -0.2482538033080926 2.8203326129223263 0.2219125565856844 0 0 0
46 10 1 0 -0.75900371048938 3.001905696967691 1.121482661862431 0 -1 0
74 15 3 0 -0.39376648067983366 2.140233917517457 0.04845277665266284 0 0 0
367 89 4 0 -0.3008623869030031 3.837058392433609 0.5340961479961354 0 0 0
365 89 2 0 -0.12271066855362 3.476059742917305 0.3789439114209829 0 0 0
48 10 3 0 -0.7067358156722096 3.4428034874536713 0.9629578650067686 0 -1 0
343 81 4 0 -0.5219705111068536 3.8006486270409163 0.8949958635860391 0 -1 0
481 127 4 0 -3.0366785452514797 1.0767328273507855 1.7765374058036898 0 0 0
419 107 2 0 -4.36513015961444 0.9381011216575583 2.7093481120516207 0 0 0
448 116 4 0 -2.9536242911528388 0.7040185321116705 1.9419499698064158 0 0 0
446 116 2 0 -2.7828296498745098 0.5588217411089952 2.316365552847179 0 0 0
447 116 4 0 -2.6054899438315378 0.40432484553732795 2.7093394868295992 0 0 0
414 105 4 0 -2.0700100660299157 1.2671683111147642 2.7843295914376105 0 0 0
162 33 3 0 -2.5773886034407574 0.10983718766034567 3.003681723545811 1 0 0
467 123 2 0 -2.3944515124083634 2.078563676745709 1.503389452717517 0 0 0
413 105 2 0 -2.30318935526345 1.5455256528589314 2.487321256580477 0 0 0
478 126 4 0 -2.7214989455932788 2.1622747641970705 2.2777707539552847 0 0 0
476 126 2 0 -2.697149040152793 2.572641850453189 2.498155255660151 0 0 0
415 105 4 0 -2.5216585212976264 1.807378252428743 2.2065771618426537 0 0 0
469 123 4 0 -2.496033390111444 2.1257786723136944 1.9486811415473446 0 0 0
47 10 3 0 -1.056539400701402 2.988431559752972 1.4247707661668652 0 -1 0
462 121 4 0 -0.14164266194127798 2.7129007472862354 1.5883414800106905 0 0 0
463 121 4 0 -0.31547702626484087 2.673568990944942 2.5064693690368 0 0 0
461 121 2 0 -0.23188281694546709 2.6878800352590164 2.039343800221543 0 0 0
119 24 3 0 -0.4069639132351659 2.576425109286196 2.8686067447423373 0 0 0
474 125 4 0 -0.6841393775774294 2.726557704407833 2.6360824864846304 0 0 0
325 75 4 0 -3.5358933339424024 3.784875822086109 3.17726582673302 0 -1 0
323 75 2 0 -3.1797052591310835 3.535714705070602 3.0471635355152102 0 -1 0
477 126 4 0 -2.6632496935908216 2.9892323872786255 2.7136979037918274 0 0 0
324 75 4 0 -2.8336637988890843 3.2874753300838013 2.913572878696011 0 -1 0
341 81 2 0 -0.4857319406147787 4.055047935824734 1.2621235941698687 0 -1 0
342 81 4 0 -0.43467097607802324 4.327089710568334 1.6304563248465904 0 -1 0
330 77 4 0 -0.16881445211796323 4.101337729551235 1.7961175717254452 0 -1 0
473 125 2 0 -1.0661416716942378 2.963367549671191 2.7804209649662948 0 0 0
421 107 4 0 -4.286990588176651 0.8780487008227426 3.1639425235874707 0 0 0
621 174 4 0 -3.334266782457942 0.38539196558229133 3.80370312553317 1 0 0
103 21 3 0 -3.1694972071522263 0.36198922383573284 4.144821121666735 0 0 0
163 33 3 0 -3.1654649889722464 0.29412844838194585 3.438767730707338 1 0 0
620 174 2 0 -3.782638666716431 0.5151496705635125 3.640896114504475 1 0 0
622 174 4 0 -4.217314873614415 0.6463906111259214 3.4887182576009588 1 0 0
101 21 1 0 -2.7534100373298855 0.23553320467941677 4.303157099866498 0 0 0
105 21 3 0 -2.4527557917596665 0.5830147389939241 4.234603338047799 0 0 0
472 124 4 0 -2.297018227846628 0.816295158414953 3.9331860112217973 0 0 0
470 124 2 0 -2.1543627541428227 0.9082522514276445 3.4889870928108238 0 0 0
471 124 4 0 -2.0224746703427106 0.9902748117835279 3.0767956760902795 0 0 0
427 109 4 0 -2.409899028044004 0.9698326938774575 4.302799319257547 0 0 0
444 115 4 0 -1.7195251577526975 1.224132427899678 2.9539408970817864 0 0 0
437 113 2 0 -0.19190590710131553 0.6992062713620557 4.13036081498879 0 0 0
439 113 4 0 -0.460671457894954 1.0742075237444884 4.0507731592847 0 0 0
97 20 3 0 -0.5632865575478024 1.430956818982563 4.1877852725387115 0 0 0
443 115 2 0 -1.329802763971976 1.4779980788329106 3.0974450005087917 0 0 0
432 111 4 0 -2.2158815957040088 2.883997441455123 4.036487778317779 0 0 0
117 24 3 0 -0.7145459999512332 1.930093002904054 3.0160922196253575 0 0 0
116 24 1 0 -0.34501308283574855 2.152380414145391 3.033647567577238 0 0 0
445 115 4 0 -0.9725945047431516 1.7009355102427812 3.2359627068086954 0 0 0
98 20 3 0 -1.0035599328690277 1.6823449530052026 3.63890513807995 0 0 0
120 24 3 0 -0.22575535236504363 2.1721264611853206 3.4624329372990132 0 0 0
96 20 1 0 -0.7295907853464516 1.8032104400964704 3.985346625896329 0 0 0
466 122 4 0 -0.08967353867847493 2.3770160733116485 3.787463011207661 0 0 0
100 20 3 0 -0.38081729445982454 2.0664625786032333 3.8231580238064566 0 0 0
99 20 3 0 -0.9730290883944129 2.0554185239672633 4.3050404799584 0 0 0
111 23 1 0 -2.085789064075013 3.1983370955971684 3.27707445230497 0 0 0
113 23 3 0 -2.1409729773248256 2.9816297889402064 3.654469916949546 0 0 0
112 23 3 0 -1.7417095742576285 3.003282380834678 3.050391274804694 0 0 0
431 111 2 0 -2.087660899028041 2.7847127304180366 4.46091180379505 0 0 0
517 139 4 0 0.2681280059747797 -3.589693028445678 -4.425256183336605 0 0 0
338 80 2 0 0.2724731576330523 -4.391538235921172 -4.359053185010892 0 0 1
515 139 2 0 0.22150188266130186 -3.3147387310814547 -4.059729121478936 0 0 0
275 59 2 0 1.3572396559973008 -3.31277407614629 -3.6750069036659303 0 0 0
277 59 4 0 1.4531935566019576 -3.4617848746746502 -3.2569440459414403 0 0 0
276 59 4 0 1.2571437517686346 -3.169137715344774 -4.079279842612299 0 0 0
516 139 4 0 0.16232033074342658 -3.038301783256698 -3.671426404277978 0 0 0
529 143 4 0 0.14553135577755072 -3.1736104469758373 -3.2684109705329254 0 0 0
145 29 3 0 1.2505173133339937 -3.3030245961739557 -4.45265272407801 0 0 0
203 41 3 0 2.1998355132362444 -0.03798232287337392 -0.22828263913854038 0 0 0
498 133 4 0 2.8004427329431434 -3.9097262396554644 -3.3969120682658405 0 0 0
505 135 4 0 2.5602585094204073 -4.06011227988113 -3.1038692563995745 0 0 0
503 135 2 0 2.1023449092594366 -3.9301664869801054 -3.1651852093647768 0 0 0
140 28 3 0 2.908696226028434 -4.229502566099115 -3.193700160443635 0 0 0
504 135 4 0 1.6599744964305303 -3.798429403811831 -3.2291839878085837 0 0 0
497 133 2 0 3.014326627488427 -3.521114519293468 -3.5424519666556393 0 0 0
553 151 4 0 4.1881127919020145 -3.7245126327877554 -3.4359019421712396 0 0 1
551 151 2 0 3.9554290904868705 -4.10323353179957 -3.595351050106908 0 0 1
154 31 3 0 4.141310359375674 -3.352960772320746 -3.5739966104503114 0 0 0
152 31 3 0 3.518474545112859 -3.171139323208192 -3.9592814376490977 0 0 0
499 133 4 0 3.215742654712727 -3.1556731551419124 -3.6847213718105376 0 0 0
151 31 1 0 3.9311960519750366 -3.035154172896424 -3.862265135064064 0 0 0
155 31 3 0 4.1826743928277335 -2.9914147175622174 -4.2483973447562375 0 0 0
313 71 4 0 1.3631986272029046 -2.9260937530837423 -4.392271848148239 0 0 1
494 132 2 0 2.438504262507109 -1.985964359348568 -4.0057952019367615 0 0 0
495 132 4 0 2.6858164609808797 -1.9331429740398163 -3.6360373349889032 0 0 0
523 141 4 0 2.878076521952187 -1.7633568888595161 -3.3177912247337815 0 0 0
616 172 4 0 0.06056240003430727 -0.010886626782060387 -2.034055438593772 0 0 0
496 132 4 0 2.168357746640288 -2.0430283899811803 -4.4072622047244066 0 0 0
135 27 3 0 3.0002790591770485 -2.1122427608401866 -3.451872851633232 0 0 0
133 27 3 0 3.1114944082832308 -2.872605163133159 -3.4269752140700604 0 0 0
131 27 1 0 3.2521643860563323 -2.455250293010285 -3.2586312064997616 0 0 0
153 31 3 0 3.910860011574046 -2.626415152296816 -3.6543178371352636 0 0 0
132 27 3 0 3.7011556200817712 -2.395348243583938 -3.355176078479588 0 0 0
486 129 4 0 4.093527003389876 -2.535146920029835 -3.2929987063649167 0 0 0
262 54 4 0 3.7385072957574104 -0.48648941958922454 -1.078542734971203 -1 0 0
552 151 4 0 3.7350908266801843 -4.485304514787318 -3.761732515564276 0 0 1
20 4 3 0 0.8957648384753204 -3.49044466956534 -2.453295708902731 0 0 0
528 143 4 0 0.5501474390234649 -3.588418473022705 -2.6071544203948154 0 0 0
268 56 4 0 0.621604527525325 -3.698726050610806 -2.2147220676647024 0 0 0
266 56 2 0 0.6875431237975745 -4.0161139021331715 -1.8818220895237168 0 0 0
16 4 1 0 1.353364792666341 -3.4154794375155197 -2.5029706121844577 0 0 0