LAMMPS data file via write_data, version 4 Feb 2025, timestep = 4000, units = lj

64 atoms
4 atom types
48 bonds
1 bond types
56 angles
2 angle types

-2.5 2.5 xlo xhi
-2.5 2.5 ylo yhi
-2.5 2.5 zlo zhi
0 0 0 xy xz yz

Masses

1 1
2 1
3 0.1
4 0.1

Bond Coeffs # harmonic/omp

1 100 0.45

Angle Coeffs # harmonic/omp

1 100 180
2 100 109.471

Atoms # full

22 5 3 0 -2.474611246798836 -2.100464757154686 -2.3264511169562323 -4 -4 0
37 8 3 0 -1.6381339371141823 -2.3236002843191628 0.4639632760653827 -4 -5 0
49 11 4 0 -1.8727233461644768 -2.1645100187621344 0.13778426775518726 -3 -4 -1
47 11 2 0 -2.3237657201864983 -2.1298140858725625 0.19865662567798203 -3 -4 -1
36 8 1 0 -1.332492893418515 -2.4838527770330945 0.7827917156872655 -4 -5 0
38 8 3 0 -0.9800050093669788 2.3168805729033357 0.5803195286659668 -4 -6 0
21 5 1 0 -2.237213027530811 -2.1891258475961894 2.2783253682672306 -4 -4 -1
61 15 4 0 -1.4157168696875417 -1.6110892790400793 1.3803680542447028 -4 -4 -1
59 15 2 0 -1.9100853105025715 -1.5918349573375554 1.2298735038529216 -4 -4 -1
25 5 3 0 -1.8292674763969168 -2.2441770795121236 2.3845780508020944 -4 -4 -1
56 14 2 0 -1.2762991046834318 -2.2379461889368177 1.8831778694275192 -5 -5 -1
58 14 4 0 -1.5988290900166846 -2.3687828324838303 2.1129946531469717 -5 -5 -1
24 5 3 0 -2.282098621845441 -1.8164441353494745 1.9803535186664973 -4 -4 -1
60 15 4 0 -2.4006595257911982 -1.5847153992752543 1.0703232431145548 -4 -4 -1
1 1 1 0 -0.859512505976171 -1.293186298366412 1.514304345773426 -2 -3 -2
5 1 3 0 -1.1096382149497255 -1.3056215800485085 1.1987535605605415 -2 -3 -2
39 8 3 0 -1.193069571941396 -2.141981876316145 1.0423636257639979 -4 -5 0
4 1 3 0 -0.8502814615024754 -1.7222793416644455 1.7328065455752188 -2 -3 -2
57 14 4 0 -0.9635273593475511 -2.097946710529243 1.6429453169505042 -5 -5 -1
3 1 3 0 -0.42700559887696254 -1.1908677796688194 1.3595791381847722 -2 -3 -2
2 1 3 0 -0.9971247449489247 -0.9545155853710685 1.8098170089694934 -2 -3 -2
29 6 3 0 -1.8764796820517158 2.031441990000806 1.5245863250459735 -5 -5 0
40 8 3 0 -1.521233874774131 2.2394575368718277 1.0223068650481348 -4 -6 0
27 6 3 0 -1.8324585711795003 1.5742200141410283 2.122998321601595 -5 -5 0
26 6 1 0 -1.6222620630762263 1.7104247086582394 1.7280817163350903 -5 -5 0
28 6 3 0 -1.5892249841756827 1.3378388914063133 1.4505780747245667 -5 -5 0
63 16 4 0 -1.9177267264812774 2.170390473022251 1.0941996519457673 -3 -5 -2
62 16 2 0 -2.328144520037153 2.343188461974587 1.1808177659475483 -3 -5 -2
23 5 3 0 -2.424280696770746 2.40102281263992 2.0792406694530072 -4 -5 -1
30 6 3 0 -1.1889040272632836 1.881797439730617 1.8231680179701781 -5 -5 0
43 9 4 0 1.4454581576496022 -1.8107503147823643 -2.121499821935401 -5 -4 -1
41 9 2 0 1.7923241588351404 -2.019254677706154 -2.3296528741274685 -5 -4 -1
35 7 3 0 0.7755684406997903 -1.662011259626312 0.4525975253739989 -4 -4 0
31 7 1 0 1.0562939740254307 -1.3503703081162741 0.5884664264880257 -4 -4 0
46 10 4 0 1.174677446925425 -2.3769156019208126 0.6820727933414461 -4 -2 0
44 10 2 0 1.6653038959532172 -2.278728234197228 0.6701355122876751 -4 -2 0
45 10 4 0 2.1136890221221734 -2.1934674673117738 0.6590976213745003 -4 -2 0
48 11 4 0 2.227803076367014 -2.101197140216326 0.2659859303040397 -4 -4 -1
53 13 2 0 2.1859384359400007 -1.3095855351785977 0.6725130206289709 -4 -4 -1
55 13 4 0 1.8820346704399302 -1.4222666470171368 0.3500605915316375 -4 -4 -1
33 7 3 0 1.528220298246243 -1.5311521997043958 0.554912248421902 -4 -4 0
32 7 3 0 1.0186560298508889 -0.9662735223282435 0.3105881343590742 -4 -4 0
10 2 3 0 1.0310731302968383 1.5017502111564145 0.6567597283987334 -4 -4 -1
7 2 3 0 1.7337207025567167 1.3919454134712872 0.8255965677799582 -4 -4 -1
9 2 3 0 1.5105054075622224 2.04710173790557 0.5930566399816262 -4 -4 -1
15 3 3 0 1.104142104801809 -2.3918489326943875 1.062902831619188 -5 -5 -1
14 3 3 0 1.0489456218017432 -2.379669047432168 1.8466091350652842 -5 -5 -1
13 3 3 0 1.0708560917902195 -1.739099177166571 1.3774607313254803 -5 -5 -1
12 3 3 0 0.4425395306648965 -2.1529887916059343 1.3513455169785447 -5 -5 -1
11 3 1 0 0.9143329325566891 -2.1604516029611296 1.391722208817364 -5 -5 -1
52 12 4 0 1.4644744333329567 -1.8353271436985348 1.5010589990952106 -5 -4 0
64 16 4 0 2.2311901038772692 -2.4464729872947863 1.288491364448212 -4 -4 -2
51 12 4 0 2.469132778627613 -1.7023090038412314 1.6562826147915892 -5 -4 0
50 12 2 0 2.0145164125363486 -1.7760452483120555 1.594102522720899 -5 -4 0
42 9 4 0 2.1787397990311828 -2.2579638321867685 2.4515619113998 -5 -4 -2
34 7 3 0 0.9521104442628814 -1.2427458278182402 1.0174320957193328 -4 -4 0
54 13 4 0 2.4971200717494906 -1.212337250138076 1.0023604413326082 -4 -4 -1
19 4 3 0 1.4948257641789828 2.3804941378356386 1.9310895187253863 -4 -4 -3
16 4 1 0 1.8307811808947037 2.1292867180733737 1.7518650950443906 -4 -4 -3
8 2 3 0 1.3037711917356032 1.7983833651725156 1.291381708402009 -4 -4 -1
6 2 1 0 1.3965179678576534 1.683096415412538 0.8334581444538318 -4 -4 -1
17 4 3 0 2.156965030126809 2.1145432035298413 2.01209029311483 -4 -4 -3
20 4 3 0 1.9532157304375293 2.292354066829456 1.3728653330887752 -4 -4 -3
18 4 3 0 1.6612383108525002 1.7156977864468708 1.6846507824160302 -4 -4 -3

Velocities

22 -1.9646849478826027 0.768306705967926 -0.8139417085969215
37 1.3130862230587652 -0.4494214518922592 -0.3805446825167157
49 -1.2201975707221253 0.2648192487047037 -0.7653608859570948
47 0.3597107859736125 -0.2723030606063151 0.47038038545858385
36 0.6872140784680284 0.440123797254386 -0.10386256246600534
38 0.6407714246021413 1.9175260127265121 -0.24013824072359005
21 -0.10536643622284986 -0.37832460717165534 0.6924923056336602
61 3.6228554316208847 -0.6546550159846063 3.189356413742826
59 0.7341892991597925 0.5644831030273679 0.02262928585376544
25 -0.698832270433384 0.6150690519981835 0.6443561407132413
56 0.19102746951574567 0.23668942680548902 -0.35414505869325863
58 -1.3691609595463325 -0.7421448874244855 3.7795181780532565
24 -0.3115580334643492 0.886050581897939 -0.5659728258141671
60 -1.914110856815197 3.7047352024328295 -2.293376299225584
1 0.322156711692398 -0.3240438661501184 -0.44467176699360506
5 -0.3750850468312304 0.761444103193921 0.7993525219723894
39 1.0840037640508984 -0.39997278185012547 -0.23220313909179288
4 0.8910058826008189 -1.0683325396340817 -0.42190643280971657
57 -0.4909746546148386 0.12916891614029535 -2.218273854543494
3 1.104247500872751 0.45341285628164646 1.2484826829507125
2 -1.0568599989190892 -1.205509775608118 -0.5789931568141155
29 0.29223619598371386 -2.0846814869770847 -1.0475804478907782
40 3.0089542272523464 -0.48841171721339943 -0.6241225820217235
27 1.2559412652710902 1.8355577084311552 -0.9617633482393563
26 1.093318457220977 -0.2668929280781682 -0.06821076521965132
28 2.119230328982975 0.44066670930337826 1.7596224469643855
63 3.3404912463277974 -0.39501928032817557 2.5394126327442623
62 1.6177473400056168 -0.28089008946812166 0.4223037735160183
23 2.271046191288175 2.922971703680962 0.9198891563375058
30 0.2361338059928354 0.22006340745489184 0.6931108191387495
43 -1.712864313012449 1.373981545447856 0.2173817904070643
41 -1.0556911622108012 -0.07879100928914524 -0.41230129740654947
35 -0.6576287453396743 0.04874788149443741 1.7304899194306855
31 0.26487248700874555 -0.6171958422370991 -0.33091088095701626
46 3.343035512317143 1.5735300142312834 0.21711436507866347
44 0.01687443579871696 0.8344611960935355 0.5225646830725528
45 -2.1348631177093687 -0.22356303684844747 -0.045569300788560495
48 0.5722626577616925 -0.049999524928215966 0.6719769498059704
53 0.4517643197991771 -0.3030562279380338 -0.17177453219843536
55 0.8290096821112707 0.20687564485835336 -1.031777526454092
33 0.017463855233700254 -0.186743320401778 -0.07935214058316346
32 0.3450470058744492 -1.5815172528294343 0.8097381386538581
10 0.255856065088474 0.3137586115554937 -2.7663589964611357
7 -1.2357810266522629 1.6454362742194417 0.21196896719085453
9 2.0264446015756086 0.27377375217208977 2.061633330838297
15 1.0141568043687328 0.06309787023083219 -0.9125289943519539
14 1.0202711444429318 -0.7917553922668866 0.7210317275184893
13 2.64920016267477 0.361380572044432 0.39749752470400074
12 0.547603787205245 0.6709464368859211 0.007681958901687824
11 -0.015807661931333927 -0.22918923985919382 0.03319375014070921
52 1.2552431246787843 -4.021118726143666 -1.8509385730802708
64 2.5225098496854 0.15856260936437938 -2.536699955453874
51 -0.457546673683202 2.24985630266788 1.8743451612777602
50 1.151613571121029 0.3496984860679499 0.49126358362418143
42 -2.513052746310791 -1.1398749100784644 -0.3170937341034953
34 1.983151481034131 1.0587985709853822 1.7084648809952123
54 0.17618262385049044 -0.1588697708317616 0.6222641165014544
19 0.41993935632750734 -0.044560206112419815 -0.4132556656175573
16 1.7337893045394976 -0.47978372955877685 -0.4326142458713326
8 -0.18665748476071453 -1.2450568777550028 0.6906700451115605
6 0.764977362213677 0.6825206066510023 -0.021065972286593564
17 0.9847008894665379 -0.6143021407868826 0.15277787889624542
20 2.682813473700854 1.7306847466721713 3.324571658104576
18 3.272367651497644 1.2774184855622444 -1.3299290882439352

Bonds

1 1 47 48
2 1 47 49
3 1 36 37
4 1 36 38
5 1 36 39
6 1 36 40
7 1 21 22
8 1 21 23
9 1 21 24
10 1 21 25
11 1 59 60
12 1 59 61
13 1 56 57
14 1 56 58
15 1 1 2
16 1 1 3
17 1 1 4
18 1 1 5
19 1 26 27
20 1 26 28
21 1 26 29
22 1 26 30
23 1 62 63
24 1 62 64
25 1 41 42
26 1 41 43
27 1 31 32
28 1 31 33
29 1 31 34
30 1 31 35
31 1 44 45
32 1 44 46
33 1 53 54
34 1 53 55
35 1 11 12
36 1 11 13
37 1 11 14
38 1 11 15
39 1 50 51
40 1 50 52
41 1 16 17
42 1 16 18
43 1 16 19
44 1 16 20
45 1 6 7
46 1 6 8
47 1 6 9
48 1 6 10

Angles

1 1 48 47 49
2 2 37 36 38
3 2 37 36 39
4 2 37 36 40
5 2 38 36 39
6 2 38 36 40
7 2 39 36 40
8 2 22 21 23
9 2 22 21 24
10 2 22 21 25
11 2 23 21 24
12 2 23 21 25
13 2 24 21 25
14 1 60 59 61
15 1 57 56 58
16 2 2 1 3
17 2 2 1 4
18 2 2 1 5
19 2 3 1 4
20 2 3 1 5
21 2 4 1 5
22 2 27 26 28
23 2 27 26 29
24 2 27 26 30
25 2 28 26 29
26 2 28 26 30
27 2 29 26 30
28 1 63 62 64
29 1 42 41 43
30 2 32 31 33
31 2 32 31 34
32 2 32 31 35
33 2 33 31 34
34 2 33 31 35
35 2 34 31 35
36 1 45 44 46
37 1 54 53 55
38 2 12 11 13
39 2 12 11 14
40 2 12 11 15
41 2 13 11 14
42 2 13 11 15
43 2 14 11 15
44 1 51 50 52
45 2 17 16 18
46 2 17 16 19
47 2 17 16 20
48 2 18 16 19
49 2 18 16 20
50 2 19 16 20
51 2 7 6 8
52 2 7 6 9
53 2 7 6 10
54 2 8 6 9
55 2 8 6 10
56 2 9 6 10
