LAMMPS data file via write_data, version 29 Aug 2024, timestep = 100000, units = lj

688 atoms
4 atom types
492 bonds
1 bond types
446 angles
2 angle types

-4.496439 4.496439 xlo xhi
-4.496439 4.496439 ylo yhi
-4.496439 4.496439 zlo zhi
0 0 0 xy xz yz

Masses

1 1
2 1
3 0.1
4 0.1

Bond Coeffs # harmonic/omp

1 100 0.45

Angle Coeffs # harmonic/omp

1 100 180
2 100 109.471

Atoms # full

2 1 3 0 -4.3378097418655255 -3.3239642821982267 -3.415257089850657 1 0 0
3 1 3 0 -4.350501427229718 -3.254725189001489 -4.169839390441389 1 0 0
504 135 4 0 -2.270184338423418 -3.6249490350699354 -3.5560719368881877 1 0 0
154 31 3 0 -2.0433684246334503 -3.265768545353157 -3.489930278955967 1 0 0
151 31 1 0 -1.6432375531693175 -3.0966122806704752 -3.3479663699462097 1 0 0
214 43 3 0 -1.9895851927724935 -3.904795543232274 -3.6680831699153007 2 1 0
211 43 1 0 -1.6736780919207783 -4.0524208450970765 -3.938217896909804 2 1 0
215 43 3 0 -1.8154540395341243 -4.033144429196317 -4.361908384779796 2 1 0
412 104 4 0 -4.4203485661402055 -4.309530585681699 -1.2884498683064485 2 1 0
503 135 2 0 -2.552018464607198 -3.6374204660600484 -3.218001830775048 1 0 0
212 43 3 0 -1.298424230018115 -3.7882528013311916 -3.887370475414509 2 1 0
155 31 3 0 -1.3285514152828237 -3.3886956477870176 -3.4055787644554574 1 0 0
601 167 4 0 -1.065486818389247 -3.6646444798917255 -3.5736532026065353 2 1 0
599 167 2 0 -0.7805724484872574 -3.753551601235785 -3.1829258762015407 2 1 0
285 62 4 0 -4.016375585989543 -3.1918332806836345 -3.1967895216933284 1 0 0
160 32 3 0 -3.116661092885737 -1.95800083728155 -3.2762863793355583 1 0 0
269 57 2 0 -4.18507217352246 -2.088440025708203 -3.2281377562948808 1 0 0
254 52 2 0 -4.19521043874444 -2.202962529101927 -4.253153983286842 1 0 0
156 32 1 0 -3.1742232058454887 -1.5513993495145924 -3.0644966322548473 1 0 0
159 32 3 0 -3.608355937472932 -1.4996210846430822 -2.949998647974623 1 0 0
305 69 2 0 -2.0935474530873264 -1.6616984179708139 -4.13306064907504 1 0 0
152 31 3 0 -1.5488087057897553 -2.716801191739951 -3.5760777511353434 1 0 0
153 31 3 0 -1.6711597365974344 -3.001207294483382 -2.9265497491128434 1 0 0
543 148 4 0 -1.1523875293220844 -2.630169320899962 -3.4209278810028243 1 0 1
542 148 2 0 -0.8921176492480627 -2.276264083868716 -3.3780125790609596 1 0 1
172 35 3 0 -0.7669553496067709 -1.5311751904620619 -3.3456826905340624 1 0 1
544 148 4 0 -0.6129949705705924 -1.9000731297056515 -3.3326523029891497 1 0 1
157 32 3 0 -3.0389420759268146 -1.2085465553548191 -3.3426708325166232 1 0 0
259 53 4 0 -3.0569484435077565 -0.9221785916344203 -4.406476908605217 1 0 0
258 53 4 0 -2.7555448941544105 -0.9119558947122113 -3.497218629639315 1 0 0
257 53 2 0 -2.914699378745625 -0.9245691271955332 -3.9768815415827525 1 0 0
17 4 3 0 -2.41078481771189 -0.7809761030258731 -3.329025966418788 1 0 0
16 4 1 0 -1.9618191196527368 -0.7912195420187853 -3.4491949123497956 1 0 0
20 4 3 0 -1.877252282414803 -0.443198604030715 -3.7431416798869854 1 0 0
306 69 4 0 -1.7426757684759937 -1.4693964404259194 -3.9136457127029947 1 0 0
19 4 3 0 -1.87058303633404 -1.2070497960731155 -3.6612860104866085 1 0 0
18 4 3 0 -1.6914786246696587 -0.7374462922928586 -3.0619917702888104 1 0 0
453 118 4 0 -1.6520876924702335 -0.3035760363959854 -4.079312069691142 1 0 1
174 35 3 0 -1.3332688073257657 -1.3425624670785652 -3.784006111747844 1 0 1
561 154 4 0 -1.3127035717187647 -0.6470227355198568 -2.941269380513292 1 0 1
584 162 2 0 -0.14743708540308997 -0.33175841902362446 -4.348218322625979 1 0 0
452 118 2 0 -1.2753828613147875 -0.20307536884796118 -4.326151381295664 1 0 1
175 35 3 0 -1.0883559626638668 -0.8430162498530089 -3.269182973002864 1 0 1
171 35 1 0 -0.9586390962225027 -1.1941064814252305 -3.572985434459403 1 0 1
173 35 3 0 -0.6671711045512247 -1.0317033754539735 -3.87863436078641 1 0 1
124 25 3 0 -3.2080725740809317 -3.3434149918241634 -1.949705792137038 1 0 0
589 163 4 0 -3.443719906517027 -3.597752008017367 -1.7661027095516095 2 1 0
587 163 2 0 -3.7520670409218484 -3.9188845869653353 -1.6062530020048364 2 1 0
267 56 4 0 -4.395016819615313 -3.2001133544440346 -3.009635025390752 1 0 0
121 25 1 0 -2.8870074026741115 -3.3528328362243904 -2.210212654986731 1 0 0
505 135 4 0 -2.845252875943084 -3.654757619920484 -2.872317450970364 1 0 0
123 25 3 0 -2.917171527544247 -3.7149507185795647 -2.4723199530324558 1 0 0
122 25 3 0 -2.4841420599502104 -3.3789381897264295 -1.9424363138963772 1 0 0
198 40 3 0 -0.3082067198198004 -4.049781792595882 -2.534207977798707 2 1 0
600 167 4 0 -0.5182162153483572 -3.834172989682319 -2.8091661133673362 2 1 0
615 172 4 0 -0.2102132332093687 -3.685336363501038 -2.612318980602959 2 1 0
196 40 1 0 -0.4524312496993286 -4.467136059228726 -2.4003648902905024 2 1 0
271 57 4 0 -4.466257009635624 -2.3581038288391776 -3.4823502451355792 1 0 0
197 40 3 0 -0.7320356677755844 -4.427886986661032 -2.0670822059514413 2 1 0
270 57 4 0 -3.8739900841547197 -1.810210565378652 -2.941650083279787 1 0 0
281 61 2 0 -3.77553561601166 -1.7499071143594351 -2.1032267611208986 1 0 0
286 62 4 0 -3.22773007495561 -3.0322611739795704 -2.7324730914486715 1 0 0
284 62 2 0 -3.627328083928427 -3.1121179267397583 -2.973646559059107 1 0 0
283 61 4 0 -3.7860306389983203 -1.8644697382189852 -1.6666626464942729 1 0 0
282 61 4 0 -3.762155846064112 -1.6256734979475072 -2.5819022794120463 1 0 0
158 32 3 0 -2.915135665172576 -1.5464933531005665 -2.6800827837334684 1 0 0
125 25 3 0 -2.8850172816727753 -2.9929755229547133 -2.4553723323595147 1 0 0
481 127 4 0 -2.5985492959673167 -2.7745039377635203 -2.267096621387661 1 0 0
479 127 2 0 -2.267007900651755 -2.4409403858176195 -2.1223217460810475 1 0 0
310 70 4 0 -1.9535999363823882 -1.8233330340729172 -1.6875698491965823 1 0 0
480 127 4 0 -1.9333399354065404 -2.131189157434758 -1.9685814758575662 1 0 0
478 126 4 0 -1.604260787244404 -1.9541099127464143 -1.844012057185778 1 0 0
476 126 2 0 -1.2585256503340352 -1.619185625227618 -1.8877999595550072 1 0 0
299 67 2 0 -4.259719549517563 -1.0871590785334209 -2.8147719410686047 1 0 0
301 67 4 0 -3.9610256538070887 -1.421141147869509 -2.8388054894209866 1 0 0
560 154 2 0 -1.0957025137157879 -0.7826979951722945 -2.5451551798134227 1 0 1
477 126 4 0 -0.9225990276354383 -1.273800410672024 -1.943428139861508 1 0 0
562 154 4 0 -0.8987222463795042 -0.920811640169032 -2.148097012769314 1 0 1
508 136 4 0 -0.6048147921329168 -0.9855533494962483 -1.8706538673722646 1 0 0
506 136 2 0 -0.14622290144560335 -0.8048912268579076 -1.7294420575744454 1 0 0
588 163 4 0 -4.056538759528165 -4.252536491034345 -1.4467804706280076 2 1 0
255 52 4 0 -4.477880351987982 -2.3175720492515586 -3.8743676627705814 1 0 0
471 124 4 0 -3.581459471450427 -4.398804440541526 -0.07477692773213729 2 1 0
276 59 4 0 -3.837989395621966 -2.1510631804339617 -1.413831491544891 1 0 0
264 55 4 0 -3.640506386846348 -1.8199481227325816 -1.2840363070818146 1 0 0
263 55 2 0 -3.2778257214342137 -1.6594754115037302 -1.0394958425843361 1 0 0
275 59 2 0 -4.207991715365387 -2.4308277861347367 -1.3609741231132273 1 0 0
265 55 4 0 -2.9032612201349286 -1.4996737214186036 -0.7887546134956409 1 0 0
309 70 4 0 -2.5431560351008597 -1.6776814252390047 -0.9497186795790444 1 0 0
308 70 2 0 -2.2425251130887456 -1.7512922067186878 -1.3299232023373966 1 0 0
37 8 3 0 -2.2353377875600007 -1.6496183494703867 -0.6771467403591371 1 0 0
261 54 4 0 -4.441131245280519 -0.2307412989983355 -1.0713422905946066 1 0 0
262 54 4 0 -4.242501089022703 -1.0783251819257287 -1.3886914647304613 1 0 0
260 54 2 0 -4.340199313181295 -0.6553601816205665 -1.231203689994942 1 0 0
35 7 3 0 -0.4355416922026718 -0.05285460847343604 -0.8289934499230629 1 0 0
40 8 3 0 -2.882779712405938 -1.4899012520369084 -0.39888695538028074 1 0 0
36 8 1 0 -2.4509914412606606 -1.488862813070277 -0.3259941766712746 1 0 0
293 65 2 0 -1.6492183135545848 -0.5276740322197204 -0.15347041336461764 1 0 0
294 65 4 0 -1.9658815762360415 -0.8798032744264703 -0.1026195771182632 1 0 0
39 8 3 0 -2.3045223576485623 -1.0463856817380242 -0.22613056484715255 1 0 0
33 7 3 0 -1.0007914289219144 -0.07528810827056276 -0.37127979387586674 1 0 0
295 65 4 0 -1.3452200554376468 -0.17970527171649753 -0.20828369557869753 1 0 0
421 107 4 0 -3.8290878410736218 -4.444284834867599 -3.9385286931899524 2 1 1
307 69 4 0 -2.443388613915029 -1.8631535751038166 -4.359790497101506 1 0 0
312 71 4 0 -3.256531499503151 -3.353926268120266 0.530714724523496 1 0 0
472 124 4 0 -3.47187171205474 -3.6693871706176373 0.38835147021915084 2 1 0
470 124 2 0 -3.530723065959427 -4.0479136879605715 0.15446731950728765 2 1 0
327 76 4 0 -3.647468279255341 -3.4068355724302806 0.6627486369367039 1 0 0
326 76 2 0 -4.033086553027447 -3.305325554427684 0.8696397713091972 1 0 0
108 22 3 0 -4.460368165174611 -0.001954689396829856 0.9553019195816796 1 0 0
311 71 2 0 -2.814746288521123 -3.2447076624176425 0.388613780759151 1 0 0
313 71 4 0 -2.3988786257189485 -3.1245244107294914 0.25794095961338925 1 0 0
531 144 4 0 -2.8961451960722635 -4.203585354479892 1.4963720862491474 1 0 0
554 152 2 0 -1.1669451098878358 -4.479912155088368 0.9125166955084785 1 0 0
556 152 4 0 -0.7773146442557941 -4.276214726254611 1.0615244390390215 1 0 0
559 153 4 0 -0.455600647680531 -4.050684211492827 1.1684351631211518 1 0 0
319 73 4 0 -0.5430138763190375 -4.41022822420657 1.3382649013563581 0 0 0
557 153 2 0 -0.2086256186172939 -3.6752958303520376 1.3797042365595216 1 0 0
53 11 3 0 -3.1815989335741803 -1.9421462984089852 1.290581715454219 1 0 0
331 77 4 0 -3.1852972323013615 -1.9335404360613886 0.8910178274844078 1 0 0
329 77 2 0 -2.803052704960959 -1.8830273438007343 0.6774103289584517 1 0 0
330 77 4 0 -2.3764272880412527 -1.82240583204376 0.42640406247953067 1 0 0
353 85 2 0 -2.111244307665588 -2.4322423509393385 0.11431834848181577 1 0 0
355 85 4 0 -2.1558164965331015 -2.89437130874391 0.016274355206692626 1 0 0
354 85 4 0 -2.073542307057224 -1.981930440442354 0.20078226324558734 1 0 0
24 5 3 0 -1.9924195168811667 -1.6963918930708046 0.4454129378456164 1 0 0
38 8 3 0 -2.361610636085061 -1.753485826387962 0.030649227974772764 1 0 0
527 143 2 0 -0.9275844483409226 -1.8245932104558618 1.2219152416381664 1 0 0
528 143 4 0 -1.0621662287307037 -2.1682451644767067 1.536632891130429 1 0 0
463 121 4 0 -3.190597687727787 -0.9283563291002226 1.161984766967806 1 0 0
334 78 4 0 -3.500466051961428 -0.8084688473494044 1.4107641342599244 1 0 0
55 11 3 0 -3.394429105245938 -1.1907760054117307 1.4013554954443581 1 0 0
450 117 4 0 -3.560473031503578 -1.0512893629364646 1.0476652159749973 1 0 0
449 117 2 0 -3.841242763884691 -1.1312581551034988 0.6832690399375441 1 0 0
451 117 4 0 -4.133671398045507 -1.2170966241001233 0.3262473351357613 1 0 0
461 121 2 0 -2.7117943056291103 -0.8975838878705065 1.1662143416886446 1 0 0
462 121 4 0 -2.2484038136280846 -0.8586554990579609 1.1676686812034598 1 0 0
23 5 3 0 -2.1014269383995683 -1.1363576595147968 0.9210020626861715 1 0 0
21 5 1 0 -1.8328732179416098 -1.294741533123268 0.5990978967279563 1 0 0
22 5 3 0 -1.816197221373018 -0.9958820333324478 0.2524275269669234 1 0 0
529 143 4 0 -0.8138724249754592 -1.4971616809898478 0.9197241343461817 1 0 0
553 151 4 0 -0.4042029449254123 -1.5105491214710378 0.8345575413665403 1 0 0
25 5 3 0 -1.4218021357051218 -1.346107182403184 0.7726506371083905 1 0 0
27 6 3 0 -0.7987499634919435 -0.14641511412064112 0.6668670130663843 1 0 0
567 156 4 0 -1.0735371571515326 -1.1464219651849126 0.873448491048924 1 0 0
566 156 2 0 -0.8434975123955781 -0.7334662508359466 0.9300074364017403 1 0 0
568 156 4 0 -0.622026530835111 -0.3464603433919651 0.9969062012740793 1 0 0
103 21 3 0 -0.42262632336726913 -0.06471323118620553 1.2165555407819095 1 0 0
101 21 1 0 -0.0008463277113177625 -0.030493198165010504 1.3188395441712508 1 0 0
634 178 4 0 -3.731554706806706 -3.35583484307963 1.7492812150284074 2 1 0
632 178 2 0 -3.384063310975803 -3.6061718274695744 1.7052851658270498 2 1 0
633 178 4 0 -3.010193210898024 -3.8741058549514586 1.660725590299199 2 1 0
517 139 4 0 -2.592422117009092 -3.974047656562127 1.659963378069837 1 0 0
515 139 2 0 -2.2785043716232893 -3.7303521469464336 1.91220714314447 1 0 0
516 139 4 0 -1.9654447032907374 -3.4807472097761845 2.155519385466391 1 0 0
540 147 4 0 -1.7033765255724798 -3.3061734563378598 2.4291834752316186 1 0 0
564 155 4 0 -1.7851808358771137 -3.1100480954497094 2.073458327304677 1 0 0
539 147 2 0 -1.533349022014181 -3.420333726831677 2.8472884233251152 1 0 0
369 90 4 0 -4.303341973710384 -1.8577677757729871 1.580566918379101 1 0 0
51 11 1 0 -3.464556084727427 -1.6557405996734826 1.5492364793711566 1 0 0
54 11 3 0 -3.928877745905453 -1.7837812866090248 1.4710422399147225 1 0 0
52 11 3 0 -3.3668234353420967 -1.6954858275366291 1.9832437130943994 1 0 0
563 155 2 0 -1.4858478770002392 -2.7731951644409163 1.9281262427558694 1 0 0
538 146 4 0 -0.09844722374941917 -2.950982106719031 1.686908120946132 1 0 0
565 155 4 0 -1.2045586310417207 -2.44694168598193 1.7951326615023948 1 0 0
537 146 4 0 -0.7865045837030507 -2.363272703738237 1.728975709085331 1 0 0
536 146 2 0 -0.4340216683702627 -2.658935693458006 1.7088849021812864 1 0 0
426 109 4 0 -4.056329672007658 -0.4039940629153369 2.5446537097054014 1 0 0
343 81 4 0 -3.617949780766689 -0.3975747146418245 2.598776362605956 1 0 0
341 81 2 0 -3.182746422981049 -0.2959477489926581 2.8603896170096954 1 0 0
333 78 4 0 -3.786521347137462 -0.4025714667873759 2.2292612675226264 1 0 0
332 78 2 0 -3.6455391669455777 -0.6016645826388496 1.824567960303642 1 0 0
454 118 4 0 -0.887514995764977 -0.08970405996921649 4.428936015149934 1 0 0
644 182 2 0 -1.6737050466159897 -3.6979365224633516 3.951878778489596 2 1 0
645 182 4 0 -1.9247590199179903 -3.897918601982294 4.275498543451238 2 1 0
684 195 4 0 -2.0969935691717487 -4.218517752369921 4.447489393047358 2 1 0
646 182 4 0 -1.4313211913583888 -3.4982010509896213 3.6510143687982177 2 1 0
541 147 4 0 -1.3542855480133027 -3.538595423570872 3.2786170874841547 1 0 0
672 191 4 0 -1.019753683581066 -3.517215096059244 3.499751800864824 2 1 0
671 191 2 0 -0.6331356869463489 -3.454808684156998 3.7677941679437312 2 1 0
673 191 4 0 -0.2433384360015003 -3.373845851653522 4.041190868331021 2 1 0
256 52 4 0 -3.926915921556704 -2.0868929463907757 4.396747651119777 1 0 -1
42 9 3 0 -3.5342608397307993 -1.874567124628609 4.309646733256879 1 0 0
44 9 3 0 -3.0640372543189516 -1.690677100830933 3.760786727268152 1 0 0
41 9 1 0 -3.1481337843102493 -1.665781115586264 4.21637752735744 1 0 0
43 9 3 0 -2.8010633003319247 -1.8649911119779201 4.446143253034834 1 0 0
328 76 4 0 -4.43313098825566 -3.2111339468540674 1.0822220059502579 1 0 0
45 9 3 0 -3.166337355289634 -1.2169747575392194 4.344006575665072 1 0 0
364 88 4 0 -2.915835901673828 -0.8992089136354187 4.226715732498749 1 0 0
340 80 4 0 -2.390335755115957 -0.05339519483080135 3.263575170455046 1 0 0
362 88 2 0 -2.7835953671421505 -0.6127410062632719 3.84307195548904 1 0 0
363 88 4 0 -2.6374437262193053 -0.32356395934747795 3.4675359980294855 1 0 0
342 81 4 0 -2.758319193911781 -0.19364934121257527 3.1025301559721834 1 0 0
586 162 4 0 -0.4965742484079487 -0.08252738284355665 4.467790106070898 1 0 -1
279 60 4 0 -4.337063529825866 -1.3892766931400953 0.014017205377314212 1 0 0
533 145 2 0 -2.9262156213729176 2.5761298617658026 -3.840031673635061 2 0 1
535 145 4 0 -3.0101343591366856 2.489955453735731 -3.386655686783182 2 0 1
534 145 4 0 -2.8284346639710574 2.6559890083830124 -4.301016172771865 2 0 1
419 107 2 0 -3.5049247584362924 4.44222325447858 -4.208814106572463 2 0 1
649 183 4 0 -4.160933964714778 4.421772420317555 -1.1849262633758633 2 0 0
655 185 4 0 -2.8787258306297723 3.032741415139049 -4.435384884935702 2 0 1
218 44 3 0 -0.39621384239176827 4.2736306518783485 -4.214953928182288 2 0 0
216 44 1 0 -0.2334443545824083 3.8872176139231156 -4.363042777880698 2 0 0
624 175 4 0 -0.257726441240135 3.633156613447837 -3.5926226226350253 2 0 0
217 44 3 0 -0.15714317004290734 3.5903723960692178 -4.00061250843587 2 0 0
623 175 2 0 -0.5375071268573155 3.8266852864365903 -3.2629197042716847 2 0 0
501 134 4 0 -2.5958237098329233 2.5538253759343945 -1.5570366341233326 1 -1 0
625 175 4 0 -0.8061072053887788 4.0090565076482845 -2.9609615232414916 2 0 0
200 40 3 0 -0.6695298774423395 4.330829725023526 -2.7493865024796458 2 0 0
304 68 4 0 -4.207371279583592 0.05051915108326366 -0.8806595238987489 1 0 0
303 68 4 0 -3.4196250244453417 0.5008462236077955 -0.7951427663396364 1 0 0
302 68 2 0 -3.817601321651591 0.2737724180893588 -0.8352721270323644 1 0 0
382 94 4 0 -3.0423480865536954 0.6517840588057267 -0.6950288468975532 1 0 0
380 94 2 0 -2.6020658125073366 0.6325752593587914 -0.6305668753109943 1 0 0
381 94 4 0 -2.162394032241989 0.6074185781602264 -0.571140386352992 1 0 0
64 13 3 0 -1.8013411113194686 0.5884893399098639 -0.38938883106170596 1 0 0
61 13 1 0 -1.487255508006609 0.9070094675930198 -0.2900169239602315 1 0 0
62 13 3 0 -1.3507092365061073 1.1269263224616086 -0.6852029853126735 1 0 0
485 129 2 0 -2.9768389066147716 3.0372899920106464 -0.21995025025212467 1 -1 0
31 7 1 0 -0.7627536302658542 0.1945963195465925 -0.6319198531591121 1 0 0
65 13 3 0 -1.1125410295454294 0.6992938760444503 -0.09167878368229232 1 0 0
34 7 3 0 -1.010910092633162 0.3690181798966403 -0.9322343799052306 1 0 0
393 98 4 0 -0.7053344276380553 0.7338218350404953 -0.038229491983825525 1 0 0
32 7 3 0 -0.573969287722083 0.5271724014198993 -0.382692553370255 1 0 0
603 168 4 0 -4.382684717883784 2.502222156556356 -1.4629239017887419 2 0 0
202 41 3 0 -4.1295865597902885 2.5921280999894263 -1.118706584706226 2 0 0
617 173 2 0 -3.55279310889583 2.1203978353188395 -0.13053752424009968 2 0 0
619 173 4 0 -3.3637190169488393 2.3534361943115423 -0.49670465439128186 2 0 0
502 134 4 0 -3.1017214417924666 2.4308907844901313 -0.8106806414738235 1 -1 0
486 129 4 0 -3.14520308548136 2.715111333391145 -0.522037753373763 1 -1 0
203 41 3 0 -3.4409695955889 2.64179513952742 -0.8013898662910655 2 0 0
201 41 1 0 -3.830520855057504 2.879207772701588 -0.880699760733962 2 0 0
500 134 2 0 -2.8617701084457563 2.489881758183622 -1.1639661305436202 1 -1 0
598 166 4 0 -4.024469791113137 3.171157017989091 -0.043658535866940795 2 0 0
205 41 3 0 -4.018096804122854 3.011137846005494 -0.4564136749812082 2 0 0
648 183 4 0 -3.797054754693699 4.372600921353494 -0.34958953531117043 2 0 0
647 183 2 0 -3.9822779101784684 4.3985818351775725 -0.7628466341090414 2 0 0
204 41 3 0 -3.732955515433776 3.257324271262851 -1.130398920716055 2 0 0
230 46 3 0 -3.5665247083096774 4.19382596274331 -0.08668237910339904 2 0 0
213 43 3 0 -1.567006686862165 4.495718371975458 -3.8401333701519067 2 0 0
199 40 3 0 -0.10338007688303552 4.277394511820243 -2.284459461593966 2 0 0
63 13 3 0 -1.682960834138942 1.2039275972256895 -0.0044573412074964125 1 0 0
110 22 3 0 -3.937081544829886 0.29198124817899895 0.5261054622313495 1 0 0
106 22 1 0 -4.277016887274423 0.39138938555127556 0.8082283328123347 1 0 0
107 22 3 0 -4.113202317216139 0.6360718057649093 1.1814050705822012 1 0 0
581 161 2 0 -4.278332082609758 1.4236905981793857 0.49466005284551073 2 0 0
30 6 3 0 -1.301516138975305 0.39080967695252244 0.7125833091352378 1 0 0
29 6 3 0 -1.2260576565783925 0.02930220757380475 0.07443549623322188 1 0 0
26 6 1 0 -1.0055557803250168 0.19988886285712226 0.44293271979079485 1 0 0
28 6 3 0 -0.6923901519047928 0.5152712302902831 0.3031371251072805 1 0 0
394 98 4 0 -0.16267203119696205 1.450592984987618 0.23030890691835726 1 0 0
392 98 2 0 -0.43662593886258083 1.0841748510837714 0.08991454423400391 1 0 0
688 196 4 0 -3.1328532435793672 2.4069086279852003 1.267230553311614 2 0 0
686 196 2 0 -3.3965838525220513 2.211371471074668 0.9408855154768547 2 0 0
687 196 4 0 -3.6618743496194863 2.0066480646325076 0.6036650188685684 2 0 0
582 161 4 0 -4.010727998038006 1.8064078242779082 0.538754116177981 2 0 0
618 173 4 0 -3.7382409588263217 1.896874181747715 0.22791614639796176 2 0 0
247 50 3 0 -2.825629181505194 2.5666422228508887 1.4509725524719075 2 0 0
229 46 3 0 -3.5415862622999157 4.014339451298935 0.6399836410515105 2 0 0
532 144 4 0 -3.2759648341085903 4.194036407962515 0.9044570173187614 1 -1 0
228 46 3 0 -3.8358507932979453 3.5004094652469844 0.14013450152091167 2 0 0
226 46 1 0 -3.506747974987344 3.852565813130556 0.21263690986587847 2 0 0
596 166 2 0 -4.398400043850401 2.9470394911537063 0.05952148453280781 2 0 0
227 46 3 0 -3.0662302639198002 3.6588796095680314 0.15423487978399653 2 0 0
524 142 2 0 -2.2979798359179844 3.8735185236450898 0.4105510185499943 1 -1 0
525 142 4 0 -1.9028605238077354 4.099988565484684 0.5606675739800053 1 -1 0
526 142 4 0 -2.672810874472181 3.6571193591202116 0.2692283532037312 1 -1 0
555 152 4 0 -1.5706133187387956 4.292244129625408 0.7509805072251066 1 -1 0
547 149 4 0 -0.25490681668656556 3.252100151682323 0.6537600412191074 1 -1 0
57 12 3 0 -0.3479580678514482 3.2285422038174385 1.03748458529493 0 -1 0
466 122 4 0 -2.2417916829891347 1.6479161729000378 2.895965100587584 1 0 0
650 184 2 0 -2.978344643949831 2.483187602275227 2.908827417339152 2 0 0
248 50 3 0 -2.7496291267648862 2.631647618952676 2.1899359961354206 2 0 0
652 184 4 0 -2.8389867473721586 2.41830875782406 2.4975642978367434 2 0 0
246 50 1 0 -2.624862466861086 2.8067801135138675 1.8118885037472143 2 0 0
249 50 3 0 -2.1633107998653687 2.791150791869427 1.7705627960154375 2 0 0
233 47 3 0 -2.546831194900008 2.1815842499057796 2.357306372501923 2 0 0
232 47 3 0 -2.1446472548721505 1.651622320755921 1.996370120421716 2 0 0
234 47 3 0 -1.9455800569182835 1.8654693827267677 2.6862660963801783 2 0 0
231 47 1 0 -2.1154119479891786 2.0080101191840614 2.286372459045902 2 0 0
663 188 4 0 -1.7900219443608738 2.693396398101168 1.93652467538696 2 0 0
235 47 3 0 -1.854054041802069 2.321945394604197 2.1144163227186166 2 0 0
662 188 2 0 -1.328364994686281 2.8662734508216507 1.959339608109306 2 0 0
58 12 3 0 -0.6051394170599855 3.0028616645942083 1.6797318515885662 0 -1 0
664 188 4 0 -0.896266331006955 3.0288768371637858 1.983924511897226 2 0 0
250 50 3 0 -2.7629881591139593 3.244245576443979 1.7781726816233672 2 0 0
56 12 1 0 -0.2419323830085407 3.1345908230027453 1.4514835437724427 0 -1 0
317 73 2 0 -0.35507044622286 4.213090792151667 1.5797959978194314 0 -1 0
60 12 3 0 -0.08144648788359898 3.5074859093889073 1.6445543150523658 0 -1 0
222 45 3 0 -0.6988283749055624 3.301794357640354 2.2037364354158244 2 0 0
223 45 3 0 -0.692694689697916 3.936809198035184 2.545598195127199 2 0 0
221 45 1 0 -0.4513734314064264 3.57740927608232 2.4358114716241674 2 0 0
225 45 3 0 -0.07692184963568405 3.7037312686759174 2.167025854290684 2 0 0
318 73 4 0 -0.17865956030593289 3.8689385427719527 1.8113066968979536 0 -1 0
224 45 3 0 -0.29906622512525427 3.3596321728567995 2.8291023313950907 2 0 0
321 74 4 0 -3.2434714858465705 1.3508495846648945 4.392025157982444 1 0 0
338 80 2 0 -1.9446637302566265 0.1479102166296924 3.3883666590505515 1 0 0
339 80 4 0 -1.5170251864968542 0.34558293207936863 3.5074577496177204 1 0 0
424 108 4 0 -1.4411713571303824 1.6413332761888704 4.4359611776881005 1 0 0
112 23 3 0 -1.3235651097378285 1.4096467734854103 3.3080214656260294 1 0 0
47 10 3 0 -0.6861656674976109 0.02063090880302898 4.104136935538814 1 0 0
115 23 3 0 -1.432340601012363 0.7507886428953165 3.669581240008733 1 0 0
114 23 3 0 -1.371888424634026 1.438805174400569 4.068978419615786 1 0 0
111 23 1 0 -1.2185907238021776 1.1834363070985514 3.6760152985775383 1 0 0
50 10 3 0 -1.1108405760006281 0.3009199640415554 3.5067651583881334 1 0 0
48 10 3 0 -0.5285790106872965 0.7058181433271065 3.834669036734515 1 0 0
46 10 1 0 -0.6631629229956859 0.2767688368260144 3.725451394228691 1 0 0
113 23 3 0 -0.7593126855037688 1.1269570935601765 3.6990883409637503 1 0 0
442 114 4 0 -0.37699417706967164 1.0563959097264624 3.774230032566048 1 0 0
440 114 2 0 -0.06124379166123628 1.3857897001444721 3.722956560515514 1 0 0
49 10 3 0 -0.3564430004694614 0.09014493038226146 3.430551035691635 1 0 0
320 74 2 0 -2.942743766211562 1.6332730947600247 4.205877944131998 1 0 0
661 187 4 0 -4.350413374447788 1.8794618136044976 3.129493140475849 2 0 0
659 187 2 0 -3.937175765177023 2.109255701004895 3.23111047997093 2 0 0
651 184 4 0 -3.128119389396658 2.5525903067910987 3.350631063409444 2 0 0
660 187 4 0 -3.501045447917993 2.350390511536892 3.3240710189450473 2 0 0
244 49 3 0 -2.8246202002176544 2.752436510580371 3.5431331190877744 2 0 0
322 74 4 0 -2.65020786533566 1.8976274789517689 4.031906885219445 1 0 0
245 49 3 0 -2.6938181845328257 2.777981724114931 4.315464599234635 2 0 0
241 49 1 0 -2.5089094101412313 2.6432425881724546 3.9139690742040942 2 0 0
464 122 2 0 -2.28101232953157 1.742077602789517 3.326464242022479 1 0 0
422 108 2 0 -1.851488023095019 1.7846353058660975 4.304409641025383 1 0 0
242 49 3 0 -2.4363721430440246 2.196504615499971 3.927420520444083 2 0 0
465 122 4 0 -2.3261998838406925 1.8492357930520145 3.7916396153883367 1 0 0
243 49 3 0 -2.076089715184788 2.89310283483169 3.8479673728968704 2 0 0
423 108 4 0 -2.2776612527190343 1.9127076149741375 4.16667919882777 1 0 0
636 179 4 0 -3.4767288857456116 4.340730866891579 3.349786154624267 2 0 0
635 179 2 0 -3.2921305013628963 4.286988840825596 3.734120557674564 2 0 0
637 179 4 0 -3.098626084290648 4.2212281434574175 4.129005527305895 2 0 0
654 185 4 0 -3.0809082918156765 3.9478780492483834 4.441818003094631 2 0 0
420 107 4 0 -3.165720517306162 4.334139667139886 4.494941368075408 2 0 0
683 195 2 0 -2.4494677108660277 4.479024966040108 4.420521422223255 2 0 0
396 99 4 0 -1.7376874485344187 3.040676902124951 4.034409803294419 1 0 -1
685 195 4 0 -2.8029477583834748 4.197662815720093 4.389322860087112 2 0 0
653 185 2 0 -2.981886513395258 3.505538523648002 4.489907702651167 2 0 0
395 99 2 0 -1.3095753897567062 3.273189181039764 4.0924510749108896 1 0 -1
638 180 2 0 -0.31826510944636777 3.5599476164445614 3.53899287184299 2 0 0
397 99 4 0 -0.9009079680775045 3.493886769499931 4.148713886095158 1 0 -1
220 44 3 0 -0.5607727969396992 3.6877815974624726 4.31489987745043 2 0 -1
639 180 4 0 -0.5636926934420741 3.6595128993026345 3.938747449149168 2 0 0
640 180 4 0 -0.08718098878296754 3.4641972273685626 3.160476675614535 2 0 0
530 144 2 0 -3.0917843916215313 4.492611132932153 1.193366612359747 1 -1 0
487 129 4 0 -2.814304744790435 3.35294350055925 0.08502652649005071 1 -1 0
677 193 2 0 0.9380332346196818 -3.311868119055264 -3.5763526336008287 2 1 1
678 193 4 0 0.9633907752596089 -3.33050153556724 -4.040304316535698 2 1 1
179 36 3 0 0.6575295585320067 -3.2914247303785467 -4.259934820577697 1 0 1
679 193 4 0 0.9178074294776426 -3.2840215557947117 -3.1215122552502748 2 1 1
408 103 4 0 2.8711066273681816 -4.325814522579237 -3.984813172046223 1 1 0
278 60 2 0 4.237697238897925 -1.4123637804215479 -0.2553138645987296 0 0 0
414 105 4 0 2.179429515094931 -4.4447540463732 -3.1515697368486864 1 1 0
407 103 2 0 3.247941416186955 -3.959179805889925 -3.9287742655499236 1 1 0
409 103 4 0 3.5984674660366 -3.6011292629967255 -3.8959808573807946 1 1 0
4 1 3 0 3.975534849522835 -3.345643678936245 -3.7585262514098923 0 0 0
1 1 1 0 4.426178716845723 -3.1499036625268766 -3.7578775973493417 0 0 0
132 27 3 0 1.1908425602444908 -2.980678555637123 -4.106502186231837 1 0 0
131 27 1 0 1.2263161572282417 -2.5308847092172586 -4.221901727173831 1 0 0
134 27 3 0 0.9653184249575251 -2.2636806418352315 -3.9443621147740813 1 0 0
483 128 4 0 0.8407751436407054 -2.1800580503654094 -3.567686208817334 1 0 0
482 128 2 0 0.8107774749025172 -1.7394925065681384 -3.421406950525396 1 0 0
93 19 3 0 0.9383674997612097 -2.3534432457453818 -3.1605618735836525 1 1 0
135 27 3 0 1.670260296886906 -2.3997679287409177 -4.182188654406173 1 0 0
569 157 2 0 1.7982103462593741 -1.6168353395801143 -3.8520179370714382 1 0 1
571 157 4 0 1.9023136951860469 -2.0348708544643643 -4.041937768827462 1 0 1
358 86 4 0 2.074506216540251 -2.376979464738804 -4.1871577282091925 0 0 1
356 86 2 0 2.470974979368691 -2.4279209621778106 -3.9422690047732636 0 0 1
357 86 4 0 2.850824748973018 -2.4730765215509996 -3.7001064712267078 0 0 1
252 51 4 0 3.0276484255477936 -2.4275852608912047 -3.359792833395542 0 0 0
372 91 4 0 3.2382324515652288 -2.333219989358637 -3.6870832963702638 0 0 1
371 91 2 0 3.6873328826862055 -2.339322437830839 -3.6863104656864274 0 0 1
373 91 4 0 4.159524050512016 -2.3373067226344633 -3.6923557067580703 0 0 1
5 1 3 0 4.397744689299798 -2.662376548877417 -3.7017847310963314 0 0 0
144 29 3 0 3.461532164310772 -1.3912748495196983 -0.335876955669705 1 0 0
78 16 3 0 3.224530013903858 -0.1692286109643657 -0.4059431052920832 0 0 0
585 162 4 0 0.1976128079786994 -0.589612032716698 -4.185774967212255 1 0 0
484 128 4 0 0.7829314531280787 -1.3152928295099304 -3.270316708127111 1 0 0
149 30 3 0 1.0532505597750097 -1.007432979763487 -3.1688702697821265 1 0 0
570 157 4 0 1.6979231052474777 -1.2020739426327576 -3.676828819598371 1 0 1
147 30 3 0 1.7793932069227116 -1.0139403090429262 -3.3414754532101125 1 0 0
8 2 3 0 4.364486301792758 -1.280073501976009 -1.33678066104937 0 0 0
616 172 4 0 0.6213284136852257 -3.3088210800910787 -2.820932196014881 2 1 0
92 19 3 0 0.8884911878960322 -3.0113049888500867 -2.828981575228027 1 1 0
614 172 2 0 0.22523454674509136 -3.491356226235285 -2.7283785082200867 2 1 0
415 105 4 0 2.7123358717962223 -3.9496000156120226 -2.5540907843103433 1 1 0
413 105 2 0 2.45211215763062 -4.191983037668379 -2.8418897177543387 1 1 0
69 14 3 0 2.9931158809548712 -3.7782412060329666 -2.3065150624621507 1 1 0
12 3 3 0 3.1714762780502648 -2.990943209544457 -1.6150613982860182 0 0 0
68 14 3 0 3.471880317724426 -3.719477821707715 -1.7117903969607111 1 1 0
66 14 1 0 3.4558034598726097 -3.7509853718020825 -2.167958946676113 1 1 0
67 14 3 0 3.6504396281354596 -3.386199103323926 -2.3616622335521376 1 1 0
268 56 4 0 4.03376899792207 -3.220104020399243 -2.3040507980221565 0 0 0
70 14 3 0 3.68533791864244 -4.140137856895357 -2.3112877965224348 1 1 0
266 56 2 0 4.3119230052848385 -3.2053389871796405 -2.6489726564270413 0 0 0
411 104 4 0 3.7516103306051596 -3.9296731546440316 -1.5346763733799453 1 1 0