LAMMPS data file via write_data, version 29 Aug 2024, timestep = 900000, units = lj

688 atoms
4 atom types
492 bonds
1 bond types
446 angles
2 angle types

-4.496439 4.496439 xlo xhi
-4.496439 4.496439 ylo yhi
-4.496439 4.496439 zlo zhi

Masses

1 1
2 1
3 0.1
4 0.1

Bond Coeffs # harmonic/omp

1 100 0.45

Angle Coeffs # harmonic/omp

1 100 180
2 100 109.471

Atoms # full

3 1 3 0 -1.7545488031828613 -3.669270033776093 -3.692349674946999 0 0 0
5 1 3 0 -2.0393962667375423 -3.102009340604825 -3.2837346436450456 0 0 0
1 1 1 0 -1.9041461407774418 -3.530982203428483 -3.2640679701039432 0 0 0
610 170 4 0 -1.9779200839430182 -4.059191702566279 -3.7454704622398722 0 1 0
409 103 4 0 -2.219827032703497 -4.118007315269384 -3.408382024698027 0 1 0
608 170 2 0 -1.765083543769644 -4.223299458098952 -4.119616748198631 0 1 0
255 52 4 0 -2.040086250480005 -2.850421050969667 -3.5927803172154924 0 0 0
4 1 3 0 -2.2510536403393497 -3.7950094377190813 -3.1359369959590198 0 0 0
147 30 3 0 -4.402664500279693 -0.8625086841177042 -3.671294113599529 1 0 0
609 170 4 0 -1.552190707757066 -4.391784090302484 -4.4937628763696 0 1 0
372 91 4 0 -3.2515167219540198 -2.672724304582416 -3.2352228457692624 0 0 1
357 86 4 0 -3.648046378703384 -2.665228873744072 -3.257825567890498 0 0 1
356 86 2 0 -3.911460370261752 -2.538684614472342 -3.6296586991660877 0 0 1
358 86 4 0 -4.166424258957352 -2.4207739482333577 -3.9896920234813327 0 0 1
569 157 2 0 -4.3339746930059695 -1.5958754465084015 -4.029068047650561 1 0 1
571 157 4 0 -4.28703709226487 -2.0608270747733086 -4.099604179039078 1 0 1
371 91 2 0 -2.801648841038619 -2.772412684244981 -3.3053818660936023 0 0 1
373 91 4 0 -2.3823875181345477 -2.872015193926193 -3.3750660323383435 0 0 1
254 52 2 0 -1.9233486353958347 -2.753884859093143 -4.03717301473133 0 0 0
271 57 4 0 -2.0401338377328626 -2.7060257570060795 -3.2204403625774365 0 0 0
269 57 2 0 -1.8163420543790683 -2.416095567683116 -2.949063487322047 0 0 0
42 9 3 0 -1.6184959045059977 -2.2997099758758286 -4.435381965987794 0 0 1
256 52 4 0 -1.8110073231714794 -2.6547923717228237 -4.4806001935112345 0 0 0
453 118 4 0 -0.2595541354813267 -0.20577446542341643 -3.764002558281712 0 0 1
305 69 2 0 -0.22125644471018668 -1.817312725766659 -4.385437443010217 0 0 0
39 8 3 0 -0.7830727382037478 -0.8477930742991718 -0.3326979934772289 0 0 0
570 157 4 0 -4.3916436282768965 -1.1565650750955885 -3.95270989962969 1 0 1
293 65 2 0 -1.2426597933385573 -0.20597001492258868 -0.28134374369108306 0 0 0
16 4 1 0 -0.12155799161810085 -1.0063125389712748 -3.594418110421881 0 0 0
20 4 3 0 -0.09574203620927459 -0.5506717172323536 -3.6661808036133423 0 0 0
259 53 4 0 -1.4193840797411483 -1.4212045178503814 -4.257888042880578 0 0 0
157 32 3 0 -1.0828810588133482 -1.4875455885147162 -3.259138272408268 0 0 0
257 53 2 0 -1.1884297449015035 -1.3278141275295916 -3.898450718044484 0 0 0
258 53 4 0 -0.9512755788126176 -1.242001253616547 -3.538863652644441 0 0 0
17 4 3 0 -0.5750598350072672 -1.139378939977734 -3.568146193792147 0 0 0
40 8 3 0 -1.1876419603906967 -1.4774600889104226 -0.4328914321924764 0 0 0
2 1 3 0 -1.5480663770859806 -3.570519819176615 -2.9516476221615204 0 0 0
267 56 4 0 -1.509576226650833 -3.88768478704464 -2.719159357742882 0 0 0
266 56 2 0 -1.4904130426200084 -4.336842729069246 -2.6575107135963267 0 0 0
285 62 4 0 -1.2409330098319655 -3.57426907440779 -2.6816951287835087 0 0 0
125 25 3 0 -0.16219219078127023 -3.373548385230484 -2.232507316470185 0 0 0
284 62 2 0 -0.9009961244192396 -3.492238023303515 -2.3887347235944487 0 0 0
286 62 4 0 -0.5530020270465958 -3.419435240156336 -2.0864696231693847 0 0 0
481 127 4 0 -0.34682048289122164 -3.1016913390128793 -2.0155697474238066 0 0 0
252 51 4 0 -3.4738409514373707 -2.509599567793279 -2.9447022054792624 0 0 0
297 66 4 0 -4.2294203052835035 -2.1088448397162627 -2.0640353180093993 0 0 0
251 51 2 0 -3.6495499465054304 -2.404598535363337 -2.541043371791283 0 0 0
15 3 3 0 -4.001113653209393 -2.249602484328166 -1.7572541137321993 0 0 0
253 51 4 0 -3.8363302404132016 -2.2966540933751824 -2.1234849577373414 0 0 0
273 58 4 0 -3.905182905343682 -1.9253925023155982 -1.9622934067929871 0 0 0
12 3 3 0 -3.4405887585057338 -2.6927553233992976 -1.4849018019860534 0 0 0
301 67 4 0 -1.7586204694582122 -1.7883763799302368 -2.5291919946381425 0 0 0
283 61 4 0 -1.5751866112493471 -2.265467730196781 -1.4817638525116243 0 0 0
270 57 4 0 -1.5930084882683815 -2.1286931203076347 -2.67678527406023 0 0 0
281 61 2 0 -1.524915551116891 -2.111635398747292 -1.9129485223810963 0 0 0
282 61 4 0 -1.4817279407541613 -1.975439611433449 -2.303671710284102 0 0 0
160 32 3 0 -0.6656054254643877 -2.0102959199276795 -2.8736296458527284 0 0 0
37 8 3 0 -0.4431013557086493 -1.4748851748159386 -0.5761944662441788 0 0 0
479 127 2 0 -0.16372280524766922 -2.804490499238428 -1.6938324476492883 0 0 0
156 32 1 0 -0.9806808678996811 -1.6574601315339261 -2.8400895406355335 0 0 0
159 32 3 0 -1.3585329284578416 -1.8086607724638588 -2.648883444105292 0 0 0
272 58 2 0 -3.690594182951716 -1.513868147663503 -1.862152050827265 0 0 0
274 58 4 0 -3.4759155183636823 -1.1003671373569042 -1.7783515080308767 0 0 0
324 75 4 0 -3.2365909325184545 -0.8306572347731774 -1.9821838604282096 0 0 1
7 2 3 0 -3.4098057550218965 -0.7451715423387634 -1.6192426734295366 0 0 0
299 67 2 0 -2.0435881238929574 -1.3828287006656463 -2.611213864460797 0 0 0
323 75 2 0 -2.9292134331751996 -0.784779910500413 -2.3485592310410093 0 0 1
300 67 4 0 -2.310704799123472 -1.019564753168206 -2.684840958456128 0 0 0
325 75 4 0 -2.6487414673866714 -0.740201421333302 -2.68078842794154 0 0 1
158 32 3 0 -0.8104255984839347 -1.3464833064969584 -2.602369433309102 0 0 0
388 96 4 0 -1.7668709800334383 -3.8183877301053424 -1.2789383974553714 0 1 0
275 59 2 0 -1.6697742015157324 -3.006482162687472 -1.2469778481573752 0 0 0
208 42 3 0 -2.6608830325471065 -4.163362879827429 -0.22473439373813017 1 1 0
277 59 4 0 -1.5991411872443462 -3.4459613988642004 -1.2405101193256822 0 0 0
386 96 2 0 -1.5658190096496598 -4.214197898661246 -1.318786884150824 0 1 0
13 3 3 0 -4.135042223363832 -2.850181025735681 -1.3169277279874498 0 0 0
11 3 1 0 -3.8459316685456577 -2.5233121433453345 -1.3875297726937337 0 0 0
14 3 3 0 -3.8168800431448022 -2.270228136835587 -1.0247652862782999 0 0 0
288 63 4 0 -3.897333127038467 -1.9884650223038063 -0.7574538866719168 0 0 0
287 63 2 0 -3.8150869857023983 -1.5637648221626532 -0.7045903441003459 0 0 0
276 59 4 0 -1.7343769519928773 -2.5519708954857085 -1.2566303805597787 0 0 0
264 55 4 0 -1.7391726078210343 -2.183136179695499 -1.0970741592435111 0 0 0
263 55 2 0 -1.388356724670993 -1.9923156224038898 -0.8480163298393366 0 0 0
265 55 4 0 -1.0445044765035363 -1.8105549260107254 -0.6195023324504438 0 0 0
308 70 2 0 -0.31336721567564363 -1.975090522561541 -0.9868389344988713 0 0 0
309 70 4 0 -0.6373905720275849 -1.7999574778307368 -0.7109821578067296 0 0 0
8 2 3 0 -3.274256770046341 -0.21781898843560402 -1.115678071381089 0 0 0
289 63 4 0 -3.7279241067610123 -1.1455213173574432 -0.6584294175033485 0 0 0
144 29 3 0 -3.8897655593408427 -0.8027135966605669 -0.5295984356081814 1 0 0
145 29 3 0 -4.12864013307859 -0.12057611390129729 -0.5095549814312779 1 0 0
141 29 1 0 -4.194382108205773 -0.5490515514762038 -0.3513832739813108 1 0 0
9 2 3 0 -3.5410465088889143 -0.878288964898751 -0.8830328973983046 0 0 0
280 60 4 0 -3.484892846737596 -0.8375274203895011 -0.5071749511424373 0 0 0
6 2 1 0 -3.264374552830659 -0.6640637247608375 -1.1861522437939338 0 0 0
278 60 2 0 -3.1921338075175196 -0.9300168019224216 -0.1253689672697616 0 0 0
10 2 3 0 -2.8477206132643285 -0.8092878854967479 -1.143618067856733 0 0 0
36 8 1 0 -0.7704456500102176 -1.3032785691782456 -0.29431044865134254 0 0 0
294 65 4 0 -1.0200413750274648 -0.5779267142704061 -0.15082238710563559 0 0 0
209 42 3 0 -3.2834872122961594 -4.138464003271817 0.1412368828133455 1 1 0
206 42 1 0 -2.9206400475866925 -4.375905113777328 0.06713952453459386 1 1 0
337 79 4 0 -3.010111849331922 -3.780004153777176 1.475331249906313 0 0 0
210 42 3 0 -2.6985094557163163 -4.432415214972591 0.46827883639454254 1 1 0
335 79 2 0 -2.787437124100855 -3.9985566721261083 1.1259755905977777 0 0 0
336 79 4 0 -2.5800882914332957 -4.209998377637993 0.7933304588136918 0 0 0
328 76 4 0 -0.11779812051669795 -3.7333599489272515 1.4984649389597955 0 0 0
346 82 4 0 -3.9074765478110773 -2.2312077986441428 0.4399221524836379 0 0 0
344 82 2 0 -4.22179374292694 -2.001735857470239 0.7024598421438915 0 0 0
370 90 4 0 -3.5485143861357704 -2.333261321337749 0.4581631239886965 0 0 0
363 88 4 0 -2.038632599055106 -0.7695653934413731 3.835052588786218 0 0 0
368 90 2 0 -3.1099859752972523 -2.3701921151525553 0.5525192479342432 0 0 0
369 90 4 0 -2.6490566830002074 -2.401247713538178 0.6509690727078041 0 0 0
54 11 3 0 -2.480059285498779 -2.201330703011627 0.948489631036157 0 0 0
51 11 1 0 -2.142813925489516 -2.0953258747267487 1.210356517671989 0 0 0
55 11 3 0 -2.1552480293873018 -1.6407717464885687 1.318421391433243 0 0 0
53 11 3 0 -1.7514198423296599 -2.1941483272931945 0.9932779628917868 0 0 0
52 11 3 0 -2.1718504652815542 -2.342404974728981 1.5994270547911231 0 0 0
331 77 4 0 -1.3805562336191064 -2.05822511359689 0.9012801577536818 0 0 0
329 77 2 0 -1.1131023538247915 -1.7567523918806638 0.707251492795447 0 0 0
143 29 3 0 -4.145642346711466 -0.5505665786808003 0.10667185945413757 1 0 0
451 117 4 0 -2.9763225001810634 -0.9274531775838294 0.6176029589655786 0 0 0
279 60 4 0 -2.927139988538099 -1.01148950114567 0.19300789728985188 0 0 0
450 117 4 0 -2.4148141644698025 -1.3944944206122907 1.1931982048828187 0 0 0
449 117 2 0 -2.6887015652426043 -1.172278996237969 0.9017425551284456 0 0 0
463 121 4 0 -2.055924767805212 -1.262809261221265 1.3418331392472012 0 0 0
461 121 2 0 -1.7190897406416008 -0.9501883925081552 1.300073165206287 0 0 0
330 77 4 0 -0.8241541649528167 -1.4368280456634828 0.5014824246894954 0 0 0
38 8 3 0 -0.6832138206447819 -1.4264958960746386 0.1487765817787291 0 0 0
354 85 4 0 -0.41269370319939375 -1.4071388559649816 0.4705539510725615 0 0 0
24 5 3 0 -0.6182802262446365 -1.126721695918766 0.6041902168961681 0 0 0
462 121 4 0 -1.3769236600145927 -0.6312753810389365 1.2544350545090936 0 0 0
23 5 3 0 -1.0522741079284945 -0.6621539590069013 0.9998682112481643 0 0 0
25 5 3 0 -0.45514756997544864 -0.41475476811983414 0.6336991460919824 0 0 0
21 5 1 0 -0.7880268037978418 -0.7134104400430283 0.6240409566711528 0 0 0
376 92 4 0 -4.38556484898965 -1.446032369293771 1.1379094705027335 0 0 0
22 5 3 0 -1.0449927288227994 -0.6451236770634075 0.25453020817782035 0 0 0
224 45 3 0 -3.988794010309545 -4.314853724122358 2.872813308245696 1 1 0
60 12 3 0 -4.115478174442601 -4.339537779860455 1.8238363936219582 0 0 0
347 83 2 0 -3.5943663111243316 -3.8115204926268293 1.8816745391278809 0 0 0
349 83 4 0 -3.9830006628836983 -4.0031120956217565 2.003889812002788 0 0 0
225 45 3 0 -4.308079567513369 -4.16519537210289 2.2220163265253805 1 1 0
348 83 4 0 -3.2060965931966803 -3.6161834514972346 1.7613736127046875 0 0 0
366 89 4 0 -2.886035532923571 -3.4185289245219805 1.6016988492823103 0 0 0
318 73 4 0 -4.364321612721659 -4.033155300357016 1.8648990927593454 0 0 0
221 45 1 0 -4.370742389797825 -4.35663888284576 2.6264347732292253 1 1 0
359 87 2 0 -0.7127057315028532 -3.400326403314575 1.9288577356515404 0 0 0
360 87 4 0 -0.4543534737368233 -3.642327434121998 1.6842831025796041 0 0 0
315 72 4 0 -1.270412105383393 -2.911880082480436 2.338018794007318 0 0 0
361 87 4 0 -0.9766743612603913 -3.151835392101045 2.186943896175383 0 0 0
365 89 2 0 -2.6222244370698022 -3.057098794017104 1.6601698285125928 0 0 0
367 89 4 0 -2.3607550094323857 -2.7064529563166055 1.7207580983833266 0 0 0
316 72 4 0 -1.9696135655919476 -2.613020013101866 1.832674236654447 0 0 0
314 72 2 0 -1.634721021093513 -2.754930083698028 2.078089555896784 0 0 0
427 109 4 0 -3.8499464524801725 -1.0601286304297697 2.2664278708749745 0 0 0
374 92 2 0 -4.226044995977325 -1.3058270680308266 1.5420403792375745 0 0 0
375 92 4 0 -4.058265115728747 -1.1691908703456546 1.9570091938533039 0 0 0
425 109 2 0 -3.4152885103889252 -1.0362813921600758 2.4134919402082757 0 0 0
426 109 4 0 -2.997375684481975 -1.0150450135585758 2.5667106977040537 0 0 0
334 78 4 0 -2.334457770680533 -1.3847727480242535 1.5859058926072265 0 0 0
332 78 2 0 -2.4941217636243143 -1.3059583849014167 1.9858689578567725 0 0 0
333 78 4 0 -2.66542243272608 -1.218011139871307 2.4124821977633504 0 0 0
343 81 4 0 -2.619149250960968 -1.052697442746431 2.768715756142525 0 0 0
341 81 2 0 -2.36060974296451 -0.856799355115614 3.103960736133434 0 0 0
44 9 3 0 -1.4268818129475513 -2.120213473038761 3.882527705467174 0 0 0
41 9 1 0 -1.3241607124864008 -2.0704394693381807 4.298444256762004 0 0 0
43 9 3 0 -0.8668320176265509 -2.240058866725253 4.371218328266454 0 0 0
307 69 4 0 -0.48625185855251685 -2.1191563224649896 4.4511006537241675 0 0 -1
364 88 4 0 -1.6084904729706475 -1.3171561982507576 4.367459965661643 0 0 0
342 81 4 0 -2.0966579676088815 -0.646107622678213 3.4396864953710247 0 0 0
362 88 2 0 -1.812285615429278 -1.0535757568592752 4.110794446989384 0 0 0
340 80 4 0 -1.9133390040334894 -0.4091596333140895 3.708496653041915 0 0 0
338 80 2 0 -1.6669771224588745 -0.020598976310572604 3.722873008739576 0 0 0
353 85 2 0 -0.05578591286997334 -1.6772660868291023 0.4515921452059535 0 0 0
45 9 3 0 -1.3389782667037877 -1.6352262448770756 4.4145556969111786 0 0 0
411 104 4 0 -0.9885068094203467 4.1606999570472585 -1.2736154905175976 0 0 0
407 103 2 0 -2.423980617030665 4.480607569714471 -3.3293440956741964 0 0 0
452 118 2 0 -0.35411709953090936 0.13590322591809764 -4.055927318490852 0 0 1
454 118 4 0 -0.4498185266905602 0.48080418485703114 -4.337594968778496 0 0 1
83 17 3 0 -3.1612832447207384 2.560236362538482 -3.3432339194500122 0 0 0
418 106 4 0 -4.140964542191581 2.9788921574697067 -3.2553938114928767 0 0 0
416 106 2 0 -3.754151368118075 2.807248022594982 -3.12192599175021 0 0 0
417 106 4 0 -3.363480802067308 2.645368389550474 -2.994773157312437 0 0 0
84 17 3 0 -2.8755006345388074 2.1032745250386897 -3.830491703145409 0 0 0
81 17 1 0 -2.7768989345361144 2.408316128593028 -3.5426476725941867 0 0 0
82 17 3 0 -2.5619928795556635 2.7595306875606367 -3.7425391218167996 0 0 0
85 17 3 0 -2.4999044335568184 2.2214417611085486 -3.220781145629079 0 0 0
390 97 4 0 -2.1907511769121597 2.9104041548061734 -3.683334496892757 0 0 0
220 44 3 0 -4.33173824897067 3.0651027218478513 -4.309469655669951 1 0 0
217 44 3 0 -4.341428361251265 3.1624931498262296 -3.5443798955875803 1 0 0
219 44 3 0 -3.9575823052762025 3.648046814364005 -3.993704798090937 1 0 0
352 84 4 0 -3.6369028654808413 3.926524045957791 -4.035226381993021 0 -1 1
350 84 2 0 -3.2979862553191994 3.9329026453763003 -3.7486416495555326 0 -1 1
216 44 1 0 -4.338954491499501 3.3816814211938673 -3.9606055870280388 1 0 0
351 84 4 0 -2.945099017712308 3.9325454693689217 -3.444109887024119 0 -1 1
74 15 3 0 -2.9702332425391047 3.526578075547967 -3.3533857981843016 0 0 0
389 97 2 0 -1.9682329403542869 3.024963882533703 -4.026976534724061 0 0 0
391 97 4 0 -1.7383159667342176 3.1511782928671077 -4.392381009513551 0 0 0
75 15 3 0 -2.3197666897012823 3.108421168286545 -3.379602235858734 0 0 0
408 103 4 0 -2.6326239686643085 4.0727793369390906 -3.243792374366234 0 0 0
584 162 2 0 -0.04848582853713546 1.1690951875571185 -4.298196025415857 0 0 0
72 15 3 0 -2.313053161546517 3.82241953314872 -3.087103297242137 0 0 0
71 15 1 0 -2.5659831848488857 3.4320928427092214 -3.127149559660772 0 0 0
302 68 2 0 -3.4673500285111563 1.4596789627871856 -1.7578964853528367 0 0 0
304 68 4 0 -3.732336943423234 1.084925748912172 -1.6638150325462808 0 0 0
261 54 4 0 -3.6664721398013813 0.7500373259703407 -1.4373550821270302 0 0 0
385 95 4 0 -4.063054872329614 0.9059342820164706 -1.513573292173392 0 0 0
90 18 3 0 -3.2436408328286888 2.425333958655485 -2.6890487602056137 0 0 0
303 68 4 0 -3.2219180261236304 1.80720820873093 -1.8421384213783776 0 0 0
89 18 3 0 -3.0337627012573964 2.1049067229435887 -2.0304365650600493 0 0 0
86 18 1 0 -2.8995868506452176 2.3744104272189186 -2.4252806895610948 0 0 0
398 100 2 0 -1.8230512529222178 2.2783464060745495 -2.919508045335665 0 0 0
399 100 4 0 -2.2729451466011756 2.2394937140646247 -2.9167153617454384 0 0 0
87 18 3 0 -2.7558762124684173 2.7739113892739544 -2.2987172081683793 0 0 0
88 18 3 0 -2.564021006156247 2.164730573903131 -2.658572378172626 0 0 0
382 94 4 0 -2.932027082675344 2.0673477384236563 -1.6296804449171356 0 0 0
400 100 4 0 -1.3726127930760195 2.3226986072066134 -2.917458817071138 0 0 0
402 101 4 0 -1.079278532551692 2.520190068242184 -2.7290197095245494 0 0 0
401 101 2 0 -1.003464363672753 2.918327648782338 -2.5275869654877736 0 0 0
414 105 4 0 -2.5084138009013452 3.118288722641918 -2.3639005345614823 0 0 0
73 15 3 0 -2.6542403225924263 3.262892504284605 -2.703369195397832 0 0 0
413 105 2 0 -2.0757570215351517 3.1072067717492438 -2.2009365764250264 0 0 0
415 105 4 0 -1.6355889648349107 3.1006842114490274 -2.0343792604408386 0 0 0
69 14 3 0 -1.6955633647787733 3.4645236810043096 -1.8702490878846025 0 0 0
268 56 4 0 -1.4804795763282885 4.25148874426482 -2.5877553110102194 0 -1 0
403 101 4 0 -0.9286932807102575 3.3135094187695464 -2.333048676416885 0 0 0
67 14 3 0 -1.3862025909041569 4.055940800998622 -2.2340233494443202 0 0 0
66 14 1 0 -1.309127860098638 3.7758274870043183 -1.913606532082984 0 0 0
70 14 3 0 -0.9268151926439903 3.5260442234392486 -2.0054107120852893 0 0 0
68 14 3 0 -1.257749659891447 4.002350436954621 -1.5309423161310447 0 0 0
262 54 4 0 -3.0402368799301804 0.1395154531079585 -1.1665612751985328 0 0 0
260 54 2 0 -3.3484197861368306 0.4449118652182223 -1.302456842516426 0 0 0
383 95 2 0 -4.442059494553312 0.680990308696698 -1.3914962287293833 0 0 0
405 102 4 0 -4.327965775573085 0.12352751467040571 -0.27267817464038724 0 0 0
404 102 2 0 -4.203254607539677 0.5937661342521785 -0.15017774546016047 0 0 0
406 102 4 0 -4.09281348660583 1.0116140494904227 -0.04064414382146581 0 0 0
34 7 3 0 -1.4168590650456845 0.6814861954408779 -1.4476587847285456 0 0 0
63 13 3 0 -2.0272019790921463 1.5938267949827931 -0.3020789610868983 0 0 0
33 7 3 0 -1.428860735198447 0.29777288051486495 -0.8216264092801273 0 0 0
35 7 3 0 -0.7994036544840964 0.36178096232595575 -1.1869748132502516 0 0 0
295 65 4 0 -1.4790948847380654 0.16380302157708387 -0.41994370052275815 0 0 0
31 7 1 0 -1.1861824486017716 0.5704353419323951 -1.0738746931494936 0 0 0
32 7 3 0 -1.0967504924930445 0.9252781425804227 -0.8455157098900163 0 0 0
28 6 3 0 -1.2245436664356693 1.1708250656135435 -0.24959749390686828 0 0 0
29 6 3 0 -1.5814092221288574 0.5336461268409494 -0.2725588129297322 0 0 0
393 98 4 0 -1.0888697735085089 1.2633204262390685 -0.6129533288854992 0 0 0
65 13 3 0 -1.4319465246083685 1.4767877912048797 -0.7043602107377128 0 0 0
64 13 3 0 -2.037567414401563 1.695922073664628 -1.0291315935184506 0 0 0
61 13 1 0 -1.7812766691622905 1.7298741813244525 -0.6594618227332775 0 0 0
380 94 2 0 -2.5846278143398655 2.063335569018462 -1.3211638132361434 0 0 0
381 94 4 0 -2.242517762639103 2.0630726138086044 -1.034610745807641 0 0 0
379 93 4 0 -1.9902739836845331 2.310142540095795 -0.8008679957175276 0 0 0
377 93 2 0 -1.9859077854818061 2.7688039070776416 -0.7669431173456929 0 0 0
62 13 3 0 -1.6552717906229708 2.152774862283537 -0.5998623950053027 0 0 0
412 104 4 0 -0.07676947230307427 4.351789338328968 -1.0406512175354947 0 0 0
394 98 4 0 -0.33347339544101656 1.715971361616447 -0.6974566116724921 0 0 0
392 98 2 0 -0.710756235511496 1.4910475412414816 -0.6548895000102959 0 0 0
433 111 4 0 -3.2571334975473323 4.007449316349466 -0.3302129280346502 0 0 0
431 111 2 0 -3.679130411245223 3.8294725398419573 -0.20777328144085883 0 0 0
292 64 4 0 -3.0212339245771718 3.8099301069217657 -0.07857932631993957 0 -1 0
290 64 2 0 -2.634355908854692 3.5997886552900447 -0.24406008140556804 0 -1 0
378 93 4 0 -1.9779451541011481 3.2175292188203573 -0.7226780475905367 0 0 0
291 64 4 0 -2.211677017907544 3.3831565269657284 -0.4196291218769429 0 -1 0
430 110 4 0 -1.832195884438586 3.5310739979203785 -0.49653446816547325 0 0 0
429 110 4 0 -1.3359642950782138 4.016412660564178 -1.1390664036458698 0 0 0
410 104 2 0 -0.5408600485199134 4.2587118362715275 -1.158953167113043 0 0 0
387 96 4 0 -1.3689698535453638 4.381857513724278 -1.3564825241379503 0 0 0
428 110 2 0 -1.583890816852955 3.7747979246432104 -0.819645978709686 0 0 0
108 22 3 0 -4.328835351700778 1.323490376565534 -0.1373019818871853 0 0 0
26 6 1 0 -1.4451382940777027 0.8817971418061382 -0.007830165269869675 0 0 0
432 111 4 0 -4.07371264411636 3.671789781906626 -0.09094163662899113 0 0 0
207 42 3 0 -3.0289011868994784 4.222569861824534 -0.08576006782697242 1 0 0
586 162 4 0 -0.37728523135222797 0.8725778962449819 -4.4416808967995465 0 0 0
567 156 4 0 -0.43505212439886626 0.013214183826217281 0.6487800008521304 0 0 0
30 6 3 0 -1.8291247656884528 1.0867908013613548 0.17647260169414739 0 0 0
103 21 3 0 -0.735952131646228 1.0485376851105008 0.8008610177857775 0 0 0
568 156 4 0 -0.8641246260602492 0.7788034581334178 0.5336625544296305 0 0 0
27 6 3 0 -1.1727892516428784 0.7195793248546639 0.3211113183257734 0 0 0
566 156 2 0 -0.647873556769039 0.38803650420291164 0.5913715168066637 0 0 0
232 47 3 0 -4.3801881991022364 2.2262948108301592 2.4160498002211868 1 0 0
101 21 1 0 -0.54636716652568 1.4398461595933658 0.9400812811986923 0 0 0
107 22 3 0 -4.482074656154834 1.4718582080110982 0.5890944217432073 0 0 0
468 123 4 0 -1.50144552830337 3.182752558033054 4.2661362689240825 0 0 0
110 22 3 0 -4.4313723473887965 2.0374032838341773 0.09151226649402905 0 0 0
102 21 3 0 -0.28209401445083676 1.3657440901328513 1.2676471560444615 0 0 0
104 21 3 0 -0.8511630420960369 1.6946603874346169 1.0496296341632505 0 0 0
105 21 3 0 -0.31633158662612687 1.6332361370440438 0.5912102049056536 0 0 0
546 149 4 0 -4.27463486102621 3.6900195726416167 0.25340827043281466 1 -1 0
59 12 3 0 -3.7790059816307475 4.127774721970131 1.4359647074813322 0 -1 0
455 119 2 0 -0.030093238694984308 2.947275058157545 2.310109185229177 0 0 0
545 149 2 0 -4.436684453186577 3.799395308490243 0.6552639392627967 1 -1 0
57 12 3 0 -4.4915433760535874 4.242485619334977 1.307195477832737 0 -1 0
434 112 2 0 -1.3448850314703857 3.6825823576867998 3.0830754245724106 0 0 0
97 20 3 0 -1.741807938351234 3.493554582239348 4.376876097083895 0 0 0
444 115 4 0 -2.395558393414907 4.4375854587623795 0.6648210615146121 0 0 0
443 115 2 0 -2.1832409212370245 4.063244768992748 0.7582048163987143 0 0 0
445 115 4 0 -1.9808712323000652 3.7172745937249543 0.8392836042302104 0 0 0
458 120 2 0 -1.7376011454444944 3.1382448175013566 1.1429026545520669 0 0 0
460 120 4 0 -1.9697393185953518 3.31267193631627 0.801196021412538 0 0 0
234 47 3 0 -4.441745424642253 2.324493215163379 3.1445727133199934 1 0 0
459 120 4 0 -1.495612115175301 2.9598095999812615 1.48911818622925 0 0 0
439 113 4 0 -0.8196289925876301 1.8046182249636131 1.4374226374703067 0 0 0
670 190 4 0 -0.44698993472172677 1.633847948761462 1.5210488413764447 0 0 0
668 190 2 0 -0.1688863839956663 1.6808594591784023 1.894678976417623 0 0 0
437 113 2 0 -1.0225281281016567 2.2391078255369083 1.4964842124335722 0 0 0
438 113 4 0 -1.2203833384812612 2.672082418326014 1.5518214644656962 0 0 0
474 125 4 0 -0.6955908937573152 2.8202810371528964 2.6850820136105433 0 0 0
119 24 3 0 -1.3269387725373536 2.937019231178842 1.8354371645514238 0 0 0
117 24 3 0 -0.8022316316848307 2.925341432313352 2.309586151189957 0 0 0
457 119 4 0 -0.44663205743033074 3.0565867888602374 2.456150517121884 0 0 0
664 188 4 0 -4.3852504224031525 3.900448276743125 2.318188517041762 1 0 0
56 12 1 0 -4.152069012464669 4.232722656431263 1.6248041260704316 0 -1 0
58 12 3 0 -4.249865664623745 3.92701158946209 1.940567551736823 0 -1 0
222 45 3 0 -4.461213880862505 4.188083325460965 2.5798633127092767 1 0 0
116 24 1 0 -1.1796014800553962 3.1411552075056637 2.1613521347957128 0 0 0
435 112 4 0 -1.268527492826663 3.357330604411756 2.751248134471709 0 0 0
120 24 3 0 -1.504528223871309 3.151410098054709 2.4935279990364845 0 0 0
118 24 3 0 -1.0828473471865443 3.541701995317931 2.0510600118531 0 0 0
322 74 4 0 -3.833407654281613 1.0843960920891056 3.9369280349046876 0 0 0
423 108 4 0 -3.467845362848852 1.2191959709868094 3.901777119229473 0 0 0
320 74 2 0 -4.147205622303574 0.8607972368350034 4.204389325395872 0 0 0
465 122 4 0 -3.725247986947132 1.3625018376585738 3.6456076672545907 0 0 0
422 108 2 0 -3.0571274214275155 1.0587131394439944 3.8260595697411044 0 0 0
112 23 3 0 -1.96148371887683 0.9400716215946979 3.0474499936831503 0 0 0
424 108 4 0 -2.6451546023926813 0.8953916687069835 3.7487617267141395 0 0 0
114 23 3 0 -2.307254935071503 1.121860361922145 3.6808982842195 0 0 0
111 23 1 0 -1.8903470211596431 1.0165322216289685 3.469671595369785 0 0 0
115 23 3 0 -1.7126616114555282 0.6498783592168369 3.665761464090619 0 0 0
113 23 3 0 -1.6028449135623033 1.349914711235012 3.5245337935147374 0 0 0
680 194 2 0 -0.06485941903440837 1.2463013647360652 2.954200920390386 0 0 0
682 194 4 0 -0.21679534004032114 0.9931541661532092 3.2943480650772297 0 0 0
339 80 4 0 -1.4384385872167995 0.3604371850832141 3.7321255585294573 0 0 0
442 114 4 0 -1.266984337813505 1.3498142817724221 3.771860238470339 0 0 0
48 10 3 0 -0.9650706012823 1.1534602103945448 3.941510289408895 0 0 0
46 10 1 0 -0.7372307020529433 0.7463715759846966 3.879865244775026 0 0 0
49 10 3 0 -0.426407797245729 0.7883216789021218 3.5399842877172536 0 0 0
47 10 3 0 -0.5156006878314795 0.6150648698721828 4.281503336714462 0 0 0
50 10 3 0 -1.0312706060765766 0.43506204493556805 3.7800858304187646 0 0 0
446 116 2 0 -2.9491882955319713 3.660714024169288 3.7066038577009794 0 0 0
466 122 4 0 -4.3363069555663225 1.96787458302087 3.2898259898655624 0 0 0
464 122 2 0 -4.0300537875375255 1.6635024752052934 3.4693286966572177 0 0 0
99 20 3 0 -1.6294069734031669 3.897726697631453 3.731817187544705 0 0 0
467 123 2 0 -1.2979853958615337 2.875111493467727 3.99959866840743 0 0 0
440 114 2 0 -1.1351520654308151 1.7683543308125709 3.7854443210148037 0 0 0
441 114 4 0 -1.0007989338536927 2.1906561275629692 3.8053444873496143 0 0 0
469 123 4 0 -1.0984065466720083 2.5648264848809723 3.7467419509940965 0 0 0
475 125 4 0 -0.8955019259777489 2.3822662711605465 3.4735204371963744 0 0 0
473 125 2 0 -0.7926967583737051 2.615893412598845 3.049806108787194 0 0 0
638 180 2 0 -4.004424913480661 3.1255185525527356 3.9770331457229626 1 0 0
640 180 4 0 -3.6748346737990003 3.2320124370135033 3.664337242059006 1 0 0
448 116 4 0 -3.3524096689039 3.483421581924662 3.661794335341501 0 0 0
639 180 4 0 -4.323473994422222 3.0284339418366915 4.281393390317201 1 0 0
436 112 4 0 -1.4210680844643526 4.01161227965785 3.4058970512048052 0 0 0
100 20 3 0 -2.318045891182666 3.9074652856205443 4.106307124599402 0 0 0
96 20 1 0 -1.851916407182786 3.88778754479834 4.164412245101698 0 0 0
447 116 4 0 -2.540801609069559 3.8393697210053226 3.753757956675884 0 0 0
321 74 4 0 -4.430543898032364 0.6458123342526096 4.454844091137193 0 0 0
98 20 3 0 -1.707265061582417 4.240441122015454 4.406962258616449 0 0 0
503 135 2 0 0.5222114697134764 -4.076931355300991 -3.391882255787577 0 0 0
154 31 3 0 1.2412115718438603 -4.069816160302359 -3.558098194815445 0 0 0
505 135 4 0 0.1862247920032643 -4.048701768151308 -3.112747954695746 0 0 0
504 135 4 0 0.861554894567306 -4.098679939196107 -3.676551381751117 0 0 0
543 148 4 0 1.3401196211404605 -3.3432206005933094 -3.617079518091697 0 0 1
152 31 3 0 1.7057328190313243 -3.464752068901048 -3.5345399893806118 0 0 0
151 31 1 0 1.6028697806929446 -3.895763955163739 -3.3554394982051274 0 0 0
155 31 3 0 1.9554613821890292 -4.166086404343442 -3.415880263759315 0 0 0
480 127 4 0 0.016473669327375092 -2.514333888339622 -1.3791089842441333 0 0 0
19 4 3 0 0.07706103764952703 -1.2140510634798085 -3.929195946668233 0 0 0
677 193 2 0 3.9074076084410465 -3.4518282800127196 -3.5767996985728083 0 1 1
678 193 4 0 3.9989081648064353 -3.3709637995962916 -4.007787838733015 0 1 1
179 36 3 0 3.6834133296068963 -3.4341590450797606 -4.218768240559576 0 0 1
679 193 4 0 3.804644469466178 -3.532665809862316 -3.1210302208183247 0 1 1
132 27 3 0 4.0781708287296405 -2.9815868263038325 -4.098464405352208 0 0 0
542 148 2 0 1.1463413249465397 -2.9352251223493777 -3.692709567876321 0 0 1
544 148 4 0 0.9624844177488392 -2.532975255066571 -3.770005802360201 0 0 1
172 35 3 0 0.7445550082173044 -2.1864722947506823 -3.811760687022214 0 0 1
171 35 1 0 0.7601130083081908 -1.7447190443662082 -3.8436610460573477 0 0 1
174 35 3 0 0.4706937641273785 -1.6005923140235752 -4.181599664411573 0 0 1
175 35 3 0 0.6396187009233133 -1.5671114325092226 -3.4466543276267347 0 0 1
131 27 1 0 4.063662123585213 -2.538925545139278 -4.195390754019389 0 0 0
93 19 3 0 3.585928133828679 -2.49747877994973 -3.108784686875869 -1 1 0
134 27 3 0 3.7810509534531254 -2.318989853725393 -3.8703281554700193 0 0 0
483 128 4 0 3.699663438462411 -2.3481792405288515 -3.458398936201423 0 0 0
482 128 2 0 3.6768043270319835 -1.8586095282443473 -3.4038499767262516 0 0 0
135 27 3 0 4.479577201610607 -2.356773233729298 -4.172515814170975 0 0 0
173 35 3 0 1.186479765530761 -1.6212386824737213 -3.9361790968335044 0 0 1
561 154 4 0 0.4880229879650563 -1.284061161600411 -3.2347144742186513 0 0 1
18 4 3 0 0.0919197072184631 -1.1136108442873636 -3.1935828589749566 0 0 0
572 158 2 0 0.49851803195727423 -0.06445637859886699 -3.362342381009777 0 0 0
573 158 4 0 0.14507063584804233 -0.21646876242144703 -3.613409234145132 0 0 0
77 16 3 0 3.7824623733352496 -0.3150691377949292 -0.625461364658449 -1 0 0
137 28 3 0 1.5509834934620172 -0.4261203558051426 -3.136562032661267 0 0 0
484 128 4 0 3.653951263322532 -1.3913074622091472 -3.3461088095511653 0 0 0
149 30 3 0 3.8777332392333106 -1.0697527934832403 -3.4864069079821483 0 0 0
148 30 3 0 4.10625003365927 -0.3567874575481195 -3.3548458311718132 0 0 0
146 30 1 0 4.24168980517282 -0.8058554733864236 -3.358301892183327 0 0 0
492 131 4 0 3.856162936455205 -0.046620681012012485 -3.3239577740567543 0 0 0