LAMMPS data file via write_data, version 4 Feb 2025, timestep = 4000, units = lj

40 atoms
4 atom types
30 bonds
1 bond types
35 angles
2 angle types

-2.265589 2.265589 xlo xhi
-2.265589 2.265589 ylo yhi
-2.265589 2.265589 zlo zhi
-1.7763568394002505e-15 0 0 xy xz yz

Masses

1 1
2 1
3 0.1
4 0.1

Bond Coeffs # harmonic/omp

1 100 0.45

Angle Coeffs # harmonic/omp

1 100 180
2 100 109.471

Atoms # full

4 1 3 0 -1.7399417185547819 -1.2566652967785006 -1.8983117548289625 3 0 0
5 1 3 0 -1.287839411447473 -1.2681652552197185 -1.3663528669432254 3 0 0
10 2 3 0 -2.1063500250192977 -0.9005380240643746 -0.7938878320779306 3 0 0
3 1 3 0 -1.8081591996758042 -0.7943186294829261 -1.3694422657752474 3 0 0
1 1 1 0 -1.5290238959465563 -1.0115464285479256 -1.6159510932349834 3 0 0
2 1 3 0 -1.2674364577683854 -0.7272934234231079 -1.8370007431586102 3 0 0
6 2 1 0 2.1094615604729703 -0.701771554361073 -1.0078321704671158 2 0 0
8 2 3 0 2.1621142757187664 -0.7647825922359455 -1.4478639965686688 2 0 0
9 2 3 0 2.1314166656408697 -0.2588790697446468 -0.9119700617596747 2 0 0
7 2 3 0 1.702487528586821 -0.8794438713928177 -0.8811124050737167 2 0 0
26 6 2 0 -1.6039616588774965 -1.9536912659077497 -0.46191542407911834 1 0 0
27 6 4 0 -1.856215882003034 -2.233008760319782 -0.6947357161506733 1 0 0
28 6 4 0 -1.3457128310276096 -1.6687976238295321 -0.21735256483478915 1 0 0
12 3 3 0 1.2182672646846568 -1.2569914673913505 0.6118610502364139 1 0 0
14 3 3 0 1.4104333857481612 -1.9671864102758558 0.619398382413614 1 0 0
25 5 3 0 -1.8506812451136647 -0.3383549442596727 0.6525118579887144 5 0 0
17 4 3 0 1.0298351526453295 -1.4658294736498694 2.258916957685168 1 0 0
19 4 3 0 1.0113760073847269 -1.2213354500233875 1.5595578380390145 1 0 0
16 4 1 0 1.1836021703002317 -1.1461254441111581 1.9672144933785218 1 0 0
13 3 3 0 1.0363778614787855 -1.663723931994979 1.1745861546249112 1 0 0
11 3 1 0 1.3461395682805382 -1.5925427930838882 0.8792102725181383 1 0 0
18 4 3 0 1.6337063320863474 -1.1676020382711807 1.9502968281906878 1 0 0
15 3 3 0 1.7486864529356612 -1.4788493345413716 1.0818089776444912 1 0 0
20 4 3 0 1.0409551067809328 -0.7072785916616859 2.110349558752992 1 0 0
31 7 4 0 0.16275569365290998 1.046423132495561 -0.9004377975999514 5 0 0
34 8 4 0 -1.7207376285736053 1.707237312775602 -1.4985615078509626 6 0 0
32 8 2 0 -1.3813959072174478 1.9152851944545053 -1.6568364096326682 6 0 0
33 8 4 0 -1.0209839752572332 2.135363115482957 -1.8224237592321038 6 0 0
30 7 4 0 0.24317142167757 1.85341655051602 -1.2678470664767643 5 0 0
29 7 2 0 0.20348462319939786 1.4480639014789305 -1.085379885625641 5 0 0
24 5 3 0 -1.7396323710284358 0.3339216498852555 0.4486932726939097 5 0 0
37 9 4 0 -1.939284945330876 0.5464669271760205 0.17614183206384393 5 0 0
35 9 2 0 2.2448153589938102 0.5221817754045142 -0.15807812241301766 4 0 0
36 9 4 0 1.9012529011406234 0.4882937691342888 -0.4831761785085611 4 0 0
22 5 3 0 -1.3911614199823565 0.08475111862253071 1.023365762480446 5 0 0
23 5 3 0 -2.121084115456344 0.21467077259425782 1.0534499415660639 5 0 0
21 5 1 0 -1.7728154256507405 0.07533632558124115 0.793159211212521 5 0 0
40 10 4 0 1.1601511676666187 1.1268090128255137 1.690017763182687 4 0 0
38 10 2 0 0.9484315694761176 0.8806414694204494 1.9728514022375525 4 0 0
39 10 4 0 0.7363384919249207 0.649285534287904 2.2556402475512027 4 0 0

Velocities

4 2.0560196964394493 0.9150966371219059 0.19518690528412225
5 1.8486164391969717 0.03735730318051849 -0.4841158878091093
10 0.9100025175944689 -0.2536328957019506 0.4395705076682756
3 1.1562541616633435 0.19257552943096612 0.05083975293659018
1 1.4154543030193207 0.06605794276372196 -0.4280076448251195
2 0.8815795644529189 -0.7611096976236282 -0.9447198732777139
6 1.1679344572281845 0.19661856953223478 0.26039519218188406
8 1.161954240309149 -0.15882696465671098 0.6367090272059491
9 0.9939530354276784 0.43830383359561725 0.6758939280152061
7 0.9889592851248602 1.6282164114389532 0.6737109325510018
26 0.6523761250681026 -0.5079138496674149 0.9066962812983006
27 1.5711714319716517 -0.38220583540831043 0.212071870917639
28 -0.39934608053051956 -0.4510594175595623 0.825223909864354
12 -0.45314501404534546 -0.08183484114257655 -0.9155411000217414
14 0.8499275830779884 0.13211787904496988 -1.1195706649595023
25 2.7229053010490354 -1.2651141413462395 0.9694988249734914
17 0.8183847648152963 -0.0605540633021802 0.44296647284684243
19 1.4740783293564 -0.8045901117743958 -0.8286576437583026
16 1.0103509851756263 0.02409108525046847 -0.2182419258846858
13 -0.4611628845128426 0.06399863351956571 0.48574888637579144
11 0.923169525949224 0.20443298784332195 0.00046593385390063247
18 0.6745192045909374 1.2892653934208966 -0.6390445422382884
15 0.14780424898020583 -0.9588202997985028 0.3100273806206541
20 1.9269639694863576 0.47058383740186044 0.4650552290183143
31 3.9538617542123102 0.2121441342142168 -0.24104818470668826
34 3.9505862991808525 -0.35382256412408997 -1.5022144661499495
32 3.6056742534540014 0.10512205063093069 -0.2625292968192404
33 3.912403686905694 -0.015512200880053437 -0.4342095045641312
30 3.511302765869326 1.303910206369356 0.6187558891082354
29 3.805189471849214 0.08221991888425144 -0.2851988256445498
24 2.4064333583021855 -2.774349901821681 0.0791376131348046
37 4.308260232553065 -0.3309740059002357 -0.7467780177453558
35 2.7117547256521597 0.42664886041696604 -0.12255396820076414
36 2.887690408463392 -0.8620659154420716 0.04690156815389683
22 2.7323404995971554 -1.5745931926339756 -0.1951906309430869
23 1.2954329410938126 0.3522969369289899 -0.2602920984795116
21 2.7474164862393855 -0.06974957923814915 0.3042528261719101
40 2.98356482543042 -0.5667896978107966 -0.04409417150864019
38 2.8006168569036873 0.004687206168478581 0.05607616891024007
39 2.454331183219556 -0.513599627781445 -0.5173865673083382

Bonds

1 1 1 2
2 1 1 3
3 1 1 4
4 1 1 5
5 1 6 7
6 1 6 8
7 1 6 9
8 1 6 10
9 1 26 27
10 1 26 28
11 1 16 17
12 1 16 18
13 1 16 19
14 1 16 20
15 1 11 12
16 1 11 13
17 1 11 14
18 1 11 15
19 1 32 33
20 1 32 34
21 1 29 30
22 1 29 31
23 1 35 36
24 1 35 37
25 1 21 22
26 1 21 23
27 1 21 24
28 1 21 25
29 1 38 39
30 1 38 40

Angles

1 2 2 1 3
2 2 2 1 4
3 2 2 1 5
4 2 3 1 4
5 2 3 1 5
6 2 4 1 5
7 2 7 6 8
8 2 7 6 9
9 2 7 6 10
10 2 8 6 9
11 2 8 6 10
12 2 9 6 10
13 1 27 26 28
14 2 17 16 18
15 2 17 16 19
16 2 17 16 20
17 2 18 16 19
18 2 18 16 20
19 2 19 16 20
20 2 12 11 13
21 2 12 11 14
22 2 12 11 15
23 2 13 11 14
24 2 13 11 15
25 2 14 11 15
26 1 33 32 34
27 1 30 29 31
28 1 36 35 37
29 2 22 21 23
30 2 22 21 24
31 2 22 21 25
32 2 23 21 24
33 2 23 21 25
34 2 24 21 25
35 1 39 38 40
