LAMMPS data file via write_data, version 4 Feb 2025, timestep = 4000, units = lj

40 atoms
4 atom types
30 bonds
1 bond types
35 angles
2 angle types

-2.265589 2.265589 xlo xhi
-2.265589 2.265589 ylo yhi
-2.265589 2.265589 zlo zhi
-1.7763568394002505e-15 0 0 xy xz yz

Masses

1 1
2 1
3 0.1
4 0.1

Bond Coeffs # harmonic/omp

1 100 0.45

Angle Coeffs # harmonic/omp

1 100 180
2 100 109.471

Atoms # full

3 1 3 0 -2.112864728235224 -0.05313243843193671 -1.579222395916603 4 0 0
6 2 1 0 -0.00432084608431893 -0.08951653280612382 -1.3323733852330948 3 0 0
9 2 3 0 -0.13944105423237785 -0.49435583393561 -1.2474752988031126 3 0 0
7 2 3 0 0.1444931939325036 -0.06656795314152841 -1.747847500422195 3 0 0
26 6 2 0 0.34343725463115415 -2.199000112712199 -0.5515434301948057 0 0 0
28 6 4 0 0.8042355295421824 -2.106133767208338 -0.49185168575148897 0 0 0
17 4 3 0 -1.350802756738846 -1.280752039817643 1.6684813490560746 2 0 0
12 3 3 0 -0.2677971639010086 -2.262349923988954 1.649522030204325 1 0 0
13 3 3 0 0.30092069873696303 -2.1615754153951316 1.1795930056038957 1 0 0
18 4 3 0 -2.032147143816204 -1.037645817486624 1.4235914700660635 2 0 0
20 4 3 0 -1.4007539162261127 -0.711332350431022 1.1718838609421165 2 0 0
16 4 1 0 -1.603083756727655 -0.9092060687478594 1.5356262469928206 2 0 0
19 4 3 0 -1.6190549360713145 -0.6223070864147822 1.8686901716732476 2 0 0
39 10 4 0 0.5878449226677751 -0.260863118408158 2.223074090231925 4 0 0
22 5 3 0 1.9204862780534335 -0.0901487791096609 1.5149997102787567 4 0 0
5 1 3 0 -2.2036160053725147 0.6342933554397443 -1.6172783807956785 4 0 0
1 1 1 0 -2.0018335883469494 0.30380003963801183 -1.4033439904274292 4 0 0
2 1 3 0 -1.5685980987926915 0.35246571593422615 -1.4436097732831024 4 0 0
31 7 4 0 -1.3653860265679407 0.4657505295579516 -1.7805055524360585 4 0 0
4 1 3 0 -2.1145604818418877 0.3087514768789732 -0.9407335232870373 4 0 0
29 7 2 0 -0.9243006842510442 0.33177961262765443 -1.7210174845848447 4 0 0
30 7 4 0 -0.4869391335944937 0.21363146971774638 -1.667055007146725 4 0 0
8 2 3 0 -0.3775125282449818 0.21567131229949066 -1.2874920248269008 3 0 0
10 2 3 0 0.31260204110235934 0.020508187050011895 -1.0628456237822252 3 0 0
34 8 4 0 -0.4681157265873528 1.5272781700937386 -1.2033894323332692 6 0 0
32 8 2 0 -0.040280179495777 1.5326465846517179 -1.3216406022031277 6 0 0
33 8 4 0 0.4169466695674777 1.5351945415116366 -1.4552986695973482 6 0 0
36 9 4 0 0.6098041236621983 1.1296042986715875 -0.5381627390217893 5 0 0
27 6 4 0 -0.11093441262510106 2.25127811480993 -0.6073190799576957 0 -1 0
37 9 4 0 1.13594398409783 1.2713572025529216 0.1800272068398141 5 0 0
35 9 2 0 0.8670633183212528 1.2002019719780166 -0.18879403086919178 5 0 0
40 10 4 0 0.7161146319807563 0.45856607985199727 1.7540379812887772 4 0 0
38 10 2 0 0.6487328902314924 0.10883302566901865 1.9828326388263258 4 0 0
23 5 3 0 1.3522170315285091 0.3628360301451665 1.4024587498930718 4 0 0
24 5 3 0 2.0298610080233925 0.6264040104139892 1.4858244034135506 4 0 0
21 5 1 0 1.7919191579607108 0.2900753949137842 1.3159593272335988 4 0 0
25 5 3 0 1.8670530352498793 0.27813548553290035 0.8936894755530633 4 0 0
11 3 1 0 -0.06850619612585618 2.128676746544715 1.2443225663078716 1 -1 0
15 3 3 0 -0.36141933160455886 2.218117215167498 0.8833067096866798 1 -1 0
14 3 3 0 0.02653520423760014 1.6966547623906032 1.254255448903741 1 -1 0

Velocities

3 3.3107429492594957 -0.20052314597839926 0.08503641882337108
6 2.2502336608897737 -0.4069243278809055 0.13982659868430694
9 3.396291931130352 0.06405582461313851 -0.15708768424209715
7 2.9067749264583513 -0.37384676129397987 0.24581709498267257
26 0.40005650839094786 0.026398469874732426 -0.02843637169101774
28 0.12617229975498262 0.6888632746945251 0.45326988663319984
17 1.2313344399745527 -0.5216957186479306 0.5242078051701083
12 -0.12079082937861665 -2.1375560679986814 0.45299401274912754
13 1.258659298988189 1.0323898154825262 0.4588814086472692
18 0.5558889446595943 0.5149334214486762 -0.639786079620781
20 0.10915305758215754 -1.5890505582408867 -0.050830664852979206
16 1.5388500541206103 0.057719837582884306 0.05297318138619451
19 0.8248872103054895 0.2633280467678295 1.0087653182818792
39 2.4607467548125905 0.17370638639283414 0.3077358771740298
22 2.865492569508205 -0.1534060048234442 0.4619685180083824
5 2.1689182503341025 -0.12455429082236147 -0.3284572391193139
1 1.687628454494341 0.05859403722633471 -0.025677802282123068
2 1.8002176230731015 -0.5632861228016116 0.3270389421674479
31 1.142722978063275 1.5844589736215713 -0.5585670149446631
4 3.1915689323346035 1.2031250538757612 -0.31003873306673274
29 2.205778546811136 0.4622300824821343 -0.03648995287079034
30 1.4210971209426169 0.6242199848844712 -0.2339853096227765
8 3.0198792082631933 1.1433281314077715 0.414205331483737
10 2.8287855551588215 0.0972609198430201 -0.8041719827048199
34 3.494981743986725 0.4401510278398356 0.6459851851158781
32 3.779648289584079 -0.1058802886244757 -0.08260903205004293
33 5.0867220248285285 -0.2634423698223956 0.8771463383439005
36 3.0595844400907906 -0.16595495873634478 -0.8627316742627628
27 0.34046871069406937 -1.4609673045208036 -1.1731354754406724
37 3.5908607802723553 -0.7250787474052995 0.5264061923589857
35 4.13638457842073 -0.1406142917174941 -0.45601452209606264
40 2.6681139075557767 -0.09947861103521269 -0.7011982282076239
38 2.6393935783425304 0.09519137483831026 0.13291066892573622
23 1.8537917741826222 -0.9846453814655183 0.7081118778938902
24 2.6208887880607747 0.031420678976602556 0.9273563664180282
21 2.679824978387426 0.3676443869746057 -0.030492683261390235
25 2.024380079512472 -0.2817940008966737 -0.5787229408280308
11 1.8628624218298668 -0.12804650296543502 0.2311081286415449
15 2.7734435895011993 -1.0184809072285188 0.07697458944425628
14 3.6420542419616577 0.004765162408896184 -0.9561133983431483

Bonds

1 1 6 7
2 1 6 8
3 1 6 9
4 1 6 10
5 1 26 27
6 1 26 28
7 1 16 17
8 1 16 18
9 1 16 19
10 1 16 20
11 1 1 2
12 1 1 3
13 1 1 4
14 1 1 5
15 1 29 30
16 1 29 31
17 1 32 33
18 1 32 34
19 1 35 36
20 1 35 37
21 1 38 39
22 1 38 40
23 1 21 22
24 1 21 23
25 1 21 24
26 1 21 25
27 1 11 12
28 1 11 13
29 1 11 14
30 1 11 15

Angles

1 2 7 6 8
2 2 7 6 9
3 2 7 6 10
4 2 8 6 9
5 2 8 6 10
6 2 9 6 10
7 1 27 26 28
8 2 17 16 18
9 2 17 16 19
10 2 17 16 20
11 2 18 16 19
12 2 18 16 20
13 2 19 16 20
14 2 2 1 3
15 2 2 1 4
16 2 2 1 5
17 2 3 1 4
18 2 3 1 5
19 2 4 1 5
20 1 30 29 31
21 1 33 32 34
22 1 36 35 37
23 1 39 38 40
24 2 22 21 23
25 2 22 21 24
26 2 22 21 25
27 2 23 21 24
28 2 23 21 25
29 2 24 21 25
30 2 12 11 13
31 2 12 11 14
32 2 12 11 15
33 2 13 11 14
34 2 13 11 15
35 2 14 11 15
