LAMMPS data file via write_data, version 19 Nov 2024, timestep = 200000, units = lj

160 atoms
4 atom types
110 bonds
1 bond types
75 angles
2 angle types

-3.758247 3.758247 xlo xhi
-3.758247 3.758247 ylo yhi
-3.758247 3.758247 zlo zhi
7.487344078072056e-12 0 0 xy xz yz

Masses

1 1
2 1
3 0.1
4 0.1

Bond Coeffs # harmonic/omp

1 100 0.45

Angle Coeffs # harmonic/omp

1 100 180
2 100 109.471

Atoms # full

79 23 4 0 -1.0454442346663608 -0.19828557834927452 -3.000141396943596 2 0 0
63 18 4 0 -3.152269984323844 -3.7182112038659083 -2.150654700092658 2 0 1
145 45 4 0 -2.741157326755199 -3.6948342274129446 -2.1297181384366386 3 1 1
53 15 2 0 -1.656775156599608 -1.3715542075514966 -1.8982074921500482 2 0 1
54 15 4 0 -1.502740294111931 -0.9782830463500667 -2.116924950030009 2 0 1
78 23 4 0 -1.2592752006233812 -0.7992313701592555 -2.3836825967897175 2 0 0
77 23 2 0 -1.1544139772462803 -0.5006227801623653 -2.689594952650702 2 0 0
62 18 2 0 -3.359646828622294 -3.538532529025782 -1.799648785528692 2 0 1
64 18 4 0 -3.5633041829685967 -3.3566102650670118 -1.4550112104467336 2 0 1
141 44 4 0 -3.3916066925030055 -3.055170470439282 -1.2426669537295738 2 0 1
122 38 2 0 -3.6972618887707496 -0.9626741047752554 -1.783632462294161 2 0 1
56 16 2 0 -2.33703888553189 -1.656994175982002 -1.0309916319073098 2 0 1
57 16 4 0 -2.0510111570221135 -1.5975746329678042 -1.3967397204255532 2 0 1
55 15 4 0 -1.799878535020798 -1.730864388808274 -1.6836083155301873 2 0 1
124 38 4 0 -3.485690396008255 -0.6720951726441924 -1.555673547656145 2 0 1
127 39 4 0 -3.125853029377425 -0.5036374915721051 -1.5033404627965061 2 0 1
125 39 2 0 -2.6975351620690926 -0.44276126833027263 -1.4759843760214268 2 0 1
126 39 4 0 -2.2456893646938294 -0.37910141746286374 -1.4443456815563414 2 0 1
81 24 4 0 -1.903145587063835 -0.151344916651857 -1.5220768298352563 2 1 0
80 24 2 0 -1.5142054999892527 -0.01666338842345816 -1.292513822297357 2 1 0
140 44 2 0 -3.1715921470047284 -2.865270168307264 -0.9002786995483003 2 0 1
142 44 4 0 -2.9488202077663104 -2.6853721051966026 -0.5643726834570164 2 0 1
6 2 1 0 -2.633708836578535 -2.318142813188402 -0.0711003217576569 2 0 0
8 2 3 0 -2.573456892534332 -1.968932388215277 -0.3705669006614176 2 0 0
10 2 3 0 -2.6725977970863077 -2.7049695840215655 -0.30288445720241963 2 0 0
58 16 4 0 -2.596651452857312 -1.707183191646954 -0.6943711770340242 2 0 1
7 2 3 0 -3.0000545239948933 -2.253996997893297 0.15893165601521098 2 0 0
88 26 4 0 -3.180915844054942 -2.268503989403232 0.5186335256263108 2 0 0
86 26 2 0 -3.606129632483342 -2.361099331104277 0.6117832648249308 2 0 0
9 2 3 0 -2.269901887195762 -2.3425841481491347 0.22043827878291467 2 0 0
69 20 4 0 -1.9316080864565912 -2.143608443346408 0.24989750722116266 1 0 1
68 20 2 0 -1.6231621484730923 -1.8270183907482835 0.3510564508488958 1 0 1
70 20 4 0 -1.3190337089344903 -1.5100531553351741 0.45907322756091684 1 0 1
136 42 4 0 -0.9933672016045731 -1.4047345937443962 0.6579948073796675 2 0 0
134 42 2 0 -0.5526281988763024 -1.2498362441709068 0.6741505494298821 2 0 0
135 42 4 0 -0.12566985765596606 -1.0888037250852793 0.6981466488601216 2 0 0
110 34 2 0 -1.078686140101715 -0.22870974236123987 0.7477293220883423 1 0 0
38 10 2 0 -0.10068244652615066 -3.368778757821157 0.983438557552847 1 0 0
104 32 2 0 -0.17629777672221092 -1.4893276279665257 1.7712548273891109 1 0 0
119 37 2 0 -1.0518023158882905 -0.855635549431562 1.7582884107671708 1 0 0
111 34 4 0 -1.2035246271837523 -0.5359451850559398 1.068034650318804 1 0 0
121 37 4 0 -1.3176334841914845 -0.6832069165880745 1.4337741974652785 1 0 0
15 3 3 0 -0.0634342456022794 -3.6882595991195988 1.8957196658940445 4 1 0
106 32 4 0 -0.5546419388408887 -1.319447964402631 1.8857716322225544 1 0 0
120 37 4 0 -0.795983307423858 -1.0284385499280941 2.0765166679675593 1 0 0
73 21 4 0 -3.020760674460772 -0.13055966712634381 3.4346405659733312 2 0 0
71 21 2 0 -3.4389336311023326 -0.21391043475940608 3.2707428546970485 2 0 0
30 7 4 0 -2.6304329307774874 -0.231472653536823 3.386333527744184 2 0 -1
46 12 4 0 -1.6411716150031657 0.4734992437061214 -3.7131455759211223 2 0 1
44 12 2 0 -1.394187309740416 0.33412449244480413 -3.392545023421981 2 0 1
45 12 4 0 -1.12264000161072 0.18822869806523723 -3.047808019485344 2 0 1
5 1 3 0 -0.6212901869140608 1.8545384850154614 -3.7472636330269804 3 0 1
158 50 2 0 -0.9075268251682531 2.5248482673003965 -3.4210268992119603 4 0 1
159 50 4 0 -0.6708849921543609 2.231217569621019 -3.625978542302657 4 0 1
160 50 4 0 -1.1565466341740982 2.8524507424285828 -3.192321765768072 4 0 1
20 4 3 0 -1.3489577324073867 2.8939003405204913 -2.8243687359031164 4 0 1
17 4 3 0 -1.167516966359504 3.6079654925748708 -2.884583518282613 4 0 1
143 45 2 0 -2.317870096790224 3.638434723160098 -2.1329544788532275 4 0 1
144 45 4 0 -1.876370365473612 3.4521632990769504 -2.1277570584794656 4 0 1
19 4 3 0 -1.532095649358494 3.356961828089445 -2.30597841906563 4 0 1
16 4 1 0 -1.2225794406186479 3.2571747441252503 -2.5918093749948534 4 0 1
18 4 3 0 -0.83956471645691 3.1720063743498415 -2.3797909572616582 4 0 1
82 24 4 0 -1.131010595552811 0.12010583409376707 -1.0615935290546012 2 1 0
75 22 4 0 -0.7730235695084322 0.2754221583797243 -0.97609720298215 2 1 0
74 22 2 0 -0.40706902995995575 0.47318008022106195 -0.7824922655855855 2 1 0
76 22 4 0 -0.051292374316291856 0.6673043227688211 -0.5896586473970507 2 1 0
112 34 4 0 -0.96220222651867 0.07564300409027336 0.43142251483948346 1 0 0
115 35 4 0 -0.6270811986355618 0.21561365825246526 0.583630257393394 1 0 0
113 35 2 0 -0.363821576826731 0.5510300682869707 0.38425822367778295 1 0 0
114 35 4 0 -0.1047085139613535 0.8705176359052116 0.19795218894407451 1 0 0
157 49 4 0 -3.140667588198236 2.6087342098156494 0.5308827575130266 4 0 0
155 49 2 0 -3.5223323334969905 2.3668659071969627 0.496171917867291 4 0 0
153 48 4 0 -2.710237244486555 2.577106126069702 0.5584273446708599 4 0 0
152 48 2 0 -2.3639658007139652 2.7096637417987504 0.8192010179703306 4 0 0
36 9 4 0 -0.30643991726225206 3.3131334032898287 0.9339420994803911 1 -1 0
154 48 4 0 -2.0268192519883597 2.842410169537472 1.0742845148393094 4 0 0
129 40 4 0 -1.7002577921422914 3.0612165855015796 1.1726021487825822 4 0 0
128 40 2 0 -1.3278315486388221 3.162947792439817 1.4194938273315767 4 0 0
130 40 4 0 -0.944757168962604 3.258472307037164 1.6768892883201767 4 0 0
39 10 4 0 -0.22223843308137692 3.702652281286028 1.0023513311778736 1 -1 0
146 46 2 0 -0.22319722869759273 2.5329189588936165 2.7057928714510586 4 0 0
12 3 3 0 -0.6788107664112664 3.444581736360372 1.9253418954101296 4 0 0
148 46 4 0 -0.2329197806784813 2.925150870018486 2.4776800790470626 4 0 0
11 3 1 0 -0.28953539123710925 3.5485458162415027 2.1378213360262546 4 0 0
13 3 3 0 -0.3813737218013631 3.7215693382449793 2.5387307006940008 4 0 0
14 3 3 0 -0.052029785348908675 3.165117948929299 2.192279691536842 4 0 0
29 7 2 0 -2.266060180312336 0.003242555770420985 3.5050357454347 2 0 -1
31 7 4 0 -1.9157153943557026 0.2407911813666872 3.6203847238932125 2 0 -1
1 1 1 0 -0.2333514647694881 1.8449844645693396 3.5813504924746455 3 0 0
3 1 3 0 -0.27910882784028246 1.8082594721634573 3.1381908481368486 3 0 0
2 1 3 0 -0.006504769995457238 2.243293174799848 3.668563417125582 3 0 0
147 46 4 0 -0.20838509770659286 2.1332106915481077 2.9329408519563236 4 0 0
132 41 4 0 -0.09583228433833435 3.692127036421315 2.8236756243793044 3 0 0
49 13 4 0 2.356102412162511 -3.056605518793946 -2.926545395620655 2 0 1
93 28 4 0 2.5208863890120012 -3.32199036043667 -3.1748834295144674 3 1 1
92 28 2 0 2.5170116531114566 -3.5237789453688593 -3.584862421324981 3 1 1
101 31 2 0 2.655255704796221 -0.1269928812607639 -3.150697890651144 2 0 0
102 31 4 0 2.591118709045694 -0.4738385630556543 -3.405708867359235 2 0 0
22 5 3 0 2.8368023644705103 -0.4997202983694038 -3.7434390260525783 2 1 1
47 13 2 0 2.489248454405126 -2.6396884119218353 -2.779879802549121 1 0 1
48 13 4 0 2.6141932937757826 -2.234572957954769 -2.641176184807475 1 0 1
151 47 4 0 3.0196537993514623 -2.2119632408545966 -2.597831192763153 1 0 1
149 47 2 0 3.1599333076160523 -1.8723626829493027 -2.3415857920462795 1 0 1
150 47 4 0 3.2894555527458182 -1.5363426754605785 -2.080586673899055 1 0 1
123 38 4 0 3.5932192892166332 -1.2745580600030695 -2.02593853276617 1 0 1
109 33 4 0 1.110103738495309 -0.5621625069749006 -0.22262335227857388 2 0 0
108 33 4 0 1.6879065929572654 -0.2799067727392428 -0.8522434241769594 2 0 0
107 33 2 0 1.407198459864798 -0.4193993357590191 -0.5428573786719362 2 0 0
26 6 2 0 2.771571583035639 -2.855087309726234 0.8953292350740139 1 0 0
87 26 4 0 3.468370136629985 -2.4604922269801177 0.7045161476013702 1 0 0
27 6 4 0 3.090569770816982 -2.5624784305960864 0.7416413137753883 1 0 0
100 30 4 0 0.10509992302287552 -0.8666485903143983 0.45313066998846985 2 0 0
98 30 2 0 0.4884965351052024 -0.7482347996053624 0.29571210887200206 2 0 0
99 30 4 0 0.8949127407173298 -0.6123698639865305 0.1325083580611821 2 0 0
40 10 4 0 0.015279537168491952 -2.942742663079183 0.9691308969068455 1 0 0
34 8 4 0 0.2945344901372522 -2.857483144307996 1.243816147792117 1 0 0
66 19 4 0 2.4277862569515616 -3.487831123960281 1.2677149203686735 3 0 0
65 19 2 0 2.500895985193111 -3.6253264708908963 1.7173259307219908 3 0 0
28 6 4 0 2.461246609799109 -3.1436833217488673 1.0522493709175498 1 0 0
32 8 2 0 0.289344543571854 -2.4610307448960214 1.4671625459680042 1 0 0
33 8 4 0 0.288257737594547 -2.06666019872845 1.6806278036933398 1 0 0
105 32 4 0 0.22911653302605073 -1.6684283063031842 1.6518359115778827 1 0 0
42 11 4 0 0.19799886963017332 -3.4260570991979997 2.0227933441470602 2 1 0
41 11 2 0 0.49726847541387276 -3.242873430395748 2.334127345806519 1 1 0
43 11 4 0 0.7895266495401563 -3.0576996611796248 2.6418427385133176 1 1 0
67 19 4 0 2.5634733915677987 -3.7495507168599955 2.1403237365477796 3 0 0
90 27 4 0 2.8893619438011173 -3.703818703168275 2.3676201874602256 3 1 0
52 14 4 0 1.0187088041645964 -2.7354209866222057 2.7148416092852754 1 0 -1
94 28 4 0 2.511424267217385 -3.7194887391503224 3.532820633792536 3 1 0
91 27 4 0 2.8403072017217355 -3.6982453425223865 3.2818823801986046 3 1 0
89 27 2 0 2.864907140104001 -3.70107597667124 2.827275576786028 3 1 0
50 14 2 0 1.3116930854745856 -2.4266818016016884 2.8348968099853 1 0 -1
51 14 4 0 1.616343639891439 -2.113831792082734 2.9599531479081884 1 0 -1
139 43 4 0 1.9132777693391922 -1.8485396900965678 2.9607668155934785 2 1 -1
137 43 2 0 2.202200419577526 -1.5179267777544911 2.991663703222472 2 1 -1
138 43 4 0 2.4941842328134536 -1.1926724459834204 3.019555733999769 2 1 -1
23 5 3 0 3.216047345526939 -1.1073852572525693 3.7030898205784712 2 1 0
24 5 3 0 2.7402425599499134 -0.9186530422280121 3.171497339863591 2 1 0
25 5 3 0 3.381088016351259 -0.5237937336900047 3.284438332749744 2 1 0
72 21 4 0 3.680172453280469 -0.2936576849582617 3.110062720376738 1 0 0
21 5 1 0 3.0459615089291328 -0.7629442002135844 3.4914597778143692 2 1 0
103 31 4 0 2.718625771186084 0.22696110551591264 -2.8909517552571042 2 0 0
59 17 2 0 0.47465359095635584 2.7523059037546007 -3.7562988304618 3 -1 1
61 17 4 0 0.37427344482137315 2.314393863391536 -3.715928516079446 3 -1 1
84 25 4 0 0.2544866587877648 0.908197895701349 -0.5335573686429544 2 1 0
83 25 2 0 0.6943535172278521 1.000838979467022 -0.5070711609330898 2 1 0
95 29 2 0 1.851178011911621 1.457806378902725 -0.23821681066331823 2 0 1
85 25 4 0 1.1449828635529213 1.0950594613882263 -0.4749868560623218 2 1 0
96 29 4 0 1.511687334632537 1.1622058933116088 -0.30608928717655415 2 0 1
97 29 4 0 2.1898339075799127 1.7538929845163604 -0.16912420958466434 2 0 1
117 36 4 0 2.5659006333166783 1.7001466027307508 -0.0741327570782917 3 0 1
116 36 2 0 2.9257295435243895 1.7996625018475418 0.18663817887055068 3 0 1
118 36 4 0 3.2835808308331016 1.8967544528459204 0.4457975297362715 3 0 1
156 49 4 0 3.610633534148227 2.1251266700079894 0.4620547047685344 3 0 0
37 9 4 0 0.35138470599041405 2.766312858622678 1.192741702229898 2 -1 0
35 9 2 0 0.020121885471771073 3.0445879766577066 1.0605736302552238 2 -1 0
4 1 3 0 0.018939736125394013 1.4773217466369006 3.7422344896536224 3 0 0
133 41 4 0 0.38405770499222047 3.500251448789971 3.5463006165641806 3 0 0
131 41 2 0 0.14212913573861607 3.59763340850986 3.186844100865737 3 0 0
60 17 4 0 0.5861830640319967 3.193847729103582 3.7210112575555163 3 -1 0

Velocities

79 0.2379989841451509 -1.0001973289736679 -0.6730187122279948
63 0.553336974213655 0.13574892193736582 0.15019725218597627
145 -0.2713391982251439 0.18250942416477264 -0.02869680045812535
53 0.20966293897662047 -0.16738557456147352 -0.18794110872117728
54 -0.6606242473866941 0.6283913589706552 0.07872295262668347
78 -0.1426318014764795 -0.5661022578507714 0.34672159888420073
77 -0.17420405325271449 0.1448457268830234 0.04749228423193843
62 0.12268120269760945 -0.19001708247955004 -0.005373615620523884
64 0.2889900081526214 0.19531233314286914 0.01783730636158254
141 -0.04139977314408318 0.012846317463312398 0.05170397271451388
122 0.13288985120885446 0.12063865238575938 0.07128404990108562
56 0.07102288573682008 0.05253879001786301 -0.22868616783534554
57 0.014902691578840499 -0.4174417968443529 0.2444411605429624
55 0.1549452455592536 -0.5327186561268212 0.4706043614717754
124 0.49299951129020986 -0.35526188305013306 0.3221280949248742
127 0.2848366129240312 -0.25416462742467033 0.6036849479980178
125 0.16328816789247302 -0.06559769051321283 0.033662617109526144
126 0.1297409130787912 -0.5976108093334266 -0.6172267383544334
81 -0.17831559346663695 0.4729272468464092 0.09615852947897967
80 -0.07600357257219505 -0.057173117474052064 -0.14016110267737494
140 -0.025990958550197972 0.05233432142288151 -0.13621756163354684
142 -0.0870683327380738 -0.3557996918496321 1.0287834272873913
6 0.12246731098335426 -0.10914573223463377 0.0714262976260141
8 1.0016142735661875 0.6297797250516624 -0.10717491734278395
10 0.39663545383041837 -0.4348925006790207 -0.5343644622861019
58 -0.45345827838320807 -0.18558890146805626 0.2923134675415804
7 0.7063286820526219 0.29474509377123426 -0.5914924605961642
88 0.01894196742198401 -0.7650317873001266 -0.4212942022173047
86 0.13977141092895548 0.28513308040240903 -0.007912206785081137
9 0.20374521286488198 0.580387653222993 -0.0031677086676587234
69 -0.2246237565985268 -0.008383569811733087 0.29045835969391653
68 0.07565374008466604 -0.07409021290480323 0.12279914201315738
70 0.08122405826277053 0.6672030046926489 0.5594780784125872
136 -0.2508039162778091 -0.13882403487753736 0.4146748976445135
134 0.26707274238200285 0.13491794013912412 0.21446712600836448
135 0.005587298726069624 -0.2721280581758838 0.2015638130537058
110 -0.10864241542594276 -0.22138714759621617 0.2556493057191872
38 -0.02293809608937388 -0.08247865858521743 -0.15272385852044365
104 -0.006847142694760678 -0.21171905769096083 -0.0036429150741593584
119 0.029139322116414988 0.11084079713815408 0.09024826804137431
111 -0.04399173495317085 0.23730589660180457 -0.02779171189037817
121 0.9162350384131334 -0.07682806114442034 0.397931742919338
15 0.3611700066490004 0.06976162371744539 -0.23001571178902563
106 0.04333172781691108 0.3614405292106972 0.2572605402154399
120 -0.5495892836744236 -0.0728537469010076 -0.22846392953357247
73 -0.10192326193574912 -0.4759592049754548 0.1579524674381294
71 0.07116620702409542 0.19651945293078504 0.05944428659606566
30 0.5133509439898077 -0.38147666028538885 0.03884927475993078
46 0.3486947271302736 0.2747943252400047 0.18636519724094397
44 0.25002395631666063 0.014718769723156649 0.11678794343703129
45 -0.2208549954550153 -0.048455067644304614 -0.08890609884447102
5 0.2677512243174801 0.2472555147349953 0.34767718674106746
158 -0.09486989413734553 0.04777691537959632 -0.10547911639213457
159 -0.09406535404340716 -0.8195093389085835 -0.603332504533695
160 -1.0924956598947473 -0.02623917432047615 0.6356841990102282
20 0.7585635592027181 0.023069379725470986 0.09617737685583905
17 -0.20971039891578963 0.6386910439564081 0.3577162440589708
143 -0.2286425149461837 -0.10504723013484185 0.04490613643384185
144 -1.1016417518303094 -0.32805408600907804 -1.2649595517447807
19 -0.20330591915518093 0.39802721851571293 -0.426636876464808
16 0.13535325985330565 0.24511416749804923 0.20737779593913305
18 0.22561606897720424 0.7375414062346245 -0.5299210720160673
82 0.28635010443287645 0.48875448020041756 0.4100119134604813
75 0.4271536474851903 0.837678157786675 -0.3829012946044958
74 0.130034258232542 0.05384906796326076 0.22739216175599583
76 -0.021591283976528243 -0.29372223070615433 -0.21156676443539718
112 -0.25991700827042674 -0.11812407478569223 0.4853195098351707
115 -1.2433221814659383 0.5100536965001704 0.7216621029747874
113 0.15373919265766858 0.08364654918967035 -0.14229278422315858
114 -0.3629525141211863 -0.5753762694142822 -0.3522635457296144
157 0.5237595830485038 -0.059192721716243756 0.34827473431467176
155 0.32629353179901927 0.049104479818315824 -0.038169280145036295
153 0.048776920115111776 0.40942843935976275 -0.5286375966783332
152 0.12304095042462286 -0.08639676889587886 -0.09439851409617878
36 0.114909786877286 -0.08227533945902313 -0.0929302948466727
154 0.22628261208627648 0.7255254343793275 0.3586180406907292
129 0.502245474957137 -0.44899077767566864 -0.005496565514128637
128 -0.19755832674597026 0.18279355768489325 -0.23732802957548216
130 -0.026772495889620114 0.21577984864457783 -0.516139382348784
39 0.6042063851646482 0.46391920382935997 0.359984291832999
146 0.10857918054548828 0.23620166458049663 0.01078169000350222
12 0.5493026259085956 -0.37095246232401186 0.32837635556346223
148 0.029935230192640785 -0.3008199187985938 0.26406325180748885
11 -0.10153024990485138 -0.035025440679987356 -0.07088217653379915
13 0.1533727992295924 -0.24503295226195115 0.3362969304820519
14 0.2788523683975439 0.27522563912068804 -0.8190968495387978
29 0.29884014081237475 0.11481718048875535 0.008967194530474022
31 -0.7010699164674771 -0.2426340693648891 0.002657198936726987
1 -0.0582134253906436 0.064464299253586 -0.017579039730532566
3 0.4521431616065696 0.45048172642024786 0.33550821493562455
2 0.16127311752829415 0.1105557160581119 -0.1955053843872849
147 0.4201257628558209 -0.7394267890437821 0.05936856386052461
132 -0.6181674387725875 0.7540414717064883 -0.6920209212641975
49 -0.5690000333631098 0.3041146014214219 -0.8796224738974163
93 0.043597178778448514 -0.11663038351878169 0.06653704059258828
92 0.17665991980906331 -0.10122611255331569 0.024543980417865513
101 0.05058626786564392 0.2745069427996844 -0.14792096324635856
102 0.021292183356431658 -0.7531973498589699 -0.5073882289701411
22 0.6525946033709051 0.3629454643424458 1.3950698848862968
47 -0.2792599567481219 -0.08879634413937204 0.0031953448721531753
48 -0.33765985833073425 -0.9738817412123671 0.8671692035118393
151 0.42816308595918734 0.06754485614685274 -0.6360633341671443
149 0.14397233439139462 0.06179342812669373 -0.08137911171601676
150 1.16275757336226 0.0388323229211815 0.5251191661412612
123 0.15560135542198303 0.2502751489126281 -0.04691047681799558
109 -0.07337743899600323 -0.2537365379447312 0.4682888463390746
108 -0.9951165398561062 -0.04998378762272692 0.34544977575237523
107 -0.16076812085079686 -0.04885808934733231 -0.05465081182899344
26 -0.08814397534976269 0.009203370535109636 0.11680193056955773
87 0.6606029076138423 -0.6399285302752411 1.2308167876788638
27 0.5687036383834928 -0.6990925848548037 0.31351308427414504
100 -0.6129404545230636 0.8793778722663425 0.204174772940448
98 -0.10174405160323871 -0.19318930123019634 -0.19509555348196037
99 -0.21574533656334513 0.40794523818229794 -0.4245354890893718
40 -0.8453293160581993 -0.45125816814706265 0.6249107593287385
34 0.5907595038124684 -0.5930164076619143 -0.34546375411774005
66 -0.37176151270803814 0.008225989950429457 -0.7044548009830819
65 0.08389763924073529 0.20484524659012213 0.14985315358697987
28 0.4244576756966144 -0.6925988155257886 0.2756365939502142
32 -0.14561671155293768 0.1557215578770303 0.23253416185193526
33 0.7816636954501109 -0.14968521078070554 0.19582488665189685
105 0.08674501041848615 -0.40500744368491637 -0.7807962311658447
42 0.5111917642374492 -0.11708971293939432 0.12156473307490584
41 0.18177800976389474 -0.13477643196091427 0.10941957404723689
43 0.6317518457326571 -0.6515679218902499 -0.042108349823499196
67 0.13291415188631756 0.04947558631938646 -0.36071745122496307
90 -0.2510243687110644 0.08405187036862369 0.06738220526060262
52 1.3414182741383922 -0.023676074136571162 -0.16136134131250568
94 -1.079114408508099 0.19102231358797742 -0.3304967137299289
91 0.2869115161645026 -0.578114894182404 -0.13721020250814175
89 0.008553941176616939 -0.09250743849774866 -0.05641242495529124
50 0.011498366411457668 -0.08964902172201186 0.1578179446988851
51 0.39305901529344645 -0.3402067286943616 -0.04804634437158026
139 0.5132811287574826 0.9306500955517107 -0.06998375915820519
137 0.02331085547351853 -0.13319530827107479 -0.26247248299821396
138 -1.1543451523093173 -0.46123776401185973 -0.7618571441653095
23 0.37943005113692774 -0.21123051664785397 -0.372368420588831
24 0.054885315862337566 0.6257134529584119 0.2188072949332559
25 0.13613196652043008 0.8637518343541012 0.6812478000505445
72 -0.0394063434190047 -0.5168017370423773 -0.22317888489029966
21 -0.12943526498263808 0.052040491818759665 0.11246245234197613
103 0.6151952669942475 -0.4012327498957135 -0.5165846991178804
59 -0.07703380821976354 -0.11862778926954383 -0.025093929739419277
61 -0.0037605016182901962 -0.07203354928892823 0.15496317006053126
84 -0.8290333969633454 -1.1131063058849566 -0.014429334523689951
83 0.039421564356664704 -0.06022135288748069 -0.06528810435666804
95 -0.005468548837370429 0.1865561132988438 -0.06384361419316414
85 0.2746719464103153 -0.18811629082229497 -0.4737502347819334
96 0.2371130998387653 0.07670906980626518 0.1582693959188169
97 0.01622909912909503 -0.5474959523203224 0.08513018244467743
117 -0.05118236858536166 -0.7637942033316826 -0.17351011886351897
116 -0.039692260219741454 -0.1419255798736532 -0.09984425247734259
118 0.1557087176328083 -0.05580529707556864 -0.0529044365695944
156 -0.5141851116984809 0.31228997908477873 -0.4303460777269525
37 0.2561524313405843 0.4254542892787637 0.1605284605895601
35 -0.003026253515301349 -0.06849985666172782 0.10813474989980905
4 -0.11844740497689518 0.05029050067165864 -0.14480012463701483
133 0.09426516502258803 -0.38829642553611526 -0.000724383728816072
131 -0.03562267665727542 0.14019447833889875 -0.09367828737606584
60 -0.724011842266402 -0.14176740423592601 0.1671774891117427

Bonds

1 1 53 54
2 1 53 55
3 1 77 78
4 1 77 79
5 1 62 63
6 1 62 64
7 1 122 123
8 1 122 124
9 1 56 57
10 1 56 58
11 1 125 126
12 1 125 127
13 1 80 81
14 1 80 82
15 1 140 141
16 1 140 142
17 1 6 7
18 1 6 8
19 1 6 9
20 1 6 10
21 1 86 87
22 1 86 88
23 1 68 69
24 1 68 70
25 1 134 135
26 1 134 136
27 1 110 111
28 1 110 112
29 1 38 39
30 1 38 40
31 1 104 105
32 1 104 106
33 1 119 120
34 1 119 121
35 1 71 72
36 1 71 73
37 1 44 45
38 1 44 46
39 1 158 159
40 1 158 160
41 1 143 144
42 1 143 145
43 1 16 17
44 1 16 18
45 1 16 19
46 1 16 20
47 1 74 75
48 1 74 76
49 1 113 114
50 1 113 115
51 1 155 156
52 1 155 157
53 1 152 153
54 1 152 154
55 1 128 129
56 1 128 130
57 1 146 147
58 1 146 148
59 1 11 12
60 1 11 13
61 1 11 14
62 1 11 15
63 1 29 30
64 1 29 31
65 1 1 2
66 1 1 3
67 1 1 4
68 1 1 5
69 1 92 93
70 1 92 94
71 1 101 102
72 1 101 103
73 1 47 48
74 1 47 49
75 1 149 150
76 1 149 151
77 1 107 108
78 1 107 109
79 1 26 27
80 1 26 28
81 1 98 99
82 1 98 100
83 1 65 66
84 1 65 67
85 1 32 33
86 1 32 34
87 1 41 42
88 1 41 43
89 1 89 90
90 1 89 91
91 1 50 51
92 1 50 52
93 1 137 138
94 1 137 139
95 1 21 22
96 1 21 23
97 1 21 24
98 1 21 25
99 1 59 60
100 1 59 61
101 1 83 84
102 1 83 85
103 1 95 96
104 1 95 97
105 1 116 117
106 1 116 118
107 1 35 36
108 1 35 37
109 1 131 132
110 1 131 133

Angles

1 1 54 53 55
2 1 78 77 79
3 1 63 62 64
4 1 123 122 124
5 1 57 56 58
6 1 126 125 127
7 1 81 80 82
8 1 141 140 142
9 2 7 6 8
10 2 7 6 9
11 2 7 6 10
12 2 8 6 9
13 2 8 6 10
14 2 9 6 10
15 1 87 86 88
16 1 69 68 70
17 1 135 134 136
18 1 111 110 112
19 1 39 38 40
20 1 105 104 106
21 1 120 119 121
22 1 72 71 73
23 1 45 44 46
24 1 159 158 160
25 1 144 143 145
26 2 17 16 18
27 2 17 16 19
28 2 17 16 20
29 2 18 16 19
30 2 18 16 20
31 2 19 16 20
32 1 75 74 76
33 1 114 113 115
34 1 156 155 157
35 1 153 152 154
36 1 129 128 130
37 1 147 146 148
38 2 12 11 13
39 2 12 11 14
40 2 12 11 15
41 2 13 11 14
42 2 13 11 15
43 2 14 11 15
44 1 30 29 31
45 2 2 1 3
46 2 2 1 4
47 2 2 1 5
48 2 3 1 4
49 2 3 1 5
50 2 4 1 5
51 1 93 92 94
52 1 102 101 103
53 1 48 47 49
54 1 150 149 151
55 1 108 107 109
56 1 27 26 28
57 1 99 98 100
58 1 66 65 67
59 1 33 32 34
60 1 42 41 43
61 1 90 89 91
62 1 51 50 52
63 1 138 137 139
64 2 22 21 23
65 2 22 21 24
66 2 22 21 25
67 2 23 21 24
68 2 23 21 25
69 2 24 21 25
70 1 60 59 61
71 1 84 83 85
72 1 96 95 97
73 1 117 116 118
74 1 36 35 37
75 1 132 131 133
