ITEM: TIMESTEP
0
ITEM: NUMBER OF ATOMS
550
ITEM: BOX BOUNDS pp pp pp
-4.5000000000000000e+00 4.5000000000000000e+00
-4.5000000000000000e+00 4.5000000000000000e+00
-4.5000000000000000e+00 4.5000000000000000e+00
ITEM: ATOMS id type c_Ke c_Pe
504 4 0 0
351 4 0 0
350 2 0 0
243 3 0 0
454 4 0 0
6 1 0 0
8 3 0 0
7 3 0 0
10 3 0 0
241 1 0 0
244 3 0 0
335 2 0 0
336 4 0 0
157 3 0 0
9 3 0 0
509 2 0 0
511 4 0 0
156 1 0 0
160 3 0 0
292 4 0 0
53 3 0 0
547 4 0 0
529 4 0 -5.65751e-11
527 2 0 0
528 4 0 0
231 1 0 0
232 3 0 0
234 3 0 0
389 2 0 0
390 4 0 0
233 3 0 0
251 2 0 0
252 4 0 0
24 3 0 -0.000138766
310 4 0 -0.000138766
70 3 0 0
370 4 0 0
368 2 0 0
369 4 0 0
253 4 0 0
149 3 0 0
66 1 0 0
69 3 0 0
67 3 0 0
313 4 0 0
311 2 0 0
312 4 0 0
116 1 0 0
120 3 0 0
119 3 0 0
89 3 0 0
86 1 0 0
90 3 0 0
118 3 0 0
298 4 0 0
296 2 0 0.00519547
297 4 0 0
245 3 0 0
352 4 0 0
435 4 0 0
113 3 0 0
338 2 0 0
340 4 0 0
339 4 0 0
242 3 0 0
337 4 0 0
114 3 0 0
115 3 0 0
333 4 0 0
502 4 0 0
51 1 0 0
52 3 0 0
55 3 0 0
538 4 0 -5.65751e-11
54 3 0 0
147 3 0 0
171 1 0 0
173 3 0 0
150 3 0 0
146 1 0 0
148 3 0 0
308 2 0 0
309 4 0 0
175 3 0 0
279 4 0 0
278 2 0 0
280 4 0 0
503 2 0 0.00519547
505 4 0 0
88 3 0 0
117 3 0 0
138 3 0 0
136 1 0 0
137 3 0 0
140 3 0 0
513 4 0 0
541 4 0 0
539 2 0 0
540 4 0 -0.00805946
436 4 0 0
434 2 0 0
164 3 0 0
163 3 0 0
395 2 0 0
397 4 0 -0.00805946
474 4 0 0
111 1 0 0
112 3 0 0
36 1 0 0
37 3 0 0
396 4 0 0
475 4 0 0
473 2 0 0.464893
40 3 0 0
39 3 0 0
411 4 0 0
275 2 0 0
277 4 0 0
276 4 0 0
500 2 0 0.464893
501 4 0 0
536 2 0 0
412 4 0 0
410 2 0 0
332 2 0 0
199 3 0 0
200 3 0 0
537 4 0 0
334 4 0 0
196 1 0 0
197 3 0 0
198 3 0 -6.21979e-10
413 2 0 0
415 4 0 0
362 2 0 0.0536484
364 4 0 0
172 3 0 0
174 3 0 -5.38269e-13
204 3 0 0
347 2 0 0
349 4 0 0
348 4 0 0
178 3 0 0
382 4 0 0
542 2 0 0
543 4 0 0
420 4 0 0
87 3 0 0
139 3 0 -0.000989951
323 2 0 0
317 2 0 0
319 4 0 0
318 4 0 -0.000989951
512 2 0 0
514 4 0 0
507 4 0 0
324 4 0 0
429 4 0 -2.72671e-14
525 4 0 0
161 1 0 0
162 3 0 -2.72671e-14
344 2 0 0
346 4 0 0
38 3 0 0
165 3 0 0
285 4 0 0
45 3 0 0
215 3 0 0
424 4 0 0
327 4 0 -6.21979e-10
470 2 0 0.0536484
472 4 0 -0.0249714
423 4 0 -5.38269e-13
422 2 0 0
203 3 0 0
414 4 0 0
363 4 0 -0.0249714
179 3 0 0
176 1 0 0
177 3 0 0
201 1 0 0
202 3 0 0
205 3 0 0
341 2 0 0
342 4 0 -0.0245153
384 4 0 -0.0245153
180 3 0 0
380 2 0 0
544 4 0 0
419 2 0 0
421 4 0 0
325 4 0 0
358 4 0 0
356 2 0 0
95 3 0 -1.62905e-15
357 4 0 -1.62905e-15
91 1 0 0
94 3 0 0
430 4 0 0
506 2 0 0
508 4 0 0
526 4 0 0
428 2 0 0
524 2 0 0
373 4 0 -0.0248533
463 4 0 -0.0248533
461 2 0 0.0729137
462 4 0 0
345 4 0 0
213 3 0 0
481 4 0 0
41 1 0 0
43 3 0 0
44 3 0 0
211 1 0 0
214 3 0 0
212 3 0 0
284 2 0 0
286 4 0 0
447 4 0 0
42 3 0 0
393 4 0 0
471 4 0 0
392 2 0 0
394 4 0 0
314 2 0 0
316 4 0 0
315 4 0 0
326 2 0 0
328 4 0 0
343 4 0 0
383 2 0 0
385 4 0 0
381 4 0 -0.00784291
92 3 0 0
260 2 0 0
261 4 0 0
93 3 0 0
219 3 0 0
216 1 0 0
218 3 0 0
403 4 0 0
269 2 0 0.0729137
270 4 0 0
81 1 0 0
82 3 0 0
84 3 0 0
402 4 0 0
401 2 0 0
259 4 0 0
257 2 0 0
258 4 0 0
371 2 0 0
85 3 0 0
372 4 0 0
479 2 0 0
480 4 0 0
446 2 0 0
448 4 0 0
548 2 0 0
550 4 0 0
409 4 0 0
407 2 0 0
408 4 0 0
485 2 0 0
487 4 0 0
486 4 0 -0.00552467
268 4 0 -0.00552467
493 4 0 0
491 2 0 0.0159918
492 4 0 0
320 2 0 0
322 4 0 0
19 3 0 0
18 3 0 0
375 4 0 0
374 2 0 0
16 1 0 0
20 3 0 -0.00784291
262 4 0 0
217 3 0 0
64 3 0 0
388 4 0 0
220 3 0 0
183 3 0 0
288 4 0 0
271 4 0 0
83 3 0 0
287 2 0 0
289 4 0 0
58 3 0 0
449 2 0 0
450 4 0 0
549 4 0 0
489 4 0 0
59 3 0 0
56 1 0 0
60 3 0 0
267 4 0 0
266 2 0 0
295 4 0 0
293 2 0 0.0159918
294 4 0 0
321 4 0 0
456 4 0 0
376 4 0 0
305 2 0 0
307 4 0 0
17 3 0 -0.00803591
62 3 0 0
61 1 0 0
63 3 0 0
386 2 0 0
387 4 0 -0.00803591
431 2 0 0
432 4 0 0
99 3 0 0
100 3 0 0
330 4 0 0
184 3 0 0
181 1 0 0
182 3 0 0
185 3 0 0
365 2 0 0
367 4 0 0
465 4 0 0
442 4 0 0
466 4 0 0
464 2 0 0
440 2 0 0
451 4 0 0
490 4 0 0
441 4 0 0
488 2 0 0
57 3 0 0
142 3 0 0
144 3 0 0
141 1 0 0
145 3 0 0
361 4 0 0
186 1 0 0
187 3 0 0
455 2 0 0
306 4 0 0
129 3 0 0
457 4 0 0
516 4 0 0
65 3 0 0
515 2 0 0
517 4 0 0
433 4 0 0
96 1 0 0
98 3 0 0
329 2 0 0
97 3 0 0
222 3 0 0
104 3 0 0
366 4 0 0
460 4 0 0
458 2 0 0
459 4 0 0
225 3 0 0
444 4 0 0
248 3 0 0
30 3 0 0
443 2 0 0
445 4 0 0
249 3 0 0
27 3 0 0
26 1 0 0
28 3 0 0
519 4 0 0
190 3 0 0
143 3 0 0
359 2 0 0
360 4 0 0
189 3 0 0
188 3 0 0
74 3 0 0
71 1 0 0
73 3 0 0
75 3 0 0
127 3 0 0
128 3 0 0
195 3 0 0
126 1 0 0
130 3 0 0
191 1 0 0
192 3 0 0
193 3 0 0
530 2 0 0.284335
531 4 0 0
49 3 0 0
46 1 0 0
48 3 0 0
50 3 0 0
331 4 0 0
79 3 0 0
102 3 0 0
103 3 0 0
406 4 0 0
76 1 0 0
80 3 0 0
78 3 0 0
221 1 0 0
223 3 0 0
105 3 0 0
224 3 0 0
101 1 0 0
153 3 0 0
155 3 0 0
418 4 0 -1.6173e-06
151 1 0 0
154 3 0 0
416 2 0 0
417 4 0 -0.0211854
247 3 0 0
207 3 0 0
208 3 0 0
520 4 0 -0.0211854
246 1 0 0
250 3 0 0
29 3 0 0
303 4 0 -1.28378e-09
518 2 0 0.0558738
5 3 0 0
33 3 0 0
263 2 0 0
264 4 0 0
265 4 0 -1.33917e-139
72 3 0 -4.80167e-13
273 4 0 -4.80167e-13
497 2 0 0
499 4 0 0
301 4 0 0
238 3 0 -1.33917e-139
498 4 0 -0.00124193
438 4 0 0
533 2 0 0.0187786
534 4 0 -0.00124193
427 4 0 -1.74776e-09
532 4 0 -1.74776e-09
194 3 0 0
535 4 0 0
425 2 0 0.284335
426 4 0 0
47 3 0 0
254 2 0 0
255 4 0 0
522 4 0 0
133 3 0 0
106 1 0 0
110 3 0 0
77 3 0 -0.0184677
453 4 0 -0.0184677
135 3 0 0
404 2 0 0
169 3 0 -1.6173e-06
166 1 0 0
167 3 0 0
210 3 0 0
405 4 0 0
152 3 0 0
168 3 0 0
283 4 0 0
281 2 0 0
282 4 0 0
206 1 0 0
209 3 0 0
400 4 0 0
398 2 0 0
399 4 0 0
476 2 0 0.0684374
291 4 0 -0.00801287
477 4 0 -0.00801287
15 3 0 0
302 2 0 0.0125635
478 4 0 -1.28378e-09
378 4 0 0
3 3 0 0
1 1 0 0
2 3 0 0
4 3 0 0
32 3 0 0
31 1 0 0
34 3 0 0
35 3 0 0
377 2 0 0
379 4 0 0
240 3 0 0
299 2 0 0
482 2 0 0.0257112
483 4 0 0
237 3 0 0
236 1 0 0
239 3 0 0
274 4 0 0
272 2 0 0
300 4 0 0
437 2 0 0.0257112
439 4 0 0
353 2 0 0.0187786
355 4 0 -1.63141e-23
354 4 0 0
496 4 0 0
494 2 0 0
495 4 0 0
124 3 0 0
521 2 0 0
256 4 0 0
131 1 0 0
134 3 0 0
108 3 0 0
107 3 0 0
467 2 0 0
468 4 0 0
452 2 0 0
132 3 0 0
109 3 0 0
469 4 0 0
170 3 0 0
158 3 0 0
12 3 0 0
11 1 0 0
14 3 0 -0.00908678
510 4 0 -0.00908678
290 2 0 0
159 3 0 0
13 3 0 0
304 4 0 0
235 3 0 0
391 4 0 0
545 2 0 0
546 4 0 0
22 3 0 0
21 1 0 0
23 3 0 0
25 3 0 0
484 4 0 0
123 3 0 0
226 1 0 0
227 3 0 0
229 3 0 0
230 3 0 0
228 3 0 0
68 3 0 -1.63141e-23
121 1 0 0
122 3 0 0
125 3 0 0
523 4 0 0
ITEM: TIMESTEP
1
ITEM: NUMBER OF ATOMS
550
ITEM: BOX BOUNDS pp pp pp
-4.5000000000000000e+00 4.5000000000000000e+00
-4.5000000000000000e+00 4.5000000000000000e+00
-4.5000000000000000e+00 4.5000000000000000e+00
ITEM: ATOMS id type c_Ke c_Pe
504 4 0.000620879 0
351 4 1.41589e-06 0
350 2 9.99844e-07 0
243 3 2.68464e-07 0
454 4 0.000221849 0
6 1 1.31825e-07 0
8 3 4.60874e-07 0
7 3 1.51557e-07 0
10 3 1.48944e-07 0
241 1 9.49903e-08 0
244 3 4.6651e-08 0
335 2 7.14205e-07 0
336 4 5.62074e-07 0
157 3 8.13483e-08 0
9 3 2.43648e-07 0
509 2 0.000422802 0
511 4 0.000205264 0
156 1 3.18362e-07 0
160 3 1.80713e-07 0
292 4 0.000205004 0
53 3 3.06145e-07 0
547 4 3.70935e-07 0
529 4 2.65439e-07 -5.65752e-11
527 2 3.93235e-07 0
528 4 8.9743e-07 0
231 1 1.75576e-07 0
232 3 6.88442e-07 0
234 3 5.74573e-07 0
389 2 8.80125e-08 0
390 4 5.08834e-07 0
233 3 3.8377e-07 0
251 2 8.56778e-07 0
252 4 1.06915e-06 0
24 3 9.51659e-07 -0.000144626
310 4 9.13276e-06 -0.000144626
70 3 8.65316e-07 0
370 4 3.97116e-07 0
368 2 5.24413e-07 0
369 4 1.07651e-06 0
253 4 1.31255e-07 0
149 3 6.09674e-07 0
66 1 3.3999e-07 0
69 3 2.52962e-07 0
67 3 2.4179e-07 0
313 4 7.61881e-07 0
311 2 2.79881e-07 0
312 4 9.06516e-08 0
116 1 9.20755e-08 0
120 3 3.08941e-07 0
119 3 5.76142e-07 0
89 3 1.41102e-07 0
86 1 4.46985e-07 0
90 3 4.61418e-07 0
118 3 1.59007e-07 0
298 4 0.000644815 0
296 2 0.00130063 0.00212983
297 4 0.000656683 0
245 3 1.80957e-07 0
352 4 4.31261e-07 0
435 4 1.87717e-07 0
113 3 6.40968e-08 0
338 2 1.1349e-07 0
340 4 4.07742e-07 0
339 4 5.16158e-07 0
242 3 9.1939e-08 0
337 4 4.95705e-07 0
114 3 2.78025e-07 0
115 3 9.0807e-08 0
333 4 1.89901e-07 0
502 4 0.0823658 0
51 1 1.7729e-07 0
52 3 1.09426e-07 0
55 3 1.70189e-07 0
538 4 4.9943e-07 -5.65752e-11
54 3 7.98352e-08 0
147 3 3.19194e-07 0
171 1 1.86199e-07 0
173 3 5.44244e-07 0
150 3 3.18644e-07 0
146 1 7.19832e-08 0
148 3 4.75279e-07 0
308 2 4.09229e-06 0
309 4 9.57347e-07 0
175 3 2.1788e-07 0
279 4 6.82421e-08 0
278 2 1.81684e-07 0
280 4 5.32175e-07 0
503 2 0.00126159 0.00212983
505 4 0.000641316 0
88 3 7.14335e-07 0
117 3 3.38876e-07 0
138 3 2.35785e-05 0
136 1 1.18429e-05 0
137 3 2.70418e-05 0
140 3 3.80062e-06 0
513 4 5.53004e-07 0
541 4 0.000203554 0
539 2 0.000394326 0
540 4 0.000479411 -0.00972257
436 4 4.49997e-07 0
434 2 1.60155e-07 0
164 3 1.61031e-07 0
163 3 3.94917e-08 0
395 2 0.000414625 0
397 4 0.00178322 -0.00972257
474 4 0.0832658 0
111 1 1.96118e-07 0
112 3 1.03254e-07 0
36 1 2.1785e-07 0
37 3 2.91641e-07 0
396 4 0.000183878 0
475 4 0.0826896 0
473 2 0.165955 0.000472032
40 3 3.30196e-07 0
39 3 3.72803e-07 0
411 4 2.17097e-07 0
275 2 3.07067e-07 0
277 4 1.06597e-06 0
276 4 7.14329e-07 0
500 2 0.165711 0.000472032
501 4 0.0833469 0
536 2 2.13737e-07 0
412 4 2.63708e-08 0
410 2 8.34901e-08 0
332 2 2.59624e-07 0
199 3 4.01698e-07 0
200 3 2.48733e-07 0
537 4 3.32582e-07 0
334 4 9.24369e-08 0
196 1 4.08499e-09 0
197 3 3.26177e-07 0
198 3 5.09259e-08 -6.21985e-10
413 2 1.89025e-07 0
415 4 5.88111e-07 0
362 2 0.0148869 0.0112371
364 4 0.00669476 0
172 3 3.78335e-07 0
174 3 1.84183e-07 -5.38269e-13
204 3 1.14126e-06 0
347 2 1.62035e-07 0
349 4 6.25921e-07 0
348 4 1.99657e-07 0
178 3 1.3769e-06 0
382 4 0.000186143 0
542 2 3.70257e-07 0
543 4 2.89329e-07 0
420 4 5.21887e-07 0
87 3 1.19486e-07 0
139 3 7.50344e-05 -0.00110463
323 2 3.31096e-07 0
317 2 3.08439e-05 0
319 4 1.58878e-05 0
318 4 2.96383e-05 -0.00110463
512 2 9.70037e-08 0
514 4 2.0682e-07 0
507 4 3.53274e-07 0
324 4 2.98291e-07 0
429 4 7.24875e-07 -2.72671e-14
525 4 2.61018e-07 0
161 1 6.81505e-08 0
162 3 2.21797e-07 -2.72671e-14
344 2 6.89224e-07 0
346 4 6.56698e-07 0
38 3 4.62555e-07 0
165 3 2.51816e-07 0
285 4 1.06672e-07 0
45 3 2.7194e-07 0
215 3 1.39476e-08 0
424 4 1.52178e-07 0
327 4 6.21116e-07 -6.21985e-10
470 2 0.0149282 0.0112371
472 4 0.00739958 -0.0258741
423 4 1.70229e-07 -5.38269e-13
422 2 3.06477e-07 0
203 3 6.17145e-07 0
414 4 6.95298e-08 0
363 4 0.00823895 -0.0258741
179 3 1.08823e-07 0
176 1 3.71737e-07 0
177 3 6.15269e-07 0
201 1 1.95767e-08 0
202 3 1.59551e-07 0
205 3 7.47084e-07 0
341 2 0.00013946 0
342 4 0.000600596 -0.0251964
384 4 0.000254788 -0.0251964
180 3 2.36264e-07 0
380 2 0.000368275 0
544 4 1.05276e-07 0
419 2 3.9148e-07 0
421 4 6.0721e-08 0
325 4 6.28416e-07 0
358 4 5.53485e-08 0
356 2 1.20352e-07 0
95 3 7.35759e-07 -1.62905e-15
357 4 7.87995e-08 -1.62905e-15
91 1 7.01663e-08 0
94 3 4.27673e-07 0
430 4 1.70818e-06 0
506 2 1.02161e-07 0
508 4 4.05507e-08 0
526 4 4.8609e-07 0
428 2 7.51742e-07 0
524 2 3.17891e-07 0
373 4 0.000357086 -0.0257808
463 4 0.0116543 -0.0257808
461 2 0.0214376 0.0142988
462 4 0.00983286 0
345 4 8.50465e-07 0
213 3 1.6637e-08 0
481 4 8.81331e-08 0
41 1 4.04651e-07 0
43 3 2.20528e-07 0
44 3 2.72453e-07 0
211 1 6.73099e-08 0
214 3 1.57614e-07 0
212 3 1.40514e-07 0
284 2 7.2031e-08 0
286 4 5.21318e-08 0
447 4 7.87912e-08 0
42 3 3.16186e-07 0
393 4 2.17589e-07 0
471 4 0.00753865 0
392 2 2.90313e-07 0
394 4 1.66854e-07 0
314 2 2.33199e-07 0
316 4 4.7788e-07 0
315 4 8.50987e-08 0
326 2 3.35896e-07 0
328 4 8.21482e-07 0
343 4 6.56941e-05 0
383 2 0.000115906 0
385 4 6.12945e-05 0
381 4 0.000226487 -0.00880958
92 3 1.9795e-07 0
260 2 5.21321e-07 0
261 4 2.6332e-07 0
93 3 9.2708e-07 0
219 3 3.18696e-07 0
216 1 4.22013e-07 0
218 3 3.20245e-07 0
403 4 4.59349e-07 0
269 2 0.020688 0.0142988
270 4 0.0103244 0
81 1 9.1465e-08 0
82 3 2.22809e-07 0
84 3 3.78932e-07 0
402 4 3.91805e-07 0
401 2 4.33649e-07 0
259 4 6.7935e-07 0
257 2 8.62039e-07 0
258 4 5.48501e-07 0
371 2 9.00304e-05 0
85 3 1.30864e-07 0
372 4 4.02864e-05 0
479 2 2.11338e-07 0
480 4 6.21429e-07 0
446 2 9.98993e-08 0
448 4 2.48454e-07 0
548 2 3.58162e-07 0
550 4 5.95949e-07 0
409 4 3.07092e-07 0
407 2 2.119e-07 0
408 4 1.19675e-07 0
485 2 0.000305769 0
487 4 0.000150912 0
486 4 0.000333845 -0.00673035
268 4 0.0013231 -0.00673035
493 4 0.00203909 0
491 2 0.00409547 0.00561119
492 4 0.00205716 0
320 2 1.78005e-07 0
322 4 6.97984e-07 0
19 3 0.000108068 0
18 3 0.00048323 0
375 4 1.84964e-07 0
374 2 4.22997e-07 0
16 1 0.000194601 0
20 3 0.000569701 -0.00880958
262 4 6.56994e-07 0
217 3 4.15169e-07 0
64 3 8.09208e-08 0
388 4 0.000203019 0
220 3 2.26259e-07 0
183 3 2.02553e-08 0
288 4 3.74285e-07 0
271 4 0.0103636 0
83 3 1.80286e-07 0
287 2 1.40634e-07 0
289 4 5.49348e-07 0
58 3 2.61448e-07 0
449 2 3.20681e-07 0
450 4 1.53471e-07 0
549 4 1.03774e-06 0
489 4 7.11777e-07 0
59 3 1.31006e-07 0
56 1 1.52817e-07 0
60 3 8.39095e-07 0
267 4 0.000148684 0
266 2 0.000293423 0
295 4 0.0020549 0
293 2 0.00411105 0.00561119
294 4 0.00205657 0
321 4 1.30392e-07 0
456 4 1.85206e-07 0
376 4 2.73127e-07 0
305 2 8.12035e-08 0
307 4 8.59277e-08 0
17 3 0.0012227 -0.00915528
62 3 2.26486e-07 0
61 1 2.45564e-07 0
63 3 4.93364e-07 0
386 2 0.000404496 0
387 4 0.000345515 -0.00915528
431 2 1.29822e-07 0
432 4 6.53073e-07 0
99 3 5.45173e-07 0
100 3 5.15103e-08 0
330 4 8.11985e-07 0
184 3 1.35023e-07 0
181 1 1.39479e-07 0
182 3 1.54313e-07 0
185 3 4.51569e-08 0
365 2 1.72559e-07 0
367 4 1.06439e-06 0
465 4 2.59281e-07 0
442 4 7.49579e-07 0
466 4 8.67918e-07 0
464 2 5.32347e-07 0
440 2 4.33074e-07 0
451 4 3.53578e-07 0
490 4 1.89986e-07 0
441 4 1.75083e-07 0
488 2 2.40629e-07 0
57 3 5.01544e-07 0
142 3 2.41063e-07 0
144 3 3.15313e-07 0
141 1 1.88729e-07 0
145 3 2.37887e-07 0
361 4 1.03528e-06 0
186 1 3.49356e-07 0
187 3 2.22074e-07 0
455 2 4.26603e-07 0
306 4 4.66202e-07 0
129 3 6.06995e-08 0
457 4 3.75748e-07 0
516 4 7.86925e-07 0
65 3 1.04098e-07 0
515 2 8.7032e-08 0
517 4 4.64562e-07 0
433 4 5.06863e-07 0
96 1 3.06164e-07 0
98 3 1.92686e-08 0
329 2 4.71681e-07 0
97 3 4.69909e-07 0
222 3 2.42803e-07 0
104 3 1.52113e-07 0
366 4 6.46928e-07 0
460 4 4.17023e-07 0
458 2 1.80992e-07 0
459 4 9.24629e-07 0
225 3 5.77085e-07 0
444 4 2.13904e-07 0
248 3 8.72863e-08 0
30 3 1.60218e-07 0
443 2 8.87423e-07 0
445 4 7.57926e-07 0
249 3 4.8773e-08 0
27 3 1.40165e-07 0
26 1 1.20945e-07 0
28 3 2.36377e-07 0
519 4 0.00588969 0
190 3 3.43461e-07 0
143 3 2.6809e-07 0
359 2 7.48711e-07 0
360 4 6.11989e-08 0
189 3 2.16903e-07 0
188 3 6.57234e-07 0
74 3 5.63404e-07 0
71 1 3.59083e-07 0
73 3 3.70868e-07 0
75 3 4.01496e-07 0
127 3 2.39423e-07 0
128 3 1.55073e-07 0
195 3 6.9604e-08 0
126 1 2.15638e-07 0
130 3 3.03162e-07 0
191 1 1.40605e-07 0
192 3 1.80467e-07 0
193 3 5.63162e-08 0
530 2 0.0919876 0.00841578
531 4 0.0459824 0
49 3 2.18163e-07 0
46 1 1.12841e-07 0
48 3 4.43179e-07 0
50 3 4.07417e-07 0
331 4 5.76354e-08 0
79 3 0.000369505 0
102 3 3.17811e-07 0
103 3 2.06182e-07 0
406 4 6.00518e-07 0
76 1 0.000183954 0
80 3 2.15777e-05 0
78 3 2.0662e-06 0
221 1 3.6585e-07 0
223 3 3.19608e-07 0
105 3 3.14354e-07 0
224 3 4.32134e-07 0
101 1 4.24133e-07 0
153 3 4.9006e-07 0
155 3 1.60007e-07 0
418 4 0.000154469 -1.37548e-06
151 1 3.79265e-08 0
154 3 6.23984e-07 0
416 2 0.000324281 0
417 4 0.0010386 -0.0220073
247 3 2.08552e-07 0
207 3 3.37152e-07 0
208 3 1.21142e-07 0
520 4 0.00993373 -0.0220073
246 1 2.18308e-07 0
250 3 2.42404e-07 0
29 3 4.68201e-07 0
303 4 0.00165633 -8.71749e-16
518 2 0.0153723 0.0138578
5 3 1.73757e-07 0
33 3 2.55735e-07 0
263 2 4.53093e-07 0
264 4 2.82976e-07 0
265 4 1.02812e-06 -1.33917e-139
72 3 2.62999e-07 -4.80167e-13
273 4 7.47988e-07 -4.80167e-13
497 2 5.61084e-05 0
499 4 1.97596e-05 0
301 4 4.12618e-07 0
238 3 2.03378e-07 -1.33917e-139
498 4 0.000186263 -0.00126618
438 4 0.00334467 0
533 2 0.00449038 0.00647934
534 4 0.00220598 -0.00126618
427 4 0.046166 0
532 4 0.0460052 0
194 3 2.54257e-07 0
535 4 0.00244151 0
425 2 0.0917881 0.00841578
426 4 0.0456231 0
47 3 1.07288e-07 0
254 2 1.34892e-07 0
255 4 3.33207e-07 0
522 4 7.01558e-07 0
133 3 5.36515e-07 0
106 1 1.00685e-07 0
110 3 5.18811e-08 0
77 3 0.000347981 -0.0194999
453 4 0.000491726 -0.0194999
135 3 1.14361e-06 0
404 2 1.12743e-06 0
169 3 2.07977e-07 -1.37548e-06
166 1 6.46172e-08 0
167 3 2.44179e-07 0
210 3 3.38002e-07 0
405 4 5.29129e-07 0
152 3 5.70632e-07 0
168 3 1.13519e-07 0
283 4 4.09181e-07 0
281 2 4.13597e-07 0
282 4 5.85694e-07 0
206 1 3.11103e-07 0
209 3 7.77225e-08 0
400 4 8.08047e-07 0
398 2 5.51079e-07 0
399 4 1.83113e-07 0
476 2 0.0201965 0.0193552
291 4 0.00118704 -0.0115061
477 4 0.0107503 -0.0115061
15 3 6.41788e-05 0
302 2 0.00336652 0.00549739
478 4 0.00948608 -8.71749e-16
378 4 1.05234e-07 0
3 3 2.10495e-07 0
1 1 1.18187e-07 0
2 3 4.17039e-08 0
4 3 8.51692e-08 0
32 3 3.63249e-07 0
31 1 3.12123e-08 0
34 3 2.92168e-07 0
35 3 8.60885e-08 0
377 2 1.90613e-07 0
379 4 9.37463e-08 0
240 3 6.58846e-07 0
299 2 5.91864e-08 0
482 2 0.0068347 0.00804328
483 4 0.00336711 0
237 3 3.21443e-07 0
236 1 6.88057e-07 0
239 3 5.67414e-07 0
274 4 4.24568e-07 0
272 2 7.73319e-07 0
300 4 7.23819e-07 0
437 2 0.00679235 0.00804328
439 4 0.00344815 0
353 2 0.00492048 0.00647934
355 4 0.00248599 -3.92447e-15
354 4 0.00243524 0
496 4 2.68087e-07 0
494 2 1.47211e-07 0
495 4 1.03076e-06 0
124 3 2.13757e-07 0
521 2 8.77611e-07 0
256 4 1.07939e-06 0
131 1 5.52812e-07 0
134 3 4.7182e-07 0
108 3 2.89451e-08 0
107 3 8.94675e-08 0
467 2 4.6926e-07 0
468 4 5.9709e-07 0
452 2 0.000433152 0
132 3 4.6389e-07 0
109 3 2.8463e-07 0
469 4 7.27612e-08 0
170 3 5.02799e-08 0
158 3 9.22327e-07 0
12 3 0.00034972 0
11 1 0.000195929 0
14 3 0.000788829 -0.0102886
510 4 0.000303585 -0.0102886
290 2 0.000418114 0
159 3 4.58257e-07 0
13 3 0.000145734 0
304 4 0.00171074 0
235 3 2.81104e-07 0
391 4 2.24781e-07 0
545 2 2.69992e-07 0
546 4 2.94385e-07 0
22 3 7.16716e-07 0
21 1 1.36153e-06 0
23 3 1.1884e-06 0
25 3 7.33202e-07 0
484 4 0.00346862 0
123 3 2.86014e-07 0
226 1 4.88971e-07 0
227 3 9.39346e-08 0
229 3 6.57122e-07 0
230 3 7.3436e-07 0
228 3 2.21127e-07 0
68 3 2.37027e-07 -3.92447e-15
121 1 2.18319e-07 0
122 3 1.59313e-08 0
125 3 9.76987e-08 0
523 4 1.05192e-06 0
ITEM: TIMESTEP
2
ITEM: NUMBER OF ATOMS
550
ITEM: BOX BOUNDS pp pp pp
-4.5000000000000000e+00 4.5000000000000000e+00
-4.5000000000000000e+00 4.5000000000000000e+00
-4.5000000000000000e+00 4.5000000000000000e+00
ITEM: ATOMS id type c_Ke c_Pe
504 4 0.00119439 0
351 4 7.47939e-06 0
350 2 6.07206e-06 0
243 3 7.31913e-07 0
454 4 0.000778573 0
6 1 1.86278e-08 0
8 3 9.09331e-07 0
7 3 2.49476e-08 0
10 3 5.85903e-07 0
241 1 1.50475e-07 0
244 3 1.71271e-08 0
335 2 1.51627e-06 0
336 4 2.13404e-06 0
157 3 3.12155e-08 0
9 3 8.50314e-07 0
509 2 0.00169096 0
511 4 0.000836759 0
156 1 6.48452e-07 0
160 3 5.13074e-07 0
292 4 0.00084121 0
53 3 1.0711e-06 0
547 4 8.8245e-07 0
529 4 1.88738e-06 -3.95842e-11
527 2 1.50182e-06 0
528 4 3.25182e-06 0
231 1 1.17873e-06 0
232 3 1.39084e-06 0
234 3 1.96141e-06 0
389 2 4.18844e-07 0
390 4 1.15399e-06 0
233 3 1.89667e-06 0
251 2 2.18119e-06 0
252 4 3.78204e-06 0
24 3 3.54919e-06 -0.000169152
310 4 3.42672e-05 -0.000169152
70 3 6.21825e-06 0
370 4 2.3812e-06 0
368 2 3.34506e-06 0
369 4 5.08082e-06 0
253 4 3.91977e-07 0
149 3 3.8485e-06 0
66 1 2.43941e-06 0
69 3 1.43642e-06 0
67 3 1.8249e-06 0
313 4 3.13077e-06 0
311 2 8.17738e-07 0
312 4 1.80836e-06 0
116 1 1.15703e-06 0
120 3 2.27838e-06 0
119 3 3.79711e-06 0
89 3 7.64568e-07 0
86 1 2.2441e-06 0
90 3 2.10447e-06 0
118 3 1.90519e-07 0
298 4 0.00128509 0
296 2 0.00250113 0
297 4 0.0012186 0
245 3 8.05564e-08 0
352 4 1.97487e-06 0
435 4 6.52507e-07 0
113 3 2.78505e-07 0
338 2 2.10525e-06 0
340 4 2.67445e-06 0
339 4 3.38123e-06 0
242 3 6.46505e-07 0
337 4 2.14884e-06 0
114 3 1.59632e-06 0
115 3 7.19269e-07 0
333 4 1.30921e-06 0
502 4 0.0849317 0
51 1 1.01415e-06 0
52 3 7.13546e-07 0
55 3 1.11456e-06 0
538 4 1.07626e-06 -3.95842e-11
54 3 1.41112e-07 0
147 3 3.53168e-06 0
171 1 1.1098e-06 0
173 3 1.23284e-06 0
150 3 2.00028e-06 0
146 1 5.70128e-07 0
148 3 1.7161e-06 0
308 2 1.30511e-05 0
309 4 5.36358e-06 0
175 3 1.52865e-06 0
279 4 7.32907e-07 0
278 2 2.16341e-06 0
280 4 1.62971e-06 0
503 2 0.00245963 0
505 4 0.0012678 0
88 3 4.13026e-06 0
117 3 1.40215e-06 0
138 3 0.000115484 0
136 1 5.79137e-05 0
137 3 0.000120702 0
140 3 1.78943e-05 0
513 4 2.05896e-06 0
541 4 0.000897959 0
539 2 0.00171285 0
540 4 0.00208353 -0.0154043
436 4 2.41765e-06 0
434 2 1.97901e-06 0
164 3 1.17994e-07 0
163 3 4.94874e-07 0
395 2 0.00176828 0
397 4 0.00764158 -0.0154043
474 4 0.0861411 0
111 1 1.25405e-06 0
112 3 6.83774e-07 0
36 1 6.75358e-07 0
37 3 1.5519e-06 0
396 4 0.000788989 0
475 4 0.0850529 0
473 2 0.171191 0
40 3 3.22306e-06 0
39 3 1.9429e-06 0
411 4 1.38579e-06 0
275 2 1.03502e-06 0
277 4 3.12492e-06 0
276 4 5.26467e-06 0
500 2 0.171563 0
501 4 0.086638 0
536 2 6.33673e-07 0
412 4 1.32451e-07 0
410 2 8.11516e-07 0
332 2 2.37018e-06 0
199 3 3.35277e-06 0
200 3 9.67297e-07 0
537 4 1.68873e-06 0
334 4 1.08247e-06 0
196 1 3.9114e-07 0
197 3 1.49152e-06 0
198 3 6.17991e-07 -7.75813e-10
413 2 5.66116e-07 0
415 4 1.52238e-06 0
362 2 0.0207222 0
364 4 0.0132202 0
172 3 1.71701e-06 0
174 3 7.49191e-07 -4.16287e-13
204 3 3.43808e-06 0
347 2 2.98009e-07 0
349 4 1.2588e-06 0
348 4 1.11362e-06 0
178 3 1.00806e-05 0
382 4 0.000805649 0
542 2 6.69596e-07 0
543 4 9.3607e-07 0
420 4 2.39304e-06 0
87 3 8.07754e-07 0
139 3 0.00035681 -0.00149226
323 2 2.62321e-07 0
317 2 0.000129656 0
319 4 6.43903e-05 0
318 4 0.000129431 -0.00149226
512 2 2.99255e-07 0
514 4 1.11135e-06 0
507 4 1.55691e-06 0
324 4 1.32091e-06 0
429 4 6.69346e-06 -1.92676e-14
525 4 3.42271e-06 0
161 1 9.2514e-07 0
162 3 6.80151e-07 -1.92676e-14
344 2 3.84328e-06 0
346 4 3.91854e-06 0
38 3 3.30503e-06 0
165 3 1.60508e-06 0
285 4 1.36753e-06 0
45 3 5.19826e-07 0
215 3 1.79191e-07 0
424 4 6.23926e-07 0
327 4 1.84708e-06 -7.75813e-10
470 2 0.0208409 0
472 4 0.0106668 -0.0182973
423 4 8.3539e-08 -4.16287e-13
422 2 3.52497e-07 0
203 3 2.19519e-06 0
414 4 6.78642e-07 0
363 4 0.00790007 -0.0182973
179 3 9.81629e-07 0
176 1 2.36027e-06 0
177 3 2.93927e-06 0
201 1 1.37902e-07 0
202 3 1.26741e-06 0
205 3 2.50779e-06 0
341 2 0.000359424 0
342 4 0.00153033 -0.0262282
384 4 0.000599124 -0.0262282
180 3 2.92873e-06 0
380 2 0.00157781 0
544 4 5.80796e-08 0
419 2 3.70306e-06 0
421 4 1.50279e-06 0
325 4 1.1706e-06 0
358 4 2.40076e-07 0
356 2 4.9463e-07 0
95 3 3.28496e-06 -9.08965e-16
357 4 2.74201e-07 -9.08965e-16
91 1 4.82689e-07 0
94 3 6.0455e-07 0
430 4 9.58994e-06 0
506 2 1.54374e-07 0
508 4 1.05925e-06 0
526 4 1.95491e-06 0
428 2 1.88458e-06 0
524 2 2.19432e-06 0
373 4 0.00054093 -0.0262333
463 4 0.0186668 -0.0262333
461 2 0.0344302 0
462 4 0.0158368 0
345 4 1.60698e-06 0
213 3 2.72282e-07 0
481 4 3.60289e-07 0
41 1 1.01242e-06 0
43 3 7.51521e-07 0
44 3 8.61172e-07 0
211 1 2.17557e-07 0
214 3 2.06636e-07 0
212 3 1.28827e-07 0
284 2 5.03825e-07 0
286 4 9.86532e-07 0
447 4 4.46014e-07 0
42 3 9.10194e-07 0
393 4 1.34875e-06 0
471 4 0.0102163 0
392 2 4.17411e-07 0
394 4 1.23293e-06 0
314 2 1.29365e-06 0
316 4 3.74658e-06 0
315 4 9.59759e-07 0
326 2 7.88182e-07 0
328 4 1.9994e-06 0
343 4 0.000162286 0
383 2 0.000281099 0
385 4 0.00015207 0
381 4 0.000982414 -0.0119809
92 3 7.133e-07 0
260 2 2.3324e-06 0
261 4 1.9115e-06 0
93 3 2.95586e-06 0
219 3 1.68982e-06 0
216 1 1.61216e-06 0
218 3 1.6661e-06 0
403 4 1.96313e-06 0
269 2 0.0333891 0
270 4 0.0165732 0
81 1 6.23268e-07 0
82 3 6.22888e-07 0
84 3 1.84299e-06 0
402 4 1.64686e-06 0
401 2 2.0653e-06 0
259 4 2.56453e-06 0
257 2 3.93336e-06 0
258 4 1.6854e-06 0
371 2 0.000130614 0
85 3 2.03329e-07 0
372 4 6.48103e-05 0
479 2 1.17906e-06 0
480 4 1.04393e-06 0
446 2 1.10025e-07 0
448 4 2.85641e-07 0
548 2 2.08077e-06 0
550 4 3.7647e-06 0
409 4 3.49077e-06 0
407 2 7.81785e-07 0
408 4 1.24774e-06 0
485 2 0.00135 0
487 4 0.000682606 0
486 4 0.00147773 -0.0112136
268 4 0.00597308 -0.0112136
493 4 0.00374885 0
491 2 0.00748351 0
492 4 0.00373484 0
320 2 2.41573e-06 0
322 4 2.94892e-06 0
19 3 0.000441495 0
18 3 0.00201642 0
375 4 9.23497e-07 0
374 2 1.98296e-06 0
16 1 0.000832635 0
20 3 0.00230608 -0.0119809
262 4 2.06122e-06 0
217 3 1.6608e-06 0
64 3 5.41984e-07 0
388 4 0.000869055 0
220 3 1.63202e-06 0
183 3 2.33302e-07 0
288 4 1.55799e-06 0
271 4 0.0168165 0
83 3 1.00697e-06 0
287 2 7.67845e-07 0
289 4 2.53706e-06 0
58 3 1.48679e-06 0
449 2 1.82059e-06 0
450 4 1.41191e-06 0
549 4 4.07445e-06 0
489 4 3.94129e-06 0
59 3 1.23995e-06 0
56 1 1.32529e-06 0
60 3 2.34797e-06 0
267 4 0.000669471 0
266 2 0.00132455 0
295 4 0.00387063 0
293 2 0.00763871 0
294 4 0.00376864 0
321 4 1.22934e-06 0
456 4 1.19792e-06 0
376 4 1.16724e-06 0
305 2 1.28161e-06 0
307 4 2.81629e-07 0
17 3 0.00510365 -0.0128813
62 3 1.02425e-06 0
61 1 1.41082e-06 0
63 3 1.1726e-06 0
386 2 0.00170691 0
387 4 0.00142366 -0.0128813
431 2 1.13319e-06 0
432 4 1.73236e-06 0
99 3 2.05366e-06 0
100 3 5.50822e-07 0
330 4 3.47583e-06 0
184 3 1.44114e-06 0
181 1 1.42845e-06 0
182 3 1.50254e-06 0
185 3 5.0703e-07 0
365 2 9.87211e-07 0
367 4 3.7982e-06 0
465 4 2.38938e-06 0
442 4 3.97579e-06 0
466 4 2.19596e-06 0
464 2 2.20463e-06 0
440 2 2.31804e-06 0
451 4 3.08496e-06 0
490 4 2.29211e-07 0
441 4 9.31242e-07 0
488 2 1.3155e-06 0
57 3 1.38236e-06 0
142 3 6.51904e-07 0
144 3 5.97943e-07 0
141 1 8.59735e-07 0
145 3 9.98658e-07 0
361 4 8.75808e-06 0
186 1 2.52728e-06 0
187 3 1.93751e-06 0
455 2 9.75338e-07 0
306 4 3.26782e-06 0
129 3 2.56969e-07 0
457 4 8.991e-07 0
516 4 1.91418e-06 0
65 3 5.73128e-07 0
515 2 1.57102e-07 0
517 4 8.86467e-07 0
433 4 5.72271e-07 0
96 1 5.86754e-07 0
98 3 2.63686e-07 0
329 2 1.57022e-06 0
97 3 1.70091e-06 0
222 3 2.11255e-06 0
104 3 8.86478e-07 0
366 4 2.46824e-06 0
460 4 1.22825e-06 0
458 2 2.78477e-06 0
459 4 4.12213e-06 0
225 3 3.3291e-06 0
444 4 1.99621e-06 0
248 3 1.96814e-06 0
30 3 1.03766e-06 0
443 2 4.00012e-06 0
445 4 3.57693e-06 0
249 3 2.04101e-07 0
27 3 2.40548e-06 0
26 1 1.08699e-06 0
28 3 1.66795e-06 0
519 4 0.00871886 0
190 3 6.72302e-07 0
143 3 5.90511e-07 0
359 2 6.2776e-06 0
360 4 7.96565e-07 0
189 3 2.04281e-06 0
188 3 4.07361e-06 0
74 3 1.33835e-06 0
71 1 1.36981e-06 0
73 3 1.8331e-06 0
75 3 9.25342e-07 0
127 3 1.12508e-06 0
128 3 1.12465e-06 0
195 3 5.08617e-08 0
126 1 8.20324e-07 0
130 3 2.08781e-06 0
191 1 1.78435e-06 0
192 3 1.93519e-06 0
193 3 1.34327e-06 0
530 2 0.109942 0
531 4 0.054842 0
49 3 6.99434e-07 0
46 1 8.63029e-07 0
48 3 2.63695e-06 0
50 3 2.80865e-06 0
331 4 7.80966e-08 0
79 3 0.00135636 0
102 3 9.03066e-07 0
103 3 1.76954e-07 0
406 4 2.5676e-06 0
76 1 0.00066408 0
80 3 7.61612e-05 0
78 3 5.77413e-06 0
221 1 2.9646e-06 0
223 3 1.62636e-06 0
105 3 1.27715e-06 0
224 3 2.82961e-06 0
101 1 1.37161e-06 0
153 3 1.83e-06 0
155 3 1.00564e-06 0
418 4 0.000531581 -8.76296e-07
151 1 4.56518e-07 0
154 3 4.09539e-06 0
416 2 0.00113006 0
417 4 0.00349725 -0.0242183
247 3 1.17328e-06 0
207 3 1.48283e-06 0
208 3 1.53525e-06 0
520 4 0.0183535 -0.0242183
246 1 4.40215e-07 0
250 3 1.07805e-07 0
29 3 4.81586e-06 0
303 4 0.00316222 0
518 2 0.0256827 0
5 3 7.32408e-07 0
33 3 1.59277e-06 0
263 2 1.72265e-06 0
264 4 1.16923e-06 0
265 4 3.48082e-06 -3.52955e-139
72 3 1.08763e-06 -4.09394e-13
273 4 5.37427e-06 -4.09394e-13
497 2 0.000257853 0
499 4 8.56067e-05 0
301 4 1.76469e-06 0
238 3 2.01103e-06 -3.52955e-139
498 4 0.000837319 -0.00159024
438 4 0.00595912 0
533 2 0.00782325 0
534 4 0.00395944 -0.00159024
427 4 0.0556939 0
532 4 0.0551004 0
194 3 2.07925e-06 0
535 4 0.00451598 0
425 2 0.11018 0
426 4 0.0544892 0
47 3 5.08397e-07 0
254 2 8.20617e-07 0
255 4 7.98723e-07 0
522 4 3.12563e-06 0
133 3 1.95562e-06 0
106 1 7.38398e-07 0
110 3 4.74929e-07 0
77 3 0.00126941 -0.0222888
453 4 0.00177256 -0.0222888
135 3 3.76727e-06 0
404 2 4.48401e-06 0
169 3 2.22188e-07 -8.76296e-07
166 1 9.35803e-07 0
167 3 1.14625e-06 0
210 3 1.82788e-06 0
405 4 2.65716e-06 0
152 3 1.88341e-06 0
168 3 6.2396e-07 0
283 4 1.05839e-06 0
281 2 1.15472e-06 0
282 4 2.43927e-06 0
206 1 1.25082e-06 0
209 3 3.16206e-07 0
400 4 1.18249e-06 0
398 2 8.09598e-07 0
399 4 1.31932e-06 0
476 2 0.0391841 0
291 4 0.00466489 -0.0205246
477 4 0.0211333 -0.0205246
15 3 0.000277041 0
302 2 0.00649288 0
478 4 0.0181901 0
378 4 4.86649e-07 0
3 3 8.82839e-07 0
1 1 6.71734e-08 0
2 3 3.16727e-07 0
4 3 7.15589e-09 0
32 3 4.22617e-06 0
31 1 2.14911e-07 0
34 3 2.50308e-06 0
35 3 1.72085e-06 0
377 2 9.74626e-07 0
379 4 4.88238e-07 0
240 3 2.79911e-06 0
299 2 1.56177e-06 0
482 2 0.0122801 0
483 4 0.00607043 0
237 3 4.29069e-07 0
236 1 2.3639e-06 0
239 3 2.08634e-06 0
274 4 2.05155e-06 0
272 2 5.58346e-06 0
300 4 3.05452e-06 0
437 2 0.0121277 0
439 4 0.00616961 0
353 2 0.00910547 0
355 4 0.00464927 -7.55439e-09
354 4 0.00445883 0
496 4 2.10012e-06 0
494 2 2.80767e-07 0
495 4 3.35741e-06 0
124 3 1.44389e-06 0
521 2 7.31292e-06 0
256 4 3.96952e-06 0
131 1 1.58784e-06 0
134 3 1.11211e-06 0
108 3 9.30419e-08 0
107 3 1.68666e-06 0
467 2 1.75848e-06 0
468 4 2.0193e-06 0
452 2 0.00156859 0
132 3 2.42536e-06 0
109 3 3.33933e-06 0
469 4 2.62347e-07 0
170 3 4.09778e-07 0
158 3 3.60566e-06 0
12 3 0.0014445 0
11 1 0.000843067 0
14 3 0.0032107 -0.014204
510 4 0.00122917 -0.014204
290 2 0.00164832 0
159 3 2.30803e-06 0
13 3 0.000555075 0
304 4 0.00333483 0
235 3 5.00526e-07 0
391 4 1.98993e-06 0
545 2 1.20374e-06 0
546 4 2.0763e-06 0
22 3 2.45533e-06 0
21 1 4.29154e-06 0
23 3 2.95722e-06 0
25 3 4.40062e-06 0
484 4 0.00621188 0
123 3 1.77152e-06 0
226 1 2.09029e-06 0
227 3 1.1441e-06 0
229 3 2.51408e-06 0
230 3 4.67776e-06 0
228 3 4.24601e-07 0
68 3 1.52299e-06 -7.55439e-09
121 1 5.17585e-07 0
122 3 7.67742e-07 0
125 3 2.20603e-07 0
523 4 4.5713e-06 0
ITEM: TIMESTEP
3
ITEM: NUMBER OF ATOMS
550
ITEM: BOX BOUNDS pp pp pp
-4.5000000000000000e+00 4.5000000000000000e+00
-4.5000000000000000e+00 4.5000000000000000e+00
-4.5000000000000000e+00 4.5000000000000000e+00
ITEM: ATOMS id type c_Ke c_Pe
504 4 0.00116828 0
351 4 1.2765e-05 0
350 2 6.54789e-06 0
243 3 3.94909e-07 0
454 4 0.00137909 0
6 1 4.68408e-07 0
8 3 6.5062e-07 0
7 3 1.12998e-06 0
10 3 9.00882e-07 0
241 1 7.74081e-07 0
244 3 5.45913e-07 0
335 2 2.30398e-06 0
336 4 2.19923e-06 0
157 3 3.95057e-07 0
9 3 2.06426e-06 0
509 2 0.0036703 0
511 4 0.00184063 0
156 1 9.24305e-07 0
160 3 4.32209e-07 0
292 4 0.00136678 0