ITEM: TIMESTEP
0
ITEM: NUMBER OF ATOMS
550
ITEM: BOX BOUNDS pp pp pp
-4.5000000000000000e+00 4.5000000000000000e+00
-4.5000000000000000e+00 4.5000000000000000e+00
-4.5000000000000000e+00 4.5000000000000000e+00
ITEM: ATOMS id type xs ys zs
504 4 0.577524 0.00495279 0.0677208
351 4 0.386721 0.121511 0.0595301
350 2 0.382113 0.17511 0.0733988
243 3 0.931704 0.249763 0.0460144
454 4 0.0791083 0.252157 0.000941419
6 1 0.571311 0.325146 0.0407547
8 3 0.532933 0.295856 0.0226633
7 3 0.592895 0.301383 0.0805266
10 3 0.606094 0.332234 0.00469424
241 1 0.965277 0.270431 0.0792371
244 3 0.98331 0.314992 0.0606046
335 2 0.264972 0.379905 0.0552589
336 4 0.288236 0.414084 0.0181512
157 3 0.379032 0.379863 0.0329672
9 3 0.552817 0.37061 0.0565364
509 2 0.811292 0.387697 0.0190846
511 4 0.861707 0.391023 0.0421857
156 1 0.398673 0.418347 0.00566213
160 3 0.426099 0.448066 0.0360779
292 4 0.179616 0.522485 0.00865247
53 3 0.317137 0.541865 0.0821621
547 4 0.48162 0.576826 0.0195322
529 4 0.543877 0.507511 0.0667185
527 2 0.597817 0.516514 0.0569304
528 4 0.651758 0.525518 0.0471423
231 1 0.910008 0.547771 0.0222589
232 3 0.868338 0.56745 0.0443649
234 3 0.930697 0.51273 0.053916
389 2 0.128437 0.642888 0.0217555
390 4 0.106124 0.653607 0.0714913
233 3 0.943775 0.585748 0.013565
251 2 0.379766 0.733684 0.0239352
252 4 0.34085 0.695371 0.0137342
24 3 0.743746 0.680552 0.000939962
310 4 0.731186 0.732467 0.0561882
70 3 0.0305139 0.828243 0.0379083
370 4 0.144595 0.767869 0.0105638
368 2 0.198178 0.779319 0.019737
369 4 0.251761 0.79077 0.0289101
253 4 0.418683 0.771997 0.0341362
149 3 0.528385 0.793475 0.0475738
66 1 0.0065539 0.872324 0.0313262
69 3 0.0409017 0.910476 0.0265717
67 3 0.97701 0.881659 0.071975
313 4 0.821362 0.918719 0.0285134
311 2 0.872192 0.938003 0.0170758
312 4 0.923023 0.957287 0.00563811
116 1 0.0640248 0.0768882 0.152809
120 3 0.0424505 0.0730422 0.107199
119 3 0.101574 0.0418749 0.157516
89 3 0.725702 0.0367007 0.146699
86 1 0.762632 0.00120528 0.152549
90 3 0.803272 0.0139051 0.125207
118 3 0.0832549 0.124291 0.159231
298 4 0.543215 0.103496 0.097248
296 2 0.597792 0.0969897 0.105335
297 4 0.65237 0.0904834 0.113422
245 3 0.00355734 0.238339 0.0873112
352 4 0.377505 0.228709 0.0872676
435 4 0.298791 0.286137 0.155423
113 3 0.380714 0.306609 0.166242
338 2 0.735721 0.263706 0.105211
340 4 0.681606 0.270901 0.0949032
339 4 0.789836 0.256511 0.115519
242 3 0.941305 0.279506 0.123456
337 4 0.241708 0.345725 0.0923665
114 3 0.352751 0.385774 0.157194
115 3 0.432165 0.366714 0.139058
333 4 0.851395 0.494435 0.166478
502 4 0.197534 0.560101 0.149336
51 1 0.342145 0.58127 0.104068
52 3 0.340586 0.575649 0.154846
55 3 0.390393 0.581716 0.0888224
538 4 0.558485 0.536679 0.140808
54 3 0.319319 0.625761 0.0915172
147 3 0.516026 0.730754 0.101308
171 1 0.890063 0.74253 0.152855
173 3 0.86979 0.712677 0.116034
150 3 0.465464 0.796468 0.102627
146 1 0.513233 0.781441 0.0953613
148 3 0.544209 0.804001 0.129852
308 2 0.765084 0.762604 0.0882679
309 4 0.798982 0.792741 0.120348
175 3 0.907761 0.785369 0.132555
279 4 0.315873 0.902886 0.135034
278 2 0.357764 0.932594 0.113844
280 4 0.399654 0.962303 0.0926531
503 2 0.567976 0.978409 0.115582
505 4 0.558428 0.951865 0.163443
88 3 0.74517 0.955025 0.1377
117 3 0.0288234 0.0683133 0.18886
138 3 0.320363 0.0247892 0.223099
136 1 0.36519 0.050157 0.225345
137 3 0.403206 0.0162154 0.229228
140 3 0.371603 0.0776325 0.18334
513 4 0.416538 0.141718 0.232746
541 4 0.0866906 0.208532 0.172337
539 2 0.0770072 0.260498 0.189431
540 4 0.0673238 0.312464 0.206526
436 4 0.202699 0.253302 0.200522
434 2 0.250745 0.26972 0.177972
164 3 0.632203 0.311707 0.216813
163 3 0.69676 0.26102 0.236666
395 2 0.0406613 0.394431 0.208709
397 4 0.086332 0.374782 0.233499
474 4 0.252987 0.406677 0.192639
111 1 0.393274 0.356487 0.169773
112 3 0.406751 0.366759 0.217993
36 1 0.520774 0.413869 0.235071
37 3 0.526208 0.371195 0.207472
396 4 0.994991 0.41408 0.183919
475 4 0.146896 0.435613 0.176729
473 2 0.199942 0.421145 0.184684
40 3 0.475849 0.434761 0.224787
39 3 0.558638 0.44662 0.222753
411 4 0.754113 0.497616 0.183739
275 2 0.0446572 0.554009 0.224021
277 4 0.00115822 0.527587 0.201746
276 4 0.0881562 0.58043 0.246295
500 2 0.207386 0.531754 0.19609
501 4 0.217237 0.503408 0.242843
536 2 0.544747 0.564776 0.186724
412 4 0.652862 0.539832 0.201395
410 2 0.703488 0.518724 0.192567
332 2 0.84706 0.545379 0.188211
199 3 0.0914737 0.666666 0.174509
200 3 0.159208 0.633353 0.21058
537 4 0.531009 0.592872 0.23264
334 4 0.842726 0.596323 0.209944
196 1 0.13365 0.676283 0.202557
197 3 0.163388 0.709049 0.176976
198 3 0.120358 0.697525 0.247613
413 2 0.318005 0.714776 0.248542
415 4 0.300864 0.678075 0.210521
362 2 0.459555 0.747738 0.229066
364 4 0.46322 0.71716 0.182827
172 3 0.928514 0.717361 0.175225
174 3 0.854321 0.75336 0.188397
204 3 0.0687032 0.9005 0.246254
347 2 0.556427 0.875779 0.225762
349 4 0.504264 0.892586 0.234871
348 4 0.608591 0.858973 0.216653
178 3 0.707819 0.864242 0.23916
382 4 0.815792 0.87531 0.247134
542 2 0.947099 0.892677 0.223516
543 4 0.96123 0.911436 0.173169
420 4 0.682075 0.988008 0.224386
87 3 0.775624 0.998861 0.201926
139 3 0.365976 0.0808714 0.266746
323 2 0.951272 0.0353611 0.313695
317 2 0.239727 0.0886113 0.290529
319 4 0.184218 0.0867203 0.291792
318 4 0.295236 0.0905023 0.289265
512 2 0.466242 0.135316 0.256723
514 4 0.515947 0.128914 0.2807
507 4 0.667854 0.156021 0.292357
324 4 0.960044 0.0901174 0.310345
429 4 0.580253 0.235551 0.328878
525 4 0.282689 0.294084 0.320653
161 1 0.665298 0.298046 0.253909
162 3 0.638895 0.280041 0.293797
344 2 0.964675 0.300073 0.320733
346 4 0.933314 0.316959 0.278098
38 3 0.523522 0.401811 0.285122
165 3 0.692332 0.338225 0.268583
285 4 0.980848 0.412957 0.317784
45 3 0.309918 0.451599 0.320944
215 3 0.775557 0.433318 0.330136
424 4 0.901883 0.655928 0.304713
327 4 0.151259 0.749243 0.301276
470 2 0.487813 0.680986 0.323392
472 4 0.47751 0.723954 0.289717
423 4 0.824028 0.71758 0.254879
422 2 0.862955 0.686754 0.279796
203 3 0.0625219 0.820708 0.273198
414 4 0.335147 0.751478 0.286562
363 4 0.45589 0.778315 0.275304
179 3 0.659324 0.795996 0.250192
176 1 0.69222 0.82854 0.272925
177 3 0.73293 0.802234 0.289145
201 1 0.0891161 0.864692 0.277224
202 3 0.0865281 0.881203 0.325525
205 3 0.137548 0.856774 0.264889
341 2 0.2769 0.86216 0.315395
342 4 0.313715 0.882154 0.278908
384 4 0.355365 0.853723 0.318217
180 3 0.669904 0.850796 0.312512
380 2 0.817569 0.87626 0.302653
544 4 0.932968 0.873918 0.273864
419 2 0.663115 0.972885 0.274369
421 4 0.644155 0.957762 0.324351
325 4 0.9425 0.980605 0.317045
358 4 0.389528 0.0658263 0.380796
356 2 0.444997 0.0680894 0.378679
95 3 0.572668 0.0776368 0.414074
357 4 0.500466 0.0703525 0.376562
91 1 0.596928 0.0334064 0.41012
94 3 0.64043 0.0395538 0.383142
430 4 0.546444 0.16385 0.406734
506 2 0.684961 0.141747 0.343249
508 4 0.702068 0.127473 0.394142
526 4 0.227129 0.219077 0.380924
428 2 0.563349 0.199701 0.367806
524 2 0.254909 0.256581 0.350789
373 4 0.739524 0.28921 0.394048
463 4 0.801138 0.277491 0.405284
461 2 0.85472 0.27235 0.391535
462 4 0.908301 0.26721 0.377786
345 4 0.996037 0.283186 0.363367
213 3 0.707679 0.410683 0.373484
481 4 0.833848 0.359463 0.401398
41 1 0.332954 0.46969 0.362207
43 3 0.380318 0.486095 0.350145
44 3 0.3357 0.433006 0.398329
211 1 0.740353 0.449124 0.362869
214 3 0.7146 0.489144 0.343041
212 3 0.763081 0.463927 0.406189
284 2 0.973788 0.453166 0.355465
286 4 0.966728 0.493374 0.393146
447 4 0.138336 0.549386 0.394527
42 3 0.306032 0.509037 0.380629
393 4 0.672009 0.542464 0.412557
471 4 0.498117 0.638017 0.357066
392 2 0.65381 0.592455 0.396553
394 4 0.635612 0.642447 0.380549
314 2 0.992601 0.640472 0.407047
316 4 0.976366 0.587823 0.399907
315 4 0.00883591 0.69312 0.414187
326 2 0.183062 0.724956 0.339814
328 4 0.214865 0.700669 0.378351
343 4 0.240085 0.842165 0.351882
383 2 0.402443 0.865493 0.345264
385 4 0.449521 0.877263 0.372312
381 4 0.819345 0.87721 0.358172
92 3 0.566982 0.999899 0.385772
260 2 0.87041 0.97438 0.412894
261 4 0.921421 0.958132 0.398052
93 3 0.607771 0.0150338 0.457055
219 3 0.222803 0.163057 0.476237
216 1 0.250686 0.126415 0.499431
218 3 0.294179 0.118043 0.473043
403 4 0.406561 0.248781 0.429144
269 2 0.855667 0.20179 0.486321
270 4 0.884211 0.168349 0.45236
81 1 0.158359 0.331333 0.498123
82 3 0.129533 0.29081 0.486319
84 3 0.198689 0.333008 0.466049
402 4 0.307698 0.296877 0.445224
401 2 0.357129 0.272829 0.437184
259 4 0.485886 0.283543 0.47485
257 2 0.541339 0.280566 0.473256
258 4 0.596792 0.277589 0.471661
371 2 0.719064 0.316739 0.437751
85 3 0.130703 0.373433 0.493298
372 4 0.698605 0.344269 0.481454
479 2 0.867163 0.40081 0.417735
480 4 0.900477 0.442158 0.434073
446 2 0.142651 0.528973 0.446016
448 4 0.146966 0.50856 0.497505
548 2 0.282892 0.573124 0.487729
550 4 0.260625 0.588624 0.439249
409 4 0.813268 0.593155 0.475504
407 2 0.857061 0.627326 0.474591
408 4 0.900855 0.661498 0.473678
485 2 0.398388 0.699914 0.462665
487 4 0.342897 0.697775 0.464274
486 4 0.453879 0.702054 0.461055
268 4 0.519766 0.700977 0.489152
493 4 0.0564442 0.788052 0.453155
491 2 0.107264 0.78363 0.47516
492 4 0.158084 0.779208 0.497165
320 2 0.276062 0.775063 0.479013
322 4 0.265743 0.809603 0.436741
19 3 0.794154 0.80922 0.479817
18 3 0.872976 0.824783 0.45382
375 4 0.644708 0.889947 0.472059
374 2 0.678042 0.851996 0.495189
16 1 0.827815 0.846023 0.466759
20 3 0.809696 0.873026 0.42799
262 4 0.819398 0.990629 0.427735
217 3 0.223465 0.0831707 0.500565
64 3 0.40329 0.00859399 0.522682
388 4 0.748506 0.0179975 0.576521
220 3 0.261657 0.14045 0.546793
183 3 0.686736 0.0942227 0.580663
288 4 0.34698 0.233307 0.577758
271 4 0.827123 0.235231 0.520283
83 3 0.174745 0.326529 0.546769
287 2 0.299296 0.26177 0.576199
289 4 0.251611 0.290234 0.574639
58 3 0.708108 0.470359 0.558423
449 2 0.0470945 0.516842 0.561811
450 4 0.07135 0.552369 0.526655
549 4 0.30516 0.557623 0.536209
489 4 0.411662 0.513219 0.568693
59 3 0.641084 0.519474 0.54338
56 1 0.686811 0.51652 0.567008
60 3 0.717408 0.553076 0.550038
267 4 0.490725 0.614013 0.551918
266 2 0.505245 0.657495 0.520535
295 4 0.0328869 0.689254 0.543373
293 2 0.0883374 0.686651 0.545582
294 4 0.143788 0.684048 0.547791
321 4 0.286381 0.740522 0.521285
456 4 0.45508 0.758262 0.570195
376 4 0.711376 0.814045 0.518318
305 2 0.0759143 0.892103 0.579113
307 4 0.0453526 0.873667 0.536539
17 3 0.834957 0.876872 0.50688
62 3 0.399611 0.925313 0.517702
61 1 0.422344 0.964489 0.541383
63 3 0.473088 0.962107 0.532583
386 2 0.76944 0.971057 0.555431
387 4 0.790373 0.924117 0.534341
431 2 0.171716 0.0248489 0.634927
432 4 0.214497 0.0253013 0.599487
99 3 0.403229 0.0148707 0.665004
100 3 0.45397 0.0813099 0.66184
330 4 0.995289 0.0480616 0.654737
184 3 0.63891 0.151259 0.620543
181 1 0.686324 0.131458 0.61632
182 3 0.69992 0.111394 0.661319
185 3 0.71916 0.167826 0.603685
365 2 0.825262 0.175323 0.655215
367 4 0.843091 0.180371 0.602841
465 4 0.0239524 0.258099 0.587484
442 4 0.540969 0.309338 0.620011
466 4 0.914081 0.273655 0.593141
464 2 0.969017 0.265877 0.590312
440 2 0.537298 0.364766 0.619165
451 4 0.022839 0.481314 0.596966
490 4 0.3269 0.498336 0.638974
441 4 0.533627 0.420194 0.618318
488 2 0.369281 0.505778 0.603833
57 3 0.679835 0.522402 0.617298
142 3 0.806352 0.580797 0.643645
144 3 0.830271 0.509676 0.606987
141 1 0.844091 0.546487 0.640334
145 3 0.886166 0.569498 0.624189
361 4 0.217076 0.642716 0.661847
186 1 0.617015 0.609372 0.65519
187 3 0.611243 0.612334 0.604492
455 2 0.436592 0.808448 0.585227
306 4 0.106476 0.910539 0.621686
129 3 0.273151 0.865109 0.656446
457 4 0.418105 0.858634 0.600259
516 4 0.625898 0.879744 0.620812
65 3 0.413277 0.961459 0.591073
515 2 0.625212 0.932505 0.603425
517 4 0.624525 0.985265 0.586038
433 4 0.128934 0.0243964 0.670367
96 1 0.420335 0.0564155 0.690291
98 3 0.442067 0.0421998 0.73483
329 2 0.984177 0.0575777 0.708332
97 3 0.380731 0.0871374 0.700294
222 3 0.256804 0.193052 0.747461
104 3 0.44327 0.174458 0.741747
366 4 0.807432 0.170275 0.707589
460 4 0.900387 0.212609 0.694441
458 2 0.949259 0.201982 0.718627
459 4 0.998132 0.191356 0.742814
225 3 0.269989 0.274734 0.741922
444 4 0.773529 0.311996 0.669186
248 3 0.288266 0.391647 0.719582
30 3 0.720159 0.396598 0.745111
443 2 0.809445 0.338651 0.70214
445 4 0.845361 0.365305 0.735095
249 3 0.25066 0.466288 0.731642
27 3 0.657145 0.421873 0.697499
26 1 0.694604 0.437097 0.728761
28 3 0.726189 0.468545 0.702849
519 4 0.0336171 0.566834 0.74469
190 3 0.620669 0.560755 0.668736
143 3 0.852061 0.525928 0.686937
359 2 0.262726 0.63918 0.69331
360 4 0.308377 0.635644 0.724773
189 3 0.576068 0.630935 0.677914
188 3 0.659914 0.634637 0.668584
74 3 0.868731 0.654497 0.697359
71 1 0.919018 0.65101 0.70818
73 3 0.943284 0.624975 0.670879
75 3 0.938955 0.697297 0.712705
127 3 0.237847 0.826655 0.72163
128 3 0.312446 0.800754 0.694462
195 3 0.878604 0.822429 0.697139
126 1 0.282305 0.841968 0.701599
130 3 0.304628 0.874385 0.7334
191 1 0.885955 0.870568 0.710891
192 3 0.844861 0.898172 0.698177
193 3 0.927118 0.889745 0.686481
530 2 0.472537 0.927574 0.732623
531 4 0.48006 0.97112 0.698954
49 3 0.657164 0.953841 0.738533
46 1 0.707834 0.96311 0.736361
48 3 0.724981 0.955998 0.688264
50 3 0.717366 0.010521 0.751256
331 4 0.973065 0.0670938 0.761927
79 3 0.116397 0.123414 0.782247
102 3 0.376999 0.145476 0.783487
103 3 0.452711 0.140123 0.818315
406 4 0.741528 0.149729 0.827977
76 1 0.126043 0.169434 0.803394
80 3 0.0970689 0.204808 0.781722
78 3 0.175834 0.181432 0.797482
221 1 0.283064 0.232519 0.766568
223 3 0.271934 0.237245 0.816686
105 3 0.415072 0.214334 0.80967
224 3 0.333463 0.223504 0.760506
101 1 0.422132 0.168945 0.788446
153 3 0.951276 0.23873 0.825017
155 3 0.0198863 0.27758 0.797052
418 4 0.103384 0.317792 0.808636
151 1 0.974684 0.284243 0.818797
154 3 0.945528 0.315191 0.78964
416 2 0.103491 0.365965 0.780964
417 4 0.103597 0.414139 0.753292
247 3 0.217922 0.396748 0.764301
207 3 0.518935 0.385788 0.815638
208 3 0.581585 0.333612 0.797564
520 4 0.0763987 0.469253 0.776208
246 1 0.261653 0.420623 0.752901
250 3 0.28852 0.427316 0.795255
29 3 0.6738 0.462098 0.768763
303 4 0.921914 0.416905 0.820329
518 2 0.0550079 0.518044 0.760449
5 3 0.339402 0.567989 0.818689
33 3 0.503092 0.516409 0.810055
263 2 0.703788 0.564337 0.815356
264 4 0.729789 0.516079 0.824385
265 4 0.677787 0.612596 0.806328
72 3 0.924719 0.625838 0.752296
273 4 0.929909 0.658346 0.826695
497 2 0.0256282 0.732896 0.782791
499 4 0.020365 0.687889 0.75065
301 4 0.231507 0.714415 0.806783
238 3 0.619095 0.671112 0.813144
498 4 0.0308914 0.777903 0.814932
438 4 0.4826 0.796351 0.794565
533 2 0.0424752 0.880988 0.773282
534 4 0.0701245 0.834784 0.786958
427 4 0.404939 0.894539 0.818899
532 4 0.465014 0.884028 0.766291
194 3 0.892828 0.873436 0.761906
535 4 0.0148259 0.927193 0.759605
425 2 0.379957 0.939239 0.797354
426 4 0.354976 0.98394 0.775809
47 3 0.731942 0.930517 0.767487
254 2 0.00601198 0.0434282 0.897575
255 4 0.0571145 0.0365072 0.87691
522 4 0.893272 0.00381095 0.845253
133 3 0.248243 0.123409 0.889288
106 1 0.511036 0.124521 0.914876
110 3 0.516238 0.117379 0.865052
77 3 0.115396 0.167227 0.853335
453 4 0.118217 0.195985 0.913415
135 3 0.232565 0.205543 0.886639
404 2 0.744345 0.200324 0.85075
169 3 0.158123 0.303994 0.864013
166 1 0.198599 0.32622 0.886942
167 3 0.240383 0.317435 0.858849
210 3 0.545967 0.332627 0.873255
405 4 0.747162 0.25092 0.873523
152 3 0.981086 0.305931 0.864633
168 3 0.191166 0.377127 0.890291
283 4 0.318063 0.35969 0.866175
281 2 0.372545 0.356808 0.876657
282 4 0.427026 0.353926 0.887139
206 1 0.560077 0.362194 0.834692
209 3 0.593567 0.397773 0.851142
400 4 0.71965 0.344296 0.865435
398 2 0.77446 0.352286 0.869729
399 4 0.82927 0.360276 0.874023
476 2 0.047507 0.450935 0.858265
291 4 0.158874 0.468288 0.913899
477 4 0.0980939 0.461171 0.878823
15 3 0.687941 0.422911 0.892244
302 2 0.927199 0.438203 0.871368
478 4 0.99692 0.440698 0.837708
378 4 0.171159 0.556832 0.872769
3 3 0.287074 0.556422 0.882929
1 1 0.33588 0.552591 0.866762
2 3 0.35054 0.503728 0.869904
4 3 0.366628 0.581175 0.896687
32 3 0.498664 0.510552 0.893242
31 1 0.524397 0.531665 0.854455
34 3 0.521628 0.58298 0.858589
35 3 0.572714 0.516766 0.856438
377 2 0.140453 0.601408 0.860255
379 4 0.109748 0.645984 0.847742
240 3 0.63783 0.627043 0.881742
299 2 0.233399 0.732425 0.859304
482 2 0.404993 0.72237 0.880087
483 4 0.440215 0.702041 0.842237
237 3 0.582235 0.688421 0.886055
236 1 0.625792 0.672966 0.86423
239 3 0.663112 0.706575 0.87588
274 4 0.910359 0.72261 0.915203
272 2 0.920134 0.690478 0.870949
300 4 0.23529 0.750434 0.911825
437 2 0.48556 0.8065 0.849106
439 4 0.48852 0.816649 0.903646
353 2 0.0506265 0.880103 0.894086
355 4 0.00174078 0.895886 0.91524
354 4 0.0995123 0.864321 0.872931
496 4 0.197613 0.914514 0.855297
494 2 0.24073 0.946979 0.868465
495 4 0.283847 0.979443 0.881633
124 3 0.504544 0.967759 0.909041
521 2 0.863448 0.973932 0.881367
256 4 0.954909 0.0503491 0.91824
131 1 0.237753 0.165505 0.917144
134 3 0.1945 0.158334 0.944269
108 3 0.462879 0.113138 0.929344
107 3 0.543456 0.0938253 0.939757
467 2 0.644681 0.157136 0.977643
468 4 0.639794 0.102231 0.970711
452 2 0.0986627 0.224071 0.957178
132 3 0.276373 0.173922 0.949548
109 3 0.52191 0.173471 0.92686
469 4 0.649569 0.21204 0.984575
170 3 0.205162 0.306653 0.933144
158 3 0.428592 0.398835 0.968485
12 3 0.626984 0.396979 0.942127
11 1 0.676187 0.410635 0.939906
14 3 0.705209 0.370991 0.955528
510 4 0.760877 0.384371 0.995983
290 2 0.169245 0.495387 0.961276
159 3 0.360054 0.445389 0.984798
13 3 0.683643 0.451182 0.970864
304 4 0.932484 0.4595 0.922406
235 3 0.896938 0.525941 0.97852
391 4 0.15075 0.632169 0.97202
545 2 0.458832 0.596893 0.973008
546 4 0.436045 0.616959 0.926485
22 3 0.743977 0.597511 0.992096
21 1 0.763223 0.64122 0.973891
23 3 0.750113 0.645802 0.924241
25 3 0.813614 0.640415 0.978438
484 4 0.369772 0.7427 0.917937
123 3 0.532054 0.900985 0.952806
226 1 0.728575 0.873591 0.966511
227 3 0.744709 0.83561 0.996669
229 3 0.697236 0.854114 0.930503
230 3 0.703692 0.907647 0.994466
228 3 0.769469 0.895661 0.944182
68 3 0.976815 0.870072 0.989272
121 1 0.535633 0.952096 0.94707
122 3 0.521167 0.97466 0.990589
125 3 0.58345 0.965 0.9367
523 4 0.833625 0.944054 0.917481
ITEM: TIMESTEP
100
ITEM: NUMBER OF ATOMS
550
ITEM: BOX BOUNDS pp pp pp
-4.5000000000000000e+00 4.5000000000000000e+00
-4.5000000000000000e+00 4.5000000000000000e+00
-4.5000000000000000e+00 4.5000000000000000e+00
ITEM: ATOMS id type xs ys zs
504 4 0.577457 0.00463118 0.0677449
351 4 0.386719 0.121517 0.0595439
350 2 0.382113 0.175118 0.0734076
243 3 0.93171 0.249765 0.0459975
454 4 0.0792282 0.252096 0.000851331
6 1 0.571314 0.325137 0.0407642
8 3 0.532926 0.295854 0.0226818
7 3 0.592905 0.301368 0.0805288
10 3 0.606088 0.332221 0.00469448
241 1 0.965275 0.270432 0.079229
244 3 0.983311 0.314994 0.0606041
335 2 0.264965 0.37991 0.0552653
336 4 0.288223 0.414091 0.0181553
157 3 0.379033 0.379849 0.0329556
9 3 0.552832 0.370603 0.0565534
509 2 0.811176 0.387665 0.0189953
511 4 0.861565 0.391042 0.0421461
156 1 0.398663 0.418341 0.0056549
160 3 0.426086 0.448061 0.0360728
292 4 0.179719 0.522413 0.00856708
53 3 0.317126 0.541869 0.082162
547 4 0.481619 0.57683 0.0195308
529 4 0.543882 0.507493 0.0667084
527 2 0.597822 0.516503 0.0569247
528 4 0.651762 0.525513 0.0471411
231 1 0.909998 0.547765 0.0222552
232 3 0.868334 0.567461 0.0443563
234 3 0.930673 0.512721 0.0539176
389 2 0.128441 0.642888 0.0217452
390 4 0.106114 0.653603 0.0714756
233 3 0.943778 0.58573 0.0135593
251 2 0.37977 0.733689 0.0239264
252 4 0.340861 0.695368 0.0137261
24 3 0.743729 0.680558 0.000941535
310 4 0.731209 0.732455 0.0561856
70 3 0.0305064 0.828236 0.0379119
370 4 0.144586 0.767857 0.0105565
368 2 0.198168 0.779312 0.019727
369 4 0.251751 0.790766 0.0288974
253 4 0.418679 0.772009 0.0341266
149 3 0.528397 0.793446 0.0475684
66 1 0.00655119 0.87232 0.0313299
69 3 0.0409029 0.91047 0.0265844
67 3 0.977001 0.881654 0.0719749
313 4 0.821351 0.918712 0.0285107
311 2 0.872181 0.937998 0.0170765
312 4 0.923012 0.957284 0.00564232
116 1 0.06402 0.0768941 0.152814
120 3 0.0424422 0.0730342 0.107207
119 3 0.10157 0.041883 0.157528
89 3 0.725706 0.0367017 0.146714
86 1 0.762635 0.00120311 0.152556
90 3 0.803277 0.0139077 0.125217
118 3 0.0832494 0.124299 0.159221
298 4 0.543302 0.10382 0.0972058
296 2 0.597876 0.0972948 0.105304
297 4 0.65245 0.09077 0.113402
245 3 0.00355499 0.238341 0.0873087
352 4 0.377507 0.228718 0.0872714
435 4 0.298786 0.286158 0.155452
113 3 0.380721 0.306614 0.16623
338 2 0.735725 0.263693 0.105205
340 4 0.681609 0.270888 0.0948999
339 4 0.78984 0.256498 0.115511
242 3 0.941293 0.279502 0.123444
337 4 0.241707 0.345729 0.0923753
114 3 0.352741 0.385775 0.157202
115 3 0.432159 0.366736 0.13906
333 4 0.851406 0.494439 0.166472
502 4 0.197853 0.56482 0.149838
51 1 0.342138 0.581272 0.104066
52 3 0.340574 0.575658 0.154843
55 3 0.390388 0.581707 0.0888238
538 4 0.558477 0.53667 0.140814
54 3 0.319321 0.625766 0.0915063
147 3 0.516008 0.730756 0.101332
171 1 0.890064 0.74253 0.152855
173 3 0.869785 0.712674 0.116039
150 3 0.465471 0.79649 0.102612
146 1 0.513236 0.781441 0.09536
148 3 0.544216 0.804006 0.129843
308 2 0.765098 0.762595 0.0882726
309 4 0.798987 0.792734 0.12036
175 3 0.90776 0.785366 0.132547
279 4 0.315876 0.902885 0.13503
278 2 0.357765 0.932595 0.11384
280 4 0.399655 0.962305 0.0926498
503 2 0.567903 0.978091 0.115607
505 4 0.55835 0.95155 0.163469
88 3 0.745171 0.955028 0.137695
117 3 0.0288215 0.068329 0.18887
138 3 0.320354 0.0247627 0.22307
136 1 0.36516 0.0501641 0.225353
137 3 0.403199 0.016251 0.229265
140 3 0.371586 0.0776458 0.183354
513 4 0.416528 0.141708 0.23274
541 4 0.0865849 0.208653 0.172351
539 2 0.0770383 0.260631 0.189484
540 4 0.0674916 0.312609 0.206618
436 4 0.20269 0.253284 0.200513
434 2 0.250738 0.269721 0.177982
164 3 0.632218 0.311721 0.216812
163 3 0.696754 0.261015 0.236682
395 2 0.0406189 0.394297 0.208659
397 4 0.0862254 0.374363 0.233339
474 4 0.252672 0.40195 0.192152
111 1 0.39327 0.356493 0.169772
112 3 0.406747 0.366756 0.217995
36 1 0.520773 0.413865 0.235073
37 3 0.526201 0.371187 0.207479
396 4 0.995012 0.414231 0.183979
475 4 0.14658 0.430878 0.176238
473 2 0.199626 0.416414 0.184195
40 3 0.475849 0.43476 0.224789
39 3 0.558639 0.44661 0.222748
411 4 0.754115 0.497624 0.183713
275 2 0.0446534 0.554013 0.224017
277 4 0.00116093 0.527579 0.201744
276 4 0.0881459 0.580446 0.24629
500 2 0.207705 0.536476 0.196592
501 4 0.217557 0.508132 0.243346
536 2 0.54475 0.564775 0.186728
412 4 0.652873 0.539845 0.201404
410 2 0.703494 0.518735 0.192558
332 2 0.847061 0.545384 0.188202
199 3 0.0914823 0.66666 0.17451
200 3 0.159219 0.633364 0.210593
537 4 0.531023 0.59288 0.232642
334 4 0.842715 0.596329 0.209932
196 1 0.133654 0.676288 0.202561
197 3 0.163389 0.709056 0.176978
198 3 0.120354 0.697534 0.247613
413 2 0.318 0.714775 0.248542
415 4 0.300856 0.678073 0.210523
362 2 0.45924 0.748484 0.228083
364 4 0.462962 0.717797 0.181922
172 3 0.928517 0.717362 0.175222
174 3 0.854326 0.753365 0.1884
204 3 0.068706 0.900511 0.24627
347 2 0.556426 0.875773 0.225767
349 4 0.504266 0.892588 0.234878
348 4 0.608586 0.858959 0.216655
178 3 0.707811 0.864236 0.239154
382 4 0.815834 0.875325 0.247285
542 2 0.947096 0.892677 0.223513
543 4 0.961216 0.911428 0.17316
420 4 0.682061 0.988014 0.224375
87 3 0.775626 0.998847 0.201932
139 3 0.36589 0.0808778 0.266755
323 2 0.951272 0.0353684 0.313678
317 2 0.239759 0.0886001 0.290514
319 4 0.184249 0.086742 0.291779
318 4 0.295269 0.0904582 0.289248
512 2 0.466233 0.135307 0.256716
514 4 0.515938 0.128907 0.280692
507 4 0.667844 0.156019 0.292347
324 4 0.96005 0.0901237 0.310328
429 4 0.580251 0.235569 0.32888
525 4 0.282688 0.294087 0.320631
161 1 0.665303 0.298053 0.253915
162 3 0.638888 0.280063 0.293802
344 2 0.964679 0.300061 0.32074
346 4 0.933312 0.316929 0.278102
38 3 0.523523 0.401813 0.285125
165 3 0.692348 0.338225 0.268587
285 4 0.980851 0.412959 0.317794
45 3 0.309928 0.45161 0.320932
215 3 0.775557 0.433309 0.330148
424 4 0.901893 0.655925 0.304706
327 4 0.151249 0.749226 0.301278
470 2 0.488125 0.680242 0.32436
472 4 0.477866 0.723175 0.290628
423 4 0.824032 0.717575 0.25488
422 2 0.862963 0.68675 0.279793
203 3 0.0625146 0.820715 0.273199
414 4 0.335145 0.751476 0.286562
363 4 0.455519 0.779171 0.274245
179 3 0.659325 0.795986 0.250199
176 1 0.692221 0.828535 0.272925
177 3 0.732936 0.802235 0.289142
201 1 0.0891166 0.864694 0.277231
202 3 0.0865373 0.881196 0.325536
205 3 0.137546 0.856771 0.264888
341 2 0.276967 0.862107 0.315451
342 4 0.313936 0.882017 0.279073
384 4 0.355305 0.853897 0.31811
180 3 0.669908 0.850793 0.312513
380 2 0.817542 0.876252 0.302807
544 4 0.932976 0.873925 0.273866
419 2 0.663105 0.972887 0.274357
421 4 0.644149 0.957759 0.32434
325 4 0.942494 0.980613 0.317028
358 4 0.389523 0.0658279 0.380792
356 2 0.444992 0.0680845 0.378679
95 3 0.572671 0.077638 0.414088
357 4 0.500462 0.070341 0.376567
91 1 0.596926 0.0334057 0.410125
94 3 0.64042 0.0395502 0.383133
430 4 0.546456 0.163851 0.406727
506 2 0.684961 0.141747 0.343237
508 4 0.702078 0.127474 0.394126
526 4 0.227127 0.219085 0.380909
428 2 0.563353 0.19971 0.367803
524 2 0.254908 0.256586 0.35077
373 4 0.739766 0.289204 0.394139
463 4 0.801034 0.278411 0.404016
461 2 0.854633 0.273242 0.390346
462 4 0.908232 0.268073 0.376676
345 4 0.996046 0.283194 0.363379
213 3 0.707671 0.41068 0.373487
481 4 0.833836 0.359478 0.401401
41 1 0.332955 0.469693 0.362202
43 3 0.380319 0.486107 0.350151
44 3 0.335702 0.433 0.398315
211 1 0.740352 0.449117 0.362877
214 3 0.714605 0.489141 0.343047
212 3 0.763076 0.463917 0.4062
284 2 0.973779 0.453164 0.355476
286 4 0.966708 0.49337 0.393158
447 4 0.138328 0.549406 0.394538
42 3 0.306026 0.509031 0.380632
393 4 0.672024 0.542465 0.412544
471 4 0.498384 0.637308 0.358093
392 2 0.653823 0.59246 0.396554
394 4 0.635622 0.642455 0.380564
314 2 0.992601 0.640467 0.407052
316 4 0.976368 0.587819 0.399901
315 4 0.00883379 0.693115 0.414203
326 2 0.183066 0.724939 0.339804
328 4 0.214882 0.700652 0.378331
343 4 0.239999 0.842197 0.351828
383 2 0.402391 0.86554 0.345198
385 4 0.449476 0.877183 0.372287
381 4 0.81925 0.877179 0.358329
92 3 0.56697 0.999901 0.385787
260 2 0.870406 0.974376 0.412879
261 4 0.921419 0.958134 0.398036
93 3 0.607784 0.015031 0.457056
219 3 0.222817 0.163075 0.476234
216 1 0.250687 0.126421 0.499424
218 3 0.294186 0.11805 0.473045
403 4 0.406559 0.248768 0.429144
269 2 0.855679 0.200909 0.48748
270 4 0.884226 0.167468 0.45352
81 1 0.158355 0.331333 0.498123
82 3 0.129529 0.290811 0.486317
84 3 0.198683 0.333012 0.466047
402 4 0.307696 0.29686 0.445235
401 2 0.357128 0.272814 0.437189
259 4 0.485886 0.283556 0.474839
257 2 0.541339 0.280571 0.473257
258 4 0.596792 0.277585 0.471675
371 2 0.719155 0.316731 0.437773
85 3 0.130698 0.373433 0.493305
372 4 0.698545 0.344258 0.481406
479 2 0.867166 0.400815 0.417736
480 4 0.900495 0.442151 0.434071
446 2 0.142639 0.52898 0.446022
448 4 0.14695 0.508555 0.497507
548 2 0.282908 0.57312 0.487732
550 4 0.260636 0.588621 0.439254
409 4 0.813284 0.593135 0.475501
407 2 0.857066 0.627322 0.47459
408 4 0.900847 0.661509 0.473678
485 2 0.398497 0.69991 0.462717
487 4 0.343003 0.69779 0.464233
486 4 0.453992 0.70203 0.461202
268 4 0.51942 0.700979 0.489
493 4 0.0565381 0.788539 0.452815
491 2 0.107357 0.784116 0.474823
492 4 0.158175 0.779692 0.496831
320 2 0.276061 0.775057 0.479012
322 4 0.265757 0.809601 0.436739
19 3 0.794121 0.809271 0.479735
18 3 0.87302 0.824901 0.454016
375 4 0.644698 0.889931 0.472061
374 2 0.678035 0.85198 0.495185
16 1 0.827766 0.846096 0.466696
20 3 0.809757 0.872936 0.427763
262 4 0.819394 0.990619 0.427723
217 3 0.223458 0.0831808 0.500537
64 3 0.403285 0.00859985 0.522695
388 4 0.748529 0.0178674 0.576463
220 3 0.261648 0.140439 0.546793
183 3 0.686745 0.0942393 0.580652
288 4 0.346975 0.233313 0.577768
271 4 0.827133 0.234349 0.521439
83 3 0.174744 0.326523 0.546767
287 2 0.299287 0.261769 0.576188
289 4 0.251599 0.290225 0.574608
58 3 0.708099 0.470363 0.558418
449 2 0.0470862 0.516848 0.561803
450 4 0.0713549 0.552371 0.526653
549 4 0.305179 0.557619 0.536209
489 4 0.411668 0.513221 0.568697
59 3 0.641072 0.519476 0.543379
56 1 0.686804 0.516524 0.567
60 3 0.717398 0.553078 0.55002
267 4 0.49084 0.614008 0.551968
266 2 0.50513 0.657493 0.520484
295 4 0.0327816 0.688769 0.543737
293 2 0.088233 0.68617 0.545928
294 4 0.143684 0.68357 0.548119
321 4 0.286364 0.740514 0.521285
456 4 0.455071 0.758248 0.570189
376 4 0.711373 0.814029 0.51831
305 2 0.075916 0.892095 0.579121
307 4 0.0453409 0.873661 0.536556
17 3 0.83468 0.877091 0.506744
62 3 0.399591 0.92532 0.517705
61 1 0.422333 0.964489 0.541389
63 3 0.473075 0.962099 0.532586
386 2 0.76954 0.970962 0.555371
387 4 0.790551 0.924057 0.534279
431 2 0.171727 0.0248387 0.63493
432 4 0.214505 0.025289 0.599486
99 3 0.403224 0.0148848 0.664995
100 3 0.453968 0.0813219 0.661844
330 4 0.995285 0.0480753 0.654736
184 3 0.638915 0.151268 0.620539
181 1 0.68633 0.131469 0.616314
182 3 0.699925 0.111399 0.661312
185 3 0.719165 0.167841 0.603686
365 2 0.825261 0.175318 0.65521
367 4 0.843079 0.180356 0.602831
465 4 0.0239508 0.258084 0.587466
442 4 0.540963 0.309338 0.620007
466 4 0.914084 0.273668 0.593136
464 2 0.969018 0.265876 0.590301
440 2 0.537296 0.364766 0.619156
451 4 0.0228176 0.481324 0.596953
490 4 0.326908 0.498335 0.63898
441 4 0.53363 0.420194 0.618305
488 2 0.369288 0.505778 0.603839
57 3 0.679835 0.522414 0.617291
142 3 0.806351 0.580788 0.643655
144 3 0.83029 0.509675 0.606996
141 1 0.844101 0.54649 0.640341
145 3 0.886168 0.569514 0.624192
361 4 0.21708 0.642723 0.661851
186 1 0.617015 0.60938 0.655185
187 3 0.611239 0.612337 0.604487
455 2 0.436588 0.808436 0.585222
306 4 0.106491 0.910528 0.621686
129 3 0.273135 0.865108 0.65645
457 4 0.418104 0.858623 0.600256
516 4 0.625904 0.879747 0.620828
65 3 0.413268 0.961454 0.591079
515 2 0.625218 0.932502 0.603424