ITEM: TIMESTEP
0
ITEM: NUMBER OF ENTRIES
8490
ITEM: BOX BOUNDS pp pp pp
-4.5000000000000000e+00 4.5000000000000000e+00
-4.5000000000000000e+00 4.5000000000000000e+00
-4.5000000000000000e+00 4.5000000000000000e+00
ITEM: ENTRIES index c_VorAll[1] c_VorAll[2] c_VorAll[3]
1 504 503 1.61934 
2 504 298 0.612054 
3 504 280 0.0352152 
4 504 125 0.404649 
5 504 122 1.14117 
6 504 107 0.126095 
7 504 297 0.44015 
8 504 468 0.477764 
9 504 296 0.429988 
10 504 230 0.623897 
11 504 89 0.0978548 
12 504 123 0.0521613 
13 504 88 0.0966412 
14 298 468 0.0582539 
15 298 504 0.612054 
16 298 107 0.498867 
17 298 352 0.109526 
18 298 7 0.552178 
19 298 8 0.367687 
20 298 467 0.167873 
21 298 109 0.261848 
22 298 351 0.876497 
23 298 122 0.151017 
24 298 280 0.194886 
25 298 505 0.0953781 
26 298 137 0.106834 
27 298 503 0.46375 
28 298 512 0.732094 
29 298 513 0.24625 
30 298 140 0.246923 
31 298 350 0.47374 
32 298 296 1.87259 
33 298 108 0.118427 
34 298 164 0.025159 
35 298 514 0.380909 
36 298 469 0.0557649 
37 454 152 0.588724 
38 454 243 0.397395 
39 454 244 1.45213 
40 454 241 1.07754e-05 
41 454 290 0.0776473 
42 454 337 0.859027 
43 454 170 0.801292 
44 454 245 1.2635 
45 454 452 2.51525 
46 454 541 0.58874 
47 454 118 0.185435 
48 454 134 0.247877 
49 454 539 0.200569 
50 454 291 0.0687077 
51 454 168 0.0841312 
52 454 169 0.146093 
53 454 476 0.0121346 
54 454 475 0.0119732 
55 454 477 0.144293 
56 454 120 0.126446 
57 454 436 0.0501022 
58 454 540 0.0178862 
59 454 434 0.0116689 
60 245 120 1.00013 
61 245 243 1.09221 
62 245 256 0.0184958 
63 245 452 0.0143226 
64 245 454 1.2635 
65 245 118 0.294541 
66 245 541 0.832893 
67 245 242 0.854302 
68 245 539 0.521841 
69 245 540 0.0155341 
70 245 244 0.431226 
71 245 241 0.556906 
72 245 117 0.201863 
73 337 454 0.859027 
74 337 436 0.343465 
75 337 541 0.00215326 
76 337 540 0.0847611 
77 337 473 0.529002 
78 337 475 0.606147 
79 337 170 0.708513 
80 337 134 0.0513897 
81 337 434 0.780984 
82 337 132 0.213883 
83 337 435 0.876427 
84 337 352 0.170938 
85 337 335 1.97007 
86 337 292 0.00369109 
87 337 290 0.0709039 
88 337 474 0.385063 
89 337 114 0.127918 
90 337 539 0.136132 
91 351 495 0.381526 
92 351 132 1.41534 
93 351 108 1.45756 
94 351 122 0.110201 
95 351 298 0.876497 
96 351 280 1.38298 
97 351 119 0.126209 
98 351 278 0.2678 
99 351 138 0.0230711 
100 351 140 1.50525 
101 351 109 0.00700262 
102 351 350 2.21797 
103 351 134 0.154021 
104 351 513 0.0102108 
105 351 118 0.0131324 
106 350 118 0.0049032 
107 350 140 0.583844 
108 350 436 0.000929141 
109 350 298 0.47374 
110 350 352 2.70114 
111 350 513 0.357335 
112 350 351 2.21797 
113 350 435 0.00856968 
114 350 434 0.359073 
115 350 132 0.926913 
116 350 282 0.00080486 
117 350 108 0.268165 
118 350 109 0.267671 
119 350 8 0.171505 
120 350 134 0.00239658 
121 6 10 0.556919 
122 6 7 0.541963 
123 6 8 0.55453 
124 6 9 0.55453 
125 8 298 0.367687 
126 8 352 0.941463 
127 8 350 0.171505 
128 8 158 0.531816 
129 8 282 0.303349 
130 8 157 0.254111 
131 8 109 1.13325 
132 8 469 0.393438 
133 8 10 0.481321 
134 8 7 0.905212 
135 8 9 0.545181 
136 8 210 0.515794 
137 8 6 0.55453 
138 8 115 0.354643 
139 7 296 0.171599 
140 7 340 1.4659 
141 7 164 1.1013 
142 7 115 0.120027 
143 7 8 0.905212 
144 7 352 0.0577642 
145 7 469 0.307893 
146 7 10 0.422213 
147 7 37 0.559439 
148 7 113 0.0403226 
149 7 298 0.552178 
150 7 512 0.0587645 
151 7 9 0.837061 
152 7 6 0.541963 
153 7 410 0.00529729 
154 7 528 0.00532953 
155 7 510 0.001734 
156 7 13 1.20394e-07 
157 7 411 8.46916e-06 
158 10 469 0.75098 
159 10 210 0.436738 
160 10 400 0.0080514 
161 10 14 0.685917 
162 10 340 0.367618 
163 10 7 0.422213 
164 10 8 0.481321 
165 10 9 0.569644 
166 10 6 0.556919 
167 10 12 0.942474 
168 10 13 0.172131 
169 10 510 0.0680396 
170 352 132 0.721603 
171 352 281 0.0193879 
172 352 282 0.125591 
173 352 109 0.0354654 
174 352 350 2.70114 
175 352 115 0.191987 
176 352 7 0.0577642 
177 352 8 0.941463 
178 352 435 1.24976 
179 352 337 0.170938 
180 352 335 0.0850868 
181 352 157 0.96131 
182 352 298 0.109526 
183 352 512 0.00535741 
184 352 513 0.460604 
185 352 113 1.19269 
186 352 434 0.0304346 
187 352 140 0.0110865 
188 340 410 0.000886844 
189 340 7 1.4659 
190 340 164 0.845585 
191 340 510 0.435126 
192 340 338 2.04676 
193 340 14 0.133987 
194 340 469 0.908119 
195 340 10 0.367618 
196 340 411 0.102521 
197 340 528 0.00732097 
198 340 163 0.391566 
199 340 296 0.245746 
200 340 297 0.439012 
201 243 90 0.53212 
202 243 404 0.201085 
203 243 256 1.49824 
204 243 152 1.03681 
205 243 244 0.665388 
206 243 454 0.397395 
207 243 241 0.554524 
208 243 452 0.123035 
209 243 245 1.09221 
210 243 242 0.793971 
211 243 339 1.69926 
212 243 467 0.00259693 
213 243 511 0.576783 
214 243 399 0.273048 
215 243 120 0.365277 
216 243 117 0.00969225 
217 243 405 0.618444 
218 243 509 0.220496 
219 241 242 0.541963 
220 241 245 0.556906 
221 241 244 0.55452 
222 241 243 0.554524 
223 241 454 1.07754e-05 
224 244 242 0.535063 
225 244 243 0.665388 
226 244 241 0.55452 
227 244 245 0.431226 
228 244 454 1.48777 
229 244 511 0.961943 
230 244 304 0.54498 
231 244 152 0.487525 
232 244 540 0.34738 
233 244 234 0.468856 
234 244 476 0.0486182 
235 244 477 0.333112 
236 244 396 0.924801 
237 244 539 0.0369167 
238 244 475 0.401316 
239 244 395 0.091037 
240 335 157 0.582734 
241 335 352 0.0850868 
242 335 132 0.016133 
243 335 435 0.015023 
244 335 337 1.97007 
245 335 473 0.228439 
246 335 53 0.0977995 
247 335 502 0.00318231 
248 335 292 0.32052 
249 335 290 0.246724 
250 335 170 0.758105 
251 335 336 1.64185 
252 335 168 0.0236247 
253 335 474 0.201696 
254 335 114 0.351813 
255 335 475 0.05421 
256 336 281 0.00188938 
257 336 159 1.17312 
258 336 157 0.632206 
259 336 3 0.0445506 
260 336 292 0.482841 
261 336 290 0.498494 
262 336 291 0.0362619 
263 336 168 0.375028 
264 336 335 1.64185 
265 336 283 0.373264 
266 336 2 0.0162808 
267 336 170 0.272605 
268 336 53 0.624256 
269 336 114 0.0605565 
270 336 160 0.00377197 
271 292 244 0.00258964 
272 292 396 6.48983e-05 
273 292 234 0.336753 
274 292 337 0.00369109 
275 292 335 0.32052 
276 292 475 0.890656 
277 292 290 2.37496 
278 292 336 0.482841 
279 292 389 0.762262 
280 292 502 1.04131 
281 292 54 0.11442 
282 292 53 0.780137 
283 292 159 0.00467068 
284 292 233 0.0727653 
285 292 3 0.363196 
286 292 390 0.227973 
287 292 391 0.864033 
288 292 378 0.0224902 
289 292 473 0.0257494 
290 292 277 0.0343288 
291 53 502 0.6084 
292 53 54 0.739386 
293 53 292 0.780137 
294 53 474 0.202707 
295 53 335 0.0977995 
296 53 114 0.367778 
297 53 336 0.624256 
298 53 159 0.591347 
299 53 3 0.203293 
300 53 4 0.203674 
301 53 252 0.000706724 
302 53 55 0.616557 
303 53 52 0.607889 
304 53 160 0.338886 
305 53 51 0.55453 
306 53 157 0.000328672 
307 53 473 0.0203746 
308 53 500 0.103161 
309 51 52 0.541963 
310 51 54 0.55453 
311 51 53 0.55453 
312 51 55 0.556919 
313 54 52 0.405436 
314 54 502 0.527189 
315 54 53 0.739386 
316 54 252 1.60045 
317 54 3 0.0177548 
318 54 415 1.00866 
319 54 369 0.191177 
320 54 4 0.00041014 
321 54 55 0.541927 
322 54 368 0.0566542 
323 54 389 0.255098 
324 54 51 0.55453 
325 54 197 0.231078 
326 54 390 0.00563305 
327 54 292 0.11442 
328 54 391 0.169373 
329 54 364 0.134753 
330 54 251 0.254229 
331 157 158 0.690883 
332 157 156 0.541963 
333 157 160 0.402547 
334 157 9 0.0238964 
335 157 114 0.435968 
336 157 335 0.582734 
337 157 435 0.0366262 
338 157 283 0.0369179 
339 157 336 0.632206 
340 157 281 0.350845 
341 157 159 0.184626 
342 157 115 0.611527 
343 157 352 0.96131 
344 157 53 0.000328672 
345 157 8 0.254111 
346 157 170 0.0383783 
347 157 132 0.0461794 
348 157 282 0.0851803 
349 157 113 0.0954791 
350 157 111 0.000395704 
351 9 158 0.428288 
352 9 157 0.0238964 
353 9 160 0.402178 
354 9 529 0.866748 
355 9 115 0.598326 
356 9 37 0.513476 
357 9 164 0.0388261 
358 9 7 0.837061 
359 9 410 0.018556 
360 9 527 0.5243 
361 9 39 0.245819 
362 9 10 0.569644 
363 9 6 0.55453 
364 9 8 0.545181 
365 9 32 0.000348987 
366 9 13 0.0839265 
367 9 528 0.0905115 
368 9 12 0.394013 
369 9 210 0.00246077 
370 9 510 0.000108081 
371 156 159 0.55453 
372 156 158 0.55453 
373 156 157 0.541963 
374 156 160 0.556919 
375 160 55 0.607234 
376 160 529 0.892298 
377 160 547 0.49695 
378 160 114 0.237003 
379 160 53 0.338886 
380 160 157 0.402547 
381 160 545 0.0771493 
382 160 538 0.00040376 
383 160 32 0.165659 
384 160 159 0.548447 
385 160 158 0.575854 
386 160 9 0.402178 
387 160 156 0.556919 
388 160 336 0.00377197 
389 160 115 0.658679 
390 160 40 0.102107 
391 547 32 0.370153 
392 547 527 0.672553 
393 547 529 1.07433 
394 547 545 1.86988 
395 547 34 0.0382644 
396 547 538 0.343465 
397 547 55 1.08716 
398 547 160 0.49695 
399 547 147 0.969015 
400 547 251 0.0274386 
401 547 240 0.117588 
402 547 237 0.212952 
403 547 35 0.00150103 
404 547 528 0.00410287 
405 547 536 0.0371919 
406 529 538 1.19624 
407 529 527 1.36538 
408 529 547 1.07433 
409 529 32 0.256562 
410 529 160 0.892298 
411 529 39 0.0835458 
412 529 40 0.102031 
413 529 55 0.0911296 
414 529 12 0.0665604 
415 529 9 0.866748 
416 529 158 0.0133774 
417 529 115 0.0460256 
418 529 37 0.00592661 
419 527 13 0.276983 
420 527 9 0.5243 
421 527 12 0.1999 
422 527 39 0.0712943 
423 527 538 0.934373 
424 527 529 1.36538 
425 527 528 2.3628 
426 527 35 0.148522 
427 527 32 0.137043 
428 527 547 0.672553 
429 527 147 0.0942747 
430 527 240 0.0962264 
431 527 412 0.06242 
432 527 410 0.0620905 
433 55 159 0.0298888 
434 55 4 0.0399509 
435 55 545 0.40946 
436 55 54 0.541927 
437 55 53 0.616557 
438 55 51 0.556919 
439 55 529 0.0911296 
440 55 160 0.607234 
441 55 547 1.08716 
442 55 52 0.903467 
443 55 536 0.428539 
444 55 537 0.0309082 
445 55 538 0.177472 
446 55 364 0.497759 
447 55 114 0.00342597 
448 55 40 0.108078 
449 55 252 0.241477 
450 55 251 0.19444 
451 55 147 0.140208 
452 509 243 0.220496 
453 509 399 0.679413 
454 509 511 2.18457 
455 509 235 0.392896 
456 509 510 2.44615 
457 509 22 0.0457142 
458 509 528 0.0289372 
459 509 232 0.216678 
460 509 338 0.253603 
461 509 411 0.466053 
462 509 405 0.0455694 
463 509 333 0.115371 
464 509 339 0.563144 
465 509 13 0.0152031 
466 509 304 0.141021 
467 511 243 0.576783 
468 511 509 2.18457 
469 511 399 0.188245 
470 511 333 1.05878 
471 511 234 0.866954 
472 511 232 0.0755603 
473 511 339 0.568902 
474 511 235 0.239504 
475 511 304 0.690147 
476 511 411 0.0165892 
477 511 244 0.961943 
478 511 396 0.242388 
479 511 242 0.576972 
480 511 152 0.0348109 
481 528 411 0.584372 
482 528 510 0.146682 
483 528 509 0.0289372 
484 528 35 0.0416523 
485 528 13 1.52376 
486 528 527 2.3628 
487 528 7 0.00532953 
488 528 410 0.809775 
489 528 9 0.0905115 
490 528 240 0.432624 
491 528 147 0.10143 
492 528 547 0.00410287 
493 528 22 1.71203 
494 528 232 0.00335756 
495 528 237 0.0157865 
496 528 412 0.477504 
497 528 24 0.213783 
498 528 538 0.190698 
499 528 310 0.256915 
500 528 340 0.00732097 
501 232 25 0.835645 
502 232 22 0.948947 
503 232 24 0.0123028 
504 232 235 0.565044 
505 232 511 0.0755603 
506 232 509 0.216678 
507 232 231 0.541963 
508 232 234 0.566012 
509 232 173 0.69382 
510 232 334 0.210933 
511 232 172 0.0176494 
512 232 233 0.616436 
513 232 333 0.503454 
514 232 411 0.172337 
515 232 528 0.00335756 
516 232 277 0.00257732 
517 232 332 0.662544 
518 231 232 0.541963 
519 231 234 0.55453 
520 231 233 0.55453 
521 231 235 0.556919 
522 234 511 0.866954 
523 234 235 0.427268 
524 234 304 0.684554 
525 234 233 1.21997 
526 234 232 0.566012 
527 234 231 0.55453 
528 234 333 0.671494 
529 234 396 0.804935 
530 234 389 0.117072 
531 234 477 0.316033 
532 234 244 0.468856 
533 234 277 1.07862 
534 234 475 0.223004 
535 234 332 0.0937489 
536 234 390 0.134443 
537 233 232 0.616436 
538 233 231 0.55453 
539 233 234 1.21997 
540 233 274 0.866425 
541 233 390 1.17129 
542 233 389 0.792494 
543 233 277 0.17642 
544 233 70 0.0476808 
545 233 477 0.244563 
546 233 304 0.338307 
547 233 173 0.637689 
548 233 476 0.0749439 
549 233 235 0.799171 
550 233 25 0.355739 
551 233 379 0.247049 
552 233 272 0.664991 
553 233 391 0.197034 
554 233 377 0.040757 
555 233 172 0.283688 
556 233 199 0.0163606 
557 70 69 0.937737 
558 70 370 1.96897 
559 70 353 0.368755 
560 70 68 0.781733 
561 70 274 0.680556 
562 70 172 0.167158 
563 70 203 0.176436 
564 70 175 0.806338 
565 70 67 0.789196 
566 70 66 0.556894 
567 70 390 0.618147 
568 70 389 0.0217683 
569 70 173 0.0594624 
570 70 368 0.0282957 
571 70 197 0.207905 
572 70 543 0.00828956 
573 70 204 0.262892 
574 70 205 0.0851515 
575 70 233 0.0476808 
576 70 199 0.255341 
577 66 69 0.547284 
578 66 67 0.532931 
579 66 70 0.556894 
580 66 353 3.55131e-05 
581 66 68 0.544077 
582 66 312 0.00937115 
583 389 233 0.691756 
584 389 391 2.113 
585 389 290 0.00521516 
586 389 390 2.16961 
587 389 274 0.142376 
588 389 54 0.255098 
589 389 252 0.00243942 
590 389 368 0.242288 
591 389 197 0.00681491 
592 389 272 0.000459971 
593 389 379 0.0513612 
594 389 70 0.0217683 
595 389 370 0.73395 
596 389 502 0.183749 
597 389 292 0.762262 
598 390 70 0.618147 
599 390 370 0.684691 
600 390 389 2.16961 
601 390 502 0.690866 
602 390 197 0.65453 
603 390 200 0.0285397 
604 390 368 0.0453832 
605 390 277 0.251085 
606 390 233 1.17031 
607 390 234 0.0755986 
608 390 54 0.00563305 
609 390 274 0.0122365 
610 390 292 0.227973 
611 390 172 0.222501 
612 390 199 1.61144 
613 390 173 0.00238692 
614 390 275 0.114336 
615 252 55 0.241477 
616 252 54 1.60045 
617 252 4 0.480638 
618 252 391 0.29096 
619 252 389 0.00243942 
620 252 368 0.0794463 
621 252 484 0.673384 
622 252 369 0.831614 
623 252 251 1.39025 
624 252 300 0.489881 
625 252 53 0.000706724 
626 252 3 0.212842 
627 252 546 0.283629 
628 252 545 0.175896 
629 252 415 0.00210832 
630 370 391 0.45077 
631 370 300 0.537795 
632 370 368 2.2032 
633 370 70 1.96897 
634 370 389 0.73395 
635 370 390 0.684691 
636 370 354 0.874354 
637 370 379 0.298966 
638 370 274 0.0722053 
639 370 353 0.100217 
640 370 69 0.275635 
641 370 197 0.382941 
642 370 205 0.00311475 
643 368 391 0.148032 
644 368 370 2.2032 
645 368 300 0.719029 
646 368 354 0.101897 
647 368 197 0.699969 
648 368 390 0.0453832 
649 368 389 0.242288 
650 368 252 0.0794463 
651 368 54 0.0566542 
652 368 369 2.72014 
653 368 205 0.171148 
654 368 70 0.0282957 
655 368 69 0.640413 
656 368 496 0.282246 
657 368 279 0.164663 
658 368 494 0.0366894 
659 369 495 0.304691 
660 369 253 0.384205 
661 369 484 0.388974 
662 369 494 0.611301 
663 369 300 0.782402 
664 369 496 0.0587967 
665 369 205 0.00130558 
666 369 368 2.72014 
667 369 197 0.494954 
668 369 252 0.831614 
669 369 54 0.191177 
670 369 415 0.301285 
671 369 279 2.20276 
672 369 69 0.0237293 
673 369 278 0.277526 
674 369 251 0.694289 
675 251 546 0.136856 
676 251 545 0.266849 
677 251 252 1.39025 
678 251 279 0.0341605 
679 251 150 0.0372458 
680 251 253 1.98107 
681 251 369 0.694289 
682 251 484 0.645027 
683 251 147 0.151527 
684 251 547 0.0274386 
685 251 55 0.19444 
686 251 482 0.0153097 
687 251 415 0.185856 
688 251 413 0.00105909 
689 251 364 0.235413 
690 251 54 0.254229 
691 253 364 0.0182251 
692 253 147 0.394339 
693 253 150 1.40274 
694 253 369 0.384205 
695 253 484 0.609811 
696 253 251 1.98107 
697 253 278 0.395126 
698 253 279 0.241087 
699 253 146 0.0111929 
700 253 149 0.740101 
701 253 123 0.196872 
702 253 439 0.805642 
703 253 280 0.32823 
704 253 237 0.00016943 
705 253 495 0.0312516 
706 253 546 0.0437767 
707 253 545 0.0910817 
708 253 482 0.0658653 
709 149 310 0.567842 
710 149 148 1.01187 
711 149 147 0.985036 
712 149 230 0.272978 
713 149 503 0.157455 
714 149 546 0.000483672 
715 149 253 0.740101 
716 149 237 0.778834 
717 149 150 0.474428 
718 149 146 0.545033 
719 149 229 0.331887 
720 149 227 0.0901495 
721 149 439 0.702489 
722 149 123 1.22895 
723 149 239 0.0189129 
724 149 122 0.0574521 
725 149 545 0.0441559 
726 147 528 0.10143 
727 147 547 0.969015 
728 147 237 0.171809 
729 147 146 0.525025 
730 147 253 0.394339 
731 147 150 0.218418 
732 147 310 0.729604 
733 147 148 0.86472 
734 147 179 0.152565 
735 147 364 1.25874 
736 147 545 0.155447 
737 147 251 0.151527 
738 147 537 0.171411 
739 147 536 0.598199 
740 147 149 0.985036 
741 147 55 0.140208 
742 147 24 0.0369416 
743 147 527 0.0942747 
744 147 538 0.281069 
745 147 412 0.0283147 
746 150 279 0.438137 
747 150 251 0.0372458 
748 150 413 0.0490778 
749 150 364 0.69632 
750 150 148 0.559248 
751 150 362 0.466028 
752 150 278 0.438484 
753 150 349 0.388517 
754 150 253 1.40274 
755 150 123 0.0222131 
756 150 280 0.516101 
757 150 146 0.535427 
758 150 149 0.474428 
759 150 503 0.0182496 
760 150 122 0.0140246 
761 150 147 0.218418 
762 150 505 0.0694183 
763 150 415 0.00385442 
764 146 148 0.548545 
765 146 149 0.545033 
766 146 150 0.535427 
767 146 147 0.525025 
768 146 253 0.0111929 
769 146 364 0.00863563 
770 24 334 0.00105252 
771 24 22 1.0691 
772 24 232 0.0123028 
773 24 229 0.00204247 
774 24 239 0.575577 
775 24 310 2.40738 
776 24 227 0.524444 
777 24 240 0.176744 
778 24 23 0.64084 
779 24 237 0.16875 
780 24 173 0.101171 
781 24 308 0.106622 
782 24 25 0.790946 
783 24 21 0.55453 
784 24 274 0.0724075 
785 24 528 0.213783 
786 24 147 0.0369416 
787 310 229 0.0717927 
788 310 227 0.995546 
789 310 24 2.40738 
790 310 148 0.48658 
791 310 308 2.28888 
792 310 179 0.336599 
793 310 423 0.00647955 
794 310 149 0.567842 
795 310 147 0.729604 
796 310 239 0.0908728 
797 310 334 0.1722 
798 310 173 0.14456 
799 310 412 0.492147 
800 310 538 0.00738152 
801 310 237 0.0384252 
802 310 528 0.256915 
803 310 22 0.0958369 
804 310 410 0.115553 
805 308 88 0.0487963 
806 308 348 0.11176 
807 308 178 0.0892806 
808 308 227 0.936024 
809 308 24 0.106622 
810 308 310 2.28888 
811 308 423 0.283015 
812 308 173 0.83385 
813 308 174 0.0749098 
814 308 274 0.0548186 
815 308 309 1.81383 
816 308 25 0.0356123 
817 308 334 0.0575502 
818 308 179 0.538104 
819 308 230 0.0137514 
820 308 148 0.067312 
821 67 69 0.722504 
822 67 66 0.532931 
823 67 312 0.556758 
824 67 313 0.0215159 
825 67 175 0.938187 
826 67 543 1.69594 
827 67 68 0.425178 
828 67 70 0.789196 
829 67 204 0.057576 
830 67 311 0.48158 
831 67 120 0.0365666 
832 69 353 0.578834 
833 69 70 0.937737 
834 69 66 0.547284 
835 69 204 0.296498 
836 69 67 0.722504 
837 69 255 0.588688 
838 69 355 0.399367 
839 69 254 0.274876 
840 69 312 0.544608 
841 69 119 1.30104 
842 69 494 0.361314 
843 69 120 0.9784 
844 69 543 0.092241 
845 69 368 0.640413 
846 69 370 0.275635 
847 69 496 0.21413 
848 69 354 0.208271 
849 69 279 0.202022 
850 69 369 0.0237293 
851 69 68 0.202409 
852 69 205 0.0418302 
853 280 108 0.0405937 
854 280 351 1.38298 
855 280 122 1.3641 
856 280 278 2.65045 
857 280 137 0.525095 
858 280 140 0.566635 
859 280 298 0.194886 
860 280 505 0.390358 
861 280 503 0.465173 
862 280 150 0.516101 
863 280 495 0.768051 
864 280 124 0.173954 
865 280 504 0.0352152 
866 280 439 0.00962571 
867 280 123 0.177752 
868 280 253 0.32823 
869 280 349 0.186911 
870 313 543 0.0941048 
871 313 311 1.84643 
872 313 90 0.86184 
873 313 523 0.448167 
874 313 468 0.0061474 
875 313 175 0.224711 
876 313 309 0.716017 
877 313 227 0.751994 
878 313 230 0.633376 
879 313 88 0.696578 
880 313 68 0.121881 
881 313 274 0.0133311 
882 313 228 0.652806 
883 313 67 0.0215159 
884 313 226 0.0112638 
885 313 382 0.00346323 
886 311 68 0.480457 
887 311 312 1.69894 
888 311 67 0.48158 
889 311 313 1.84643 
890 311 228 0.00909342 
891 311 523 0.954752 
892 311 90 0.885924 
893 311 543 0.182478 
894 311 256 0.0579034 
895 311 175 0.000157787 
896 312 543 0.202687 
897 312 90 0.570987 
898 312 311 1.69894 
899 312 120 0.836514 
900 312 254 0.0536767 
901 312 256 1.55415 
902 312 355 0.352426 
903 312 68 0.520553 
904 312 66 0.00937115 
905 312 67 0.556758 
906 312 69 0.544608 
907 312 523 0.220804 
908 312 521 0.259566 
909 116 118 0.55453 
910 116 120 0.556919 
911 116 117 0.541963 
912 116 119 0.55453 
913 120 453 0.0125082 
914 120 254 0.420398 
915 120 452 0.385444 
916 120 243 0.552945 
917 120 311 0.0195938 
918 120 117 1.46733 
919 120 67 0.0365666 
920 120 69 0.974391 
921 120 543 0.30046 
922 120 134 0.547907 
923 120 119 1.19092 
924 120 118 0.88179 
925 120 116 0.556919 
926 120 245 1.00013 
927 120 454 0.126446 
928 120 312 1.18687 
929 120 256 0.688297 
930 120 255 0.239407 
931 119 69 1.28849 
932 119 205 0.275226 
933 119 204 1.29634 
934 119 118 1.2283 
935 119 117 0.774457 
936 119 319 1.17494 
937 119 120 1.19092 
938 119 116 0.55453 
939 119 543 0.170759 
940 119 138 0.891199 
941 119 317 0.0950861 
942 119 495 0.0621121 
943 119 278 0.0639284 
944 119 279 1.04737 
945 119 351 0.126209 
946 119 140 0.0602156 
947 119 134 0.720432 
948 119 494 0.0174003 
949 117 543 1.12668 
950 117 120 1.46733 
951 117 119 0.774457 
952 117 242 0.362915 
953 117 324 2.10992 
954 117 541 0.207146 
955 117 325 0.048812 
956 117 323 0.969664 
957 117 204 0.387576 
958 117 118 0.933222 
959 117 116 0.541963 
960 117 319 0.405015 
961 117 243 0.159603 
962 117 245 0.201863 
963 117 311 0.176695 
964 117 0 0.0687944 
965 117 312 0.0209537 
966 138 358 0.0322394 
967 138 139 0.191841 
968 138 318 0.787115 
969 138 137 0.574432 
970 138 279 1.01457 
971 138 278 0.530168 
972 138 342 1.17217 
973 138 317 1.06564 
974 138 136 0.549143 
975 138 319 0.142499 
976 138 205 0.10189 
977 138 140 1.18 
978 138 119 0.891199 
979 138 351 0.0230711 
980 138 118 0.000300729 
981 136 140 0.5399 
982 136 318 0.00640966 
983 136 139 0.531022 
984 136 138 0.549143 
985 136 137 0.534835 
986 136 513 0.0153445 
987 139 356 0.147053 
988 139 358 0.856538 
989 139 137 0.461813 
990 139 513 0.948393 
991 139 136 0.531022 
992 139 403 0.00287133 
993 139 140 0.182606 
994 139 318 1.18296 
995 139 138 0.191841 
996 139 512 0.225946 
997 317 526 0.493148 
998 317 436 0.592498 
999 317 319 2.92892 
1000 317 342 0.0375213 
1001 317 341 0.422064 
1002 317 118 0.0375351 
1003 317 138 1.06564 
1004 317 119 0.0950861 
1005 317 318 2.27432 
1006 317 218 0.253878 
1007 317 219 0.0411143 
1008 317 140 0.0608807 
1009 317 434 0.000336098 
1010 317 524 0.0942991 
1011 317 217 0.326896 
1012 317 358 0.0294891 
1013 319 217 1.13536 
1014 319 324 1.168 
1015 319 323 0.285541 
1016 319 219 0.432584 
1017 319 317 2.92892 
1018 319 526 1.15496 
1019 319 541 0.450932 
1020 319 118 0.700304 
1021 319 345 0.143268 
1022 319 539 0.0129081 
1023 319 119 1.17494 
1024 319 138 0.142499 
1025 319 205 0.293269 
1026 319 117 0.405015 
1027 319 342 0.000141361 
1028 319 436 0.484176 
1029 319 202 1.03353 
1030 319 204 0.313351 
1031 319 341 0.224066 
1032 318 403 0.0205909 
1033 318 513 0.314909 
1034 318 524 0.493152 
1035 318 434 0.231611 
1036 318 525 0.0670072 
1037 318 358 1.12668 
1038 318 526 0.258043 
1039 318 139 1.18296 
1040 318 138 0.787115 
1041 318 136 0.00640966 
1042 318 436 0.0750565 
1043 318 342 0.0781085 
1044 318 317 2.27432 
1045 318 140 0.291997 
1046 318 341 0.0450253 
1047 318 218 0.262532 
1048 296 420 0.0620226 
1049 296 297 1.85186 
1050 296 514 0.479995 
1051 296 507 0.162876 
1052 296 163 0.0369279 
1053 296 164 0.0897169 
1054 296 469 0.0972037 
1055 296 340 0.245746 
1056 296 298 1.87259 
1057 296 504 0.429988 
1058 296 503 0.308162 
1059 296 505 0.0882546 
1060 296 468 0.25436 
1061 296 7 0.171599 
1062 296 467 0.266887 
1063 137 298 0.106834 
1064 137 512 0.499636 
1065 137 505 0.532899 
1066 137 356 0.357972 
1067 137 514 0.211308 
1068 137 513 0.0475698 
1069 137 136 0.534835 
1070 137 139 0.461813 
1071 137 140 0.571255 
1072 137 278 0.35907 
1073 137 279 0.0191702 
1074 137 138 0.574432 
1075 137 342 0.464928 
1076 137 349 1.06604 
1077 137 383 0.295032 
1078 137 357 0.158348 
1079 137 358 0.214249 
1080 137 280 0.525095 
1081 137 503 0.0179961 
1082 137 385 0.0878889 
1083 140 278 0.144496 
1084 140 137 0.571255 
1085 140 138 1.18 
1086 140 280 0.566635 
1087 140 298 0.246923 
1088 140 118 0.0155947 
1089 140 350 0.583844 
1090 140 351 1.50525 
1091 140 318 0.291997 
1092 140 136 0.5399 
1093 140 139 0.182606 
1094 140 513 1.09464 
1095 140 512 0.0238221 
1096 140 317 0.0608807 
1097 140 436 0.0611936 
1098 140 434 0.28097 
1099 140 352 0.0110865 
1100 140 435 0.0176107 
1101 140 119 0.0602156 
1102 89 87 0.70377 
1103 89 420 0.759238 
1104 89 86 0.530095 
1105 89 90 1.41671 
1106 89 88 0.579011 
1107 89 230 0.105419 
1108 89 507 0.497562 
1109 89 339 0.523815 
1110 89 163 0.0284018 
1111 89 297 2.25927 
1112 89 468 0.0848188 
1113 89 503 0.0809107 
1114 89 504 0.0978548 
1115 86 87 0.516281 
1116 86 88 0.53377 
1117 86 90 0.556919 
1118 86 420 0.0243067 
1119 86 89 0.530095 
1120 90 468 0.390095 
1121 90 89 1.41671 
1122 90 297 0.0268633 
1123 90 339 1.08371 
1124 90 87 1.31464 
1125 90 324 0.225849 
1126 90 230 0.0747563 
1127 90 88 0.587532 
1128 90 86 0.556919 
1129 90 323 0.0695824 
1130 90 523 0.103974 
1131 90 313 0.86184 
1132 90 382 0.0319212 
1133 90 543 0.735234 
1134 90 311 0.885924 
1135 90 312 0.570987 
1136 90 256 0.283553 
1137 90 120 0.386535 
1138 90 243 0.53212 
1139 90 404 1.28914e-06 
1140 90 117 0.599128 
1141 90 467 0.118329 
1142 90 242 0.0353501 
1143 297 468 0.731035 
1144 297 90 0.0268633 
1145 297 89 2.25927 
1146 297 469 0.0367363 
1147 297 340 0.439012 
1148 297 338 0.532853 
1149 297 504 0.44015 
1150 297 296 1.85186 
1151 297 503 0.156111 
1152 297 420 0.342505 
1153 297 514 0.000245001 
1154 297 507 0.636698 
1155 297 230 0.00905742 
1156 297 467 0.547822 
1157 297 339 0.116921 
1158 297 163 0.217102 
1159 323 87 0.600711 
1160 323 543 0.0656278 
1161 323 325 2.2774 
1162 323 270 0.0100632 
1163 323 324 3.82792 
1164 323 260 0.492221 
1165 323 117 0.86865 
1166 323 202 0.654827 
1167 323 508 0.00143417 
1168 323 262 0.173498 
1169 323 307 0.0234997 
1170 323 261 1.08025 
1171 323 204 0.151633 
1172 323 90 0.0695824 
1173 323 506 0.000227988 
1174 324 539 0.0257695 
1175 324 345 1.42462 
1176 324 541 0.592039 
1177 324 339 0.246532 
1178 324 346 0.372423 
1179 324 242 0.315469 
1180 324 82 0.941163 
1181 324 202 0.503609 
1182 324 0 0.198402 
1183 324 118 0.279614 
1184 324 119 0.0564005 
1185 324 117 2.30214 
1186 324 307 0.0194843 
1187 324 305 0.0727813 
1188 324 261 0.20513 
1189 324 507 0.0550244 
1190 324 163 0.0295442 
1191 324 506 0.236212 
1192 324 87 0.540079 
1193 324 323 3.82792 
1194 324 90 0.225849 
1195 324 344 0.33122 
1196 324 462 0.727381 
1197 324 461 0.136687 
1198 324 330 0.0852293 
1199 324 465 0.0010011 
1200 324 270 2.02959 
1201 324 433 0.038369 
1202 324 260 0.00716067 
1203 324 508 0.0718201 
1204 324 262 0.062819 
1205 118 140 0.0155947 
1206 118 317 0.0375351 
1207 118 138 0.000300729 
1208 118 245 0.294541 
1209 118 120 0.88179 
1210 118 117 0.933222 
1211 118 134 0.498901 
1212 118 541 2.29 
1213 118 436 0.51698 
1214 118 116 0.55453 
1215 118 454 0.185435 
1216 118 452 0.0136992 
1217 118 319 0.700304 
1218 118 119 1.2283 
1219 118 324 0.011175 
1220 118 351 0.0131324 
1221 118 434 0.00295095 
1222 118 350 0.0049032 
1223 541 454 0.58874 
1224 541 436 1.34772 
1225 541 134 0.0330027 
1226 541 245 0.832893 
1227 541 242 0.0920016 
1228 541 539 2.20896 
1229 541 337 0.00215326 
1230 541 324 0.385771 
1231 541 346 0.000345542 
1232 541 526 4.68534e-06 
1233 541 117 0.207146 
1234 541 319 0.450932 
1235 541 345 0.0486988 
1236 541 118 2.29 
1237 539 454 0.200569 
1238 539 540 2.13492 
1239 539 337 0.136132 
1240 539 436 0.897814 
1241 539 541 2.20896 
1242 539 346 0.138313 
1243 539 242 0.30709 
1244 539 344 0.291075 
1245 539 324 0.0257695 
1246 539 345 0.441332 
1247 539 245 0.521841 
1248 539 526 0.110282 
1249 539 319 0.0129081 
1250 539 244 0.0369167 
1251 540 244 0.34738 
1252 540 539 2.13492 
1253 540 245 0.0155341 
1254 540 454 0.0178862 
1255 540 396 0.0725064 
1256 540 242 0.298721 
1257 540 346 0.329497 
1258 540 397 1.39094 
1259 540 395 0.790614 
1260 540 344 0.358252 
1261 540 475 0.298002 
1262 540 526 0.0316135 
1263 540 524 0.0125829 
1264 540 345 0.313293 
1265 540 436 0.381356 
1266 540 473 0.0143189 
1267 540 337 0.0847611 
1268 435 157 0.0366262 
1269 435 335 0.015023 
1270 435 114 0.368292 
1271 435 132 0.0217891 
1272 435 434 1.94189 
1273 435 337 0.876427 
1274 435 140 0.0176107 
1275 435 350 0.00856968 
1276 435 352 1.24976 
1277 435 513 0.204173 
1278 435 525 0.220947 
1279 435 113 1.15551 
1280 435 474 0.230556 
1281 435 112 0.00825522 
1282 436 134 0.0559549 
1283 436 118 0.51698 
1284 436 541 1.34772 
1285 436 319 0.484176 
1286 436 337 0.343465 
1287 436 539 0.897814 
1288 436 140 0.0611936 
1289 436 350 0.000929141 
1290 436 434 2.63636 
1291 436 397 0.347143 
1292 436 525 0.49697 
1293 436 473 0.259606 
1294 436 524 0.709793 
1295 436 454 0.0501022 
1296 436 526 0.259508 
1297 436 540 0.381356 
1298 436 474 0.0990242 
1299 436 317 0.592498 
1300 436 318 0.0750565 
1301 434 132 0.15927 
1302 434 134 0.147254 
1303 434 337 0.780984 
1304 434 350 0.359073 
1305 434 474 0.374737 
1306 434 525 0.620687 
1307 434 435 1.94189 
1308 434 140 0.28097 
1309 434 524 0.00271695 
1310 434 436 2.63636 
1311 434 473 0.0244892 
1312 434 513 0.116285 
1313 434 454 0.0116689 
1314 434 318 0.231611 
1315 434 317 0.000336098 
1316 434 118 0.00295095 
1317 434 352 0.0304346 
1318 525 513 0.446928 
1319 525 435 0.220947 
1320 525 113 0.275324 
1321 525 474 0.572244 
1322 525 112 0.817234 
1323 525 401 0.500319 
1324 525 402 0.401092 
1325 525 524 2.08091 
1326 525 45 0.944629 
1327 525 473 0.0420679 
1328 525 318 0.0670072 
1329 525 434 0.620687 
1330 525 436 0.49697 
1331 525 397 0.273986 
1332 525 84 0.326059 
1333 525 403 0.403312 
1334 525 44 0.418427 
1335 524 318 0.493152 
1336 524 526 2.09956 
1337 524 317 0.0942991 
1338 524 402 0.40258 
1339 524 84 0.541203 
1340 524 525 2.08091 
1341 524 434 0.00271695 
1342 524 436 0.709793 
1343 524 397 0.245768 
1344 524 540 0.0125829 
1345 524 358 0.00159978 
1346 524 403 0.122242 
1347 524 401 0.302977 
1348 524 82 7.88029e-07 
1349 524 513 0.0135159 
1350 524 345 0.00351852 
1351 113 114 0.239049 
1352 113 435 1.15551 
1353 113 112 0.979269 
1354 113 352 1.19269 
1355 113 7 0.0403226 