LAMMPS data file via write_data, version 4 Feb 2025, timestep = 8500000, units = lj

2000 atoms
4 atom types
1500 bonds
1 bond types
1750 angles
2 angle types

-8.346487 8.346487 xlo xhi
-8.346487 8.346487 ylo yhi
-8.346487 8.346487 zlo zhi

Masses

1 1
2 1
3 0.1
4 0.1

Bond Coeffs # harmonic/omp

1 100 0.45

Angle Coeffs # harmonic/omp

1 100 180
2 100 109.471

Atoms # full

197 40 3 0 -4.112738826197189 -8.240634989576014 -8.132069928954232 0 1 0
198 40 3 0 -4.844633427423017 -8.214456282064672 -8.2592104561312 0 1 0
1777 426 4 0 -2.4788813084340653 -7.763665173735014 -7.463319337535318 1 1 0
1776 426 2 0 -2.217041279950232 -8.097404002092722 -7.395033297016575 1 1 0
1996 499 4 0 -3.725510224297299 -8.237819560101347 -8.197001264078773 1 1 1
1682 394 4 0 -1.5934748734787751 -6.685478188738901 -8.14590553725286 0 1 0
1608 370 2 0 -0.3881143359852821 -8.320966927982914 -7.789374884114821 0 0 0
1609 370 4 0 -0.26073042553103853 -7.989606063414974 -8.066818952785725 0 0 0
964 193 3 0 -4.178173760070667 -8.32948205690699 -5.867958359534475 0 1 1
1724 408 4 0 0.4305202900475624 -7.021429125759493 -7.964258180136898 0 1 0
1722 408 2 0 0.7225672021387073 -7.109818089407285 -7.668092486043866 0 1 0
1723 408 4 0 1.033217190499414 -7.198569261870517 -7.3459625527382 0 1 0
50 10 3 0 1.32999566413344 -7.411402340692103 -7.213656917171287 0 0 1
46 10 1 0 1.4997777932454053 -7.151655703976946 -6.892961977445831 0 0 1
47 10 3 0 1.1459427494516259 -6.871074072040007 -6.714903651424435 0 0 1
48 10 3 0 1.8072571397270263 -6.894460797210506 -7.06366982112583 0 0 1
1857 453 2 0 4.802089040730937 -1.305772443243809 -4.290562874006747 -1 0 0
674 135 3 0 4.023639342513237 -0.07784383381398285 -4.292402135563222 -1 1 0
938 188 3 0 -3.236248986506202 -5.981592729596313 -7.910308792867116 0 0 1
940 188 3 0 -2.893981821864986 -6.365731554936309 -7.394736518969361 0 0 1
936 188 1 0 -2.866041703522267 -6.009368897524974 -7.645552155286423 0 0 1
939 188 3 0 -2.5019545598122734 -6.042987302194445 -7.909500665627619 0 0 1
1711 404 4 0 -3.021056332912087 -5.502052217925649 -7.057432689088541 0 1 1
937 188 3 0 -2.831900571010614 -5.6389769009069255 -7.381772885796223 0 0 1
1710 404 2 0 -2.876381210522575 -5.103886297281974 -6.821071056373866 0 1 1
1681 394 4 0 -2.44077419394727 -6.438271514791757 -7.8916814268129265 0 1 0
1680 394 2 0 -2.017961169939319 -6.565911018090148 -8.015706860801707 0 1 0
972 195 3 0 0.5907353067873391 -5.775209009991919 -8.194614449089746 0 1 0
973 195 3 0 1.0754936685893917 -5.2846110081506925 -8.027480046879456 0 1 0
1899 467 2 0 6.960624981019841 -6.259659663038843 -8.082619849160825 0 0 1
1900 467 4 0 7.238897689447935 -5.93909391853323 -7.894465784249292 0 0 1
1910 470 4 0 8.092499429097945 -5.589877474061948 -6.721740911336569 -1 0 1
1708 403 4 0 8.050145363666754 -6.505949709078564 -7.59844057277077 0 1 0
110 22 3 0 7.895376879658681 -6.228222027663117 -7.329849481726012 0 1 -1
108 22 3 0 7.8603283725030835 -5.5327276762316355 -7.047023027350923 0 1 -1
106 22 1 0 7.61616237155952 -5.900028246947198 -7.19110325476862 0 1 -1
107 22 3 0 7.340191511753131 -5.77000788433206 -7.542317636938815 0 1 -1
109 22 3 0 7.3433410052619905 -6.066772195690424 -6.828349948645118 0 1 -1
1707 403 2 0 8.15566238995255 -6.4331857694614785 -8.003759944328813 0 1 0
1448 316 4 0 7.29369802062487 -6.337253279833467 -6.540355749543625 0 0 1
356 72 1 0 -4.247504380986113 -3.4443785663229596 -7.732507723612798 0 0 0
358 72 3 0 -4.427261879769821 -3.8354413864564343 -7.673557614704041 0 0 0
360 72 3 0 -3.989586610791049 -3.4478990490909576 -8.117993873324865 0 0 0
357 72 3 0 -3.9866460051050856 -3.3498657331857284 -7.365325047754633 0 0 0
1712 404 4 0 -2.748949737635404 -4.738557141303973 -6.604549673922351 0 1 1
128 26 3 0 -2.6780851945420823 -4.374989774180859 -6.754018300398212 1 0 0
1981 494 4 0 -3.6639852947851033 -3.414334656482567 -8.340438235861267 1 0 1
126 26 1 0 -2.5805663518152926 -4.011912213688255 -6.505328151956146 1 0 0
129 26 3 0 -2.207990523537429 -3.8273563160698245 -6.659144069106042 1 0 0
671 135 1 0 3.990954349368648 -0.4467648146846521 -4.528037715370928 -1 1 0
1858 453 4 0 4.420121531076193 -1.1235874086515336 -4.284312026228959 -1 0 0
414 83 3 0 -6.944408903227655 -2.167133728221339 -8.125786061280245 0 0 0
415 83 3 0 -6.405423982533893 -2.0347460200692202 -7.672894818227692 0 0 0
411 83 1 0 -6.505870855824887 -2.121641306190736 -8.086496301892671 0 0 0
673 135 3 0 4.31879328001131 -0.7508299224068233 -4.395254390204229 -1 1 0
412 83 3 0 -6.295447909572446 -2.5123504057589976 -8.22389330714022 0 0 0
359 72 3 0 -4.582866964899871 -3.1062524733888264 -7.776105294415151 0 0 0
304 61 3 0 -4.313375598227157 -2.346916442349009 -7.637227651797265 0 0 0
301 61 1 0 -4.6064209667340075 -2.3502731411779463 -7.317913796838081 0 0 0
305 61 3 0 -4.792033895949121 -1.9825524943234374 -7.28727352040382 0 0 0
303 61 3 0 -4.41318383464084 -2.4448371589584337 -6.951355955230603 0 0 0
302 61 3 0 -4.921146550738039 -2.6664078280485093 -7.415149706072065 0 0 0
1478 326 4 0 -5.074662819336912 -1.759920246360112 -7.473076816911999 1 0 0
585 117 3 0 -1.6147036300705997 -3.0013219595289566 -8.116520881283146 0 -1 1
918 184 3 0 0.7606558073056657 -3.245851486609544 -7.990787203089819 0 0 1
749 150 3 0 0.4185062080049029 -2.321358683012341 -6.4471385925931965 0 0 0
1292 264 4 0 0.09168471333996209 -2.1254571981310546 -6.507164312414799 1 0 0
747 150 3 0 0.7841363728174251 -2.2760660032294036 -7.077277756121252 0 0 0
746 150 1 0 0.8272636916085911 -2.3344570935235893 -6.650087922486885 0 0 0
750 150 3 0 1.013437986368574 -2.7229175140455313 -6.573018400748453 0 0 0
1024 205 3 0 -7.189772982724959 -0.8992973206063741 -7.270573604341923 3 0 1
1021 205 1 0 -6.921967886092151 -0.8884539825325328 -6.918029907624606 3 0 1
1023 205 3 0 -7.131543862107512 -0.7150575437548596 -6.576043462807329 3 0 1
1025 205 3 0 -6.796214534300954 -1.286814533098986 -6.817946259140402 3 0 1
1022 205 3 0 -6.564982161091301 -0.6336044292561791 -7.025388159265053 3 0 1
843 169 3 0 -5.465431227082054 -0.7178313943486314 -7.890387416657448 0 1 0
1477 326 4 0 -5.52648779453785 -1.1048002951933382 -7.883613532052818 1 0 0
845 169 3 0 -5.714491392978716 -0.03644962238864835 -8.092330658256436 0 1 0
841 169 1 0 -5.792763342513823 -0.47908016837430445 -8.114555177356962 0 1 0
772 155 3 0 5.40284512206839 -1.5682910335605884 -4.669828397051074 -1 0 0
842 169 3 0 -6.155734078122978 -0.5674061302793678 -7.938964029226574 0 1 0
1476 326 2 0 -5.291503992891852 -1.4334170965846535 -7.67527599418303 1 0 0
1692 398 2 0 -2.5912094844653817 -0.6522669121562812 -7.530622459528129 0 1 0
1693 398 4 0 -2.50607880770459 -0.2605815804781795 -7.732173342960503 0 1 0
291 59 1 0 -2.386774038876629 -1.3634091371658643 -6.670972618868506 1 0 1
294 59 3 0 -2.667828677754576 -1.3084653824765846 -7.003397050661753 1 0 1
1694 398 4 0 -2.6772489650179416 -1.0462223507079411 -7.328472401730921 0 1 0
292 59 3 0 -2.0482937653039714 -1.0980789297805167 -6.728317671459968 1 0 1
1085 217 3 0 0.7009179460596062 -0.47914944381236246 -7.273588182233058 0 0 1
1084 217 3 0 0.9069851650966676 -0.0610146406761789 -6.722423945232672 0 0 1
1750 417 4 0 1.6044304775310643 -0.5249122504910648 -7.083622999072497 0 0 0
1083 217 3 0 1.406289480616259 -0.22680921722520075 -7.2136541046147835 0 0 1
1081 217 1 0 0.9528300935685241 -0.13320280372476923 -7.136021940698192 0 0 1
1749 417 2 0 1.9947535761352544 -0.641524507579442 -7.295067081719207 0 0 0
1453 318 4 0 1.2194903295987096 -0.2292782578851238 -6.557350921657197 0 0 0
677 136 3 0 2.461918773507673 -0.12200276096603346 -8.155039220626676 0 1 0
676 136 1 0 2.6785587640122888 -0.4827762772568924 -8.19717202770784 0 1 0
680 136 3 0 2.59974790399251 -0.7559483678781866 -7.845349070688974 0 1 0
679 136 3 0 3.11893701075733 -0.3890416006897235 -8.202352688081408 0 1 0
1751 417 4 0 2.384916112909769 -0.7552132671229188 -7.5045714611316585 0 0 0
473 95 3 0 4.121972705520847 -1.1230694270485806 -7.085022669128347 -1 -1 1
475 95 3 0 4.388719922964578 -0.561609843878693 -7.479522540790628 -1 -1 1
471 95 1 0 4.278377607587053 -0.7126005060405172 -7.05303754001414 -1 -1 1
474 95 3 0 3.983284190927149 -0.4646856015313956 -6.880761225101369 -1 -1 1
472 95 3 0 4.652535495947797 -0.7096706715214376 -6.791712910973178 -1 -1 1
962 193 3 0 -4.5311134156211565 -7.846046944178021 -6.317788436916576 0 1 1
961 193 1 0 -4.599508086326695 -8.191910257086793 -6.052691442456874 0 1 1
965 193 3 0 -4.905987215314836 -8.072529995406796 -5.6938214118804495 0 1 1
1925 475 4 0 -4.791326830991691 -7.915741234887055 -5.345221005956354 0 1 0
1923 475 2 0 -4.804680147206161 -7.485341615753991 -5.134166405587068 0 1 0
1924 475 4 0 -4.829850224218028 -7.058458511405901 -4.934798486990485 0 1 0
307 62 3 0 -4.881652707171368 -6.694494834463642 -5.057716837077427 0 0 0
225 45 3 0 0.13501180552061598 -7.367138773170158 -5.424258225462325 0 0 0
221 45 1 0 0.3864407383176278 -7.554685375690645 -5.083674416094945 0 0 0
223 45 3 0 0.29252242489678437 -7.973632193211733 -5.044481465800761 0 0 0
224 45 3 0 0.2887166182905556 -7.352873057054765 -4.688820273690379 0 0 0
49 10 3 0 1.667408267523335 -7.411052747253191 -6.56802092781097 0 0 1
222 45 3 0 0.8102396318338592 -7.510863894281977 -5.169711704012327 0 0 0
1376 292 4 0 1.1067351661655316 -7.370012735243988 -5.369623154638718 0 0 0
1374 292 2 0 1.3086456477458146 -7.331118813755704 -5.802993215269693 0 0 0
1375 292 4 0 1.5022395100693373 -7.288033620186508 -6.220783913187374 0 0 0
777 156 3 0 -6.6933355651355 -5.366385995419671 -5.363995356768649 1 0 0
1909 470 4 0 -8.075235457286647 -4.983114776528413 -6.226428559597494 0 0 1
779 156 3 0 -6.276171033325123 -5.76974644236557 -5.759776572112942 1 0 0
776 156 1 0 -6.403879050269834 -5.356102471504336 -5.674505709442613 1 0 0
778 156 3 0 -6.044605265884567 -5.1154990651519645 -5.543160789797506 1 0 0
780 156 3 0 -6.5844601730151675 -5.177016726232073 -6.0330701376667015 1 0 0
309 62 3 0 -5.5031739617139115 -6.287495418438262 -5.0045992181415375 0 0 0
308 62 3 0 -5.275430633515531 -6.531603327942108 -5.662924097001696 0 0 0
306 62 1 0 -5.136917893589575 -6.378553482675615 -5.27340359509613 0 0 0
310 62 3 0 -4.897494925237675 -6.009921649704108 -5.33505218104761 0 0 0
649 130 3 0 -0.6535215791825921 -6.238177597673875 -5.043979245989068 0 1 0
646 130 1 0 -0.4565702578514079 -5.910559910114443 -4.814345616563854 0 1 0
1367 289 4 0 -0.04125467050293352 -5.544374110530608 -5.387200293720097 0 0 0
648 130 3 0 -0.2916790145874977 -5.581599548547875 -5.100143898296801 0 1 0
1365 289 2 0 0.18823896599068313 -5.17545657104666 -5.432326520699698 0 0 0
170 34 3 0 5.425828617958498 -5.483663103016602 -6.303613563861401 -1 0 0
1867 456 4 0 5.711025663920104 -5.515366204960931 -6.019020132112422 0 0 1
1868 456 4 0 6.339491468839675 -5.741367664936624 -5.473633897760598 0 0 1
879 176 3 0 6.541211695567487 -5.6095072356771105 -5.139725381559482 0 1 1
1866 456 2 0 6.030969480591722 -5.635070966929389 -5.734472931684154 0 0 1
878 176 3 0 7.093723231124157 -5.7427436831397225 -4.642938226334389 0 1 1
1908 470 2 0 -8.339496427258794 -5.292815052619712 -6.481978117463196 0 0 1
876 176 1 0 6.987775180125563 -5.657899395069452 -5.091682444561506 0 1 1
877 176 3 0 7.195539582673417 -5.268070934165326 -5.220109237601284 0 1 1
880 176 3 0 7.137241784890259 -6.00657354816195 -5.3562672555911774 0 1 1
1447 316 4 0 7.143432877483759 -5.92533118930794 -5.748316614377028 0 0 1
1446 316 2 0 7.221108244056053 -6.132550623508633 -6.152109118963725 0 0 1
1630 377 4 0 7.400656055911467 -4.941028992909505 -5.073050355635183 0 0 0
220 44 3 0 -7.357996587190184 -5.04975996661647 -5.457739914176274 0 0 1
217 44 3 0 -7.832175350613516 -4.819042317122387 -5.959789656934661 0 0 1
1299 267 2 0 -7.387433506545046 -3.7588776270154023 -5.245940976922461 1 0 0
1301 267 4 0 -7.4770143663339645 -4.193037226956332 -5.395920351722468 1 0 0
216 44 1 0 -7.745108991092094 -4.851046961540328 -5.505952359331891 0 0 1
218 44 3 0 -7.729731801429294 -4.453210483384445 -5.327489094910853 0 0 1
219 44 3 0 -8.065409925268723 -5.099492511609389 -5.301082062363392 0 0 1
1300 267 4 0 -7.300662619440746 -3.311721038678612 -5.092550207119007 1 0 0
127 26 3 0 -2.9276130487606276 -3.7023268034458905 -6.5352024520577325 1 0 0
130 26 3 0 -2.518865124796223 -4.124724643886012 -6.083155017801218 1 0 0
1366 289 4 0 0.43465619947288126 -4.777623653653608 -5.481052548982562 0 0 0
30 6 3 0 0.3354868274388618 -4.139572762080555 -5.620835706621033 0 0 1
28 6 3 0 0.8124919880287909 -4.677512959390757 -5.468244485564518 0 0 1
26 6 1 0 0.7547908487333697 -4.221999530220036 -5.558657105027212 0 0 1
1530 344 2 0 0.9181475753394412 -3.388975289270152 -6.285927589111307 0 0 1
1532 344 4 0 1.0560581972103407 -3.7544878343428447 -6.0423338443210834 0 0 1
27 6 3 0 0.9898838659401914 -4.111851292378129 -5.9315737538187765 0 0 1
29 6 3 0 0.9021523478670996 -3.987989999159222 -5.224996647885862 0 0 1
166 34 1 0 5.215861448486635 -5.0965437071068695 -6.24107349074373 -1 0 0
168 34 3 0 4.822326008906527 -5.096329009244466 -6.471448194723644 -1 0 0
167 34 3 0 5.130256765160187 -5.045922409165269 -5.8000305734317035 -1 0 0
1676 392 4 0 4.957190395537067 -4.153496240861476 -4.996588129095602 0 1 0
169 34 3 0 5.47637806680139 -4.75618313010284 -6.383232821328269 -1 0 0
23 5 3 0 5.332486618912256 -4.044919537904818 -4.963680873817621 0 0 0
22 5 3 0 5.824907968750155 -4.276079126139696 -5.46951908714276 0 0 0
21 5 1 0 5.793385491988346 -4.07674611364564 -5.0925231431231595 0 0 0
25 5 3 0 5.969508435173493 -3.654661561387819 -5.126153473871986 0 0 0
24 5 3 0 6.012516879364728 -4.304980634873624 -4.785686275115712 0 0 0
1516 339 4 0 5.841239576849594 -3.280869952887514 -5.1773016115496215 0 0 1
1629 377 2 0 7.832469746571601 -4.991788677713332 -5.085421182887912 0 0 0
1631 377 4 0 8.304042232100354 -5.039215117246698 -5.093697681488578 0 0 0
664 133 3 0 -7.261836822228965 -2.914685149903775 -5.1881072689002075 0 0 0
661 133 1 0 -7.3723808440374095 -2.504983593719195 -5.3681459092848804 0 0 0
665 133 3 0 -7.008527223202573 -2.2184834890127494 -5.337946267192718 0 0 0
663 133 3 0 -7.730492359930744 -2.3309106352551616 -5.133028609756045 0 0 0
662 133 3 0 -7.481348798263422 -2.5620859825584477 -5.817906370840856 0 0 0
295 59 3 0 -2.235505787210684 -1.80923947515012 -6.668365435246447 1 0 1
1290 264 2 0 -0.19755908096258423 -1.8044032394985825 -6.279068225763121 1 0 0
1531 344 4 0 0.7751620963718011 -3.030478025123548 -6.517574311499434 0 0 1
748 150 3 0 1.088190765993156 -2.02377063283319 -6.485565031978522 0 0 0
1840 447 4 0 1.0452475426431782 -1.9574619051741342 -6.0686463635329435 0 0 0
1014 203 3 0 2.907362372865215 -2.307756529109163 -5.680909523079279 0 1 0
1015 203 3 0 3.2995945658352603 -1.7448729137818342 -5.914172904207503 0 1 0
1012 203 3 0 3.640967521230289 -2.3074691493079724 -5.540886996869569 0 1 0
1011 203 1 0 3.2932409993929994 -2.1877735600901413 -5.84847402055429 0 1 0
1013 203 3 0 3.360884059061682 -2.408190857232978 -6.246056399401538 0 1 0
1515 339 2 0 5.760089956971335 -2.8236517402765235 -5.242151517704626 0 0 1
1517 339 4 0 5.684453245439904 -2.398056913959394 -5.310308629358545 0 0 1
774 155 3 0 5.70448546615385 -2.1550419857259104 -4.988499741849596 -1 0 0
771 155 1 0 5.7415347554923954 -1.702674201528045 -4.91665025844785 -1 0 0
2 1 3 0 -4.023922643721874 -0.13901068998675825 -5.339418798289396 0 0 0
4 1 3 0 -3.3953920213482958 -0.06755867405467342 -5.695104441490358 0 0 0
293 59 3 0 -2.592304220183597 -1.2635621394526648 -6.276715198203779 1 0 1
1652 384 4 0 -2.6351109928959593 -0.8569788278073487 -6.189396885424691 0 1 0
1650 384 2 0 -2.9747414773655203 -0.6027730315157864 -6.084653174916241 0 1 0
1651 384 4 0 -3.329581057117478 -0.32848619727698036 -5.9683993598537075 0 1 0
1291 264 4 0 -0.4765740448765152 -1.5130771242781789 -6.07725436528248 1 0 0
410 82 3 0 -0.42220730205982804 -1.2192934567024354 -5.811797462596941 0 0 1
409 82 3 0 0.03103087235140123 -0.6864838099068145 -5.589865181740272 0 0 1
406 82 1 0 -0.27063812066873183 -0.9849952076967643 -5.45625237326777 0 0 1
408 82 3 0 -0.6170080267136644 -0.7790088206318435 -5.248351627483968 0 0 1
407 82 3 0 -0.07516013789972398 -1.2688592846713416 -5.1712938075777 0 0 1
1839 447 2 0 1.227328137909712 -1.6987773843079408 -5.764393964618918 0 0 0
1841 447 4 0 1.4060378425246238 -1.4509969013373025 -5.460300269593493 0 0 0
1452 318 2 0 1.3099141103039553 -0.3445460275329566 -6.1240723996687105 0 0 0
1454 318 4 0 1.3977651302924077 -0.45823388504443585 -5.700790820851007 0 0 0
982 197 3 0 1.6303808427832056 -0.5513457183850026 -5.376563555521706 -1 0 0
985 197 3 0 1.612788535377934 -1.2488157180430743 -5.166024677362298 -1 0 0
984 197 3 0 2.0547956541916523 -0.753008720014507 -4.8071626589853516 -1 0 0
981 197 1 0 1.8677980476162936 -0.8797639456852568 -5.214144717504655 -1 0 0
983 197 3 0 2.228189675684776 -0.9775841514669272 -5.51243322433255 -1 0 0
1786 429 4 0 2.429345770173665 -0.9076775854957448 -4.729917706256511 -1 0 0
672 135 3 0 4.062301481999061 -0.3374581706543722 -4.986854430382154 -1 1 0
773 155 3 0 6.128097713090815 -1.6042557121519119 -4.680425021374204 -1 0 0
775 155 3 0 5.736230478823458 -1.4752908159836213 -5.307311609229369 -1 0 0
1859 453 4 0 5.212389849408275 -1.4965080745663881 -4.303728455524739 -1 0 0
1393 298 4 0 -0.26601767313107416 -7.418134681750943 -3.5475513454079417 0 0 0
175 35 3 0 -0.14457922896437658 -7.428168540377945 -3.184761242958583 1 0 -1
1392 298 2 0 -0.146009511584829 -7.408446337422628 -3.9950223203623088 0 0 0
1394 298 4 0 -0.02901290850786431 -7.396011380288481 -4.430119417252516 0 0 0
171 35 1 0 -0.30791497044721083 -7.308677888938761 -2.7850455710684834 1 0 -1
172 35 3 0 -0.6285237969773725 -7.0053600828187985 -2.836054942320457 1 0 -1
650 130 3 0 -0.770323604154922 -5.721802724229329 -4.531347867331053 0 1 0
1663 388 4 0 -0.07195417588995312 -6.366780137908972 -4.2605546487190695 0 0 0
647 130 3 0 -0.1124900946386429 -6.080195765646184 -4.563245782391084 0 1 0
1662 388 2 0 0.31444723415637554 -6.295569631723093 -3.99993979494813 0 0 0
1664 388 4 0 0.7075059465987792 -6.231077353228902 -3.7586131346238263 0 0 0
1034 207 3 0 0.8711620536578533 -6.555589314735888 -3.6472614465149125 0 0 1
1031 207 1 0 1.2643559753941975 -6.350441548645645 -3.463446470542145 0 0 1
1035 207 3 0 1.6318132349554801 -6.629734843640193 -3.549668528818497 0 0 1
1690 397 4 0 1.9980881827896777 -6.496711138864201 -3.4927554923090174 0 1 0
1032 207 3 0 1.3364456575859496 -5.936825896560016 -3.6444848938355072 0 0 1
1033 207 3 0 1.2173122381096295 -6.306072462374919 -3.039247234379329 0 0 1
1689 397 2 0 2.438967058170441 -6.520538667994405 -3.461250726785015 0 1 0
1691 397 4 0 2.8983706376417278 -6.5468993447998765 -3.4299870010567695 0 1 0
327 66 3 0 3.097535005657029 -6.487651096444208 -3.1102738539006314 0 0 0
326 66 1 0 3.4978033216243976 -6.285261044210718 -3.0125375444273397 0 0 0
329 66 3 0 3.4197371439998197 -5.829577690781024 -2.879172040097915 0 0 0
1316 272 4 0 3.516979260492718 -5.460706816577074 -2.784968573793776 -1 0 0
328 66 3 0 3.778381346563263 -6.287240615694717 -3.3867591059545994 0 0 0
1886 462 4 0 4.147684638261776 -6.1739734758508 -3.50612702306848 -1 1 1
1884 462 2 0 4.354054899944066 -5.830738440085582 -3.709121118550205 -1 1 1
1885 462 4 0 4.572065965099272 -5.468098913237509 -3.9121902333495457 -1 1 1
1314 272 2 0 3.9208402927930663 -5.197033283668043 -2.8244346679910066 -1 0 0
863 173 3 0 4.764463116983688 -5.216031113416118 -3.648207792854313 -1 0 1
52 11 3 0 -7.881364067645335 -3.840788793967109 -3.261163492241531 1 0 -1
1949 483 4 0 -7.874269578679259 -3.4778442930545177 -3.407441816907526 1 1 0
51 11 1 0 -7.745670164678125 -4.09905102772181 -2.9101986570042824 1 0 -1
55 11 3 0 -7.323265494696482 -4.155680645371841 -2.92487098988945 1 0 -1
54 11 3 0 -7.936229008769406 -4.480480594358442 -2.9265251551300597 1 0 -1
1674 392 2 0 4.793758599211332 -4.1943806026830694 -4.577986716888017 0 1 0
861 173 1 0 4.744319520197477 -4.788391278946141 -3.509984219284675 -1 0 1
1315 272 4 0 4.308482822022832 -4.935323074499984 -2.872927113104507 -1 0 0
864 173 3 0 4.601675966460805 -4.526497386054286 -3.852562737592219 -1 0 1
862 173 3 0 4.451912135050016 -4.761212323637403 -3.1732461735159356 -1 0 1
1675 392 4 0 4.63077858507488 -4.247436869451014 -4.1531003047795085 0 1 0
865 173 3 0 5.145805161091925 -4.656124840819119 -3.3727904199534784 -1 0 1
1947 483 2 0 -8.08045917348067 -3.071116265109099 -3.271813712210797 1 1 0
1948 483 4 0 -8.273363514382636 -2.6758086794483855 -3.1439506999814464 1 1 0
734 147 3 0 8.074060955853032 -2.533265999567422 -2.9635925493626774 -1 0 -1
1785 429 2 0 2.8266265312209544 -0.8379470337045802 -4.551374295083223 -1 0 0
732 147 3 0 7.901845208133452 -1.8099433639685936 -2.9254866671360444 -1 0 -1
1010 202 3 0 -6.243075006277391 -0.06624270964457146 -3.074206679738622 0 1 0
596 120 1 0 -4.6319964322157325 -0.4856992351362459 -3.816999081365455 1 -1 0
599 120 3 0 -4.610669634089939 -0.5027093125860223 -4.261302987658309 1 -1 0
1486 329 4 0 -4.9000499789591085 -0.006098803088194771 -3.315630956640603 1 0 0
600 120 3 0 -4.187536655308617 -0.46013539475089793 -3.6422643036327873 1 -1 0
598 120 3 0 -4.8397351154058335 -0.8655122257511554 -3.6558939776753068 1 -1 0
597 120 3 0 -4.876867312125428 -0.12032379186273445 -3.686538090787156 1 -1 0
675 135 3 0 3.580718110275079 -0.6297333375601877 -4.466637883507069 -1 1 0
1787 429 4 0 3.2240165649853427 -0.7650935387129509 -4.372116118055443 -1 0 0
1283 261 4 0 0.841436316042687 -6.34659089869937 -2.8944212898351314 0 0 0
635 127 3 0 0.18154966231458225 -7.122712897039376 -8.265606951698942 0 0 0
1901 467 4 0 6.684022942341409 -6.573925489863847 -8.271444320205248 0 0 1
1877 459 4 0 -4.385799818805242 -7.4266871522858064 -1.3781400085191704 0 1 0
1875 459 2 0 -3.9194873220461757 -7.36202352397082 -1.3854671269052323 0 1 0
363 73 3 0 -4.630084521827085 -7.364873317043651 -1.0587862878593421 0 0 0
362 73 3 0 -5.0670237232685285 -7.952095031868538 -1.0252335803606245 0 0 0
1876 459 4 0 -3.423884877345804 -7.2981896360798775 -1.401487428241051 0 1 0
149 30 3 0 -3.089019126413767 -7.375944933337399 -1.22049198936688 0 0 0
150 30 3 0 -2.4466777177788384 -7.385667767356669 -0.8709231270181599 0 0 0
148 30 3 0 -2.801132468931308 -8.014819715188436 -1.0375032865947427 0 0 0
146 30 1 0 -2.8589700095935777 -7.588122444954822 -0.9128417176583214 0 0 0
1250 250 3 0 -0.7496487843145871 -6.925288705355021 -1.3326855122513388 0 1 0
1389 297 2 0 -1.9737551297794917 -6.8215795134596 -0.9893850324299267 0 0 0
174 35 3 0 -0.47273060293635805 -7.662965744346435 -2.5739842903536854 1 0 -1
1253 251 4 0 -0.5888102623427143 -8.051554332234144 -2.5811692967951023 0 0 -1
173 35 3 0 0.015858452816392088 -7.132904198523903 -2.548517146154664 1 0 -1
868 174 3 0 8.250017977999068 -6.341117701856898 -2.6206179751195906 0 0 0
1591 364 4 0 -8.33447991053691 -5.515089536127702 -2.4534670475235902 1 0 0
1590 364 2 0 -8.19610687335359 -5.0999607556437585 -2.523579866133229 1 0 0
1193 239 3 0 -1.362125334074321 -5.835268762325958 -2.092553011223374 0 0 0
1191 239 1 0 -1.6294733711238258 -5.476485352740582 -2.25029858284309 0 0 0
1195 239 3 0 -1.9513614691380052 -5.400481890415908 -1.96847818146205 0 0 0
1285 262 4 0 -1.1657352455671495 -6.113846586430814 -2.3509645804768633 1 0 0
1284 262 2 0 -1.0628373232959447 -6.504605763620236 -2.5376480320727 1 0 0
1390 297 4 0 -1.6290467123854766 -6.622880799408237 -1.2048672302673307 0 0 0
1249 250 3 0 -1.2540672768130552 -6.440434297488919 -1.2081991983564588 0 1 0
1246 250 1 0 -0.8428106465233283 -6.504334361071363 -1.3489382863797479 0 1 0
1194 239 3 0 -1.3856128287795242 -5.114009149811549 -2.290329635337482 0 0 0
1192 239 3 0 -1.798738278735394 -5.5870337913498425 -2.6450946773602952 0 0 0
1248 250 3 0 -0.5494361604003046 -6.273294776865466 -1.0684571854182243 0 1 0
1282 261 4 0 0.13696741457252237 -6.738174365568733 -2.515389869954344 0 0 0
1247 250 3 0 -0.8133020298109859 -6.35015574336396 -1.772318142888146 0 1 0
1281 261 2 0 0.4792768344445175 -6.54307469575871 -2.705051002732235 0 0 0
915 183 3 0 2.00652058600463 -8.32351497241934 -0.5451737892727575 -1 1 0
330 66 3 0 3.6976354826208695 -6.492021077647951 -2.6866758819925725 0 0 0
870 174 3 0 7.569153841756004 -6.272417887470281 -2.328713179069238 0 0 0
1743 415 2 0 7.917851612188773 -6.1299868521571685 -1.0848306673096442 0 1 0
869 174 3 0 8.166127148353834 -6.222927535142373 -1.8771450460928039 0 0 0
1745 415 4 0 8.134317631372372 -6.186211255312763 -1.4644418566906232 0 1 0
867 174 3 0 8.00516923727626 -5.681087462200418 -2.357024816216124 0 0 0
866 174 1 0 7.9980471454188375 -6.125990044333912 -2.297629388543669 0 0 0
1678 393 4 0 -7.759156125647116 -3.9411411562914243 -2.1342246884435045 0 0 0
53 11 3 0 -7.863911933880392 -3.898971758280206 -2.5330762449724427 1 0 -1
1677 393 2 0 -7.958818940083132 -3.6092254624301487 -1.947525913525002 0 0 0
1592 364 4 0 -8.04163686957588 -4.6749073201262235 -2.594635276676227 1 0 0
69 14 3 0 5.391819235162231 -3.909539742475446 -1.4386068008227229 -1 0 0
1856 452 4 0 5.4627326434038235 -4.288450910972858 -1.4218176702172922 -1 0 0
67 14 3 0 6.028065387613925 -3.5574741896393096 -1.4856218566267012 -1 0 0
1854 452 2 0 5.406773024556788 -4.6047462250897855 -1.0776812001700415 -1 0 0
1460 320 4 0 6.399245610929146 -3.5940346144696376 -1.5982246770052555 0 0 0
66 14 1 0 5.579759880983474 -3.5104714998831836 -1.4490691248185978 -1 0 0
1458 320 2 0 6.813087545000606 -3.624908401879651 -1.4262918678031058 0 0 0
1459 320 4 0 7.219939620915815 -3.663426486287081 -1.2571395835678665 0 0 0
591 119 1 0 8.0543794801853 -3.419473951701921 -1.112280747627465 0 -1 0
595 119 3 0 7.568685625344013 -3.4707850913024485 -1.1497245253375157 0 -1 0
1679 393 4 0 -8.175964318791522 -3.26308150502025 -1.7475648618523634 0 0 0
68 14 3 0 5.45307816408997 -3.2905672275316196 -1.7968474003183257 -1 0 0
70 14 3 0 5.477335985233038 -3.2775266014430517 -1.076013384528565 -1 0 0
731 147 1 0 7.965446860573731 -2.1981836005178037 -2.680104380046556 -1 0 -1
594 119 3 0 8.21479077859048 -3.2498017614841572 -1.4861795355753467 0 -1 0
735 147 3 0 8.30454532156837 -2.137794503013673 -2.3830695459193167 -1 0 -1
593 119 3 0 8.160285075153698 -3.1484541850108476 -0.760149114238315 0 -1 0
1201 241 1 0 -6.320659411672205 -0.6633806296645002 -1.2079992147001555 0 1 0
1203 241 3 0 -6.536739758283662 -0.30343960457563135 -1.3770167835633433 0 1 0
1204 241 3 0 -6.498101694119466 -1.042436804149455 -1.3737731062193035 0 1 0
1202 241 3 0 -5.892315461001258 -0.6322965464064056 -1.3107514024606868 0 1 0
1234 247 3 0 -3.9184180466245895 -1.255583023566511 -2.45038024484922 1 0 1
1235 247 3 0 -3.415378866904108 -1.623108094562843 -2.0185377387883428 1 0 1
1233 247 3 0 -3.7446488317867637 -0.9754532602749579 -1.7684760247263291 1 0 1
1231 247 1 0 -3.582506774276329 -1.199953386845177 -2.149366865439883 1 0 1
1232 247 3 0 -3.2437067835422333 -0.9605285075083749 -2.332632896979563 1 0 1
1147 230 3 0 3.34472940862144 -0.5600721688262658 -1.0984809422467015 -1 1 1
94 19 3 0 2.8893707322241013 -0.13541698408500125 1.1152078261402938 -1 -1 0
960 192 3 0 5.440283325120845 -0.06743782834879752 -1.7860601261372198 -1 0 1
959 192 3 0 5.607895741580689 -0.1634136718925827 -1.0618503793681686 -1 0 1
1409 303 4 0 5.701311644830152 -0.5498585721508231 -1.0668311987093269 0 0 0
503 101 3 0 -7.189733126269653 -6.627118819509347 0.09665776929931802 1 0 1
1470 324 2 0 -7.976356753484889 -6.620941860877476 0.41867453801756227 1 0 0
1471 324 4 0 -7.5385519979786535 -6.670276674867007 0.31514823260759783 1 0 0
364 73 3 0 -5.35503450043729 -7.281653577711019 -0.9680524742007739 0 0 0
501 101 1 0 -6.80913311746005 -6.760836391946265 0.2453593314943614 1 0 1
502 101 3 0 -6.689557938617843 -7.144898279881496 0.039366093544673575 1 0 1
504 101 3 0 -6.8377311100526805 -6.835950176459403 0.6797963650046288 1 0 1
361 73 1 0 -5.005154617620576 -7.541467364168782 -0.8661950587546956 0 0 0
92 19 3 0 3.6397108093124597 -0.26961951623399294 1.1192656680823312 -1 -1 0
365 73 3 0 -4.95482392880057 -7.567181290313183 -0.4254808790605553 0 0 0
1643 381 4 0 -3.060118686861726 -7.882711293223437 0.6285227039208703 0 1 -1
1641 381 2 0 -2.9792143244504166 -7.780136487420911 0.2319522990342726 0 1 -1
147 30 3 0 -3.080842214541157 -7.568405858044782 -0.5277050352297499 0 0 0
1642 381 4 0 -2.8977170841711475 -7.665901142210743 -0.19902215716684246 0 1 -1
1343 281 4 0 -0.8013914241992142 -7.144515715209591 -0.9829577672710981 0 0 -1
1391 297 4 0 -2.3205469228381634 -7.01317673463116 -0.7817356057817584 0 0 0
1498 333 4 0 -0.8798837037624265 -8.221596661146627 0.6731718078184254 0 0 0
1341 281 2 0 -0.5544274582126194 -7.467705252894699 -0.8133479560282204 0 0 -1
1342 281 4 0 -0.30848576862633514 -7.794119710045754 -0.6504855637878038 0 0 -1
145 29 3 0 -0.36765570622391586 -8.183750108497364 -0.7429380748477481 0 0 0
144 29 3 0 0.2711578883752104 -8.215425602075658 -0.3727781380116415 0 0 0
1582 361 4 0 0.19062491106774537 -7.82518774662577 -0.28899887091001375 1 0 1
1581 361 2 0 0.44566441227767584 -7.5141701690530756 -0.07115066821743454 1 0 1
1583 361 4 0 0.7136039216241183 -7.207681156882648 0.1510156770838762 1 0 1
911 183 1 0 2.215867771203637 -7.961068144528917 -0.40775033058441057 -1 1 0
1244 249 3 0 0.7250670695263199 -6.98251065289545 0.5017947231405682 0 0 0
914 183 3 0 1.907749940054586 -7.653408096387873 -0.3669801653659004 -1 1 0
912 183 3 0 2.509628029563549 -7.837735763410426 -0.7155128893916718 -1 1 0
913 183 3 0 2.419707685681077 -8.030828947944057 -0.015329461918581089 -1 1 0
717 144 3 0 7.496131850558751 -6.83165423130195 -0.11724142801348414 0 0 0
1472 324 4 0 8.245717315462352 -6.5650190314140735 0.5258010967503424 0 0 0
133 27 3 0 -8.310697482302078 -5.178482407160111 0.3232125554677321 1 0 0
505 101 3 0 -6.4944835249331065 -6.438534918821442 0.1507008398651859 1 0 1