LAMMPS data file via write_data, version 19 Nov 2024, timestep = 2000000, units = lj

400 atoms
4 atom types
300 bonds
1 bond types
350 angles
2 angle types

-5 5 xlo xhi
-5 5 ylo yhi
-5 5 zlo zhi

Masses

1 1
2 1
3 1
4 1

Bond Coeffs # harmonic/omp

1 100 0.45

Angle Coeffs # harmonic/omp

1 100 180
2 100 109.471

Atoms # full

160 32 3 0 -2.8931490196853464 -4.09070081898306 -4.351273105626342 1 1 0
156 32 1 0 -2.455498928002993 -4.042635699745995 -4.244420567965442 1 1 0
340 80 4 0 -1.891574926021418 -4.59453442389794 -4.174455253834823 0 1 0
338 80 2 0 -1.7185216730508752 -4.940551207566869 -4.342803439367514 0 1 0
158 32 3 0 -2.2541034645436344 -4.442594147244721 -4.214517951809547 1 1 0
159 32 3 0 -2.430719081129096 -3.834606922019251 -3.8839494266276846 1 1 0
157 32 3 0 -2.256883388933883 -3.795957741254546 -4.57058189516654 1 1 0
143 29 3 0 -0.7060977314094433 -3.9594239925813546 -3.6867120091730814 0 1 0
141 29 1 0 -0.5091297457475814 -4.373593959109344 -3.673751245627846 0 1 0
144 29 3 0 -0.07484040116720862 -4.33457730508969 -3.7970368005235886 0 1 0
145 29 3 0 -0.7319958108837616 -4.6512847814958524 -3.9451066770855046 0 1 0
92 19 3 0 0.9466150002683118 -3.424057102076585 -3.956885329088966 0 0 1
91 19 1 0 1.0209031566218836 -3.8058325042979817 -4.22959421688539 0 0 1
94 19 3 0 0.8206863467940637 -3.7612034062907975 -4.603143906714121 0 0 1
93 19 3 0 0.8624260594621936 -4.1463580886404845 -4.039804647831382 0 0 1
95 19 3 0 1.4576368796568608 -3.8626944982657037 -4.287587706649553 0 0 1
37 8 3 0 3.160872651208243 -4.35551418147118 -3.452794752842555 -1 0 0
279 60 4 0 2.8049464221885083 -4.4190534940704005 -3.628646504335784 0 0 0
278 60 2 0 2.54541760494273 -4.732818877432143 -3.4526060347165712 0 0 0
38 8 3 0 3.8988023748275245 -4.313216707882088 -3.307039948832177 -1 0 0
36 8 1 0 3.502476901525315 -4.087879011079947 -3.2906770425633596 -1 0 0
39 8 3 0 3.5349151564147028 -3.711280616895427 -3.542043263074043 -1 0 0
331 77 4 0 3.7198548390093413 -3.381118319242596 -3.6066633534449113 0 1 0
149 30 3 0 4.89696857107768 -2.2080606972651275 -4.014204304040716 -1 1 0
147 30 3 0 4.240773776950446 -1.885430398610987 -4.086770162126013 -1 1 0
148 30 3 0 4.3564413547362415 -2.3844643163299493 -3.604741303388068 -1 1 0
146 30 1 0 4.5336834025927795 -2.0653028617180333 -3.7927289379029574 -1 1 0
329 77 2 0 3.9287139084373943 -3.009731797884159 -3.723892795203069 0 1 0
330 77 4 0 4.153110547201769 -2.608917187599266 -3.8475578854931127 0 1 0
150 30 3 0 4.643862206040509 -1.767886949059344 -3.4913231485932887 -1 1 0
289 63 4 0 -3.521391325175606 -0.16111073574318177 -3.538152408890088 0 0 0
247 50 3 0 -3.9239258652449878 -0.14205677828025032 -3.5743924780288294 1 0 0
287 63 2 0 -3.196002942941218 -0.28757421122717064 -3.800843406287999 0 0 0
288 63 4 0 -2.8745241645026556 -0.4043804061074827 -4.075021818292577 0 0 0
35 7 3 0 -2.6274334569313664 -0.4768754341710859 -4.380300547791844 0 0 0
34 7 3 0 -1.9147402836001293 -0.5443324457815771 -4.405368476537924 0 0 0
31 7 1 0 -2.2978937989742363 -0.7373684269948315 -4.499025710478277 0 0 0
33 7 3 0 -2.324911095393192 -1.1184618224002447 -4.279838732084275 0 0 0
32 7 3 0 -2.3190674143346204 -0.8147015556176214 -4.93318618053217 0 0 0
301 67 4 0 -1.5546039650390546 -0.4478273788171166 -4.275330780338221 1 0 1
130 26 3 0 0.0418731148984665 -1.1492574611200894 -4.63738834497222 0 0 1
128 26 3 0 -0.47106903036968717 -1.6931779307186552 -4.660247224544008 0 0 1
127 26 3 0 -0.6640424167215205 -1.0486569053648145 -4.373045149824361 0 0 1
126 26 1 0 -0.4132339000836551 -1.2617121882466091 -4.700186344652624 0 0 1
299 67 2 0 -1.3801458070727075 -0.26011052519694444 -3.9193381290371856 1 0 1
391 97 4 0 2.0612843701271495 -0.08427098978969577 -4.861864249542433 0 1 1
171 35 1 0 -3.3225278224975394 -3.9349228803533376 -2.29328363128389 0 1 0
172 35 3 0 -3.7139179736197576 -3.741415133124607 -2.3370647923715544 0 1 0
334 78 4 0 -4.106194927882044 -3.7515013597572024 -2.405957927572395 1 1 0
174 35 3 0 -3.3777143175265723 -4.3828907275800875 -2.2017111437072927 0 1 0
332 78 2 0 -4.346629118277588 -3.4148260894234124 -2.327121537895996 1 1 0
173 35 3 0 -3.09855754494809 -3.731489993371505 -1.9409976006745213 0 1 0
175 35 3 0 -3.084694332643065 -3.889948669505309 -2.6652098820363372 0 1 0
228 46 3 0 -2.1847206017852603 -3.868679917416718 -2.3263205589938365 0 1 0
226 46 1 0 -1.8907388968170127 -3.659576905967618 -2.5976380630204177 0 1 0
230 46 3 0 -2.0295841444702485 -3.6867321985276313 -3.014545752194607 0 1 0
327 76 4 0 -3.3445712538709578 -3.54722874192324 -1.701512281704086 0 1 0
142 29 3 0 -0.5259410584744455 -4.531906038847162 -3.2504288739392 0 1 0
254 52 2 0 -0.5243619101121663 -3.5204956719382747 -2.0480786393336747 0 0 0
255 52 4 0 -0.10322948713246 -3.4663296134435253 -2.108031483278537 0 0 0
227 46 3 0 -1.5102193601916705 -3.842129188986828 -2.562525540876094 0 1 0
256 52 4 0 -0.9623634004099717 -3.570075867066702 -1.9757318336677783 0 0 0
40 8 3 0 3.4198788840900867 -3.967875196607309 -2.8432306665519995 -1 0 0
333 78 4 0 -4.597918423343514 -3.067207337274815 -2.2455690327988425 1 1 0
23 5 3 0 -4.884093270580362 -2.8004755316195924 -2.388752761016273 1 0 0
271 57 4 0 4.938354829024069 -1.9567299489071186 -1.7499501647478763 0 0 -1
25 5 3 0 -4.855126087218398 -2.2742809345910118 -1.8948244816129547 1 0 0
229 46 3 0 -1.8599033186494032 -3.2080463759087476 -2.482832741062297 0 1 0
377 93 2 0 -1.6712966793120574 -2.430780983996429 -1.7639289261315312 0 1 0
379 93 4 0 -1.4395056916815105 -2.3779453559673582 -2.133584975780999 0 1 0
115 23 3 0 1.9068569248200182 -2.6320755311121915 -2.2465966215748914 0 0 0
113 23 3 0 2.4790809709489054 -2.2574537659333274 -2.0135121122946473 0 0 0
111 23 1 0 2.1453497306291487 -2.5543248532267913 -1.904195631468821 0 0 0
114 23 3 0 2.331196288700474 -2.9551487513810386 -1.7673405988946456 0 0 0
262 54 4 0 4.256839687375883 -2.7616840348421103 -1.737082197865629 0 0 0
22 5 3 0 4.667516572300187 -2.835799829644738 -1.7874116629972419 0 0 0
21 5 1 0 4.871605677765271 -2.5563823029365897 -2.1020963425001473 0 0 0
24 5 3 0 4.560502037135374 -2.3331598669805635 -2.3213441232369485 0 0 0
260 54 2 0 3.9960357440537284 -3.1622803245353044 -1.6341293553654324 0 0 0
248 50 3 0 -4.484040042706541 -0.22518748250092926 -3.0796504567366756 1 0 0
259 53 4 0 -4.87673355898853 -0.17283111695691042 -3.1561654412949185 1 0 0
320 74 2 0 0.9805874782350621 -0.7853631374364634 -3.3108992345816337 0 0 0
322 74 4 0 0.5353081619042437 -0.7914057985698795 -3.3133798182719754 0 0 0
321 74 4 0 1.4333955290936593 -0.7700703807989496 -3.3106261677313107 0 0 0
185 37 3 0 1.5791502019350203 -0.4834340135419825 -3.095068474293193 0 0 0
357 86 4 0 1.9626988705683113 -0.9107969731205331 -1.5841388673105818 0 0 0
356 86 2 0 2.1579471468894735 -0.635596228157321 -1.9101537683243917 0 0 0
358 86 4 0 2.3204986366970757 -0.38858593442530737 -2.2134104205793887 0 0 0
181 37 1 0 1.8146628512234817 -0.16275532485936603 -2.8650677978788943 0 0 0
184 37 3 0 2.034835330477704 -0.3627132364686243 -2.499322791504747 0 0 0
257 53 2 0 4.853201247755477 -0.48575814812174833 -2.960121473476841 0 0 0
298 66 4 0 4.231559434368582 -1.1353005457745542 -1.7234911492515919 -1 0 1
296 66 2 0 4.251999427277131 -1.0732676045878433 -2.183943130591714 -1 0 1
258 53 4 0 4.596826276471831 -0.7868299456127327 -2.773505936447835 0 0 0
297 66 4 0 4.274295387170961 -1.0162056161346056 -2.6269923355855593 -1 0 1
224 45 3 0 1.1884623168627984 -4.947437444566486 -2.9493159999902376 0 1 1
70 14 3 0 -1.215802629624458 -4.58083791573815 -1.762676604126161 0 0 0
68 14 3 0 -0.538307633762935 -4.496887969296249 -1.505503784521071 0 0 0
281 61 2 0 -1.3270804884172365 -3.623108045030781 -0.7950772434343768 0 0 0
283 61 4 0 -1.1986706003604515 -3.9978759658769234 -0.9176589153633642 0 0 0
67 14 3 0 -1.1124827188757023 -4.370427967367102 -1.0648414651727347 0 0 0
66 14 1 0 -0.951393258204791 -4.6277678403871905 -1.4046900532815174 0 0 0
75 15 3 0 2.765738418695524 -3.9182855585368728 -1.2501390870727667 0 0 0
71 15 1 0 3.2202047449695956 -3.856670569827351 -1.1637145225277556 0 0 0
73 15 3 0 3.410714564646673 -3.7035329819424954 -1.5131018122043305 0 0 0
72 15 3 0 3.2702889114923663 -3.556877996861914 -0.8166344459488907 0 0 0
74 15 3 0 3.409403929170399 -4.238734420209218 -1.052678730009596 0 0 0
309 70 4 0 3.5982519391860137 -3.6724783130402434 -0.2656574545730525 0 0 0
326 76 2 0 -3.5839018595184364 -3.209063895358661 -1.5002622183391454 0 1 0
43 9 3 0 -4.4610981495436 -2.092935407450691 -0.8147940197303323 0 0 0
300 67 4 0 -1.2170556891686244 -0.0719495468002167 -3.5574560948175273 1 0 1
45 9 3 0 -4.19454695418646 -2.6132873925128663 -0.374193142994142 0 0 0
41 9 1 0 -4.109533430861861 -2.327596636030296 -0.7260743944101664 0 0 0
328 76 4 0 -3.8202826850859792 -2.8718428903712936 -1.2982397869120383 0 1 0
42 9 3 0 -3.7674374648219606 -2.0524262176959485 -0.6163353493684943 0 0 0
44 9 3 0 -4.001199052011589 -2.562781282458558 -1.0768745558423793 0 0 0
89 18 3 0 -2.168752421127041 -2.6489746936172933 -0.2286023514282775 0 0 0
264 55 4 0 -2.56077278845856 -2.696764404901412 -0.06195151247280522 0 0 0
88 18 3 0 -2.031460290400112 -2.6074749207113155 -1.003153919440462 0 0 0
86 18 1 0 -1.8378649770155366 -2.550311822727725 -0.5664064019287061 0 0 0
378 93 4 0 -1.911002829771223 -2.4781667461927617 -1.3787166948007996 0 1 0
274 58 4 0 -1.8738769426903383 -1.842352659095974 -0.7561859836235968 1 0 0
282 61 4 0 -1.461789755881458 -3.2208834740960883 -0.6682962657480533 0 0 0
87 18 3 0 -1.493874194001581 -2.82017006494248 -0.5143837716241698 0 0 0
90 18 3 0 -1.7069261456212748 -2.1288384050020763 -0.5275600636115257 0 0 0
13 3 3 0 0.7328656055577057 -1.989055849955082 -0.12384018000287318 0 0 0
112 23 3 0 1.8960755366067705 -2.3901286719266013 -1.5762890441317574 0 0 0
325 75 4 0 1.998708207075754 -2.3719851783463404 -1.1922937990689089 0 1 0
324 75 4 0 2.071343301039353 -2.7730716047352195 -0.37241250598355785 0 1 0
323 75 2 0 2.0321343585385723 -2.5780101400400994 -0.7788879199254302 0 1 0
140 28 3 0 1.9426853492463778 -3.104677538107607 -0.2796784309743705 0 1 0
261 54 4 0 3.75832623867228 -3.529900813740917 -1.5421153972615154 0 0 0
308 70 2 0 3.885062490384361 -3.3381807535604424 -0.1628395776474499 0 0 0
310 70 4 0 4.15913162350036 -3.0194312866740627 -0.06226518751957432 0 0 0
83 17 3 0 -4.909410146346768 -1.1300234305198862 -0.8206858336278866 0 0 0
85 17 3 0 -4.800777708526672 -0.9974838782323818 -0.12657482689892308 0 0 0
210 42 3 0 -1.735776432329003 -0.09673521603559056 -0.7865348833874767 0 0 0
206 42 1 0 -1.7711938265529337 -0.39792610685678387 -0.4202387699062152 0 0 0
209 42 3 0 -1.6985239699023733 -0.8318507664667265 -0.5689206627814328 0 0 0
207 42 3 0 -2.2158798868309875 -0.36891614951290397 -0.23163315589421124 0 0 0
272 58 2 0 -1.6602117912321785 -1.4675890698377876 -0.7490693178416061 1 0 0
273 58 4 0 -1.428803442880136 -1.0538764043085578 -0.7373044221993575 1 0 0
208 42 3 0 -1.4742468708345695 -0.28980531983899566 -0.12092934102955959 0 0 0
7 2 3 0 1.2293916239867226 -1.6402899936956783 -1.5965960271743942 0 0 0
9 2 3 0 1.1901403528866799 -1.2772135681019874 -0.9719363890029319 0 0 0
8 2 3 0 0.8164458967071656 -1.0343227492264673 -1.5671837240851187 0 0 0
11 3 1 0 0.42351536120827155 -1.6964075769744607 -0.022034711560354473 0 0 0
6 2 1 0 1.203497751385042 -1.2422522176243294 -1.4182545991765558 0 0 0
12 3 3 0 0.23455018885549203 -1.520237155764724 -0.4144608653033889 0 0 0
10 2 3 0 1.5669311501448737 -1.0053553162568545 -1.5423412702313415 0 0 0
84 17 3 0 4.685477920309161 -0.6048870710131842 -0.48994827339517355 -1 0 0
81 17 1 0 4.9000260330099445 -1.0212715486772372 -0.4428579246821175 -1 0 0
269 57 2 0 4.9329900811088585 -1.604141812014866 -1.4651812980569967 0 0 -1
82 17 3 0 4.604928663763478 -1.3247308664797828 -0.3497046667655574 -1 0 0
270 57 4 0 4.928125705596212 -1.2387990017160868 -1.1679008585667516 0 0 -1
351 84 4 0 3.803208637214008 -1.3405228292174458 -0.21816977139030433 -1 0 0
97 20 3 0 2.8957689778672586 -4.243186669896861 -0.009800965152283994 -1 0 0
295 65 4 0 -2.4934583667514687 -0.6431311132823844 -0.09857660976713872 0 0 0
108 22 3 0 -4.026789926668162 -4.458015539926649 0.6996379406432435 0 0 0
316 72 4 0 -4.11790977986083 -3.5877735830752546 0.017888673738267146 0 0 0
110 22 3 0 -3.9626199878037327 -3.936057709257289 0.15639636597914366 0 0 0
107 22 3 0 -4.463426592021938 -4.4818745815285075 0.09618280075926883 0 0 0
106 22 1 0 -4.048899007386382 -4.381008371715544 0.241684556522379 0 0 0
137 28 3 0 1.5996384474696466 -3.430265332148395 0.28298413284462726 0 1 0
348 83 4 0 2.194103037101644 -4.132412702674276 0.007699111663936753 0 1 0
347 83 2 0 2.1240299020802063 -4.578156928906443 0.08643850610059066 0 1 0
100 20 3 0 2.985562952969931 -3.8781427959736083 0.6393594174679389 -1 0 0
96 20 1 0 3.201970549730401 -4.100534960022856 0.2966318690462221 -1 0 0
78 16 3 0 1.5671499124684931 -0.18142371478945293 3.406564470080252 0 0 0
139 28 3 0 2.2496020617958328 -3.7507327920364166 0.05910347130887621 0 1 0
136 28 1 0 1.9943575350134468 -3.32495520208087 0.12157272344259089 0 1 0
98 20 3 0 3.4191218175340627 -4.447206174167583 0.4553616998186393 -1 0 0
99 20 3 0 3.4936052776629265 -3.8231800044857525 0.08765156896820128 -1 0 0
314 72 2 0 -4.216920645004746 -3.135511127804492 0.024060395520084148 0 0 0
18 4 3 0 -3.092741254326044 -1.9595940085979824 0.5107768021872484 0 0 0
20 4 3 0 -3.3130768654151725 -1.6384831435395506 1.1289201522766377 0 0 0
16 4 1 0 -3.20655887845163 -1.5679173476346762 0.703425762689356 0 0 0
265 55 4 0 -3.1904096950458967 -2.3738638301572133 0.4643888650988127 0 0 0
263 55 2 0 -2.8890242892919606 -2.5289511728011704 0.20866383662087903 0 0 0
15 3 3 0 0.09894065478672179 -1.9069426104478835 0.21399216729542495 0 0 0
138 28 3 0 2.1954544652189876 -3.0737577015987703 0.4043166643838015 0 1 0
312 71 4 0 3.114128341004905 -2.39426496155213 1.5436023450090262 0 0 0
237 48 3 0 2.7765619588807655 -2.200478108757297 1.5820064178092554 0 1 0
311 71 2 0 3.421002004878395 -2.6067289806027794 1.351718355732893 0 0 0
352 84 4 0 4.254176643223134 -1.7553734206635483 0.47064377789968703 -1 0 0
104 21 3 0 4.15652213885641 -2.181848601933385 0.4998825578693688 0 0 0
105 21 3 0 4.326495155805636 -2.8361076056450485 0.2356492980688068 0 0 0
103 21 3 0 4.034492964754455 -2.7525695531521204 0.8744124177089396 0 0 0
101 21 1 0 4.300724010916624 -2.579520286076953 0.6117599460889566 0 0 0
313 71 4 0 3.7689457095297434 -2.84016236872631 1.1427974455258998 0 0 0
102 21 3 0 4.697699331918726 -2.5397603225998204 0.7897141984717276 0 0 0
17 4 3 0 -3.5577441734925483 -1.3878964036687498 0.490474959209649 0 0 0
375 92 4 0 -3.931532489238561 -1.4270600391616162 0.6550650626848507 0 0 0
374 92 2 0 -4.285556548955312 -1.2594665531964886 0.43864501384054183 0 0 0
376 92 4 0 -4.6382480082105895 -1.0911604188478492 0.218317381886164 0 0 0
19 4 3 0 -2.8573330365074954 -1.2957082912162485 0.6854914509838439 0 0 0
294 65 4 0 -2.5712002925993334 -1.0064050384535679 0.7186875611231774 0 0 0
293 65 2 0 -2.529736047702103 -0.8270431131338913 0.31103739821367804 0 0 0
131 27 1 0 1.833975345906823 -1.1258369871619291 4.022020683094938 0 0 0
14 3 3 0 0.6077912153762172 -1.3709371519259002 0.22682058822661413 0 0 0
350 84 2 0 4.031994124314592 -1.549640897361243 0.1354831720022059 -1 0 0
56 12 1 0 -3.5991697304674637 -4.8915441566242785 3.165989481073256 0 0 0
60 12 3 0 -4.015983643935372 -4.813709784313779 2.9646110997184407 0 0 0
59 12 3 0 -3.2805477777962584 -4.890300764316689 2.856213405853042 0 0 0
197 40 3 0 -2.9623678128977073 -3.9125151271702405 2.292268762428619 0 0 0
196 40 1 0 -2.585590974788212 -3.69164754468806 2.244824401134218 0 0 0
200 40 3 0 -2.551083334156254 -3.5702223223180978 1.845714630607704 0 0 0
199 40 3 0 -2.263601240833676 -3.9537167863000637 2.339073542362464 0 0 0
118 24 3 0 1.2337573959080317 -3.5171217603430445 2.9471825680923565 0 0 0
119 24 3 0 1.9379835078793495 -3.3850258510053144 2.9988417706299946 0 0 0
234 47 3 0 -3.508799917490209 -2.4689782150072634 3.0782974412981394 1 1 0
198 40 3 0 -2.5833724689876942 -3.3387613201178628 2.4992920844335047 0 0 0
304 68 4 0 1.8162524484390477 -3.0845625960382392 2.778005571018875 0 0 0
302 68 2 0 1.9586318234504008 -2.7882475270513614 2.485425193345601 0 0 0
303 68 4 0 2.101639508028378 -2.4951614743141586 2.177530768764144 0 0 0
239 48 3 0 2.120160243155521 -2.188930917612841 1.9149332624908562 0 1 0
236 48 1 0 2.5226548680550533 -1.9681689774457953 1.8699782755332393 0 1 0
240 48 3 0 2.7123555834844515 -1.9485394549868484 2.2660120683629748 0 1 0
291 64 4 0 3.036335027052217 -1.8149297900031829 2.4657022223182166 -1 0 0
290 64 2 0 3.231506365941027 -2.0939452387780455 2.740038309088032 -1 0 0
49 10 3 0 4.335158064238685 -2.7384578368584083 2.713740490611122 0 0 -1
48 10 3 0 3.8413770601760766 -2.381026982747386 3.1099697584417743 0 0 -1
292 64 4 0 3.4242543909502556 -2.3967516791248253 3.0368916352205546 -1 0 0
46 10 1 0 4.085816650853576 -2.767282036505285 3.0676605104404424 0 0 -1
50 10 3 0 3.8081088361476647 -3.1044999838868024 3.023895563256523 0 0 -1
243 49 3 0 -0.6320204513855686 -0.3401763586911418 3.1813292231966623 0 0 0
80 16 3 0 1.3658210834181308 -0.28701604887699755 2.7554632493925175 0 0 0
238 48 3 0 2.4503504790869512 -1.5367795132646895 1.711243869490841 0 1 0
275 59 2 0 -3.4476137623073178 -3.750016435426842 3.586270608090117 0 0 -1
277 59 4 0 -3.4233491289128346 -4.206933803534117 3.576101016344084 0 0 -1
58 12 3 0 -3.5159098927470467 -4.562977284872059 3.489125265401923 0 0 0
116 24 1 0 1.5650911787327062 -3.4754472211046896 3.221772993968449 0 0 0
120 24 3 0 1.6121718117319381 -3.868525414817247 3.4476206746277374 0 0 0
276 59 4 0 -3.4749795883149033 -3.2776453593746497 3.601320175898963 0 0 -1
232 47 3 0 -3.435912826355001 -2.882678067267618 3.684904639689104 1 1 0
231 47 1 0 -3.434041665316548 -2.452009973643842 3.513958261556361 1 1 0
235 47 3 0 -3.77192333419405 -2.210239202488018 3.711221031079267 1 1 0
233 47 3 0 -3.0508504058020356 -2.2585054858253297 3.595280323902639 1 1 0
117 24 3 0 1.4765034706473847 -3.130486549041736 3.5264851011724385 0 0 0
306 69 4 0 1.3989263469927529 -2.989569259022613 3.8901467628020394 0 0 0
307 69 4 0 1.4428740613807314 -2.855771003357478 4.797398943598767 0 0 0
305 69 2 0 1.4172537336163642 -2.919475125105389 4.361290436775058 0 0 0
47 10 3 0 4.3555385316644974 -2.8284421422117245 3.4413576240905686 0 0 -1
129 26 3 0 -0.5432867818769465 -1.13999251654598 4.907094225066626 0 0 0
318 73 4 0 1.3163681820064925 -0.5518467538199422 4.120319429204894 0 0 0
134 27 3 0 1.6151437287706458 -1.456409096438167 4.201496450454479 0 0 0
317 73 2 0 1.1363581117283406 -0.157325989263663 4.286619354038963 0 0 0
135 27 3 0 1.5494355792164034 -0.7912570213582699 3.8892595688655636 0 0 0
133 27 3 0 2.0625865200015054 -1.2780668005999927 3.6503376055960173 0 0 0
132 27 3 0 2.118803381134809 -0.9570209572565528 4.307660061491075 0 0 0
390 97 4 0 2.298761972875885 -0.7402954252100395 4.584227153636497 0 1 0
389 97 2 0 2.1857525614524587 -0.4155074820522992 4.856887381034945 0 1 0
109 22 3 0 -3.7154138559920384 -4.655342216504528 0.013798211626019534 0 0 0
315 72 4 0 -4.310215273784603 -2.6858588272395965 0.018241566769518193 0 0 0
178 36 3 0 -4.52412889109286 1.037293344994649 -4.678163137156679 1 0 0
176 36 1 0 -4.744489117186317 1.41844789052138 -4.665619662140935 1 0 0
250 50 3 0 -4.50833882941641 0.33503831353322344 -3.53700062319416 1 0 0
246 50 1 0 -4.244197681474346 0.07497705071928319 -3.2922189394127668 1 0 0
69 14 3 0 -0.9379151509393393 4.945382983712646 -1.2854121814205792 0 -1 0
161 33 1 0 0.4251253362024522 1.1007304682105525 -1.4633239286416087 0 0 0
2 1 3 0 2.2525377831069986 0.5456073498140747 -4.456282603246675 0 0 0
1 1 1 0 2.213227481188628 0.6280003069163421 -4.88704165163573 0 0 0
251 51 2 0 2.291162783285809 0.4590306012580578 -3.7641281552501473 0 0 0
252 51 4 0 2.498138543572416 0.6139671622432389 -4.131966692155653 0 0 0
354 85 4 0 0.9822472283913352 0.5543685362356382 -1.688799762847667 0 0 0
253 51 4 0 2.091592022973399 0.31271015025625853 -3.3994106871750707 0 0 0
180 36 3 0 4.91114439664206 1.3883019152425744 -4.383547297529689 0 0 0
179 36 3 0 -4.470288762091626 1.750239204579071 -4.519092389023349 1 0 0
367 89 4 0 -4.0847107661990645 1.8712684972728248 -4.50848501779923 1 0 0
365 89 2 0 -4.040112425408183 2.2845436884870365 -4.6718575313620185 1 0 0
373 91 4 0 1.6058232956313925 2.3829297873393385 -4.699803624710096 0 0 1
371 91 2 0 1.7838061968192978 2.58564211605931 -4.367028013047234 0 0 1
372 91 4 0 1.979386911080306 2.8177569623942236 -3.99623526706891 0 0 1
393 98 4 0 2.02433700672355 2.917946203726396 -3.5900779861259977 -1 0 1
392 98 2 0 2.4497582236322586 2.817157057934385 -3.447147739489064 -1 0 1
51 11 1 0 -3.9919641547236333 3.872157039393654 -4.269463863340853 1 -1 0
53 11 3 0 -4.253031799893531 4.164789394849529 -4.418846332496741 1 -1 0
55 11 3 0 -3.744689366012653 4.049155880176721 -3.8934302873552307 1 -1 0
54 11 3 0 -4.2238370140655395 3.503778376157757 -4.133083803388101 1 -1 0
52 11 3 0 -3.7062393938556295 3.7533345202067276 -4.585261578123911 1 -1 0
125 25 3 0 -1.6195389962067397 3.7895136416022184 -4.078753212249438 0 0 1
122 25 3 0 -1.9360808412941355 3.6402794890930994 -4.7319431436425905 0 0 1
124 25 3 0 -1.7054363468617582 4.316612212837059 -4.557302946098541 0 0 1
121 25 1 0 -1.6180928441504272 3.8887625531687466 -4.510609743630696 0 0 1
387 96 4 0 -2.2174307194819205 3.3785442643006585 -4.893546601050069 0 0 1
339 80 4 0 -1.5424877409229123 4.676640509848955 -4.528609208765295 0 0 0
123 25 3 0 -1.2109332658977783 3.7998658854094653 -4.680350740370542 0 0 1
223 45 3 0 1.4794482840280445 4.959567933585525 -3.632741814557042 0 0 1
249 50 3 0 -4.031525066263127 0.3329599635328467 -2.990029883804963 1 0 0
192 39 3 0 -1.2651780157587333 0.15051128319361923 -3.22015625111023 0 0 1
193 39 3 0 -1.6109304968593396 0.011755530499422968 -2.591673330277831 0 0 1
195 39 3 0 -1.2495037942648368 0.6468706713772719 -2.692417562693416 0 0 1
342 81 4 0 -0.7808594499277418 0.22060820644896523 -2.2989204921861663 0 0 0
341 81 2 0 -0.518450764745536 0.5274300365183465 -2.056120931912829 0 0 0
191 39 1 0 -1.2552344096304768 0.20645238845071523 -2.783085385836776 0 0 1
194 39 3 0 -0.8894772678832156 0.008737315449941087 -2.62394041822949 0 0 1
343 81 4 0 -0.27561280634511304 0.8158185974071911 -1.8321324080423864 0 0 0
353 85 2 0 1.2122180867971541 0.4970098398959101 -2.0661056120934504 0 0 0
355 85 4 0 1.438132572618738 0.44643118924232217 -2.4216886942638176 0 0 0
182 37 3 0 1.5284802088252338 0.1801723665144578 -2.7102050423242905 0 0 0
183 37 3 0 2.1519845721772626 0.013305498388549135 -3.1574340889619985 0 0 0
213 43 3 0 -0.32716597860117386 2.626327373287248 -3.1058843874428126 0 0 0
215 43 3 0 -0.5076449752027479 1.972740731276825 -3.2696888319993103 0 0 0
211 43 1 0 -0.45634148480190906 2.2490209311525353 -2.9526769862612805 0 0 0
212 43 3 0 -0.8363199181903489 2.3013219423368283 -2.746502015375747 0 0 0
214 43 3 0 -0.1338199222466287 2.081375930970592 -2.6384263668865153 0 0 0
364 88 4 0 0.5096627907536988 1.72093541350027 -1.98229634798022 0 0 0
363 88 4 0 0.04096122893600676 2.3640026347837484 -2.41657421187163 0 0 0
362 88 2 0 0.28392881571574 2.0388285150664767 -2.194882829272476 0 0 0
394 98 4 0 2.858643168670025 2.713940723114659 -3.3089771934947048 -1 0 1
346 82 4 0 3.2320164628856105 2.6466162808103366 -3.2126270352262614 -1 0 0
344 82 2 0 3.5049763965481606 2.8647115653476916 -2.912213669510238 -1 0 0
345 82 4 0 3.765137386391254 3.0790918384855788 -2.6307002128451944 -1 0 0
168 34 3 0 4.11416213840313 3.2342057054903073 -2.6110221636561572 -1 0 0
167 34 3 0 3.840186728939693 3.1356262982750085 -1.9111644257963407 -1 0 0
166 34 1 0 4.177357164829215 3.332374137402163 -2.1535229061164896 -1 0 0
170 34 3 0 4.557196660340597 3.1785190833404977 -2.020204622818907 -1 0 0
162 33 3 0 0.49741975836853025 1.5416282330641375 -1.6233065557516775 0 0 0
221 45 1 0 1.5253456283043296 4.84352720380466 -3.2070711742530307 0 0 1
222 45 3 0 1.485743580747505 4.418402887860091 -3.1618960971826544 0 0 1
225 45 3 0 1.9448590385998887 4.98758351652055 -3.046518897154419 0 0 1
280 60 4 0 2.272646547837438 4.944718699724903 -3.280058608398087 0 -1 0
169 34 3 0 4.16487898148884 3.7694364480641385 -2.0968320794593804 -1 0 0
165 33 3 0 0.016156620369765385 0.959374298516583 -1.58229317763708 0 0 0
164 33 3 0 0.45484786450902104 1.097874849715781 -0.989640897285546 0 0 0
163 33 3 0 0.7175919055349984 0.8422295145866726 -1.624830888314375 0 0 0
4 1 3 0 1.8768959759431065 0.9049636369842352 -4.965287667402282 0 0 0
188 38 3 0 -3.6537005849615314 2.870082875345858 -4.970998350656346 0 0 1
366 89 4 0 -3.9919023192472625 2.692854802199594 -4.829020254210643 1 0 0
335 79 2 0 -1.0805642239239441 2.8793254875190044 1.5240366800696552 0 0 -1
336 79 4 0 -0.9712466472202431 3.1560149339661137 1.229746532721795 0 0 -1
285 62 4 0 -0.36004927836860384 2.1238180446870056 1.6776829788712302 0 0 -1
359 87 2 0 1.1839351840070327 2.32413998794494 1.0031766477940585 0 0 -1
360 87 4 0 0.7805380950392107 2.261262318064745 1.1944225492366196 0 0 -1
286 62 4 0 0.4006736997704504 2.1748483605071818 1.1749359859606705 0 0 -1
361 87 4 0 1.608507882485867 2.394683060363942 0.8042552907852439 0 0 -1
284 62 2 0 0.02298921101802896 2.1424652687543464 1.4326888721914612 0 0 -1
29 6 3 0 1.343924501613245 4.831595007323608 0.6904546999884467 0 -1 0
30 6 3 0 1.4822231863438382 4.144416984464829 0.5784401982997909 0 -1 0
28 6 3 0 1.8696146249465173 4.49235306918485 1.0827546813197917 0 -1 0
26 6 1 0 1.6632302370096483 4.5263869913038715 0.6760650059074058 0 -1 0
349 83 4 0 2.056729942972993 4.9863431916828125 0.16842627808115962 0 0 0
27 6 3 0 1.989398308575396 4.646820496720519 0.33962342991420397 0 -1 0
268 56 4 0 -0.6729012494865 0.3695845491654013 2.3272942485683488 0 0 -1
266 56 2 0 -0.7740448557999642 0.7971593729735089 2.152493455850382 0 0 -1
242 49 3 0 -0.6161713503755173 0.03600233091028433 2.5311801948726744 0 0 0
267 56 4 0 -0.8742661008078351 1.2085527586225167 2.00360140109915 0 0 -1
63 13 3 0 -0.9883310352625774 1.5113913177268823 2.245126982174156 1 0 -1
241 49 1 0 -0.6686945642005632 0.05475952232682569 3.010859964665107 0 0 0
245 49 3 0 -1.0811929628815697 0.22050235901153292 3.115932227189958 0 0 0
244 49 3 0 -0.36150564486770426 0.32310305913374293 3.1834679332719378 0 0 0
76 16 1 0 1.4569370706592153 0.011756302731965073 3.0449755540104086 0 0 0
77 16 3 0 1.7934171074196177 0.28050523460543286 2.895316724579254 0 0 0
337 79 4 0 -1.206399501076032 2.581642644779207 1.8383155539250513 0 0 -1
65 13 3 0 -0.39423221567697964 1.8829731046629439 2.0081846684100477 1 0 -1
64 13 3 0 -1.050637859111956 2.1928220392573032 1.941462024125609 1 0 -1
61 13 1 0 -0.7918164423663798 1.9267335942658463 2.2008707320881014 1 0 -1
62 13 3 0 -0.74458553421793 2.0937205798127865 2.5689931585875923 1 0 -1
370 90 4 0 -0.7831858551173877 2.0981861105623696 2.9987640895105865 0 0 0
217 44 3 0 -4.868741875845231 1.0578830471627765 4.557061349577724 1 0 0
216 44 1 0 -4.581007467528033 1.243873389840197 4.2467005273840135 1 0 0
220 44 3 0 -4.192577181518738 1.1282652021482509 4.332648844500874 1 0 0
218 44 3 0 -4.696441048615395 1.1072102976470735 3.8460264804848077 1 0 0
385 95 4 0 -0.042302720762491246 0.22516285775749878 3.34328206353412 0 0 0
384 95 4 0 0.8271675057886129 0.166685057736035 3.411417664759071 0 0 0
383 95 2 0 0.3950873460073328 0.1947797086239 3.3713590657824724 0 0 0
319 73 4 0 0.9537123095843374 0.22279417396803874 4.450041655097943 0 0 0
395 99 2 0 1.360360029859092 1.2397267548479778 4.72710989082572 0 0 0
79 16 3 0 1.0902978418364375 0.25962495871061364 3.1092575874248554 0 0 0
5 1 3 0 2.5992119486288434 0.8112689478234475 4.953096373791106 0 0 -1
386 96 2 0 -2.5860353278936703 3.499902261312518 4.848581343486085 0 0 0
177 36 3 0 -4.9053292504013575 1.5145533171041634 4.91498943412786 1 0 -1
219 44 3 0 -4.603573739054975 1.6987957652028478 4.25635326226305 1 0 0
381 94 4 0 -4.365173828815407 2.02038232026462 4.087112843579964 0 0 0
380 94 2 0 -4.090057568383728 2.392174668161374 4.001824985274341 0 0 0
382 94 4 0 -3.8182491154434746 2.7562037840111597 3.9281058165456226 0 0 0
186 38 1 0 -3.6325105949652543 3.1516938827765477 4.663534275669183 0 0 0
189 38 3 0 -3.786078386643763 2.9361362249647254 4.285084811555371 0 0 0
190 38 3 0 -3.177855430200249 3.2872007523347313 4.596700363740471 0 0 0
388 96 4 0 -2.9436787332870127 3.610403221117566 4.595379446987446 0 0 0
368 90 2 0 -0.5514435582094416 2.1879571939581095 3.372262192319054 0 0 0
369 90 4 0 -0.32667181878301826 2.2809344549577437 3.7471496100599255 0 0 0
152 31 3 0 -0.5027798361412895 2.5567959723652987 3.950221525372637 0 0 -1
151 31 1 0 -0.622047580089895 2.8761297676767237 4.195329260639434 0 0 -1
155 31 3 0 -0.7463705139878463 2.716049299450526 4.620156336384285 0 0 -1
153 31 3 0 -0.25611833799818196 3.1983044442863897 4.232263871427792 0 0 -1
154 31 3 0 -0.9761690336861293 3.0691935680568436 4.000582182176915 0 0 -1
396 99 4 0 1.2094434634802993 1.6503263142267595 4.58126101686893 0 0 0
399 100 4 0 0.054289922412315055 3.3428371112612383 4.411134843768616 0 0 0
398 100 2 0 0.47654794886634966 3.163798064386032 4.3954834419804305 0 0 0
400 100 4 0 0.8880457259769494 2.9807442488066247 4.3782276982177155 0 0 0
203 41 3 0 1.0078685490131285 2.6734101883292603 4.644428697741638 0 0 0
202 41 3 0 1.1944875029536115 2.009223338232888 4.371224858141897 0 0 0
201 41 1 0 1.3479849754931261 2.4086507195126257 4.534229901235373 0 0 0
204 41 3 0 1.6085842091754796 2.3343542899445775 4.904398973725191 0 0 0
205 41 3 0 1.5862651762590827 2.604012736082272 4.221160052750686 0 0 0
187 38 3 0 -3.887797622063818 3.4959887513283765 4.751883781421581 0 0 0
57 12 3 0 -3.6109813938304463 4.70441281191283 3.3715364653562068 0 -1 0