LAMMPS data file via write_data, version 4 Feb 2025, timestep = 11833330, units = lj

6000 atoms
4 atom types
4500 bonds
1 bond types
5250 angles
2 angle types

-12.037717 12.037717 xlo xhi
-12.037717 12.037717 ylo yhi
-12.037717 12.037717 zlo zhi
-0.0002407543399840506 0 0 xy xz yz

Masses

1 1
2 1
3 0.1
4 0.1

Bond Coeffs # harmonic/omp

1 100 0.45

Angle Coeffs # harmonic/omp

1 100 180
2 100 109.471

Atoms # full

2567 514 3 0 -6.371606795822578 -11.719711924978174 -11.969055622196754 15 1 1
2566 514 1 0 -6.423418353977968 -11.412887277871612 -11.63558838117768 15 1 1
2569 514 3 0 -6.043627347129985 -11.353832897130916 -11.418342793610565 15 1 1
2568 514 3 0 -6.7372420964919435 -11.547823601190748 -11.349752517666778 15 1 1
4855 1119 2 0 -5.454532935685942 -11.895107413494168 -11.473713897783533 17 1 0
4856 1119 4 0 -5.824895764659822 -11.668667465929655 -11.317936007656915 17 1 0
2570 514 3 0 -6.562706448034565 -11.010495195771522 -11.820964674092755 15 1 1
604 121 3 0 12.01990426788366 -10.370390369628193 -11.609070989494997 2 0 0
3857 786 4 0 -11.338432932151514 -9.913857143350315 -11.688945303726289 3 0 0
605 121 3 0 -11.682911888656562 -9.78889033078239 -11.877164112445936 3 0 0
3856 786 2 0 -11.009032146178384 -9.839589110803566 -11.381490932487104 3 0 0
603 121 3 0 11.850168273962929 -9.67917610376485 -11.428598376356975 2 0 0
601 121 1 0 11.991326294911484 -9.934748454467522 -11.752532876511681 2 0 0
2454 491 3 0 11.254669475722192 -0.6694237513883845 -4.872109504214738 9 0 0
456 92 1 0 -11.437781807022754 -8.50908986638869 -11.216074862627677 4 0 0
459 92 3 0 -11.440574892123642 -8.920491103807285 -11.410275028595168 4 0 0
42 9 3 0 3.761890361398148 -8.960629887941797 -11.351926006623195 3 0 0
458 92 3 0 -11.667186182195378 -8.22883269595415 -11.45587214054705 4 0 0
4011 837 4 0 -10.91006379573082 -8.1608929592765 -11.524214595293326 4 0 0
4009 837 2 0 -10.580498349819294 -7.932600337240627 -11.769590113995115 4 0 0
457 92 3 0 -10.99297683263608 -8.37211835988043 -11.190204177910205 4 0 0
4010 837 4 0 -10.272065090640805 -7.71415701856748 -11.998118116068895 4 0 0
1902 381 3 0 -9.893563230269988 -7.737951170187529 -11.916824060126872 4 0 1
3968 823 4 0 -9.572789247473427 -8.007818167415262 -11.343443012024283 4 0 0
1903 381 3 0 -9.292213685563535 -8.107178846518245 -11.628650360975263 4 0 1
5874 1458 4 0 6.968990500971557 -8.185088255713334 -11.764220181522465 13 1 1
3260 652 3 0 6.686285570134601 -8.367489254961072 -11.983074376386321 13 1 1
5872 1458 2 0 7.26916889805149 -8.035694160042716 -11.466243092653917 13 1 1
5873 1458 4 0 7.566168999329683 -7.886102579376614 -11.170196196284202 13 1 1
279 56 3 0 3.8992083345104316 -6.883152674887449 -11.899661072083035 4 0 0
487 98 3 0 7.775476204488722 -6.8972730539301095 -11.29669999815136 4 0 0
5804 1435 4 0 11.539292869582109 -6.768628934582724 -11.31216805448215 14 1 1
2298 460 3 0 11.915593972602732 -6.718630010376919 -11.404472807068196 12 1 0
2299 460 3 0 -11.516761323714556 -6.341110323464131 -11.313226930504385 13 1 0
4489 997 2 0 -10.64604388553608 -6.2238965495493535 -11.446256800564361 5 0 1
4490 997 4 0 -11.09438672474874 -6.329285467536775 -11.41513826337425 5 0 1
4491 997 4 0 -10.226893957543371 -6.123059453363299 -11.484009423336023 5 0 1
1867 374 3 0 -9.919195878005802 -6.252080990127418 -11.694117602312694 6 0 1
1866 374 1 0 -9.553224353600273 -5.9651116749727215 -11.779365674730098 6 0 1
1870 374 3 0 -9.324731352497599 -5.8971702732839715 -11.401299333833835 6 0 1
345 69 3 0 -6.50648948831516 -6.199171972273254 -11.552443585161798 3 0 0
341 69 1 0 -6.442743340173325 -5.770546244791252 -11.754979689386948 3 0 0
344 69 3 0 -5.969122529271066 -5.651627038042943 -11.742440086309339 3 0 0
1458 292 3 0 5.576591446869614 -6.313002989335167 -11.822868726222403 6 0 1
1456 292 1 0 5.53104791519646 -5.857853836374711 -11.917280638937669 6 0 1
1457 292 3 0 5.518873057038334 -5.617947186753323 -11.531633111517243 6 0 1
4549 1017 2 0 6.676221850380546 -5.768822115490938 -11.992129967592772 6 0 1
4551 1017 4 0 7.115664946823088 -5.669069775256714 -11.870743184734431 6 0 1
233 47 3 0 7.412196960805041 -5.63887793376003 -11.604480387785488 7 0 0
780 156 3 0 -8.548483223786564 -11.988939137865197 -4.653545252314638 4 0 0
234 47 3 0 8.0745893145399 -5.682152027411937 -11.218262276753908 7 0 0
1869 374 3 0 -9.708151429471197 -5.559918194934518 -11.941824093346634 6 0 1
208 42 3 0 -7.632549731629313 -5.262286968731011 -11.324257404872284 6 0 0
342 69 3 0 -6.679318820872217 -5.460560235902539 -11.526343985629328 3 0 0
5852 1451 4 0 -5.179238674362861 -4.825954218295269 -11.71591121838039 16 1 1
1964 393 3 0 -5.46392229366761 -5.064682161724153 -11.894083353454642 6 0 1
5851 1451 2 0 -5.164153770104111 -5.026909015598506 -11.306922524205397 16 1 1
4034 845 4 0 5.626992989936959 -5.603081770540062 -11.13824449352788 4 0 0
235 47 3 0 7.867391918483939 -5.049068446932288 -11.596248782127702 7 0 0
231 47 1 0 7.846249587128387 -5.500940312289483 -11.606157828847184 7 0 0
882 177 3 0 -1.1672020282433433 -1.322634824626988 -11.912430099980412 9 0 1
881 177 1 0 -1.125396617949887 -1.1078966358721125 -11.490262891045784 9 0 1
884 177 3 0 -0.7774237979187806 -1.266675110905961 -11.288047482696692 9 0 1
4674 1058 4 0 -0.45426427502995814 -1.0053408766560956 -11.260748549801033 8 0 1
3876 792 4 0 -5.489046857028515 -0.3656335059953335 -11.752264009551727 9 0 0
1692 339 3 0 -5.718706425295067 -0.3170143368473415 -11.425022850107668 10 0 1
885 177 3 0 -1.0737556746674972 -0.6936622971107322 -11.549616593992702 9 0 1
3858 786 4 0 -10.686025587440337 -9.75800747287476 -11.080035417800842 3 0 0
3727 746 3 0 -10.325530616655342 -9.713603515323953 -10.936857833826462 14 1 1
3726 746 1 0 -10.093036958327726 -9.770024510341042 -10.54462850975657 14 1 1
3729 746 3 0 -9.983778175174361 -10.194877735473307 -10.483954919134186 14 1 1
3730 746 3 0 -9.706693959221878 -9.512946886989466 -10.558058738848377 14 1 1
5145 1215 4 0 3.1058705773847066 -9.383530153406054 -10.597910356509525 13 1 0
2503 501 3 0 6.222651809510406 -9.53513646815872 -10.26387056429362 15 1 0
5352 1284 4 0 11.631271881696104 -9.649455380904696 -11.05914692096617 12 1 0
5350 1284 2 0 11.828645798724907 -9.593027674956959 -10.677338222169041 12 1 0
460 92 3 0 -11.612923431530612 -8.527856674505887 -10.795699725871765 4 0 0
4565 1022 4 0 -11.99198848855027 -8.564637281978781 -10.735730532465862 4 0 1
4526 1009 4 0 -9.700710828904457 -9.11791873764636 -10.394095655023415 4 0 1
4525 1009 2 0 -9.260210139621009 -8.95427546451897 -10.419670040832607 4 0 1
4527 1009 4 0 -8.842958016149094 -8.799197722116253 -10.447456857400725 4 0 1
557 112 3 0 -8.466429817028345 -8.905848446029056 -10.35703757819015 4 0 0
558 112 3 0 -7.814067839821661 -8.538596028085474 -10.520889127419537 4 0 0
560 112 3 0 -7.766535636457293 -9.207826047292398 -10.136676123727906 4 0 0
43 9 3 0 3.172362984981831 -8.545569173939105 -11.12900857099708 3 0 0
44 9 3 0 3.3726848287575493 -9.137444786093182 -10.763168464974079 3 0 0
41 9 1 0 3.5304744540532784 -8.809219616353179 -10.986085388537958 3 0 0
45 9 3 0 3.8375804508781677 -8.521471521882793 -10.691411391126945 3 0 0
4434 978 4 0 4.116086822700574 -8.52975553842855 -10.38131733119561 3 0 1
2505 501 3 0 6.037309209017014 -8.843681732626305 -10.407053966837037 15 1 0
4564 1022 2 0 11.73235618626348 -8.434170800382686 -10.492009270769584 3 0 1
746 150 1 0 -10.632866013988952 -7.592747375025768 -10.380595407176228 4 0 1
750 150 3 0 -10.839813440382247 -7.803589090330871 -10.723573192361556 4 0 1
749 150 3 0 -10.226481675814895 -7.803088732784515 -10.312434503609634 4 0 1
3969 823 4 0 -9.949722889353879 -7.990892796561569 -10.552445830984617 4 0 0
3967 823 2 0 -9.759156587361094 -8.004807525974977 -10.954066933355328 4 0 0
4742 1081 4 0 -7.700025544372309 -8.164512418710949 -10.622963118151112 4 0 1
4741 1081 2 0 -7.23146076410239 -8.123385989289142 -10.585201046126237 4 0 1
4743 1081 4 0 -6.7921594727838395 -8.081974559162488 -10.561860611008365 4 0 1
518 104 3 0 -6.49132439179774 -8.00486157866421 -10.321207714476381 5 0 0
4530 1010 4 0 4.152325573246014 -8.257493922150509 -10.691268018716247 2 0 1
4528 1010 2 0 4.53382919749928 -8.023745978203689 -10.778083440504204 2 0 1
4529 1010 4 0 4.899454425723604 -7.79636163649384 -10.857687654244792 2 0 1
2675 535 3 0 5.170918224027066 -7.597073508948512 -10.625285098171634 4 0 0
489 98 3 0 7.720534524590178 -7.589022571349396 -10.968551111969877 4 0 0
1609 322 3 0 9.923549125587865 -7.709407811369297 -10.481373428059129 3 0 1
4388 963 4 0 9.569968221222172 -7.869748837678082 -10.355953779986676 3 0 1
1608 322 3 0 10.19852019787125 -7.655861633706016 -11.148427829821815 3 0 1
1606 322 1 0 10.295653755658652 -7.633730212806321 -10.727376575018225 3 0 1
1607 322 3 0 10.585753761378125 -7.933532948458454 -10.638658046844704 3 0 1
4566 1022 4 0 11.39016023256341 -8.312085344216916 -10.247229741211111 3 0 1
2300 460 3 0 -11.668073490208053 -6.95205167262064 -10.932108136035541 13 1 0
2296 460 1 0 -11.842556390204388 -6.5986192253362725 -11.098000942008186 13 1 0
748 150 3 0 -10.558623069135892 -7.137872551410445 -10.486195700050198 4 0 1
2672 535 3 0 5.810120244463906 -7.380445641098614 -10.391245906891916 4 0 0
2671 535 1 0 5.400719566379589 -7.2547693808335865 -10.50015611203524 4 0 0
2674 535 3 0 5.420036093169692 -6.975574420123273 -10.827021493240183 4 0 0
3815 772 4 0 6.177506221822842 -7.2203820070612315 -10.416083142229382 3 0 0
3814 772 2 0 6.520932935321959 -7.3211432571459465 -10.672670062075452 3 0 0
3816 772 4 0 6.882651806177243 -7.410477129961892 -10.941044737932723 3 0 0
488 98 3 0 7.128868925641068 -7.099805726447909 -10.96461133318821 4 0 0
486 98 1 0 7.594161200266402 -7.127765478687136 -10.9457039654943 4 0 0
490 98 3 0 7.762523664473093 -6.935179497658573 -10.529507726894025 4 0 0
4037 846 4 0 7.873553895300812 -6.54495719569873 -10.49342409358969 3 0 0
1610 322 3 0 10.469723924929244 -7.217436663797307 -10.642724098771538 3 0 1
5805 1435 4 0 10.810704187161843 -7.112307725398257 -10.841766324158407 14 1 1
5803 1435 2 0 11.193837156820067 -6.9309804198139995 -11.090818224460408 14 1 1
2297 460 3 0 -12.030462549389526 -6.3552264178859055 -10.768605211282537 13 1 0
5895 1465 4 0 -9.050501669175166 -5.739739841237895 -11.136724497701758 15 1 1
5893 1465 2 0 -8.642185198212818 -5.6981627355736295 -10.917453035156184 15 1 1
5894 1465 4 0 -8.251516473691881 -5.661810089548416 -10.698776238732684 15 1 1
207 42 3 0 -7.857082844943526 -5.6181377160931865 -10.704983953591109 6 0 0
3350 670 3 0 -4.967933171115509 -5.774150409796897 -10.430297398119341 6 0 1
4038 846 4 0 8.211622372164886 -5.84959101698921 -10.869417958038422 3 0 0
4036 846 2 0 8.049502371742697 -6.197667616421298 -10.68740615794475 3 0 0
4082 861 4 0 11.904262549827799 -6.335321448553534 -10.352891944146096 2 0 0
209 42 3 0 -7.605006070360027 -4.95874700364901 -10.665313097269369 6 0 0
206 42 1 0 -7.558106791269303 -5.323257706689745 -10.874739769976422 6 0 0
210 42 3 0 -7.115071067686599 -5.491159371651027 -10.802551863692553 6 0 0
3776 759 4 0 -6.81831662248887 -5.287947534344085 -10.591278086132101 6 0 0
3775 759 2 0 -6.409434281282629 -5.322016819230419 -10.380803164384668 6 0 0
3347 670 3 0 -5.106800681800256 -5.063625037446335 -10.551946041991062 6 0 1
5853 1451 4 0 -5.14429973319806 -5.2279390613620516 -10.897934019266312 16 1 1
4033 845 2 0 5.543571709513817 -5.504522717151283 -10.698970505786738 4 0 0
4035 845 4 0 5.447093211552936 -5.397506793025089 -10.275398861083593 4 0 0
1933 387 3 0 9.20242943136435 -4.760817173142413 -10.341391189424872 6 0 1
668 134 3 0 11.088971235884337 -5.1988732423751225 -10.861891345411019 5 0 0
666 134 1 0 11.327864165926524 -4.988284408917615 -10.542005921233493 5 0 0
667 134 3 0 11.655647887492826 -5.230899336337878 -10.409717441382796 5 0 0
670 134 3 0 11.46605586657849 -4.607809924664039 -10.701851744038565 5 0 0
1208 242 3 0 -6.1834883205223825 -1.7312750851561294 -10.830087673279841 9 0 0
1210 242 3 0 -5.897142727283208 -1.3476550350596757 -10.278272425441536 9 0 0
1206 242 1 0 -5.893433205920683 -1.4166221387188394 -10.73388125206654 9 0 0
1207 242 3 0 -6.012601860302401 -1.0230286356703306 -10.956103094972667 9 0 0
1209 242 3 0 -5.497898522284112 -1.5462778614978774 -10.864343936543634 9 0 0
883 177 3 0 -1.464211685466882 -1.1740533786039808 -11.264682206697275 9 0 1
4672 1058 2 0 -0.04323086806838994 -1.0645711170889012 -11.029083958021436 8 0 1
4673 1058 4 0 0.35235451781479377 -1.1220825008045612 -10.81556907814953 8 0 1
2458 492 3 0 0.38083772802037075 -0.9620213673065265 -10.442267927716808 7 0 0
1694 339 3 0 -5.898309650765523 -0.3903799413323714 -10.707337112686192 10 0 1
1691 339 1 0 -5.62734331438017 -0.18078226632924022 -10.993304127443315 10 0 1
1695 339 3 0 -5.218856942531008 -0.2728329590606169 -10.90370075604122 10 0 1
953 191 3 0 -11.796610306895278 -10.081187235138295 -9.59082662593095 3 0 0
4734 1078 4 0 -11.430318250364024 -10.095511353902346 -9.746701000541766 4 0 1
3728 746 3 0 -10.345971695858438 -9.628976708435797 -10.201492749682794 14 1 1
4733 1078 4 0 -10.563893067801425 -9.935382820983003 -10.040307420086146 4 0 1
4732 1078 2 0 -11.015204930448858 -10.013005360760218 -9.884511237056403 4 0 1
5143 1215 2 0 3.254032841984497 -9.590763182635007 -10.234351830880112 13 1 0
5144 1215 4 0 3.4103317483475095 -9.808529079592809 -9.879781882220835 13 1 0
2073 415 3 0 3.752451476066698 -9.693308710559219 -9.69554899349135 15 1 0
2071 415 1 0 4.082785882092285 -9.504481987280421 -9.407075376284286 15 1 0
2072 415 3 0 4.502200262943845 -9.565870941864532 -9.589181089616764 15 1 0
5675 1392 4 0 4.655054183592618 -9.692187426153488 -9.922989342010245 12 1 1
5674 1392 2 0 5.058092719367416 -9.494804645546882 -9.88933464520878 12 1 1
5676 1392 4 0 5.472522785537741 -9.291056822092255 -9.851431149513898 12 1 1
951 191 1 0 11.95225218832104 -9.804739874863813 -9.525308062301425 2 0 0
954 191 3 0 11.899955023865996 -9.532030671933706 -9.890599505351249 2 0 0
5351 1284 4 0 12.027114240840998 -9.539867844596113 -10.267874346456269 12 1 0
556 112 1 0 -8.016921592156574 -8.794131600145711 -10.20708946627197 4 0 0
559 112 3 0 -8.037403775080602 -8.575412194558652 -9.823354718724454 4 0 0
4754 1085 4 0 -7.359968502257125 -9.198509267281656 -10.044859714380705 4 0 1
4753 1085 2 0 -6.9194827483580115 -9.045736272716352 -9.982649053433468 4 0 1
4755 1085 4 0 -6.479655545120257 -8.902043787939284 -9.92713280345231 4 0 1
517 104 3 0 -6.2063936017369725 -8.638431188007253 -10.022757423235504 5 0 0
1360 272 3 0 -3.6898326975534896 -8.812374944831792 -9.586560429625852 4 0 0
1356 272 1 0 -3.832963534880445 -8.402929766140444 -9.61329355635085 4 0 0
1358 272 3 0 -4.284326634599738 -8.3967007031007 -9.795389813799753 4 0 0
4433 978 4 0 4.051709847701449 -8.69779473358603 -9.527127551762584 3 0 1
4432 978 2 0 4.084563499754108 -8.611683113550765 -9.972029000952135 3 0 1
2504 501 3 0 5.856420586766582 -9.1704092656841 -9.783617675114503 15 1 0
2501 501 1 0 6.1673699830253845 -9.145313858389072 -10.088859528852797 15 1 0
2502 501 3 0 6.535172551907152 -9.02554060710285 -9.908477562754458 15 1 0
4716 1072 4 0 6.931535941548642 -8.993571621196004 -9.813727962052617 3 0 1
4714 1072 2 0 7.28796275477767 -8.73806458880919 -9.716365517459153 3 0 1
4715 1072 4 0 7.646092675126443 -8.47838208148412 -9.610558659194531 3 0 1
3859 787 2 0 -11.609422402032157 -7.483478301694175 -9.73081734132615 3 0 0
3861 787 4 0 -11.185210366424059 -7.639859530880299 -9.729254396671227 3 0 0
747 150 3 0 -10.88959441362718 -7.619982323907441 -10.01131870525842 4 0 1
519 104 3 0 -6.447570823423347 -8.073190438690554 -9.573160413066631 5 0 0
516 104 1 0 -6.238943679100586 -8.178507638771215 -9.96414112615712 5 0 0
520 104 3 0 -5.810425495263512 -7.9866441885606765 -9.963171230699576 5 0 0
4004 835 4 0 -5.453377763084963 -8.075356964238027 -9.822308396973103 5 0 0
4005 835 4 0 -4.660037185369217 -8.544597976465461 -9.71009492918225 5 0 0
4003 835 2 0 -5.041215708459938 -8.319662743585212 -9.761470701403141 5 0 0
1359 272 3 0 -3.5535085695554347 -8.166464973016295 -9.887368361147864 4 0 0
3885 795 4 0 -3.148414859439624 -8.175181783014423 -9.914568129497269 5 0 0
3883 795 2 0 -2.7282766009443584 -8.030254502110004 -9.879747232423659 5 0 0
3884 795 4 0 -2.3075942211425335 -7.890547720217299 -9.843492852787048 5 0 0
3283 657 3 0 -2.063916787004077 -7.621765646269151 -9.64794785890703 15 1 1
3282 657 3 0 -1.3568674726586973 -7.397979203025868 -9.53048901661014 15 1 1
5030 1177 4 0 -1.005464812123881 -7.482411992153062 -9.40513404228527 15 1 0
2338 468 3 0 7.972012474448164 -8.35902498482457 -9.417372703215554 3 0 0
2336 468 1 0 8.324087580473687 -8.078424754604617 -9.358133130629659 3 0 0
2340 468 3 0 8.22375211989156 -7.65907984379804 -9.549631030542185 3 0 0
2337 468 3 0 8.696444522656734 -8.250643938656516 -9.558698213437266 3 0 0
4387 963 2 0 9.25182247938912 -7.90865852268016 -10.032957231357955 3 0 1
4389 963 4 0 8.93109631158027 -7.941066729757663 -9.696397262078518 3 0 1
452 91 3 0 11.030924726838755 -7.638626616437151 -9.387915500176305 2 0 0
454 91 3 0 11.226245105706521 -8.026757979601346 -10.019393762647775 2 0 0
451 91 1 0 11.383886272392104 -7.769835213417967 -9.653222165718743 2 0 0
453 91 3 0 11.666326417858428 -8.01785303106196 -9.401459842593226 2 0 0
455 91 3 0 11.612253187306724 -7.38509464702624 -9.80513908026989 2 0 0
5029 1177 2 0 -0.5929748248946218 -7.274016569160715 -9.411889480266394 15 1 0
5031 1177 4 0 -0.17082876192082708 -7.054097581056316 -9.42335361855418 15 1 0
644 129 3 0 0.8193567639526567 -6.718585162532011 -9.518830386176694 5 0 0
642 129 3 0 0.09503699150887712 -6.740820153094336 -9.425505252749748 5 0 0
2673 535 3 0 5.195018603968229 -7.061163885337687 -10.138311781219182 4 0 0
4911 1137 4 0 5.496036542399612 -6.954448979925341 -9.919843726057614 5 0 0
4909 1137 2 0 5.562772263530491 -6.911409086963345 -9.491357850952337 5 0 0
4622 1041 4 0 7.854269623026752 -6.7717224303346715 -10.185800026969233 3 0 1
4623 1041 4 0 8.41801405376657 -7.3664541377197175 -9.749045977144378 3 0 1
4621 1041 2 0 8.131940372728138 -7.065876725081086 -9.964029165412276 3 0 1
3860 787 4 0 12.001999604469948 -7.309379597605909 -9.72387573654312 2 0 0
4081 861 2 0 11.82092915826247 -6.68507863668025 -10.054568061707663 2 0 0
4083 861 4 0 11.753844052614035 -7.007113252892773 -9.76871518095097 2 0 0
307 62 3 0 7.741737628462527 -6.409452138405886 -9.725071633933503 3 0 0
3777 759 4 0 -5.99681183558695 -5.3566267282789815 -10.165376472402045 6 0 0
3346 670 1 0 -5.156868925194811 -5.401400746560251 -10.266383349925926 6 0 1
3349 670 3 0 -5.605981495913874 -5.477015468452007 -10.19081898109581 6 0 1
3348 670 3 0 -4.941757111826958 -5.283089903477805 -9.856864566320462 6 0 1
5142 1214 4 0 -4.576959268040321 -5.207044577732949 -9.710070360686677 14 1 0
5140 1214 2 0 -4.1291094466450105 -5.168255175959873 -9.691520725113136 14 1 0
5141 1214 4 0 -3.6711641727877478 -5.124257459624998 -9.66860188807366 14 1 0
213 43 3 0 -3.317484137476585 -5.279392467715613 -9.499883992077606 8 0 0
212 43 3 0 -2.6019303449880233 -5.450842367726463 -9.333303454892484 8 0 0
3699 740 3 0 -1.4910613410111946 -5.174772324768401 -9.323128115853502 14 1 1
3698 740 3 0 -0.9047094199512404 -5.0540250170662455 -9.775995361808386 14 1 1
2873 575 3 0 4.645816855683158 -4.851156528787421 -9.945309267902285 14 1 0
2871 575 1 0 4.989225241601378 -5.018074516128222 -9.765693829612651 14 1 0
2874 575 3 0 4.891010388096735 -5.42842539276007 -9.573125093079515 14 1 0
2872 575 3 0 5.313637999627261 -5.072347715812858 -10.069066266826216 14 1 0
2875 575 3 0 5.133059672505553 -4.743706932885059 -9.451536349278483 14 1 0
5111 1204 4 0 7.831982628044987 -5.479829169992111 -9.502428530196363 5 0 0
5110 1204 2 0 8.105913221724325 -5.170518466764949 -9.700901037402872 5 0 0
5112 1204 4 0 8.399610813543951 -4.864029824826157 -9.90471033918866 5 0 0
1932 387 3 0 9.22050575359825 -5.3673243285959416 -9.939265702432778 6 0 1
1934 387 3 0 8.764948011975406 -4.809581489495418 -9.791293117328362 6 0 1
1931 387 1 0 9.153620665675753 -4.903224955484556 -9.93509357291906 6 0 1
1935 387 3 0 9.453697891226234 -4.719980399369433 -9.672176535456707 6 0 1
4072 858 2 0 10.277967430638697 -4.795109693548843 -9.87761615837316 5 0 0
4074 858 4 0 10.692564572103514 -4.938196896386063 -9.99513655758239 5 0 0
3897 799 4 0 11.007415527979493 -5.166185464884408 -9.887351967346024 5 0 0
669 134 3 0 11.04677234996122 -4.904480079171726 -10.182282659186098 5 0 0
3895 799 2 0 11.004082476654268 -5.4387501594095555 -9.463318996259602 5 0 0
1952 391 3 0 -3.2929759699984764 -4.1262636320416775 -9.535778035333124 4 0 1
4073 858 4 0 9.831390924092826 -4.639415902591606 -9.760805828799985 5 0 0
3957 819 4 0 9.556950188757597 -4.368417298751924 -9.51814288943395 5 0 0
2138 428 3 0 -9.461761420407655 -1.665787389619851 -9.565357666732325 10 0 0
2459 492 3 0 0.5859205538985304 -1.156533852670572 -9.744595874133378 7 0 0
5114 1205 4 0 0.8039050800930259 -0.11559291707632902 -10.144891261012662 12 0 0
2460 492 3 0 0.040237773844181035 -0.6754900801847707 -9.853787605046312 7 0 0
2456 492 1 0 0.43908811463628616 -0.8156477798052233 -10.004719481608529 7 0 0
2457 492 3 0 0.7442047781318024 -0.46318340118274826 -10.000211171880178 7 0 0
5113 1205 2 0 1.2425327310190237 -0.017112067356725547 -10.105246506556913 12 0 0
1467 294 3 0 9.545304278531052 -0.08212930852933376 -9.530669950084627 10 0 1
2232 447 3 0 -4.930501138039601 -11.929913218647 -8.516546314295304 16 1 0
3844 782 2 0 11.16681310045825 -10.398150380857562 -8.816350136269206 4 0 0
3845 782 4 0 11.390066031275378 -10.131360715510747 -9.09977335762712 4 0 0
955 191 3 0 -12.027448152575857 -9.563705139874953 -9.158867696903844 3 0 0
375 75 3 0 1.965971370011836 -9.396528968035403 -8.542106767938089 5 0 0
2074 415 3 0 4.058378463892499 -9.712310228441947 -8.976943838081665 15 1 0
952 191 3 0 11.564667373359061 -10.03290813633864 -9.455568702703014 2 0 0
4773 1091 4 0 -11.484995797543677 -8.307887599915912 -8.744672327986542 3 0 1
4771 1091 2 0 -11.85141104087012 -8.340117572171028 -8.987016349821412 3 0 1
497 100 3 0 -11.34865087681583 -8.602208727168946 -8.516726808536273 4 0 0
498 100 3 0 -10.813748515805461 -9.032866709598082 -8.76359726852656 4 0 0
1357 272 3 0 -3.8305844347921987 -8.23181849323783 -9.23036847581066 4 0 0
372 75 3 0 2.268298518504695 -8.724888173060869 -8.473470804691852 5 0 0
4049 850 4 0 2.3529442594889662 -8.46855423673887 -8.78013362650957 5 0 0
2075 415 3 0 4.0018955001677945 -9.069657532219008 -9.354247182082995 15 1 0
4772 1091 4 0 11.833148918427778 -8.376023807226973 -9.26158089069328 2 0 1
37 8 3 0 -9.67566531808328 -7.499319902686032 -8.873697448346952 4 0 0
36 8 1 0 -9.293676949216001 -7.6333060959821015 -8.687934380163034 4 0 0
40 8 3 0 -9.034861102414283 -7.810400404207623 -8.990917072936782 4 0 0
3281 657 1 0 -1.7192919850013872 -7.539791363379405 -9.32985961510509 15 1 1
3284 657 3 0 -1.6236087278627167 -7.93671168519491 -9.110432183607504 15 1 1
4048 850 2 0 2.6230523958368916 -8.093571940462624 -8.786809433531005 5 0 0
4050 850 4 0 2.8837322849049905 -7.728027259771295 -8.802961942856115 5 0 0
1602 321 3 0 3.2732308989148713 -7.816019194204847 -8.669380874945594 4 0 1
1604 321 3 0 3.572322894762749 -7.679427244446073 -9.336699657849602 4 0 1
1601 321 1 0 3.6124487883582788 -7.579919190747519 -8.912435399677902 4 0 1
1603 321 3 0 4.039953197840312 -7.690511554595128 -8.762564371342734 4 0 1
4064 855 4 0 4.361464069410815 -7.604450698782809 -8.522511672763951 5 0 0
4063 855 2 0 4.764412931825099 -7.45513415225757 -8.525720375624243 5 0 0
2339 468 3 0 8.40003481524663 -8.033770108013451 -8.939558552062605 3 0 0
99 20 3 0 9.398189533625391 -7.486079313461722 -9.11731699479496 3 0 0
97 20 3 0 9.408508630419536 -8.208858718984496 -9.111536439817801 3 0 0
100 20 3 0 9.148087340064567 -7.827926477557155 -8.49967235490862 3 0 0
96 20 1 0 9.466326950651155 -7.836265218052276 -8.866436219822976 3 0 0
98 20 3 0 9.8697719765639 -7.8279907472181005 -8.699025939983068 3 0 0
3783 761 4 0 10.247037687386786 -7.723138726174573 -8.585697228002022 3 0 0
3781 761 2 0 10.52775674526395 -7.543926774122008 -8.901263370566115 3 0 0
3782 761 4 0 10.808547832158656 -7.3596985612748025 -9.22282455106429 3 0 0
38 8 3 0 -9.081453442158612 -7.26577339258169 -8.494992270823674 4 0 0
3285 657 3 0 -1.8715959041361323 -7.2356948833130055 -9.03937675880648 15 1 1
641 129 1 0 0.4813150462817237 -6.674511853706251 -9.227329188134707 5 0 0
643 129 3 0 0.5379613151597873 -6.979427172547012 -8.8969273619445 5 0 0
1605 321 3 0 3.5633439994871914 -7.141550169313802 -8.863385949465023 4 0 1
4910 1137 4 0 5.633513939608495 -6.854901237229788 -9.010177091869934 5 0 0
424 85 3 0 5.901691661865673 -6.697301381735449 -8.810226307592679 5 0 0
4065 855 4 0 5.20659531741455 -7.2874827738167145 -8.52152717234339 5 0 0
309 62 3 0 8.012977489170812 -6.486132334251545 -8.994062514314013 3 0 0
25 5 3 0 -7.677237277498473 -5.637533409845268 -8.864610424793671 6 0 0
214 43 3 0 -3.0952910098559823 -6.003246488299108 -9.454027775561292 8 0 0
211 43 1 0 -3.0316366635497847 -5.575394091389454 -9.281809831503567 8 0 0
645 129 3 0 0.4923614379018808 -6.26532139442274 -9.047548955667244 5 0 0
4046 849 4 0 0.7290769475166243 -6.0566184486215064 -8.810051107784235 4 0 0
4045 849 2 0 0.9952789795850752 -5.715616852283168 -8.689728532829129 4 0 0
308 62 3 0 7.337924919278329 -6.181179567619351 -9.157283065320168 3 0 0
306 62 1 0 7.7496891707363105 -6.214416336149559 -9.309414509091342 3 0 0
310 62 3 0 7.928540123426821 -5.816933360408974 -9.342435288647005 3 0 0
5116 1206 2 0 9.242941466375555 -6.186881670705546 -8.538578918544639 15 1 0
713 143 3 0 10.057786539369047 -5.946495552560479 -8.47379449988211 5 0 0
5117 1206 4 0 9.684187703756333 -6.164202998739988 -8.532680737019328 15 1 0
712 143 3 0 10.713902887094708 -5.855111084729799 -8.820237483178115 5 0 0
3896 799 4 0 10.997916641588912 -5.681759269319683 -9.089422714794713 5 0 0
21 5 1 0 -7.84021466191551 -5.359202219019395 -8.55931673747832 6 0 0
22 5 3 0 -8.054270586135123 -4.9843864135726434 -8.775222439289626 6 0 0
3991 831 2 0 -6.785238880886444 -4.929486167480535 -8.562173612705827 6 0 0
3992 831 4 0 -6.383070670821052 -4.78292383879216 -8.756035272443587 6 0 0
215 43 3 0 -3.137846209102925 -5.584129268164843 -8.838341368852035 8 0 0
3696 740 1 0 -1.0962908243654752 -4.96350181740917 -9.35814325977061 14 1 1
3697 740 3 0 -0.8354668938524075 -5.101149517465684 -9.049826955290762 14 1 1
4047 849 4 0 1.2785026139280884 -5.364064458336043 -8.55871649919081 4 0 0
2983 597 3 0 -9.542730118202956 -4.393443542494695 -8.435497882852065 7 0 0
65 13 3 0 -6.136916050710501 -4.483311180431223 -8.629756622368479 6 0 0
62 13 3 0 -5.429755627651284 -4.363306077949922 -8.722966160527267 6 0 0
1954 391 3 0 -2.9068430170323687 -3.629044665566232 -9.12063379092045 4 0 1
1951 391 1 0 -3.0316433092925212 -4.095885166786886 -9.19076475119514 4 0 1
1955 391 3 0 -3.2450208956605753 -4.24643776503657 -8.828693325443036 4 0 1
1953 391 3 0 -2.6542929784965548 -4.3467965666066375 -9.26180061477163 4 0 1
3700 740 3 0 -1.153835698031532 -4.514720036818294 -9.313307244788938 14 1 1
3955 819 2 0 9.641843479509237 -4.260748991083118 -9.06503715660346 5 0 0
3956 819 4 0 9.7219258491853 -4.14406668074573 -8.605425577981869 5 0 0
2140 428 3 0 -9.625450275304166 -2.336421385829066 -9.324214167428964 10 0 0
2136 428 1 0 -9.468471048211253 -1.9356613877336883 -9.2110109877257 10 0 0
5343 1281 4 0 -8.780249793969436 -2.0679037267919647 -8.765028116720202 10 0 0
2139 428 3 0 -9.046492953539541 -1.9819975195963018 -9.05934205763507 10 0 0
5341 1281 2 0 -8.363314934821286 -1.995500002964791 -8.608914792052481 10 0 0
2137 428 3 0 -9.722473321278922 -1.745364632325341 -8.890309458794926 10 0 0
1901 381 1 0 -9.542376977114625 -8.024583983930386 -12.013170912434209 4 0 1
4079 860 4 0 9.180716746461886 -0.736333732333442 -8.684385053719065 7 0 0
1466 294 1 0 9.405564841330577 -0.180773976314061 -9.042672258415642 10 0 1
1469 294 3 0 9.422768456432568 -0.6271575934160989 -8.961593322285925 10 0 1
4825 1109 2 0 -12.022440674301862 -11.601987406537154 -7.794374957039134 18 1 0
2088 418 3 0 10.686324230340393 -11.412625696623484 -8.243288581403638 12 1 0
2086 418 1 0 10.936498051431496 -11.171848565011103 -7.97693830356689 12 1 0
2090 418 3 0 11.32652166638118 -11.384088569396457 -7.9021295178690725 12 1 0
4827 1109 4 0 11.694169725889811 -11.481923673391409 -8.035891991697133 17 1 0
2007 402 3 0 9.844752263033559 -10.159658486071738 -8.045952699397526 12 1 0
3846 782 4 0 10.937769020055178 -10.66414419785095 -8.541071660225052 4 0 0
2089 418 3 0 11.024576813996706 -10.747811921071866 -8.16728495839612 12 1 0
2009 402 3 0 10.344113917708391 -10.633136894507963 -7.78353615005571 12 1 0
500 100 3 0 -11.413224895364651 -9.355880981439794 -8.482047772465943 4 0 0
3073 615 3 0 7.2018209377823545 -9.392385109934636 -7.692849487667512 14 1 0
496 100 1 0 -11.11934205358387 -8.994713817935905 -8.455488865153882 4 0 0
499 100 3 0 -10.922688499907759 -8.983083022067078 -8.054531314903949 4 0 0
371 75 1 0 2.1912560354188244 -9.145146804014518 -8.266638417222396 5 0 0
374 75 3 0 1.9570112374862862 -9.08728269751031 -7.892676346082059 5 0 0
373 75 3 0 2.598622869229189 -9.336370366285513 -8.174106499350705 5 0 0
39 8 3 0 -9.38288736881173 -7.951448438236393 -8.340461690421193 4 0 0
2003 401 3 0 -3.480596769733099 -7.495890288305456 -8.25531309729859 7 0 0
4847 1116 4 0 0.8325373671997891 -8.177267524628306 -7.633261410839393 13 1 0
2004 401 3 0 -3.65134995916579 -6.887730781689441 -7.912013714771202 7 0 0
2001 401 1 0 -3.4101961957265736 -7.24948656483385 -7.887861025326561 7 0 0
2005 401 3 0 -2.977749173413457 -7.137927085959032 -7.870190008054226 7 0 0
4274 925 4 0 -2.6983231216049948 -6.976356522636937 -7.622997516003591 6 0 0
4273 925 2 0 -2.310735926668899 -6.766686691313084 -7.58527916225749 6 0 0