LAMMPS data file via write_data, version 4 Feb 2025, timestep = 160000, units = lj

7750 atoms
4 atom types
5250 bonds
1 bond types
3125 angles
2 angle types

-14.12933 14.12933 xlo xhi
-14.12933 14.12933 ylo yhi
-14.12933 14.12933 zlo zhi
3.552713678800501e-14 0 0 xy xz yz

Masses

1 1
2 1
3 0.1
4 0.1

Bond Coeffs # harmonic/omp

1 100 0.45

Angle Coeffs # harmonic/omp

1 100 180
2 100 109.471

Atoms # full

3771 1174 4 0 -11.427398967245919 -8.893115183740955 -13.403158736589555 3 0 1
3770 1174 2 0 -11.299339272100777 -8.792842358376458 -13.841225018559006 3 0 1
4867 1539 4 0 -3.7806793607041875 -8.283756747456051 -13.69130703615732 4 0 0
4865 1539 2 0 -3.644927851335355 -7.871260035203815 -13.61057491196808 4 0 0
6423 2058 4 0 -3.2509092110000584 -7.119378020983225 -13.493909626637095 12 1 0
4866 1539 4 0 -3.5000570410182252 -7.439646588818661 -13.522658026987255 4 0 0
5779 1843 4 0 -0.5428685829199189 -7.2733239335436535 -13.396267227224293 4 0 1
6422 2058 2 0 -2.860572779485368 -7.002966685689194 -13.682887954360812 12 1 0
6424 2058 4 0 -2.489920002743217 -6.883150717924314 -13.862782905627066 12 1 0
4066 1272 4 0 -2.182153293103374 -6.634304844231235 -13.862299491000389 4 0 1
4064 1272 2 0 -1.7637113811608032 -6.508348944745011 -13.745879112858576 4 0 1
4065 1272 4 0 -1.3577818827402446 -6.382682374135285 -13.629793463228822 4 0 1
5778 1843 4 0 -0.9809421493668076 -6.490224497106605 -13.582714013374694 4 0 1
5777 1843 2 0 -0.7572542685260597 -6.884491571568491 -13.493401565200621 4 0 1
7570 2440 4 0 -7.0994543972328295 -4.771599281932639 -13.760189213157135 7 0 1
5356 1702 4 0 -7.030229409345553 -4.897793503040136 -13.39276370863327 6 0 1
984 245 4 0 -9.29491030148894 -2.943682518383074 -13.401561770526133 7 0 0
983 245 2 0 -8.863318148134915 -2.8531588964047288 -13.27010962947307 7 0 0
4861 1537 4 0 -14.063871079783953 -1.1810866094530699 -13.526131344505094 8 0 0
4846 1532 4 0 -13.740199009177575 -1.1390187631268542 -13.266674128308974 8 0 0
5683 1811 4 0 -3.639910665176865 -13.419438878287737 -12.435091694780017 3 0 1
2795 849 2 0 -3.928880866242899 -12.732397389097107 -12.434737248025225 10 1 0
2796 849 4 0 -3.781567636404432 -13.095721456045046 -12.603686642527004 10 1 0
7277 2343 2 0 -9.116032420760462 -10.817040427390829 -12.385775981740435 11 1 1
7278 2343 4 0 -8.689701762764457 -10.657461236264426 -12.419023735451393 11 1 1
2216 656 2 0 -11.700953212791958 -10.279022161000647 -12.488052398823235 3 0 1
2218 656 4 0 -11.330425238699394 -10.195463610008282 -12.678204333964947 3 0 1
3561 1104 4 0 -10.99857804781373 -9.976900655675077 -12.718683074000843 3 0 1
3560 1104 2 0 -10.59339679819266 -9.810698174611806 -12.806520955150958 3 0 1
549 110 3 0 -8.563357480204886 -9.760354769261758 -12.69725700722597 11 1 0
548 110 3 0 -8.360135908084498 -10.410055522193545 -12.440785214287203 11 1 0
546 110 1 0 -8.241553681135343 -9.975783437816217 -12.471044176384734 11 1 0
550 110 3 0 -7.823413603758788 -9.94213261836176 -12.697674526711673 11 1 0
6124 1958 4 0 -12.321890625352976 -9.232697097460544 -12.671279677046252 4 0 0
6122 1958 2 0 -11.948023243958549 -9.074541753407853 -12.846578386938535 4 0 0
6123 1958 4 0 -11.583713944088197 -8.919100200314718 -13.021782392246298 4 0 0
3562 1104 4 0 -10.191497458184328 -9.641935691080146 -12.897460309241392 3 0 1
4345 1365 4 0 -9.805422306628241 -9.611018475111342 -12.910621395481872 3 0 0
4343 1365 2 0 -9.373391029719706 -9.628205426155999 -12.870918796485634 3 0 0
4344 1365 4 0 -8.922696250777093 -9.647690132772434 -12.836353636598524 3 0 0
4716 1489 4 0 -7.451766552957351 -9.705528206415911 -12.745099959562221 3 0 0
4715 1489 2 0 -6.98633766387378 -9.644885537685008 -12.761615452033968 3 0 0
4717 1489 4 0 -6.5362589603913195 -9.578267735428593 -12.774944044317184 3 0 0
5524 1758 4 0 -6.156175774785598 -9.46183467298303 -12.728107061687108 3 0 1
5522 1758 2 0 -5.707849010678807 -9.399606506370521 -12.738663293315172 3 0 1
5523 1758 4 0 -5.228005148710041 -9.336474237324415 -12.741921211532507 3 0 1
717 156 4 0 -4.84095613490088 -9.202465376868043 -12.700076666122797 3 0 0
716 156 2 0 -4.3670222504485725 -9.175491075677446 -12.690844000779405 3 0 0
718 156 4 0 -3.8956079543629496 -9.158806744768455 -12.685595372274701 3 0 0
4447 1399 4 0 -3.5479769759345547 -8.95154382287181 -12.639099258288818 3 0 0
4445 1399 2 0 -3.0951216165478623 -8.837359499733253 -12.6556113715237 3 0 0
4446 1399 4 0 -2.6548596194571186 -8.732777141308658 -12.677999387192992 3 0 0
2700 817 4 0 -2.3294427983670154 -8.483420781173633 -12.761065464794989 4 0 0
2699 817 2 0 -1.8850527401353308 -8.395041696386999 -12.825130876719498 4 0 0
2701 817 4 0 -1.4227834772114907 -8.300736165975444 -12.888866978664133 4 0 0
403 81 3 0 -1.0000525523858261 -8.266424530011914 -12.906951557171062 4 0 0
405 81 3 0 -0.2593988772559719 -8.145913809698467 -13.197169754468291 4 0 0
404 81 3 0 -0.7581625883890322 -7.591434755157229 -13.229866961545216 4 0 0
401 81 1 0 -0.6109489227963927 -7.941195325478246 -12.972015569736566 4 0 0
402 81 3 0 -0.4603930107168974 -7.776639318627805 -12.548724834100724 4 0 0
4149 1300 4 0 -0.18890822993888534 -7.479188576043761 -12.438990196591869 4 0 0
7427 2393 2 0 -9.048533633301162 -5.266816640095584 -12.395000465998645 6 0 1
7429 2393 4 0 -8.704775348568727 -5.076681270796659 -12.550980736063215 6 0 1
3080 944 2 0 -8.139152599645321 -4.664374659869319 -12.442532185612158 6 0 0
3082 944 4 0 -7.731983231245941 -4.507275563985672 -12.599225766049495 6 0 0
5355 1702 4 0 -7.366808928970128 -4.540529396448644 -12.590399714318997 6 0 1
5354 1702 2 0 -7.19714591990543 -4.72353402265909 -12.996453556141764 6 0 1
699 150 4 0 -10.646449745490601 -3.3917543666888683 -13.002013338924662 7 0 0
698 150 2 0 -10.939437608873872 -3.2549216236843908 -12.734817788212531 7 0 0
700 150 4 0 -11.246356464390098 -3.1144082595049607 -12.434630478121386 7 0 0
4194 1315 4 0 -10.40360525526079 -3.122934983736643 -13.194891789749914 7 0 0
4193 1315 2 0 -9.939498649851224 -3.168229453609772 -13.188218473351528 7 0 0
4195 1315 4 0 -9.47314753033585 -3.2160838104695006 -13.1793699509825 7 0 0
985 245 4 0 -8.426099216965891 -2.7540949224381492 -13.143237769415801 7 0 0
5736 1829 4 0 -8.374053158950769 -2.3739050122847978 -13.065932257388068 7 0 1
5735 1829 2 0 -8.091014718000114 -2.144163421631694 -12.803415413525723 7 0 1
5737 1829 4 0 -7.804412176415103 -1.9135227923782114 -12.561520609229607 7 0 1
4844 1532 2 0 -13.360695731320336 -1.1902321647965106 -13.12679623941875 8 0 0
4845 1532 4 0 -12.921380525446999 -1.2419030736128391 -12.95963166402023 8 0 0
2749 833 4 0 -12.588464771130877 -1.3302090428435385 -12.789699571490717 8 0 0
2747 833 2 0 -12.13760985155347 -1.2795464511194279 -12.772180969420456 8 0 0
2748 833 4 0 -11.684202608391686 -1.221383454264009 -12.751956448525036 8 0 0
2991 914 4 0 -11.321762291492044 -1.052126895133835 -12.793067154603156 8 0 0
2990 914 2 0 -11.04558864416694 -0.8375842586355411 -12.514941581109627 8 0 0
4517 1423 2 0 -10.00926587440802 -14.119452600554066 -12.274440719525217 7 0 0
4920 1557 4 0 -9.383474606673216 -14.06133383429486 -11.748158631278443 7 0 0
4519 1423 4 0 -9.67436589985546 -14.002024239625497 -11.996216581291911 7 0 0
5681 1811 2 0 -3.2770248106534634 -13.708689290369138 -12.295523541097273 3 0 1
5682 1811 4 0 -2.9295897750839632 -13.977990520288774 -12.172399442221678 3 0 1
2797 849 4 0 -4.0788960050790575 -12.366509698330269 -12.262182549077632 10 1 0
4702 1484 4 0 -10.678398463670714 -11.607260609638558 -12.280313569573769 3 0 0
2352 701 4 0 -3.841748573697 -12.078789890771224 -12.107040973021531 2 0 1
2351 701 2 0 -3.9710310995570754 -11.658670984309328 -12.036624370082421 2 0 1
4052 1268 2 0 -12.575103050725716 -10.87517836218972 -11.849177060022216 11 1 1
4053 1268 4 0 -12.730978135697736 -11.22186525898824 -11.587800036867431 11 1 1
4700 1484 2 0 -10.303501391499683 -11.403242684488237 -12.282299817585438 3 0 0
4701 1484 4 0 -9.88459239936509 -11.180670884507652 -12.284148070434927 3 0 0
7279 2343 4 0 -9.548632054290628 -10.981564203605712 -12.338945204492559 11 1 1
2838 863 4 0 -7.015081753276063 -10.663036855291129 -11.484725175847128 10 1 0
2837 863 2 0 -6.574730543425883 -10.660673929650624 -11.558012410183505 10 1 0
2839 863 4 0 -6.157264672176099 -10.661300842719792 -11.618177253331414 10 1 0
3210 987 4 0 -5.74462455944429 -10.647449344215937 -11.595663010122292 10 1 0
2353 701 4 0 -4.105256579690376 -11.2064558297629 -11.967810907650236 2 0 1
4054 1268 4 0 -12.415870683270573 -10.523269002576333 -12.10639986377496 11 1 1
2217 656 4 0 -12.099134494328638 -10.36723957859213 -12.279335819000673 3 0 1
4483 1411 4 0 -8.408293712876056 -10.084719403573871 -11.826410455530393 3 0 0
547 110 3 0 -8.202025679590516 -9.813770345187464 -12.058431980478028 11 1 0
1012 254 4 0 -12.8502601984394 -8.964784273702403 -11.653251682655238 3 0 0
1010 254 2 0 -12.64967755560135 -9.181792949121688 -11.99388616428445 3 0 0
1011 254 4 0 -12.454486868231323 -9.423124786789206 -12.347391195206558 3 0 0
1024 258 4 0 -2.8152160753990305 -9.560711838006988 -11.950396456238584 2 0 0
1022 258 2 0 -2.356193538867375 -9.455174318426184 -11.971382306936063 2 0 0
1023 258 4 0 -1.9381581082735373 -9.345177711806 -11.987994545001992 2 0 0
3034 928 4 0 -1.5381302946415971 -9.303775527055208 -11.888292589687843 10 1 0
3032 928 2 0 -1.1353108661972762 -9.227159535050252 -12.092836754109895 10 1 0
3033 928 4 0 -0.7359771250135729 -9.149901690188203 -12.287546422472795 10 1 0
3039 930 4 0 -0.40281115204125584 -8.936677720992346 -12.201387834707958 10 1 0
7428 2393 4 0 -9.423872094581885 -5.468715933342013 -12.227195403606721 6 0 1
3081 944 4 0 -8.571762834419463 -4.811558568003326 -12.269687543025134 6 0 0
4635 1462 4 0 -11.25595725123458 -2.8274674529798958 -12.15901694519579 7 0 0
2592 781 4 0 -9.516365911492535 -2.846555317337467 -11.654440696618348 7 0 0
4636 1462 4 0 -11.94328873372447 -2.389749972715231 -11.786943325026707 7 0 0
4634 1462 2 0 -11.600227918388686 -2.608734186180479 -11.980572943245441 7 0 0
2591 781 2 0 -9.394224263422966 -2.4529109436830314 -11.499545844205054 7 0 0
2992 914 4 0 -10.761489175304412 -0.6209639734797481 -12.218990937746247 8 0 0
3133 961 4 0 -10.36672596889876 -0.7059222147191804 -12.268888915438753 8 0 0
3131 961 2 0 -9.925646240035604 -0.5475243001368479 -12.278337479500022 8 0 0
3132 961 4 0 -9.496940167364997 -0.39593715108958705 -12.277720184565656 8 0 0
1978 576 4 0 -9.243526711595006 -0.5682940330752171 -11.992284204861445 8 0 1
1976 576 2 0 -8.928475374896742 -0.25450924202015557 -11.88878429652475 8 0 1
6656 2136 2 0 -7.818541264265097 -0.08418859633730058 -11.581508458905297 8 0 0
6657 2136 4 0 -7.407828937458172 -0.2633273904740676 -11.535750752210694 8 0 0
4427 1393 2 0 -6.730524923448141 -0.5408913673158846 -11.671298924351127 8 0 0
4429 1393 4 0 -6.369789002164919 -0.6521172797507475 -11.932025912275469 8 0 0
660 137 4 0 -12.404836966942348 -11.743856037260818 -10.684827940985349 9 1 0
2777 843 2 0 -11.79867671301113 -11.186071079767316 -10.828350330257805 9 1 0
2778 843 4 0 -12.17661836544102 -11.424875436735702 -10.701350682695102 9 1 0
2779 843 4 0 -11.424239118999468 -10.951379486422748 -10.951417203595836 9 1 0
4481 1411 2 0 -8.406263895084988 -10.111281981394768 -11.398380748457972 3 0 0
4482 1411 4 0 -8.400212811649395 -10.133291703565337 -10.940557410262516 3 0 0
3209 987 2 0 -5.406855617355138 -10.55716983499763 -11.258848977894964 10 1 0
3211 987 4 0 -5.089717545787957 -10.471541137053364 -10.942259540972682 10 1 0
7543 2431 4 0 -4.717646326438214 -10.366453312294205 -11.062293723104888 11 1 1
7541 2431 2 0 -4.309483143701414 -10.262016576089039 -10.908247458426763 11 1 1
7542 2431 4 0 -3.8803263900824856 -10.152758395104193 -10.746471049985082 11 1 1
1423 391 4 0 -3.48224903967529 -10.156296407137496 -10.637221406388727 2 0 0
1421 391 2 0 -3.0482591315373533 -10.072006597586112 -10.698463808933251 2 0 0
973 241 4 0 -2.2229291202260644 -10.049364185810713 -10.678789592984975 2 0 0
971 241 2 0 -1.7799537524474474 -10.019435171397596 -10.663114773764296 2 0 0
1422 391 4 0 -2.6088561394294842 -9.976797516471395 -10.760291491374236 2 0 0
972 241 4 0 -1.3441936533575483 -9.99831856172572 -10.640399526018696 2 0 0
962 238 2 0 -14.081154244389646 -9.59963900856238 -10.628554413627958 3 0 0
735 162 4 0 -13.803891771176179 -9.075714625176214 -11.010438326722571 3 0 0
734 162 2 0 -13.359045262046301 -8.954632792513573 -11.164147039318655 3 0 0
964 238 4 0 -13.728556137295511 -9.437168374746381 -10.890755843639711 3 0 0
736 162 4 0 -12.959387566780318 -8.838892888047885 -11.301250935270474 3 0 0
4572 1441 4 0 -12.253023573788566 -9.248953192424416 -10.659029039575158 4 0 0
6470 2074 2 0 -4.148681751133466 -7.100248548465065 -10.691559861547006 12 1 0
6472 2074 4 0 -3.697479228023722 -7.059886347698342 -10.813349910889578 12 1 0
4654 1468 4 0 -3.2972418515357713 -7.014939036543705 -10.91643687337307 4 0 0
4652 1468 2 0 -2.8095844929556364 -6.918742637861225 -10.936746259123618 4 0 0
4653 1468 4 0 -2.397425255441581 -6.831763344685352 -10.955886163600217 4 0 0
6415 2055 4 0 -2.008530783024593 -6.675369820973787 -10.987019995912519 4 0 0
6413 2055 2 0 -1.5601090026474171 -6.7239259404549045 -10.979779587620039 4 0 0
6414 2055 4 0 -1.0953440350663737 -6.763302046332372 -10.978243722525303 4 0 0
1458 403 4 0 -0.8011101438342401 -6.703582563941651 -11.241789374258119 4 0 0
1457 403 2 0 -0.3309146530271274 -6.600936182404642 -11.195679741282422 4 0 0
1638 463 4 0 -12.645366686942397 -5.7544949691479665 -10.663034888321425 5 0 0
1637 463 2 0 -12.369827506794614 -5.524687319346311 -10.988122160996173 5 0 0
1639 463 4 0 -12.112793870242054 -5.300588388961131 -11.292704425719789 5 0 0
1177 309 4 0 -11.747526280852062 -5.176534357653944 -11.191397346016215 5 0 0
1176 309 4 0 -11.141800609712487 -4.592682888246731 -10.903889589294025 5 0 0
1175 309 2 0 -11.4405005743478 -4.888134322290675 -11.046058339685366 5 0 0
3445 1065 4 0 -12.612060203173012 -2.532524578921908 -10.743643996497374 7 0 1
3443 1065 2 0 -12.286843168629659 -2.5003045898534353 -11.067729015160598 7 0 1
3444 1065 4 0 -11.980155135815163 -2.463757182344308 -11.37337692068956 7 0 1
2593 781 4 0 -9.258525626216176 -2.040831010353674 -11.34311471635646 7 0 0
886 212 4 0 -8.964047696675571 -1.8661740513662206 -11.10632155570408 7 0 0
884 212 2 0 -8.531542083915241 -1.7777986200206009 -11.097667007868024 7 0 0
885 212 4 0 -8.095474828256766 -1.6852434043494071 -11.078032330175889 7 0 0
795 182 4 0 -7.783883683424457 -1.4587715784395332 -11.08893019126822 8 0 1
794 182 2 0 -7.341718900304824 -1.406287512299885 -11.000901543325513 8 0 1
796 182 4 0 -6.897056615609814 -1.3527686757950868 -10.918282931344041 8 0 1
7222 2324 4 0 -6.511832302215517 -1.410758348064153 -10.823157736434373 8 0 1
7220 2324 2 0 -6.084605223969344 -1.229941674990279 -10.857981671290757 8 0 1
7221 2324 4 0 -5.66598577727415 -1.0493373253359781 -10.892640439825989 8 0 1
1500 417 4 0 -5.257419053954237 -1.0791461443112347 -10.892121885605064 7 0 1
4428 1393 4 0 -7.07382671467133 -0.42444339128779873 -11.40874243357076 8 0 0
659 137 2 0 -12.375509752700742 -11.946287482494002 -10.279344010790744 9 1 0
661 137 4 0 -12.343052328676006 -12.15441188039019 -9.875542889033316 9 1 0
6502 2084 4 0 -8.19712632120724 -10.063329198571598 -10.576233201640969 11 1 0
6500 2084 2 0 -7.875796284431977 -9.739622559734428 -10.528151152395527 11 1 0
2037 596 4 0 -1.0101474388241947 -9.81117851631843 -10.583765944962138 2 0 1
4571 1441 2 0 -11.966286774023729 -9.021626411108663 -10.42148243996652 4 0 0
6501 2084 4 0 -7.5480691970340805 -9.42865857763064 -10.48242821165672 11 1 0
2036 596 2 0 -0.6112508921710624 -9.648147743010004 -10.377302411205202 2 0 1
2038 596 4 0 -0.2392890318618548 -9.499838655340701 -10.178408681711465 2 0 1
6228 1993 4 0 -13.602973343001919 -8.119164256011915 -10.081760457665146 12 1 0
6227 1993 2 0 -13.919103430701174 -8.351594088959972 -10.27172352084175 12 1 0
4775 1509 2 0 -12.770822573025582 -7.952807998091256 -10.061553167856633 4 0 0
4776 1509 4 0 -13.217331272677685 -7.993800977276023 -10.091681437461814 4 0 0
4573 1441 4 0 -11.656506238025116 -8.77313240574998 -10.16182133348836 4 0 0
363 73 3 0 -11.715324471341388 -8.428364077360646 -9.98539053905814 4 0 0
361 73 1 0 -11.672580648257297 -8.049920274144005 -9.770842404289134 4 0 0
5254 1668 4 0 -10.964725922098813 -7.999213769189506 -10.03799438608633 4 0 1
5252 1668 2 0 -10.498225528966127 -7.996354792009123 -10.065577638534245 4 0 1
5253 1668 4 0 -10.026353094830682 -7.994782175418198 -10.091868405602083 4 0 1
4842 1531 4 0 -9.64179792129757 -7.961278784812669 -10.037381175816991 4 0 0
4841 1531 2 0 -9.185429707909938 -7.9518466437445126 -10.108422353597803 4 0 0
4777 1509 4 0 -12.294895961440805 -7.918809820681564 -10.041362267845646 4 0 0
365 73 3 0 -11.914796297205823 -7.753793734379673 -9.960169201619163 4 0 0
362 73 3 0 -11.239690613776487 -7.920811677799359 -9.774604880297527 4 0 0
4843 1531 4 0 -8.727785272308363 -7.935518133610307 -10.179980264892576 4 0 0
5398 1716 4 0 -8.3943632465488 -7.761475200294689 -10.34541062510727 4 0 1
5396 1716 2 0 -7.9832767702820195 -7.5936044279521155 -10.415834594233944 4 0 1
5397 1716 4 0 -7.5746245637944645 -7.447571844172082 -10.475110911671992 4 0 1
4359 1370 4 0 -7.160997441434624 -7.48238657098746 -10.520144350950556 4 0 0
4358 1370 2 0 -6.715073689265866 -7.379869032400216 -10.493945983392118 4 0 0
4360 1370 4 0 -6.266353983852203 -7.266650301405946 -10.47298458633276 4 0 0
6523 2091 4 0 -5.865707786059575 -7.369899311430735 -10.54959430297837 12 1 0
6521 2091 2 0 -5.40741300429451 -7.354878994239 -10.540262801747263 12 1 0
6471 2074 4 0 -4.586255873226044 -7.125133416990648 -10.583414403972014 12 1 0
6522 2091 4 0 -4.950878114438005 -7.3386733551916485 -10.530115634446988 12 1 0
4613 1455 2 0 -12.239014564092423 -6.305779332822736 -10.131845716605314 6 0 0
4615 1455 4 0 -11.983855825779967 -6.644700923022202 -9.9014114136624 6 0 0
4614 1455 4 0 -12.460723263099393 -5.982295186190555 -10.346902539022473 6 0 0
2305 685 4 0 -8.571777698767168 -4.446674162612705 -10.14115784174338 5 0 1
4444 1398 4 0 -14.00235360859971 -4.360729831395391 -9.75141811918362 6 0 0
4466 1406 2 0 -13.18670579772536 -4.326022042599256 -9.755052727773933 6 0 0
4468 1406 4 0 -12.757942885748495 -4.225527077534798 -9.858417272496727 6 0 0
4863 1538 4 0 -12.396667003147556 -4.047775380655317 -9.852935689754476 6 0 0
943 231 4 0 -11.101841249580142 -4.365614013804258 -10.578949908212321 5 0 0
941 231 2 0 -10.781994789195707 -4.314899450636261 -10.280448865038853 5 0 0
942 231 4 0 -10.446990417864491 -4.25836500146055 -9.95268049718324 5 0 0
1002 251 4 0 -10.43449207335734 -3.950726271382667 -9.725527911900826 5 0 0
2303 685 2 0 -8.887628197579039 -4.274495785222159 -9.877872126000153 5 0 1
7156 2302 4 0 -8.335183738237351 -4.3296648588386155 -10.43170792421374 13 1 1
7154 2302 2 0 -7.959137657434129 -4.124895403284773 -10.502617940990923 13 1 1
7155 2302 4 0 -7.551930806748113 -3.9062207740281902 -10.569271166867773 13 1 1
2346 699 4 0 -7.363805868091759 -4.00843352087151 -10.229325232450764 5 0 1
2345 699 2 0 -6.928129122917764 -4.061588980522945 -10.128350068623089 5 0 1
2347 699 4 0 -6.500101149943575 -4.099186429839094 -10.02618040358916 5 0 1
2677 809 4 0 -6.641754387477762 -3.0866658631240327 -9.916286695518618 7 0 0
2675 809 2 0 -6.36099498368822 -2.756227061652467 -9.850482334572062 7 0 0
790 180 4 0 -13.817699895673167 -2.128403527704439 -9.778653885505143 7 0 0
1068 273 4 0 -8.673927582863357 -1.8887298321486998 -9.828190355018458 7 0 0
2676 809 4 0 -6.066788454014507 -2.412049201730728 -9.776635464376549 7 0 0
2836 862 4 0 -5.751481306095837 -2.1278704663046817 -9.748711408583418 7 0 0
1499 417 2 0 -4.920569124892417 -1.052553373531417 -10.58035380159825 7 0 1
1501 417 4 0 -4.579222887077766 -1.0301272420114707 -10.25768075449429 7 0 1
7356 2369 4 0 -4.213500108702396 -1.0890874430268696 -10.381184700831739 8 0 1
7355 2369 2 0 -3.7723631310213115 -1.062619008906637 -10.316302828977731 8 0 1
7357 2369 4 0 -3.3285475517013765 -1.0204935410010307 -10.256169231360042 8 0 1
7410 2387 4 0 -2.9412582987693003 -0.9498516159466721 -10.236427853627063 8 0 1
7409 2387 2 0 -2.578588835759639 -1.0598849290265306 -10.002661660487632 8 0 1
7411 2387 4 0 -2.2088599974340255 -1.1762936615701687 -9.765400402221719 8 0 1
68 14 3 0 -8.545468847390952 -0.727356929748332 -9.732265114990723 7 0 0
1267 339 4 0 -8.248928098265997 -0.5345015038639005 -9.928034166398175 7 0 0
1265 339 2 0 -8.149896253520097 -0.12630553124000166 -9.776147183256288 7 0 0
6746 2166 2 0 -13.753038048577535 -14.03968855250586 -9.344289772786441 14 1 0
6747 2166 4 0 -13.300309968235025 -14.127676857633487 -9.301823982334364 14 1 0
5675 1809 2 0 -5.2802285628716294 -13.995672513284205 -8.950231283530325 6 0 0
6490 2080 4 0 -14.049557152644704 -13.123128655990529 -8.962885782240802 10 1 0
6732 2161 4 0 -12.999742039188394 -13.006304871109668 -8.903802148995098 10 1 0
4871 1541 2 0 -12.377497846159999 -12.61914910274143 -9.202772554615464 2 0 0
4873 1541 4 0 -12.48958956533266 -12.40380393795566 -9.585225937471849 2 0 0
752 168 2 0 -13.525799892813657 -9.188303337370307 -8.862188908647928 4 0 0
753 168 4 0 -13.94927181792406 -9.32952498801878 -8.90941550357535 4 0 0
2579 777 2 0 -12.533253145405013 -8.491940014458079 -9.052928733663787 11 1 0
2580 777 4 0 -12.896515588554495 -8.711906711028783 -8.87881332049878 11 1 0
364 73 3 0 -11.813382771486205 -8.106616557935219 -9.338561101193651 4 0 0
2581 777 4 0 -12.201285603249097 -8.270993351412052 -9.246927299803946 11 1 0
1309 353 4 0 -11.797048010696583 -6.860162872696475 -9.59303711012086 5 0 0
1307 353 2 0 -11.755385896262368 -6.6564309282633864 -9.178983113957319 5 0 0
1542 431 4 0 -6.470897591003371 -6.432104499678688 -8.918024977460473 5 0 0
1434 395 4 0 -13.973203900890935 -5.521650033213405 -8.988415111694879 5 0 0
1279 343 4 0 -7.491718934104594 -5.708710803077484 -9.372050294037972 5 0 0
1277 343 2 0 -7.108501649521168 -5.931115801622619 -9.223564518297687 5 0 0
1329 360 4 0 -7.672878281691117 -5.356271933211364 -9.355844762617354 5 0 0
1278 343 4 0 -6.732367481616375 -6.1463002622333045 -9.08678096950832 5 0 0
929 227 2 0 -8.999934923310636 -4.8573591491433135 -8.88692935305067 5 0 0
1330 360 4 0 -8.329989157594078 -4.759911353494495 -9.270498829460433 5 0 0
1328 360 2 0 -7.997073036417712 -5.056793803117785 -9.315027342060379 5 0 0
930 227 4 0 -8.71064225056281 -4.800988185074086 -9.197705896846081 5 0 0
4202 1318 2 0 -1.1960585529142627 -4.428826575536682 -9.069669544639591 5 0 0
4204 1318 4 0 -0.8611643530163953 -4.720989757881387 -9.227040478345232 5 0 0
5628 1793 4 0 -0.4838267895467503 -4.751986422971097 -9.168369706853298 5 0 1
5627 1793 2 0 -0.13439526182665418 -4.988178496918037 -9.308139525488318 5 0 1
4467 1406 4 0 -13.614531181523404 -4.412483496684047 -9.645305939610154 6 0 0
4862 1538 2 0 -12.287122609091348 -3.7014617851680427 -9.558443939268102 6 0 0
1001 251 2 0 -9.98733260504087 -3.9087917583324536 -9.61172087519989 5 0 0
1003 251 4 0 -9.548062000385993 -3.869088752879483 -9.51061056856879 5 0 0
2304 685 4 0 -9.216111658937866 -4.104362814965853 -9.606492552444942 5 0 1
4203 1318 4 0 -1.5075208996278722 -4.149352389072632 -8.924705699656641 5 0 0
4864 1538 4 0 -12.167374965311708 -3.3545622314035946 -9.254158586167486 6 0 0
6324 2025 4 0 -11.899419356867725 -3.0926025111210897 -9.116004553803515 6 0 0
765 172 4 0 -8.104494037998826 -2.7350927778385277 -9.131324555153345 7 0 0
788 180 2 0 -13.373953020426347 -2.0586849707606305 -9.66629947212105 7 0 0
789 180 4 0 -12.955615045286878 -1.9810578061356576 -9.559230460866523 7 0 0
1231 327 4 0 -12.652259890699629 -1.8543667974054951 -9.34703541510363 6 0 0
2607 786 4 0 -12.849641157853496 -2.5741572012623717 -8.97321993612034 7 0 0
1069 273 4 0 -8.43026638372331 -2.570970841815617 -9.291826196569195 7 0 0
1067 273 2 0 -8.554315344382566 -2.2296527314555696 -9.559593070016946 7 0 0
764 172 2 0 -7.723752957886083 -2.625034805754053 -8.896086062792557 7 0 0
2834 862 2 0 -5.3951414626940455 -1.8697896137384085 -9.694482315532742 7 0 0
1229 327 2 0 -12.222405692505323 -1.76082525997432 -9.409237903037416 6 0 0
1230 327 4 0 -11.785042391636079 -1.6758634302241617 -9.46278620583587 6 0 0
2143 631 4 0 -11.406076626607677 -1.5741204808753952 -9.513002135164358 7 0 1
2141 631 2 0 -10.947053369221015 -1.441484099494927 -9.524598478080362 7 0 1
2142 631 4 0 -10.501481674190712 -1.31758865740567 -9.536786465352906 7 0 1
639 130 4 0 -10.136609257617813 -1.1147245114464255 -9.41287751875371 7 0 0
638 130 2 0 -9.707332948614248 -1.0471191478309372 -9.289238698297426 7 0 0
640 130 4 0 -9.275004845535097 -0.9787537028693105 -9.159273990430405 7 0 0
70 14 3 0 -8.879501985532961 -1.137575090952815 -9.17138872345833 7 0 0
69 14 3 0 -8.545709751519587 -1.5019715131242357 -9.705854749137849 7 0 0
66 14 1 0 -8.529845307567356 -1.1313213540140854 -9.455983409822975 7 0 0
67 14 3 0 -8.129244819018254 -1.137443083604074 -9.206603504345068 7 0 0
1077 276 4 0 -7.717878118093291 -1.2614386973139418 -9.272253951123846 7 0 0
1076 276 2 0 -7.255280452444222 -1.1557934408783996 -9.393082308817183 7 0 0
1078 276 4 0 -6.801439596473503 -1.0459220788566022 -9.504383955591711 7 0 0
1367 373 2 0 -6.000060224501642 -0.8995420216341969 -9.521292664348838 7 0 0
1369 373 4 0 -5.5201233176755355 -0.9399686223654271 -9.542167153870041 7 0 0
2835 862 4 0 -5.036644024367899 -1.6258419426574413 -9.648958137117091 7 0 0
76 16 1 0 -4.760530944455814 -1.0304378893638386 -9.300337233379217 7 0 0
79 16 3 0 -4.711102351527039 -1.4277792824544573 -9.582537183213608 7 0 0
78 16 3 0 -4.798480087949487 -1.1634296009406668 -8.861021963980706 7 0 0
5007 1586 4 0 -1.8181648428081942 -1.056279039998154 -9.70229802519059 8 0 0
5006 1586 2 0 -1.4392621448745668 -0.9672378385648219 -9.444075504433325 8 0 0
1368 373 4 0 -6.453100566859251 -0.8525578936411726 -9.508811311035258 7 0 0
77 16 3 0 -5.150027075099359 -0.7982667105555201 -9.431631529597894 7 0 0
80 16 3 0 -4.37683819081002 -0.7625253572327324 -9.34648901206288 7 0 0
727 159 4 0 -3.9910223113111485 -0.6846457270560915 -9.24900025009356 7 0 0
725 159 2 0 -3.5676762566579328 -0.5245732387556394 -9.224803561419051 7 0 0
726 159 4 0 -3.124910956847918 -0.3491286119795376 -9.196002701754354 7 0 0
1269 340 4 0 -2.70981945305698 -0.3247958512320981 -9.118630464859098 7 0 0
1268 340 2 0 -2.2270338451723237 -0.20143499436789725 -9.135343581309762 7 0 0
1270 340 4 0 -1.7661069074660425 -0.07456588629129435 -9.15277717197364 7 0 0
5008 1586 4 0 -1.0795806961591996 -0.8801214599762481 -9.205847459564447 8 0 0
502 101 3 0 -0.895810455538852 -0.739133608493761 -8.866524540011218 8 0 0
6733 2161 4 0 -13.805708227325878 -13.301068645064122 -8.654184193851396 10 1 0
3841 1197 4 0 -11.117557066839861 -13.26152757526696 -8.396253885391419 10 1 1
3175 975 4 0 -10.729410013688279 -13.353641501387274 -8.257119488557 10 1 0
3173 975 2 0 -10.266550716988501 -13.396168184572943 -8.218603363387041 10 1 0
3174 975 4 0 -9.801680394523377 -13.44465051612493 -8.175988221566431 10 1 0
2596 782 4 0 -9.410625157101698 -13.501108596442176 -8.238585362942286 10 1 0
2594 782 2 0 -8.996846815540398 -13.614061515707265 -8.087263087754334 10 1 0
2418 723 4 0 -8.182280371249849 -13.914425017532498 -7.978288245982147 10 1 0
2419 723 4 0 -7.2607321126671005 -14.052530354174639 -8.025616857447625 10 1 0
2417 723 2 0 -7.720393430443843 -13.976971519104746 -8.003753319066801 10 1 0
5677 1809 4 0 -5.553393801098471 -13.83331838825743 -8.62106282250612 6 0 0
335 67 3 0 -5.462605861015755 -13.838235970280024 -8.228350338835352 2 0 0
6731 2161 2 0 -13.410164390190975 -13.151508380080777 -8.779427898081199 10 1 0
4872 1541 4 0 -12.263842592743813 -12.821861098036859 -8.82731765280158 2 0 0
3840 1197 4 0 -11.970857358857941 -13.00349168617362 -8.63827362874994 10 1 1
3839 1197 2 0 -11.549461745486408 -13.129685818962285 -8.517461965820907 10 1 1
1028 260 2 0 -4.569098678916134 -13.166815440056666 -8.46885720969351 1 0 0
1029 260 4 0 -4.853665025118216 -13.194074460449704 -8.131095889814652 1 0 0
1030 260 4 0 -4.296688860333674 -13.138517675558386 -8.795695533733387 1 0 0
2659 803 4 0 -6.955105403706428 -12.062470508014083 -8.080361076358514 2 0 0
934 228 4 0 -6.726152541567817 -11.720477054812363 -8.046920609388518 2 0 0
932 228 2 0 -6.290231265906902 -11.601615651291281 -8.117969152799239 2 0 0
933 228 4 0 -5.866828859308056 -11.481318803398619 -8.194134038435692 2 0 0
1009 253 4 0 -8.523063889012793 -11.238482533425636 -7.949278407196044 2 0 0
775 175 4 0 -5.704916789294895 -11.140924026447289 -8.33417803330757 2 0 0
773 175 2 0 -5.375697278715805 -10.81821716126733 -8.402652634535643 2 0 0
7335 2362 4 0 -4.681964059769156 -10.603015472526437 -8.555398835916721 10 1 1
7334 2362 2 0 -4.236568497150021 -10.797438167680818 -8.571939283696171 10 1 1
7336 2362 4 0 -3.8000403260163793 -10.987730994060577 -8.592123367670112 10 1 1
6210 1987 4 0 -3.444178916651609 -11.143179189528189 -8.699684450380094 10 1 0
6209 1987 2 0 -2.993956438870507 -11.179522242780134 -8.611376375451787 10 1 0
6211 1987 4 0 -2.5743422304541674 -11.2106345089642 -8.536478054766516 10 1 0
763 171 4 0 -2.3701740588260236 -10.959770521190721 -8.320707607904374 2 0 0
761 171 2 0 -1.932135105893364 -10.897334467654396 -8.197922830268187 2 0 0
762 171 4 0 -1.4950539041490565 -10.83519583034038 -8.0534991392455 2 0 0
774 175 4 0 -5.064425682328999 -10.522314543518803 -8.463495842470387 2 0 0
754 168 4 0 -13.110551511691144 -9.056731516184302 -8.817136321261119 4 0 0
5586 1779 4 0 -13.752513621955634 -7.178229294365176 -8.40290106272701 5 0 1
4812 1521 4 0 -14.050503533071616 -7.423230461779543 -8.444772324806602 5 0 0
3127 959 4 0 -7.999898055741615 -7.458594141027493 -8.24391121315967 4 0 0
807 186 4 0 -8.369522834065966 -7.263249919538249 -8.223657704686078 4 0 0
3125 959 2 0 -7.982754005205616 -7.803002708050311 -7.979447243644941 4 0 0