LAMMPS data file via write_data, version 29 Aug 2024, timestep = 900000, units = lj

688 atoms
4 atom types
492 bonds
1 bond types
446 angles
2 angle types

-4.496439 4.496439 xlo xhi
-4.496439 4.496439 ylo yhi
-4.496439 4.496439 zlo zhi

Masses

1 1
2 1
3 0.1
4 0.1

Bond Coeffs # harmonic/omp

1 100 0.45

Angle Coeffs # harmonic/omp

1 100 180
2 100 109.471

Atoms # full

307 69 4 0 -4.416384148123872 -3.7661483001972083 -4.18447042778286 0 0 1
283 61 4 0 -1.9259299013281959 -4.248033049888443 -3.1190086639904284 0 0 0
281 61 2 0 -1.7309241021666901 -4.261899515168921 -3.507409679497569 0 0 0
282 61 4 0 -1.531581886178489 -4.269926415934037 -3.917588792796123 0 0 0
322 74 4 0 -1.5393507444806787 -4.35001890470066 -4.308228718931856 0 0 1
285 62 4 0 -0.5021807453278896 -3.9723108820609556 -3.3912941630947473 0 0 0
13 3 3 0 -0.6562695642225224 -3.983964358756614 -3.7412737368786617 0 0 0
11 3 1 0 -0.7310197872708454 -4.342374419273476 -4.020042007184618 0 0 0
14 3 3 0 -0.4730632564475331 -4.300111915212704 -4.419776904272969 0 0 0
15 3 3 0 -1.1970883343746654 -4.357825170561387 -4.118988524889736 0 0 0
284 62 2 0 -0.7322470582988015 -3.894719824933623 -3.0418949923066303 0 0 0
352 84 4 0 -2.055257540743261 -1.9151937862780413 -3.9495393741967026 0 0 1
350 84 2 0 -2.2009789929377326 -2.0336720501436543 -3.5663929897431994 0 0 1
312 71 4 0 -1.9638530045380176 -2.0840348503012605 -4.305873224294032 0 0 1
47 10 3 0 -2.133755955812248 -1.6961306072410296 -4.274139768973244 0 0 1
351 84 4 0 -2.353519676750861 -2.166401401358743 -3.1587761180851874 0 0 1
323 75 2 0 -4.174760807195202 -0.21313718984118302 -4.265441296318589 0 0 1
324 75 4 0 -3.729391823657158 -0.21177710766274319 -4.16133349616511 0 0 1
331 77 4 0 -3.4893191925135065 -0.42783553851581135 -4.421529499618316 0 0 1
329 77 2 0 -3.0721783268938756 -0.5999555615257549 -4.381943339210936 0 0 1
330 77 4 0 -2.6685331307499047 -0.7648228317231507 -4.3448694548294595 0 0 1
50 10 3 0 -2.293443918477302 -0.9465540670215559 -4.270687866677924 0 0 1
46 10 1 0 -2.0116900243698135 -1.2767000444070609 -4.450652465603559 0 0 1
48 10 3 0 -1.5672642168509245 -1.1829104287523171 -4.333354270935581 0 0 1
370 90 4 0 -3.899054618008136 -4.411516258324112 -2.575853746541389 0 1 0
482 128 2 0 -4.332676923851523 -3.7177433657815193 -2.4105732769724426 1 0 0
483 128 4 0 -4.20110344567146 -4.158448798364083 -2.5069841277214526 1 0 0
484 128 4 0 -4.465882220117152 -3.287338756980584 -2.3118548175499987 1 0 0
27 6 3 0 -1.7633255889588713 -4.206939665821474 -2.758667896806101 0 0 0
265 55 4 0 -2.1488935852197715 -3.1851175805609766 -2.482385298933826 0 0 0
28 6 3 0 -2.064062797095696 -3.521238509991235 -2.648191525684626 0 0 0
385 95 4 0 -2.0832130466574377 -4.440061450648482 -2.7964110648977156 0 1 0
26 6 1 0 -1.7322674466697396 -3.827408907035388 -2.516128746134709 0 0 0
29 6 3 0 -1.7792564932584867 -3.9290937946909206 -2.087406245011497 0 0 0
286 62 4 0 -0.9650463834822207 -3.8197734304177833 -2.670945300933214 0 0 0
30 6 3 0 -1.2939056771159418 -3.6243886581335083 -2.5825013304513487 0 0 0
276 59 4 0 -4.422886731639289 -2.9229582718499256 -2.4012223355508864 0 0 0
275 59 2 0 -4.105809702091307 -2.590559882973843 -2.3802120561202784 0 0 0
288 63 4 0 -3.5546031058785337 -2.0991943039312955 -2.676564464447892 0 0 0
277 59 4 0 -3.7903464069487316 -2.2539987735960114 -2.355922899610884 0 0 0
486 129 4 0 -3.8322248943147055 -1.882213520500196 -2.516479681020713 1 0 0
287 63 2 0 -3.1124524785530925 -2.115341403630281 -2.8013960575688706 0 0 0
485 129 2 0 -3.8151773194666028 -1.526615275579219 -2.2197118941635594 1 0 0
289 63 4 0 -2.660573308103065 -2.1289753252730956 -2.9231024786592297 0 0 0
264 55 4 0 -2.369040461716131 -2.3704110498594706 -2.847377890098336 0 0 0
263 55 2 0 -2.25293463152841 -2.788856902098442 -2.6569414718965656 0 0 0
328 76 4 0 -2.3068146112238894 -1.970294613689053 -2.8124386404091517 0 0 1
326 76 2 0 -2.1309277247622775 -1.7036147919208153 -2.506254575702957 0 0 1
468 123 4 0 -3.63582142478447 -0.006798888692248106 -2.416777010359489 0 0 1
487 129 4 0 -3.8067102631228433 -1.183988655193857 -1.9280820735784876 1 0 0
467 123 2 0 -3.660112342092548 -0.4126348774247777 -2.1872806798143745 0 0 1
469 123 4 0 -3.6892476638963903 -0.7958730026856409 -1.958966150355543 0 0 1
273 58 4 0 -3.9485522945084828 -0.9116871744109335 -1.678572080132251 0 0 0
295 65 4 0 -3.5683365309288506 -1.0292149448071444 -1.6454249166216048 0 0 0
327 76 4 0 -1.9412617571031863 -1.4288699978593462 -2.1631596062801957 0 0 1
396 99 4 0 -1.8351309681785608 -1.2988431570657948 -1.797754573324945 0 0 0
259 53 4 0 -1.5835098072689522 -1.2520074063578965 -2.107374658620636 0 0 0
268 56 4 0 -0.3621237133080392 -1.4729956772667587 -2.590810548418601 0 0 0
258 53 4 0 -0.6852701664587431 -1.3645709122838827 -2.3235882657497102 0 0 0
257 53 2 0 -1.1304300194010992 -1.309410663852935 -2.21308235221199 0 0 0
299 67 2 0 -1.627504825933042 -3.098618658110244 -0.04539496717676224 0 0 0
300 67 4 0 -1.4529295492203549 -3.4972404630487417 -0.011025672501703394 0 0 0
80 16 3 0 -1.396323632278522 -4.446702180705437 -0.027380579837013294 0 1 0
353 85 2 0 -3.5623191991774563 -2.1516362725607876 -0.004105471928134059 0 0 0
355 85 4 0 -3.935047151421594 -2.299615479902448 -0.1380648099033588 0 0 0
251 51 2 0 -2.726420662166393 -1.5013244280885083 -0.471241342017536 0 0 0
301 67 4 0 -1.8129395898957952 -2.6655863381015372 -0.0935842957358821 0 0 0
253 51 4 0 -2.8991179543035708 -1.758256077509746 -0.08671308175030634 0 0 0
34 7 3 0 -2.1421817596816597 -2.4339375699238643 -0.03293266398990708 0 0 0
9 2 3 0 -4.356083186039198 -0.8914947806671387 -0.3451697166982203 0 0 0
272 58 2 0 -4.2628305252867404 -0.7666993992444804 -1.3694081820913917 0 0 0
293 65 2 0 -3.206346273278073 -1.0688843210742671 -1.3494261204695934 0 0 0
256 52 4 0 -3.0108016760523806 -0.14385304988898626 -0.14816837649141051 0 0 0
252 51 4 0 -2.559363477881719 -1.2595556754156827 -0.8246556163537972 0 0 0
261 54 4 0 -2.053812210842174 -0.03352402733633754 -0.5529818456091354 0 0 0
95 19 3 0 -2.5464334070861363 -0.17138244048165738 -1.0541790174482069 0 0 0
91 19 1 0 -2.5405326645660993 -0.4583505146962367 -0.7279965052700607 0 0 0
397 99 4 0 -2.4628175551220677 -1.1524985018023186 -1.1832300401708091 0 0 0
94 19 3 0 -2.562565221992551 -0.8716399380534964 -0.8893414115094525 0 0 0
294 65 4 0 -2.845781999496818 -1.0937389858465394 -1.0497903355362044 0 0 0
92 19 3 0 -2.897644320322107 -0.3754216226422717 -0.45036498466346236 0 0 0
93 19 3 0 -2.1499220766636236 -0.4120651970828884 -0.4940473561477674 0 0 0
395 99 2 0 -2.1519107995644995 -1.2235216218786864 -1.4929643692208527 0 0 0
76 16 1 0 -1.6993838548550821 -4.229957525893138 0.23475632327903825 0 1 0
79 16 3 0 -1.7372433912837284 -3.785502254128343 0.08460693063719854 0 1 0
78 16 3 0 -2.0904706723507585 -4.431802734177623 0.2049691024121897 0 1 0
308 70 2 0 -1.5508860324327023 -3.762234169045893 1.3012367840776293 0 0 0
77 16 3 0 -1.5543141605441961 -4.230661499254582 0.6831791829863118 0 1 0
315 72 4 0 -1.7266880897351384 -3.074246171573411 1.3930633841655264 0 0 0
310 70 4 0 -1.3862667819878602 -4.078801803534434 1.0062281259300856 0 0 0
390 97 4 0 -1.156632610579332 -4.233882677536438 0.7354171047017004 0 1 0
389 97 2 0 -0.7094416919136108 -4.2361534893304125 0.6810367873428768 0 1 0
391 97 4 0 -0.2177152021539422 -4.240228953310777 0.6286938153389132 0 1 0
244 49 3 0 -0.056813308795816336 -4.445496470900853 0.3283847784012213 0 1 0
408 103 4 0 -1.4099837376614133 -4.4839259394594 0.9367346172943001 0 1 0
199 40 3 0 -4.240941151535716 -2.204641666268306 0.12401105441077671 1 0 0
541 147 4 0 -4.487900638749215 -1.7786383309635865 1.1447823942655957 1 0 0
354 85 4 0 -3.151967592475263 -1.9788107837358793 0.12779826971714092 0 0 0
197 40 3 0 -4.384458653271278 -1.98538941497488 0.8254685401615196 1 0 0
298 66 4 0 -2.920332402726537 -1.7617020472440565 0.3592065737485041 0 0 0
35 7 3 0 -2.732455569567093 -2.754879954491441 0.35415740043140936 0 0 0
31 7 1 0 -2.4855932760554222 -2.348931153312117 0.26970926241020104 0 0 0
32 7 3 0 -2.3143124206318637 -2.199951085809789 0.6630699901915125 0 0 0
316 72 4 0 -2.0044648724858933 -2.353091634550947 0.8632934157664118 0 0 0
33 7 3 0 -2.753559174148299 -2.0546180230705993 0.10759679517289485 0 0 0
314 72 2 0 -1.8675367408621624 -2.7187241380204945 1.130566580772462 0 0 0
3 1 3 0 -1.761854818490621 -2.018185148697287 0.8128764510338032 0 0 0
4 1 3 0 -1.5567563589341116 -1.8444258316252253 0.10957878032274056 0 0 0
1 1 1 0 -1.403200821827142 -1.9163509914247323 0.5333057768819686 0 0 0
5 1 3 0 -1.1019917070899348 -2.249694286787126 0.5238553143132251 0 0 0
270 57 4 0 -0.759528715425438 -2.0240501170038914 0.6499511205002981 0 0 0
269 57 2 0 -0.3914046625578768 -2.304660956733185 0.5218189176925006 0 0 0
358 86 4 0 -0.8303729706053852 -1.6462772936985728 0.7525998748408402 0 0 0
271 57 4 0 -0.0309088462679052 -2.574390325513573 0.39572517759655446 0 0 0
2 1 3 0 -1.2059299881590273 -1.5232129370644893 0.6948992598129362 0 0 0
44 9 3 0 -3.7094873348492725 -0.05118692467910154 1.1174408064109036 0 0 0
539 147 2 0 -4.263979376063567 -1.432527318749257 1.3256620298579913 1 0 0
41 9 1 0 -3.570262653593557 -0.4753910101674849 1.2846790664843775 0 0 0
45 9 3 0 -3.4175357868188936 -0.7439330361563146 0.9160675931818871 0 0 0
596 166 2 0 -4.340010479508954 -0.05616154781573722 0.6321029632171055 1 0 0
297 66 4 0 -3.1442111692673014 -1.0092049307606092 0.8218307113183565 0 0 0
255 52 4 0 -3.147531164941918 -0.6500190619276114 0.6233075945224777 0 0 0
296 66 2 0 -3.034658500487383 -1.3942121140835582 0.5882066954831134 0 0 0
254 52 2 0 -3.0848578423931943 -0.39206395133718885 0.2307037440618225 0 0 0
43 9 3 0 -3.925532417109503 -0.6795908703041442 1.488269089915693 0 0 0
356 86 2 0 -0.5607900391491807 -1.3185870225048153 0.9968788094098338 0 0 0
344 82 2 0 -0.22069890839872497 -0.2518278801619753 0.9915749192109307 0 0 0
357 86 4 0 -0.3058296685483243 -1.0069959701158144 1.209277410807725 0 0 0
345 82 4 0 -0.25719519415754183 -0.630360407276529 1.2193317493587748 0 0 0
387 96 4 0 -3.303042399861879 -4.164824396614415 1.7448167113772348 0 1 0
336 79 4 0 -1.6572185006991627 -3.2825243826649095 2.6793851650966083 0 0 0
335 79 2 0 -1.6854427940801053 -3.188523895937596 2.2558595145910942 0 0 0
337 79 4 0 -1.703043068825019 -3.109563652392906 1.7925704232086896 0 0 0
309 70 4 0 -1.717024286789328 -3.43879012986052 1.5948735732222217 0 0 0
120 24 3 0 -1.8086010650099003 -4.313014225550689 2.9945013477315388 0 1 0
119 24 3 0 -1.7669755122068374 -3.576300806045852 2.9236719193968255 0 1 0
38 8 3 0 -1.713703573282922 -2.9536553373550434 2.906412000341363 0 0 0
540 147 4 0 -4.032038083229836 -1.061007636257536 1.5294344637700836 1 0 0
42 9 3 0 -3.2429668650125567 -0.41826101007774474 1.5825834363259028 0 0 0
291 64 4 0 -4.2049657899885595 -0.7689595913033365 1.7618935759143897 0 0 0
458 120 2 0 -3.1594427736178794 -0.4237518151549986 2.3683759967661495 0 0 0
460 120 4 0 -3.254233929785069 -0.5293211394669344 2.769261898542086 0 0 0
290 64 2 0 -4.435852439741072 -0.4602921553653217 1.934760485274525 0 0 0
459 120 4 0 -3.064757092765559 -0.3115488075882848 1.912637201764169 0 0 0
574 158 4 0 -3.6276646266584502 -0.48605082938194205 2.9369089784731996 1 0 0
193 39 3 0 -0.4814862299394844 -0.2759161140046369 2.0594650349197408 0 0 0
195 39 3 0 -0.34669355377535255 -0.8134507164377563 1.544730220056016 0 0 0
319 73 4 0 -0.6923357260610148 -0.9235845314701343 2.557472689046907 0 0 0
191 39 1 0 -0.3834383002007702 -0.7189382411069242 2.0033598367716383 0 0 0
192 39 3 0 -0.723858684615608 -0.9740663901439816 2.180574095612943 0 0 0
638 180 2 0 -4.059392891054351 -4.462783044529069 3.5369160979248964 1 1 0
305 69 2 0 -4.329259277100154 -3.759290289259417 4.372021624169515 0 0 0
640 180 4 0 -4.1398363724147424 -4.0276209548263395 3.67810666512065 1 1 0
340 80 4 0 -3.8483449579386333 -3.788407685672472 3.8376785718994224 0 0 0
338 80 2 0 -3.4536614988892937 -3.5869207376092933 3.744328749741966 0 0 0
306 69 4 0 -4.235245182043937 -3.74771328508396 3.93606944752725 0 0 0
339 80 4 0 -3.05206598763225 -3.379528396516121 3.645470999583527 0 0 0
321 74 4 0 -1.8162642808743537 -3.9579274718107396 3.9504150744547113 0 0 0
118 24 3 0 -1.746155996146526 -3.9118927677627555 3.562432731624175 0 1 0
320 74 2 0 -1.6788881052405498 -4.15319448909866 4.3169742504553845 0 0 0
116 24 1 0 -1.6284635922263353 -3.9572053979216224 3.1602912503032705 0 1 0
361 87 4 0 -2.669990169780144 -3.438633702459647 3.5224529868396472 0 0 0
359 87 2 0 -2.363034420136956 -3.1740565380401704 3.688836750157647 0 0 0
674 192 2 0 -0.04576783863088126 -3.5846222323361587 4.478094716584526 0 1 0
435 112 4 0 -0.9406238991997996 -4.088133989141048 3.441730813577333 0 1 0
434 112 2 0 -0.7264253406179904 -4.1244612878761755 3.7902796456220456 0 1 0
436 112 4 0 -0.47551193178347173 -4.161686798248271 4.209361803485827 0 1 0
117 24 3 0 -1.1805012268080322 -3.989483254408616 3.1366644917868287 0 1 0
604 168 4 0 -0.12384195026800965 -4.2754056776490055 4.350876958279138 0 1 -1
676 192 4 0 -0.2951867985748011 -3.9426696232078884 4.451805537020508 0 1 0
360 87 4 0 -2.033255913198232 -2.893864508672096 3.861530630660937 0 0 0
39 8 3 0 -1.7809607899482542 -2.6917858364164324 3.6043170894884358 0 0 0
313 71 4 0 -1.7323421575354756 -2.686850252758499 3.9923400524122115 0 0 0
311 71 2 0 -1.846395240930121 -2.3811076547351293 4.345247562349346 0 0 0
334 78 4 0 -1.5559867366678328 -1.8752597234941497 3.0719487680553903 0 0 0
332 78 2 0 -1.6915054700641603 -1.6081990101606845 3.408438028659179 0 0 0
40 8 3 0 -1.5132707691196203 -2.2673138797331482 3.047859137022532 0 0 0
36 8 1 0 -1.5269375928591844 -2.682528798203357 3.215652014744653 0 0 0
185 37 3 0 -0.0014007436675593597 -1.993501062509225 3.776759106574275 0 0 0
37 8 3 0 -1.1227626181821366 -2.81399737330253 3.308398550143151 0 0 0
349 83 4 0 -0.9083231370301109 -2.6475812390915503 3.6113985337794396 0 0 0
347 83 2 0 -0.5621263482707838 -2.4904180872170887 3.7459991150654144 0 0 0
348 83 4 0 -0.1773672795541544 -2.327373117463198 3.8905602774200565 0 0 0
572 158 2 0 -4.023849985681325 -0.4852718484215304 3.1228120727405115 1 0 0
573 158 4 0 -4.442291333643804 -0.48131549185245753 3.310228461989308 1 0 0
49 10 3 0 -2.049246122868954 -1.2845289740608195 4.079124181305311 0 0 0
333 78 4 0 -1.8220034926304007 -1.343773586555824 3.741780068002463 0 0 0
341 81 2 0 -0.9077367244459941 -1.221739225901683 4.129537355855246 0 0 0
317 73 2 0 -0.6314786683944023 -1.0383724564747128 3.019260270702348 0 0 0
342 81 4 0 -0.5064490183146444 -1.2463545312678828 3.8666804492226174 0 0 0
318 73 4 0 -0.5671157391548164 -1.1533467338280923 3.4555870813975034 0 0 0
184 37 3 0 -0.27582593812021844 -1.3658001183940285 3.5641188893266627 0 0 0
343 81 4 0 -1.2831310083808942 -1.2069310249289011 4.380396979291597 0 0 0
215 43 3 0 -4.4532840827019715 1.265402625809862 -3.2777728494989584 1 0 0
653 185 2 0 -4.163310913424812 2.8901934388320507 -4.253890034916629 1 0 1
629 177 2 0 -4.4616799160493334 2.0943730867840884 -3.5155174535384672 1 0 0
631 177 4 0 -4.3884872397684775 1.6610816312471182 -3.3521846272468507 1 0 0
655 185 4 0 -4.496314257086399 2.7929454307727406 -3.964302286412314 1 0 1
74 15 3 0 -0.455308632757082 2.481465934105975 -3.4883745582469516 0 0 0
71 15 1 0 -0.3660871664234295 2.733592682594713 -3.843130469496194 0 0 0
72 15 3 0 -0.29504035011936863 2.4789336138607836 -4.2074118285475866 0 0 0
440 114 2 0 -0.13423549482644861 1.6731117967999296 -4.300168445177618 0 0 1
441 114 4 0 -0.30519514387985797 2.0952064627911247 -4.311790892730592 0 0 1
73 15 3 0 -0.7428655575773018 3.0203102263556683 -3.9411782631884047 0 0 0
426 109 4 0 -0.9925272028135589 3.3098683743391875 -4.095040748637926 0 0 1
504 135 4 0 -0.41055701491331625 4.143007544934319 -3.4789641741874 0 -1 0
12 3 3 0 -0.6090475346774574 4.26970623280427 -3.790482920972627 0 -1 0
503 135 2 0 -0.16423210383988618 3.797463876850263 -3.572683644594063 0 -1 0
425 109 2 0 -1.2050949563064661 3.163306182818928 -4.475139292980512 0 0 1
664 188 4 0 -3.7395089235782253 0.18116939746106622 -2.7629661653997957 1 0 1
662 188 2 0 -4.164492842857162 0.27569049879332763 -2.9161228446768157 1 0 1
373 91 4 0 -3.3753752257144654 0.24850039553512568 -2.59327528858562 0 0 0
371 91 2 0 -3.1130461708224924 0.5402871908778023 -2.374781090753535 0 0 0
372 91 4 0 -2.8306021478429937 0.8559278784665325 -2.1370049260909765 0 0 0
400 100 4 0 -2.7714610767139547 0.989142913346089 -1.7691269402768817 0 0 0
224 45 3 0 -2.8389877028304173 1.2605412797468312 -2.0863831508844397 1 0 0
380 94 2 0 -3.3790887221431603 2.4692163951006854 -1.971063230815956 0 0 0
382 94 4 0 -3.398851406164382 1.9969265027511425 -1.9807061531998371 0 0 0
381 94 4 0 -3.358845707260984 2.9286085093144836 -1.9660091081035351 0 0 0
222 45 3 0 -3.0536597989545267 1.943322315521557 -2.1914347345032072 1 0 0
225 45 3 0 -2.7021021810064334 1.580848117610477 -2.738882966141997 1 0 0
221 45 1 0 -2.7340249306137427 1.641379475797629 -2.2786429247523055 1 0 0
223 45 3 0 -2.342220531393374 1.777481186760335 -2.1193660199227145 1 0 0
600 167 4 0 -4.38524371524619 3.4646781829687088 -2.4933534096566765 1 0 0
601 167 4 0 -3.6932852392810793 3.1274928434730342 -2.011760265400294 1 0 0
599 167 2 0 -4.046210990888979 3.3015167733596438 -2.2558742801448006 1 0 0
54 11 3 0 -3.3708283878584218 3.2968099238579156 -2.115675157184112 0 0 0
368 90 2 0 -3.496990510040557 4.426651000696306 -2.4163128506751255 0 0 0
369 90 4 0 -3.126392258822948 4.277483474461934 -2.2615157945226483 0 0 0
67 14 3 0 -4.270631353037754 4.440336496828773 -2.527973167469414 0 0 0
383 95 2 0 -2.457266829029847 4.319868990033358 -2.635329649354618 0 0 0
52 11 3 0 -2.913534530831224 3.5030370988611623 -1.566906434347197 0 0 0
55 11 3 0 -2.9827069982730072 3.916716956767704 -2.135021500577703 0 0 0
51 11 1 0 -2.9693679159035478 3.5189372694615213 -2.0046806969508566 0 0 0
53 11 3 0 -2.616352097587727 3.3065147409018425 -2.207445539638393 0 0 0
384 95 4 0 -2.8384128886075364 4.087226077443192 -2.4688263425404373 0 0 0
590 164 2 0 -2.956024765626118 0.9100412932163411 -0.15130851836495843 1 0 0
591 164 4 0 -2.7793591838186256 1.020673528900219 -0.558242102712573 1 0 0
399 100 4 0 -2.590789289279593 1.1071703901629801 -0.8897248529689753 0 0 0
398 100 2 0 -2.681960003568431 1.0420870958801707 -1.329037230583072 0 0 0
260 54 2 0 -1.775773973229574 0.24216229220238653 -0.3812879789322184 0 0 0
64 13 3 0 -2.621869723727602 1.385364859632427 -0.5916768962891972 0 0 0
392 98 2 0 -1.593840734370795 1.274691369633987 -0.017069545441616582 0 0 0
262 54 4 0 -1.4784702418316868 0.5222651726725653 -0.20122637861509377 0 0 0
394 98 4 0 -1.3671937748702552 0.8873631962232188 -0.05535873322533144 0 0 0
366 89 4 0 -2.552742931823495 2.415460996019816 -1.0284690285590588 0 0 0
365 89 2 0 -2.7196505610107495 2.8084533525268225 -1.1623966981527207 0 0 0
65 13 3 0 -2.4200315744325223 2.03479875263643 -0.9305227578891102 0 0 0
63 13 3 0 -1.9940971002264323 1.7741740811686968 -0.35039260252762483 0 0 0
62 13 3 0 -2.696062017759605 2.0677630906645943 -0.21800581416906273 0 0 0
61 13 1 0 -2.4329441631800766 1.8176440573443817 -0.5268102721319164 0 0 0
367 89 4 0 -2.9029198567386825 3.208470434765278 -1.301553374468461 0 0 0
245 49 3 0 -0.32631871882231206 4.414360756711281 -0.37730214002832824 0 0 0
362 88 2 0 -3.4500926120036515 0.5628192021455706 0.882426836176122 0 0 0
227 46 3 0 -4.091527325157246 0.2855271598783839 1.2763164556189535 1 0 0
364 88 4 0 -3.7593617396726353 0.3353832743750858 1.1002120535446507 0 0 0
363 88 4 0 -3.140545865255138 0.7957947240287104 0.6575823569276079 0 0 0
592 164 4 0 -3.1349187176358844 0.8047213032547578 0.2575928250397965 1 0 0
597 166 4 0 -4.026956407019988 0.09122595360225991 0.9304150549561887 1 0 0
280 60 4 0 -0.08522546380256853 0.40956454866992403 0.4865474335353685 0 0 0
423 108 4 0 -0.18422365201341417 0.5028493573756737 0.8506677019989161 0 0 0
346 82 4 0 -0.1871791984721158 0.14213610592981799 0.7459451861524615 0 0 0
378 93 4 0 -0.4507771196737388 0.4212062831353946 0.5845064121139733 0 0 0
377 93 2 0 -0.8209616275051447 0.5046488889171697 0.3224048690177459 0 0 0
379 93 4 0 -1.188350746589062 0.5857228389786978 0.07636078715235992 0 0 0
422 108 2 0 -0.0821125455664854 0.8431755247532188 1.158965929474812 0 0 0
83 17 3 0 -1.9858667336960596 2.6719481408967876 0.509215836346718 0 0 0
404 102 2 0 -2.665690618323864 2.526417482464397 0.2754323571469708 0 0 0
405 102 4 0 -2.3771468160846085 2.7847671527107916 0.5234736183798059 0 0 0
108 22 3 0 -1.8274810861445725 2.6867104556696177 1.2750445602669576 0 0 0
109 22 3 0 -2.3683694928765786 2.985238005193563 0.8937331089734694 0 0 0
393 98 4 0 -1.8236595672403657 1.682583900183471 0.029137063617661368 0 0 0
82 17 3 0 -1.714371201252328 1.9998008358777548 0.20864871304773258 0 0 0
81 17 1 0 -1.5950840352910949 2.3548122766747395 0.4641975692445616 0 0 0
474 125 4 0 -1.50692845620378 2.4102571663643384 1.251763660875684 0 0 0
406 102 4 0 -2.9371637827470414 2.280630649526802 0.028712157093692233 0 0 0
96 20 1 0 -0.09320825869225141 1.9332455898711063 1.3800872085711369 0 0 0
84 17 3 0 -1.4717601778518967 2.205035126026511 0.8893907160125428 0 0 0
99 20 3 0 -0.276427872876695 1.8392901395347636 0.972970872609267 0 0 0
85 17 3 0 -1.2505918480123352 2.564777009286749 0.27267679495534586 0 0 0
473 125 2 0 -1.0832350682899001 2.4447253097992108 1.4666587062241156 0 0 0
106 22 1 0 -2.167292223083326 3.0032163800064295 1.2628797683051716 0 0 0
110 22 3 0 -1.976873206865951 3.4406331338268363 1.3324856600952777 0 0 0
407 103 2 0 -1.545365835128796 4.111328067710046 1.1108835639987562 0 0 0
409 103 4 0 -1.6910996333445194 3.7065920621736814 1.2888339591979259 0 0 0
226 46 1 0 -4.36003744078927 0.5251895118471513 1.5586585325325428 1 0 0
421 107 4 0 -4.207366770442317 1.142114743908642 1.5734755774296523 0 0 0
229 46 3 0 -4.103726445459683 0.8096124825843813 1.7919807815116031 1 0 0
419 107 2 0 -3.934236388396018 1.5285289202829007 1.564899932243083 0 0 0
451 117 4 0 -3.45989171747844 2.1461822679160956 1.7454716245178983 0 0 0
420 107 4 0 -3.667694242630253 1.900334225800638 1.552156400920527 0 0 0
449 117 2 0 -3.145320495969714 2.4464297800153774 1.6808718189478513 0 0 0
107 22 3 0 -2.47495216447683 2.915831238454826 1.6060216625455783 0 0 0
450 117 4 0 -2.8259178019706144 2.7367256159330773 1.6238447048161624 0 0 0
414 105 4 0 -2.703930620329336 3.0005806535610997 1.9143845097547687 0 0 0
465 122 4 0 -0.024775840445405994 1.757604154704139 2.914513130796853 0 0 0
98 20 3 0 -0.09777782670568902 1.5349498662621395 1.647125974439023 0 0 0
97 20 3 0 -0.3318447825251721 2.269668266862123 1.5858894027035508 0 0 0
475 125 4 0 -0.6557398102482019 2.4874275421762113 1.6956720816562478 0 0 0
102 21 3 0 -0.6580784105529618 2.793441010645699 2.0334197385869563 0 0 0
103 21 3 0 -0.6268627132955298 2.775095015943613 2.770492703058509 0 0 0
105 21 3 0 -1.2858999623508054 2.8046546172664195 2.406029855108824 0 0 0
101 21 1 0 -0.8532632547772775 2.939671937473225 2.397208740645249 0 0 0
464 122 2 0 -0.25735004891855506 2.1446854244835043 2.96713272297093 0 0 0
386 96 2 0 -3.23441221047493 4.481365736538366 2.0027184149829824 0 0 0
542 148 2 0 -3.4588941770356856 3.8874654463013356 2.9090751089773 1 -1 0
544 148 4 0 -3.084687863071396 3.9886658133207877 2.6368142231338267 1 -1 0
388 96 4 0 -3.175685622770629 4.141293471025752 2.262588869878063 0 0 0
415 105 4 0 -2.9580279989740363 3.8112415818095395 2.31896740222353 0 0 0
462 121 4 0 -2.7887179976900662 4.138396812089294 2.4184378324967595 0 0 0
413 105 2 0 -2.8315453622090607 3.407041516070697 2.1158389580460466 0 0 0
461 121 2 0 -2.417707990044656 4.244415181259535 2.6594171944709064 0 0 0
463 121 4 0 -2.05571282371345 4.3472138862472764 2.886783200020153 0 0 0
430 110 4 0 -1.6365482437672583 4.3754359666794995 2.7920657943119833 0 0 0
455 119 2 0 -0.20972989907191442 3.8378998990107287 2.584117363008868 0 0 0
428 110 2 0 -1.3354683839453294 4.057501684973388 2.6630031814071624 0 0 0
104 21 3 0 -0.8399919982222696 3.3859938529132445 2.406711928475076 0 0 0
429 110 4 0 -1.0265432791932436 3.728713103054989 2.5424356421442385 0 0 0
457 119 4 0 -0.6338973982033687 3.7338962341300665 2.5317215344454755 0 0 0
115 23 3 0 -2.790868851737455 1.2529596611997353 3.699469148232067 0 0 0
654 185 4 0 -3.823737047715958 2.9817956307837212 4.4326437455715855 1 0 0
470 124 2 0 -3.170920355811371 2.5595896863237715 4.170818427245423 0 0 0
472 124 4 0 -3.4767410344580045 2.8309675820478644 4.2935047193147735 0 0 0
113 23 3 0 -2.895238450751223 1.7333064048480025 3.1223354890671136 0 0 0
111 23 1 0 -2.6461684657093536 1.6322705952168564 3.5304956018384055 0 0 0
114 23 3 0 -2.201744438685061 1.6043490058316086 3.4415704197168266 0 0 0
112 23 3 0 -2.704061148227686 1.9638947629188142 3.8306370519859887 0 0 0
471 124 4 0 -2.8444904666238684 2.274568734702491 4.0344412090015265 0 0 0
452 118 2 0 -2.0477120006155474 2.47262561267315 4.009639993751432 0 0 0
454 118 4 0 -2.44748258792437 2.2472022631868716 4.012999020410068 0 0 0
453 118 4 0 -1.6509189171232634 2.7048169665499935 4.011932541487947 0 0 0
431 111 2 0 -1.0650704542378369 2.8620759534640547 3.4673021036022065 0 0 0
432 111 4 0 -1.395541327857994 2.8656019279681795 3.757041816508579 0 0 0
466 122 4 0 -0.47531052416996256 2.5131436455537846 3.0144359177744 0 0 0
433 111 4 0 -0.7064237208278039 2.8475808200331696 3.1521227049883866 0 0 0
437 113 2 0 -3.762102377448533 3.457925573833815 3.861810830539341 0 0 0
639 180 4 0 -3.980157549423988 4.070125898136078 3.388661505443435 1 0 0
543 148 4 0 -3.798699857713022 3.7943461265683807 3.1564088917368744 1 -1 0
439 113 4 0 -3.9313369808078926 3.703665769045527 3.5241776544766283 0 0 0
438 113 4 0 -3.5854809716204965 3.2082660055958456 4.198064128538594 0 0 0
427 109 4 0 -1.4165768346720085 3.0167096488055267 4.109214324261641 0 0 0
675 192 4 0 0.21380776674185537 -3.233710173688509 -4.49531788193402 0 1 1
141 29 1 0 2.4445445011947324 -3.7201166698959636 -3.402838187202491 0 0 0
143 29 3 0 2.046879748396875 -3.946925552182091 -3.4056465958717266 0 0 0
142 29 3 0 2.541642071842648 -3.606953972594579 -3.831518037017775 0 0 0
145 29 3 0 2.413202010516494 -3.3161400322792627 -3.143475766111995 0 0 0
144 29 3 0 2.7812649781741823 -3.9953370141603264 -3.228436889533193 0 0 0
619 173 4 0 2.9536205721430266 -4.3307886440407515 -3.0897144280099798 0 1 0
548 150 2 0 4.218862292235789 -4.261477071657813 -3.6768586812822788 0 0 1
549 150 4 0 4.353490749377443 -4.108975844043152 -4.077030072412738 0 0 1
550 150 4 0 4.072202142071342 -4.428063817003408 -3.229854888064006 0 0 1
617 173 2 0 3.393586893818554 -4.428074769061088 -3.009457040279103 0 1 0
488 130 2 0 1.155035243949103 -2.5471493801860716 -4.016006587950152 0 0 0
490 130 4 0 1.152015051180247 -2.67176615599069 -4.482176143871654 0 0 0
19 4 3 0 1.3262001433318171 -2.2457517257925037 -3.2963733661777095 0 0 0
489 130 4 0 1.1595307658591278 -2.4384997367843275 -3.622469808744044 0 0 0
621 174 4 0 1.4624518345640583 -2.609404182004591 -3.4141492433992795 0 1 0
20 4 3 0 1.2579475662730104 -1.543741524346118 -3.1132883176051718 0 0 0
558 153 4 0 2.9158470561488707 -1.6700594601250476 -4.334014151915753 0 0 1
620 174 2 0 1.7727682010019152 -2.89061086255346 -3.178578587792992 0 1 0
546 149 4 0 3.298437644582455 -2.7523302081985435 -4.407252372981621 0 0 1
545 149 2 0 3.2221232544449903 -2.317362509074657 -4.489423274406086 0 0 1
557 153 2 0 2.878226572363701 -1.4694128319194142 -3.890731804830059 0 0 1
556 152 4 0 1.6318358901810404 -1.3845043325980224 -3.1219498623118898 0 0 1
555 152 4 0 2.5220369396025757 -1.184677835571121 -3.197729828585618 0 0 1
554 152 2 0 2.0711946200860205 -1.288256548628841 -3.164411484764719 0 0 1
517 139 4 0 2.8451772198448033 -0.9328361722768657 -3.2595475611033216 0 0 0
150 30 3 0 2.8658170136667485 -1.298573712949498 -3.0706162227472724 0 0 0
559 153 4 0 2.837245334174207 -1.2717864164784833 -3.4660459469971907 0 0 1
515 139 2 0 3.030667396398306 -0.529468338155546 -3.3507122840621495 0 0 0
516 139 4 0 3.231413103876987 -0.10691408365596065 -3.4439526733049726 0 0 0
128 26 3 0 4.227013337486618 -0.10108696346739303 -4.018166211626319 0 0 0
130 26 3 0 3.5861367728202787 -0.2356394147897565 -3.5894935813784823 0 0 0
325 75 4 0 4.372989120555176 -0.21139193119983735 -4.3719659806420506 -1 0 1
622 174 4 0 2.056706318673278 -3.1446159090011174 -2.966750903986344 0 1 0
523 141 4 0 2.395209984299619 -3.204758839632205 -2.7527040998671373 0 0 0
521 141 2 0 2.806107727023003 -3.1105692910455756 -2.5561683229305197 0 0 0
153 31 3 0 4.237948766365975 -3.037499791813937 -2.1938293229986727 0 0 0
522 141 4 0 3.1993211331825164 -3.0152112499529222 -2.3618237937239033 0 0 0
155 31 3 0 3.5235576103726816 -3.2356827070393033 -2.236118531986036 0 0 0
17 4 3 0 0.7279194363409361 -1.9980087488169251 -2.9464051727439178 0 0 0
266 56 2 0 0.0448943339051223 -1.5879677058556998 -2.683365794859296 0 0 0
16 4 1 0 1.1651205335323647 -1.955623853404437 -2.987125671504977 0 0 0
267 56 4 0 0.470214895570978 -1.71207572540455 -2.7721614024247825 0 0 0
18 4 3 0 1.3569726094368935 -2.0277261843934493 -2.604305759404488 0 0 0
525 142 4 0 1.291695707212791 -1.9507105257357487 -2.205921125466095 0 0 0
524 142 2 0 1.5827928580683976 -1.7706145922148988 -1.8992322940471063 0 0 0
124 25 3 0 2.6798107765787855 -2.156806284496984 -1.7988970658413561 0 0 0
121 25 1 0 2.603474551217769 -1.7963593996104372 -1.4961696692071864 0 0 0
147 30 3 0 2.9743721169498336 -1.8662584132834337 -2.5853248494795245 0 0 0
526 142 4 0 1.8806705685824092 -1.5831389664922086 -1.571695496102382 0 0 0
151 31 1 0 3.805933891501807 -2.9103362836093774 -2.103440982701573 0 0 0
154 31 3 0 3.7662828882142776 -2.8488394643556023 -1.6569189094489971 0 0 0
152 31 3 0 3.7107382118483394 -2.5258184336063803 -2.31600508705046 0 0 0
123 25 3 0 2.7124387087561366 -1.3993157926294422 -1.7046899463507679 0 0 0