LAMMPS data file via write_data, version 29 Aug 2024, timestep = 100000, units = lj

688 atoms
4 atom types
492 bonds
1 bond types
446 angles
2 angle types

-4.496439 4.496439 xlo xhi
-4.496439 4.496439 ylo yhi
-4.496439 4.496439 zlo zhi
0 0 0 xy xz yz

Masses

1 1
2 1
3 0.1
4 0.1

Bond Coeffs # harmonic/omp

1 100 0.45

Angle Coeffs # harmonic/omp

1 100 180
2 100 109.471

Atoms # full

285 62 4 0 -4.050209385264723 -3.9093190318745736 -3.5886712450647265 1 0 0
13 3 3 0 -4.091253461209184 -3.881296904597651 -3.992592707977008 1 0 0
284 62 2 0 -4.381966753207639 -3.780811605644991 -3.3241942931073583 1 0 0
11 3 1 0 -4.177109597160596 -4.229201192788546 -4.269442218963108 1 0 0
501 134 4 0 -0.41179567623309143 -0.8461130867596673 -1.270842570934334 1 0 0
488 130 2 0 -1.7347178975487094 -2.3203110623128773 -3.9283986258612495 1 0 0
489 130 4 0 -1.5575263406639284 -2.109390909091358 -3.5157004620351846 1 0 0
490 130 4 0 -1.9021341489276247 -2.5135811056438855 -4.327992521410956 1 0 0
19 4 3 0 -1.4935617735192768 -1.8600301264257029 -3.203553126353459 1 0 0
621 174 4 0 -1.2596484088953952 -2.1643868750530775 -3.251170069708764 2 1 0
620 174 2 0 -0.9673324161908914 -2.4526494282665046 -3.014959819406629 2 1 0
500 134 2 0 -0.144028680868856 -0.48586755700548334 -1.0700793587318609 1 0 0
125 25 3 0 -0.1811032305266096 -1.1221725293195899 -1.4831024467230156 1 0 0
46 10 1 0 -4.450367548267343 -1.0415445407920378 -4.426452425817005 1 0 1
48 10 3 0 -4.007376774965782 -0.961184048441774 -4.403952693876812 1 0 1
16 4 1 0 -1.5518564591703043 -1.4821774104156011 -2.9301692132123405 1 0 0
17 4 3 0 -2.000979637729779 -1.3954220026815918 -2.8836294897251604 1 0 0
20 4 3 0 -1.3501089365412895 -1.100855285057917 -3.142726958889354 1 0 0
554 152 2 0 -0.5739267287361445 -1.007744413291455 -3.1069449897099077 1 0 1
555 152 4 0 -0.13380955331583344 -1.0074377118181665 -3.260518630706786 1 0 1
556 152 4 0 -0.9997618648278319 -0.998294135103015 -2.9592325775650474 1 0 1
144 29 3 0 -0.5682722813350818 -3.56694191843351 -2.4112650656646295 1 0 0
619 173 4 0 -0.5057794876806838 -3.947196654671251 -2.4912668478244933 2 1 0
617 173 2 0 -0.08513463727077042 -3.9667101053714777 -2.6998016511246243 2 1 0
142 29 3 0 -1.2583154890027708 -3.351759404881377 -2.3116041835286065 1 0 0
141 29 1 0 -0.8236686580612971 -3.2427961205665934 -2.24569246336175 1 0 0
143 29 3 0 -0.7371888747501467 -3.200822260600231 -1.8118303707465495 1 0 0
259 53 4 0 -4.1646174741182955 -2.167481378864552 -2.0363194397720528 1 0 0
257 53 2 0 -3.722250243424497 -2.014473459912099 -1.9471959822930622 1 0 0
396 99 4 0 -4.436205182699601 -2.2797100359097437 -1.7769335912487536 1 0 0
258 53 4 0 -3.281726446136388 -1.864616569178776 -1.8536008835425877 1 0 0
93 19 3 0 -4.417867389299556 -1.6194073889941825 -0.746336194406787 1 0 0
268 56 4 0 -3.021544228796748 -1.6707774165435643 -2.078461120403372 1 0 0
266 56 2 0 -2.7032726356954893 -1.5615610550796637 -2.3588104880810996 1 0 0
145 29 3 0 -0.7376593689795503 -2.8731402067910685 -2.4389701763536067 1 0 0
622 174 4 0 -0.702554705605976 -2.710440860989166 -2.7998571242471026 2 1 0
523 141 4 0 -0.4026255077751477 -2.6193203324693837 -2.5398469314314607 1 0 0
124 25 3 0 -0.03820161377153486 -1.7610639883944712 -1.8138816462269864 1 0 0
25 5 3 0 -3.0221710835334066 -4.141113424913422 -0.3623222604348557 1 0 0
18 4 3 0 -1.3633636315436801 -1.5482997686649753 -2.5191273472399853 1 0 0
267 56 4 0 -2.354912848953025 -1.4475316758160344 -2.676699192121499 1 0 0
525 142 4 0 -1.187758187494659 -1.2620278724015308 -2.269898441598339 1 0 0
524 142 2 0 -0.8773716175935942 -1.1622348761025267 -1.9445918991415918 1 0 0
526 142 4 0 -0.5511369114323954 -1.0455036366900265 -1.5945822431157497 1 0 0
22 5 3 0 -3.3145805096544985 -3.7321952049013984 0.15542237647344148 1 0 0
271 57 4 0 -3.5052341552671287 -3.5516189605419624 0.4856062258411562 1 0 0
269 57 2 0 -3.5506209504729336 -3.09335861586964 0.5940303980203971 1 0 0
528 143 4 0 -0.08315277049525349 -0.6531887475100389 3.923783263795749 1 0 0
24 5 3 0 -2.8758695791988025 -4.281265281335222 0.3327477449036911 1 0 0
136 28 1 0 -2.077138759255412 -4.060211829694082 0.727406319414265 1 0 0
138 28 3 0 -2.1822045672647166 -3.7532783524986875 0.37069002385630156 1 0 0
492 131 4 0 -2.3600596741451754 -3.390409469892976 0.25381283286641754 1 0 0
139 28 3 0 -1.6294844484400315 -4.197459494220912 0.6841639128589598 1 0 0
491 131 2 0 -2.069861111124773 -3.009239239703261 0.33809825743745314 1 0 0
137 28 3 0 -2.1377014866634587 -3.866315428981669 1.1214074598080597 1 0 0
140 28 3 0 -2.35982897201602 -4.434111475955821 0.7015078173119269 1 0 0
478 126 4 0 -1.310588094297057 -3.933012299271096 0.6664053851171436 1 0 0
476 126 2 0 -1.0992249357374995 -3.5128847902866918 0.6994416148154361 1 0 0
477 126 4 0 -0.8962875775010879 -3.099587907285514 0.7401408846290272 1 0 0
270 57 4 0 -3.5791025469116926 -2.654775970058306 0.6876694815136828 1 0 0
5 1 3 0 -3.327873205253727 -2.3310929580302724 0.605807713329714 1 0 0
4 1 3 0 -3.769612517119617 -1.7458329142546871 0.6386356064343452 1 0 0
1 1 1 0 -3.4719343050043037 -2.0144087064623855 0.8713316437543375 1 0 0
2 1 3 0 -3.1170120452102585 -1.7589080989265211 1.0084111358316195 1 0 0
3 1 3 0 -3.680311982766638 -2.1979471966990363 1.2297840136334877 1 0 0
493 131 4 0 -1.7578783877468047 -2.6131086603791522 0.4274014845569045 1 0 0
170 34 3 0 -1.5233232862390507 -2.2965996380563727 0.5973965744627607 1 0 0
553 151 4 0 -0.5429911638325016 -2.958886603021856 0.6136631632758096 1 0 0
551 151 2 0 -0.08575087791745073 -2.928481011611356 0.6433823063810831 1 0 0
169 34 3 0 -0.8944074920767058 -1.9743674632942128 0.984362781393 1 0 0
565 155 4 0 -0.728771748614836 -1.6253835560064527 1.104822468025687 1 0 0
166 34 1 0 -1.0414369544334945 -2.2833354512668746 0.6135768454804271 1 0 0
168 34 3 0 -0.8711089862227541 -2.7023574987424466 0.687903984065759 1 0 0
167 34 3 0 -0.8814320829025926 -2.1281245117944296 0.22309916150598585 1 0 0
531 144 4 0 -0.8957314337991247 -1.8803718508714766 1.3725963501273357 1 0 0
563 155 2 0 -0.444843283603789 -1.2516123348626422 1.1820989663460866 1 0 0
564 155 4 0 -0.16576914782407925 -0.8943523900710684 1.2651965337986457 1 0 0
188 38 3 0 -0.10534296890678263 -0.5826086086128441 1.5119705672558093 1 0 0
309 70 4 0 -4.162337515712869 -3.4941694150900666 1.9722164520120629 1 0 0
315 72 4 0 -4.217140780162031 -3.139924910225964 1.7866036742504106 1 0 0
337 79 4 0 -4.309956993361087 -3.159090643089955 2.169517638578001 1 0 0
308 70 2 0 -4.352640819253891 -3.8765701267562713 1.771039299259991 1 0 0
316 72 4 0 -3.6665680952773982 -2.4621474614528003 1.5255084276375284 1 0 0
314 72 2 0 -3.943450022359885 -2.806097411559075 1.6574114979909922 1 0 0
566 156 2 0 -1.2640923914325666 -2.6918756513622206 2.8374747776403195 1 0 0
567 156 4 0 -0.9838814679542396 -2.6595270809909777 2.449481146019173 1 0 0
532 144 4 0 -1.1012372078611237 -2.4162165898890153 2.124942068595173 1 0 0
530 144 2 0 -0.9957559090038495 -2.141979456760817 1.7461789327779993 1 0 0
536 146 2 0 -1.4024301441498315 -1.2434013919966436 4.025356482214998 1 0 0
527 143 2 0 -0.39901499795433004 -0.8237103442847413 4.156375165280585 1 0 0
302 68 2 0 -1.6841910804869498 -0.9011114045005004 3.049908238422118 1 0 0
303 68 4 0 -1.8843208078026952 -1.1978711915679918 3.3361745503075486 1 0 0
304 68 4 0 -1.4712657592746554 -0.5843183261728226 2.774516591472243 1 0 0
182 37 3 0 -2.090218026139593 -1.3719035014952365 3.657918582672056 1 0 0
194 39 3 0 -1.1669054288907281 -0.30768607837304884 2.626338438699687 1 0 0
190 38 3 0 -0.3651754789611932 -0.6026890136485075 2.245466362151457 1 0 0
186 38 1 0 -0.16520536444474399 -0.32998366236716237 1.9112847508856445 1 0 0
529 143 4 0 -0.7455140172672818 -1.0164446202489397 4.412185829324815 1 0 0
434 112 2 0 -4.2347743521169265 -3.958056878181966 3.6341358475328933 2 1 0
436 112 4 0 -3.9481283605146293 -3.999767120876922 3.981635335270256 2 1 0
674 192 2 0 -3.28564827995377 -3.6720982372222415 4.163842640256855 2 1 0
675 192 4 0 -2.993263580915637 -3.320019905063105 4.1761904840999575 2 1 0
676 192 4 0 -3.6010751009982003 -4.050093884128253 4.145600985057343 2 1 0
604 168 4 0 -3.7824041865940328 -4.380147996242829 4.042448202872449 2 1 -1
14 3 3 0 -3.9343364798027647 -4.171404754750022 4.33309557928117 1 0 -1
535 145 4 0 -2.307840033796573 -3.633916001457176 3.044866926142105 1 0 0
533 145 2 0 -2.0989414909979685 -3.283584858172997 3.222498329909574 1 0 0
647 183 2 0 -1.5461753952955672 -4.049760583821548 3.9550911379476466 2 1 0
173 35 3 0 -2.6400364400358 -3.1027626150903296 4.14288107924673 1 0 0
648 183 4 0 -1.249168118318893 -3.6520656430065492 4.038726261373273 2 1 0
250 50 3 0 -1.184906263657044 -3.2671290968388464 4.13152418973231 2 1 0
576 159 4 0 -0.8760089671922966 -3.483018194809361 4.177778722118137 1 0 0
575 159 2 0 -0.429974193112054 -3.406627017966435 4.341639262459398 1 0 0
538 146 4 0 -1.1271845555807083 -1.1280794976226503 4.383529080933463 1 0 0
37 8 3 0 -4.1992863175705235 -2.5474873283898254 3.614611097088223 1 0 0
349 83 4 0 -3.8745986899546274 -2.3375474650161663 3.713952997116686 1 0 0
347 83 2 0 -3.4106226858954845 -2.19854022941271 3.747034804079937 1 0 0
348 83 4 0 -2.9578671532111 -2.057078450533607 3.777120795071748 1 0 0
534 145 4 0 -1.8790756869885357 -2.923189583967312 3.40195205960213 1 0 0
172 35 3 0 -2.7632534190533797 -2.377729612401434 3.9574930344190866 1 0 0
185 37 3 0 -2.68897820910646 -1.7694246342937028 3.9211377835839683 1 0 0
171 35 1 0 -2.43689994141143 -2.6963538176702557 4.064022348966348 1 0 0
174 35 3 0 -2.1157294975079917 -2.7450587630083145 3.6667580327386196 1 0 0
579 160 4 0 -1.8256186263864045 -2.5428762596541707 3.483856675967427 1 0 0
578 160 2 0 -1.854263364068148 -2.045518897827531 3.4413664104446884 1 0 0
580 160 4 0 -1.8663500173172616 -1.586237493193193 3.412888914669849 1 0 0
248 50 3 0 -1.5694979855789897 -2.814852815179984 3.636517783131313 2 1 0
568 156 4 0 -1.5666807982421123 -2.7276334795316415 3.252999607302198 1 0 0
247 50 3 0 -1.6926684213091239 -2.751144011554302 4.42055475201698 2 1 0
175 35 3 0 -2.206728328225522 -2.568009004336667 4.411750463688398 1 0 0
246 50 1 0 -1.3561149764944518 -2.84146188011147 4.06905978474149 2 1 0
249 50 3 0 -1.0149178268118235 -2.514694874894513 4.107393748319146 2 1 0
498 133 4 0 -0.933012020401522 -2.1019219543319263 4.086638504008731 1 0 -1
497 133 2 0 -0.5023837050635236 -2.0007438807447824 4.293132866163021 1 0 -1
499 133 4 0 -0.10374389014769037 -1.9235244610454356 4.488835717398122 1 0 -1
332 78 2 0 -4.448794721232539 -1.432035754014521 3.5705265890424167 1 0 0
343 81 4 0 -3.9269887912604617 -1.0505521049607989 4.160532698439719 1 0 0
341 81 2 0 -3.5034914590079316 -0.9295087693566662 4.0456051474231804 1 0 0
333 78 4 0 -4.256268194533012 -1.134173244717056 3.9272713894889675 1 0 0
342 81 4 0 -3.0477712915386075 -0.8036747449147428 3.922991383492783 1 0 0
317 73 2 0 -2.6145707403589027 -0.3291853566121876 3.3816199846557327 1 0 0
318 73 4 0 -2.819679548484661 -0.6891209710687494 3.6155835064736044 1 0 0
184 37 3 0 -2.778461364958571 -1.0630881886937154 3.7309315719923495 1 0 0
181 37 1 0 -2.497412455419027 -1.3475337186576075 3.916493316354013 1 0 0
183 37 3 0 -2.4026359116830203 -1.2168437135512233 4.330314595486366 1 0 0
537 146 4 0 -1.6740276876970612 -1.3581824718573667 3.6618927696869994 1 0 0
649 183 4 0 -1.8258128047915285 -4.425310308834279 3.8667898862559698 2 1 0
358 86 4 0 -1.198657134569371 -0.050541256376468446 0.9271761560399154 1 0 0
23 5 3 0 -2.58163285421157 -3.6689920907586884 0.022577715127101605 1 0 0
21 5 1 0 -2.9560813999900954 -3.961102757487181 0.03444429864332932 1 0 0
219 44 3 0 -4.324176653150217 1.210153896341489 -3.5512242180481186 2 0 0
401 101 2 0 -4.146708296087745 2.604488987570714 -3.676088225573821 2 0 0
403 101 4 0 -3.915780296895688 2.923434532464502 -3.9594945653305444 2 0 0
216 44 1 0 -4.134684632723814 1.5691968963755523 -3.3734063818323747 2 0 0
217 44 3 0 -3.812406882601141 1.7130718468723964 -3.635728738377633 2 0 0
218 44 3 0 -4.450275597184923 1.9024408899852352 -3.3340100051510864 2 0 0
12 3 3 0 -4.048789389887937 4.347639512192045 -4.062335459789936 1 -1 0
613 171 4 0 -3.6596107112721477 3.1089804498799705 -4.186122896621569 2 0 0
505 135 4 0 -3.9375923342569084 3.320107192445265 -4.009838174210623 1 -1 0
504 135 4 0 -4.073199831848436 4.183877239876643 -3.6849525885482954 1 -1 0
503 135 2 0 -4.008543979797089 3.7530203124759316 -3.8342986838969475 1 -1 0
75 15 3 0 -4.066821569456584 3.0955428760660517 -4.308255961311065 2 0 0
220 44 3 0 -3.9584879386573437 1.4731146586539703 -2.9442863024788806 2 0 0
205 41 3 0 -4.106314257597192 2.6103834709392935 -0.5003930686842146 2 0 0
201 41 1 0 -4.3629378137442405 2.9476707690994317 -0.5034558012021848 2 0 0
592 164 4 0 -0.8886407621352594 2.5738068724792056 -0.6634057526434614 2 0 0
590 164 2 0 -0.47576501979848285 2.6614418937808884 -0.7998719371975516 2 0 0
511 137 4 0 -3.197138486007235 4.442473419711482 -0.43369936362344497 1 -1 0
242 49 3 0 -4.040354978076921 3.687739955405923 -0.1269928431277494 2 0 0
510 137 4 0 -3.8221293901304527 3.713774840251637 -0.4578253420660534 1 -1 0
509 137 2 0 -3.5004756440459035 4.084552209074 -0.44069816492298397 1 -1 0
204 41 3 0 -4.097621790135547 3.3632782578281395 -0.5522369427583516 2 0 0
402 101 4 0 -4.387505668865341 2.2826781960146576 -3.395125112869459 2 0 0
591 164 4 0 -0.04458212575445497 2.7561640493109323 -0.9452424297791415 2 0 0
72 15 3 0 -4.436334990993264 2.788731628842865 4.092621767159861 2 0 -1
73 15 3 0 -4.462074707239166 3.5113760000970506 4.1931799149933005 2 0 -1
671 191 2 0 -2.4887260416946577 3.9666906802146746 3.8611146831789407 2 0 0
672 191 4 0 -2.1127365868141763 4.213050315305217 3.8369093255348963 2 0 0
356 86 2 0 -1.0063949333170177 0.0510640936906821 1.3206877617759236 1 0 0
260 54 2 0 -0.8381923510841292 2.901689187413832 1.0587209906389736 1 0 0
262 54 4 0 -0.4532177919389495 2.7014002211346293 0.9250251065822761 1 0 0
377 93 2 0 -0.22865778391548464 1.9468352107271683 1.3349729683092209 1 0 0
379 93 4 0 -0.3135937783873626 2.384503598979763 1.144001481173806 1 0 0
394 98 4 0 -0.055045055758281336 2.6211426274910883 0.9971597209468328 1 0 0
261 54 4 0 -1.2392463880705615 3.1143072946510593 1.1929210791139777 1 0 0
446 116 2 0 -3.125252252729335 4.166420208930584 0.6500385522482546 2 0 0
447 116 4 0 -3.499005861501905 3.8819000042144145 0.6787624748499006 2 0 0
391 97 4 0 -3.7967675282030076 3.90625585374785 0.9469942633297981 2 0 0
244 49 3 0 -3.847304793966183 3.7043612263539023 0.6166337649941509 2 0 0
389 97 2 0 -4.039374658957508 4.162848514240703 1.2266960251355927 2 0 0
241 49 1 0 -4.200802496076984 3.642885622258185 0.3054120024405975 2 0 0
243 49 3 0 -4.3883902253199905 3.208828331064992 0.36145335893350694 2 0 0
448 116 4 0 -2.7652821151748936 4.452213130136108 0.6315859725568176 2 0 0
378 93 4 0 -0.14133277336090533 1.533561179892434 1.520870682365353 1 0 0
357 86 4 0 -0.7945022150037002 0.15753804421222473 1.7243773324869736 1 0 0
346 82 4 0 -0.06066763092187877 1.173201580960967 1.7079341900964646 1 0 0
344 82 2 0 -0.32241657384768363 0.7707995078641998 1.8325488724868881 1 0 0
345 82 4 0 -0.5642029910523112 0.3652791614006343 1.9616528946146632 1 0 0
195 39 3 0 -0.8095881509321559 0.1424777141803375 2.131909630058212 1 0 0
187 38 3 0 -0.43010003060839086 0.039518241385178676 1.828716510144372 1 0 0
657 186 4 0 -4.1962924586813415 2.7696928336514564 2.9490152540104058 2 0 0
637 179 4 0 -3.2995763514439433 2.7057420175859654 2.1251732196666238 2 0 0
635 179 2 0 -3.6360960369028485 2.8302560295211077 2.401475798334128 2 0 0
636 179 4 0 -3.960276386902281 2.954963651240204 2.684775826243568 2 0 0
684 195 4 0 -3.8969774995408457 3.044256334301907 3.0842183729575856 2 0 0
456 119 4 0 -4.224764107717395 3.17766428809819 2.9148361051105978 2 0 0
673 191 4 0 -2.9051877263887205 3.690926999319216 3.8925211808606095 2 0 0
612 171 4 0 -3.168339757994697 3.4331795493759296 4.0614160922064135 2 0 -1
685 195 4 0 -3.229306948083493 3.517130443299968 3.691295151291256 2 0 0
611 171 2 0 -3.4200200376821606 3.2724158857091252 4.431715491342376 2 0 -1
603 168 4 0 -3.2989667633700277 3.80590299969034 3.9415203770744 2 0 -1
683 195 2 0 -3.5815170818097877 3.268199490303201 3.3697764280056477 2 0 0
602 168 2 0 -3.542443094429985 4.212325948703103 3.994172534615413 2 0 -1
656 186 2 0 -4.490803116494687 2.394846902123799 2.9033653211384927 2 0 0
71 15 1 0 -4.454955084286335 3.1234254451701533 4.393716129545649 2 0 -1
390 97 4 0 -4.286322908187983 4.43935936688439 1.5086841151982888 2 0 0
192 39 3 0 -1.3691453776183353 0.3857677254125962 2.556539567600857 1 0 0
319 73 4 0 -2.424491236746058 0.015197488725129382 3.1546876818605813 1 0 0
193 39 3 0 -0.7414167020345017 0.24462387182374012 2.865233939566065 1 0 0
191 39 1 0 -1.021613366947911 0.11725627744302347 2.54540631914555 1 0 0
68 14 3 0 0.7831457455883255 -3.9998864158203484 -3.3694075303336706 1 1 0
549 150 4 0 0.13798005357697818 -3.4583717241989476 -4.1258884779001 1 0 1
546 149 4 0 0.22264901673077464 -3.110423753040143 -4.254341812463875 1 0 1
550 150 4 0 0.38008127689374316 -3.930898635714814 -3.3157735647738056 1 0 1
548 150 2 0 0.25830389706780466 -3.6964782227434543 -3.7183305448199406 1 0 1
307 69 4 0 0.4129234611745414 -3.40192018527228 -4.39315380508466 0 0 1
521 141 2 0 0.013474407747489536 -2.378285359563662 -2.501638984527043 1 0 0
281 61 2 0 3.8538646581548273 -4.435105571142558 -3.739639889160155 0 0 0
282 61 4 0 4.023833054701721 -4.344331071447693 -4.153592694233773 0 0 0
15 3 3 0 4.3746376499744075 -4.233635493505119 -4.363689519766832 0 0 0
265 55 4 0 3.903068073669778 -3.4410493765425163 -3.098480701507218 0 0 0
286 62 4 0 4.2443224675002424 -3.639168053782698 -3.0483127531831204 0 0 0
322 74 4 0 4.038654043658922 -4.018753029174016 -4.3552466364538205 0 0 1
545 149 2 0 0.1966459972700383 -2.6266888837279625 -4.267894713494432 1 0 1
547 149 4 0 0.16188383942379936 -2.17170955222162 -4.29464072556176 1 0 1
557 153 2 0 0.0983959698600243 -1.5446562601267364 -3.7827838639804288 1 0 1
350 84 2 0 4.29315308626687 -1.9592850552510903 -3.5832967660303217 0 0 1
312 71 4 0 4.204465196439979 -1.7369238661653466 -4.238087432177072 0 0 1
351 84 4 0 4.115290583990556 -2.219439626194479 -3.2792370529488237 0 0 1
264 55 4 0 3.939283358182249 -2.5550019205093433 -3.1955491908895994 0 0 0
263 55 2 0 3.9218840099136534 -2.9942932175650414 -3.148778748452587 0 0 0
289 63 4 0 3.7527651339491603 -2.219319116834541 -3.146082518618533 0 0 0
352 84 4 0 4.482487929021185 -1.679211344195389 -3.9192404795663487 0 0 1
287 63 2 0 3.3067128580205383 -2.077255724008365 -3.0713777716409663 0 0 0
516 139 4 0 0.8431352210307006 -0.18260395294901954 -3.582541754210561 1 0 0
130 26 3 0 1.2512298755332125 -0.14877467970313774 -3.675376441020226 1 0 0
515 139 2 0 0.5292261034076118 -0.5403348819331901 -3.47261982986849 1 0 0
517 139 4 0 0.24068852578820188 -0.8901209578588931 -3.378558860778778 1 0 0
150 30 3 0 0.1913636127798073 -1.1365320223956417 -3.0520889864452814 1 0 0
559 153 4 0 0.1331085342219991 -1.270199008111352 -3.4290663614225334 1 0 1
126 26 1 0 1.7377905811660472 -0.22335756967527942 -3.7053711177157647 1 0 0
129 26 3 0 1.919035774118547 -0.24574437633551938 -3.2674207529711197 1 0 0
128 26 3 0 1.827656179822851 -0.6233868085344496 -3.9413467159251647 1 0 0
325 75 4 0 1.950714222279431 -0.9046201333107353 -4.23784694415575 0 0 1
323 75 2 0 2.443200151899159 -0.8443775359777441 -4.220488375072575 0 0 1
324 75 4 0 2.893416208073858 -0.7919161059008015 -4.214514258811035 0 0 1
662 188 2 0 2.656023042701265 -0.07767897262417467 -2.9703787940361916 1 0 1
331 77 4 0 3.11648363260299 -0.4826468730859341 -4.2938886594914605 0 0 1
329 77 2 0 3.526889752143231 -0.6168085032370771 -4.3435625806804214 0 0 1
330 77 4 0 3.9565180297555242 -0.7495897500838948 -4.395673394368966 0 0 1
50 10 3 0 4.342574779443482 -0.7286642716426166 -4.245797922239873 0 0 1
372 91 4 0 4.153026985181644 -0.3657797007358168 -3.3971143013930742 0 0 0
371 91 2 0 3.7964518471515296 -0.35147871948204834 -3.1000272813897096 0 0 0
618 173 4 0 0.33899340493378993 -3.9930996071084377 -2.921906844607105 2 1 0
66 14 1 0 0.9405597522767142 -4.19287007435395 -3.0093136269320984 1 1 0
482 128 2 0 1.5557244953730827 -3.2699933070259943 -2.726903173897931 1 0 0
483 128 4 0 1.5656416551832546 -3.7251898228013727 -2.6944710814478885 1 0 0
370 90 4 0 1.6421582987061747 -4.121985089046678 -2.741791453920902 1 1 0
67 14 3 0 1.2998413881758184 -3.96378067218416 -2.862963900705833 1 1 0
70 14 3 0 0.6078469002560709 -4.195795049793324 -2.687780841851948 1 1 0
368 90 2 0 1.9204227354652872 -4.441219335720457 -2.653652246958214 1 1 0
27 6 3 0 3.5483990813381316 -4.344855024784882 -2.967905085148441 0 0 0
29 6 3 0 3.597542470333374 -4.0244174874064145 -2.291623208568813 0 0 0
28 6 3 0 3.55074828325266 -3.61892715193748 -2.8982813203544646 0 0 0
26 6 1 0 3.7147098009614714 -3.990960009975189 -2.737142779878515 0 0 0
30 6 3 0 4.155749746130481 -3.9843351178059767 -2.774894904455218 0 0 0
522 141 4 0 0.3731781895923785 -2.178593919145856 -2.4786905642400088 1 0 0
153 31 3 0 1.4048545789216051 -2.484271120342497 -2.7083262187299857 1 0 0
152 31 3 0 1.3263172027438328 -1.770420283104146 -2.5551327938871706 1 0 0
151 31 1 0 1.1846775887248606 -2.190834699327291 -2.460694690640598 1 0 0
154 31 3 0 1.2521836166524665 -2.27703402583695 -2.0238902020720877 1 0 0
155 31 3 0 0.7472771246812782 -2.229460662367233 -2.556538042843517 1 0 0
147 30 3 0 0.2589427666055135 -1.800394125970286 -2.626042656057753 1 0 0
514 138 4 0 1.3259271142195388 -2.2711946525057063 -1.6286657694404885 1 0 0
484 128 4 0 1.5632751235907927 -2.8277762453203277 -2.757893157955867 1 0 0
276 59 4 0 1.8212110432526325 -2.5139668771753607 -2.76115889819925 0 0 0
275 59 2 0 2.2014569103644117 -2.3624756361594477 -2.7663829591383333 0 0 0
288 63 4 0 2.841189152834213 -1.9180213173279905 -2.9794683987395256 0 0 0
277 59 4 0 2.6158700775702517 -2.1915175994391163 -2.766639030186162 0 0 0
486 129 4 0 2.674170212867444 -1.816828484151575 -2.6121520755834564 1 0 0
485 129 2 0 2.840452304805642 -1.5467882199984366 -2.294824893466682 1 0 0
328 76 4 0 4.069412218422962 -2.2807146544582544 -2.9160900286197204 0 0 1
326 76 2 0 4.256805107366737 -2.1804339257469314 -2.508061892013264 0 0 1
121 25 1 0 0.1451476916270691 -1.4194561029613717 -1.5987202657439052 1 0 0
146 30 1 0 0.42159805368952163 -1.3633772467825986 -2.6880348170865402 1 0 0
149 30 3 0 0.8736545327717691 -1.3765719872924738 -2.7864722082414284 1 0 0
123 25 3 0 0.4516223457708346 -1.2014131755638902 -1.8850913524062562 1 0 0
148 30 3 0 0.3668592511703732 -1.1192067203041676 -2.2900118366187447 1 0 0
585 162 4 0 0.9052102524261416 -0.10758026266514875 -1.622406481498079 1 0 0
586 162 4 0 0.5042905468062449 -0.8339763665303952 -2.0353417587024696 1 0 0
584 162 2 0 0.6979963257711042 -0.47553465081281754 -1.8394422717971257 1 0 0
664 188 4 0 3.089799715666296 -0.18937901618962627 -2.7835634400620455 1 0 1
469 123 4 0 3.123051291070582 -0.897852764395898 -1.8909663849077374 0 0 1
487 129 4 0 3.0088608234402896 -1.2864020700061327 -1.978991213039575 1 0 0
273 58 4 0 2.815885177301798 -1.0844644057220325 -1.7063746979093746 0 0 0
468 123 4 0 3.285363358281659 -0.19251142170814095 -2.4423514521898566 0 0 1
467 123 2 0 3.2044986264721436 -0.5448234297530492 -2.1622623551459954 0 0 1
295 65 4 0 3.212623950416475 -1.2050562950489638 -1.6535100865850598 0 0 0
373 91 4 0 3.445254536058001 -0.3425045876059656 -2.8012293865685605 0 0 0
35 7 3 0 3.031225732597716 -3.39372562906194 -0.6147836837979299 0 0 0
31 7 1 0 2.987198496204166 -3.2338361090079104 -0.18866790862219762 0 0 0
327 76 4 0 4.44260893750721 -2.0810942416722926 -2.1012203909148455 0 0 1
513 138 4 0 0.5979372695324203 -1.9072301886143785 -1.1730035700110455 1 0 0
512 138 2 0 0.9724016549723382 -2.090840150788606 -1.393133946837089 1 0 0
47 10 3 0 4.437435059938099 -1.4293902922770516 -4.208204629223024 0 0 1
122 25 3 0 0.3677957022862497 -1.5852900683691282 -1.2118511433287331 1 0 0
496 132 4 0 0.6799934133710579 -1.5596943023419723 -0.9744019526153438 1 0 0
354 85 4 0 2.501670469145262 -2.6134703952214657 -0.2509655837499549 0 0 0
355 85 4 0 1.6043873722908746 -2.56856459499323 -0.10590620100437498 0 0 0
353 85 2 0 2.064269642739484 -2.587651067995016 -0.17604426296315445 0 0 0
33 7 3 0 2.827510942809475 -2.7943985628902617 -0.20608824360915268 0 0 0
253 51 4 0 2.8863946655062866 -2.4730873274272374 -0.39128472161663286 0 0 0
558 153 4 0 0.04936376942449705 -1.817038492507963 -4.145879744974616 1 0 1
251 51 2 0 3.2302164532833446 -2.2582140151065295 -0.6259649259117732 0 0 0
395 99 2 0 4.237667153149711 -2.1838501599150395 -1.427920956589963 0 0 0
252 51 4 0 3.557318306561611 -2.068263089374543 -0.8639316632709892 0 0 0
397 99 4 0 3.9079827488079752 -2.078571213620722 -1.0736438326914026 0 0 0
294 65 4 0 3.669836784095657 -1.772431930274367 -1.055586727864085 0 0 0
94 19 3 0 3.875038456672148 -1.8821419416784768 -0.7476269614800062 0 0 0
92 19 3 0 4.270461937840918 -1.7152031163551644 -0.08060558651477923 0 0 0
293 65 2 0 3.4336329019276057 -1.4783885908577412 -1.361579793766221 0 0 0
91 19 1 0 4.203337307630242 -1.5855715470572505 -0.5476941131534114 0 0 0
502 134 4 0 0.09123924825559282 -0.17467278556410015 -0.8846454986898511 1 0 0
156 32 1 0 0.9580110554236407 -0.14032893886255327 -0.8472186775534118 1 0 0
494 132 2 0 0.9212729138366385 -1.2085621177525727 -0.706135307132095 1 0 0
508 136 4 0 1.190233870750908 -0.5885740488132276 -0.1921701498909547 1 0 0
159 32 3 0 1.0508884614549476 -0.2558417593154214 -1.272703961256756 1 0 0
7 2 3 0 1.4847481834083158 -0.6528437963068434 -0.4086646477868685 0 0 0
495 132 4 0 1.1652029438698932 -0.8741838231235377 -0.46188635351310126 1 0 0
160 32 3 0 1.0689442408615015 -0.5070773716623589 -0.5530284207964606 1 0 0
158 32 3 0 0.47244835602958 -0.04019321949741084 -0.7973116189653422 1 0 0
479 127 2 0 1.7840313954259646 -0.13976967392858786 -1.5614668103117584 1 0 0
6 2 1 0 1.9363593993417592 -0.7236749687728596 -0.4977324545447632 0 0 0
9 2 3 0 2.028416496047888 -1.1345315162963319 -0.462778517302068 0 0 0
480 127 4 0 2.0002850838368413 -0.4654143871104415 -1.285082212873597 1 0 0
10 2 3 0 2.03201759616241 -0.5763805576941174 -0.9055746474320117 0 0 0
8 2 3 0 2.173147862842609 -0.5102568971264305 -0.22100357333151344 0 0 0
274 58 4 0 2.0543103265667453 -0.861087020276416 -1.2080268299779124 0 0 0
272 58 2 0 2.4199092421851525 -0.9691957371414031 -1.4490564021367942 0 0 0
363 88 4 0 3.674741048430408 -1.0891367506192635 -0.43507194938938376 0 0 0
362 88 2 0 3.503919236432014 -0.9137875799124071 -0.06141089258614496 0 0 0
95 19 3 0 4.05034757693756 -1.1410277179402923 -0.5681115368584386 0 0 0
577 159 4 0 0.008302745119404875 -3.3249626150034195 -4.486535661165175 1 0 1
582 161 4 0 0.24378205265115493 -1.8377636621950657 -4.487048161221658 1 0 1
451 117 4 0 0.6241214452952599 -3.6899893597371287 1.101943276572186 1 1 0
449 117 2 0 1.007380836725348 -3.9033302764096303 1.183756789664705 1 1 0
450 117 4 0 1.4066670819279325 -4.134018954702767 1.2783489837757553 1 1 0
107 22 3 0 1.5398823377767874 -4.4692428020908395 1.1012275038822636 1 1 0
414 105 4 0 1.721248581663029 -4.323254232547031 1.387537420533386 1 1 0
32 7 3 0 2.6973943957162483 -3.485458030950661 0.041633685175984425 0 0 0
78 16 3 0 3.6532860372715303 -4.2532185789357175 1.191394768648876 1 1 0
76 16 1 0 4.037654339980761 -4.31175734907603 0.9651136434447087 1 1 0
79 16 3 0 4.168968468921061 -3.9196454085488 0.7864958888472016 1 1 0
77 16 3 0 4.36268607958677 -4.471789668975472 1.2550055285732835 1 1 0
300 67 4 0 4.0190637678012076 -3.530336911714186 0.7992045112662849 0 0 0
299 67 2 0 3.837679241916324 -3.2775297595260136 0.4944861344559177 0 0 0
334 78 4 0 4.3728903677685755 -1.7013652028408175 3.2503073970049794 0 0 0
301 67 4 0 3.659943827761192 -3.0248660457298007 0.18530787057372677 0 0 0
552 151 4 0 0.38300072149880027 -2.890201127990447 0.685731510798405 1 0 0
200 40 3 0 0.7380255573677799 -2.7518108607693943 0.6033638049258272 1 0 0
196 40 1 0 0.985840963651639 -2.4030594068342923 0.37202351035744474 1 0 0
197 40 3 0 1.2767086618538146 -2.170869116356698 0.6902251807501933 1 0 0
199 40 3 0 1.2425882637766863 -2.600906433076258 0.03580078625048788 1 0 0
541 147 4 0 1.655413911825594 -2.0274346840829067 0.750492533043623 1 0 0
539 147 2 0 1.9141443715813224 -1.7200618532620178 0.9129582516809434 1 0 0
296 66 2 0 2.95176456967653 -2.271588438360578 0.3958358015957044 0 0 0
297 66 4 0 3.1294949703223214 -2.0804099465611072 0.7793664111136467 0 0 0
45 9 3 0 3.1269064726757465 -1.6706878276596169 0.7981980212577229 0 0 0
255 52 4 0 3.447658301742762 -1.8524222592201962 0.6996697183317062 0 0 0
254 52 2 0 3.864303005025726 -1.7766975587611262 0.50081440167998 0 0 0
256 52 4 0 4.25447929685897 -1.7052971228387461 0.3045830479665961 0 0 0
562 154 4 0 0.9820625903924549 -0.10344854855369867 0.9291515085929003 1 0 0
506 136 2 0 1.1939950401476596 -0.37300633420361695 0.2009439312196868 1 0 0
507 136 4 0 1.2110368163200924 -0.146501898237287 0.6199875215961343 1 0 0
560 154 2 0 0.55823825908905 -0.3949850868080498 1.0956588481511202 1 0 0
561 154 4 0 0.17860870244501736 -0.6571253113547604 1.2357531929070147 1 0 0
598 166 4 0 2.2352437783885355 -0.3613229708403134 0.1656929770982556 1 0 0
596 166 2 0 2.644882501066598 -0.45650696426320003 0.3639447680655863 1 0 0
540 147 4 0 2.1863446746733795 -1.40677221053831 1.0815019634867342 1 0 0
43 9 3 0 2.544810553770213 -1.2646345252909459 1.020145810745638 0 0 0
41 9 1 0 3.007244122883617 -1.28282913924975 0.9688661770637097 0 0 0
597 166 4 0 3.075312481185497 -0.5482747107019414 0.5945337356801783 1 0 0
291 64 4 0 2.3245755163111967 -1.0954608485695498 1.3217981553974951 0 0 0
44 9 3 0 3.1533550418115173 -0.9263289141702291 0.6695923257095053 0 0 0