LAMMPS data file via write_data, version 4 Feb 2025, timestep = 8500000, units = lj

1550 atoms
4 atom types
1050 bonds
1 bond types
625 angles
2 angle types

-8.262893 8.262893 xlo xhi
-8.262893 8.262893 ylo yhi
-8.262893 8.262893 zlo zhi

Masses

1 1
2 1
3 0.1
4 0.1

Bond Coeffs # harmonic/omp

1 100 0.45

Angle Coeffs # harmonic/omp

1 100 180
2 100 109.471

Atoms # full

289 80 4 0 -5.949914589476737 -7.581335317361473 -6.834921815958368 1 0 0
434 128 4 0 -6.064467445421116 -7.37015576491592 -7.168989580891133 0 1 0
432 128 2 0 -6.025134065395884 -6.953407020299407 -7.3672691216063075 0 1 0
288 80 2 0 -5.873528713228718 -8.00332381768826 -6.676292185032803 1 0 0
433 128 4 0 -5.980746647599256 -6.531487906936653 -7.568122593630729 0 1 0
894 282 2 0 -3.1816937486975854 -7.34924491882 -6.650889949929748 0 0 0
896 282 4 0 -3.0407922143823574 -7.128807423162535 -6.996956905643455 0 0 0
925 292 4 0 -3.0739032460706803 -6.891595649563572 -7.306578420392214 1 0 0
436 129 4 0 -7.283080462099052 -5.683222969791961 -7.813121980172323 0 0 1
435 129 2 0 -7.333913574873078 -5.343638447348466 -8.159774227683274 0 0 1
1414 455 4 0 -6.8951997744370725 -5.684681126227602 -7.739620848250585 0 1 0
1415 455 4 0 -6.261961352901356 -6.284688129129073 -7.418015211957429 0 1 0
1413 455 2 0 -6.580655289137806 -5.981131783058379 -7.580617826581442 0 1 0
926 292 4 0 -2.710682811791354 -6.05293558238652 -7.340632062435172 1 0 0
924 292 2 0 -2.8973568859286196 -6.486873819467107 -7.324788697398655 1 0 0
1267 406 4 0 -2.480117228188223 -5.801975012573954 -7.151365855957887 1 1 0
1266 406 2 0 -2.093295399636289 -5.669600847646821 -6.970430535135641 1 1 0
1456 469 4 0 -1.7805364755728923 -5.10188011032013 -8.062901280379434 1 1 1
1268 406 4 0 -1.686443242537267 -5.531382017758459 -6.793655248598542 1 1 0
1457 469 4 0 -1.0001881007010407 -5.560047856545527 -7.861076398239523 1 1 1
1455 469 2 0 -1.377986153660054 -5.338315684698669 -7.95939106821649 1 1 1
381 111 2 0 -0.391350242779373 -5.982531135158743 -7.885588254099905 0 1 1
382 111 4 0 -0.14962794811847496 -6.297431574722971 -8.089915012851726 0 1 1
383 111 4 0 -0.6419895019134948 -5.654532435855683 -7.679367800263865 0 1 1
1205 385 4 0 -4.02882234857363 -4.1792820375194575 -7.056648947275119 0 0 0
1453 468 4 0 -6.759409590209326 -2.2027141335722877 -7.0322588118505545 0 1 1
205 52 4 0 -6.83913926642245 -1.8488363860885642 -6.8703587630852665 0 0 0
1452 468 2 0 -6.570526061363454 -2.440450914684661 -7.382884990897498 0 1 1
1454 468 4 0 -6.396949034449139 -2.655182568278846 -7.708315913060632 0 1 1
501 151 2 0 -5.835383501063803 -2.7441205939018 -8.138971883480881 0 1 1
503 151 4 0 -6.2813986642668835 -2.7119101535933265 -8.066015704063226 0 1 1
963 305 2 0 -5.170661560158421 -2.94515139088149 -7.162030421761057 0 -1 0
965 305 4 0 -5.394095905939708 -2.948260827277967 -6.776407556648002 0 -1 0
4 1 3 0 -4.79728322777092 -1.9995813454121232 -8.100121240698263 0 0 0
964 305 4 0 -4.932381154994471 -2.9357894160539266 -7.5717180224807965 0 -1 0
3 1 3 0 -4.703966860682238 -2.661234790804058 -7.727617764868407 0 0 0
1 1 1 0 -4.721652047555547 -2.4685874032775206 -8.13994273138092 0 0 0
889 280 4 0 -4.8481932258194504 -1.6022025823202517 -8.139295649044856 -1 0 0
805 252 4 0 -0.9809351405327872 -0.31119508820412184 -7.033925330998265 -1 0 0
124 25 3 0 -0.6264900171428995 -0.1958178770637878 -6.912649833777461 0 0 1
804 252 2 0 -1.0952354820792978 -0.26699833410570684 -7.479880165216542 -1 0 0
806 252 4 0 -1.1923028093915804 -0.22521396644413733 -7.871900524071142 -1 0 0
571 174 4 0 -0.8936083060603445 -0.10497088838433338 -8.093801879343863 0 -1 0
1094 348 4 0 -7.786827205240698 -6.969141171070446 -5.536694666965233 0 0 1
1092 348 2 0 -7.556265142513166 -7.347231320601754 -5.5732614974539745 0 0 1
1093 348 4 0 -7.309358016984308 -7.722793216351853 -5.606847534846319 0 0 1
385 112 4 0 -7.039688741773407 -7.950109551665345 -5.807490578041848 0 0 0
599 183 4 0 -3.752645544205646 -7.541083818944513 -5.252812051917475 0 1 0
597 183 2 0 -3.574098604194384 -7.405859410891992 -5.649663108362651 0 1 0
598 183 4 0 -3.4019587760895766 -7.270781902492979 -6.058367629828172 0 1 0
895 282 4 0 -3.332957826909743 -7.576479247135456 -6.294382776547907 0 0 0
1203 385 2 0 -3.996218722688262 -4.144357533997988 -6.610946810142604 0 0 0
1204 385 4 0 -3.960406826398977 -4.109828080981387 -6.1962916110521045 0 0 0
1525 492 4 0 -3.7852730883414085 -4.399443907929787 -5.934950980206355 0 1 1
1526 492 4 0 -3.9214645541428528 -4.143150842120984 -5.0533911446571915 0 1 1
1524 492 2 0 -3.8558681241185235 -4.272671405075925 -5.49294367505573 0 1 1
601 184 4 0 -3.7662154081069863 -3.881145822293703 -4.790053231196575 0 1 0
204 52 2 0 -6.673943060078048 -1.8310041173444531 -6.455323756493337 0 0 0
445 132 4 0 -6.115535979756446 -3.000348072381427 -5.768761451093365 0 -1 1
536 162 4 0 -6.349048465769874 -3.0439837504478136 -5.443003485669133 0 0 1
444 132 2 0 -5.874400760057737 -3.0621553330220466 -6.135184700852896 0 -1 1
446 132 4 0 -5.611061377819083 -3.1323839130572404 -6.534401997027963 0 -1 1
534 162 2 0 -6.39777829021211 -2.9277982082095484 -5.006457440190416 0 0 1
551 167 4 0 -3.423358806477398 -2.012327862868071 -4.5721501501700486 0 0 0
744 232 2 0 -1.1257605663702945 -1.80631382843639 -5.4690191769500744 0 1 1
746 232 4 0 -1.2256032266300818 -1.962382158812078 -5.061426584424261 0 1 1
206 52 4 0 -6.507544094659317 -1.8095158338676889 -6.036582830539125 0 0 0
628 193 4 0 -6.300549798025671 -1.4599883796485515 -6.044876010726169 0 0 0
627 193 2 0 -5.927699238564125 -1.230931212207107 -5.9293192266014065 0 0 0
629 193 4 0 -5.5442033289009975 -0.9964336608566075 -5.818485468292271 0 0 0
686 212 4 0 -5.297868615132895 -0.687124909570441 -5.73755553142786 -1 0 1
685 212 4 0 -4.51802241216063 -0.25788425987652236 -6.004601436122463 -1 0 1
684 212 2 0 -4.892151371787234 -0.4669665048526266 -5.878693565084595 -1 0 1
341 97 4 0 -4.171112495860567 -0.40476395394134307 -5.915003276306801 0 -1 0
339 97 2 0 -3.8939939350139965 -0.13145624651641316 -6.146381974202776 0 -1 0
1426 459 4 0 -3.3070158052060674 -1.7168399799552785 -4.845418670097179 0 0 1
1253 401 4 0 -2.0677380198876825 -0.04342112198916702 -1.5726918823027727 0 0 0
745 232 4 0 -1.0224072086498701 -1.654954370744505 -5.87867317214028 0 1 1
157 36 4 0 -0.7192990784515073 -1.7032388468523387 -6.155904314964552 0 -1 0
121 25 1 0 -0.3348058417539958 -0.22296702176511243 -6.541056969624707 0 0 1
156 36 2 0 -0.48754495659845487 -1.335714637065362 -6.3322379006787575 0 -1 0
123 25 3 0 -0.3877773973814097 -0.6387340504981328 -6.332277170974313 0 0 1
158 36 4 0 -0.26803903634237486 -0.9905037723380055 -6.499904094652445 0 -1 0
475 142 4 0 -2.1337724540358693 -0.1463750878762868 -1.1732109835069575 0 0 0
763 238 4 0 -7.729921733548412 -8.199966250538443 -4.415534241905746 -1 1 2
407 119 4 0 -4.990224069126569 -7.904939200753901 -3.404577031205608 0 0 1
130 27 4 0 -3.699315432330741 -7.401102459645565 -4.865460432859467 0 0 1
129 27 2 0 -3.984176975761041 -7.257267123685101 -4.562761276063356 0 0 1
587 179 4 0 -5.025099367198734 -7.522624488421493 -3.5753443278651584 0 1 1
585 179 2 0 -4.6856394428327 -7.272007354245843 -3.7212774012508314 0 1 1
586 179 4 0 -4.3181541331974085 -7.0089723138716185 -3.8777610155082667 0 1 1
131 27 4 0 -4.277522252749274 -7.110712517750768 -4.264290279805689 0 0 1
779 243 4 0 -0.41784743095219884 -7.910702639237094 -4.14057410065286 0 0 0
452 134 4 0 -0.7160678004342903 -8.125304369009605 -4.330003305197429 -1 0 0
476 142 4 0 -2.187126522532072 -0.911423221680192 -0.6639644438551526 0 0 0
450 134 2 0 -0.8249157309537698 -8.251750769592038 -4.756801995984017 -1 0 0
600 184 2 0 -3.8604227890745006 -3.444952102782716 -4.7792549525565 0 1 0
651 201 2 0 -1.8713203368623146 -3.475146452739641 -3.8776296553751095 1 1 0
652 201 4 0 -1.9521608806379243 -3.6520077616227207 -3.473274803086209 1 1 0
1076 342 4 0 -6.657563939100976 -2.7396297325298518 -4.261119553961237 1 0 0
1075 342 4 0 -7.10292406380004 -2.2547759143760135 -3.65725361291857 1 0 0
1074 342 2 0 -6.866826599789192 -2.507947690196186 -3.966032950672735 1 0 0
1090 347 4 0 -6.870235083210466 -1.9496055384061113 -3.522336754396109 1 0 0
535 162 4 0 -6.4479186595788045 -2.801583712253987 -4.562551045881957 0 0 1
602 184 4 0 -3.973129090332348 -3.004772018303741 -4.768854014374325 0 1 0
550 167 4 0 -3.757086829232135 -2.730870609834947 -4.992716722698861 0 0 0
549 167 2 0 -3.593828389336201 -2.382126944367302 -4.785497516847523 0 0 0
653 201 4 0 -1.788430772206728 -3.2974377752948336 -4.283005288280523 1 1 0
845 265 4 0 -1.6839266043866856 -2.9077447534196055 -4.33149698707568 0 0 0
843 265 2 0 -1.5828775757232814 -2.5822480702833497 -4.604326069707737 0 0 0
844 265 4 0 -1.4812648802667068 -2.229262386457249 -4.897563666456247 0 0 0
1213 388 4 0 -6.3023983385195 -0.5981200914404574 -4.437467884720861 1 0 -1
1212 388 2 0 -6.058755266462974 -0.7739543062752469 -4.092831970490383 1 0 -1
1402 451 4 0 -6.628609374985501 -0.3556866698662725 -4.378095066813028 0 0 0
1214 388 4 0 -5.844266206108459 -0.9394793800171312 -3.7737015039303294 1 0 -1
524 158 4 0 -5.4923880932411695 -0.2767816884139426 -4.370740153090408 0 0 0
522 158 2 0 -5.168808720946812 -0.025474310349016357 -4.168568308467897 0 0 0
1228 393 4 0 -5.871206831802165 -0.9876593097788737 -3.376643838647531 0 0 0
1425 459 2 0 -3.267024073931221 -1.3126254682428964 -4.650696264788308 0 0 1
1427 459 4 0 -3.226770177592536 -0.8967468651883385 -4.446340528959624 0 0 1
754 235 4 0 -3.163103281022739 -0.8049119355619566 -4.023235163093686 0 1 1
753 235 2 0 -2.7363090305418436 -0.7667168923724414 -3.8858822934926165 0 1 1
755 235 4 0 -2.3189603532140737 -0.728099288988733 -3.7442854123123888 0 1 1
1528 493 4 0 -2.2437833837972154 -0.5219091221167274 -3.410726409740295 0 0 1
474 142 2 0 -2.163808459836963 -0.5279390508016366 -0.9213065015974499 0 0 0
1088 346 4 0 -2.213554845304196 -8.139710434159392 -3.13264619764587 1 1 0
1086 346 2 0 -2.4746814554509022 -7.817423219661918 -3.0362330103689636 1 1 0
1087 346 4 0 -2.76173939180963 -7.462229222143835 -2.921361937669819 1 1 0
1541 497 4 0 -2.975561255975923 -7.233955779123676 -2.680159821435515 0 1 0
1539 497 2 0 -2.795928779330383 -6.861021569638571 -2.5139755297632784 0 1 0
7 2 3 0 -3.24692321988545 -6.1453390466247315 -1.98921048573673 0 0 0
785 245 4 0 -3.0643392251041406 -5.1923556580575845 -2.5939161187007347 0 1 0
10 2 3 0 -3.121483776964072 -5.566266605127427 -2.4349979458518582 0 0 0
1540 497 4 0 -2.6248315449191773 -6.488625756180581 -2.350366934521032 0 1 0
6 2 1 0 -2.9329635023233127 -5.8529087998624645 -2.1313573348441177 0 0 0
9 2 3 0 -2.589797075156091 -6.079414059099362 -2.321698368946467 0 0 0
8 2 3 0 -2.7755489784453773 -5.612419085443251 -1.781183620334225 0 0 0
783 245 2 0 -2.8562389799144845 -5.14213787371406 -2.998515574764507 0 1 0
1000 317 4 0 -3.1472742108688427 -6.493336315650978 -1.8037304508159218 1 0 0
873 275 2 0 -0.28058104628307 -5.948010538051574 -1.9923834692119298 0 -1 0
848 266 4 0 -1.6411594604105026 -4.975491255385643 -1.6318189071155336 0 0 0
784 245 4 0 -2.667508353376544 -5.094933073844214 -3.386272153705 0 1 0
847 266 4 0 -2.0772711059488898 -4.4559609530471 -2.2903157288515787 0 0 0
846 266 2 0 -1.8530561036584778 -4.7157324928193525 -1.9522779741198026 0 0 0
635 195 4 0 -2.3424042398682263 -4.352661130937445 -2.5707257293580876 -1 1 1
634 195 4 0 -1.8605207409453102 -3.7585148355575315 -3.091112281758544 -1 1 1
633 195 2 0 -2.0959861622389484 -4.046085530345823 -2.8395200337826876 -1 1 1
790 247 4 0 -0.3165988468534508 -2.8712765170730696 -2.667256161385973 0 0 1
818 256 4 0 -0.46752259484310765 -2.6939239731602473 -2.352484611011749 -1 1 0
817 256 4 0 -0.6624288371285838 -2.2912762471360777 -1.5785079979796668 -1 1 0
816 256 2 0 -0.5633101194810544 -2.493838586898274 -1.9645210547617462 -1 1 0
1089 347 2 0 -7.059896968179292 -1.5848008322031055 -3.301845165985187 1 0 0
1091 347 4 0 -7.242716025816419 -1.246326311382272 -3.0916161173835994 1 0 0
520 157 4 0 -7.283562895008036 -1.022693998220164 -2.7569578344793553 0 0 0
519 157 2 0 -7.145685924170714 -0.5747554538638653 -2.6434324308047916 0 0 0
521 157 4 0 -7.003635326182388 -0.16231061278591633 -2.543656385090203 0 0 0
1227 393 2 0 -5.624818677595608 -1.0118357794608324 -2.9948232309776603 0 0 0
1229 393 4 0 -5.388101360349457 -1.0335326929189894 -2.643451057623355 0 0 0
943 298 4 0 -5.225651454240246 -0.9555020163279014 -2.2784146889540353 1 0 0
942 298 2 0 -4.901640274103702 -1.0391539730306294 -1.9749815867368907 1 0 0
1529 493 4 0 -1.65074642775486 -0.14411428962234007 -2.808690565153304 0 0 1
1527 493 2 0 -1.9516995110288722 -0.34086892410505176 -3.115739073477293 0 0 1
1252 401 4 0 -1.8088859814952978 -0.0952724582892048 -2.4432673190922194 0 0 0
1251 401 2 0 -1.9394956208888363 -0.07363093300937017 -1.997411756103347 0 0 0
135 29 2 0 -7.7494270172304125 -7.946456625797557 -0.5893269371265444 0 0 -1
136 29 4 0 -7.890321882812052 -7.582506685606973 -0.44107427001725674 0 0 -1
1034 328 4 0 -8.105235308684685 -7.394978649808382 -0.15884385701939102 0 0 0
743 231 4 0 -4.48110601381906 -7.9177229125551385 -1.5283805531653485 0 1 0
917 289 4 0 -4.633357909620431 -7.58576756961494 -1.3376313150646562 0 0 0
915 289 2 0 -4.259912014668875 -7.332451442922872 -1.2074081942242005 0 0 0
916 289 4 0 -3.8850752995807696 -7.07870867435273 -1.0717905676743047 0 0 0
1001 317 4 0 -3.5067828288332272 -6.948574250071806 -1.0999337377532579 1 0 0
999 317 2 0 -3.3229116034380404 -6.71449456306526 -1.4501830847898287 1 0 0
1372 441 4 0 -2.1841771845079667 -6.473850234364224 -0.38140332040370695 0 0 0
1545 499 2 0 -2.487682140333374 -6.981026743145724 -0.006226032897756306 0 1 0
1546 499 4 0 -2.326737227499067 -6.556524508274471 -0.007475132171898288 0 1 0
456 136 2 0 -0.9239073368903353 -6.756725921242759 -1.5059472071167597 0 0 1
1231 394 4 0 -0.9775353809816631 -7.5012499203286405 -1.4654486300522613 0 0 0
457 136 4 0 -0.9295725744643878 -7.1577518884955875 -1.2957540289099907 0 0 1
1230 394 2 0 -0.9139054390824352 -7.850271369055095 -1.19794977977471 0 0 0
1232 394 4 0 -0.852416219243952 -8.206473926790322 -0.9318296986340222 0 0 0
355 102 4 0 -2.3784323527340594 -4.976803487325146 -0.4807561832827039 -1 0 0
354 102 2 0 -2.6175917726502105 -4.966464572730326 -0.06354090412742494 -1 0 0
632 194 4 0 -2.7952127843691064 -5.3036097965995666 -1.5454976595861438 0 0 0
631 194 4 0 -2.3757073555596366 -4.909668466716514 -0.8641356251857146 0 0 0
630 194 2 0 -2.582622899780304 -5.103169842290054 -1.2050384250341548 0 0 0
1371 441 2 0 -1.873692442424716 -6.332916637429316 -0.7100684475963381 0 0 0
458 136 4 0 -0.9307569285230066 -6.3848153781368415 -1.691855671570491 0 0 1
874 275 4 0 -0.6298220312936017 -6.226906843684644 -1.9034511821351976 0 -1 0
973 308 4 0 -1.3145297316990932 -5.179020461079615 -1.5211723844104765 1 -1 0
972 308 2 0 -1.4036970956824528 -5.521055253877444 -1.2210418645865158 1 -1 0
974 308 4 0 -1.4751766670020299 -5.831776741106429 -0.9484224470725903 1 -1 0
1373 441 4 0 -1.576363616593053 -6.203668049417577 -1.0285187465981196 0 0 0
677 209 4 0 -8.22042643949843 -2.5279764649681136 -0.1144933408826229 1 0 -1
1168 373 4 0 -2.241426528696225 -0.9919911152735548 -0.2801806096401629 1 -1 0
944 298 4 0 -4.577070217706222 -1.1283789468094942 -1.6770558304249745 1 0 0
1487 479 4 0 -4.634475747274928 -1.3087463082962507 -1.326342547437717 1 1 0
1485 479 2 0 -4.417722170552804 -1.2033887915928059 -0.9766784403994025 1 1 0
1255 402 4 0 -4.125890565575888 -1.2806583737534782 -0.270504173228175 1 0 -1
1486 479 4 0 -4.203243011516678 -1.0851418793050092 -0.6004355556246256 1 1 0
907 286 4 0 -2.1548750435184396 -4.966549453599891 -8.116075346593702 0 0 0
502 151 4 0 -5.377908976160208 -2.770142341117764 -8.203986503468442 0 1 1
1462 471 4 0 -2.6503010638032785 -7.762059981085409 0.22859266842799641 0 0 1
1461 471 2 0 -2.92796719898475 -8.08512910010354 0.37998669703149285 0 0 1
1547 499 4 0 -2.653087163007133 -7.426862824571323 0.007319775556146508 0 1 0
888 280 2 0 -4.633858079884307 -1.3691866123463474 8.062995428185339 -1 0 -1
1448 466 4 0 -3.2233034060897054 -5.0665742202590165 0.4931464169117698 0 1 0
1446 466 2 0 -3.1165737645513283 -5.219846713924159 0.9127752679387705 0 1 0
1447 466 4 0 -3.0012112154422415 -5.375629270944575 1.332208270519181 0 1 0
1064 338 4 0 -2.6755699639840764 -5.623405398272137 1.289538876755551 0 1 0
1062 338 2 0 -2.4948891783923552 -5.978820254608393 1.4699648215239165 0 1 0
1063 338 4 0 -2.3127769321368885 -6.3364706497767775 1.6484333884108038 0 1 0
356 102 4 0 -2.863119010234913 -4.953068174068075 0.3707952695711381 -1 0 0
675 209 2 0 -8.189454179760956 -2.566517571613441 0.3190346978152936 1 0 -1
1133 361 4 0 -0.3614305789065056 -1.8434219996954468 0.31809036772530536 1 -1 1
890 280 4 0 -4.439358698262419 -1.1377864774330995 7.741697302211144 -1 0 -1
640 197 4 0 -0.633553117942309 -1.6769040655982488 0.542873112934779 0 0 0
395 115 4 0 -5.079345117496426 -0.979849210653159 1.3952141993606242 0 -1 0
393 115 2 0 -4.917168993100197 -0.7202640797846555 1.030502759189004 0 -1 0
1543 498 4 0 -5.083748239074844 -0.33228998574570867 0.5677019213592753 0 0 0
394 115 4 0 -4.730762183724186 -0.4609056704967908 0.6818283995645866 0 -1 0
1542 498 2 0 -5.232271308170999 -0.06626231769381277 0.2306745770559974 0 0 0
705 219 2 0 -3.4327016125119267 -0.10760293684450441 0.5657273875613014 0 0 0
706 219 4 0 -3.684263818694552 -0.4717737579034282 0.5606796364230262 0 0 0
1256 402 4 0 -3.728784141333797 -0.8250017521991032 0.4123629387392429 1 0 -1
1254 402 2 0 -3.929331410399883 -1.0610562281392046 0.06562569616837563 1 0 -1
1167 373 2 0 -2.0676715548798974 -1.137632935343388 0.11658910006495098 1 -1 0
1169 373 4 0 -1.887773185265002 -1.2729224341244196 0.5164527663987144 1 -1 0
639 197 2 0 -1.0784983561735881 -1.5794229336051482 0.5907561325978591 0 0 0
641 197 4 0 -1.526862733052971 -1.4781800543284787 0.6297773238795323 0 0 0
1222 391 4 0 -2.0516342349998435 -6.471115126819833 1.9347657772805902 0 0 0
1221 391 2 0 -2.0094817375630787 -6.462751033147346 2.385033638478669 0 0 0
1223 391 4 0 -1.9459635832650184 -6.450541426732829 2.855147826325296 0 0 0
610 187 4 0 -1.9083333702354932 -6.207830278775428 3.1667772828896137 0 0 -1
576 176 2 0 -4.524676147387648 -0.41559179757950226 7.351857717890808 0 0 -1
1037 329 4 0 -5.191785009848088 -1.1800702895673052 1.7284357704887723 1 -1 0
1512 488 2 0 -8.22818032738502 -5.285098737158049 3.080991822585946 0 0 0
978 310 2 0 -5.2832923313058915 -0.16192428565115946 2.6423951352627175 0 -1 -1
1035 329 2 0 -5.629231972162455 -1.17764662101809 1.9202279208266557 1 -1 0
1036 329 4 0 -6.021661218110453 -1.1812790226045553 2.1010641945433197 1 -1 0
949 300 4 0 -4.633860745785679 -0.2047102655858955 2.2030463771241373 0 -1 -1
980 310 4 0 -4.9638942629412375 -0.37579613839276926 2.3653768508739037 0 -1 -1
923 291 4 0 -1.9270469763255735 -0.49807829685909466 3.1315290496474795 1 -1 0
921 291 2 0 -2.142617754806622 -0.1840398238544781 3.0848026219583495 1 -1 0
830 260 4 0 -0.32722184920155134 -6.733040799178342 4.384224447377479 0 0 0
411 121 2 0 -8.240333565142288 -4.924964153577327 4.1534621064825155 0 0 0
1513 488 4 0 -8.204928445070403 -4.97552833850124 3.375127986157742 0 0 0
412 121 4 0 -8.008064647344062 -4.902391678135876 3.7625449980000387 0 0 0
609 187 2 0 -1.538808185837626 -6.284582277104892 3.4120254009608595 0 0 -1
828 260 2 0 -0.554623967325683 -6.655873058227494 4.021763302020982 0 0 0
829 260 4 0 -0.7983311371943212 -6.572287649411013 3.6314491167418206 0 0 0
611 187 4 0 -1.1437645150829125 -6.356298381484642 3.6619981528526404 0 0 -1
841 264 4 0 -4.69040065003033 -4.01023195106758 5.035552850719072 0 0 0
840 264 2 0 -4.837171345200691 -3.7204352322611034 4.746417370036747 0 0 0
814 255 4 0 -5.076905065322022 -1.8872620015916652 4.002822779030961 0 1 0
788 246 4 0 -5.1180596696997736 -2.122321830935092 4.317333641595518 0 0 0
786 246 2 0 -5.047653899803231 -2.5668526229133914 4.32088211197137 0 0 0
787 246 4 0 -4.964461579838269 -3.0175897522238566 4.339311936946339 0 0 0
842 264 4 0 -5.009115172461022 -3.3954396814358017 4.409408344821764 0 0 0
1348 433 4 0 -8.164161528003035 -0.39750333817283184 4.63804486081461 0 1 -1
1312 421 4 0 -7.7971283809504754 -0.3554823717351571 4.71168268091606 0 1 -1
813 255 2 0 -5.220347853126639 -1.4923551164874977 3.911192701364871 0 1 0
815 255 4 0 -5.372425909334518 -1.0931332766366904 3.809962424964273 0 1 0
867 273 2 0 -5.8388648455638545 -0.597620915266763 3.824590538506302 1 -1 0
868 273 4 0 -5.93617702354258 -0.1819243260431092 3.9842963251191867 1 -1 0
869 273 4 0 -5.748483244781402 -0.9788192235436057 3.676732884448703 1 -1 0
403 118 4 0 -7.198285205863329 -6.794208893522198 6.155880801961051 0 -1 0
737 229 4 0 -6.96840442787656 -7.13901697131819 6.137082842559078 0 0 -1
735 229 2 0 -6.814181716799036 -7.511390673231941 6.31415316823429 0 0 -1
727 226 4 0 -0.08190501185808224 -6.946465855499944 5.794110125590079 0 1 0
246 66 2 0 -7.734145363304108 -5.176480292480235 6.016418520315881 0 -1 -1
248 66 4 0 -7.654593235768827 -5.648130144493016 6.06135226639821 0 -1 -1
404 118 4 0 -7.404602946115663 -5.938431185517856 6.058167212991284 0 -1 0
402 118 2 0 -7.298735347836402 -6.366875425820264 6.103400105409926 0 -1 0
247 66 4 0 -7.808482189382754 -4.720514869625902 5.955045484710254 0 -1 -1
265 72 4 0 -7.657701676549983 -4.435076876514636 6.193521955719564 0 0 0
317 89 4 0 -3.556986060575733 -3.0639348376008626 6.288043191883074 0 -1 0
1192 381 4 0 -4.696741968036984 -1.5725674369772065 5.711861445225451 1 1 -1
1193 381 4 0 -4.123356650275094 -2.182957858036078 5.994405198998016 1 1 -1
1191 381 2 0 -4.403878495974779 -1.8802880607963812 5.858416961434389 1 1 -1
104 21 3 0 -3.736069056628297 -2.062865518708832 6.0388522651164935 0 0 0
105 21 3 0 -3.4431831574475846 -2.6653918702110655 6.367452273764538 0 0 0
101 21 1 0 -3.4959290502563958 -2.224774390403765 6.409144149013779 0 0 0
102 21 3 0 -3.0993044942483112 -2.0228051862364054 6.424103882159615 0 0 0
315 89 2 0 -3.3546878820893844 -3.394766316161512 6.55075891931421 0 -1 0
578 176 4 0 -4.574762796315517 -0.7980619274349126 7.63493680909723 0 0 -1
1238 396 4 0 -0.3313673932282144 -2.2224597697395323 5.038037790252755 0 0 0
1236 396 2 0 -0.7518303153173124 -2.051814318632992 5.049010722824076 0 0 0
1237 396 4 0 -1.1845143684882686 -1.8831567544543826 5.071010768373081 0 0 0
1433 461 4 0 -1.316141627568808 -1.9491679008405172 5.4498509884700495 0 0 0
1311 421 2 0 -7.428254856112074 -0.3125152306335977 4.971810004874464 0 1 -1
1313 421 4 0 -7.056668638393971 -0.26643317529559285 5.2263029911759515 0 1 -1
500 150 4 0 -6.765027232446172 -0.4686940428343945 5.450512769027496 0 1 0
1070 340 4 0 -5.066207759885512 -1.5249768360049472 5.626356513166504 1 0 0
498 150 2 0 -6.540720774453784 -0.8642188012293293 5.4129772303722445 0 1 0
499 150 4 0 -6.333083299169293 -1.2586675900832707 5.372975375946313 0 1 0
1069 340 4 0 -5.949664810391754 -1.3800665578397613 5.471589612095997 1 0 0
1068 340 2 0 -5.510771376703158 -1.4541213637846901 5.549365650273539 1 0 0
1334 428 4 0 -3.067903012420822 -1.7596447797627988 6.123251252257677 0 0 -1
1432 461 4 0 -1.8551470743870284 -1.354532679719693 5.928833750257145 0 0 0
1333 428 4 0 -2.2642719986019024 -1.4204110294674348 5.795344066803886 0 0 -1
1332 428 2 0 -2.674225912976176 -1.5957332583826378 5.960356111031547 0 0 -1
1431 461 2 0 -1.5863074028402762 -1.6453843796974568 5.6928781917399975 0 0 0
1355 435 4 0 -6.444862567121323 -8.02957318252089 6.838641961250197 0 0 0
736 229 4 0 -6.654782150989073 -7.8936448376787345 6.505681311089215 0 0 -1
437 129 4 0 -7.382915176535135 -5.027198071610901 8.037866968863625 0 0 0
577 176 4 0 -4.469439990918862 -0.04406466452050498 7.092303876747584 0 0 -1
264 72 2 0 -7.627905916404889 -4.247143701918435 6.5983766923175695 0 0 0
325 92 4 0 -7.67926446681554 -4.269632605290339 7.334910489927205 0 0 0
266 72 4 0 -7.5982328668511085 -4.055518904692344 7.007433057478628 0 0 0
324 92 2 0 -7.553723727109813 -4.456341984071476 7.717772294564513 0 0 0
326 92 4 0 -7.4349603372440525 -4.635855808437958 8.084280972054193 0 0 0
906 286 2 0 -2.54380277334319 -4.886816830980663 8.180950659927268 0 0 -1
316 89 4 0 -3.167209119638489 -3.710889807129638 6.805731446274843 0 -1 0
1138 363 4 0 -3.3390953733332855 -3.9285996979512885 7.083783849590451 1 0 0
1137 363 2 0 -3.182350578973665 -4.215232518377541 7.427195295333387 1 0 0
1139 363 4 0 -3.035164536865052 -4.491205109760868 7.763689114396308 1 0 0
908 286 4 0 -2.9328983917345934 -4.8157169520892396 7.949687956109413 0 0 -1
1435 462 4 0 -5.5952687477316445 -0.001471338533342801 4.128888323482829 0 -1 0
5 1 3 0 -5.07756336869795 -2.658694324490861 8.142125232326933 0 0 -1
2 1 3 0 -4.331190748107269 -2.5418695495643595 8.169989280733187 0 0 -1
103 21 3 0 -3.7370387347698086 -2.1260324246919984 6.789781779027659 0 0 0
1184 378 4 0 -3.8676782872525353 -1.9121258255664149 7.099958298512276 0 0 0
1182 378 2 0 -4.007505637567882 -2.112503064374096 7.525666188121516 0 0 0
1183 378 4 0 -4.127191737470244 -2.314984828656577 7.92116520878201 0 0 0
1476 476 2 0 -8.26278462248687 -2.670784542626643 1.5529312738804808 1 -1 0
676 209 4 0 -8.167639193525261 -2.6120832468119435 0.7725405582158243 1 0 -1
1477 476 4 0 -8.185467407686446 -2.813923437379532 1.1251555692660238 1 -1 0
1514 488 4 0 -8.256553510454722 -5.628850828622739 2.767052346948414 0 0 0
555 169 2 0 -2.888374196230756 0.3351782848111158 -6.640039440970581 -1 1 0
557 169 4 0 -2.464383211664467 0.5038248210992183 -6.626287092967358 -1 1 0
554 168 4 0 -7.945060360114636 1.99689794886471 -7.697183375367028 0 0 1
396 116 2 0 -7.5756643721904755 2.490230455266781 -8.151758869108123 0 -1 2
397 116 4 0 -7.677212473145859 2.0724595755890336 -7.960873716318703 0 -1 2
998 316 4 0 -3.16823860825835 2.3649424200646174 -7.832484631712461 0 -1 1
996 316 2 0 -3.3829071179271306 2.601223601401683 -7.494270423211242 0 -1 1
997 316 4 0 -3.573496870349624 2.8254091139205433 -7.164036817888036 0 -1 1
994 315 4 0 -3.2675568398742456 2.4514515622152078 -8.222550690058382 0 0 0
548 166 4 0 -3.4897829583364466 3.213652251983669 -7.2501310310863065 0 0 0
1160 370 4 0 -8.15385497757031 4.499655071252104 -7.7759787559178 1 -1 1
390 114 2 0 -7.351448960123993 4.412226841776767 -8.083232377972205 0 0 1
392 114 4 0 -7.763446270471381 4.412935429189654 -7.892963670835114 0 0 1
1544 498 4 0 -5.384117730795162 0.21601107589719204 -0.12960271053386113 0 0 0
463 138 4 0 -4.880809357031844 4.5935412260312765 -7.434988500508466 0 0 0
1136 362 4 0 -6.579688450887603 4.45532769997985 -8.187511574247724 0 0 0
462 138 2 0 -4.689437578114105 4.864424975279268 -7.712196669018958 0 0 0
546 166 2 0 -3.522116130276177 3.6443198033502315 -7.158497932818985 0 0 0
547 166 4 0 -3.56787552007046 4.078128542948398 -7.0637536168202475 0 0 0
1503 485 2 0 -3.438629931196137 4.915152075314337 -7.2743552317968305 0 -1 1
1505 485 4 0 -3.486136315771267 4.463919150633467 -7.183449845206219 0 -1 1
567 173 2 0 -8.178628841817213 5.724872624149349 -8.225460907997595 0 0 1
464 138 4 0 -4.491858807029866 5.138247023755135 -8.016642992643735 0 0 0
1504 485 4 0 -3.3997380314526837 5.331279880152715 -7.356782002183859 0 -1 1
1501 484 4 0 -3.2719377809319763 5.669946804783033 -7.533517269930213 0 -1 1
1500 484 2 0 -3.226505035450786 6.023063450916746 -7.829202333679399 0 -1 1
1502 484 4 0 -3.169773989192351 6.375724212105795 -8.134249585912906 0 -1 1
311 87 4 0 -5.825732110966742 6.881305924183517 -6.863003194176881 0 0 1
309 87 2 0 -5.453736526737275 6.874489773017236 -7.1170904839733975 0 0 1
310 87 4 0 -5.084783456359312 6.870386394101822 -7.362755973412793 0 0 1
455 135 4 0 -5.137933094102872 6.693239071506231 -7.728998817468209 0 -1 1
453 135 2 0 -4.8871129004089475 6.771529219056962 -8.106086595807485 0 -1 1
857 269 4 0 -2.3267192424221066 7.1761586956573264 -6.92750223589297 0 -1 1
161 37 4 0 -2.4247476706107727 6.788256582689214 -6.794177983742935 0 -1 1
855 269 2 0 -1.9987937169028758 7.423706847433871 -6.783641316424676 0 -1 1
336 96 2 0 -5.511178015854704 1.5416795637668725 -5.18040410231782 0 0 0
556 169 4 0 -3.283116359464377 0.16834030422539 -6.659324804349172 -1 1 0
1165 372 4 0 -2.401680665892978 0.8591821087878151 -6.483679105511026 0 0 0
1164 372 2 0 -2.2508788094230754 1.2514867371138574 -6.277187767319396 0 0 0
1166 372 4 0 -2.0976276749616756 1.6339285330627549 -6.090196635316409 0 0 0
133 28 4 0 -1.2043999206235454 0.8649869308272802 -5.686687687033095 -1 -1 0
132 28 2 0 -1.004320619084117 0.5384646119245673 -5.916028459006653 -1 -1 0
932 294 4 0 -1.1819740007916841 1.1655058951735302 -5.406148161095161 0 0 0
134 28 4 0 -0.8066681594718889 0.20590395472093617 -6.141266372970517 -1 -1 0
930 294 2 0 -1.0358592139906788 1.5666668821357959 -5.393650374657498 0 0 0
1113 355 2 0 -8.094650993827392 2.5647015126281265 -4.885492749158253 0 -1 1
529 160 4 0 -5.134104589733252 2.233678259880332 -5.33688647127593 1 0 0
338 96 4 0 -5.268255148252802 1.843611370675046 -5.374539308246593 0 0 0
528 160 2 0 -4.886220819163899 2.6127010707555054 -5.267022912348689 1 0 0
530 160 4 0 -4.635280748054211 2.987980104995734 -5.199355188337279 1 0 0
1109 353 4 0 -4.8730088539940395 3.263136927399064 -5.313413782027866 0 -1 0
362 104 4 0 -1.3776126734090879 2.9736460167032748 -5.509476232111266 0 -1 0
538 163 4 0 -1.0640711660072077 2.863097776625026 -5.754816116712263 -1 0 1
1379 443 4 0 -0.8364364267658169 8.098783497217804 -0.5975039572316712 0 0 1
539 163 4 0 -0.3441563698004762 2.8771989114458423 -6.288158234698289 -1 0 1
537 163 2 0 -0.7172030406587784 2.868709456435944 -6.022005701681299 -1 0 1
931 294 4 0 -0.8881009848771415 1.9959982470090452 -5.373756150525341 0 0 0
213 55 2 0 -7.760935360901873 4.215012371269046 -5.577948113343049 0 -1 1
643 198 4 0 -6.999465919306996 4.4086165767440315 -5.481241529079907 0 0 1
215 55 4 0 -7.387236735035247 4.361574359398784 -5.368750141626798 0 -1 1