LAMMPS data file via write_data, version 4 Feb 2025, timestep = 100000, units = lj

1550 atoms
4 atom types
1050 bonds
1 bond types
625 angles
2 angle types

-8.262893 8.262893 xlo xhi
-8.262893 8.262893 ylo yhi
-8.262893 8.262893 zlo zhi
7.105427357601002e-15 0 0 xy xz yz

Masses

1 1
2 1
3 0.1
4 0.1

Bond Coeffs # harmonic/omp

1 100 0.45

Angle Coeffs # harmonic/omp

1 100 180
2 100 109.471

Atoms # full

432 128 2 0 -5.277391129543066 -8.148593592871908 -7.686947381694109 7 1 0
434 128 4 0 -5.411927558288495 -7.734827727969102 -7.661676861871303 7 1 0
289 80 4 0 -5.240868880849298 -7.473770521228098 -7.94365271181671 3 0 0
644 198 4 0 -2.136356498888107 -7.39946510223503 -7.54329161108177 7 1 1
642 198 2 0 -1.9111049620238196 -7.80306014637686 -7.465212899447512 7 1 1
643 198 4 0 -1.688090728576416 -8.191239075008472 -7.39068213299013 7 1 1
288 80 2 0 -4.9390900062158725 -7.149061934632234 -8.060587355377308 3 0 0
290 80 4 0 -4.644074748940808 -6.838203165401795 -8.166189235740672 3 0 0
30 6 3 0 -4.253106260183038 -6.839566397820224 -8.054199705287616 2 0 0
29 6 3 0 -3.5726992086225016 -7.142366109527826 -7.976601208402251 2 0 0
386 112 4 0 -3.268017771112503 -7.185182049303071 -7.726344938952807 2 0 0
1248 400 2 0 -2.1209674795218048 -6.81799845402361 -8.034827810030025 7 1 0
1250 400 4 0 -2.0151365147523768 -7.056601975454388 -7.6738764615138875 7 1 0
1346 432 4 0 -0.49895885276901364 -6.1100548372498835 -8.223297890630162 8 1 1
712 221 4 0 -1.6098862812807093 -5.428054489241451 -7.415289787470534 7 1 1
1397 449 4 0 -1.2383627236536325 -5.3281925771183305 -7.560678684677136 8 1 0
1395 449 2 0 -0.8258234967595133 -5.21844140158086 -7.770182344155684 8 1 0
1396 449 4 0 -0.451535640988439 -5.112972279200581 -7.961352274678399 8 1 0
1112 354 4 0 -0.09778750115200552 -5.076468290810234 -8.157393252888609 3 0 1
1118 356 4 0 -5.480031372235823 -3.752054674928333 -7.7740121404302505 4 0 1
761 237 4 0 -3.5808123656672626 -4.34547199615805 -7.393534970166525 7 1 1
622 191 4 0 -3.4199580096369564 -3.9613439087013127 -7.444974868001346 8 1 0
621 191 2 0 -2.9597525511936835 -3.977387961328118 -7.38358504090493 8 1 0
217 56 4 0 -2.194480523621591 -4.212207307171367 -7.411769293516804 3 0 0
218 56 4 0 -1.3423407851481768 -4.194017442828689 -7.578844582408449 3 0 0
216 56 2 0 -1.7639652028656094 -4.205322722993849 -7.490399821994343 3 0 0
1534 495 4 0 -1.0461228434742216 -3.9117396968258014 -7.4982856713381585 8 1 0
1533 495 2 0 -0.6059261827556375 -3.8172542930479967 -7.537219947712995 8 1 0
1535 495 4 0 -0.173261411949019 -3.718365823260174 -7.57226138014761 8 1 0
1482 478 2 0 -7.962757380831878 -3.590533708329679 -7.394297371063837 9 1 0
78 16 3 0 -6.653941504561037 -3.587582348008133 -7.37841436058716 4 0 1
80 16 3 0 -6.798504760930864 -2.9051450772236134 -7.427028042861023 4 0 1
1057 336 4 0 -6.863567771193608 -2.8930697108746166 -7.82206927306535 4 0 1
1056 336 2 0 -6.755303275938896 -2.8996347694277755 -8.240920067438847 4 0 1
1117 356 4 0 -6.339277816945988 -3.540923975818525 -7.638890055390147 4 0 1
1116 356 2 0 -5.926172126058805 -3.64506396068243 -7.702578058999176 4 0 1
370 107 4 0 -5.263260126306197 -3.444823872885233 -7.877444180854192 3 0 1
369 107 2 0 -4.914379827780117 -3.2054658651798285 -7.708793139992089 3 0 1
371 107 4 0 -4.580817516556285 -2.960252467897093 -7.545152589101104 3 0 1
83 17 3 0 -4.241626707930647 -2.80174389548789 -7.400095155267705 4 0 1
1045 332 4 0 -3.653861761808951 -3.2660768529534083 -8.028341349977538 4 0 0
82 17 3 0 -3.6191436220353337 -3.1087601147398143 -7.648415798447426 4 0 1
382 111 4 0 -0.013196385648338804 -3.389123253909535 -7.425871764351946 8 1 1
502 151 4 0 -7.650528082676285 -1.9926230435923902 -7.59970472942281 9 1 1
5 1 3 0 -8.057264114513346 -2.0462355557829257 -7.656175540781212 4 0 0
3 1 3 0 -8.12321180982457 -2.6654145238265228 -8.043679096756502 4 0 0
1 1 1 0 -8.203230268592103 -2.2243475382282734 -8.042331801124584 4 0 0
501 151 2 0 -7.207431098012572 -1.933902883878198 -7.492595889186778 9 1 1
503 151 4 0 -6.7850480657201135 -1.8746676005328204 -7.392366785116831 9 1 1
81 17 1 0 -3.7995032059415275 -2.7523154557558325 -7.407151019922486 4 0 1
85 17 3 0 -3.691611114538487 -2.3348211006868524 -7.621739664167147 4 0 1
1460 470 4 0 -3.662419792107018 -2.067604290244754 -7.922388898877426 4 0 1
1452 468 2 0 -5.998460865205148 -1.5190326202353042 -7.455109285609782 9 1 1
1453 468 4 0 -5.608230989858071 -1.3202276175059628 -7.563303012522669 9 1 1
205 52 4 0 -5.244148309993875 -1.2919628608256986 -7.736741645892261 4 0 0
204 52 2 0 -4.811578959279609 -1.2003886401793125 -7.687005502129976 4 0 0
206 52 4 0 -4.366502055136994 -1.1095387761329585 -7.641283092267849 4 0 0
628 193 4 0 -3.9817676150251646 -1.0585112110534336 -7.559147265837296 4 0 0
627 193 2 0 -3.575655481827499 -0.8879192915172966 -7.670188647001799 4 0 0
629 193 4 0 -3.15271645792856 -0.7144005123071757 -7.7800753315116165 4 0 0
686 212 4 0 -2.7750091202321023 -0.652426316826566 -7.852140972815911 3 0 1
684 212 2 0 -2.3414281907878367 -0.6907052971519381 -7.915672103326986 3 0 1
685 212 4 0 -1.9154247892978704 -0.7280887981651532 -7.994546865975068 3 0 1
341 97 4 0 -1.510241846506145 -0.792563705997912 -7.898430154089048 -1 -1 0
339 97 2 0 -1.073576454542298 -0.8067945074600935 -7.9095396880239015 -1 -1 0
340 97 4 0 -0.6370776825773907 -0.8352389558262923 -7.928891311359422 -1 -1 0
556 169 4 0 -0.23581011872847135 -0.8507155822867558 -7.906089424112966 8 1 0
166 39 4 0 -7.647321013321676 -8.006402717881029 -6.828253735188297 7 1 0
165 39 2 0 -8.03930923881207 -8.048594393695964 -7.010201222775914 7 1 0
689 213 4 0 -7.2923797271270026 -7.973708931414442 -6.620677005792146 7 1 0
72 15 3 0 -3.5097054514231987 -7.577924422036568 -6.768880253250398 3 0 1
384 112 2 0 -2.9995014764697636 -7.117848847018938 -7.340867884962357 2 0 0
385 112 4 0 -2.718893020094291 -7.0428072011637495 -6.952160479274673 2 0 0
1093 348 4 0 -2.5144704156896154 -7.012516284842461 -6.600325136587102 2 0 1
375 109 2 0 -2.9161479019928427 -6.282194170759332 -6.651572140993964 3 0 2
377 109 4 0 -2.6299757697818684 -6.0103133299354 -6.861681453820914 3 0 2
713 221 4 0 -2.3354779139293393 -5.822249568626703 -7.055862437478336 7 1 1
711 221 2 0 -1.9634311253774799 -5.615229345866538 -7.238681337075765 7 1 1
760 237 4 0 -3.837087565181114 -5.105049180838871 -6.866353864738395 7 1 1
759 237 2 0 -3.7120818375945372 -4.735407871593189 -7.123489935918363 7 1 1
623 191 4 0 -2.4991085839036975 -3.993598318331543 -7.31074049822526 8 1 0
1483 478 4 0 -7.663868623695516 -3.4563077343953585 -7.106206837043054 9 1 0
79 16 3 0 -7.2999582237364855 -3.3119391228710544 -7.110427389722657 4 0 1
76 16 1 0 -6.843000084668878 -3.231124235517739 -7.18616199762587 4 0 1
77 16 3 0 -6.645023491504521 -3.1632034086997276 -6.804323772669564 4 0 1
964 305 4 0 -6.296730481701788 -3.1424160450789564 -6.6107894146532455 -1 -1 0
963 305 2 0 -5.90485550845108 -3.051127100221076 -6.435235469150797 -1 -1 0
490 147 4 0 -3.2458396870837296 -2.8210012621133753 -6.876770127096375 3 0 1
489 147 2 0 -2.805812671952725 -2.7629170544076818 -6.963129606207562 3 0 1
84 17 3 0 -3.640429374817331 -2.7621764437657674 -6.9664857913567895 4 0 1
491 147 4 0 -2.380464041850858 -2.7088618785252754 -7.043063692816029 3 0 1
1157 369 4 0 -1.9871441893569575 -2.731532559767074 -6.964419239554706 -2 -1 1
1155 369 2 0 -1.5530827675206256 -2.5507680655806366 -6.912079339305771 -2 -1 1
1156 369 4 0 -1.1391525187607572 -2.3733456483967217 -6.870482157429078 -2 -1 1
1358 436 4 0 -0.8634961392674212 -2.6092899769264086 -7.06989881076677 4 0 1
1356 436 2 0 -0.4661340891026642 -2.50542248640037 -6.844745220967954 4 0 1
1357 436 4 0 -0.09055333901486229 -2.4112818550051385 -6.638361235859832 4 0 1
1454 468 4 0 -6.405663950225875 -1.7233251652077994 -7.333488137962996 9 1 1
687 213 2 0 -6.936940878187237 -7.806559158507394 -6.410287045167464 7 1 0
688 213 4 0 -6.596350895940931 -7.636454278297821 -6.210425518317123 7 1 0
263 71 4 0 -6.293966797971771 -7.448982696986647 -6.3718560289200115 3 0 1
261 71 2 0 -5.840267311840332 -7.48127402813562 -6.322518626567697 3 0 1
262 71 4 0 -5.375941587136654 -7.524741107972 -6.273326212795056 3 0 1
862 271 4 0 -4.989587602252126 -7.663965899134706 -6.302592048507328 3 0 1
861 271 2 0 -4.5291534846153025 -7.6551817348826035 -6.2688192297800365 3 0 1
863 271 4 0 -4.0634306828414415 -7.649098295486428 -6.2391820257333315 3 0 1
74 15 3 0 -3.7452307376441123 -7.52815974539137 -6.046477258406052 3 0 1
71 15 1 0 -3.392890007836879 -7.427839743904271 -6.338777819175309 3 0 1
75 15 3 0 -3.0197320209720937 -7.628084673782764 -6.202083323068305 3 0 1
1381 444 4 0 -2.7121283356037704 -7.830616596429724 -6.333153375802119 8 1 1
1380 444 2 0 -2.3294588983152575 -8.108960807581365 -6.423776785683209 8 1 1
376 109 4 0 -3.2149942326581558 -6.563221318709236 -6.426497072208739 3 0 2
73 15 3 0 -3.31594114924244 -6.96339513072886 -6.343392825733195 3 0 1
1092 348 2 0 -2.3255012328062064 -7.0391324946079425 -6.136282373365944 2 0 1
1094 348 4 0 -2.159056929370828 -7.050340478971337 -5.7309566403598895 2 0 1
965 305 4 0 -5.479127461652086 -2.9361716386247583 -6.2501913735533945 -1 -1 0
446 132 4 0 -5.203151530123524 -2.7416554887238043 -5.999405601988676 -1 -1 1
444 132 2 0 -4.841359342683695 -2.6023571456990346 -5.781452909602224 -1 -1 1
445 132 4 0 -4.4871523225756995 -2.4601986034100474 -5.570774056656477 -1 -1 1
406 119 4 0 -2.7828523770172993 -7.402567748514952 -4.636298985249453 2 0 1
494 148 4 0 -0.3645356625588656 -7.506283794034879 -4.669798697772325 7 1 0
407 119 4 0 -2.2332499294823487 -7.231114493323299 -5.353001275220894 2 0 1
405 119 2 0 -2.5223622164374433 -7.31769280341543 -4.9770758112404305 2 0 1
826 259 4 0 -0.16505034592241152 -7.219934864874255 -4.830664234570774 7 1 0
882 278 2 0 -8.10722064846002 -4.000487436660154 -5.3513716228051305 4 0 0
883 278 4 0 -7.794989641956392 -4.26698704814424 -5.154952080686109 4 0 0
1450 467 4 0 -7.799302338280461 -4.238371927030555 -4.747284065515397 8 1 0
536 162 4 0 -4.205011283122842 -2.5812394703852677 -5.30023636363989 4 0 1
534 162 2 0 -3.845005005354513 -2.528140973366858 -5.05003084012134 4 0 1
535 162 4 0 -3.46880800939903 -2.479129960124067 -4.804270402741949 4 0 1
1076 342 4 0 -3.103172690472144 -2.2624691117167917 -4.820437595302167 5 0 0
1074 342 2 0 -2.6833961773096062 -2.1059373595448454 -4.657958881348543 5 0 0
43 9 3 0 -3.2443321685873485 -7.8514167963751955 -3.7080340903277733 7 1 0
41 9 1 0 -2.8613487277917926 -7.595201729701211 -3.804505915927731 7 1 0
44 9 3 0 -2.8488978305822217 -7.506154446160973 -4.252762389053624 7 1 0
45 9 3 0 -2.498918326484141 -7.834936028172094 -3.690628517769575 7 1 0
492 148 2 0 -0.5216078993861375 -7.817134718712334 -4.359493712618086 7 1 0
493 148 4 0 -0.6692716050218657 -8.106011130951256 -4.0698549979277425 7 1 0
1451 467 4 0 -7.808431109545902 -4.642929419787822 -3.921130904109778 8 1 0
1449 467 2 0 -7.806266745441299 -4.441065231719268 -4.341924106116454 8 1 0
1075 342 4 0 -2.263626706797578 -1.9601297504389636 -4.500107339597945 5 0 0
1090 347 4 0 -1.9988141759774072 -2.0076498209638025 -4.212224176993405 5 0 0
1089 347 2 0 -1.5681798210691307 -1.8759405608233504 -4.063832107552643 5 0 0
1091 347 4 0 -1.125094380412449 -1.7348834674235416 -3.9147631158708105 5 0 0
520 157 4 0 -0.7544408605864623 -1.6396797927867652 -3.821586438319372 4 0 0
1541 497 4 0 -6.2164164399594455 -7.710506927092816 -2.9756430503018176 7 1 0
1087 346 4 0 -5.782031319949409 -7.735827698861934 -3.026122802224121 8 1 0
1086 346 2 0 -5.374052728302497 -7.844829384071162 -3.17702271683274 8 1 0
1088 346 4 0 -4.932029017858521 -7.962394179268181 -3.3184668098397356 8 1 0
1050 334 2 0 -4.06692061319432 -7.950720791839778 -3.4782945394240876 8 1 0
1052 334 4 0 -4.521930664397765 -7.989299201164283 -3.3189792570899836 8 1 0
1051 334 4 0 -3.6347740273624476 -7.913313730537625 -3.628224277712576 8 1 0
1072 341 4 0 -2.0973068937738706 -7.956005251439033 -3.6668756999079255 3 0 1
1071 341 2 0 -1.607650002973676 -8.03223805801422 -3.5566118403588813 3 0 1
1073 341 4 0 -1.157039061249785 -8.10120998375828 -3.4498474976955054 3 0 1
52 11 3 0 -0.7787492509560066 -8.183361299837468 -3.2873658009193356 7 1 0
42 9 3 0 -2.853034286079698 -7.196694484382201 -3.5703028784049096 7 1 0
251 67 4 0 -8.116578367909097 -4.517564324892826 -3.6717183978224206 4 0 0
519 157 2 0 -0.3915166400400105 -1.4848333598960144 -3.583724892665593 4 0 0
521 157 4 0 -0.03087714314324863 -1.3379749387921134 -3.346656508404564 4 0 0
1426 459 4 0 -4.457545405685503 -0.0834801159817129 -2.762075135444869 5 0 1
1528 493 4 0 -2.0797478442721733 -0.26476451558713165 -2.85297881870134 5 0 1
1539 497 2 0 -6.620542369962773 -7.698101166976866 -2.742638728293155 7 1 0
9 2 3 0 -7.210553229136599 -7.370352996936378 -2.3340159175789967 2 0 0
1540 497 4 0 -7.0168510540579465 -7.6931841503108265 -2.507150461415491 7 1 0
7 2 3 0 -7.87724637109625 -7.092914874700603 -2.4126020642935835 2 0 0
6 2 1 0 -7.539281345886752 -7.153700728775633 -2.1350198981916666 2 0 0
10 2 3 0 -7.3760217463774564 -6.742669648488264 -1.9855802543678012 2 0 0
1000 317 4 0 -8.261625669026172 -7.010489644852385 -2.3939987178555535 3 0 0
785 245 4 0 -7.322946946817459 -6.356650507783546 -2.1367539942039135 7 1 0
783 245 2 0 -7.111810651796157 -5.978301734919774 -1.9605176426004638 7 1 0
1425 459 2 0 -4.032393262617988 -0.03717457166110627 -2.673185535378284 5 0 1
754 235 4 0 -3.3534266260051737 -0.30739619861624234 -2.5902922008392597 10 1 1
753 235 2 0 -2.8782315240116736 -0.24432220867612386 -2.6495412381745247 10 1 1
755 235 4 0 -2.4535379161279716 -0.1918425249260256 -2.699963530147297 10 1 1
1527 493 2 0 -1.6912792802995211 -0.07375384603613533 -2.692354281674957 5 0 1
8 2 3 0 -7.687327396426205 -7.392340398000282 -1.7880379682517127 2 0 0
632 194 4 0 -7.960436716760673 -7.169420854195787 -1.6477366157520716 2 0 0
630 194 2 0 -8.208404682230464 -7.094596188236087 -1.2620180127786025 2 0 0
784 245 4 0 -6.89896373762379 -5.599662549163105 -1.792951464504542 7 1 0
817 256 4 0 -7.524577692795591 -3.976894447682106 -0.9261721745364424 7 1 0
354 102 2 0 -8.073292400742904 -6.849683073811637 -0.20235073308573348 1 0 0
816 256 2 0 -7.543480824500911 -4.171469046002921 -0.5376497970050576 7 1 0
818 256 4 0 -7.561634884678136 -4.3980949072568425 -0.11503923017675 7 1 0
634 195 4 0 -7.982025206531035 -3.126299659188822 -0.345542399725284 7 1 1
652 201 4 0 -7.623633497829104 -3.1656332635894913 -0.16492591634471587 9 1 0
651 201 2 0 -7.172676219728401 -3.2097342670364846 -0.11151846579350355 9 1 0
653 201 4 0 -6.723591331995127 -3.255686911852214 -0.060683312681380386 9 1 0
845 265 4 0 -6.567729771896896 -3.4567842861303912 -0.39563235340923875 3 0 0
844 265 4 0 -5.7305794930013825 -3.1220480935308856 -0.6116970818431211 3 0 0
843 265 2 0 -6.141136923948746 -3.285572132656224 -0.5058611297711879 3 0 0
745 232 4 0 -4.6135905188437665 -3.225134925624701 -0.34864106993349697 8 1 1
744 232 2 0 -5.00846874726626 -3.0523413251101257 -0.4762701617215228 8 1 1
746 232 4 0 -5.417305271032472 -2.871813125475848 -0.6197568560502598 8 1 1
1448 466 4 0 -7.46267027354113 -6.972716438774598 0.4135357924017171 7 1 0
356 102 4 0 -7.76020153135499 -6.886593007344339 0.13934413596008532 1 0 0
1446 466 2 0 -7.213216660970713 -6.679359755823733 0.6263754684466534 7 1 0
1064 338 4 0 -6.571406751897763 -6.4506785168712595 0.8716598670165521 7 1 0
1447 466 4 0 -6.959721853736039 -6.376590924518945 0.8438066442054559 7 1 0
791 247 4 0 -7.14811209338894 -4.465140393164278 0.9145890426334837 3 0 1
789 247 2 0 -7.177565438159692 -4.3835039941327745 0.47978718767839723 3 0 1
790 247 4 0 -7.205952187755413 -4.2976394393325155 0.02421059754663979 3 0 1
1239 397 2 0 -1.894001376057635 -0.30075190546774433 0.7948754686580237 7 0 0
912 288 2 0 -0.934098496525575 -0.9177061678640213 0.7296704018584901 7 0 0
913 288 4 0 -1.2375796199463185 -0.6706457007776905 0.52656243840112 7 0 0
1240 397 4 0 -1.5934019506603985 -0.6516052623888475 0.6797147938601125 7 0 0
1062 338 2 0 -6.222111841521844 -6.532337466695531 1.1389047275454516 7 1 0
1063 338 4 0 -5.868697244711912 -6.61726832663745 1.417277352514219 7 1 0
1222 391 4 0 -5.707176052483845 -6.367404580851662 1.7282351223444383 2 0 0
504 152 2 0 -7.601077082077424 -4.453932457812425 1.5688938740857417 3 0 0
505 152 4 0 -7.311330556189866 -4.578113088873099 1.251574829824687 3 0 0
914 288 4 0 -0.6296191967512978 -1.1692853136930585 0.9295269481135442 7 0 0
395 115 4 0 -5.450070246448924 -0.2107600099749618 1.7960656815122604 0 -1 0
1544 498 4 0 -3.7692548352018376 -0.20947591537543886 1.1705715551049973 5 0 0
1360 437 4 0 -3.370958222140797 -0.2629759303380208 1.1978512950816924 6 0 0
1359 437 2 0 -2.9544484266909494 -0.21379533449594312 1.113867567768553 6 0 0
1361 437 4 0 -2.523993874141108 -0.16268521742570385 1.017334662635605 6 0 0
625 192 4 0 -2.6125514051355214 -8.140369369314735 1.987706894128987 12 2 0
1221 391 2 0 -5.358269564632868 -6.249748938230208 1.988525737412358 2 0 0
1223 391 4 0 -5.017915186563181 -6.130016363585081 2.2463736626886703 2 0 0
610 187 4 0 -4.654545408747466 -5.969555858039347 2.3417055009783265 2 0 -1
609 187 2 0 -4.3445993021033775 -5.912049950103647 2.640606760096846 2 0 -1
1017 323 2 0 -0.2697765201845703 -5.616481581744059 2.50939512793855 -2 -1 0
1018 323 4 0 -0.0024094965326497686 -5.6227563872768105 2.1341730965474763 -2 -1 0
506 152 4 0 -7.876548237621115 -4.34420645713498 1.8847675700260282 3 0 0
1036 329 4 0 -6.063549954401855 -0.27478528488369847 2.6131389186923233 1 -1 0
1035 329 2 0 -5.751478393751763 -0.3985796554370502 2.331528120140609 1 -1 0
1037 329 4 0 -5.420311180946781 -0.5375700529931304 2.0344558433172057 1 -1 0
1342 431 4 0 -2.902781265243217 -7.75020498731368 3.5363815638508367 2 0 -1
1341 431 2 0 -2.6186982502586442 -7.450987627429951 3.56679680682816 2 0 -1
1343 431 4 0 -2.31293563676339 -7.116027776859553 3.601985490477409 2 0 -1
611 187 4 0 -4.02143574751841 -5.8600238105411275 2.960328107617615 2 0 -1
829 260 4 0 -3.6703946698589247 -5.665616880095485 2.898937909817759 2 0 0
297 83 2 0 -1.050794900821936 -5.752374236686699 3.5704721355817597 7 1 0
1019 323 4 0 -0.5479469402851276 -5.616017051286848 2.8983225680318316 -2 -1 0
298 83 4 0 -0.8417086469448343 -5.6076351630606345 3.1839669343563717 7 1 0
828 260 2 0 -3.2636087817262878 -5.4594610082708375 2.938014050816097 2 0 0
830 260 4 0 -2.848093470742139 -5.257063849343326 2.961863323238207 2 0 0
1471 474 4 0 -2.459774751709058 -5.1876040793439255 3.023670322064147 2 0 0
1470 474 2 0 -2.0663318552477676 -4.970893798918482 3.1584569085568592 2 0 0
1472 474 4 0 -1.6940496454780396 -4.763859264522125 3.2812864544850804 2 0 0
727 226 4 0 -1.417413785251414 -4.605885348403616 3.539965192537254 7 1 0
726 226 2 0 -0.9590609799973793 -4.461296885989353 3.6684696512417307 7 1 0
774 242 2 0 -6.3675852184787995 -0.1376512044008713 3.2593811414765543 6 0 0
775 242 4 0 -6.0229416188657545 -0.3075013622674483 3.0164353593975015 6 0 0
663 205 2 0 -0.9796142506618812 -7.808995338878669 4.5652730329375295 3 0 0
715 222 4 0 -0.25259105912485325 -8.060481585859893 4.341735295452258 8 1 0
665 205 4 0 -0.6429760036249936 -7.998065880431121 4.330473046686796 3 0 0
319 90 4 0 -1.9134467850479364 -7.128072285499815 3.6865315537468124 1 0 0
318 90 2 0 -1.5086984779481192 -7.095838576393502 3.6907976277457823 1 0 0
320 90 4 0 -1.0486178208085528 -7.066694134144024 3.699458899024986 1 0 0
194 48 4 0 -0.6649834282438158 -6.930294392000986 3.810854827322199 1 0 -1
192 48 2 0 -0.47890516246775405 -6.612183675183082 4.050874828054402 1 0 -1
299 83 4 0 -1.2791806094378568 -5.896214527962114 3.95810398346336 7 1 0
575 175 4 0 -1.427308724645716 -5.976724482646612 4.3137431322333 7 1 0
193 48 4 0 -0.28756939032212614 -6.279900743987188 4.31107170248713 1 0 -1
331 94 4 0 -0.3370690164827135 -5.938668002401769 4.468118760282136 7 1 0
330 94 2 0 -0.1555580630904725 -5.5511915419540685 4.434412333843488 7 1 0
728 226 4 0 -0.5556829121769766 -4.337165298107124 3.7803135191208117 7 1 0
108 22 3 0 -0.16375530626423362 -4.458004228696945 3.748181799499184 7 1 0
1297 416 4 0 -7.419731337826754 -0.10722341002783331 4.303057868543801 12 1 -1
1305 419 2 0 -6.7901411901075654 -0.5426870832068547 4.179545204528003 6 0 0
1306 419 4 0 -7.224838165204664 -0.4605142190049065 4.2168710372806135 6 0 0
1307 419 4 0 -6.352311462061164 -0.6252537695670988 4.13681266348577 6 0 0
279 77 2 0 -5.581783655100258 -0.3387634194672522 3.9840483507256597 6 0 -1
280 77 4 0 -5.969897221209355 -0.4959170491284963 4.194523570503302 6 0 -1
281 77 4 0 -5.199578597294932 -0.18041387069085602 3.782571052769434 6 0 -1
173 41 4 0 -4.913752444115069 -0.14503239114699795 4.093631209954019 6 0 0
664 205 4 0 -1.3062023573208155 -7.625166879737178 4.800768956162845 3 0 0
1081 344 4 0 -1.5455259148429903 -7.425654767949763 5.064117845982814 8 1 1
1080 344 2 0 -1.6951407793868638 -7.111057665025416 5.3886515776586545 8 1 1
1207 386 4 0 -0.7727918232859441 -6.4766934215991565 5.228241676005675 4 0 0
573 175 2 0 -1.2199467105379593 -6.087479551100152 4.67407105503832 7 1 0
574 175 4 0 -1.0045267868074221 -6.202123894696506 5.062982010316675 7 1 0
1312 421 4 0 -8.002167328513831 -3.106086588262829 5.445677342668924 8 1 -1
1488 480 2 0 -3.574956735335891 -0.787898089978035 5.508107270426704 6 0 0
1489 480 4 0 -3.2253877798009105 -0.5003217297000635 5.311030143738586 6 0 0
1198 383 4 0 -2.866792958189234 -0.376770589642633 5.154923262366532 5 0 -1
1197 383 2 0 -2.4443999500389824 -0.21062389559049066 5.001023488267304 5 0 -1
1199 383 4 0 -2.0378428382285962 -0.05235725403704983 4.845516046408317 5 0 -1
527 159 4 0 -1.9281964697237157 -6.493634677311532 5.903449921768873 8 1 -1
1082 344 4 0 -1.833133913718302 -6.829100896833467 5.6973130125878715 8 1 1
709 220 4 0 -0.9490840468339741 -7.09789320473359 6.206856289201125 3 0 0
1206 386 2 0 -0.7922412383703046 -6.622551881689243 5.641939597433366 4 0 0
1208 386 4 0 -0.8068106168693898 -6.76638463618781 6.076136918274541 4 0 0
525 159 2 0 -1.7181537685671655 -6.092776639598257 6.01463699530281 8 1 -1
526 159 4 0 -1.5078362211239211 -5.690785130396784 6.125986649554385 8 1 -1
836 262 4 0 -1.1140891625226494 -5.586546123266958 6.1672293300271885 2 0 0
834 262 2 0 -0.7629553391010688 -5.400445801449791 6.42165004110983 2 0 0
1311 421 2 0 -7.599627187333534 -3.052698266497325 5.674578338845652 8 1 -1
1313 421 4 0 -7.21614131249637 -3.0108666988386403 5.898657374162434 8 1 -1
500 150 4 0 -7.061158130452214 -3.3098786668674007 6.105181502863717 8 1 0
498 150 2 0 -6.655372692147816 -3.394652150175963 6.272886374046488 8 1 0
1069 340 4 0 -5.952813208566061 -3.6403268897248307 6.210632952616118 4 0 0
1068 340 2 0 -5.574951931652796 -3.464087160418673 6.368175800662668 4 0 0
1192 381 4 0 -1.4923341560679342 -2.7951562813032353 6.2918422994008 9 1 -1
363 105 2 0 -2.8931459971255444 -2.1761334541190056 6.155155892142647 3 0 0
364 105 4 0 -3.2908751061354478 -2.269637290622196 6.317702530501263 3 0 0
365 105 4 0 -2.4800312512744584 -2.079785492285837 5.994515328840615 3 0 0
1193 381 4 0 -2.222359802521926 -2.3932745704526663 5.952381645818795 9 1 -1
1191 381 2 0 -1.8612619288523353 -2.5899033859429945 6.118413410610314 9 1 -1
1238 396 4 0 -5.25129651741487 -1.69997550826709 6.179851825880734 4 0 0
1433 461 4 0 -4.899372290878257 -1.5932051375445635 6.119958976232962 4 0 0
1431 461 2 0 -4.5914343332514855 -1.364029073715293 5.866815711478154 4 0 0
1490 480 4 0 -3.8949800543343533 -1.0484556684006394 5.69147671256132 6 0 0
1432 461 4 0 -4.279516089813685 -1.1275237832224088 5.619213304509472 4 0 0
140 30 4 0 -1.8470757652627734 -1.1307693035320971 6.250540849535449 -1 -1 -1
138 30 2 0 -1.4067837358405422 -0.9779178187993125 6.135774417245527 -1 -1 -1
139 30 4 0 -0.9862422473410559 -0.8297395253628572 6.021649331496301 -1 -1 -1
242 64 4 0 -0.6089385627731785 -0.7744460865651952 6.128347574123049 3 0 -1
240 64 2 0 -0.4493688804504661 -0.3737650834811239 6.292742691712357 3 0 -1
310 87 4 0 -3.072721727680002 -7.6998156122172405 7.284481788056512 7 1 0
455 135 4 0 -2.83910006963442 -7.484443984637586 7.038558028673082 2 0 0
453 135 2 0 -2.3934222447142757 -7.520725917217142 6.931924839866566 2 0 0
454 135 4 0 -1.9822241182420806 -7.560170079966108 6.827145256480177 2 0 0
710 220 4 0 -1.6399066342650999 -7.424480715453621 6.66434420648395 3 0 0
708 220 2 0 -1.2964148726342106 -7.259287658402688 6.440498864424795 3 0 0
1102 351 4 0 -7.008756243780604 -4.600663732779225 7.198132772672935 3 0 0
1309 420 4 0 -6.6244709761550435 -4.61312758926406 7.195697998894413 4 0 0
1308 420 2 0 -6.194647768114868 -4.694025763227631 7.068693202720096 4 0 0
1310 420 4 0 -5.75521084601111 -4.776724210185421 6.951718491109466 4 0 0
982 311 4 0 -5.358876509765794 -4.716568947336687 6.8739201041078974 -1 -1 -1
981 311 2 0 -4.920922709634809 -4.744928410031462 6.93544303116702 -1 -1 -1
983 311 4 0 -4.4841212667939185 -4.776058583332215 7.004715909183236 -1 -1 -1
835 262 4 0 -0.3814674018393216 -5.203093820963012 6.681543695208804 2 0 0
413 121 4 0 -8.066673143145957 -4.218022630140553 7.323960432665725 3 0 0
467 139 4 0 -4.248365558386059 -4.453498412606603 7.0279248220178445 4 0 0
465 139 2 0 -3.8014344009329495 -4.2801038969449055 7.0375461611442525 4 0 0
466 139 4 0 -3.3766743540412563 -4.117334958609864 7.055256193385274 4 0 0
1506 486 2 0 -2.8443387542506207 -3.7404912510217256 7.191953913483767 4 0 -1
608 186 4 0 -1.039865318305531 -3.7216097546961446 6.603487932265692 3 0 0
606 186 2 0 -0.615879631318708 -3.755775066928612 6.740020753775342 3 0 0
607 186 4 0 -0.16995828197889296 -3.8018669312861144 6.891877995598618 3 0 0
499 150 4 0 -6.240724576382185 -3.491598207076456 6.448179034636457 8 1 0
1070 340 4 0 -5.194970138795093 -3.271572579628309 6.531911961514746 4 0 0
1508 486 4 0 -2.4666795003506063 -3.5512948102155075 7.002509905415023 4 0 -1
120 24 3 0 -2.082913907658744 -3.4642650956417613 6.92556903303449 4 0 0
118 24 3 0 -1.6358505686081681 -3.012565382654147 6.596188696618965 4 0 0
119 24 3 0 -1.39442478341308 -3.6384709262149695 6.819464959517216 4 0 0
116 24 1 0 -1.6585757970200516 -3.319475383318414 6.90957235977015 4 0 0
117 24 3 0 -1.5387362784600054 -3.1408582337782534 7.325206993152802 4 0 0
1236 396 2 0 -5.519159816894632 -1.963691032237156 6.435176956895086 4 0 0
483 145 2 0 -6.3297922120668595 -2.5734736837080527 7.164184778258209 8 1 -1
484 145 4 0 -6.143110726961222 -2.3612043513029644 6.79353909059836 8 1 -1
1237 396 4 0 -5.78219466691321 -2.2322204653331763 6.688644538260059 4 0 0
771 241 2 0 -3.39646611186698 -2.64097704386349 7.07488495162537 9 1 -1
772 241 4 0 -3.3493651139744003 -2.4432787143809485 6.684869303789188 9 1 -1
1187 379 4 0 -8.141482841524148 -1.10003995286975 7.088738311553874 5 0 -1
1411 454 4 0 -7.810016637505054 -0.9294587940233248 7.226815441545741 6 0 0
17 4 3 0 -3.942425389945022 -1.318350843929716 7.310479004517589 -1 -1 -1
16 4 1 0 -3.5090301110756403 -1.482194000080571 7.246853448425901 -1 -1 -1
18 4 3 0 -3.397895701733182 -1.4369596339262376 6.79927630405343 -1 -1 -1
1016 322 4 0 -3.0708800798626443 -1.2509053473593248 6.693328681575899 -1 -1 -1
1015 322 4 0 -2.177789308779497 -1.0510069482656572 6.4544852318173245 -1 -1 -1
1014 322 2 0 -2.6202331045041634 -1.1508128738139867 6.574658493915125 -1 -1 -1
1337 429 4 0 -0.9686401360581023 -1.399778405164282 6.958963712103047 4 0 -1
1335 429 2 0 -1.338112260534956 -1.4315028307283963 7.250463714405541 4 0 -1
1201 384 4 0 -0.5892342308558884 -1.4939022782546951 6.8450031906688995 4 0 -1
1200 384 2 0 -0.1555326631291969 -1.434646080788645 6.859138705525956 4 0 -1
1410 454 2 0 -7.353829174198077 -0.8595166748199352 7.25516140265823 6 0 0
1412 454 4 0 -6.902690643479774 -0.781713921222285 7.281947590224506 6 0 0
1211 387 4 0 -6.5136444793074695 -0.7431908105995326 7.28913386044322 11 1 -1
1209 387 2 0 -6.0914521177686165 -0.6615576057605246 7.213494606338545 11 1 -1
1210 387 4 0 -5.649967812179993 -0.5833294949900072 7.131382799375128 11 1 -1
295 82 4 0 -5.2970441027610295 -0.40041809818012997 7.065956358703696 5 0 -1
294 82 2 0 -4.879793865061393 -0.2689912663726357 7.0548310555158675 5 0 -1
701 217 4 0 -4.047657299622419 -0.14210488032844282 7.0510318663057685 5 0 -1
296 82 4 0 -4.44853617836477 -0.1400187772660555 7.046443973278992 5 0 -1
700 217 4 0 -3.093378879395635 -0.07600817080522759 7.126254474081202 5 0 -1
699 217 2 0 -3.578918771836614 -0.10980143140084664 7.09111621982057 5 0 -1
859 270 4 0 -2.7311189398022924 -0.2656282903259317 7.2166583925051295 5 0 -1
1280 410 4 0 -0.6842240056596118 -0.4294520314764867 7.293589240067858 5 0 0
241 64 4 0 -0.2957869970098299 -0.00018417991581110016 6.44174671551608 3 0 -1
311 87 4 0 -3.8801454277022964 -7.48209501421975 7.606654891525926 7 1 0
309 87 2 0 -3.466527205937579 -7.585433696158183 7.441649917909029 7 1 0
910 287 4 0 -0.09317146529309461 -7.864275644589977 7.489261527559636 4 0 -1
909 287 2 0 -0.10422279481099395 -7.417805402668224 7.6223952884698 4 0 -1
26 6 1 0 -3.871652600020939 -6.952973979228627 8.252679303044049 2 0 -1
28 6 3 0 -3.9722044049470435 -7.253032155748106 7.9235959751243765 2 0 -1
27 6 3 0 -3.6871205490678722 -6.5881164237529255 8.076277293020533 2 0 -1
732 228 2 0 -2.967692524508358 -6.434248254130447 7.83853829216269 7 1 -1
733 228 4 0 -2.5051492762307346 -6.458410055331668 7.839984312245056 7 1 -1
1249 400 4 0 -2.242840192996458 -6.568457595773303 8.114927707706586 7 1 -1
1345 432 4 0 -0.4431583141169275 -6.8007561378204375 7.677745420116837 8 1 0
911 287 4 0 -0.1130501173388545 -6.972054114915486 7.754951813236515 4 0 -1
1344 432 2 0 -0.46924299030641325 -6.443576528627394 7.994004364126345 8 1 0
734 228 4 0 -3.4113415461461827 -6.419840210558931 7.845080997965352 7 1 -1
1101 351 2 0 -7.373574488426636 -4.367048261782836 7.380247662001313 3 0 0
1103 351 4 0 -7.727813195332126 -4.154405085431964 7.536154200149328 3 0 0
1507 486 4 0 -3.2192464623707524 -3.9481492813747217 7.376888919168325 4 0 -1