LAMMPS data file via write_data, version 19 Nov 2024, timestep = 1000000, units = lj

79 atoms
4 atom types
54 bonds
1 bond types

-3.045986 3.045986 xlo xhi
-3.045986 3.045986 ylo yhi
-3.045986 3.045986 zlo zhi

Masses

1 1
2 1
3 0.1
4 0.1

Bond Coeffs # zero

1 0

Atoms # bond

34 10 4 -0.21437097293985297 -2.246536731602075 -3.004626543459434 0 0 1
16 4 4 -0.11876224623313443 -1.8898175722119612 -2.8800837644570993 0 0 1
46 14 4 -0.8093740349913486 -1.1313308763231724 -1.6547482813989474 0 0 1
44 14 2 -0.36637374215116475 -0.943022994175818 -1.7899920689262303 0 0 1
53 17 2 -1.2653443975283418 -0.17329088198388148 -1.650235978394685 0 0 1
36 11 4 -1.3406683626652935 -1.2910843714599922 -0.21281322137567393 0 1 1
35 11 2 -1.3258994512160658 -0.9483118557438526 -0.5765286069787983 0 1 1
37 11 4 -1.3111305397668378 -0.6055393400277127 -0.940243992581923 0 1 1
55 17 4 -1.1120926573301262 -0.4105120077048942 -1.2376344252737281 0 0 1
15 4 4 -0.0912647057965612 -2.1974914297605754 -1.928989298775082 0 0 1
14 4 2 -0.10501347601484774 -2.0436545009862686 -2.4045365316160905 0 0 1
27 8 4 -1.4950382809629208 -0.09496557351002799 -2.431439935267665 0 -1 1
5 1 3 -0.026892914568453385 -2.7506270762771985 -1.0256318034784695 0 0 1
72 23 4 -1.2938001490803892 -1.5779567663500877 0.048299704963527534 0 1 1
71 23 2 -1.441034631639913 -1.4246633176842387 0.500873594777714 0 1 1
73 23 4 -1.5882691141994372 -1.2713698690183897 0.9534474845919001 0 1 1
49 15 4 -1.3289512860413253 -1.3761836624156272 1.2176539724900792 0 0 0
12 3 4 -0.6863762242904801 -2.735045466211578 2.1757229143519567 0 0 0
33 10 4 -0.37108198544191906 -2.8960372442038973 2.343308668007386 0 0 0
32 10 2 -0.292726479190886 -2.571286987902986 2.7153270622739756 0 0 0
17 5 2 -0.5489197708026295 -0.7856310395383538 2.622689819064775 0 0 -1
48 15 4 -1.0547389814759387 -0.7157139476195701 1.9166442212506414 0 0 0
19 5 4 -0.9177894503272384 -0.7311758816316175 2.28956852688301 0 0 -1
47 15 2 -1.191845133758632 -1.0459488050175987 1.5671490968703603 0 0 0
18 5 4 -0.18005009127802085 -0.8400861974450902 2.9558111112465393 0 0 -1
28 8 4 -1.5970320056053826 0.7357145362003906 -2.978767840151825 0 -1 1
54 17 4 -1.4185961377265577 0.06393024373713121 -2.0628375315156418 0 0 1
26 8 2 -1.5460351432841517 0.32037448134518126 -2.705103887709745 0 -1 1
30 9 4 -1.693375463523929 1.8606332506098648 -1.201058678520735 0 -1 1
68 22 2 -2.9870159049431084 2.280445022487504 -2.535453819651287 1 0 1
70 22 4 -2.7089461075751724 1.8987957042649146 -2.699834431926957 1 0 1
31 9 4 -1.2734647219267217 2.3101390194791787 -1.9894871995956156 0 -1 1
29 9 2 -1.4834200927253252 2.0853861350445215 -1.595272939058175 0 -1 1
51 16 4 -1.548643584296869 1.1947925552930356 -0.2959887993027108 0 -1 1
52 16 4 -1.8669010136496034 1.4865878650507347 -1.1979686803781804 0 -1 1
50 16 2 -1.7077722989732362 1.3406902101718852 -0.7469787398404455 0 -1 1
40 12 4 -1.2847594733298064 1.0345051073528981 -0.05223850400560709 0 -1 1
65 21 2 -2.24139297686247 1.2483984743576813 -2.9685144765220293 1 -1 1
67 21 4 -2.5949305729230416 1.5503462741693 -2.7845615087274265 1 -1 1
13 3 4 -0.8246784416309801 2.627313675608612 1.505993436236767 0 -1 0
38 12 2 -1.2207159099550449 1.0826443257386196 0.4413007929541534 0 -1 1
39 12 4 -1.1566723465802828 1.1307835441243408 0.9348400899139139 0 -1 1
74 24 2 -0.9059025175101385 1.982318266336629 1.1273358402684794 1 0 0
76 24 4 -1.0833600911016381 1.5187611754016492 1.0671392206045927 1 0 0
75 24 4 -0.7284449439186389 2.4458753572716083 1.1875324599323664 1 0 0
66 21 4 -1.8878553808018976 0.9464506745460621 2.9395045556833685 1 -1 0
11 3 2 -0.7555273329607304 2.9921201046985173 1.8408581752943618 0 -1 0
63 20 4 0.8567892689011267 -2.614392705794616 -0.9546855440087016 1 0 1
1 1 1 0.22900931141771239 -2.733061203156576 -1.4019368537190904 0 0 1
4 1 3 0.1318610237158182 -2.3478143906738995 -1.6416181080304768 0 0 1
25 7 4 2.0280156167389887 -2.5142732751284096 -1.7267837648365576 0 0 1
64 20 4 1.7254369631062199 -2.496692583496506 -1.435931701980812 1 0 1
23 7 2 2.3644226330929357 -2.8193850961643396 -1.9359179227638517 0 0 1
42 13 4 0.09515675330092249 -0.37901586290079886 -2.0870500644008745 0 0 1
45 14 4 0.07662655068901919 -0.7547151120284634 -1.9252358564535133 0 0 1
41 13 2 0.3818812064147895 -0.02142820262641122 -2.28685034769893 0 0 1
62 20 2 1.2911131160036733 -2.555542644645561 -1.1953086229947567 1 0 1
3 1 3 0.6787587486332627 -2.7395432015063568 -1.2879920099505315 0 0 1
22 6 4 2.8120327078315093 -1.332192216909782 2.6272356468431743 0 0 0
21 6 4 2.844276609768736 -0.415966896533517 3.0265995073630916 0 0 0
79 25 4 2.4708368504053313 -0.31495505774669724 2.93399102401123 0 0 0
20 6 2 2.8281546588001225 -0.8740795567216496 2.826917577103133 0 0 0
43 13 4 0.6686056595286568 0.33615945764797645 -2.4866506309969854 0 0 1
9 2 3 1.0348718773834658 0.3271853984356854 -2.356211031928412 0 0 1
61 19 4 0.8463161733623858 1.2573390153458581 -2.69505838370959 0 -1 1
7 2 3 1.0667274538805893 0.9522260605325021 -2.7723953576441316 0 0 1
6 2 1 1.283951611691029 0.707488018867629 -2.449104534660355 0 0 1
8 2 3 1.3251496171063473 0.9671601808410953 -2.066778636183984 0 0 1
78 25 4 1.8417032643947604 0.4307754312094386 -2.93871636690874 0 0 1
10 2 3 1.6963909236866905 0.5895867666859915 -2.602052593342014 0 0 1
56 18 2 0.2386623256742065 2.62439711135592 -2.3698315766259705 0 -1 2
60 19 4 0.46771091728406644 2.1480760514325143 -2.9465451480007303 0 -1 1
59 19 2 0.6570135453232262 1.7027075333891863 -2.82080176585516 0 -1 1
57 18 4 0.46715408372646355 2.552282035362839 -2.808683410753131 0 -1 2
58 18 4 0.010170567621949372 2.6965121873490014 -1.9309797424988113 0 -1 2
2 1 3 0.13695855842180918 2.9929397839415115 -1.6649803417361704 0 -1 1
69 22 4 2.8268862976889553 2.662094340710094 -2.371073207375617 0 0 1
24 7 4 2.700829649446883 2.9674750827997305 -2.1450520806911455 0 -1 1
77 25 2 2.1562700574000457 0.057910186731370876 3.043623328551245 0 0 0

Velocities

34 -0.5977757053509747 -0.1968937537680796 0.3051515659987312
16 -0.42216219345296657 -0.3039397222164928 -0.1840222055668717
46 0.35787706578288714 -0.6023494396457102 0.596553873867253
44 -0.03272226274603772 -0.20701471688156653 -0.13243319711799678
53 0.11982277017325102 -0.29879961210651484 0.08536470550772221
36 -0.3064022121064546 0.699130072886324 -0.38395022529815415
35 0.08120970260883935 0.5465424031903023 -0.5120125927634054
37 0.46882161732413363 0.39395473349428045 -0.6400749602286567
55 -0.5411620583939252 -0.3546650509865723 0.2987536572858618
15 0.04073635764621977 -0.03156008739311289 -0.109291961725169
14 -0.19071291790337333 -0.16774990480480276 -0.14665708364602034
27 -0.4321497499682227 0.020570128716200675 -0.62294404418241
5 0.1474842263745118 0.18176969355377753 0.15117945216583717
72 1.1516133744895216 0.35972558883344574 0.01439122001700946
71 0.19634454973216678 -0.11601228914899421 -0.1352440388117683
73 -0.7589242750251876 -0.591750167131434 -0.2848792976405462
49 -0.12834556736309777 0.05688509847225298 -0.14516542409921954
12 -0.06624223428570786 0.11720811396393976 -0.4077738743545407
33 0.42099594684232144 0.26910408857970564 -0.316213642986801
32 -0.08838987925432654 0.03610516740581312 -0.005531038494034707
17 0.3205979217064021 0.2214928587350493 0.26923033734797025
48 0.597124858237665 -0.4044202332513269 0.006117492603641694
19 -0.04768528265995864 0.000649833255823018 0.6409341841146313
47 0.2343896454372837 -0.17376756738953703 -0.06952396574778891
18 0.6888811260727623 0.4423358842142754 -0.10247350941869066
28 -0.30854141168881266 0.4941983556363698 0.07284776413515714
54 0.780807598740427 -0.2429341732264573 -0.12802424627041745
26 -0.37034558082851765 0.25738424217628525 -0.27504814002362643
30 -0.7041823837000084 0.7097705190860243 0.23955051702498412
68 -0.0905522924739811 -0.11063091888018449 0.20960869700661214
70 -0.06516733509486583 0.09908416341196892 -0.23435380692179
31 0.455773837115012 -0.7698410855149165 0.013764830316589788
29 -0.12420427329249827 -0.030035283214446155 0.12665767367078715
51 -0.19888439721903342 -0.023063727240883458 0.30515718610866227
52 0.2563250736827266 0.5869525201579958 0.3418831536560481
50 0.02872033823184661 0.2819443964585561 0.3235201698823552
40 -0.2438457699175008 -0.49795310121012387 -0.10646171772177049
65 0.11529755717990514 -0.1605859493917571 0.1380349498079521
67 -0.12979302132608278 -0.8364485240389923 0.7763855285208889
13 0.5910066492560322 -0.5307521004030566 0.16239831983852712
38 0.16716420579511893 -0.03236174019863313 -0.2052091689048145
39 0.5781741815077386 0.4332296208128575 -0.3039566200878585
74 -0.35677770698631384 0.01496277186752762 0.18789659576364137
76 -0.6534699579030143 0.16337678923714008 -0.08035905189427237
75 -0.06008545606961352 -0.13345124550208481 0.4561522434215549
66 0.3603881356858933 0.5152766252554783 -0.500315628904985
11 0.26238220748516206 -0.20677199321955858 -0.12268777725800702
63 0.2605432023515412 0.2760593960465497 0.11978661967799825
1 -0.003353923270361583 0.05152691487781495 0.04252386448049543
4 0.3435365519912259 0.27663280805397367 0.26374063121410773
25 -0.1588004126902472 -0.3886709587213967 0.4841930495759812
64 0.17215781265160246 -0.39841186659099437 -0.2047065995952865
23 -0.052341574938797895 -0.017398139908319808 0.11377902135368571
42 -0.15055569719650952 0.7602457378219345 0.5124321241156692
45 -0.42332159127496227 0.18832000588257716 -0.8614202681032468
41 -0.06751978889862047 0.39936237493775556 -0.014288910674801274
62 0.21635050750157192 -0.0611762352722224 -0.042459989958644216
3 0.040942420708231564 -0.5333950026699332 -0.16559190359708548
22 0.04693020289007341 0.6035756497146937 -0.20262486177773248
21 -0.296477168920004 0.19616498855102973 0.7597876025603627
79 0.3310941522412367 0.07971091552830509 0.5119008406938704
20 -0.12477348301496524 0.3998703191328618 0.278581370391315
43 0.015516119399268585 0.0384790120535764 -0.541009945465272
9 -0.5797324751117545 0.46599124877215925 0.0244263890691371
61 -0.29982315124422765 0.334939146549294 0.45086550275047355
7 0.26804520793553765 0.5600162743412065 0.2305271616599938
6 0.08108544688291949 0.013079828622891837 -0.05789419574373786
8 0.9354018197411837 -0.21129590022517122 0.002441764077107382
78 -0.24235651595679247 -0.1622413222703957 -0.31060268799964064
10 -0.2881395876332792 -0.7372016271797258 -0.475184853956572
56 0.22917295308206473 0.25699368293758246 0.3097261916354696
60 -0.5610775898973082 0.016707711644572742 -0.28296326151459417
59 -0.43045037057076785 0.17582342909693335 0.08395112061793965
57 0.8296571261509154 0.013185298011542224 0.6624373632809286
58 -0.37131121998678507 0.5008020678636222 -0.04298498000998957
2 -0.5567200480592343 0.28132420316850976 -0.08354417901528004
69 -0.11593724985309643 -0.3203460011723378 0.6535712009350143
24 0.054117262812651584 0.3538746789047567 -0.25663500686860985
77 0.044368818142222016 -0.041265203371045354 0.10064907634711476

Bonds

1 1 44 45
2 1 44 46
3 1 53 54
4 1 53 55
5 1 35 36
6 1 35 37
7 1 14 15
8 1 14 16
9 1 71 72
10 1 71 73
11 1 32 33
12 1 32 34
13 1 17 18
14 1 17 19
15 1 47 48
16 1 47 49
17 1 26 27
18 1 26 28
19 1 68 69
20 1 68 70
21 1 29 30
22 1 29 31
23 1 50 51
24 1 50 52
25 1 65 66
26 1 65 67
27 1 38 39
28 1 38 40
29 1 74 75
30 1 74 76
31 1 11 12
32 1 11 13
33 1 1 2
34 1 1 3
35 1 1 4
36 1 1 5
37 1 23 24
38 1 23 25
39 1 41 42
40 1 41 43
41 1 62 63
42 1 62 64
43 1 20 21
44 1 20 22
45 1 6 7
46 1 6 8
47 1 6 9
48 1 6 10
49 1 56 57
50 1 56 58
51 1 59 60
52 1 59 61
53 1 77 78
54 1 77 79
