LAMMPS data file via write_data, version 19 Nov 2024, timestep = 100000, units = lj

79 atoms
4 atom types
54 bonds
1 bond types

-3.045986 3.045986 xlo xhi
-3.045986 3.045986 ylo yhi
-3.045986 3.045986 zlo zhi
-1.120259440767768e-11 0 0 xy xz yz

Masses

1 1
2 1
3 0.1
4 0.1

Bond Coeffs # zero

1 0

Atoms # bond

34 10 4 -2.7626429547074087 -2.7204950660288203 -1.2835782040072432 1 0 1
66 21 4 -2.6936464506453333 -2.8093268634042383 -0.8926992500927429 2 0 1
21 6 4 -1.3264257455214203 -1.5523635756768555 -0.8417773634304604 1 0 1
20 6 2 -1.1671459204115766 -1.9549290510974349 -0.6762852413097806 1 0 1
22 6 4 -1.007866095297151 -2.357494526526202 -0.5107931191901649 1 0 1
79 25 4 -1.556995440944683 -1.521855636055337 -1.1522702712281157 1 0 1
57 18 4 -2.1013981842688523 -0.6076924801458627 -1.3791990507013832 1 -1 2
56 18 2 -1.8328512574267641 -0.15500124818650685 -1.3140517995256937 1 -1 2
78 25 4 -2.02878987054315 -0.9929739700273266 -1.4100785867654062 1 0 1
77 25 2 -1.7928926557445692 -1.2574148030415693 -1.2811744289983555 1 0 1
59 19 2 -2.076181723080687 -2.726686009035591 2.2386703709317946 1 -1 0
60 19 4 -1.8433414825038539 -2.9085821565533236 1.8289751988378882 1 -1 0
61 19 4 -2.3090219636650082 -2.5447898615171662 2.648365543030807 1 -1 0
75 24 4 -2.129928878330066 -0.7084785159906115 1.839278373941851 2 0 0
72 23 4 -1.9902504540446928 -1.0536231545851948 2.0176958453462532 1 1 1
74 24 2 -2.5118500713379914 -0.37346855268152135 1.7364714181281702 2 0 0
76 24 4 -2.8937712643506357 -0.038458589369682716 1.6336644623123906 2 0 0
58 18 4 -1.5643043305783084 0.29768998377673883 -1.2489045483535395 1 -1 2
2 1 3 -1.6065447339175338 0.09714551281431216 -0.9062241472708732 1 -1 1
65 21 2 -2.9461069278854977 2.9954715387871946 -0.795671504233511 2 -1 1
38 12 2 -2.788979920799844 0.564397337502065 1.0951064923218237 1 -1 1
39 12 4 -2.760687507331236 0.2661089631398359 1.4309048519207526 1 -1 1
40 12 4 -2.817272334271272 0.862685711866956 0.7593081327226616 1 -1 1
51 16 4 -2.8470638526932803 1.1883875182623882 0.5131868170828842 1 -1 1
71 23 2 -0.9120106507797057 1.015508242224036 0.4383155915232253 0 0 1
73 23 4 -0.5877274064949551 1.1843392861543078 0.8336207408257543 0 0 1
13 3 4 -0.48417059673213725 1.2208058287880403 1.2263913529448986 1 -1 0
11 3 2 -0.14646251868047155 1.20675789392849 1.673047814496293 1 -1 0
4 1 3 1.0566521872915704 -2.1670256732898188 -1.9160903751191054 0 0 1
15 4 4 0.6926122579093494 -2.0394375741533706 -1.977226888245658 0 0 1
14 4 2 0.4892322090737009 -1.6707119937944817 -2.1693682643663914 0 0 1
1 1 1 1.30838032125353 -2.168489317803386 -1.5844394979217422 0 0 1
3 1 3 1.6997406928287608 -2.376827038396988 -1.7999062009092366 0 0 1
62 20 2 2.311260370105451 -2.8151629565141656 -1.8339382813885976 1 0 1
63 20 4 2.0587997175086983 -2.4594410349522215 -1.9307017388399437 1 0 1
49 15 4 0.16102538211115558 -1.3566312943012253 -2.744596283453586 0 0 1
16 4 4 0.2858521602336963 -1.3019864134323365 -2.3615096404911595 0 0 1
36 11 4 1.5489301467278844 -1.4371748647419984 -1.524067557066626 0 1 1
5 1 3 1.59254603632853 -1.822255746633072 -1.4043233932874613 0 0 1
55 17 4 2.305521739723674 -1.3780653042503517 -0.5345482025830655 0 0 1
35 11 2 1.9368356654497774 -1.3060175770990785 -1.1950749276339208 0 1 1
54 17 4 2.9677748074621286 -0.4290614432637665 -0.33469165075112617 0 0 1
37 11 4 2.3247411841761476 -1.174860289454343 -0.8660822982001557 0 1 1
53 17 2 2.6366482735918817 -0.9035633737573079 -0.4346199266674682 0 0 1
27 8 4 2.8779746825105486 -0.09633546191132236 -0.11620168042118095 0 -1 1
18 5 4 0.8766352348153252 -2.648907945633568 1.536669800145214 0 0 -1
17 5 2 0.7573840167558785 -2.2038781609270206 1.776348382885896 0 0 -1
46 14 4 0.9096316680036209 -2.9053355271345045 1.837299235061816 0 0 0
19 5 4 0.6381327986962733 -1.758848376221237 2.016026965626767 0 0 -1
48 15 4 0.5257895756744371 -1.540316358516962 2.323747436834048 0 0 0
47 15 2 0.3434074788954824 -1.4484738264082082 2.835561576685082 0 0 0
64 20 4 1.7083287227496395 1.5216402437659289 -2.596091201876697 2 -1 1
25 7 4 2.0577871245638866 1.5336791374383765 -2.3905284573215857 1 -1 1
23 7 2 2.1865463337682636 1.5931188086093648 -2.000334187463869 1 -1 1
24 7 4 2.3153055429803793 1.652558479781332 -1.610139917611721 1 -1 1
43 13 4 2.187020948209768 2.1497352762639412 -2.73885831467056 0 -1 1
41 13 2 1.8069430044092902 2.521925732993666 -2.934672717792819 0 -1 1
9 2 3 2.5114919565894125 1.9142678044733161 -2.7697494941196448 0 -1 1
31 9 4 1.4772274072511236 2.034051559516067 -0.18909664958025285 0 -1 1
67 21 4 2.89340459489382 2.708297940980324 -0.69864375837339 1 -1 1
70 22 4 2.691043252037132 2.415861874964273 -0.9263770478167292 1 0 1
29 9 2 1.876595992868788 1.8810011892447038 -0.0038483175196288855 0 -1 1
69 22 4 2.2230277543333132 1.9886688695899837 -1.369755644464761 1 0 1
68 22 2 2.457035503180647 2.202265372280583 -1.1480663461407414 1 0 1
50 16 2 2.9270831243283517 1.3735149773251178 0.4320298997444407 0 -1 1
28 8 4 2.1981275180848385 0.36212760083737683 0.5041822308273027 0 -1 1
26 8 2 2.538051100298355 0.13289606945950894 0.19399027520117818 0 -1 1
52 16 4 2.60925810136363 1.5586424363877889 0.3508729824033616 0 -1 1
30 9 4 2.2759645784855014 1.7279508189776465 0.18140001453870713 0 -1 1
32 10 2 0.8864457007682045 1.2917810057770076 2.0324885520510216 1 -1 0
12 3 4 0.1912455593710276 1.1927099590682557 2.1197042760488083 1 -1 0
33 10 4 0.4001976082622223 1.4497087057461053 1.8873605195288512 1 -1 0
8 2 3 2.6409554647899602 1.1971160371319645 2.8660142286176695 0 -1 0
42 13 4 1.4268650606058362 2.894116189734297 2.9614848790853987 0 -1 0
45 14 4 1.2347295293441203 2.6741896635950253 2.6829081015877447 0 -1 0
44 14 2 1.072180598668921 2.930413068230054 2.2601036683240068 0 -1 0
10 2 3 2.433738901211705 1.8512454541588417 2.55291686064706 0 -1 0
6 2 1 2.6452537246904084 1.7129897667607654 2.8320051854519894 0 -1 0
7 2 3 3.004837692943493 1.8886004166823183 2.5899308378607104 0 -1 0

Velocities

34 0.20948866176977665 -0.31361115455884464 0.7624138015551669
66 0.4221498358700994 -0.1597511628850028 -0.1201930982861267
21 0.27703035416275895 0.007898829172358068 0.12986042649549887
20 0.07427862681839503 -0.0513007536240211 0.18100103415105948
22 -0.1284731005292326 -0.11050033642239569 0.23214164180792074
79 0.20577086148430346 0.14313296360668226 0.10924785674739089
57 -0.23087432218052545 -0.16633892628808888 0.5725468000415604
56 -0.12135100960343366 -0.1498849383334761 0.006748111373579503
78 -0.1289706660434088 -0.3828105984680215 -0.3571100598573623
77 0.03840009772099962 -0.11983881743222922 -0.12393110155497973
59 0.0457639729792513 0.06371104470820671 -0.14732326816228944
60 0.2858319321722136 -0.0736945290238154 0.05011977746487628
61 -0.19430398621663023 0.20111661844173115 -0.3447663137939402
75 0.680358260757596 0.2974010780982435 0.1639220391983745
72 0.31504849000113877 -0.703486677277836 0.46028331024771757
74 0.3563798898364123 -0.1643075881167384 -0.13704701287085339
76 0.032401518912954064 -0.6260162543378844 -0.43801606494303186
58 -0.011827697027715828 -0.1334309503831173 -0.5590505773015606
2 -0.059924066074220295 -0.6371069390769586 -0.02756873358213795
65 0.07686643929341778 0.14835913479616494 -0.10667404578088827
38 0.20615840806274977 0.06684967233879177 0.06788496797312828
39 0.15520394542578242 0.5533516668926215 0.5043363728302764
40 0.25711287069977 -0.4196523222153576 -0.3685664368882885
51 0.11395559366171705 0.12764984037306715 0.020221523001251296
71 -0.13776881425966128 0.05859364610643868 -0.04335802906236567
73 0.153355600159423 -0.32957082338649685 -0.11639544215890694
13 -0.07178858309920158 -0.5924989905198182 0.21554927462899964
11 0.13087037849187738 -0.10686893916319377 0.07759650137916987
4 0.4461289537750352 -0.14653027452968054 0.11370582158651847
15 0.3009981007673297 -0.16267476926763821 -0.4193452130004854
14 0.10680928179942104 -0.165434926945354 -0.21909106918138063
1 0.5707364596181562 -0.1051476199635628 0.01930942644775128
3 0.4413107181017105 -0.2605479681118804 -0.06551398880775462
62 0.43946827096741564 0.017417360544596014 -0.15026305457186484
63 0.5219651106369739 0.1936448719366982 0.28234333060237576
49 0.02401593971632189 0.1940467178746798 0.02226524057780044
16 -0.08737953717105384 -0.16819508462315647 -0.018836925359575207
36 -0.3010409776966902 -0.22426926040353756 0.5265127453864363
5 0.7187805852642895 -0.11682257192208886 -0.19181157250896205
55 -0.5082097548114831 0.33450777917759433 0.3358159383295046
35 0.031306397678107 0.06000268629066894 0.0213242768459961
54 0.7164627397037394 -0.4419827815815617 -0.03514490042558854
37 0.3636537730536371 0.3442746329865718 -0.48386419170045525
53 0.10412649244569316 -0.05373750120080006 0.1503355189523554
27 0.6081620856024723 0.28021873031056466 0.3168701559554128
18 -0.8746568093570967 -0.11525919038525378 0.06576519983384552
17 0.11322431899490783 0.06340213287607561 0.2255659361150634
46 0.07683018199434269 -0.6089262983211267 -0.3383380951639401
19 1.1011054473457873 0.24206345613765584 0.3853666723963515
48 -0.054227167296418355 0.032121396763599944 0.023440311136120058
47 -0.015105613790332366 0.11308405731827394 0.02285277585666303
64 0.6200232195711787 0.6355090724243055 -0.2733075483131921
25 -0.22442912292151285 -1.00542718963403 0.4622913788932569
23 0.32843675294830765 -0.25146908126356216 0.16500032325585257
24 0.8813026288095573 0.5024890270997122 -0.1322907323947211
43 0.45865059868047287 0.33985342774595395 -0.30202000898257975
41 0.11247730483276056 0.11029321912752045 -0.06641934570159408
9 0.21721559096239768 -0.1472092748516926 0.21634886226095307
31 0.041164741805948625 0.4309341485741299 0.6579440132586551
67 -0.2684169572815073 0.45646943246811034 -0.09315499327441688
70 0.6082975446761586 -0.3431556766666075 -0.36099441433377166
29 0.09884977807845138 0.19028300963138323 0.3347593190157127
69 0.34219877001471055 0.08388636677821165 -0.49156490350902216
68 0.4752481573472457 -0.12963465494180088 -0.42627965891954617
50 0.0248405576204147 -0.10513507708934501 -0.1617928684818039
28 -0.41598140023165875 -0.37014425259431705 -0.32482658677102155
26 0.0960903426903483 -0.044962761141110794 -0.00397821540749704
52 -0.0642744784199069 -0.3379199945440306 -0.34380725995996675
30 0.1565348143512132 -0.05036812930999099 0.011574624775247011
32 -0.08403607810392322 0.004777126958754374 0.13802119332780485
12 0.3335293400838095 0.37876111219410796 -0.060356271870117204
33 -0.3364921370320613 -0.58058914359544 0.3468790309112412
8 -0.6773660517462696 -0.01017845812250482 -0.2529411449855009
42 -0.233695989022053 -0.11926698949297845 0.16918131758229968
45 0.456327830589306 0.3063155876050129 0.07040521296116006
44 0.266579006291783 -0.15130535535846318 -0.13396644110131734
10 -0.27656391805341046 0.3459660628934707 0.22585286819266537
6 -0.24005893913537057 0.004780401076819902 0.029168707773742402
7 -0.22242277218301723 -0.18000707431337 -0.07868657298571742

Bonds

1 1 20 21
2 1 20 22
3 1 56 57
4 1 56 58
5 1 77 78
6 1 77 79
7 1 59 60
8 1 59 61
9 1 74 75
10 1 74 76
11 1 65 66
12 1 65 67
13 1 38 39
14 1 38 40
15 1 71 72
16 1 71 73
17 1 11 12
18 1 11 13
19 1 14 15
20 1 14 16
21 1 1 2
22 1 1 3
23 1 1 4
24 1 1 5
25 1 62 63
26 1 62 64
27 1 35 36
28 1 35 37
29 1 53 54
30 1 53 55
31 1 17 18
32 1 17 19
33 1 47 48
34 1 47 49
35 1 23 24
36 1 23 25
37 1 41 42
38 1 41 43
39 1 29 30
40 1 29 31
41 1 68 69
42 1 68 70
43 1 50 51
44 1 50 52
45 1 26 27
46 1 26 28
47 1 32 33
48 1 32 34
49 1 44 45
50 1 44 46
51 1 6 7
52 1 6 8
53 1 6 9
54 1 6 10
