LAMMPS data file via write_data, version 4 Feb 2025, timestep = 4000000, units = lj

2000 atoms
4 atom types
1500 bonds
1 bond types
1750 angles
2 angle types

-8.346487 8.346487 xlo xhi
-8.346487 8.346487 ylo yhi
-8.346487 8.346487 zlo zhi
8.526512829121202e-14 0 0 xy xz yz

Masses

1 1
2 1
3 0.1
4 0.1

Bond Coeffs # harmonic/omp

1 100 0.45

Angle Coeffs # harmonic/omp

1 100 180
2 100 109.471

Atoms # full

283 57 3 0 -7.463170464907279 -7.5715772309273905 -8.098236343365771 7 0 1
1830 444 2 0 -6.118230195344221 -7.675502202842389 -8.20046641360995 28 1 1
1832 444 4 0 -5.762361288964793 -7.965674580835838 -8.223297712842363 28 1 1
739 148 3 0 -5.359816184515232 -8.053773235892345 -8.083839712811175 29 1 0
740 148 3 0 -4.655942280797499 -8.295299855527606 -8.005036507088386 29 1 0
451 91 1 0 -0.5761049455955947 -7.5041216554490635 -7.488780096263587 11 0 1
455 91 3 0 -0.16922831961344542 -7.449530320757938 -7.672890843993211 11 0 1
1407 303 2 0 0.49351989027895904 -7.616180626452574 -7.773598247681432 9 0 0
782 157 3 0 0.9116486694361523 -8.219161999152716 -8.166358505026318 30 1 0
1409 303 4 0 0.7953650379350616 -7.849609525859657 -7.999150306758149 9 0 0
781 157 1 0 1.3133549085054472 -8.136420495389531 -8.32210260048474 30 1 0
1478 326 4 0 1.8914223830214958 -7.8501317334670615 -8.14372892322034 10 0 1
783 157 3 0 1.527635867927831 -7.861330353303463 -8.02854458736152 30 1 0
1476 326 2 0 2.2894328129920574 -7.948468865338576 -7.973714212787607 10 0 1
1477 326 4 0 2.708598820857963 -8.039848549753184 -7.797865035884891 10 0 1
688 138 3 0 5.414026333824246 -8.192775616840512 -7.766082705378108 8 0 0
565 113 3 0 7.2972108214692835 -7.709698776256026 -8.183385444489932 9 0 1
1487 329 4 0 -7.828246223425036 -6.718660697209153 -7.988843625974947 8 0 1
1485 329 2 0 -8.290707256449943 -6.866887878415503 -8.036032426792922 8 0 1
285 57 3 0 -7.461114016451892 -6.823074499014823 -8.124092093373896 7 0 1
284 57 3 0 -6.817901263776582 -7.178056372224139 -8.113715932013594 7 0 1
281 57 1 0 -7.242898418228829 -7.189997628225944 -8.267689988666195 7 0 1
1831 444 4 0 -6.471043978536967 -7.385372275649627 -8.17529338631339 28 1 1
1332 278 2 0 -1.3204891465775628 -6.933598112632768 -8.266714364709209 11 0 0
452 91 3 0 -0.8973710491909426 -7.370339524018269 -7.780087475789596 11 0 1
1334 278 4 0 -1.1973485644800235 -7.261761733517401 -8.000600951773812 11 0 0
1408 303 4 0 0.19032464709448682 -7.366914314008997 -7.538689225067554 9 0 0
198 40 3 0 -0.29391941239988917 -6.602649109671534 -7.628141384041616 6 0 0
312 63 3 0 2.303451815189188 -7.1207123486186035 -7.423793004336188 13 0 1
1505 335 4 0 5.703533516509381 -6.766991071471409 -8.059738172848675 10 0 1
1079 216 3 0 5.42549674939616 -6.6907951914833275 -7.795927316240761 28 1 1
1503 335 2 0 6.084906435066468 -6.964851461854726 -8.061147401955282 10 0 1
1504 335 4 0 6.488116581294806 -7.169048913906348 -8.061655033326526 10 0 1
561 113 1 0 7.206703625536624 -7.289685183461571 -8.212275863793145 9 0 1
563 113 3 0 6.876795128039257 -7.18267194177021 -7.9225540293804295 9 0 1
562 113 3 0 7.569275708783362 -7.047168043345561 -8.124261542270009 9 0 1
1486 329 4 0 7.98175721221963 -7.004732198229873 -8.072528110437808 7 0 1
2000 500 4 0 -7.537744000654084 -6.455436755523857 -8.0779478159151 27 1 1
1998 500 2 0 -7.513536344818101 -6.015313488658658 -8.017514305710343 27 1 1
1999 500 4 0 -7.491804331902346 -5.574514101918203 -7.94783868251665 27 1 1
814 163 3 0 -3.4975146229744905 -5.656998358703533 -8.229229117729215 27 1 0
812 163 3 0 -2.9242761169449842 -6.133055363631253 -8.188138348727536 27 1 0
200 40 3 0 -0.768881983089412 -6.1230388482420155 -7.92434695461256 6 0 0
199 40 3 0 -0.19859663742919942 -5.886424914381721 -7.556674054686944 6 0 0
196 40 1 0 -0.33434177470000215 -6.201374569630401 -7.827468348404242 6 0 0
197 40 3 0 -0.09747484821203578 -6.186856885687527 -8.196797458763724 6 0 0
1078 216 3 0 5.173653054150886 -6.026748153402939 -8.021268138558074 28 1 1
1076 216 1 0 5.30551154373916 -6.266781699669872 -7.662532932286827 28 1 1
1077 216 3 0 5.668304577602065 -6.0613163458159 -7.472932045157563 28 1 1
1259 253 4 0 5.902421437028515 -5.808699101197853 -7.661371594167771 8 0 0
1257 253 2 0 6.301894949854738 -5.719223140076658 -7.813037738343291 8 0 0
1258 253 4 0 6.719799241887841 -5.623331132728309 -7.978321009971746 8 0 0
598 120 3 0 7.050041292478886 -5.6687489103778175 -8.189766251340304 13 0 1
310 62 3 0 -8.243004676507962 -5.069449450998877 -7.42315555138132 8 0 0
306 62 1 0 -7.811165734624714 -5.098866546618551 -7.5593372294461885 8 0 0
308 62 3 0 -7.76384580328974 -4.868847065069744 -7.9467542207720205 8 0 0
309 62 3 0 -7.706906813313164 -5.513467420606525 -7.6204142134946755 8 0 0
1962 488 2 0 -2.246414019185665 -4.9259926734033535 -8.018599293966831 28 1 1
1964 488 4 0 -2.624178964154411 -5.151779947288392 -8.050590761354393 28 1 1
815 163 3 0 -2.8303035786162187 -5.391623035835607 -8.315054486663083 27 1 0
950 190 3 0 -1.5718236396462357 -4.771505363021817 -7.712317931327199 19 0 1
1963 488 4 0 -1.8804623503610083 -4.705574101476389 -7.987503916969935 28 1 1
467 94 3 0 3.663803999933233 -4.846994069375586 -8.07620659443277 12 0 1
1247 250 3 0 5.583500663113615 -4.696372236401265 -7.652601960178392 9 0 1
1330 277 4 0 6.889431592293828 -4.7153940384692765 -7.957812181643417 8 0 0
599 120 3 0 6.94301754092821 -4.944621314209528 -8.274844090378009 13 0 1
1293 265 2 0 8.15803600966894 -4.7056229261099665 -8.320445954419508 13 0 0
387 78 3 0 -8.120097221661531 -4.108331069450554 -7.948317005251106 13 0 0
388 78 3 0 -7.487576709332913 -3.891418286781076 -7.671336385288589 13 0 0
386 78 1 0 -7.92834641179575 -3.7883211586328915 -7.739965619429166 13 0 0
1294 265 4 0 -8.23325088127827 -4.484921963861863 -8.105773722775735 14 0 0
949 190 3 0 -1.5695839963835514 -4.100673461358585 -7.465388942742 19 0 1
946 190 1 0 -1.3290887174902881 -4.411328342208247 -7.678825214235193 19 0 1
947 190 3 0 -1.2248809950167203 -4.273645281925624 -8.072698971596278 19 0 1
948 190 3 0 -0.9657591546088762 -4.487814086452437 -7.4481361635445635 19 0 1
764 153 3 0 -0.1800908899082696 -4.416663806493838 -8.246968347962344 11 0 0
761 153 1 0 0.21291962133012454 -4.233478198678145 -8.146976323321958 11 0 0
763 153 3 0 0.3241969935756117 -4.334147132565078 -7.707773463892999 11 0 0
762 153 3 0 0.1799094893135873 -3.7731701087984604 -8.194838949273036 11 0 0
468 94 3 0 3.143608952407794 -4.62921433133209 -7.579830620826498 12 0 1
466 94 1 0 3.4565502077589 -4.489258432753483 -7.903878694245495 12 0 1
469 94 3 0 3.7477811592160144 -4.216683348517782 -7.7107439760480005 12 0 1
470 94 3 0 3.237665895320898 -4.262733147570474 -8.235443185207362 12 0 1
1288 263 4 0 4.091226936222993 -4.038304740279671 -7.672852476422296 12 0 0
1287 263 2 0 4.524604309651902 -4.122381929701632 -7.615258225866573 12 0 0
1289 263 4 0 4.967917240198684 -4.217339874371955 -7.5543308122119495 12 0 0
1331 277 4 0 6.6303153215924215 -3.8628669963233078 -8.108794799886168 8 0 0
1329 277 2 0 6.762847836519393 -4.2896204362058405 -8.029954071215613 8 0 0
1574 358 4 0 -7.85355402116047 -3.0208304316086014 -8.174726753841497 15 0 1
389 78 3 0 -7.962051254963009 -3.3926617245244994 -8.0067271636825 13 0 0
397 80 3 0 -4.904178249740558 -2.802349158949072 -8.214522783243211 32 1 1
398 80 3 0 -4.362041323410228 -3.2664734664167225 -8.09758056093806 32 1 1
1891 464 4 0 -4.010346481815135 -3.2219705314969183 -7.8522510106666275 19 0 1
1890 464 2 0 -3.7160121296302506 -3.1906390006927134 -7.538856122011584 19 0 1
1572 358 2 0 -7.846653408314721 -2.589753722010757 -8.013078936599866 15 0 1
1573 358 4 0 -7.835888503149214 -2.1763269089894637 -7.8571808192071995 15 0 1
1229 246 3 0 -6.488153416757701 -1.8783187204452991 -8.242854046182988 21 0 1
1639 380 4 0 -4.901838792110476 -2.730651188032242 -7.812580688446119 11 0 0
1638 380 2 0 -5.185781350399636 -2.608534664864239 -7.456139954586952 11 0 0
869 174 3 0 -4.307126023868612 -1.9080666429598017 -8.141679294929581 18 0 1
870 174 3 0 -3.9378951774758653 -1.968813658441487 -7.488912238538023 18 0 1
1345 282 4 0 -1.4203871313839507 -2.2588104684732393 -7.856687820517907 20 0 0
1344 282 2 0 -1.7466691302790434 -2.3460939521918593 -7.554628028496718 20 0 0
93 19 3 0 -0.5942252748714516 -1.9652814825128733 -8.302036413590937 17 0 0
92 19 3 0 -1.2387921483763282 -1.9437382874337379 -7.998882699695147 17 0 0
443 89 3 0 5.459818304735926 -2.2034132089795957 -7.704201754436131 10 0 1
441 89 1 0 5.292915451609467 -2.0036012224069486 -8.059912372325863 10 0 1
444 89 3 0 4.968562916712196 -2.252956870154885 -8.231252332674417 10 0 1
1758 420 2 0 6.430446422620493 -1.9842692768349748 -8.092645355851223 18 0 1
1760 420 4 0 6.806457721272581 -2.1239004185394013 -7.950604505090604 18 0 1
1187 238 3 0 7.073511304017659 -2.3416542443007238 -7.783180147893141 20 0 1
1197 240 3 0 -7.708474102944924 -1.815778434872036 -7.694360321842762 16 0 1
1196 240 1 0 -7.758067504282696 -1.4036266521811083 -7.679173675053703 16 0 1
1200 240 3 0 -7.923103468687687 -1.2611895145137018 -8.074465133496384 16 0 1
1199 240 3 0 -7.356162135877262 -1.1995230055835577 -7.597452329430598 16 0 1
866 174 1 0 -4.2082525259832675 -1.6958410050386599 -7.745048189674409 18 0 1
867 174 3 0 -3.986985106290958 -1.3124809739089365 -7.833352701104578 18 0 1
868 174 3 0 -4.585630961933873 -1.6043854449900339 -7.522049998821492 18 0 1
91 19 1 0 -0.9305549559180752 -1.7078311647433626 -8.208270184211578 17 0 0
95 19 3 0 -0.789363266533333 -1.386601231816039 -7.947120266490264 17 0 0
442 89 3 0 5.106022688106172 -1.5851378971238725 -7.930659349208364 10 0 1
1759 420 4 0 6.008471477454295 -1.8292118311813548 -8.266908145340754 18 0 1
1554 352 2 0 -6.814859149510989 -0.8628963657695952 -7.852455531232357 17 0 1
1556 352 4 0 -7.183549123433259 -0.8336698826740578 -7.59409744968001 17 0 1
1555 352 4 0 -6.441967429212751 -0.894776886806647 -8.111101759598982 17 0 1
819 164 3 0 -2.6541050631970045 -7.665485982058564 -7.022417852712829 12 0 0
816 164 1 0 -2.2487654234860397 -7.688765824355102 -6.826499410381638 12 0 0
818 164 3 0 -2.1601726459743205 -8.110571739396173 -6.737872797902853 12 0 0
820 164 3 0 -1.9466052065155317 -7.526922043215136 -7.103530944658676 12 0 0
454 91 3 0 -0.6389396085029118 -7.942484096011966 -7.392107598581653 11 0 1
314 63 3 0 2.0060010890435453 -7.433012281514995 -6.7922641640066335 13 0 1
1735 412 4 0 -7.257404455585509 -6.510931367826808 -6.5672979598627865 28 1 0
1673 391 4 0 -0.7360256848325957 -6.893939248627439 -7.2136213921769805 28 1 0
453 91 3 0 -0.6081079794068343 -7.2759805668887445 -7.139290862233645 11 0 1
1671 391 2 0 -0.8052099866310707 -6.578976303453685 -6.906983918237622 28 1 0
313 63 3 0 1.7556094608677224 -6.7705005689556 -7.059700538858205 13 0 1
311 63 1 0 2.127990109071888 -7.024540106882947 -7.010459245597233 13 0 1
315 63 3 0 2.4469737489596888 -6.795267295817663 -6.743544915557059 13 0 1
1152 231 3 0 7.765526513567757 -6.808358508189362 -6.823021195486374 31 1 1
837 168 3 0 -6.996023240848414 -6.4058240743851185 -6.826518068998927 9 0 0
836 168 1 0 -6.900370885903341 -6.02507250406511 -7.041920083423981 9 0 0
839 168 3 0 -7.227307965000879 -5.930435593675273 -7.322261605864724 9 0 0
840 168 3 0 -6.860027791575931 -5.693011949106443 -6.74130670623717 9 0 0
838 168 3 0 -6.492528017582533 -6.057369894527778 -7.27566885765155 9 0 0
1672 391 4 0 -0.8840713617886173 -6.28241582069177 -6.615109265797368 28 1 0
1080 216 3 0 4.98024092017123 -6.287431966240076 -7.380747317055558 28 1 1
307 62 3 0 -7.547395631464816 -4.923851674998257 -7.250135135053867 8 0 0
1363 288 4 0 -6.60819880842751 -5.4056869215675185 -6.647091551277856 8 0 0
1248 250 3 0 5.686307766384012 -4.657399250685964 -6.949135698076894 9 0 1
1450 317 4 0 5.827879207505852 -4.905128218569058 -6.649578535776369 7 0 0
1449 317 2 0 6.256139134196033 -4.87925636749838 -6.5680833094568065 7 0 0
390 78 3 0 -8.116365005893547 -3.7181166683563776 -7.3471157998145324 13 0 0
1944 482 2 0 -2.1246822698605516 -3.832472302280289 -7.049929463610069 30 1 1
1946 482 4 0 -1.8552787459274027 -4.153835441354758 -7.199275537054361 30 1 1
1250 250 3 0 5.195260759497657 -4.215194902308841 -7.248487354200011 9 0 1
1246 250 1 0 5.596420538614586 -4.423605479031184 -7.298136321234335 9 0 1
1678 393 4 0 6.126729971334788 -3.7654484841593963 -7.336297977541311 13 0 0
1249 250 3 0 5.917082624350664 -4.118802279512493 -7.355031712581017 9 0 1
773 155 3 0 6.87673378344177 -3.869153515106695 -6.943432756350623 30 1 0
771 155 1 0 7.097203997018049 -4.151315666132538 -6.644436340965014 30 1 0
772 155 3 0 6.917041893934554 -4.528968207605002 -6.65065724718873 30 1 0
1311 271 2 0 8.11896518551388 -3.720621489688293 -6.8166047217939445 8 0 0
775 155 3 0 7.55492744579187 -4.1995522220315165 -6.776020872616917 30 1 0
1312 271 4 0 7.800758418659214 -3.9225912249751245 -6.57167169390205 8 0 0
1313 271 4 0 -8.277268916942095 -3.526247039670153 -7.030300397718069 9 0 0
189 38 3 0 -6.280294082587913 -3.1806602884015254 -7.025288149732826 10 0 0
186 38 1 0 -6.017644683695728 -2.9423254742420264 -6.745755310766995 10 0 0
187 38 3 0 -5.62662048011922 -2.848277905947146 -6.9553820695093735 10 0 0
1892 464 4 0 -3.408165678885041 -3.150643200072582 -7.2054815992105885 19 0 1
917 184 3 0 -3.07050570005378 -2.9193781255831652 -7.175863939439983 19 0 1
1945 482 4 0 -2.390682704857424 -3.5178969293233155 -6.8971764354471015 30 1 1
919 184 3 0 -2.426154773917366 -3.135371725348813 -6.876610111189349 19 0 1
1677 393 2 0 6.440242769061703 -3.4239703380957156 -7.349578896979793 13 0 0
1188 238 3 0 7.143959007137619 -2.967866820535507 -7.406386054027146 20 0 1
1679 393 4 0 6.741481312441584 -3.101637431630788 -7.3589087463081295 13 0 0
188 38 3 0 -6.23055591902645 -2.5433697792177847 -6.637494797077256 10 0 0
1640 380 4 0 -5.4570714585649585 -2.4969030789469535 -7.123672243928647 11 0 0
916 184 1 0 -2.654221074596755 -2.7787691839070296 -7.021748778966089 19 0 1
920 184 3 0 -2.4307565636765514 -2.570582126410752 -7.353184856639225 19 0 1
918 184 3 0 -2.7082983569923504 -2.4758408164285175 -6.668803464805376 19 0 1
1346 282 4 0 -2.0718677554719527 -2.434036480939363 -7.248069996385218 20 0 0
1696 399 4 0 5.5896110616364805 -2.1369038507692606 -7.346619656750948 20 0 0
1695 399 2 0 5.982594970124456 -2.237426046675014 -7.138139409394584 20 0 0
1697 399 4 0 6.366529740832476 -2.328916610024077 -6.93511004124579 20 0 0
1190 238 3 0 6.678613734717544 -2.4218957850410936 -7.175364575037114 20 0 1
1186 238 1 0 7.077522727459446 -2.516652098259831 -7.3832580519454805 20 0 1
1189 238 3 0 7.420665267937103 -2.3089504726252006 -7.12328869756233 20 0 1
1813 438 4 0 7.705665613363362 -2.097569827373521 -6.951271268685923 12 0 0
1198 240 3 0 -8.064658262631793 -1.2904995666374273 -7.336813991762629 16 0 1
1814 438 4 0 -8.324139396878639 -1.565296159442025 -7.256098149055775 13 0 0
1812 438 2 0 8.035510423658732 -1.825249073336967 -7.10488836816461 12 0 0
589 118 3 0 -5.168428482717823 -7.584754560746604 -6.08385666881658 28 1 1
1748 416 4 0 -5.133704459299867 -7.977547321198933 -6.137172177077408 29 1 0
817 164 3 0 -2.2458518622560204 -7.435983145516637 -6.429382266541492 12 0 0
894 179 3 0 7.575494503171857 -8.073383235090823 -5.882805066106283 29 1 0
590 118 3 0 -5.175575231237577 -6.89094798421954 -6.278243934793751 28 1 1
587 118 3 0 -5.3641491193660915 -7.077598136416175 -5.584338628002086 28 1 1
586 118 1 0 -5.083016965803276 -7.179515387643715 -5.9493346524080675 28 1 1
588 118 3 0 -4.63642863380821 -7.136077632581814 -5.823500849165192 28 1 1
1824 442 2 0 -2.571534470569782 -7.116180236839101 -5.8931230079031085 10 0 0
1826 442 4 0 -2.3260309102312986 -7.098004334867006 -6.240590269114599 10 0 0
210 42 3 0 -3.0623166370912642 -6.784363092264819 -5.633182196904388 11 0 0
1442 314 4 0 2.730980733855514 -6.907669191236706 -6.477532764876298 14 0 1
1440 314 2 0 2.6839662020552932 -7.139249590814478 -6.090384155365919 14 0 1
1441 314 4 0 2.6217720727918206 -7.367669384658079 -5.717635501466221 14 0 1
1154 231 3 0 7.601634252559329 -6.901790117175089 -6.103690355693887 31 1 1
1151 231 1 0 7.836034389898931 -6.65016697705711 -6.400351765908552 31 1 1
1155 231 3 0 8.263409377250522 -6.681620798615802 -6.306311233565518 31 1 1
1736 412 4 0 -8.106547380631893 -6.439404959152684 -6.253536418818205 28 1 0
1734 412 2 0 -7.683489659035912 -6.4791637166779665 -6.413802293413121 28 1 0
655 131 3 0 -4.7033603289079435 -5.575380687253382 -6.056111422457549 7 0 0
733 147 3 0 -1.717495868381869 -6.2042344818947495 -6.065250112105419 9 0 0
731 147 1 0 -1.3040802468158734 -6.234619078665642 -5.918135682626081 9 0 0
734 147 3 0 -1.038518991090302 -6.4306093763847985 -6.2659676092941305 9 0 0
1291 264 4 0 -0.7001912054645025 -6.158829507779919 -6.26406405386939 10 0 0
732 147 3 0 -1.142871123705623 -5.824260841607854 -5.807765431932504 9 0 0
1723 408 4 0 -0.9025264911231847 -5.582650364562362 -5.566500341430364 28 1 0
1290 264 2 0 -0.2547884640275324 -5.9120651551786985 -6.225521557503239 10 0 0
1292 264 4 0 0.13500941939967603 -5.7149488160969195 -6.204892003758301 10 0 0
160 32 3 0 0.4260153789199581 -5.586954321816455 -5.981423886031093 13 0 0
579 116 3 0 2.186089026509734 -5.715350577650659 -5.854553938088284 10 0 0
1361 287 4 0 2.0742989414954014 -5.643650877581699 -6.250064076931692 9 0 0
578 116 3 0 2.9090449692465814 -5.585474152374254 -5.877686223944391 10 0 0
184 37 3 0 5.111993729212031 -5.936347693981624 -5.964339768849786 13 0 0
1153 231 3 0 7.701217146689224 -6.206370539697799 -6.369724670114303 31 1 1
1362 288 2 0 -6.199053205801924 -5.390264178463157 -6.445907162421959 8 0 0
1364 288 4 0 -5.7821486860893145 -5.376536605166594 -6.250650362835289 8 0 0
651 131 1 0 -5.104652229810375 -5.378451907265282 -5.950604290956223 7 0 0
654 131 3 0 -5.431945907320455 -5.532369997568947 -6.23976906047508 7 0 0
652 131 3 0 -5.062358263553155 -4.903921469219174 -5.999240127237351 7 0 0
158 32 3 0 0.3933802135616169 -4.860776433178163 -5.952677314391231 13 0 0
159 32 3 0 1.038318795006969 -5.204221776500271 -6.098101562038793 13 0 0
1360 287 4 0 1.287136403203787 -5.246309551054492 -6.400141304979292 9 0 0
156 32 1 0 0.643608457737713 -5.228920502330859 -5.8690543394530055 13 0 0
1359 287 2 0 1.6751062540174377 -5.445754143884265 -6.3279827286911035 9 0 0
576 116 1 0 2.5253392213529935 -5.5010896883983955 -5.659483620248667 10 0 0
580 116 3 0 2.447190461892683 -5.065037275111627 -5.669626495229028 10 0 0
185 37 3 0 4.591038952494769 -5.4582536626525595 -5.777217450995428 13 0 0
182 37 3 0 5.3049958224957035 -5.305930471773158 -5.651935853631423 13 0 0
181 37 1 0 5.011252917847553 -5.503490478648984 -5.927039495413659 13 0 0
183 37 3 0 5.043500807716116 -5.3009863477209676 -6.349934231073135 13 0 0
1451 317 4 0 6.723460625188913 -4.84530818003721 -6.482011505465975 7 0 0
774 155 3 0 7.074761389671108 -3.9730840020353746 -6.226094616076483 30 1 0
190 38 3 0 -5.939358950618557 -3.1712881081919875 -6.3686200017165575 10 0 0
1347 283 2 0 -6.385772687466627 -3.5132267126308845 -5.801430322293457 11 0 0
1349 283 4 0 -6.085709172181737 -3.46532072588915 -6.136467085899337 11 0 0
62 13 3 0 1.7293845316746665 -3.46918014816929 -5.842020323258334 11 0 -1
1262 254 4 0 7.311228369889772 -3.6204955660225924 -6.265459852544862 9 0 0
1260 254 2 0 7.499136941245862 -3.355727524335874 -5.952996701652879 9 0 0
1261 254 4 0 7.688639136936551 -3.100274121059737 -5.643291528106564 9 0 0
1751 417 4 0 -8.165164706978645 -7.932323573679507 -5.32204429309321 10 0 0
1749 417 2 0 -7.795945034123781 -8.100156465272137 -5.142174869646801 10 0 0
1750 417 4 0 -7.39818494338118 -8.286295306458687 -4.940082150014204 10 0 0
1423 308 4 0 -6.212588163094676 -7.83809730604696 -5.23301235645626 9 0 0
53 11 3 0 -6.342672137086325 -8.047831749630834 -4.929735079013888 9 0 0
1422 308 2 0 -5.964083523806584 -7.51167132364286 -5.315611971823612 9 0 0
1365 289 2 0 5.253050766427851 -7.928832927685473 -5.085134911681514 31 1 0
1367 289 4 0 5.26094958173057 -7.534576632912205 -4.852081155351632 31 1 0
915 183 3 0 5.594650044005256 -7.449312287147931 -4.659313688958826 31 1 0
1366 289 4 0 5.249256067296942 -8.298556401427117 -5.319454495071494 31 1 0
1383 295 2 0 6.4313891730238435 -8.299980342358463 -4.736334879338807 8 0 0
892 179 3 0 7.42858573744758 -7.846901419797894 -5.190892717703093 29 1 0
1894 465 4 0 7.160587353477082 -7.624562972750023 -5.429143149067369 27 1 1
891 179 1 0 7.674283264397218 -8.141744662446406 -5.455756458521778 29 1 0
895 179 3 0 8.127106803004896 -8.074300431992297 -5.392118669460824 29 1 0
1424 308 4 0 -5.713064582960275 -7.184777407221296 -5.3984626516953576 9 0 0
209 42 3 0 -3.815891401638326 -6.7673178647100585 -5.548524446499876 11 0 0
208 42 3 0 -3.3473997718553594 -6.7827866263321805 -4.942089760934419 11 0 0
206 42 1 0 -3.399544136473212 -6.626932853798878 -5.371943261748678 11 0 0
1825 442 4 0 -2.841692470957308 -7.114073488348318 -5.517071855561254 10 0 0
735 147 3 0 -1.289555260606856 -6.495812694864643 -5.550851913337452 9 0 0
17 4 3 0 3.0703472978671247 -7.0588257858270085 -4.988121977538514 6 0 0
16 4 1 0 3.2404695744743854 -6.659312513890332 -4.883210790967518 6 0 0
20 4 3 0 3.6090769328933767 -6.59015911321191 -5.129070155910538 6 0 0
914 183 3 0 6.19200927775308 -7.038466022336729 -4.881051303836053 31 1 0
1895 465 4 0 6.567060617456775 -7.170364696414617 -4.9493087654592465 27 1 1
1893 465 2 0 6.862583776817496 -7.40224964782661 -5.193336436374613 27 1 1
207 42 3 0 -3.387019726975356 -6.169225372077816 -5.365351860372399 11 0 0
18 4 3 0 2.94980140489157 -6.358114114663138 -4.967863531655415 6 0 0
577 116 3 0 2.5743305454099854 -5.65161263415488 -5.22162378237695 10 0 0
1621 374 4 0 3.8322213709314514 -6.249477423061858 -5.238824856687393 12 0 0
1620 374 2 0 4.04382374773472 -5.881701634745163 -5.409259034996386 12 0 0
653 131 3 0 -5.2134077812567785 -5.484483097652387 -5.530870358633573 7 0 0
1722 408 2 0 -0.7658062628452464 -5.29481058210356 -5.262964993242842 28 1 0
1724 408 4 0 -0.6197632359252738 -4.997530296293451 -4.9485511613136595 28 1 0
1631 377 4 0 0.5336060183439013 -5.422886664679683 -5.084044766441567 12 0 0
157 32 3 0 0.7351477926009871 -5.245109864133754 -5.397872455084717 13 0 0
1629 377 2 0 0.8819389097595014 -5.25092086762708 -4.806512703519113 12 0 0
1276 259 4 0 2.7566705529829267 -4.8760861219457805 -5.492417895362264 9 0 0
1265 255 4 0 2.64705043429308 -5.543147527010788 -4.841823952629881 7 0 0
1706 402 4 0 2.36542129760217 -4.754744034939675 -5.425820898350727 29 1 0
1622 374 4 0 4.241604546442128 -5.536959101921498 -5.561614468668285 12 0 0
1104 221 3 0 -7.606745132181866 -3.8372827032056547 -5.065370420885426 9 0 0
1102 221 3 0 -7.23305196425123 -4.484815624792313 -5.146947691713523 9 0 0
1101 221 1 0 -7.180972857578948 -4.0450651548706995 -5.063217878584037 9 0 0
1103 221 3 0 -6.922129110294316 -3.8625692249871904 -5.3823760941844 9 0 0
1105 221 3 0 -6.980726667772705 -3.984770073715924 -4.647225474255336 9 0 0
63 13 3 0 2.1015808305051937 -4.057629338065748 -5.509446979194897 11 0 -1
1704 402 2 0 2.0803200838585774 -4.614879730724294 -5.112257093734925 29 1 0
1705 402 4 0 1.769832332930438 -4.4811754989742765 -4.76297347147569 29 1 0
1275 259 2 0 3.1586467290938334 -4.591492398788219 -5.385483933136226 9 0 0
1277 259 4 0 3.5228799200048204 -4.31736623020767 -5.295257922210144 9 0 0
250 50 3 0 3.67138069477984 -4.381228925508628 -4.90696983692328 9 0 0
305 61 3 0 5.946787588553359 -4.387765585283377 -4.756845481630661 11 0 0
302 61 3 0 6.688627690925433 -4.441532437902968 -4.811211793835341 11 0 0
1348 283 4 0 -6.6799348802492915 -3.566647348970328 -5.478809038195007 11 0 0
1494 332 2 0 1.0073682350120912 -3.6809952350381465 -4.827963886915529 7 0 1
1496 332 4 0 1.3205417541692768 -3.587745449796598 -5.173228091818372 7 0 1
61 13 1 0 1.9816281352074352 -3.5897586361064295 -5.474641953819928 11 0 -1
65 13 3 0 1.7166984724682735 -3.5228495596068763 -5.097134179132566 11 0 -1
64 13 3 0 2.331631659433695 -3.3446919147815217 -5.45274442190494 11 0 -1
15 3 3 0 7.882707113927555 -2.9356296210029225 -5.354402306490671 7 0 0
12 3 3 0 -8.282140770033772 -2.4361428661922195 -5.2922508733953215 8 0 0
14 3 3 0 7.710158628904715 -2.2622269664493224 -5.152715537939642 7 0 0
11 3 1 0 8.016626983966326 -2.5855493869952166 -5.122242373639548 7 0 0
13 3 3 0 8.073685731738841 -2.7050852342260905 -4.68874182601817 7 0 0
162 33 3 0 -0.2404513661234713 -1.7471358242977404 -4.7763481099583736 12 0 0
1385 295 4 0 6.514017164623922 -8.0157914598961 -4.378127908872591 8 0 0
912 183 3 0 6.2793618644264075 -7.6872994134944514 -4.4645639667676775 31 1 0
420 84 3 0 7.66108890294916 -8.23188059835682 -3.8065897636344754 8 0 0
1286 262 4 0 7.66905386452752 -7.83391836852318 -3.7688598890394305 8 0 0
1846 449 4 0 3.6230413996693844 -6.822453136904316 -4.285624408938407 6 0 0
19 4 3 0 3.330179313827445 -6.6469745620646075 -4.491497036996221 6 0 0
1845 449 2 0 3.717592439190817 -6.783516342191318 -3.828441889613093 6 0 0
1301 267 4 0 5.70358059992844 -6.851315231030092 -3.9490506284525395 8 0 0
913 183 3 0 5.978452505688322 -7.080965707138 -4.149597415983262 31 1 0
911 183 1 0 6.0094232628212385 -7.309997026328295 -4.5346019103190045 31 1 0
263 53 3 0 4.706404488318061 -6.165750861600146 -3.7402495933440587 8 0 0
1669 390 4 0 -0.5531003358782156 -4.816383616278852 -3.789754204555355 27 1 0
779 156 3 0 -0.6195382678535974 -4.777535418661952 -4.594023131227597 30 1 0
174 35 3 0 0.5940552558408658 -4.741312092550595 -4.088766800868011 8 0 0
1630 377 4 0 1.2316323719788738 -5.087570197581401 -4.533300481723923 12 0 0
32 7 3 0 1.5850230308698752 -5.220787120932249 -4.32628805212279 12 0 0
31 7 1 0 1.822861536943595 -4.8820344597479295 -4.087687824030759 12 0 0
35 7 3 0 2.2793818711675975 -5.028809285450068 -3.989558289870425 12 0 0
1263 255 2 0 2.866892623858032 -5.23163639770603 -4.577907421900954 7 0 0
1264 255 4 0 3.0849355987950347 -4.934155200792478 -4.304278249275348 7 0 0
249 50 3 0 3.476786739535246 -4.793917964306577 -4.3166924860172085 9 0 0
1404 302 2 0 -6.839430243055986 -3.9394570202506287 -3.8398973790314574 12 0 0
1405 302 4 0 -6.774894093026129 -3.9135217338160775 -4.282432658752645 12 0 0
777 156 3 0 -1.2691952784544336 -4.418438355949014 -4.505437240709634 30 1 0
776 156 1 0 -0.8441742927943041 -4.462436144112586 -4.342137718839074 30 1 0
778 156 3 0 -0.8516871266657153 -4.605251974093169 -3.8976486247819517 30 1 0
780 156 3 0 -0.6362493374186311 -4.081779534815406 -4.372590008064959 30 1 0
1781 427 4 0 -0.4998911268056876 -3.8308373544641787 -4.072184780973149 10 0 0
175 35 3 0 -0.0947400125140021 -4.514408791443 -4.23749450352004 8 0 0
171 35 1 0 0.31654698936080194 -4.383981441291409 -4.083883046464573 8 0 0
173 35 3 0 0.482757619955688 -4.072384940377199 -4.363880192692385 8 0 0
1495 332 4 0 0.7161667878201339 -3.7681277414487653 -4.517221349725695 7 0 1
33 7 3 0 1.8324381418119948 -4.484524745063268 -4.353168929162086 12 0 0
247 50 3 0 3.561559999256538 -4.08980989751565 -4.232737985136451 9 0 0
246 50 1 0 3.711590522647189 -4.446040169769446 -4.44326886090901 9 0 0
248 50 3 0 4.152063304462613 -4.516531387034961 -4.338081247119404 9 0 0
303 61 3 0 6.3411505484660005 -4.499325804625945 -4.172944089533967 11 0 0
301 61 1 0 6.335760257041665 -4.295738022625703 -4.545266543674317 11 0 0
304 61 3 0 6.363725496900454 -3.850790142967618 -4.482099723435286 11 0 0
119 24 3 0 -2.627636608013227 -3.3641818904892533 -3.748458754746574 13 0 0
1779 427 2 0 -0.29917339216912886 -3.443881166717535 -4.2866054345199105 10 0 0
1780 427 4 0 -0.09914009307717464 -3.0660861224652507 -4.494172932336074 10 0 0
39 8 3 0 0.17082676341988012 -2.790368393825288 -4.436516334103909 8 0 0
37 8 3 0 0.8196634412712722 -3.0522926729030635 -4.198055805497197 8 0 0
1804 435 4 0 6.348590595672741 -3.6451246923686655 -4.150703698762445 29 1 0
1803 435 2 0 6.0247774103529 -3.4136086304749567 -3.9316232842669336 29 1 0
1805 435 4 0 5.714167624527699 -3.191782131212756 -3.726313962663938 29 1 0
752 151 3 0 -2.5692750598556664 -2.3300276661727963 -3.8198651179884546 12 0 0
1356 286 2 0 -1.1858843315147238 -1.9964306898675943 -3.7157656466121436 12 0 0
40 8 3 0 0.2951185860091954 -2.7646541343535294 -3.7126909507451797 8 0 0
165 33 3 0 -0.21921722386265685 -2.1074862077428014 -4.1177691833293055 12 0 0
38 8 3 0 0.6450692179687003 -2.3117745274389154 -4.195290123539502 8 0 0
36 8 1 0 0.47857560982266456 -2.7214062373899983 -4.138878712192691 8 0 0
1417 306 4 0 8.11523613962106 -2.696236782742199 -4.3043566095409975 12 0 0
1416 306 2 0 7.890834903803668 -2.438424109579169 -3.9971384774028174 12 0 0
755 151 3 0 -2.159053509131029 -1.665438535194566 -3.8419699311884035 12 0 0
1358 286 4 0 -0.8658777064073329 -1.7360195865970036 -3.90332812681494 12 0 0
164 33 3 0 -0.6977639052148881 -1.5615091906680902 -4.2231731278223545 12 0 0
161 33 1 0 -0.28481795515958375 -1.7035608129495028 -4.319590712222658 12 0 0
163 33 3 0 0.00013959468489765925 -1.4231775858198414 -4.173650698057222 12 0 0
1322 274 4 0 0.3364026967986202 -1.34025123612866 -3.9465236416570724 14 0 0
1320 274 2 0 0.589489065447145 -1.0170980714780056 -4.16244634475455 14 0 0
1040 208 3 0 2.0490803132951534 -0.9869211446525652 -4.237750674560084 19 0 1
1321 274 4 0 0.8283075790081309 -0.7149272769493482 -4.36924286603162 14 0 0
268 54 3 0 0.8394027073456147 -0.3662805407481331 -4.540325961670289 17 0 0
1038 208 3 0 1.648035856957371 -0.6011314983192753 -3.818658143888033 19 0 1
1039 208 3 0 1.8774418525761654 -0.3480688662910003 -4.414200395096418 19 0 1
1036 208 1 0 1.9739237858753906 -0.596930200965998 -4.094617657205352 19 0 1
1037 208 3 0 2.3510518858177356 -0.4253309045083409 -3.879673076062276 19 0 1
790 158 3 0 4.330486674473635 -7.522577716484474 -2.7872878772929974 27 1 0
1284 262 2 0 8.00433208093509 -7.641617480367173 -3.5465210441674033 8 0 0
1285 262 4 0 8.336882414279216 -7.439082993102108 -3.312022807526093 8 0 0
88 18 3 0 -7.821150970027636 -7.07956628339258 -2.877067115714448 10 0 0