LAMMPS data file via write_data, version 27 Jun 2024, timestep = 6000000, units = lj

4590 atoms
4 atom types
3090 bonds
1 bond types

-9.99857 9.99857 xlo xhi
-9.99857 9.99857 ylo yhi
-9.99857 9.99857 zlo zhi

Masses

1 1
2 1
3 0.5
4 0.5

Bond Coeffs # zero

1 0

Atoms # bond

1666 526 2 -8.853383555632512 -9.3352652167069 -8.441240130960622 0 1 0
701 204 4 -9.55460686781799 -8.85844772860372 -9.908732252814195 0 0 0
3291 1067 4 -8.002205479735807 -9.98260432842967 -9.567593943878137 1 0 1
700 204 2 -9.4741680707853 -8.365512011859963 -9.88540889349734 0 0 0
465 125 4 -9.254537306151649 -9.064320514410365 -9.714257963208192 0 0 0
1668 526 4 -8.38242251884354 -9.27191968732216 -8.59674912019748 0 1 0
3290 1067 4 -8.388055558640069 -9.265362566648303 -8.98734919227121 1 0 1
3289 1067 2 -8.195130519187938 -9.623983447538986 -9.277471568074674 1 0 1
986 299 4 -3.669932543982716 -9.109974412069912 -9.94884121093078 0 0 1
985 299 2 -3.4143962787968043 -9.539390540418887 -9.966248275253859 0 0 1
2722 878 2 -0.4223272924764279 -8.619481598887809 -9.586584967972254 0 0 0
334 82 2 -3.1284927100186115 -1.6414352925247733 -0.8211272278664627 0 0 0
2723 878 4 -0.9006182515002186 -8.57063660878995 -9.72388728207677 0 0 0
702 204 4 -9.39372927375261 -7.872576295116206 -9.862085534180485 0 0 0
555 155 4 -9.224783000743749 -7.752089856696288 -9.513861215633431 0 0 0
553 155 2 -8.810735721223528 -7.493192705814784 -9.62127218149353 0 0 0
554 155 4 -8.396688441703308 -7.23429555493328 -9.72868314735363 0 0 0
2835 915 4 -8.516616017567083 -6.88065874514866 -9.665684254210959 1 0 0
1475 462 4 -3.562954016775106 -7.064332715097735 -8.92839987713375 0 1 0
1474 462 2 -3.7332833192126524 -7.462782966042455 -8.678949829523148 0 1 0
1476 462 4 -3.9036126216501987 -7.861233216987174 -8.429499781912547 0 1 0
2833 915 2 -8.42847737411791 -6.468727652548155 -9.93502484617526 1 0 0
2806 906 2 -9.254066686068473 -5.290957803286936 -9.365384399436394 1 0 0
2808 906 4 -9.697158760726209 -5.504366014319941 -9.45553066302499 1 0 0
657 189 4 -9.70665669476681 -5.568904328514343 -9.046221718043231 0 0 0
1523 478 4 -8.944028818655541 -9.963714940449947 -0.4366793348187436 0 1 0
737 216 4 -7.466559814858647 -5.703297557325449 -8.951138687391392 0 0 0
506 139 4 -7.613367142669875 -5.476048017593308 -8.660464639351181 0 0 0
505 139 2 -7.969464556217885 -5.241992362152826 -8.398906649183393 0 0 0
835 249 2 -8.125671316123798 -5.35691791549343 -9.928970524635265 0 0 1
736 216 2 -6.98028408293439 -5.607552028178919 -9.017234876310654 0 0 0
507 139 4 -8.325561969765896 -5.007936706712344 -8.137348659015606 0 0 0
915 275 4 -6.626631838374102 -5.136310241561144 -9.098166536950531 0 0 1
588 166 4 -2.7980127501654164 -0.04609123519102831 -0.6937038484646973 0 0 0
738 216 4 -6.494008351010133 -5.511806499032389 -9.083331065229917 0 0 0
352 88 2 -5.172691829970237 -5.161008052492729 -9.213821304120277 0 0 0
359 90 4 -5.277836918343671 -5.419561989285489 -9.990285182553436 0 0 0
354 88 4 -5.061315978628242 -5.273246297581038 -9.688160840820679 0 0 0
462 124 4 -4.2734196794958175 -6.532810477724871 -8.464647856897386 0 0 0
2807 906 4 -8.810974611410737 -5.0775495922539315 -9.275238135847799 1 0 0
1054 322 2 -8.710499864811112 -4.285237487437625 -9.633073071645741 0 0 1
1055 322 4 -8.78881651826992 -4.766166553888721 -9.520940405425666 0 0 1
1056 322 4 -8.632183211352304 -3.804308420986529 -9.745205737865817 0 0 1
1170 360 4 -8.290507070274112 -3.6309359428608623 -9.811916160773137 0 0 1
837 249 4 -7.8021448329842364 -5.01978878743992 -9.750997027380194 0 0 1
353 88 4 -5.284067681312231 -5.04876980740442 -8.739481767419877 0 0 0
278 63 4 -5.560357848921584 -4.834303896809986 -8.59557221568812 0 0 0
913 275 2 -6.554728199112693 -4.6416813379922885 -9.085047298575498 0 0 1
914 275 4 -6.482824559851284 -4.147052434423433 -9.071928060200465 0 0 1
287 66 4 -6.127882859483539 -4.100707533048796 -8.95262730688898 0 0 0
286 66 2 -5.9367305537413975 -3.7156519463917626 -9.207956488914666 0 0 0
610 174 2 -4.854719496662106 -4.007534189816744 -9.346040932378516 0 0 0
611 174 4 -4.839332568735964 -4.19983223664135 -9.807326856331125 0 0 0
612 174 4 -4.870106424588249 -3.8152361429921386 -8.884755008425907 0 0 0
609 173 4 -4.549239118683079 -3.5901304102834586 -8.881691432352097 0 0 0
572 161 4 -3.6295975246359986 -3.3823484662723016 -9.919720371068582 0 0 0
249 53 4 -4.941414374760295 -9.761527041005904 -3.062943445032751 0 0 0
741 217 4 -2.1189515459934647 -3.5968257685057643 -8.716248868678457 0 0 0
288 66 4 -5.745578247999256 -3.330596359734729 -9.463285670940353 0 0 0
990 300 4 -5.93806376929801 -3.0486317100838103 -9.64814651705304 0 0 1
988 300 2 -5.821381850067041 -2.577637084325906 -9.768767378563602 0 0 1
989 300 4 -5.704699930836073 -2.1066424585680017 -9.889388240074165 0 0 1
1104 338 4 -5.952350913713474 -1.9189902309904654 -9.660287680709404 0 0 1
250 54 2 -4.234387223075075 -1.9297188537781518 -8.444320603197188 0 0 0
607 173 2 -4.4607990501743 -3.10324160799481 -8.810153690646223 0 0 0
252 54 4 -4.336640395531331 -2.414039958101583 -8.373770219571822 0 0 0
608 173 4 -4.372358981665521 -2.616352805706162 -8.738615948940348 0 0 0
740 217 4 -2.7721487002111767 -2.8408860779851417 -8.67279012944278 0 0 0
386 99 4 -2.9260407859466393 -2.4864586742744104 -8.611625442203419 0 0 0
739 217 2 -2.4455501231023207 -3.218855923245453 -8.694519499060618 0 0 0
1305 405 4 -2.0360876315567147 -1.828933673717481 -9.162451904517257 0 0 1
1303 405 2 -1.70683739802955 -2.1729282786888025 -9.31497074097124 0 0 1
1640 517 4 -4.825129989826033 -0.20334592786968247 -5.3234937507175575 0 0 0
1304 405 4 -1.3775871645023854 -2.516922883660124 -9.467489577425225 0 0 1
1095 335 4 -1.2488024220223763 -2.8495973845357563 -9.590094409770602 0 0 1
1620 510 4 -7.636788947794235 -1.435672452541399 -9.57278409053179 0 0 0
1618 510 2 -7.397089162035096 -0.9969262260557284 -9.566019369424852 0 0 0
1619 510 4 -7.157389376275956 -0.5581799995700578 -9.559254648317914 0 0 0
1223 378 4 -7.337828493547911 -0.3535352089769676 -9.847751500285863 0 0 1
1786 566 2 -6.73453638272784 -0.3644398859337194 -8.783468647687839 0 0 0
1102 338 2 -5.951840006235913 -1.489858133185217 -9.916891230191835 0 0 1
1787 566 4 -7.004207685547428 -0.7854830963728126 -8.7834105258697 0 0 0
251 54 4 -4.132134050618818 -1.4453977494547205 -8.514870986822553 0 0 0
243 51 4 -5.2398367141822275 -0.933155744724966 -8.577475131295582 0 0 0
242 51 4 -4.660867828624166 -0.6412351160675676 -9.338774925148314 0 0 0
241 51 2 -4.950352271403197 -0.7871954303962667 -8.958125028221948 0 0 0
524 145 4 -4.350986617595022 -0.8422740021041374 -9.216031833886777 0 0 0
523 145 2 -3.8928743208137475 -1.0249348070229507 -9.298300624347748 0 0 0
525 145 4 -3.4347620240324743 -1.207595611941764 -9.380569414808718 0 0 0
227 46 4 -2.226184246980132 -1.5718970755304784 -9.415781329135166 0 0 0
226 46 2 -2.660765906635379 -1.3482391082812912 -9.31034938531607 0 0 0
228 46 4 -3.095347566290626 -1.124581141032104 -9.204917441496972 0 0 0
1422 444 4 -9.795418486642829 -9.435984107778442 -7.191954739707938 0 1 0
1667 526 4 -9.324344592421483 -9.398610746091638 -8.285731141723765 0 1 0
19 4 3 -9.748182409230113 -9.813025241416753 -7.346546494985733 0 0 0
17 4 3 -9.326512982655846 -9.592180367915239 -7.9282014068882 0 0 0
16 4 1 -9.75789518292454 -9.631160986493608 -7.77331464610326 0 0 0
2480 797 4 -9.95455398970811 -9.107197875031625 -7.368503033049748 1 0 0
20 4 3 -9.951101794791482 -9.21891427642519 -7.762185622402568 0 0 0
336 82 4 -3.439337667578999 -1.4729505830470373 -0.4675903627003389 0 0 0
1420 444 2 -9.751309023878497 -9.438761100572767 -6.693911926682893 0 1 0
295 69 2 -2.008041725106103 -9.90368044559372 -7.862209040549572 0 0 0
297 69 4 -2.3780790139593444 -9.637325689057095 -7.656959074585079 0 0 0
484 132 2 -2.7215528624598666 -9.50348615835557 -6.909945235026136 0 0 0
485 132 4 -2.5205197846857916 -9.752192693655466 -7.29430283016388 0 0 0
2878 930 2 -0.0008964811766884008 -9.561609387961242 -0.23061872243197518 0 0 0
119 24 3 -0.1655832988282763 -1.2711761186743955 -2.669042826214951 0 0 0
2769 893 4 -0.098849449979041 -3.591165743670993 -3.562228771910898 0 0 0
513 141 4 -9.513025655589285 -6.882249853984519 -6.820259843070365 0 0 0
237 49 4 -7.119628167636211 -8.186295859076017 -6.3490359997506065 0 0 0
693 201 4 -4.888766806392869 -7.794890441252427 -7.157980751366114 0 0 0
653 188 4 -4.86529353754227 -8.04866521713816 -7.478950783223262 0 0 0
652 188 2 -4.465645831830039 -7.987761503512497 -7.773182747811666 0 0 0
654 188 4 -4.065998126117808 -7.926857789886836 -8.06741471240007 0 0 0
582 164 4 -3.1421831317457745 -7.18260668786441 -6.922973966650864 0 0 0
580 164 2 -3.5693204050009535 -6.9242978557690495 -6.894159091013638 0 0 0
758 223 4 -3.0599021975364877 -7.5762265425456 -6.9647815078135595 0 0 0
350 87 4 -1.3231212461384638 -8.325502146468724 -6.739058832837815 0 0 0
557 156 4 -0.31451903127957265 -7.836646213131778 -7.1064236634292035 0 0 0
556 156 2 -0.7982302881495343 -7.957728548755184 -7.069511768627213 0 0 0
558 156 4 -1.281941545019496 -8.078810884378589 -7.032599873825222 0 0 0
578 163 4 -9.705144179578882 -6.667785821046838 -7.121976982783302 0 0 0
577 163 2 -9.640161290845395 -6.179982672826913 -7.033516184918927 0 0 0
475 129 2 -5.446996405998028 -6.204682560602676 -7.262049743044129 0 0 0
476 129 4 -5.929583742686034 -6.1669652476314205 -7.136802520437401 0 0 0
371 94 4 -5.831470764763564 -6.032602113508737 -6.733952317918242 0 0 0
477 129 4 -4.964409069310022 -6.242399873573932 -7.387296965650856 0 0 0
461 124 4 -4.5777803162297195 -6.437405697530924 -7.516880727944652 0 0 0
460 124 2 -4.4255999978627685 -6.485108087627897 -7.9907642924210185 0 0 0
29 6 3 -3.930110070238973 -5.6268292927051755 -7.230248022342465 0 0 0
30 6 3 -3.891738742923545 -6.363018624581402 -7.077104596523209 0 0 0
581 164 4 -3.9964576782561325 -6.665989023673689 -6.865344215376411 0 0 0
26 6 1 -4.156818659040192 -5.993198618790704 -7.057978661551335 0 0 0
28 6 3 -4.546989342065593 -6.065467487710544 -7.298486558911334 0 0 0
285 65 4 -3.9481537000413733 -5.227670682384401 -7.306802088457811 0 0 0
2895 935 4 -0.2767835959647168 -5.2622260558476315 -7.176002682573952 0 0 0
456 122 4 -8.626652809121223 -3.5701606065990705 -7.796603067111051 0 0 0
294 68 4 -8.467093599683237 -3.9307407295126158 -7.690428436068694 0 0 0
293 68 4 -8.200252798784577 -4.67028881319046 -8.308380391242277 0 0 0
292 68 2 -8.333673199233907 -4.300514771351538 -7.999404413655485 0 0 0
277 63 2 -5.291867286415341 -4.777325677510915 -8.177641240083181 0 0 0
279 63 4 -5.023376723909098 -4.720347458211845 -7.759710264478242 0 0 0
284 65 4 -4.623414389469615 -4.714836032116882 -7.836918700909811 0 0 0
283 65 2 -4.285784044755494 -4.971253357250641 -7.571860394683811 0 0 0
624 178 4 -1.9883079520623679 -4.721891941184367 -7.150313282761873 0 0 0
628 180 2 -2.662189205068847 -4.9480540045964005 -7.111782578408657 0 0 0
629 180 4 -2.2527916622591446 -4.907365526466206 -7.395927083350134 0 0 0
630 180 4 -3.0715867478785492 -4.988742482726595 -6.827638073467179 0 0 0
622 178 2 -1.6063559672072567 -4.475254499101717 -6.942268447622269 0 0 0
623 178 4 -1.2244039823521455 -4.228617057019067 -6.7342236124826655 0 0 0
527 146 4 -0.8249592835833701 -4.258734855027416 -6.783416546096544 0 0 0
454 122 2 -8.277492477641877 -3.2133684014359325 -7.7685605056107665 0 0 0
536 149 4 -7.689505791139325 -2.545876847611144 -7.665031181526055 0 0 0
455 122 4 -7.92833214616253 -2.8565761962727945 -7.740517944110482 0 0 0
535 149 2 -7.5568621269506036 -2.5754969280592337 -7.1838572948852875 0 0 0
625 179 2 -5.736530110756365 -1.9637970537609235 -7.034905166238255 0 0 0
627 179 4 -5.628689271366577 -1.8370398694785999 -7.506395324769799 0 0 0
1439 450 4 -5.5273118643713275 -2.0414707549467614 -7.844983493699738 0 0 0
301 71 2 -3.816134183274651 -1.7609311108568133 -6.8653639370662365 0 0 0
303 71 4 -4.258824347852106 -1.8224951383879513 -6.641231635288127 0 0 0
302 71 4 -3.3734440186971955 -1.6993670833256753 -7.089496238844346 0 0 0
385 99 2 -2.9061075477857607 -2.4255294628578845 -8.115752174913714 0 0 0
387 99 4 -2.886174309624882 -2.3646002514413587 -7.61987890762401 0 0 0
12 3 3 -2.222514204686961 -2.004330479569137 -7.2560449637222675 0 0 0
11 3 1 -2.6455820561408 -2.089634272694789 -7.096869413011342 0 0 0
15 3 3 -2.7860743866875666 -2.4936078335284404 -7.253289575408795 0 0 0
672 194 4 -1.8872487572826504 -1.8302050473216964 -7.411567801693159 0 0 0
14 3 3 -2.93140992064272 -1.7549025575767367 -7.243692812944422 0 0 0
671 194 4 -1.138494941105638 -2.3505814211024276 -7.8221480647027954 0 0 0
670 194 2 -1.5128718491941442 -2.090393234212062 -7.616857933197977 0 0 0
281 64 4 -0.9029798167422396 -2.618793165396234 -8.039737960407146 0 0 0
280 64 2 -0.41926440607757093 -2.7395074251196254 -8.077783577562688 0 0 0
315 75 4 -9.878755972173247 -1.3178321741500136 -6.9528208989602485 0 0 0
1429 447 2 -6.982966181800229 -1.5104455241367767 -6.555252345998359 0 0 0
771 227 4 -0.012785381756976466 -6.838308516446627 -6.0446724066832145 0 0 0
1431 447 4 -6.644621617705437 -1.3939742933476837 -6.904476354832673 0 0 0
1440 450 4 -5.321089011023071 -1.1679496045401396 -8.285928994353002 0 0 0
1438 450 2 -5.424200437697199 -1.6047101797434506 -8.06545624402637 0 0 0
1573 495 2 -5.961172337452806 -0.8533336298574596 -6.956728821737691 0 0 0
1575 495 4 -6.404586471838967 -1.0813709841997774 -6.993915787879644 0 0 0
1574 495 4 -5.517758203066644 -0.6252962755151419 -6.919541855595739 0 0 0
639 183 4 -5.12423117863433 -0.7380118195942977 -6.924858472820041 0 0 0
638 183 4 -4.476623817097082 -1.4747931599637258 -6.730544392613144 0 0 0
637 183 2 -4.800427497865706 -1.106402489779012 -6.827701432716593 0 0 0
1416 442 4 -9.952516682407582 -9.156732255497007 -6.043769937847953 0 1 0
495 135 4 -3.166925136236487 -1.3558552179710515 -7.208586919135765 0 0 0
1559 490 4 -2.17925000052076 -0.5217992384085322 -7.678763504786177 0 0 0
493 135 2 -2.843111946856657 -1.0536602832892146 -7.440585280846638 0 0 0
494 135 4 -2.519298757476827 -0.7514653486073777 -7.672583642557511 0 0 0
1558 490 2 -2.3257869516738814 -0.0664327090147144 -7.533270392047697 0 0 0
1421 444 4 -9.707199561114164 -9.441538093367093 -6.195869113657848 0 1 0
688 200 2 -7.540314577597183 -9.536397650657491 -5.2667876810773695 0 0 0
1505 472 4 -6.944461645869513 -9.677479422124994 -5.679579707380859 0 1 0
689 200 4 -7.287589837091572 -9.451779860882292 -5.6898361832492546 0 0 0
1660 524 2 -3.5065534377456853 -9.714067208212327 -6.148384395181142 0 1 0
23 5 3 -3.354917305379044 -8.729615028068219 -5.82010206572709 0 0 0
1661 524 4 -3.1643646708195723 -9.349503325821773 -6.148231273976206 0 1 0
486 132 4 -2.9225859402339416 -9.254779623055672 -6.525587639888392 0 0 0
22 5 3 -2.7669508527035007 -9.113542780606906 -6.088047827700229 0 0 0
698 203 4 -2.557670252296274 -8.97564127495735 -5.110429075707873 0 0 0
697 203 2 -2.3499126247339883 -9.422184521692603 -5.024197428473746 0 0 0
333 81 4 -2.3955486751369595 -8.576549894702579 -5.117795278483065 0 0 0
21 5 1 -2.8945391530737106 -8.724806018651066 -5.877798082128522 0 0 0
331 81 2 -2.0439285045796494 -8.278106428269158 -5.310913773197075 0 0 0
24 5 3 -2.683436360699402 -8.70113612002535 -5.465274934958499 0 0 0
25 5 3 -2.773852652964194 -8.368714197030831 -6.134767697582825 0 0 0
1518 476 4 -1.9032011502770214 -9.794564378490993 -5.260478366264674 0 1 0
742 218 2 -0.20758943090643484 -8.558123098528524 -5.147894556795133 0 0 0
744 218 4 -0.0845773624859216 -9.001857361184978 -5.342748181775086 0 0 0
511 141 2 -9.272849784871912 -6.992519958294293 -6.395811901362237 0 0 0
450 120 4 -8.872130401215523 -7.28712555238508 -5.626171929496076 0 0 0
448 120 2 -8.417683533141911 -7.2868926577435715 -5.834685693689457 0 0 0
512 141 4 -9.03267391415454 -7.102790062604067 -5.97136395965411 0 0 0
449 120 4 -7.963236665068299 -7.286659763102063 -6.043199457882839 0 0 0
236 49 4 -7.935162358799321 -7.613822578402124 -6.264310997788659 0 0 0
235 49 2 -7.527395263217766 -7.900059218739071 -6.306673498769633 0 0 0
691 201 2 -4.725487950760764 -7.853604476049208 -6.68905359559316 0 0 0
1700 537 4 -3.460744194916276 -8.562316301879592 -6.162220733153501 0 1 0
692 201 4 -4.562209095128658 -7.912318510845989 -6.2201264398202065 0 0 0
1699 537 2 -3.9384029700219187 -8.416095890585195 -6.1407338561048554 0 1 0
1701 537 4 -4.4160617451275614 -8.269875479290798 -6.11924697905621 0 1 0
757 223 2 -3.100622339184599 -7.964115450551563 -6.651917215971933 0 0 0
759 223 4 -3.141342480832711 -8.352004358557526 -6.339052924130306 0 0 0
351 87 4 -1.781629177793763 -8.115608539795298 -5.875510831574541 0 0 0
765 225 4 -0.0075436574317299665 -6.886253233668838 -5.659124041955014 0 0 0
332 81 4 -1.6923083340223393 -7.979662961835738 -5.504032267911084 0 0 0
349 87 2 -1.5523752119661134 -8.22055534313201 -6.307284832206178 0 0 0
769 227 2 -0.41924329546083094 -6.839197962423189 -6.33586164630824 0 0 0
743 218 4 -0.3306014993269481 -8.11438883587207 -4.95304093181518 0 0 0
770 227 4 -0.8257012091646854 -6.840087408399751 -6.627050885933265 0 0 0
530 147 4 -9.982345326662754 -4.9136880649447345 -5.092686265823589 0 0 0
396 102 4 -8.530279739991274 -5.321634355864287 -5.5460012758339845 0 0 0
361 91 2 -6.982267732017091 -5.360420659156117 -5.75891755751738 0 0 0
363 91 4 -7.390940320858022 -5.342623129780077 -5.471393709676057 0 0 0
395 102 4 -7.5955203559575875 -4.995800180680497 -5.404378593167595 0 0 0
394 102 2 -8.06290004797443 -5.158717268272392 -5.47518993450079 0 0 0
362 91 4 -6.573595143176159 -5.3782181885321565 -6.046441405358703 0 0 0
372 94 4 -6.616275548991112 -5.771586031053857 -6.1718561914800345 0 0 0
370 94 2 -6.223873156877338 -5.902094072281297 -6.452904254699138 0 0 0
27 6 3 -4.266148775883607 -5.907667855997553 -6.61942260565082 0 0 0
755 222 4 -3.948312449363931 -6.400863372724226 -5.433819424373815 0 0 0
756 222 4 -3.9416891458139642 -5.974583872689971 -6.338386679861119 0 0 0
754 222 2 -3.9450007975889476 -6.187723622707098 -5.886103052117467 0 0 0
255 55 4 -4.019026466845504 -5.543788629986124 -6.521460874219597 0 0 0
253 55 2 -3.6299519437083196 -5.230343106974157 -6.502149749196669 0 0 0
705 205 4 -9.919693908584467 -3.962468592815735 -5.738255099976536 0 0 0
1400 437 4 -3.0348799036076226 -0.19869203716950073 -0.3752004517378123 0 0 0
443 118 4 -8.703560593499992 -5.479815470974224 -5.217153824977507 0 0 0
442 118 2 -9.146343957413986 -5.253721393245544 -5.164009110691715 0 0 0
254 55 4 -3.240877420571136 -4.91689758396219 -6.482838624173741 0 0 0
343 85 2 -2.5967823334779983 -3.5845969828204733 -5.44206163721746 0 0 0
345 85 4 -2.735740416182477 -3.5508663164851964 -5.921178421936539 0 0 0
596 169 4 -2.538367080307286 -3.3082888219012645 -6.215119870280954 0 0 0
526 146 2 -0.6394716976419038 -3.9524011920342645 -6.434483827110941 0 0 0
528 146 4 -0.45398411170043745 -3.646067529041113 -6.085551108125339 0 0 0
542 151 4 -0.5652409335196786 -3.6854236014732 -5.705111050775319 0 0 0
541 151 2 -0.4958882936408264 -3.687149751832194 -5.209947207440303 0 0 0
537 149 4 -7.424218462761882 -2.605117008507323 -6.70268340824452 0 0 0
300 70 4 -8.129557750754415 -2.8146768354691605 -5.606255264766466 0 0 0
648 186 4 -7.889428210487392 -3.126736708816213 -5.610420889872077 0 0 0
298 70 2 -8.279652583459363 -2.63566787694664 -5.164183625815921 0 0 0
647 186 4 -7.533641120584507 -2.9633671180683336 -6.530598005147371 0 0 0
646 186 2 -7.711534665535949 -3.0450519134422733 -6.070509447509724 0 0 0
416 109 4 -6.7819876467602676 -2.1220999305790067 -5.035925012732566 0 0 0
417 109 4 -7.2577264062077305 -1.8133909223038862 -5.8595580505414855 0 0 0
415 109 2 -7.019857026483999 -1.9677454264414465 -5.447741531637026 0 0 0
626 179 4 -5.844370950146153 -2.0905542380432474 -6.563415007706712 0 0 0
677 196 4 -5.993094576212309 -2.0535224808497627 -5.063447817399887 0 0 0
13 3 3 -2.633073622027318 -2.0950939501322083 -6.633065865161805 0 0 0
597 169 4 -2.367683531726262 -2.333596129675267 -6.359484969815781 0 0 0
595 169 2 -2.453025306016774 -2.8209424757882657 -6.287302420048367 0 0 0
645 185 4 -2.5555640293739907 -2.0341356816359704 -6.161031365129908 0 0 0
643 185 2 -2.3863714160608653 -1.7520704063433468 -5.784450643272658 0 0 0
264 58 4 -8.72150178532137 -1.707343026089454 -5.484214293089712 0 0 0
621 177 4 -8.810957914869885 -1.5126998056790626 -5.833845720453181 0 0 0
620 177 4 -9.27938383128524 -1.0371543405365449 -6.578448749867806 0 0 0
619 177 2 -9.045170873077563 -1.2749270731078037 -6.206147235160493 0 0 0
1430 447 4 -7.321310745895022 -1.6269167549258696 -6.206028337164045 0 0 0
676 196 2 -5.736445359560424 -1.7071846855367294 -5.316788124358064 0 0 0
768 226 4 -6.021798261733215 -0.4670623950041131 -4.8806118018465705 0 0 0
766 226 2 -5.625874587824038 -0.2910054407991377 -5.130108081005765 0 0 0
678 196 4 -5.479796142908539 -1.360846890223696 -5.570128431316241 0 0 0
438 116 4 -5.149400194305823 -1.2535002874188472 -5.74597957180726 0 0 0
767 226 4 -5.229950913914861 -0.11494848659416229 -5.379604360164959 0 0 0
436 116 2 -4.849116716902623 -1.044517208628795 -5.405163043484415 0 0 0
644 185 4 -2.21717880274774 -1.4700051310507232 -5.407869921415408 0 0 0
231 47 4 -3.2802405153460303 -0.1620059446872269 -5.870444680822652 0 0 0
660 190 4 -2.952282661424417 -0.26533936807990455 -5.689157289208944 0 0 0
658 190 2 -2.651807002462984 -0.6518200774793954 -5.587436889907742 0 0 0
659 190 4 -2.351331343501551 -1.0383007868788863 -5.485716490606539 0 0 0
447 119 4 -2.0329292648203534 -1.7735546912563644 -5.141158416610259 0 0 0
1402 438 2 -9.957698070240857 -9.933504088195802 -4.638101338279161 0 1 0
2584 832 2 -9.957868908695998 -8.513349250440104 -4.188173628021194 1 0 0
233 48 4 -9.536303152458448 -9.766682068732738 -3.913858357175571 0 0 0
232 48 2 -9.474989905733333 -9.38220216220089 -3.600145292020041 0 0 0
1403 438 4 -9.806406445086415 -9.910910222260222 -4.162075749281518 0 1 0
690 200 4 -7.793039318102794 -9.621015440432691 -4.843739178905484 0 0 0
675 195 4 -7.2558533150678555 -8.418834425619883 -3.577473377166796 0 0 0
1464 458 4 -7.92803327270288 -9.99245655662607 -4.853997451291298 0 1 0
546 152 4 -7.444176406476775 -8.641919302817076 -3.845913899705844 0 0 0
579 163 4 -9.575178402111908 -5.692179524606988 -6.945055387054553 0 0 0
723 211 4 -5.969333620002584 -9.817327316440405 -4.36118221217356 0 0 0
1405 439 2 -5.5292595484142995 -9.034401880382443 -4.183004004621551 0 1 0
1406 439 4 -5.812429906569699 -9.429598821144241 -4.299768409620593 0 1 0
1407 439 4 -5.2460891902589 -8.639204939620646 -4.0662395996225085 0 1 0
699 203 4 -2.1421549971717027 -9.868727768427856 -4.93796578123962 0 0 0
391 101 2 -8.921366837674615 -8.07026486453394 -4.132518015812 0 0 0
393 101 4 -9.41149380640325 -8.11301195351001 -4.221670923272255 0 0 0
2586 832 4 -9.73234206949721 -8.139176607613111 -4.431345333121042 1 0 0
399 103 4 -8.937542946306316 -7.637565838993409 -3.4038524393279275 0 0 0
392 101 4 -8.43123986894598 -8.027517775557868 -4.043365108351745 0 0 0
545 152 4 -8.051177293235806 -7.874924840985448 -4.053926925729487 0 0 0
544 152 2 -7.7476768498562905 -8.258422071901263 -3.9499204127176655 0 0 0
599 170 4 -5.202678881253523 -8.28986214212462 -4.2355012094787705 0 0 0
598 170 2 -5.04378025844402 -7.818050185095185 -4.189190251022273 0 0 0
600 170 4 -4.884881635634517 -7.346238228065749 -4.142879292565776 0 0 0
420 110 4 -3.85206478156262 -7.877102495451532 -4.790509104991745 0 0 0
419 110 4 -3.114639550333307 -7.21610372666762 -4.6516399002992905 0 0 0
418 110 2 -3.4833521659479634 -7.546603111059576 -4.721074502645518 0 0 0
425 112 4 -0.2293510813362324 -7.7669454334423715 -4.803288370446962 0 0 0
424 112 2 -0.1633360802593828 -7.7908373158644855 -4.308241708416305 0 0 0
258 56 4 -0.37911726608654583 -8.060062199661065 -3.678449612256671 0 0 0
426 112 4 -0.09732107918253319 -7.814729198286599 -3.813195046385647 0 0 0
404 105 4 -6.794827074977963 -6.388154615999808 -3.415986172629994 0 0 0
403 105 2 -6.413686697187449 -6.155961325955047 -3.190557051894298 0 0 0
716 209 4 -2.8784670852555068 -6.917423408091797 -4.626697083384816 0 0 0
715 209 2 -2.7887012040513017 -6.433371083801882 -4.539316113367253 0 0 0
717 209 4 -2.6989353228470967 -5.949318759511967 -4.45193514334969 0 0 0
377 96 4 -2.512544061121025 -5.606016869717921 -4.575928278405626 0 0 0
376 96 2 -2.327219888217121 -5.189090140972936 -4.371411643884691 0 0 0
444 118 4 -9.58912732132798 -5.027627315516864 -5.1108643964059235 0 0 0
749 220 4 -8.731741753523329 -3.354480493967331 -3.8417261536874423 0 0 0
617 176 4 -9.025019189618845 -3.3839467997375325 -3.266614781696535 0 0 0
400 104 2 -5.594075538133679 -3.879632198897808 -3.4447647945059594 0 0 0
402 104 4 -5.591630956592063 -3.3983711610312346 -3.3091851594106054 0 0 0
472 128 2 -5.15362633947957 -4.93564067987261 -3.6666651172378084 0 0 0
401 104 4 -5.596520119675295 -4.360893236764381 -3.5803444296013134 0 0 0
474 128 4 -5.387936953079386 -4.549842957169179 -3.8817433669764156 0 0 0
344 85 4 -2.4578242507735193 -3.6183276491557503 -4.962944852498381 0 0 0
309 73 4 -2.573346771586104 -3.422401130596705 -4.634592454759879 0 0 0
378 96 4 -2.141895715313217 -4.77216341222795 -4.166895009363755 0 0 0
266 59 4 -2.2220335882093702 -4.858611572730382 -3.78864243006668 0 0 0
265 59 2 -2.2861468743489857 -4.603396041350778 -3.3634900819812383 0 0 0
543 151 4 -0.4265356537619745 -3.688875902191188 -4.714783364105287 0 0 0
615 175 4 -0.5218359751001643 -3.6716693933785436 -4.3267144384600265 0 0 0
262 58 2 -9.082761129136003 -1.7758689139710735 -5.145398872548266 0 0 0
364 92 2 -9.879104363876708 -3.4619188182714917 -3.4197864560570763 0 0 0
366 92 4 -9.43307463390411 -3.5955086615779335 -3.6020259516270823 0 0 0
748 220 2 -8.649005576984889 -3.093729885033057 -4.260251953408383 0 0 0
263 58 4 -9.444020472950635 -1.844394801852693 -4.806583452006819 0 0 0
750 220 4 -8.56626940044645 -2.8329792760987824 -4.6787777531293235 0 0 0
299 70 4 -8.429747416164311 -2.4566589184241194 -4.722111986865377 0 0 0
733 215 2 -6.775122338947233 -1.8873631317843096 -4.377384133552231 0 0 0
734 215 4 -6.992805912610955 -1.5939818289178704 -4.036002715069158 0 0 0
290 67 4 -6.195541222479656 -2.3288085024858876 -4.85084578105354 0 0 0
289 67 2 -5.861324898378509 -2.4383484275125453 -4.49545803009831 0 0 0
504 138 4 -5.79658733112518 -2.3735549995512875 -3.450961391056425 0 0 0
291 67 4 -5.527108574277362 -2.547888352539203 -4.14007027914308 0 0 0
414 108 4 -5.340032303745604 -2.399937890214376 -3.8245018091470917 0 0 0
735 215 4 -6.55743876528351 -2.180744434650749 -4.718765552035303 0 0 0
412 108 2 -4.874154105568078 -2.258569490133421 -3.710605014103111 0 0 0
413 108 4 -4.408275907390552 -2.117201090052466 -3.59670821905913 0 0 0
5 1 3 -4.40955271810987 -1.7117053123814694 -3.686669174249702 0 0 0
375 95 4 -4.173080541113447 -2.141804110846446 -3.264663520844405 0 0 0
3 1 3 -3.832518682321236 -1.91950341717045 -3.249917907292758 0 0 0
727 213 2 -3.085762315466713 -1.8913463222502331 -4.099729244588006 0 0 0
308 73 4 -2.651215587653589 -2.4485742919155937 -4.421056191447603 0 0 0
729 213 4 -2.6537799985407515 -2.0839640144132865 -4.261870240419952 0 0 0
307 73 2 -2.6122811796198464 -2.9354877112561493 -4.527824323103741 0 0 0
614 175 4 -0.9158753853726075 -2.865240805384097 -3.885799621724498 0 0 0
2925 945 4 -0.74509484299859 -2.846749035589709 -3.5166362595679024 0 0 0
613 175 2 -0.7188556802363859 -3.2684550993813204 -4.106257030092262 0 0 0
2923 945 2 -0.4785814388680342 -2.473506265780632 -3.317486968321671 0 0 0
775 229 2 -8.926915189781257 -0.811617108686532 -3.728891320983528 0 0 0
776 229 4 -9.057600661720663 -0.4055017455019439 -3.9896433472630757 0 0 0
1757 556 4 -8.729593116198519 -0.2040708061123777 -4.125256685398505 0 0 0
777 229 4 -8.79622971784185 -1.2177324718711202 -3.4681392947039806 0 0 0
1544 485 4 -6.4180842089441565 -0.45495463976960754 -3.856618352351877 0 0 0
1543 485 2 -6.255955579042389 -0.19096062048913048 -3.464162666764118 0 0 0
435 115 4 -4.297453091643607 -0.8823986742986998 -4.727178838906197 0 0 0
437 116 4 -4.548833239499423 -0.835534129838743 -5.06434651516157 0 0 0
1 1 1 -4.04261166274891 -1.5637644170000655 -3.461130367467666 0 0 0
433 115 2 -3.9448940541832602 -1.0908889604096932 -4.44041425653511 0 0 0
2 1 3 -3.7484982433452636 -1.3728994357612285 -3.7589018494194004 0 0 0
728 213 4 -3.5177446323926747 -1.69872863008718 -3.937588248756059 0 0 0
434 115 4 -3.5923350167229136 -1.2993792465206866 -4.153649674164023 0 0 0
445 119 2 -1.7238485343491803 -1.6088206963982983 -4.784322581821911 0 0 0
446 119 4 -1.4147678038780074 -1.444086701540232 -4.427486747033563 0 0 0
713 208 4 -0.5696157100245901 -1.3051056655854754 -3.5483966630165478 0 0 0
120 24 3 -0.16686684918023761 -1.3362081416660938 -3.419155610057974 0 0 0
2862 924 4 -0.21028164522204285 -1.3121973281253665 -3.850795742874877 0 0 0
712 208 2 -0.9435589416908219 -1.223007204856002 -3.8699962622647415 0 0 0
714 208 4 -1.3175021733570533 -1.1409087441265284 -4.191595861512935 0 0 0
234 48 4 -9.413676659008217 -8.997722255669043 -3.2864322268645108 0 0 0
317 76 4 -9.065183446548094 -8.911560682734512 -3.074003325236877 0 0 0
316 76 2 -8.753209192111257 -8.639860617579021 -2.7931988751958614 0 0 0
732 214 4 -8.327368189659966 -8.672529021910407 -2.275947307429195 0 0 0
730 214 2 -8.328352085053217 -8.755682746704938 -1.7829113148255369 0 0 0
318 76 4 -8.44123493767442 -8.36816055242353 -2.512394425154846 0 0 0
673 195 2 -7.007285573482345 -8.670520920141472 -3.224106731431143 0 0 0
604 172 2 -6.931915947493624 -9.267209623120284 -2.1460797382945946 0 0 0
606 172 4 -7.21540433606504 -9.507785734844198 -1.8117782755200051 0 0 0
674 195 4 -6.758717831896834 -8.922207414663061 -2.8707400856954903 0 0 0
605 172 4 -6.648427558922208 -9.02663351139637 -2.4803812010691844 0 0 0
321 77 4 -5.369521804234252 -9.259359769537541 -1.8349017037302375 0 0 0