LAMMPS data file via write_data, version 27 Jun 2024, timestep = 3500000, units = lj

4590 atoms
4 atom types
3090 bonds
1 bond types

-9.99857 9.99857 xlo xhi
-9.99857 9.99857 ylo yhi
-9.99857 9.99857 zlo zhi

Masses

1 1
2 1
3 0.5
4 0.5

Bond Coeffs # zero

1 0

Atoms # bond

587 166 4 -0.6856850450707782 -0.4585420505304983 -0.9201297940561696 0 0 0
534 148 4 -7.141438113849623 -9.187969469133668 -9.527448067517506 0 0 0
342 84 4 -5.807376205836597 -9.79064728013503 -0.8129867084224501 0 0 0
297 69 4 -2.8568966552395105 -9.351282292334297 -8.72005697328756 0 0 0
490 134 2 -2.95277898049169 -9.320222451814287 -9.607420199577888 0 0 0
491 134 4 -2.8924833595529518 -9.230355936689838 -9.11927222246961 0 0 0
1108 340 2 -1.7898462008826488 -8.643017745408171 -9.94557560312938 0 0 1
295 69 2 -3.1474588175255693 -8.972333206291761 -8.571830052537617 0 0 0
1399 437 2 -2.9892344884741093 -0.029537870920649453 -1.4879989641005118 0 0 0
2468 793 4 -0.16450327333442832 -9.130668381295411 -8.54007090935022 0 0 0
2467 793 2 -0.08585595436358899 -8.679535811612945 -8.740804573169122 0 0 0
701 204 4 -9.95211016050292 -7.9803808094400726 -9.643910568820973 0 0 0
475 129 2 -7.104900128876802 -7.395594691220852 -8.794346137550235 0 0 0
477 129 4 -7.035687247356561 -7.260526119619807 -9.270755686150332 0 0 0
476 129 4 -7.174113010397043 -7.530663262821897 -8.317936588950138 0 0 0
557 156 4 -3.433947328679297 -8.180988081981031 -8.425972789863657 0 0 0
1109 340 4 -1.9011999385661609 -8.225030886498024 -9.694802137861771 0 0 1
573 161 4 -3.1665765181716274 -7.294384247611818 -9.176232507951479 0 0 0
630 180 4 -1.8782466917443288 -7.824004338195022 -9.66579344726745 0 0 0
628 180 2 -2.295866627054549 -7.718282378250532 -9.411989474057657 0 0 0
629 180 4 -2.713486562364769 -7.612560418306042 -9.158185500847864 0 0 0
558 156 4 -2.9681472492680436 -7.551640352922231 -9.048027226346516 0 0 0
571 161 2 -3.0173571644745567 -6.825121891312856 -9.262987481543824 0 0 0
556 156 2 -3.2010472889736703 -7.866314217451631 -8.737000008105086 0 0 0
149 30 3 -1.4852814967057784 -7.555304318559336 -9.577533495064607 0 0 1
2974 962 2 -0.04105919097124848 -7.747671864898107 -9.338905004635254 0 0 1
747 219 4 -1.2812327936550139 -7.646745643290506 -8.893436740233991 0 0 0
147 30 3 -1.1731526383052404 -6.871691780113327 -9.58975941149407 0 0 1
146 30 1 -1.1474764222273797 -7.290510492705292 -9.401261088131323 0 0 1
148 30 3 -1.2000140562742003 -7.251724010774926 -8.941875187359368 0 0 1
150 30 3 -0.741267677753707 -7.473145850053757 -9.496333598138994 0 0 1
2976 962 4 -0.3725034718306035 -7.519065013634127 -9.635356680698463 0 0 1
572 161 4 -2.868137810777486 -6.355859535013893 -9.34974245513617 0 0 0
461 124 4 -2.716795904016886 -6.103691024634041 -9.056788750278539 0 0 0
460 124 2 -2.685057233369839 -5.9810140972601085 -8.573112176238112 0 0 0
323 78 4 -1.193963716365457 -5.623238489123274 -8.692302167398433 0 0 0
770 227 4 -1.2612472770840364 -6.582640998128888 -9.635500940804809 0 0 0
324 78 4 -1.4535903109262616 -6.3510680901826095 -9.327013206548914 0 0 0
322 78 2 -1.3237770136458593 -5.987153289652942 -9.009657686973673 0 0 0
681 197 4 -7.849242487652995 -0.16501087679043003 -1.6241501998942993 0 0 0
527 146 4 -0.8872673264465503 -5.702691731992406 -8.479095213526705 0 0 0
481 131 2 -5.907183522894473 -3.577000463132231 -8.583073242903815 0 0 0
537 149 4 -6.049074982937757 -4.158074833365367 -8.394870224925661 0 0 0
1587 499 4 -2.930498837734437 -0.2186573719412596 -2.156857635306834 0 0 0
282 64 4 -0.4909800307020394 -3.725053713063934 -8.932990495854737 0 0 0
1070 327 4 -0.6648195551763372 -3.841183567491863 -9.281102409983522 0 0 1
1069 327 2 -0.3781451074920263 -3.656457984291558 -9.646744612082724 0 0 1
280 64 2 -0.9282801672625777 -3.602289623177744 -8.723950861338869 0 0 0
483 131 4 -5.959188141591571 -3.2235881166610185 -8.932923543741204 0 0 0
251 54 4 -5.530382186116131 -3.2062518571514818 -8.958219456353985 0 0 0
250 54 2 -5.081550174276881 -3.098443764167367 -9.150384073896772 0 0 0
252 54 4 -4.632718162437631 -2.9906356711832527 -9.342548691439559 0 0 0
608 173 4 -4.416288289533923 -2.9979731095249473 -9.003049828872994 0 0 0
607 173 2 -4.083624377517959 -2.912292325406672 -8.639740697587877 0 0 0
1955 622 4 -9.937819979994536 -0.2214488428787932 -9.734947577202405 0 0 1
314 75 4 -9.786742606089373 -0.31868342081973383 -9.369408124405304 0 0 0
245 52 4 -5.57300690924807 -1.5562285670863494 -9.45386839605459 0 0 0
244 52 2 -5.449407282796795 -1.0808802707826177 -9.360235444897798 0 0 0
272 61 4 -4.9879222177045115 -0.5488080660066419 -9.473219414388996 0 0 0
246 52 4 -5.3258076563455194 -0.6055319744788861 -9.266602493741006 0 0 0
271 61 2 -4.721695960207364 -0.19257276504137794 -9.70173635066492 0 0 0
1674 528 4 -2.9998093148855673 -0.9562919674426641 -9.880959769421281 0 0 0
524 145 4 -2.8545512148108476 -0.6377471019777247 -8.663451282987387 0 0 0
1672 528 2 -2.6014065572766762 -1.1388868218038586 -9.640264190129862 0 0 0
1673 528 4 -2.203003799667785 -1.3214816761650532 -9.399568610838443 0 0 0
562 158 2 -1.2347903689126503 -0.368177549126205 -9.909262291641596 0 0 0
19 4 3 -8.391137290670803 -9.465807255475632 -6.569903990259964 0 0 0
17 4 3 -7.864098349037811 -9.091031719918046 -6.952883430896605 0 0 0
652 188 2 -4.292745266899323 -9.845467563226258 -6.814139857798628 0 0 0
653 188 4 -4.258527463360182 -9.346842707248886 -6.799913300842154 0 0 0
296 69 4 -3.438020979811628 -8.593384120249226 -8.423603131787674 0 0 0
450 120 4 -7.225280334307169 -7.2471906028082 -8.044236569154643 0 0 0
448 120 2 -6.886113120871125 -7.352317758767433 -7.692222531920612 0 0 0
693 201 4 -6.671270112079294 -7.529028138555006 -7.093483459765977 0 0 0
449 120 4 -6.54694590743508 -7.457444914726667 -7.34020849468658 0 0 0
236 49 4 -6.200577284716847 -7.421206898218353 -7.368764389403978 0 0 0
235 49 2 -5.816473051352353 -7.104147083671048 -7.412775886882896 0 0 0
237 49 4 -5.432368817987858 -6.787087269123743 -7.456787384361814 0 0 0
691 201 2 -6.557323529437602 -7.896046681599221 -6.773618542393259 0 0 0
737 216 4 -5.336220515837799 -6.683980619259976 -7.078551925993081 0 0 0
745 219 2 -1.3124402908907113 -7.8087575754080465 -8.42144285683313 0 0 0
746 219 4 -1.3436477881264086 -7.970769507525587 -7.949448973432268 0 0 0
379 97 2 -9.198687439379587 -6.387995705328069 -7.024036293430091 0 0 0
380 97 4 -9.536049167762734 -6.41162870519565 -7.392314103703034 0 0 0
2484 798 4 -9.922788876570468 -6.287411309372962 -7.290013466800386 1 0 0
381 97 4 -8.86132571099644 -6.364362705460488 -6.655758483157147 0 0 0
736 216 2 -5.013527960686174 -6.321168413383837 -7.197870064249738 0 0 0
352 88 2 -4.846027715252134 -5.102577271530617 -7.411743032966439 0 0 0
738 216 4 -4.690835405534549 -5.9583562075076975 -7.317188202506395 0 0 0
354 88 4 -4.857978443561294 -5.602400070320583 -7.417603911960004 0 0 0
462 124 4 -2.653318562722792 -5.858337169886176 -8.089435602197685 0 0 0
255 55 4 -2.7210103678873767 -5.707436532413846 -7.857231348869341 0 0 0
740 217 4 -2.6351749045192294 -5.369106842683915 -7.831545771473443 0 0 0
254 55 4 -2.5544735361665016 -6.24712260483596 -7.032001425203893 0 0 0
253 55 2 -2.637741952026939 -5.977279568624903 -7.444616387036617 0 0 0
739 217 2 -2.838600514293035 -4.928964681700141 -7.709509303920432 0 0 0
526 146 2 -0.6388771227716707 -5.550330849556752 -8.072784411035085 0 0 0
528 146 4 -0.39048691909679134 -5.397969967121098 -7.666473608543466 0 0 0
663 191 4 -0.8950561621174865 -0.289516065438453 -0.8227752101860419 0 0 0
337 83 2 -8.69504691332975 -4.337523682607093 -7.169933875891033 0 0 0
339 83 4 -9.054695495279308 -4.4297395168103195 -7.504820629024206 0 0 0
338 83 4 -8.33539833138019 -4.245307848403866 -6.83504712275786 0 0 0
536 149 4 -6.2109943314852085 -5.144763458578536 -8.379781108292224 0 0 0
535 149 2 -6.130034657211483 -4.651419145971952 -8.387325666608943 0 0 0
756 222 4 -5.5531349172853135 -3.9320412879065927 -8.249709630307818 0 0 0
482 131 4 -5.855178904197376 -3.930412809603444 -8.233222942066426 0 0 0
612 174 4 -6.027004116811629 -3.725243557878783 -7.973406603441088 0 0 0
754 222 2 -5.206032868697529 -4.104854044600943 -7.9340263729273355 0 0 0
610 174 2 -6.293828312431276 -3.605916115574121 -7.56773948603446 0 0 0
353 88 4 -4.834076986942975 -4.60275447274065 -7.405882153972874 0 0 0
611 174 4 -6.560652508050923 -3.486588673269459 -7.1620723686278325 0 0 0
755 222 4 -4.858930820109744 -4.277666801295293 -7.618343115546853 0 0 0
741 217 4 -3.0420261240668407 -4.488822520716368 -7.5874728363674215 0 0 0
624 178 4 -3.1725810624357424 -4.176047223919308 -7.800437432868719 0 0 0
622 178 2 -2.937589980574444 -3.772511252053277 -7.6217256233658714 0 0 0
672 194 4 -2.2634176655846368 -3.453770684225386 -7.6667821326103125 0 0 0
670 194 2 -1.9481111080096523 -3.592006559616126 -8.029373662440822 0 0 0
623 178 4 -2.7025988987131453 -3.368975280187247 -7.443013813863024 0 0 0
671 194 4 -1.6328045504346678 -3.7302424350068657 -8.391965192271332 0 0 0
454 122 2 -8.579758175284613 -1.8896735364309265 -7.632189874426453 0 0 0
647 186 4 -8.55203076990359 -2.548362328263321 -7.074672128901952 0 0 0
2874 928 4 -9.95480254810777 -2.8011377480938515 -7.731105637012721 1 0 0
455 122 4 -8.617822851805927 -2.187716437761323 -7.23253813932731 0 0 0
278 63 4 -6.930444170451898 -3.374260664733387 -7.139318521841314 0 0 0
609 173 4 -3.750960465501995 -2.826611541288397 -8.27643156630276 0 0 0
387 99 4 -3.891216726623275 -2.723201561082655 -6.924137738607191 0 0 0
385 99 2 -3.837278240542773 -2.8217265972226735 -7.411357870552933 0 0 0
386 99 4 -3.7833397544622707 -2.920251633362692 -7.898578002498674 0 0 0
302 71 4 -3.7252940365079947 -2.535042447965964 -6.790010558948494 0 0 0
309 73 4 -4.20610862624062 -2.8083319885901252 -6.794914802408147 0 0 0
12 3 3 -2.2681083386791796 -3.2886157766669726 -7.266793002336683 0 0 0
13 3 3 -2.9552777670386945 -3.0506695047189747 -7.456739701160246 0 0 0
15 3 3 -2.3634468252865743 -2.587716245500363 -7.504806489731207 0 0 0
11 3 1 -2.5514392303601654 -2.926233795294646 -7.265088480153555 0 0 0
495 135 4 -2.4255027139224645 -2.480653205295783 -7.11951085843158 0 0 0
14 3 3 -2.6192851560915815 -2.7909359307174317 -6.826464018680598 0 0 0
493 135 2 -2.320194778064177 -2.020832721337378 -6.953753924404476 0 0 0
281 64 4 -1.365580303823116 -3.479525533291554 -8.514911226823001 0 0 0
456 122 4 -8.5416934987633 -1.5916306351005298 -8.031841609525598 0 0 0
1438 450 2 -6.729600469496632 -0.037450965312917285 -7.197464397203416 0 0 0
2641 851 2 -0.05577853954314137 -9.7860776897348 -1.6331699049587511 0 0 0
637 183 2 -5.2012358764947235 -0.36424708979564496 -7.445668959992686 0 0 0
639 183 4 -5.445349367603737 -0.15867651780055617 -7.830570692111424 0 0 0
1439 450 4 -6.708688720092107 -0.12981306020492617 -6.706514356807947 0 0 0
638 183 4 -4.95712238538571 -0.5698176617907338 -7.0607672278739475 0 0 0
767 226 4 -4.638471558283474 -0.5961032145019302 -6.811331121329768 0 0 0
523 145 2 -2.897118359216691 -0.3594289965508486 -8.250259958769771 0 0 0
525 145 4 -2.9396855036225342 -0.08111089112397313 -7.837068634552155 0 0 0
494 135 4 -2.2148868422058894 -1.5610122373789728 -6.787996990377373 0 0 0
577 163 2 -8.37328104523645 -8.634421570265344 -5.794490496116257 0 0 0
20 4 3 -7.664841908155849 -9.653055865879814 -6.5040786513727635 0 0 0
2586 832 4 -9.896245078248317 -9.618393196011171 -2.417719910288548 1 0 0
16 4 1 -7.955536389453283 -9.306489082873677 -6.556881903736224 0 0 0
675 195 4 -6.935403612063071 -9.398845394105814 -5.566904818172611 0 0 0
18 4 3 -7.907533976080141 -9.004951845033634 -6.207495208931853 0 0 0
674 195 4 -7.777267162472187 -8.866112466119572 -5.653284155576581 0 0 0
673 195 2 -7.356335387267629 -9.132478930112693 -5.610094486874596 0 0 0
1464 458 4 -6.936623197006751 -9.79840966341992 -5.648322309698509 0 1 0
578 163 4 -7.980943675880026 -8.855744980085042 -6.011486663990876 0 0 0
688 200 2 -5.766691529335568 -8.361743625809032 -5.952090218319898 0 0 0
690 200 4 -5.2978284932351976 -8.353062057677421 -5.778619518334224 0 0 0
689 200 4 -6.235554565435939 -8.370425193940642 -6.125560918305572 0 0 0
582 164 4 -4.266417921653352 -8.207645467352727 -5.176045975444358 0 0 0
758 223 4 -3.936204771657387 -8.445490407433482 -5.173106137169408 0 0 0
757 223 2 -3.4494191659143647 -8.559659962603444 -5.175361511536232 0 0 0
759 223 4 -2.9626335601713425 -8.673829517773406 -5.177616885903055 0 0 0
24 5 3 -2.8464197922086614 -8.982698080823248 -5.284202136660611 0 0 0
23 5 3 -2.2487492213078206 -8.649684822820767 -5.615097979296776 0 0 0
21 5 1 -2.47361684750782 -8.715360155086827 -5.214571698737039 0 0 0
2745 885 4 -0.9498738564112265 -8.805950277342227 -6.420158952783741 0 0 0
1760 557 4 -0.26761316501568183 -9.604772256778157 -6.026685172789849 0 1 0
2743 885 2 -0.5920348147042128 -9.15508783918964 -6.412798033201415 0 0 0
2744 885 4 -0.23419577299719918 -9.504225401037054 -6.40543711361909 0 0 0
312 74 4 -1.237485937451949 -8.593143504211481 -6.627470372842967 0 0 0
310 74 2 -1.405538533133083 -8.230979895259244 -6.3264789353646735 0 0 0
579 163 4 -8.765618414592874 -8.413098160445646 -5.577494328241639 0 0 0
692 201 4 -6.443376946795911 -8.263065224643436 -6.453753625020541 0 0 0
248 53 4 -6.133961640278185 -7.562614645895639 -5.27015782810263 0 0 0
723 211 4 -5.273060624543838 -6.815675562095771 -5.461131600113365 0 0 0
29 6 3 -5.517496210418286 -7.143051691206655 -6.324747771938798 0 0 0
30 6 3 -5.209561601632761 -7.562652487905922 -5.780678430658358 0 0 0
26 6 1 -5.142358921765563 -7.209120145412081 -6.059781785402515 0 0 0
580 164 2 -4.6722679168513785 -8.067757537117066 -5.432399536706826 0 0 0
28 6 3 -5.0538234299013345 -6.826690014134125 -5.812377942726131 0 0 0
581 164 4 -5.078117912049405 -7.927869606881405 -5.688753097969293 0 0 0
27 6 3 -4.781888881714872 -7.297110268939567 -6.331662436401125 0 0 0
25 5 3 -2.600419473429216 -8.314309471644414 -5.039988070152038 0 0 0
742 218 2 -1.9082197819106728 -7.718873068093778 -5.266160914440574 0 0 0
743 218 4 -1.805453227012716 -7.9307496438682685 -5.70723613686032 0 0 0
311 74 4 -1.5735911288142175 -7.868816286307006 -6.025487497886381 0 0 0
512 141 4 -8.588204100063763 -6.15734664053222 -6.422110967251991 0 0 0
511 141 2 -8.717480500537025 -6.18483698352741 -5.939895358501752 0 0 0
443 118 4 -8.863195784986575 -5.981427720097996 -5.2090330470418555 0 0 0
513 141 4 -8.846756901010288 -6.212327326522601 -5.457679749751512 0 0 0
394 102 2 -9.23600481013572 -5.260013699024199 -5.362284325499824 0 0 0
396 102 4 -9.140378787310109 -5.734390100421608 -5.236496036871878 0 0 0
371 94 4 -7.280307895737044 -5.611075726764815 -5.091841090088389 0 0 0
370 94 2 -6.788794232397199 -5.584521822800189 -5.004038989120754 0 0 0
721 211 2 -5.656688090662591 -6.715972041980715 -5.156354344866512 0 0 0
722 211 4 -6.040315556781343 -6.616268521865658 -4.851577089619657 0 0 0
395 102 4 -9.33163083296133 -4.78563729762679 -5.488072614127771 0 0 0
364 92 2 -9.613843109096976 -3.993795600764717 -5.561358069910119 0 0 0
365 92 4 -9.298560187206396 -4.379570247118901 -5.519232051890007 0 0 0
277 63 2 -7.078522504696315 -3.501673707826151 -6.679059113053714 0 0 0
363 91 4 -8.255147650711258 -4.462491207827013 -6.466591363062169 0 0 0
361 91 2 -7.8406754881951874 -4.213723492228866 -6.338812451752393 0 0 0
362 91 4 -7.426203325679118 -3.9649557766307195 -6.2110335404426165 0 0 0
279 63 4 -7.226600838940732 -3.6290867509189146 -6.218799704266113 0 0 0
284 65 4 -6.035979679132296 -4.823221087685207 -5.319472048564574 0 0 0
285 65 4 -5.141423619826295 -4.381982191833599 -5.39072998528545 0 0 0
283 65 2 -5.588701649479296 -4.602601639759403 -5.355101016925012 0 0 0
345 85 4 -5.268972672578756 -4.1844688657296905 -5.701766339488263 0 0 0
343 85 2 -5.179861080489591 -3.7148241778296134 -5.848371220996789 0 0 0
646 186 2 -8.326561050268406 -2.5153026995817735 -6.629621045902275 0 0 0
603 171 4 -8.263949168002632 -2.2399162365148637 -5.925629551088462 0 0 0
648 186 4 -8.101091330633222 -2.482243070900226 -6.184569962902598 0 0 0
300 70 4 -7.710841979964469 -2.453319575231605 -6.23879856665769 0 0 0
298 70 2 -7.347001641611286 -2.5720543111346603 -5.917049797153895 0 0 0
299 70 4 -6.983161303258104 -2.6907890470377156 -5.595301027650101 0 0 0
734 215 4 -6.802335562540861 -2.3322321610240664 -5.5024242032012145 0 0 0
601 171 2 -8.23145045253822 -2.1803320959864387 -5.430257404424593 0 0 0
733 215 2 -6.515896977507766 -2.0488188991960485 -5.206400791924598 0 0 0
344 85 4 -5.090749488400426 -3.2451794899295354 -5.994976102505315 0 0 0
308 73 4 -5.04870668480966 -2.9368057461559163 -6.271920533497818 0 0 0
307 73 2 -4.62740765552514 -2.8725688673730208 -6.533417667952983 0 0 0
301 71 2 -3.8615881584448783 -2.1043277156775266 -6.5757473289830095 0 0 0
727 213 2 -2.9772989851540026 -1.9793660253035845 -5.2531472244802915 0 0 0
729 213 4 -2.753430390566272 -2.3830308791389174 -5.445338634630526 0 0 0
644 185 4 -0.442541940473121 -2.979038792980027 -5.232116952529103 0 0 0
714 208 4 -1.2046758875638783 -1.8497574380298263 -5.852116404602537 0 0 0
712 208 2 -0.7843587320931229 -1.9260864420693022 -5.592294596512706 0 0 0
713 208 4 -0.3640415766223671 -2.0024154461087784 -5.3324727884228755 0 0 0
1320 410 4 -9.499117072253277 -0.3661290522813809 -5.383149470922342 0 0 0
263 58 4 -9.53036610948624 -0.7248379708045231 -5.55126306683495 0 0 0
262 58 2 -9.379472111641252 -1.0686475411308602 -5.221072242058517 0 0 0
417 109 4 -7.526195573993062 -1.0348214370400532 -5.558356237865171 0 0 0
415 109 2 -7.114641152899169 -0.7682963967625139 -5.6562713101626665 0 0 0
416 109 4 -6.703086731805275 -0.5017713564849746 -5.754186382460162 0 0 0
1776 562 4 -7.716477353846677 -0.8058076081308342 -5.287766607011439 0 0 0
1757 556 4 -6.286820190188906 -0.08907317288258462 -5.472159682437619 0 0 0
1430 447 4 -6.351182102618858 -0.284289166581126 -5.778777821202727 0 0 0
290 67 4 -5.835210120002722 -1.344896266973716 -5.625224000381239 0 0 0
289 67 2 -5.959932145585015 -0.8858145863832095 -5.779134451230662 0 0 0
291 67 4 -6.084654171167308 -0.4267329057927032 -5.933044902080084 0 0 0
397 103 2 -9.96488082333833 -7.194668526792635 -3.476412553002454 0 0 0
766 226 2 -4.397928612141182 -1.0295057504387324 -6.745746573568683 0 0 0
768 226 4 -4.1573856659988895 -1.4629082863755345 -6.680162025807598 0 0 0
303 71 4 -3.997882280381762 -1.6736129833890891 -6.361484099017525 0 0 0
1575 495 4 -3.618862408650467 -0.6512120723689698 -5.328521439784516 0 0 0
1573 495 2 -3.727307793252658 -0.18261711340127412 -5.191925821302631 0 0 0
660 190 4 -2.3040326209804327 -1.4651746612149807 -6.4017026921527265 0 0 0
659 190 4 -2.5139310879640586 -1.205035065758707 -5.459221910155856 0 0 0
658 190 2 -2.4089818544722457 -1.3351048634868439 -5.930462301154291 0 0 0
231 47 4 -2.245915010565561 -0.9305617528568846 -5.316891390002007 0 0 0
728 213 4 -3.201167579741733 -1.5757011714682518 -5.060955814330057 0 0 0
229 47 2 -1.9598278382433632 -0.6091588329295219 -5.062226329786127 0 0 0
1567 493 2 -0.8762080312055803 -0.415311952407077 -5.040771375231786 0 0 0
1568 493 4 -0.3986971104749811 -0.5254115825806638 -5.140075917013539 0 0 0
1569 493 4 -1.3537189519361796 -0.3052123222334903 -4.941466833450034 0 0 0
643 185 2 -0.05635343430034963 -2.7453704595089543 -5.447192631379022 0 0 0
1402 438 2 -9.75203106659152 -8.386101319454504 -4.045196087775767 0 1 0
1404 438 4 -9.42792150566736 -8.525818993760419 -3.691032334683634 0 1 0
429 113 4 -9.07215632212878 -8.329539198606856 -3.746126841587588 0 0 0
427 113 2 -8.722786266538009 -8.494149093509927 -3.428567167264245 0 0 0
366 92 4 -9.929126030987556 -3.608020954410533 -5.603484087930231 0 0 0
1517 476 4 -3.080412166632414 -9.954536688364323 -4.649072217457202 0 1 0
22 5 3 -2.191942706554197 -8.927071936319175 -4.9188728654529665 0 0 0
1516 476 2 -2.864024093471534 -9.545943718358982 -4.839408726451045 0 1 0
1518 476 4 -2.6476360203106544 -9.137350748353642 -5.029745235444888 0 1 0
600 170 4 -6.632834915834456 -7.08479748014895 -3.584696624454584 0 0 0
404 105 4 -6.128058146248162 -7.937087312170114 -4.090889036781366 0 0 0
249 53 4 -5.907568742376346 -8.034251138729253 -4.41792237096272 0 0 0
403 105 2 -5.8759271298689875 -7.90245227239726 -3.660505063335499 0 0 0
247 53 2 -6.020765191327265 -7.798432892312446 -4.844040099532675 0 0 0
545 152 4 -6.526990619605252 -7.143375886617291 -3.952646366061551 0 0 0
544 152 2 -6.196023909939354 -6.892223768933068 -4.230825536517219 0 0 0
405 105 4 -5.623796113489813 -7.867817232624406 -3.230121089889632 0 0 0
351 87 4 -1.5934364591831502 -7.387125666626751 -3.7846945653770527 0 0 0
350 87 4 -2.134574739006268 -7.216945872749058 -4.608228535451134 0 0 0
349 87 2 -1.864005599094709 -7.302035769687905 -4.196461550414093 0 0 0
744 218 4 -2.0109863368086294 -7.506996492319288 -4.825085692020828 0 0 0
699 203 4 -1.642265245182394 -7.366020214865805 -3.4390535729924503 0 0 0
444 118 4 -9.477159130529786 -6.5561568676541055 -4.66798275614735 0 0 0
393 101 4 -8.631238752807619 -5.94244273587698 -5.021706452304235 0 0 0
442 118 2 -9.17017745775818 -6.268792293876051 -4.938507901594603 0 0 0
389 100 4 -9.335224859747191 -5.282071940215196 -3.768060394703708 0 0 0
749 220 4 -9.262423624740567 -4.91425678607556 -3.953163398892592 0 0 0
388 100 2 -9.29477344783694 -5.56817507366772 -3.3600056431038103 0 0 0
392 101 4 -7.68461755873443 -5.635263588805535 -5.119426903264575 0 0 0
391 101 2 -8.157928155771025 -5.788853162341257 -5.070566677784405 0 0 0
2655 855 4 -8.02048859329907 -5.578047745007386 -3.3087545299335743 1 0 0
372 94 4 -6.297280569057353 -5.557967918835564 -4.916236888153119 0 0 0
401 104 4 -6.252128406716087 -5.488370947287779 -4.531634139396974 0 0 0
546 152 4 -5.865057200273456 -6.641071651248844 -4.5090047069728865 0 0 0
400 104 2 -5.8374153454376465 -5.235356673500208 -4.413325838483091 0 0 0
510 140 4 -5.330387022860496 -5.259900320835978 -4.018534917730362 0 0 0
508 140 2 -5.017665532126627 -5.050952365252963 -3.689071685956552 0 0 0
707 206 4 -3.498334377360477 -6.293619247224345 -3.2475681753586194 0 0 0
765 225 4 -0.506319422167562 -6.025579536688806 -4.966340138051279 0 0 0
763 225 2 -0.4858859108189351 -5.542354668299411 -4.83954818963232 0 0 0
750 220 4 -9.449631137687692 -4.295032095521844 -4.715734136401441 0 0 0
748 220 2 -9.35602738121413 -4.604644440798702 -4.334448767647016 0 0 0
402 104 4 -5.422702284159206 -4.982342399712637 -4.295017537569208 0 0 0
498 136 4 -4.447857823476317 -4.768469308003174 -3.461965249274645 0 0 0
509 140 4 -4.704944041392759 -4.842004409669947 -3.359608454182743 0 0 0
496 136 2 -3.97337681707015 -4.66224243834299 -3.5785140661794945 0 0 0
497 136 4 -3.4988958106639823 -4.556015568682808 -3.695062883084344 0 0 0
543 151 4 -1.8971323651590344 -3.512838519971027 -4.93466465951459 0 0 0
927 279 4 -1.2190699668174165 -0.41392161058611965 -0.773690719508658 0 0 0
764 225 4 -0.4654523994703082 -5.059129799910016 -4.712756241213362 0 0 0
541 151 2 -1.4390783481026754 -3.329275869055185 -4.8540962373687755 0 0 0
776 229 4 -7.767610962033958 -1.8691491869219454 -3.695784899404684 0 0 0
775 229 2 -7.929439829320719 -1.8850491599005752 -4.168604747308619 0 0 0
602 171 4 -8.19895173707381 -2.1207479554580138 -4.934885257760723 0 0 0
735 215 4 -6.229458392474671 -1.7654056373680305 -4.910377380647982 0 0 0
677 196 4 -5.968394338800031 -1.9004021274718172 -4.624152089374981 0 0 0
676 196 2 -5.771813867095851 -2.300185056525905 -4.397150486337638 0 0 0
678 196 4 -5.575233395391671 -2.699967985579993 -4.170148883300294 0 0 0
542 151 4 -0.9810243310463163 -3.1457132181393432 -4.773527815222961 0 0 0
445 119 2 -0.281519812496161 -3.0975112030662664 -4.262458164550393 0 0 0
446 119 4 -0.6356144600803159 -3.212800288971486 -4.59611278721226 0 0 0
2463 791 4 -9.993814884297233 -0.4951483733323399 -3.4613103155909926 1 0 0
2618 843 4 -9.439449283594426 -1.4462329361226638 -4.528628077407009 1 0 0
264 58 4 -9.228578113796265 -1.4124571114571975 -4.890881417282084 0 0 0
2619 843 4 -9.748440694221847 -0.9742511378460585 -3.7029420049472295 1 0 0
2617 843 2 -9.593944988908136 -1.2102420369843612 -4.115785041177119 1 0 0
549 153 4 -9.98558723674528 -0.7774351265753566 -3.477241835067176 0 0 0
1775 562 4 -8.149006767835756 -1.5029572801634623 -4.716014352253741 0 0 0
777 229 4 -8.09126869660748 -1.900949132879205 -4.641424595212554 0 0 0
1774 562 2 -7.932742060841217 -1.1543824441471482 -5.00189047963259 0 0 0
1435 449 2 -6.891502775602105 -0.10933939791485049 -4.110947733778203 0 0 0
1436 449 4 -7.2470366158755155 -0.1393580616170863 -3.760669889417422 0 0 0
1545 485 4 -7.184238782199522 -0.14995242321932167 -3.3730593973309784 0 0 0
1756 556 2 -6.222543659751132 -0.09990971545665876 -4.976426793696338 0 0 0
1437 449 4 -6.535968935328695 -0.07932073421261468 -4.461225578138984 0 0 0
414 108 4 -6.029920704781237 -0.35559274880040614 -4.412793481001467 0 0 0
412 108 2 -5.694217250408738 -0.6179955755011867 -4.151167894979289 0 0 0
413 108 4 -5.35851379603624 -0.8803984022019672 -3.889542308957111 0 0 0
1758 556 4 -6.158267129313358 -0.11074625803073287 -4.480693904955057 0 0 0
5 1 3 -5.028320238007609 -0.9422971999803549 -4.0728928624019725 0 0 0
433 115 2 -3.7054562978806076 -1.5574802571351996 -4.5606554413484455 0 0 0
435 115 4 -4.195438259392159 -1.5948255549122037 -4.468335312840982 0 0 0
3 1 3 -4.687684616351397 -0.886838828121223 -4.742065293280994 0 0 0
1 1 1 -4.627202992021999 -0.9597557628917492 -4.287835072201708 0 0 0
2 1 3 -4.351066318523905 -0.6323043922182467 -4.120132545705987 0 0 0
438 116 4 -4.23763444236107 -0.511355859403159 -3.761256945873565 0 0 0
4 1 3 -4.428503575703931 -1.3733533367654058 -4.218874294651905 0 0 0
436 116 2 -3.8818987969799794 -0.3470199937457858 -3.4506995858516354 0 0 0
434 115 4 -3.2154743363690566 -1.5201349593581954 -4.652975569855909 0 0 0
1687 533 2 -1.536947578756583 -0.08999579172442389 -4.096566246331216 0 0 0
2861 924 4 -0.0029817453104322156 -0.5250879932569118 -5.02878372955268 0 0 0
1688 533 4 -1.7220730537730138 -0.26561683998108904 -4.526549741257282 0 0 0
230 47 4 -1.6737406659211653 -0.287755913002159 -4.807561269570248 0 0 0
1798 570 2 -9.731135575487999 -9.870443624997511 -3.094661183312109 0 1 0
1799 570 4 -9.758593975063512 -9.586651425390611 -2.6839203602438046 0 1 0
1376 429 4 -9.75332729482878 -9.77271611447653 -2.1535906056390015 0 1 0
2584 832 2 -9.826731011469123 -9.142817125256121 -2.279896851822591 1 0 0
2585 832 4 -9.75721694468993 -8.667241054501071 -2.142073793356634 1 0 0
2757 889 4 -9.59586255911207 -8.348023256871782 -2.3621421243681566 1 0 0
428 113 4 -8.373416210947239 -8.658758988413 -3.1110074929409013 0 0 0
318 76 4 -7.352376968914368 -9.294232882706957 -3.1958078024188827 0 0 0
316 76 2 -7.7323088611263 -8.985196546013391 -3.095069031910939 0 0 0
317 76 4 -8.112240753338233 -8.676160209319825 -2.994330261402995 0 0 0
320 77 4 -5.223988246731618 -9.353073930635164 -2.027791145226809 0 0 0
606 172 4 -5.199027284067409 -9.455993237860374 -2.4053465732749255 0 0 0
319 77 2 -5.379124954357428 -8.916503002613013 -1.83980596827535 0 0 0
604 172 2 -4.874588137168477 -9.66194445433309 -2.725226763960209 0 0 0
605 172 4 -4.550148990269545 -9.867895670805806 -3.0451069546454925 0 0 0
684 198 4 -3.703475932155759 -8.890028728733462 -2.068607786423746 0 0 0
725 212 4 -3.3123830052099357 -8.740339823140227 -2.196376596717872 0 0 0
682 198 2 -3.799769619334629 -9.201865087371631 -1.6898128402576114 0 0 0
1700 537 4 -3.100641864476371 -9.979761875506062 -3.1292466750411996 0 1 0
724 212 2 -2.8516144584826826 -8.70192659899099 -2.006069553870114 0 0 0
726 212 4 -2.3908459117554295 -8.663513374841754 -1.8157625110223556 0 0 0
426 112 4 -1.7285487195790914 -9.286238708405564 -1.8440319366434244 0 0 0
257 56 4 -1.509344831048102 -8.689072233383184 -3.0691168924607757 0 0 0
256 56 2 -1.5418114126008557 -8.874130738386263 -2.605760365790225 0 0 0
258 56 4 -1.5742779941536096 -9.059189243389342 -2.142403839119674 0 0 0
368 93 4 -9.392976868707546 -8.323030871897835 -1.7211319923260882 0 0 0
399 103 4 -9.895129478171304 -7.453628230928324 -3.054423665138292 0 0 0
2755 889 2 -9.733072259405795 -7.894714823545341 -2.5224074120006756 1 0 0
2756 889 4 -9.870281959699518 -7.441406390218899 -2.6826726996331947 1 0 0
732 214 4 -8.332148937213699 -7.733314105846152 -2.2408741297971466 0 0 0
731 214 4 -7.940665236192398 -8.393161397971497 -2.8822336724172635 0 0 0
598 170 2 -6.871524783185027 -6.728882920033618 -3.327107856993082 0 0 0
730 214 2 -8.136407086703048 -8.063237751908824 -2.5615539011072053 0 0 0
687 199 4 -5.651928278465926 -7.460274314251891 -3.1836290480518086 0 0 0
685 199 2 -5.504058612235376 -6.982700095187495 -3.1760509814204356 0 0 0
472 128 2 -4.473195483081217 -6.763895575442223 -1.8478642345385878 0 0 0
633 181 4 -1.6542160942373423 -7.114510306797607 -3.303143497734033 0 0 0
697 203 2 -1.6070588779394457 -7.828164769532776 -3.2514824603521304 0 0 0
698 203 4 -1.5718525106964973 -8.290309324199749 -3.0639113477118105 0 0 0
631 181 2 -1.7978602435652136 -6.72604726021671 -3.0230313419731556 0 0 0
586 166 2 -0.5696013894976694 -0.8757148914147772 -1.1701126049397206 0 0 0
760 224 2 -0.21574985400476893 -7.689238523497813 -2.8852173233212106 0 0 0
761 224 4 -0.532608012691612 -7.762845927008687 -2.505503144731587 0 0 0
452 121 4 -0.5032353792003225 -7.606169372460257 -2.184329573948138 0 0 0
451 121 2 -0.6855197875338992 -7.270536723579684 -1.8616484318219892 0 0 0
2849 920 4 -9.483978049853787 -5.801885810332845 -2.630773654386811 1 0 0
2848 920 2 -9.50577079858373 -5.535539859120237 -2.2081805754382673 1 0 0
390 100 4 -9.25432203592669 -5.854278207120244 -2.9519508915039125 0 0 0
2850 920 4 -9.527563547313674 -5.2691939079076295 -1.7855874964897236 1 0 0
459 123 4 -9.24277950138099 -5.004255568548045 -1.8197158542795295 0 0 0
259 57 2 -7.28029969792141 -6.561378733594744 -2.261740135318733 0 0 0
260 57 4 -7.164186848253614 -6.446918280940753 -2.7344097989536493 0 0 0