LAMMPS data file via write_data, version 27 Jun 2024, timestep = 3500000, units = lj

4590 atoms
4 atom types
3090 bonds
1 bond types

-9.99857 9.99857 xlo xhi
-9.99857 9.99857 ylo yhi
-9.99857 9.99857 zlo zhi

Masses

1 1
2 1
3 0.5
4 0.5

Bond Coeffs # zero

1 0

Atoms # bond

701 204 4 -9.213037186341914 -9.127193416669938 -8.507401674029618 0 0 0
700 204 2 -9.008788665032254 -8.67177690526476 -8.477764827331224 0 0 0
1667 526 4 -9.57214718306509 -9.000464907004956 -8.449337450987503 0 1 0
490 134 2 -4.7287574170682305 -9.054099303731125 -8.535204867777804 0 0 0
492 134 4 -4.51532612332967 -9.499315954944798 -8.614130252381925 0 0 0
1475 462 4 -4.236773337454775 -9.613938913063077 -8.858026299546168 0 1 0
491 134 4 -4.942188710806791 -8.608882652517451 -8.456279483173683 0 0 0
745 219 2 -1.5966616051629818 -8.522918783143458 -9.933426760828914 0 0 0
2974 962 2 -0.6314892496763562 -9.318540303639432 -9.625813213902726 0 0 1
773 228 4 -2.821154414840025 -0.23618017518237633 -0.7588499128818602 0 0 0
2975 962 4 -1.0091586230288887 -9.057952460366826 -9.824458174498124 0 0 1
1556 489 4 -5.744479341149473 -0.0934460556714358 -2.023715109259659 0 0 0
2976 962 4 -0.25381987632382375 -9.579128146912039 -9.427168253307327 0 0 1
2468 793 4 -0.13287850866260723 -9.711718288805919 -9.088242173031244 0 0 0
475 129 2 -8.742171588188153 -7.585842564116896 -8.863996136759493 0 0 0
477 129 4 -8.899266117938566 -7.264908124105772 -9.213742321781211 0 0 0
476 129 4 -8.58507705843774 -7.90677700412802 -8.514249951737774 0 0 0
565 159 2 -5.727038471317871 -6.845451823525345 -9.782791034981784 0 0 0
746 219 4 -2.0011274704923308 -8.250852419396944 -9.822128703787756 0 0 0
769 227 2 -2.2250854142342407 -7.167257044381322 -9.488950831993588 0 0 0
558 156 4 -2.282251565986543 -7.974807512254451 -9.808565817605732 0 0 0
771 227 4 -2.160856185333189 -7.655033011818474 -9.57810918407025 0 0 0
770 227 4 -2.289314643135292 -6.67948107694417 -9.399792479916925 0 0 0
2585 832 4 -9.989913799336307 -7.926144244319874 -2.9929413742542827 1 0 0
566 159 4 -6.072457934865362 -6.7998503038848135 -9.424174393414132 0 0 0
737 216 4 -5.9200076191564115 -6.464885837749113 -9.282614493864804 0 0 0
736 216 2 -6.075396130434821 -6.034922717426045 -9.080164189531569 0 0 0
738 216 4 -6.23078464171323 -5.604959597102976 -8.877713885198334 0 0 0
359 90 4 -2.222411341580049 -6.417418728944155 -9.701618854820348 0 0 0
664 192 2 -2.1911246541818583 -5.931165159249217 -9.031953382037461 0 0 0
665 192 4 -2.141808973802359 -6.327618131353872 -9.332607676166107 0 0 0
666 192 4 -2.2404403345613577 -5.534712187144563 -8.731299087908814 0 0 0
623 178 4 -2.279072838852499 -5.168401668385742 -8.666986829881075 0 0 0
323 78 4 -1.9806776177435743 -5.22916523941143 -8.880697122048604 0 0 0
555 155 4 -8.856523175526823 -4.867243720157799 -9.994425422387057 0 0 0
2808 906 4 -9.782425339399904 -4.832396107949019 -9.684769793903346 1 0 0
481 131 2 -5.344131409194079 -4.691354420943307 -8.74545130993984 0 0 0
505 139 2 -6.129216745582067 -3.831422170365357 -8.622253519833038 0 0 0
483 131 4 -5.760340794144345 -4.574589909681897 -8.494182933917758 0 0 0
288 66 4 -5.1816179069702475 -3.352098835105536 -9.63651758940872 0 0 0
506 139 4 -6.061334378604995 -4.312987276584813 -8.50611983511751 0 0 0
573 161 4 -4.5842113822591575 -4.899479907650222 -8.826745509278533 0 0 0
482 131 4 -4.927922024243812 -4.808118932204717 -8.996719685961923 0 0 0
571 161 2 -4.286327849671529 -4.567040894620255 -9.052022458008198 0 0 0
572 161 4 -3.9884443170839 -4.2346018815902875 -9.277299406737862 0 0 0
357 89 4 -3.7956433102713953 -4.3985300316149285 -9.594761135483287 0 0 0
355 89 2 -3.6001480205235787 -3.986230510958644 -9.799188865874338 0 0 0
1069 327 2 -1.797947212965702 -3.596144699768718 -9.151433916615204 0 0 1
1071 327 4 -2.097933050155435 -3.1971720760848457 -9.180232233165166 0 0 1
322 78 2 -1.721924353247349 -4.804993585686785 -8.936600219360907 0 0 0
324 78 4 -1.4631710887511236 -4.3808219319621395 -8.99250331667321 0 0 0
1070 327 4 -1.4979613757759689 -3.99511732345259 -9.122635600065243 0 0 1
280 64 2 -0.903036656791561 -4.052421168703425 -8.752363847296904 0 0 0
282 64 4 -1.1736611067460947 -4.198285603567873 -9.146680945237572 0 0 0
329 80 4 -9.936323439796263 -3.0055577860057716 -9.094626186175367 0 0 0
292 68 2 -6.62027921615792 -3.0701856527524747 -9.376965761014365 0 0 0
294 68 4 -6.950620169105038 -3.0343760540544173 -9.750586594810976 0 0 0
286 66 2 -5.57086271902023 -3.2494524208615343 -9.33995024472149 0 0 0
507 139 4 -6.1970991125591395 -3.3498570641459002 -8.738387204548566 0 0 0
287 66 4 -5.9601075310702125 -3.1468060066175325 -9.043382900034258 0 0 0
293 68 4 -6.289938263210801 -3.1059952514505325 -9.003344927217752 0 0 0
552 154 4 -6.491943612632259 -3.155343235562917 -8.6237093296389 0 0 0
456 122 4 -5.85740510722787 -2.0967052375931305 -8.474192780273768 0 0 0
454 122 2 -5.997713689715759 -2.558319355905531 -8.605440284837986 0 0 0
455 122 4 -6.138022272203648 -3.019933474217931 -8.736687789402204 0 0 0
1290 400 4 -4.641690679849605 -1.8441704236473533 -8.819944396840185 0 0 1
1288 400 2 -4.45789990131729 -2.196182612495119 -9.123767319986332 0 0 1
1289 400 4 -4.274109122784976 -2.5481948013428846 -9.427590243132478 0 0 1
956 289 4 -3.228659949989999 -3.3514772578687073 -9.721743994415101 0 0 1
955 289 2 -2.8503251211364358 -3.2410618259068373 -9.414057157417712 0 0 1
957 289 4 -2.4719902922828725 -3.1306463939449674 -9.106370320420323 0 0 1
741 217 4 -2.227200302684374 -3.071628516872005 -8.820496683553575 0 0 0
1304 405 4 -2.5637526634034975 -2.611247197050795 -9.571562266766769 0 0 1
1303 405 2 -2.674154664631573 -2.1518669831749135 -9.735211945117273 0 0 1
739 217 2 -2.1398202863753486 -3.0083238790467743 -8.332278232878412 0 0 0
1786 566 2 -7.753545426178351 -0.25605769300629233 -8.523371570078865 0 0 0
625 179 2 -6.693970685793387 -0.3838319207650097 -8.836101918866618 0 0 0
627 179 4 -7.0766121534659545 -0.08543504676200725 -8.715500041589515 0 0 0
1788 566 4 -8.079649906399123 -0.5542050666114147 -8.289354451917532 0 0 0
2757 889 4 -9.809413189581113 -8.12073214785003 -3.279459308759973 1 0 0
626 179 4 -6.311329218120819 -0.6822287947680121 -8.95670379614372 0 0 0
245 52 4 -6.148163603572422 -1.0779541818060512 -8.858582916036292 0 0 0
244 52 2 -5.663717722257577 -1.0934395797352208 -8.981352580564185 0 0 0
246 52 4 -5.179271840942733 -1.1089249776643904 -9.104122245092077 0 0 0
251 54 4 -4.761112370605763 -1.4808187772418935 -8.812213452754438 0 0 0
272 61 4 -4.890664070863937 -1.3889367322424897 -9.163823858997466 0 0 0
271 61 2 -4.736496565676014 -1.16991974950553 -9.586037006136728 0 0 0
17 4 3 -9.526610009108179 -9.82523161724395 -6.3227485488916 0 0 0
250 54 2 -4.635847472600546 -1.3772287700249652 -8.339373293997825 0 0 0
1305 405 4 -2.7845566658596486 -1.6924867692990322 -9.898861623467777 0 0 1
1672 528 2 -1.8369868490209833 -1.0661022290864457 -8.360390893276836 0 0 0
853 255 2 -2.0818533358450306 -0.8296577831714685 -9.404705642622282 0 0 1
855 255 4 -2.427370882844094 -1.0154598322839934 -9.714697938108838 0 0 1
37 8 3 -2.6950337994751665 -1.3685191470180134 -9.596724931270806 0 0 1
854 255 4 -1.7363357888459672 -0.6438557340589437 -9.094713347135727 0 0 1
38 8 3 -3.2491800342352914 -0.9534992301564617 -9.88926624307122 0 0 1
1674 528 4 -1.695724516947341 -0.8646614809092086 -8.795668481156964 0 0 0
564 158 4 -1.4082127560179862 -0.9233668925041115 -9.026851861085566 0 0 0
563 158 4 -0.511457821166522 -0.8280617761682786 -9.458994802274338 0 0 0
562 158 2 -0.9598352885922542 -0.875714334336195 -9.242923331679952 0 0 0
228 46 4 -0.3768302865086986 -0.7753285758445949 -9.844334982457905 0 0 0
19 4 3 -9.059808394496098 -9.98290182510841 -6.890319124368717 0 0 0
577 163 2 -8.480508099677001 -9.33356923620284 -6.958428917768998 0 0 0
579 163 4 -8.185174531399047 -8.99853319168178 -7.183215332660743 0 0 0
450 120 4 -7.889539829982767 -9.020495719046206 -6.936589304339434 0 0 0
448 120 2 -7.456911405401318 -8.771437977734806 -6.964924578062666 0 0 0
449 120 4 -7.024282980819868 -8.522380236423405 -6.993259851785898 0 0 0
582 164 4 -5.544417521948032 -8.980953609530753 -6.681207985987179 0 0 0
236 49 4 -6.754613436068375 -8.548941398097915 -6.664392841026369 0 0 0
702 204 4 -8.804540143722594 -8.216360393859583 -8.448127980632831 0 0 0
629 180 4 -2.703860601311336 -6.9871420684428465 -6.577122279621969 0 0 0
774 228 4 -3.6726238090033356 -0.7097298285392355 -0.5335709821980246 0 0 0
636 182 4 -4.686924438066089 -0.1305762166441394 -1.2058074842908129 0 0 0
2624 845 4 -9.928465967330808 -5.934077995445913 -7.465010782035861 1 0 0
392 101 4 -9.006737712653182 -5.698385429482948 -6.488934995901605 0 0 0
755 222 4 -5.09090698589642 -4.877632842772566 -7.1280027663916465 0 0 0
460 124 2 -3.56033761068431 -5.419945962471901 -7.811804610905891 0 0 0
461 124 4 -3.9352735507877123 -5.708918037622526 -7.972795854772481 0 0 0
354 88 4 -4.309794521946935 -5.735961927298737 -7.78326881467832 0 0 0
352 88 2 -4.5591885921316475 -5.468427734673394 -7.442346457633452 0 0 0
353 88 4 -4.8085826623163594 -5.200893542048052 -7.1014241005885825 0 0 0
278 63 4 -4.889482771662418 -4.961818679522244 -6.83053555383444 0 0 0
628 180 2 -2.493330992450262 -6.55470874962029 -6.713792351565413 0 0 0
462 124 4 -3.1854016705809074 -5.130973887321275 -7.650813367039301 0 0 0
255 55 4 -2.8596903198895687 -5.2685422360983365 -7.496265795618241 0 0 0
253 55 2 -2.5457432402613573 -5.496631147763021 -7.180968032276402 0 0 0
622 178 2 -2.5726043531575966 -5.139244306950729 -8.26326774637878 0 0 0
254 55 4 -2.231796160633146 -5.724720059427706 -6.865670268934563 0 0 0
630 180 4 -2.2828013835891876 -6.122275430797734 -6.850462423508857 0 0 0
624 178 4 -2.8661358674626944 -5.110086945515717 -7.859548662876485 0 0 0
537 149 4 -6.23329342934001 -4.227614245686983 -8.151649127164397 0 0 0
536 149 4 -6.419524007329825 -4.876029772842124 -7.413492317289443 0 0 0
535 149 2 -6.326408718334918 -4.551822009264553 -7.782570722226921 0 0 0
754 222 2 -5.408809909633171 -4.492297025407193 -7.106694577008718 0 0 0
756 222 4 -5.726712833369922 -4.106961208041819 -7.085386387625791 0 0 0
612 174 4 -5.7421957053654396 -3.819415176945628 -6.803699215846792 0 0 0
301 71 2 -3.6099036926105024 -3.576877397910806 -7.239720215972988 0 0 0
303 71 4 -3.6986920256894043 -3.991618898486259 -6.974944613604584 0 0 0
764 225 4 -3.417376076201428 -4.2679164102152285 -6.979353658800689 0 0 0
284 65 4 -4.525737290997239 -4.947287698044845 -6.895903653209964 0 0 0
283 65 2 -4.160064695248545 -4.607233200619982 -6.870477456104359 0 0 0
285 65 4 -3.794392099499851 -4.2671787031951185 -6.845051258998754 0 0 0
765 225 4 -2.8815764084141677 -4.888119781974613 -7.5522991131488935 0 0 0
763 225 2 -3.1494762423077978 -4.578018096094921 -7.265826385974791 0 0 0
12 3 3 -1.8845378173911385 -3.447309003496222 -7.34888947366729 0 0 0
281 64 4 -0.6324122068370273 -3.9065567338389773 -8.358046749356236 0 0 0
671 194 4 -0.8247868274114768 -3.6679101611759286 -8.110552278347056 0 0 0
527 146 4 -0.446279140070049 -3.639757224284361 -8.154882706356586 0 0 0
526 146 2 -0.04420644787338607 -3.357035770284228 -8.246567654074896 0 0 0
670 194 2 -1.2223863310775012 -3.4323003697460805 -7.919757464825313 0 0 0
647 186 4 -8.817937994154333 -3.0501644311267166 -7.097283215973037 0 0 0
550 154 2 -6.861559922972881 -3.1378486503637975 -8.287439017808145 0 0 0
551 154 4 -7.231176233313503 -3.120354065164678 -7.951168705977391 0 0 0
290 67 4 -5.760515251535406 -1.8198111477387608 -6.863806749003637 0 0 0
302 71 4 -3.5211153595316005 -3.1621358973353533 -7.504495818341392 0 0 0
387 99 4 -3.411401554002589 -2.77969476159311 -7.555351952795791 0 0 0
385 99 2 -2.922299614850612 -2.7779565324559 -7.659160775529681 0 0 0
493 135 2 -2.0691112066286954 -2.1244612456856333 -7.820806488897721 0 0 0
495 135 4 -2.110053789874348 -2.6069719390233836 -7.696278838585935 0 0 0
386 99 4 -2.433197675698635 -2.77621830331869 -7.762969598263572 0 0 0
15 3 3 -2.364135908417299 -2.8802213249037347 -7.422355356035982 0 0 0
740 217 4 -2.052440270066324 -2.945019241221544 -7.844059782203249 0 0 0
14 3 3 -1.6425468517224155 -2.7879815497079465 -7.6165229566535295 0 0 0
11 3 1 -1.9347440388845087 -2.991053017292266 -7.318726410556126 0 0 0
13 3 3 -1.837059015721881 -2.857736301002304 -6.885154860051241 0 0 0
672 194 4 -1.6199858347435256 -3.196690578316232 -7.728962651303571 0 0 0
595 169 2 -0.17105126809379645 -2.2795196871069 -6.624959545120496 0 0 0
1465 459 2 -8.745170089052598 -0.6125264002454611 -8.135260380775184 0 0 0
1466 459 4 -9.115580122224848 -0.4132950844908345 -7.8648841796263795 0 0 0
1791 567 4 -8.828508889301581 -0.10229044764829992 -7.7320668700995405 0 0 0
1467 459 4 -8.374760055880348 -0.8117577160000876 -8.40563658192399 0 0 0
766 226 2 -5.80204282421256 -0.9491038689605488 -6.850235747445237 0 0 0
768 226 4 -5.69889820742043 -1.4367009299094315 -6.890364218395381 0 0 0
767 226 4 -5.905187441004689 -0.46150680801166594 -6.810107276495093 0 0 0
638 183 4 -6.164697785506127 -0.1741682129715486 -6.652274456103926 0 0 0
252 54 4 -4.51058257459533 -1.273638762808037 -7.866533135241213 0 0 0
609 173 4 -4.324381075571472 -1.0842514676551556 -7.543922912597547 0 0 0
607 173 2 -3.828877484050094 -1.1425454788719913 -7.511090016810809 0 0 0
608 173 4 -3.333373892528716 -1.200839490088827 -7.478257121024071 0 0 0
494 135 4 -2.028168623383043 -1.641950552347883 -7.945334139209506 0 0 0
659 190 4 -3.2930128720755736 -1.2599427125684832 -7.880101575613851 0 0 0
660 190 4 -2.2980311635989947 -1.3582025141742877 -7.861222720120968 0 0 0
1673 528 4 -1.9782491810946257 -1.2675429772636828 -7.925113305396708 0 0 0
658 190 2 -2.795522017837284 -1.3090726133713855 -7.870662147867409 0 0 0
524 145 4 -2.0053469193385 -0.29515495771372147 -7.031390891666738 0 0 0
523 145 2 -2.108370181792181 -0.6702491138269256 -7.345541462958603 0 0 0
525 145 4 -2.2113934442458625 -1.045343269940129 -7.659692034250467 0 0 0
2480 797 4 -9.857722509964814 -9.90900587164996 -6.120028084148277 1 0 0
578 163 4 -8.775841667954955 -9.668605280723899 -6.733642502877254 0 0 0
2479 797 2 -9.902207654633738 -9.501200860476958 -5.8341677252909 1 0 0
380 97 4 -9.604571821054702 -8.943932247398724 -5.674361062992754 0 0 0
2481 797 4 -9.946692799302662 -9.093395849303956 -5.548307366433523 1 0 0
20 4 3 -8.807876348521336 -9.629983924729762 -6.2747874843995035 0 0 0
379 97 2 -9.445696775043766 -8.476064557938315 -5.750902195166572 0 0 0
237 49 4 -5.89303629166384 -9.027193562254945 -6.494217367716808 0 0 0
235 49 2 -6.323824863866108 -8.78806748017643 -6.579305104371588 0 0 0
580 164 2 -5.143054640922792 -9.200418902174544 -6.479359470858021 0 0 0
1506 472 4 -4.902213458797339 -9.710650541029839 -5.811640698008706 0 1 0
581 164 4 -4.741691759897553 -9.419884194818335 -6.277510955728863 0 0 0
654 188 4 -4.538963564407001 -9.616791496080163 -5.99860629553392 0 0 0
652 188 2 -4.227162381003371 -9.552302195506034 -5.613092155534466 0 0 0
653 188 4 -3.9153611975997413 -9.487812894931904 -5.227578015535013 0 0 0
24 5 3 -3.6688349208943087 -9.2332944720515 -5.051874440541202 0 0 0
758 223 4 -3.3137672123027926 -8.521652948815792 -6.387340666933341 0 0 0
759 223 4 -2.756305318536234 -8.761947528008825 -5.592674226086533 0 0 0
757 223 2 -3.0350362654195133 -8.641800238412308 -5.990007446509937 0 0 0
350 87 4 -2.6331154322387995 -9.032950526556384 -5.348910680025745 0 0 0
349 87 2 -2.162397134091814 -9.201511682625219 -5.345531263746269 0 0 0
632 181 4 -2.664883083101759 -8.773819930270038 -5.222511712025541 0 0 0
25 5 3 -3.1299763860984204 -9.748406724455233 -4.946087641262121 0 0 0
22 5 3 -2.9436829670571107 -9.044920668961252 -5.111623533889498 0 0 0
21 5 1 -3.242787009076521 -9.311370776578816 -4.885479526234113 0 0 0
480 130 4 -1.2980731213689534 -9.268170063802122 -5.367636269980041 0 0 0
351 87 4 -1.6916788359448285 -9.370072838694053 -5.342151847466792 0 0 0
333 81 4 -0.313788533286933 -8.725443164645313 -5.241238515413555 0 0 0
513 141 4 -8.94123746415088 -7.0128048282140485 -6.318418452516092 0 0 0
511 141 2 -9.08462844691199 -7.3398884254311945 -5.9684822490532214 0 0 0
512 141 4 -9.2280194296731 -7.66697202264834 -5.618546045590351 0 0 0
381 97 4 -9.28682172903283 -8.008196868477906 -5.827443327340389 0 0 0
312 74 4 -2.805393427004836 -7.314106993732662 -6.805994765024899 0 0 0
310 74 2 -2.9693927401253335 -7.774634398252409 -6.701024602682107 0 0 0
30 6 3 -2.6596121103771915 -6.956730476425043 -5.346790159199869 0 0 0
311 74 4 -3.133392053245831 -8.235161802772154 -6.596054440339316 0 0 0
26 6 1 -2.369867301370404 -7.213177420979574 -5.106617491557731 0 0 0
28 6 3 -2.043458211660941 -7.3876357074507135 -5.386477121437912 0 0 0
761 224 4 -1.9351016604287352 -7.551177868691579 -5.740078769545328 0 0 0
631 181 2 -2.731124495870981 -8.324652766663716 -5.013081689410836 0 0 0
29 6 3 -2.5995539328089126 -7.557651975204471 -4.897138774667286 0 0 0
521 144 4 -0.6872402460593976 -7.387318425925679 -5.567623473627496 0 0 0
762 224 4 -0.958493480172989 -7.645761488896654 -5.546971542737409 0 0 0
760 224 2 -1.4467975703008622 -7.598469678794117 -5.643525156141369 0 0 0
332 81 4 -0.6283368660057349 -7.806153715132802 -5.477810395395371 0 0 0
331 81 2 -0.4710626996463339 -8.265798439889057 -5.359524455404463 0 0 0
520 144 2 -0.4050968312372136 -6.975787355862268 -5.5998301786001825 0 0 0
393 101 4 -8.725239210992056 -6.650087045412415 -6.366368165964673 0 0 0
391 101 2 -8.865988461822619 -6.174236237447682 -6.427651580933139 0 0 0
339 83 4 -9.136310749832763 -5.371904176884685 -6.334093280347466 0 0 0
337 83 2 -8.811560116867668 -5.0650411726328946 -6.109655932719519 0 0 0
279 63 4 -5.134524673341477 -5.595918732628078 -6.097138261044235 0 0 0
277 63 2 -5.012003722501947 -5.278868706075161 -6.463836907439338 0 0 0
522 144 4 -0.12295341641502955 -6.564256285798856 -5.632036883572869 0 0 0
394 102 2 -9.350118550034864 -4.617796087826415 -5.213439163902266 0 0 0
395 102 4 -8.903533400921432 -4.527477270131559 -5.419362003242146 0 0 0
338 83 4 -8.486809483902572 -4.758178168381104 -5.885218585091571 0 0 0
363 91 4 -8.715204024801189 -4.497434496073176 -5.760877867607895 0 0 0
361 91 2 -8.648437182887218 -4.020905201983747 -5.896752886266595 0 0 0
362 91 4 -8.581670340973247 -3.5443759078943184 -6.032627904925296 0 0 0
546 152 4 -8.557614321339337 -4.716153753578908 -5.490879525481977 0 0 0
544 152 2 -8.143498077240888 -4.802796075816381 -5.224419689162615 0 0 0
372 94 4 -8.24444588262663 -3.4420118511627646 -6.167712890762828 0 0 0
733 215 2 -6.9480117082622215 -3.447119891851132 -5.208847800466019 0 0 0
611 174 4 -5.441251352172996 -3.6011843418736467 -5.8753631781395965 0 0 0
610 174 2 -5.591723528769218 -3.7102997594096374 -6.339531196993194 0 0 0
344 85 4 -5.485241521272238 -3.7840406738818775 -5.523741139434459 0 0 0
343 85 2 -5.897007050175501 -3.886982791287644 -5.259445718226764 0 0 0
735 215 4 -6.646979224008057 -3.8209367602587814 -5.068703616436763 0 0 0
401 104 4 -6.670449315552215 -4.161278965861097 -5.0431604328564426 0 0 0
345 85 4 -6.308772579078765 -3.98992490869341 -4.9951502970190695 0 0 0
729 213 4 -3.8692491497486072 -3.9130978482130234 -6.620270018863124 0 0 0
727 213 2 -4.186467029755913 -3.662981921296827 -6.325626438063379 0 0 0
308 73 4 -3.56159236028387 -4.1252355254868425 -6.651588183964946 0 0 0
307 73 2 -3.323523775705309 -4.264456229709035 -6.234525904979536 0 0 0
496 136 2 -3.083318749292194 -3.952610031758644 -5.061173674081823 0 0 0
498 136 4 -2.980680308486081 -4.172455566585467 -5.49836160996936 0 0 0
309 73 4 -3.0854551911267483 -4.403676933931227 -5.817463625994127 0 0 0
749 220 4 -8.827761282341367 -3.3010598061660352 -5.838906322470209 0 0 0
648 186 4 -8.59145850040787 -3.2177672386844427 -6.13779567681 0 0 0
748 220 2 -8.743925225843212 -3.0309412581904174 -5.426586682299487 0 0 0
646 186 2 -8.704698247281101 -3.1339658349055797 -6.617539446391518 0 0 0
750 220 4 -8.660089169345056 -2.7608227102147995 -5.014267042128764 0 0 0
370 94 2 -7.8281295638968835 -3.2721359900287217 -5.94902838156449 0 0 0
371 94 4 -7.411813245167137 -3.1022601288946787 -5.730343872366153 0 0 0
734 215 4 -7.2490441925163855 -3.0733030234434824 -5.348991984495275 0 0 0
417 109 4 -7.354805772225005 -2.792024342753428 -5.514258096002697 0 0 0
299 70 4 -7.291365326331639 -2.796257669955193 -5.098369933952251 0 0 0
415 109 2 -7.039612483009254 -2.4822545239971223 -5.748129534663221 0 0 0
298 70 2 -7.776169088152225 -2.763803229159947 -4.98042069996756 0 0 0
416 109 4 -6.724419193793503 -2.1724847052408167 -5.9820009733237445 0 0 0
289 67 2 -6.09119109889084 -2.0235200670877416 -6.548916037560546 0 0 0
291 67 4 -6.421866946246274 -2.2272289864367223 -6.234025326117455 0 0 0
728 213 4 -4.503684909763218 -3.4128659943806308 -6.030982857263634 0 0 0
445 119 2 -2.1662603392177044 -2.905104765620251 -5.553074914145073 0 0 0
446 119 4 -2.6194854408130013 -2.908471081455049 -5.764204436481023 0 0 0
447 119 4 -1.7130352376224076 -2.901738449785453 -5.341945391809123 0 0 0
644 185 4 -1.3711912474609735 -2.9001570471733835 -5.57068508643613 0 0 0
643 185 2 -1.1281264962113768 -2.694133337280009 -5.956008012904126 0 0 0
645 185 4 -0.8850617449617801 -2.4881096273866348 -6.341330939372122 0 0 0
597 169 4 -0.5464335861329987 -2.3047098598960067 -6.295636648105844 0 0 0
230 47 4 -1.260810817202826 -0.06891733253494337 -5.783311118282289 0 0 0
229 47 2 -1.128785024780837 -0.5194894022461439 -5.611398349322118 0 0 0
231 47 4 -0.9967592323588482 -0.9700614719573444 -5.439485580361947 0 0 0
234 48 4 -9.628221741926462 -9.107025137525959 -4.189313083576011 0 0 0
232 48 2 -9.16734488641802 -9.266108416347908 -4.078475208929695 0 0 0
233 48 4 -8.706468030909578 -9.425191695169858 -3.967637334283378 0 0 0
317 76 4 -8.513142702032134 -9.450919918491465 -3.6100044795539707 0 0 0
1404 438 4 -8.46611593185578 -9.693036194581014 -3.8484990769764895 0 1 0
428 113 4 -8.625041552146854 -9.786318285768012 -3.4662991724435277 0 0 0
2756 889 4 -9.844240462906496 -8.791279094334593 -4.020508466099219 1 0 0
2478 796 4 -9.823420897763418 -8.849413831274866 -4.395721481416853 1 0 0
1402 438 2 -8.225362905338097 -9.857781410393791 -4.254574185903048 0 1 0
2755 889 2 -9.826826826243805 -8.456005621092311 -3.6499838874295962 1 0 0
693 201 4 -3.8929971753331896 -8.878152854032285 -5.042858094287759 0 0 0
691 201 2 -4.086045613885022 -8.497990867337927 -4.781689251878704 0 0 0
23 5 3 -3.2270432341877187 -9.204925822942522 -4.434124227829608 0 0 0
478 130 2 -1.111423940064914 -9.199970414991869 -4.908821611298907 0 0 0
257 56 4 -1.852470097698028 -8.541385629471417 -3.634341121299327 0 0 0
479 130 4 -0.9247747587608746 -9.131770766181615 -4.450006952617773 0 0 0
2664 858 4 -0.5754215447011249 -9.240410528091871 -4.347750142621657 0 0 0
1428 446 4 -0.9121670589097967 -9.353186999387127 -4.19740545458669 0 1 0
258 56 4 -1.1093087684393799 -8.954902112364657 -4.1603785316326 0 0 0
256 56 2 -1.480889433068704 -8.748143870918037 -3.8973598264659635 0 0 0
1426 446 2 -0.9909872163504632 -9.797881530806029 -3.9828497357004577 0 1 0
403 105 2 -5.439619479873269 -6.755723977783139 -3.447489295327468 0 0 0
404 105 4 -5.152945442230439 -7.165234928337306 -3.4365907854431312 0 0 0
249 53 4 -5.048319677714274 -7.5447359867799015 -3.274581617996334 0 0 0
692 201 4 -4.2790940524368555 -8.11782888064357 -4.520520409469649 0 0 0
721 211 2 -4.7047248888317785 -7.613165253678467 -4.007108540332421 0 0 0
723 211 4 -4.468908480652375 -7.805669416755933 -4.403760489565909 0 0 0
722 211 4 -4.940541297011182 -7.420661090601001 -3.6104565910989335 0 0 0
27 6 3 -2.1672383418987167 -6.952972014252195 -4.785939068377535 0 0 0
698 203 4 -1.9332027274175716 -8.296146753497858 -3.3315284727478383 0 0 0
707 206 4 -2.5784554068054724 -7.647148491499552 -4.567009647782236 0 0 0
633 181 4 -2.797365908640203 -7.875485603057394 -4.803651666796131 0 0 0
706 206 2 -2.6184070352324578 -7.576928228158502 -4.073579833115097 0 0 0
708 206 4 -2.658358663659443 -7.506707964817453 -3.580150018447959 0 0 0
321 77 4 -2.8410013504395506 -7.256240696128529 -3.301764306979892 0 0 0
545 152 4 -7.729381833142439 -4.889438398053853 -4.9579598528432545 0 0 0
405 105 4 -5.7262935175160985 -6.346213027228972 -3.4583878052118044 0 0 0
419 110 4 -1.8010464972095597 -5.0466528625246 -3.5005253026498 0 0 0
396 102 4 -9.796703699148296 -4.7081149055212705 -5.007516324562387 0 0 0
443 118 4 -9.877617421563976 -4.638150501314239 -4.6228886124280315 0 0 0
402 104 4 -7.321930088090044 -4.919852156865959 -5.031348705538214 0 0 0
400 104 2 -6.996189701821129 -4.540565561363528 -5.037254569197328 0 0 0
676 196 2 -6.373655673895075 -3.873484994481707 -4.2641507756877886 0 0 0
677 196 4 -6.574834896012704 -3.9804844575218494 -4.709210362144294 0 0 0
678 196 4 -6.172476451777446 -3.766485531441565 -3.8190911892312833 0 0 0
375 95 4 -6.421660158259121 -3.9683492404341827 -3.597818875053468 0 0 0
510 140 4 -5.991258584820078 -3.470363255891446 -3.6417678946190795 0 0 0
378 96 4 -4.326311796953777 -3.7939680258834176 -4.208423931686519 0 0 0
376 96 2 -3.849831896363172 -3.663556934665999 -4.2856240069513465 0 0 0
377 96 4 -3.3733519957725666 -3.533145843448581 -4.362824082216175 0 0 0
497 136 4 -3.1859571900983066 -3.732764496931822 -4.623985738194286 0 0 0
543 151 4 -3.0070198811475746 -3.6122678809138664 -4.288259640199384 0 0 0
418 110 2 -2.2125504897227937 -4.816779926959225 -3.6673272739817433 0 0 0
541 151 2 -2.823075902966693 -3.928729352811526 -3.947647324369038 0 0 0
542 151 4 -2.6391319247858123 -4.245190824709185 -3.6070350085386913 0 0 0
420 110 4 -2.6240544822360277 -4.58690699139385 -3.8341292453136857 0 0 0
364 92 2 -9.864761651397554 -2.1657229629381214 -4.202235228859804 0 0 0
365 92 4 -9.51150724877181 -1.8298803207572105 -4.313684978606358 0 0 0
300 70 4 -8.260972849972811 -2.7313487883647007 -4.862471465982869 0 0 0
508 140 2 -5.650038207811131 -3.1064248915262027 -3.6751972418558316 0 0 0
509 140 4 -5.308817830802185 -2.7424865271609593 -3.708626589092584 0 0 0
434 115 4 -3.5788698457680774 -2.2151113837177236 -3.4659251768946753 0 0 0
433 115 2 -3.910185104724866 -1.852491469848172 -3.5593970830883412 0 0 0
614 175 4 -3.3385478607903813 -2.388415507258048 -3.7450842554738104 0 0 0
615 175 4 -3.140020249432112 -3.2923528488086307 -4.123877167337704 0 0 0
613 175 2 -3.2392840551112467 -2.8403841780333394 -3.934480711405757 0 0 0
601 171 2 -9.041835530122732 -1.8573102811959301 -3.534832337952995 0 0 0
603 171 4 -9.250631204701444 -1.8325800995725143 -3.9884762339711566 0 0 0
1757 556 4 -9.724470436893522 -1.508432443589668 -4.491706087865083 0 0 0
1756 556 2 -9.36793298156811 -1.158664952656841 -4.4683877423850635 0 0 0
1758 556 4 -9.011395526242698 -0.8088974617240139 -4.445069396905044 0 0 0
1775 562 4 -8.675539503394992 -0.5513860617026258 -4.45808478800922 0 0 0
775 229 2 -9.01765107838111 -0.28822348102144363 -3.854265719434133 0 0 0
777 229 4 -9.01159992291427 -0.46644963616004853 -4.321383286158161 0 0 0
1774 562 2 -8.218625666401369 -0.40462547098754514 -4.598409677380548 0 0 0
1776 562 4 -7.761711829407747 -0.25786488027246446 -4.7387345667518765 0 0 0
413 108 4 -5.325112980239916 -0.09675346310498409 -4.671217158493576 0 0 0
4 1 3 -5.194576105906666 -1.295873753044232 -4.145935052588125 0 0 0
2662 858 2 -0.07646661079705845 -9.251804007472844 -4.317515021313116 0 0 0
1435 449 2 -5.115833632124945 -0.440037339183875 -4.141412797582736 0 0 0
1437 449 4 -5.022907927199677 -0.8943713184973814 -3.954475779833336 0 0 0
5 1 3 -5.110579559213004 -1.6856440956308951 -3.5072460357858617 0 0 0
2 1 3 -4.52251041644781 -1.5710457551432941 -3.952265028285414 0 0 0
3 1 3 -4.8108340703105945 -0.9971204592955589 -3.5619072111359062 0 0 0
1 1 1 -4.912157587449949 -1.3885025755478515 -3.7896210314291645 0 0 0
436 116 2 -4.0959721104017675 -0.7376261346494591 -3.6366933439832767 0 0 0
438 116 4 -4.420860940467458 -1.1143909728832813 -3.686648371452117 0 0 0
435 115 4 -4.241500363681654 -1.48987155597862 -3.652868989282007 0 0 0
437 116 4 -3.771083280336078 -0.36086129641563747 -3.5867383165144364 0 0 0
1802 571 4 -3.449598654602741 -0.5199394018512752 -3.7728057975361815 0 0 0
1801 571 2 -2.951404598221498 -0.5260114697715116 -3.730784229532649 0 0 0
1803 571 4 -2.4532105418402548 -0.532083537691748 -3.688762661529117 0 0 0
316 76 2 -8.419163532195485 -9.102733295830216 -3.2636896063000385 0 0 0
399 103 4 -8.17344529132099 -8.435194461413932 -2.7647569909732024 0 0 0
318 76 4 -8.325184362358836 -8.754546673168967 -2.917374733046106 0 0 0
732 214 4 -7.944179645683382 -8.723934444666734 -2.769469066221388 0 0 0
730 214 2 -7.473811813334029 -8.602592536236676 -2.651019737184246 0 0 0
731 214 4 -7.003443980984676 -8.48125062780662 -2.532570408147104 0 0 0
606 172 4 -6.881452408844115 -8.288279414114962 -2.8763343092620297 0 0 0
441 117 4 -2.901653214620502 -9.947816916405001 -2.0970759650787754 0 0 0
425 112 4 -2.6432719049108524 -9.833695977966432 -1.8524635243926788 0 0 0
1701 537 4 -2.506932193014816 -9.89346918145006 -2.1967673231875504 0 1 0
699 203 4 -2.5352465606049592 -8.863177284271643 -2.769372266616615 0 0 0
1699 537 2 -2.358480486321017 -9.47059096913094 -2.4184339835699147 0 1 0
1700 537 4 -2.2100287796272178 -9.047712756811821 -2.640100643952279 0 1 0
697 203 2 -2.2342246440112654 -8.57966201888475 -3.0504503696822267 0 0 0
962 291 4 -3.04155090954885 -9.701162574399419 -1.8589165906650034 0 0 0
397 103 2 -8.494768494802512 -8.054556119635969 -2.7215614857373884 0 0 0
398 103 4 -8.816091698284035 -7.673917777858005 -2.678365980501575 0 0 0
2584 832 2 -9.57783777476746 -7.727562884394372 -2.791053302626086 1 0 0
2586 832 4 -9.165761750198612 -7.528981524468869 -2.5891652309978896 1 0 0
458 123 4 -9.284307635168837 -7.313008876463221 -2.2842400612819964 0 0 0
457 123 2 -9.147974862013683 -6.901614055237482 -2.034905595087877 0 0 0
604 172 2 -6.389361022530497 -8.235956145838962 -2.8048616353705524 0 0 0