LAMMPS data file via write_data, version 2 Aug 2023, timestep = 10000000, units = lj

15882 atoms
4 atom types
10748 bonds
1 bond types
6334 angles
2 angle types

-16.594292 16.594292 xlo xhi
-16.594292 16.594292 ylo yhi
-16.594292 16.594292 zlo zhi
4.263256414560601e-14 0 0 xy xz yz

Masses

1 1
2 1
3 1
4 1

Bond Coeffs # harmonic

1 100 0.5

Angle Coeffs # harmonic

1 100 180
2 100 109.471

Atoms # full

14377 4633 2 0 0.38425840346177864 -15.177343088975023 -15.336982792694759 8 1 1
13915 4479 2 0 0.573797052316511 -15.363346376501305 -16.42782959471347 8 1 1
15279 4933 4 0 1.8992166116825082 -16.431539462926242 -16.388057510926874 8 1 1
8664 2728 4 0 2.300124365380473 -15.331736504181439 -15.69461380857111 8 1 0
8663 2728 4 0 2.1782143585848566 -16.153284094358636 -16.335679780366675 8 1 0
8662 2728 2 0 2.234906003486298 -15.748791278591392 -16.015064559490376 8 1 0
15569 5030 4 0 2.2206549075182735 -15.1197572739019 -15.357939199324276 8 1 1
14217 4579 4 0 2.2512572262689865 -16.57284296914516 -16.35312026622787 8 1 1
9289 2937 2 0 5.262652802112026 -15.35871365013035 -16.39358246129035 8 1 0
9291 2937 4 0 5.692078530538456 -15.585287395806283 -16.160376801639853 8 1 0
10131 3217 4 0 5.848112622747909 -15.924968959649364 -16.060226130246242 8 1 0
9229 2917 2 0 5.869963498950561 -15.424766252261335 -15.425151896386854 8 1 0
9230 2917 4 0 5.975233725461802 -15.63583451763263 -15.8560937698766 8 1 0
8597 2706 4 0 6.078511247752498 -15.643454600808775 -16.23020814328401 8 1 0
10129 3217 2 0 6.080850135828992 -16.362874048568532 -15.98706958441992 8 1 0
6096 1872 4 0 7.801841072337471 -16.333429876855952 -16.260900686250395 -2 0 1
9443 2988 4 0 7.854396894614897 -16.459607098922508 -15.882373928662854 8 1 0
9442 2988 2 0 8.317697073257232 -16.43846413325801 -15.730292553668553 8 1 0
9444 2988 4 0 8.801266900021819 -16.429325505439174 -15.570674270305112 8 1 0
6069 1863 4 0 9.060024277517584 -16.35144704828676 -15.858448575773673 -2 0 1
6067 1863 2 0 9.206504567880888 -16.30846360116205 -16.348879466396696 -2 0 1
10691 3404 4 0 9.204745691233708 -16.44976812028372 -15.476356976577303 9 1 0
2764 762 2 0 10.837327476520489 -16.27926779337654 -15.094195341485248 -2 0 0
2638 720 2 0 -10.208646751170477 -16.554262823420725 -6.57646918512938 0 0 0
1274 265 4 0 12.560464155110239 -15.34742435786956 -16.486269532935967 -2 0 0
1273 265 2 0 12.996676261612212 -15.345221329569148 -16.256991585601554 -2 0 0
1275 265 4 0 13.436231022264966 -15.338035357702111 -16.02713224618296 -2 0 0
2919 813 4 0 13.733518243628456 -15.456308062702412 -15.765058304440482 -1 0 0
2917 813 2 0 13.881302994749586 -15.912466182930203 -15.655960532211228 -1 0 0
2918 813 4 0 14.041976657592851 -16.375259209350215 -15.54311960699042 -1 0 0
1688 403 4 0 14.430636178392664 -16.490905961557093 -15.546178061935812 -1 0 0
1687 403 2 0 14.91049506863175 -16.377406506096357 -15.681524197007823 -1 0 0
9701 3074 4 0 9.771202876021501 -0.0707013341338012 -6.430586234197213 6 0 0
1313 278 4 0 15.74214505537218 -16.448495518099374 -15.755714756086153 -1 0 0
1689 403 4 0 15.393013689665402 -16.273324849837238 -15.806463826319062 -1 0 0
3015 845 4 0 15.696201030897921 -16.23331589780223 -16.0900485919063 -1 0 0
3013 845 2 0 15.61951979149092 -16.468328555241644 -16.51022925393474 -1 0 0
3447 989 4 0 9.333021690985586 -1.3594192081431355 -6.48562827685681 6 0 0
13916 4479 4 0 0.7066845730861182 -15.045081308423185 -16.06102038780416 8 1 1
14379 4633 4 0 0.6861020471243187 -14.9376913233873 -15.682071494063209 8 1 1
15839 5120 4 0 1.0233575123126393 -14.892700463172744 -15.861170976543994 8 1 1
13633 4385 2 0 0.6520903625510925 -14.184937259014879 -16.179576216726172 8 1 1
13634 4385 4 0 0.723740985461859 -14.666114935438928 -15.98641895984433 8 1 1
15838 5120 2 0 1.4913463327008287 -14.9823825294779 -15.75380414038504 8 1 1
13635 4385 4 0 0.5833278578547194 -13.717246103075578 -16.382766199994155 8 1 1
15840 5120 4 0 1.9705731589813773 -15.08069600580091 -15.6543820355961 8 1 1
13577 4366 4 0 2.338359320747898 -14.9053522185007 -15.663058529010469 8 1 1
13576 4366 2 0 2.829109657416815 -14.764022590254717 -15.812779746451564 8 1 1
13578 4366 4 0 3.291729452164951 -14.644153943106106 -15.955145940158317 8 1 1
10644 3388 4 0 3.374052408197297 -14.897495171739541 -16.257831347053482 8 1 0
14928 4816 4 0 3.4245035714053778 -14.480822393938865 -16.28043146471035 8 1 1
10857 3459 4 0 3.5320715011438537 -14.354224224508808 -15.892302366531537 9 1 0
8582 2701 4 0 3.6502451435903147 -14.703103741624254 -16.072194299417657 9 1 0
10855 3459 2 0 3.7518728749438033 -13.989846454538048 -15.63820097454722 9 1 0
8581 2701 2 0 4.134934443366838 -14.818582098491905 -16.26157053045797 9 1 0
10856 3459 4 0 3.9935734725065792 -13.596922503064533 -15.368238154219895 9 1 0
9635 3052 4 0 4.382018697144179 -13.618760310875674 -15.392893897575211 9 1 0
8583 2701 4 0 4.588842371696867 -14.938218818123513 -16.44136840857819 9 1 0
9634 3052 2 0 4.881286806304438 -13.805680333561941 -15.439722541202775 9 1 0
9636 3052 4 0 5.3658135773127675 -13.986052989709066 -15.484006561025408 9 1 0
819 164 3 0 5.526275106576872 -14.221746826460947 -15.255636200989802 9 1 0
10518 3346 4 0 5.724246404598915 -13.88715927093766 -15.31263029218211 9 1 0
10106 3209 4 0 5.682100426454966 -14.179463052412025 -15.617199892610415 9 1 0
10105 3209 2 0 5.991657966047637 -14.046696217986506 -16.02226576465692 9 1 0
178 36 3 0 9.69554899864908 -0.03695119995211371 -8.667204464457448 6 0 0
10107 3209 4 0 6.3005349066374094 -13.911642645947751 -16.42537858188704 9 1 0
8522 2681 4 0 6.523840998189982 -13.612421825822228 -16.507553404986904 9 1 0
9367 2963 2 0 8.026504802831429 -13.700775188986782 -15.065342082672117 9 1 0
9479 3000 4 0 9.37282797357334 -13.31902481637246 -16.281654815432585 9 1 0
2371 631 2 0 10.054935054405647 -13.75753304941821 -16.390083439151514 -1 0 0
2373 631 4 0 10.428129445453031 -14.047200711375774 -16.249182787722923 -1 0 0
1694 405 4 0 9.312352021392218 -13.59481139439401 -16.563399732642168 -1 0 0
2130 550 4 0 11.723250326118528 -14.100029696714675 -16.356353410137178 -1 0 0
2128 550 2 0 11.243445101311188 -14.067133381814696 -16.424316363920585 -1 0 0
3120 880 4 0 12.0354023487041 -14.029654511923665 -16.14770010743286 -2 0 0
2646 722 4 0 12.070663787084165 -14.232394285173973 -16.506383868134744 -1 0 0
1952 491 4 0 13.58400618161723 -15.075598016535626 -15.796016053708545 -1 0 0
3118 880 2 0 12.229699636948975 -13.872174605984732 -15.690981462183291 -2 0 0
2096 539 4 0 12.268568007279185 -13.806650389098968 -14.917098630736492 -2 0 0
1951 491 2 0 13.683163548232603 -14.888196652441932 -15.322887858152727 -1 0 0
10010 3177 4 0 4.181735404518033 -13.247707744488139 -15.377317426305998 9 1 0
10009 3177 2 0 4.137828336511902 -12.982426255710084 -15.761350607294974 9 1 0
10011 3177 4 0 4.077359197586016 -12.687697642692838 -16.202575602573912 9 1 0
14837 4786 4 0 4.1914443776773 -12.507784196337816 -16.51812397988212 9 1 1
13779 4433 4 0 4.046869821504167 -12.875565984964178 -16.559552731572662 9 1 1
10896 3472 4 0 4.4080884248143235 -12.850862620134643 -16.35943790360626 9 1 0
9066 2862 4 0 4.186726066931769 -13.485007979459443 -15.05993546733951 9 1 0
10894 3472 2 0 4.762715654001731 -13.14169438935392 -16.590532761172607 9 1 0
8521 2681 2 0 6.933363369892028 -13.333542947882354 -16.5023518431454 9 1 0
8523 2681 4 0 7.351839656748819 -13.050374734043928 -16.483910296676267 9 1 0
9369 2963 4 0 8.331853839383367 -13.520342470980442 -15.389748689604101 9 1 0
3359 960 4 0 8.208990223672838 -13.270719952148134 -15.6827085511608 -1 0 0
9478 3000 2 0 9.002757872098993 -13.336487204591307 -15.962012404419603 9 1 0
9480 3000 4 0 8.596833283403473 -13.353088326514653 -15.618168375107315 9 1 0
3360 960 4 0 7.716505853052567 -12.947009494597987 -16.5391284549144 -1 0 0
9144 2888 4 0 7.4869756610847595 -12.694298506381886 -16.36154439089636 9 1 0
3358 960 2 0 7.955410668109529 -13.107487541383682 -16.11821470297568 -1 0 0
2372 631 4 0 9.674757101555592 -13.46377889471101 -16.522310502681464 -1 0 0
3119 880 4 0 12.409028275192231 -13.724993654243299 -15.275005727453621 -2 0 0
3558 1026 4 0 12.144385383248043 -13.506128079558852 -15.127483141902067 -1 0 0
13828 4450 2 0 6.121797821407835 -11.229407644320302 -16.09643324203675 9 1 1
13830 4450 4 0 6.326014065892831 -11.06254076894177 -15.6551435892554 9 1 1
10229 3250 4 0 6.6535050460480285 -11.111649109200279 -15.41811279374618 9 1 0
10228 3250 2 0 6.80897376065899 -11.54080288083893 -15.1978456379418 9 1 0
13829 4450 4 0 5.927876742894167 -11.39702087121839 -16.519848999666234 9 1 1
3200 907 4 0 5.732982476952376 -2.2356837861549383 -15.14072875010805 6 0 0
1794 438 4 0 5.477736324307834 -1.9482805838095594 -15.126018637536232 6 0 0
2923 815 2 0 8.87962467159344 -1.714017006429053 -15.186551273445904 6 0 0
10001 3174 4 0 12.601684743249105 -1.7247552479091492 -16.12284186856542 6 0 0
10145 3222 4 0 12.442849713934077 -2.07831756394261 -16.246995543086626 6 0 0
10278 3266 4 0 12.575077641896947 -2.006193925289793 -15.856703938736727 6 0 0
10276 3266 2 0 12.777637111646545 -2.3285214924263986 -15.537805296137568 6 0 0
10277 3266 4 0 12.982845265662203 -2.64667230381367 -15.210125376807795 6 0 0
2924 815 4 0 9.12590543954856 -1.4286655982390872 -15.532888802901612 6 0 0
9930 3150 4 0 9.412568431306731 -1.345949002399891 -15.774491185887738 6 0 0
9928 3150 2 0 9.81561841923417 -1.2449840764032363 -16.00627236341616 6 0 0
9929 3150 4 0 10.250028867954526 -1.14695904744155 -16.242109842569842 6 0 0
8921 2814 4 0 10.651223753482206 -1.0732740656603248 -16.32114843910841 6 0 0
8920 2814 2 0 11.10689601984966 -0.8961541168587903 -16.24047598837387 6 0 0
8922 2814 4 0 11.575611442305359 -0.7144112517918995 -16.159556037063453 6 0 0
2160 560 4 0 11.91401891850236 -0.6542283695234037 -15.996938489072107 6 0 0
3347 956 4 0 11.864658099295085 -0.6362427721132438 -16.412218476903906 6 0 0
10002 3174 4 0 11.850601570938089 -0.9876289865036618 -16.202583892658833 6 0 0
2158 560 2 0 12.011802932178163 -0.41609994699031816 -15.54232481579117 6 0 0
2159 560 4 0 12.111261313255891 -0.17740404833945078 -15.079147094500238 6 0 0
10000 3174 2 0 12.222846491113721 -1.355509858892086 -16.1620179477193 6 0 0
15047 4856 4 0 15.840027120119824 -0.07908825184837909 -16.26099413561151 6 0 1
15046 4856 2 0 15.891173507179555 -0.09394142649143689 -15.772894961170776 6 0 1
14378 4633 4 0 0.09056624653636902 -15.4135300377403 -14.996661985317433 8 1 1
8571 2697 4 0 0.051941124253716 -15.594604073167368 -14.647009410553894 8 1 0
8570 2697 4 0 0.7195865840480522 -16.32949662207569 -14.58385632098123 8 1 0
8569 2697 2 0 0.40289449940903665 -15.970039033393286 -14.612184185210326 8 1 0
14163 4561 4 0 1.1080595105328896 -16.273663198344234 -14.697805506033399 8 1 1
14161 4561 2 0 1.5770096303795818 -16.13894184722466 -14.627461751386498 8 1 1
14401 4641 2 0 2.6089503381340613 -16.457747052768838 -14.920299384786132 8 1 1
15568 5030 2 0 2.276817662659731 -15.397221547326021 -14.98380664990878 8 1 1
14162 4561 4 0 2.071234313854678 -15.9900611852521 -14.54788510140053 8 1 1
15570 5030 4 0 2.347594315873067 -15.72564550859802 -14.563892485740503 8 1 1
9720 3080 4 0 2.38337938905072 -16.023007420769815 -14.262575975961463 8 1 0
9718 3080 2 0 2.318254132643272 -16.337154437909746 -13.832110965193623 8 1 0
14402 4641 4 0 2.459859798966562 -16.081509414848718 -14.629465042553289 8 1 1
10794 3438 4 0 2.689604163911092 -15.81894869082741 -14.422942460129871 8 1 0
10792 3438 2 0 3.188339890135321 -15.744155226425798 -14.326356659748914 8 1 0
10793 3438 4 0 3.6886673796349534 -15.665280036857904 -14.23243824403343 8 1 0
9524 3015 4 0 3.940630894159039 -15.412185666948771 -14.42562531829478 8 1 0
9523 3015 2 0 4.394949456996478 -15.248504785119314 -14.596976168072985 8 1 0
10585 3369 2 0 5.1782419090282765 -16.339089223253282 -13.728300922151655 8 1 0
10185 3235 4 0 5.488713723585487 -15.646664826095332 -13.741134460633223 8 1 0
10183 3235 2 0 5.587316420128772 -15.407649081819459 -14.154973314189398 8 1 0
10587 3369 4 0 5.244897490699707 -15.867285592230497 -13.513244425632603 8 1 0
10184 3235 4 0 5.68913828249778 -15.16284019205243 -14.587135796695899 8 1 0
9231 2917 4 0 5.764137071082093 -15.225324326689591 -14.996070548178205 8 1 0
9525 3015 4 0 4.850046279762953 -15.085852798781268 -14.769012568371826 8 1 0
781 157 1 0 7.027414703463926 -16.38746325175804 -13.84849369110204 8 1 0
785 157 3 0 6.773237347134884 -15.981625143745621 -13.672138163261208 8 1 0
783 157 3 0 7.487552075719666 -16.248846750190754 -14.016601435590966 8 1 0
10337 3286 4 0 7.794200552864346 -16.255852461526196 -14.263537052120371 8 1 0
10336 3286 2 0 8.13836105454926 -16.29062993558956 -13.907262371063378 8 1 0
10338 3286 4 0 8.498006843512304 -16.322617451560358 -13.530422623391217 8 1 0
10240 3254 2 0 10.395608405406879 -16.305165813819627 -13.801762895398783 8 1 0
10242 3254 4 0 10.02931079832759 -16.56428407538853 -13.906174537183855 8 1 0
2765 762 4 0 11.138791080745449 -15.934023745237 -14.896331548313336 -2 0 0
2442 654 4 0 11.39351623948151 -15.658547231069129 -14.814321670977323 -2 0 0
9846 3122 4 0 11.07113987055886 -15.808390034451437 -13.801169813037783 8 1 0
9844 3122 2 0 11.511501951510116 -16.081546572560956 -13.795469691891427 8 1 0
10241 3254 4 0 10.7766983252043 -16.035792971549185 -13.69074420004295 8 1 0
2440 654 2 0 11.637171755094567 -15.301173441667423 -14.543395620307942 -2 0 0
9845 3122 4 0 11.953400625055572 -16.348786925253023 -13.788626602864081 8 1 0
1223 248 4 0 9.367231417321541 -1.4903805579275389 -6.109257268974707 6 0 0
9125 2882 4 0 12.317244172716865 -16.489279646163748 -13.72754031497016 8 1 0
2235 585 4 0 13.113771796015275 -15.321127837231288 -13.824424461200577 -2 0 0
9124 2882 2 0 12.644331715314824 -16.04899108356497 -13.725736664780264 8 1 0
1935 485 4 0 12.78497752611771 -15.284811980796386 -13.6017840203497 -2 0 0
9126 2882 4 0 12.937311214054304 -15.655424519257352 -13.723721999033748 8 1 0
2702 741 4 0 13.136393938691526 -15.424484938443568 -13.440518361195 -2 0 0
2457 659 4 0 14.58871230401552 -16.386123168990117 -14.005706880178945 -1 0 0
2455 659 2 0 14.770689321332323 -15.9233476174138 -14.103967689761024 -1 0 0
3279 933 4 0 14.877565432860617 -15.294840927910997 -14.552723569820685 -1 0 0
2432 651 4 0 14.368972418627802 -16.544382381489747 -14.283483645753389 -1 0 0
9700 3074 2 0 9.318842605793158 -0.23709095563783222 -6.682557543184355 6 0 0
2456 659 4 0 14.93896877203155 -15.4861623408566 -14.197333652256974 -1 0 0
10516 3346 2 0 6.083987480885323 -13.648195311180562 -15.044842270764402 9 1 0
817 164 3 0 5.0014434258904075 -14.7852507401413 -14.976476448093853 9 1 0
816 164 1 0 5.422148842192062 -14.549147775826615 -14.876729838045994 9 1 0
820 164 3 0 5.371425388729648 -14.29380085676366 -14.452165266385581 9 1 0
818 164 3 0 5.788077967566565 -14.876582185960048 -14.833779198685486 9 1 0
8506 2676 2 0 7.0486421806041974 -13.863794497161674 -14.533249888396254 9 1 0
8508 2676 4 0 7.443138071597954 -14.152995068818381 -14.557426982737333 9 1 0
8507 2676 4 0 6.646057253999771 -13.56572610007445 -14.499428524288094 9 1 0
9368 2963 4 0 7.7117866702195705 -13.889730421428364 -14.71880484586922 9 1 0
2441 654 4 0 11.872070830488052 -14.956694000114103 -14.269633282626698 -2 0 0
1934 485 4 0 12.024546093683774 -14.720161966021164 -13.959989772062446 -2 0 0
2233 585 2 0 13.439929278187524 -15.07946497403604 -14.135308434667724 -2 0 0
2097 539 4 0 12.108317947455244 -14.642429836571964 -14.33500602726688 -2 0 0
2095 539 2 0 12.184308882335717 -14.217821048253027 -14.63721094927847 -2 0 0
1933 485 2 0 12.396826540854196 -14.993706684891164 -13.785189833774925 -2 0 0
3277 933 2 0 14.481184999531127 -14.958687520835822 -14.588990647981829 -1 0 0
2234 585 4 0 13.75861517325583 -14.834101257602171 -14.463187408515997 -2 0 0
1953 491 4 0 13.790193968110891 -14.720860333218996 -14.84706693498034 -1 0 0
3278 933 4 0 14.086123441013285 -14.634466336584216 -14.617081067275773 -1 0 0
9064 2862 2 0 4.3851854688737895 -13.298812912465534 -14.63327470205521 9 1 0
9065 2862 4 0 4.622058077754993 -13.087473572457489 -14.187105730520274 9 1 0
10827 3449 4 0 5.985847529546742 -13.499784503506744 -13.530386059500355 9 1 0
9671 3064 4 0 4.72790192575772 -13.002368352109638 -13.795732104728968 8 1 0
9670 3064 2 0 5.1648851845067085 -13.192084831308557 -13.626433753817738 8 1 0
9836 3119 4 0 6.745275035553995 -12.182413930431066 -14.695737102645975 9 1 0
9835 3119 2 0 6.7435051732176845 -12.687514420625803 -14.654487072804459 9 1 0
10825 3449 2 0 6.202246888469112 -13.374539150992794 -13.983046031263202 9 1 0
10517 3346 4 0 6.440050406781744 -13.419868019338383 -14.792133616510165 9 1 0
10826 3449 4 0 6.413880734433743 -13.254051167876822 -14.426237302057585 9 1 0
9837 3119 4 0 6.727506671803862 -13.196492161464894 -14.624381143646008 9 1 0
9957 3159 4 0 10.605038421359584 -12.874625004356883 -13.703283641312751 9 1 0
9188 2903 4 0 10.720516805674528 -12.611346430073969 -13.427202673154495 9 1 0
9955 3159 2 0 11.012202494881418 -12.838292622103442 -14.01842702351375 9 1 0
9956 3159 4 0 11.404804466380217 -12.8223168422863 -14.333571313395648 9 1 0
3557 1026 4 0 11.703110224621323 -12.81343199770137 -14.600476037870935 -1 0 0
3556 1026 2 0 11.928431531931384 -13.157176144456585 -14.857078631073085 -1 0 0
10026 3182 4 0 10.772287118847714 -13.01404342742854 -13.385569847177917 9 1 0
10230 3250 4 0 6.95120165704019 -11.965626525852926 -14.986963314741246 9 1 0
9171 2897 4 0 9.452550788116994 -11.669360501390406 -14.379195056819116 9 1 0
9169 2897 2 0 9.585743393124023 -11.828339492554488 -13.918504035488285 9 1 0
10926 3482 4 0 12.060538776010507 -4.959277407856057 -13.939677993222421 6 0 0
2507 676 4 0 4.420859581248521 -4.254023311839569 -13.583628119145308 6 0 0
2870 797 4 0 4.670967954424391 -4.0142397042165925 -13.806408129663724 6 0 0
2869 797 2 0 5.009000018951468 -3.6546228966281618 -13.929526307196952 6 0 0
2871 797 4 0 5.359960528440848 -3.2995091666812346 -14.054297908634183 6 0 0
578 116 3 0 5.716088496024948 -3.208312852299608 -13.87722645903535 6 0 1
579 116 3 0 6.281868680690753 -3.5886128673945983 -14.382454874848433 6 0 1
576 116 1 0 6.213650290999006 -3.2383714679866653 -13.994002071485879 6 0 1
580 116 3 0 6.491835819405544 -3.385058880637354 -13.592871325397098 6 0 1
8982 2834 4 0 6.854423026098136 -3.5752444213942063 -13.642154796482128 6 0 0
8980 2834 2 0 7.307879046011681 -3.4908617794663392 -13.874704531926724 6 0 0
10631 3384 4 0 6.553472187853902 -3.741475213512782 -13.411647968256975 6 0 0
10791 3437 4 0 8.930747070501578 -4.000413629643685 -14.436109435939061 6 0 0
8981 2834 4 0 7.743318176788204 -3.3787423590388794 -14.111436682913894 6 0 0
1431 317 4 0 8.023688025537997 -3.162149612073236 -14.25016634476105 6 0 0
10790 3437 4 0 8.149966427488689 -3.5084042575003416 -14.092785982711066 6 0 0
1818 446 4 0 8.012770779089518 -3.2005342731629973 -13.859714080658183 6 0 0
10789 3437 2 0 8.553025884778926 -3.762244165184214 -14.263093234899134 6 0 0
2399 640 4 0 9.155310345318593 -4.270913479471673 -14.640345215209058 6 0 0
2398 640 2 0 9.590728549072491 -4.040442744026954 -14.663205102218509 6 0 0
2400 640 4 0 10.025566728099648 -3.8183247733517938 -14.674358299746695 6 0 0
2040 520 4 0 10.394350472457248 -3.727551763989574 -14.72681807937049 6 0 0
2979 833 4 0 10.13929263458888 -3.424438390069515 -14.617180775053887 6 0 0
2977 833 2 0 9.954417326852184 -2.971391895888253 -14.471998206973158 6 0 0
10924 3482 2 0 12.01868502572598 -4.467984673586237 -13.865086573516724 6 0 0
2038 520 2 0 10.843974034250405 -3.4714114172044557 -14.89149735692399 6 0 0
2039 520 4 0 11.30507557835988 -3.211837674793504 -15.057531801277296 6 0 0
9611 3044 4 0 11.544352504363722 -3.2329843774893714 -14.704107266315583 6 0 0
10925 3482 4 0 11.970055133517757 -3.9958247409614476 -13.789077307739046 6 0 0
9610 3044 2 0 11.761245852784313 -3.4206974800015963 -14.276022567386685 6 0 0
9612 3044 4 0 11.97986270827321 -3.6183356766377877 -13.848166226146967 6 0 0
8514 2678 4 0 12.327310332222613 -3.829125401933844 -13.766802253648164 6 0 0
8512 2678 2 0 12.797148200302765 -3.7341372474335284 -13.845551127633485 6 0 0
9278 2933 4 0 13.449459873150264 -3.414358983383231 -14.195896743905633 6 0 0
8513 2678 4 0 13.269708255853036 -3.6451773332601007 -13.925711435730832 6 0 0
8871 2797 4 0 13.61349006746595 -3.47417973246068 -13.807916973125845 6 0 0
8869 2797 2 0 13.637532436897978 -3.0720469898317067 -13.504262302746772 6 0 0
9277 2933 2 0 13.344892096360702 -3.101386567895304 -14.564576420310026 6 0 0
3314 945 4 0 5.381401049670952 -2.956625046278706 -13.859437150533646 6 0 0
3313 945 2 0 5.328344539823313 -2.5734925213214392 -13.54037779786653 6 0 0
1447 323 2 0 5.275980508442121 -1.49920430032412 -13.715798808780741 6 0 0
3199 907 2 0 6.016169968258314 -2.494720315092925 -14.854877949399725 6 0 0
1792 438 2 0 5.377589753671099 -1.5733492811353766 -14.819162825404701 6 0 0
3201 907 4 0 6.318309386908812 -2.770488499790474 -14.552528552200904 6 0 0
1220 247 4 0 6.568433335542121 -2.5066185311392175 -14.380797355179181 6 0 0
577 116 3 0 6.364345540857922 -2.801522615016202 -14.154441453396242 6 0 1
1219 247 2 0 6.621215945475587 -2.2075855094099595 -13.980008273260019 6 0 0
1221 247 4 0 6.675919387113495 -1.87049904169014 -13.540863503550684 6 0 0
2925 815 4 0 8.639776841880924 -1.9881876476538025 -14.837706051309523 6 0 0
1429 317 2 0 8.199365761750318 -2.704199538101225 -14.429076708688143 6 0 0
2438 653 4 0 8.457078542003938 -1.8243921492268118 -14.529460451440183 6 0 0
1430 317 4 0 8.38892846253523 -2.209826881292461 -14.612463074428303 6 0 0
2437 653 2 0 8.27201331514108 -1.6028014491131213 -14.136116689307139 6 0 0
9384 2968 4 0 8.742908398997852 -2.1318019610115577 -14.501713862277656 6 0 0
9382 2968 2 0 9.197051985843707 -2.2216737146931056 -14.251122019664502 6 0 0
9383 2968 4 0 9.631541695043918 -2.3163823860774713 -14.007251730518576 6 0 0
2978 833 4 0 9.772709589948448 -2.5280197763064542 -14.31561149052682 6 0 0
7509 2343 4 0 9.947453646779877 -2.1952708625590454 -14.19603419988828 6 0 1
7507 2343 2 0 10.402073928584429 -2.015581597095414 -14.357844136312968 6 0 1
3464 995 4 0 11.484712201806229 -2.8859958711101683 -14.909096819107265 6 0 0
7508 2343 4 0 10.834384602450015 -1.8397704981119425 -14.512526438183922 6 0 1
3463 995 2 0 11.317385849715624 -2.422261028193631 -14.820590641044719 6 0 0
6770 2097 4 0 10.977287092342795 -1.5924955907923692 -14.76150506877336 6 0 1
3465 995 4 0 11.15348613539134 -1.94404099076678 -14.733348505045068 6 0 0
10245 3255 4 0 12.953250793983706 -2.5039096786500092 -14.853471289705956 6 0 0
9279 2933 4 0 13.23253034924889 -2.77746602931178 -14.943726479033137 6 0 0
10243 3255 2 0 12.846872999985024 -2.182103457366596 -14.467873358233621 6 0 0
1701 407 4 0 12.77552363173601 -1.814475564551099 -13.672269607998992 6 0 0
10244 3255 4 0 12.734120064094068 -1.865501729751239 -14.068034617789198 6 0 0
8708 2743 4 0 12.527354226054882 -1.5843991689756418 -13.874370189266758 6 0 0
1699 407 2 0 13.07403130662912 -2.11933956575586 -13.404874922450576 6 0 0
2751 757 4 0 4.402379019902693 -0.3184887941150869 -14.895052917010617 6 0 0
2749 757 2 0 4.67728099623579 -0.6882337916731949 -14.639253404111122 6 0 0
2750 757 4 0 4.949384491313282 -1.04985581063079 -14.387005829168197 6 0 0
1793 438 4 0 5.27927468239352 -1.2116739886309738 -14.508578737610076 6 0 0
1449 323 4 0 5.187792230271324 -1.1936607178345255 -14.101895880178263 6 0 0
3161 894 4 0 5.302998687508978 -0.8704925729680859 -14.325973059991066 6 0 0
3160 894 2 0 5.7371358489771325 -0.6338360954618967 -14.243287120482938 6 0 0
3162 894 4 0 6.179003377297565 -0.38953996226013743 -14.171317098734878 6 0 0
1824 448 4 0 6.4146184124657495 -0.27363226825040954 -13.852399070194869 6 0 0
1553 358 4 0 6.355780571661356 -0.6793526429867605 -13.916355862858527 6 0 0
1552 358 2 0 6.5260492709116775 -1.0863012811408872 -13.662450899680852 6 0 0
2439 653 4 0 8.097893096721009 -1.376532506507715 -13.731710920973024 6 0 0
3366 962 4 0 8.081047941139563 -1.0976603730747545 -13.489948978959232 6 0 0
3057 859 4 0 8.296662911509411 -1.4151859261402802 -13.424353521707875 6 0 0
6769 2097 2 0 11.214418548424582 -1.3148810688990267 -14.434814672026338 6 0 1
3473 998 4 0 11.338621501628381 -0.8845939763746955 -13.69925283919206 6 0 0
6771 2097 4 0 11.4726557151699 -1.0068212311730775 -14.063032237717573 6 0 1
2676 732 4 0 11.561847861961063 -0.6518764267254156 -13.919942221479854 6 0 0
8709 2743 4 0 11.701801590338487 -0.9953500326179885 -13.751447966576018 6 0 0
2674 732 2 0 11.755087419772831 -0.3672991644029153 -14.307774749586848 6 0 0
2675 732 4 0 11.950724615135876 -0.06814439863933686 -14.71327854630906 6 0 0
3020 847 4 0 11.658492971468764 -0.6782274584411958 -13.541680498593593 6 0 0
3472 998 2 0 10.87678929714798 -0.9255490572145106 -13.447331699278143 6 0 0
8707 2743 2 0 12.118548786380366 -1.2952924472891088 -13.813925134170262 6 0 0
9258 2926 4 0 12.326463276667841 -0.02986359645591463 -14.79958813617064 6 0 0
2697 739 4 0 12.932161168792746 -1.5399312778692682 -13.920398608824883 6 0 0
2695 739 2 0 13.129941667668579 -1.1182951767441764 -14.106786815209011 6 0 0
9257 2926 4 0 13.21662886617062 -0.3011218637624751 -14.43227905291383 6 0 0
2696 739 4 0 13.345582771626567 -0.6877209952416194 -14.295295396591378 6 0 0
9256 2926 2 0 12.773510475702118 -0.16174077931157882 -14.61904472907036 6 0 0
9281 2934 4 0 13.415559214676563 -0.3544053052161438 -14.101585702373416 6 0 0
2731 751 2 0 14.860969858724719 -0.14947183856292767 -13.786458559234399 6 0 0
9280 2934 2 0 13.786354379416359 -0.2351697843106777 -13.784535511270192 6 0 0
2631 717 4 0 15.191222745479607 -0.5345543344728938 -14.356789837402049 6 0 0
2732 751 4 0 14.542910107591549 -0.12560286475873284 -13.414775254093637 6 0 0
2630 717 4 0 15.946911570863985 -0.215175818247058 -14.88396789758663 6 0 0
2733 751 4 0 15.199873419193931 -0.17402290603983062 -14.199051592197788 6 0 0
2629 717 2 0 15.554572039265604 -0.37603633355909594 -14.616630479152745 6 0 0
9990 3170 4 0 5.628471377335224 -15.852302931720086 -13.460324647324184 8 1 0
9294 2938 4 0 5.382282746350686 -15.541506438485692 -13.369057224385443 8 1 0
9292 2938 2 0 5.24136366833298 -15.180119546158958 -13.063576635013092 8 1 0
9988 3170 2 0 6.1563495608151655 -15.920096442179762 -13.374988319280968 8 1 0
10322 3281 4 0 6.939549725371489 -15.738966166720479 -13.371741264332051 9 1 0
9989 3170 4 0 6.637400510446447 -15.971613010884735 -13.296009640609736 8 1 0
672 135 3 0 6.879025841126026 -16.05637126447497 -12.188804392087636 8 1 0
675 135 3 0 6.911058252570456 -15.868670017753692 -12.996888392541262 8 1 0
10321 3281 2 0 7.003909015290812 -15.229108884268665 -13.376110803200044 9 1 0
671 135 1 0 7.188617382426525 -15.955208769212918 -12.594214773600404 8 1 0
10683 3401 4 0 6.503515043086747 -16.00421075505648 -12.056488235371484 8 1 0
673 135 3 0 7.473679528061304 -15.539544964520584 -12.486115363865894 8 1 0
9027 2849 4 0 7.431083503132697 -15.161888301402465 -12.591201133901508 8 1 0
10681 3401 2 0 6.326866898303237 -15.556252557857993 -11.96685302351078 8 1 0
674 135 3 0 7.48205818282154 -16.34899699895959 -12.680537120640109 8 1 0
9633 3051 4 0 6.788429027945742 -16.289352247063068 -11.899741447736677 8 1 0
9198 2906 4 0 8.786262541318298 -16.530910105951524 -13.398774746371785 8 1 0
8802 2774 4 0 8.426411151501895 -16.52223019912806 -13.201145560268754 8 1 0
9807 3109 4 0 8.668739097421959 -16.214385632959885 -13.195336746007282 8 1 0
10288 3270 2 0 8.765502089762489 -15.388438150630876 -11.937199102518637 8 1 0
9805 3109 2 0 8.938618396408195 -15.9903174511309 -12.794896619812073 8 1 0
9806 3109 4 0 9.186507701784326 -15.777253732848866 -12.421824872021151 8 1 0
2915 812 4 0 9.514789337843485 -15.718223084766803 -12.239726153497353 -2 0 0
10290 3270 4 0 9.157312769881639 -15.66157484755495 -12.04531112923965 8 1 0
8975 2832 4 0 9.263934673502856 -16.012613913659877 -12.127596382022737 8 1 0
2914 812 2 0 9.992528768201918 -15.577039607843096 -12.28094469205634 -2 0 0
2916 812 4 0 10.474376316684623 -15.43667126384759 -12.330375399791594 -2 0 0
8841 2787 4 0 10.974362064934912 -15.898317972247474 -13.391805200693026 8 1 0
8840 2787 4 0 10.82002773104852 -15.441796250540031 -12.500581453745276 8 1 0
8839 2787 2 0 10.891185500086866 -15.667046097166361 -12.940100639931302 8 1 0
10235 3252 4 0 10.781768385380758 -15.33708048222686 -12.154654813710556 8 1 0
2213 578 4 0 10.745224420842689 -15.709672023011167 -12.22406463175109 -2 0 0
2212 578 2 0 10.847366418521649 -16.19206044930665 -11.978936234231025 -2 0 0
2701 741 2 0 13.27800781291079 -15.23922313282723 -12.994622193649315 -2 0 0
2703 741 4 0 13.415194791452503 -15.041898466338615 -12.541215881243257 -2 0 0
2834 785 4 0 13.466777886623596 -15.003191551120544 -12.142388235943681 -2 0 0
2832 784 4 0 14.939639487959532 -15.20228112568491 -11.920439264756272 -1 0 0
3125 882 4 0 16.380411357842245 -16.326239135262593 -13.02394774559644 -1 0 0
2830 784 2 0 15.072766688325483 -15.67752143620219 -12.019628838773137 -1 0 0
148 30 3 0 16.11033758781488 -16.17284140098601 -12.779434905010543 -1 0 0
146 30 1 0 16.008281860425722 -16.165239146790388 -12.29660910839915 -1 0 0
150 30 3 0 15.521611955194164 -16.306483876111763 -12.223875594433345 -1 0 0
2831 784 4 0 15.187902555457153 -16.15291993916932 -12.108182669194159 -1 0 0
147 30 3 0 16.070688863426906 -15.683156880598998 -12.108815596062623 -1 0 0
1841 454 4 0 15.20813669490995 -16.560314261388488 -12.137234297101351 -1 0 0
149 30 3 0 16.297373807990294 -16.471919025157106 -12.059456323234667 -1 0 0
1802 441 4 0 15.401986425268415 -16.364034803780008 -11.854094154172042 -1 0 0
9176 2899 4 0 5.701504419100463 -13.722229617434142 -13.317984779481737 8 1 0
9177 2899 4 0 5.16538796496004 -14.407092494180656 -12.80058992340916 8 1 0
9293 2938 4 0 5.095640951103409 -14.808994486666602 -12.748082841070838 8 1 0