LAMMPS data file via write_data, version 2 Aug 2023, timestep = 9000000, units = lj

15729 atoms
4 atom types
10646 bonds
1 bond types
6283 angles
2 angle types

-16.594292 16.594292 xlo xhi
-16.594292 16.594292 ylo yhi
-16.594292 16.594292 zlo zhi

Masses

1 1
2 1
3 1
4 1

Bond Coeffs # harmonic

1 100 0.5

Angle Coeffs # harmonic

1 100 180
2 100 109.471

Atoms # full

2596 706 2 0 -16.084440298427197 -16.231739847282615 -15.337886133757864 1 0 0
10134 3218 4 0 -16.41333307901362 -15.448693620670216 -15.162527135253379 1 1 0
2598 706 4 0 -16.305563198324787 -15.793328088431513 -15.360020058568118 1 0 0
2607 709 4 0 -10.699906118405593 -16.35464212634548 -16.109037029683858 0 0 0
2605 709 2 0 -10.904169755777591 -16.027634764718574 -16.392127129076215 0 0 0
3254 925 4 0 -10.909495406944322 -16.517743064448304 -15.829033359999803 0 0 0
1746 422 4 0 -10.563314060123624 -16.31255818467306 -15.748765038082796 0 0 0
1744 422 2 0 -10.456082034480955 -15.924684641081233 -15.38841092956409 0 0 0
1745 422 4 0 -10.353906835534897 -15.5745900989236 -15.061326770875924 0 0 0
2168 563 4 0 16.515143408721624 -0.18251392362381114 -7.1906441424248255 0 0 0
7541 2354 4 0 -6.577811066111682 -15.208421216769173 -16.154426662205083 0 0 1
3142 888 2 0 -5.56976258252 -15.173501568487424 -15.087204480896315 0 0 0
6685 2069 2 0 -3.7922442523854296 -15.419023809023619 -16.44010347454851 0 0 1
8976 2832 4 0 -3.0736604031855346 -15.932589217431964 -16.4751743368041 0 1 0
6686 2069 4 0 -3.3908209736617367 -15.698379949177486 -16.55787981967732 0 0 1
6687 2069 4 0 -4.193789275537029 -15.140082862540659 -16.326088397142577 0 0 1
8974 2832 2 0 -2.7212482634429587 -15.907967335854607 -16.10764516918369 0 1 0
8975 2832 4 0 -2.370033230896604 -15.895500005465845 -15.728111936596429 0 1 0
8549 2690 4 0 -1.9906597656686351 -15.932848803354196 -15.820532154256101 0 1 0
3411 977 4 0 -2.0982466077710065 -15.946283207638352 -15.448087061518105 0 0 0
3409 977 2 0 -2.2404935897420026 -15.50247145014585 -15.137763826889756 0 0 0
8548 2690 2 0 -1.634842863784833 -15.823485042137166 -16.136405420219543 0 1 0
8933 2818 4 0 -2.164443182216637 -16.238267663147525 -15.6785907788151 0 1 0
8550 2690 4 0 -1.2800561830171746 -15.718498601497595 -16.44784738203815 0 1 0
10143 3221 4 0 -1.3189767714645262 -15.318070804225876 -16.444245408643933 0 1 0
8220 2580 4 0 6.335598741417182 -15.913381948583586 -15.522919191618135 0 0 1
8218 2580 2 0 6.515764829581222 -16.34104652418612 -15.738175088044535 0 0 1
2384 635 4 0 6.63272394097984 -15.65620198360905 -15.485770827018081 0 0 0
2383 635 2 0 6.621727777327593 -15.340779565040087 -15.079721791917816 0 0 0
8664 2728 4 0 16.49870656571611 -15.698276082641904 -15.298878446754332 0 1 0
8662 2728 2 0 16.014483082123128 -15.76426205928232 -15.144325656234166 0 1 0
8663 2728 4 0 15.55291373732157 -15.818045408395891 -14.983702638703065 0 1 0
10132 3218 2 0 -16.07039056264333 -15.1139882208933 -15.265131722927524 1 1 0
1550 357 4 0 -15.338273979066471 -14.792012855353851 -15.526071313464605 0 0 0
10133 3218 4 0 -15.71683433883462 -14.776056553418087 -15.38349962086686 1 1 0
2886 802 4 0 -15.466232536929281 -14.519451192844192 -15.265355850776311 1 0 0
1549 357 2 0 -15.039750303656223 -14.565383172192604 -15.834657625055454 0 0 0
1968 496 4 0 -14.3895008190594 -14.217504143465119 -16.335722253931827 0 0 0
1551 357 4 0 -14.729463831287639 -14.326142995515355 -16.1584930118133 0 0 0
3282 934 4 0 -14.736248155080903 -14.031950366873431 -16.418167467925088 1 0 0
1966 496 2 0 -13.927808154331826 -14.381248817680662 -16.34714295722013 0 0 0
1967 496 4 0 -13.451288068415542 -14.541065900825233 -16.34576666712547 0 0 0
3165 895 4 0 -13.089435331359685 -14.472335473923104 -16.204783862594596 0 0 0
3163 895 2 0 -12.74425860720647 -14.108892336709994 -16.181354336872477 0 0 0
3164 895 4 0 -12.384619830636282 -13.73381535996457 -16.158883876361397 0 0 0
6966 2162 4 0 -12.030273109261595 -13.687362498856846 -15.985212167097774 0 0 1
2947 823 2 0 -11.121633843271129 -14.927972328571775 -16.25749975035619 0 0 0
3103 875 2 0 -10.684584903940516 -14.858351711931313 -15.247484340291447 0 0 0
6964 2162 2 0 -11.633047835219312 -13.95136186069156 -15.851889378194203 0 0 1
2948 823 4 0 -11.128143159200626 -14.553538177282853 -15.899495979870451 0 0 0
6965 2162 4 0 -11.20814453317786 -14.241412280825886 -15.716385156829208 0 0 1
3105 875 4 0 -10.94833598835536 -14.51309649151897 -15.54848958581292 0 0 0
6794 2105 4 0 -10.829399279543791 -14.289233142471808 -15.834077879907353 0 0 1
6793 2105 2 0 -10.437893818112341 -14.062877548813248 -16.002525333906135 0 0 1
6795 2105 4 0 -10.031901053197036 -13.822448918043541 -16.17526250478234 0 0 1
2114 545 4 0 -8.915227563296684 -13.68085296919045 -15.64991377929557 0 0 0
1468 330 2 0 -8.212524291166515 -14.056750439396945 -16.045343083636546 0 0 0
1469 330 4 0 -7.830601531367478 -14.272175603023001 -16.303367612654483 0 0 0
3477 999 4 0 -7.512211369406931 -14.285371256395024 -16.52907004865528 0 0 0
1470 330 4 0 -8.592122228163118 -13.842433504638361 -15.802841953479502 0 0 0
3243 921 4 0 -8.551277215018713 -13.610735101708467 -15.496567728560551 0 0 0
3476 999 4 0 -6.696957457692988 -14.870898133023173 -16.34319214852795 0 0 0
3475 999 2 0 -7.1087942369018675 -14.583432949832266 -16.442917034867396 0 0 0
7540 2354 2 0 -6.150807935421371 -14.994279881043562 -16.02349449724615 0 0 1
7542 2354 4 0 -5.727985532217877 -14.78663809924288 -15.890605156132313 0 0 1
3144 888 4 0 -5.596940237961332 -14.893253639413956 -15.524280835638491 0 0 0
2046 522 4 0 -5.332421708452704 -14.72917682412811 -15.806138530740167 0 0 0
2044 522 2 0 -4.8985286501106975 -14.795078451344187 -16.022122107419726 0 0 0
2045 522 4 0 -4.446053303955732 -14.856054988661871 -16.261109166529636 0 0 0
2936 819 4 0 -4.061022003121312 -14.861603252652191 -16.090799946026706 0 0 0
2935 819 2 0 -3.875911161978827 -14.760908625136036 -15.58565733025273 0 0 0
1635 385 4 0 -4.131516766902203 -14.751232280574914 -16.455855632718926 0 0 0
1633 385 2 0 -3.986372950061304 -14.267628632351611 -16.55024238654184 0 0 0
2937 819 4 0 -3.719848955358384 -14.668739463358722 -15.120925123563552 0 0 0
3234 918 4 0 -3.4757869758080417 -14.405755546826084 -14.974432513588809 0 0 0
1606 376 2 0 11.801913256398308 -16.557413317604716 -6.9647266368563425 0 0 0
3492 1004 4 0 2.900475351151394 -14.217734113914984 -15.031874635912116 0 0 0
3490 1004 2 0 2.4228245509668533 -14.106269357624479 -15.050508470372794 0 0 0
3491 1004 4 0 1.953410346960978 -13.998072647203186 -15.077666274082715 0 0 0
1375 299 2 0 3.5518405589160342 -13.958698982490853 -15.56170644266408 0 0 0
1377 299 4 0 3.2097069882329143 -14.0277325649059 -15.182899487381231 0 0 0
7068 2196 4 0 3.953438478226572 -13.663663566525035 -16.245190830153494 0 0 1
1376 299 4 0 3.8893351267905296 -13.89535936385239 -15.937274035179334 0 0 0
6764 2095 4 0 4.231942695343886 -13.644454448479804 -15.96639144318 0 0 1
6209 1910 4 0 6.5884305769498805 -13.646982331886642 -15.22981273992172 0 0 1
1698 406 4 0 13.206730756923873 -14.302470005383483 -15.709233752577681 0 0 0
1696 406 2 0 12.800177725855777 -14.220556957332601 -15.412557803066171 0 0 0
1697 406 4 0 12.384187451905307 -14.138525055103706 -15.104801986748047 0 0 0
1722 414 4 0 13.608931321506734 -14.338435024869277 -15.701207922667011 0 0 0
1854 458 4 0 13.414826145317152 -14.31050030877349 -16.05225732884323 0 0 0
1852 458 2 0 13.589947549180144 -14.386944257558328 -16.53402706508076 0 0 0
1721 414 4 0 14.18749863042821 -14.83426112010409 -15.060766446880931 0 0 0
1720 414 2 0 13.891878043263079 -14.581014267818418 -15.380411817127817 0 0 0
2853 791 4 0 -13.878789003279513 -12.083816432527891 -15.261465547063388 0 0 0
2367 629 4 0 -13.798021011185861 -12.34426666291435 -15.556823665893935 0 0 0
2733 751 4 0 -12.154905423913332 -13.424290580119482 -16.25865912136982 0 0 0
2732 751 4 0 -12.834483252009472 -12.701244714478223 -16.367677488464356 0 0 0
2731 751 2 0 -12.500363162412354 -13.057795902864541 -16.316158141223003 0 0 0
2366 629 4 0 -13.110661644148372 -12.430279551189239 -16.300783076392683 0 0 0
2365 629 2 0 -13.446444764674668 -12.383134182774395 -15.930174666785598 0 0 0
1578 366 4 0 -12.785076179230622 -12.33108139109986 -16.482864886538163 0 0 0
2113 545 2 0 -9.386131461094195 -13.574150861830988 -15.81758858416855 0 0 0
2115 545 4 0 -9.860443576199076 -13.471393208880201 -15.994938168666817 0 0 0
3241 921 2 0 -8.394469892228452 -13.20778602523739 -15.248300345531769 0 0 0
6763 2095 2 0 4.3440477500906125 -13.186255731000175 -15.756620305928656 0 0 1
2243 588 4 0 4.3080040336018195 -12.411565278163518 -15.38050488820242 0 0 0
6765 2095 4 0 4.457327216199487 -12.735064879889842 -15.546017964457926 0 0 1
7964 2495 4 0 4.599439458992159 -12.600695005334975 -15.211000801401068 0 0 1
6208 1910 2 0 6.435131470049664 -13.60158972195569 -15.7225905556358 0 0 1
6210 1910 4 0 6.289264495564126 -13.541145000020371 -16.219541258261962 0 0 1
8014 2512 2 0 6.521441261548116 -12.728115782322382 -16.363727286005403 0 0 1
8015 2512 4 0 6.497362686173834 -13.245339139909296 -16.375456119563616 0 0 1
8016 2512 4 0 6.549802604664959 -12.189095561843603 -16.35982614343204 0 0 1
2757 759 4 0 6.356775934009732 -13.471320789908354 -14.929747569124762 0 0 0
3091 871 2 0 8.099454951093827 -12.724827441203983 -15.368035916247472 0 0 0
3093 871 4 0 8.33929792080139 -12.391869982617488 -15.690413403412968 0 0 0
2012 511 4 0 8.728512022675758 -12.443662891392593 -15.624922205692874 0 0 0
3092 871 4 0 7.85744816325938 -13.05116160612568 -15.05877911170842 0 0 0
2011 511 2 0 9.221853971692608 -12.522169237065711 -15.543661793706361 0 0 0
2013 511 4 0 9.70930757099167 -12.585060015482677 -15.463186224103525 0 0 0
3135 885 4 0 10.071377392923132 -12.461214041667137 -15.314829033900894 0 0 0
3133 885 2 0 10.441846459726813 -12.189582115081398 -15.117126663041988 0 0 0
1242 254 4 0 9.843515155409131 -12.723031736176374 -15.123188934671195 0 0 0
2709 743 4 0 12.282346105215371 -12.70518978435797 -15.089409771978419 0 0 0
1576 366 2 0 -12.427396014234036 -11.977110480318597 -16.513130571772464 0 0 0
1577 366 4 0 -12.093340492690771 -11.633761620076644 -16.550433856401376 0 0 0
6322 1948 2 0 4.135353984238088 -10.77110720791373 -15.706783718867547 0 0 1
6323 1948 4 0 4.441944393844945 -11.101298897508064 -15.55102206857503 0 0 1
2242 588 2 0 4.459803314984115 -11.941316860841527 -15.472405477904106 0 0 0
2244 588 4 0 4.602589116515038 -11.449877743447187 -15.54469186502775 0 0 0
2927 816 4 0 4.768561414321466 -11.130140962797249 -15.348364755245987 0 0 0
2261 594 4 0 4.7865600365201155 -11.15489270532402 -15.737997148681348 0 0 0
2260 594 2 0 5.016359683005197 -11.233883861666213 -16.146036725815936 0 0 0
2262 594 4 0 5.257324851131324 -11.311111092714734 -16.56386454589318 0 0 0
7684 2402 2 0 5.9528611774192814 -11.706785944337279 -16.503456310558274 0 0 1
6767 2096 4 0 6.797673307380718 -11.907279191334519 -16.229589920976125 0 0 1
6766 2096 2 0 6.979729213279516 -11.465891799630985 -16.044655623153737 0 0 1
6768 2096 4 0 7.160239213886419 -11.006406090562288 -15.867697110706965 0 0 1
7685 2402 4 0 6.422362163722562 -11.82263099680601 -16.33071506020732 0 0 1
3012 844 4 0 6.87419982571711 -10.727059396375921 -15.81575442701029 0 0 0
1653 391 4 0 13.244176613957283 -12.026613066385519 -14.998687468818051 0 0 0
1651 391 2 0 13.45490221296219 -11.996648692192654 -15.464127765110801 0 0 0
6348 1956 4 0 13.774711536940053 -11.934261651067121 -16.312315866800567 0 0 1
3352 958 2 0 13.74862496247706 -11.12719492458957 -16.138342146997946 0 0 0
1652 391 4 0 13.67167781791994 -11.967867673065813 -15.933494596815743 0 0 0
3354 958 4 0 13.741144075974445 -11.616353731479043 -16.072006021078163 0 0 0
3353 958 4 0 13.743559762313641 -10.638379561889062 -16.21151479034011 0 0 0
25 5 3 0 -8.753158494485227 -9.197689046720845 -16.109166304004557 0 0 0
6070 1864 2 0 -6.0735279396846735 -9.79316598952058 -16.36325249621133 0 0 1
6071 1864 4 0 -6.129947514178836 -10.243500084959969 -16.50448953591324 0 0 1
6072 1864 4 0 -6.013563588114147 -9.331131291625617 -16.215332595062346 0 0 1
2201 574 4 0 -5.844543327422301 -9.132186643239786 -15.924365079086302 0 0 0
1246 256 2 0 -3.4341028859981835 -9.784844696493447 -15.141037651700522 0 0 0
1248 256 4 0 -3.2797056241789844 -9.520024186694918 -15.519677779802903 0 0 0
1334 285 4 0 -3.133469875468221 -9.454994249574732 -15.889754224288177 0 0 0
2220 580 4 0 -3.296267550823035 -9.14761652212373 -15.666584519119274 0 0 0
1333 285 2 0 -2.9691601203522775 -9.508279470169224 -16.353101538923344 0 0 0
2674 732 2 0 -1.463200249062303 -10.508224944064233 -16.27782288145659 0 0 0
2675 732 4 0 -1.401946340516824 -10.516217700637993 -15.783127976342342 0 0 0
2832 784 4 0 -1.410519554322524 -10.447078819434825 -15.396950778961225 0 0 0
2195 572 4 0 0.37748913806304335 -9.779793551723548 -15.53218280956658 0 0 0
1632 384 4 0 0.22589621903656706 -9.674474362849104 -15.181020995110698 0 0 0
2194 572 2 0 0.2972030617971189 -9.434785383326867 -15.88324870556513 0 0 0
2196 572 4 0 0.21940155020930072 -9.098971958900183 -16.24605253174613 0 0 0
8972 2831 4 0 -4.604805470981638 -0.049061487895044706 -5.750947571149383 0 0 0
6324 1948 4 0 3.8094341284414033 -10.41882576964881 -15.867359214119858 0 0 1
7977 2499 4 0 3.4607658043109915 -10.450822303556148 -16.104124792246882 0 0 1
7975 2499 2 0 3.205609134058673 -10.332868689263424 -16.538334059506983 0 0 1
3010 844 2 0 7.127372273485169 -10.348133655515005 -15.594293901389666 0 0 0
3472 998 2 0 7.208906233126105 -9.234953862439292 -15.216945179137957 0 0 0
3011 844 4 0 7.382821523307618 -9.970948838881316 -15.365956623013995 0 0 0
3473 998 4 0 7.468151767749559 -9.598075218830362 -15.453105579362516 0 0 0
2515 679 2 0 8.25425573722152 -9.803136747796502 -15.329581659412684 0 0 0
2517 679 4 0 8.779609568347801 -9.736880750887147 -15.37645448371531 0 0 0
2516 679 4 0 7.7390090070519495 -9.851083225369225 -15.297122288545001 0 0 0
2096 539 4 0 13.577430682095931 -10.447436387554939 -16.510642899695668 0 0 0
6216 1912 4 0 13.668043041431476 -10.232654231096818 -16.220934212194333 0 0 1
6214 1912 2 0 13.939640607912235 -9.985597731437332 -15.90360289342748 0 0 1
6215 1912 4 0 14.227788663683725 -9.7256884592857 -15.560145179674004 0 0 1
7613 2378 4 0 14.130169523229494 -9.645920531426876 -15.170472520540132 0 0 1
1298 273 4 0 -10.897495192405078 -7.829305314804638 -16.12069134293789 0 0 0
1297 273 2 0 -10.869932751460157 -8.062448028731461 -16.554705169145805 0 0 0
3126 882 4 0 -9.216576386439204 -8.14948722974721 -16.039095763548897 0 0 0
3124 882 2 0 -9.50996931444488 -7.922857982879153 -15.688693224233052 0 0 0
1305 275 4 0 -9.38805962527451 -8.483440825774766 -16.22481652090075 0 0 0
3125 882 4 0 -9.785408332710057 -7.68103878844368 -15.342531101926564 0 0 0
23 5 3 0 -9.132069853605097 -8.501595121456539 -15.94914362127524 0 0 0
2753 758 4 0 -9.75434427809434 -7.6720373477678 -14.967105119862108 0 0 0
21 5 1 0 -8.73895884172747 -8.774302797877091 -15.83843548066496 0 0 0
24 5 3 0 -8.301280653012528 -8.508931771372268 -15.953094301409413 0 0 0
2330 617 4 0 -8.085061467080937 -8.167906890200227 -15.899548570870017 0 0 0
2329 617 2 0 -7.640261410027884 -8.303826067750867 -16.095518095116194 0 0 0
22 5 3 0 -8.74904409211635 -8.880441893025735 -15.333547097458272 0 0 0
2331 617 4 0 -7.216827246131054 -8.438442809276136 -16.286948451989492 0 0 0
3493 1005 2 0 -6.596092375250265 -8.806306229441471 -16.332720779223497 0 0 0
3494 1005 4 0 -7.009340248425543 -8.606180084947693 -16.58635557595861 0 0 0
3495 1005 4 0 -6.199404498699695 -8.9994413469233 -16.091323147702347 0 0 0
2200 574 2 0 -5.643074672803748 -8.841757514573555 -15.57866642175584 0 0 0
2202 574 4 0 -5.44460741082572 -8.559972015445952 -15.246164230630615 0 0 0
3480 1000 4 0 -5.047824681529787 -8.602591783479253 -15.184353556107718 0 0 0
3478 1000 2 0 -4.620798866275818 -8.385106884166174 -15.362260591269923 0 0 0
2218 580 2 0 -3.5703558409166463 -8.74997975741232 -15.575172765907158 0 0 0
2219 580 4 0 -3.8369332271974286 -8.353654712844333 -15.484672335986895 0 0 0
3479 1000 4 0 -4.167445958559111 -8.155608213561734 -15.535096190631029 0 0 0
2946 822 4 0 -3.8153512905422176 -7.960789103416388 -15.588103425252136 0 0 0
2944 822 2 0 -3.563220554589479 -7.676226666625695 -15.273420251402086 0 0 0
1513 345 2 0 0.48914744146161715 -8.285691985255866 -16.47099624062757 0 0 0
1514 345 4 0 0.3717348161525063 -8.790761304670546 -16.43460829010629 0 0 0
1515 345 4 0 0.6022913348427807 -7.8147992083744064 -16.495499635475667 0 0 0
7050 2190 4 0 5.786001304738777 -8.536061129990705 -16.496284904533265 0 0 1
3374 965 4 0 5.453717336071659 -8.754103466282567 -16.553439927785295 0 0 0
7048 2190 2 0 6.053799063931151 -8.22949895938891 -16.182671788368758 0 0 1
3601 1041 2 0 5.91517702587669 -7.566542035226228 -15.238176434385585 0 0 0
7049 2190 4 0 6.318606601953227 -7.922147243089814 -15.86597588236022 0 0 1
1280 267 4 0 6.466585369494038 -7.918466391709837 -15.489125307066834 0 0 0
1279 267 2 0 6.822132585732435 -8.230239930092415 -15.314148465913744 0 0 0
3602 1041 4 0 6.222172077132376 -7.652741296037118 -15.632039359091692 0 0 0
1775 432 4 0 6.578705292515486 -7.655444241084012 -15.77149831175633 0 0 0
3474 998 4 0 6.953281064658244 -8.838194194869844 -14.979418012092843 0 0 0
1281 267 4 0 7.172559104885735 -8.52659911582654 -15.144567854595456 0 0 0
1239 253 4 0 -10.036399915558315 -7.431823688243856 -15.142471351618845 0 0 0
1238 253 4 0 -10.502922860497124 -6.565571512591491 -15.106091839215267 0 0 0
3023 848 4 0 -10.237372391836203 -6.25881323132695 -15.238785253385561 0 0 0
1237 253 2 0 -10.27396123349863 -7.003627891446839 -15.126138387448258 0 0 0
3328 950 2 0 -0.4861741253386306 -6.265994363332407 -16.497170981792557 0 0 0
3403 975 2 0 5.294098683979845 -6.093104956507273 -15.241643514657115 0 0 0
1774 432 2 0 6.566480035371054 -7.247212079971621 -16.08559422338998 0 0 0
1776 432 4 0 6.557460708767748 -6.84058539822483 -16.386397923263324 0 0 0
2705 742 4 0 6.443969014545567 -6.474524452442541 -16.42751744384626 0 0 0
2704 742 2 0 6.1993039255116384 -6.186301202965371 -16.04973034442926 0 0 0
2800 774 2 0 7.2482485989784475 -6.464393574714324 -16.52611284315568 0 0 0
9259 2927 2 0 9.903695411762731 -0.014808631385125342 -8.677629034341193 0 0 0
177 36 3 0 8.619892361404204 -6.250966090936558 -15.892089138491109 0 0 0
2802 774 4 0 7.70884337734675 -6.3220908372316345 -16.45063283406521 0 0 0
178 36 3 0 8.099923347666511 -6.195794392673539 -16.546338439406465 0 0 0
180 36 3 0 8.73474352853516 -6.747926996768541 -16.556064520339927 0 0 0
176 36 1 0 8.585901582640231 -6.28600257003802 -16.408052419210495 0 0 0
2473 665 2 0 -11.129061019066643 -5.577645674584618 -16.33499155095811 0 0 0
2475 665 4 0 -11.654385841146862 -5.636362507308758 -16.29453106912999 0 0 0
2474 665 4 0 -10.611640153709011 -5.517609067232036 -16.36503077087549 0 0 0
3022 848 2 0 -10.361887638087945 -6.011695455447152 -15.658935213049256 0 0 0
3024 848 4 0 -10.475677332625231 -5.769129663548962 -16.083620046563585 0 0 0
6992 2171 4 0 -10.251937100688686 -5.4636512913754105 -16.19604503455731 0 0 1
6991 2171 2 0 -9.982732962744768 -5.050906460419285 -16.193697844676542 0 0 1
2409 643 4 0 -10.314477204569256 -5.752369399966142 -16.4261025696223 0 0 0
6993 2171 4 0 -9.70144776770157 -4.628142791178644 -16.177280254970697 0 0 1
2531 684 4 0 -3.9351249374018487 -4.7099023057460325 -15.386326821195894 0 0 0
2530 684 2 0 -3.5586342051857187 -4.844256326463875 -15.111034446558008 0 0 0
8162 2561 4 0 -3.96106949242836 -4.617131679258725 -15.768709958551794 0 0 1
3330 950 4 0 -0.4702043791738187 -5.805758369726732 -16.301644592650867 0 0 0
1329 283 4 0 -0.41030401258316074 -5.410456405054459 -16.353313062582455 0 0 0
1327 283 2 0 -0.8536334984482399 -5.167746817115372 -16.408379885578558 0 0 0
1328 283 4 0 -1.2975240453289023 -4.933785826537773 -16.450796246129627 0 0 0
3016 846 2 0 3.214551861659796 -4.7252865412419895 -16.135676782691544 0 0 0
1429 317 2 0 4.240295872376488 -4.613165094196211 -16.523934226457186 0 0 0
10050 3190 4 0 8.31874550984346 -0.14031559248146203 -8.684596440921906 0 0 0
3018 846 4 0 3.469097250783415 -4.913376447726021 -16.523157819217463 0 0 0
3350 957 4 0 -12.910448658543787 -16.519743154797894 -12.486701711291804 0 0 0
2706 742 4 0 5.9834574689413 -5.933392895754246 -15.714121666100569 0 0 0
3405 975 4 0 5.608588538021113 -5.932668039965326 -15.59163505462687 0 0 0
1388 303 4 0 7.893202616542034 -5.0094320025315096 -16.104957738332708 0 0 0
1389 303 4 0 7.819305145652329 -5.93109393209697 -16.436738298276627 0 0 0
1387 303 2 0 7.854497184981122 -5.476820483135585 -16.27641461655293 0 0 0
8484 2668 4 0 -10.192206933069174 -0.0528933822423891 -12.1027782459373 0 0 0
2716 746 2 0 9.20542822195624 -5.289574595864733 -16.535177376580172 0 0 0
2131 551 2 0 10.258305878224787 -4.7379509463818055 -16.107186093961754 0 0 0
2132 551 4 0 9.74007620572901 -4.785780616704372 -16.045703978106406 0 0 0
2718 746 4 0 9.45394715769418 -4.952514338100463 -16.257657790220588 0 0 0
6168 1896 4 0 9.396242401288255 -4.588587341597012 -16.116928557085327 0 0 1
2133 551 4 0 10.743543094953404 -4.690633505277385 -16.161854690518535 0 0 0
6234 1918 4 0 11.148630908539776 -4.726218678374368 -16.198038645886204 0 0 1
6232 1918 2 0 11.64455792090546 -4.746029854708381 -16.33662331785225 0 0 1
6233 1918 4 0 12.138782730957614 -4.767868452981843 -16.487924495540383 0 0 1
6741 2087 4 0 12.520427243522583 -4.66241255888138 -16.457390861827477 0 0 1
3161 894 4 0 -9.472358805818313 -4.39018060491818 -16.379530739873083 0 0 0
7627 2383 2 0 -9.934480283899518 -3.7585941324232586 -15.975316018276226 0 0 1
7629 2383 4 0 -9.75913675077938 -4.236803985646943 -16.139445313918934 0 0 1
1433 318 4 0 -9.441249693412013 -4.415274221330376 -15.99077812564413 0 0 0
7628 2383 4 0 -10.095869273523917 -3.309829127264809 -15.8369971031372 0 0 1
1432 318 2 0 -9.069609976767248 -4.3627266535654226 -15.649743176594283 0 0 0
48 10 3 0 -8.993370819788694 -3.2284881315688927 -15.200635186085194 0 0 0
1434 318 4 0 -8.695102364418261 -4.306263484049664 -15.306443703556015 0 0 0
46 10 1 0 -8.573174225903951 -3.482454301505397 -15.143979139949417 0 0 0
47 10 3 0 -8.293120936043758 -3.4215891308420976 -15.532606074280539 0 0 0
3468 996 4 0 -8.436813040002402 -4.3044115756396195 -15.009746576357593 0 0 0
49 10 3 0 -8.672856714142364 -3.967009955165258 -15.092009927385647 0 0 0
8161 2561 2 0 -3.7055516253471694 -4.311208650475745 -16.09681499706623 0 0 1
8163 2561 4 0 -3.4439085358663917 -3.9916984659393586 -16.426437309548064 0 0 1
1484 335 4 0 -2.2025901842488094 -4.021787859319541 -16.267335726763395 0 0 0
2227 583 2 0 -1.958103573551483 -3.8014544206334238 -15.536309587581666 0 0 0
2229 583 4 0 -1.9828883579999088 -3.768625795184404 -16.034683158477858 0 0 0
3245 922 4 0 -1.8082961999525782 -3.9709431802956514 -16.337879863718214 0 0 0
1483 335 2 0 -2.6937148969476277 -3.909353589827937 -16.43508300985202 0 0 0
3244 922 2 0 -1.58992920792535 -4.359163184822149 -16.56664000606784 0 0 0
2228 583 4 0 -1.9349489173258128 -3.834320062393732 -15.031384313850232 0 0 0
3017 846 4 0 2.9457376970739593 -4.527365271545472 -15.72516484539842 0 0 0
1836 452 4 0 2.9459205752800703 -4.2144573801871825 -15.463826917804845 0 0 0
1834 452 2 0 3.38122041553765 -4.178328928937516 -15.203782360172612 0 0 0
1680 400 4 0 4.184693818782073 -4.082067610626768 -15.111781245532812 0 0 0
1678 400 2 0 4.418452535764046 -4.1228854951531595 -15.566428863749017 0 0 0
1835 452 4 0 3.834381851352533 -4.137284079886064 -14.938005073482714 0 0 0
1431 317 4 0 4.68141163636479 -4.323440181130984 -16.392713024789035 0 0 0
1679 400 4 0 4.644526365755831 -4.1679129631596785 -16.01832497147407 0 0 0
1404 308 4 0 4.93823197580512 -4.072764026450226 -16.25430151351056 0 0 0
1402 308 2 0 5.413508315528622 -4.1322332234972485 -16.45733343793215 0 0 0
2174 565 4 0 7.4699701055995 -3.911744563907525 -15.963381560465434 0 0 0
8062 2528 2 0 6.667512669242213 -3.9662714361122684 -16.303415895127543 0 0 1
8064 2528 4 0 7.084941642786473 -3.8354796365221175 -16.01406047373672 0 0 1
3400 974 2 0 8.77722983894976 -3.11713022803972 -16.342718637813658 0 0 0
2173 565 2 0 7.795104025990078 -3.608369327937096 -16.228890886466665 0 0 0
3402 974 4 0 9.202967677844903 -3.2046778733030723 -16.0972589582375 0 0 0
6270 1930 4 0 9.326282835791105 -3.2681391138915767 -15.719158943105247 0 0 1
6166 1896 2 0 9.35752464144922 -4.067410080099635 -16.0289818297608 0 0 1
6167 1896 4 0 9.326581704342653 -3.592324417766475 -15.951314059279595 0 0 1
2659 727 2 0 10.04321776788066 -3.2250757481421077 -15.912818756914291 0 0 0
2661 727 4 0 9.562171970330397 -3.3206259485140577 -16.044626742395 0 0 0
6268 1930 2 0 9.23121487525101 -3.141591089225402 -15.204200779305756 0 0 1
1947 489 4 0 11.021400622458724 -4.35968384058197 -16.111737579980066 0 0 0
2660 727 4 0 10.54353604085092 -3.1184274315239877 -15.774763768772363 0 0 0
3138 886 4 0 10.703943254277606 -3.2452376943574106 -15.472041650250251 0 0 0
1946 489 4 0 10.774191455471467 -3.4220138272295153 -15.819000301735066 0 0 0
1945 489 2 0 10.904118081927907 -3.8927310756815117 -15.961917288911698 0 0 0
3513 1011 4 0 10.77899267793432 -3.106605352513122 -16.065734229382613 0 0 0
3117 879 4 0 10.955134059504864 -3.0879816805690905 -15.71858121949549 0 0 0
3136 886 2 0 10.577724786744078 -3.451861946623941 -15.000986183054298 0 0 0
6739 2087 2 0 12.72126787625164 -4.418246815890272 -16.05779732205616 0 0 1
6740 2087 4 0 12.906555260235853 -4.176675224944726 -15.665934666217204 0 0 1
1615 379 2 0 12.469527160166956 -3.586485116172252 -15.300931008311716 0 0 0
1616 379 4 0 12.685332157426707 -4.0475165540197455 -15.3594997190523 0 0 0
1617 379 4 0 12.25099326080906 -3.1373724325743435 -15.23917688628674 0 0 0
2248 590 2 0 -10.75518570542661 -1.6232669868475604 -16.066836289135423 0 0 0
7898 2473 4 0 -10.210617967761122 -2.995110955576229 -16.050193342363595 0 0 1
7897 2473 2 0 -10.146553836165355 -2.5326303917976087 -15.92252934187363 0 0 1
7899 2473 4 0 -10.060452898183858 -2.0624982265425107 -15.811265972504717 0 0 1
6081 1867 4 0 -10.007471359646358 -1.758334462300699 -16.027437901641 0 0 1
2249 590 4 0 -10.378196150638729 -1.8437159829056815 -15.824913116834583 0 0 0
15429 4983 4 0 -10.029879886409491 -1.7088306822373542 -15.6266521488422 0 0 1
6079 1867 2 0 -9.66393151050388 -1.6198661740306823 -16.393514335501088 0 0 1
6452 1991 4 0 -5.021435534712772 -1.713770255547328 -16.55329428359995 0 0 1
7903 2475 2 0 -2.4867765734115097 -2.111810324285582 -15.218097732605298 0 0 1
7904 2475 4 0 -2.327041467244539 -1.7206794275658446 -15.494987424149548 0 0 1
7905 2475 4 0 -2.6543060516421817 -2.5037981823642634 -14.94755853472023 0 0 1
7090 2204 2 0 -2.297473037377201 -1.631303430860143 -16.342737527848314 0 0 1
7091 2204 4 0 -2.1396667129141815 -1.688974063347715 -15.845599987092763 0 0 1
3115 879 2 0 11.437654998727291 -3.019829683043276 -15.528371742015269 0 0 0
3511 1011 2 0 10.905655834554162 -2.9441530499277353 -16.52442633461857 0 0 0
3116 879 4 0 11.908758452314112 -2.9565695766665856 -15.343790248279603 0 0 0
2580 700 4 0 12.25089710999325 -2.827547250793553 -15.494081532457509 0 0 0
2578 700 2 0 12.508017589185364 -2.457889063768344 -15.739654253996044 0 0 0
2579 700 4 0 12.77038034170823 -2.0616723861355823 -15.990966240987422 0 0 0
1290 270 4 0 13.047367664667872 -1.8328431582533986 -15.806235817435677 0 0 0
2099 540 4 0 12.17781754361534 -2.7796687877793587 -15.098635456774199 0 0 0
1554 358 4 0 -16.255808587649096 -0.28195023932002095 -15.56581856364072 0 0 0
3263 928 4 0 -15.866959888814614 -0.3038471574872314 -15.529673050181325 1 0 0
3262 928 2 0 -15.503942960484578 -0.4838688905808894 -15.270726098101061 1 0 0
9029 2850 4 0 15.914333969785512 -0.8813257688982168 -6.272695323185911 0 0 0
7908 2476 4 0 -16.03093403569304 -0.24656440775153898 -15.891038564551367 0 0 1
2250 590 4 0 -11.116067087019696 -1.4129690708870344 -16.293838485603484 0 0 0
13968 4496 4 0 -11.087744444796094 -1.0339864777772845 -16.15271667041163 0 0 1
13966 4496 2 0 -11.037919669941452 -0.59127102843523 -15.91518669842307 0 0 1
13967 4496 4 0 -10.980197578844944 -0.15523637127865889 -15.66967958679434 0 0 1
6864 2128 4 0 -11.256313457441237 -1.1103804624069633 -16.51972354265523 0 0 1
15427 4983 2 0 -9.864147184639688 -1.3575067246748944 -15.26171278116077 0 0 1
55 11 3 0 -9.735373066696615 -0.2225933581838051 -15.362789828887607 0 0 0
51 11 1 0 -9.362768011302462 -0.3515001546054847 -15.06954389144914 0 0 0
52 11 3 0 -8.991423154599604 -0.5737438223058418 -15.34575486608805 0 0 0
15674 5065 4 0 -5.3646540198202874 -0.3320554889642976 -15.828247600669352 0 0 1
1769 430 4 0 -5.291261443621447 -0.7115346621297647 -15.681401994142979 0 0 0
6188 1903 4 0 -5.08895646349477 -0.5906827405523435 -16.012875843018836 0 0 1
2490 670 4 0 -5.019792477261324 -0.42558015517863396 -15.654868353583257 0 0 0
1768 430 2 0 -5.699463967569018 -0.7628425121211017 -15.398607573118902 0 0 0
2488 670 2 0 -4.757076254460876 -0.19508195559615188 -15.314937613216513 0 0 0
6187 1903 2 0 -4.936652666930828 -1.009112725115911 -16.252369777972806 0 0 1
1288 270 2 0 13.133131105461826 -1.3537703395066378 -15.757607361096861 0 0 0
142 29 3 0 13.090547558138748 -0.5487608122014259 -15.921190318485843 0 0 0
1289 270 4 0 13.22726656746502 -0.8832876176562718 -15.706875184685057 0 0 0
7631 2384 4 0 13.369864632311709 -0.5068528058681253 -15.655176014017892 0 0 1
141 29 1 0 12.894069075710336 -0.33732755303663875 -16.334718163281643 0 0 0
145 29 3 0 12.53210434222529 -0.6496327916062753 -16.537465605441913 0 0 0
7630 2384 2 0 13.565106085751568 -0.20853536028123015 -15.321369014199874 0 0 1
10283 3268 4 0 -12.179309238078755 -16.45068319147209 -14.110621436673947 0 1 0
1203 241 4 0 -12.24931312820122 -16.40678214710711 -13.725128148029322 0 0 0
8591 2704 4 0 -11.902608005459726 -16.441868121699155 -13.845786903879507 0 1 0