LAMMPS data file via write_data, version 27 Jun 2024, timestep = 1500000, units = lj

12800 atoms
4 atom types
8800 bonds
1 bond types

-13.47 13.47 xlo xhi
-13.47 13.47 ylo yhi
-13.47 13.47 zlo zhi

Masses

1 1
2 1
3 0.5
4 0.5

Bond Coeffs # zero

1 0

Atoms # bond

1120 224 3 -8.762453125298913 -13.419997958258918 -12.613945449693531 1 0 0
1116 224 1 -9.2057606980663 -13.348070221520915 -12.53841534566317 1 0 0
1118 224 3 -9.413586173357023 -13.21421446908376 -12.931087230778044 1 0 0
1119 224 3 -9.260007280035206 -13.023053798250695 -12.211732574539065 1 0 0
85 17 3 -3.986267410683608 -13.372009246481273 -2.6639754031222247 0 0 0
5312 1504 4 -9.188091304540086 -12.62385859475943 -12.035354088118273 0 1 0
11318 3506 4 -7.509599492406869 -13.20608904635573 -12.799345933351828 1 1 0
1683 337 3 -13.295066124908535 -5.35070359376662 -1.8916354149631975 1 0 0
11050 3417 4 -13.287143579840086 -6.227780496566962 -11.768943521496151 1 0 0
11002 3401 4 -0.2431107417716025 -10.33623304248018 -1.0186134368233946 0 1 0
2427 543 2 -5.081520444547737 -12.563684901926042 -12.854565091111263 0 0 0
2428 543 4 -5.482573389252656 -12.817941058426616 -12.698007298506784 0 0 0
3044 748 4 -5.8528856312256545 -12.718433180713191 -12.640931523784898 0 0 0
5035 1412 4 -1.5686888022961885 -12.385738189463911 -11.97759820618522 0 1 0
5034 1412 2 -1.9367199349413515 -12.24249271436953 -12.284247548706954 0 1 0
5036 1412 4 -2.3047510675865146 -12.099247239275147 -12.590896891228688 0 1 0
3042 748 2 -6.112520889510353 -13.13974023420944 -12.712275054182426 0 0 0
2641 614 4 -8.919549122329734 -13.157335354423182 -8.866292293134299 0 0 0
2195 465 4 -0.007150935667284697 -5.363724315350637 -6.12371160376888 0 0 0
5540 1580 4 -7.1285573722264575 -0.06320122230760053 -8.159129540021176 0 0 0
2075 425 4 -9.183171850865733 -12.047800540000829 -12.784532795587873 0 0 0
2073 425 2 -9.118082631554286 -11.74266419576703 -12.393821642743363 0 0 0
2074 425 4 -9.05299341224284 -11.437527851533233 -12.003110489898855 0 0 0
2211 471 2 -7.491033568300673 -10.654095151785691 -12.061340825383299 0 0 0
1085 217 3 -6.60392978848596 -10.219880251909883 -13.141215576050069 1 0 0
7052 2084 4 -6.59409120845995 -10.634046909606498 -13.195108852152439 0 1 1
2212 471 4 -7.0917498437336475 -10.416185313879787 -12.245654189856484 0 0 0
7050 2084 2 -6.320984471417898 -10.958423048687257 -12.930169556129288 0 1 1
7051 2084 4 -6.047877734375845 -11.282799187768015 -12.665230260106137 0 1 1
4319 1173 4 -4.881992993689184 -11.19563878706456 -13.422646084686875 0 0 1
4317 1173 2 -4.788842158367114 -10.863618241572647 -13.060589073637448 0 0 1
7286 2162 4 -5.155784927648931 -11.481030457675027 -13.388655103998417 0 1 1
4318 1173 4 -4.695691323045044 -10.531597696080734 -12.69853206258802 0 0 1
10057 3086 4 -2.5534119479742925 -11.86001130120573 -12.79080294654231 0 0 1
5375 1525 4 -2.7552741128516476 -10.561809284173606 -12.413334875217908 0 1 0
289 58 3 -2.549832995716065 -10.590706433164577 -12.062722200674694 0 0 1
10056 3086 2 -2.6528794299670166 -11.547085400391369 -13.167875354211622 0 0 1
2122 441 4 -0.07565123946045904 -3.0251330787106006 -13.084499485713255 0 0 0
4681 1294 4 -12.570779360330986 -13.31010208939621 -2.060149057347318 0 1 0
796 160 1 -0.05135582091995661 -8.272690231423288 -0.0881267712710501 0 1 0
8811 2671 2 -7.658424957342927 -9.279055790463916 -13.288087523527917 0 0 1
4148 1116 4 -13.35130574886863 -9.62359022583242 -5.454654243237649 0 0 0
1081 217 1 -6.842202336317857 -9.947315496216476 -12.864928321723601 1 0 0
1084 217 3 -6.913373027396772 -10.157876932404704 -12.457621785658368 1 0 0
2020 407 4 -6.2782005179148115 -9.746505478758978 -12.93044361992656 0 0 0
1083 217 3 -6.613316226541879 -9.549032767143487 -12.799491203254405 1 0 0
8813 2671 4 -7.5953147649599835 -9.772207624586551 -13.234999180940868 0 0 1
1082 217 3 -7.249497072212497 -9.854824035602423 -13.05768808885813 1 0 0
2019 407 2 -5.778241387148821 -9.741543099363092 -12.934473800367007 0 0 0
303 61 3 -4.781567213824923 -10.288657418833152 -12.369580158063187 0 0 1
301 61 1 -4.718525487829195 -9.830427530012775 -12.406337603226824 0 0 1
304 61 3 -4.904674889942309 -9.67618779012525 -12.802391264656903 0 0 1
2021 407 4 -5.278282256382831 -9.736580719967206 -12.938503980807454 0 0 0
305 61 3 -4.273695487122499 -9.733418779304198 -12.395587126164852 0 0 1
2549 583 4 -3.9263671134470495 -9.660314588879173 -12.573862357056795 0 0 0
2547 583 2 -3.8616766354854564 -9.312704973440665 -12.927391277112532 0 0 0
5373 1525 2 -2.7237893049458055 -10.159993409039757 -12.709227946041496 0 1 0
5374 1525 4 -2.6923044970399634 -9.758177533905908 -13.005121016865084 0 1 0
8672 2624 4 -2.431870877702895 -9.513257072336746 -13.158287280036179 0 0 0
8670 2624 2 -2.1607771365747905 -9.178814417370043 -12.90401126060067 0 0 0
2845 682 4 -12.959242681639275 -8.877647668787471 -12.27343779553149 0 0 0
9441 2881 2 -12.32065954508078 -8.644244487728908 -12.642582076419192 1 0 1
9442 2881 4 -12.618359275696674 -8.727311475295672 -12.249549322099709 1 0 1
9443 2881 4 -12.022959814464885 -8.561177500162145 -13.035614830738675 1 0 1
3260 820 4 -10.926938370976952 -8.600476723219753 -12.6924730194264 0 0 0
1447 290 3 -11.01950837508841 -8.885763462073301 -12.966527789979967 1 0 1
1448 290 3 -11.630212630941793 -8.453555283562086 -13.038196488245035 1 0 1
1446 290 1 -11.3598367347095 -8.764642747435653 -13.251319608899408 1 0 1
3258 820 2 -10.807360477038316 -8.687869128635123 -12.214912871637038 0 0 0
3259 820 4 -10.687782583099679 -8.775261534050493 -11.737352723847676 0 0 0
3465 889 2 -8.324857344372989 -8.505448312746816 -12.354669893492954 0 0 1
3466 889 4 -8.14289009057204 -8.04218823999003 -12.30694124870357 0 0 1
4115 1105 4 -8.244162130984174 -7.626878176552975 -12.254856357421225 0 0 1
4113 1105 2 -8.38443158646001 -7.29729190417714 -12.603707857234355 0 0 1
7614 2272 2 -4.192896383600081 -8.315419029473679 -13.22945246832299 0 0 0
7615 2272 4 -3.76181403720411 -8.56416736292852 -13.181574736243213 0 0 0
2548 583 4 -3.7969861575238633 -8.965095358002158 -13.28092019716827 0 0 0
3055 752 4 -2.0512770567427054 -8.577281880599944 -12.421765899372566 0 0 0
8671 2624 4 -1.8896833954466863 -8.844371762403341 -12.649735241165162 0 0 0
3054 752 2 -2.2081992894109903 -8.432013386107107 -11.969800770847899 0 0 0
3292 831 4 -10.607382982482859 -7.207339675524462 -12.546261419866775 0 0 0
3291 831 2 -10.866196971156437 -7.516974705450613 -12.251064083311132 0 0 0
3662 954 4 -10.542565815233415 -6.158824490675337 -12.831387127846742 0 0 1
3660 954 2 -10.395207029374324 -6.625453132765125 -12.728707535856342 0 0 1
3661 954 4 -10.247848243515234 -7.092081774854914 -12.626027943865942 0 0 1
487 98 3 -8.499476696299206 -6.608626468347315 -13.087799425477556 0 0 1
489 98 3 -8.276799051448139 -5.894298975059198 -13.016729749693791 0 0 1
486 98 1 -8.20072944285417 -6.293777367277898 -13.240180927355967 0 0 1
4114 1105 4 -8.524701041935847 -6.967705631801304 -12.952559357047484 0 0 1
490 98 3 -7.7764144000304345 -6.4383778304271 -13.159884909457059 0 0 1
3878 1026 4 -3.0444706625056392 -5.8844300550625865 -12.979784310649096 0 0 1
7913 2371 4 -0.6949976872558861 -6.544929434325463 -12.639584169267433 0 0 0
7911 2371 2 -0.4474196180034333 -6.493851668724725 -12.208195526062424 0 0 0
2821 674 4 -12.1676362085739 -5.353924319682152 -13.08458872548111 0 0 0
2820 674 2 -12.488009695728158 -5.672598799290991 -12.870562080469671 0 0 0
2822 674 4 -12.808383182882416 -5.991273278899831 -12.656535435458233 0 0 0
352 71 3 -13.182152408090792 -5.949264238079459 -12.54003136385044 0 0 1
8283 2495 2 -0.10206442468322954 -0.695238672218917 -1.0984765785330577 0 -1 0
254 51 3 -10.611981878118371 -4.763167097605876 -11.738087519623004 0 0 0
251 51 1 -10.328051838141668 -4.663322717144563 -12.091237391616758 0 0 0
8557 2586 4 -10.476497560952835 -4.973030881813815 -11.415022640986209 1 0 0
253 51 3 -10.575990062532002 -4.56556609331032 -12.47106666824348 0 0 0
252 51 3 -10.062856693971522 -5.0292972840696795 -12.17687705458098 0 0 0
255 51 3 -10.063770763148485 -4.308688335666142 -11.982655768521772 0 0 0
6202 1801 4 -8.294250804237777 -5.914025491422151 -12.619162726241832 0 0 1
6201 1801 2 -8.090299091956513 -5.475551935478844 -12.49210116716086 0 0 1
6203 1801 4 -7.886347379675251 -5.037078379535537 -12.365039608079886 0 0 1
3946 1049 4 -7.514942675516538 -4.928906212416655 -12.27732964924255 0 0 1
2890 697 4 -7.092607440685265 -5.607285605539009 -10.953483656581298 0 0 0
2672 624 4 -5.2133177269059345 -5.657865728935132 -12.872765286165171 0 0 0
3972 1058 2 -5.638384948607316 -6.093967236407043 -12.463215129246311 0 0 1
3973 1058 4 -5.266400915234444 -6.045150833213512 -12.793737197639524 0 0 1
3877 1026 4 -3.2127742296113437 -5.043771009548839 -12.465035557861981 0 0 1
3876 1026 2 -3.1286224460584915 -5.464100532305713 -12.722409934255538 0 0 1
2692 631 4 -3.348405796114149 -4.659743229598593 -12.596642066308029 0 0 0
2691 631 2 -3.595489343817873 -4.233515330682569 -12.681962044272227 0 0 0
9698 2966 4 -0.4029712835518603 -5.746993564681916 -13.201722226095507 0 0 1
4651 1284 4 -11.022317433313 -1.6328714501712605 -13.340712848557741 0 0 1
379 76 3 -12.419740346028561 -5.130784097862234 -13.26965071389513 0 0 1
8285 2495 4 -0.4214486073710575 -0.32049049845321104 -1.011542407415286 0 -1 0
6112 1771 4 -1.2347522646551847 -0.1328762549430546 -12.634524434182062 0 0 1
8432 2544 4 -10.688211380534884 -4.612904563139601 -12.838732545560397 1 0 0
8430 2544 2 -11.076961228141323 -4.755396072047981 -13.119035463624067 1 0 0
8431 2544 4 -11.465711075747762 -4.897887580956362 -13.399338381687736 1 0 0
7043 2081 4 -9.544466663461074 -2.511657280290493 -12.444482566660207 0 0 1
7041 2081 2 -9.089150883733963 -2.7045341027568215 -12.370414543285417 0 0 1
3945 1049 2 -7.175593505971179 -4.562115057926385 -12.294833652117106 0 0 1
7042 2081 4 -8.63383510400685 -2.89741092522315 -12.296346519910626 0 0 1
9176 2792 4 -8.335688088855845 -2.724429514004199 -12.103871122740749 1 0 1
2707 636 4 -7.049608910526979 -3.904022960349911 -12.216381406389697 0 0 0
3947 1049 4 -6.836244336425819 -4.1953239034361145 -12.312337654991662 0 0 1
2706 636 2 -6.713937942615969 -3.533618446461529 -12.205178844509716 0 0 0
2708 636 4 -6.378266974704958 -3.1632139325731465 -12.193976282629734 0 0 0
3460 887 4 -6.264892715545958 -2.813911047801201 -12.0703555470198 0 0 1
2670 624 2 -5.138715240983521 -5.170695842436218 -12.957026610524192 0 0 0
2671 624 4 -5.064112755061107 -4.683525955937304 -13.041287934883213 0 0 0
2987 729 4 -4.987765225397035 -4.445325276833786 -13.382090561871623 0 0 0
3459 887 2 -5.898857900833036 -2.9410110470953454 -11.754342723549604 0 0 1
2693 631 4 -3.842572891521597 -3.807287431766545 -12.767282022236426 0 0 0
6393 1865 2 -12.20619680686217 -2.792417187985548 -12.411163111339174 0 1 1
6395 1865 4 -11.823608250558578 -2.471557567862122 -12.385180410178755 0 1 1
9111 2771 2 -11.290993961124272 -1.949867491567377 -12.707782025992994 1 0 1
9112 2771 4 -11.447020533530988 -2.351946304058729 -12.454822864766543 1 0 1
3019 740 4 -9.751395825569357 -2.629893017102353 -12.757215658078106 0 0 0
3018 740 2 -9.774760293772319 -2.55212565128199 -13.250577937178338 0 0 0
5462 1554 4 -0.3474494141779227 -2.1121027321771604 -5.763733971929298 0 0 0
9175 2792 4 -7.462910373853051 -2.361159458167891 -12.429898616562621 1 0 1
9174 2792 2 -7.899299231354448 -2.542794486086045 -12.266884869651685 1 0 1
3917 1039 4 -6.504349413111994 -2.1000620799488154 -13.198545037407506 0 0 1
6765 1989 2 -7.092185089738823 -2.5155947106798644 -13.032269698566292 0 0 1
6766 1989 4 -6.710084561243013 -2.396958173638331 -13.33214393587592 0 0 1
6767 1989 4 -7.474285618234633 -2.634231247721398 -12.732395461256665 0 0 1
4191 1131 2 -7.401905366652737 -1.3909894576063893 -12.486998125568594 0 0 1
3229 810 4 -3.967062582049584 -2.815096029649236 -11.910612616388043 0 0 0
4297 1166 4 -4.235081428845137 -3.0244860939784513 -11.683810421542326 0 0 1
3228 810 2 -4.035932975192678 -2.9010273542336718 -12.39833454167259 0 0 0
3230 810 4 -4.104803368335772 -2.9869586788181084 -12.886056466957136 0 0 0
2015 405 4 -1.8815980333517157 -2.0969181964546095 -12.915080620048258 0 0 0
11490 3564 2 -1.436511441758648 -1.7176598016634654 -12.249617751086944 0 0 1
11491 3564 4 -1.6517761699460136 -1.9854997472817142 -12.612829618086742 0 0 1
11492 3564 4 -1.2212467135712823 -1.4498198560452167 -11.886405884087148 0 0 1
11676 3626 2 -1.6665483603015625 -0.2577092661385932 -1.235592398101841 0 0 0
6861 2021 2 -11.513661094540947 -0.17231331323233742 -4.745207489549284 0 0 0
2013 405 2 -1.5691280016141502 -2.3725100000440675 -13.19150716917163 0 0 0
5965 1722 4 -12.774386117327381 -1.550165487115886 -12.346172975176891 0 0 0
5964 1722 2 -12.364366146137591 -1.2655218814405116 -12.316819253543802 0 0 0
9166 2789 4 -13.161635870225236 -0.7399104613566074 -13.093129712914852 1 0 1
5692 1631 4 -13.088668539502033 -0.6900331089507259 -12.688027309562328 0 0 0
3794 998 4 -0.13566893468561947 -4.448960237960304 -1.84719620464745 0 0 0
11728 3643 4 -7.1353589997780675 -0.1958600028956628 -4.389240344018227 0 0 0
2642 614 4 -9.657500933324773 -12.54910759659328 -9.158672386939786 0 0 0
3434 878 4 -11.712979929983687 -6.375291154585099 -13.354589418135276 0 0 1
12345 3849 2 -8.899618779217164 -0.17467491419283257 -13.072078323047167 0 0 1
12347 3849 4 -8.580200040511574 -0.555378315011022 -13.127183585673933 0 0 1
5859 1687 2 -10.67663882488389 -13.355429950740902 -11.249512684782603 0 1 0
8412 2538 2 -13.292928299701266 -6.530390657840486 -13.40245791619301 1 0 0
6529 1910 4 -7.03794758309809 -1.2897314519584648 -12.988206024916412 0 0 1
4192 1131 4 -7.417224834003856 -1.2506221010954153 -12.966646245700527 0 0 1
6528 1910 2 -6.5987969059248135 -1.1834837746399367 -13.202351101448404 0 0 1
3209 803 4 -5.349869019463399 -0.9766987595731922 -12.598257440177298 0 0 0
8426 2542 4 -5.054675353684757 -0.8392353826483246 -12.838570035061206 0 0 0
8424 2542 2 -4.741093198368562 -0.4537307719101805 -12.783321261619012 0 0 0
8425 2542 4 -4.427511043052367 -0.06822616117203639 -12.728072488176817 0 0 0
224 45 3 -1.5674238459682588 -0.02597452599303346 -12.848971654379643 0 0 0
3304 835 4 -11.263962399136258 -8.931952124870328 -0.21504631483656533 0 0 0
2791 664 4 -13.39697085354107 -13.349007505064277 -4.435463447543994 0 0 0
6111 1771 2 -0.9706107550832512 -0.5095677355500455 -12.438736816189065 0 0 1
11261 3487 4 -0.18292438137289213 -0.07510333903736596 -9.123302772540868 0 0 0
4825 1342 4 -11.02657364185798 -12.554606323425439 -10.952651940409531 0 1 0
4312 1171 4 -4.20243984796996 -2.5920440982055983 -12.970276002555517 0 0 1
378 76 3 -12.437429246142871 -4.371196742006982 -13.25192639056121 0 0 1
5310 1504 2 -9.075834196706172 -12.506907331060091 -11.562362815830914 0 1 0
5311 1504 4 -8.963577088872258 -12.389956067360753 -11.089371543543555 0 1 0
12137 3779 4 -8.718610101818376 -12.402409187326908 -10.746302815295447 1 1 1
12135 3779 2 -8.450243459497466 -12.793768004289493 -10.588766718877054 1 1 1
5956 1719 4 -4.741523114393514 -13.136497892887798 -11.506610216103052 0 1 0
3647 949 4 -4.372156138210465 -13.286212499613052 -11.484686049882797 0 0 1
3646 949 4 -3.578590620844819 -12.71472972176616 -11.693638686316344 0 0 1
3645 949 2 -3.975373379527642 -13.000471110689606 -11.58916236809957 0 0 1
3134 778 4 -3.282771985007739 -12.656507346445169 -11.954759393712713 0 0 0
3132 778 2 -2.8595712890473153 -12.836305925734601 -11.758357657915628 0 0 0
6197 1799 4 -1.2361850775333592 -12.539504330773415 -11.82811753619894 0 0 1
6195 1799 2 -1.3175560109442173 -12.354803994735143 -11.37066310451927 0 0 1
6196 1799 4 -1.3989269443550754 -12.17010365869687 -10.9132086728396 0 0 1
11598 3600 2 -13.416731464817865 -6.341951157087801 -8.046666033441864 1 1 1
7843 2348 4 -13.224605780211096 -10.830520889771762 -11.04158059611979 1 0 0
7842 2348 2 -13.13613178368853 -11.069416935211956 -10.611346902166828 1 0 0
4812 1338 2 -3.6643371703146066 -13.428066650181503 -8.179293915594448 0 1 0
3102 768 2 -9.069954485565663 -10.96859013845527 -10.587027057754911 0 0 0
3168 790 2 -10.131818220834438 -11.292639299228144 -10.606964647723228 0 0 0
3169 790 4 -9.73539816781888 -11.107144194286093 -10.36521538172728 0 0 0
50 10 3 -8.275557124533679 -10.981140086449654 -11.851834474486052 0 0 0
49 10 3 -8.963713433537972 -11.237071232560902 -11.684980817565462 0 0 0
2213 471 4 -7.890317292867699 -10.892004989691596 -11.877027460910114 0 0 0
48 10 3 -8.593661939202374 -10.786082797040388 -11.197875774923986 0 0 0
3103 768 4 -8.771749625461686 -10.683077609177687 -10.86908459981999 0 0 0
46 10 1 -8.66910010193947 -10.880744256868784 -11.64581359608448 0 0 0
2674 625 4 -3.032357143206484 -10.397653176426358 -11.434461534356547 0 0 0
2673 625 2 -3.482730126937092 -10.337966548226788 -11.225651376702038 0 0 0
4273 1158 4 -1.6969831406431017 -11.879484166601813 -10.93153383171618 0 0 1
4272 1158 2 -1.9343640926311265 -11.452312866709287 -11.037245534859018 0 0 1
290 58 3 -2.2059020189284944 -11.019054601102393 -11.547815092323868 0 0 1
4274 1158 4 -2.1717450446191515 -11.02514156681676 -11.142957238001856 0 0 1
4590 1264 2 -8.856559582694652 -9.729612201806376 -12.133085377415862 0 0 1
4591 1264 4 -9.023088722166284 -10.187348819637194 -12.020190583896657 0 0 1
4592 1264 4 -8.690030443223021 -9.271875583975557 -12.245980170935066 0 0 1
47 10 3 -8.855255231304318 -10.511115769971283 -11.84661461571591 0 0 0
5753 1651 4 -8.114920269967048 -9.241528191946554 -10.256813394866711 0 1 0
11848 3683 4 -8.352804787445379 -8.967046411815906 -10.47422750696714 1 1 1
302 61 3 -4.92746695964 -9.622762502753794 -12.05304070568755 0 0 1
11429 3543 4 -4.919621792169789 -9.564289337666205 -11.618160413713415 0 1 0
11427 3543 2 -4.539461794051397 -9.765339300262077 -11.363097111039515 0 1 0
11428 3543 4 -4.159301795933006 -9.96638926285795 -11.108033808365615 0 1 0
2675 625 4 -3.9331031106676995 -10.278279920027218 -11.016841219047526 0 0 0
286 58 1 -2.351322807378518 -10.598200962438687 -11.643392333914491 0 0 1
288 58 3 -2.6553122325175726 -10.45886814564568 -11.321714240833641 0 0 1
287 58 3 -1.992547135771403 -10.310312103908133 -11.643542656294828 0 0 1
8978 2726 4 -2.700008073746436 -9.1540627127442 -10.916404831364636 0 0 1
2885 695 4 -1.7876267137678319 -10.025686817248474 -11.512670142504781 0 0 0
2883 695 2 -1.4966703658961062 -10.113924473727602 -11.115733724910957 0 0 0
8976 2726 2 -2.534118949717317 -9.450248764328173 -10.549315439831624 0 0 1
3433 878 4 -10.89552892960245 -5.993995346408916 -12.922863383891563 0 0 1
2884 695 4 -1.205714018024381 -10.202162130206732 -10.71879730731713 0 0 0
10146 3116 2 -0.23578537718470574 -9.178069565237239 -10.808663590574708 0 1 0
10147 3116 4 -0.6206639316835008 -8.911762054180432 -10.632740857985446 0 1 0
8138 2446 4 -0.8149749169985485 -10.326454707396566 -10.696541865024852 0 0 0
6761 1987 4 -10.58055856290528 -0.03222678588297778 -11.033493499405102 0 0 1
3769 990 4 -10.28320344721175 -8.682720616862149 -11.683477228189334 0 0 1
3293 831 4 -11.125010959830016 -7.826609735376763 -11.95586674675549 0 0 0
3768 990 2 -10.022479759089444 -8.351862507036296 -11.414114889295359 0 0 1
3770 990 4 -9.761756070967138 -8.021004397210444 -11.144752550401384 0 0 1
8678 2626 4 -9.64849102186918 -7.640033129546302 -11.084367131611847 1 0 0
8676 2626 2 -9.251400523958274 -7.34082985412463 -11.137249420195225 1 0 0
3467 889 4 -8.506824598173937 -8.968708385503602 -12.402398538282338 0 0 1
11847 3683 2 -8.70854562702811 -8.674291061318517 -10.2799525476746 1 1 1
11849 3683 4 -9.064286466610842 -8.381535710821128 -10.085677588382062 1 1 1
1230 246 3 -5.926703629616769 -8.052772924626401 -10.04174610853789 1 0 0
3056 752 4 -2.365121522079275 -8.28674489161427 -11.51783564232323 0 0 0
185 37 3 -2.4636118968188403 -8.066478851373278 -11.20859508568348 0 0 0
183 37 3 -2.6107955349089518 -8.798751375808116 -11.113653384428677 0 0 0
181 37 1 -2.5220801868499496 -8.396429619536914 -10.900189590192001 0 0 0
8239 2480 4 -1.8214530182192732 -8.621389957717163 -10.832990121103336 0 0 0
182 37 3 -2.1375474238818595 -8.441513266285865 -10.65179067916333 0 0 0
184 37 3 -2.87228228409466 -8.287286449515836 -10.616030727012532 0 0 0
8238 2480 2 -1.385714869007047 -8.747243897322761 -10.622530977308573 0 0 0
8240 2480 4 -0.949976719794821 -8.873097836928359 -10.41207183351381 0 0 0
5238 1480 2 -3.553036616432126 -13.422323239022258 -5.653241603393097 0 1 0
11051 3417 4 -12.568469378048205 -5.882165142471536 -11.165571812935042 1 0 0
2795 665 4 -10.930971795908803 -7.692440516319411 -11.622728227467258 0 0 0
2793 665 2 -10.98091945765122 -7.907302009037385 -11.17401922373158 0 0 0
2794 665 4 -11.030867119393637 -8.12216350175536 -10.725310219995903 0 0 0
8531 2577 4 -8.525531089695209 -7.130866185852419 -11.423110113161542 1 0 0
2889 697 2 -7.5338736731037645 -5.839330009423311 -10.991424488851688 0 0 0
8677 2626 4 -8.854310026047369 -7.0416265787029575 -11.190131708778603 1 0 0
2891 697 4 -7.975139905522264 -6.0713744133076135 -11.029365321122079 0 0 0
8530 2577 4 -8.316641220767538 -6.1673468609408415 -11.255791455561866 1 0 0
8529 2577 2 -8.421086155231373 -6.64910652339663 -11.339450784361704 1 0 0
3036 746 2 -6.461682856504161 -5.709231168686945 -11.574289232799536 0 0 0
3038 746 4 -6.742628503824969 -5.597483270316152 -11.17606573969393 0 0 0
8422 2541 4 -6.764852202313374 -7.214191957365892 -10.22185035143747 1 0 0
11432 3544 4 -12.205662851588539 -5.91953275776811 -10.991817737559089 1 0 0
11430 3544 2 -11.708323947552731 -5.970352323171007 -10.983368695901992 1 0 0
11049 3417 2 -12.927806478944145 -6.054972819519249 -11.467257667215597 1 0 0
4117 1106 4 -12.671301174668079 -4.544573207696043 -10.577008809265832 0 0 1
11431 3544 4 -11.210985043516922 -6.021171888573905 -10.974919654244896 1 0 0
8556 2586 2 -10.692404419563205 -5.407927777789537 -11.295653808053334 1 0 0
8558 2586 4 -10.908311278173576 -5.842824673765258 -11.17628497512046 1 0 0
3037 746 4 -6.180737209183352 -5.820979067057738 -11.972512725905142 0 0 0
3974 1058 4 -6.0103689819801875 -6.142783639600576 -12.132693060853098 0 0 1
3656 952 4 -0.41333537931257597 -5.05221570542391 -10.911347038119349 0 0 1
3654 952 2 -0.4409042328790894 -5.413871999768229 -10.567189104788955 0 0 1
3130 777 4 -0.3523079753371017 -5.15572193634609 -11.311166527022031 0 0 0
4118 1106 4 -12.885027193097661 -4.419436650164167 -11.545854530221446 0 0 1
4116 1106 2 -12.77816418388287 -4.482004928930105 -11.061431669743639 0 0 1
2495 565 4 -12.955685392781623 -4.0619173737221725 -11.725881146601965 0 0 0
2493 565 2 -12.751711261617828 -3.7868656993385037 -12.09021770836152 0 0 0
9205 2802 4 -10.84894960763088 -3.485103842410874 -10.397629480830958 1 0 1
9204 2802 2 -10.39266869127138 -3.6890289841636057 -10.412537932366975 1 0 1
9206 2802 4 -9.93638777491188 -3.8929541259163374 -10.427446383902993 1 0 1
5098 1433 4 -2.303329962119096 -3.4134336485142365 -10.511660226513982 0 1 0
5097 1433 2 -2.190027536602131 -3.4469380794774813 -10.99749972004833 0 1 0
5099 1433 4 -2.0767251110851666 -3.4804425104407266 -11.483339213582676 0 1 0
3375 859 2 -1.429165900217807 -3.917425611136555 -11.720091311108467 0 0 1
3376 859 4 -1.0541325647494062 -4.245039317002732 -11.675155167347153 0 0 1
3377 859 4 -1.8041992356862078 -3.5898119052703783 -11.76502745486978 0 0 1
3129 777 2 -0.5273274278737671 -4.757403007999692 -11.557560972078486 0 0 0
3131 777 4 -0.7023468804104325 -4.359084079653293 -11.80395541713494 0 0 0
2494 565 4 -12.547737130454033 -3.511814024954835 -12.454554270121074 0 0 0
6394 1865 4 -12.588785363165762 -3.113276808108974 -12.437145812499594 0 1 1
4755 1319 2 -8.414298809051482 -1.0344185062112938 -9.988850783775447 0 0 0
4756 1319 4 -7.915186985959356 -1.0048643803841628 -9.985116925679499 0 0 0
4193 1131 4 -7.386585899301617 -1.5313568141173632 -12.00735000543666 0 0 1
2162 454 4 -7.379045083925723 -1.6095394193473496 -11.61744402003793 0 0 0
2160 454 2 -7.3624936557566345 -1.836460217012963 -11.17221037147524 0 0 0
2161 454 4 -7.345942227587546 -2.0633810146785763 -10.72697672291255 0 0 0
3461 887 4 -5.532823086120114 -3.06811104638949 -11.438329900079408 0 0 1
4296 1166 2 -4.696914196124863 -3.0947961719237216 -11.505577461610217 0 0 1
4298 1166 4 -5.158746963404588 -3.165106249868992 -11.327344501678109 0 0 1
9108 2770 2 -3.330958156462978 -2.2556285778701333 -10.965111786884734 1 0 1
9110 2770 4 -2.869399149899457 -2.377009999872121 -11.114208513383913 1 0 1
9554 2918 4 -2.5528605096845194 -2.1108154019216707 -10.960867512850115 0 0 1
9552 2918 2 -2.236805150755563 -2.014815689999904 -10.585510262483137 0 0 1
11582 3594 4 -1.005524925517192 -1.493856977554024 -11.546125507538555 0 0 1
5966 1722 4 -11.954346174947801 -0.9808782757651371 -12.287465531910712 0 0 0
4817 1339 4 -11.753213132691972 -1.0416835848631718 -11.963582410168291 0 0 0
4815 1339 2 -11.531785976526255 -0.6150398508966995 -11.825941069070321 0 0 0
4816 1339 4 -11.310358820360538 -0.1883961169302274 -11.688299727972353 0 0 0
6760 1987 4 -10.183643907554552 -0.6689162125539936 -10.372369206754046 0 0 1
4757 1319 4 -8.91341063214361 -1.0639726320384248 -9.992584641871396 0 0 0
2006 402 4 -10.08995376189715 -0.5098280540282849 -10.039566687307557 0 0 0
2004 402 2 -9.685951287355678 -0.7867931044232584 -9.939205532352506 0 0 0
5582 1594 4 -6.626651117530166 -0.4979906171638261 -11.295428102363912 0 0 0
5580 1594 2 -6.162318048669339 -0.6830116587820249 -11.282699578455565 0 0 0
5912 1704 4 -6.70178582145695 -0.10957768690484518 -11.3352153258412 0 0 0
5581 1594 4 -5.697984979808512 -0.8680327004002236 -11.269971054547218 0 0 0
3207 803 2 -5.491637663826707 -0.925547506862961 -12.121513063365361 0 0 0
3208 803 4 -5.633406308190016 -0.8743962541527297 -11.644768686553425 0 0 0
5528 1576 4 -4.172584572762214 -2.0598836798568847 -10.88723382624688 0 0 0
9109 2770 4 -3.792517163026499 -2.1342471558681457 -10.816015060385554 1 0 1
6113 1771 4 -0.7064692455113177 -0.8862592161570364 -12.242949198196069 0 0 1
173 35 3 -0.4554226892561649 -1.1198057172793503 -12.085035128133255 0 0 0
11580 3594 2 -1.0820563309816005 -1.0178238448558845 -11.413704208076183 0 0 1
11581 3594 4 -1.1585877364460082 -0.5417907121577455 -11.281282908613811 0 0 1
1385 277 3 -3.8850371983045333 -12.054318595991575 -0.030082899151191708 0 0 0
11344 3515 4 -13.32372716941436 -12.462226734628198 -10.864832602102116 1 1 0
3538 913 4 -3.0404721894278635 -5.927482920945923 -13.37376609081466 0 0 1
5860 1687 4 -10.889038810351366 -12.916743087305482 -11.137977569135494 0 1 0
12136 3779 4 -8.181876817176557 -13.185126821252078 -10.43123062245866 1 1 1
7748 2316 4 -8.300865488603224 -13.291568573473121 -10.04688511126674 1 0 0
2460 554 2 -0.09777598961209036 -2.4473664917167763 -12.488006506036365 0 0 0
9902 3034 4 -0.09107961488477267 -8.282527522310138 -0.7980569480947812 0 0 0
9113 2771 4 -11.134967388717556 -1.547788679076025 -12.960741187219446 1 0 1
8388 2530 2 -3.0320428881919512 -13.340868885640157 -3.309405497136359 0 0 0
5828 1676 4 -5.275783848351793 -12.66103470057844 -8.859527513511782 0 1 0
5826 1676 2 -4.796200624129892 -12.52092582496836 -8.878748179995323 0 1 0
2915 705 4 -3.9965525107064277 -12.461485687328251 -9.128827924025543 0 0 0
5827 1676 4 -4.31661739990799 -12.38081694935828 -8.897968846478864 0 1 0
2913 705 2 -3.550905735699725 -12.307060675513032 -9.294815476727196 0 0 0
5093 1431 4 -2.749300828960009 -12.277679876433881 -9.36231330795906 0 1 0
5091 1431 2 -2.401985072910864 -11.919863676018284 -9.39891019744664 0 1 0
2914 705 4 -3.105258960693022 -12.152635663697813 -9.460803029428849 0 0 0
3655 952 4 -0.4684730864456024 -5.775528294112548 -10.223031171458562 0 0 1
6707 1969 4 -11.332683316428271 -0.15384593174102446 -13.190407483118198 0 0 1
7844 2348 4 -13.047657787165964 -11.30831298065215 -10.181113208213866 1 0 0
8168 2456 4 -12.858398594477885 -11.43548131208711 -9.850438113853247 1 0 0
8166 2456 2 -13.281849563881932 -11.656414784280699 -9.7025270683722 1 0 0
4824 1342 2 -10.773970074379934 -12.16373899265636 -10.769856515317022 0 1 0
4826 1342 4 -10.521366506901888 -11.77287166188728 -10.587061090224513 0 1 0
3170 790 4 -10.528238273849995 -11.478134404170195 -10.848713913719175 0 0 0
3104 768 4 -9.36815934566964 -11.254102667732852 -10.304969515689832 0 0 0
2930 710 4 -9.72425681809981 -10.54861563902872 -8.532552013079709 0 0 0
5211 1471 2 -7.104051265069838 -10.481369529831268 -9.822134674199194 0 1 0
5213 1471 4 -6.839514437701876 -10.888217459022133 -9.701739369145038 0 1 0
5921 1707 4 -6.461365382903974 -12.22148292965539 -9.587577137940738 0 1 0
5920 1707 4 -6.679451172276888 -11.24643034117839 -9.628941835181205 0 1 0
5919 1707 2 -6.570408277590431 -11.73395663541689 -9.608259486560971 0 1 0
12253 3818 4 -6.210377409536939 -12.058803202803052 -9.29930724006493 0 1 1
12252 3818 2 -5.930002509629809 -12.353618931889965 -9.008663813534767 0 1 1
5092 1431 4 -2.0546693168617187 -11.562047475602688 -9.43550708693422 0 1 0
3833 1011 4 -1.7419976376546575 -11.411133153730237 -9.21960707342055 0 0 1
3831 1011 2 -1.5864939852877955 -11.043425907059367 -9.520622014654666 0 0 1
3832 1011 4 -1.4309903329209341 -10.675718660388497 -9.821636955888783 0 0 1
6680 1960 4 -4.639509430966178 -12.448671296835338 -13.37476057524563 0 1 1
8038 2413 4 -0.3163810783051289 -10.579183030336624 -9.807826050300722 0 0 0
8137 2446 4 -1.18617308470435 -10.926699480892959 -9.98808005787981 0 0 0
1064 213 3 -1.7546657771383216 -13.260127127309847 -3.77331674973049 0 0 0
4088 1096 4 -12.352801695698789 -9.415749126139659 -10.735828241583029 0 0 1
4087 1096 4 -12.489089018532267 -10.348278325514663 -10.401440655168923 0 0 1
4086 1096 2 -12.420945357115528 -9.88201372582716 -10.568634448375976 0 0 1
3829 1010 4 -10.031331102433512 -10.31353476370593 -8.45359209205494 0 0 1
3800 1000 4 -9.127991851870757 -9.68949661480281 -9.300827138693379 0 0 0