LAMMPS data file via write_data, version 27 Jun 2024, timestep = 1500000, units = lj

25600 atoms
4 atom types
17600 bonds
1 bond types

-16.97 16.97 xlo xhi
-16.97 16.97 ylo yhi
-16.97 16.97 zlo zhi

Masses

1 1
2 1
3 0.5
4 0.5

Bond Coeffs # zero

1 0

Atoms # bond

2575 515 3 -16.641419043377628 -16.288342323418146 -16.351464458357043 1 0 1
15148 4516 4 -16.399945393210324 -16.488120650952865 -16.577154232487562 1 0 0
2573 515 3 -16.16670261434001 -16.46873248581477 -15.795583444728852 1 0 1
2571 515 1 -16.571879892201597 -16.269111455143353 -15.901804052985256 1 0 1
2572 515 3 -16.56008559573682 -15.828854721378768 -15.76900758109747 1 0 1
17499 5300 4 -16.924379551434203 -15.702158984437045 -15.925070887523836 1 0 0
15146 4516 2 -15.967781763939156 -16.633267256831868 -16.782500428792403 1 0 0
8910 2437 4 -13.757299237360868 -16.510476772476924 -15.977069086179602 0 0 1
23845 7415 4 -13.530840739123807 -16.501094309445627 -15.6470692120997 1 1 1
23843 7415 2 -13.85373934521204 -16.759351576754163 -15.365929257506382 1 1 1
8909 2437 2 -13.595168683088472 -16.534075852421154 -16.449463801218954 0 0 1
6971 1791 2 -11.213942474733516 -16.72705715465326 -15.91507375076358 0 0 1
15506 4636 2 -0.1874104471102233 -8.02830149014639 -3.761965594258096 0 0 0
16491 4964 4 -0.9817255420826413 -8.006456531929242 -2.3577435603310892 0 0 0
6973 1791 4 -11.075506742955422 -16.26186864450121 -15.794927181150948 0 0 1
6432 1611 4 -10.932129392104114 -16.091978775897626 -15.475935609939249 0 0 0
8968 2456 4 -9.461357811456093 -16.208002728614204 -15.521045832440658 0 0 1
14033 4145 2 -6.976446846613551 -16.330401399326085 -16.115265125655874 0 1 1
5533 1311 4 -6.481024686211148 -16.39783894224772 -15.470456647628325 0 0 0
14034 4145 4 -6.599101808186255 -16.22396196465333 -15.804972733353468 0 1 1
755 151 3 -7.486070776443047 -16.5023099062043 -16.78809432802779 0 0 1
14035 4145 4 -7.353791885040847 -16.43684083399884 -16.42555751795828 0 1 1
5807 1403 2 -3.3853089099923226 -15.76814359368042 -16.054750075335914 0 0 0
5809 1403 4 -3.711733129393651 -15.471272577975252 -15.819559027413845 0 0 0
5808 1403 4 -3.0588846905909945 -16.065014609385585 -16.289941123257982 0 0 0
4167 856 4 -3.9578120547367095 -15.409426212369938 -15.512424942753121 0 0 0
11875 3425 4 -3.3080116387726433 -16.392262241641372 -16.276601405019015 0 1 0
11873 3425 2 -2.9772150237749266 -16.753290875894226 -16.175448428019944 0 1 0
6778 1726 4 -2.003765445435537 -16.040555600374795 -15.896821819932716 0 0 1
19087 5829 4 -0.18784983380706927 -3.0374057545540407 -16.64391636563896 0 0 1
13278 3893 4 -0.07656452625901117 -8.657594023299966 -16.880075297598943 0 0 1
2744 549 3 -1.3234360675243433 -0.835272046583087 -0.5420696671713585 0 0 0
15452 4618 2 -14.256607351479344 -13.933528854546271 -16.08453920981176 1 0 0
21321 6574 4 -14.40747808445066 -13.96346012506667 -15.388248079971511 1 1 0
15454 4618 4 -13.960239877413803 -14.046679383403937 -16.4710146658693 1 0 0
15453 4618 4 -14.552974825544885 -13.820378325688605 -15.698063753754214 1 0 0
11940 3447 4 -12.972734052601641 -15.20781014232658 -16.435069675314327 0 1 0
11939 3447 2 -12.486071056640604 -15.298540536539653 -16.50526315028182 0 1 0
4062 821 4 -13.118619842818363 -15.355635136345763 -16.08898004054548 0 0 0
4063 821 4 -13.699673590042588 -14.922590543329934 -15.399887214218309 0 0 0
4061 821 2 -13.409146716430476 -15.139112839837848 -15.744433627381893 0 0 0
2868 574 3 -13.975580113287528 -14.43971605109332 -16.513968571811567 1 0 1
11941 3447 4 -11.999408060679567 -15.389270930752724 -16.575456625249316 0 1 0
18104 5502 2 -11.198574003983188 -15.396760128714158 -16.624381477687386 1 0 1
18106 5502 4 -11.653812011981223 -15.199649858970744 -16.68687865870943 1 0 1
18105 5502 4 -10.743335995985152 -15.593870398457572 -16.561884296665344 1 0 1
17912 5438 2 -11.72536328958361 -14.056593426904419 -16.194945485245007 1 0 1
14550 4317 4 -10.336756627078517 -15.518071670276566 -16.539500472577263 0 1 1
14549 4317 2 -9.862801981590241 -15.423463668870836 -16.4113742844259 0 1 1
7698 2033 4 -9.408872337617934 -15.098592110239307 -15.962068177110009 0 0 1
14551 4317 4 -9.388847336101966 -15.328855667465106 -16.283248096274534 0 1 1
7697 2033 2 -9.06069063202084 -14.781655112249357 -15.793781400467667 0 0 1
7699 2033 4 -8.712508926423746 -14.464718114259407 -15.625494623825325 0 0 1
309 62 3 -8.537173114611756 -14.127559544595034 -15.70853625213469 0 0 0
6031 1477 4 -5.5296885378733736 -13.817664447005452 -15.482962316449754 0 0 0
10001 2801 2 -14.613607452280265 -16.674623794813684 -1.7891468597635618 0 1 0
17324 5242 2 -4.377479584199184 -15.164784591635543 -16.847731612769724 0 0 0
17325 5242 4 -3.955538829927519 -14.939988893006173 -16.701331838990523 0 0 0
20052 6151 4 -3.6268154654102727 -14.668150883590727 -16.719178417066306 0 0 1
6776 1726 2 -1.9789246185067344 -15.541176460470405 -15.894975757658212 0 0 1
6777 1726 4 -1.9540837915779319 -15.041797320566017 -15.893129695383708 0 0 1
674 135 3 -2.0697838271428894 -14.96823740094933 -16.265927367277673 0 0 1
675 135 3 -2.551943733694823 -14.425873047192585 -16.466583122957935 0 0 1
20053 6151 4 -2.8570229296315333 -14.239030351099732 -16.246658554569354 0 0 1
20051 6151 2 -3.241919197520903 -14.45359061734523 -16.48291848581783 0 0 1
671 135 1 -2.117690484075433 -14.517318597857901 -16.364300052714473 0 0 1
672 135 3 -1.9935715511190921 -14.270824619783973 -15.996284823063608 0 0 1
21563 6655 2 -15.796330394742775 -13.404187095637733 -16.742240769343127 1 1 0
21565 6655 4 -15.755467522117604 -13.385110280506094 -16.244278621419205 1 1 0
21246 6549 4 -16.773729409825993 -1.8497285628609705 -7.021887458155502 1 0 0
15247 4549 4 -15.515384949597983 -13.523541179638379 -15.961793983576245 1 0 0
15245 4549 2 -15.400317182476204 -13.198054361888339 -15.600106631792503 1 0 0
22599 7000 4 -16.747325366156456 -0.014631207098754428 -6.658254585611986 1 0 0
9654 2685 4 -15.42804787831589 -2.6513526538746426 -16.7113515286451 0 0 1
17914 5438 4 -11.936479679930391 -13.92556525477645 -16.628836586600816 1 0 1
308 62 3 -8.997117315004115 -13.564491462035695 -15.487164016006915 0 0 0
7954 2118 4 -8.991195293391865 -13.45947413734923 -15.873172996371087 0 0 1
7952 2118 2 -9.144381338215371 -13.421191133465863 -16.347586789683366 0 0 1
3370 674 3 -0.054738732145841185 -14.683281513134151 -6.1499305282511845 0 1 0
306 62 1 -8.61345106303677 -13.804382949634093 -15.384439718593434 0 0 0
7585 1995 4 -5.6444080246836394 -13.721998252494995 -15.854091555286596 0 0 1
7583 1995 2 -6.099739416604358 -13.785955279504718 -16.050516661186226 0 0 1
7584 1995 4 -6.555070808525076 -13.84991230651444 -16.246941767085858 0 0 1
8555 2319 2 -4.70307271140481 -13.665585011305424 -16.166235049020408 0 0 1
8556 2319 4 -4.613239262667262 -13.78305061497548 -15.688603618477824 0 0 1
8557 2319 4 -4.792906160142358 -13.548119407635369 -16.64386647956299 0 0 1
6633 1678 4 -4.258108770677391 -13.99964768617951 -15.635984533765678 0 0 0
18218 5540 2 -1.4293574639318019 -13.845478707127613 -15.816096361791766 0 0 1
18220 5540 4 -1.5819753166986255 -14.310069188245329 -15.920324361253323 0 0 1
18219 5540 4 -1.2767396111649782 -13.380888226009898 -15.71186836233021 0 0 1
8772 2391 4 -0.9954548467507502 -13.106662875094385 -15.755196076499475 0 0 1
8771 2391 2 -0.5084084099701146 -12.99397211696079 -15.745892235866954 0 0 1
4613 1005 2 -12.497539040764789 -11.799033430976554 -16.80293068454861 0 0 0
370 74 3 -12.326204138879753 -11.524781141394145 -15.993562657050902 0 0 0
366 74 1 -12.031347129147806 -11.3587256453234 -15.688792389412168 0 0 0
4614 1005 4 -12.317833545903124 -11.736104356232545 -16.340604104447056 0 0 0
368 74 3 -11.647310656196733 -11.619050152904538 -15.681926663238821 0 0 0
7539 1980 4 -11.533059558982877 -11.763899914492022 -16.04467730555137 0 0 1
7538 1980 2 -11.244281781504565 -12.124306867773937 -16.236286864970307 0 0 1
7540 1980 4 -10.955504004026253 -12.484713821055852 -16.427896424389242 0 0 1
4099 833 4 -10.844889017112765 -12.441629027233652 -16.79878979904103 0 0 0
367 74 3 -11.917546068566928 -10.928899262164322 -15.8066847087167 0 0 0
6916 1772 4 -8.716641100677744 -10.774766339414047 -16.51892065229412 0 0 1
384 77 3 -8.84652130160053 -10.937195671667888 -16.86206938596302 0 0 0
13163 3855 2 -15.398092497049076 -0.10489778872977491 -16.202117575269398 0 0 1
15010 4470 4 -5.182913872812023 -11.513940192163778 -16.334532888755607 0 0 0
19200 5867 4 -5.353920968036064 -11.847420667259687 -16.209980841891998 0 0 1
15008 4470 2 -4.924833147276829 -11.111463504305945 -16.188222072893634 0 0 0
19199 5867 2 -5.7245097882227 -11.806517155080257 -16.543133703269707 0 0 1
6227 1543 2 -2.2975869958676527 -11.787588161830945 -15.414601177518112 0 0 0
8700 2367 4 -1.742364272868938 -11.171736093343531 -15.274264261233272 0 0 1
6229 1543 4 -1.9098722830930854 -11.476760751991272 -15.46995118014063 0 0 0
8699 2367 2 -1.3051939093352825 -10.982085525874687 -15.42564040039092 0 0 1
21837 6746 4 -16.141443307409645 -16.745659001983693 -6.999653509020004 1 1 0
9171 2524 4 -0.6418324796245379 -16.866895775960224 -15.141357397267491 0 0 1
4716 1039 4 -12.800044913071734 -9.098084940807151 -16.435373097594688 0 0 0
4715 1039 2 -12.320043679614415 -9.152876456486077 -16.56420129982312 0 0 0
4717 1039 4 -11.840042446157096 -9.207667972165002 -16.693029502051555 0 0 0
8067 2156 4 -11.538699685732672 -9.242484282168558 -16.44947937449637 0 0 1
6915 1772 4 -9.02792141705726 -10.007801922935005 -15.957787737122459 0 0 1
6914 1772 2 -8.872281258867503 -10.391284131174526 -16.23835419470829 0 0 1
15846 4749 4 -9.283714277329251 -10.054101002210484 -15.658329523843465 1 0 0
18496 5632 4 -6.510906439467133 -9.631915384929108 -16.098635268228538 0 0 1
18494 5632 2 -6.412186825183624 -9.980291278443053 -16.443437638542616 0 0 1
18495 5632 4 -6.313467210900114 -10.328667171956997 -16.788240008856693 0 0 1
15009 4470 4 -4.666752421741636 -10.708986816448112 -16.04191125703166 0 0 0
17520 5307 4 -4.262613492596274 -10.599306010893885 -16.06769655369374 0 0 0
7369 1923 4 -4.637329457384744 -9.454738921431568 -16.10323049576125 0 0 1
16600 5000 4 -5.95975854209815 -10.311056695356108 -16.90416367393643 0 0 0
17519 5307 2 -4.308121876714377 -10.11980156421309 -16.201877299660676 0 0 0
17521 5307 4 -4.353630260832481 -9.640297117532294 -16.336058045627613 0 0 0
8283 2228 4 -2.1874175198216794 -9.652995545053829 -16.42954484134134 0 0 1
8282 2228 2 -1.7992480409217007 -9.363622810411265 -16.304693425265903 0 0 1
8701 2367 4 -0.868023545801627 -10.792434958405844 -15.577016539548568 0 0 1
8284 2228 4 -1.4110785620217219 -9.0742500757687 -16.179842009190466 0 0 1
11479 3293 4 -1.2866888827797 -9.079760570821083 -16.567284128451917 0 0 0
16328 4910 2 -16.81265311858323 -9.191119173170307 -16.550281016777586 1 0 0
4041 814 4 -13.479771901523824 -16.944221167147816 -6.739414780378805 0 0 0
7384 1928 4 -16.52650414323871 -7.708406655297709 -16.713653390500365 0 0 1
18281 5561 2 -7.219176011156916 -8.040531932244699 -16.814985814464325 1 0 1
6794 1732 2 -14.306600834908577 -9.379365123679523 -15.7193856246806 0 0 1
6796 1732 4 -14.254371544489414 -9.10905942749329 -16.13676666381818 0 0 1
1984 397 3 -13.876602860948461 -8.930276096184027 -16.03963394877074 1 0 0
1985 397 3 -13.446690201677477 -8.326008259071907 -16.16977036346589 1 0 0
1983 397 3 -13.18718866982223 -9.009568025661103 -16.34950628214833 1 0 0
1981 397 1 -13.443067692379111 -8.76519055181555 -16.04933037356814 1 0 0
1982 397 3 -13.259100607439345 -8.80569676232108 -15.629669369221785 1 0 0
8066 2156 2 -11.331123904731628 -8.935805196695007 -16.113532602410288 0 0 1
12201 3534 4 -11.02168028373744 -8.265067688269898 -15.639100059424376 0 1 1
8068 2156 4 -11.123548123730584 -8.629126111221456 -15.777585830324206 0 0 1
12200 3534 2 -10.595101527230439 -8.150826672944305 -15.873577254294922 0 1 1
4191 864 4 -10.204590258493505 -7.7959784127309 -16.420578339987372 0 0 0
12202 3534 4 -10.168522770723436 -8.036585657618712 -16.10805444916547 0 1 1
358 72 3 -8.073014552457485 -7.813293824714344 -15.573144067863764 0 0 0
19879 6093 4 -6.246452032428068 -9.41959012392607 -15.903489909810627 0 0 1
19877 6093 2 -6.450863417585675 -8.987094371186737 -15.758013418648774 0 0 1
18282 5561 4 -7.507845678482543 -8.244649652383512 -16.461424250530474 1 0 1
16149 4850 4 -1.7905860939638636 -8.182567918404994 -16.954539044903093 0 0 0
360 72 3 -7.6851182176921 -8.141116812888828 -16.128993437657062 0 0 0
7367 1923 2 -4.724351445687043 -9.154510923863988 -16.493474423361143 0 0 1
5629 1343 4 -4.77949466574999 -8.235648743999294 -14.989433690522025 0 0 0
11029 3143 4 -4.633022983280881 -8.614534884884574 -14.970511048456983 0 0 0
6393 1598 4 -9.026924328718042 -16.698914305640418 -4.518304950726259 0 0 0
18521 5641 2 -2.750922468431155 -9.492884599198868 -16.773605925857954 0 0 1
18522 5641 4 -2.588546481351402 -9.632479749205743 -16.32177937405478 0 0 1
5562 1321 4 -2.4617798544098317 -7.849670425294805 -15.963356191921893 0 0 0
5561 1321 2 -2.393878474679233 -8.116984708636936 -15.54630406502194 0 0 0
11477 3293 2 -0.8360551450758499 -9.00316913608772 -16.76992417032036 0 0 0
10889 3097 2 -9.018016361382244 -0.05188781973563632 -2.403933966519174 0 0 0
5804 1402 2 -15.68129558574401 -7.395600951849381 -16.588573751376423 0 0 0
5806 1402 4 -16.139424976526378 -7.583802353136704 -16.657113476024463 0 0 0
5805 1402 4 -15.223166194961642 -7.207399550562057 -16.52003402672838 0 0 0
7033 1811 4 -14.869555045007063 -7.239924848817227 -16.35231924860493 0 0 1
7031 1811 2 -14.663448904145284 -6.937535179278222 -16.01161300203004 0 0 1
7032 1811 4 -14.457342763283505 -6.635145509739217 -15.67090675545515 0 0 1
8113 2171 4 -14.248545587510792 -6.300872135006999 -15.507245914767404 0 0 1
8405 2269 2 -12.539317262244216 -7.711135651874677 -15.759644913860425 0 0 1
8406 2269 4 -12.664248178021527 -7.341087343444662 -15.447464652294945 0 0 1
8407 2269 4 -12.414386346466905 -8.081183960304692 -16.071825175425904 0 0 1
4498 966 4 -9.578199279875903 -6.879583241832073 -16.534752679313392 0 0 0
356 72 1 -7.956040460665138 -7.791157927098605 -16.02161598881978 0 0 0
359 72 3 -8.33763989862899 -7.799597470510319 -16.285454278407453 0 0 0
9326 2576 2 -8.989658044030044 -7.5158628135354775 -16.34716420534275 0 0 1
9328 2576 4 -8.701912224040878 -7.867505717847404 -16.138478769995785 0 0 1
9327 2576 4 -9.27740386401921 -7.164219909223551 -16.555849640689715 0 0 1
357 72 3 -7.7315113211367645 -7.396904077256698 -16.097448484409473 0 0 0
14029 4143 4 -7.389993877583639 -7.268072494286702 -15.897776486969802 0 0 1
14027 4143 2 -7.487105539807626 -6.777956763841925 -15.878911285382317 0 0 1
8186 2196 2 -4.099218722001778 -6.519328344078102 -15.950630387211962 0 0 1
8188 2196 4 -3.9286287548868035 -6.641455153667319 -16.40448510570592 0 0 1
12077 3493 2 -3.0177587013752656 -6.28617872855271 -15.308430882834719 0 1 0
8879 2427 2 -2.6475225662350526 -7.1919848345591575 -16.113884202388075 0 0 1
8881 2427 4 -2.948215394785462 -6.806160330523877 -16.010330955484967 0 0 1
8880 2427 4 -2.346829737684643 -7.577809338594438 -16.217437449291182 0 0 1
12079 3493 4 -3.0279539521544345 -6.491918641363455 -15.764026257194972 0 1 0
5710 1370 4 -0.8353028201709813 -7.708345980143882 -16.133631481944295 0 0 0
15589 4663 4 -0.8777867358492918 -7.304237490124418 -16.102627036677 0 0 0
15587 4663 2 -1.0130857034414733 -7.096135100131754 -15.668590650359423 0 0 0
8953 2451 4 -10.60280677662612 -5.423374566372784 -16.787371142428814 0 0 1
7060 1820 4 -10.238843430630045 -5.329522115315701 -16.666098946508203 0 0 1
7058 1820 2 -9.88749623827327 -5.021611291015243 -16.48792466468904 0 0 1
7059 1820 4 -9.536149045916495 -4.713700466714785 -16.309750382869876 0 0 1
4496 966 2 -9.371207741233233 -6.429187111029827 -16.469194855304533 0 0 0
15125 4509 2 -8.837992283115899 -5.554400284360468 -16.027451872126395 1 0 0
15127 4509 4 -8.552762294262177 -5.542543931029171 -15.616960361441869 1 0 0
4428 943 4 -11.839237324509343 -16.701237009453692 -5.986786178385371 0 0 0
15126 4509 4 -9.12322227196962 -5.566256637691764 -16.43794338281092 1 0 0
11527 3309 4 -8.274441852999537 -5.516862499713417 -15.340606271092954 0 0 0
17307 5236 4 -10.063940007247474 -4.797479205099883 -15.08632670543473 0 0 0
11525 3309 2 -7.873673251606683 -5.8074775725369685 -15.410801766568959 0 0 0
11526 3309 4 -7.472904650213829 -6.09809264536052 -15.480997262044964 0 0 0
214 43 3 -16.71765385672148 -2.8595293328194225 -1.2482111980949553 0 0 0
14028 4143 4 -7.5842172020316125 -6.287841033397148 -15.860046083794833 0 0 1
4822 1074 4 -4.668558412205499 -6.480346286915517 -15.464879552607934 0 0 0
8187 2196 4 -4.269808689116752 -6.397201534488884 -15.496775668718005 0 0 1
24501 7634 4 -16.908355226884265 -8.419057092230553 -1.9582031561579303 1 1 0
20850 6417 4 -13.047063472575037 -4.08527847568039 -16.241591228569238 1 0 0
20849 6417 2 -12.952448943626221 -3.780935480347529 -15.856333610729227 1 0 0
20851 6417 4 -12.857834414677406 -3.4765924850146677 -15.471075992889215 1 0 0
22455 6952 4 -13.2790438067469 -4.409938366235639 -16.33004788423335 1 0 0
9222 2541 4 -3.8798387709282447 -16.792743879402735 -13.40766825999403 0 0 1
5238 1213 4 -9.3203799469487 -4.518537470059346 -16.042951190136872 0 0 0
115 23 3 -0.0007138378289739122 -4.2479191382319055 -0.9288923685918873 0 0 0
15946 4782 4 -16.87183597376339 -11.330027216949201 -5.382377362538071 1 0 0
5237 1213 2 -8.983357152831072 -4.351554897855964 -15.713508544407262 0 0 0
18247 5549 4 -8.269824478671584 -4.006576170634918 -16.77516289166679 1 0 1
5239 1213 4 -8.646334358713444 -4.1845723256525815 -15.384065898677651 0 0 0
7165 1855 4 -8.5740984728469 -4.031187813888675 -15.029065434686144 0 0 1
18519 5640 4 -8.577980270644773 -4.266236670380823 -16.807164541877583 1 0 1
18518 5640 2 -8.966326318607168 -3.952284008201229 -16.78224320679096 1 0 1
7287 1896 4 -16.833045716055892 -6.635530496661512 -10.939405881739047 0 0 1
24152 7518 2 -16.912758088363862 -14.49179736255285 -14.748504780370082 1 1 1
13786 4062 4 -12.191789128304874 -0.19571137965416918 -0.3670879742923246 0 0 0
10866 3089 4 -6.119516682115046 -2.9572240917097536 -15.771281053666597 0 0 0
463 93 3 -5.717379690037582 -3.0267812954179036 -16.80532370346197 0 0 1
461 93 1 -5.726046014236266 -2.701620697505345 -16.474422690483816 0 0 1
465 93 3 -5.304590381881928 -2.5473804257158106 -16.39705933665893 0 0 1
6665 1689 2 -3.3082848115981 -3.82195044035553 -16.23812626348436 0 0 0
7706 2036 2 -0.0017114482850122807 -6.747719910186899 -13.427031891279157 0 0 1
6667 1689 4 -3.145580391827946 -4.0714518033828755 -16.639718521421194 0 0 0
14305 4235 4 -3.0017530585594545 -4.402919852944084 -16.83212375620015 0 0 1
6666 1689 4 -3.4709892313682538 -3.572449077328185 -15.836534005547529 0 0 0
20231 6211 2 -1.45360027392396 -3.6535484835796557 -16.263556429666316 0 0 1
7203 1868 4 -1.4106701488577504 -4.152604946224814 -15.735080493383634 0 0 1
20233 6211 4 -1.67480171011257 -4.037063623898025 -16.031207421115372 0 0 1
7202 1868 2 -1.3381570117691104 -4.448652005423588 -15.338724613284265 0 0 1
20232 6211 4 -1.2323988377353499 -3.270033343261287 -16.49590543821726 0 0 1
19086 5829 4 -1.174345796107658 -2.9902225248914847 -16.800758513046052 0 0 1
19085 5829 2 -0.6810978149573637 -3.0138141397227627 -16.722337439342507 0 0 1
7533 1978 4 -3.096547162609512 -0.5168329295202488 -16.15157574377968 0 0 1
2743 549 3 -0.8138769405638664 -1.1442458801980298 -1.0137524697755609 0 0 0
20596 6332 4 -16.95042181714064 -15.01472699997739 -4.713502749742783 1 1 0
2745 549 3 -0.885773703156166 -1.4023176673577433 -0.3100978611777559 0 0 0
5547 1316 4 -16.758279203877915 -1.3840616774183414 -16.281694774030022 0 0 0
5546 1316 2 -16.443674044565498 -1.6011203771875673 -15.959345406745225 0 0 0
20594 6332 2 -16.79983674095901 -14.567916272379655 -4.547116727087818 1 1 0
5548 1316 4 -16.12906888525308 -1.8181790769567931 -15.636996039460428 0 0 0
16759 5053 4 -0.030769075119078282 -4.7771638496685345 -6.741003780020699 0 0 0
9653 2685 2 -15.261328364355595 -2.2089811051610755 -16.87417663897466 0 0 1
5817 1406 4 -13.13064669836491 -3.1831746773919094 -15.547723723114716 0 0 0
5816 1406 2 -12.890512538526607 -2.7461539367508236 -15.584445072875061 0 0 0
5682 1361 4 -12.579505067277484 -1.9108017352899969 -15.505947403884646 0 0 0
5818 1406 4 -12.650378378688306 -2.3091331961097383 -15.621166422635408 0 0 0
13307 3903 2 -10.557037593855501 -2.9933182143940646 -15.982077482128371 0 0 1
13309 3903 4 -10.367850643667698 -3.170957982468985 -16.409456015371198 0 0 1
2857 572 3 -10.025006719133826 -3.1801860701348788 -16.597421170285408 1 0 1
4083 828 4 -9.498008825836955 -1.7038739173020527 -15.32217211180554 0 0 0
4474 958 4 -5.712652737678439 -16.536374113006364 -7.795260228369027 0 0 0
8095 2165 4 -7.210667083190993 -2.6280780332118536 -15.371292320689 0 0 1
10867 3089 4 -7.077480823148619 -2.6731948401189944 -15.73088193567319 0 0 0
8093 2165 2 -7.530777935979062 -2.34353418144474 -15.11329263396638 0 0 1
10865 3089 2 -6.598498752631833 -2.815209465914374 -15.751081494669894 0 0 0
462 93 3 -5.892803922925714 -2.8871637327252 -16.087944253865597 0 0 1
464 93 3 -6.001571932944937 -2.351370813153606 -16.603691737944036 0 0 1
17862 5421 4 -6.211146872167129 -2.102380342436928 -16.846313751379355 0 0 1
13401 3934 4 -15.45509156243586 -3.0014396197824187 -16.525736580157933 0 0 1
16199 4867 2 -16.161900958470515 -16.925648779376434 -13.426911539798322 1 0 0
15508 4636 4 -0.22133882651829606 -8.192650199501973 -3.2909683895915434 0 0 0
4564 988 4 -12.55150930117483 -0.009505655794248079 -0.40314998020763837 0 0 0
154 31 3 -16.969555353371927 -8.738048731559068 -4.076178963420968 0 0 0
19201 5867 4 -6.0950986084093355 -11.765613642900828 -16.876286564647415 0 0 1
948 190 3 -16.893356836299276 -9.061221199525642 -6.868958012804013 0 0 0
22471 6957 4 -12.272860676001033 -16.857817037727933 -3.705486524675792 1 1 0
5681 1361 2 -12.59542358251689 -1.6716243360899843 -15.944742085466514 0 0 0
5683 1361 4 -12.611342097756296 -1.4324469368899717 -16.383536767048383 0 0 0
13627 4009 4 -12.774400673388733 -1.0680803483974532 -16.423611147434336 0 0 1
13625 4009 2 -12.74536691222074 -0.5754948453160966 -16.504336378103407 0 0 1
21836 6746 2 -16.447003606563595 -16.89696088356543 -6.633947829257244 1 1 0
13626 4009 4 -12.71633315105275 -0.08290934223474122 -16.585061608772477 0 0 1
23851 7417 4 -9.429093810860568 -1.47205226571912 -15.644468119530416 1 0 1
23849 7417 2 -9.52418842897469 -1.370787536976895 -16.12478308735717 1 0 1
5704 1368 4 -10.025525578991159 -1.2318681298573098 -16.50796792436781 0 0 0
23850 7417 4 -9.61928304708881 -1.26952280823467 -16.605098055183923 1 0 1
14054 4152 2 -2.9518839839883735 -0.4306870068291274 -0.1141606401242605 0 0 0
5179 1193 4 -1.8289558914413493 -0.5581998063138316 -15.634977538011926 0 0 0
2400 480 3 -1.4406408666568353 -0.5619794155859026 -15.771474604887915 0 0 0
5177 1193 2 -2.29201544551501 -0.6160246589126415 -15.814510643045125 0 0 0
2396 480 1 -1.1100528127023526 -0.2532658422969687 -15.824460152442471 0 0 0
2399 480 3 -0.8134045840745172 -0.3936795142639006 -16.15245989204087 0 0 0
6717 1706 4 -0.6927182380838038 -0.6997551227986685 -16.404014486747347 0 0 0
6716 1706 2 -0.39090446862288264 -0.7562073527801515 -16.798630242000453 0 0 0
4015 805 4 -5.290926158064914 -16.66861172363901 -6.694818857736507 0 0 0
17677 5359 4 -6.633243612875777 -13.664237497760215 -16.61580211144694 0 0 1
6502 1634 4 -0.5718763168144791 -4.91537017176194 -7.556790177595659 0 0 0
15723 4708 4 -15.86323061282143 -16.701402397621433 -15.901249782229925 1 0 0
5811 1404 4 -0.6178475860278122 -2.7950880667342113 -7.741973954640616 0 0 0
5175 1192 4 -0.16075430969734486 -4.537896777495546 -16.232588116421486 0 0 0
6431 1611 2 -10.59968004859719 -16.068814325829788 -15.103187917451596 0 0 0
6433 1611 4 -10.267230705090265 -16.04564987576195 -14.730440224963942 0 0 0
6462 1621 4 -12.89755003378816 -11.301680375429452 -0.07488687375568243 0 0 0
4594 998 4 -10.339471105584499 -16.297301862611324 -14.4345715611729 0 0 0
8966 2456 2 -9.099469101887264 -15.868868678804455 -15.457605638982379 0 0 1
8967 2456 4 -8.737580392318435 -15.529734628994706 -15.3941654455241 0 0 1
11323 3241 4 -16.940141268401117 -14.661954445571553 -10.276865867308919 0 1 0
5320 1240 4 -8.47229956806544 -15.311695152534748 -14.145651704101896 0 0 0
5319 1240 4 -8.670033411483603 -15.234712179533348 -15.122879901114173 0 0 0
5318 1240 2 -8.571166489774521 -15.273203666034048 -14.634265802608034 0 0 0
5531 1311 2 -6.391514424467722 -16.131150996599704 -15.057097901877722 0 0 0
13402 3934 4 -15.89848267081822 -3.8166030404288556 -16.898446819683585 0 0 1
5532 1311 4 -6.302004162724296 -15.864463050951688 -14.643739156127118 0 0 0
7125 1842 4 -6.452711633499826 -15.985090449332358 -14.285978980415344 0 0 1
7994 2132 2 -4.666474060666985 -16.869177843435807 -15.004933671793173 0 0 1
7995 2132 4 -4.551179410154624 -16.471143105109192 -15.284711245320043 0 0 1
16787 5063 2 -3.2432534431832933 -16.30689161351699 -13.656367663736889 0 0 0
4166 856 2 -3.847477902893266 -15.31999424250714 -15.033020835862489 0 0 0
6594 1665 4 -2.0019334179816624 -16.075641780088382 -15.500153597892254 0 0 0
6593 1665 2 -2.3310022808604014 -16.319786401464025 -15.213610255033075 0 0 0
16788 5063 4 -2.809393155564112 -16.058373239174863 -13.654400828363412 0 0 0
20149 6183 4 -2.4171926656505023 -16.02804318073077 -13.651383978185585 0 0 1
6595 1665 4 -2.6600711437391404 -16.563931022839668 -14.927066912173895 0 0 0
9170 2524 2 -0.4412954478614059 -16.458760856587105 -14.933485353741 0 0 1
11073 3158 4 -0.46469242639575475 -14.865192867478019 -14.45636354114111 0 1 0
9172 2524 4 -0.24075841609827306 -16.050625937213987 -14.72561331021451 0 0 1
11074 3158 4 -0.2440326529211585 -15.710459347796268 -14.943019314372892 0 1 0
11072 3158 2 -0.3543625396584566 -15.287826107637144 -14.699691427757001 0 1 0
24154 7518 4 -16.604995541241657 -14.2711150538955 -14.422036507432994 1 1 1
9550 2650 4 -16.33736788876092 -14.081703777266252 -14.221461104689615 0 1 0
9548 2650 2 -15.878534611079663 -14.101044296693713 -14.419193164812983 0 1 0
4941 1114 4 -14.007236694502593 -0.2393747629324426 -13.284093551991683 0 0 0
21320 6574 2 -14.72679997405439 -13.97281279490143 -15.003610512400929 1 1 0
9549 2650 4 -15.419701333398407 -14.120384816121172 -14.61692522493635 0 1 0
21322 6574 4 -15.046121863658122 -13.98216546473619 -14.618972944830347 1 1 0
11187 3196 4 -13.591479187255564 -14.618663954819272 -15.168355770410699 0 1 0
11186 3196 2 -13.636520076170804 -14.23406965621522 -14.852035452051192 0 1 0
11188 3196 4 -13.681560965086046 -13.849475357611169 -14.535715133691687 0 1 0
8850 2417 4 -10.985576029186547 -15.09701018076667 -15.030982497406763 0 0 1
11747 3383 2 -11.00433483334781 -14.425269955853535 -15.402532311332124 0 1 0
11748 3383 4 -10.784834744425494 -14.853733559506008 -15.267481760396718 0 1 0
17913 5438 4 -11.514246899236829 -14.187621599032388 -15.7610543838892 1 0 1
11749 3383 4 -11.223834922270127 -13.996806352201062 -15.537582862267529 0 1 0
8849 2417 2 -10.827271478138183 -15.122288950753559 -14.557378598662657 0 0 1
19207 5869 4 -10.469026001047053 -15.403841973922649 -13.846831851682879 1 0 1
19205 5869 2 -10.069784274177335 -15.168858300895636 -13.658712961252553 1 0 1
8851 2417 4 -10.66896692708982 -15.147567720740447 -14.083774699918552 0 0 1
19206 5869 4 -9.670542547307617 -14.933874627868622 -13.470594070822226 1 0 1
5029 1143 4 -9.440691976105487 -14.649279747196562 -13.584022166791248 0 0 0
5027 1143 2 -9.119784626299987 -14.34842024522336 -13.821723729498025 0 0 0
7124 1842 2 -6.5329357684047205 -15.541480486347998 -14.06970533680658 0 0 1
2245 449 3 -6.255172391891072 -14.930263015534337 -13.890536402900068 0 0 0
7126 1842 4 -6.613159903309615 -15.097870523363639 -13.853431693197816 0 0 1
6030 1477 4 -5.794301690629941 -14.271145802059962 -14.63188385942799 0 0 0
6029 1477 2 -5.661995114251657 -14.044405124532707 -15.057423087938872 0 0 0
2242 449 3 -5.844667823002988 -14.594792219239046 -14.415841403594674 0 0 0
2241 449 1 -6.009514017600077 -14.559344780064457 -13.987858680599077 0 0 0
4168 856 4 -3.7371437510498224 -15.23056227264434 -14.553616728971857 0 0 0
757 152 3 -3.811133300403566 -14.973107154781882 -14.27086928109987 0 0 1
756 152 1 -3.600585718971631 -14.564355759042117 -14.25701242597127 0 0 1
760 152 3 -3.6321142060508915 -14.36546140796916 -14.665481508783982 0 0 1
758 152 3 -3.8067227459151685 -14.300250786143746 -13.935988923072603 0 0 1
759 152 3 -3.1546198539893178 -14.629015304680184 -14.146406863595068 0 0 1
6632 1678 2 -3.9927636970188476 -14.00014296895405 -15.212201869443692 0 0 0
6634 1678 4 -3.727418623360305 -14.000638251728592 -14.788419205121707 0 0 0
22507 6969 4 -0.5706376686708652 -14.558106227045768 -14.690243382934149 0 0 0
22505 6969 2 -0.8466988417105302 -14.150640218665137 -14.602142981378044 0 0 0
22506 6969 4 -1.1227600147501948 -13.743174210284506 -14.51404257982194 0 0 0
15246 4549 4 -15.285249415354425 -12.872567544138299 -15.238419280008761 1 0 0
23119 7173 4 -15.358395920070954 -12.542576894871653 -15.024100189408495 1 1 1
23117 7173 2 -15.299872864543213 -12.649464372001209 -14.539177392249261 1 1 1
4255 885 4 -13.672736571723688 -13.691017547311946 -14.166664770480754 0 0 0
310 62 3 -8.657906167714716 -14.001208602370204 -14.976170927117751 0 0 0
307 62 3 -8.255506859818874 -13.515607019633578 -15.3752522469618 0 0 0
5028 1143 4 -8.798877276494487 -14.047560743250159 -14.059425292204802 0 0 0
4933 1111 4 -8.445899040646177 -13.84463573392263 -14.056531718584818 0 0 0
4931 1111 2 -8.310859133030231 -13.377946387230075 -14.174706491843454 0 0 0
4932 1111 4 -8.175819225414285 -12.91125704053752 -14.29288126510209 0 0 0
18406 5602 4 -1.9199833992975994 -12.822484333326676 -14.214327675621865 0 0 1
4815 1072 4 -2.600017408087814 -13.228709816299588 -14.734567965411886 0 0 0