LAMMPS data file via write_data, version 27 Jun 2024, timestep = 1500000, units = lj

8000 atoms
4 atom types
5500 bonds
1 bond types

-18 18 xlo xhi
-18 18 ylo yhi
-18 18 zlo zhi

Masses

1 1
2 1
3 0.5
4 0.5

Bond Coeffs # zero

1 0

Atoms # bond

6393 1965 2 -16.987374445146152 -15.385333908202009 -17.325865866746135 1 1 0
6395 1965 4 -16.95753942237227 -15.441866570437226 -16.82996877105304 1 1 0
5305 1602 4 -17.34420984524206 -15.445577353711174 -16.693343492596895 1 0 0
6394 1965 4 -17.017209467920033 -15.328801245966792 -17.82176296243923 1 1 0
280 56 3 -15.233036521227607 -13.911675828619043 -17.572565990226785 0 0 1
1911 471 2 -11.05820903322189 -0.1670995293515701 -3.2789845223988183 0 0 0
276 56 1 -14.981526893842938 -14.005556481154137 -17.940437340582076 0 0 1
6007 1836 4 -9.789108238799182 -0.010209962185095595 -14.107584156845165 0 0 1
2491 664 4 -14.76447034943326 -13.271482038432332 -17.87390666545655 0 0 1
1727 409 4 -15.517535335986247 -13.872002420782415 -17.321910280867918 0 0 0
277 56 3 -14.679825566085741 -14.337074005552417 -17.837129839178772 0 0 1
3790 1097 4 -14.42341243667142 -14.598801651016863 -17.668753690444145 0 1 1
3679 1060 4 -0.2161322666952886 -6.325003976014197 -12.670167822271084 0 0 0
2400 634 2 -16.671544607136443 -12.194085003077374 -16.541776318892992 0 0 1
2401 634 4 -16.246204204196424 -12.24619718899525 -16.799399807157734 0 0 1
1859 453 4 -3.5479705400203163 -0.05684158236207115 -14.337035093689456 0 0 0
1757 419 4 -15.900263184417403 -12.090102346200132 -16.698717816650934 0 0 0
1755 419 2 -15.806243736841715 -11.926124076146866 -17.161612481156784 0 0 0
6773 2091 4 -17.632966566982553 -0.13276711338519143 -10.695243849430351 1 0 0
3769 1090 4 -14.731637367500275 -0.037490297689497964 -12.011826443239539 0 0 0
1286 262 4 -9.309444268296515 -12.884024518812579 -17.21298500227547 0 0 0
1284 262 2 -9.291535367689931 -12.882841821413132 -17.712662770948086 0 0 0
4640 1380 4 -9.128374293513517 -13.149952047551555 -16.97261019000098 0 0 0
4638 1380 2 -8.793418059398874 -13.04306994092397 -16.617109787032508 0 0 0
5633 1711 4 -6.528159389582214 -12.660902927581986 -17.859710236076122 0 0 1
3305 935 4 -0.07006219089404833 -14.75414323834615 -12.641211530827691 0 1 0
4639 1380 4 -8.458461825284232 -12.936187834296387 -16.261609384064034 0 0 0
2402 634 4 -17.096885010076463 -12.141972817159498 -16.28415283062825 0 0 1
2489 663 4 -17.34837126389572 -12.381013598702966 -16.424016159514792 0 0 1
632 127 3 -15.491814284106571 -11.52999089974369 -17.88401137185351 1 0 0
1756 419 4 -15.712224289266027 -11.762145806093601 -17.624507145662633 0 0 0
599 120 3 -4.544731747114909 -0.11448243396821706 -13.815288346434748 0 0 0
1652 384 4 -6.621499980501988 -17.586397312116695 -8.724174914602287 0 0 0
2285 595 4 -13.451696318627132 -10.979395610747241 -17.860527515294862 0 0 1
1424 308 4 -9.711288535813784 -0.002682439529107794 -13.706642150466774 0 0 0
5728 1743 4 -17.732433589065526 -4.215937435473905 -0.6247557229789098 1 0 0
1378 293 4 -17.577588503012116 -8.035910710807793 -12.801532567670879 0 0 0
1717 406 4 -16.522004391013976 -17.87594867952436 -3.2799476023082086 0 0 0
2897 799 4 -2.0105666471772614 -17.85496385245793 -9.559705748753391 0 1 0
3925 1142 4 -5.2517953591191375 -17.921520526326333 -3.9007702443381826 0 1 0
4071 1191 2 -11.622885868580532 -0.027437085470977493 -17.410653222289223 0 0 1
2572 691 4 -12.649742000244574 -10.08382842186953 -17.938377442375263 0 0 1
2177 559 4 -11.460119401079432 -9.735062367639342 -17.86469230596687 0 0 1
2175 559 2 -11.122123059173104 -9.737149885996915 -17.496244052985546 0 0 1
2176 559 4 -10.784126717266776 -9.739237404354489 -17.127795800004222 0 0 1
22 5 3 -11.00568822192025 -9.698940351253512 -16.774113694318363 0 0 0
21 5 1 -10.722804566910456 -9.745981118741193 -16.414441615999 0 0 0
1852 451 4 -10.21869490636806 -10.376896262312481 -16.626353560708132 0 0 0
25 5 3 -10.396874465291786 -10.046630208876383 -16.518266918598233 0 0 0
1851 451 2 -10.184279933615134 -10.4481576996193 -17.12005125890358 0 0 0
1267 256 4 -9.874229907567894 -10.38470283505389 -17.861476067230974 0 0 0
1853 451 4 -10.149864960862207 -10.519419136926118 -17.613748957099027 0 0 0
2411 637 4 -2.847985655880295 -7.821466900208946 -17.008462042446013 0 0 1
2410 637 4 -2.6818851382752977 -8.114639607434961 -17.94998229278002 0 0 1
2409 637 2 -2.7649353970777963 -7.968053253821953 -17.479222167613017 0 0 1
5246 1582 4 -2.740907501184469 -7.538593762475199 -16.775354582295382 0 0 0
5244 1582 2 -2.648404118693609 -7.048076014586497 -16.804258963175574 0 0 0
170 34 3 -2.266043620505553 -6.517459689894477 -16.570844810075435 0 0 0
5245 1582 4 -2.555900736202749 -6.5575582666977965 -16.833163344055766 0 0 0
167 34 3 -1.838185427817606 -5.914261731113616 -16.67129175862014 0 0 0
168 34 3 -1.532048945612848 -6.599136738233603 -16.717407687378287 0 0 0
2191 564 4 -1.6530923778882958 -6.893087081217162 -16.954451722315042 0 0 1
2192 564 4 -0.7591347452007815 -7.181603760688196 -17.29737719035066 0 0 1
2190 564 2 -1.2061135615445386 -7.037345420952679 -17.12591445633285 0 0 1
1675 392 4 -0.5091388263942734 -6.932582504618525 -17.113756180053205 0 0 0
1314 272 2 -10.751032733652805 -5.6762188386252905 -16.896826486433635 0 0 0
1316 272 4 -10.67418952974317 -5.684120995640186 -16.40282984886664 0 0 0
1315 272 4 -10.827875937562439 -5.668316681610395 -17.39082312400063 0 0 0
1591 364 4 -5.467774514720145 -5.432570174828073 -17.48397800043823 0 0 0
1590 364 2 -5.761291322148296 -5.367562739425054 -17.08445088358691 0 0 0
4197 1233 2 -11.179063143560574 -4.643972911890826 -17.746647243681856 0 0 1
4198 1233 4 -11.351086014018794 -5.1132076531158175 -17.731584386489306 0 0 1
4456 1319 4 -11.79865381340975 -3.5696194742279257 -17.528394123108786 0 0 1
4455 1319 2 -11.798777653328555 -3.1803633963082074 -17.214579384024905 0 0 1
2404 635 4 -11.918283470993654 -3.8150140801579546 -17.813397907916027 0 0 1
3441 981 2 -6.120632306609089 -17.904595781662486 -7.137484768335005 0 1 0
1703 401 4 -6.2277796270281245 -3.248495361367704 -17.310931807642923 0 0 0
1701 401 2 -6.140169639476533 -2.8603136804146105 -17.613651930287418 0 0 0
1478 326 4 -6.289388548818348 -3.4819016915536345 -16.98470223663908 0 0 0
1476 326 2 -6.593872897030608 -3.2248144797136065 -16.682716397232983 0 0 0
2807 769 4 -13.868191069425974 -1.2074676880528263 -17.453629731052533 0 0 1
4457 1319 4 -11.79890149324736 -2.791107318388489 -16.900764644941024 0 0 1
1298 266 4 -12.033226729175865 -2.537807878016522 -16.739097496309736 0 0 0
1296 266 2 -11.73997853211491 -2.132836025242875 -16.737282728610836 0 0 0
1297 266 4 -11.446730335053953 -1.7278641724692279 -16.735467960911937 0 0 0
1522 341 4 -9.874774269145465 -1.4916098953456676 -17.4045198103236 0 0 0
2063 521 4 -10.093087476495727 -1.2021137564771127 -17.599089524858726 0 0 1
1521 341 2 -9.734487692369813 -1.538512035845401 -16.926900855932978 0 0 0
2084 528 4 -7.97630448233173 -1.7794721236827675 -17.410954386339185 0 0 1
1834 445 4 -8.252291853779232 -1.6369999550646723 -17.650151370201357 0 0 0
2082 528 2 -7.742842111136777 -1.4486152406134276 -17.11764730466296 0 0 1
6490 1997 4 -0.7451450724584717 -0.26243729806387955 -16.52797409144663 0 0 0
1379 293 4 -17.89707449349862 -7.470505675359019 -13.561957348811653 0 0 0
1377 293 2 -17.73733149825537 -7.753208193083406 -13.181744958241266 0 0 0
4301 1267 4 -8.557741533101613 -0.10024112018685483 -17.178521473824713 0 0 1
5727 1743 2 -17.89553264088273 -3.940565883844154 -0.24060834520622465 1 0 0
5790 1764 2 -14.527313896174345 -1.3222096510630887 -16.8762826063504 1 0 1
5791 1764 4 -14.125248496960689 -1.2877089856978738 -17.171499677070617 1 0 1
2805 769 2 -13.782376921999111 -1.242883337770912 -17.94493581065709 0 0 1
4073 1191 4 -11.884721585624265 -0.31954180229006457 -17.100625978821434 0 0 1
3811 1104 4 -11.550794730970594 -1.4499959254952395 -17.016938974330827 0 0 1
3810 1104 2 -11.827000802065092 -1.0333454395644261 -17.006328655571636 0 0 1
3812 1104 4 -12.10320687315959 -0.6166949536336128 -16.995718336812445 0 0 1
2257 586 4 -17.63124353200239 -4.682342707313666 -3.226865954242021 0 0 0
4988 1496 4 -17.971615521272014 -4.297132801113777 -1.8514196165803718 1 0 0
3678 1060 2 -0.009137893416800902 -5.961695909691091 -12.944322118928744 0 0 0
3843 1115 2 -8.047017820583257 -0.43129980567035214 -16.851719684237224 0 0 1
2083 528 4 -7.509379739941823 -1.1177583575440877 -16.824340222986734 0 0 1
3844 1115 4 -7.819118923470969 -0.8729193930647285 -16.796635814323185 0 0 1
5022 1508 2 -4.727156639988195 -1.0603895585977112 -17.994116489154255 0 0 0
375 75 3 -4.229905329074828 -0.6865556881833055 -17.507839762387572 0 0 0
5024 1508 4 -4.525723726769533 -0.6672584664238983 -17.759867207750023 0 0 0
371 75 1 -3.9721628761267653 -0.44561050944174474 -17.219891418427043 0 0 0
372 75 3 -4.027888325380265 -0.6091258995661328 -16.793561274644006 0 0 0
6510 2004 2 -0.008182064784927418 -1.7464450421175954 -16.759972228568717 0 0 0
374 75 3 -3.5250288247178503 -0.4836629864816079 -17.33788781270196 0 0 0
2993 831 4 -3.3152137386782488 -0.4187950229034773 -17.67271145422299 0 0 0
6496 1999 4 -2.476062129275788 -0.49202159709141957 -17.252701584133803 0 0 0
6497 1999 4 -1.6072197637959296 -0.9845788324983865 -17.30270472198852 0 0 0
6495 1999 2 -2.0416409465358587 -0.738300214794903 -17.27770315306116 0 0 0
6491 1997 4 -1.4321103484978064 -0.8341807550210469 -16.976514088484073 0 0 0
6050 1850 4 -16.748656873006844 -16.95676740359705 -15.339578642307888 1 0 1
6048 1850 2 -16.980362495620877 -16.694517880132192 -15.696702839039622 1 0 1
3374 958 4 -16.38396316140293 -17.11605284433911 -15.28035128092024 0 1 0
5304 1602 2 -17.433158645238073 -15.80312633481351 -16.35533929574148 1 0 0
5306 1602 4 -17.522107445234088 -16.160675315915842 -16.017335098886065 1 0 0
6049 1850 4 -17.21206811823491 -16.432268356667336 -16.053827035771356 1 0 1
1725 409 2 -15.40621255550347 -13.725196403771214 -16.8570928630416 0 0 0
1769 423 4 -15.43942177308622 -13.611769193019931 -16.009306433041495 0 0 0
1726 409 4 -15.294889775020694 -13.578390386760013 -16.392275445215283 0 0 0
1767 423 2 -15.29097941961116 -13.743869765384128 -15.55048805233307 0 0 0
3009 837 2 -15.904571672404163 -2.4459891965266713 -1.7912332057907774 0 0 0
24 5 3 -10.967244555915283 -9.896983107584047 -16.05009632490699 0 0 0
23 5 3 -10.532995214107396 -9.333713072348965 -16.317966398909213 0 0 0
1721 407 4 -10.589243063408396 -9.117627258885067 -15.95616845928773 0 0 0
1719 407 2 -10.494493063204114 -8.850367030586336 -15.544350043197346 0 0 0
1720 407 4 -10.399743062999832 -8.583106802287604 -15.132531627106962 0 0 0
2677 726 4 -10.159269637749786 -8.455585351745231 -14.843066699398031 0 0 1
2676 726 2 -10.047037960248456 -7.994878486774216 -14.684468984616718 0 0 1
6915 2139 2 -3.8029039871118897 -9.03504256109584 -15.407596400406256 0 1 0
6917 2139 4 -3.9988702186671903 -8.692166752441931 -15.714245085272232 0 1 0
4704 1402 2 -4.015979592263556 -8.143236719888387 -16.086812109710277 0 0 0
4705 1402 4 -3.741496159714091 -8.549455446020456 -15.988602172354629 0 0 0
4706 1402 4 -4.290463024813022 -7.737017993756318 -16.185022047065925 0 0 0
1421 307 4 -10.944732904422441 -5.691216534225855 -16.08691553293815 0 0 0
1419 307 2 -10.710383312513308 -6.012535173311513 -15.783873290093986 0 0 0
2044 515 4 -9.788862842049092 -7.1663331987714605 -14.617060723995278 0 0 0
2045 515 4 -10.354843126928058 -6.523120597127663 -15.132758180082737 0 0 0
1420 307 4 -10.476033720604175 -6.333853812397171 -15.480831047249824 0 0 0
2043 515 2 -10.071852984488576 -6.8447268979495615 -14.874909452039008 0 0 0
4773 1425 2 -3.979835885604838 -6.959048668269426 -16.20794187106143 0 0 0
4774 1425 4 -3.7845825902502632 -6.515327965039051 -16.08551602339222 0 0 0
4775 1425 4 -4.175089180959413 -7.4027693714998 -16.33036771873064 0 0 0
166 34 1 -1.8517905474141094 -6.341496910909535 -16.50133587650558 0 0 0
169 34 3 -1.7610578131567731 -6.32498950822476 -16.04658860978415 0 0 0
1709 403 4 -1.3845646019682971 -6.188374530010925 -15.95600984391457 0 0 0
1707 403 2 -1.261211006028917 -6.044462429783748 -15.493329395033026 0 0 0
3996 1166 2 -6.124313284236144 -5.307176621506019 -15.928775545911014 0 1 1
1592 364 4 -6.054808129576448 -5.302555304022035 -16.68492376673559 0 0 0
3998 1166 4 -5.975848355127287 -5.537385585016304 -16.34706013556762 0 1 1
3578 1026 4 -9.050698085063496 -2.786654513279478 -15.902924448106257 0 0 0
85 17 3 -7.806953931260381 -3.398110372222097 -15.890859431626218 0 0 0
3576 1026 2 -8.582629462829136 -2.96137280030752 -15.922553127572707 0 0 0
3577 1026 4 -8.114560840594775 -3.1360910873355623 -15.942181807039157 0 0 0
1477 326 4 -6.8983572452428685 -2.9677272678735784 -16.380730557826887 0 0 0
4109 1203 4 -6.333140724244601 -4.710229490860751 -15.392816156683544 0 0 1
81 17 1 -7.368029575164294 -3.2767099205718924 -15.888150194710207 0 0 0
83 17 3 -7.231179487705843 -3.167998013537053 -16.31798013181483 0 0 0
84 17 3 -7.108734476332975 -3.623989577352928 -15.722430878672501 0 0 0
4108 1203 4 -6.825469579325593 -3.8548522065293205 -15.553881360574216 0 0 1
4107 1203 2 -6.579305151785097 -4.282540848695036 -15.47334875862888 0 0 1
3997 1166 4 -6.272778213345001 -5.076967657995734 -15.510490956254406 0 1 1
5792 1764 4 -14.929379295388001 -1.3567103164283036 -16.581065535630184 1 0 1
2052 518 2 -15.140066139441565 -1.3824306608717492 -15.877276550552487 0 0 1
2054 518 4 -15.046987765663888 -1.5163530110105572 -15.404623167545177 0 0 1
3934 1145 4 -14.819860858065033 -1.6843101382092347 -15.086951410147718 0 0 1
2053 518 4 -15.233144513219242 -1.248508310732941 -16.349929933559796 0 0 1
6505 2002 4 -9.205363737474306 -2.4245471556170592 -15.883156458079366 0 0 0
6504 2002 2 -9.254354640577784 -1.9503781508235485 -16.03403271965211 0 0 0
1523 341 4 -9.59420111559416 -1.5854141763451344 -16.449281901542356 0 0 0
6506 2002 4 -9.303345543681262 -1.4762091460300377 -16.184908981224854 0 0 0
82 17 3 -7.314282027340026 -2.908709139475488 -15.617435167023864 0 0 0
3596 1032 4 -4.403168504164252 -0.5313682844372869 -16.785256936949093 0 0 0
2224 575 4 -4.481838683860809 -0.6816510713501862 -15.663796777880906 0 0 1
3594 1032 2 -4.581673674865496 -0.49599405291649634 -16.319548264303666 0 0 0
3595 1032 4 -4.760178845566741 -0.46061982139570573 -15.853839591658238 0 0 0
6489 1997 2 -1.088627710478139 -0.5483090265424633 -16.75224408996535 0 0 0
6984 2162 2 -0.7017959049376942 -0.2118210457612505 -15.740638998162948 0 0 0
3372 958 2 -16.099242011442186 -17.525436257077406 -15.243757727665168 0 1 0
3373 958 4 -15.814520861481439 -17.934819669815703 -15.207164174410096 0 1 0
6797 2099 4 -0.16572332042989504 -15.140884506281614 -12.517511810569342 0 1 0
1768 423 4 -15.1425370661361 -13.875970337748324 -15.091669671624647 0 0 0
2800 767 4 -14.792665586133554 -13.705660018004545 -13.7004488403009 0 0 1
5262 1588 2 -14.241030788351441 -14.33939436752883 -13.498815547461218 1 0 0
5264 1588 4 -14.41749555795806 -14.293638217225693 -13.96439750565673 1 0 0
115 23 3 -14.688199144309186 -14.233345137947024 -14.257687133539665 0 0 0
111 23 1 -14.774134608347078 -13.81914989812423 -14.426380344217664 0 0 0
114 23 3 -15.167222789417185 -13.826993271990997 -14.672794961051785 0 0 0
113 23 3 -14.809991509505721 -13.511723420914135 -14.080687932166697 0 0 0
4199 1233 4 -11.007040273102355 -4.174738170665834 -17.761710100874406 0 0 1
2221 574 4 -17.678574239907892 -13.566679658836183 -13.982962966633387 0 0 1
2816 772 4 -17.57444233354038 -13.562390547427652 -13.6074307882555 0 0 1
112 23 3 -14.428226919405658 -13.693121289412318 -14.702178568500322 0 0 0
6860 2120 4 -0.7651574852492853 -12.585236394557333 -14.121622522370433 0 1 0
6383 1961 4 -5.10809159244066 -10.62079670985964 -13.375222789023299 0 1 0
6546 2016 2 -0.9961951069438798 -11.745350029431085 -13.933254817714035 0 1 0
6547 2016 4 -1.1408155063067853 -11.271123216587736 -13.868494721448284 0 1 0
6548 2016 4 -0.8515747075809742 -12.219576842274435 -13.998014913979786 0 1 0
4741 1414 4 -0.9495951753396134 -10.923537401769416 -13.787085320400491 0 0 0
4666 1389 4 -9.0175953378489 -9.857777673107234 -13.69068488008898 1 0 0
1897 466 4 -8.622071850227979 -9.837145200326633 -13.64379963137804 0 0 0
6381 1961 2 -4.804405944656732 -10.402626842006622 -13.707151902074544 0 1 0
6625 2042 4 -4.25238764381981 -10.183110271179702 -14.35966348842964 0 1 0
6624 2042 2 -4.0623921909025125 -9.773991373919523 -14.575356454878081 0 1 0
6382 1961 4 -4.500720296872805 -10.184456974153605 -14.03908101512579 0 1 0
4740 1414 2 -0.9762658947726277 -10.424270621566386 -13.791706457778105 0 0 0
2678 726 4 -9.934806282747127 -7.5341716218032015 -14.525871269835404 0 0 1
6916 2139 4 -3.606937755556589 -9.377918369749748 -15.10094771554028 0 1 0
6626 2042 4 -3.8723967379852153 -9.364872476659345 -14.791049421326523 0 1 0
2127 543 2 -0.1670371280687657 -8.276105647210153 -14.037237214230267 0 0 1
5299 1600 4 -0.7540164235831383 -8.618029764810922 -13.652093128088596 0 0 0
2128 543 4 -0.6248243950813862 -8.31676236242608 -13.840316291855444 0 0 1
7431 2311 2 -17.992626893786312 -6.688668672668521 -13.272183268515668 1 0 0
5415 1639 2 -17.726566519337375 -14.952270744322574 -0.8769885866917986 1 0 0
1899 467 2 -14.803578506965703 -2.9649655759427085 -0.07226905273101983 0 0 0
1708 403 4 -1.137857410089537 -5.900550329556571 -15.030648946151482 0 0 0
6779 2093 4 -17.410936283673642 -15.337590312601137 -17.94092062896957 1 1 0
13 3 3 -1.0145004246077625 -6.132979708058227 -14.722092744568071 0 0 0
7052 2184 4 -0.04057032461970214 -5.9789453175322915 -14.446513382393725 0 0 0
11 3 1 -0.8820360455042319 -5.878284335147619 -14.357560914288895 0 0 0
14 3 3 -0.4192758834226172 -5.87897092133526 -14.323611525639778 0 0 0
15 3 3 -1.066077778623508 -6.045531258014159 -13.976041442620451 0 0 0
1543 348 4 -1.1733859039261652 -6.346581678342723 -13.697999702892892 0 0 0
12 3 3 -1.0260486562207618 -5.445641623876741 -14.418229294346675 0 0 0
1786 429 4 -11.877161998019808 -4.43726563617987 -13.575114789948149 0 0 0
5150 1550 4 -2.0988226606807947 -3.417518828182651 -13.312591889928802 0 0 0
1415 305 4 -16.05580052413344 -3.0205728447696685 -1.2455614959005175 0 0 0
3935 1145 4 -14.63210139806977 -2.123188149375343 -14.20824072027458 0 0 1
4185 1229 2 -14.911119780914042 -2.1005315946763052 -13.457251499674623 0 0 1
4186 1229 4 -14.822889486803318 -1.911792236827606 -13.911776383481836 0 0 1
3933 1145 2 -14.725981128067401 -1.9037491437922889 -14.647596065211149 0 0 1
5149 1550 4 -1.5263718121419383 -2.7352088797110023 -13.767293066774235 0 0 0
5148 1550 2 -1.8125972364113665 -3.0763638539468268 -13.539942478351518 0 0 0
8 2 3 -17.951357719611043 -4.1951643039973305 -2.266356189225003 0 0 0
2223 575 2 -4.408657675855752 -0.5122138922309936 -15.199108083807726 0 0 1
2225 575 4 -4.335476667850695 -0.34277671311180086 -14.734419389734546 0 0 1
600 120 3 -4.437857051047239 -0.5407801584324559 -14.42663771419205 0 0 0
597 120 3 -3.942216783427394 -0.010689286149674238 -14.252441295639883 0 0 0
596 120 1 -4.2302440869751745 -0.3265574660661367 -14.08253671851693 0 0 0
2487 663 2 -17.706298692254382 -12.666836763131819 -16.223534053818664 0 0 1
3068 856 4 -1.8921594224309872 -0.38983619208195974 -14.198755451077684 0 0 0
3066 856 2 -2.2977606142529785 -0.2989607878603662 -13.92085378843425 0 0 0
3067 856 4 -2.70336180607497 -0.20808538363877263 -13.642952125790817 0 0 0
1739 413 4 -1.9103043031492062 -0.2908921237084494 -14.57297351762231 0 0 0
1738 413 4 -1.1885045430202976 -0.046368457776042676 -15.220440337680357 0 0 0
6985 2162 4 -0.8649925970579575 -0.2668844843181164 -15.271240598703283 0 0 0
1737 413 2 -1.549404423084752 -0.16863029074224606 -14.896706927651334 0 0 0
5821 1774 4 -17.561476996322497 -16.99298494161385 -11.552424057683634 1 0 0
1639 380 4 -7.574001420770588 -17.774533645301535 -11.916265686694508 0 0 0
1614 372 2 -6.886803621300687 -15.438425587047133 -12.554472521266423 0 0 0
1616 372 4 -6.869729269539823 -15.037916311008317 -12.853304892870804 0 0 0
2815 772 4 -17.492879563536544 -14.13151594040035 -12.789235333841711 0 0 1
2814 772 2 -17.53366094853846 -13.846953243914001 -13.198333061048606 0 0 1
1947 483 2 -16.86094620903734 -14.428863898751123 -12.333686458861475 0 0 0
1949 483 4 -17.315001985801523 -14.346957428135491 -12.526364121444825 0 0 0
6117 1873 2 -15.823843834032843 -13.927975641577117 -12.395094882150715 1 0 1
6118 1873 4 -15.395959858074466 -13.703971858208533 -12.524468790472751 1 0 1
2801 767 4 -15.2831063076702 -13.501026506030934 -12.853340214187199 0 0 1
2799 767 2 -15.037885946901877 -13.60334326201774 -13.27689452724405 0 0 1
5263 1588 4 -14.064566018744822 -14.385150517831965 -13.033233589265706 1 0 0
1259 253 4 -13.85169903791116 -14.410507000136281 -12.703742402858929 0 0 0
1257 253 2 -14.19932192501141 -14.670863812461773 -12.456007345509393 0 0 0
1258 253 4 -14.546944812111661 -14.931220624787265 -12.208272288159858 0 0 0
4952 1484 4 -14.392799791945274 -15.129137908445736 -11.912318285302606 1 0 0
1483 328 4 -7.083028649614146 -13.660930308379186 -12.599242310375308 0 0 0
2150 550 4 -6.739649059587035 -13.752807553394819 -12.786648244392925 0 0 0
2148 550 2 -6.829404447096796 -14.222729022378376 -12.931967834955875 0 0 0
2149 550 4 -6.919159834606558 -14.692650491361933 -13.077287425518826 0 0 0
1650 384 2 -6.307018855187007 -17.73775477645694 -8.36613505675257 0 0 0
3011 837 4 -15.936832953716669 -2.6771877628959566 -1.349072112255114 0 0 0
1482 328 2 -7.315279567890873 -13.335918603423197 -12.298531647775496 0 0 0
1604 368 4 -7.854391981426559 -11.78710216890746 -12.473145674962927 0 0 0
1898 466 4 -8.353069232262321 -10.71109936727962 -13.239025984022776 0 0 0
1975 492 4 -8.481175688713362 -11.057668986759392 -13.145481780325099 0 0 0
1896 466 2 -8.48757054124515 -10.274122283803127 -13.441412807700408 0 0 0
1974 492 2 -8.189689828490032 -11.43875317896423 -13.004730823875168 0 0 0
1976 492 4 -7.898203968266699 -11.819837371169069 -12.863979867425236 0 0 0
5435 1645 4 -5.04085665785122 -11.659136473397727 -12.284435874170565 0 0 1
2940 814 2 -5.176130915815541 -11.234374362265362 -13.039142181732537 0 1 0
2942 814 4 -5.347785560761766 -10.944282771726948 -13.408440911715942 0 1 0
2941 814 4 -5.004476270869317 -11.524465952803775 -12.66984345174913 0 1 0
4667 1389 4 -9.458424687056864 -8.99310585681478 -13.449827795937122 1 0 0
4665 1389 2 -9.238010012452882 -9.425441764961008 -13.570256338013051 1 0 0
1408 303 4 -9.563438373823754 -8.613882402063597 -13.27671994671092 0 0 0
1407 303 2 -9.599356072551227 -8.762938545406485 -12.800807995768704 0 0 0
4742 1414 4 -1.0029366142056422 -9.925003841363356 -13.796327595155718 0 0 0
5298 1600 2 -0.8019958498049025 -9.114629121739867 -13.619122635868083 0 0 0
5300 1600 4 -0.8499752760266667 -9.611228478668812 -13.586152143647569 0 0 0
6986 2162 4 -0.5385992128174308 -0.15675760720438456 -16.210037397622614 0 0 0
1901 467 4 -15.05077489251073 -3.1306551267857703 -0.4740661653575159 0 0 0
1595 365 4 -13.331957668761508 -3.8517237450227246 -1.1356908656181717 0 0 0
1409 303 4 -9.635273771278701 -8.911994688749372 -12.324896044826488 0 0 0
1593 365 2 -13.064249270701895 -3.859401800765828 -0.7134666821936462 0 0 0
4732 1411 4 -2.666812156992252 -0.2528541049906513 -16.99205840496395 0 0 0
7697 2399 4 -17.539528170214005 -6.192635690489644 -12.910072820533042 1 0 0
7695 2399 2 -17.406126262589886 -6.098592386199371 -12.437463269253929 1 0 0
7696 2399 4 -17.272724354965767 -6.004549081909098 -11.964853717974815 1 0 0
2051 517 4 -17.050759371675984 -5.842606744512832 -11.649448619132277 0 0 0
1847 449 4 -11.403278133581384 -6.091359797706749 -11.890369394016258 0 0 0
1542 348 2 -1.1508045070760118 -6.333764928505414 -13.198674346597203 0 0 0
1544 348 4 -1.1282231102258584 -6.3209481786681065 -12.699348990301514 0 0 0
341 69 1 -0.7354344875148261 -6.238320475824533 -12.052296934600005 0 0 0
342 69 3 -1.0989804133312633 -6.352436232603601 -12.310002103110271 0 0 0
344 69 3 -0.7563969863104401 -5.784959896343221 -11.955732144865316 0 0 0
343 69 3 -0.34793470296488416 -6.331951982249517 -12.28973546975854 0 0 0
2156 552 4 -13.703423198157124 -3.7680389297667305 -1.2472551942647159 0 0 0
345 69 3 -0.7433871534634475 -6.479930347754495 -11.666341723610184 0 0 0
1533 345 2 -11.742182693224663 -4.989664844399408 -13.095490484207865 0 0 0
1534 345 4 -11.388570195574847 -5.222474682963858 -12.829487137286373 0 0 0
1845 449 2 -11.465008421346697 -5.698485998817734 -12.193419801900806 0 0 0
1846 449 4 -11.52673870911201 -5.305612199928719 -12.496470209785352 0 0 0
1702 401 4 -6.052559651924942 -2.472131999461517 -17.916372052931912 0 0 0
4608 1370 2 -0.17856303345439764 -5.210748730694517 -12.168003111151961 0 0 1
4609 1370 4 -0.5785057965131487 -5.423768334536062 -11.956654028693388 0 0 1
1594 365 4 -12.796540872642282 -3.8670798565089313 -0.29124249876912073 0 0 0
1535 345 4 -12.09579519087448 -4.756855005834957 -13.361493831129357 0 0 0
1785 429 2 -11.887514848794034 -3.9602837654465786 -13.42551160324239 0 0 0
1787 429 4 -11.897867699568259 -3.4833018947132874 -13.27590841653663 0 0 0
3386 962 4 -2.3264960241856394 -3.4723390765913282 -12.997975127960524 0 0 0
3384 962 2 -2.143320263916466 -3.3469352320053423 -12.549956694619818 0 0 0
4187 1229 4 -14.999350075024767 -2.289270952525005 -13.00272661586741 0 0 1
1903 468 4 -11.543897019899982 -3.277278508634771 -13.26973870941289 0 0 0
1902 468 2 -11.227513258172586 -3.1108113009582175 -12.920181869852362 0 0 0
163 33 3 -10.880192302708792 -3.2232544603618734 -12.280588238531697 0 0 0
1904 468 4 -10.91112949644519 -2.944344093281664 -12.570625030291835 0 0 0
3385 962 4 -1.9601445036472926 -3.2215313874193563 -12.10193826127911 0 0 0
6858 2120 2 -0.2690807360961923 -12.611583023498236 -14.17831215187146 0 1 0
2979 827 2 -17.77922964952264 -0.8141987737146359 -11.855639003159645 0 0 0
598 120 3 -3.9872653260449002 -0.6308247233853259 -13.830182289468574 0 0 0
1918 473 4 -3.676188518461492 -0.7639499461639544 -13.57755352921174 0 0 0
1917 473 2 -3.2542848372788717 -0.5452660434693829 -13.422071586508634 0 0 0
1919 473 4 -2.8323811560962513 -0.3265821407748114 -13.26658964380553 0 0 0
6415 1972 4 -1.7236042938561715 -0.42200279747328073 -12.308992534155411 0 0 0
2727 743 2 -0.2767190432973357 -0.09527541537458249 -11.626308855802243 0 0 1
6414 1972 2 -1.3636254807442842 -0.18951766309199433 -12.05137670311554 0 0 0
5820 1774 2 -17.659513707337734 -16.541022979924968 -11.742474546974742 1 0 0
2228 576 4 -12.264356382339058 -17.106674813425663 -11.064609933700206 0 0 0
1346 282 4 -12.517219299758349 -17.113281878756297 -11.39721000266051 0 0 0
1344 282 2 -12.877054916310241 -16.98732129401365 -11.073709986969545 0 0 0
1345 282 4 -13.236890532862134 -16.861360709271004 -10.750209971278581 0 0 0
2226 576 2 -11.77518979076401 -17.144511828279118 -11.160965556234098 0 0 0
2227 576 4 -11.286023199188962 -17.182348843132573 -11.25732117876799 0 0 0
5967 1823 2 -10.817563285477124 -16.562165832818426 -11.250040077840872 1 0 1
5969 1823 4 -10.983899504691273 -16.99368766592719 -11.44009577948628 1 0 1
5968 1823 4 -10.651227066262976 -16.130643999709662 -11.059984376195464 1 0 1
3638 1046 4 -10.330031706395557 -15.943651656559853 -10.927440803771677 0 0 0
1638 380 2 -7.515911170067087 -17.29513673711879 -11.786634952691093 0 0 0
1640 380 4 -7.457820919363586 -16.815739828936042 -11.657004218687677 0 0 0
1322 274 4 -7.399785201075576 -16.56415397647329 -11.350069278776955 0 0 0
3091 864 4 -0.552628327971818 -17.067871095371427 -10.650783434426064 0 1 0
4951 1484 4 -13.994355691651814 -15.136919115191779 -10.99515867445866 1 0 0
1827 443 2 -13.73411300855671 -16.239131024148406 -10.510952649545432 0 0 0
1828 443 4 -13.894782116837202 -15.791116050916749 -10.357759890563061 0 0 0
150 30 3 -13.726716434220293 -14.879384164883088 -10.862363910320013 0 0 0
147 30 3 -13.130656798105482 -14.94303935673299 -10.417773169587171 0 0 0
1829 443 4 -13.573443900276217 -16.687145997380064 -10.664145408527803 0 0 0
1320 274 2 -7.2521545442188815 -16.176022686107384 -11.628563965610795 0 0 0
1321 274 4 -7.104523887362187 -15.78789139574148 -11.907058652444634 0 0 0
1615 372 4 -6.903877973061551 -15.83893486308595 -12.25564014966204 0 0 0
6796 2099 4 -0.38975711510056343 -15.413420330143447 -11.581812562114905 0 1 0
3375 959 2 -0.7136468899629747 -15.960421298319476 -11.029300460212166 0 1 0
3376 959 4 -0.42121792363903204 -15.770752591225053 -11.387784882751966 0 1 0
425 85 3 -0.8803574558784211 -16.17905218947185 -10.291948700914118 0 1 0
6795 2099 2 -0.2777402177652292 -15.27715241821253 -12.049662186342124 0 1 0
1948 483 4 -16.40689043227316 -14.510770369366755 -12.141008796278125 0 0 0
6119 1873 4 -16.25172780999122 -14.1519794249457 -12.26572097382868 1 0 1
4950 1484 2 -14.193577741798544 -15.133028511818758 -11.453738479880633 1 0 0
4655 1385 4 -13.09751717852774 -14.547266135769895 -10.30432361831309 1 0 0
4653 1385 2 -12.960287733569869 -14.069923370445032 -10.246773954297318 1 0 0
1659 387 2 -4.228400826372714 -13.847187569979418 -11.04001008297994 0 0 0
1661 387 4 -4.518481119562358 -14.17759630951376 -10.801927138730678 0 0 0
1571 357 4 -4.871770555408542 -14.295892591416482 -10.921309674883322 0 0 0
5409 1637 2 -13.215773921766798 -12.873895136549809 -10.483635147269888 1 0 0
5410 1637 4 -13.358954334190296 -12.398800812487139 -10.545155491396878 1 0 0
1888 463 4 -13.185361239559086 -12.13965141068129 -10.784019272347477 0 0 0
1602 368 2 -7.786155518441435 -12.21353593977369 -12.221157532019525 0 0 0
1603 368 4 -7.71791905545631 -12.639969710639921 -11.969169389076123 0 0 0
1484 328 4 -7.5475304861676005 -13.010906898467208 -11.997820985175684 0 0 0
1670 390 4 -4.196936177667579 -12.49624022671955 -11.891396653725664 0 0 0
1669 390 4 -4.2148895998799905 -13.239112874402824 -11.222204675325038 0 0 0
1668 390 2 -4.205912888773785 -12.867676550561187 -11.556800664525351 0 0 0