LAMMPS data file via write_data, version 27 Jun 2024, timestep = 1500000, units = lj

2443 atoms
4 atom types
1712 bonds
1 bond types

-7 7 xlo xhi
-7 7 ylo yhi
-7 7 zlo zhi

Masses

1 1
2 1
3 0.5
4 0.5

Bond Coeffs # zero

1 0

Atoms # bond

1776 509 4 -5.532015933699168 -6.259316608860691 -6.534817054439902 0 0 1
1775 509 2 -5.909028714501396 -5.946123308632558 -6.633667040804349 0 0 1
2367 706 4 -5.321240970163325 -6.341978153890386 -6.177080249301326 1 0 1
2368 706 4 -4.6827590356219915 -5.607231707305708 -5.947976607916868 1 0 1
1615 455 4 -4.319290512954538 -5.533283325815995 -5.826917930994685 0 0 0
113 23 3 -4.22754617688544 -6.63574398352914 -6.03170035251615 0 0 1
2366 706 2 -5.002000002892658 -5.974604930598047 -6.062528428609097 1 0 1
671 141 2 -2.0498519118090788 -6.5829414836146976 -6.122525851762256 0 1 0
1801 517 4 -0.018165099891818692 -4.557964088238297 -2.5475505701103187 0 0 1
1651 467 4 -6.589372885487786 -4.44889447422478 -6.365648295752456 0 0 0
1540 430 4 -0.7586331375684694 -5.832817099124896 -6.232634201719339 0 0 0
1160 304 2 -1.0511546066178035 -6.776774892501033 -5.39006354108648 0 1 0
1799 517 2 -0.2790826483140507 -4.792672027940154 -2.903688487168037 0 0 1
1538 430 2 -0.9586714164944787 -5.378980596722173 -6.16925347869423 0 0 0
1162 304 4 -1.4960212789541267 -6.6873734592441565 -5.600065987682052 0 1 0
672 141 4 -1.6117841698170987 -6.472334120390092 -5.908370149932095 0 1 0
397 80 3 -0.7621823157702482 -6.062728211585224 -6.554078746532358 0 1 1
1650 467 4 -6.14990666374488 -5.269750093786659 -6.7304297259004695 0 0 0
922 224 4 -6.723519318393873 -4.861067495729897 -5.659612920352787 0 0 1
673 141 4 -2.487919653801059 -6.693548846839303 -6.336681553592417 0 1 0
2017 589 4 -2.420363737017408 -6.885589783020165 -6.658581225327447 0 1 1
1649 467 2 -6.369639774616333 -4.859322284005719 -6.548039010826463 0 0 0
1673 475 2 -4.341743615693957 -3.7963627047982533 -5.320743074690347 0 0 0
2320 690 4 -3.0471511672943774 -3.7095203198380777 -5.974781019384917 0 1 1
2318 690 2 -2.7653281145257234 -4.114589540285099 -5.8941913576749405 0 1 1
2319 690 4 -2.4835050617570693 -4.519658760732121 -5.813601695964964 0 1 1
615 123 3 -1.7986131747395433 -4.762766989363527 -6.4533317210726855 0 1 1
613 123 3 -2.10522185741416 -4.575884213465495 -5.791541766644723 0 1 1
1995 582 4 -1.3405597026676 -3.8260732883597375 -6.261748969958096 0 1 1
614 123 3 -1.6443480109200435 -4.090462914449247 -6.151488234997571 0 1 1
611 123 1 -1.731033662190426 -4.537675317264849 -6.0632461552853085 0 1 1
612 123 3 -1.369258808170353 -4.7189180822682655 -5.8444539819040635 0 1 1
1539 430 4 -1.158709695420488 -4.92514409431945 -6.105872755669122 0 0 0
1994 582 2 -1.2025267612764763 -3.4644680260696252 -5.945223234234706 0 1 1
717 156 4 -0.19838550477154063 -0.08347443633407414 -0.5564886262875484 -1 0 0
1878 543 4 -6.179748145272069 -3.1995537568665293 -5.810527993108961 1 0 1
1879 543 4 -5.434516176613992 -2.7158429892835603 -6.269497715655955 1 0 1
1877 543 2 -5.807132160943031 -2.957698373075045 -6.040012854382458 1 0 1
499 100 3 -6.533720232379312 -3.2576411853946783 -5.63197592383423 1 0 0
786 179 4 -5.38672563697338 -2.483728268955512 -6.5901396801086145 0 0 0
1236 329 4 -4.2073626263255735 -3.549642223687674 -6.142634440677195 0 1 0
1674 475 4 -4.257363360079839 -3.5771439026747287 -5.762130760583022 0 0 0
260 52 3 -3.891628871715502 -2.259121280016542 -6.4945192865619745 0 1 0
256 52 1 -3.475163838993144 -2.327383052041618 -6.323355017510782 0 1 0
257 52 3 -3.505559745466201 -2.6026304466832864 -5.956047298271277 0 1 0
259 52 3 -3.2047652007040766 -2.5305044162133306 -6.641043997220053 0 1 0
2148 633 4 -0.040890034851271906 -2.161878608957693 -0.7656460748177252 1 0 0
1235 329 2 -3.718179323224146 -3.600347440763352 -6.232793616184756 0 1 0
1237 329 4 -3.2289960201227186 -3.6510526578390294 -6.322952791692316 0 1 0
883 211 4 -3.315777159440934 -2.7486779650608124 -5.6319727401245165 0 0 1
1743 498 4 -0.9512723937490188 -2.7254223566929405 -5.539127297053317 0 0 0
1744 498 4 -1.7254670695045344 -2.3878857553442008 -5.003691356176762 0 0 0
1742 498 2 -1.3383697316267766 -2.5566540560185707 -5.271409326615039 0 0 0
1996 582 4 -1.0644938198853526 -3.1028627637795134 -5.628697498511315 0 1 1
1161 304 4 -0.6062879342814802 -6.866176325757909 -5.180061094490908 0 1 0
1549 433 4 -5.278131602014182 -0.9949962644177333 -6.583014032585782 1 0 0
314 63 3 -5.231020027676354 -0.9304014055062202 -6.9839095132915086 0 0 0
1547 433 2 -5.160484182332222 -0.9682230204872616 -6.0977900862974534 1 0 0
1834 528 4 -6.893599428792988 -3.8342774591809246 -3.714500849818144 1 0 1
1548 433 4 -5.042836762650261 -0.94144977655679 -5.6125661400091245 1 0 0
1142 298 2 -0.04119476282645073 -6.0967197304818335 -0.25442638271374285 -1 1 0
713 155 2 -3.9388010023703894 -0.3600524586387839 -5.971484965413968 0 0 0
715 155 4 -3.563363682683852 -0.550150676468504 -5.701467398273128 0 0 0
714 155 4 -4.314238322056927 -0.16995424080906377 -6.241502532554807 0 0 0
258 52 3 -3.289446580491254 -1.922759871402514 -6.192629420995354 0 1 0
2083 611 4 -2.995433616742387 -1.6647909948752844 -6.225919981595277 1 1 0
778 176 4 -6.628958130446671 -4.12615136881225 -6.603957509761953 0 0 0
2081 611 2 -3.013197503559026 -1.2178415674359668 -6.4493492850376795 1 1 0
2082 611 4 -3.0309613903756647 -0.7708921399966494 -6.672778588480082 1 1 0
889 213 4 -3.3749549473510103 -0.2355391852262482 -5.5412056571273105 0 0 1
348 70 3 -5.941252302293169 -6.682042720134773 -3.51392732681333 1 0 0
1231 327 4 -6.162037399514856 -5.600929502417814 -3.746331804039478 0 1 0
349 70 3 -6.181886142443428 -5.96464880912845 -3.5849296607614813 1 0 0
1229 327 2 -6.361546867493679 -5.537036079947958 -4.200329163890808 0 1 0
1230 327 4 -6.561056335472503 -5.473142657478102 -4.654326523742137 0 1 0
1613 455 2 -4.142964896014618 -5.7311985059670105 -5.40296173245903 0 0 0
1614 455 4 -3.9666392790746974 -5.9291136861180265 -4.979005533923375 0 0 0
1372 374 4 -4.395154458828785 -6.446075611531259 -4.154241084223834 0 1 0
1300 350 4 -4.762058483650743 -6.253740331354357 -4.20204915851865 0 1 -1
1370 374 2 -4.048143685343949 -6.566885244656775 -3.8151414592911825 0 1 0
1298 350 2 -4.751972135855954 -5.7538554151346295 -4.2057010243330115 0 1 -1
1299 350 4 -4.741885788061166 -5.253970498914902 -4.209352890147373 0 1 -1
63 13 3 -5.828268969726829 -6.848779787119586 -1.4569037466588257 0 0 0
2179 643 4 -3.718645492571948 -5.961945067729037 -4.664444708422032 1 1 1
2177 643 2 -3.2554575902622953 -6.028602557110964 -4.488337507367534 1 1 1
2178 643 4 -2.7922696879526425 -6.095260046492891 -4.312230306313037 1 1 1
166 34 1 -2.282725331947616 -6.614174617644925 -4.655711896638211 0 1 0
1431 394 4 -6.295609904965953 -1.2563369130343551 -0.3407806250409371 0 0 1
167 34 3 -2.4675174341669424 -6.225615671022485 -4.493004109618255 0 1 0
182 37 3 -2.780493821643435 -5.370865663439544 -3.6879076806804365 0 1 0
170 34 3 -1.8371330053202406 -6.550750845809303 -4.725173422800947 0 1 0
1419 390 4 -1.561053045285205 -6.280060452156618 -4.741582181576652 0 1 0
1418 390 2 -1.2145767750581085 -6.211232651611133 -4.387722141389671 0 1 0
1420 390 4 -0.8681005048310118 -6.142404851065648 -4.033862101202689 0 1 0
652 134 4 -0.6405839186946748 -5.824647414902576 -4.190544531473747 0 0 0
650 134 2 -0.565656669568907 -5.631398002666633 -3.7355274196976103 0 0 0
920 224 2 -6.512557775588843 -5.17012604220692 -5.327983545437126 0 0 1
921 224 4 -6.3015962327838135 -5.479184588683943 -4.996354170521466 0 0 1
1833 528 4 -6.930450463945779 -3.419672432175176 -4.623755859586627 1 0 1
1832 528 2 -6.9120249463693835 -3.6269749456780502 -4.169128354702385 1 0 1
500 100 3 -6.939460949246759 -3.280481179635085 -4.998136192246466 1 0 0
949 233 4 -0.10721026995740515 -0.3495682773079927 -0.8441630646444187 0 0 0
1675 475 4 -4.426123871308076 -4.0155815069217775 -4.879355388797671 0 0 0
118 24 3 -4.096777437521871 -4.466185432392881 -4.37981773855686 0 0 1
119 24 3 -4.693773230926623 -4.284630369209535 -4.813676911203817 0 0 1
116 24 1 -4.559803831272331 -4.442526666972458 -4.398440883011209 0 0 1
117 24 3 -4.732851102131511 -4.8642560001654065 -4.336804760704887 0 0 1
120 24 3 -4.714661813558307 -4.167402970948355 -4.070224556164889 0 0 1
1747 499 4 -3.8123793937223667 -4.729834512386603 -4.322675408946162 0 0 0
1728 493 4 -4.517925899328655 -3.7990538973834265 -4.049061358359191 1 0 0
1745 499 2 -3.4856555832708103 -4.374088540026615 -4.193461033455393 0 0 0
1746 499 4 -3.1589317728192543 -4.018342567666627 -4.064246657964625 0 0 0
748 166 4 -2.7539061751395164 -4.0610630772539755 -4.052934903452771 0 0 0
184 37 3 -2.5978046954984 -4.7077788476817375 -3.9909597520421 0 1 0
181 37 1 -2.535167666648802 -4.986776549780784 -3.6255327622885125 0 1 0
183 37 3 -2.0867317684596487 -5.099732420005102 -3.587503607720247 0 1 0
1847 533 2 -0.010955411882448786 -3.8703023837412136 -4.4600907268003995 0 0 1
1098 283 4 -1.5109714902256635 -4.221309766019132 -4.632767627084192 0 0 0
1097 283 2 -1.085295419236455 -4.000125371952271 -4.773754670490833 0 0 0
1099 283 4 -0.6596193482472466 -3.778940977885411 -4.914741713897474 0 0 0
1848 533 4 -0.42567066063812264 -3.657565903748311 -4.641072638961819 0 0 1
496 100 1 -6.664274109932376 -3.02283809416215 -5.253659662746226 1 0 0
497 100 3 -6.289788252760739 -2.9133507190626093 -5.009994200539671 1 0 0
2203 651 4 -6.451458895162152 -2.224740528383292 -4.084147784597323 1 0 0
2124 625 4 -6.4105992388366815 -1.8644368306000791 -3.9444153113775955 0 1 0
2201 651 2 -6.004438950993941 -2.3902039242242936 -3.9331675403512554 1 0 0
2202 651 4 -5.55741900682573 -2.5556673200652953 -3.7821872961051883 1 0 0
48 10 3 -5.160009976182253 -2.5198376080770237 -3.7748509449284273 0 0 0
498 100 3 -6.882426197147919 -2.632337721052415 -5.377025482342899 1 0 0
2266 672 4 -3.0955414919092488 -3.523847160741663 -0.11483790575445121 1 0 0
1727 493 2 -4.6226362220259904 -3.3839971647139846 -3.7906747159288035 1 0 0
2394 715 4 -4.5220560912297385 -1.9384542299047056 -4.21870952289621 1 0 1
2393 715 2 -5.009609510451576 -1.8566464651655366 -4.293537011385392 1 0 1
1729 493 4 -4.727346544723326 -2.9689404320445427 -3.5322880734984152 1 0 0
2200 650 4 -3.2343241443189052 -2.4542122939281334 -3.706129549878439 0 0 0
49 10 3 -4.780646287910556 -2.7767266044263206 -3.1684754543485214 0 0 0
46 10 1 -5.092694839201332 -2.467925185157806 -3.3186999034081066 0 0 0
1584 445 4 -1.595622754661328 -2.047209652325764 -4.784031535161633 0 0 0
746 166 2 -2.2844978700643455 -4.0433012412422125 -4.224225184286294 0 0 0
747 166 4 -1.8150895649891747 -4.025539405230449 -4.395515465119818 0 0 0
2198 650 2 -3.469256869615672 -2.7577350901086506 -4.026567573189254 0 0 0
2199 650 4 -3.704189594912439 -3.0612578862891677 -4.34700559650007 0 0 0
881 211 2 -3.5125309574399886 -2.875732078980289 -5.190220326312209 0 0 1
882 211 4 -3.7092847554390436 -3.0027861928997663 -4.748467912499902 0 0 1
2123 625 2 -6.4017224245476605 -1.3771504942046164 -4.056098920427479 0 1 0
1358 370 2 -5.52683446500831 -0.5364164048358627 -5.033650254245032 0 0 1
1359 370 4 -5.736414391969881 -0.4215102524055187 -4.594477360787028 0 0 1
57 12 3 -5.509240830040141 -0.3311429259610731 -4.2616508544863025 0 0 0
1360 370 4 -5.317254538046739 -0.6513225572662067 -5.4728231477030365 0 0 1
58 12 3 -6.099735419892429 -0.7025241060370644 -3.9818434949690227 0 0 0
56 12 1 -5.754896342952488 -0.40902940939627086 -3.880616650413126 0 0 0
59 12 3 -5.477488290184579 -0.5955303176695644 -3.5588058621033505 0 0 0
2395 715 4 -5.497162929673414 -1.7748387004263675 -4.368364499874573 1 0 1
1065 272 4 -5.495105267885256 -0.913393901726428 -3.3059585176693407 0 -1 0
1329 360 4 -2.346136456211157 -0.5640649917135576 -3.874073226289124 0 1 0
2316 689 4 -2.231757021899119 -0.20922581415977232 -4.017860830202283 0 0 0
813 188 4 -1.3161580751493154 -1.021088329949949 -3.154510071187714 0 0 0
1585 445 4 -1.6689801475924004 -1.2046552755043154 -4.250439167335151 0 0 0
1583 445 2 -1.632301451126864 -1.6259324639150396 -4.517235351248392 0 0 0
347 70 3 -6.6627691990920805 -6.536548390578109 -3.6660613719873436 1 0 0
346 70 1 -6.292877558043211 -6.389648201096238 -3.4354090184061477 1 0 0
1976 576 2 -5.987173963214672 -6.604969410927794 -2.239833006526839 1 0 0
1977 576 4 -6.174052200020001 -6.364882571745835 -2.6366135935773722 1 0 0
350 70 3 -6.388612279330095 -6.377709994161657 -2.990333359269988 1 0 0
1978 576 4 -5.800295726409343 -6.845056250109752 -1.8430524194763058 1 0 0
1371 374 4 -3.701132911859113 -6.687694877782291 -3.476041834358531 0 1 0
1932 561 4 -4.315516929961305 -6.009805698346785 -3.115961659920396 0 0 0
67 14 3 -4.194323538102116 -6.2347761294661606 -2.798955620402538 0 0 0
66 14 1 -3.8673239393927954 -6.548317685209229 -2.7191874859998286 0 0 0
1931 561 2 -4.176704346690024 -5.544480549418719 -2.996782918105705 0 0 0
1933 561 4 -4.0378917634187435 -5.079155400490652 -2.877604176291013 0 0 0
1405 385 4 -4.167406348841223 -5.154403780075977 -2.5093070723412505 0 1 1
70 14 3 -3.790456393980947 -6.785217285680092 -3.1004616127892466 0 0 0
1759 503 4 -4.3167679948765265 -6.621605768853351 -2.20150446057053 1 0 0
68 14 3 -3.4795001393073735 -6.330365190768013 -2.5873185728546804 0 0 0
2098 616 4 -2.9173214809091217 -5.74921174256291 -3.7347014245854497 0 1 0
2097 616 4 -3.3868490852452924 -6.095763924846894 -2.9226389801150967 0 1 0
2096 616 2 -3.152085283077207 -5.922487833704902 -3.328670202350273 0 1 0
1800 517 4 -0.5400001967362829 -5.027379967642012 -3.259826404225755 0 0 1
651 134 4 -0.4907294204431394 -5.43814859043069 -3.2805103079214737 0 0 0
1078 276 4 -0.5051461656007712 -6.7912881585884355 -3.0658402814329686 -1 1 0
1270 340 4 -1.1457156042117518 -5.8955527372410295 -2.4088761565703827 -1 1 0
957 236 4 -1.2725738277373373 -5.559430379054438 -2.571151907039469 0 0 1
956 236 2 -1.572430587981219 -5.436872905423969 -2.952026675163304 0 0 1
1339 363 4 -0.3731024412815414 -6.446135273472708 -2.8388786543479436 0 1 0
1268 340 2 -0.9028228984438862 -6.088736388961532 -2.0168516545391215 -1 1 0
1269 340 4 -0.6599301926760205 -6.281920040682035 -1.6248271525078604 -1 1 0
632 128 2 -6.795021651255459 -5.208242866127922 -2.3802227818348154 0 0 0
633 128 4 -6.344213495182406 -4.9922920164145355 -2.3919375983534295 0 0 0
2011 587 4 -6.339881172902615 -4.590589914191058 -2.4996391855825384 1 1 0
2009 587 2 -6.382966504184192 -4.092594423198111 -2.51164523317858 1 1 0
2010 587 4 -6.426051835465769 -3.5945989322051646 -2.523651280774622 1 1 0
1785 512 4 -6.218659217806109 -3.5675449983429055 -2.8828749364212163 1 1 1
1403 385 2 -4.1083781470574685 -4.751509396834498 -2.219148861451629 0 1 1
1927 559 4 -2.6579412027180043 -4.404650800652365 -3.0837655703121984 0 0 0
185 37 3 -2.6758416593929244 -4.778998373799377 -3.2454813745114284 0 1 0
1925 559 2 -2.645076470748651 -4.172033316721088 -2.641358964528862 0 0 0
1926 559 4 -2.632211738779298 -3.939415832789812 -2.1989523587455255 0 0 0
820 190 4 -2.4427217675148243 -3.6702468133141535 -1.9464662065073925 0 0 0
958 236 4 -1.8722873482251008 -5.314315431793499 -3.332901443287139 0 0 1
1784 512 2 -6.030598928278676 -3.1089829091832395 -2.948860828006559 1 1 1
50 10 3 -5.486121830336663 -2.5237762569406565 -3.0962232519880586 0 0 0
1786 512 4 -5.842538638751242 -2.6504208200235735 -3.014846719591902 1 1 1
1308 353 4 -5.1244060315727 -2.698748988932338 -1.6639900099551943 0 0 -1
1066 272 4 -5.315734273617819 -1.8962825821227502 -3.3478618393112027 0 -1 0
47 10 3 -4.932585333276709 -2.0440613138061017 -3.2392998739654617 0 0 0
34 7 3 -4.4767177027707685 -2.8402419608706846 -2.283578414155092 0 0 0
31 7 1 -4.424560925523003 -2.632613145243042 -1.871911138909311 0 0 0
35 7 3 -4.493619582212097 -2.1844452085186563 -1.9140585282542963 0 0 0
1810 520 4 -4.2711556226554315 -2.0597084733311726 -2.208686082235393 0 0 1
1808 520 2 -4.176036762228779 -1.5822113554121542 -2.3224793367380885 0 0 1
33 7 3 -3.9981544475377486 -2.7122953014337705 -1.7072045224146977 0 0 0
1767 506 4 -3.431024014013624 -2.3872497532154813 -3.3560111214608286 0 0 0
1646 466 2 -1.5637179332608204 -1.968989904292189 -2.0394410200049733 0 0 0
818 190 2 -2.008171216725377 -3.7412068143948085 -1.7095474502733425 0 0 0
819 190 4 -1.57362066593593 -3.8121668154754635 -1.4726286940392925 0 0 0
1734 495 4 -1.2178772089970225 -3.713399843199401 -1.6523285235180762 0 0 0
2125 625 4 -6.3928456102586395 -0.8898641578091537 -4.167782529477362 0 1 0
60 12 3 -5.925671878706836 -0.014981650591216478 -3.7290842110862865 0 0 0
948 233 4 -0.2864369750048358 -1.083047295263961 -0.18850589933841694 0 0 0
1064 272 2 -5.4054197707515375 -1.404838241924589 -3.3269101784902717 0 -1 0
1809 520 4 -4.080917901802126 -1.1047142374931358 -2.436272591240784 0 0 1
1145 299 2 -4.014954123133937 -0.6784712791974683 -1.6892802725959772 0 0 0
1147 299 4 -4.1714317075593605 -0.9585068716407985 -2.0728097141482555 0 0 0
1766 506 2 -3.2606204953324998 -1.92280891858682 -3.2835035222008604 0 0 0
1647 466 4 -1.5624824604497236 -1.983643630284747 -2.539224715138814 0 0 0
1768 506 4 -3.0902169766513756 -1.4583680839581585 -3.210995922940892 0 0 0
1330 360 4 -2.730102004524643 -1.3381299795009847 -3.370690814609842 0 1 0
1328 360 2 -2.5381192303679 -0.9510974856072711 -3.622382020449483 0 1 0
1319 357 2 -1.608414720152263 -0.2882861863920967 -2.9898014434225435 0 0 1
814 188 4 -1.6905695586922302 -1.9175321515201174 -2.917435155264942 0 0 0
812 188 2 -1.5033638169207728 -1.4693102407350331 -3.035972613226328 0 0 0
1321 357 4 -1.28691446951016 -0.6261153090046462 -3.170104168725386 0 0 1
1091 281 2 -6.610766645208052 -6.062635135296125 -1.0006668974847106 0 1 0
1033 261 4 -5.824434533996211 -4.900836482806891 -0.1917146661950197 0 0 0
1092 281 4 -6.146895662993128 -6.115386841120656 -0.8216669829832858 0 1 0
943 231 4 -6.144994064307818 -6.101837739156283 -0.3971104883537032 0 0 0
941 231 2 -5.930692069378759 -6.352543156639355 -0.021316065012941986 0 0 0
1430 394 2 -6.770876830324208 -1.13302737597837 -0.24635548150506323 0 0 1
168 34 3 -2.347938308032886 -6.952778434535724 -4.345236900967077 0 1 0
642 131 4 -3.8908216410671965 -4.5489622912424 -1.6166150661777976 0 0 -1
641 131 2 -3.8491484717111146 -4.781340109701149 -1.1758612840681206 0 0 -1
169 34 3 -2.4912910564518915 -6.723528161779934 -5.055514524127109 0 1 0
1757 503 2 -4.613321367913774 -6.96602530313736 -1.9931027299061876 1 0 0
1409 387 2 -3.2111897630125843 -6.7582610546781785 -0.12342165530958252 0 0 1
2243 665 2 -3.5442102873381787 -5.792718877805811 -0.6600977845331052 0 1 0
1411 387 4 -3.5527261378986363 -6.394405321645355 -0.0924069786408134 0 0 1
2244 665 4 -3.494000751059963 -6.253044740181801 -0.4714735472400132 0 1 0
2245 665 4 -3.594419823616394 -5.332393015429821 -0.8487220218261967 0 1 0
643 131 4 -3.8074753023550327 -5.013717928159897 -0.7351075019584437 0 0 -1
1143 298 4 -0.504717276570787 -5.930492042169205 -0.34111683714953145 -1 1 0
983 245 2 -0.9143034370633608 -6.883342901704053 -1.130618377696376 0 0 0
985 245 4 -0.9206717555557578 -6.439206881419064 -1.3601889333104809 0 0 0
1031 261 2 -6.186180160277946 -4.706759840322966 -0.4771518023708207 0 0 0
1032 261 4 -6.547925786559681 -4.51268319783904 -0.7625889385466218 0 0 0
2429 727 2 -6.95122770259631 -4.00156042184711 -1.0529955502566046 0 0 0
2435 729 2 -6.6827695041370765 -0.6068447342945019 -1.4016249461397763 1 1 1
1309 353 4 -5.753059335556345 -2.8518952956364094 -0.901532645813749 0 0 -1
639 130 4 -5.996284912899612 -3.090926213801803 -0.6630393814959333 0 0 -1
638 130 2 -5.753537528968852 -3.2461145501843363 -0.2543949298690743 0 0 -1
2430 727 4 -6.896519708790995 -4.495007691793853 -0.9936927071908761 0 0 0
1404 385 4 -4.049349945273714 -4.348615013593019 -1.9289906505620071 0 1 1
947 233 2 -0.1968236224811205 -0.7163077862859767 -0.5163344819914177 0 0 0
2312 688 2 -0.31454912257217743 -4.842499557351496 -0.09793210446517181 0 1 0
2313 688 4 -0.09488804423583685 -4.598406558263562 -0.47498331910356373 0 1 0
1148 300 2 -5.5183452481546595 -0.7968101117423355 -0.7784523599921448 0 1 0
1417 389 4 -6.602469438396427 -6.87667909659839 -3.909372620410533 0 1 0
1007 253 2 -6.975977100177894 -2.9679127705400097 -0.6959855757119312 0 0 0
1307 353 2 -5.438732683564522 -2.7753221422843737 -1.2827613278844716 0 0 -1
1008 253 4 -6.7683122310914845 -3.2010063508672704 -1.0865527081713617 0 0 0
675 142 4 -3.604833824587078 -2.7317128999982714 -1.5648416059282428 0 0 0
32 7 3 -4.732505123943527 -2.8063520178960766 -1.577657549655947 0 0 0
674 142 2 -3.225228507614449 -2.6394053926042096 -1.2527853170880825 0 0 0
1648 466 4 -1.5649534060719172 -1.954336178299631 -1.5396573248711327 0 0 0
2277 676 4 -1.9791301539841701 -2.877302931377288 -0.7109189170705239 1 0 1
412 83 3 -2.7500937331395168 -3.2676454486576834 -0.1360507959937584 0 0 0
411 83 1 -2.538984772866302 -3.2437579096217566 -0.544048825855428 0 0 0
414 83 3 -2.086299906705284 -3.1692613598754726 -0.47457454266724086 0 0 0
676 142 4 -2.8456231906418203 -2.547097885210148 -0.9407290282479221 0 0 0
413 83 3 -2.7217012042738267 -2.8933358752162457 -0.7871930289461742 0 0 0
415 83 3 -2.5994270117050577 -3.6360050728293607 -0.7674070554320058 0 0 0
2276 676 2 -1.716378396495254 -2.5337103088694795 -0.9617288524693579 1 0 1
2278 676 4 -1.4536266390063377 -2.190117686361671 -1.212538787868192 1 0 1
69 14 3 -4.011432215934439 -6.832964437661544 -2.3822764725994428 0 0 0
1733 495 2 -0.9056845244393973 -3.3389250680593805 -1.541403456502787 0 0 0
2149 633 4 -0.6787375838061405 -2.5635692413904865 -1.4227572831442328 1 0 0
2147 633 2 -0.3598138093287062 -2.3627239251740897 -1.094201678980979 1 0 0
1735 495 4 -0.5934918398817722 -2.96445029291936 -1.4304783894874977 0 0 0
1150 300 4 -5.954725559482997 -0.875261282648784 -1.0095749198354462 0 1 0
1149 300 4 -5.081964936826322 -0.718358940835887 -0.5473298001488434 0 1 0
2437 729 4 -6.2723996788770915 -0.8384504390077305 -1.234426249791771 1 1 1
1081 277 4 -4.665058386065508 -0.07894714181290374 -6.409018647333271 0 0 1
1146 299 4 -3.8584765387085134 -0.39843568675413804 -1.305750831043699 0 0 0
2069 607 2 -6.972295196585962 -6.955882582286969 -0.4505423570355076 1 1 0
2065 605 4 -4.4818446903299005 -6.9017712771714566 -6.831426818312028 1 1 0
1075 275 4 -3.7565228357185028 -0.004455022371800926 -1.2995867366891787 0 0 0
2264 672 2 -3.542916302999287 -3.331053347862413 -0.002204322318575475 1 0 0
1435 395 4 -5.84451493992712 -1.6689726984972504 -0.2003554122471814 0 0 0
1438 396 4 -3.8951607842710008 -0.7074180557602191 -0.11233777806820489 0 0 0
1185 312 4 -3.274372097554026 -2.355593223143571 -6.995032866177733 0 1 0
396 80 1 -0.8100304377083019 -6.169862594020006 -6.9988627180593435 0 1 1
785 179 2 -5.553343015975482 -2.089495163655931 -6.8486332152314375 0 0 0
1777 509 4 -6.286041495303624 -5.632930008404425 -6.732517027168797 0 0 1
222 45 3 -6.832528755639585 -3.268252427719725 1.2093648904469316 0 1 0
1087 279 4 -5.515542975138277 -5.213503842807794 2.017908857659339 0 0 -1
130 26 3 -6.241954953458744 -4.936364733577392 1.7104522133636868 0 0 0
127 26 3 -6.46766775661906 -5.647181757349678 1.7386105017527367 0 0 0
126 26 1 -6.265110234219592 -5.3074421137486985 1.9734453898874866 0 0 0
129 26 3 -5.838049208901592 -5.442618063934422 2.0944674669879766 0 0 0
1750 500 4 -6.826027269999499 -6.482586498574407 6.519995696993433 1 0 -1
1085 279 2 -5.147800397104475 -5.510064507473472 1.854149374043037 0 0 -1
1086 279 4 -4.780057819070673 -5.8066251721391495 1.690389890426735 0 0 -1
251 51 1 -4.989257616458535 -6.726219120233734 0.5953195740209104 0 1 0
255 51 3 -5.011316131813645 -6.291419003465598 0.7289694163655297 0 1 0
893 215 2 -5.195558504546134 -5.645640692177648 0.5177495059770966 0 1 0
895 215 4 -4.820312686188204 -5.972906156999722 0.5634429556119589 0 1 0
2056 602 4 -1.1517054761574186 -5.608447615664329 1.417404345590427 0 1 0
405 81 3 -1.4666174194134398 -5.414694589138409 1.5862168595158526 0 0 0
2055 602 4 -0.674604929678733 -5.214495867636516 0.6317981536748369 0 1 0
2054 602 2 -0.9131552029180758 -5.4114717416504226 1.024601249632632 0 1 0
1555 435 4 -3.103918375585101 -6.629055918682489 4.754713399226554 1 0 0
1362 371 4 -6.186717914629368 -4.737481424805952 1.3741362554896999 0 1 0
1361 371 2 -5.835509051819947 -4.856383860394103 1.0387043764214532 0 1 0
1363 371 4 -5.484300189010526 -4.9752862959822535 0.7032724973532065 0 1 0
224 45 3 -6.553627035749413 -3.937842494468672 1.012481744512326 0 1 0
894 215 4 -5.570804322904063 -5.318375227355574 0.47205605634223424 0 1 0
2314 688 4 -0.534210200908518 -5.086592556439429 0.2791191101732201 0 1 0
2071 607 4 -6.974995636757248 -6.766627428157786 0.012248302181301796 1 1 0
221 45 1 -6.664830596891305 -3.6649642953068993 1.3709106166912572 0 1 0
640 130 4 -5.510790145038093 -3.4013028865668695 0.15424952175778472 0 0 -1
1641 464 4 -5.300851487491979 -3.2597735653160966 0.48300733084337555 0 0 0
1348 366 4 -5.901995919534675 -3.565951971131751 1.677870616321121 0 1 -1
225 45 3 -6.294682250786692 -3.580067392568735 1.6222723436533437 0 1 0
2274 675 4 -5.986285212410513 -6.944440407119898 4.39034999987754 1 1 0
1045 265 4 -0.16685277230867515 -3.7173669222396772 2.299028754144736 -1 0 0
1920 557 4 -0.2649496375732935 -2.73005719140643 1.5593126398003057 0 0 1
1640 464 2 -4.806009499355702 -3.237092869131188 0.41505887392283886 0 0 0
2265 672 4 -3.990291114089325 -3.138259534983163 0.11042926111730016 1 0 0
1336 362 4 -4.230704209145683 -2.3438974135505815 1.2994280994804173 -1 0 1
94 19 3 -4.421783342556498 -2.4974933525094603 1.6638099265072723 0 0 0
1334 362 2 -4.513606456352718 -2.0672680486225947 0.9937444182269628 -1 0 1
1642 464 4 -4.311167511219425 -3.2144121729462793 0.34711041700230216 0 0 0
805 185 4 -5.279351222667317 -6.981940743618584 1.156938303660299 0 0 -1
1374 375 4 -1.2279751442971751 -0.8776624853187553 1.3405436244095819 0 0 0
1373 375 2 -1.5855350060254876 -1.1575071378014772 1.549918684428013 0 0 0
1532 428 2 -1.1357997112898224 -1.8937544851931059 0.5612435502919669 0 0 0
1534 428 4 -1.2320452139053444 -2.3203820430650217 0.8035774729906284 0 0 0
1806 519 4 -1.4097988323488992 -2.5331890541944935 1.0598259104583572 0 0 0
1533 428 4 -1.0395542086743004 -1.46712692732119 0.3189096275933055 0 0 0
1805 519 2 -1.6104743414558316 -2.9910645174633728 1.068736588389038 0 0 0
1433 395 2 -5.471581112223164 -1.716772805434872 0.12924360160281273 0 0 0
1823 525 2 -5.917844280790921 -1.0167353861212867 1.1192301323330427 1 0 0
1825 525 4 -5.6435845848232935 -1.1501386044719064 1.5154437117335342 1 0 0
1020 257 4 -2.771364712584697 -6.734049727197299 2.288949085666523 0 0 0
1824 525 4 -6.192103976758548 -0.8833321677706669 0.7230165529325514 1 0 0
745 165 4 -5.791359004523834 -1.5286862017946963 1.4965881450744472 0 0 0
2050 600 4 -6.553441807822683 -0.7123454778957827 0.7790886867623784 1 0 0
1335 362 4 -4.796508703559752 -1.790638683694608 0.6880607369735083 -1 0 1
1434 395 4 -5.098647284519207 -1.7645729123724938 0.45884261545280686 0 0 0
1436 396 2 -3.654937562475089 -0.8757110822665838 0.2925946372054801 0 0 0
1553 435 2 -2.939743200322953 -6.915185546918331 4.3789789881416485 1 0 0
954 235 4 -5.490684897488775 -0.003586160650536227 4.055057347314344 0 1 0
1437 396 4 -3.4147143406791773 -1.0440041087729484 0.6975270524791651 0 0 0
1128 293 4 -3.0471301716807906 -0.9859920401388182 0.8575866715014921 0 0 0
1129 293 4 -2.1402744561534996 -0.9970927684314603 0.4362916619813106 0 0 0
2410 720 4 -2.073017579337884 -0.67515958403702 0.18230867116100535 0 0 0
1127 293 2 -2.593702313917145 -0.9915424042851393 0.6469391667414014 0 0 0
2408 720 2 -1.5823773791239297 -0.6135456077240882 0.2563080755981744 0 0 0
557 112 3 -0.8364545954331561 -1.2999879309120865 0.6408788665735959 0 1 0
556 112 1 -0.5557203017204416 -0.9405296893669566 0.5810622391292305 0 1 0
559 112 3 -0.8000136307669483 -0.5493275931794728 0.631872566050089 0 1 0
2409 720 4 -1.0917371789099755 -0.5519316314111563 0.3303074800353431 0 0 0
1375 375 4 -1.9430948677538 -1.437351790284199 1.7592937444464443 0 0 0
1024 258 4 -3.152506830964118 -0.8756985917851408 6.93071767095731 1 0 0
560 112 3 -0.22262995789529305 -0.9571085285452857 0.8911847390254123 0 1 0
2109 620 4 -6.546724949736391 -5.559656457671237 2.5979781614298787 0 1 -1
128 26 3 -6.516174858921312 -5.217042863484518 2.3530432425882775 0 0 0
2108 620 2 -6.694640663733584 -5.8542546559491395 2.9739207675867494 0 1 -1
1059 270 4 -6.878242324801681 -5.598298065103959 1.815472628969646 0 0 0
1105 285 4 -4.493780288597481 -5.523613559654688 1.7525018871907074 0 1 -1
1103 285 2 -4.053291430084659 -5.332345831157257 1.8917362994645497 0 1 -1
872 208 2 -3.095082331234635 -5.29277296505511 2.9107699262679456 0 0 0
1021 257 4 -2.7484946140964466 -5.754804234656688 2.4903323618679694 0 0 0
1001 251 2 -6.954437214429518 -1.1973878016467527 3.8052508519060257 0 0 0
1019 257 2 -2.759929663340572 -6.244426980926994 2.389640723767246 0 0 0
874 208 4 -3.1209251058058047 -5.701893943481171 2.6244970214827887 0 0 0
327 66 3 -0.32627662228286314 -3.389755739385625 1.856373963439348 0 0 0
2103 618 4 -1.9839006010617202 -5.379315648959866 2.484516005814835 0 1 0
404 81 3 -1.6209308995845844 -5.364090486196334 2.321421983684364 0 0 0
2102 618 2 -1.901157348448737 -5.292037880275045 2.9698366680992354 0 1 0
1344 365 4 -0.036114761588412925 -5.284590124539263 3.9250505758502596 -1 1 0
121 25 1 -6.0407700362814785 -3.8913474376659583 2.8656086378352827 0 0 0
1173 308 4 -5.585375754188119 -4.599037913072516 2.5637420379077076 0 1 0
123 25 3 -6.362041831634517 -3.7109834438442646 2.58355675742418 0 0 0
1104 285 4 -3.6128025715718377 -5.141078102659826 2.030970711738392 0 1 -1
975 242 4 -4.682692017907243 -5.390943595484105 3.2579208118187752 1 0 0
1172 308 2 -5.2506156562843715 -4.898129549847623 2.7839234850426036 0 1 0
1174 308 4 -4.915855558380624 -5.1972211866227305 3.004104932177499 0 1 0
1513 421 4 -3.613509560724241 -4.774370758519288 1.917381461359553 0 1 0