LAMMPS data file via write_data, version 27 Jun 2024, timestep = 1500000, units = lj

19200 atoms
4 atom types
13200 bonds
1 bond types

-15.42 15.42 xlo xhi
-15.42 15.42 ylo yhi
-15.42 15.42 zlo zhi

Masses

1 1
2 1
3 0.5
4 0.5

Bond Coeffs # zero

1 0

Atoms # bond

3646 816 2 -15.116901178067474 -14.23275961419743 -13.815709299252743 0 0 0
996 200 1 -1.0814728005919052 -0.1436425924523573 -1.2039091640554909 0 0 0
10938 3246 4 -2.7622127270099255 -4.735399461481446 -15.29142970672009 0 0 1
10714 3172 2 -13.836733917755108 -13.890655798058225 -14.418263014316045 0 1 1
10715 3172 4 -13.445305156153479 -14.08133862739077 -14.17245092513251 0 1 1
10434 3078 4 -13.083642163868182 -14.036579394692934 -14.378818565692937 0 1 1
10432 3078 2 -12.620814793178532 -13.84739477837399 -14.378895302728685 0 1 1
4141 981 2 -11.64663517412284 -13.887543740370065 -15.047901022111107 0 0 0
4142 981 4 -11.986688928325645 -13.663760067893934 -14.757583416400612 0 0 0
13677 4159 4 -0.2854558995086683 -5.248559815438422 -14.537175788404777 0 0 1
10433 3078 4 -12.157987422488882 -13.658210162055047 -14.378972039764433 0 1 1
8830 2544 2 -9.46740537892903 -0.29849178219608424 -2.9897366587176073 0 0 0
13990 4264 2 -14.917892780587263 -11.140001699399239 -15.158653349790637 1 0 1
9140 2647 4 -4.922601964540883 -0.15040049430724023 -15.365958622092148 0 0 1
13992 4264 4 -14.830674862856467 -10.651579228647119 -15.09671366226169 1 0 1
4335 1045 4 -7.161032439413093 -14.943173447167652 -14.702924164116718 0 0 0
14118 4306 4 -15.341846186166272 -14.854015539095538 -11.599519660181095 1 0 1
3302 701 4 -7.491153699472378 -14.992760177993238 -14.933808744679943 0 0 0
4333 1045 2 -7.038543982445688 -15.145321474427611 -14.262319178914872 0 0 0
7647 2149 4 -2.749826763199785 -0.1482695522700595 -5.459262966802803 0 0 0
4438 1080 2 -15.256684275061149 -2.074397497156681 -5.92770991617438 0 0 0
3977 926 4 -4.976817329114143 -15.006418015160994 -15.090843272884642 0 0 0
136 28 1 -15.283672196561373 -9.931220789012592 -3.7417171888037033 0 0 0
3976 926 2 -4.979227797763154 -14.722694863441358 -14.679145127613987 0 0 0
3978 926 4 -4.9816382664121654 -14.438971711721722 -14.267446982343332 0 0 0
5292 1364 4 -3.6982356747039775 -14.856331822759088 -14.625289928366014 0 0 1
3911 904 4 -4.813056337483092 -14.434366340390138 -13.929757631525787 0 0 0
13785 4195 4 -3.612981079049067 -14.947697737472716 -15.021680277505016 0 0 1
5290 1364 2 -3.377459552529731 -14.745450148155628 -14.258127929134265 0 0 1
15543 4781 4 -12.811611816356038 -0.22478561787113135 -9.305772321697125 1 0 0
5291 1364 4 -3.056683430355484 -14.634568473552168 -13.890965929902515 0 0 1
592 119 3 -2.6583824998312786 -14.666331730920408 -13.956426902594265 0 0 1
591 119 1 -2.2299326324858133 -14.500990910380256 -13.93009964989691 0 0 1
593 119 3 -1.9411053527569677 -14.799087862744502 -14.137505072862194 0 0 1
594 119 3 -2.2143238277804853 -14.089934353980412 -14.144782841265487 0 0 1
11625 3475 4 -1.6242806154470584 -14.626938288650912 -13.974414312193659 0 0 0
11623 3475 2 -1.1651918582063472 -14.525491621041368 -14.144549807038302 0 0 0
15393 4731 4 -0.4913875437889567 -14.591269830256682 -14.592327200727304 0 1 0
11624 3475 4 -0.706103100965636 -14.424044953431824 -14.314685301882946 0 0 0
15391 4731 2 -0.37464022653394535 -14.911501918814986 -14.95814337501603 0 1 0
10716 3172 4 -14.228162679356737 -13.69997296872568 -14.66407510349958 0 1 1
18804 5868 4 -14.589013434722343 -13.521971911720426 -14.630140367408629 1 1 1
18802 5868 2 -14.930891121599636 -13.597731985195404 -14.98704379760048 1 1 1
8834 2545 4 -7.895995299103699 -15.395463021060362 -1.865214677677075 0 1 0
6700 1834 2 -12.06139808984881 -12.855697803612925 -14.612447077693286 0 0 1
6701 1834 4 -11.74104405209368 -13.09675148119474 -14.911221934430596 0 0 1
3609 803 4 -11.638007336762453 -12.789147544379338 -15.125176786842477 0 0 0
4499 1100 4 -6.433512748275475 -13.164967741585349 -15.135594109741357 0 0 0
7308 2036 4 -12.282453786335822 -15.044727796146834 -8.349403432659104 0 1 0
4498 1100 2 -5.996229068627023 -12.926927655817805 -15.181636493270727 0 0 0
1061 213 1 -4.76750849099971 -12.889107242184132 -14.989508713076145 0 1 0
4500 1100 4 -5.558945388978571 -12.68888757005026 -15.227678876800097 0 0 0
1063 213 3 -5.215617492382695 -12.802031678134208 -15.072672220847151 0 1 0
1065 213 3 -4.561002108116931 -12.511704581051942 -14.840102069318695 0 1 0
1064 213 3 -4.727698907812 -13.226884462344696 -14.673879584783348 0 1 0
11694 3498 4 -4.426946453035968 -13.496767152768168 -14.602894571042585 0 0 0
11692 3498 2 -3.9492448197577468 -13.606761659353953 -14.504394022392852 0 0 0
11693 3498 4 -3.471543186479526 -13.716756165939739 -14.405893473743118 0 0 0
16956 5252 4 -3.1165096535410237 -13.93767422334181 -14.489824427261157 0 1 0
16954 5252 2 -2.7706003343402377 -13.634949144715494 -14.686558434643196 0 1 0
16955 5252 4 -2.4246910151394516 -13.332224066089179 -14.883292442025235 0 1 0
4928 1243 4 -2.0541307911573488 -13.186224899383733 -14.857938844381701 0 0 0
4927 1243 2 -1.7838122912818546 -12.76934261013559 -14.913948357288088 0 0 0
8166 2322 4 -9.404084365243742 -0.28986490655403063 -9.108541243079426 0 0 0
3564 788 4 -0.7799052704681538 -0.3154925702567236 -1.9279461320222109 0 0 0
6702 1834 4 -12.38175212760394 -12.61464412603111 -14.313672220955976 0 0 1
18015 5605 4 -12.130635955289591 -12.319649547223786 -14.171880285995739 0 1 1
3615 805 4 -6.026839658459792 -10.983932769422001 -13.636286861050468 0 0 0
5481 1427 4 -5.2031302711915375 -11.260496909416048 -14.632073524172275 0 0 1
3614 805 4 -5.460620948166347 -11.372224154993939 -14.36335368879342 0 0 0
3613 805 2 -5.74373030331307 -11.17807846220797 -13.999820274921944 0 0 0
4152 984 4 -4.378440361749518 -12.16060601288446 -14.820967315707916 0 0 0
4150 984 2 -4.0392565102918025 -11.890789756713183 -15.070273358185933 0 0 0
4151 984 4 -3.7000726588340873 -11.620973500541906 -15.31957940066395 0 0 0
4929 1243 4 -1.5134937914063604 -12.352460320887447 -14.969957870194476 0 0 0
2168 434 3 -1.6005181885054782 -12.12236243753958 -15.304530104673354 0 0 1
4510 1104 2 -0.4858038623844997 -11.367750450252856 -14.712918040108347 0 0 0
4512 1104 4 -0.17160171395890983 -11.471561795822938 -15.087751622455652 0 0 0
6441 1747 4 -14.650652333272063 -10.34038415971632 -14.965530870410909 0 0 1
14300 4367 4 -0.9167927991602024 -2.362917067544849 -14.868346575007655 0 0 1
6439 1747 2 -14.748304650753683 -10.025764169891781 -15.341666865621749 0 0 1
10944 3248 4 -10.737245206429737 -11.20691697654516 -13.360095153529002 0 1 1
14517 4439 4 -11.321041294225452 -8.080607305833357 -14.958441004009387 1 0 1
649 130 3 -6.370410073166096 -0.07931613003944182 -1.8616944335764485 0 0 0
10711 3171 2 -3.833676241517471 -10.046278573337597 -15.08917403611657 0 1 1
10713 3171 4 -3.4645399481986154 -9.890105911709783 -14.790261847146581 0 1 1
4566 1122 4 -3.119157522648195 -9.96230622534444 -14.927310075231091 0 0 0
4564 1122 2 -2.869503693354978 -9.545375992051152 -14.80965742509056 0 0 0
3642 814 4 -1.1031354408531526 -9.231477449193909 -14.484559055163961 0 0 0
4565 1122 4 -2.6198498640617607 -9.128445758757865 -14.692004774950028 0 0 0
12229 3677 2 -1.028047998392731 -9.706558299061081 -15.140846054312698 0 0 0
12231 3677 4 -1.1300595555352533 -9.285167342351961 -14.891801271565912 0 0 0
860 172 3 -13.661525829886312 -15.400286959573592 -3.3847897391676 0 1 0
13658 4153 4 -0.4993175430080414 -10.098892445944225 -15.386785561307697 0 0 1
14515 4439 2 -11.265703403327645 -8.40049091040637 -14.578161899460786 1 0 1
12428 3743 4 -11.1479096228176 -8.324269520805387 -15.207096010061912 1 0 0
5116 1306 2 -9.59011904770436 -8.292224679289154 -15.257357604423746 0 0 1
7616 2139 4 -3.3802518722235915 -15.244738967062835 -6.434329802515336 0 1 0
5603 1468 4 -9.565138752002385 -8.937881416328421 -14.652391578448308 0 0 1
5117 1306 4 -9.572540834295456 -8.603957330264503 -14.866827502217475 0 0 1
5602 1468 2 -9.49447652985777 -9.22931576828206 -14.252300502738377 0 0 1
14764 4522 2 -7.244047436657431 -8.951632639288961 -13.84626238135512 0 0 1
14766 4522 4 -6.95257666267484 -9.133983399992834 -14.2092954211528 0 0 1
7544 2115 4 -7.165522028617643 -8.928085832046913 -14.4599549000409 0 0 0
7543 2115 2 -6.985239135516704 -8.932675113044512 -14.926299211633689 0 0 0
6293 1698 4 -5.558185113545295 -7.987015880768069 -14.118535647451203 0 0 1
488 98 3 -5.339645417532102 -8.013133607325006 -14.459219157914417 0 0 1
486 98 1 -5.319776139006388 -8.045123769949216 -14.92169276934134 0 0 1
490 98 3 -4.921702576057351 -8.226790770206174 -15.04792485519438 0 0 1
489 98 3 -5.669773396600808 -8.306867327620052 -15.077552416762714 0 0 1
14796 4532 4 -5.913282976172787 -8.632349837725869 -14.943463952085558 0 0 1
14794 4532 2 -5.929679835986472 -9.001676692632252 -15.28010740922283 0 0 1
11774 3525 4 -3.7429069296402213 -15.264371036882585 -6.31754465198419 0 0 0
4519 1107 2 -0.18165598189635018 -6.513959932840977 -7.725659096021822 0 0 0
3867 889 4 -4.557965827461511 -8.341332678164878 -15.162022089767438 0 0 0
3458 753 4 -9.60178560730447 -15.303064515321273 -5.495127328203405 0 0 0
12691 3831 2 -15.383556701818724 -11.04134068078931 -12.915425067715024 1 0 0
5891 1564 4 -2.5404077309437563 -8.258817569925224 -15.28811382251699 0 0 1
5890 1564 2 -2.5092795833025914 -8.541941539182437 -14.877173612198444 0 0 1
5892 1564 4 -2.4781514356614265 -8.82506550843965 -14.466233401879897 0 0 1
3640 814 2 -1.4037533578234738 -9.010060142247346 -14.151988394730626 0 0 0
11805 3535 4 -13.048593681539938 -6.312400924241065 -14.913702737700614 1 0 0
10110 2970 4 -13.094620791334691 -6.5812173568829015 -15.205262805005791 0 0 1
6343 1715 2 -10.518012516527067 -7.381203376590624 -14.2233446906579 0 0 1
6344 1715 4 -10.568123276553246 -7.300949016285438 -14.71431123675009 0 0 1
16478 5093 4 -15.335930895782397 -2.9295763190022686 -7.388565149103689 1 0 0
10018 2940 2 -9.750965362424548 -7.2073543245523055 -15.294453823813845 0 0 1
17980 5594 2 -7.882543432365404 -7.336280042972658 -15.1769866231812 1 0 1
4608 1136 4 -7.60152284243506 -6.825073359599431 -14.574519459338795 0 0 0
4606 1136 2 -7.705624059868722 -6.763749369313487 -14.089336705374437 0 0 0
17981 5594 4 -7.862982484346529 -7.001656641039255 -14.805981841283225 1 0 1
10986 3262 4 -5.945171349313208 -6.432187225131605 -14.007836167720086 0 0 1
4344 1048 4 -5.883009720634503 -6.668446773235222 -14.340415018478371 0 0 0
4342 1048 2 -5.7604842063605055 -7.053878336201276 -14.634404828882735 0 0 0
4343 1048 4 -5.6379586920865075 -7.439309899167329 -14.928394639287099 0 0 0
487 98 3 -5.357778643090094 -7.623510321783932 -15.101686963718993 0 0 1
186 38 1 -14.205199034103217 -5.101883182463843 -14.85181026346361 0 0 0
188 38 3 -14.57833463323957 -4.990443267668705 -14.59951882475097 0 0 0
189 38 3 -14.317363621935945 -5.423382638745235 -15.167020042574558 0 0 0
11638 3480 2 -15.406971376578294 -14.071746976831234 -0.5222831417815832 1 0 0
11803 3535 2 -13.347513579991723 -5.94930983133536 -14.743962487429673 1 0 0
190 38 3 -13.875235520938773 -5.2590990312635215 -14.580135353200522 0 0 0
11804 3535 4 -13.646433478443509 -5.586218738429655 -14.574222237158732 1 0 0
10041 2947 4 -12.634721321890927 -5.208973016306566 -13.880249576121356 0 0 1
4136 979 4 -10.054683529494936 -4.257562234344904 -14.616730471684612 0 0 0
3306 702 4 -10.185706573658537 -4.225937999188708 -14.224019892945059 0 0 0
3304 702 2 -10.051107791382943 -4.537064441634785 -13.85648281369903 0 0 0
7784 2195 4 -4.673312734146443 -0.35495732293664545 -15.12123005958592 0 0 0
11559 3453 4 -2.1904456040060634 -5.921740018244181 -13.758175082197702 0 0 0
3300 700 4 -2.5652968661668543 -5.7922145989326355 -13.85293043672549 0 0 0
11557 3453 2 -1.7327721308777495 -6.000731092170985 -13.943365260756218 0 0 0
16055 4952 4 -0.2756638300426785 -15.37902630809687 -5.098112774553672 0 1 0
13675 4159 2 -0.6433155105886493 -5.587679905386788 -14.453904764925792 0 0 1
13676 4159 4 -1.0011751216686304 -5.926799995335155 -14.370633741446806 0 0 1
11558 3453 4 -1.2750986577494348 -6.079722166097788 -14.128555439314734 0 0 0
8164 2322 2 -9.004300444071973 -0.22757754778426625 -8.814784368589644 0 0 0
9743 2848 4 -15.09706226675684 -4.398449535238092 -13.73733510578241 0 0 1
9744 2848 4 -14.821439673035549 -5.14866104966081 -14.338346644322492 0 0 1
9742 2848 2 -14.959250969896194 -4.773555292449451 -14.037840875052451 0 0 1
8828 2543 4 -14.236211637729888 -3.1585210965873944 -14.850303116239063 0 0 0
5739 1513 4 -6.746767369426155 -13.34114719931879 -15.348544582063184 0 0 1
10281 3027 4 -15.38617829067883 -10.973919509349065 -0.26443328483872297 0 1 0
2355 471 3 -12.643070802248753 -4.531984124382937 -14.868721767862263 1 0 0
13429 4077 2 -13.492346770037742 -3.4678546717044942 -14.84997739630288 1 0 1
13430 4077 4 -13.991843935088637 -3.4863143991302983 -14.862698267722164 1 0 1
10040 2947 4 -12.362121083875227 -4.584420245794886 -14.612112232006824 0 0 1
10039 2947 2 -12.498421202883076 -4.896696631050727 -14.24618090406409 0 0 1
3124 642 2 -15.261724579384852 -11.470586131650721 -8.3742232231385 0 0 0
4135 979 2 -10.099476288793356 -4.270206168437261 -15.114559498203658 0 0 0
12123 3641 4 -0.3274606222416653 -7.08127305964513 -11.347268259957833 0 0 0
9524 2775 4 -8.485567875292652 -3.447288559712779 -14.906083138573344 0 0 1
4457 1086 4 -8.54354647140228 -3.8125760272829003 -15.031161797780035 0 0 0
4456 1086 2 -8.356409583740101 -4.177147758048859 -15.317635598331401 0 0 0
5472 1424 4 -7.183472162503716 -2.939943979737492 -14.992882149577847 0 0 1
5470 1424 2 -7.209180353201808 -3.1755069004851584 -14.552599059623327 0 0 1
8951 2584 4 -6.914184044930521 -3.1723295658130635 -15.262407714290683 0 0 0
9056 2619 4 -4.404530154143051 -3.3038024802271515 -14.87551618366583 0 0 1
10936 3246 2 -2.763545887593686 -4.406853760140653 -14.914526609341705 0 0 1
3309 703 4 -2.4603237257200217 -4.199300476594169 -14.287215782591414 0 0 0
10937 3246 4 -2.764879048177446 -4.078308058799861 -14.53762351196332 0 0 1
3307 703 2 -2.2492294194234477 -4.0415493852225115 -13.86229957082702 0 0 0
1816 364 1 -0.4758258884826766 -3.026855846282451 -15.131751856496228 0 0 0
1818 364 3 -0.6735021357931285 -3.364077774182587 -14.881740911550244 0 0 0
4408 1070 2 -0.20452949874191967 -4.004312002176099 -14.749478042708919 0 0 0
9206 2669 4 -9.631118440106784 -0.17766883634973352 -9.418389197505725 0 0 1
4409 1070 4 -0.6239701242988056 -3.7321669233004364 -14.746905558239344 0 0 0
8827 2543 2 -14.429440064013733 -2.8156844438561026 -14.541878401243933 0 0 0
8366 2389 4 -14.96201829318444 -2.3440565592803884 -14.054084832360495 0 0 0
8829 2543 4 -14.622668490297578 -2.472847791124811 -14.233453686248803 0 0 0
4799 1200 4 -15.202004588581676 -1.5052815716612356 -14.623745700744138 0 0 0
4798 1200 2 -15.244724428854097 -1.5837989384092281 -15.115690858628819 0 0 0
11703 3501 4 -0.201774064942841 -11.07450479506016 -6.361243714714059 0 0 0
8625 2475 4 -12.518372066536516 -1.9705729690239617 -14.33595859394352 0 0 0
8623 2475 2 -12.063955931329447 -1.8518111204708716 -14.507427539795685 0 0 0
3923 908 4 -11.257586041817113 -1.6110761573003025 -14.843816799158901 0 0 0
1672 335 3 -0.31117467250979 -0.06481832664974625 -9.976609993980611 0 0 0
3922 908 2 -10.811144084894812 -1.4502931400917325 -14.686214767202376 0 0 0
3924 908 4 -10.36470212797251 -1.2895101228831625 -14.52861273524585 0 0 0
6986 1929 4 -4.869151807496295 -15.378598357523197 -13.636186173928817 0 0 1
6747 1849 4 -9.972827437870077 -1.3714847997878101 -14.535804731086516 0 0 1
7645 2149 2 -2.533317624451841 -0.06443545892766411 -5.0164360958564425 0 0 0
9523 2775 2 -8.793567117264681 -3.1284864141062374 -15.137387394697758 0 0 1
268 54 3 -8.182741037952868 -1.9641997570327532 -14.006505048362943 0 0 0
7409 2070 4 -15.336369578318276 -0.7195585562332927 -8.371698741242616 0 0 0
18639 5813 4 -15.32329929610008 -2.3944958061722765 -10.836998599900848 1 0 1
4590 1130 4 -0.2897586943096588 -3.685387918842431 -4.599160866539548 0 0 0
9055 2619 2 -4.639720898371795 -3.1443215074241793 -14.464114757874608 0 0 1
9057 2619 4 -4.87491164260054 -2.984840534621207 -14.052713332083385 0 0 1
6146 1649 4 -4.788190884005068 -3.0902249871465344 -13.680065595041434 0 0 1
8726 2509 4 -15.117479130883362 -13.038639293880374 -1.2940187932369376 0 0 0
16609 5137 2 -14.870500336595411 -0.17361719398649733 -5.791531711468633 1 0 0
15860 4887 4 -0.45007302442385594 -11.388702541243417 -6.25427539369381 0 1 0
15441 4747 4 -14.449319212882392 -0.14496988320200987 -9.707644382709871 1 0 0
1819 364 3 -0.6961061433652794 -2.62516911348692 -15.058101479680367 0 0 0
13913 4238 4 -15.186823508954285 -0.2673630135419053 -14.214007909442673 1 0 1
13914 4238 4 -14.990248291550097 -1.188009582570328 -14.551303149312508 1 0 1
18638 5813 4 -15.213531172291184 -1.4587751974635412 -11.172226733315082 1 0 1
13912 4238 2 -15.088535900252191 -0.7276862980561166 -14.38265552937759 1 0 1
8624 2475 4 -11.609539796122379 -1.7330492719177815 -14.67889648564785 0 0 0
6745 1849 2 -9.841343716730194 -0.953529386101264 -14.29492031223558 0 0 1
6746 1849 4 -9.70985999559031 -0.5355739724147179 -14.054035893384645 0 0 1
6095 1632 4 -9.821738863495936 -0.178788291523447 -14.18557449150229 0 0 1
3789 863 4 -4.40369669501509 -3.670329415055146 -15.028920554062998 0 0 0
840 168 3 -6.973425828908342 -15.229264199748375 -13.448624083399702 0 1 0
1253 251 3 -9.148373620306662 -2.0314532089431783 -14.801598708744729 0 0 1
270 54 3 -8.608411692592602 -1.4401225202743906 -14.339743016923816 0 0 0
4509 1103 4 -8.732118635237441 -1.1516839347407244 -14.575724685948511 0 0 0
7523 2108 4 -8.230779517963928 -0.19015639360146783 -8.45243911105084 0 0 0
4507 1103 2 -8.897710462514162 -0.7980526216947964 -14.888013400398034 0 0 0
266 54 1 -8.39150968181582 -1.552961348409517 -13.955528341792604 0 0 0
7783 2195 2 -4.853403684870871 -0.20317348056371384 -14.680175737918416 0 0 0
7785 2195 4 -5.0334946355953 -0.05138963819078221 -14.239121416250912 0 0 0
19148 5983 4 -3.6162381494290936 -15.298747095198923 -8.777559835387327 0 1 1
6416 1739 4 -5.120132419037336 -0.3599076315748679 -14.02262260374131 0 0 1
13818 4206 4 -15.397348961658336 -2.092713954807127 -3.6437308723820396 1 0 0
8165 2322 4 -8.604516522900203 -0.16529018901450188 -8.521027494099862 0 0 0
14387 4396 4 -3.899015454306272 -1.0998891053537316 -15.392803386224099 0 0 1
1251 251 1 -9.11129595599335 -2.025163700932802 -15.264076479992266 0 0 1
11862 3554 4 -15.145041958877728 -2.973170689200754 -2.089357657838856 1 0 0
2164 433 3 -3.492210205127379 -0.6049038262046037 -15.139307455766994 0 0 1
11054 3285 4 -2.1578062228569697 -0.14546697876679976 -14.98227099478156 0 0 1
3648 816 4 -14.724612795125674 -13.971725587062611 -13.648463787244435 0 0 0
4059 953 4 -14.552733248543431 -13.798538854483462 -13.312634880647936 0 0 0
4057 953 2 -14.41920867900998 -13.711528237606037 -12.838714695509719 0 0 0
4058 953 4 -14.285684109476529 -13.624517620728612 -12.364794510371501 0 0 0
17289 5363 4 -15.14882622814528 -0.5914264495746351 -1.95138297899494 1 0 0
3159 653 4 -11.8038493026579 -15.2645227813446 -12.673954141970647 0 0 0
11639 3480 4 -14.970677137361953 -14.0034301844217 -0.28780467219110567 1 0 0
2351 471 1 -12.713884719186986 -4.186784900790091 -15.157205537247895 1 0 0
16691 5164 4 -15.263589696405745 -2.6148224026634597 -2.218980516852808 1 0 0
3910 904 2 -4.512935141237871 -14.262096328236739 -13.5688555527332 0 0 0
3912 904 4 -4.21281394499265 -14.089826316083338 -13.207953473940615 0 0 0
15966 4922 4 -4.159130635996228 -14.42673595459739 -12.99290055730789 0 1 0
15964 4922 2 -3.8152012844641865 -14.565056597237044 -12.657371123465479 0 1 0
595 119 3 -2.1146645167185896 -14.452087499673299 -13.492239263576646 0 0 1
4995 1265 4 -1.8749029987806485 -14.300800679308056 -13.185357234337134 0 0 1
3694 832 2 -12.492831968715745 -12.855141750919111 -12.865990094284339 0 0 0
1965 393 3 -13.538714195950767 -13.059848561176738 -12.13961381312363 1 0 1
3696 832 4 -12.079938404143386 -13.077917601071738 -12.693103354122977 0 0 0
4764 1188 4 -11.93332752933656 -12.87414631643964 -12.411282646961867 0 0 0
4762 1188 2 -11.688470850674483 -12.606329297054941 -12.067306992238223 0 0 0
4877 1226 4 -9.545263829708652 -13.06819968480814 -11.862338379875295 0 0 0
4876 1226 2 -9.850452600812263 -12.9625623423793 -12.244045814799975 0 0 0
4878 1226 4 -10.155641371915873 -12.85692499995046 -12.625753249724655 0 0 0
4584 1128 4 -7.387574542926565 -12.83102162853989 -12.633669129126838 0 0 0
4582 1128 2 -7.117334506005112 -12.717214132415064 -12.228677553571638 0 0 0
3101 634 4 -7.778891231676452 -12.73545178357773 -12.666921628846257 0 0 0
8201 2334 4 -3.2867372463956963 -12.772378901515882 -12.61519970489622 0 1 0
8202 2334 4 -2.361547853504067 -13.081179928861541 -12.83580458424023 0 1 0
8200 2334 2 -2.8241425499498813 -12.926779415188712 -12.725502144568225 0 1 0
4994 1265 4 -2.3032185932119056 -13.450547177976015 -12.879391982978712 0 0 1
4993 1265 2 -2.0890607959962773 -13.875673928642035 -13.032374608657923 0 0 1
12408 3736 4 -8.626624485306234 -15.390283127394571 -13.965237817341897 1 0 0
3695 832 4 -12.905725533288104 -12.632365900766485 -13.0388768344457 0 0 0
18013 5605 2 -11.927958793718206 -11.863092684584371 -14.150021664031252 0 1 1
18014 5605 4 -11.725281632146821 -11.406535821944956 -14.128163042066765 0 1 1
10106 2969 4 -8.580717236069448 -10.753066034357714 -13.495373529603338 0 1 0
3102 634 4 -8.209882418020777 -11.960285497043802 -13.128834851773096 0 0 0
10107 2969 4 -8.145882267606458 -11.57638297163185 -13.130588975381137 0 1 0
10105 2969 2 -8.363299751837953 -11.164724502994781 -13.312981252492238 0 1 0
3100 634 2 -7.994386824848615 -12.347868640310766 -12.897878240309677 0 0 0
3403 735 2 -5.895412042325925 -10.888615382809869 -12.957651933914768 0 0 0
3404 735 4 -5.680967794233849 -10.872857933379722 -13.409055707987958 0 0 0
3405 735 4 -6.1098562904180005 -10.904372832240018 -12.50624815984158 0 0 0
3402 734 4 -3.3162994131410293 -11.580465880701883 -13.319859918779372 0 0 0
3400 734 2 -3.3034892145232337 -11.992125532123914 -13.036359953695083 0 0 0
3401 734 4 -3.290679015905438 -12.403785183545947 -12.752859988610794 0 0 0
3129 643 4 -2.985703163517461 -11.362105261669331 -13.270447287431187 0 0 0
12458 3753 4 -1.7047107971775035 -11.681231155256226 -13.553403543502222 0 0 0
12457 3753 2 -1.387733455731815 -11.616566083364667 -13.934643354497043 0 0 0
12459 3753 4 -1.070756114286127 -11.551901011473108 -14.315883165491863 0 0 0
4511 1104 4 -0.8000060108100895 -11.263939104682775 -14.338084457761042 0 0 0
3895 899 2 -10.141256334217042 -6.091726905673167 -15.113247225272485 0 0 0
12693 3831 4 -15.179806777939001 -10.984277751146989 -12.462402120636856 1 0 0
10943 3248 4 -11.578933659244525 -11.106116638047817 -13.890566491262414 0 1 1
10942 3248 2 -11.15808943283713 -11.156516807296489 -13.625330822395709 0 1 1
5820 1540 4 -11.115517450279567 -8.821410215051674 -13.81697359910627 0 0 1
13692 4164 4 -9.141011449570119 -9.77766481920676 -13.745200189879759 1 0 1
13690 4164 2 -9.027322142669224 -10.264461535319223 -13.735016935080452 1 0 1
13691 4164 4 -8.91363283576833 -10.751258251431683 -13.724833680281147 1 0 1
3527 776 4 -6.414658623895835 -10.63383497618766 -12.56101615895986 0 0 0
12482 3761 4 -1.9833328272880733 -10.78980552939206 -13.278881356920692 0 0 0
3128 643 4 -2.2337902776873104 -10.792900370907763 -13.603062386991812 0 0 0
3127 643 2 -2.6097467206023857 -11.077502816288547 -13.436754837211499 0 0 0
12481 3761 2 -1.610185996014181 -10.573363083542528 -13.026068956226213 0 0 0
12483 3761 4 -1.237039164740289 -10.356920637692996 -12.773256555531734 0 0 0
7978 2260 2 -0.439833251918926 -10.323471828633537 -12.836551196909221 0 0 0
7979 2260 4 -0.8795527874734963 -10.556284695821512 -12.787105277731861 0 0 0
9525 2775 4 -9.10156635923671 -2.8096842684996957 -15.368691650822171 0 0 1
11116 3306 2 -14.678732430540167 -8.844823448224536 -12.882248979858284 1 0 0
11117 3306 4 -14.286961907405564 -9.136138031077541 -12.990191886156198 1 0 0
12153 3651 4 -13.917997469796784 -9.296933655991733 -13.000603662171343 1 0 0
11118 3306 4 -15.07050295367477 -8.553508865371532 -12.77430607356037 1 0 0
9567 2789 4 -12.966008927708993 -8.749418959001892 -13.538213904211874 0 1 1
9565 2789 2 -12.870092552330897 -8.259140430315785 -13.517549605438505 0 1 1
12151 3651 2 -13.464524218245733 -9.203886457830695 -13.189559289349159 1 0 0
12152 3651 4 -13.011050966694683 -9.110839259669657 -13.378514916526974 1 0 0
9566 2789 4 -12.774176176952801 -7.768861901629678 -13.496885306665138 0 1 1
14516 4439 4 -11.21036551242984 -8.720374514979381 -14.197882794912184 1 0 1
1782 357 3 -10.912479271163331 -8.658183051721586 -12.708580195135374 1 0 0
5818 1540 2 -10.883023117187584 -8.856926513524007 -13.375742392568498 0 0 1
5819 1540 4 -10.6505287840956 -8.89244281199634 -12.934511186030726 0 0 1
5604 1468 4 -9.423814307713156 -9.520750120235698 -13.852209427028447 0 0 1
5498 1433 4 -7.42937412082141 -7.828212414488662 -12.704695533548215 0 0 1
4796 1199 4 -7.305238240630803 -7.563487434328083 -12.430862692614069 0 0 0
5499 1433 4 -7.233188468396185 -8.546360620931852 -13.372358879378488 0 0 1
5497 1433 2 -7.3312812946087975 -8.187286517710257 -13.038527206463352 0 0 1
14765 4522 4 -7.5355182106400225 -8.769281878585089 -13.483229341557438 0 0 1
6292 1698 2 -5.712989971791102 -7.8943793807235725 -13.652216084573277 0 0 1
6294 1698 4 -5.867794830036909 -7.801742880679076 -13.185896521695351 0 0 1
14575 4459 2 -5.53559828406 -8.210704190360822 -12.6464487761213 0 0 1
14577 4459 4 -5.847904680635046 -8.169810796801206 -13.03476880524848 0 0 1
395 79 3 -3.710932630395582 -7.862371234036188 -13.225041215192228 0 0 1
3914 905 4 -1.8490345213695352 -8.498173797100202 -13.580468591521255 0 0 0
3641 814 4 -1.7043712747937951 -8.788642835300784 -13.819417734297293 0 0 0
3913 905 2 -2.0984969357427175 -8.070364123530645 -13.649369876092262 0 0 0
2354 471 3 -12.311877780389807 -4.054347756132578 -15.347339237243649 1 0 0
12565 3789 2 -10.66293329378197 -6.872093915997746 -13.159118808727902 0 0 0
12566 3789 4 -10.642264467112724 -7.3091360175226034 -13.401125009265819 0 0 0
6345 1715 4 -10.46790175650089 -7.46145773689581 -13.732378144565708 0 0 1
3561 787 4 -10.684120404867565 -6.106595829830797 -12.702067061595105 0 0 0
12567 3789 4 -10.683602120451216 -6.435051814472888 -12.917112608189985 0 0 0
4229 1010 4 -7.488863909990232 -6.488398463115866 -13.476888766772596 0 0 0
4607 1136 4 -7.809725277302384 -6.702425379027543 -13.60415395141008 0 0 0
4228 1010 2 -7.50491140578306 -6.558744518349177 -12.982122245682088 0 0 0
4230 1010 4 -7.520958901575889 -6.629090573582488 -12.48735572459158 0 0 0
13036 3946 2 -6.221589972636882 -6.963502339374915 -12.475362254000444 0 0 0
13038 3946 4 -6.077882636424262 -6.525934148868726 -12.669995961707594 0 0 0
10985 3262 4 -6.137281269414661 -6.666525490020442 -13.054851720729221 0 0 1
10984 3262 2 -6.0412263093639345 -6.549356357576023 -13.531343944224654 0 0 1
14303 4368 4 -4.6926142243370235 -6.197506373167697 -12.939630059584726 0 0 1
9324 2708 4 -4.849642789610083 -5.866175446629192 -12.778845415821005 0 0 1
14302 4368 2 -4.464795748987201 -6.584135101334167 -13.160122619200457 0 0 1
393 79 3 -4.214167694717757 -7.311159607119698 -13.125944230431443 0 0 1
392 79 3 -3.6546546711845673 -7.410189715571387 -12.633970436295268 0 0 1
391 79 1 -3.7695290438702576 -7.4351123331892595 -13.078698152579202 0 0 1
14304 4368 4 -4.236977273637377 -6.970763829500636 -13.38061517881619 0 0 1
394 79 3 -3.4980977578406756 -7.1464397251034475 -13.320137963516094 0 0 1
6819 1873 4 -3.2668301654097083 -6.960853172292943 -13.571225612778509 0 0 1
3915 905 4 -2.3479593501158997 -7.642554449961087 -13.71827116066327 0 0 0
6818 1873 4 -2.3125850298699637 -7.256858755580562 -13.613615658334128 0 0 1
6817 1873 2 -2.7897075976398362 -7.108855963936752 -13.59242063555632 0 0 1
14784 4528 4 -0.16221714128838421 -8.415440990267923 -4.671960896269893 0 0 0
3559 787 2 -10.950085879341337 -5.831561340962589 -13.023965176409217 0 0 0
18304 5702 2 -11.953107589652769 -5.365295822451635 -13.37987553736049 0 0 1
18305 5702 4 -11.552990145217986 -5.558033493357677 -13.150183959646656 0 0 1
3560 787 4 -11.216051353815109 -5.55652685209438 -13.345863291223328 0 0 0
18306 5702 4 -12.35322503408755 -5.172558151545593 -13.609567115074325 0 0 1
11354 3385 4 -9.87478956848945 -5.221691373490772 -13.314330381030075 1 0 0
3305 702 4 -9.91650900910735 -4.848190884080862 -13.488945734453 0 0 0
11353 3385 2 -9.742184424357486 -5.581058447420231 -12.992972042216174 1 0 0
11355 3385 4 -9.609579280225521 -5.940425521349689 -12.67161370340227 1 0 0
4860 1220 4 -9.784449339096417 -5.801128992647944 -12.321568939745188 0 0 0
3589 797 2 -7.538546425536011 -5.2679782325197655 -13.212469293824942 0 0 0
3590 797 4 -7.402843440663221 -4.847874451271836 -12.977740699747008 0 0 0
6749 1850 4 -7.268459324633863 -4.7740214426702625 -12.617534380781052 0 0 1
9322 2708 2 -4.654025379606583 -5.760943079009541 -12.330894550536891 0 0 1
9323 2708 4 -4.458407969603083 -5.65571071138989 -11.882943685252778 0 0 1
3020 607 4 -2.8440217401136154 -4.971822532342974 -13.007970540980768 0 0 0
3298 700 2 -2.5631968241000007 -5.380330897528045 -13.569474256089542 0 0 0
3299 700 4 -2.561096782033147 -4.968447196123454 -13.286018075453594 0 0 0
14194 4332 2 -1.792633448923138 -5.0587301469233426 -12.580562401995984 0 0 1
14195 4332 4 -2.122183574296611 -5.3373372409476385 -12.328025667983859 0 0 1
12874 3892 2 -14.637591006481832 -3.6558979175577404 -12.498405366030898 1 0 0
354 71 3 -15.20469301033084 -3.87314414042853 -12.848799885048617 0 0 0
12875 3892 4 -14.86913229554759 -4.049108296641969 -12.702792814858617 1 0 0
6699 1833 4 -8.271870014999578 -3.951308523141789 -13.593307525288555 0 0 1
6697 1833 2 -7.826960323689878 -3.7348605907387444 -13.665457779183486 0 0 1