LAMMPS data file via write_data, version 4 Feb 2025, timestep = 13, units = lj

40 atoms
4 atom types
30 bonds
1 bond types
35 angles
2 angle types

-2.265589 2.265589 xlo xhi
-2.265589 2.265589 ylo yhi
-2.265589 2.265589 zlo zhi

Masses

1 1
2 1
3 0.1
4 0.1

Bond Coeffs # harmonic/omp

1 100 0.45

Angle Coeffs # harmonic/omp

1 100 180
2 100 109.471

Atoms # full

1 1 1 0 -0.561659384707205 -0.4165090124448027 -1.2170661691009137 0 0 0
2 1 3 0 -0.13512475559292372 -0.33542034003784055 -1.3644561340275572 0 0 0
3 1 3 0 -0.7095256251145734 -0.822185313267602 -1.3812443933049445 0 0 0
4 1 3 0 -0.5680449947661077 -0.42844534632834363 -0.755961894174383 0 0 0
5 1 3 0 -0.839388497273265 -0.08515755365002935 -1.3627464116760055 0 0 0
26 6 2 0 -1.228284717578439 -2.1869058693713463 -0.13900908291202788 0 0 0
6 2 1 0 -1.679815134452116 -0.8964511435323872 1.3356379814318977 0 0 0
7 2 3 0 -2.0073009747814643 -0.8481054766417845 1.6526630679148016 0 0 0
8 2 3 0 -1.5744005487748642 -0.48323931721319147 1.1577278594364304 0 0 0
9 2 3 0 -1.3025904937102335 -1.0811439576737125 1.5268289217354656 0 0 0
10 2 3 0 -1.82893184966842 -1.1700068184154955 1.00212836120249 0 0 0
27 6 4 0 -1.6127351749008456 -1.9289170735523413 0.024457867823637958 0 0 0
29 7 2 0 -0.8574620502496736 1.834542834787375 -1.6421075246398935 0 0 0
30 7 4 0 -0.45013434117413104 1.959420060314946 -1.3983043837263203 0 0 0
31 7 4 0 -1.2670595996674605 1.710273575654555 -1.886780687521676 0 0 0
28 6 4 0 -0.8444333549114192 2.0860731993471133 -0.3014841443021238 0 -1 0
36 9 4 0 -1.9802676353218445 0.49024362703969704 -2.1173302395210163 0 0 1
32 8 2 0 -0.2032161942424962 0.8619416969082043 0.05635814834311932 0 0 0
33 8 4 0 -0.5834267264358768 0.741442307801016 0.34409471058353036 0 0 0
37 9 4 0 -1.3518711876366925 0.9127219190439104 1.7859381657607845 0 0 0
35 9 2 0 -1.6659721658878797 0.7012589270423749 2.099883250828876 0 0 0
11 3 1 0 1.756522883418577 -0.6205197386282101 -1.4546042186629318 0 0 0
12 3 3 0 2.0737382025109143 -0.29935847433792323 -1.3800184668245896 0 0 0
13 3 3 0 1.68533214945039 -0.8622606463880365 -1.0675793409762049 0 0 0
14 3 3 0 1.3597523950475534 -0.41932175261059784 -1.5827828724842912 0 0 0
15 3 3 0 1.89574332495778 -0.9017559488117715 -1.7850213944167834 0 0 0
16 4 1 0 1.3997072428145505 -2.2412400436896665 0.8252257787232391 0 0 0
17 4 3 0 1.443475710857008 -2.1549295009793243 1.27132935299352 0 0 0
19 4 3 0 1.2096628319912035 -1.8771020507275333 0.6149054911946555 0 0 0
38 10 2 0 0.7595089505962703 0.508170425129847 -1.1464149520779774 0 0 0
39 10 4 0 1.194357664826098 0.4264107847889959 -0.9306960550940174 0 0 0
40 10 4 0 0.3255175047153396 0.5903363747234187 -1.3609192063216613 0 0 0
34 8 4 0 0.1758359580279151 0.9824407906505106 -0.2325267984312618 0 0 0
21 5 1 0 1.8571523664928982 0.4657994475895173 0.4958699253336988 0 0 0
22 5 3 0 2.0356225878700887 0.3025783560809774 0.884623318383266 0 0 0
23 5 3 0 1.9144689456665316 0.15925195028009798 0.15638180510980487 0 0 0
24 5 3 0 1.4069205576117336 0.5470625810105155 0.5526969735520153 0 0 0
25 5 3 0 2.0652912090339095 0.8540042924740827 0.3836743724030872 0 0 0
18 4 3 0 1.13057212663162 1.9192213185262124 0.7634058238783761 0 -1 0
20 4 3 0 1.809930802976544 2.210684919926122 0.643295420765126 0 -1 0

Velocities

1 0.16312488082108065 -0.058847597023677645 -0.008208363963058653
2 -0.033418451155556014 0.08121512853744256 -0.08307271134481148
3 -0.20470332418817883 0.2859539424497416 0.36657028051192075
4 -0.39317640614967747 -0.21386253971625738 -0.3732635735218383
5 -0.28836680816209287 -0.14351687131566418 0.2705077151090141
26 0.0037789677499001696 0.021748536714393914 -0.00535088117779499
6 -0.02657131877649618 0.033653076676594625 0.14900899992493233
7 -0.09428959775553558 0.09827104800662574 -0.1656748738327335
8 0.371642344061476 -0.5836574492415961 -0.2748275047442054
9 -0.17207116623761345 0.15114584494291192 -0.5356210396834132
10 0.37658818057007803 0.022872183574005858 -0.17096172198545598
27 1.183635435414918 -0.6316704569531827 -0.4056646940436909
29 0.02072373018328082 0.010195516381208532 -0.05131674498624055
30 -1.0913595351732608 -0.2761392634856138 -0.6770730403720856
31 0.8565959857130657 0.38903441576114717 0.4173305861003566
28 -1.0765616024582574 0.730390446352656 0.4112348248451465
36 0.9494773772415519 0.5828251136061842 -0.5716358318290184
32 0.04017715625157921 0.017080411574881865 -0.06181520839032817
33 0.8826342065476273 0.397153753204722 -0.8239221084144154
37 -0.9416000187672862 -0.41064716074933894 0.7112064664139874
35 -0.0024752351957896346 -0.022038774497035424 0.016032086550067846
11 0.06799189844089837 0.07678942400429636 0.047205891166555033
12 -0.14419381571130163 -0.10475089233966775 -0.16065577363302913
13 -0.3554947353705567 0.02845572446237992 -0.41241527873375083
14 0.03402608454026905 -0.5813656755895374 -0.005383745436934377
15 -0.3735166730280693 -0.32076118776807455 0.05730669619147112
16 7.246390529784801e-05 0.021419720072359677 0.16503897130876244
17 0.06421249406466088 -0.034622362672764875 -0.17012722369685498
19 0.3129285801941259 -0.4444209066578844 -0.12168135655367633
38 0.0006471244701342554 -0.02939456275927503 -0.01822738623868995
39 -1.0785772780832752 0.061857153099830586 -0.4491287109890731
40 1.289373723388989 -0.0827458926055171 0.6848613457954192
34 -0.9505789492229598 -0.49687817102249604 0.634097226000225
21 0.02573015363087815 -0.09702355405058685 0.08176809810424526
22 0.04222918348372324 0.06648301029182066 -0.08945247399704986
23 -0.16802200798071226 0.6473357622362416 -0.07809588997790845
24 0.47653657162697305 -0.0426486314407388 -0.6067672971392825
25 -0.3431225964385247 -0.1343888322400466 -0.21317850904451038
18 0.18268511219132508 0.29042062614333436 -0.46818427750643204
20 -0.19615412369608548 0.0451765021555463 -0.17937583579694766

Bonds

1 1 1 2
2 1 1 3
3 1 1 4
4 1 1 5
5 1 26 27
6 1 26 28
7 1 6 7
8 1 6 8
9 1 6 9
10 1 6 10
11 1 29 30
12 1 29 31
13 1 32 33
14 1 32 34
15 1 35 36
16 1 35 37
17 1 11 12
18 1 11 13
19 1 11 14
20 1 11 15
21 1 16 17
22 1 16 18
23 1 16 19
24 1 16 20
25 1 38 39
26 1 38 40
27 1 21 22
28 1 21 23
29 1 21 24
30 1 21 25

Angles

1 2 2 1 3
2 2 2 1 4
3 2 2 1 5
4 2 3 1 4
5 2 3 1 5
6 2 4 1 5
7 1 27 26 28
8 2 7 6 8
9 2 7 6 9
10 2 7 6 10
11 2 8 6 9
12 2 8 6 10
13 2 9 6 10
14 1 30 29 31
15 1 33 32 34
16 1 36 35 37
17 2 12 11 13
18 2 12 11 14
19 2 12 11 15
20 2 13 11 14
21 2 13 11 15
22 2 14 11 15
23 2 17 16 18
24 2 17 16 19
25 2 17 16 20
26 2 18 16 19
27 2 18 16 20
28 2 19 16 20
29 1 39 38 40
30 2 22 21 23
31 2 22 21 24
32 2 22 21 25
33 2 23 21 24
34 2 23 21 25
35 2 24 21 25
