LAMMPS data file via write_data, version 19 Nov 2024, timestep = 200000, units = lj

32 atoms
4 atom types
22 bonds
1 bond types
15 angles
2 angle types

-2.068243 2.068243 xlo xhi
-2.068243 2.068243 ylo yhi
-2.068243 2.068243 zlo zhi
8.272972 0 0 xy xz yz

Masses

1 1
2 1
3 0.1
4 0.1

Bond Coeffs # harmonic/omp

1 100 0.45

Angle Coeffs # harmonic/omp

1 100 180
2 100 109.471

Atoms # full

21 7 2 0 -0.9630753872778033 -1.6984557418257888 -1.4211029905306385 1 0 0
22 7 4 0 -0.8690228069095776 -2.0147109701616532 -1.1075465471833976 1 0 0
6 2 2 0 3.231458640529797 -0.2597798791171193 -0.3758303548870314 1 0 0
7 2 4 0 2.8038529458420305 -0.41548819481676746 -0.3148359995517944 1 0 0
14 4 4 0 2.5108707480482764 -0.1554217717020716 -0.22153990747580554 2 0 0
8 2 4 0 3.635009194568812 -0.12325236076654322 -0.4207476917637776 1 0 0
27 9 2 0 1.7442078369545833 -1.098820848109139 1.13608739938722 0 1 -1
29 9 4 0 1.8103543175142711 -0.920740568060062 1.581575321268601 0 1 -1
18 6 2 0 5.57368469086571 0.8421819117098286 -1.9653722107298064 1 0 0
1 1 1 0 5.362784450723157 0.6900104914487462 -0.8376258067001172 1 0 1
2 1 3 0 4.989076850746453 0.5507989738907728 -0.6479090173092628 1 0 1
5 1 3 0 5.323519261224596 1.13678176635641 -0.9331678977096614 1 0 1
11 3 4 0 6.469443990209014 2.005207553303716 -0.32003805593995005 1 -1 0
10 3 4 0 7.194691043116435 1.8907998481699502 -0.8329559805090336 1 -1 0
9 3 2 0 6.829200081401468 1.9448754254742235 -0.5699796969914921 1 -1 0
31 10 4 0 6.408676453820058 1.9761390246825448 0.05710378795521187 1 0 0
19 6 4 0 5.594725358487175 1.0515824401785405 1.7742632473755018 1 0 -1
26 8 4 0 2.6658799255018026 -1.4134586333800232 -1.7925961597719726 0 0 1
23 7 4 0 3.077498660938688 -1.3641817762604262 -1.7334779684192496 0 0 0
16 5 4 0 4.005470575871821 -0.2162490845835534 -0.4292107221902981 1 0 1
15 5 2 0 4.384924330214305 -0.0028559564850438868 -0.5504524526589434 1 0 1
32 10 4 0 1.7150886377671597 -1.5738036999983365 0.4595985917446721 0 1 0
28 9 4 0 1.684086900655482 -1.2645795292709978 0.7166120896309902 0 1 -1
30 10 2 0 1.985528724743963 -1.8599390138287326 0.25498083756416934 0 1 0
25 8 4 0 2.03854927453946 -1.2000426911376707 1.748813317478751 0 0 0
24 8 2 0 2.3437492846322847 -1.3065302537328967 2.0447018315766066 0 0 0
20 6 4 0 5.55356073488778 0.6286053859377296 -1.5737473005410205 1 0 0
4 1 3 0 5.433584076653232 0.44133639633508626 -1.233185481669424 1 0 1
17 5 4 0 4.775590628064559 0.22926792736413715 -0.6797376056862405 1 0 1
3 1 3 0 5.692949604112154 0.6278569237023799 -0.5522224250150578 1 0 1
13 4 4 0 6.027134743883276 0.47747705582455957 -0.35571615600772066 1 0 0
12 4 2 0 6.3393962403522925 0.16331188256302287 -0.28103054819852713 1 0 0

Velocities

21 0.1923800408027289 0.18765925213530527 0.23397655181057123
22 -0.005829968036117766 1.573354374906363 -0.1692341753769539
6 0.1262502976388749 -0.0693655576349656 -0.04834886346724821
7 -0.9673791459719414 0.21848557908169824 0.0004781682225854997
14 0.09959895625836374 -1.0289789542651975 -0.4176777986336363
8 0.028701269870569316 -0.5625304810820261 -1.5399420190173438
27 -0.15103748457832103 0.070694150712066 -0.14371820060906237
29 -0.63160036010874 -0.4726350105444487 -0.19572582545206957
18 0.04336301873029984 -0.012319191480079103 -0.08005284089116049
1 0.2941805094457178 0.34604630387052177 -0.04225621362868155
2 -0.6375111863447815 -0.3589998733423997 -0.3106470299687526
5 0.3299409249150698 -0.6684794000504092 0.8243066379234519
11 0.24665955502424602 0.4078445117637529 0.6322698308664068
10 -0.8684454312251947 -0.23162194203212377 0.37805147233596914
9 -0.09465185197978744 -0.17938274330385787 0.16949698446854744
31 -0.3249833432144141 0.7591142270579263 0.013285167794363867
19 0.946753506788324 0.15181027117749157 1.3843427873948906
26 1.1012943738424048 0.5861576899104289 -0.14597943370687133
23 -0.4374838437315415 -0.6168422379168828 -0.9888922206047028
16 0.3767528002704793 -0.3656258801286869 -0.45094757965565774
15 0.27221255336673195 -0.13029203949803903 0.07966088535860269
32 -0.21948279007558838 0.0635412295674389 0.5462945925658472
28 -0.7938200262545175 -0.6240490784565381 -0.42255264239920465
30 -0.08448785726074542 0.5653054741948822 -0.13336897690637056
25 -0.529543948310853 -0.6153665095918103 -0.8680056016279428
24 -0.1660811251754048 -0.44437498654581237 0.11129760513972065
20 -0.5051641608585011 0.30237470168461 0.12403838666871556
4 0.3449980943161309 -0.3354649557907615 0.9277808944171498
17 0.34142767780322303 -1.508222990914648 -0.1782562872163906
3 -0.3758434932098181 0.47389284393138426 0.14713955824284694
13 0.017738654119563935 -0.43293127360410366 -0.0853999152433819
12 0.04367269347090353 -0.005453346586126969 -0.06715962802785291

Bonds

1 1 21 22
2 1 21 23
3 1 6 7
4 1 6 8
5 1 27 28
6 1 27 29
7 1 18 19
8 1 18 20
9 1 1 2
10 1 1 3
11 1 1 4
12 1 1 5
13 1 9 10
14 1 9 11
15 1 15 16
16 1 15 17
17 1 30 31
18 1 30 32
19 1 24 25
20 1 24 26
21 1 12 13
22 1 12 14

Angles

1 1 22 21 23
2 1 7 6 8
3 1 28 27 29
4 1 19 18 20
5 2 2 1 3
6 2 2 1 4
7 2 2 1 5
8 2 3 1 4
9 2 3 1 5
10 2 4 1 5
11 1 10 9 11
12 1 16 15 17
13 1 31 30 32
14 1 25 24 26
15 1 13 12 14
