LAMMPS data file via write_data, version 19 Nov 2024, timestep = 9000000, units = lj

883 atoms
4 atom types
622 bonds
1 bond types
511 angles
2 angle types

-4.999999 4.999999 xlo xhi
-4.999999 4.999999 ylo yhi
-4.999999 4.999999 zlo zhi

Masses

1 1
2 1
3 0.1
4 0.1

Bond Coeffs # harmonic/omp

1 100 0.45

Angle Coeffs # harmonic/omp

1 100 180
2 100 109.471

Atoms # full

302 68 2 0 -3.8940957248230483 -4.059250398641584 -3.905765030557476 0 0 0
72 15 3 0 -4.300236815935706 -4.000127028548995 -4.561039294770954 0 0 0
304 68 4 0 -4.261106306492918 -3.995424920582547 -4.158754889841441 0 0 0
71 15 1 0 -4.730071224376359 -4.155830562474678 -4.623367274527017 0 0 0
303 68 4 0 -3.508984280748775 -4.111157144097259 -3.655846906765789 0 0 0
74 15 3 0 -4.732379446500601 -4.473289867767788 -4.95833249557705 0 0 0
507 136 4 0 -3.339604514897044 -4.328665567018667 -3.3551384012531535 0 0 1
73 15 3 0 -4.993486856360961 -3.8183748170181135 -4.740779340940362 0 0 0
629 177 2 0 -2.0696463450914675 -4.419168715368657 -3.6033804564045733 1 0 0
630 177 4 0 -2.3408576307272346 -4.747358259101577 -3.418707204113983 1 0 0
631 177 4 0 -1.8024728749069343 -4.100702542008546 -3.776285253556656 1 0 0
318 73 4 0 -1.417387234965478 -4.1269371178983185 -3.9098811908919866 -1 0 0
317 73 2 0 -1.0502188717017182 -4.012343825820095 -3.7701489574737863 -1 0 0
319 73 4 0 -0.6441700920104526 -3.8807340325728963 -3.6131535221573974 -1 0 0
337 79 4 0 -0.39108132807997137 -3.6617785523495763 -3.3607155439518612 0 -1 0
704 202 2 0 -4.711280013824837 -1.8545054168585837 -3.6149028160219054 1 0 0
28 6 3 0 -2.1827509858544922 -1.6063873236377686 -1.0309063069777291 1 0 -1
334 78 4 0 -1.7329289007014195 -2.322154113360878 -4.5017065374442735 0 -1 0
332 78 2 0 -1.7826339680916468 -2.739479679113689 -4.671376088852315 0 -1 0
333 78 4 0 -1.8257508633047197 -3.1515136438980735 -4.843980505028774 0 -1 0
361 87 4 0 -1.4597080955848658 -2.0688526894523713 -4.4073345542210225 0 0 0
359 87 2 0 -1.3357267270370163 -1.7590434999621734 -4.161369611962859 0 0 0
68 14 3 0 -0.2356830505284814 -1.7066524856209775 -4.782274195386819 0 1 0
881 261 2 0 -0.06204016459366666 -1.8611804586695606 -4.034802812012351 0 0 0
882 261 4 0 -0.32182211276342115 -1.8151101555920268 -4.394800351304601 0 0 0
90 18 3 0 -3.645013403245585 -0.36119121689711675 -4.510511695771233 0 0 0
394 98 4 0 -4.854898313039052 -0.42859251419757227 -3.449700036089861 0 -1 0
596 166 2 0 -1.9590315652236674 -1.5131515724810556 -0.349806315403404 0 0 0
86 18 1 0 -3.3056797461565006 -0.4973048426690968 -4.725706657896109 0 0 0
88 18 3 0 -3.2338112831736265 -0.9503897596825255 -4.642981547527059 0 0 0
841 247 4 0 -3.1579701396556663 -1.222887050186271 -4.3968888368748225 0 1 1
840 247 4 0 -2.7173747401845576 -1.3706428700389592 -3.5699663882009918 0 1 1
839 247 2 0 -2.9389101381582874 -1.2898588136325693 -3.99012091533123 0 1 1
398 100 2 0 -2.6522299714645023 -0.20124438025744626 -3.863650003222575 0 -1 1
400 100 4 0 -2.674606894147799 -0.23888409650613368 -4.310584985537494 0 -1 1
89 18 3 0 -2.946446094959433 -0.2688500402248162 -4.59177283279208 0 0 0
399 100 4 0 -2.639384378146218 -0.17016900241853633 -3.4226863641964393 0 -1 1
360 87 4 0 -1.211032743376453 -1.445990388597427 -3.920537165062674 0 0 0
586 162 4 0 -3.316536458605239 -0.0731055769030186 -1.284287423541364 1 0 -1
345 82 4 0 -0.9191356968797251 -0.14778506782236042 -1.925706266668104 1 -1 1
709 203 4 0 -1.324863938117838 -1.1978939276076521 -3.6466093726715836 1 -1 0
154 31 3 0 -1.1615087940274602 -0.0036044784080039765 -4.813258566164807 0 -1 0
506 136 2 0 -3.432648964801057 -4.353409097448564 -2.898910398395715 0 0 1
327 76 4 0 -4.3056341135292975 -4.074975304374344 -1.76992483350232 0 0 0
508 136 4 0 -3.5088607570205266 -4.373680004973416 -2.468450707485763 0 0 1
180 36 3 0 -3.3654306989337583 -4.132610595417113 -2.154543875121221 1 0 0
17 4 3 0 -2.709972266981639 -4.891793096099424 -3.3179724290202497 0 0 0
177 36 3 0 -3.0558040514993294 -3.470114058916174 -1.9999530673318158 1 0 0
824 242 2 0 -1.9150725591681266 -4.046006105933718 -1.973077886533694 1 1 -1
178 36 3 0 -2.6701790985366576 -4.054329656548819 -1.863738625412842 1 0 0
176 36 1 0 -3.0772959101381985 -3.880983205823133 -1.8569269419886083 1 0 0
826 242 4 0 -2.3196823239720357 -4.206646037467771 -1.9325643073312417 1 1 -1
825 242 4 0 -1.5170556318458648 -3.8855712902584374 -2.026646004208485 1 1 -1
772 224 4 0 -1.364767563677864 -3.5422841334220005 -2.1852424888347834 0 0 0
770 224 2 0 -1.005795108833953 -3.2529548091955305 -2.134040298560046 0 0 0
706 202 4 0 -4.334343474199708 -1.9910473077718518 -3.420109473874616 1 0 0
651 184 4 0 -4.092016413064745 -1.7490904826230065 -3.2171963549452838 1 -1 1
726 209 4 0 -2.0435289894379127 -2.1090432347080044 -1.8278640927265968 0 -1 1
579 160 4 0 -2.2750713643064033 -1.8001171593982017 -1.9566827432522635 1 -1 0
725 209 2 0 -1.6171581236133576 -2.2904342923214847 -1.8538305732265068 0 -1 1
771 224 4 0 -0.6611588224936865 -2.981196718082214 -2.0720633724885427 0 0 0
65 13 3 0 -0.4252170985496057 -1.969895163633397 -2.3882939434265755 0 1 0
64 13 3 0 -0.5010548071618087 -2.6702274292594503 -2.262810666815167 0 1 0
61 13 1 0 -0.4983258761861422 -2.264327049808646 -2.0822942114974077 0 1 0
62 13 3 0 -0.9035823690457996 -2.1823988737955293 -1.894954091530281 0 1 0
727 209 4 0 -1.1791940119122923 -2.4611904106380886 -1.8720535905675986 0 -1 1
63 13 3 0 -0.1977509524592477 -2.2389827364629964 -1.7772932180291847 0 1 0
650 184 2 0 -3.80662982403492 -1.443759353349586 -3.0591213263642616 1 -1 1
652 184 4 0 -3.5133444618147034 -1.1365685798477183 -2.8955365689663735 1 -1 1
392 98 2 0 -4.666206123681315 -0.5129511281646394 -3.0944427339205105 0 -1 0
393 98 4 0 -4.472587831224282 -0.6110218338688294 -2.7303546334051347 0 -1 0
288 63 4 0 -4.134871226369559 -0.5075156478722499 -2.562485172429756 0 0 0
287 63 2 0 -3.7344636621744742 -0.3147446042499624 -2.4963563066633947 0 0 0
289 63 4 0 -3.3118769319508488 -0.11075026968239375 -2.4286371955791335 0 0 0
47 10 3 0 -3.2305955436806015 -0.8637593002679881 -3.0317674320442096 0 0 0
49 10 3 0 -2.6124446708644986 -1.149452588824098 -3.2355047865973736 0 0 0
50 10 3 0 -2.6948257185145654 -0.404583124169081 -3.1029319328224774 0 0 0
48 10 3 0 -2.7182191495596117 -0.8896447744580955 -2.5516184988004302 0 0 0
578 160 2 0 -2.330975549139176 -1.4052957117938996 -2.1835514603194284 1 -1 0
580 160 4 0 -2.386272577643897 -1.0029788654682446 -2.408892798067868 1 -1 0
46 10 1 0 -2.818043897554858 -0.8339224167329128 -2.9734219715650347 0 0 0
568 156 4 0 -0.15752616444065257 -1.6336991015870097 -2.5171197283649103 1 0 0
707 203 2 0 -1.3466689741449107 -1.0090577077241976 -3.221047396517754 1 -1 0
708 203 4 0 -1.3719005732880034 -0.8063201752521116 -2.7941941636869414 1 -1 0
346 82 4 0 -1.3786518270768846 -0.793928277976719 -2.398722959350373 1 -1 1
344 82 2 0 -1.1695406022686927 -0.4987387564322116 -2.1787592214702096 1 -1 1
326 76 2 0 -4.617248749623345 -4.219151984659527 -1.442046321484038 0 0 0
525 142 4 0 -3.3064735848575535 -3.9596345072215 -1.032856890054489 0 1 1
524 142 2 0 -3.3630848320576745 -3.919181076378943 -0.604913583491072 0 1 1
179 36 3 0 -3.2545907803418803 -3.881705425825183 -1.4305559042521905 1 0 0
526 142 4 0 -3.427194546052359 -3.874177815584219 -0.16419221575910392 0 1 1
111 23 1 0 -0.5311395685095961 -4.1925310895134285 -0.3817592920913569 -1 0 0
261 54 4 0 -3.953384034363286 -0.22098818425760103 -4.308355102511285 0 -1 -1
115 23 3 0 -0.7816136492084391 -4.213456847254756 -0.7586977289606194 -1 0 0
112 23 3 0 -0.10667161114432505 -4.070115599260195 -0.4869493469176385 -1 0 0
113 23 3 0 -0.5327895351225981 -4.578807240795067 -0.18723475634211706 -1 0 0
100 20 3 0 -4.6773898113999435 -2.786285240143472 -0.4458116570063401 0 1 1
291 64 4 0 -4.616754436306567 -2.2229364453846676 -1.0987963265433662 0 0 0
98 20 3 0 -4.826389218385998 -2.6192763012449483 -1.1695216781188738 0 1 1
290 64 2 0 -4.910572603371656 -1.9114214716022249 -1.3046089457533145 0 0 0
293 65 2 0 -4.221354900067116 -3.14506240344815 -0.04588127814310774 0 0 0
295 65 4 0 -4.499036279495499 -3.1392469904979876 -0.38188139182434794 0 0 0
322 74 4 0 -3.2071984743771793 -1.6592347244104653 -1.031005068823334 0 0 0
29 6 3 0 -2.366612603957306 -1.9975801646545588 -1.6420680158725078 1 0 -1
415 105 4 0 -2.3906207313287466 -2.6758897734395726 -0.7668079406907309 1 0 0
27 6 3 0 -2.298463951702764 -2.331842110331068 -0.9959023485310069 1 0 -1
26 6 1 0 -2.4281648781991647 -1.9563170008711293 -1.1964541460743179 1 0 -1
413 105 2 0 -2.510373217910755 -2.9589962504614977 -0.3980940675614857 1 0 0
30 6 3 0 -2.896241934913774 -1.8801226487683187 -1.1045341560627497 1 0 -1
414 105 4 0 -2.627919984973501 -3.249821115967283 -0.03798739781742906 1 0 0
555 152 4 0 -4.238166827208343 -1.3043026341487127 -0.3471139044575745 1 0 -1
320 74 2 0 -3.61868281241271 -1.6019849828745445 -0.7906387314113715 0 0 0
321 74 4 0 -3.984333875414832 -1.5528965080964252 -0.5673375454235372 0 0 0
554 152 2 0 -4.64211065051155 -1.2455414534450913 -0.18071048296366485 1 0 -1
585 162 4 0 -3.3234426428598574 -0.976633912678105 -1.305913560257637 1 0 -1
584 162 2 0 -3.3218307392116584 -0.5042810468837818 -1.2914306457914588 1 0 -1
598 166 4 0 -1.8788393162643726 -1.5294815380742046 -0.7950769666415499 0 0 0
75 15 3 0 -4.893082430903421 -4.33249773664427 -4.2457893803355296 0 0 0
328 76 4 0 -4.9213796933532565 -4.3511189154550225 -1.1198490406014 0 0 0
96 20 1 0 -4.915327495441064 -2.9053427641953458 -0.8164780940487611 0 1 1
97 20 3 0 -4.8045482777673705 -3.331615931272406 -0.9397977164425547 0 1 1
114 23 3 0 -0.7201280412543245 -3.8706883541974095 -0.08618124768370772 -1 0 0
384 95 4 0 -2.8919737967970796 -4.376292283765827 0.6957317277815277 0 0 0
383 95 2 0 -3.0536439149293706 -4.709015368495399 0.42550566635695386 0 0 0
174 35 3 0 -2.807942697657382 -3.963326526534432 0.6145463922518521 1 0 0
171 35 1 0 -2.9566920297061414 -3.6064038161023486 0.48527289536009194 1 0 0
172 35 3 0 -3.1764552202185588 -3.398362921572584 0.8006570547384012 1 0 0
382 94 4 0 -2.9063823315239277 -3.3532034252068446 1.119181543012612 0 0 0
175 35 3 0 -3.2386656147080206 -3.6760645425175484 0.13861744608457907 1 0 0
678 193 4 0 -4.399415986674906 -0.019404550386135932 4.419426322465025 1 -1 -1
426 109 4 0 -0.775353390224023 -3.4773948423908414 0.012815426489361905 0 -1 0
294 65 4 0 -3.9240101676609584 -3.1446207768696253 0.3073218674233116 0 0 0
699 200 4 0 -3.7922181761881175 -2.7741474692558232 0.25890261495228395 1 -1 0
698 200 2 0 -3.4840947691639843 -2.5637115684786984 0.5300197090208105 1 -1 0
700 200 4 0 -3.17371594346319 -2.351973099279419 0.7925511616789344 1 -1 0
380 94 2 0 -3.066364271271981 -3.236936451155884 1.5090608082607506 0 0 0
173 35 3 0 -2.6225907775336372 -3.341554732615405 0.35747275759796093 1 0 0
129 26 3 0 -3.186588001007137 -2.3652297276611303 1.1923775387426865 0 1 0
258 53 4 0 -1.6730471099892816 -1.7458564238151177 1.3130736866953148 0 0 -1
230 46 3 0 -2.0310977286025245 -1.7622413836174986 1.148646731735065 1 0 0
126 26 1 0 -2.9749357024658742 -2.0259883219595056 1.4511823211712982 0 1 0
425 109 2 0 -0.7717098575869613 -3.0997689325676605 0.23840960075802992 0 -1 0
749 217 2 0 -1.021017646860783 -2.0344560799392077 0.5669159425384609 0 0 -1
750 217 4 0 -0.747325565522715 -2.346452365305168 0.40098346483352687 0 0 -1
427 109 4 0 -0.7661135317014363 -2.720561648826924 0.4778042585027134 0 -1 0
70 14 3 0 -0.5068860871525862 -1.203849774589329 4.768087641690821 0 1 -1
130 26 3 0 -2.8348418081622557 -1.6935217733884027 1.1830001103765033 0 1 0
315 72 4 0 -3.1317082436801162 -0.9470254181090212 0.294332784217297 1 -1 0
227 46 3 0 -2.171767580270773 -1.711659115511016 0.41770400234662514 1 0 0
316 72 4 0 -2.9401092181790554 -1.3074175494166436 1.0820975969356048 1 -1 0
314 72 2 0 -3.0352643319707346 -1.1233045341462389 0.7064454971455869 1 -1 0
512 138 2 0 -1.976858677497698 -0.35019214671343557 0.5393236477654679 0 0 0
514 138 4 0 -2.013522290843372 -0.7605725107218532 0.7373757450198682 0 0 0
229 46 3 0 -2.2139286863093814 -1.0902313566091213 0.8233540466030623 1 0 0
226 46 1 0 -1.9904581620427442 -1.502169976248925 0.7548363015412588 1 0 0
597 166 4 0 -2.0344194057571787 -1.4974314762094612 0.09252593849645134 0 0 0
751 217 4 0 -1.2944405370975531 -1.7256858611671018 0.7445730078886232 0 0 -1
228 46 3 0 -1.5596659902623604 -1.4186335503182057 0.6722229219716265 1 0 0
865 255 4 0 -0.044499485132793934 -4.597917738042095 4.309649148506333 0 1 -1
254 52 2 0 -0.24084401578556713 -3.991380224791669 3.0639871939451684 0 0 0
835 245 4 0 -0.4632829503971445 -0.8903451381497622 4.990282598049179 0 0 -1
255 52 4 0 -0.1987012961269905 -3.9378019018459494 2.645955105288757 0 0 0
388 96 4 0 -4.658208848022172 -3.137702497589796 1.813232000085026 -1 -1 -1
418 106 4 0 -3.538573022697924 -3.004472992357765 2.151879708646943 0 0 -1
416 106 2 0 -3.988697733490806 -2.949551129687073 2.074399437246813 0 0 -1
417 106 4 0 -4.4246377131919346 -2.8923290142203855 1.9928151292937601 0 0 -1
127 26 3 0 -3.2551899880064736 -1.8660444752275287 1.7226912327675143 0 1 0
381 94 4 0 -3.236631080831541 -3.1179590295192785 1.9182617984493144 0 0 0
128 26 3 0 -2.595949203444764 -2.2069728423585064 1.7012420503627441 0 1 0
696 199 4 0 -2.520511225085604 -2.2152149642627896 3.160988079030788 1 0 -1
559 153 4 0 -2.6796112997199835 -2.0533458269704394 2.049253768219108 0 0 -1
557 153 2 0 -2.5177531089089045 -2.2227245536569957 2.441388501587285 0 0 -1
558 153 4 0 -2.35604022459367 -2.398168488332183 2.846049363350987 0 0 -1
257 53 2 0 -1.6635785800695104 -1.8836948246543626 1.7298082945143824 0 0 -1
299 67 2 0 -1.167081866119547 -1.94474258357078 2.728603723429471 0 0 -1
259 53 4 0 -1.6423910092439893 -2.0273653868438917 2.1491499081998793 0 0 -1
300 67 4 0 -1.324249819242795 -2.168501770608638 2.3595679266139045 0 0 -1
301 67 4 0 -1.0096432604613672 -1.7264007261251413 3.0794302235696835 0 0 -1
610 170 4 0 -3.2761492758552593 -1.5557454571675544 2.006033349889744 0 0 -1
608 170 2 0 -3.2185557939899625 -1.1053553172250103 2.119234675852941 0 0 -1
810 237 4 0 -2.9627747058363307 -0.39286830190141375 2.094220588588668 1 0 0
609 170 4 0 -3.1658837679041185 -0.6925337481049323 2.2183113905067593 0 0 -1
831 244 4 0 -2.0795009674459424 -0.6770582567369196 4.691123497244911 1 0 -1
495 132 4 0 -0.1941268750329394 -0.38744117022468827 2.646998101900739 0 0 0
379 93 4 0 -0.5874383943506198 -0.312421062544225 2.638757245338375 -1 0 0
599 167 2 0 -4.181615278989419 -4.934019242781568 4.801649283797486 1 0 -1
601 167 4 0 -4.4547330252019535 -4.600131764569 4.787187788016762 1 0 -1
437 113 2 0 -2.2104405630591692 -4.921641374029981 3.809315290376137 0 1 -1
438 113 4 0 -2.0819515356884954 -4.777201927773469 3.4017922821784867 0 1 -1
757 219 4 0 -1.7442688833616575 -4.871756025857149 3.20431421951732 0 0 -1
44 9 3 0 -0.18757812224344003 -4.230230400518234 4.414834544904123 0 0 -1
42 9 3 0 -0.7114842624703004 -3.726006914072331 4.516736958037462 0 0 -1
877 259 4 0 -1.0935353103384606 -3.7888061038856007 4.377913540811524 0 1 1
45 9 3 0 -0.3982328179640945 -3.7925215660133578 3.8378972333466477 0 0 -1
41 9 1 0 -0.32169814699760624 -3.813125227629994 4.309504766077363 0 0 -1
256 52 4 0 -0.29175676135547035 -4.047290158782487 3.529445852270271 0 0 0
875 259 2 0 -1.3001330750470776 -3.496638592592552 4.666765757908746 0 1 1
43 9 3 0 -0.01077771103271733 -3.511499745482976 4.4259791374651005 0 0 -1
876 259 4 0 -1.501042590370221 -3.2007342215669348 4.94416861863889 0 1 1
695 199 2 0 -2.6531937468742925 -2.076193105502701 3.539777201602618 1 0 -1
697 199 4 0 -2.8091476464587823 -1.929231107462769 3.9339545419942583 1 0 -1
760 220 4 0 -0.9291165658849652 -1.9293483134792384 3.4030902805475725 1 0 0
758 220 2 0 -0.6747291787863471 -1.8063507107260057 3.8112379005544943 1 0 0
67 14 3 0 -0.26713506432857514 -1.8308258759064473 4.514321305196513 0 1 -1
759 220 4 0 -0.45045292097061806 -1.7024441472248255 4.1871964375953095 1 0 0
677 193 2 0 -4.052799851875438 -0.24029475269999875 4.522103131545225 1 -1 -1
66 14 1 0 -0.20013987063023897 -1.534661445441233 4.809273004636062 0 1 -1
679 193 4 0 -3.683549867057657 -0.47912965242657973 4.637169712664092 1 -1 -1
87 18 3 0 -3.3633896357341873 -0.42970354846176034 4.838365913411446 0 0 -1
747 216 4 0 -2.8206483046848216 -1.5739310778702322 4.100779791237516 0 1 -1
830 244 2 0 -1.9471077300665491 -0.322311509646335 4.4301291626328565 1 0 -1
748 216 4 0 -2.3391626976346545 -0.8606385004114832 4.459011812126028 0 1 -1
746 216 2 0 -2.573459194928911 -1.2167658309263425 4.279381250940173 0 1 -1
377 93 2 0 -0.873175626159445 -0.028403241464415013 2.8083838789458566 -1 0 0
833 245 2 0 -0.7952007120589605 -0.5763647443457826 4.958298758181531 0 0 -1
834 245 4 0 -1.1241744512793441 -0.26483242002212604 4.918183097988916 0 0 -1
739 213 4 0 -0.7497580147562908 -4.8202535933283315 0.06725114378692174 0 1 -1
260 54 2 0 -4.216489024680342 0.17639040707852024 -4.365395482016076 0 -1 -1
262 54 4 0 -4.459127469872249 0.5495066667784312 -4.42476840359167 0 -1 -1
187 38 3 0 -4.634405536598797 0.6634451314170894 -4.752360947930475 1 0 0
737 213 2 0 -0.7175023617419171 4.747613149121977 -0.09094969076357072 0 0 -1
273 58 4 0 -2.173236592464856 1.1996802230914523 -4.04274551475095 -1 -1 0
272 58 2 0 -1.7380063553429361 1.1042131388588947 -4.17407377684583 -1 -1 0
82 17 3 0 -2.539563985059617 1.1878376642647905 -3.91974177405892 0 0 -1
81 17 1 0 -2.6320385644424222 1.1981736112969334 -3.4935114613760785 0 0 -1
83 17 3 0 -2.7657780127956357 0.759634289815616 -3.345896322844593 0 0 -1
84 17 3 0 -2.2800108443789164 1.326542818658665 -3.261609637836893 0 0 -1
274 58 4 0 -1.3237375316892255 1.0135446837079207 -4.298529958053269 -1 -1 0
151 31 1 0 -1.0284212352284348 0.4225453162775002 -4.704995822307911 0 -1 0
155 31 3 0 -0.6422641686385261 0.40867295273377807 -4.485793606665564 0 -1 0
153 31 3 0 -1.3668509868200098 0.6164289791963162 -4.427243492835096 0 -1 0
478 126 4 0 -0.35583565727282956 0.6964983598281541 -4.38242786224087 -1 0 0
476 126 2 0 -0.025122062510376145 0.9377179899728147 -4.248709435316847 -1 0 0
639 180 4 0 -3.937255885252322 2.761937839343631 -4.2761124918185045 0 -1 0
430 110 4 0 -3.9811934009653838 2.969774933754513 -3.9289679025051374 0 0 0
638 180 2 0 -4.072477506021915 2.9883936257562445 -4.631373341796202 0 -1 0
428 110 2 0 -3.8941586113996345 3.0575436789135777 -3.4850615768542728 0 0 0
278 60 2 0 -1.8233780193966447 3.3944068127532185 -1.6370954512411338 -1 0 -1
572 158 2 0 -2.025608047783677 3.3406515785020914 -4.752569550515484 1 0 0
473 125 2 0 -0.3058247832230198 2.76639427747858 -3.3948419740029596 0 0 0
573 158 4 0 -1.894250372136232 3.509941455236775 -4.352112992238207 1 0 0
862 254 4 0 -2.05430231744413 3.5945391276522396 -3.990120172914622 1 -1 0
860 254 2 0 -2.360645027425847 3.8916673137127966 -3.8293680496894207 1 -1 0
861 254 4 0 -2.6504662132181753 4.185360583759116 -3.666379093455222 1 -1 0
18 4 3 0 -2.9270473848842737 4.4255961016365175 -3.5381403349217515 0 -1 0
548 150 2 0 -0.3348990317671044 4.672287122732809 -4.4833173530336445 0 -1 0
549 150 4 0 -0.6985634940895556 4.5559265240126905 -4.671924462932494 0 -1 0
147 30 3 0 -0.683230197785199 4.288945973748393 -4.950750382394411 0 -1 0
653 185 2 0 -4.895195496255364 0.9680673273389326 -1.680624368953783 1 0 0
590 164 2 0 -3.44715685008619 1.5101609368539732 -2.714234738609606 0 -1 -1
571 157 4 0 -3.0233550025558142 0.1597276026517041 -2.36250149677153 0 0 -1
570 157 4 0 -2.593991069384328 0.6033122774388379 -3.022667504094896 0 0 -1
85 17 3 0 -2.9630004470666247 1.4749578004860435 -3.411193887745688 0 0 -1
569 157 2 0 -2.8006717610914396 0.38530586078824325 -2.7038856229659083 0 0 -1
592 164 4 0 -3.231971636953417 1.3760756291145044 -3.1053571126995894 0 -1 -1
462 121 4 0 -1.959917844881152 1.136184567012323 -3.0953259755553177 0 0 0
77 16 3 0 -3.3048734503519817 4.490342510676091 -0.6040798263531613 0 0 0
225 45 3 0 -0.6909689167823964 0.18878479507861923 -2.0287811833429075 0 0 0
742 214 4 0 -0.7430235454741704 1.1587049543545924 -1.7889240648070277 1 0 -1
223 45 3 0 -0.02082802980727346 0.5313130689743992 -1.970144621193967 0 0 0
221 45 1 0 -0.48044591669543646 0.5665568385513907 -1.8941450766312853 0 0 0
222 45 3 0 -0.6498368622354403 0.9347599934542321 -2.111656366777196 0 0 0
461 121 2 0 -1.6908857023257975 1.471409394804242 -2.99865758204474 0 0 0
247 50 3 0 -3.899066818590541 1.8466089236434253 -2.0810228681377927 1 0 0
591 164 4 0 -3.650821705904346 1.6409372208052373 -2.3332008856712414 0 -1 -1
721 207 4 0 -3.7703529241282663 3.3530205018006956 -2.6818147653492983 2 -1 0
429 110 4 0 -3.80998966641544 3.1448084224256787 -3.0296843609199446 0 0 0
246 50 1 0 -3.8060320152364935 2.0373186131494356 -1.649794858664399 1 0 0
719 207 2 0 -3.462668362589166 3.07570378533093 -2.4874462035060736 2 -1 0
249 50 3 0 -3.8545887027524337 2.4913893594931023 -1.6666299364489203 1 0 0
396 99 4 0 -4.250438753763338 2.563797497083139 -1.7153851231665656 1 0 0
720 207 4 0 -3.1372841821099606 2.803497596473418 -2.2873865082879408 2 -1 0
819 240 4 0 -2.7843903504843537 2.90970183814325 -2.215270212472927 1 0 0
818 240 2 0 -2.3757489672646237 2.7615745279277832 -2.3858073371782136 1 0 0
820 240 4 0 -1.9653594703332309 2.596972696898283 -2.55146688383716 1 0 0
474 125 4 0 -0.6699417819599991 2.695146446414042 -3.142895555513344 0 0 0
463 121 4 0 -1.4036279555562374 1.8289620483603874 -2.9114129018484194 0 0 0
32 7 3 0 -1.0044419164413243 2.7842208046193666 -2.952397619224103 -1 -1 0
31 7 1 0 -1.1505327098193985 2.5201103221428736 -2.5940354634955347 -1 -1 0
35 7 3 0 -1.15192587364518 2.083516714380088 -2.723166206922604 -1 -1 0
34 7 3 0 -1.5720720282594718 2.6525636963644312 -2.45580462039041 -1 -1 0
33 7 3 0 -0.8517788080473155 2.575335537817844 -2.2378783267790188 -1 -1 0
373 91 4 0 -0.6435787781437674 2.8329636263254248 -2.041090812705655 -1 -1 0
371 91 2 0 -0.3353005640726975 3.0994022201600933 -1.812739500948404 -1 -1 0
714 205 4 0 -3.947034240756805 4.397256655606125 -2.0319104589132024 0 -1 0
713 205 2 0 -3.5984414235817774 4.462430593194512 -2.3152114225824922 0 -1 0
715 205 4 0 -3.271949289341692 4.526424286290598 -2.578872943977201 0 -1 0
646 182 4 0 -2.074327444943275 4.430645841342962 -2.832443488100965 0 0 0
20 4 3 0 -2.949643582141795 4.635582145155132 -2.8300337101194577 0 -1 0
16 4 1 0 -2.7220861421749687 4.675885408312871 -3.199653576713804 0 -1 0
19 4 3 0 -2.2945479019790773 4.518048869087054 -3.1337692315420558 0 -1 0
644 182 2 0 -1.9775189505043649 4.150517993099613 -2.510068601711879 0 0 0
645 182 4 0 -1.8595272153549076 3.8660713372066953 -2.1822438927696273 0 0 0
279 60 4 0 -2.0357971940532287 3.7687597780501205 -1.8231126549824181 -1 0 -1
655 185 4 0 -4.618676097328865 0.5892557202148918 -1.6969780542503612 1 0 0
372 91 4 0 -0.023786915475006578 3.375932773084588 -1.5819469487799862 -1 -1 0
738 213 4 0 -0.6920350934624798 4.330502099281334 -0.24665894952356296 0 0 -1
675 192 4 0 -4.265655037707072 0.5793008520641545 -1.555134547834519 0 -1 0
676 192 4 0 -3.474447406225772 0.29567225570222083 -1.3236955171572065 0 -1 0
674 192 2 0 -3.860491913234834 0.43738695938881605 -1.4392202211039937 0 -1 0
363 88 4 0 -4.8239763127016015 1.2775963854245682 -0.39309033583563313 0 -1 1
362 88 2 0 -4.548365089264532 1.4710872462400861 -0.7443552371994104 0 -1 1
165 33 3 0 -1.6661182888040276 0.6242716216291945 -0.4912005068314058 1 -1 -1
162 33 3 0 -2.3156332457034767 0.809360444247651 -0.2398998896909095 1 -1 -1
161 33 1 0 -1.923877129001186 0.6877508210990304 -0.11890236839609246 1 -1 -1
753 218 4 0 -2.7046553762852534 0.8642578727763718 -0.22259947192576385 1 0 0
740 214 2 0 -0.8349165476778267 1.5708913865033682 -1.6325875772541527 1 0 -1
435 112 4 0 -0.6965327684138853 0.5093575712129644 -1.0881564686107572 0 0 0
436 112 4 0 -1.278064298184928 0.5736225539424595 -0.38344276076240635 0 0 0
224 45 3 0 -0.5459442715595081 0.6225964596330313 -1.4377261355283657 0 0 0
434 112 2 0 -0.9926482542181423 0.544671077745369 -0.7277349023937585 0 0 0
250 50 3 0 -4.098928015550309 1.8550083332157965 -1.34196122455088 1 0 0
364 88 4 0 -4.2926971191058225 1.6414241675301233 -1.0515512340575257 0 -1 1
395 99 2 0 -4.374654887610491 3.0135801946111562 -1.6594545938564875 1 0 0
248 50 3 0 -3.374575741030755 1.9342796008222125 -1.5195575131617725 1 0 0
723 208 4 0 -3.003835265853204 2.0404680380042777 -1.3596651248799965 1 0 1
285 62 4 0 -3.0181232083053042 2.8039730040777373 -0.34227086850156363 -1 -1 -1
722 208 2 0 -2.957889278448641 2.2633693354228144 -0.9560816223352515 1 0 1
724 208 4 0 -2.9016227356863533 2.480906687821529 -0.5348777611773553 1 0 1
284 62 2 0 -3.218712725145517 3.179676379656768 -0.22696748513541506 -1 -1 -1
741 214 4 0 -0.935295919434316 2.0099515599429467 -1.4657625799388492 1 0 -1
664 188 4 0 -1.613720449884149 2.7492154675198432 -1.1570534931042362 0 -1 0
280 60 4 0 -1.608377901016632 3.01323693745342 -1.4296325430699373 -1 0 -1
662 188 2 0 -1.1974658790516985 2.5572669768887764 -1.2492487578476392 0 -1 0
663 188 4 0 -0.8257355290258598 2.377320222420532 -1.3226644159666845 0 -1 0
656 186 2 0 -4.934470382379977 3.622103471684988 -0.930189309172247 1 -1 0
397 99 4 0 -4.485274271606174 3.4195811095653035 -1.6117154492288985 1 0 0
465 122 4 0 -3.6173262144696268 4.57980305111223 -0.8056779163701814 0 0 1
466 122 4 0 -3.902626596445568 4.6109806123726 -1.691925311993467 0 0 1
658 186 4 0 -4.7886772305104985 3.5140708792388926 -1.3492285958974313 1 -1 0
464 122 2 0 -3.7631249945523235 4.595585190024854 -1.2509264027496774 0 0 1
286 62 4 0 -3.4193472174584665 3.5718992097869213 -0.11398325466149206 -1 -1 -1
78 16 3 0 -3.562725131772411 3.9629935243678696 -0.14457988239584804 0 0 0
268 56 4 0 -2.4650540029656853 4.0575800903185 -0.02772342566368645 0 0 -1
79 16 3 0 -2.8391266196805973 4.121948579264734 -0.14512440482977912 0 0 0
76 16 1 0 -3.2649859699887833 4.298221368820472 -0.1923805471635209 0 0 0
622 174 4 0 -4.129606834940803 3.5872360453177765 -4.866509800487414 1 -1 1
754 218 4 0 -3.1738211973114043 1.3062020660932454 0.4033518407795412 1 0 0
843 248 4 0 -3.5320038879422966 1.5043776076204014 0.3020358299134916 0 0 0
163 33 3 0 -1.743888347955163 1.0013286153382186 0.13432395846428752 1 -1 -1
164 33 3 0 -1.9526836945024846 0.3271484743285166 0.09590227334950269 1 -1 -1
513 138 4 0 -1.9449216141547558 0.031954453764220445 0.36313796558773814 0 0 0
752 218 2 0 -2.9380518736762387 1.0819941853481119 0.08476946934721076 1 0 0
797 233 2 0 -1.6923026787025635 1.6872244323831478 0.46776850782595786 1 0 -1
799 233 4 0 -1.6706172661243164 1.3984880239852102 0.12398777066433928 1 0 -1
844 248 4 0 -4.243807615586497 1.9128073427967538 0.6699126562438598 0 0 0
140 28 3 0 -4.256946116125251 2.0928689787152877 1.0115634436109946 1 -1 -1
842 248 2 0 -3.886640705657014 1.6982246220887716 0.49127626640783567 0 0 0
136 28 1 0 -4.366189293611465 2.267557108024409 1.3967279649371802 1 -1 -1
137 28 3 0 -4.415826285783974 2.7425621053978206 1.348546782942869 1 -1 -1
139 28 3 0 -4.759292270011265 2.0927413401471613 1.534781956616852 1 -1 -1
313 71 4 0 -4.690608017781882 3.032399414688954 1.2854584135547849 0 0 -1
798 233 4 0 -1.7109270310297702 1.9727079474256979 0.823178729265761 1 0 -1
402 101 4 0 -1.3635740298496686 2.0946907918104634 0.9505631202519105 0 0 0
401 101 2 0 -1.3645466260647094 2.419659078026389 1.2378680112581477 0 0 0
403 101 4 0 -1.3648680012821837 2.7586278950656107 1.5408463429941055 0 0 0
22 5 3 0 -1.3818601439177955 3.1200004919720796 1.3173904086942547 0 -1 0
23 5 3 0 -1.9589127846890069 3.4821349549747724 1.5699507061275493 0 -1 0
266 56 2 0 -2.173675594958727 3.850179629889031 0.26927650117142954 0 0 -1
267 56 4 0 -1.9002974171584561 3.657533327938968 0.5554258098690653 0 0 -1
385 95 4 0 -3.21304546295947 4.979359092811341 0.16326136764614138 0 -1 0
25 5 3 0 -1.6894127607422584 3.6226577217538436 0.892789295372381 0 -1 0
21 5 1 0 -1.582185133699405 3.5102318398437085 1.3163620347181724 0 -1 0
60 12 3 0 -0.21149754356127567 3.5751150331558454 0.4647860647488919 0 -1 0
24 5 3 0 -1.2875971063810678 3.8286082002925608 1.5109726464555882 0 -1 0
56 12 1 0 -0.06171998638112287 3.8883581036328825 0.16623756197553774 0 -1 0
624 175 4 0 -1.8641060564294962 1.0186388241293995 1.4521981194582991 0 -1 -1
811 237 4 0 -2.938216955593829 0.48532991239871387 2.1260673573813564 1 0 0
683 195 2 0 -2.3856081882036846 0.9667637022699411 2.0296935159423564 1 -1 0
684 195 4 0 -2.030856019456735 1.1138973992776688 1.8016614429313529 1 -1 0
685 195 4 0 -2.748387853301004 0.8097215941340259 2.2548651386478995 1 -1 0
623 175 2 0 -1.4360231191299322 0.9024223948981206 1.5247989807521825 0 -1 -1
625 175 4 0 -1.010662584187055 0.7872598103495599 1.5993521276846168 0 -1 -1
191 39 1 0 -0.46487543946627563 1.00976025789576 2.2326377829749435 0 0 -1
192 39 3 0 -0.8108706020849433 0.8227172742813865 1.9552503286465157 0 0 -1
193 39 3 0 -0.05348790722990552 0.8235065164461403 2.103507671047511 0 0 -1
195 39 3 0 -0.5477186026426704 0.8882259267267791 2.6852368373174924 0 0 -1
588 163 4 0 -0.464557160366845 1.2156516124798502 2.9172340089624678 0 0 -1
745 215 4 0 -4.982566771057744 4.608602318707878 1.6857677913765174 1 -1 0
194 39 3 0 -0.45349361356490236 1.4583455847553073 2.182180016738775 0 0 -1
378 93 4 0 -1.183764202434304 0.27097281684365393 2.991195438737318 -1 0 0
468 123 4 0 -1.450331103287564 0.49349599229918517 3.2166942528461644 0 1 -1
587 163 2 0 -0.4405636089597966 1.58624256488925 3.190279446018694 0 0 -1
138 28 3 0 -4.02472587807605 2.185710508578 1.7108858541606855 1 -1 -1
323 75 2 0 -4.223866252036677 3.21993730213263 3.021159775785702 0 -1 0
453 118 4 0 -4.7861684536258675 4.429792340336816 2.009443403648314 -1 -1 0
452 118 2 0 -4.657495443156439 4.074919308542202 2.2676911975118443 -1 -1 0
324 75 4 0 -4.253991685298902 3.434047478916923 2.623599850755656 0 -1 0
454 118 4 0 -4.519172646391676 3.711881862516632 2.5388177577057016 -1 -1 0