LAMMPS data file via write_data, version 19 Nov 2024, timestep = 100000, units = lj

883 atoms
4 atom types
622 bonds
1 bond types
511 angles
2 angle types

-4.999999 4.999999 xlo xhi
-4.999999 4.999999 ylo yhi
-4.999999 4.999999 zlo zhi
0 0 0 xy xz yz

Masses

1 1
2 1
3 0.1
4 0.1

Bond Coeffs # harmonic/omp

1 100 0.45

Angle Coeffs # harmonic/omp

1 100 180
2 100 109.471

Atoms # full

131 27 1 0 -3.6218291550744506 -3.7411063498341477 -4.08871637352727 1 0 0
132 27 3 0 -3.734218140954498 -4.068288046145919 -3.779610708082441 1 0 0
487 129 4 0 -3.842183511928014 -4.389199791118793 -4.0072403438427076 2 1 1
133 27 3 0 -3.8909475367888233 -3.3860716394468597 -4.0212484871650735 1 0 0
336 79 4 0 -4.261334859983546 -3.3022633056000585 -4.119012738752681 0 -1 0
485 129 2 0 -4.064416621680696 -4.776836864060475 -4.148775212559136 2 1 1
135 27 3 0 -3.677826842171915 -3.9056942091553597 -4.521457187790667 1 0 0
729 210 4 0 -3.4417624522098045 -3.687963580702024 -4.758201964590292 1 -1 0
134 27 3 0 -3.1981925736015535 -3.6322396932527963 -4.031100540280862 1 0 0
343 81 4 0 -2.9632013115775053 -3.366377021974316 -3.839993276645902 1 0 0
866 256 2 0 -1.8782433800764244 -4.734441273412476 -4.6360674972504645 1 0 0
868 256 4 0 -1.8926320864036361 -4.384278117741336 -4.874460619331709 1 0 0
619 173 4 0 -1.0548051553903708 -3.824338344917287 -4.281621026443482 0 0 0
617 173 2 0 -1.1906597119889413 -3.5247499456086735 -3.9715503782611146 0 0 0
601 167 4 0 -0.01824034394264462 -4.7976525107983985 -3.4974123318341235 1 0 0
599 167 2 0 -0.007393540952548072 -4.91056105461208 -3.9260093265957385 1 0 0
335 79 2 0 -4.714585996742304 -3.299648416591912 -4.007629013201748 0 -1 0
333 78 4 0 -3.8305712682785336 -2.334897306610128 -4.836291742360928 0 -1 0
332 78 2 0 -3.902724754375316 -2.490832160334149 -4.407170587991209 0 -1 0
334 78 4 0 -3.9798493012541583 -2.6322169214838573 -3.9630510123086142 0 -1 0
817 239 4 0 -3.8230013976996498 -2.6955265791274456 -3.5870519725756322 2 1 0
839 247 2 0 -4.837171957230926 -1.861571696013331 -4.4600239213702615 2 1 1
841 247 4 0 -4.409446159391149 -1.9257535350059145 -4.363056398648861 2 1 1
88 18 3 0 -4.055985623596896 -1.696318086706233 -4.336715358708585 1 0 0
341 81 2 0 -2.641201117499546 -3.0753706521779294 -3.7455764034035277 1 0 0
342 81 4 0 -2.301003440580366 -2.7766980898628644 -3.6516784869830374 1 0 0
240 48 3 0 -2.0393015679781596 -2.570454484983725 -3.4095910370859914 1 0 0
618 173 4 0 -1.3202501886680906 -3.2339839019799403 -3.660263074279878 0 0 0
238 48 3 0 -1.4236160583871622 -3.0090653409799053 -3.3641798341896645 1 0 0
237 48 3 0 -1.3545602185226926 -2.247515713561305 -3.362765850458268 1 0 0
261 54 4 0 -3.649259053228433 -0.6763796284553383 -4.657081319829248 0 -1 -1
87 18 3 0 -3.6836960644660564 -1.262671483955713 -3.8430190419638524 1 0 0
90 18 3 0 -3.7334764256598456 -1.0380108675600495 -4.519311210932702 1 0 0
86 18 1 0 -3.9417566423564443 -1.2463664720071108 -4.205031826737679 1 0 0
89 18 3 0 -4.333942288841582 -1.0148904773938243 -4.1033103968982285 1 0 0
585 162 4 0 -3.796981910162956 -1.0316902296018986 -3.494614514037412 2 0 -1
400 100 4 0 -4.514618584793558 -0.9422871826180748 -3.7798443575323444 0 -1 1
260 54 2 0 -3.4949155692317966 -0.42576823807398245 -4.963515317673859 0 -1 -1
398 100 2 0 -4.969350143256982 -0.8804110311094435 -3.8547405365750222 0 -1 1
882 261 4 0 -0.9263654410322317 -1.1923297246595053 -4.6407580074852 1 0 0
881 261 2 0 -0.506568871251587 -1.291509418971065 -4.589321594387419 1 0 0
883 261 4 0 -0.08494802901505683 -1.3959894696738293 -4.538583845254706 1 0 0
103 21 3 0 -0.28528570171447054 -0.6127831707504621 -3.4642426408350664 1 0 1
282 61 4 0 -4.307135006691107 -4.12437156762209 -2.4177290774740623 1 0 0
408 103 4 0 -4.370378781142091 -4.431171076421976 -2.675808379252468 0 0 1
281 61 2 0 -4.424338700186478 -3.7432700817558384 -2.6258204881817933 1 0 0
283 61 4 0 -4.539635580164119 -3.372101868732174 -2.812306101066561 1 0 0
407 103 2 0 -4.047758197948956 -4.764106850305915 -2.681856711827186 0 0 1
5 1 3 0 -2.634781338151182 -3.725233000201591 -2.0249394078705323 0 0 0
75 15 3 0 -0.02784115369530049 -4.960326664385561 -2.5696270598922393 0 0 0
815 239 2 0 -4.014932948139709 -2.9177247391897043 -3.2468061362288854 2 1 0
816 239 4 0 -4.215783791616475 -3.1385572197940097 -2.909465595385467 2 1 0
825 242 4 0 -4.703402036169876 -2.2576497601087295 -2.868761580642166 3 1 -1
770 224 2 0 -3.8957404229896726 -1.9076023426783086 -2.859133795945729 1 0 0
772 224 4 0 -4.312721969247676 -2.104493075556278 -2.874292615235489 1 0 0
771 224 4 0 -3.4471548413303337 -1.7045334811855906 -2.846444925145682 1 0 0
270 57 4 0 -2.4018689029769935 -3.4385988272885735 -2.106394049530486 0 0 0
239 48 3 0 -1.6464328656902527 -2.6170036423453262 -2.758982612247926 1 0 0
269 57 2 0 -2.1794760814859266 -3.1078003383612227 -2.3608431325222847 0 0 0
271 57 4 0 -1.9639722998821818 -2.7967334153849563 -2.613449143145204 0 0 0
553 151 4 0 -0.9831735373499191 -2.114082961958989 -3.2132666906406966 2 0 0
551 151 2 0 -0.6433795267446278 -1.8576085681978731 -3.1434599204572495 2 0 0
236 48 1 0 -1.6106294179190308 -2.609732793205984 -3.2234490309184154 1 0 0
584 162 2 0 -3.810660014781078 -0.6455324681382297 -3.2570997943523996 2 0 -1
586 162 4 0 -3.8218102960718183 -0.2755552293940555 -3.026210381448355 2 0 -1
64 13 3 0 -3.0773765373868107 -1.5811848362025236 -2.7221674569810617 2 1 0
63 13 3 0 -2.6426892255401966 -1.5583928994897596 -2.108343635408721 2 1 0
642 181 4 0 -2.3655933925672215 -1.585303024873145 -1.8302372048578945 1 0 0
725 209 2 0 -2.818755409711713 -0.2743678106298031 -2.1396300112808193 0 -1 1
641 181 2 0 -1.933321533193404 -1.5648298290742497 -1.7305196139492391 1 0 0
62 13 3 0 -2.7843634296281325 -0.9368760643549603 -2.4537644093196467 2 1 0
61 13 1 0 -2.701060402001661 -1.3670552162511278 -2.507228595984156 2 1 0
65 13 3 0 -2.307231078878003 -1.4261734630083618 -2.7834272862854053 2 1 0
568 156 4 0 -1.917812476542354 -1.2579313047229306 -2.8362880575403104 2 0 0
727 209 4 0 -2.6185804634826053 -0.6009623355914488 -2.3452266225566074 0 -1 1
552 151 4 0 -0.29170314213247206 -1.5742667008043285 -3.0720743955529453 2 0 0
105 21 3 0 -0.11198143339792477 -1.2040894444582104 -3.101592679159067 1 0 1
594 165 4 0 -1.2256097516767221 -1.2548218088966596 -1.7032750795585354 1 0 0
593 165 2 0 -0.805252835013273 -1.1403292320263971 -1.8503210300369703 1 0 0
511 137 4 0 -0.2591906220736906 -0.6435286431272766 -1.9082463949748734 1 0 1
566 156 2 0 -1.4634763964699933 -1.0743321765044596 -2.779069709176492 2 0 0
101 21 1 0 -0.20983542670139155 -0.7862387389187964 -3.05768430459203 1 0 1
567 156 4 0 -1.0110233205323818 -0.8782241583737926 -2.721926432789938 2 0 0
102 21 3 0 -0.6080979474903723 -0.7439949378722259 -2.7867151846232407 1 0 1
595 165 4 0 -0.4095342606561774 -1.0129328817844319 -2.005437749666512 1 0 0
701 201 2 0 -3.3767613204401297 -4.6911324651069854 -1.494254015786991 1 0 1
115 23 3 0 -4.208388817290636 -4.558225471116858 -0.49437716882040394 0 0 0
111 23 1 0 -4.3733361599056675 -4.543226164373411 -0.07318463717854051 0 0 0
114 23 3 0 -4.745887151256387 -4.295840665855952 -0.05873870201243392 0 0 0
703 201 4 0 -3.375218470450785 -4.251906508232403 -1.4739873058440356 1 0 1
168 34 3 0 -4.143312298905753 -0.0381302651725024 -3.0398312643506022 1 -1 0
733 211 4 0 -0.062209031962606076 -0.47159899676839157 -3.7977992440208137 2 1 1
4 1 3 0 -3.175482596141477 -3.8951960845624356 -1.57974837670562 0 0 0
1 1 1 0 -2.7365269374502734 -3.7953960463605156 -1.6092798361285423 0 0 0
3 1 3 0 -2.497928833817681 -4.139082968690153 -1.4513142755101187 0 0 0
2 1 3 0 -2.653591193970089 -3.4311664219286517 -1.3771975996594366 0 0 0
472 124 4 0 -0.5370927052066126 -3.6012697544644534 -0.12340565993210895 1 1 0
235 47 3 0 -0.6722589998927075 -3.3959419045733896 -0.4491888720102635 1 0 0
28 6 3 0 -3.9911145851231318 -1.9251938801471447 -0.058063611664291415 2 0 -1
322 74 4 0 -4.915659021687599 -2.4318610822083837 -0.19264196713346493 1 0 0
30 6 3 0 -4.522182108728345 -2.311398904433746 -0.32261714284712806 2 0 -1
29 6 3 0 -4.126272538361608 -1.894127554153778 -0.7745261433401431 2 0 -1
26 6 1 0 -4.117500881720719 -2.151639214974794 -0.39560227077746024 2 0 -1
27 6 3 0 -3.8076631085042374 -2.511740169547872 -0.4505262932987524 2 0 -1
405 102 4 0 -2.5689561645107837 -3.3377341047792486 -0.9825092996318974 0 0 0
404 102 2 0 -2.1646175057176316 -3.231703899923772 -0.758817230670962 0 0 0
406 102 4 0 -1.7728160261750268 -3.1326592320199147 -0.5433050830197956 0 0 0
682 194 4 0 -0.029020610198923436 -1.9905297856447555 -0.9581697036864965 1 0 0
680 194 2 0 -0.41176660233990603 -2.1970432721755797 -0.8372832199538944 1 0 0
681 194 4 0 -0.7930550091459265 -2.404327814973393 -0.7138332157850975 1 0 0
234 47 3 0 -1.405226300530606 -3.2958933565803674 -0.4488973084584762 1 0 0
232 47 3 0 -1.0236070283911194 -3.3358716648084763 -1.0783972329969034 1 0 0
233 47 3 0 -0.9488843346537479 -2.756210099427938 -0.6491672661321672 1 0 0
231 47 1 0 -1.0063423777712108 -3.194122186760536 -0.6581662765831071 1 0 0
578 160 2 0 -3.6457916940463306 -0.030587291317217158 -1.3999444930059024 1 -1 0
579 160 4 0 -3.9780844618553814 -0.21301588575516206 -1.097356310308235 1 -1 0
643 181 4 0 -1.5052473632941354 -1.534464414889352 -1.6407172011169626 1 0 0
626 176 2 0 -3.6492596708532155 -3.7410205096655713 0.46713413008309956 0 -1 1
628 176 4 0 -3.9520883224422025 -3.9954718064521395 0.22096840632809922 0 -1 1
112 23 3 0 -4.077485135115124 -4.376152058973846 0.16599937404962795 0 0 0
627 176 4 0 -3.357102583546939 -3.4903488447696476 0.720206702348837 0 -1 1
869 257 2 0 -3.382829124911555 -4.090654135345715 1.453428014855617 1 1 0
425 109 2 0 -4.81844058979719 -3.4991287504559825 0.2029680607647455 0 -1 0
870 257 4 0 -3.2277329179238494 -4.053222850795983 1.020612588502229 1 1 0
691 197 4 0 -3.166733611305678 -4.244255401005939 0.6994735391539555 0 -1 0
689 197 2 0 -2.7803604652053138 -4.442739671423465 0.5435423186164989 0 -1 0
690 197 4 0 -2.424005554840133 -4.634132722244514 0.39405664409082597 0 -1 0
849 250 4 0 -2.018927926439566 -4.55937017353556 0.3713551616367292 2 0 0
848 250 2 0 -1.7846955847340538 -4.790771538155492 0.04608508544728007 2 0 0
470 124 2 0 -0.4177030562794526 -3.390803155989248 0.2303726805723061 1 1 0
610 170 4 0 -4.861660185816855 -1.940690334681996 1.3093368247764685 1 0 -1
427 109 4 0 -4.923671410406595 -3.089285012490473 0.34432517174941246 0 -1 0
598 166 4 0 -3.700302157165238 -1.729886792143429 0.1324237579551868 1 0 0
787 229 4 0 -3.040565973832226 -3.254769799331248 0.7419256332386661 2 0 -1
785 229 2 0 -2.710568302136552 -3.0235777741060565 0.9282989832017714 2 0 -1
786 229 4 0 -2.372241488528734 -2.7750450335392816 1.1123020689753842 2 0 -1
141 29 1 0 -2.08024051619796 -1.9829355483381739 1.308284536050727 1 0 -1
142 29 3 0 -2.1944475370595615 -2.4147407249923187 1.2112075135712983 1 0 -1
145 29 3 0 -2.3408225017636832 -1.8409127205177631 1.6512840884614812 1 0 -1
144 29 3 0 -2.139033223445021 -1.7173093907362977 0.9383262605782186 1 0 -1
460 120 4 0 -2.587197877800145 -2.1922031507280213 1.6618177057148502 2 1 -1
471 124 4 0 -0.2853778953537489 -3.153262473250133 0.6214245784302106 1 1 0
143 29 3 0 -1.6408506800494136 -1.9709607434473964 1.4341537055987228 1 0 -1
387 96 4 0 -0.12184036352016392 -3.269151992521992 0.9823469621365781 -2 -1 -1
375 92 4 0 -1.3896147671115213 -1.6640508251475712 1.5028337287305318 0 0 0
374 92 2 0 -0.9379307629384988 -1.6336114726987208 1.535066142032921 0 0 0
39 8 3 0 -4.943331550716532 -0.11962453918975147 0.03551467064698688 2 0 0
596 166 2 0 -3.3601955939135655 -1.4503303558943976 0.23112646387823244 1 0 0
608 170 2 0 -4.629606051457324 -1.566010371229413 1.4238162115714887 1 0 -1
609 170 4 0 -4.398888616420481 -1.1971270420846616 1.546406594384135 1 0 -1
514 138 4 0 -2.3866681367648277 -0.07894762590640259 0.18232082922116977 1 0 0
597 166 4 0 -3.0249686984188213 -1.180685635709842 0.3321391209189164 1 0 0
227 46 3 0 -2.755407945612219 -0.9349203048472505 0.21088432724824369 2 0 0
230 46 3 0 -2.9342164638371155 -0.7579625477262137 0.8874996543858868 2 0 0
226 46 1 0 -2.6430349394351476 -0.6888146601944403 0.5644450535546826 2 0 0
229 46 3 0 -2.6595181310393734 -0.22767255417268828 0.439138731555591 2 0 0
532 144 4 0 -1.9895673514959817 -0.7202022651297453 1.0237467272944922 1 0 -1
228 46 3 0 -2.2341593396208905 -0.7981273525618606 0.7030869161846498 2 0 0
530 144 2 0 -1.5634721417234307 -0.6990250137649685 0.8225308362554467 1 0 -1
376 92 4 0 -0.4893284587872415 -1.5978445042399003 1.570761344287198 0 0 0
531 144 4 0 -1.1470167454896596 -0.6825051690871868 0.6408894003540695 1 0 -1
768 223 4 0 -0.2903163118717149 -1.2653831433605824 1.497571821494999 1 1 0
603 168 4 0 -1.0771518140628316 -0.4368122690345473 0.31199885131254756 0 -1 0
602 168 2 0 -0.7194377475517442 -0.15940978278028695 0.33527295039674865 0 -1 0
635 179 2 0 -3.429583384267443 -4.101370111851947 2.6921544152593437 1 0 0
636 179 4 0 -3.514324088762139 -4.023323641722262 2.2549114451570276 1 0 0
871 257 4 0 -3.5273176985915597 -4.135473278472146 1.8658482234078981 1 1 0
637 179 4 0 -3.3504866065070074 -4.184653016372068 3.107242196874016 1 0 0
258 53 4 0 -4.665056825120644 -2.125201453892403 2.7720226749038686 1 0 -1
256 52 4 0 -3.808548786993496 -3.049380409360734 3.113643248440199 1 0 0
257 53 2 0 -4.276919539920792 -2.093731166671809 3.032135953906713 1 0 -1
254 52 2 0 -3.5545496969815873 -2.9334565275010718 2.7649431692810005 1 0 0
255 52 4 0 -3.2955804024591617 -2.8089902086690914 2.4239394377179684 1 0 0
259 53 4 0 -3.9165846741400374 -2.0663158001353166 3.2655819738213365 1 0 -1
459 120 4 0 -3.2108006058848213 -2.6748439509255615 2.0596981784099553 2 1 -1
458 120 2 0 -2.8890314607005916 -2.430688755176765 1.8527236724374445 2 1 -1
633 178 4 0 -0.3104219099266192 -2.536810543502484 1.9660580803737302 0 0 -1
632 178 2 0 -0.07106592144472756 -2.261998639979935 2.192829271396321 0 0 -1
811 237 4 0 -3.9906978811460405 -0.6685588719710491 2.608877394349089 2 0 0
809 237 2 0 -4.217791948275766 -0.8492736787784336 2.2779356115328886 2 0 0
679 193 4 0 -3.892450049060094 -0.34014516622086877 2.8234756294739585 1 -1 -1
810 237 4 0 -4.453153753808418 -1.0376999473716468 1.9265321154666148 2 0 0
677 193 2 0 -3.6185074436449467 -0.13053158606533 3.14006095026972 1 -1 -1
45 9 3 0 -3.835182387100854 -3.3873038723638462 3.297507635072688 1 0 -1
864 255 4 0 -3.5192753439117466 -4.909881369722759 3.891244206244635 2 1 -1
863 255 2 0 -3.7252461754128543 -4.531729819530758 3.907803650440349 2 1 -1
865 255 4 0 -3.9460362984417436 -4.140961682968963 3.925669293403671 2 1 -1
44 9 3 0 -4.07071329994149 -3.767558304148146 3.8951963090944597 1 0 -1
41 9 1 0 -3.860946617084717 -3.40799205829508 3.7822894194328844 1 0 -1
43 9 3 0 -3.434830008037081 -3.41369701768402 3.9533814118322175 1 0 -1
730 210 4 0 -3.3745540485350434 -3.5173154440163876 4.313009328771829 1 -1 -1
728 210 2 0 -3.410964450035954 -3.5997160520663716 4.776094850236574 1 -1 -1
717 206 4 0 -3.151908407116946 -4.989640966390325 3.8335771620127383 1 -1 0
457 119 4 0 -3.190471111735179 -3.9808518247168716 3.3965833294653516 1 0 0
15 3 3 0 -2.0797624131598362 -3.5542436300457596 4.682829484815563 0 0 -1
455 119 2 0 -2.7703875340517023 -3.9731987990762425 3.617428482793369 1 0 0
14 3 3 0 -2.051958796835266 -3.9550798293037746 4.084432380010422 0 0 -1
456 119 4 0 -2.3812315160822455 -3.950385419773591 3.8358155934210663 1 0 0
11 3 1 0 -1.8967780568065198 -3.8969979731714073 4.499317093447995 0 0 -1
12 3 3 0 -1.9874396086838608 -4.266119694416507 4.74123481379685 0 0 -1
13 3 3 0 -1.4517401399170704 -3.8311443342111042 4.481594408316471 0 0 -1
277 59 4 0 -1.14870215106945 -3.586068362207297 4.445656358912621 -1 -1 0
275 59 2 0 -0.7467516577486242 -3.434062543893107 4.28179033671672 -1 -1 0
876 259 4 0 -3.855157505881872 -2.120897041817654 4.834758335493965 2 1 1
300 67 4 0 -3.677221881685125 -2.1642333039109007 3.575947474355588 1 0 -1
877 259 4 0 -3.898199284670145 -2.7071558660524593 4.139161917942615 2 1 1
42 9 3 0 -4.084051788054885 -3.038544338783659 3.9332201462172938 1 0 -1
875 259 2 0 -3.8701107740329332 -2.4170371401137904 4.484464993974433 2 1 1
299 67 2 0 -3.2210962342653806 -2.060664508920498 3.6661535369768403 1 0 -1
301 67 4 0 -2.790594143121417 -1.9681458951187811 3.752230290854466 1 0 -1
760 220 4 0 -2.5675816283584676 -1.6472855715314445 3.827275872095332 2 0 0
276 59 4 0 -0.3572779740350098 -3.2761233284104225 4.129399223274192 -1 -1 0
420 107 4 0 -0.14329729391784696 -3.01876540218965 3.916747450136106 1 0 -1
747 216 4 0 -4.919091705061433 -1.3539981518126103 4.092688804001145 2 1 -1
746 216 2 0 -4.473390870689954 -1.3041670373902403 4.161992415766902 2 1 -1
831 244 4 0 -3.618568165858996 -1.1586671751822495 4.245852098137173 2 0 -1
748 216 4 0 -4.010372062252493 -1.2510174000664258 4.228120079892519 2 1 -1
262 54 4 0 -3.3548533504927187 -0.16451568328823374 4.726766515876121 0 -1 -2
830 244 2 0 -3.257089478341018 -0.9522961109371533 4.0859110320421115 2 0 -1
832 244 4 0 -2.8876544979701557 -0.739783555671762 3.91961514552514 2 0 -1
758 220 2 0 -2.1754501877448726 -1.537844040007747 4.042661128157062 2 0 0
469 123 4 0 -2.8344393725103125 -0.4141684999345907 3.6877942512514403 2 1 -1
467 123 2 0 -2.4208917225890927 -0.20564701881444414 3.755659588098122 2 1 -1
759 220 4 0 -1.8217594702763633 -1.4432307914224127 4.256638169691281 2 0 0
68 14 3 0 -1.0214765871851474 -1.1325200852628452 4.963675873298791 2 1 -1
67 14 3 0 -1.6040943078660663 -1.230558386567333 4.538770726088354 2 1 -1
670 190 4 0 -0.5861350712163444 -1.4701654896013747 4.383272333811836 1 0 0
69 14 3 0 -0.9187414320191083 -1.3125430702351357 4.249762176419355 2 1 -1
668 190 2 0 -0.26107222875056824 -1.6451645283926926 4.126876897946384 1 0 0
835 245 4 0 -1.0173538479609299 -0.27039267416266455 4.540212387558479 1 0 -1
66 14 1 0 -1.1844650155657916 -1.0785682720015215 4.547671043233723 2 1 -1
70 14 3 0 -1.1801693286745136 -0.6263017394646555 4.437335394027049 2 1 -1
468 123 4 0 -2.023313642396154 -0.006152691194844628 3.823040257918838 2 1 -1
113 23 3 0 -4.469114103367014 -4.968366603417099 0.06768555459180892 0 0 0
426 109 4 0 -4.712504717664151 -3.9074991333333386 0.06045518436900732 0 -1 0
167 34 3 0 -4.458995458752895 0.4851993926101317 -3.49814503688044 1 -1 0
705 202 4 0 -4.701909796915086 0.31977226908570433 -3.781249804780217 2 0 0
821 241 2 0 -4.79451545512628 1.3573501609933292 -4.759102557036441 2 0 0
822 241 4 0 -4.362265282794987 1.5320451938988882 -4.8412085389784805 2 0 0
704 202 2 0 -4.868718939486758 0.3222943557426712 -4.202719637736224 2 0 0
359 87 2 0 -1.9278286094416677 0.07124186875695404 -3.388071516484834 1 0 0
289 63 4 0 -1.7902116042998415 1.1446776624030077 -3.5881765804903822 1 0 0
361 87 4 0 -1.9290962266488738 0.07509280968158905 -3.844372731890051 1 0 0
153 31 3 0 -0.36575443968236687 1.38732605686178 -4.813339117859694 0 -1 0
151 31 1 0 -0.11421995701921794 1.0160556843469166 -4.839996574484712 0 -1 0
155 31 3 0 -0.05237105788905794 0.838223030805235 -4.432184907564682 0 -1 0
274 58 4 0 -0.4117514812504792 1.7193092357190327 -4.571435372319141 -1 -1 0
571 157 4 0 -1.4608254642380056 1.3965513266829914 -3.4543506773450714 1 0 -1
873 258 4 0 -3.713374423948091 3.2234030521232127 -3.715257339145573 2 0 1
858 253 4 0 -3.326056677669273 3.192715178258429 -3.8375150497794697 2 0 1
872 258 2 0 -4.127247662045137 3.1182423536624944 -3.482162334953982 2 0 1
339 80 4 0 -4.1298642368982845 2.3098713612153885 -4.3019179512389805 1 -1 0
338 80 2 0 -4.550313352372559 2.3880319387368187 -4.447199334309906 1 -1 0
874 258 4 0 -4.497083212857832 3.040214701594688 -3.2791043672058926 2 0 1
207 42 3 0 -1.126107866560254 4.356343383915681 -1.1280884776979447 2 0 0
850 250 4 0 -1.554438419184459 4.981525098811942 -0.2612512958356943 2 -1 0
857 253 2 0 -3.2650433102562944 3.1916374636403306 -4.301059005899477 2 0 1
859 253 4 0 -3.2039182193582896 3.1918092115375662 -4.728145053969955 2 0 1
272 58 2 0 -0.2845633358263484 1.8817406573592024 -4.176233381853019 -1 -1 0
273 58 4 0 -0.1492650199088974 2.0532393769810424 -3.7654655222268834 -1 -1 0
82 17 3 0 -0.12595951138940542 2.3420919992547775 -3.474474455549205 1 0 -1
878 260 2 0 -3.422490008403601 4.745107720395057 -3.4401587747380824 1 -1 0
486 129 4 0 -4.276459675801797 4.859385115151919 -4.289403903750808 2 0 1
550 150 4 0 -4.479142046125843 4.481806048974707 -4.356667695506675 1 -1 0
548 150 2 0 -4.818255002911266 4.216509358072549 -4.267374758559407 1 -1 0
880 260 4 0 -3.2081460250353624 4.54322853119558 -3.7731636222521936 1 -1 0
243 49 3 0 -2.7691074527832424 4.486328139945139 -4.666919284967567 1 -1 1
241 49 1 0 -2.560697128804962 4.385917226025092 -4.319398248013366 1 -1 1
244 49 3 0 -2.8589142332777375 4.388634236043489 -3.9461213898592673 1 -1 1
242 49 3 0 -2.387256944201982 3.975909294841798 -4.36967413669217 1 -1 1
245 49 3 0 -2.2094364402156526 4.695654511665853 -4.2515184353904205 1 -1 1
867 256 4 0 -1.8724761253137658 4.887192554687602 -4.378375031472483 1 -1 0
666 189 4 0 -3.076326368726873 4.4750027662361935 -4.9215673253832 1 -1 0
394 98 4 0 -3.7784860664947635 1.0314628671844357 -3.120181733921271 0 -1 0
169 34 3 0 -3.968448968222474 0.7024708844232421 -3.004389324790344 1 -1 0
166 34 1 0 -4.30276652539565 0.41882832581949625 -3.08359277411236 1 -1 0
170 34 3 0 -4.631639916693082 0.4863525793878969 -2.7739919584459023 1 -1 0
676 192 4 0 -3.5963937523541274 1.3961527341489717 -1.6520110646516484 0 -1 0
392 98 2 0 -3.339952286589251 1.1482456355142512 -3.235352922472686 0 -1 0
490 130 4 0 -4.976887740745464 0.27919842731114564 -2.8764318809041933 2 0 0
423 108 4 0 -1.2677601754273335 3.9933619239097036 -1.2710880965358387 1 0 0
580 160 4 0 -3.333895790175868 0.13488591734858524 -1.6976287286688305 1 -1 0
726 209 4 0 -3.01556338445804 0.05392052313914686 -1.931697462952565 0 -1 1
287 63 2 0 -2.1877189388996006 1.2061875647916365 -3.3339871738975098 1 0 0
674 192 2 0 -3.1815888268591452 1.3270883967401668 -1.8719011458438017 0 -1 0
393 98 4 0 -2.9192977602315953 1.2538403805843092 -3.3481130593545396 0 -1 0
288 63 4 0 -2.5954505254812736 1.2717011411550256 -3.0608919297063544 1 0 0
360 87 4 0 -1.9333712454261636 0.06825887753834703 -2.936287432614166 1 0 0
675 192 4 0 -2.799552198468317 1.2734498194514963 -2.089077810591353 0 -1 0
655 185 4 0 -2.6377245414097072 1.49000078587921 -2.3979974424792596 2 0 0
709 203 4 0 -1.5619605622852233 0.18411716910445008 -2.8183941327866417 1 -1 0
707 203 2 0 -1.3531325157041958 0.4171385478660312 -2.5207220585387415 1 -1 0
708 203 4 0 -1.1356819452218967 0.6520357973935429 -2.207096423283778 1 -1 0
346 82 4 0 -0.91555744330104 0.6401832161454548 -1.8656887835161164 1 -1 1
569 157 2 0 -1.0152966515621067 1.5290728316813622 -3.3193371694811136 1 0 -1
344 82 2 0 -0.5149908372536354 0.7845372403751592 -1.823312240224718 1 -1 1
345 82 4 0 -0.10871512657276217 0.9407355405779256 -1.7786284190961181 1 -1 1
247 50 3 0 -1.3186273459798148 1.598763668883434 -1.7311890405707122 2 0 0
766 222 4 0 -4.616268282949527 2.122990169013085 -2.6848835262355237 1 -1 1
348 83 4 0 -3.416625682955078 2.751231160439864 -2.8474599882848426 1 0 0
765 222 4 0 -3.756568691365958 2.5476222567146696 -2.7300884268368173 1 -1 1
764 222 2 0 -4.16915292058916 2.344813709440735 -2.7094140434774863 1 -1 1
774 225 4 0 -4.548377096900288 2.9927129745543244 -2.196275042143898 1 -1 -1
372 91 4 0 -4.846810097950403 2.8778267398340898 -3.264333059225401 0 -1 0
484 128 4 0 -4.960491564460607 1.8953503137664303 -2.7161618356113357 1 0 0
347 83 2 0 -2.990055926451165 2.9892545268801856 -2.829535753185152 1 0 0
653 185 2 0 -2.2707769975136434 1.7633680116789838 -2.3545895479899817 2 0 0
654 185 4 0 -1.8984137157687102 2.0358570685815263 -2.3292203346870486 2 0 0
442 114 4 0 -1.7720038627643184 2.215317943601552 -2.0220482710006342 2 0 0
440 114 2 0 -1.7732639773192256 2.6163860809082227 -1.7988470984509783 2 0 0
349 83 4 0 -2.5636292282829203 3.219439721436852 -2.813856480024237 1 0 0
570 157 4 0 -0.5806091043446591 1.6520279909433917 -3.186154918739283 1 0 -1
83 17 3 0 -0.16869942888812695 1.7002848285412515 -3.1002818882503185 1 0 -1
590 164 2 0 -0.7270275990844617 2.0843517115237455 -2.143844596356909 0 -1 -1
592 164 4 0 -0.4282619224492743 2.3581681470620666 -2.4099006687555025 0 -1 -1
85 17 3 0 -0.21374380000041615 2.3260411953180338 -2.723283637917987 1 0 -1
591 164 4 0 -1.0133453481809416 1.8195622138092507 -1.885676250534484 0 -1 -1
424 108 4 0 -1.4750375636583883 3.2546573660439977 -1.7823580183014616 1 0 0
81 17 1 0 -0.022794491802649475 2.116923162138918 -3.075184102323181 1 0 -1
879 260 4 0 -3.648914792090122 4.955822915451759 -3.06649623868664 1 -1 0
409 103 4 0 -3.7480463089247316 4.916690261430815 -2.686496396174638 0 -1 1
518 140 2 0 -3.6003632989757186 4.204958746034991 -2.0291492230550277 2 -1 1
520 140 4 0 -3.7644163127897254 3.8240204624986367 -2.1865744687939723 2 -1 1
775 225 4 0 -4.160371128487159 3.7994420921445515 -2.12466137203187 1 -1 -1
773 225 2 0 -4.355147137992634 3.3925761374630286 -2.1629160038409236 1 -1 -1
519 140 4 0 -3.426638626402177 4.605845055796212 -1.853640540388394 2 -1 1
686 196 2 0 -1.915020749728448 3.8149334971551143 -2.7601229273202317 1 -1 1
688 196 4 0 -2.2959828870230856 3.539052005440971 -2.791502154725471 1 -1 1
687 196 4 0 -1.5303886024326903 4.091544419262839 -2.7231686999305573 1 -1 1
493 131 4 0 -1.1570273540201113 4.2737246816438 -2.6741049095465854 1 0 1
491 131 2 0 -0.7433583228461389 4.545526033610627 -2.637984617050538 1 0 1
492 131 4 0 -0.35155692940777694 4.80450198755216 -2.6166705518723927 1 0 1
583 161 4 0 -3.5747265227483753 0.2613341946908898 -0.30210250559691154 2 -1 0
206 42 1 0 -1.4573086981661687 4.425213423916747 -0.778354071100857 2 0 0
389 97 2 0 -4.23726361522138 0.06470196540141249 -0.2524326921975355 1 -1 0
390 97 4 0 -3.899239158414358 0.11829454668011774 -0.5164813123411944 1 -1 0
209 42 3 0 -1.3938451507883838 4.09299029050307 -0.427089731273564 2 0 0
581 161 2 0 -3.1430602103123606 0.4427210829859609 -0.32867862716855 2 -1 0
582 161 4 0 -2.730488646867096 0.6114533739206154 -0.3673212035689142 2 -1 0
363 88 4 0 -2.4297010813053332 0.7402774934699572 -0.5870556261856521 0 -1 1
362 88 2 0 -2.0041569772344876 0.9266676594844778 -0.7029293460681467 0 -1 1
364 88 4 0 -1.6270454997159263 1.0988876829016272 -0.8111241673807639 0 -1 1
250 50 3 0 -1.3861520168665744 1.3115962692206242 -1.0399794560202018 2 0 0
436 112 4 0 -0.8380863485648025 1.1988933451467005 -0.3027500948340336 1 0 0
434 112 2 0 -0.46955070991059955 1.0588709114133144 -0.5285213277215721 1 0 0
435 112 4 0 -0.10336934559728572 0.9271323959649171 -0.7574690962233586 1 0 0
165 33 3 0 -1.1031025599714046 1.3781502929139808 -0.05336147834840421 1 -1 -1
513 138 4 0 -1.5849802608477002 0.34370095428542413 -0.06285420833864652 1 0 0
59 12 3 0 -4.961735335143293 3.1918665796305232 -0.3370969329988629 1 -1 0
57 12 3 0 -4.265174284010012 3.321396972433992 -0.48085767393687107 1 -1 0
56 12 1 0 -4.545465939721877 3.1742525211968458 -0.17640481027581245 1 -1 0
60 12 3 0 -4.436544752117377 2.730352274688376 -0.0569720139715173 1 -1 0
441 114 4 0 -1.7651617308548015 3.03677571525425 -1.5592839097034248 2 0 0
658 186 4 0 -2.9985839166642387 1.6599299921577861 -0.13760191806549305 1 -1 0
397 99 4 0 -2.7169879033931235 1.836681913607766 -0.4255419380099932 2 0 0
395 99 2 0 -2.3817599369534115 1.9526435426710744 -0.7178073107845497 2 0 0
396 99 4 0 -2.0639400018091645 2.064264686290458 -1.001233856600241 2 0 0
249 50 3 0 -1.709627460644747 1.9580950080159312 -1.1783041727313184 2 0 0
246 50 1 0 -1.3424581270243428 1.6867209629865858 -1.2659966235117275 2 0 0
248 50 3 0 -0.9668750732324423 1.9089993699402363 -1.1354037482306998 2 0 0
723 208 4 0 -0.5870328928603064 2.051933443460479 -1.154720031642504 2 0 1
722 208 2 0 -0.16302837389627456 2.2006804925579777 -1.0017101485094946 2 0 1
702 201 4 0 -3.3843951177764806 4.830089712304846 -1.5310990549944203 1 -1 1
672 191 4 0 -3.8604925935173275 3.3780274853330203 -0.504443947589559 1 -1 -1
671 191 2 0 -3.414062314258035 3.4402072691835004 -0.5949005891488515 1 -1 -1
673 191 4 0 -2.967970290157265 3.505290733713177 -0.6800893643904296 1 -1 -1
537 146 4 0 -2.9175879690627613 3.8853401435213426 -0.8201951335269051 2 0 -1
538 146 4 0 -2.243989824572631 4.466381408703682 -1.0000372164968558 2 0 -1
536 146 2 0 -2.5718334677817856 4.176589141724981 -0.9108734576459172 2 0 -1
208 42 3 0 -1.870512064653064 4.379915569179782 -0.9539838392821087 2 0 0
853 251 4 0 -2.8983867222102035 4.565688712940745 -0.01795290550340667 1 -1 1
422 108 2 0 -1.3716405497075495 3.63258093797253 -1.5208476139811649 1 0 0
210 42 3 0 -1.4073636458891747 4.851508252019372 -0.6043829222258355 2 0 0
164 33 3 0 -1.3483298105506383 0.6634448978502832 -0.02571555401876857 1 -1 -1
263 55 2 0 -4.422175952791095 0.9982079722222537 0.3701860875034111 0 -1 0
264 55 4 0 -4.862863304954837 0.9727781859633557 0.46906700995282247 0 -1 0
265 55 4 0 -3.993913326240526 1.0136976892625382 0.29235074225911184 0 -1 0
657 186 4 0 -3.7949264838681946 1.3395942317321126 0.1916979180914904 1 -1 0
754 218 4 0 -2.4058463015585962 0.9042970396339811 1.3165532607165593 2 0 0
752 218 2 0 -2.21983813876461 1.0502257134531297 0.9221354181107477 2 0 0
753 218 4 0 -2.0375883847378806 1.1790638382750958 0.5611120270777858 2 0 0
512 138 2 0 -2.0008740454493714 0.12349491100876708 0.06019193902542064 1 0 0
843 248 4 0 -2.6937846227893614 0.8416464011680223 1.5773007924574838 1 0 0
162 33 3 0 -1.672392151753229 1.1839884668985627 0.3857662583181112 1 -1 -1
833 245 2 0 -0.718637853380728 0.004362979815399015 4.6445306508613795 1 0 -1
161 33 1 0 -1.2839306326166704 1.046310825959 0.22035609464931127 1 -1 -1
163 33 3 0 -0.991852355232079 0.9641223827846472 0.5751898818127819 1 -1 -1
799 233 4 0 -1.0496878000684005 1.109835368890943 0.970680910500529 2 0 -1