LAMMPS data file via write_data, version 4 Feb 2025, timestep = 800000, units = lj

3100 atoms
4 atom types
2100 bonds
1 bond types
1250 angles
2 angle types

-10.410592 10.410592 xlo xhi
-10.410592 10.410592 ylo yhi
-10.410592 10.410592 zlo zhi
-7.105427357601002e-15 0 0 xy xz yz

Masses

1 1
2 1
3 0.1
4 0.1

Bond Coeffs # harmonic/omp

1 100 0.45

Angle Coeffs # harmonic/omp

1 100 180
2 100 109.471

Atoms # full

269 57 2 0 -7.595670340013507 -10.25177415476158 -9.798251526596653 14 1 0
271 57 4 0 -7.288594026529868 -10.367710793087998 -10.156095298855067 14 1 0
1715 539 2 0 -8.805746565599694 -7.268837785415464 -9.815741546081322 4 0 1
1194 365 4 0 -8.257459383981468 -7.160861555137843 -10.277478784361286 11 1 0
1716 539 4 0 -8.611842947941868 -7.314081995752888 -10.240580902237232 4 0 1
990 297 4 0 -5.453267133426885 -5.578820639749176 -9.70035809520958 3 0 1
989 297 2 0 -5.057779432306792 -5.698457549915133 -9.926677621750203 3 0 1
991 297 4 0 -4.662597752512393 -5.817712312716868 -10.154574382270368 3 0 1
2526 809 4 0 -4.315253865078164 -5.7130076620641095 -9.956097427190628 12 1 0
2525 809 2 0 -3.9778548627971624 -5.896369101717001 -9.727925135469949 12 1 0
2698 866 4 0 -3.6577750743979545 -5.227412528695974 -10.112254534513236 12 1 0
2697 866 4 0 -2.8127394545939346 -4.9037281366656895 -10.183134532392407 12 1 0
2696 866 2 0 -3.224883549146776 -5.063306189991304 -10.14814117447685 12 1 0
1302 401 4 0 -2.5726614609782406 -4.559148714169488 -10.212205511115668 4 0 0
1301 401 2 0 -2.1769109496794883 -4.399915464608751 -10.02570881391162 4 0 0
1303 401 4 0 -1.792623571263917 -4.256064627107787 -9.856554799945071 4 0 0
1351 417 4 0 -1.4362079655396371 -4.206691955344 -10.005155507335983 4 0 0
1349 417 2 0 -1.1205127233477654 -4.0583700353329935 -10.22176694717713 4 0 0
1824 575 4 0 -9.061189112675581 -2.5045746824561412 -9.946821482845655 1 -1 0
1823 575 2 0 -8.898104412513177 -2.2215143496542566 -9.665234445547128 1 -1 0
1850 584 2 0 -5.453679972300648 -1.2028819617897355 -9.565863740724408 8 0 0
1851 584 4 0 -5.200602446415004 -0.8422056276002419 -9.621268573755486 8 0 0
547 149 4 0 -4.851263038497256 -0.6523524829894392 -9.754117646784408 1 -1 0
545 149 2 0 -4.46199330003382 -0.5686250909705262 -9.987622450448834 1 -1 0
546 149 4 0 -4.081885265437259 -0.4909460852250742 -10.219847064511873 1 -1 0
1730 544 2 0 -3.3049671996103838 -0.33740976677944623 -10.375973080167036 9 0 0
1731 544 4 0 -2.8577832741929514 -0.2723849334345445 -10.34251380328377 9 0 0
407 103 2 0 -2.0347312277763017 -0.34698838304773005 -10.376744487092346 8 0 0
409 103 4 0 -1.5870562103469936 -0.4138364176690832 -10.259992306914333 8 0 0
2106 669 4 0 -1.287320845131184 -0.13061497282326506 -10.235025797111254 9 0 1
2105 669 2 0 -0.8515052757941319 -0.06797681615269724 -10.147872784382079 9 0 1
2107 669 4 0 -0.4278666589997986 -0.002783255842992105 -10.067804981228546 9 0 1
1543 481 4 0 -8.833165749098628 -9.739825460630602 -8.836238442401509 12 1 1
2088 663 4 0 -9.084881258747785 -9.597766179587602 -9.10761876045851 5 0 1
1542 481 4 0 -8.2451337286865 -10.196946121440371 -9.311300162742345 12 1 1
1541 481 2 0 -8.55779147226339 -9.957624092718786 -9.060186540127326 12 1 1
270 57 4 0 -7.8763575578169025 -10.14680408539226 -9.455478414625292 14 1 0
2089 663 4 0 -9.933538866071256 -9.340929010120462 -9.357011909052854 5 0 1
2278 726 4 0 -10.350966663060165 -9.443508364828006 -9.420385324457675 5 0 1
2087 663 2 0 -9.526931559060008 -9.47081461115926 -9.237390677572112 5 0 1
2878 926 4 0 -0.4054085106231895 -7.939882345053395 -9.011230865875094 4 0 0
1717 539 4 0 -9.002714039848787 -7.229779955004421 -9.426912784935231 4 0 1
2216 706 2 0 -9.400991368554406 -7.056476177317225 -8.888176376780521 12 1 1
2217 706 4 0 -9.258504888307103 -6.959342240023311 -9.313469334433114 12 1 1
2527 809 4 0 -3.6514909582955903 -6.073229402380327 -9.51992965734214 12 1 0
1153 351 4 0 -3.6166829907675373 -6.425812757812701 -9.305358878499499 11 1 0
1151 351 2 0 -3.384453440957664 -6.405162223200912 -8.932192384829458 11 1 0
2929 943 4 0 -5.600336442986465 -5.754764476422636 -9.372549347997312 13 1 1
2927 943 2 0 -5.5864000108818965 -5.834575588490153 -8.940521662803466 13 1 1
148 30 3 0 -2.884202109829432 -3.07469202676298 -8.92147869424057 7 0 0
146 30 1 0 -2.72361000603723 -2.6400039363952716 -8.884570525796498 7 0 0
149 30 3 0 -2.328658645149405 -2.616238962343555 -9.064083662154069 7 0 0
1825 575 4 0 -8.72381598007712 -1.929175274529877 -9.374781812029179 1 -1 0
815 239 2 0 -6.013676707973235 -1.8749968070204819 -8.84132067639558 7 0 1
816 239 4 0 -5.780236960005075 -1.898582899572121 -9.231212151368837 7 0 1
147 30 3 0 -2.998836609513769 -2.354271399547489 -9.105022840677353 7 0 0
2922 941 4 0 -3.192511334045867 -2.0282481415080884 -9.124855516085496 9 0 0
2142 681 4 0 -2.0082657290818737 -2.379904645222494 -9.132064479901134 6 0 1
2143 681 4 0 -1.1873391828633313 -2.0948488872568163 -8.875967189880326 6 0 1
2141 681 2 0 -1.6037370005525826 -2.236902384843889 -8.999771884088691 6 0 1
1068 323 4 0 -0.8271851320068908 -2.107426262545367 -9.065238212692881 6 0 0
1067 323 2 0 -0.39159602581348274 -1.981677126204282 -9.205712068701434 6 0 0
1401 434 4 0 -9.763275345924203 -1.2754678431604205 -8.821389469246112 15 1 1
1400 434 2 0 -10.161233625722412 -1.4276344638341918 -8.962153181369953 15 1 1
87 18 3 0 -8.792526379808203 -1.6757819523498938 -9.081713425333344 9 0 0
89 18 3 0 -9.338440892537271 -1.2854160043935074 -8.800442662392175 9 0 0
86 18 1 0 -8.897057000301588 -1.3183797556888592 -8.820013222531593 9 0 0
88 18 3 0 -8.726837832444843 -0.9343693602480592 -9.001192538207865 9 0 0
1852 584 4 0 -5.70487043035104 -1.5898317357112894 -9.507736917258942 8 0 0
2972 958 2 0 -4.589627623533515 -1.0253626040422557 -8.875350431495185 9 0 0
2974 958 4 0 -4.250360672771135 -1.2668064195216395 -9.032028990144266 9 0 0
2923 941 4 0 -3.882007712394322 -1.4199942957130194 -8.990758037623992 9 0 0
2921 941 2 0 -3.5342228363864834 -1.724563537692406 -9.053874436635878 9 0 0
1236 379 4 0 -8.735069500675023 -0.5276378632127336 -9.02416941050269 9 0 0
1235 379 2 0 -8.413015389075234 -0.26686152129477136 -9.185059443487583 9 0 0
1237 379 4 0 -8.08480081980461 -0.0052724465646392105 -9.341920220706566 9 0 0
2973 958 4 0 -4.920771132275845 -0.7962252313481102 -8.722964797807085 9 0 0
2876 926 2 0 -0.27942956012609166 -8.00241987806322 -8.605932182926772 4 0 0
2877 926 4 0 -0.15501097108452377 -8.07652419030163 -8.156626517526512 4 0 0
2218 706 4 0 -9.549873548991652 -7.161823205214888 -8.474552656351074 12 1 1
1523 475 2 0 -9.010323579899245 -6.959214824870893 -7.874835256699181 13 1 1
2818 906 4 0 -9.09309193198515 -6.429651946642822 -8.384220483813879 14 1 1
1524 475 4 0 -9.246414582932928 -6.742589045054039 -8.207833893870928 13 1 1
1152 351 4 0 -3.1349587664866636 -6.390372503863066 -8.558033359173486 11 1 0
1131 344 4 0 -3.0990259913080536 -6.655421532926362 -8.281141012685238 3 0 0
1130 344 2 0 -2.8030404726531053 -6.56345502824769 -7.960542332729106 3 0 0
2983 961 4 0 -0.8945369861931631 -6.882403334927543 -7.867536427377133 4 0 1
2981 961 2 0 -0.6129363976537245 -6.628556200893429 -8.108324844197071 4 0 1
2982 961 4 0 -0.32771167351118535 -6.387495499935182 -8.343416150433276 4 0 1
750 217 4 0 -0.20124891547606438 -6.099642221086763 -8.111073454981726 4 0 1
2817 906 4 0 -9.335136312131425 -5.577760770276702 -8.364656826073794 14 1 1
2816 906 2 0 -9.220831627408947 -6.002498180544261 -8.378947717603394 14 1 1
180 36 3 0 -9.125161462839346 -5.3319602378608115 -8.12692751568356 5 0 1
1890 597 4 0 -6.566214233333577 -5.593028958268037 -7.812735931937214 5 0 0
1889 597 2 0 -6.250030630722479 -5.67994916883765 -8.094789666974556 5 0 0
2928 943 4 0 -5.572532614159176 -5.908504356495284 -8.479171304445016 13 1 1
1891 597 4 0 -5.921720730254447 -5.771640104884205 -8.408170376013864 5 0 0
2537 813 2 0 -10.167931597836573 -5.0432805008776045 -8.167956069404758 13 1 1
2539 813 4 0 -9.802412077142662 -4.790486028949124 -8.21208302821071 13 1 1
177 36 3 0 -9.44066299125706 -4.647328529346426 -8.15366954875992 5 0 1
176 36 1 0 -9.07260315324546 -4.90875996906023 -8.009580488035514 5 0 1
178 36 3 0 -8.68100869765243 -4.7406850594837 -8.20273429698473 5 0 1
2245 715 4 0 -8.401064952154407 -4.644227085395822 -8.45897454356613 5 0 1
2243 715 2 0 -7.944447733759838 -4.556023938550868 -8.482662338016253 5 0 1
2244 715 4 0 -7.533279430365365 -4.4716635428609175 -8.503996333842839 5 0 1
851 251 2 0 -4.646344654553867 -4.759862412893756 -8.05123969600244 5 0 1
1432 444 4 0 -3.914400745012659 -4.674160785635045 -8.361893325638135 14 1 0
853 251 4 0 -4.305989212516397 -4.646682625385531 -8.319051939838253 5 0 1
1430 444 2 0 -3.511626466656569 -4.59363483507059 -8.169620784276429 14 1 0
1431 444 4 0 -3.1038399041913785 -4.50289831538658 -7.969614147073493 14 1 0
2124 675 4 0 -2.7089805090643226 -4.487880754177301 -8.063243363971663 7 0 1
1714 538 4 0 -7.411147283884253 -4.127931670285079 -8.660998865964517 13 1 0
1712 538 2 0 -7.068336523971094 -3.909887578828015 -8.473482767237368 13 1 0
1713 538 4 0 -6.730545961231747 -3.6920844938163526 -8.294932140224404 13 1 0
2334 745 4 0 -6.324823087516339 -3.747774938380723 -8.366050249690984 6 0 1
2333 745 2 0 -5.896346334884286 -3.7311857936936406 -8.219722888858842 6 0 1
2335 745 4 0 -5.461487227778961 -3.70452022566578 -8.07127603634094 6 0 1
2215 705 4 0 -5.103487136221168 -3.5465448168806315 -8.036094516616064 14 1 1
1465 455 4 0 -0.027696094134963545 -3.7028942264712708 -7.93126046420092 6 0 1
2164 688 4 0 -9.692537437642391 -2.668311670850641 -8.482033749859262 8 0 1
325 75 4 0 -8.581178173990994 -2.674238664599045 -8.118742454664238 7 0 1
2213 705 2 0 -4.6806073729309015 -3.4323765182625454 -7.993251859706662 14 1 1
2214 705 4 0 -4.231404267503437 -3.311686309995763 -7.9485570035532565 14 1 1
2753 885 2 0 -3.5704766800451386 -3.0871014125176197 -8.37681767414361 7 0 1
2755 885 4 0 -3.9261867610102215 -3.083830370466699 -8.115736213596197 7 0 1
2754 885 4 0 -3.1894299884373565 -3.0819105101445903 -8.663888583021636 7 0 1
2162 688 2 0 -10.164278199794616 -2.583565717658532 -8.53709061202356 8 0 1
324 75 4 0 -9.394892188796568 -2.394144432710677 -8.51902756209905 7 0 1
323 75 2 0 -8.990643984589004 -2.5357831194706995 -8.320074562350682 7 0 1
316 72 4 0 -8.293047659035263 -2.574074026153432 -8.355806956432481 -1 -1 0
314 72 2 0 -7.90140676023419 -2.5367972590859296 -8.104824458566087 -1 -1 0
315 72 4 0 -7.52876643260373 -2.5016078982542487 -7.872948969393068 -1 -1 0
2511 804 4 0 -7.154265473462164 -2.3359737988951164 -7.9271009322751596 7 0 0
2510 804 2 0 -6.783764139433782 -2.2688151570360926 -8.163927827541643 7 0 0
2512 804 4 0 -6.414578454730781 -2.2090716196469717 -8.404188722446838 7 0 0
817 239 4 0 -6.256561108001989 -1.8508550212204167 -8.449221324878115 7 0 1
150 30 3 0 -2.6936928979127357 -2.52588599773099 -8.43800933125919 7 0 0
319 73 4 0 -2.7073232846662867 -2.3581283864997484 -8.07037965531163 6 0 0
2679 860 4 0 -10.081902705051514 -1.0484212819466219 -7.9076176052950355 16 1 1
90 18 3 0 -8.727266357209572 -1.3865729993757956 -8.407580272212767 9 0 0
1989 630 4 0 -8.31644078958356 -1.3835363082585523 -8.353277856129925 1 -1 0
1988 630 2 0 -7.898325167742859 -1.2083430886518212 -8.379307548897133 1 -1 0
1990 630 4 0 -7.4517425690840025 -1.0283895891325177 -8.3991831832809 1 -1 0
2509 803 4 0 -7.054991748497149 -1.0288403809548967 -8.33171582560885 10 0 0
2507 803 2 0 -6.624008452378555 -0.9695444171042844 -8.244833409778547 10 0 0
2508 803 4 0 -6.178084646545892 -0.8975351827873563 -8.15565203512926 10 0 0
505 135 4 0 -9.872308607582852 -0.7126077295764581 -7.888201344941681 7 0 0
8 2 3 0 -5.862546393505647 -0.6676137989161859 -8.102819270776312 8 0 0
6 2 1 0 -5.412515673353323 -0.6260273046229266 -8.016237545676653 8 0 0
10 2 3 0 -5.3341861822525924 -0.2201957224272988 -7.820142682779778 8 0 0
7 2 3 0 -5.181972243492822 -0.6530889392244354 -8.429668523600537 8 0 0
1122 341 4 0 -3.711480615553066 -0.8046971917068415 -7.970033412715571 9 0 0
1121 341 2 0 -3.294135261738181 -0.6952608666796447 -8.034093076074907 9 0 0
1123 341 4 0 -2.8789950436385885 -0.5778321535466411 -8.106054761177584 9 0 0
402 101 4 0 -2.5004959089182845 -0.3751793849080389 -8.024397593750457 9 0 0
401 101 2 0 -2.0662419388658932 -0.3528333401108412 -8.178538165578807 9 0 0
403 101 4 0 -1.6537639940879778 -0.339151816113505 -8.322443213062863 9 0 0
1969 623 4 0 -1.3035642358313773 -0.49337114615697786 -8.297512785775695 1 -1 0
1967 623 2 0 -0.868274104277388 -0.4526522052965092 -8.295759389551616 1 -1 0
826 242 4 0 -0.15986359183641063 -0.24490695665071804 -8.50807917634567 1 -1 0
1968 623 4 0 -0.43674677861347533 -0.4075188687753979 -8.287185401335044 1 -1 0
2916 939 4 0 -0.2672113353376293 -8.176405365674631 -7.786058877081214 4 0 1
2917 939 4 0 -0.47402790348201407 -8.459345072971226 -6.967411182663846 4 0 1
2915 939 2 0 -0.3705392069144562 -8.313290057174507 -7.370030941228557 4 0 1
1525 475 4 0 -8.768721215118541 -7.157713419102309 -7.549948151050313 13 1 1
2744 882 2 0 -7.906036732527358 -6.998594178418884 -7.556397056609125 5 0 1
2745 882 4 0 -8.357316173723614 -7.170430740937535 -7.60048317963297 5 0 1
2746 882 4 0 -7.503822670589159 -6.852300329464844 -7.528525831092022 5 0 1
1921 607 4 0 -7.281233738269966 -6.562678145330908 -7.326169000058888 5 0 0
1919 607 2 0 -7.0179596001639055 -6.232375605847616 -7.486820410487657 5 0 0
1132 344 4 0 -2.4944846790128246 -6.461635722170988 -7.628131027667703 3 0 0
2377 759 4 0 -2.132458878770951 -6.630803864357396 -7.722177574930468 4 0 1
2376 759 4 0 -1.2253427442197697 -6.766113305901458 -7.681949142942706 4 0 1
2375 759 2 0 -1.6704529630874418 -6.703905449638268 -7.701687724715045 4 0 1
1920 607 4 0 -6.754114590000599 -5.912189136661733 -7.636164863743886 5 0 0
179 36 3 0 -9.03371361746775 -4.885243512635121 -7.536051067847713 5 0 1
2067 656 4 0 -9.137728649975474 -5.014683624936895 -7.193650456923038 5 0 1
2070 657 4 0 -6.318745893495793 -4.746333656113935 -6.9855309783111 5 0 0
3031 977 4 0 -5.978026923322433 -4.563393160979157 -7.070120481917263 13 1 1
3029 977 2 0 -5.697945619788186 -4.717454968430749 -7.384804204717163 13 1 1
3030 977 4 0 -5.383420388857047 -4.8812412903691555 -7.719402471337599 13 1 1
852 251 4 0 -4.979138463668246 -4.86346023804971 -7.79778242556095 5 0 1
2123 675 2 0 -2.4263592631791466 -4.392437251680755 -7.784613531965977 7 0 1
2450 784 2 0 -0.7505051837265366 -4.808303251559588 -7.208324297942393 13 1 0
2451 784 4 0 -0.44884569662968943 -4.660757518639083 -7.510162614271362 13 1 0
2721 874 4 0 -0.06065931417682968 -4.651151206734649 -7.427498221101581 5 0 0
1504 468 4 0 -9.690485075587272 -3.9716311067632075 -7.2521984477108195 3 0 1
1502 468 2 0 -10.104035906926175 -4.144262981218666 -7.108194131088988 3 0 1
1473 458 4 0 -9.350873325506297 -3.9783391203163188 -7.03762881841232 3 0 1
2125 675 4 0 -2.1142584634377766 -4.290008448894595 -7.4770310145057 7 0 1
2184 695 4 0 -1.7657486767547859 -4.1922161203835415 -7.593069965218659 6 0 1
2183 695 2 0 -1.387455454613841 -3.9548480480769834 -7.571917263320319 6 0 1
2185 695 4 0 -0.9934130642880117 -3.6973306287131518 -7.544660806200745 6 0 1
1463 455 2 0 -0.34683913149983603 -3.640247112631007 -7.6308474257502485 6 0 1
1464 455 4 0 -0.6629607968207036 -3.5733520207147684 -7.3197796903956736 6 0 1
2752 884 4 0 -7.6302650062250486 -2.7592783484040897 -6.960635601925662 14 1 1
2784 895 4 0 -7.2428890123361755 -2.879276662428481 -7.045970630621063 13 1 1
1871 591 2 0 -10.18886403974899 -2.052054548683053 -7.085172407738115 6 0 1
1873 591 4 0 -9.901039376331534 -1.873949880367645 -7.382650303799496 6 0 1
2807 903 2 0 -9.108718240790855 -1.9695478013564678 -7.219619821503584 14 1 1
2809 903 4 0 -8.69881352286263 -2.073906249553481 -7.077794792816989 14 1 1
2808 903 4 0 -9.501374158578534 -1.874319357520342 -7.360556712133048 14 1 1
2751 884 4 0 -8.41306184753649 -2.324771730870067 -6.955781554137831 14 1 1
2750 884 2 0 -8.041961507236728 -2.5279132916853397 -6.958371003764796 14 1 1
1612 504 4 0 -3.3618038313398415 -2.14602128380362 -6.944797657217121 7 0 1
317 73 2 0 -2.964683511651635 -2.2258844133835414 -7.719445715611494 6 0 0
318 73 4 0 -3.231315344381912 -2.0750923750888877 -7.354572172604577 6 0 0
9 2 3 0 -5.263540826521994 -0.9843140295237482 -7.7250775674999685 8 0 0
1529 477 2 0 -5.609924516417034 -1.1862551022720762 -7.031871045986036 7 0 1
1530 477 4 0 -5.80306675793447 -0.9281022518985775 -7.350878022920444 7 0 1
982 294 4 0 -4.859643324630063 -0.9711292078941653 -7.655454406379547 0 -1 1
980 294 2 0 -4.406125562391658 -1.0102464526394428 -7.714837715722953 0 -1 1
981 294 4 0 -3.9835487907373066 -1.0431974804158095 -7.773562385858315 0 -1 1
503 135 2 0 -9.468304102711036 -0.49936354058503873 -7.786867363645214 7 0 0
504 135 4 0 -9.06112684172139 -0.2910921560996744 -7.679512162879191 7 0 0
2771 891 2 0 -8.261162852755985 -0.13017230754815223 -7.725941006544477 15 1 1
2772 891 4 0 -8.661823969566585 -0.34186404411210347 -7.763051559380797 15 1 1
443 115 2 0 -5.542671280762337 -0.04613741311457531 -7.019468719474207 7 0 0
444 115 4 0 -5.50855405166814 -0.08592160936202475 -7.461041693973275 7 0 0
1419 440 4 0 -0.5784305577219264 -8.3771461572018 -6.602522898477537 4 0 0
1418 440 2 0 -0.42770251525979575 -8.445306932047348 -6.197723192369876 4 0 0
2068 656 4 0 -8.594565195532962 -5.287915719358792 -6.534012328860857 5 0 1
1439 447 2 0 -1.395203264249675 -5.211831071594809 -6.310483344180686 13 1 0
1440 447 4 0 -1.333352623940451 -5.231465521378009 -6.7750555104669665 13 1 0
2066 656 2 0 -8.875710908042478 -5.1542202785897935 -6.870065805582007 5 0 1
311 71 2 0 -7.8509575420587705 -4.3504257891072635 -6.448407475816639 4 0 0
2071 657 4 0 -7.137489499284084 -4.733569623306741 -6.641883189241701 5 0 0
312 71 4 0 -7.40871198867531 -4.4908156774653705 -6.450679359989472 4 0 0
2069 657 2 0 -6.731419130684211 -4.743202450615323 -6.816470855976666 5 0 0
2452 784 4 0 -1.0612331901522278 -4.955055277337406 -6.9013159668424455 13 1 0
1472 458 2 0 -8.933519315068988 -3.973786646040544 -6.853565592874696 3 0 1
313 71 4 0 -8.27915111068145 -4.221619193072446 -6.441380153503992 4 0 0
1474 458 4 0 -8.490869261133442 -3.9789879455489245 -6.667683333550578 3 0 1
1591 497 4 0 -4.86941008887478 -3.889347406017098 -6.30772460231585 13 1 1
1589 497 2 0 -4.601291859099374 -3.5483698055532917 -6.262971620154962 13 1 1
2783 895 2 0 -6.938606227914038 -2.7145963019923 -6.747756611059202 13 1 1
1590 497 4 0 -4.328003982890852 -3.1871542109164475 -6.2203673427486965 13 1 1
2785 895 4 0 -6.663432026980084 -2.5560343908176435 -6.466630522267232 13 1 1
519 140 4 0 -6.279424817041612 -2.437007159272836 -6.4144282256983445 7 0 0
518 140 2 0 -5.869502192952616 -2.313442444565295 -6.377606257614224 7 0 0
520 140 4 0 -5.4343320421130885 -2.169823168368154 -6.336155489567652 7 0 0
2221 707 4 0 -5.183860615470962 -2.480324649644804 -6.296780922817322 7 0 1
2219 707 2 0 -4.728378488533238 -2.5071398942725818 -6.416574657742432 7 0 1
2220 707 4 0 -4.267228339445899 -2.534691341996864 -6.539358319749627 7 0 1
1610 504 2 0 -3.7964090158830626 -2.235444478945995 -6.925477863715564 7 0 1
1611 504 4 0 -4.254360834292365 -2.3296552032047995 -6.906524661957748 7 0 1
1531 477 4 0 -5.421845928932521 -1.4301109601960267 -6.724271532064911 7 0 1
963 288 4 0 -8.770187429210953 -0.17475456239257525 -6.134362868275711 1 -1 0
2206 702 4 0 -5.284635932563229 -0.04793287151175285 -6.3351319598494955 7 0 0
445 115 4 0 -5.586254834126694 -0.0001779393316958533 -6.584846591530155 7 0 0
1420 440 4 0 -0.27134025234341586 -8.514395798108247 -5.757918434344362 4 0 0
664 188 4 0 -0.34132021298929516 -6.82421235778345 -5.650007897819218 3 0 0
3027 976 4 0 -0.6202468699247738 -6.7317807642501375 -5.348758264870432 11 1 0
669 190 4 0 -7.725128643422436 -5.6147040656669915 -5.234479261469433 5 0 0
2405 769 2 0 -6.941727657546821 -5.40694732848873 -5.332454174831163 5 0 0
2407 769 4 0 -6.534727211485565 -5.38558414698186 -5.477676160046947 5 0 0
1441 447 4 0 -1.4541145308314896 -5.186321111741903 -5.8904840739269595 13 1 0
640 180 4 0 -1.3963846030726028 -4.965536072033274 -5.54260068887433 5 0 1
638 180 2 0 -1.4617374000445604 -4.628237424643181 -5.231323272648585 5 0 1
1128 343 4 0 -4.149512622076369 -2.9883368705185767 -5.918736633793311 13 1 -1
1127 343 2 0 -3.825587118830464 -2.789622930997375 -5.691294922182001 13 1 -1
1129 343 4 0 -3.5044993253677106 -2.5963367014644465 -5.468048487725244 13 1 -1
430 110 4 0 -3.4631611914480764 -2.2749682725705256 -5.234679627438885 6 0 0
428 110 2 0 -3.073323806747352 -2.0451344887235 -5.387763683610226 6 0 0
429 110 4 0 -2.7168330812246806 -1.8277940406028694 -5.5283031922151835 6 0 0
1684 528 4 0 -2.3273439858994838 -1.9710875050864498 -5.4940028988488425 6 0 1
964 288 4 0 -8.999151164690774 -0.6031028155843217 -5.385913133997081 1 -1 0
962 288 2 0 -8.885696282865798 -0.39359180033828167 -5.765365034829252 1 -1 0
2204 702 2 0 -5.227550145241423 -0.29830302560577415 -5.939403334925399 7 0 0
2205 702 4 0 -5.169400624954607 -0.5351884124397888 -5.5701396523459294 7 0 0
2035 645 4 0 -5.048973652465464 -0.8468152198420249 -5.303532054994441 8 0 0
3028 976 4 0 -0.9480500211325289 -7.173824436337219 -4.614186117586747 11 1 0
3026 976 2 0 -0.7887337783274919 -6.961501491928187 -4.96769101563246 11 1 0
1870 590 4 0 -8.690839556869676 -5.264783719498394 -4.765514222885439 13 1 0
670 190 4 0 -8.5713230933066 -5.598380357886864 -4.960573197636874 5 0 0
668 190 2 0 -8.152899416352225 -5.611915407219084 -5.09860366712763 5 0 0
2406 769 4 0 -7.377160435342809 -5.4390649265484905 -5.175658200155 5 0 0
1070 324 2 0 -10.139268714774948 -4.969566538372535 -4.562087533480037 12 1 0
1071 324 4 0 -9.7555148981999 -4.9313306051604835 -4.342052019766903 12 1 0
1868 590 2 0 -9.02647455041501 -5.093532969809722 -4.524069730692579 13 1 0
2767 889 4 0 -4.375640931703108 -3.6614307519959386 -4.515979100834143 6 0 1
639 180 4 0 -1.5238816301690061 -4.300322096633525 -4.931689268192792 5 0 1
634 178 4 0 -1.3130890300404054 -4.209206608057685 -4.57331949141681 4 0 1
632 178 2 0 -1.1865096891713414 -3.790893617581954 -4.550725595802079 4 0 1
2766 889 4 0 -4.224117165217041 -2.8642480286671033 -4.814793668576267 6 0 1
2765 889 2 0 -4.2949881949471465 -3.24533777364564 -4.669547392899866 6 0 1
633 178 4 0 -1.0522481829313897 -3.346946769967756 -4.528215491016611 4 0 1
1083 328 4 0 -1.3534501479148435 -3.0866746033297705 -4.465447816798131 6 0 0
1082 328 2 0 -1.4366686395009136 -2.6620226300566756 -4.60152485940039 6 0 0
1865 589 2 0 -4.178348985981554 -2.127051809797207 -4.631047806055544 8 0 0
1867 589 4 0 -4.035424944045277 -2.5531398850722997 -4.627863028379671 8 0 0
1682 528 2 0 -2.0222396068362727 -1.9372205706470496 -5.1398117243185535 6 0 1
1683 528 4 0 -1.7309015542711865 -1.9006174529864133 -4.806962412376302 6 0 1
1084 328 4 0 -1.519339424549221 -2.23408714041304 -4.739927293167614 6 0 0
2207 703 2 0 -9.151102184811432 -1.0247263786918364 -4.783479372120725 8 0 0
2208 703 4 0 -9.085518125729884 -1.1588670921829092 -4.374602738912322 8 0 0
2209 703 4 0 -9.2088213905386 -0.8790268321685666 -5.20141570182809 8 0 0
2033 645 2 0 -4.819604512250832 -1.1411430529536695 -5.035259994344231 8 0 0
2034 645 4 0 -4.584399417295225 -1.4262076960163999 -4.760904491679992 8 0 0
1866 589 4 0 -4.328103683589521 -1.6785023925144582 -4.6295846445588165 8 0 0
614 172 2 0 -3.111651545001634 -7.94752346227907 -3.5763754110519113 4 0 1
615 172 4 0 -3.3492137761095764 -8.139732564051698 -3.909908747808137 4 0 1
2908 936 4 0 -0.6367753178854194 -7.9674637920897124 -3.6761608947986284 5 0 1
2907 936 4 0 -1.0541279819481044 -7.414330310513685 -4.287031033200542 5 0 1
2906 936 2 0 -0.8555073543448994 -7.679424539501277 -4.000710227555636 5 0 1
2611 837 4 0 -2.7659887702111092 -6.531962852656791 -3.549164336643914 5 0 0
1869 590 4 0 -9.35895679640756 -4.9225113660486866 -4.272419894348637 13 1 0
137 28 3 0 -4.471074285879781 -3.8293981474726824 -4.1505420839659894 6 0 0
136 28 1 0 -4.425214907724735 -3.8699233587514303 -3.677206834653351 6 0 0
138 28 3 0 -4.762065802936441 -4.0961176635674486 -3.5132228968744936 6 0 0
140 28 3 0 -4.419225478392998 -3.4861945973264348 -3.4979672056601805 6 0 0
2464 788 4 0 -3.643514609779012 -4.20484289509632 -3.5460885272119453 6 0 0
139 28 3 0 -4.041737825596482 -4.085753861559202 -3.5927487227246653 6 0 0
2462 788 2 0 -3.2069030908435474 -4.065451057901518 -3.576702227911177 6 0 0
2463 788 4 0 -2.761377993159554 -3.9156177822886926 -3.620736934897109 6 0 0
2284 728 4 0 -2.4977777386070663 -3.8563998415327125 -3.9158137151065198 6 0 0
2282 728 2 0 -2.095486893654302 -3.625080194616043 -3.8874977314002814 6 0 0
1659 520 4 0 -1.31932535544464 -3.4722806502908314 -3.7410692609636556 14 1 1
2283 728 4 0 -1.7122838252758523 -3.40351443127369 -3.8455751580863344 6 0 0
1658 520 2 0 -0.9328234732350165 -3.3335728268618503 -3.5738782074964393 14 1 1
1691 531 2 0 -7.32282053019304 -1.7938764859025156 -3.6631810750243634 0 -1 0
1693 531 4 0 -6.873769773499655 -1.8993513308076881 -3.556699970680482 0 -1 0
283 61 4 0 -8.797096203391378 -1.2632992327657533 -4.10196016664765 8 0 0
282 61 4 0 -8.014606805706563 -1.400777114963633 -3.7063250179370915 8 0 0
281 61 2 0 -8.416451138691675 -1.338142421868353 -3.9097141119442433 8 0 0
1692 531 4 0 -7.752688795815818 -1.6982802155774372 -3.7583367524455866 0 -1 0
1651 517 4 0 -3.559760408280936 -1.0667649571231212 -3.581079231224127 7 0 1
1221 374 4 0 -3.4390184864125333 -1.020229737057761 -3.9621837507507163 7 0 0
1222 374 4 0 -2.6650383580773944 -0.6540752245034529 -4.139987896030672 7 0 0
1220 374 2 0 -3.050014403448147 -0.8377649238967599 -4.048464765815157 7 0 0
2460 787 4 0 -0.3926898168309556 -7.939236962216636 -3.345275648712004 4 0 0
2459 787 2 0 -0.23816561838512484 -7.9872949585324875 -2.920687504097099 4 0 0
616 172 4 0 -2.88354940008127 -7.769824512339655 -3.2537705835710256 4 0 1
2610 837 4 0 -2.8864990073456767 -7.37170603362419 -3.1638456921922824 5 0 0
2609 837 2 0 -2.8268866596549964 -6.935428052318233 -3.3650180483817493 5 0 0
1330 410 4 0 -8.08288985621249 -5.603072140632317 -2.9988965788963977 12 1 0
1328 410 2 0 -8.481875912504238 -5.768579877235974 -2.775124793798377 12 1 0
2469 790 4 0 -7.6868618893586795 -5.625653781630069 -3.110086752477276 12 1 0
2468 790 2 0 -7.323491733177923 -5.4272959091633615 -3.187578548749185 12 1 0
1815 572 4 0 -10.289795614348645 -5.066856368562559 -2.876525980672425 5 0 0
1814 572 2 0 -9.845108636801251 -5.027140129289881 -2.8700415384897253 5 0 0
1816 572 4 0 -9.380339250095272 -4.982534096683787 -2.8586849694909393 5 0 0
1501 467 4 0 -9.092960114132795 -5.038075409087345 -3.1089424995192925 13 1 1
1499 467 2 0 -8.850431184007112 -4.665795972628943 -3.2399366328670114 13 1 1
2470 790 4 0 -6.9215185772642585 -5.198971111934711 -3.272002951690671 12 1 0
1519 473 4 0 -6.881921637415712 -4.848411942853021 -3.083135874784505 13 1 0
1517 473 2 0 -6.456225674759297 -4.678195983021838 -2.98251987439966 13 1 0
1518 473 4 0 -6.066019682179519 -4.518054495730801 -2.886254574683914 13 1 0
2316 739 4 0 -5.688972594354442 -4.626013309613292 -3.043072474572276 6 0 0
1500 467 4 0 -8.613420266957192 -4.29958174642857 -3.3583302468350595 13 1 1
2196 699 4 0 -8.590420294627837 -3.907613254499207 -3.351378892107509 -1 -1 0
2195 699 2 0 -8.475904203044488 -3.6090779359024765 -3.0606948027347185 -1 -1 0
2315 739 2 0 -5.417606906476776 -4.302509014288214 -3.2229798494240764 6 0 0
2317 739 4 0 -5.147700530727089 -3.9847919053456025 -3.3990203617411314 6 0 0
2686 862 4 0 -8.045719857324977 -3.0429608404924045 -2.821431995416324 7 0 -1
2197 699 4 0 -8.349253240678026 -3.2870245108288874 -2.761102979023521 -1 -1 0
790 230 4 0 -4.32897010933982 -3.158346884987365 -3.2509195529049517 6 0 0
788 230 2 0 -3.9925246092621824 -3.0069351911541498 -2.995475406869886 6 0 0
789 230 4 0 -3.6572720534317034 -2.8479750246630484 -2.7377730173033195 6 0 0
1594 498 4 0 -3.3061836561717577 -2.626793311479955 -2.756321519760222 6 0 0
529 143 4 0 -0.2349494168884192 -3.358853078592931 -3.1786966807464143 6 0 0
1660 520 4 0 -0.5342608009318006 -3.200853264983107 -3.4022898894917883 14 1 1
393 98 4 0 -10.15246521566825 -2.1011455427018024 -3.42505890711651 8 0 -1
1944 615 4 0 -9.883595887790554 -1.8669689607631081 -3.246271308255932 8 0 -1
1095 332 4 0 -6.577333607800467 -1.9076076992222912 -3.2853576334376466 8 0 0
1094 332 2 0 -6.341106519037605 -1.9142938067859507 -2.893290854142019 8 0 0
1943 615 2 0 -9.586608283119531 -1.5112689971671305 -3.1757876465878265 8 0 -1
1945 615 4 0 -9.302581925393559 -1.183085008444797 -3.109494286793087 8 0 -1
2589 830 4 0 -9.11095351105706 -0.9428501690121198 -2.8594838172886874 7 0 -1
1649 517 2 0 -3.8742571280574003 -0.9993517565875489 -3.2864288078777886 7 0 1
1650 517 4 0 -4.211785494231273 -0.9162878872771856 -2.972770982481192 7 0 1
2588 830 2 0 -8.860143929485734 -0.5898857443133512 -2.7563595236837903 7 0 -1
2590 830 4 0 -8.601846834907786 -0.22801262294526126 -2.6506863376259515 7 0 -1
2340 747 4 0 -4.252984009508615 -0.6420022042024893 -2.6797791695006907 0 -1 0
2778 893 4 0 -7.999724026524433 -9.00038796324133 -1.9782706349799124 12 1 0
1031 311 2 0 -7.305173408551475 -8.944978319661095 -2.264725734906291 12 1 0
1033 311 4 0 -7.620050476744111 -8.866313652690927 -1.9799654020932156 12 1 0
1032 311 4 0 -6.954929415941489 -9.028498774975017 -2.576354627732906 12 1 0
2293 731 4 0 -6.6302521235029985 -9.160980784403183 -2.3951098023618567 5 0 0
2291 731 2 0 -6.19615084045183 -9.163250635938905 -2.3134508171585146 5 0 0
2292 731 4 0 -5.743666085672802 -9.162769545316086 -2.23109465171844 5 0 0
300 67 4 0 -10.150435357470762 -7.92134245717025 -1.7413720674895625 5 0 0
2461 787 4 0 -0.08227720448313924 -8.037805928914143 -2.484696104975658 4 0 0
2063 655 2 0 -9.712596431015383 -7.485680516987848 -1.7996971225188485 5 0 1
2065 655 4 0 -9.43127017546372 -7.314451262550135 -2.117151804905733 5 0 1