LAMMPS data file via write_data, version 4 Feb 2025, timestep = 8500000, units = lj

3100 atoms
4 atom types
2100 bonds
1 bond types
1250 angles
2 angle types

-10.410592 10.410592 xlo xhi
-10.410592 10.410592 ylo yhi
-10.410592 10.410592 zlo zhi

Masses

1 1
2 1
3 0.1
4 0.1

Bond Coeffs # harmonic/omp

1 100 0.45

Angle Coeffs # harmonic/omp

1 100 180
2 100 109.471

Atoms # full

1267 389 4 0 -10.25640722818434 -9.504701379066134 -9.265004785330186 0 1 0
2634 845 4 0 -10.085804738401169 -9.868750811988996 -9.215307911628074 1 0 0
1265 389 2 0 -10.391408111613085 -9.12068520671004 -9.461570307059132 0 1 0
2633 845 2 0 -9.88393677501528 -10.106773941261128 -8.881589263616547 1 0 0
1203 368 4 0 -4.491444475182449 -10.210979408626885 -9.54947035054187 0 1 0
2650 850 4 0 -10.370037617447052 -8.311907296512732 -0.37459263780226565 1 0 0
1937 613 2 0 -5.099753165240638 -10.247687450849723 -9.991469577020194 0 0 0
944 282 2 0 -2.8632594898547725 -9.69842634347489 -9.193328367689592 0 0 0
1202 368 2 0 -4.0340936887174665 -10.055259133488414 -9.573721084624355 0 1 0
945 282 4 0 -3.195825858345212 -9.844490570959191 -9.501171989533153 0 0 0
1204 368 4 0 -3.576266290652138 -9.91493864376365 -9.591791512458913 0 1 0
946 282 4 0 -2.5441033939529962 -9.555110350113532 -8.89488020277387 0 0 0
2481 794 4 0 -2.190957594143375 -9.47606218164793 -9.056742366767205 0 1 0
2480 794 2 0 -1.8627377287797766 -9.179278568317752 -9.09815988385495 0 1 0
3030 977 4 0 -1.175701530474702 -10.387698016999845 -9.709342479188148 0 1 1
852 251 4 0 -1.1934281248313707 -10.04554634936037 -9.92524397227644 0 0 1
851 251 2 0 -1.0335527374572588 -9.783893781255793 -10.19643569476814 0 0 1
2123 675 2 0 -3.2396031555407423 -7.69701647188916 -10.264755977845189 1 0 1
2482 794 4 0 -1.5294122064098168 -8.870920253341726 -9.146496012844455 0 1 0
1431 444 4 0 -2.9132001634384843 -8.406983362477646 -10.146683038727073 0 1 0
1545 482 4 0 -1.4466626739246626 -8.519153193168234 -8.92852494700547 0 1 0
1544 482 2 0 -1.0255483741092664 -8.410310938078561 -8.908420473676273 0 1 0
1465 455 4 0 -4.771044772631118 -6.4234587453758785 -9.070157406769424 0 0 1
1463 455 2 0 -4.635490381859582 -6.409294242931341 -9.507928372658455 0 0 1
2125 675 4 0 -3.550307569156674 -7.384822156182586 -10.2747231296961 1 0 1
1464 455 4 0 -4.506536412646795 -6.40036419895268 -9.917047767822593 0 0 1
2183 695 2 0 -3.9002952875355397 -6.793703150792881 -10.243557796571386 0 0 1
2185 695 4 0 -4.2928473984650335 -6.604214151587885 -10.194558027710189 0 0 1
2184 695 4 0 -3.485299608078741 -6.994291238667715 -10.287137590216002 0 0 1
1683 528 4 0 -3.094813177631744 -6.352801139153262 -9.253314559004949 0 0 1
1682 528 2 0 -3.198650917596798 -6.797133708208901 -9.27537462563746 0 0 1
1684 528 4 0 -3.291172591384903 -7.224466803773002 -9.292484305684368 0 0 1
1084 328 4 0 -2.8902524070734295 -6.006703505329333 -9.14732075716842 0 0 0
2494 798 4 0 -9.96559774741749 -2.7628890024914488 -8.946872648167897 0 0 0
2492 798 2 0 -9.99507471528431 -2.8857816075980836 -9.396078269096018 0 0 0
2493 798 4 0 -10.02107314441799 -2.998999183310314 -9.812724353972431 0 0 0
322 74 4 0 -9.798488312213326 -3.103829021107194 -10.149388641387757 0 0 1
956 286 2 0 -3.673393202358509 -0.13517883357503255 -9.599866358257923 0 0 1
2815 905 4 0 -3.346635693524274 -0.6123084772705003 -10.186162500367994 0 0 1
957 286 4 0 -3.432340785460354 -0.34160953817165324 -9.893321750497813 0 0 1
2813 905 2 0 -3.4400489137740315 -1.0451555633688208 -10.265465079165526 0 0 1
1507 469 4 0 -8.722186412566742 -9.3297057450488 -7.871393314787611 0 1 1
1505 469 2 0 -8.34222312498414 -9.56271997817933 -8.073389038494728 0 1 1
1506 469 4 0 -7.986619400671932 -9.772156003878623 -8.269100121060076 0 1 1
222 45 3 0 -7.796647849095317 -10.107476464428581 -8.320575978938024 0 1 0
221 45 1 0 -7.522866012369376 -10.409716268896036 -8.13054353722965 0 1 0
3025 975 4 0 -7.095020709020913 -10.011462934974535 -7.666121182623904 1 1 1
3023 975 2 0 -7.020317354874037 -9.681026632042693 -7.4084026220996 1 1 1
224 45 3 0 -7.421706570990063 -10.271877363476293 -7.705055141918419 0 1 0
429 110 4 0 -3.0420667508104775 -7.832302850610097 -8.257549034835849 0 0 0
428 110 2 0 -3.1836997674249754 -7.703140709667057 -8.673120544900746 0 0 0
1436 446 2 0 -0.09413837202252391 -8.950018590246655 -8.834876453257772 0 1 1
1437 446 4 0 -0.4240557198744221 -8.673267503291688 -8.879890844647043 0 1 1
1546 482 4 0 -0.5746405469182172 -8.303302510845041 -8.893869937444071 0 1 0
1305 402 4 0 -1.4451959683802285 -8.413640267935802 -7.44048870208278 0 1 0
2751 884 4 0 -9.246480942263547 -6.440789219440239 -8.358923375771703 1 1 1
2809 903 4 0 -9.469129464953472 -6.346386219536847 -8.045304946888672 1 1 1
2807 903 2 0 -9.89801033102163 -6.246300565536647 -7.853785709617234 1 1 1
2808 903 4 0 -10.298819822562988 -6.140879967740613 -7.675238633537428 1 1 1
2750 884 2 0 -8.843164549696752 -6.403704586823752 -8.145971587581487 1 1 1
2752 884 4 0 -8.43228135972148 -6.365166879125879 -7.922121472995443 1 1 1
633 178 4 0 -8.39138378426415 -6.343729404163634 -7.5275091294826115 0 0 1
2287 729 4 0 -4.984954190419 -6.382675761081391 -8.722328972308414 1 0 1
2285 729 2 0 -4.881784186946809 -6.741059533146885 -8.495824696897518 1 0 1
2286 729 4 0 -4.770336632640972 -7.145506563384143 -8.254567848997686 1 0 1
561 154 4 0 -4.4748699515148544 -7.212110657932073 -7.9709007856313 0 0 1
430 110 4 0 -3.3077987788911956 -7.582685367180715 -9.08170853789057 0 0 0
560 154 2 0 -4.201186145413637 -7.046622691028364 -7.629025902728156 0 0 1
562 154 4 0 -3.950792323779774 -6.877978454870783 -7.295709344391027 0 0 1
2248 716 4 0 -3.9160244471982693 -6.47386192128451 -7.330539728306471 1 0 0
2483 795 2 0 -2.885709976597429 -4.775318415698796 -8.154268571873958 1 0 0
1083 328 4 0 -2.7424698135453487 -5.232854891207945 -8.731835834041632 0 0 0
1082 328 2 0 -2.813377865557152 -5.628028824060559 -8.941483972974503 0 0 0
2484 795 4 0 -2.644838529356581 -5.023484119446171 -8.433980580370292 1 0 0
2773 891 4 0 -9.888149686351078 -2.9392980208899933 -8.595535676339594 0 1 1
2771 891 2 0 -9.719923598729213 -3.1888547747104523 -8.27821290084709 0 1 1
504 135 4 0 -9.668263844688825 -3.675098663902225 -7.695871252929027 0 0 0
2772 891 4 0 -9.546426050407762 -3.426299625595848 -7.95692343441413 0 1 1
926 276 2 0 -4.921418570843204 -4.119449596406567 -7.435894902681987 1 -1 1
928 276 4 0 -4.858651779367481 -3.6771836266392692 -7.464109556645318 1 -1 1
1238 380 2 0 -3.4168812215299567 -3.798949968114324 -7.632251112795834 0 0 0
1239 380 4 0 -3.2318086923771205 -4.144558876983062 -7.80212612599412 0 0 0
2485 795 4 0 -3.1199840761067477 -4.53374427765132 -7.877957776272297 1 0 0
1341 414 4 0 -0.8264074339269295 -1.5112172516413316 -7.759694822128767 1 0 0
1340 414 2 0 -0.5202510233153702 -1.5367392538521993 -7.434310447497812 1 0 0
358 86 4 0 -3.9920483536957367 -0.8832924202524232 -7.843035686496867 0 0 0
356 86 2 0 -3.81004140169456 -0.6434620284014315 -8.175182747319628 0 0 0
357 86 4 0 -3.6242454845704897 -0.4126444988442281 -8.510795795301517 0 0 0
2758 886 4 0 -3.536374561577119 -0.03643174460725891 -8.65369828966444 1 0 1
1155 352 4 0 -4.152345248910019 -0.8670506425732324 -7.486420395062518 0 0 0
2323 741 4 0 -1.7500810100268143 -0.35974216514428686 -8.182692563650232 1 0 1
2321 741 2 0 -2.0087130853785555 -0.06266158086137417 -8.388038398739038 1 0 1
1953 618 4 0 -1.5073191421695777 -0.6653299202652981 -8.252862781282754 1 0 0
1954 618 4 0 -0.8525798447238104 -1.2456038807441958 -8.048279299905328 1 0 0
1952 618 2 0 -1.1924769077811805 -0.950409995233351 -8.14912427844924 1 0 0
2088 663 4 0 -9.831362234114954 -10.279332331497866 -7.100497341666691 1 0 1
3024 975 4 0 -6.942236346061865 -9.34754979620161 -7.143805350655027 1 1 1
1455 452 4 0 -6.952392564134013 -9.229677649956633 -6.771518226374158 0 1 0
1454 452 2 0 -6.659119569061052 -8.988847465827186 -6.590873255577414 0 1 0
726 209 4 0 -5.95633833972937 -8.608437220283427 -6.314552493375197 0 1 1
725 209 2 0 -5.6666226967825795 -8.820369838684826 -6.10579072514274 0 1 1
1306 402 4 0 -0.8649803356935352 -9.012808842176867 -7.213516521684846 0 1 0
2030 644 2 0 -0.536217549554863 -9.262586684728436 -6.496858349972131 0 0 0
2032 644 4 0 -0.39914720679660626 -9.505937787207241 -6.150334410598865 0 0 0
2031 644 4 0 -0.6721925911755084 -9.003146993227888 -6.863653641581407 0 0 0
1456 452 4 0 -6.347681834880845 -8.719161759246925 -6.385160913725794 0 1 0
601 167 4 0 -1.8277013363215209 -8.344857626645297 -7.287634708067447 0 0 0
599 167 2 0 -1.9623195962597622 -7.929665621250409 -7.243614500127073 0 0 0
600 167 4 0 -2.1036063092572452 -7.484354205691503 -7.196443482250867 0 0 0
1304 402 2 0 -1.153444779591445 -8.714255696911524 -7.328672344447824 0 1 0
1126 342 4 0 -0.5514739339207524 -7.907939902577668 -6.029320027370241 0 0 0
1124 342 2 0 -0.9235402540565166 -8.174304469834118 -6.068604707746412 0 0 0
1125 342 4 0 -1.3214446188524247 -8.445993023888143 -6.104343538542111 0 0 0
1375 425 4 0 -1.4055466128544138 -8.704787664462792 -5.79870334411365 -1 1 0
634 178 4 0 -8.655827596273484 -6.2546158558164775 -6.625422107191665 0 0 1
632 178 2 0 -8.525136692229202 -6.304251030756022 -7.072147924893993 0 0 1
1328 410 2 0 -7.974385026030344 -6.147803135476799 -6.073816622506837 0 1 0
2246 716 2 0 -3.9067314085540024 -6.068709694648768 -7.172293035855228 1 0 0
841 247 4 0 -2.373058415242002 -7.319053522797584 -6.9575904208914325 -1 0 0
839 247 2 0 -2.5674473042737493 -6.917647419745149 -6.999644977165245 -1 0 0
840 247 4 0 -2.7677543010683547 -6.507709557251456 -7.041467139252127 -1 0 0
663 188 4 0 -2.8860057209392416 -6.157704992016409 -7.187856053782362 0 0 0
2468 790 2 0 -7.896357934533504 -4.926180481896469 -6.398143409817094 0 1 0
2469 790 4 0 -7.920011470880744 -5.38285369283947 -6.380217092817891 0 1 0
1330 410 4 0 -7.946506114098332 -5.743058352797326 -6.249815067925552 0 1 0
2470 790 4 0 -7.881280457582214 -4.4953189419600195 -6.4155581089021805 0 1 0
1009 303 4 0 -4.834426057435834 -4.8292445612112225 -7.1365136783660565 0 0 0
1007 303 2 0 -4.538375629251796 -5.13508340436072 -7.027170706023879 0 0 0
927 276 4 0 -4.981153557408368 -4.570457337456352 -7.418575352259867 1 -1 1
2247 716 4 0 -3.89211647495148 -5.647596260620289 -7.001948863818244 1 0 0
1008 303 4 0 -4.234002565233704 -5.451024800277443 -6.902816621759016 0 0 0
664 188 4 0 -2.742714695832555 -5.489196678217435 -6.631126316113015 0 0 0
662 188 2 0 -2.8154173696231535 -5.832548010711286 -6.9168291208541675 0 0 0
1384 428 4 0 -2.4641074809833854 -5.309916115521884 -6.420517823424626 0 1 1
1382 428 2 0 -2.097952438915701 -5.038554683790902 -6.276904989266673 0 1 1
1383 428 4 0 -1.7516721251554341 -4.778186571737663 -6.141756602021608 0 1 1
2311 737 4 0 -1.3962728092398158 -4.976556111436223 -6.076817435032064 1 0 1
503 135 2 0 -9.693851130437107 -3.809264922961281 -7.256905946762813 0 0 0
2679 860 4 0 -9.720515389455183 -3.813564811064284 -6.44735237893981 1 1 1
2678 860 2 0 -9.65488452727163 -3.5292657027218994 -6.138292298514329 1 1 1
505 135 4 0 -9.710993173289244 -3.9392790875419417 -6.83862738798828 0 0 0
3054 985 4 0 -7.85298135495355 -4.1735592664893915 -6.634310196161903 0 1 0
3053 985 2 0 -7.594164767576029 -3.782146134241596 -6.552219997115414 0 1 0
3055 985 4 0 -7.337893307491878 -3.4040932971070923 -6.4695843324760185 0 1 0
2875 925 4 0 -4.916282016562813 -3.3063997593797545 -7.592884376650785 1 0 1
2873 925 2 0 -4.828780501456389 -3.048564765518017 -7.230188041795813 1 0 1
1240 380 4 0 -3.6084316177277116 -3.4310546086486244 -7.451068239759155 0 0 0
793 231 4 0 -3.407736988226929 -3.090559591380037 -7.453365842005554 0 0 0
2874 925 4 0 -4.743195012993057 -2.7990153063410763 -6.886916381477046 1 0 1
18 4 3 0 -4.629630408986508 -2.406352702790171 -6.879867234536784 0 -1 0
19 4 3 0 -4.387574642277575 -2.152669188893628 -6.241819982529498 0 -1 0
20 4 3 0 -4.324661312352246 -1.720235287601212 -6.857014879197322 0 -1 0
16 4 1 0 -4.3152083376495165 -2.166865080980577 -6.6810108278708356 0 -1 0
791 231 2 0 -3.5010267768615013 -2.821742930675956 -7.12851696506999 0 0 0
17 4 3 0 -3.9049265177549013 -2.357878803393046 -6.755958946637536 0 -1 0
792 231 4 0 -3.5861691488120204 -2.5507576572377353 -6.803493272640067 0 0 0
1342 414 4 0 -0.19986105043809715 -1.5622427281067996 -7.101964148102936 1 0 0
2920 940 4 0 -1.994604813461798 -1.311527557489557 -1.3606983225634468 1 0 1
1222 374 4 0 -10.082320372221414 -0.033586990331365946 -6.043296818690906 0 0 0
1156 352 4 0 -4.132221771426705 -1.3834447138431278 -6.756000508697525 0 0 0
1154 352 2 0 -4.143100578797777 -1.1268896205715655 -7.115552709101751 0 0 0
1336 412 4 0 -2.438156661376968 -0.6250054769065132 -6.247472026636477 0 0 0
1334 412 2 0 -2.142321998008705 -0.8502434730422752 -5.9563585956270915 0 0 0
1573 491 4 0 -2.708277986030319 -0.34436898779373704 -6.329150047967684 0 0 0
1700 534 2 0 -7.86924612465716 -9.539120044984777 -5.323574471813112 1 0 0
1702 534 4 0 -7.750151264302564 -9.893261621165493 -5.5862285779496155 1 0 0
1701 534 4 0 -7.990044059696347 -9.206646123131042 -5.055285975612146 1 0 0
1629 510 4 0 -7.757174625112858 -10.297152083089337 -5.619437808273526 0 0 0
1374 425 4 0 -2.0941381994732615 -8.920597123689147 -5.273320777757692 -1 1 0
1583 495 2 0 -2.4544895032786553 -9.220442124106631 -4.671804553108887 0 1 1
1584 495 4 0 -2.1427162346882898 -9.03217510521527 -4.882950778671208 0 1 1
1373 425 2 0 -1.7547224652583575 -8.822932046974735 -5.53268808281179 -1 1 0
1837 579 4 0 -0.3616870599066505 -9.770610230554519 -5.838364754325131 0 0 0
1835 579 2 0 -0.06958552804360345 -10.102996139514984 -5.75717773265498 0 0 0
2784 895 4 0 -9.80375960880847 -8.229240702174984 -5.553274437897546 0 1 1
2783 895 2 0 -9.543404629999928 -7.872025976665318 -5.564492579442198 0 1 1
2785 895 4 0 -9.284718485993714 -7.509094169343356 -5.571936314518389 0 1 1
727 209 4 0 -5.345757852441649 -9.051749285401781 -5.861560352214915 0 1 1
1588 496 4 0 -5.307023471221171 -8.917323760820077 -5.501053532117875 0 1 1
1586 496 2 0 -5.005779218118425 -8.947439595367666 -5.158024434607568 0 1 1
1587 496 4 0 -4.7091451907153425 -8.975014726705554 -4.824496949425814 0 1 1
2701 867 4 0 -8.963116352764718 -7.27801741939866 -5.638793610095214 1 1 0
1329 410 4 0 -7.998173746260592 -6.560776320813621 -5.884549383783112 0 1 0
2699 867 2 0 -8.656359299784267 -6.956776652227472 -5.684656856034731 1 1 0
2700 867 4 0 -8.341773168606924 -6.631193176561674 -5.730841569819476 1 1 0
2309 737 2 0 -1.1189581167569569 -5.036403561215155 -5.701179869938957 1 0 1
2310 737 4 0 -0.8565089452331256 -5.088742961582626 -5.330556855975828 1 0 1
1680 527 4 0 -0.8152905498475654 -4.8286668916465665 -5.031045822873319 0 1 1
1679 527 2 0 -1.0295222269945932 -4.687181956584607 -4.6743754682209655 0 1 1
2680 860 4 0 -9.578417299776259 -3.221374715073109 -5.79730734991226 1 1 1
1627 509 4 0 -9.473442260352995 -3.927144512994013 -5.021754857568679 0 1 1
2499 800 4 0 -9.207772664980098 -3.856238604321753 -5.320629848257663 1 1 0
1625 509 2 0 -9.71915283205021 -4.011517658686972 -4.6426016136803385 0 1 1
2498 800 2 0 -8.784091609557045 -4.044239390808482 -5.250785163596758 1 1 0
1002 301 4 0 -8.227553845816356 -4.28535171583482 -4.814794886123682 0 1 0
2500 800 4 0 -8.361140887352777 -4.230725242092573 -5.192987428811618 1 1 0
1650 517 4 0 -9.492979669305816 -2.8897550303496673 -5.592014988725406 0 0 1
325 75 4 0 -9.253741073185907 -1.8612100196386023 -5.085383338603213 0 0 1
1649 517 2 0 -9.538888450585782 -2.4789795591578456 -5.399740379966136 0 0 1
1651 517 4 0 -9.573673662351766 -2.0699841167102337 -5.201291816092614 0 0 1
1531 477 4 0 -6.811268925055474 -2.904995300820553 -4.309704593595457 0 0 1
1529 477 2 0 -6.423962817088945 -2.720511872834761 -4.412483598277888 0 0 1
1530 477 4 0 -6.055186411667052 -2.5367823456919854 -4.518326608487027 0 0 1
2042 648 2 0 -4.490986272339924 -2.255902918232167 -5.408488875600914 0 1 0
2044 648 4 0 -4.6618041709801465 -2.352022898521944 -4.997641239351145 0 1 0
2 1 3 0 -5.043204886943164 -2.3772581775618264 -4.892699710502792 0 0 0
1 1 1 0 -5.233871139676783 -2.3372176740925745 -4.492405168825748 0 0 0
1402 434 4 0 -5.109755043593208 -1.5013545870746476 -4.257183576898125 0 1 1
2043 648 4 0 -4.309099773193917 -2.148466474389902 -5.817999106286695 0 1 0
323 75 2 0 -9.14747666768741 -1.439612299617367 -5.22889740977843 0 0 1
324 75 4 0 -9.0366667225819 -1.032603952689404 -5.354552728521993 0 0 1
2164 688 4 0 -8.664444999029268 -0.8489583297439379 -5.260252683492367 1 0 1
2162 688 2 0 -8.495994184689776 -0.4575348592586119 -5.040163971689937 1 0 1
2163 688 4 0 -8.321691005977083 -0.07694757626539503 -4.809936136739936 1 0 1
1215 372 4 0 -1.841760722431217 -1.3307160354071703 -5.413441252389791 0 0 0
1335 412 4 0 -1.8880233637213124 -1.0571206059720484 -5.689744189072373 0 0 0
3068 990 2 0 -0.4028890832768759 -1.0350621056149958 -5.547625985905865 1 0 0
1214 372 2 0 -1.4246729116833663 -1.4210296746434206 -5.341864461965817 0 0 0
3069 990 4 0 -0.7590557067066804 -1.1946855906763523 -5.347173177913191 1 0 0
1216 372 4 0 -0.9818407733884202 -1.5167943225851594 -5.269722675540555 0 0 0
1873 591 4 0 -10.32236670764869 -5.7866959890090675 -7.496588483000254 1 0 1
1294 398 4 0 -3.3963865697439393 -9.47008955150124 -3.064308146435496 0 1 0
468 123 4 0 -3.4834714819421886 -9.73896729531682 -3.355567416654731 0 0 0
467 123 2 0 -3.287685485925717 -9.66624480562052 -3.778696779801718 0 0 0
1585 495 4 0 -2.800429361125055 -9.435005749870964 -4.4448399877950955 0 1 1
469 123 4 0 -3.0835981235190233 -9.598608720314685 -4.203079105700235 0 0 0
2046 649 4 0 -5.5483358241286584 -8.544459999125495 -3.498701951446421 0 1 1
2045 649 2 0 -5.204976015317692 -8.667911233563279 -3.7351222688273396 0 1 1
2047 649 4 0 -4.830810176861371 -8.794514653572259 -3.984152663089926 0 1 1
1740 547 4 0 -4.445833600281164 -8.687799075268979 -3.907868649587719 0 0 0
2440 780 4 0 -5.583623736113699 -8.69659376433468 -3.13695645982576 1 1 0
1739 547 2 0 -4.144435028055749 -8.445855612356958 -4.126190323219577 0 0 0
1741 547 4 0 -3.8153968627785213 -8.18842745497632 -4.355902844848581 0 0 0
553 151 4 0 -3.423273398356364 -8.245032384860295 -4.44231101276648 -1 0 0
551 151 2 0 -3.0913423265959845 -8.231036926512763 -4.163531789355761 -1 0 0
552 151 4 0 -2.756801106238531 -8.227748951389401 -3.8812572097935765 -1 0 0
2161 687 4 0 -2.5825161479753853 -8.50820053867278 -3.6694136320350217 0 0 1
2159 687 2 0 -2.5019370913306584 -8.368168339478645 -3.252628833049333 0 0 1
2188 696 4 0 -3.703591296120417 -6.864007272153181 -2.984405678075005 0 0 0
1499 467 2 0 -2.559021386801346 -5.376447148155526 -3.111953418435938 0 1 1
1500 467 4 0 -2.539659502280547 -5.043549269649454 -3.4038071205625062 0 1 1
1354 418 4 0 -2.16903737593999 -4.943142308916825 -3.5200663331658326 0 1 1
1352 418 2 0 -1.7815485738158845 -4.795027052022465 -3.729576315723711 0 1 1
2117 673 2 0 -3.42921564844813 -1.369065679437985 -1.3291356677804074 0 0 0
1353 418 4 0 -1.380951871108781 -4.641832715166493 -3.9403287255191124 0 1 1
1626 509 4 0 -9.947104226505406 -4.10090675687851 -4.249126819984295 0 1 1
1072 324 4 0 -9.904418708743343 -3.773941781230087 -4.028975824287872 0 1 0
1070 324 2 0 -9.993915750787675 -3.7019806060204945 -3.5760135073644954 0 1 0
1071 324 4 0 -10.083704370080687 -3.6343710034521934 -3.1374911062877557 0 1 0
1869 590 4 0 -9.854572260251127 -3.3157749901539417 -2.9440587397875553 1 1 0
1001 301 2 0 -8.112979710672661 -4.218569148066821 -4.389487747184086 0 1 0
1003 301 4 0 -7.999715434807229 -4.1443836460394206 -3.943023468894734 0 1 0
1276 392 4 0 -7.745908799908916 -3.8489168065137407 -3.866730889706322 0 0 0
1274 392 2 0 -7.441375034249007 -3.9545967733043565 -3.5322456849395185 0 0 0
218 44 3 0 -7.056174175214797 -4.326862534858987 -2.9674121352183462 1 0 0
1275 392 4 0 -7.147267924036377 -4.0546244403205876 -3.2280071567033497 0 0 0
2514 805 4 0 -6.265841702396243 -4.3707324097042495 -3.1215629644249567 1 0 0
930 277 4 0 -5.439006207644898 -3.809459826246505 -3.916751028807356 0 0 0
2513 805 2 0 -5.968247078371916 -4.2122490067948 -3.3867317946253186 1 0 0
2515 805 4 0 -5.668057782847197 -4.0542841595932435 -3.6513469758621278 1 0 0
929 277 2 0 -5.256468915599168 -3.41496043585876 -3.982938452938527 0 0 0
2530 810 4 0 -0.2068162753897286 -4.3706772629392665 -3.850131083806235 0 0 0
1681 527 4 0 -1.2618137637778566 -4.541767737430248 -4.313743206419486 0 1 1
2429 777 2 0 -0.5975940595077717 -3.9385987749993423 -3.4075071162519968 1 1 0
2430 777 4 0 -0.9628981115473461 -3.8309049676806484 -3.1925679245347056 1 1 0
2463 788 4 0 -1.3417613605446004 -3.7164711202826988 -3.2787166547540645 0 0 0
2431 777 4 0 -0.21791427905183647 -4.042302931376394 -3.618929053334932 1 1 0
5 1 3 0 -5.677648241229966 -2.37966585867821 -4.527317366686659 0 0 0
4 1 3 0 -5.143545889175453 -1.9261295734125834 -4.320827668494102 0 0 0
3 1 3 0 -5.081344482422968 -2.6479065745001704 -4.21811745239803 0 0 0
931 277 4 0 -5.069280542815925 -3.007617159969287 -4.046078362544507 0 0 0
316 72 4 0 -4.637172337415772 -0.42769407921065417 -4.019957068739749 0 -1 0
1400 434 2 0 -4.879210839333221 -1.087508920808441 -4.2933175833212935 0 1 1
1401 434 4 0 -4.657229773561761 -0.6864744209844543 -4.33131583370971 0 1 1
2459 787 2 0 -9.123789795842244 -10.22640825155413 -2.9209410701277307 1 0 0
2461 787 4 0 -9.209093687956177 -9.971985014583451 -2.5710952788691874 1 0 0
1861 587 4 0 -9.270154082312398 -9.58855335183937 -2.4613137090442767 1 0 0
1859 587 2 0 -9.110899060617765 -9.297871537698326 -2.1654198987776634 1 0 0
1860 587 4 0 -8.956615303713024 -8.998172441935067 -1.877823511143107 1 0 0
2173 691 4 0 -8.845715600000663 -9.074846917268184 -1.5027009358954302 1 0 0
1360 420 4 0 -5.957459126526646 -8.895134481850377 -1.9049927912865026 0 1 1
2439 780 4 0 -5.809119352606594 -8.91401813270233 -2.2569297004986346 1 1 0
1292 398 2 0 -3.661013202978693 -9.36451525019887 -2.722264609093023 0 1 0
2352 751 4 0 -3.996349383488368 -9.222785144051453 -1.9575572035089799 0 1 1
1293 398 4 0 -3.948737929349306 -9.2545053210389 -2.3579819116011063 0 1 0
2351 751 2 0 -3.707095397192038 -9.221824522947971 -1.5841562670020495 0 1 1
1358 420 2 0 -5.971616299717363 -8.779190429460696 -1.4753072899234734 0 1 1
2438 780 2 0 -5.69598757043524 -8.803399573618043 -2.698010055560252 1 1 0
2838 913 4 0 -2.1746428068546004 -8.311573311317913 -2.5397696487449544 0 0 0
2837 913 2 0 -1.7807929502517095 -8.454385207043483 -2.345488316685253 0 0 0
2160 687 4 0 -2.417742839112897 -8.230014396951008 -2.8177594742168712 0 0 1
2839 913 4 0 -1.3745158828670148 -8.609801328968345 -2.143140737961834 0 0 0
2883 928 4 0 -1.0162343887541876 -8.53878104376916 -2.3276500661952113 0 1 0
2882 928 2 0 -0.6168488273644033 -8.384004344860541 -2.4456101475609713 0 1 0
2884 928 4 0 -0.21650081280900227 -8.226711875343854 -2.5540544476632894 0 1 0
2671 857 4 0 -4.361388272571224 -6.250380950726704 -2.4725628319720463 0 1 0
2187 696 4 0 -4.373448851841091 -6.358108028117496 -2.873933995840188 0 0 0
2669 857 2 0 -4.539947704722924 -6.033859856245217 -2.095323542531105 0 1 0
1815 572 4 0 -3.3164370053199157 -6.719844919360629 -3.033843032303028 0 0 0
2186 696 2 0 -4.043350833178496 -6.614911929630676 -2.9347242403826606 0 0 0
1814 572 2 0 -2.9662476827670763 -6.397941259368052 -2.905947383561674 0 0 0
1816 572 4 0 -2.640310809402896 -6.102418125911647 -2.7809560299996474 0 0 0
2083 661 4 0 -7.025200369296628 -5.494693264127203 -1.5376779725499146 0 0 1
2082 661 4 0 -7.017822355768354 -4.826248172488915 -2.147355096645384 0 0 1
2081 661 2 0 -7.020289586890563 -5.169040121930727 -1.8430981427443758 0 0 1
217 44 3 0 -6.864742460069204 -4.864696360016144 -2.5176279753912025 1 0 0
2670 857 4 0 -4.73822768060802 -5.812064836366246 -1.706915233537916 0 1 0
2938 946 4 0 -4.71590673448121 -5.468858785764585 -1.523519227459835 1 1 0
1501 467 4 0 -2.5747224674908438 -5.715437251147124 -2.8079666735306597 0 1 1
220 44 3 0 -6.369901946152232 -4.3990132263822 -2.7426647525435186 1 0 0
216 44 1 0 -6.789770984987885 -4.442007822800357 -2.6293104695171023 1 0 0
219 44 3 0 -6.883614433597512 -4.161220103012156 -2.251513306715602 1 0 0
360 87 4 0 -6.95828211176494 -3.8310621571689722 -2.054440696522372 0 0 0
359 87 2 0 -6.836120269366021 -3.748102073498509 -1.6211137088028313 0 0 0
136 28 1 0 -1.9089727178099716 -3.192010088992481 -1.8530511594932102 0 0 0
139 28 3 0 -1.7071290479926653 -3.400939137924401 -2.1809503275128788 0 0 0
138 28 3 0 -2.356326091998155 -3.1254100097633906 -1.959291491659761 0 0 0
2464 788 4 0 -1.7848053712401106 -3.516312579736492 -2.5403241938220393 0 0 0
140 28 3 0 -1.8786527700435331 -3.4430456144813397 -1.483728554118563 0 0 0
2462 788 2 0 -1.5587422123994843 -3.6165996768022586 -2.927217012065278 0 0 0
1868 590 2 0 -9.611311228751026 -2.958294692513241 -2.8030064141828017 1 1 0
1870 590 4 0 -9.359790272275099 -2.587101981064753 -2.6595995992440042 1 1 0
885 262 4 0 -9.207744609730753 -2.2759382011987497 -2.4347519925560337 0 0 0
884 262 2 0 -9.476000636323008 -1.9566281926897655 -2.3220425363952173 0 0 0
2316 739 4 0 -3.0917993955016634 -2.089154643674497 -2.04320483107505 0 0 0
2315 739 2 0 -2.7968807241795455 -2.4237270208170587 -2.0489049256446035 0 0 0
2317 739 4 0 -2.501026558507588 -2.770909370075456 -2.056072124868961 0 0 0
137 28 3 0 -1.7047446277119205 -2.775847494142868 -1.77955624421311 0 0 0
2767 889 4 0 -1.8232513157591452 -2.57556470068493 -1.4516532677416205 0 0 1
886 262 4 0 -9.768401711178905 -1.623845298242358 -2.205403337389133 0 0 0
1777 559 4 0 -10.055159143336777 -1.3421455520952297 -2.3207146716022855 1 0 0
1775 559 2 0 -10.004183841662313 -0.9784291026450127 -2.0751691202645843 1 0 0
1776 559 4 0 -9.95527857991865 -0.6004060100200421 -1.8273093491545447 1 0 0
2907 936 4 0 -9.692536323049762 -0.29889614404130016 -1.837111681951823 2 0 1
2906 936 2 0 -9.256893367375483 -0.16370126190148684 -1.7680613596643424 2 0 1
1698 533 4 0 -8.455061912688755 -0.12262479590195925 -1.6206409395387864 1 0 0
1697 533 2 0 -8.12884752256334 -0.45312738943361003 -1.5659104535081347 1 0 0
2908 936 4 0 -8.835172155243777 -0.03312069135684816 -1.706440224055254 2 0 1
1699 533 4 0 -7.806070459412173 -0.7731076358929231 -1.5200876168068567 1 0 0
2576 826 2 0 -6.386546515420085 -0.41455217650124593 -0.41416581151926524 0 1 0
410 104 2 0 -6.3982840503346425 -0.1460864465541349 -1.4860813930699173 0 0 0
1788 563 4 0 -4.684199344445974 -0.5197873701378363 -1.8121217927196724 0 0 -1
2196 699 4 0 -4.833622627227649 -0.25973248961592804 -1.56574654376382 0 -1 0
2119 673 4 0 -3.7719959828718284 -1.104731244693406 -1.5040598436714079 0 0 0
1789 563 4 0 -3.8876952506855353 -0.9573301890742623 -1.850941413228038 0 0 -1
1787 563 2 0 -4.268638941929022 -0.7541056737808969 -1.8299287667543707 0 0 -1
2918 940 2 0 -2.2169366680844496 -0.9506978591485186 -1.516056657327184 1 0 1
2919 940 4 0 -2.438579164608383 -0.5742974782863709 -1.6709488133434294 1 0 1
2224 708 4 0 -2.434944041067094 -0.1971587459975422 -1.8034018026366316 0 0 1
2353 751 4 0 -3.427007519923841 -9.233362031787319 -1.2212106898703523 0 1 1
832 244 4 0 -3.2648148277615467 -9.410985605849456 -0.884092416700182 0 0 0
830 244 2 0 -3.533009472551294 -9.468217804665196 -0.5237874378157783 0 0 0
2862 921 4 0 -1.9524705558709274 -9.925706909806744 -0.7444728437592566 0 1 0
2861 921 2 0 -2.0821312375397976 -9.567913190711007 -0.5943007881816484 0 1 0
2863 921 4 0 -2.2289828000332665 -9.145383566002613 -0.42390871995036605 0 1 0
1539 480 4 0 -1.6113255760368261 -10.017233813039477 -0.9296879693477337 -1 1 0
2648 850 2 0 -10.06149561861549 -8.065144196066088 -0.12659236865581908 1 0 0
2171 691 2 0 -8.84699454459436 -8.675291942891157 -1.2674528731894341 1 0 0
2779 893 4 0 -9.105155594031894 -8.01063118475161 -0.9663331006809789 1 1 0
2172 691 4 0 -8.841315660442003 -8.292045408558192 -1.050057698450176 1 0 0
2777 893 2 0 -8.871403383097855 -7.6639402065373 -0.8087302676077973 1 1 0
1359 420 4 0 -5.991324716364356 -8.657965975346228 -1.0533010937885399 0 1 1
1284 395 4 0 -5.765234066219705 -8.370434536479848 -0.8834258827323699 0 1 0
1283 395 2 0 -5.871527397226491 -7.929536453849124 -0.7918172136998682 0 1 0
1690 530 4 0 -2.0171905218012136 -8.124504985107235 -0.31652152352461 0 1 0
1689 530 4 0 -2.508942066859192 -8.867991493976456 -0.30535118806602474 0 1 0
1688 530 2 0 -2.269893767852823 -8.508409641674186 -0.3143406073587269 0 1 0
2778 893 4 0 -8.619206494683079 -7.299615560043702 -0.6389100838933539 1 1 0
293 65 2 0 -7.9614160449218465 -6.829587667114926 -0.4476160246801765 0 0 0
295 65 4 0 -8.333218880536261 -7.107152633190637 -0.3937025108038216 0 0 0
294 65 4 0 -7.598459744869734 -6.566696876499208 -0.495678550971833 0 0 0
2575 825 4 0 -6.539016202462504 -6.646905243112813 -0.26917613347966357 1 0 0
1281 394 4 0 -7.475315142939191 -6.4051150184444365 -0.8252284227571877 0 0 0
2573 825 2 0 -6.2476894645839085 -7.001871856779658 -0.30941758605681274 1 0 0
1285 395 4 0 -5.970166295830409 -7.516515780832324 -0.7073155224073369 0 1 0
2574 825 4 0 -5.961227599600179 -7.3471910837297685 -0.34792176267994945 1 0 0
1280 394 2 0 -7.322534152203259 -6.084484474644098 -1.0677899924050989 0 0 0
681 194 4 0 -0.6780765684592754 -6.726580089886408 -0.5010752828216267 0 0 0
419 107 2 0 -0.14610956581803275 -6.344303876828807 -0.806873904543581 -1 1 -1
421 107 4 0 -0.5186796084973254 -6.6095404734109175 -0.8653184040765215 -1 1 -1
680 194 2 0 -1.0628699919022353 -6.801517199427218 -0.2833675186436407 0 0 0
1686 529 4 0 -10.259948719035219 -4.604138557644947 -0.5667302362309666 1 0 -1
637 179 4 0 -9.968333430838552 -4.808228195058003 -0.4042521460488664 0 0 0
635 179 2 0 -9.70075486525498 -5.09281298423182 -0.15395168927062805 0 0 0
1282 394 4 0 -7.166503552407614 -5.764334702223278 -1.3092850819144963 0 0 0
2936 946 2 0 -4.555847044991462 -5.527418689838711 -1.1034705493287869 1 1 0
2937 946 4 0 -4.394932919191575 -5.580644897556551 -0.6856124610798094 1 1 0