LAMMPS data file via write_data, version 29 Aug 2024, timestep = 1250000, units = lj

3400 atoms
4 atom types
2400 bonds
1 bond types

-10.791198 10.791198 xlo xhi
-10.791198 10.791198 ylo yhi
-10.791198 10.791198 zlo zhi

Masses

1 1
2 1
3 1
4 1

Bond Coeffs # zero

1 0

Atoms # bond

1274 292 2 -7.034660695595187 -10.259229384740749 -10.104112667678622 0 0 1
1276 292 4 -6.949968410275018 -9.92875835611634 -10.182318268802636 0 0 1
1195 265 4 -6.795679900980021 -9.536896980903412 -10.250157270610142 0 0 0
1275 292 4 -7.119352980915356 -10.589700413365156 -10.025907066554607 0 0 1
2553 718 4 -1.2295336796714402 -10.509500307683235 -10.682380112822997 0 0 1
1483 361 4 -0.9336715304308547 -10.480819130348692 -10.344655933351808 0 0 1
1481 361 2 -0.820834744761328 -10.536067941413647 -10.017982658234809 0 0 1
1273 291 4 -0.474630072532233 -10.772079628395202 -9.419761526714213 0 0 1
1482 361 4 -0.7079979590918013 -10.591316752478601 -9.69130938311781 0 0 1
52 11 3 -9.26488162992227 -7.961174930560691 -9.628013353312697 0 0 0
1193 265 2 -6.562966133726704 -9.278333852761936 -10.28875016239459 0 0 0
1194 265 4 -6.3302523664733865 -9.019770724620459 -10.327343054179039 0 0 0
104 21 3 -6.092764619391558 -8.678429139681592 -10.350321038149948 0 0 0
105 21 3 -5.435715155776059 -8.597259612459636 -9.991716088082784 0 0 0
103 21 3 -5.978700850068853 -8.0860649732955 -9.888050391332392 0 0 0
102 21 3 -5.616677222583706 -8.130472323564302 -10.545216185013201 0 0 0
101 21 1 -5.779541835803489 -8.375213599248093 -10.191412813439012 0 0 0
1032 211 4 -5.994659918193475 -7.838095372970577 -9.547818354449705 0 0 0
1492 364 4 -5.287205235617901 -7.988212311193646 -10.707588481328102 0 0 1
1031 211 2 -6.144224040370467 -7.838104531550557 -9.231384201309515 0 0 0
72 15 3 -3.401586514509573 -8.414518911891482 -9.434518808880057 0 0 0
1153 251 4 -3.2236574942971137 -8.585939072941747 -9.727239885822142 0 0 0
73 15 3 -3.7286470021458 -7.748564955270336 -9.314365718667991 0 0 0
1168 256 4 -1.8707988360924057 -9.322570751084601 -10.54871248407162 0 0 0
1151 251 2 -2.9096562754490773 -8.730781168721395 -9.781313926285334 0 0 0
1167 256 4 -2.3221402737305104 -9.011585510035276 -10.11330567829098 0 0 0
1152 251 4 -2.5956550566010415 -8.875623264501044 -9.835387966748526 0 0 0
1166 256 2 -2.096469554911458 -9.16707813055994 -10.3310090811813 0 0 0
588 118 3 -10.581462226722666 -6.63000230030755 -10.166044466359523 1 0 0
1029 210 4 -9.835263939691654 -7.310677241490198 -10.21087263340854 0 0 0
1028 210 2 -9.886309979350896 -7.416995097149383 -10.540403838915816 0 0 0
53 11 3 -9.543525109632961 -7.347882910179321 -9.961376082109862 0 0 0
2437 679 4 -10.237219786828938 -6.48663780612734 -10.099564616997998 1 0 0
2435 679 2 -9.957736648954402 -6.304506502513261 -10.205476674326915 1 0 0
54 11 3 -9.413030675690491 -7.352530560127328 -9.212677476488194 0 0 0
2436 679 4 -9.678253511079866 -6.122375198899182 -10.311388731655832 1 0 0
51 11 1 -9.262368127360023 -7.50118814947908 -9.625596012834812 0 0 0
55 11 3 -8.837941071268165 -7.353119104006522 -9.698652373474976 0 0 0
25 5 3 -2.43858948861814 -0.01180251509207006 -6.90233448196949 0 0 0
1010 204 2 -4.030952357485972 -7.07690442707702 -9.315370197596607 0 0 0
1012 204 4 -4.184672995523169 -6.763785797006618 -9.286617998649119 0 0 0
1045 215 4 -4.335166352345084 -6.3964404820228395 -9.340774344166215 0 0 0
1039 213 4 -9.293215047898107 -6.009528315361057 -10.299410278733152 0 0 0
1007 203 2 -7.878959423144957 -6.130215641230444 -10.51879516931487 0 0 0
1009 203 4 -8.18343616381594 -6.094371291546518 -10.349948798355701 0 0 0
1037 213 2 -8.943364895224892 -6.015377294278906 -10.30781623615255 0 0 0
1038 213 4 -8.593514742551678 -6.021226273196755 -10.31622219357195 0 0 0
1008 203 4 -7.574482682473973 -6.166059990914369 -10.68764154027404 0 0 0
2311 637 4 -10.761878494191158 -0.3280282459688338 -9.338979357185215 1 0 0
1411 337 4 -5.780958756237519 -5.212737738036243 -9.874626350590509 0 0 1
1409 337 2 -5.944134675150004 -5.127431943345165 -10.17227806128462 0 0 1
92 19 3 -5.4867718106454415 -5.104752514467484 -9.60947808826284 0 0 0
91 19 1 -5.040252872831148 -5.042770442883969 -9.517940877384897 0 0 0
1410 337 4 -6.10731059406249 -5.042126148654087 -10.469929771978732 0 0 1
95 19 3 -4.859718523559912 -4.766568458831063 -9.831819536644096 0 0 0
94 19 3 -4.826573339821595 -5.454530664390817 -9.527665956168626 0 0 0
1043 215 2 -4.473664300126616 -6.077814713283797 -9.383152852349214 0 0 0
1044 215 4 -4.61216224790815 -5.759188944544757 -9.425531360532213 0 0 0
1675 425 4 -6.300140750226517 -2.6330431775560785 -9.28294101929694 0 0 0
1282 294 4 -7.52698277991424 -2.1283453003551926 -10.06931048274292 0 0 1
1280 294 2 -7.5766141057925385 -1.8892293677116363 -9.818590913806819 0 0 1
1380 327 4 -7.5912547270941895 -2.4354203446996667 -10.371122588333044 0 0 1
1379 327 2 -7.433676911786697 -2.692258223692391 -10.549177456385804 0 0 1
1281 294 4 -7.626245431670837 -1.6501134350680802 -9.567871344870719 0 0 1
1144 248 4 -4.605927466637115 -2.7077068620697946 -10.353406965486705 0 0 0
1142 248 2 -4.52656063986244 -2.500501666317894 -10.62408558241295 0 0 0
1207 269 4 -8.873582357319394 -1.8969179376593313 -0.9929647297059065 0 0 0
1996 532 4 -2.460645721599562 -1.7597293473033933 -10.348178082117647 0 0 1
1159 253 4 -2.231121752135453 -2.0535843882309615 -10.555762245868038 0 0 0
1836 479 4 -9.068695431492259 -1.029892093081114 -9.257123203209526 0 0 0
1747 449 4 -5.328328039711407 -1.4912637321073987 -1.3284774399540829 0 0 0
1994 532 2 -2.765046363582763 -1.5989457177566904 -10.2850205518461 0 0 1
1995 532 4 -3.0694470055659644 -1.4381620882099873 -10.221863021574555 0 0 1
601 121 1 -10.760109023421025 -0.0872887276932942 -7.850187613308645 1 0 0
465 93 3 -0.08526713822812054 -10.781028975850342 -8.464475864110563 0 1 1
1019 207 2 -9.13843262474218 -8.249343827120668 -7.682843973884951 0 0 0
1020 207 4 -9.122917720803306 -7.948783444381007 -7.861513344743967 0 0 0
1095 232 4 -9.167801149714993 -7.658327603598211 -8.203104028908955 0 0 0
1336 312 4 -6.3810917029462475 -7.947524592308705 -7.819205943576748 0 0 1
1334 312 2 -6.346423083182327 -7.911836704571743 -8.16565141038584 0 0 1
1033 211 4 -6.29378816254746 -7.838113690130537 -8.914950048169326 0 0 0
1335 312 4 -6.311754463418407 -7.876148816834782 -8.512096877194931 0 0 1
1215 272 4 -4.7892890333533 -8.900986749441708 -8.798747465532967 0 0 0
1214 272 2 -4.560757268828816 -8.72594487685927 -8.997829296562768 0 0 0
71 15 1 -3.633729627560882 -8.162560752217173 -9.127555194039022 0 0 0
1216 272 4 -4.332225504304333 -8.550903004276833 -9.196911127592571 0 0 0
74 15 3 -4.028177378836807 -8.382316766017079 -9.020698907784844 0 0 0
75 15 3 -3.379142103597101 -8.109639744163678 -8.753677460617402 0 0 0
1122 241 4 -3.2657341022675825 -8.052315312997218 -8.360559598490081 0 0 0
1121 241 2 -3.397868236041079 -7.89439138387495 -8.077539098698201 0 0 0
1094 232 2 -9.256722282077474 -7.553264133735915 -8.524903189131255 0 0 0
1096 232 4 -9.345643414439955 -7.448200663873616 -8.846702349353556 0 0 0
1011 204 4 -3.877231719448775 -7.390023057147421 -9.344122396544094 0 0 0
1123 241 4 -3.5300023698145755 -7.736467454752683 -7.794518598906321 0 0 0
93 19 3 -4.998467084398396 -4.8525308362078725 -9.096796199231798 0 0 0
2320 640 4 -5.1888781615147845 -4.518050506499092 -8.993700262295349 0 0 0
49 10 3 -7.34208711430159 -3.347182301385956 -8.078660946830771 0 0 0
48 10 3 -6.706307977585128 -3.2882653668965096 -7.6664550709064665 0 0 0
2318 640 2 -5.263049844797803 -4.278794128586802 -8.749252012092592 0 0 0
2319 640 4 -5.337221528080821 -4.039537750674513 -8.504803761889836 0 0 0
2179 593 4 -7.585656700491894 -1.3614953643125973 -9.271196835366919 1 0 0
1673 425 2 -6.4653638649500085 -2.750010966323089 -8.997424191855988 0 0 0
1674 425 4 -6.6305869796735 -2.8669787550901 -8.711907364415035 0 0 0
50 10 3 -6.714612571389715 -3.0665648269775274 -8.385954830685062 0 0 0
46 10 1 -6.960035481315759 -3.0948559271286515 -8.003375154100297 0 0 0
1183 261 4 -7.3827604612221345 -1.6182780441639244 -7.791399581837821 0 0 0
1181 261 2 -7.2715006263268736 -1.949341948621808 -7.768641279963377 0 0 0
1182 261 4 -7.160240791431613 -2.2804058530796913 -7.745882978088933 0 0 0
47 10 3 -7.0846051438919275 -2.672084515110246 -7.871668159807456 0 0 0
1189 263 4 -6.2629443720668325 -0.19800889301314983 -0.9561996343284733 0 0 0
1220 274 2 -6.376575003835623 -0.7878511301730428 -1.4603442767103745 0 0 0
328 66 3 -8.506871002459725 -0.1888924132599236 -8.815216514977818 0 0 0
1835 479 2 -8.906989936588491 -0.7491841314479851 -9.124630285686727 0 0 0
1837 479 4 -8.745284441684722 -0.4684761698148562 -8.99213736816393 0 0 0
326 66 1 -8.086380010088021 -0.21311574901545813 -8.620535865350789 0 0 0
330 66 3 -8.126402777491723 -0.2867662676139776 -8.172904567071072 0 0 0
1767 456 4 -8.299134758053347 -0.4286907494477997 -7.870125257906893 0 0 0
329 66 3 -7.840828824484714 -0.5549352533773331 -8.815892057181715 0 0 0
2178 593 4 -7.621162055934061 -0.9077545741441769 -8.739352248037093 1 0 0
2177 593 2 -7.6034093782129775 -1.1346249692283872 -9.005274541702006 1 0 0
298 60 3 -7.445673095717788 -0.8464031394345204 -8.37072934601325 0 0 0
296 60 1 -7.587776464016969 -0.9145817322652363 -7.934314048162928 0 0 0
300 60 3 -7.264521821026234 -0.7804804955341825 -7.642898032658866 0 0 0
1743 448 4 -2.849952199809623 -0.28678006020753843 -7.876950766594833 0 0 0
1742 448 2 -2.778480456855476 -0.03462708153409097 -8.108922026248383 0 0 0
1075 225 4 -9.344325822302629 -9.60169276528955 -7.318330324880192 0 0 0
1073 225 2 -9.33992929693368 -9.254085120546922 -7.358945542240911 0 0 0
1213 271 4 -5.246872495365237 -10.534077135778137 -6.343319872129375 0 0 0
1116 239 4 -5.314256746723754 -10.151695977896367 -6.257813104179374 0 0 0
1115 239 2 -5.456581074301577 -9.836845975096464 -6.202016495712962 0 0 0
1021 207 4 -9.153947528681053 -8.54990420986033 -7.504174603025936 0 0 0
1074 225 4 -9.33553277156473 -8.906477475804293 -7.399560759601631 0 0 0
363 73 3 -6.497434243599516 -7.681005671968835 -6.319678329785337 0 1 0
1716 439 4 -4.693001669966998 -7.718031073656904 -6.266478982697769 0 1 0
1715 439 2 -5.0358120626555305 -7.657639540258145 -6.303001542281407 0 1 0
365 73 3 -5.7505006381292985 -7.768813996466259 -6.355453840514762 0 1 0
1717 439 4 -5.378622455344063 -7.597248006859386 -6.339524101865044 0 1 0
1860 487 4 -4.4319371785229436 -8.059294553778448 -6.314108199218166 0 1 0
1859 487 2 -4.111741162074309 -8.175828078479974 -6.234142902551499 0 1 0
1015 205 4 -3.380278011772864 -8.434376466709873 -6.271602425030971 0 0 0
1013 205 2 -3.1577603643520678 -8.5319317560343 -6.523532697350987 0 0 0
1861 487 4 -3.7915451456256726 -8.292361603181497 -6.154177605884831 0 1 0
1014 205 4 -2.9352427169312714 -8.629487045358728 -6.775462969671003 0 0 0
2234 612 2 -0.4930398827596522 -7.4557793255108615 -6.186152785946806 0 0 0
1178 260 2 -8.681589147633161 -6.4567921156989065 -6.308724261149385 0 0 0
1180 260 4 -8.974496543622305 -6.434792913844218 -6.499043184256591 0 0 0
1240 280 4 -7.326600531964976 -7.021657453434619 -6.264324984131731 0 0 0
1238 280 2 -7.08166206403457 -7.2683619219363065 -6.223802741486178 0 0 0
1239 280 4 -6.836723596104165 -7.515066390437993 -6.183280498840625 0 0 0
608 122 3 -7.3270301863493295 -6.686075727307537 -6.026322630696638 1 0 0
2449 683 4 -3.7802240140375227 -7.502490181949855 -7.499860853677819 0 0 0
2447 683 2 -3.9334012033407175 -7.202419389271703 -7.405022738668301 0 0 0
2448 683 4 -4.086578392643912 -6.90234859659355 -7.310184623658784 0 0 0
1162 254 4 -4.203444617413148 -6.533018427217475 -7.183525705542022 0 0 0
1160 254 2 -4.255271470572235 -6.18688003600726 -7.185006050748469 0 0 0
2235 612 4 -0.3295713423245862 -7.253829445614142 -6.420661383438635 0 0 0
2399 667 2 -0.10864604715782904 -6.439881306172368 -7.1282149770506775 0 0 0
2401 667 4 -0.3122267893138396 -6.344381158143426 -7.396421246831409 0 0 0
607 122 3 -7.6487150101215455 -6.094339333835381 -6.359889587685892 1 0 0
1027 209 4 -4.744244504779129 -4.812597443267844 -7.271307299600295 0 0 0
1025 209 2 -4.59968791298174 -5.131350085343368 -7.270926592705455 0 0 0
1026 209 4 -4.455131321184353 -5.450102727418892 -7.2705458858106145 0 0 0
1161 254 4 -4.307098323731322 -5.840741644797044 -7.186486395954916 0 0 0
1200 267 4 -6.359636685355886 -3.419100066767696 -7.463913687669797 0 0 0
1005 202 4 -4.938358999800823 -4.471506490938204 -7.210288418982052 0 0 0
1004 202 2 -5.1724393929819446 -4.2128361586251035 -7.238502399721428 0 0 0
1199 267 2 -6.058811755238931 -3.5920469168801077 -7.418156191492331 0 0 0
1006 202 4 -5.406519786163066 -3.954165826312002 -7.266716380460805 0 0 0
1201 267 4 -5.757986825121978 -3.764993766992519 -7.372398695314864 0 0 0
1710 437 4 -5.152784879875144 -2.6640169696184657 -6.509601975542045 0 0 0
1709 437 2 -5.240704269401851 -2.9204473439115306 -6.28821172262849 0 0 0
118 24 3 -0.269981430125772 -1.9390073145333142 -7.524247463712583 0 0 0
2458 686 4 -0.33257096197725877 -2.997308754271224 -6.105346905247354 0 0 0
2456 686 2 -0.29120934572273405 -2.8320188235469224 -6.4110730171546 0 0 0
2457 686 4 -0.24984772946820935 -2.6667288928226207 -6.7167991290618465 0 0 0
117 24 3 -0.0715628769591119 -2.4015267129537623 -6.966030763994416 0 0 0
1222 274 4 -6.269176581044646 -0.5081177268801291 -1.2794719408925999 0 0 0
604 121 3 -10.341008092243142 -0.20636700987003598 -7.690579429935793 1 0 0
299 60 3 -7.979230481271773 -0.677955301178711 -7.856393033754334 0 0 0
1768 456 4 -8.621643286136283 -0.11290668027606585 -7.335084445471843 0 0 0
1766 456 2 -8.460389022094816 -0.2707987148619328 -7.602604851689367 0 0 0
297 60 3 -7.670367137749802 -1.362953650445725 -7.8731470341795875 0 0 0
1234 278 4 -6.905040254640115 -0.711192599055229 -7.462562557617068 0 0 0
1232 278 2 -6.593377104108154 -0.6387499208009435 -7.320724132048441 0 0 0
1233 278 4 -6.281713953576194 -0.566307242546658 -7.1788857064798135 0 0 0
80 16 3 -6.119955612454479 -0.24129616747896604 -7.008846828355553 0 0 0
1177 259 4 -5.321660504758628 -0.956418088157652 -6.85383602937441 0 0 0
1176 259 4 -5.914349743081195 -0.6154373505100389 -7.003674620297379 0 0 0
1175 259 2 -5.618005123919912 -0.7859277193338456 -6.928755324835894 0 0 0
262 53 3 -4.92175058577626 -0.868567396288299 -6.822840981636391 0 0 0
2310 637 4 -10.695642906167677 -0.35354789005153486 -8.642587517309563 1 0 0
265 53 3 -4.255921169300743 -0.9343602342174934 -6.492171220948847 0 0 0
264 53 3 -4.405180752516932 -0.33076591214143963 -6.916783362998201 0 0 0
263 53 3 -4.312643423283569 -1.012907347911917 -7.238839110196433 0 0 0
261 53 1 -4.471028286085978 -0.7872178115011264 -6.865638804208122 0 0 0
2309 637 2 -10.728760700179418 -0.3407880680101837 -8.990783437247389 1 0 0
23 5 3 -2.955110829805079 -0.5416211195021947 -6.7630579565979625 0 0 0
24 5 3 -2.853982934876929 -0.2808867305968081 -7.4697337856099315 0 0 0
21 5 1 -2.849498900629282 -0.16949777824957976 -7.019320203741073 0 0 0
1117 239 4 -5.5989054018794 -9.521995972296562 -6.146219887246549 0 0 0
1267 289 4 -1.4837071663196153 -10.068553168198065 -4.6227168107365015 0 0 0
1248 283 4 -1.381549457979034 -10.448538511850098 -4.702384222843035 0 0 0
1247 283 2 -1.1821087296373607 -10.724399800291751 -4.783771847318961 0 0 0
362 73 3 -6.168742921230491 -8.283157943762859 -6.012636547331655 0 1 0
361 73 1 -6.119946629861903 -7.833633512216846 -6.097174748115717 0 1 0
1090 230 4 -5.817834701383346 -9.20279790503314 -6.004506151078544 0 0 0
1089 230 4 -6.246090935026895 -8.658019860561232 -5.905443137765245 0 0 0
1088 230 2 -6.031962818205119 -8.930408882797186 -5.9549746444218945 0 0 0
1165 255 4 -3.507209522216147 -8.374168601255699 -5.832237451780123 0 0 0
1163 255 2 -3.401748767556303 -8.381539399375905 -5.498585386655844 0 0 0
1164 255 4 -3.2962880128964587 -8.388910197496111 -5.164933321531564 0 0 0
1092 231 4 -3.2653756714817366 -8.328130062844567 -4.751659365192656 0 0 0
1202 268 2 -0.6419850974382759 -7.921954305746346 -5.244715599369941 0 0 0
2236 612 4 -0.6565084231947182 -7.657729205407581 -5.951644188454978 0 0 0
1204 268 4 -0.6519915605401505 -7.859242680416306 -5.588906131989108 0 0 0
1203 268 4 -0.6319786343364012 -7.984665931076387 -4.900525066750774 0 0 0
1179 260 4 -8.38868175164402 -6.478791317553595 -6.118405338042178 0 0 0
610 122 3 -8.04861699855193 -6.5174794410204 -5.892951851643128 1 0 0
364 73 3 -6.0723912300262315 -7.609427206036375 -5.693727085815789 0 1 0
606 122 1 -7.635509566149458 -6.3435191240110305 -5.9734506553596205 1 0 0
609 122 3 -7.5082558524570775 -6.068609087557576 -5.621980935172225 1 0 0
1842 481 4 -6.083578222218269 -7.26236544558503 -4.662441374778474 0 1 0
1843 481 4 -6.104595261751727 -7.341262239363725 -5.357663339319474 0 1 0
1841 481 2 -6.094086741984998 -7.3018138424743775 -5.010052357048974 0 1 0
42 9 3 -10.744536398580175 -5.2196911051729655 -5.123846964197069 0 0 0
1023 208 4 -7.201279225655414 -6.162104005323331 -5.391520857318898 0 0 0
1022 208 2 -6.963025103596259 -6.104599870724976 -5.141664402877583 0 0 0
1024 208 4 -6.724770981537104 -6.047095736126621 -4.891807948436268 0 0 0
1711 437 4 -5.328623658928557 -3.176877718204595 -6.066821469714934 0 0 0
1125 242 4 -5.495461491388588 -3.4802672078156616 -4.6400145882582216 0 0 0
1251 284 4 -5.394860127584435 -3.57661184704125 -5.047939742965178 0 0 0
1252 284 4 -5.277522146007458 -3.3803754650323463 -5.7095461822140345 0 0 0
1250 284 2 -5.3361911367959465 -3.4784936560367976 -5.378742962589606 0 0 0
1109 237 2 -10.649440487381964 -1.4271652991556387 -5.247898990764177 0 0 0
1110 237 4 -10.389161952567308 -1.312369401597657 -5.04399463519867 0 0 0
1776 459 4 -10.099068929403082 -1.2799236096649984 -4.751283901699769 0 0 0
132 27 3 -2.4603031041244297 -0.17114984923108098 -5.877732287169886 0 0 0
1266 289 4 -2.0434267582627488 -9.689843612382443 -4.440252976705717 0 0 0
1265 289 2 -1.763566962291182 -9.879198390290254 -4.531484893721109 0 0 0
2240 614 2 -9.193353370509374 -9.03871688253687 -3.248318168174409 1 0 0
2242 614 4 -8.90396892627361 -8.94694543068534 -3.422486604061987 1 0 0
1091 231 2 -3.093281856777432 -8.236766264210821 -4.460907967535202 0 0 0
1093 231 4 -2.921188042073127 -8.145402465577078 -4.170156569877746 0 0 0
2289 630 4 -2.6898433666907735 -7.940083504962992 -3.932245760330393 0 0 0
2288 630 2 -2.4686989676133964 -7.832372394353959 -3.683260878443905 0 0 0
2290 630 4 -2.247554568536019 -7.7246612837449256 -3.434275996557417 0 0 0
3135 912 4 -1.970559577511866 -7.749377141453679 -3.1139574399113354 0 1 0
2273 625 2 -0.7564536609635047 -7.870534122079481 -4.185518828451705 0 0 0
2274 625 4 -0.6311593953174918 -7.843965733520595 -4.511241820771153 0 0 0
2275 625 4 -0.8817479266095177 -7.8971025106383665 -3.859795836132256 0 0 0
2250 617 4 -7.928128812480554 -7.489982146583991 -3.0440386104452575 1 0 0
1259 287 2 -6.106713848964372 -6.968058178368858 -3.963206674002301 0 0 0
1261 287 4 -6.195809921719307 -6.795366538669779 -3.672106197538082 0 0 0
202 41 3 -6.330103366257299 -6.417886744851639 -3.555017556114837 0 0 0
1260 287 4 -6.017617776209438 -7.140749818067938 -4.25430715046652 0 0 0
109 22 3 -6.006267662483819 -6.891994942692374 -3.3310568142562738 0 0 0
204 41 3 -7.056401238379294 -6.318380411787592 -3.389216800291718 0 0 0
201 41 1 -6.628141368492413 -6.150334903480513 -3.3287668955572673 0 0 0
203 41 3 -6.601664912654926 -5.719337900473524 -3.498592042945388 0 0 0
1002 201 4 -0.9520217097531081 -5.3068889511520965 -4.021066503675369 0 0 0
1001 201 2 -1.0164548632235095 -5.3787891345256735 -3.6846460340771574 0 0 0
1003 201 4 -1.0808880166939112 -5.450689317899251 -3.3482255644789447 0 0 0
1124 242 2 -5.461006432870348 -3.355842397019926 -4.314697334794764 0 0 0
1126 242 4 -5.426551374352107 -3.2314175862241896 -3.989380081331307 0 0 0
1149 250 4 -5.46183121974967 -3.0173481620927585 -3.6475687034575177 0 0 0
1148 250 2 -5.535480009263328 -2.8714417546300224 -3.3380736694674713 0 0 0
1399 333 4 -2.273735497551598 -3.13122975968519 -3.414455840687565 0 0 0
1397 333 2 -2.2454824203056636 -2.935327121188623 -3.1257970111739146 0 0 0
58 12 3 -1.7801133083658944 -1.914518380196662 -3.1411380623390404 0 0 0
1775 459 2 -9.823619243000746 -1.16339260014649 -4.569492829087567 0 0 0
1777 459 4 -9.54816955659841 -1.0468615906279815 -4.387701756475366 0 0 0
338 68 3 -9.25644989382911 -0.7662683890691607 -4.307334690564708 0 0 0
340 68 3 -8.724403048150327 -0.25525025340731367 -4.156713911693797 0 0 0
336 68 1 -8.812923169239786 -0.7008999773836355 -4.1877060345968475 0 0 0
337 68 3 -8.542914736649328 -0.8869254431596021 -4.510335810675837 0 0 0
339 68 3 -8.72616144396111 -0.9081530940423683 -3.7817275269615203 0 0 0
1132 244 4 -8.642368696026068 -0.820905666470392 -3.3842096361389165 0 0 0
1130 244 2 -8.499216102896765 -0.8592737765980762 -3.0671367372567127 0 0 0
1573 391 4 -3.50572821825756 -0.5486428143692591 -3.2663022596238003 0 0 0
1219 273 4 -10.59613015940352 -9.228753168960871 -2.0988235260972714 0 0 0
2657 753 2 -10.089797884426819 -9.270299912583912 -2.651755053319924 1 0 0
2659 753 4 -10.31364360449741 -9.234750142200605 -2.3850542707340434 1 0 0
2658 753 4 -9.865952164356228 -9.30584968296722 -2.918455835905805 1 0 0
2241 614 4 -9.482737814745139 -9.1304883343884 -3.074149732286831 1 0 0
3134 912 2 -1.6527196084600417 -7.734479931157113 -2.968163656784037 0 1 0
3136 912 4 -1.3348796394082174 -7.719582720860547 -2.822369873656738 0 1 0
1171 257 4 -7.70849026539555 -7.27339218446928 -1.985503279996979 0 0 0
1169 257 2 -7.6676524451854275 -7.202103895253408 -1.645282392541389 0 0 0
2251 617 4 -7.706493818239876 -7.336744704409407 -2.397976527017073 1 0 0
2249 617 2 -7.8173113153602145 -7.413363425496699 -2.7210075687311654 1 0 0
108 22 3 -6.152796085389988 -6.589293803060996 -2.649513388386871 0 0 0
1416 339 4 -6.34344125350065 -6.28044330553745 -2.5393237902587362 0 0 0
1415 339 2 -6.516311667325375 -6.252128914531223 -2.236315349310366 0 0 0
110 22 3 -6.214085708941666 -7.332050565523882 -2.756545971556035 0 0 0
106 22 1 -5.981200063565872 -6.958258429057187 -2.872493006418137 0 0 0
107 22 3 -5.539989197889762 -7.011758901898967 -2.753873145455525 0 0 0
214 43 3 -3.116329432014783 -6.801037428873816 -1.6111631730571978 0 0 0
1417 339 4 -6.6891820811501015 -6.223814523524997 -1.9333069083619951 0 0 0
205 41 3 -6.522630751579751 -6.149540420201222 -2.8857467171058335 0 0 0
1084 228 4 -6.774490825498233 -6.172296621992031 -1.5402259272658776 0 0 0
1209 270 4 -1.1381503693769601 -5.429413265819565 -2.9529775199846533 0 0 0
1208 270 2 -1.125392060689037 -5.367276400794841 -2.60877374957483 0 0 0
1210 270 4 -1.1126337520011147 -5.305139535770118 -2.2645699791650076 0 0 0
1585 395 4 -1.115401155903633 -5.228366567686764 -1.862330662697708 0 1 0
1583 395 2 -1.1596838356274901 -5.238058087064952 -1.515278622322477 0 1 0
2709 770 4 -7.875513273541706 -2.931765803786438 -2.422052495223433 1 0 0
2708 770 2 -7.94431527811991 -2.6189140995336255 -2.563084744414998 1 0 0
13 3 3 -8.469025164681103 -1.6708904975597085 -1.9584533221979818 0 0 0
11 3 1 -8.122133965811189 -1.575120386862555 -2.2513604440703556 0 0 0
15 3 3 -8.045721951027817 -1.9320296352322794 -2.5237149785007826 0 0 0
1206 269 4 -8.496782344424881 -1.840493781268279 -1.5801938714029227 0 0 0
2710 770 4 -8.013117282698113 -2.3060623952808132 -2.704116993606563 1 0 0
12 3 3 -7.742130921561612 -1.4862670193844307 -2.0078388527303646 0 0 0
1066 222 4 -7.3770505030513736 -1.6250829822876245 -1.9424966399855088 0 0 0
33 7 3 -6.045360474023924 -2.020057164945215 -1.9718473792554316 0 0 0
1150 250 4 -5.609128798776985 -2.7255353471672867 -3.028578635477425 0 0 0
1050 217 4 -5.851008873198606 -2.447551255137284 -2.831928147019667 0 0 0
1051 217 4 -6.140018994075122 -2.0114211587922113 -2.366886547704622 0 0 0
1049 217 2 -5.995513933636865 -2.229486206964747 -2.5994073473621446 0 0 0
31 7 1 -6.11062684300409 -1.7982928449252567 -1.5695279943803342 0 0 0
1264 288 4 -2.1621347984011146 -2.6601636844879293 -2.397719683160035 0 0 0
1262 288 2 -2.2072606139947726 -2.788123311920978 -2.0750898728289657 0 0 0
57 12 3 -2.088579762133302 -2.3944278807546127 -2.651816779157255 0 0 0
56 12 1 -2.0156668365163557 -1.9494701243134078 -2.742900807729206 0 0 0
1398 333 4 -2.217229343059729 -2.739424482692056 -2.837138181660264 0 0 0
1263 288 4 -2.25238642958843 -2.916082939354027 -1.7524600624978963 0 0 0
59 12 3 -2.425404331153092 -1.7352390639277138 -2.781891040543886 0 0 0
60 12 3 -1.7751944597066243 -1.7643001451856781 -2.403364189937514 0 0 0
14 3 3 -8.228055635600638 -1.2017363974404323 -2.5056535747525337 0 0 0
1131 244 4 -8.356063509767461 -0.8976418867257596 -2.750063838374508 0 0 0
1064 222 2 -7.069483075352423 -1.4960275079878702 -1.8364449451763083 0 0 0
1065 222 4 -6.761915647653471 -1.3669720336881148 -1.730393250367107 0 0 0
35 7 3 -6.392931816387497 -1.446129580037245 -1.6302316752115291 0 0 0
1221 274 4 -6.483973426626601 -1.0675845334659566 -1.64121661252815 0 0 0
1745 449 2 -5.067212706403355 -1.3412446024647355 -1.5068395532310581 0 0 0
1746 449 4 -4.806097373095303 -1.1912254728220724 -1.6852016665080334 0 0 0
1692 431 4 -4.5298717862035405 -1.0063957205436007 -1.951852406171869 0 0 0
1691 431 2 -4.358280108231086 -0.8119287981664921 -2.1868820046307893 0 0 0
1572 391 4 -3.9428605332185955 -0.5415583041142908 -2.719616656254724 0 0 0
1693 431 4 -4.186688430258631 -0.6174618757893839 -2.4219116030897103 0 0 0
1571 391 2 -3.724294375738078 -0.5451005592417749 -2.992959457939262 0 0 0
1198 266 4 -1.554008303968778 -1.4606852260841665 -2.2230860147229374 0 0 0
128 26 3 -0.4280681926621539 -0.2251999448702899 -1.919182280834772 0 0 0
129 26 3 -0.13621574011227028 -0.45884926500603945 -2.5808696247824097 0 0 0
1196 266 2 -1.3370642076225634 -1.1899008165022709 -2.269032315856063 0 0 0
126 26 1 -0.5227133722037061 -0.32356837430482127 -2.3626526204067004 0 0 0
1197 266 4 -1.1201201112763488 -0.9191164069203752 -2.314978616989188 0 0 0
127 26 3 -0.8291965073332048 -0.6663039125831136 -2.3768102572926493 0 0 0
1827 476 4 -6.307389405774123 -10.434427188771727 -0.46705423056001183 0 1 0
1826 476 2 -6.0153285700044545 -10.501719866004168 -0.6478086601056051 0 1 0
1315 305 4 -6.576129436488223 -10.307706281972312 -0.18632980902896074 0 0 0
1828 476 4 -5.723267734234786 -10.56901254323661 -0.8285630896511995 0 1 0
2779 793 4 -1.221476738007213 -8.30247230324204 -0.668970658013971 0 0 0
2777 793 2 -1.2485627677401556 -7.954071597498792 -0.688548585152495 0 0 0
1170 257 4 -7.626814624975306 -7.130815606037537 -1.3050615050857992 0 0 0
1245 282 4 -7.580053989212855 -7.054744471542298 -0.8964891795529524 0 0 0
1244 282 2 -7.580606848001341 -7.078363320525434 -0.5472874551586026 0 0 0
1246 282 4 -7.581159706789827 -7.10198216950857 -0.19808573076425268 0 0 0
213 43 3 -3.221916385291958 -6.950547124074587 -0.8735330175333887 0 0 0
1357 319 4 -3.5011155368686855 -7.134364520429718 -0.64499000580382 0 0 0
1355 319 2 -3.640553819176448 -7.29044629150236 -0.36446291947205306 0 0 0
1356 319 4 -3.779992101484211 -7.446528062575003 -0.08393583314028608 0 0 0
211 43 1 -3.2675055794772487 -6.630930699174929 -1.2068001270832158 0 0 0
215 43 3 -3.0311200481470615 -6.257405056236673 -1.0972534491549668 0 0 0
218 44 3 -1.3566155101638209 -6.2327048328585395 -0.5645268123897519 0 0 0
1467 356 4 -1.4203088489935844 -6.529676637958417 -0.8140976768788817 0 0 0
2778 793 4 -1.2756487974730986 -7.605670891755544 -0.7081265122910188 0 0 0
1468 356 4 -1.3055180122764571 -7.20417957794773 -0.6662164821596535 0 0 0
1466 356 2 -1.362913430635021 -6.866928107953074 -0.740157079519268 0 0 0
1082 228 2 -7.035260196542499 -6.154260837637506 -1.307472741234016 0 0 0
1083 228 4 -7.296029567586764 -6.13622505328298 -1.074719555202153 0 0 0
212 43 3 -3.712452328806253 -6.521876084565238 -1.2483871598420886 0 0 0
2629 743 4 -2.7848198681545053 -5.94117416928532 -0.9977462463062893 0 0 0
219 44 3 -1.8594865924239847 -5.662883463425769 -0.5694544450741511 0 0 0
2627 743 2 -2.5245833716808654 -5.818780799118094 -0.79825482082076 0 0 0
2628 743 4 -2.2643468752072256 -5.696387428950867 -0.5987633953352308 0 0 0
39 8 3 -2.2590426057957433 -5.407099175795902 -0.308686454353301 0 0 0
36 8 1 -2.0717508720145568 -5.079113573759782 -0.03915491387196557 0 0 0
27 6 3 -1.33686661487716 -3.097434475853972 -1.1006927256555814 0 0 0
38 8 3 -2.0713452711252027 -4.67212311691833 -0.26199701834933803 0 0 0
216 44 1 -1.4084931193469035 -5.7717652107676845 -0.5765008865520681 0 0 0
217 44 3 -1.2057343363894535 -5.58962478694687 -0.2059421976189269 0 0 0
30 6 3 -1.974563695484466 -2.984645222947745 -1.4716657945081542 0 0 0
1584 395 4 -1.2039665153513472 -5.247749606443142 -1.1682265819472462 0 1 0
220 44 3 -1.2137937359401358 -5.603189790904633 -0.9520997123208443 0 0 0
124 25 3 -1.073043708034552 -4.89534743689474 -0.9911017516687823 0 0 0
125 25 3 -1.0667449919008494 -5.030420644183086 -0.25041588380862834 0 0 0
121 25 1 -1.065896102953454 -4.704315303354624 -0.5683067236745348 0 0 0
1395 332 4 -1.8280182252092103 -4.395115708568852 -0.44083693808229685 0 0 0
28 6 3 -1.9091476670342 -3.5762569037443517 -1.0105623762092526 0 0 0
1394 332 2 -1.9566688622369717 -4.15233303895311 -0.6576446614838746 0 0 0
1396 332 4 -2.085319499264733 -3.909550369337367 -0.8744523848854505 0 0 0
122 25 3 -0.6836237975945945 -4.452045593449794 -0.5255530335402784 0 0 0
123 25 3 -1.4347408356985722 -4.428292636183376 -0.5129438269494421 0 0 0
1256 286 2 -0.44863600782408886 -3.7584178791406617 -0.6810704174177623 0 0 0
1257 286 4 -0.5207472189178737 -4.100500286481741 -0.6643491787557065 0 0 0
1258 286 4 -0.37652479673030365 -3.416335471799584 -0.6977916560798164 0 0 0
1205 269 2 -8.685182350872138 -1.868705859463805 -1.2865793005544146 0 0 0
1056 219 4 -6.683282348572868 -2.8584973984963953 -0.6471378175023363 0 0 0
34 7 3 -6.286830389895117 -2.0899975360260887 -1.2546301010040275 0 0 0