LAMMPS data file via write_data, version 29 Aug 2024, timestep = 20000, units = lj

3400 atoms
4 atom types
2400 bonds
1 bond types

-10.791198 10.791198 xlo xhi
-10.791198 10.791198 ylo yhi
-10.791198 10.791198 zlo zhi
0 0 0 xy xz yz

Masses

1 1
2 1
3 1
4 1

Bond Coeffs # zero

1 0

Atoms # bond

1505 369 2 -1.5012193291674798 -5.545900571338482 -10.719660199772902 0 0 1
1641 414 4 -10.550581602367233 -9.341588495478074 -10.63160880847115 0 1 0
1640 414 2 -10.20909389994047 -9.29286467381284 -10.690900173669522 0 1 0
2371 657 4 -5.860942674115526 -7.6828129035987125 -10.664356399445694 1 0 0
2370 657 4 -6.437306898674767 -8.06515126610251 -10.772364403661907 1 0 0
2369 657 2 -6.149124786395143 -7.873982084850609 -10.7183604015538 1 0 0
54 11 3 -4.140387943102555 -8.029156076309798 -9.500800897790134 0 0 0
1029 210 4 -3.711599032180305 -8.301477665849234 -10.550927465765584 0 0 0
53 11 3 -3.924606082769386 -8.29778917002342 -10.178195063517503 0 0 0
52 11 3 -3.702968783612943 -8.638633090720894 -9.546065947403465 0 0 0
51 11 1 -3.795967368584047 -8.230808752247354 -9.737437275092464 0 0 0
55 11 3 -3.4232578664286315 -7.969506512435112 -9.722329536847818 0 0 0
1033 211 4 -0.04741018017440801 -7.69349233562237 -9.232684873877925 0 0 0
3096 899 4 -8.966232010671103 -0.02876257868341625 -6.990583602590739 2 0 0
2485 695 4 -7.965105858232182 -7.192344367156892 -10.657656101520589 1 0 1
208 42 3 -6.330334461359128 -0.006570262244533609 -0.23011379972673218 1 0 0
2425 675 4 -5.463398914601863 -7.508479542393125 -10.62083904834708 1 0 0
2292 631 4 -4.260794420241345 -7.2387614065170265 -9.638798906592834 1 0 0
2423 675 2 -5.123604162106235 -7.50572946052967 -10.70469696460287 1 0 0
2708 770 2 -10.617914330433752 -2.0112484627689398 -1.9220209474602488 2 0 0
2291 631 2 -3.954578540094918 -7.07647672443686 -9.687844347504141 1 0 0
2335 645 4 -3.860959665314481 -6.964685880007996 -10.742125983521117 1 0 0
589 118 3 -3.5178257025322583 -6.744652153949182 -10.618141310717837 1 0 0
2293 631 4 -3.6483626599484893 -6.914192042356696 -9.736889788415448 1 0 0
587 118 3 -3.2707628716588335 -6.811992733416957 -9.911514197990618 1 0 0
590 118 3 -3.10142928350184 -6.200948468882663 -10.305178690967926 1 0 0
586 118 1 -3.1666597185970753 -6.651005514656555 -10.329663693404042 1 0 0
588 118 3 -2.779611657898659 -6.8591740341422875 -10.478470788419312 1 0 0
2437 679 4 -2.400008296847144 -6.873129417245709 -10.622981567012875 1 0 0
2435 679 2 -2.0711792938927065 -6.8008979125055085 -10.718683431412154 1 0 0
1313 305 2 -6.706728721262359 -10.703327014443573 -0.08169645665324765 0 0 0
2754 785 4 -3.809445020687651 -5.521123190904585 -9.908932209306334 1 0 1
2753 785 2 -3.524512745607165 -5.676994073421759 -10.03935070427055 1 0 1
2755 785 4 -3.239580470526681 -5.832864955938934 -10.169769199234766 1 0 1
2751 784 4 -2.847471408252538 -5.872160633885719 -10.318569701323478 1 0 1
2750 784 2 -2.543047588652536 -5.745982637953563 -10.436522800312096 1 0 1
2752 784 4 -2.2386237690525306 -5.619804642021409 -10.554475899300714 1 0 1
1506 369 4 -1.8279421013023587 -5.528696387671685 -10.595341568707388 0 0 1
1078 226 4 -6.023623412742687 -4.436315887588621 -9.71392864003592 1 0 0
1076 226 2 -5.727142921964843 -4.251738206736645 -9.737195412802446 1 0 0
1077 226 4 -5.430662431187001 -4.067160525884672 -9.760462185568972 1 0 0
622 125 3 -5.231838291154277 -3.7711236728847277 -9.538266864497272 1 0 0
2317 639 4 -5.143842640149036 -3.80033897692316 -9.942279217833295 1 0 0
2315 639 2 -4.951681842113107 -3.716096031008788 -10.222423093956326 1 0 0
2316 639 4 -4.759521044077174 -3.631853085094418 -10.502566970079359 1 0 0
748 150 3 -4.5270339515478675 -3.3921810270078376 -10.72786521439831 1 0 1
749 150 3 -3.843612450431891 -3.143318832296287 -10.50732797311998 1 0 1
677 136 3 -3.124557362403377 -3.2556787233383115 -9.372296813391365 1 0 1
2179 593 4 -9.5419686118142 -1.5786318305744302 -9.46036327208247 2 0 0
2431 677 4 -3.4948013095110113 -3.101862046561659 -10.308462708547937 1 0 0
2429 677 2 -3.4043495281923644 -3.075380977011932 -9.97139045033508 1 0 0
2430 677 4 -3.313897746873714 -3.048899907462207 -9.634318192122228 1 0 0
1144 248 4 -5.266494626424741 -1.1107779429224998 -10.631104738082891 1 0 0
1225 275 4 -1.395242447832782 -10.284886778669005 -7.68698071813529 0 0 0
1020 207 4 -4.4737057210025135 -8.179759827491658 -8.149940705651565 0 0 0
1019 207 2 -4.541673410552516 -8.38091697735697 -7.871698134739089 0 0 0
1095 232 4 -4.499796711189838 -7.957002730003646 -8.519888397346323 0 0 0
1094 232 2 -4.3438549045553465 -7.912087184492403 -8.829995068569293 0 0 0
1021 207 4 -4.60964110010252 -8.58207412722228 -7.593455563826613 0 0 0
1096 232 4 -4.1879130979208545 -7.867171638981158 -9.140101739792264 0 0 0
1336 312 4 -0.5202883648738226 -7.961737055800617 -8.264756727476856 0 0 1
1335 312 4 -0.26257783405467805 -7.840740317813289 -8.904249736024871 0 0 1
1334 312 2 -0.3914330994642512 -7.901238686806953 -8.584503231750864 0 0 1
2246 616 2 -5.270382195434359 -6.793737401187446 -7.947954026639438 1 0 0
2247 616 4 -5.5623883968432715 -6.7344195689917425 -7.7643503533317775 1 0 0
2248 616 4 -4.978375994025448 -6.853055233383149 -8.131557699947098 1 0 0
2189 597 2 -6.940569501764612 -4.545299261370488 -7.878451930964893 1 0 0
2190 597 4 -6.673775788715158 -4.4159833651490805 -8.064477234695628 1 0 0
2305 635 4 -6.346297720511459 -4.239703516768772 -8.257744982163171 1 0 0
2303 635 2 -6.137312770007654 -4.114893414214619 -8.509246364453832 1 0 0
2304 635 4 -5.9283278195038545 -3.990083311660464 -8.760747746744496 1 0 0
621 125 1 -5.213785842715446 -3.580589014026379 -9.119971107359522 1 0 0
623 125 3 -5.236397902425033 -3.119251580242011 -9.164179460175069 1 0 0
624 125 3 -5.573399652867839 -3.733598393990963 -8.869817071186612 1 0 0
625 125 3 -4.822854496350471 -3.698341141339492 -8.91823387181716 1 0 0
3064 888 4 -4.483418710663897 -3.463629388268428 -8.886563606948577 1 0 0
3062 888 2 -4.205850267822422 -3.264813901922725 -8.809497411290357 1 0 0
678 136 3 -2.99859352290572 -3.620071185592945 -8.727128569280726 1 0 1
676 136 1 -3.1011939077357438 -3.208548542418429 -8.915314193114474 1 0 1
1181 261 2 -10.745492052002938 -1.8215296796472593 -7.83150035435494 1 0 0
1183 261 4 -10.520893072363007 -1.5881324461033124 -7.964133356771769 1 0 0
300 60 3 -9.647361802701028 -1.723720455639178 -7.822122297988043 1 0 0
2272 624 4 -5.248273755503619 -2.2938541892668756 -8.461988527905573 1 0 0
2271 624 4 -5.344720271816702 -2.7832004492650135 -8.953158299033896 1 0 0
2270 624 2 -5.2964970136601615 -2.5385273192659437 -8.707573413469735 1 0 0
567 114 3 -5.283977871213951 -2.3419660456713736 -8.071401857653727 1 0 0
566 114 1 -5.335068544509563 -2.1463295133326774 -7.658226240157354 1 0 0
3063 888 4 -3.9282818249809486 -3.065998415577024 -8.732431215632136 1 0 0
1236 279 4 -3.573501985082336 -2.238674324229148 -8.112035854691658 1 0 0
1235 279 2 -3.6349863108653047 -2.522881241641116 -8.30684242497275 1 0 0
1237 279 4 -3.6964706366482734 -2.807088159053082 -8.501648995253841 1 0 0
680 136 3 -3.503010120408189 -3.0620402249195173 -8.75889402165556 1 0 1
2500 700 4 -3.326089010208009 -1.9988811427223983 -7.893030569877967 1 0 1
679 136 3 -2.769600788495545 -2.900478367304582 -8.813043961282345 1 0 1
2724 775 4 -2.5265619125426184 -2.6029172685863067 -8.950800709804646 1 0 1
2226 609 4 -2.550991363948082 -3.1357150891449352 -7.758374542735863 1 0 0
2723 775 2 -2.3118368544402603 -2.5566926474909 -8.678296730158328 1 0 1
2725 775 4 -2.0971117963379005 -2.5104680263954897 -8.40579275051201 1 0 1
297 60 3 -10.240418174963306 -1.2870752147128304 -7.942842138696859 1 0 0
2177 593 2 -9.512429104525635 -1.4453670345755096 -9.138076600322453 2 0 0
296 60 1 -9.785745624223619 -1.32777957142744 -7.999519519556902 1 0 0
298 60 3 -9.689429599841917 -1.3152968553529742 -8.4532459191662 1 0 0
2178 593 4 -9.482889597237072 -1.3121022385765908 -8.815789928562435 2 0 0
299 60 3 -9.575427361860791 -0.9752416332799232 -7.783190930429129 1 0 0
2309 637 2 -10.729866868304157 -0.03739620666552668 -8.412222139701608 2 0 0
1767 456 4 -9.230243937087076 -0.7548609454269624 -7.781030493967208 1 0 0
330 66 3 -9.008576282249177 -0.8892381262185349 -8.083792427655911 1 0 0
326 66 1 -8.908643500861313 -0.8007136986277068 -8.519198713949478 1 0 0
329 66 3 -9.137914078955156 -1.093343330772818 -8.79689696354401 1 0 0
327 66 3 -8.456810561800832 -0.8561962770712981 -8.58525675560382 1 0 0
328 66 3 -9.022553044930712 -0.36280374827792805 -8.621909535250907 1 0 0
1696 432 4 -8.115376334847312 -0.6729976043112149 -8.548569616920645 1 0 0
1192 264 4 -7.13384580691971 -0.16808768421055653 -8.444394993310706 1 0 0
1694 432 2 -7.82085743394989 -0.4840230759984703 -8.556210010899335 1 0 0
1695 432 4 -7.526338533052468 -0.2950485476857274 -8.563850404878023 1 0 0
2683 761 4 -0.7730327907569983 -1.5452260967360552 -7.81800335219857 1 0 1
2681 761 2 -0.4724424193823129 -1.369092148273559 -7.784345524589931 1 0 1
1075 225 4 -5.148038667357763 -9.228498895668382 -6.904832667542411 0 0 0
13 3 3 -10.707024649508059 -0.8347562342156074 -1.6927219472801571 1 0 0
1223 275 2 -1.6035064247925703 -10.557653177105898 -7.618162344689698 0 0 0
617 124 3 -8.199235310931746 -7.8129561117232775 -6.593645859521222 1 0 0
2172 591 4 -7.961152816841219 -8.123460544713351 -6.498373776089627 1 0 0
2171 591 2 -7.789592431363714 -8.422202246064863 -6.436647131375295 1 0 0
2173 591 4 -7.618032045886207 -8.720943947416373 -6.374920486660964 1 0 0
1073 225 2 -4.918297537993464 -9.054574578248973 -7.103521712283268 0 0 0
1074 225 4 -4.688556408629163 -8.880650260829567 -7.302210757024125 0 0 0
619 124 3 -8.50278670456961 -7.157236171135285 -6.80040199049488 1 0 0
616 124 1 -8.194040752653882 -7.359091284496284 -6.518945092217042 1 0 0
618 124 3 -7.768510025753862 -7.1971565938395585 -6.608469043206371 1 0 0
1231 277 4 -7.515237137577483 -7.238243601492071 -6.920671885721374 0 0 0
1229 277 2 -7.19209745831384 -7.216874345931505 -7.053432887708195 0 0 0
1105 235 4 -5.904363789173899 -6.804274666418168 -7.5213016900959015 0 0 0
1230 277 4 -6.868957779050195 -7.19550509037094 -7.186193889695013 0 0 0
1104 235 4 -6.530439544592474 -6.990571570647248 -7.269615498977702 0 0 0
1103 235 2 -6.217401666883187 -6.897423118532708 -7.395458594536802 0 0 0
2212 604 4 -5.405981040124016 -6.987112799002134 -6.322778733127006 1 0 0
2399 667 2 -10.355532209568398 -5.289872527761689 -6.3956274866387055 1 0 0
2400 667 4 -10.093473285916799 -5.0579254829615605 -6.3894756443387735 1 0 0
2401 667 4 -10.617591133219994 -5.521819572561815 -6.401779328938641 1 0 0
2455 685 4 -9.712069299972717 -4.886526720804591 -6.3739748454686085 1 0 0
2453 685 2 -9.384440779591197 -4.7656393171750775 -6.3504438156897765 1 0 0
2454 685 4 -9.056812259209678 -4.644751913545566 -6.3269127859109435 1 0 0
97 20 3 -8.656830067988023 -4.7717257895922325 -6.260993216482261 1 0 0
96 20 1 -8.374767709720114 -5.134358254351056 -6.238232213809055 1 0 0
99 20 3 -8.218310099514765 -5.229672096764664 -6.664534108066166 1 0 0
2220 607 4 -8.024620346437448 -5.054079157356581 -6.9896234523002985 1 0 0
2219 607 2 -7.771766646194296 -4.967652625663189 -7.215676170646653 1 0 0
2221 607 4 -7.5189129459511435 -4.881226093969798 -7.441728888993008 1 0 0
2191 597 4 -7.207363214814068 -4.674615157591896 -7.692426627234158 1 0 0
2175 592 4 -6.05355577061163 -4.327731903071877 -6.16656546462577 1 0 0
2216 606 2 -5.579541216540984 -3.0780498240002103 -7.17412000754289 1 0 0
2217 606 4 -5.45557345524484 -3.4034647421165802 -7.139062112912544 1 0 0
577 116 3 -5.681209748123148 -4.156591836738811 -6.32710682924207 1 0 0
578 116 3 -5.399681250620848 -3.697853870233949 -6.851727654828412 1 0 0
576 116 1 -5.388722181393071 -3.809399800192872 -6.401464221159887 1 0 0
1839 480 4 -5.157408344909878 -3.670040606061992 -7.189010797026324 1 0 0
1840 480 4 -4.5514070935938635 -3.933064122519001 -7.420417871217855 1 0 0
1838 480 2 -4.85440771925187 -3.8015523642904956 -7.304714334122089 1 0 0
580 116 3 -4.968456064144415 -3.9394796161513064 -6.283800724798608 1 0 0
2442 681 4 -4.609794023525421 -3.7592600773241305 -6.368305889448979 1 0 0
2331 644 4 -4.134988191280786 -3.838259773785154 -7.426122393494694 1 0 0
2441 681 2 -4.308793946883021 -3.5818616599753152 -6.347343197443794 1 0 0
2330 644 2 -3.80776908571817 -3.7144055307081123 -7.416330112447127 1 0 0
2443 681 4 -4.007793870240625 -3.404463242626501 -6.32638050543861 1 0 0
527 106 3 -3.6257186117865876 -3.3068559685989545 -6.394961730342703 1 0 0
2332 644 4 -3.480549980155561 -3.590551287631074 -7.406537831399559 1 0 0
2227 609 4 -3.1378825491140656 -3.387478834356429 -7.47166335648357 1 0 0
528 106 3 -2.98475520390609 -3.6973028818855616 -6.434547885775188 1 0 0
529 106 3 -3.3135065756677173 -3.433290187364938 -7.066847239794107 1 0 0
526 106 1 -3.226190233285031 -3.346845856250515 -6.619404792660459 1 0 0
2187 596 4 -2.590644133910832 -3.712694319012842 -6.3792331749275375 1 0 0
2225 609 2 -2.844436956531073 -3.2615969617506826 -7.615018949609717 1 0 0
2186 596 2 -2.421712956270234 -3.9553462272082056 -6.191952343589079 1 0 0
2188 596 4 -2.2527817786296325 -4.197998135403569 -6.004671512250623 1 0 0
2218 606 4 -5.703508977837129 -2.752634905883843 -7.209177902173238 1 0 0
570 114 3 -5.495855705442025 -1.7235790871742775 -7.7112919513729175 1 0 0
568 114 3 -5.6335112997838594 -2.3990581392689148 -7.408475869139758 1 0 0
569 114 3 -4.922466840397623 -2.1333155610486916 -7.44634999154996 1 0 0
1107 236 4 -4.539898701198767 -2.0613847478645315 -7.381754952076037 1 0 0
1106 236 2 -4.341320704406697 -1.7883155826390134 -7.289500659205925 1 0 0
1108 236 4 -4.142742707614627 -1.5152464174134952 -7.197246366335814 1 0 0
2457 686 4 -3.7196711202873844 -1.8202801877486436 -6.096154758652045 1 0 0
117 24 3 -3.554580013633978 -1.6196746724143303 -6.419555914758041 1 0 0
2498 700 2 -3.1915834347865326 -1.8079749507371847 -7.632323432907707 1 0 1
2499 700 4 -3.0570778593650543 -1.6170687587519712 -7.3716162959374465 1 0 1
530 106 3 -2.9918851071983594 -2.9584018825697287 -6.579024245678409 1 0 0
1766 456 2 -9.165090692175854 -0.5435383891038317 -7.509736216308994 1 0 0
1768 456 4 -9.099937447264631 -0.332215832780701 -7.238441938650782 1 0 0
1234 278 4 -7.1193608886075594 -0.7182714173226987 -7.252716019864742 1 0 0
1232 278 2 -6.784982346098379 -0.6158637915584944 -7.238206816841075 1 0 0
1233 278 4 -6.450603803589196 -0.51345616579429 -7.223697613817407 1 0 0
80 16 3 -6.248907382691071 -0.1856238754302435 -7.345022274214679 1 0 0
1176 259 4 -6.046351823453888 -0.49019373608336103 -7.144361038068427 1 0 0
262 53 3 -5.084031360563604 -0.7806780261264148 -7.08737847639499 1 0 0
1175 259 2 -5.74393136080647 -0.6225483975534729 -7.028102267076921 1 0 0
1177 259 4 -5.441510898159052 -0.754903059023583 -6.911843496085417 1 0 0
261 53 1 -4.649411305116084 -0.6762519717339561 -7.196050844498779 1 0 0
264 53 3 -4.589150027357407 -0.21845574390480316 -7.150261025000877 1 0 0
263 53 3 -4.5699260711968135 -0.8033382925140042 -7.6351739982958655 1 0 0
120 24 3 -3.895143519917915 -1.2782486075506547 -6.989136009039962 1 0 0
265 53 3 -4.367251963207149 -0.8988376387684571 -6.9163560730356375 1 0 0
134 27 3 -2.0865734868881844 -0.2892618658277435 -6.250939040483882 1 0 0
116 24 1 -3.509957705428606 -1.2998248283466847 -6.747134577562903 1 0 0
118 24 3 -3.425989432768006 -0.8900646981783904 -6.546254402826917 1 0 0
119 24 3 -3.155791706336511 -1.416340810364959 -7.023326933876202 1 0 0
1561 387 4 -2.7639471202682397 -1.4512383381691052 -7.122148637340011 1 0 0
1559 387 2 -2.447177474042247 -1.3450873523144757 -7.0177662422662905 1 0 0
1560 387 4 -2.1304078278162564 -1.2389363664598463 -6.913383847192568 1 0 0
1712 438 2 -2.0391867511023687 -0.2979620049994427 -6.918129064747694 1 0 0
1714 438 4 -2.1568109233269794 -0.13539922948219107 -6.631364224507521 1 0 0
1713 438 4 -1.9215625788777562 -0.4605247805166961 -7.204893904987867 1 0 0
2682 761 4 -0.17185204800762932 -1.1929581998110645 -7.750687696981292 1 0 1
1116 239 4 -2.1962185456694883 -9.610526178184521 -5.691290074668918 0 0 0
1115 239 2 -2.0314219977649532 -9.311525325035092 -5.76842918007116 0 0 0
2228 610 2 -10.123762446184898 -8.952933094681907 -4.601707415551779 1 0 0
2229 610 4 -10.44102015041925 -9.084350187123075 -4.533991572777955 1 0 0
2230 610 4 -9.806504741950548 -8.821516002240735 -4.6694232583256 1 0 0
2358 653 4 -8.35951535193988 -7.745029676452384 -5.170247307228963 1 0 0
2405 669 2 -9.067588895813497 -8.783712574680848 -4.6857715746023 1 0 0
2406 669 4 -8.720536093983672 -8.772451373930819 -4.641858936961075 1 0 0
519 104 3 -8.384005421446766 -7.864725772666504 -4.800017217723074 1 0 0
517 104 3 -7.743150232467856 -8.246137637195103 -4.893187647295907 1 0 0
2470 690 4 -7.4954571974651 -7.976869861751686 -5.05301059891577 1 0 0
2357 653 2 -8.398191842974773 -7.5123995827642265 -5.428869751242434 1 0 0
2468 690 2 -7.292712144281545 -8.041207067995119 -5.330954043614553 1 0 0
508 102 3 -7.362091958055441 -7.7259625400040015 -4.785724304953588 1 0 0
2469 690 4 -7.089967091097986 -8.105544274238554 -5.608897488313335 1 0 0
2224 608 4 -6.795529968153243 -8.023133408737298 -5.895255821387792 1 0 0
2222 608 2 -6.505895208517309 -7.868804619747623 -6.016924512749583 1 0 0
1117 239 4 -1.8666254498604182 -9.012524471885662 -5.845568285473402 0 0 0
1090 230 4 -1.5745657180870438 -8.726471652674642 -5.7525032752703416 0 0 0
1088 230 2 -1.3857033453500147 -8.433468130270594 -5.721023017448671 0 0 0
1089 230 4 -1.196840972612982 -8.140464607866546 -5.689542759627 0 0 0
362 73 3 -0.8553489004898349 -7.910462209035091 -5.757432845510412 0 1 0
361 73 1 -0.40127842989304163 -7.867751416029181 -5.697435557101279 0 1 0
364 73 3 -0.2931241164556653 -8.00568997870068 -5.267816407746254 0 1 0
365 73 3 -0.18460842101537445 -8.126761804602637 -6.002978518460863 0 1 0
498 100 3 -10.514970787200202 -7.35454221056389 -5.036231359565204 1 0 0
2359 653 4 -8.436868334009668 -7.27976948907607 -5.687492195255906 1 0 0
620 124 3 -8.303166689549677 -7.277342183337413 -6.084426013119417 1 0 0
2223 608 4 -6.216260448881373 -7.7144758307579515 -6.1385932041113715 1 0 0
2211 604 4 -5.9347880205594175 -7.414601395662627 -6.156460101787181 1 0 0
2210 604 2 -5.67038453034172 -7.200857097332378 -6.239619417457095 1 0 0
65 13 3 -3.7892475858165326 -6.395249937618637 -4.830402882637886 0 0 0
1173 258 4 -3.4087605275444295 -6.478209093476009 -5.801827546228125 0 0 0
1172 258 2 -3.4512330224911167 -6.4467159567305 -5.455844884838053 0 0 0
45 9 3 -3.227547248005677 -6.459627276328722 -4.803030827477791 0 0 0
1174 258 4 -3.493705517437802 -6.415222819984991 -5.109862223447982 0 0 0
363 73 3 -0.28349881021850365 -7.422672776090646 -5.755258110809384 0 1 0
18 4 3 -10.094413203703345 -5.223055723022733 -4.826184783284562 1 0 0
16 4 1 -9.936686506429327 -5.656532460268026 -4.776119514042358 1 0 0
20 4 3 -9.787297825675449 -5.8146921502847535 -5.176199267107581 1 0 0
2488 696 4 -9.465383321217 -5.772513922923453 -5.448643341234626 1 0 0
2486 696 2 -9.15240534192209 -5.697348987689634 -5.586119600730872 1 0 0
2487 696 4 -8.83942736262718 -5.6221840524558155 -5.723595860227118 1 0 0
98 20 3 -8.610454913337986 -5.49746229319785 -6.071127116637661 1 0 0
112 23 3 -8.485190379731046 -5.639047614271657 -5.519747496417116 1 0 0
100 20 3 -8.025588987194226 -5.035733124482789 -5.962997421393886 1 0 0
113 23 3 -8.32463108429576 -5.276858287297739 -4.881036894238022 1 0 0
111 23 1 -8.145166848882528 -5.51781127752222 -5.234626480679534 1 0 0
115 23 3 -7.844203141321879 -5.26131646922258 -5.46056164508373 1 0 0
2341 647 4 -7.6524058090993705 -5.081660052431226 -5.78227478162854 1 0 0
114 23 3 -7.938455221633177 -5.901703921607703 -5.075941672054121 1 0 0
2339 647 2 -7.344558961246858 -4.930759839714871 -5.852764033806423 1 0 0
2340 647 4 -7.036712113394344 -4.779859626998518 -5.923253285984305 1 0 0
2176 592 4 -6.638168994152101 -4.687185794072215 -6.028499154060497 1 0 0
2910 837 4 -1.581271009538911 -4.873289177257985 -5.857169240948069 1 0 0
2909 837 2 -1.5053612118003112 -4.532032876050032 -5.8402275979393865 1 0 0
579 116 3 -5.519455663321833 -3.445563516418508 -6.144905454263341 1 0 0
2174 592 2 -6.345862382381867 -4.5074588485720435 -6.097532309343134 1 0 0
2426 676 2 -1.1623064896306232 -3.5815193322020615 -5.44573992720454 1 0 0
2428 676 4 -1.272861234764509 -3.882301475103013 -5.586503560697736 1 0 0
2911 837 4 -1.4294514140617132 -4.190776574842078 -5.823285954930704 1 0 0
2427 676 4 -1.0517517444967392 -3.2807371893011092 -5.304976293711344 1 0 0
2458 686 4 -4.27387786415313 -2.0112376660348286 -5.713517473275976 1 0 0
2456 686 2 -3.9967744922202577 -1.915758926891737 -5.90483611596401 1 0 0
2322 641 4 -3.7651655528685177 -3.1613546562823593 -6.034840997002437 1 0 0
2321 641 2 -3.705495177778551 -2.9684195388835617 -5.748977762323877 1 0 0
2323 641 4 -3.6458248026885824 -2.7754844214847676 -5.463114527645316 1 0 0
630 126 3 -0.757031987627224 -3.0544412345267418 -5.177233747885349 1 0 0
2373 658 4 -0.17564924028255824 -2.206348091712444 -5.097141673931902 1 0 0
629 126 3 -0.5449644996303231 -2.352317856189149 -5.006998861023689 1 0 0
626 126 1 -0.607767255549696 -2.7822084415033856 -4.844040902268354 1 0 0
627 126 3 -0.2060627363124361 -2.941677564550898 -4.68659165371194 1 0 0
131 27 1 -2.0860877441958063 -0.1392347989096816 -5.811858572237052 1 0 0
135 27 3 -2.466089719226593 -0.2751306608460329 -5.600810848639259 1 0 0
132 27 3 -1.7208936064325258 -0.31563908228386595 -5.594828883306292 1 0 0
1267 289 4 -0.5231783689676792 -10.366124298122278 -4.428515573101061 0 0 0
1248 283 4 -0.8286741839330922 -10.620201171293225 -4.555380841535925 1 0 0
1265 289 2 -0.3156347079027739 -10.113852367241154 -4.3028375221416395 0 0 0
2407 669 4 -9.414641697643324 -8.794973775430881 -4.729684212243525 1 0 0
520 104 3 -8.35523029572299 -8.603962467058082 -4.660028496696923 1 0 0
516 104 1 -8.123682206415259 -8.212464211873545 -4.636947614403657 1 0 0
518 104 3 -8.00157133538708 -8.126403031328037 -4.197647591518285 1 0 0
2389 663 4 -7.654354490991751 -8.21370570093071 -3.9702026788263307 1 0 0
2387 663 2 -7.660863537192284 -8.444814022143612 -3.7074349553354455 1 0 0
2388 663 4 -7.667372583392815 -8.675922343356513 -3.4446672318445613 1 0 0
509 102 3 -7.313053855876783 -7.999361045599602 -4.07830233785309 1 0 0
500 100 3 -10.67322502723377 -6.774593899316768 -4.58291337781955 1 0 0
496 100 1 -10.38873016092499 -7.1228993536905065 -4.654510598866321 1 0 0
497 100 3 -9.962316514633269 -6.960609514092555 -4.713223889326104 1 0 0
2233 611 4 -10.22430297995281 -7.489684989584179 -3.933041068080154 1 0 0
499 100 3 -10.391755965822618 -7.407654589268323 -4.2881699488863845 1 0 0
1063 221 4 -10.653207340471006 -6.010909093078289 -4.468070611825729 1 0 0
2232 611 4 -9.781686793105306 -7.3606332048164145 -3.406307765635928 1 0 0
2231 611 2 -10.002994886529056 -7.4251590972002965 -3.669674416858042 1 0 0
2383 661 4 -9.624627283065616 -6.830705832109642 -4.534723039541769 1 0 0
560 112 3 -9.47236855240856 -7.223699113923829 -3.1971344683074623 1 0 0
2381 661 2 -9.328023012544643 -6.657144149331475 -4.468296053263053 1 0 0
2382 661 4 -9.03141874202367 -6.483582466553312 -4.4018690669843386 1 0 0
556 112 1 -9.040218365007618 -7.296180667024883 -3.0730926392603033 1 0 0
559 112 3 -8.797874864497043 -7.461277446101768 -3.432682237274112 1 0 0
2386 662 4 -8.614976253185613 -6.40243818862653 -4.282346963901293 1 0 0
2239 613 4 -8.516394336021738 -7.324370940330518 -3.6438939905247576 1 0 0
2237 613 2 -8.21966109294041 -7.340145783262127 -3.8288253307412976 1 0 0
2384 662 2 -8.291527658342327 -6.2892895969798985 -4.211032714800036 1 0 0
510 102 3 -7.563414259620989 -7.299589029506507 -4.198733852798761 1 0 0
2238 613 4 -7.922927849859081 -7.355920626193736 -4.013756670957834 1 0 0
506 102 1 -7.273690033301977 -7.620084049679772 -4.342693022935239 1 0 0
507 102 3 -6.843370811617373 -7.460619623546412 -4.310909566328272 1 0 0
1145 249 2 -6.137152689649372 -7.24138447597858 -4.4234052856726125 0 0 0
1147 249 4 -6.4234660549892215 -7.410362864244494 -4.3139491894719475 0 0 0
1146 249 4 -5.850839324309527 -7.072406087712665 -4.532861381873279 0 0 0
2467 689 4 -5.434275224890488 -6.937228794982333 -4.518873990697683 1 0 0
2465 689 2 -5.145237057674538 -6.739865752528329 -4.522895938807605 1 0 0
2466 689 4 -4.856198890458586 -6.542502710074327 -4.526917886917528 1 0 0
64 13 3 -4.470858404697486 -6.376461737537318 -4.511105006242708 0 0 0
61 13 1 -4.013343700780638 -6.383658556921967 -4.434112519856375 0 0 0
63 13 3 -3.9016340445280893 -6.754190281715449 -4.178145893410221 0 0 0
42 9 3 -2.633793013709596 -6.5248904111346455 -4.355606104875753 0 0 0
41 9 1 -2.939806704496039 -6.2313121259002395 -4.533789838233285 0 0 0
17 4 3 -10.280159658880166 -5.923420979951413 -4.626402966184167 1 0 0
2478 693 4 -9.746569929458024 -5.7187053068141305 -3.424007070711916 1 0 0
2479 693 4 -9.485863035620957 -5.610696414414963 -4.064609620101615 1 0 0
2477 693 2 -9.61621648253949 -5.6647008606145475 -3.7443083454067674 1 0 0
19 4 3 -9.5932116001395 -5.6650608527325 -4.46426751483022 1 0 0
2392 664 4 -9.22975630213748 -5.482052984027432 -4.372094422631629 1 0 0
2391 664 4 -8.615756850905003 -5.24059051677999 -4.606039291732472 1 0 0
2390 664 2 -8.922756576521241 -5.361321750403712 -4.489066857182049 1 0 0
2364 655 4 -7.680314946094645 -4.709070097975465 -4.306465057421626 1 0 0
2385 662 4 -7.968079063499042 -6.1761410053332675 -4.139718465698781 1 0 0
2363 655 2 -7.961855520085683 -4.866464953986237 -4.4423717417974125 1 0 0
2365 655 4 -8.243396094076724 -5.023859809997008 -4.578278426173197 1 0 0
565 113 3 -7.711453505081869 -5.891197547632219 -3.998152860317118 1 0 0
561 113 1 -7.531440468540158 -5.778326272192446 -3.595338454680485 1 0 0
563 113 3 -7.641926185909577 -6.097796663302349 -3.277472706566824 1 0 0
564 113 3 -7.688243292827794 -5.362214984223361 -3.4628574405555774 1 0 0
2202 601 4 -7.725739686272475 -5.020096789373791 -3.2570030906296132 1 0 0
521 105 1 -7.124518629770714 -4.752295536578476 -3.7484848000825117 1 0 0
522 105 3 -7.291087521813569 -4.761135677870833 -4.177176939738908 1 0 0
525 105 3 -7.470854005567912 -4.758678027151161 -3.452830418445002 1 0 0
562 113 3 -7.073469637074476 -5.759200237575708 -3.634051038628871 1 0 0
2282 628 2 -6.422832851628796 -5.573443249062725 -3.5012983416632766 1 0 0
2284 628 4 -6.732544387816768 -5.51666806853926 -3.654111385644091 1 0 0
523 105 3 -6.854978696725841 -5.12451416040406 -3.6845985446796607 1 0 0
2308 636 4 -5.6846590582610705 -5.586961297714835 -3.300489735286427 1 0 0
2283 628 4 -6.113121315440825 -5.630218429586191 -3.348485297682462 1 0 0
2306 636 2 -5.354016476840201 -5.4801250756890525 -3.258435367840356 1 0 0
2367 656 4 -4.765329637493338 -5.104965529121953 -3.075222636189431 1 0 0
2366 656 2 -4.490261436166563 -4.897621902664046 -3.0131137681925413 1 0 0
2368 656 4 -4.2151932348397905 -4.690278276206141 -2.9510049001956506 1 0 0
1081 227 4 -3.534133096604947 -5.911426642043288 -4.009603360342462 0 0 0
1079 227 2 -3.481966273964481 -5.697598975767324 -3.7374662951796838 0 0 0
1080 227 4 -3.42979945132402 -5.4837713094913605 -3.4653292300169074 0 0 0
62 13 3 -3.8951735225280055 -6.00307527618928 -4.204327471019735 0 0 0
43 9 3 -3.17344578106007 -6.029598558955276 -4.187358037193884 0 0 0
44 9 3 -2.7134172927298135 -5.9099784124233965 -4.780380647268799 0 0 0
2438 680 2 -6.942653958953944 -3.72737476207479 -3.3830489659069016 1 0 0
2439 680 4 -7.082932824051248 -3.450947088945867 -3.220562580694624 1 0 0
524 105 3 -6.875457885314534 -4.364830989376131 -3.6922774235866473 1 0 0
2440 680 4 -6.802375093856643 -4.003802435203711 -3.545535351119179 1 0 0
2356 652 4 -6.506934040715189 -4.2118884507933085 -3.7807386755679104 1 0 0
2354 652 2 -6.186993984415483 -4.240927326561336 -3.919638804872105 1 0 0
2355 652 4 -5.867053928115774 -4.269966202329364 -4.058538934176298 1 0 0
688 138 3 -3.69842468552633 -4.010836198710221 -4.056355623596093 1 0 0
690 138 3 -3.8874334742562864 -3.343539471998916 -3.763327422118601 1 0 0
689 138 3 -3.4831008629581586 -3.826724211592051 -3.351127748342707 1 0 0
686 138 1 -3.5646564125441103 -3.6644380328471406 -3.778104610934853 1 0 0
687 138 3 -3.1766679306039842 -3.4815257526021135 -3.944303975718145 1 0 0
2243 615 2 -2.5613812928483792 -3.1587493747443034 -4.040855096144995 1 0 0
2244 615 4 -2.9090840363342005 -3.1931746949374764 -4.020358914895652 1 0 0
2185 595 4 -3.28054816313365 -4.175226173152162 -2.7484508746510485 1 0 0
1148 250 2 -10.26751019010274 -2.461173955088652 -3.379480886746993 1 0 0
1150 250 4 -10.040119165570896 -2.313270921158731 -3.158291509374557 1 0 0
1149 250 4 -10.494901214634584 -2.60907698901857 -3.6006702641194295 1 0 0
2245 615 4 -2.213678549362559 -3.124324054551127 -4.061351277394339 1 0 0
2193 598 4 -1.8241082069185754 -2.980245728472174 -4.1423892324069485 1 0 0
2192 598 2 -1.555970343019835 -2.7990905385412947 -4.275785625498637 1 0 0
628 126 3 -0.9138521119684331 -2.7763235146730647 -4.495361869274505 1 0 0
2194 598 4 -1.2878324791210982 -2.617935348610416 -4.409182018590327 1 0 0
1217 273 2 -10.758032125086254 -10.384457051598966 -2.160562197636853 0 0 0
1219 273 4 -10.415973999773882 -10.311844000426401 -2.145444286694085 0 0 0
2659 753 4 -10.040239652306717 -10.201655758916955 -2.096663655339377 1 0 0
2657 753 2 -9.717871752688591 -10.065606578059853 -2.1055140268963015 1 0 0
2658 753 4 -9.395503853070462 -9.929557397202755 -2.114364398453226 1 0 0
2241 614 4 -9.061404811022252 -9.733727897337857 -2.252931001262672 1 0 0
2242 614 4 -8.385052362857692 -9.557907998047813 -2.2936558316569045 1 0 0
2240 614 2 -8.723228586939971 -9.645817947692835 -2.273293416459788 1 0 0
2711 771 2 -9.371405954143317 -7.908255057629489 -2.238356617130977 1 0 0
2713 771 4 -9.275799403576821 -7.8846279184606844 -2.5742161079299066 1 0 0
2712 771 4 -9.46701250470981 -7.931882196798295 -1.9024971263320474 1 0 0