LAMMPS data file via write_data, version 4 Feb 2025, timestep = 1000, units = lj

91 atoms
4 atom types
68 bonds
1 bond types
78 angles
2 angle types

-3 3 xlo xhi
-3 3 ylo yhi
-3 3 zlo zhi
0 0 0 xy xz yz

Masses

1 1
2 1
3 0.1
4 0.1

Bond Coeffs # harmonic/omp

1 100 0.45

Angle Coeffs # harmonic/omp

1 100 180
2 100 109.471

Atoms # full

56 12 2 0 0.6006372210240016 -2.405220116941972 -2.5134666636858345 0 0 0
57 12 4 0 0.18297669635005764 -2.365707313568992 -2.6764956715255925 0 0 0
58 12 4 0 1.0257821729125194 -2.443310559977178 -2.3487121563525704 0 0 0
7 2 3 0 1.230771013731971 -1.0539732919915836 -2.827254707587918 0 0 0
75 18 4 0 -1.0661735385976605 -0.5798113777223142 -2.998322131460289 1 0 1
9 2 3 0 1.4368149185588832 -0.36045445831613243 -2.6202408808504174 0 0 0
6 2 1 0 1.29004289015678 -0.607818566662031 -2.9685726923282343 0 0 0
61 13 4 0 -0.62148317976277 -2.1038284121689443 -1.2375942549770849 0 0 0
59 13 2 0 -0.17855361553742632 -2.060682183270117 -1.0636872438647693 0 0 0
60 13 4 0 0.23555913722922694 -2.02826466481526 -0.8972842536390035 0 0 0
30 6 3 0 2.326316507942373 -2.8680824721143168 -0.7372406471992101 1 1 0
2 1 3 0 -2.603326238102297 -0.5283517650014473 -0.5060345170320524 1 0 0
1 1 1 0 -2.9062396239526267 -0.6474480415592656 -0.18744282406986779 1 0 0
5 1 3 0 2.769747625505932 -0.9047835681747785 -0.3866374617191983 0 0 0
33 7 3 0 2.688691851649919 -0.24713790120467927 -0.4442275084142038 0 0 0
4 1 3 0 2.9056899280948745 -0.2957876141720952 -0.018900017341765274 0 0 0
72 17 4 0 2.6645420087477536 -2.5511198021496946 0.6991319889370069 0 0 0
64 14 4 0 -2.2992857143151983 -1.671738859199627 0.2423536332759646 1 0 0
62 14 2 0 -1.8717006801721774 -1.5647286030910643 0.24284278132066328 1 0 0
63 14 4 0 -1.4396624133212492 -1.4563717831249416 0.2518555726888936 1 0 0
70 16 4 0 1.2410377100308096 -1.1770273243746319 0.49973377095275984 0 0 0
68 16 2 0 1.6897495283004487 -1.2249726174778732 0.46563756216284213 0 0 0
69 16 4 0 2.107639274158391 -1.2742229146190638 0.4262180412541663 0 0 0
3 1 3 0 -2.702333696041663 -0.8825298060839577 0.13722972666064326 1 0 0
79 19 4 0 -1.9392651556667593 -0.48857114281842584 0.8964476127115373 1 0 0
14 3 3 0 0.8689608801508442 -0.5124738907500257 0.6428005308682767 0 0 0
11 3 1 0 1.0975672077613137 -0.36490851519155587 0.9923424108060943 0 0 0
15 3 3 0 1.5314953951696193 -0.3535158581285107 0.8920473525689729 0 0 0
73 17 4 0 -2.94651936239346 -2.7676357437522463 1.5250585645009869 1 0 0
71 17 2 0 2.860360157990109 -2.659562404765159 1.1145768202897948 0 0 0
77 19 2 0 -1.702180599780485 -0.2963272221135371 1.2359438278370742 1 0 0
78 19 4 0 -1.4668705766110466 -0.10557325696281294 1.575612158375491 1 0 0
13 3 3 0 1.0383455922680813 -0.6328548066418929 1.3415557819060595 0 0 0
65 15 2 0 0.6118137124258016 -2.799889839500203 2.308934171311524 0 0 0
66 15 4 0 1.0093342760297679 -2.5987429207951043 2.265470793060519 0 0 0
81 20 4 0 -1.5313898945740936 -1.407444540931093 2.8455221435182505 1 0 0
80 20 2 0 -1.5343773236743252 -1.6867048713706454 2.4906262692250136 1 0 0
82 20 4 0 -1.5335877667432283 -1.9728328631323127 2.1255363123302304 1 0 0
76 18 4 0 -1.6180895439619074 -0.4686892751207936 2.277999157281995 1 0 0
74 18 2 0 -1.33440412501803 -0.5224977288099732 2.65364630678281 1 0 0
8 2 3 0 0.8921342472158065 -0.4318566172025222 2.8761607747652373 0 0 -1
10 2 3 0 1.5894113778224774 -0.5874615538696313 2.700329915827968 0 0 -1
38 8 3 0 -2.517848094901216 1.4198884101541633 -2.463651786613051 1 0 0
36 8 1 0 -2.2050008866334316 1.6641545522086343 -2.2712295115174195 1 0 0
37 8 3 0 -1.835258382096809 1.4029167410561234 -2.1685841113299813 1 0 0
40 8 3 0 -2.0680201541486727 2.01112154438343 -2.5693043610495514 1 0 0
25 5 3 0 -2.810759915452833 2.0396103910122445 -2.300150210499774 2 0 0
23 5 3 0 2.549503241085988 2.3438528431082144 -2.0901733735785215 1 0 0
21 5 1 0 2.972477492609661 2.4361568356804035 -2.1874185159034942 1 0 0
24 5 3 0 2.9890650561073207 2.706776387930714 -2.537845396937021 1 0 0
85 21 4 0 -1.1918009571238908 0.885373824239851 -1.1479527542354788 1 0 0
19 4 3 0 0.30885862942857 0.47629882003348234 -1.3966766811578808 1 0 0
16 4 1 0 0.7088031781604416 0.45420479255343427 -1.2215620416613486 1 0 0
20 4 3 0 0.7655191089001248 0.053000329296288395 -1.0209046612219494 1 0 0
17 4 3 0 1.0159690902450151 0.5043529641691076 -1.5401191337844948 1 0 0
35 7 3 0 2.660091585270563 0.08415769483497693 -1.0827786380688054 0 0 0
39 8 3 0 -2.366404319695085 1.8546372206797654 -1.903165284076386 1 0 0
83 21 2 0 -0.7894083014648539 1.01992415162219 -1.3367403091287955 1 0 0
84 21 4 0 -0.40357138020334915 1.152981360488349 -1.5136140500832154 1 0 0
22 5 3 0 -2.8282766848540106 2.6216505471417335 -1.849952999872646 2 0 0
18 4 3 0 0.7536773943673181 0.7824041696526876 -0.9115624815093848 1 0 0
31 7 1 0 2.4975140394537814 0.08511312943471872 -0.6802135485462073 0 0 0
32 7 3 0 2.5959321294223274 0.4948382602108472 -0.4804517091253757 0 0 0
34 7 3 0 2.053890726423968 0.019514950597222747 -0.6969821740508553 0 0 0
55 11 3 0 2.761473230943758 1.1789026470134463 -0.22512943839511168 1 0 0
29 6 3 0 1.8282865210297174 2.624080155334072 -0.5498916499293687 1 0 0
26 6 1 0 2.260740199193277 2.706887331265599 -0.5582934879003356 1 0 0
27 6 3 0 2.441661920693879 2.6892205360296426 -0.13832814462139442 1 0 0
28 6 3 0 2.468757873655046 2.400071971902907 -0.8309211288125216 1 0 0
53 11 3 0 2.885208987389138 0.8105731254010138 0.38854774771379486 1 0 0
52 11 3 0 -2.7726720885334784 1.4221829795100378 0.27577967164427886 2 0 0
51 11 1 0 2.8489167478099375 1.2103933106967082 0.21577663153252047 1 0 0
54 11 3 0 2.5200750513758265 1.4278391842451708 0.41998731919363674 1 0 0
12 3 3 0 0.9661091941904565 0.05185363794143738 1.104121250025825 0 0 0
48 10 3 0 0.4326335210725256 1.1772995950982068 1.8153238572129151 1 0 0
47 10 3 0 0.9718634704137346 1.6274300381995426 1.669580049396303 1 0 0
46 10 1 0 0.7907266162277882 1.3707830747192364 1.9770898509447772 1 0 0
44 9 3 0 0.4978330485498792 2.8703279237462596 1.475696725481395 1 0 0
42 9 3 0 0.15970889137553357 2.3777395140424176 1.9238412084903809 1 0 0
43 9 3 0 0.21260876878560175 2.26936980676561 1.189656476113644 1 0 0
41 9 1 0 0.42334751676359517 2.4343436135470764 1.5458558414457553 1 0 0
45 9 3 0 0.8137815190627347 2.227919412344777 1.597420174071634 1 0 0
88 22 4 0 -1.8432260829175604 0.5642217438593149 2.0436397533824042 1 0 0
86 22 2 0 -1.4963504826092653 0.7815421283101385 2.259777724670177 1 0 0
87 22 4 0 -1.135444565672665 0.9936870929132771 2.4857280258616683 1 0 0
89 23 2 0 1.6598868547015435 0.8892525779045268 2.5750083642283297 1 0 0
90 23 4 0 1.7615829236307405 0.5231724750619509 2.8181645440017977 1 0 0
50 10 3 0 0.6791220122484818 1.6129320205935116 2.336432559693989 1 0 0
49 10 3 0 1.0781056571815455 1.0631464766086882 2.0959192003946505 1 0 0
91 23 4 0 1.5533699914902641 1.2673727931108658 2.325847204212641 1 0 0
67 15 4 0 0.21000448712302733 2.9993998227511707 2.357097731915335 0 -1 0

Velocities

56 0.565142106500951 0.350851206785399 -0.221705707185531
57 1.5701734243153986 0.39955860193203446 1.3017143971318974
58 -0.9142474132925975 -0.44902055415272535 -1.1068529557955464
7 1.5036898708895508 0.3583248182435106 -1.3020942906115154
75 -0.01838988803811592 -0.6664910451726345 -0.8898825301118023
9 1.4308955891250017 0.31245516032602233 -0.024830114353103495
6 1.6314138363040906 0.13322757661575022 0.07543766467002702
61 1.5163763970053281 0.12185342190411452 0.1274374960465622
59 0.3826923144614106 -0.1062663093847951 0.1692084451200631
60 0.11964563415711194 0.13096012986351743 -0.20360651274747174
30 2.065976480342777 -1.093089131473104 -0.6372620230586661
2 0.6034680875129115 -0.639157256842417 0.13282588143869883
1 1.70450935408669 -0.3892278311653349 0.5373455244556257
5 2.291163674060314 0.6607444810764534 1.896697124173888
33 2.1960678290917843 0.9931490674009855 -0.6909134862385434
4 2.867521723360395 -0.05835916043712992 -0.13767527846017372
72 0.2578101926909339 1.1633102185665178 -0.036301394637608
64 2.2729003504583014 -0.11922466182784146 -0.14811533356712475
62 0.8993203542455536 0.08945127944569445 -0.07378675628862724
63 -0.2948479599343472 -1.425791143264675 -2.3814514940812592
70 3.4534021693645665 0.4653901575641135 0.1951130597053072
68 1.48353880908634 -0.3598714699065096 -0.4122131511565167
69 0.751301305314462 -0.7492623960669876 0.09284028076283779
3 2.7945652864880306 -0.12513449651103511 0.48941688783296583
79 2.8211393883246356 0.22567933408276447 1.1107229194316324
14 1.600200031029218 0.11330955763647167 0.0920899988972278
11 1.5063927452239807 0.5634583522510832 0.2092263802841343
15 0.43540973292039764 -0.22019580921791912 0.6389992600039662
73 -0.42200757364246977 -0.8812427723924313 -1.2717132478057525
71 -0.20055195456690778 -0.08726783580878104 -0.10915927507222595
77 1.8674422446809862 0.06208306494253689 -0.12965337162037605
78 1.0998248764124332 0.29675747606958697 -2.22235415515398
13 1.2904295162512671 0.9087865310833371 0.3587470751917903
65 0.010750003112145273 0.1429732902835196 -0.09336647366223247
66 -1.783172806240024 -0.5412715959723563 -0.33951222691339195
81 1.047310339127971 0.7363958609898776 -1.3944546658872714
80 0.75185511045518 -0.12687558119057693 0.02491159840390026
82 2.509273385768578 0.08286027154761903 1.2210526731509392
76 3.451254671882081 0.03680416525385618 1.9141362451973858
74 1.514008735698729 -0.258497188735274 -0.025620780764137156
8 1.9219578293526753 0.6956015707294196 0.4081176638140873
10 1.4514203539187012 0.6737276783169087 0.09002292670826735
38 4.38685488597129 0.20406437562473134 0.016012682844785707
36 2.5149539750345955 0.11346034498291083 -0.03814374670099095
37 2.92874007453549 -0.0341280563213683 -0.33663714506402614
40 1.7719354713865854 0.12241587418269081 0.9986740844338226
25 4.229830506335203 0.7617149397442847 0.18307677943096062
23 3.6483591604524657 -0.395915873731114 0.07775327407926079
21 3.5207222045679076 -0.31300735376519373 -0.056978713400763395
24 3.9031197806108406 -1.1737066539941399 0.703740419820826
85 3.8540488070846752 0.8270259263478454 -1.3006196788354234
19 2.7931546605137796 -0.612062273356286 0.37582055936678316
16 2.0981106405602907 0.3318741688282659 0.08204232649343496
20 2.005842030665271 1.1501139530819517 0.3562057113781503
17 1.6466808798333357 -0.22078604959790035 -0.5247544399200517
35 1.2747469673429173 -0.4915521500586995 0.9883423906681816
39 2.624999404623791 0.2034932470967151 0.2286876107912314
83 2.4753857184741195 0.21045802440836067 -0.1386107152971103
84 1.5231289869871594 0.9990394180599342 0.8846022093492965
22 3.4946061669761126 -0.02794942789579957 -0.11355649837086117
18 2.691503609214679 -0.4873821631709936 -0.09009606973594529
31 1.3908768367877038 0.28343196258190084 -0.1236082554802362
32 1.4618607011099831 -0.28423619768037794 -1.1667454445392185
34 1.622515093641127 0.4928068833725802 0.3325271176192993
55 2.3427907021119885 0.2828814736723194 0.6037108415906848
29 4.401207213963371 -0.588933964482136 -0.15499448669373228
26 3.4503413532112233 -0.07500939063853096 0.04439749784142048
27 4.195102696580287 0.2551175543572038 -0.8547618863405609
28 4.87748779072949 1.8196845744835177 -1.121560900821465
53 3.5644604599184504 -0.09308243359254452 -0.19890590008528958
52 3.5991451545189195 -0.04696569633769488 -1.4458822898037922
51 2.8835662060464524 -0.29139452732875026 0.4417774119500183
54 4.653244216955325 0.6014669731435732 0.435498788245651
12 1.621546707086324 0.5996982032549372 0.10315364867149071
48 3.6024667688838963 -0.32928754339806277 0.21123743681348567
47 2.4947116515363286 -0.07852354741278661 0.5833973455601256
46 2.7878216633866706 -0.06714549643848197 -0.130498610682396
44 3.6488875353323125 -0.5512439914774572 -0.06468798315268848
42 2.97451817979989 -0.5472633843839868 -0.4847427248921111
43 2.751403731122028 0.03973243405788439 -0.5207705677028175
41 3.1054261521309536 -0.23394722075050003 -0.022179525685103785
45 2.504627379086006 -0.8930734817099654 -0.28684281905394443
88 4.006282539674023 0.19140447704875863 1.8936946746670746
86 2.9924302891288352 -0.14687745933658583 0.10188730252276824
87 0.7746657362112059 -1.0042333668974879 -1.181255499002852
89 2.145613079961408 -0.1267414443541869 0.22820889637535247
90 1.9342116254250068 0.3071141769584791 -1.114636368137298
50 2.124410738189143 0.6097286490699843 -1.4064108456908224
49 2.721849685381658 -0.04525977515315524 0.5425065253600058
91 2.016105748127153 -1.3242390175001537 0.8706479515367749
67 2.661047222982588 0.30798392302813943 1.0322907544060749

Bonds

1 1 56 57
2 1 56 58
3 1 6 7
4 1 6 8
5 1 6 9
6 1 6 10
7 1 59 60
8 1 59 61
9 1 1 2
10 1 1 3
11 1 1 4
12 1 1 5
13 1 62 63
14 1 62 64
15 1 68 69
16 1 68 70
17 1 11 12
18 1 11 13
19 1 11 14
20 1 11 15
21 1 71 72
22 1 71 73
23 1 77 78
24 1 77 79
25 1 65 66
26 1 65 67
27 1 80 81
28 1 80 82
29 1 74 75
30 1 74 76
31 1 36 37
32 1 36 38
33 1 36 39
34 1 36 40
35 1 21 22
36 1 21 23
37 1 21 24
38 1 21 25
39 1 16 17
40 1 16 18
41 1 16 19
42 1 16 20
43 1 83 84
44 1 83 85
45 1 31 32
46 1 31 33
47 1 31 34
48 1 31 35
49 1 26 27
50 1 26 28
51 1 26 29
52 1 26 30
53 1 51 52
54 1 51 53
55 1 51 54
56 1 51 55
57 1 46 47
58 1 46 48
59 1 46 49
60 1 46 50
61 1 41 42
62 1 41 43
63 1 41 44
64 1 41 45
65 1 86 87
66 1 86 88
67 1 89 90
68 1 89 91

Angles

1 1 57 56 58
2 2 7 6 8
3 2 7 6 9
4 2 7 6 10
5 2 8 6 9
6 2 8 6 10
7 2 9 6 10
8 1 60 59 61
9 2 2 1 3
10 2 2 1 4
11 2 2 1 5
12 2 3 1 4
13 2 3 1 5
14 2 4 1 5
15 1 63 62 64
16 1 69 68 70
17 2 12 11 13
18 2 12 11 14
19 2 12 11 15
20 2 13 11 14
21 2 13 11 15
22 2 14 11 15
23 1 72 71 73
24 1 78 77 79
25 1 66 65 67
26 1 81 80 82
27 1 75 74 76
28 2 37 36 38
29 2 37 36 39
30 2 37 36 40
31 2 38 36 39
32 2 38 36 40
33 2 39 36 40
34 2 22 21 23
35 2 22 21 24
36 2 22 21 25
37 2 23 21 24
38 2 23 21 25
39 2 24 21 25
40 2 17 16 18
41 2 17 16 19
42 2 17 16 20
43 2 18 16 19
44 2 18 16 20
45 2 19 16 20
46 1 84 83 85
47 2 32 31 33
48 2 32 31 34
49 2 32 31 35
50 2 33 31 34
51 2 33 31 35
52 2 34 31 35
53 2 27 26 28
54 2 27 26 29
55 2 27 26 30
56 2 28 26 29
57 2 28 26 30
58 2 29 26 30
59 2 52 51 53
60 2 52 51 54
61 2 52 51 55
62 2 53 51 54
63 2 53 51 55
64 2 54 51 55
65 2 47 46 48
66 2 47 46 49
67 2 47 46 50
68 2 48 46 49
69 2 48 46 50
70 2 49 46 50
71 2 42 41 43
72 2 42 41 44
73 2 42 41 45
74 2 43 41 44
75 2 43 41 45
76 2 44 41 45
77 1 87 86 88
78 1 90 89 91
