LAMMPS data file via write_data, version 27 Jun 2024, timestep = 1500000, units = lj

6200 atoms
4 atom types
4200 bonds
1 bond types

-10.69 10.69 xlo xhi
-10.69 10.69 ylo yhi
-10.69 10.69 zlo zhi

Masses

1 1
2 1
3 0.5
4 0.5

Bond Coeffs # zero

1 0

Atoms # bond

4452 1418 2 -2.5451921567772855 -0.25611961917686066 -3.0920783432695713 0 0 0
3722 1174 4 -9.746508087192522 -9.948333062491585 -10.515055386827125 1 0 1
3720 1174 2 -10.166973604148389 -10.103683933966169 -10.293526933162209 1 0 1
2447 749 4 -7.844229045116384 -9.293398876905275 -10.088141103513188 0 0 0
1984 595 4 -8.859701884368217 -10.443740380137243 -10.18787085961872 0 1 0
1629 477 2 -0.06886418076630059 -8.915296323708144 -0.6030738081276666 0 0 0
3463 1088 4 -7.4885374703987315 -10.503222496451295 -10.138473861866 1 0 0
4742 1514 4 -5.211047716787987 -9.255589547849643 -10.427738595090212 1 1 1
2747 849 4 -5.230060444343687 -9.64672722575269 -10.521416605343504 0 1 1
1316 372 4 -1.2461598527390372 -10.562484132178332 -9.802905620635938 0 0 1
1947 583 2 -1.0878689363730896 -9.745088742185237 -10.115009041793153 0 1 0
1949 583 4 -1.134291367634044 -10.231564292628896 -10.0092428057044 0 1 0
1948 583 4 -1.041446505112135 -9.258613191741578 -10.220775277881906 0 1 0
758 186 4 -9.722516362891872 -8.941269310433785 -9.788340644820398 0 0 0
756 186 2 -9.322564966725222 -8.932603214962203 -10.088280271234854 0 0 0
5300 1700 4 -10.045903638022114 -8.813166807434692 -9.977065437977544 1 1 0
5298 1700 2 -10.410355204525393 -8.894521076704116 -10.309565871879133 1 1 0
2541 781 2 -1.8566287467321796 -0.25367470549818977 -0.9387754853055637 0 0 0
3655 1152 4 -7.743351448520462 -9.03390169588068 -10.370695569640574 1 0 0
3654 1152 2 -8.218255666775416 -9.048718734377562 -10.526408250094157 1 0 0
757 186 4 -8.922613570558573 -8.92393711949062 -10.38821989764931 0 0 0
3656 1152 4 -8.69315988503037 -9.063535772874445 -10.68212093054774 1 0 0
4740 1514 2 -4.773159697795598 -9.048771532927518 -10.303318373555706 1 1 1
4741 1514 4 -4.335271678803209 -8.841953518005392 -10.178898152021201 1 1 1
1466 422 4 -4.032261336105151 -8.562109506042303 -10.103942726430013 0 0 1
1464 422 2 -3.859653530821282 -8.12276881580128 -9.939060030389369 0 0 1
894 232 2 -2.0326553718226483 -7.877550859656736 -10.221226534667474 0 0 0
896 232 4 -1.7496157191961375 -8.233599879021666 -10.013578633521396 0 0 0
27 6 3 -0.9231017015114142 -8.92403625458418 -10.057341464670271 0 0 0
4026 1276 2 -0.4037853886197374 -8.351967114513942 -9.04100824753845 0 0 0
4027 1276 4 -0.7042452859797181 -8.476396826354486 -9.420799106946227 0 0 0
30 6 3 -1.4293750697655057 -8.414391428467605 -10.259701114326983 0 0 0
28 6 3 -1.026427374709272 -8.313205036274146 -9.631772400949691 0 0 0
26 6 1 -1.0213104898838945 -8.474740072823947 -10.066720960501861 0 0 0
278 56 3 -9.769774358745126 -6.172081682042194 -10.210949078770573 1 0 0
1055 285 4 -10.122673505246414 -6.146153813734349 -9.975178276794484 0 0 1
276 56 1 -9.313433900105977 -6.239650390967249 -10.161070672789398 1 0 0
279 56 3 -9.136878275964664 -6.421819658863644 -10.549583824971117 1 0 0
280 56 3 -9.235115205723906 -6.518118595679829 -9.809329800733773 1 0 0
277 56 3 -9.110922430768843 -5.834368569437212 -10.081473248683952 1 0 0
2566 789 4 -9.089103772581144 -5.84367292102394 -9.670305194029455 0 0 0
572 124 4 -6.6633657922767044 -6.962378540880896 -10.199693729456989 0 0 0
570 124 2 -6.793343016587041 -6.776469070939175 -9.7541114248863 0 0 0
571 124 4 -6.923320240897378 -6.590559600997454 -9.308529120315612 0 0 0
2423 741 4 -7.0736015181726835 -6.339665360931494 -9.042818848187686 0 1 0
917 239 4 -6.28864436167701 -7.031487768402488 -10.260314028921803 0 0 0
915 239 2 -6.001266390553029 -7.41267846379776 -10.409000125973828 0 0 0
1125 309 2 -3.456566099274413 -7.120911571362827 -10.245718542380166 0 0 1
1465 422 4 -3.6870457255374127 -7.683428125560256 -9.774177334348726 0 0 1
1127 309 4 -3.761700929968397 -7.290714192671984 -9.887864095860435 0 0 1
2551 784 4 -5.674809341874799 -10.530053155676521 -3.072990067017937 0 1 0
1053 285 2 -10.333529923810058 -5.936617289323128 -9.57314094558252 0 0 1
1054 285 4 -10.544386342373702 -5.727080764911907 -9.171103614370555 0 0 1
1729 510 4 -10.613848096673719 -5.400971052593935 -8.93541655210654 0 0 1
4556 1452 4 -0.7955131369336246 -7.967220108209761 -10.542103621845769 0 0 1
2565 789 2 -8.953849736209397 -5.731343922845647 -9.202236244179781 0 0 0
4303 1368 4 -5.459964425872253 -5.728007371835148 -8.960243417075455 1 0 1
4302 1368 2 -5.488810020234138 -5.416013660833709 -9.34989435827982 1 0 1
4304 1368 4 -5.5176556145960225 -5.10401994983227 -9.739545299484186 1 0 1
4606 1469 4 -5.3388771660165615 -5.317941892181415 -10.024297720088759 1 0 1
1506 436 2 -3.374548292004494 -5.353441404610837 -9.16543527973626 0 0 1
1508 436 4 -3.0462362735357287 -5.012872750244123 -9.327374188562016 0 0 1
4486 1429 4 -2.659283303609561 -5.034554847365682 -9.46981538827198 1 0 1
4487 1429 4 -2.1359966393433734 -4.610063969469133 -10.208719009581783 1 0 1
4485 1429 2 -2.397639971476467 -4.822309408417407 -9.839267198926882 1 0 1
4676 1492 4 -2.0766460943688556 -4.240375644189345 -10.111701533801087 0 0 1
4152 1318 2 -10.379740854589592 -3.763970845720622 -9.935875281129926 1 0 0
4154 1318 4 -9.98971084055174 -3.599775138101129 -9.669574027379646 1 0 0
1874 558 4 -9.645139233738314 -3.7478577965886735 -9.734353898178 0 0 0
1872 558 2 -9.41966919818932 -3.324300386400993 -9.593775153893525 0 0 0
2851 884 4 -10.650928491394435 -4.63203294258122 -1.416275923215956 0 0 0
1113 305 2 -6.843021404605276 -4.2955025391555735 -10.437902286657778 0 0 0
856 219 4 -6.89528251968014 -4.205420618981909 -9.722579912314279 0 0 0
855 219 2 -7.039338968105572 -3.780683449509248 -9.50156842723842 0 0 0
1114 305 4 -6.877263885658895 -4.492646409321372 -9.979686456565295 0 0 0
4674 1492 2 -1.8655060463082473 -3.956431153759945 -10.464965466943871 0 0 1
1873 558 4 -9.194199162640325 -2.9007429762133126 -9.453196409609049 0 0 0
512 104 4 -9.181987659596127 -2.6572818194721375 -9.750355786643508 0 0 0
4259 1353 4 -9.058607517874057 -1.3610234905325367 -10.109056049815546 0 0 1
510 104 2 -9.170695382288258 -2.198890837528338 -9.94973028888911 0 0 0
511 104 4 -9.15940310498039 -1.7404998555845383 -10.149104791134713 0 0 0
4257 1353 2 -8.576659740177883 -1.260953740874235 -10.021235865477442 0 0 1
3915 1239 2 -6.7004336435936835 -2.6254722355672193 -9.420284628078972 1 0 0
3916 1239 4 -6.352655701878028 -2.2818979405874504 -9.525199865700586 1 0 0
4002 1268 2 -6.256738028062619 -1.825756152617259 -10.060438514874232 1 0 0
4003 1268 4 -6.490102139273725 -1.5123547275175235 -10.372401234352292 1 0 0
4004 1268 4 -6.023373916851513 -2.139157577716994 -9.748475795396171 1 0 0
2697 833 2 -3.2955827962274666 -3.009108782556242 -9.15154394646862 0 0 1
2698 833 4 -2.8101695222216487 -3.117879540011956 -9.201970881149018 0 0 1
875 225 4 -1.6873854843287481 -2.1154788262185695 -9.417404644157287 0 0 0
4454 1418 4 -2.0843571147508415 -0.3689863431152679 -3.249850858835053 0 0 0
874 225 4 -0.7880470789684146 -1.9571080142058719 -9.824969508376178 0 0 0
873 225 2 -1.2377162816485814 -2.0362934202122207 -9.621187076266732 0 0 0
366 74 1 -0.34119382780524743 -1.6247266366184003 -10.30231658229206 0 0 0
369 74 3 -0.7429220190688608 -1.831367343504398 -10.196420035597326 0 0 0
1 1 1 -10.64641510100198 -0.4469296444092615 -10.213940320593274 0 0 0
5133 1645 2 -5.761821769606985 -0.1986138523141464 -2.18741283961841 0 0 0
2 1 3 -10.375627543981533 -0.7985161897532841 -10.092857703772987 0 0 0
3113 971 4 -10.190517546145237 -1.0273498308800868 -9.818979075928034 0 1 1
3111 971 2 -9.985183136577376 -0.8337418863382404 -9.406239758613237 0 1 1
4258 1353 4 -8.094711962481709 -1.1608839912159334 -9.933415681139337 0 0 1
3526 1109 4 -7.810478625999312 -1.339878230590221 -10.13098578939415 1 0 0
3112 971 4 -9.779848727009515 -0.640133941796394 -8.99350044129844 0 1 1
3525 1109 2 -7.318870104050077 -1.337061793905637 -10.222162150536832 1 0 0
3527 1109 4 -6.827261582100843 -1.334245357221053 -10.313338511679513 1 0 0
5480 1760 4 -9.250099932316907 -10.507227259711879 -9.991677029305205 1 1 0
3319 1040 4 -10.48344363198961 -1.1892778165876323 -3.2636713945394566 0 0 0
916 239 4 -5.713888419429049 -7.793869159193033 -10.557686223025852 0 0 0
6141 1981 2 -0.3098254352405177 -0.5226003767452649 -10.251880227220223 0 0 0
6143 1981 4 -0.09637992385459021 -0.9354880833141614 -10.436175521336953 0 0 0
367 74 3 -0.39901091471284644 -1.1687631760143309 -10.283488224540323 0 0 0
6142 1981 4 -0.5232709466264451 -0.10971267017636849 -10.067584933103493 0 0 0
4787 1529 4 -0.871402454295739 -0.1252489908026947 -9.881005931362557 0 0 0
3126 976 2 -0.009907782459809125 -3.6554556779985945 -5.746657283469541 0 0 0
1854 552 2 -8.67045001857104 -9.921689840336853 -8.12726149508851 0 1 0
1855 552 4 -8.445801828373758 -9.534653870207677 -8.350277970864171 0 1 0
1390 397 4 -8.61709257289088 -9.288326563031175 -8.608649457296075 0 0 1
2445 749 2 -7.5712265967114485 -9.515602229349442 -9.73304205630592 0 0 0
2036 612 4 -7.193268205411035 -9.523531754645935 -9.048023999992589 0 1 0
2446 749 4 -7.298224148306513 -9.737805581793609 -9.37794300909865 0 0 0
2034 612 2 -6.910476719214641 -9.727219005219517 -8.689498576502864 0 1 0
2035 612 4 -6.627685233018247 -9.930906255793099 -8.330973153013138 0 1 0
824 208 4 -6.380823951638705 -10.105525626915254 -8.567935881481107 0 0 0
822 208 2 -5.994648373514105 -10.421157918444562 -8.532655867248398 0 0 0
3224 1008 4 -5.529793313940512 -9.911803266405242 -7.8795352943671375 0 1 0
2714 838 4 -5.393814693899169 -9.805280035091082 -7.5151019000727945 0 1 0
24 5 3 -2.3317410767792306 -10.51667076513587 -8.519203659541432 0 0 0
21 5 1 -2.477386203928621 -10.226668355301982 -8.187562137369834 0 0 0
22 5 3 -2.6647753547759603 -10.472460223845916 -7.846869220650815 0 0 0
25 5 3 -2.7899794787421786 -9.941821008292283 -8.356521994859675 0 0 0
967 256 4 -2.733461560785251 -10.287132243448436 -7.497236372524431 0 0 0
664 155 4 -2.833980599770711 -9.549529445026403 -8.405368842965721 0 0 0
23 5 3 -2.1184319213839 -9.985825139950881 -8.018901624319899 0 0 0
5657 1819 4 -0.015324878409196357 -8.817090988983503 -3.983168804625692 0 1 0
1389 397 2 -8.383053538830122 -8.868933047930588 -8.747699124780615 0 0 1
1391 397 4 -8.149014504769365 -8.44953953283 -8.886748792265156 0 0 1
1013 271 4 -7.085242015736389 -8.320820698032772 -7.949756825355997 0 0 0
3369 1057 2 -7.611722507579106 -8.164097406667802 -8.377010497262866 0 0 0
3371 1057 4 -7.790815587473141 -8.250732994440376 -8.83572603402308 0 0 0
3370 1057 4 -7.432629427685072 -8.077461818895227 -7.91829496050265 0 0 0
3222 1008 2 -5.6630091701883005 -9.460396737535989 -8.048312310985732 0 1 0
3223 1008 4 -5.796225026436089 -9.008990208666738 -8.217089327604327 0 1 0
2981 927 4 -5.727334481131968 -8.76695541678926 -8.53493695900297 0 1 0
2979 927 2 -5.97839719335352 -8.369425969674928 -8.364825662467567 0 1 0
4585 1462 4 -4.38532219628126 -7.824256551328519 -8.932359885127214 1 0 1
4584 1462 2 -4.484680727434901 -7.344324312123008 -8.8334006609076 1 0 1
663 155 2 -2.7678468109066494 -9.071609330195473 -8.274148852833072 0 0 0
665 155 4 -2.701713022042588 -8.593689215364543 -8.142928862700423 0 0 0
4379 1393 4 -2.923426334561318 -8.291822349357732 -7.994481877299851 1 0 1
4028 1276 4 -0.10332549125975665 -8.227537402673397 -8.661217388130673 0 0 0
4605 1469 2 -5.469918911706226 -5.006118377684291 -10.392528838672204 1 0 1
770 190 4 -3.6946974060616773 -0.7877619322826003 -0.8638142895709962 0 0 0
914 238 4 -6.012113144634721 -7.831771611166206 -7.8756780970418285 0 0 0
912 238 2 -6.215313822480961 -7.428035153956482 -7.661887644395936 0 0 0
2980 927 4 -6.229459905575072 -7.971896522560597 -8.194714365932164 0 1 0
2421 741 2 -6.730535344490624 -6.226657249368249 -8.697080844497034 0 1 0
913 238 4 -6.4185145003272 -7.024298696746757 -7.448097191750043 0 0 0
1746 516 2 -4.793682331621844 -6.2866283362798745 -9.06873832588872 0 0 1
1747 516 4 -4.515550794652198 -6.696660805548965 -9.135941170233654 0 0 1
1748 516 4 -5.07181386859149 -5.876595867010784 -9.001535481543787 0 0 1
2422 741 4 -6.387469170808565 -6.113649137805004 -8.351342840806382 0 1 0
1238 346 4 -5.969487564894417 -6.081225277104352 -8.28631660449572 0 0 1
1236 346 2 -5.592026999309663 -6.248026128662795 -8.004002953837992 0 0 1
1237 346 4 -5.21456643372491 -6.414826980221239 -7.721689303180263 0 0 1
4586 1462 4 -4.584039258588541 -6.864392072917497 -8.734441436687986 1 0 1
5270 1690 4 -0.22534713575209475 -6.94540593811695 -7.959804413008112 0 0 0
5062 1621 4 -0.32148287020474464 -6.985176865752269 -8.354554938178943 0 0 0
5061 1621 2 -0.20382421402373238 -7.289925621096452 -8.733084509998246 0 0 0
658 153 4 -9.766472391988941 -6.0190566989750645 -7.864663812339671 0 0 0
5355 1719 2 -10.491027182072397 -5.8809436145158 -7.890292264912822 1 1 0
5357 1719 4 -10.029966974316125 -5.7963171770975865 -8.064251601867566 1 1 0
657 153 2 -9.365332928767053 -5.880011138098316 -8.128772621443842 0 0 0
2245 682 4 -9.90672464091823 -6.432146386805334 -0.10488096470370868 0 0 0
2567 789 4 -8.818595699837651 -5.619014924667353 -8.734167294330108 0 0 0
659 153 4 -8.964193465545165 -5.740965577221568 -8.392881430548012 0 0 0
1507 436 4 -3.702860310473259 -5.694010058977552 -9.003496370910502 0 0 1
5615 1805 4 -3.9380068912862374 -5.6300423886492155 -8.679450538547302 0 0 1
5613 1805 2 -4.318317911225706 -5.389467064947889 -8.461535321688856 0 0 1
5614 1805 4 -4.6986289311651745 -5.148891741246562 -8.243620104830411 0 0 1
502 101 4 -4.671024066383446 -4.847107012979175 -7.994766261703441 0 0 0
1165 322 4 -2.819705888529561 -4.709283783335822 -8.066348729360314 0 0 0
1177 326 4 -2.6680577158938403 -5.056618792842647 -7.8975336200790425 0 0 0
1126 309 4 -3.1514312685804295 -6.95110895005367 -10.603572988899897 0 0 1
1078 293 4 -10.566257562906502 -4.492495279276235 -8.060928487916458 0 0 0
1077 293 2 -10.345293050524024 -4.064343407863117 -7.927284710384643 0 0 0
1103 301 4 -10.085121620209854 -3.2803510630561914 -7.96491141467517 0 0 0
1079 293 4 -10.124328538141546 -3.636191536449999 -7.793640932852828 0 0 0
3917 1239 4 -7.048211585309339 -2.9690465305469873 -9.31536939045736 1 0 0
857 219 4 -7.183395416531003 -3.3559462800365862 -9.28055694216256 0 0 0
501 101 2 -4.525471294933221 -4.374211786039334 -8.066769699542519 0 0 0
503 101 4 -4.3799185234829965 -3.901316559099493 -8.138773137381596 0 0 0
5117 1639 4 -4.311221024924405 -3.9992929181669328 -8.512910735379712 0 0 0
5115 1639 2 -4.167887607527913 -3.584513480015465 -8.752521981243 0 0 0
1166 322 4 -2.5651797492827075 -3.7578025974488285 -7.893432572385498 0 0 0
1562 454 4 -2.778471787282019 -3.460599500977659 -7.736282786416496 0 0 1
1164 322 2 -2.6924428189061342 -4.233543190392325 -7.979890650872906 0 0 0
1101 301 2 -10.02666029692321 -2.794298652453571 -8.066574229052293 0 0 0
1102 301 4 -9.968198973636564 -2.308246241850951 -8.168237043429416 0 0 0
3678 1160 2 -10.13452052009594 -1.7558171109731042 -8.357745421217274 1 0 0
3679 1160 4 -10.072483718703834 -2.2190855056109773 -8.535323093808138 1 0 0
2699 833 4 -3.7809960702332845 -2.900338025100528 -9.10111701178822 0 0 1
5116 1639 4 -4.02455419013142 -3.169734041863997 -8.992133227106287 0 0 0
1560 454 2 -2.494162409315392 -3.0739440769793496 -7.876517449366911 0 0 1
1561 454 4 -2.2098530313487648 -2.6872886529810405 -8.016752112317326 0 0 1
886 229 4 -2.0114594462872426 -2.7509152860815944 -8.35767600125439 0 0 0
885 229 2 -2.0012992590591754 -2.5165899482195444 -8.799250917470484 0 0 0
887 229 4 -1.991139071831108 -2.2822646103574944 -9.240825833686579 0 0 0
3680 1160 4 -10.196557321488045 -1.2925487163352312 -8.18016774862641 1 0 0
2524 775 4 -9.588704197300627 -0.28383510572104254 -9.030567018183065 0 0 0
1836 546 2 -5.499007505463884 -0.30811365106438743 -7.925424808114089 0 0 0
1838 546 4 -5.197215649423046 -0.36154382858577944 -8.320477832096259 0 0 0
5618 1806 4 -2.1327753128895113 -0.8824217826559689 -8.141205977988513 0 0 1
5617 1806 4 -1.2488485134670317 -1.1191336391528925 -8.544493605193274 0 0 1
263 53 3 -1.9357164728441774 -0.010714203599539125 -3.3527932312212068 0 0 0
5616 1806 2 -1.6908119131782715 -1.0007777109044307 -8.342849791590893 0 0 1
990 264 2 -0.7305285106902372 -1.0075002396204822 -7.354939598029437 0 0 0
5864 1888 4 -0.2620107814969379 -0.8717306008161602 -7.961528069922449 1 0 1
991 264 4 -0.6345889113005077 -0.9451896501827352 -7.841676676659085 0 0 0
5088 1630 2 -10.30311584043219 -9.407141877990968 -6.32262627388735 1 1 0
2023 608 4 -9.639933776019484 -8.282010252773139 -0.020112899279387947 0 1 0
1856 552 4 -8.895098208768323 -10.30872581046603 -7.904245019312848 0 1 0
3435 1079 2 -9.221856295305564 -9.334726631406161 -6.598551842009527 1 0 0
994 265 4 -8.585439505111896 -8.960648888943522 -6.16453079294567 0 0 0
3177 993 2 -8.307106705747914 -10.461176941119223 -6.7926965491973785 0 1 1
2252 684 4 -9.046814731216127 -10.60425076439892 -6.52797970429582 0 1 0
3179 993 4 -8.779363449610349 -10.371624018486871 -6.655023596427221 0 1 1
29 6 3 -0.6954577241919615 -8.255091136545017 -10.313448178056845 0 0 0
2712 838 2 -5.169699809879542 -10.10468752062694 -7.183246997493299 0 1 0
2713 838 4 -4.945584925859914 -10.4040950061628 -6.851392094913804 0 1 0
1038 280 2 -0.07636250345316108 -5.321360180049029 -7.347767992522178 0 0 0
5525 1775 4 -1.7312634107623848 -10.14329362904339 -8.054963977686118 0 1 0
5523 1775 2 -1.4476490801071575 -9.951068365647064 -7.690804178203398 0 1 0
5524 1775 4 -1.1640347494519303 -9.758843102250738 -7.326644378720678 0 1 0
4450 1417 4 -0.8603188570271072 -9.49300466566336 -7.402562755406785 0 0 0
4449 1417 2 -0.7127950984659583 -9.365711788253085 -6.942092057076791 0 0 0
3473 1091 4 -0.4265546262806271 -9.454046326762802 -6.169206365114654 0 0 0
4451 1417 4 -0.5652713399048095 -9.23841891084281 -6.481621358746797 0 0 0
3436 1079 4 -8.762553350413604 -9.232957912025602 -6.429188526709815 1 0 0
993 265 2 -8.139443984214527 -9.081730559551744 -5.973671618730263 0 0 0
282 57 3 -8.720345154191458 -7.487080266928802 -6.481554604696294 1 0 0
1012 271 4 -6.7458948716938245 -8.701959012603094 -7.089770138833097 0 0 0
950 250 4 -6.836006091354558 -8.894977883158976 -6.737099454231967 0 0 0
1011 271 2 -6.915568443715107 -8.511389855317933 -7.519763482094547 0 0 0
948 250 2 -7.073236312594446 -9.036049877116321 -6.320181579043701 0 0 0
995 265 4 -7.693448463317155 -9.202812230159966 -5.782812444514855 0 0 0
4377 1393 2 -3.075314082910068 -7.998827929969348 -7.6188698672298285 1 0 1
1211 337 4 -10.677984518042864 -7.123239247121399 -7.220527152070413 0 0 1
3374 1058 4 -10.330256661124267 -6.972744504969565 -7.038812768368619 1 0 0
3372 1058 2 -9.869058901293775 -6.90327511758674 -6.858616679220568 1 0 0
5442 1748 2 -8.512862884266603 -7.081082198902605 -7.2435233594861685 1 0 0
5443 1748 4 -8.443480896636467 -6.777349870906084 -7.6345896105512 1 0 0
3646 1149 4 -8.490613076302521 -6.394515168070097 -7.530876639293364 1 0 0
3645 1149 2 -8.449624923125354 -5.901941141661659 -7.455439249314878 1 0 0
3373 1058 4 -9.407861141463282 -6.833805730203915 -6.678420590072518 1 0 0
5444 1748 4 -8.582244871896739 -7.384814526899126 -6.852457108421137 1 0 0
4190 1330 4 -6.704090910643792 -6.808822607820854 -7.284986741674904 0 0 0
4188 1330 2 -6.715731696219145 -6.386949086473305 -7.016868812216585 0 0 0
4189 1330 4 -6.727372481794498 -5.9650755651257565 -6.748750882758267 0 0 0
898 233 4 -7.032926392339338 -5.982772074583745 -6.516732274378909 0 0 0
2236 679 4 -5.335793530313254 -6.783607835920569 -7.670117991689787 0 1 0
2235 679 2 -4.973665428845 -7.120322809139596 -7.596048666479752 0 1 0
2237 679 4 -4.6115373273767455 -7.457037782358623 -7.521979341269717 0 1 0
4475 1425 4 -4.459912005895841 -7.447394199287334 -7.140735710393476 0 0 0
4473 1425 2 -3.9869904258076483 -7.317332915770165 -7.043631428219162 0 0 0
4474 1425 4 -3.5140688457194553 -7.187271632252996 -6.946527146044848 0 0 0
54 11 3 -3.362658837777511 -7.16314111718844 -6.568069041058217 0 0 0
4378 1393 4 -3.2272018312588178 -7.705833510580964 -7.243257857159806 1 0 1
53 11 3 -3.045190257093703 -7.762430350124716 -6.91109398995464 0 0 0
51 11 1 -3.0245269106605845 -7.479947709322865 -6.543566326016472 0 0 0
55 11 3 -2.6188859263852304 -7.27345173691741 -6.528910089920646 0 0 0
3671 1157 4 -2.2538791943150014 -7.439153607974305 -6.561910627483612 0 0 0
4501 1434 4 -1.196948656884169 -6.4479851648265125 -7.447403463780041 0 0 1
5269 1690 4 -0.7947933053096152 -6.465186763992467 -7.292630818821248 0 0 0
5268 1690 2 -0.5100702205308549 -6.705296351054709 -7.62621761591468 0 0 0
5073 1625 2 -8.615116410949904 -4.821125332625397 -7.276108109988434 1 0 0
5074 1625 4 -8.642136646243697 -5.280385377389966 -7.0802762480061805 1 0 0
3647 1149 4 -8.408636769948187 -5.409367115253222 -7.380001859336392 1 0 0
2360 720 4 -4.659408261578988 -5.446684233132066 -6.458651414666393 0 0 0
2358 720 2 -5.0568226211697676 -5.163759776760491 -6.349035819161144 0 0 0
2359 720 4 -5.454236980760547 -4.8808353203889165 -6.239420223655895 0 0 0
1589 463 4 -4.2769734715525365 -5.414909447585126 -6.4219980969317 0 0 0
1587 463 2 -3.857923924202192 -5.171336627465117 -6.544757040248577 0 0 0
1588 463 4 -3.4388743768518477 -4.927763807345109 -6.667515983565453 0 0 0
4500 1434 2 -1.5244073088601455 -6.127627715843895 -7.247048937683288 0 0 1
4502 1434 4 -1.8518659608361223 -5.807270266861277 -7.046694411586535 0 0 1
1176 326 2 -2.369853737318779 -5.303216142383677 -7.580888496381853 0 0 0
1178 326 4 -2.071649758743717 -5.5498134919247075 -7.264243372684663 0 0 0
1040 280 4 -0.32953576164313186 -5.184508914936736 -6.93889755757401 0 0 0
768 190 2 -3.594972163860399 -1.2631838696083735 -0.7453708111632051 0 0 0
3058 953 4 -0.24732286616874627 -5.366163772586162 -6.6103496240528985 0 0 1
3057 953 2 -0.3913555714262846 -4.999548821615702 -6.302375505755398 0 0 1
5075 1625 4 -8.58809617565611 -4.3618652878608275 -7.471939971970688 1 0 0
872 224 4 -8.648150902499612 -4.008099456116011 -7.247431033953866 1 0 0
870 224 2 -8.333800766570617 -3.648112521542624 -7.394377959671378 1 0 0
871 224 4 -8.019450630641622 -3.2881255869692367 -7.541324885388891 1 0 0
3064 955 4 -8.057113007590125 -2.959478133356768 -7.358017292931003 0 0 0
3010 937 4 -3.334693818908512 -4.545498067613151 -6.636128529452135 0 1 0
3009 937 2 -3.2732178533198923 -4.273015236266283 -6.221431275692074 0 1 0
3011 937 4 -3.211741887731274 -4.000532404919415 -5.806734021932014 0 1 0
5596 1799 4 -9.570882558181639 -2.101680600067212 -6.166004629832378 0 0 0
5595 1799 2 -10.047707420422917 -2.1681511254449792 -6.031024186787798 0 0 0
5597 1799 4 -10.524532282664195 -2.2346216508227466 -5.896043743743218 0 0 0
3063 955 2 -7.906794961186941 -2.5779667418774523 -7.644117875064796 0 0 0
3065 955 4 -7.756476914783757 -2.1964553503981366 -7.930218457198588 0 0 0
1472 424 4 -7.798109377429463 -1.8739952889122236 -7.681053924579033 0 0 0
3018 940 2 -6.465372861836643 -1.9146022220583407 -6.527081892340986 0 0 1
3019 940 4 -6.127788380798327 -1.7595170807258054 -6.861723965458183 0 0 1
3020 940 4 -6.80295734287496 -2.069687363390876 -6.192439819223789 0 0 1
3445 1082 4 -10.317174551074322 -1.0068611439194912 -7.894021197148772 1 0 0
3444 1082 2 -10.487483555887268 -0.7946538227854026 -7.474541882120523 1 0 0
671 157 4 -8.43373237448993 -0.8639123869525229 -7.468545783914793 0 0 0
1471 424 4 -8.512898146902431 -1.174946618302269 -7.701252220406215 0 0 0
669 157 2 -8.315915627594498 -0.38413892799987176 -7.391496174990216 0 0 0
1470 424 2 -8.155503762165948 -1.5244709536072463 -7.691153072492624 0 0 0
2595 799 2 -6.207419538862342 -0.6267963348031387 -5.993792478022598 0 0 0
2398 733 4 -5.83495001940295 -0.621945757421451 -7.360625618476278 0 0 0
2397 733 2 -5.995845010292563 -1.0874147724180534 -7.274304138039848 0 0 0
1837 546 4 -5.800799361504722 -0.2546834735429954 -7.530371784131918 0 0 0
2399 733 4 -6.156740001182176 -1.5528837874146557 -7.187982657603418 0 0 0
252 51 3 -4.9054786500039285 -0.4993882878643965 -5.682664419101422 0 0 0
2596 799 4 -5.7943868301766175 -0.3527454490232652 -5.928217379401427 0 0 0
255 51 3 -5.450874185873193 -0.13292321208732313 -6.036567029560315 0 0 0
2752 851 4 -1.5215956295508943 -0.24316406154569323 -6.091091219206564 0 0 1
2751 851 2 -1.2122287692020364 -0.47627972648006095 -6.407238704535787 0 0 1
2867 889 4 -1.908039033047091 -0.12236590078646675 -6.032098887501686 0 0 0
3721 1174 4 -10.587439121104255 -10.259034805440752 -10.071998479497292 1 0 1
992 264 4 -0.8264681100799667 -1.0698108290582293 -6.86820251939979 0 0 0
2753 851 4 -0.9028619088531789 -0.7093953914144289 -6.72338618986501 0 0 1
5656 1819 4 -0.4532782720006383 -8.392456986926048 -3.190778251087067 0 1 0
5090 1630 4 -9.865169173433504 -9.611565442207459 -6.450742327751634 1 1 0
3437 1079 4 -9.681159240197523 -9.43649535078672 -6.767915157309238 1 0 0
37 8 3 -8.212298332463435 -10.272421666291674 -4.869031639359645 0 0 0
2250 684 2 -9.243798233087107 -10.67057825567381 -6.073229043062905 0 1 0
38 8 3 -8.59696175713913 -9.826804330916985 -4.401742392607273 0 0 0
2167 656 4 -7.519159172401329 -9.540858950813384 -4.654115902458627 0 0 0
2166 656 2 -7.169693890544289 -9.21902539264499 -4.4982403828501205 0 0 0
2168 656 4 -6.820228608687248 -8.897191834476597 -4.342364863241614 0 0 0
2410 737 4 -5.17821758289101 -9.282402714108468 -4.172026602683457 0 1 0
2079 627 2 -4.733228380260526 -9.940179443643373 -4.383214238120317 0 1 0
2081 627 4 -4.821178486648265 -9.452740983822036 -4.314887620514704 0 1 0
3982 1261 4 -0.27678081800673504 -9.507080945408193 -4.939375662880421 0 0 0
3471 1091 2 -0.46309376576946504 -9.587444299266433 -5.688717164177425 0 0 0
3472 1091 4 -0.49963290525830295 -9.720842271770065 -5.208227963240196 0 0 0
3894 1232 2 -9.502646901716576 -7.758584195540454 -5.131907371196101 1 0 0
3895 1232 4 -9.212202205660022 -7.700687859395389 -5.534759568402068 1 0 0
3896 1232 4 -9.79309159777313 -7.816480531685519 -4.729055173990135 1 0 0
285 57 3 -9.031559282770443 -7.468538129381208 -5.803467622585486 1 0 0
949 250 4 -7.310466533834334 -9.177121871073666 -5.903263703855434 0 0 0
295 59 3 -6.709585470647332 -8.799648625969825 -4.70389915796647 1 0 0
3984 1262 2 -6.675896938365636 -7.437863917471931 -5.3326206256483575 1 0 0
3986 1262 4 -6.485452415508288 -7.890012346042479 -5.236222066245775 1 0 0
292 59 3 -6.423181924353543 -8.266195390231122 -5.140248391895065 1 0 0
291 59 1 -6.532786672752905 -8.37997800138852 -4.708229507439246 1 0 0
293 59 3 -6.148992518627089 -8.367173848500432 -4.447772023523733 1 0 0
2411 737 4 -5.8721716835159175 -8.64464414800862 -4.506229710976668 0 1 0
2409 737 2 -5.525194633203464 -8.963523431058544 -4.339128156830062 0 1 0
1751 517 4 -2.869935154606363 -7.361978486424038 -4.8187823248801775 0 0 1
1045 282 4 -3.070653085409358 -7.04612821299955 -4.644650900710662 0 0 0
1749 517 2 -2.9267361424301757 -7.526294006963492 -5.287582983467505 0 0 1
1750 517 4 -2.983537130253988 -7.6906095275029465 -5.756383642054833 0 0 1
3981 1261 2 -0.3203916066249169 -9.192448527386809 -4.553235091784601 0 0 0
3448 1083 4 -0.3799618393430198 -7.59225861801827 -5.794973065745963 0 0 0
284 57 3 -9.351194468354205 -7.093301514235513 -6.372616839215882 1 0 0
281 57 1 -8.950335332554532 -7.226255653378121 -6.180431641734787 1 0 0
283 57 3 -8.693097820906019 -6.854160385112196 -6.077116715731571 1 0 0
839 213 4 -7.703593602899377 -6.226672626935751 -4.486940432981893 0 0 0
3985 1262 4 -6.866341461222984 -6.985715488901384 -5.42901918505094 1 0 0
3245 1015 4 -6.721640396470084 -6.623820531307826 -5.346576987684623 0 1 1
3243 1015 2 -7.078297148356203 -6.409152144841723 -5.069605066389397 0 1 1
3244 1015 4 -7.434953900242322 -6.19448375837562 -4.792633145094172 0 1 1
3502 1101 4 -5.18879125701728 -6.380413023401424 -5.061092773044836 1 0 0
52 11 3 -3.0816142445535726 -7.729096747212334 -6.161119214342462 0 0 0
3669 1157 2 -1.8897551035637057 -7.210319492402061 -6.306864368768437 0 0 0
3670 1157 4 -1.52563101281241 -6.981485376829816 -6.051818110053262 0 0 0
2292 698 2 -0.08608442360080266 -7.7362887356121135 -5.1247239725924585 0 0 0
2294 698 4 -0.3660673538923836 -7.445798506530007 -5.420062736646972 0 0 0
3449 1083 4 -1.2138704582660473 -7.213451797255318 -6.196347962605528 0 0 0
3447 1083 2 -0.7969161488045335 -7.402855207636794 -5.9956605141757455 0 0 0
2655 819 2 -10.050021403039194 -5.316490756071597 -4.589407781998433 0 0 0
2657 819 4 -9.57588659158394 -5.2028063461708705 -4.478628562323423 0 0 0
2702 834 4 -9.342297572166837 -5.126885777365038 -4.82504272280574 0 0 0
2701 834 4 -8.75239754251069 -4.363410542847662 -5.0879562471623085 0 0 0
6096 1966 2 -8.011731615282239 -4.151010799155878 -5.383503250238969 0 0 0
2700 834 2 -9.047347557338764 -4.74514816010635 -4.9564994849840245 0 0 0
897 233 2 -7.3922423586010355 -5.814250872834231 -6.212606246307588 0 0 0
899 233 4 -7.751558324862733 -5.645729671084717 -5.908480218236266 0 0 0
2158 653 4 -6.498710520876899 -4.625576718952052 -5.543069018293677 0 0 0
2157 653 2 -6.871610987829796 -4.294783700098891 -5.58207184414189 0 0 0
6098 1966 4 -7.542174606901193 -4.214231799786269 -5.543250929281851 0 0 0
155 31 3 -5.548365642683492 -4.999925855132746 -5.890269618261722 0 0 0
152 31 3 -6.103002597946016 -4.642217644912964 -5.5418120394966355 0 0 0
151 31 1 -5.669220528657023 -4.790624380699709 -5.50428129028196 0 0 0
3503 1101 4 -5.36915306553007 -5.397499495543903 -5.097843484407161 1 0 0
154 31 3 -5.642372177330101 -5.087071153931751 -5.1483339954875325 0 0 0
3501 1101 2 -5.278972161273675 -5.888956259472663 -5.079468128725998 1 0 0
3729 1177 2 -3.5333108542122185 -5.130596026085723 -5.12249468538441 0 0 0
3730 1177 4 -3.124015080052512 -5.404257713760586 -5.209593766630992 0 0 0
1072 291 4 -2.839419380454782 -5.573652619117835 -5.435442198857972 0 0 0