LAMMPS data file via write_data, version 4 Feb 2025, timestep = 11833330, units = lj

6000 atoms
4 atom types
4500 bonds
1 bond types
5250 angles
2 angle types

-12.037717 12.037717 xlo xhi
-12.037717 12.037717 ylo yhi
-12.037717 12.037717 zlo zhi
-0.0002407543399840506 0 0 xy xz yz

Masses

1 1
2 1
3 0.1
4 0.1

Bond Coeffs # harmonic/omp

1 100 0.45

Angle Coeffs # harmonic/omp

1 100 180
2 100 109.471

Atoms # full

3943 815 2 0 1.9562617054113183 -11.956844654183607 -11.1945184639999 3 0 0
3945 815 4 0 2.3446104713633957 -11.940318084435578 -11.32722417462737 3 0 0
3697 740 3 0 2.7062954758683393 -11.750767658071517 -11.299846962126116 13 1 1
3696 740 1 0 2.9782101881550123 -11.883250091401225 -11.647461224343962 13 1 1
3700 740 3 0 3.3685350224174897 -11.64797246581259 -11.632082477955967 13 1 1
5875 1459 2 0 4.102642569298521 -11.826942627481063 -11.915435099704816 12 1 1
5876 1459 4 0 3.7439689767637123 -11.792205124238095 -11.62107211260041 12 1 1
423 85 3 0 5.43324989011057 -11.788550028046716 -11.742511448204029 3 0 0
3699 740 3 0 2.7824551045873154 -11.816022323077696 -12.029193547197918 13 1 1
794 159 3 0 -1.4197280967093722 -10.578499182226846 -11.161628992340278 2 0 0
4029 843 4 0 -0.7803916184602233 -10.323866324288794 -11.486784424932027 3 0 0
5029 1177 2 0 0.7744455640100139 -10.656168928167155 -11.234357231413396 13 1 0
5030 1177 4 0 0.9398305500849062 -10.327874109933049 -11.532472540862658 13 1 0
2105 421 3 0 1.187209145201459 -10.11669444974676 -11.795190226077162 12 1 0
5752 1418 2 0 2.508101108437092 -10.39662005971864 -11.253650096694681 15 1 1
5753 1418 4 0 2.249134698372213 -10.069960056928208 -11.481492107212942 15 1 1
4027 843 2 0 -0.4024147698340421 -10.180791664830435 -11.647286735002934 3 0 0
4028 843 4 0 -0.021279287952529202 -10.04088725694558 -11.823964617640868 3 0 0
642 129 3 0 0.3220564081681392 -9.836844603076308 -11.733187759823126 3 0 0
641 129 1 0 0.5321394147592606 -9.543840300452898 -11.436583775763365 3 0 0
643 129 3 0 0.23163187583574008 -9.331196237838077 -11.212721039654607 3 0 0
644 129 3 0 0.8014742294821016 -9.791296297029639 -11.153751128428379 3 0 0
2101 421 1 0 1.6118529850649885 -10.04998457693407 -11.899032147920941 12 1 0
1055 211 3 0 4.559010572473422 -4.747303056192241 -4.058444240984311 10 0 0
2102 421 3 0 1.876237080549009 -10.17097216358846 -11.53037308121584 12 1 0
443 89 3 0 -9.591236903164281 -8.607165068511158 -11.810620415629419 5 0 0
441 89 1 0 -9.74454356496572 -8.491920065826061 -11.389709557322474 5 0 0
442 89 3 0 -10.176100521281407 -8.414255135695898 -11.41556443841334 5 0 0
445 89 3 0 -9.66765407508058 -8.842825301575289 -11.106639828859615 5 0 0
65 13 3 0 -6.960519656929336 -8.329749865174854 -11.401601078314176 4 0 0
61 13 1 0 -6.583256355757916 -8.365726598755757 -11.668913751082341 4 0 0
64 13 3 0 -6.258367432850999 -8.639707627570353 -11.455329686903909 4 0 0
645 129 3 0 0.7713023205669405 -9.255653177183014 -11.659066999011975 3 0 0
4529 1010 4 0 -10.495669665487037 -8.205880448985422 -11.367635583663093 4 0 1
4528 1010 2 0 -10.907121771141979 -8.092653132753522 -11.2280910667582 4 0 1
444 89 3 0 -9.533871653332348 -8.131828659111896 -11.241810168842099 5 0 0
4714 1072 2 0 -8.931251842890504 -7.748943148158107 -11.262724681367768 4 0 1
4715 1072 4 0 -9.295671247074145 -7.9404477701961875 -11.5148406715105 4 0 1
1529 306 3 0 -7.679788026793739 -8.038443398630625 -11.208017608469415 5 0 1
62 13 3 0 -6.414999943276551 -7.9766884413897765 -11.736458990462687 4 0 0
4809 1103 4 0 -6.502062216250066 -7.5739268187757895 -11.751223100885454 5 0 1
39 8 3 0 4.897083637292194 -8.084478321705685 -11.647291319268113 4 0 0
208 42 3 0 -2.3175283595664258 -6.653611601243693 -11.901589377978548 5 0 0
803 161 3 0 -10.625671713095063 -5.597805665746077 -11.369638096088575 8 0 0
801 161 1 0 -10.255026475550629 -5.85500414726649 -11.255333287812544 8 0 0
804 161 3 0 -10.180497616668418 -6.180569865811963 -11.584946091471364 8 0 0
210 42 3 0 -2.1625677973022857 -5.956420139995267 -11.632112180668276 5 0 0
4046 849 4 0 -1.8658992388829159 -6.16957419831617 -11.434404266136722 4 0 0
206 42 1 0 -2.1959955532976334 -6.206470821676483 -12.011536754765544 5 0 0
5116 1206 2 0 0.7817053733793191 -6.147493191404242 -11.9542901636401 14 1 0
5118 1206 4 0 0.9281812806757923 -5.874555688450738 -11.64943592977466 14 1 0
98 20 3 0 1.074487143746774 -6.064607206676325 -11.339731138391977 4 0 0
1109 222 3 0 4.366650275325242 -6.23194674556178 -11.529325333111615 4 0 1
2513 503 3 0 11.703076682102314 -6.219875409416664 -11.525670466764424 13 1 0
2511 503 1 0 11.613835397741461 -5.941056404964822 -11.899186140716187 13 1 0
4007 836 4 0 11.955399877356424 -6.190392156550936 -11.19465237838972 4 0 0
802 161 3 0 -9.899466478217601 -5.582584195408046 -11.221794178353099 8 0 0
3896 799 4 0 -9.659358800856337 -5.235412774106565 -11.261006769023036 7 0 0
3895 799 2 0 -9.63842264090639 -4.761798818621932 -11.237197179750607 7 0 0
1643 329 3 0 -7.7827319528412575 -5.007150056340974 -10.984295096638679 7 0 1
2780 556 3 0 10.55370646495722 -0.4687534918227758 -4.354372524720169 9 0 0
4491 997 4 0 5.2829196312472995 -5.265419065140499 -11.831887932032389 5 0 1
2336 468 1 0 5.814251284677901 -4.794636330380365 -11.373780718968133 6 0 0
2337 468 3 0 5.540492167010843 -5.0449488561638 -11.624769450209312 6 0 0
2339 468 3 0 6.237060369986324 -4.9125944084989035 -11.447488643341048 6 0 0
4469 990 4 0 6.604530098412084 -4.699145639280844 -11.457333707414405 6 0 1
2512 503 3 0 11.438867146847802 -5.529057772210823 -11.751391549088144 13 1 0
3897 799 4 0 -9.61022798115675 -4.297053760318253 -11.22600679097533 7 0 0
2663 533 3 0 0.5331765848778112 -3.865580486169428 -11.936610038138234 8 0 0
2340 468 3 0 5.757104127225293 -4.348223560617837 -11.477265669501218 6 0 0
4468 990 2 0 6.850360918423107 -4.349517216484187 -11.289624844868948 6 0 1
4470 990 4 0 7.088799154803894 -4.006851684674318 -11.132558421761846 6 0 1
328 66 3 0 7.058347142984616 -3.716636631734959 -11.425816827974302 5 0 0
1014 203 3 0 7.691656453506678 -4.1997736312661385 -11.212441244208394 5 0 0
1679 336 3 0 4.1435170996452975 -2.8532232426530086 -11.382432031993051 7 0 1
5619 1373 4 0 4.433083252886949 -2.960509269401239 -11.62007164768778 9 0 1
5617 1373 2 0 4.8549912259418875 -3.0070371844174257 -11.430324421844867 9 0 1
5618 1373 4 0 5.269250660245703 -3.0460277869131094 -11.254642375815326 9 0 1
1894 379 3 0 5.560027265286887 -3.233754127003195 -11.426193231002884 9 0 1
1891 379 1 0 5.967769768033296 -3.4078560109617175 -11.393372115579586 9 0 1
1893 379 3 0 6.058680522964625 -3.627222592644774 -11.75826538938725 9 0 1
1895 379 3 0 6.251180286505964 -3.1044499894361763 -11.341569202438686 9 0 1
1820 364 3 0 5.3067710186737145 -7.435510586878008 -4.070099291000313 6 0 0
326 66 1 0 7.216292889028352 -3.378054285599113 -11.694621069701203 5 0 0
327 66 3 0 7.168762118365045 -2.959882008046673 -11.46782248076682 5 0 0
330 66 3 0 7.6261974137730775 -3.4509772478854703 -11.77178458535586 5 0 0
24 5 3 0 1.7706822328962666 -2.06061160301846 -11.838365181775034 7 0 0
21 5 1 0 1.3904595574620995 -1.829791278717959 -11.94105423639041 7 0 0
4551 1017 4 0 3.743610897608175 -2.308799956959202 -11.752278668203264 7 0 1
1678 336 3 0 3.5006758958100583 -2.4767713579580306 -11.48302864618909 7 0 1
1676 336 1 0 3.782755359223506 -2.6799512377743753 -11.17130162550064 7 0 1
2510 502 3 0 -10.091291697913519 -1.0921312318597813 -11.501251236870937 12 0 0
1813 363 3 0 -7.362586463348632 -0.9598575257017625 -11.744363652363992 13 0 1
23 5 3 0 1.1993722469768358 -1.6725825854818748 -11.54373572309386 7 0 0
2060 412 3 0 6.987278181500631 -1.1261157274892106 -11.903691403519813 11 0 0
5826 1442 4 0 8.072683568431088 -1.0722551485315854 -11.864415058580441 11 0 1
5196 1232 4 0 -11.4173497767344 -0.20416676067235784 -11.920391591394013 11 0 0
250 50 3 0 -11.803707927323114 -0.1428536036661736 -11.959824135170425 12 0 0
5194 1232 2 0 -10.977104040726731 -0.3244620322804117 -11.915324700868819 11 0 0
5195 1232 4 0 -10.558436512857112 -0.4501208875728029 -11.92337223769397 11 0 0
2509 502 3 0 -9.605967179776439 -0.6754998043021825 -11.872583047736123 12 0 0
2506 502 1 0 -9.917329297334474 -0.6824449690109944 -11.547222260929898 12 0 0
2507 502 3 0 -9.7172462249556 -0.5457264300231177 -11.145437427389169 12 0 0
2508 502 3 0 -10.260356205232176 -0.3829775979438459 -11.65476845501695 12 0 0
4711 1071 2 0 -8.510608983587598 -0.5866227111425548 -11.202649073754769 11 0 1
4712 1071 4 0 -8.281511998741228 -0.7264308968974174 -11.58778405264836 11 0 1
1815 363 3 0 -7.90842721193622 -0.527864761550271 -11.568642928737368 13 0 1
1814 363 3 0 -7.276522946028907 -0.21737729932374528 -11.860260715665628 13 0 1
1811 363 1 0 -7.581622312115877 -0.5970252252000829 -11.862249557648594 13 0 1
428 86 3 0 5.762543993684659 -0.5295212810646426 -11.211520236666706 12 0 0
427 86 3 0 6.510807201250241 -0.32556999283261945 -11.248084024486683 12 0 0
2057 412 3 0 7.1879331307374805 -0.8745936807649368 -11.250879984147392 11 0 0
2056 412 1 0 7.28345089346778 -0.8579994635030985 -11.677617191971857 11 0 0
2059 412 3 0 7.70555569464771 -0.9922507395446782 -11.72919191544115 11 0 0
2058 412 3 0 7.238711060539103 -0.448781830308965 -11.824891504112529 11 0 0
4955 1152 4 0 9.865759431292787 -0.16032838798890658 -11.055601679650668 11 0 0
3894 798 4 0 11.674650087742762 -0.8873568538604388 -11.393900871845457 10 0 0
248 50 3 0 11.796998110870295 -0.649256530948513 -11.692296362137995 11 0 0
2445 489 3 0 9.429972928012319 -0.04316955821989943 -4.779145704442475 10 0 0
2109 422 3 0 -10.852823696012411 -12.003598860025702 -8.326802475006453 18 1 0
1602 321 3 0 0.5625944939627257 -11.374316401267896 -10.913331095430065 3 0 1
1601 321 1 0 0.7526598548574626 -11.772834428806147 -10.851754689039112 3 0 1
1605 321 3 0 0.7647608501527827 -11.874901925463591 -10.402860660155504 3 0 1
1604 321 3 0 1.1807616068613278 -11.757104002151435 -11.01044229584422 3 0 1
3944 815 4 0 1.5076657563508693 -11.986816117487638 -11.05458653455269 3 0 0
3272 655 3 0 2.5943498752309857 -11.202147221600889 -10.48378834097166 14 1 1
3273 655 3 0 3.2947485485326524 -11.436177878831826 -10.492175508314793 14 1 1
4887 1129 4 0 3.6560343852310133 -11.567796268835671 -10.65008135302689 14 1 0
4885 1129 2 0 4.078774702189168 -11.746022992468102 -10.684323012209026 14 1 0
4886 1129 4 0 4.4849468163755155 -11.91429895383814 -10.718709742449263 14 1 0
2123 425 3 0 8.213230619027527 -11.715995330501151 -10.764289299303789 16 1 0
2103 421 3 0 1.6689345532367543 -9.61192366884943 -12.002675412472218 12 1 0
1903 381 3 0 -8.197259729697764 -0.010153777671339625 -10.390484159025075 9 0 1
1649 330 3 0 -8.764413228513472 -10.716271489342287 -10.432143452441299 3 0 1
1647 330 3 0 -8.0248147837884 -10.652749343814488 -10.613427453722672 3 0 1
1646 330 1 0 -8.403737961273475 -10.431501763161393 -10.424254970056287 3 0 1
791 159 1 0 -1.1293605659930464 -10.414159573012714 -10.869211023505263 2 0 0
795 159 3 0 -0.9563187623820184 -10.739946075182532 -10.6330245767304 2 0 0
793 159 3 0 -1.3380981313738562 -10.12699090040216 -10.600036915565612 2 0 0
792 159 3 0 -0.7831633763509682 -10.183745096275315 -11.104097864374577 2 0 0
5852 1451 4 0 -0.6176907331170423 -10.94380515189908 -10.653571554982912 14 1 1
5851 1451 2 0 -0.1809511977867686 -11.025460687548035 -10.77202789169772 14 1 1
5853 1451 4 0 0.26191668181622596 -11.099688880503846 -10.877351232271469 14 1 1
5031 1177 4 0 0.6132723677631127 -10.977980735420479 -10.95815575652476 13 1 0
5589 1363 4 0 2.3215313595878246 -11.038829329868618 -10.253800365667072 13 1 1
3271 655 1 0 3.0248865391183983 -11.08742270241808 -10.555405224207378 14 1 1
5754 1418 4 0 2.7483299563206476 -10.701939945477008 -11.032877731247572 15 1 1
3274 655 3 0 3.068934286580591 -10.93451345027261 -10.981170699001508 14 1 1
3275 655 3 0 3.1360820002760033 -10.772310638806816 -10.276159028859254 14 1 1
1648 330 3 0 -8.492206859698046 -10.074999866506987 -10.665029652676026 3 0 1
3885 795 4 0 -1.6439909422701628 -9.93658689178464 -10.431883812921582 3 0 0
3867 789 4 0 -0.5123990826723919 -9.472730203075427 -10.316552160730634 5 0 0
3865 789 2 0 -0.13911853962097176 -9.364821179233504 -10.575333574777119 5 0 0
3866 789 4 0 0.23301436013706578 -9.25690709550708 -10.828924390839822 5 0 0
4842 1114 4 0 0.7772908926672546 -9.566635783910773 -10.777560338925689 16 1 0
4840 1114 2 0 1.0178470086345826 -9.50142919084112 -10.393556568746607 16 1 0
4772 1091 4 0 3.063087377692776 -9.933110524876387 -10.413934691838891 3 0 1
2448 490 3 0 3.7256790486191136 -9.16982540951267 -10.842541442396609 13 1 0
2446 490 1 0 3.551451732642482 -9.295137274434106 -10.433191247042416 13 1 0
2449 490 3 0 3.412458799146682 -9.71524997785292 -10.458841367467945 13 1 0
450 90 3 0 11.070002115992732 -9.361474048577682 -10.942615879043144 4 0 0
4432 978 2 0 -11.988528666104925 -8.379433601470312 -10.70102402417128 5 0 1
5916 1472 4 0 -9.766328261743658 -8.991912523436465 -10.739776521583012 15 1 1
5914 1472 2 0 -9.53549731348686 -8.924604611978477 -10.371813116806221 15 1 1
2450 490 3 0 3.1974136532102815 -9.022942124858702 -10.323299070738965 13 1 0
4036 846 2 0 9.942712297148589 -8.419554528249794 -10.735385996386206 3 0 0
4037 846 4 0 10.338486497932067 -8.646226383203775 -10.81175447412778 3 0 0
447 90 3 0 10.706882231114584 -8.74802106821528 -10.719523323848987 4 0 0
446 90 1 0 11.061167752196035 -9.03029487802566 -10.632046271097286 4 0 0
448 90 3 0 11.4452480586138 -8.792605687727702 -10.645887380654061 4 0 0
4433 978 4 0 11.811402857311975 -8.731141298179711 -10.535397354444001 4 0 1
4530 1010 4 0 -11.361761759532362 -7.977941389321014 -11.060966048513873 4 0 1
603 121 3 0 -11.499526595637533 -7.687071010801407 -10.811370592429428 4 0 0
4434 978 4 0 -11.699284590036408 -8.031384084517786 -10.858569276818988 5 0 1
601 121 1 0 -11.41529567020014 -7.476703188075118 -10.408920496758542 4 0 0
4716 1072 4 0 -8.600601543852969 -7.569295250361347 -11.02232062533199 4 0 1
1530 306 3 0 -8.239502703658852 -7.6493608865829765 -10.876383569679886 5 0 1
1526 306 1 0 -7.870280246990019 -7.933995890547108 -10.809801604164136 5 0 1
1527 306 3 0 -8.006478327649742 -8.32589641109702 -10.609137546607153 5 0 1
1528 306 3 0 -7.55652543565368 -7.723855040909351 -10.532797159912482 5 0 1
29 6 3 0 -2.65247187145018 -7.850004250336146 -10.712139800551107 3 0 0
27 6 3 0 -2.0415699504784186 -8.23741776715623 -10.554033382665795 3 0 0
26 6 1 0 -2.35627238074448 -7.974228526673129 -10.379590972459328 3 0 0
2089 418 3 0 9.209675810677474 -7.969720419354002 -10.761730951488051 14 1 0
2087 418 3 0 8.56926803399088 -7.810440676736852 -10.447032973424438 14 1 0
2086 418 1 0 8.978088310618581 -7.965181733528834 -10.371408910251855 14 1 0
4038 846 4 0 9.529983522951454 -8.182163591127315 -10.648351754502652 3 0 0
605 121 3 0 -11.416037963309027 -7.018085494872788 -10.470290191702611 4 0 0
4008 836 4 0 -11.636889586198956 -6.749376880035741 -10.67064776576797 5 0 0
4006 836 2 0 -11.87966960691166 -6.467023889369863 -10.929228717670068 5 0 0
4047 849 4 0 -1.3175290074562156 -6.535773665966753 -10.825894312188078 4 0 0
3994 832 2 0 0.3523739690497312 -6.782892424584396 -10.334835942141444 4 0 0
3996 832 4 0 0.6042515047898114 -6.487602814065908 -10.567401197515837 4 0 0
335 67 3 0 3.447160467657522 -6.833026184982591 -10.554313161478332 4 0 0
4086 862 4 0 4.129633084457524 -6.449977325161812 -10.4966009796939 4 0 0
4084 862 2 0 4.485986188813488 -6.657021052602139 -10.3022441253718 4 0 0
529 106 3 0 5.645789479981808 -6.836208256672494 -10.551250685457669 4 0 0
5139 1213 4 0 -10.098464309522914 -5.885294482245786 -10.58094381995592 8 0 0
805 161 3 0 -10.33127516574137 -6.061127916053387 -10.85617864768461 8 0 0
1644 329 3 0 -8.074126131868972 -5.686398840794986 -11.08451413037717 7 0 1
4045 849 2 0 -1.5884545889129935 -6.356008909338917 -11.134165581670434 4 0 0
390 78 3 0 -1.006844461707777 -6.479626446250576 -10.531241669309171 3 0 0
100 20 3 0 0.9585454598298089 -6.297550697075807 -10.673351640850148 4 0 0
96 20 1 0 1.2334710194397687 -6.086615302268466 -10.908493968575144 4 0 0
99 20 3 0 1.6340255642314538 -6.3138609702428905 -10.901953735332812 4 0 0
97 20 3 0 1.2881980103893689 -5.670821200688216 -10.745048680151083 4 0 0
4639 1047 2 0 2.3511616233648613 -6.356235847098424 -10.764042987782304 5 0 1
4641 1047 4 0 2.008852037940418 -6.314264502211247 -11.05514570076925 5 0 1
4640 1047 4 0 2.690031316523145 -6.397281455924403 -10.471833813348862 5 0 1
332 67 3 0 3.0089758110377485 -6.330199726772142 -10.217115396020743 4 0 0
1110 222 3 0 3.9785190533785766 -5.669069188673625 -11.262985231505436 4 0 1
1107 222 3 0 3.973266282690389 -6.324208594479512 -10.877264997495272 4 0 1
1106 222 1 0 4.23117684071725 -6.017832506645442 -11.1560076356742 4 0 1
1108 222 3 0 4.602866109332645 -5.870351662924157 -10.924143343917155 4 0 1
3947 816 4 0 4.97287713371291 -5.86089283611414 -10.725029933650776 4 0 0
528 106 3 0 5.41168513334534 -6.235507890028744 -10.261747871918546 4 0 0
1641 329 1 0 -7.810683936896866 -5.442127082937473 -10.826516502668584 7 0 1
1645 329 3 0 -7.981035479333756 -5.44284556565964 -10.36306743833535 7 0 1
1642 329 3 0 -7.418017793840793 -5.613749433842741 -10.82976611438503 7 0 1
3946 816 2 0 5.213928167252327 -5.467348018248762 -10.752528417180773 4 0 0
2338 468 3 0 5.711799940040265 -4.853244873454861 -10.94486281622503 6 0 0
3948 816 4 0 5.425552513496033 -5.083721711908681 -10.764558795284259 4 0 0
2315 463 3 0 9.963101215932426 -4.981252490449235 -10.357557323751324 13 1 0
5804 1435 4 0 -10.624991127338076 -3.66988029404685 -10.55087155099921 16 1 1
5803 1435 2 0 -11.012282294624116 -3.8024828703262976 -10.414064448890047 16 1 1
617 124 3 0 -10.234468318352532 -3.61956842403227 -10.60428151789361 6 0 0
618 124 3 0 -9.71534315992855 -4.090777620978754 -10.897838099064627 6 0 0
616 124 1 0 -9.830616299854885 -3.9019922624556216 -10.537176760202952 6 0 0
2388 478 3 0 6.476576268491023 -3.912070371686603 -10.536899454207864 10 0 0
1892 379 3 0 5.990323106952289 -3.6853627115304253 -11.044393604985519 9 0 1
1013 203 3 0 7.487002690756697 -3.771668030744131 -10.628714424297016 5 0 0
1011 203 1 0 7.849543250093774 -3.95593670482614 -10.869816176658425 5 0 0
1015 203 3 0 8.091492241519383 -4.220767974534559 -10.601156297392443 5 0 0
5702 1401 4 0 8.41963069953814 -4.391574087326227 -10.803948456348856 5 0 1
1012 203 3 0 8.10067420455405 -3.639069407757175 -11.018244765530257 5 0 0
5703 1401 4 0 9.190533301452824 -4.437719468636597 -10.324678595692998 5 0 1
5701 1401 2 0 8.791611669007079 -4.416181591065271 -10.572789265175281 5 0 1
619 124 3 0 -9.496762957655381 -3.647436682553675 -10.394557435598239 6 0 0
4302 934 4 0 -9.121646541002146 -3.689105090850523 -10.3772352278307 7 0 0
1680 336 3 0 3.5586253210994787 -2.99121222203323 -10.969954461100018 7 0 1
2387 478 3 0 5.891914885269333 -3.4298984235148655 -10.462015200387096 10 0 0
2389 478 3 0 6.608215162104045 -3.204160594757404 -10.455338511678734 10 0 0
2386 478 1 0 6.346872652819272 -3.529510414589655 -10.334381397620014 10 0 0
3779 760 4 0 8.420570120043834 -3.4947931919780295 -11.200391941670704 6 0 0
3778 760 2 0 8.747024831634384 -3.2868655707216288 -10.95744311563847 6 0 0
3780 760 4 0 9.075185314765879 -3.0958389694076374 -10.728083618979122 6 0 0
2963 593 3 0 9.38591941606255 -3.1612171614692635 -10.461563573764728 6 0 0
1677 336 3 0 3.909551019358675 -2.3685130036336286 -10.868842330897861 7 0 1
2962 593 3 0 9.151348861170291 -2.4523241199164474 -10.466952138209027 6 0 0
2961 593 1 0 9.386128259517598 -2.759882604055351 -10.23100886301273 6 0 0
1142 229 3 0 -10.232585317013967 -0.013242511769997023 -10.577831662147878 11 0 0
4713 1071 4 0 -8.72807896468267 -0.4460128256027076 -10.827855120542711 11 0 1
1905 381 3 0 -8.862096853980772 -0.2049674314937917 -10.528610334745942 9 0 1
2452 491 3 0 -4.536534047150343 -0.12006239345888403 -10.474933730381036 8 0 0
429 86 3 0 6.302706583644014 -0.7672095567342883 -10.69629660850835 12 0 0
426 86 1 0 6.176365947501978 -0.4186137370673535 -10.962332110976226 12 0 0
430 86 3 0 6.103080779267142 -0.07073311182493747 -10.728127227974051 12 0 0
5690 1397 4 0 7.4828594070255825 -0.6714129426222826 -11.059727132718505 12 0 1
5689 1397 2 0 7.610365687986246 -0.3803253552693704 -10.765077898283762 12 0 1
5691 1397 4 0 7.738844925838563 -0.08533701256405735 -10.45140216096568 12 0 1
2079 416 3 0 8.062180655110545 -0.14027760849881865 -10.219777138367025 13 0 0
4954 1152 2 0 9.437239098785703 -0.07347187395345323 -10.940274128779048 11 0 0
1919 384 3 0 10.228063365075354 -0.48076891705721536 -10.292639618493238 10 0 1
1918 384 3 0 10.180305553815803 -0.4093286985553508 -11.022538709931226 10 0 1
1916 384 1 0 10.454964154490739 -0.37639587007325837 -10.659815900388711 10 0 1
1917 384 3 0 10.806530285048982 -0.6474221933262037 -10.708434361139542 10 0 1
3893 798 4 0 11.18723807960787 -0.7119328150015871 -10.58001490570675 10 0 0
3892 798 2 0 11.428237383053272 -0.7959478010387322 -10.981687099642429 10 0 0
340 68 3 0 3.0123895052446237 -11.57296621464598 -9.762715461846502 6 0 0
336 68 1 0 3.1830181734249425 -11.676472639240583 -9.377812866369888 6 0 0
3465 693 3 0 11.250446977434255 -11.497076072118661 -9.448006644610738 11 1 1
1650 330 3 0 -8.321024750122714 -10.316803022980764 -10.036440129768872 3 0 1
712 143 3 0 -2.4847073249130354 -10.3648622789234 -9.638631410741707 3 0 0
3884 795 4 0 -2.322578933955656 -10.26517143648906 -10.005421277599543 3 0 0
383 77 3 0 1.5813438985342412 -10.296377015216363 -9.613134531877408 3 0 0
5588 1363 4 0 1.638109372047559 -10.575147686708364 -9.883753134922264 13 1 1
5587 1363 2 0 1.9742682347932075 -10.807791406412473 -10.070345845164807 13 1 1
402 81 3 0 -9.459844592847425 -9.5857007693799 -9.429118884727426 6 0 0
401 81 1 0 -9.130289744703814 -9.317441831401675 -9.35937205111418 6 0 0
2373 475 3 0 -4.118193968944333 -9.356904663933605 -9.337223495054173 12 1 0
3883 795 2 0 -1.9806797874439592 -10.102021241074754 -10.220934219836304 3 0 0
459 92 3 0 -0.5890958485749032 -9.564065560863233 -9.919745491311634 4 0 0
456 92 1 0 -0.7284433120040248 -9.466182087113744 -9.504269127769907 4 0 0
458 92 3 0 -0.3778241188036269 -9.365032344488885 -9.242032782806076 4 0 0
381 77 1 0 1.6856580123914817 -9.851800997110052 -9.587744145415183 3 0 0
4841 1114 4 0 1.2621290852540064 -9.427479394762452 -9.99919741543819 16 1 0
384 77 3 0 1.3271600816792155 -9.610830156861468 -9.652309334587027 3 0 0
4773 1091 4 0 2.324509541576143 -9.940295115286705 -9.87768387431214 3 0 1
385 77 3 0 1.9751785660987018 -9.753924938008979 -9.884121480825076 3 0 0
4771 1091 2 0 2.707439289960421 -9.940426015164038 -10.154318601401647 3 0 1
2447 490 3 0 3.8759495265547113 -9.25318790086278 -10.120464132104283 13 1 0
498 100 3 0 6.964373313113327 -9.285943986308665 -9.970092777273297 3 0 0
5915 1472 4 0 -9.293226093997866 -8.846183160305234 -9.971338229695567 15 1 1
4088 863 4 0 -8.905558294617496 -8.765330698141986 -9.982436539372792 5 0 0
405 81 3 0 -9.042877276925156 -9.074524120603334 -9.744146681469584 6 0 0
4087 863 2 0 -8.56756280247348 -8.51836572430654 -10.11325077016285 5 0 0
4060 854 2 0 -3.0446633899949536 -8.476951478739808 -9.423163762565304 3 0 0
4565 1022 4 0 -1.0747784080776057 -8.739009860234095 -9.52001114524332 4 0 1
460 92 3 0 -1.0139226943420176 -9.122279609079103 -9.5152090259595 4 0 0
4564 1022 2 0 -1.045133149265924 -8.380230764733037 -9.723563601100869 4 0 1
496 100 1 0 7.1886365160845145 -9.042098713872118 -9.696906560438162 3 0 0
499 100 3 0 7.6170775699092985 -9.035272986694967 -9.818675146608753 3 0 0
497 100 3 0 7.022337513195115 -8.596563173440222 -9.695798347392545 3 0 0
4082 861 4 0 7.997256093322079 -9.090289411582667 -9.907485144903825 2 0 0
4081 861 2 0 8.302693114081265 -8.77634375768069 -9.982052825319638 2 0 0
4083 861 4 0 8.626060238490336 -8.46562121962354 -10.06447181811028 2 0 0
2088 418 3 0 8.972378999968107 -8.369813415849222 -10.211318785715008 14 1 0
449 90 3 0 11.01181427919224 -9.210679826371447 -10.226337329408013 4 0 0
604 121 3 0 -11.734915837705142 -7.586840928276993 -10.10830694650228 4 0 0
602 121 3 0 -11.010534639478948 -7.608456908658452 -10.261253435550675 4 0 0
4089 863 4 0 -8.226137256887721 -8.271027040131697 -10.245063070072032 5 0 0
30 6 3 0 -2.580880804923602 -8.194687201700663 -10.05390287407307 3 0 0
4061 854 4 0 -2.828847725316379 -8.24119392677666 -9.731317632007954 3 0 0
28 6 3 0 -2.1659895983520734 -7.599520940061856 -10.216099375983708 3 0 0
5676 1392 4 0 -1.9949072405922603 -7.406599684373581 -9.895501592572073 13 1 1
4566 1022 4 0 -1.0004802868078286 -7.985228931580417 -9.936619752057393 4 0 1
2674 535 3 0 -0.6576849449647462 -7.8251862862776145 -9.826242741321272 4 0 0
2090 418 3 0 9.196005263912813 -7.672908529358021 -10.071168750458694 14 1 0
5674 1392 2 0 -1.8233204882905962 -6.992312838791627 -9.779004628494581 13 1 1
5675 1392 4 0 -1.6603689398811436 -6.604076624838462 -9.67128102047776 13 1 1
388 78 3 0 -1.4324659742433834 -6.471232264881845 -9.950071468711121 3 0 0
2675 535 3 0 -0.9537151848751009 -7.279653073550765 -10.228466539469116 4 0 0
3995 832 4 0 0.10583153294070513 -7.067957686766294 -10.10525198317321 4 0 0
2673 535 3 0 -0.22152837022548866 -7.277832560582847 -10.073512099251738 4 0 0
2671 535 1 0 -0.6426672012292816 -7.38638902705594 -9.91828409501513 4 0 0
2672 535 3 0 -0.7307291189386955 -7.142524541240381 -9.524911262181654 4 0 0
331 67 1 0 3.367455296332002 -6.580672189389271 -10.169174111046871 4 0 0
334 67 3 0 3.2907089189797816 -6.873787474607481 -9.795012925399 4 0 0
4085 862 4 0 4.864189684780023 -6.872944227732066 -10.09850993801549 4 0 0
530 106 3 0 5.248087955652082 -6.846251440882516 -9.944680051666166 4 0 0
527 106 3 0 5.9556406313810974 -6.593814917278799 -9.918873306111152 4 0 0
526 106 1 0 5.560029295965965 -6.623338607373731 -10.174759345461435 4 0 0
5137 1213 2 0 -9.955387792350416 -5.769012964754246 -10.170464937752564 8 0 0
5138 1213 4 0 -9.822366597454932 -5.643531231910964 -9.750974499876019 8 0 0
1582 317 3 0 -8.239527184521483 -6.1016231851482345 -9.607037982911105 8 0 1
1585 317 3 0 -7.827007906331107 -6.625279219965647 -9.966461259139594 8 0 1
1581 317 1 0 -7.831192475111234 -6.301029295380539 -9.630357319056483 8 0 1
1583 317 3 0 -7.512292560256777 -5.984101292966506 -9.723712115633276 8 0 1
389 78 3 0 -1.2437222964965429 -5.840439569595601 -10.243465651664282 3 0 0
386 78 1 0 -1.1112105182921574 -6.262271851685929 -10.149348130864142 3 0 0
387 78 3 0 -0.7369148632322116 -6.241914691105676 -9.880353862718334 3 0 0
4011 837 4 0 -0.353541542290694 -6.2822369976088295 -9.79346726699013 4 0 0
4009 837 2 0 -0.30345918882658296 -6.01991009463045 -9.433543059146938 4 0 0
333 67 3 0 3.7231447593221656 -6.322171244790145 -10.088088610797431 4 0 0
5006 1169 4 0 6.3336714185640695 -6.5155523742420645 -9.840473017749877 4 0 0
5005 1169 2 0 6.746180165257943 -6.309542498890346 -9.805293945200814 4 0 0
5007 1169 4 0 7.134624592184185 -6.11572652688559 -9.77389664373269 4 0 0
134 27 3 0 7.467565347063783 -5.990466906536741 -9.570179971054046 5 0 0
131 27 1 0 7.733553171040427 -5.632713534686444 -9.48148562112666 5 0 0
4004 835 4 0 -8.181687584613446 -5.315104532210669 -10.030120093242147 6 0 0
4003 835 2 0 -8.16009339590661 -4.98198862456226 -9.727714904557194 6 0 0
4005 835 4 0 -8.143813966846587 -4.627730950025719 -9.393232070241293 6 0 0
132 27 3 0 7.8633979807314915 -5.428466450048483 -9.87469208762455 5 0 0
4732 1078 2 0 8.989496785408559 -5.340728794107894 -9.377952985451016 4 0 1
4733 1078 4 0 9.361275401494812 -5.141209331586185 -9.587459021536183 4 0 1
2313 463 3 0 9.446623953110294 -4.822108365569294 -9.820097009833853 13 1 0
2311 463 1 0 9.776545387039636 -4.638456506046507 -10.092695283190196 13 1 0
5805 1435 4 0 -11.41112613621935 -3.9303945370526563 -10.267139032394274 16 1 1
2195 439 3 0 -11.78227902020762 -3.9827338659105926 -9.432703939894564 16 1 0
2191 439 1 0 -12.006328315596534 -3.7773809721514375 -9.759645370996314 16 1 0
620 124 3 0 -9.920202323224375 -4.212816256966144 -10.220320939213055 6 0 0
4943 1148 4 0 -10.03845825268067 -3.9931488428071447 -9.898317064922153 7 0 0
4942 1148 2 0 -9.96995838230933 -4.1793402187026185 -9.485374475157801 7 0 0
2314 463 3 0 9.583974999806149 -4.300655759275064 -10.364798837570037 13 1 0
2312 463 3 0 10.101864288215094 -4.458434529195388 -9.823164538678 13 1 0
4704 1068 4 0 10.51236381725008 -4.5766367341157395 -9.79412535582706 4 0 1
4702 1068 2 0 10.957403135880778 -4.402581055844419 -9.845785017457523 4 0 1
4703 1068 4 0 11.402612916152243 -4.23504767422214 -9.90313451025138 4 0 1
2192 439 3 0 11.658578400922266 -3.949543440496999 -9.779073091400377 15 1 0
2193 439 3 0 -11.80247708054208 -3.8378672278408583 -10.143036849956976 16 1 0
4300 934 2 0 -8.792747905655 -3.534239301876841 -10.084823988440629 7 0 0
4301 934 4 0 -8.462739821028938 -3.379049341869873 -9.798975563069968 7 0 0
109 22 3 0 -8.237951621188328 -3.518801631035128 -9.47884826770036 10 0 0
2390 478 3 0 6.359967046216596 -3.5871803116325083 -9.884244441749725 10 0 0
2194 439 3 0 -12.02840450585333 -3.3464448641304454 -9.659048486170569 16 1 0
2965 593 3 0 9.18034492227547 -2.8221816066858416 -9.801636235108232 6 0 0
2964 593 3 0 9.815963112857055 -2.6054532804916306 -10.172050987761091 6 0 0
4455 985 4 0 9.949974999899112 -2.2720060665179496 -10.03324851819413 9 0 1
4453 985 2 0 10.197811472388075 -2.004666855890541 -9.76923907186044 9 0 1
1287 258 3 0 -10.052789682467422 -0.8888311286629609 -9.320427414409895 13 0 0
4454 985 4 0 10.458563647992726 -1.731002329849213 -9.49940201947387 9 0 1
1524 305 3 0 10.838092510058814 -1.6302728071293568 -9.4681346287837 8 0 1
1521 305 1 0 11.176367438012637 -1.357035016225609 -9.373798057660911 8 0 1
1523 305 3 0 11.52721772035639 -1.4292738262899167 -9.682712766317277 8 0 1
1289 258 3 0 -10.717852150611229 -0.7665825193346603 -9.543354519849832 13 0 0