LAMMPS data file via write_data, version 4 Feb 2025, timestep = 800000, units = lj

3100 atoms
4 atom types
2100 bonds
1 bond types
1250 angles
2 angle types

-10.410592 10.410592 xlo xhi
-10.410592 10.410592 ylo yhi
-10.410592 10.410592 zlo zhi
-7.105427357601002e-15 0 0 xy xz yz

Masses

1 1
2 1
3 0.1
4 0.1

Bond Coeffs # harmonic/omp

1 100 0.45

Angle Coeffs # harmonic/omp

1 100 180
2 100 109.471

Atoms # full

2773 891 4 0 -8.451460516344103 -10.264903495700596 -10.134290115961575 12 1 1
613 171 4 0 -8.07319975732438 -10.301122040102811 -10.211464548537622 3 0 1
611 171 2 0 -7.6490578889769525 -10.245936201742996 -10.248003018253046 3 0 1
612 171 4 0 -7.2055440316715815 -10.19926561964712 -10.28905666283945 3 0 1
119 24 3 0 -0.8125711991582865 -9.883130870004356 -10.372968580084985 11 1 1
401 101 2 0 -0.12190814771348535 -9.854107729222143 -9.855008069471715 3 0 1
402 101 4 0 -0.486803218219686 -9.788388371887601 -10.136287133840227 3 0 1
2564 822 2 0 -9.67705219199354 -7.010296059635922 -9.992826409423063 4 0 0
2565 822 4 0 -9.834639014366658 -7.136762409792505 -10.408735206197996 4 0 0
2691 864 4 0 -4.376960236227022 -7.157544757584804 -9.938774055758305 3 0 0
2690 864 2 0 -4.2547512100317135 -7.370726472339273 -10.321306345420814 3 0 0
1287 396 4 0 -4.265982520520043 -7.133188881424309 -9.54911081957247 3 0 0
2566 822 4 0 -9.526986486074822 -6.890249612333367 -9.591373407120173 4 0 0
453 118 4 0 -2.341381727423556 -3.0418106631569337 -10.398976596403406 -3 -1 0
1832 578 2 0 -0.7295791443236723 -2.7656653776249733 -10.379428493639292 7 0 0
1065 322 4 0 -3.053846289343415 -2.0993798010495706 -10.31822026000284 5 0 0
1833 578 4 0 -0.3991242605836707 -2.4837364264267157 -10.191023367280819 7 0 0
1173 358 4 0 -0.12338587923221134 -2.2368600843090363 -10.289714757264662 14 1 0
1553 485 2 0 -2.1813637968595394 -10.33311015532066 -8.779790700018857 12 1 0
924 275 4 0 -1.4304635274814075 -10.20065839571142 -8.878506942104492 4 0 1
923 275 2 0 -1.0241033998959495 -10.39686430332686 -8.74803773919648 4 0 1
3044 982 2 0 -9.072595826996125 -6.940931092943488 -8.89243381788243 12 1 0
3046 982 4 0 -9.269313136136716 -7.00876685963391 -9.295147276182963 12 1 0
1286 396 2 0 -3.9569404434656335 -6.920177894687539 -9.314184499823373 3 0 0
1288 396 4 0 -3.628077880414021 -6.692873410004019 -9.068443736993379 3 0 0
1722 541 4 0 -3.4885212582157754 -6.453359495337174 -8.760566211980832 3 0 -1
2167 689 4 0 -9.335642291374176 -5.658682533063628 -8.839759972214056 7 0 2
1555 485 4 0 -2.6095794094791493 -10.19403892426248 -8.671084792712314 12 1 0
517 139 4 0 -2.9887830651280067 -10.122340954990554 -8.625841000359907 4 0 0
515 139 2 0 -3.2130101580324526 -10.332812437753557 -8.284118492357827 4 0 0
2138 680 2 0 -8.521801582574138 -7.178369113218304 -7.84083588921014 4 0 1
3045 982 4 0 -8.872683645138789 -6.884102970486987 -8.496116045057212 12 1 0
2140 680 4 0 -8.66593507829033 -6.850951111139565 -8.158904042813205 4 0 1
1721 541 2 0 -3.265272847180185 -6.527904529957936 -8.367426415126612 3 0 -1
1723 541 4 0 -3.0346930053735983 -6.595742741102736 -7.937213929798803 3 0 -1
1245 382 4 0 -10.197595450107395 -5.886461171283391 -8.05477864076069 6 0 0
2166 689 4 0 -9.784829886196919 -5.94674532886663 -8.07670486428301 7 0 2
2165 689 2 0 -9.554712526526368 -5.803535220067702 -8.466642296992143 7 0 2
2826 909 4 0 -5.843967121182323 -0.8725262912134202 -8.032478891876467 11 0 1
2476 792 4 0 -7.028942201544483 -0.7932385949506422 -7.832611612409648 11 0 0
2827 909 4 0 -6.711521165904859 -0.6694011821335124 -8.091462356618916 11 0 1
2825 909 2 0 -6.279479789361273 -0.764005234401397 -8.062608529068987 11 0 1
645 182 4 0 -5.616972863802058 -0.6212853232872071 -8.263322314874497 10 0 1
644 182 2 0 -5.215287538068189 -0.4492907824720227 -8.149691647475823 10 0 1
646 182 4 0 -4.812975143152533 -0.2721260244954049 -8.033734478487686 10 0 1
2171 691 2 0 -4.108248720811644 -0.0902833364203115 -7.896060502019743 10 0 1
2139 680 4 0 -8.390104515788687 -7.486085285577397 -7.542690552760089 4 0 1
810 237 4 0 -8.56791119884091 -7.600044723590648 -7.207929705862475 4 0 1
984 295 4 0 -2.816916833988307 -6.73128907516506 -7.627410715059494 10 1 0
985 295 4 0 -1.9955368353595784 -6.791346774735407 -7.330861114636575 10 1 0
983 295 2 0 -2.410247003730012 -6.760375683146953 -7.474400570136851 10 1 0
1117 339 4 0 -1.7093737093186352 -6.876353491255067 -7.604946136042024 3 0 -1
1115 339 2 0 -1.291114083403352 -6.796783696745515 -7.584369977148084 3 0 -1
1116 339 4 0 -0.8516297197472174 -6.710463388475408 -7.554703615149691 3 0 -1
1746 549 4 0 -0.5580161226492653 -6.455592732716618 -7.605768634832947 12 1 0
1745 549 2 0 -0.26727978038243094 -6.365183257308541 -7.298862498451406 12 1 0
596 166 2 0 -9.643940361532454 -0.10652334571066113 -7.248911730042694 11 0 0
598 166 4 0 -9.3384120160281 -0.4336808431028345 -7.325526014209218 11 0 0
753 218 4 0 -9.196180372704964 -0.71896964945436 -7.560310477827017 10 0 0
752 218 2 0 -8.764623128353467 -0.6179193985706171 -7.650492079636612 10 0 0
2475 792 4 0 -7.916254029450865 -0.641320849046501 -7.692689748003543 11 0 0
754 218 4 0 -8.347807875782268 -0.5272632015357352 -7.741194833682558 10 0 0
2474 792 2 0 -7.46749938987986 -0.7166585209440495 -7.75909668090838 11 0 0
2173 691 4 0 -4.533677440764047 -0.2228536466165565 -7.764171250927291 10 0 1
558 153 4 0 -1.3748062338495064 -0.06883227789894342 -7.776443855185322 7 0 0
957 286 4 0 -1.2100703071278023 -0.40741067973463885 -7.555232834433687 3 -1 1
956 286 2 0 -1.123036495414114 -0.6716985239362767 -7.20216526908103 3 -1 1
2978 960 2 0 -10.154311755164317 -9.805109922298678 -6.66684303141828 12 1 1
2980 960 4 0 -9.724486949109927 -9.966708346631883 -6.7503536622739615 12 1 1
538 146 4 0 -9.402206773457902 -10.06308424477495 -6.556357428360647 3 0 0
353 85 2 0 -9.777446553134267 -6.992692520223985 -6.791942881436752 4 0 0
809 237 2 0 -8.931159537229856 -7.622555344161876 -6.9061622673768905 4 0 1
811 237 4 0 -9.24533986335599 -7.637958869270674 -6.632738702516651 4 0 1
354 85 4 0 -9.491432810564273 -7.371337119498325 -6.787442941851018 4 0 0
355 85 4 0 -10.049710116697716 -6.63101416984988 -6.807877796063941 4 0 0
2397 766 4 0 -10.12209381978014 -6.439978449065668 -6.483615063690301 4 0 0
691 197 4 0 -9.79708461807213 -4.536244362246852 -6.771597617733857 12 1 0
468 123 4 0 -10.143122032790751 -4.535643000218811 -6.563337231961036 4 0 0
689 197 2 0 -9.360839355555596 -4.681359160776234 -6.729447420774614 12 1 0
690 197 4 0 -8.877477492030287 -4.8366101511842485 -6.672788823702334 12 1 0
939 280 4 0 -8.498530775143584 -4.8729760113709855 -6.809095641061303 6 0 1
938 280 2 0 -8.228922398180892 -4.5484123670990595 -6.597870599255285 6 0 1
940 280 4 0 -7.9673345929240895 -4.251614550251178 -6.400911099133114 6 0 1
2863 921 4 0 -8.22677484739702 -4.0356361148741176 -6.199118041832096 14 1 1
1296 399 4 0 -8.718550556869632 -2.9597542045426675 -6.0971171462893174 5 0 0
958 286 4 0 -1.0330450683543084 -0.9475149472539499 -6.858944426404552 3 -1 1
2046 649 4 0 -5.2750612272772175 -0.5294722435110675 -6.325846586340109 8 0 0
2045 649 2 0 -5.6658629099071725 -0.6027039777932952 -6.162089308256612 8 0 0
625 175 4 0 -5.019710306791213 -0.2681775914238731 -6.146298803753209 7 0 1
623 175 2 0 -4.699486240674003 -0.10253752733292743 -6.421211277066642 7 0 1
765 222 4 0 -1.2204061987616903 -9.431140774771903 -5.454905553232551 3 0 1
135 27 3 0 -0.8222752373419908 -9.365317138756804 -5.55378064221798 4 0 0
133 27 3 0 -0.0960442894832152 -9.462902953908694 -5.50232161905005 4 0 0
131 27 1 0 -0.4712413821380217 -9.479936390441692 -5.281440243300501 4 0 0
2193 698 4 0 -10.116528207467947 -6.373239859040912 -5.298127066008617 4 0 1
2398 766 4 0 -10.210033085832475 -6.11257495262338 -5.586846627878536 4 0 0
2396 766 2 0 -10.161226658698533 -6.276240659313115 -6.037324495322907 4 0 0
2861 921 2 0 -8.366468926307771 -3.6299344435381666 -6.059082926177135 14 1 1
239 48 3 0 -9.712572185432272 -2.605553835251217 -5.335916235292914 7 0 0
1295 399 2 0 -9.050996585830374 -2.8104183325783847 -5.793515814702628 5 0 0
1297 399 4 0 -9.37009771839531 -2.669340977623637 -5.505836830906531 5 0 0
2862 921 4 0 -8.5041403537239 -3.2263431227266217 -5.917180323261847 14 1 1
2750 884 2 0 -8.997202678021 -0.8973393724354182 -5.264069446307259 6 0 0
1212 371 4 0 -7.660192273788043 -0.8867455442912373 -6.0216966091461215 -1 -1 0
2752 884 4 0 -8.598173017945575 -0.7800898253622517 -5.462609122217851 6 0 0
1213 371 4 0 -8.3430966076762 -0.4911765060363873 -5.584972140804863 -1 -1 0
1211 371 2 0 -7.99132999355913 -0.6919891928483803 -5.802465738192537 -1 -1 0
1669 523 4 0 -7.341207973786206 -0.6705041607442457 -6.042326645214171 7 0 1
2047 649 4 0 -6.077366911869766 -0.683066366836151 -5.9842667948147765 8 0 0
1667 523 2 0 -6.865039353134431 -0.566592398355473 -5.968279381195711 7 0 1
1668 523 4 0 -6.418529950386555 -0.47046206489707565 -5.8854218690501146 7 0 1
1718 540 2 0 -1.7440040486080477 -0.17643594279872232 -5.215117344056601 6 0 -1
134 27 3 0 -0.5242630070754029 -9.90039013611414 -5.130983804816512 4 0 0
2928 943 4 0 -0.4062333705350678 -10.27836958091709 -5.037181502936184 4 0 0
766 222 4 0 -1.8997814947976757 -9.243271543161514 -4.84565314397468 3 0 1
1897 599 4 0 -2.048918254625704 -9.240961295065052 -4.489552781010548 4 0 0
764 222 2 0 -1.5674048221410057 -9.332853756067367 -5.142518436874797 3 0 1
1886 596 2 0 -0.04979693155199172 -8.844653095474127 -4.5019043522038835 4 0 0
132 27 3 0 -0.45495910940512907 -9.192782521197481 -4.938772371033452 4 0 0
1888 596 4 0 -0.20004844937084876 -9.249556852822442 -4.631303141565691 4 0 0
2194 698 4 0 -10.105806449665769 -6.6231445762400645 -4.421587313814803 4 0 1
2192 698 2 0 -10.110706795986932 -6.493443295754325 -4.879892426538368 4 0 1
1978 626 4 0 -9.311578939907694 -4.594556819829079 -4.495172455936666 5 0 0
1976 626 2 0 -8.93988938813202 -4.386503073498249 -4.6393905035740115 5 0 0
1977 626 4 0 -8.578959531806273 -4.167792639999577 -4.7808368557467364 5 0 0
603 168 4 0 -8.251830241094922 -4.052078812648013 -4.54821537207743 6 0 1
602 168 2 0 -7.822200725677101 -3.8724731225164346 -4.57450785227594 6 0 1
604 168 4 0 -7.400619075695784 -3.711372719527466 -4.59737659593647 6 0 1
2181 694 4 0 -7.034144359666608 -3.555031558035396 -4.5360898055539245 7 0 1
2180 694 2 0 -6.630536516964414 -3.4831870239458826 -4.728121333651708 7 0 1
2592 831 4 0 -10.014614632428438 -3.265669849068498 -4.5852388102608295 6 0 0
237 48 3 0 -9.79152501549935 -2.985068220448646 -4.736336139089641 7 0 0
236 48 1 0 -9.620893139243178 -2.616031000267885 -4.904269487053673 7 0 0
2182 694 4 0 -6.234660769735248 -3.4201789595151206 -4.915630382549669 7 0 1
2314 738 4 0 -5.8700319015014335 -3.3267106762244394 -4.818501459349795 6 0 1
2312 738 2 0 -5.469768454975716 -3.077206052793078 -4.859045301537303 6 0 1
2313 738 4 0 -5.106351660639744 -2.8518921870045792 -4.896127311721288 6 0 1
2001 634 4 0 -4.74867526352852 -2.890258703652089 -5.042359763252729 7 0 0
2000 634 2 0 -4.345533599492951 -2.7289460630545683 -4.941855431102159 7 0 0
651 184 4 0 -9.848498097524168 -1.90141217152072 -4.540675185789546 6 0 0
240 48 3 0 -9.806749142527593 -2.259265105105829 -4.712569946392269 7 0 0
238 48 3 0 -9.188818273177342 -2.601276542867084 -4.841529714579247 7 0 0
786 229 4 0 -8.966783942709508 -2.332755193949941 -4.674621763959257 6 0 1
785 229 2 0 -8.69497345455559 -1.9980224327881668 -4.5561383146156516 6 0 1
2002 634 4 0 -3.9236532879829147 -2.5621606367480316 -4.835270916460565 7 0 0
1362 421 4 0 -3.5980981222175945 -2.4382664775227614 -4.624791341040337 6 0 1
1361 421 2 0 -3.2594044003900784 -2.1632797479722363 -4.711681500919686 6 0 1
1363 421 4 0 -2.922215441227584 -1.9055280599753708 -4.796300201845398 6 0 1
650 184 2 0 -9.795300278152896 -1.4603486720046384 -4.7018419386660835 6 0 0
652 184 4 0 -9.740233743131894 -1.0209071618169592 -4.865773614224741 6 0 0
2751 884 4 0 -9.386164315287122 -1.0210915405473333 -5.056684422009441 6 0 0
787 229 4 0 -8.431470704542805 -1.671910608686856 -4.436361278542405 6 0 1
952 284 4 0 -2.7150401642041686 -1.5571803391341508 -4.748174049324764 8 0 0
950 284 2 0 -2.4676287046679937 -1.1831015259483664 -4.866949334548254 8 0 0
177 36 3 0 -5.90805567595763 -0.08415452849929217 -4.401326729100911 9 0 0
2233 711 4 0 -4.353817333275945 -0.12353348193257929 -4.487402836058243 9 0 0
951 284 4 0 -2.22058120979913 -0.797707932083263 -4.996093935742887 8 0 0
1719 540 4 0 -1.8691236589872933 -0.5837843933748754 -4.99993075429934 6 0 -1
394 98 4 0 -5.672881035561592 -9.741405499543951 -3.6953765135691867 3 0 0
1521 474 4 0 -5.346496294465011 -9.934046283480928 -3.8580024629453016 11 1 1
1520 474 2 0 -4.915445131121785 -9.996913437788846 -3.8763930215668507 11 1 1
1522 474 4 0 -4.483551314871979 -10.047020700867565 -3.8936483826068073 11 1 1
1927 609 4 0 -4.305269804465951 -10.313925587125002 -4.164616361809239 4 0 0
1896 599 4 0 -2.791740621194581 -8.807717888046447 -4.100654666789144 4 0 0
1895 599 2 0 -2.4251555028652083 -9.023403706420991 -4.291997481472024 4 0 0
2484 795 4 0 -2.6635784456893106 -8.437278784433826 -4.020609135348835 11 1 0
2483 795 2 0 -2.6017982031818123 -8.051220146883503 -3.7503038690212778 11 1 0
2485 795 4 0 -2.535672482741494 -7.695313492325922 -3.4946197584696455 11 1 0
2590 830 4 0 -9.910864209849397 -6.349600772497629 -4.1851741043366415 4 0 0
2589 830 4 0 -9.857635485162065 -5.587413434413859 -3.6790777590735573 4 0 0
2588 830 2 0 -9.881589488563195 -5.97855971526744 -3.9337945970888057 4 0 0
17 4 3 0 -9.520067248172447 -5.351902476141287 -3.739310694686001 3 0 0
20 4 3 0 -9.971911729691342 -4.745474836806278 -3.8626727094202478 3 0 0
2797 899 4 0 -10.260112336290279 -4.435995032074106 -3.8935480698286113 12 1 0
16 4 1 0 -9.513478954260252 -4.913322523898822 -3.7966202334528223 3 0 0
19 4 3 0 -9.260544282857754 -4.816774877983745 -4.161789152905558 3 0 0
416 106 2 0 -1.135753986867627 -4.994558485595972 -3.5004433312612644 5 0 0
1198 366 4 0 -0.3802749685425759 -4.8889001959393 -3.6879630574494824 5 0 0
418 106 4 0 -0.7556196237703716 -5.0111731886285815 -3.7625656681192465 5 0 0
1323 408 4 0 -8.363158767489406 -1.3724310606993981 -4.196721828963919 14 1 0
1322 408 2 0 -7.966604776159493 -1.2296273972182465 -4.032919050296232 14 1 0
1324 408 4 0 -7.585419351021054 -1.0957418116314699 -3.8738798111170656 14 1 0
2913 938 4 0 -7.391655184673937 -0.7870067793625495 -3.673217039063865 14 1 0
2912 938 2 0 -6.9704011946166595 -0.6470746177585678 -3.7878920665262843 14 1 0
2914 938 4 0 -6.556308973858491 -0.5082385488054406 -3.9005955228922593 14 1 0
179 36 3 0 -6.15766853314698 -0.4945310337160347 -3.859304293995339 9 0 0
176 36 1 0 -5.797294711603987 -0.2755430653603401 -4.017560465846561 9 0 0
180 36 3 0 -5.459682736462579 -0.5549355549540298 -4.091054181621738 9 0 0
2231 711 2 0 -4.727166709327916 -0.3173448731025079 -4.292124676612273 9 0 0
2232 711 4 0 -5.075183091890386 -0.49210420166851243 -4.1104971893272495 9 0 0
393 98 4 0 -6.244833949170208 -9.962829740880672 -3.0870083609687136 3 0 0
2809 903 4 0 -6.6061477901617955 -10.071280576098504 -3.0012066616664157 4 0 0
392 98 2 0 -5.961335304477605 -9.847674563841611 -3.3891490329403746 3 0 0
1775 559 2 0 -3.975585034861729 -10.368291453556864 -2.7384421277858353 4 0 0
1776 559 4 0 -3.588782516864546 -10.269562727923425 -2.9722569573303996 4 0 0
2757 886 4 0 -3.6180566259678546 -9.959313676041322 -3.2274824312722528 5 0 1
2756 886 2 0 -3.235859973278637 -9.704030643804687 -3.213961125131089 5 0 1
2758 886 4 0 -2.8477098008505903 -9.454945615320506 -3.209223033700855 5 0 1
1840 580 4 0 -2.4997106209962707 -9.319805811172682 -3.0707648989738026 5 0 0
1838 580 2 0 -2.2883463375450006 -9.018407259652587 -2.837400984520242 5 0 0
1543 481 4 0 -1.8144932329565844 -8.38556979797107 -2.626708406097377 13 1 0
1686 529 4 0 -2.391129113594589 -7.336885642949336 -3.3866973730057293 3 0 0
1685 529 2 0 -2.0483961720195794 -7.025528754101968 -3.2916767780323157 3 0 0
1687 529 4 0 -1.734136767529174 -6.7400513933054444 -3.198893326614191 3 0 0
622 174 4 0 -1.4352782575555878 -6.726635369018954 -2.9067122541232937 2 0 0
620 174 2 0 -1.05091895893473 -6.624808738635341 -2.6945228055591093 2 0 0
2636 846 2 0 -1.9662103393565609 -5.21381915598893 -2.75149735044186 5 0 0
2637 846 4 0 -2.387401805881389 -5.28480829019655 -2.615206516303413 5 0 0
18 4 3 0 -9.329763156467997 -4.712582239335531 -3.426352969185902 3 0 0
1008 303 4 0 -9.150326289696075 -4.356307107755358 -3.42246734924605 4 0 0
417 106 4 0 -1.4900963147739894 -4.982811215764684 -3.253015785821037 5 0 0
2638 846 4 0 -1.5610298356742742 -5.14303343943814 -2.8882725435576777 5 0 0
2574 825 4 0 -10.28452562981528 -4.195396610370157 -2.6980137763276124 7 0 0
1007 303 2 0 -8.878447883494164 -4.090065515263053 -3.186265902218085 4 0 0
1009 303 4 0 -8.605464217677312 -3.826492181435304 -2.961353707071275 4 0 0
910 270 4 0 -8.340521294228367 -3.5243091519020187 -3.020736447475473 4 0 1
908 270 2 0 -7.865608045493847 -3.4444902883549 -3.048749691630656 4 0 1
1219 373 4 0 -7.28568112034497 -2.9742439817835598 -3.016503889645959 4 0 0
909 270 4 0 -7.424813657601668 -3.3676002726891774 -3.0688039777938254 4 0 1
1217 373 2 0 -6.9857594982652325 -2.648488759261105 -3.08314345692631 4 0 0
648 183 4 0 -6.672224028868886 -1.9207319640268725 -3.076119972983819 -4 -1 1
1218 373 4 0 -6.683343201631455 -2.3005876603871958 -3.1412346451615605 4 0 0
647 183 2 0 -6.805945474706448 -1.5648462628545197 -2.832768458339727 -4 -1 1
862 254 4 0 -5.289027744075182 -10.357406909309011 -1.7940634909274813 4 0 0
1839 580 4 0 -2.084049780182111 -8.703951685370441 -2.5993851200311013 5 0 0
1541 481 2 0 -1.869607736876148 -8.124294412436 -2.2546256275447014 13 1 0
1542 481 4 0 -1.925592759801356 -7.873263702052884 -1.8964936821802763 13 1 0
3077 993 2 0 -9.94664075594553 -6.287769155017205 -1.8052906927389092 12 1 0
621 174 4 0 -0.6819549488568768 -6.530496570374975 -2.4962969207158245 2 0 0
2220 707 4 0 -0.6672337598590676 -6.252360639381395 -2.20948291971456 11 1 1
2219 707 2 0 -0.3228937207463858 -6.223042526237828 -1.9197743417966162 11 1 1
3078 993 4 0 -9.722628462606803 -5.917870743463699 -1.940436169314074 12 1 0
2658 853 4 0 -9.344667974767418 -5.93616260092661 -1.81284232249231 13 1 0
2657 853 2 0 -8.911618542718818 -5.853127382143678 -1.9023805037365769 13 1 0
2659 853 4 0 -8.4888323623808 -5.773663203272055 -1.9998975469108515 13 1 0
2868 923 4 0 -8.136735560391163 -5.857763962972811 -2.173485552562786 12 1 1
2867 923 2 0 -7.6874689002826315 -5.876319041239033 -2.260981704232197 12 1 1
2869 923 4 0 -7.2277283710495634 -5.894665320703885 -2.3485796370437253 12 1 1
1502 468 2 0 -6.5013068508486604 -5.662485146288879 -2.0140612060007417 12 1 0
1504 468 4 0 -6.074908420898215 -5.573048541713968 -1.8822874078486418 12 1 0
1503 468 4 0 -6.918231825909469 -5.750369110873711 -2.148001664518322 12 1 0
679 193 4 0 -5.700039352392591 -5.466604201512355 -1.7376800707623978 12 1 0
677 193 2 0 -5.286209095642627 -5.318572261573297 -1.8262603122929004 12 1 0
3066 989 4 0 -4.584014002510137 -5.40913496619774 -1.8695252865281944 14 1 0
3065 989 2 0 -4.127436707950669 -5.42181980047498 -1.899843751639862 14 1 0
3067 989 4 0 -3.66911325464696 -5.441075428394469 -1.943800039060557 14 1 0
3 1 3 0 -3.3547806221768175 -5.447942041739354 -2.187034246520323 4 0 0
5 1 3 0 -2.7015684593013374 -5.252196205566441 -2.366222250654447 4 0 0
678 193 4 0 -4.876042243866233 -5.167304405076877 -1.9172156881778122 12 1 0
4 1 3 0 -3.163995414773214 -4.743494855199137 -2.1548629170712434 4 0 0
1 1 1 0 -3.024133447998329 -5.173720056266796 -2.0949362260796 4 0 0
1702 534 4 0 -3.362090894001928 -4.499119850592463 -1.8864060276263448 5 0 1
1125 342 4 0 -9.905109958471188 -4.24396544741811 -2.5777404117938882 4 0 0
1124 342 2 0 -9.56461897344973 -4.166638765276366 -2.287872546661431 4 0 0
1126 342 4 0 -9.226164046438946 -4.097792891246105 -1.9998452685137948 4 0 0
2338 746 4 0 -8.913011550548292 -3.844502831212969 -2.063297996112846 5 0 0
2336 746 2 0 -8.485481010238376 -3.639900402123118 -2.0135810278856674 5 0 0
2337 746 4 0 -8.093278912415478 -3.450748046813519 -1.9673072969754966 5 0 0
414 105 4 0 -7.783459315942238 -3.2358595641181234 -2.1314235366484446 4 0 -1
413 105 2 0 -7.335130760437698 -3.1118446484144444 -2.1424973940930307 4 0 -1
588 163 4 0 -6.500576344027447 -2.9566123711897117 -2.1346229128774343 13 1 0
587 163 2 0 -6.108589271002021 -2.8419925455434756 -1.9019294241226898 13 1 0
415 105 4 0 -6.894904208343011 -2.990286230366541 -2.140318824709505 4 0 -1
649 183 4 0 -6.94753597011867 -1.2148066275370528 -2.582322130154548 -4 -1 1
1954 618 4 0 -0.18669425321481192 -1.021459952431261 -2.2685822299842666 6 0 0
1952 618 2 0 -0.33885389852463454 -0.8113652891828096 -1.9261726373615708 6 0 0
695 199 2 0 -10.379171210611355 -9.674576203286621 -1.0286646876868808 4 0 0
696 199 4 0 -9.986076894108958 -9.690220100196386 -0.8709126447040898 4 0 0
812 238 2 0 -6.902012399286837 -9.696139837424349 -1.0927837674822474 3 0 0
874 258 4 0 -6.440839252266698 -10.158638697989511 -1.5357972163652462 12 1 0
813 238 4 0 -6.534510463697403 -9.858636773797354 -1.2643923617753767 3 0 0
872 258 2 0 -6.01748753862073 -10.262071433645628 -1.511103796882475 12 1 0
873 258 4 0 -5.600291037832259 -10.358827857218065 -1.495760778612187 12 1 0
814 238 4 0 -7.294959147430514 -9.532795983235765 -0.895452442119014 3 0 0
2991 964 4 0 -10.329284947382558 -6.941578553420236 -1.4127063254594638 12 1 1
3079 993 4 0 -10.17130392409215 -6.661004190117281 -1.6603901747215257 12 1 0
2 1 3 0 -2.882137265124121 -5.232029989902913 -1.653540914417416 4 0 0
1237 379 4 0 -4.288573330904645 -4.506276202351253 -1.3442693026937995 13 1 0
1700 534 2 0 -3.756729429072192 -4.342800821305752 -1.7029746992059316 5 0 1
1057 319 4 0 -2.797966022137178 -5.167583929273073 -1.2460767859530044 5 0 0
1055 319 2 0 -2.6764338451447465 -4.755845840107009 -1.0875988874245515 5 0 0
1056 319 4 0 -2.567003737124404 -4.363636535275374 -0.9259696857839277 5 0 0
1994 632 2 0 -0.23078163654476036 -4.559217517861291 -1.372508748449473 4 0 0
1996 632 4 0 -0.07937149099637786 -4.937866508552764 -1.5986949160186246 4 0 0
1235 379 2 0 -4.664796840760616 -4.296026558963624 -1.1867299884240303 13 1 0
1236 379 4 0 -5.037617253592907 -4.070458417803398 -1.0329905448001764 13 1 0
1701 534 4 0 -4.1478944237702775 -4.1801839376995 -1.5301394941831 5 0 1
1995 632 4 0 -0.3826728914789026 -4.179504233533044 -1.148816066722505 4 0 0
616 172 4 0 -5.326073242195526 -2.7279381929385638 -1.5333289196663582 13 1 0
589 163 4 0 -5.7135102860387725 -2.727390381968126 -1.662998506051542 13 1 0
615 172 4 0 -4.504458411615038 -2.30118787176597 -1.5423214146278958 13 1 0
614 172 2 0 -4.924635052938461 -2.514417758843379 -1.538014041140368 13 1 0
2308 736 4 0 -4.159618429276153 -2.45171679356826 -1.425360539029226 5 0 0
2306 736 2 0 -3.8121360746214927 -2.3895157220297687 -1.1821528407314137 5 0 0
2307 736 4 0 -3.4499731287443485 -2.3243604302837255 -0.9221777168755239 5 0 0
15 3 3 0 -2.7975028094282006 -2.361914946342429 -1.2339726583524637 5 0 0
2366 756 2 0 -2.375307363063655 -1.1440245085836267 -0.8773137154214901 5 0 0
2367 756 4 0 -2.055898729451343 -0.8588130168018235 -0.9649046171302871 5 0 0
2904 935 4 0 -1.6602105431936245 -0.7071434383334623 -1.002069986874119 5 0 0
2903 935 2 0 -1.2370177055276361 -0.6604815643527573 -1.1404841132425805 5 0 0
1953 618 4 0 -0.4987831452407985 -0.5996056320551784 -1.561462318722981 6 0 0
2905 935 4 0 -0.7935034059716131 -0.6025574480322895 -1.288932478896557 5 0 0
1143 348 4 0 -9.62493040685277 -9.838958473957224 -0.7856447808452351 3 0 0
1144 348 4 0 -8.829598920690971 -9.914617785896246 -0.42577794402045654 3 0 0
1142 348 2 0 -9.233445501227703 -9.873424467951116 -0.6076085950844021 3 0 0
655 185 4 0 -8.4397917388817 -9.8115323918937 -0.49225346037686357 3 0 0
653 185 2 0 -8.001896740091578 -9.801890156505253 -0.5932325242281546 3 0 0
654 185 4 0 -7.5405335649031695 -9.789120286643087 -0.7065812641043081 3 0 0
1698 533 4 0 -6.531256565922019 -4.4177398699584405 -0.5961179291752146 5 0 -1
1766 556 2 0 -8.076262991168417 -3.9219215381853356 -0.05203961624871667 6 0 0
1767 556 4 0 -7.694789713392356 -4.034074035686994 -0.2721892521082214 6 0 0
1699 533 4 0 -7.334665610940766 -4.009109765118033 -0.4734463160746287 5 0 -1
1697 533 2 0 -6.927681446061639 -4.220622038358035 -0.5407510258774924 5 0 -1
1300 400 4 0 -6.254351491034147 -4.250195234276083 -0.8427918490012072 5 0 0
1299 400 4 0 -5.354485020237532 -4.140029853337628 -0.8011148756684303 5 0 0
1298 400 2 0 -5.799953597547698 -4.196979119590709 -0.8218854875563277 5 0 0
1857 586 4 0 -2.3112018069286115 -3.935905728961199 -0.2818466665857553 8 0 1
1856 586 2 0 -2.5336833641296383 -3.527799772246012 -0.24481852701311269 8 0 1
2497 799 4 0 -1.9625045706289796 -4.072037572577848 -0.1498187008341958 6 0 0
2495 799 2 0 -1.5401653245471731 -3.948710826799841 -0.005252040075156117 6 0 0
1762 554 4 0 -0.6486488580132423 -3.4893625494612674 -0.20167241845059536 5 0 1
1761 554 4 0 -0.22929125159030228 -4.107205572619855 -0.7812863282920564 5 0 1
1760 554 2 0 -0.4291659736899831 -3.7948742655199217 -0.4956074585211656 5 0 1
1858 586 4 0 -2.750975113413271 -3.127828770812588 -0.2049647344437524 8 0 1
54 11 3 0 -0.6472486190966844 -3.151117419801654 -0.020672253436643473 5 0 0
12 3 3 0 -2.6203043857837436 -1.821472616596795 -0.7622246602840193 5 0 0
11 3 1 0 -2.779832063984628 -2.233304807323549 -0.7897321732064633 5 0 0
14 3 3 0 -3.185429808842441 -2.246812353230723 -0.6230395387500103 5 0 0
2255 719 2 0 -1.8946960931302463 -2.601311519681632 -0.0738022417955051 6 0 1
13 3 3 0 -2.4939106999804936 -2.528501688536469 -0.5637020608978442 5 0 0
2256 719 4 0 -2.2870935778780037 -2.396217753053424 -0.22224773728233416 6 0 1
2368 756 4 0 -2.7027887008007827 -1.4263111103418975 -0.7748697725068059 5 0 0
627 176 4 0 -9.568554585704613 -3.909011473568338 0.7850194100739305 6 0 0
626 176 2 0 -9.213207128862791 -3.91294920932582 0.5243666299958303 6 0 0
628 176 4 0 -8.83650312725139 -3.918019454769145 0.2556304216144927 6 0 0
1768 556 4 0 -8.448258318679965 -3.8273999148681375 0.16811857055328439 6 0 0
2496 799 4 0 -1.1288372150766168 -3.8270812358362303 0.15047937967406178 6 0 0
55 11 3 0 -1.0474751042661552 -3.5132769675247237 0.39592989391404565 5 0 0
2240 714 2 0 -3.001502653926357 -2.622957434479316 0.3393866872459661 -1 -1 0
2241 714 4 0 -2.7447544006300495 -2.872677225991773 0.09280594779795592 -1 -1 0
2257 719 4 0 -1.5023196869525766 -2.8001546863706626 0.07705181658929838 6 0 1
53 11 3 0 -1.1523327831342485 -2.7947422177404695 0.3163765606464377 5 0 0
51 11 1 0 -0.8452268852466513 -3.1402185185655167 0.33017313714486995 5 0 0
52 11 3 0 -0.5486321859150536 -3.0632749362123652 0.6711216996965934 5 0 0
2446 782 4 0 -0.259607298189513 -2.8152747850816997 0.7858803899804805 7 0 0
2242 714 4 0 -3.266687505814489 -2.3715916550468368 0.5978410195505326 -1 -1 0
1944 615 4 0 -9.106391648635487 -1.3954544657413575 0.6010076691246322 6 0 0
2109 670 4 0 -3.528606523490251 -8.416849047838413 0.9156275999152541 4 0 0
2110 670 4 0 -2.7595678917299367 -8.187351639121466 1.371749502807516 4 0 0
2108 670 2 0 -3.1428559268387266 -8.297555312761764 1.1416146093172976 4 0 0
2896 932 4 0 -2.549230039440501 -7.890217121871781 1.5264040944238388 12 1 0
2895 932 4 0 -2.1676516522620712 -7.180943533709802 1.1165608741509363 12 1 0
2019 640 4 0 -1.822911902239106 -7.022494175119272 0.935697956898748 5 0 0
2894 932 2 0 -2.360232194759666 -7.534020506792165 1.3194964689408764 12 1 0
2018 640 2 0 -1.413706863789976 -6.850380508601822 1.005578706780124 5 0 0
2020 640 4 0 -1.0059046153193272 -6.677444805928316 1.0779820071242376 5 0 0
1636 512 4 0 -0.6122561166584184 -6.5727687333742155 1.1280764299880435 12 1 1
1634 512 2 0 -0.23300638554300335 -6.318868428591276 1.1099972708688757 12 1 1
2092 664 4 0 -9.803546270472303 -4.151027204848238 1.0039935439568453 6 0 0
2090 664 2 0 -10.243691408862128 -4.2580744305777225 0.9855724756442381 6 0 0
1979 627 2 0 -9.22013324094397 -2.715121892757371 1.539337003859366 6 0 0
1980 627 4 0 -9.499934782313728 -3.0062264312392752 1.7284541935992959 6 0 0
1943 615 2 0 -8.994212432723959 -1.740264654942063 0.9236995284660043 6 0 0
1981 627 4 0 -8.940932797802484 -2.42234223092837 1.3409488305423451 6 0 0
1945 615 4 0 -8.892171363703728 -2.052709018630731 1.2298494898159351 6 0 0
1630 510 4 0 -3.427466540086394 -2.263030501715342 0.9773460036588553 6 0 1
1628 510 2 0 -3.1600776721530686 -2.0984048180140924 1.291234291157462 6 0 1
1629 510 4 0 -2.8948478769752164 -1.9358132957225678 1.607103034591434 6 0 1
475 125 4 0 -2.7362051698973167 -1.5832483359291754 1.50337985334453 6 0 0
473 125 2 0 -2.5736787122308584 -1.2142860786541654 1.6641487439815421 6 0 0
1485 462 4 0 -10.366706978040456 -0.6745797823248871 1.268851203339958 6 0 0
1484 462 2 0 -9.989984530799228 -0.510068108971721 1.516151074568164 6 0 0
351 84 4 0 -9.273092601090248 -0.4399541110154441 1.7137289974216223 -2 -1 0
1624 508 4 0 -7.926165993318137 -10.352959967436883 1.8951912618357056 12 1 0
1769 557 2 0 -10.107572327103282 -3.0914376398992625 2.3123108180794656 6 0 0
1770 557 4 0 -9.83518051722749 -3.143654927727632 1.9523782362371254 6 0 0
1486 462 4 0 -9.639992416356733 -0.3529545401889145 1.755664526313522 6 0 0
350 84 2 0 -8.884041204185227 -0.6387010805031021 1.746475288777102 -2 -1 0
352 84 4 0 -8.48549827699715 -0.8344312683813087 1.7741583692969183 -2 -1 0
474 125 4 0 -2.3979159149298077 -0.8123124799687229 1.8271798465724611 6 0 0
2505 802 4 0 -2.356645941710937 -0.4068345390317898 1.8951783526214978 14 1 0
2504 802 2 0 -1.9553031988235734 -0.2691729715938287 2.070175398559549 14 1 0
2506 802 4 0 -1.5473731764947196 -0.12296076708533299 2.2490753564132913 14 1 0
1812 571 4 0 -0.26559603829547385 -8.989728419844447 3.4004197032413064 4 0 -1
1811 571 2 0 -0.0019980602125055924 -9.146295534922455 3.06029098032613 4 0 -1