LAMMPS data file via write_data, version 4 Feb 2025, timestep = 8500000, units = lj

3100 atoms
4 atom types
2100 bonds
1 bond types
1250 angles
2 angle types

-10.410592 10.410592 xlo xhi
-10.410592 10.410592 ylo yhi
-10.410592 10.410592 zlo zhi

Masses

1 1
2 1
3 0.1
4 0.1

Bond Coeffs # harmonic/omp

1 100 0.45

Angle Coeffs # harmonic/omp

1 100 180
2 100 109.471

Atoms # full

1148 350 2 0 -10.238144405916259 -9.4966271817863 -9.142505953611568 0 1 1
1149 350 4 0 -10.36575746846183 -9.918796450642844 -9.08065904755556 0 1 1
1150 350 4 0 -10.097755342580786 -9.048841753231807 -9.211891626985796 0 1 1
727 209 4 0 -6.97310750741371 -9.010922446702638 -9.861663793363443 1 0 1
725 209 2 0 -6.6519803000963815 -8.964667181724721 -10.186682903081929 1 0 1
928 276 4 0 -9.266555492152126 -8.300198144335333 -9.57132435715781 0 0 1
120 24 3 0 -9.633122647050808 -8.35020370054224 -9.461389856940285 0 1 1
116 24 1 0 -10.058576616784125 -8.465700519852597 -9.65090637397318 0 1 1
117 24 3 0 -10.26732862850974 -8.735840708968954 -9.385880543949504 0 1 1
118 24 3 0 -9.994719924562988 -8.667731409624771 -10.051079710934093 0 1 1
119 24 3 0 -10.322820720800708 -8.068539885047182 -9.700046996072578 0 1 1
926 276 2 0 -8.842866597119713 -8.358971285931137 -9.474654152850444 0 0 1
927 276 4 0 -8.415054968424034 -8.401757093690012 -9.379415381363705 0 0 1
966 289 4 0 -8.016637195554479 -8.52669891834036 -9.367927297823691 0 0 1
965 289 2 0 -7.683907759181347 -8.729368785674277 -9.626483717893084 0 0 1
967 289 4 0 -7.36554043197468 -8.929937010127384 -9.87805072928555 0 0 1
2774 892 2 0 -6.397624261910866 -7.589064384864869 -9.492508576526118 0 1 0
2775 892 4 0 -6.222245584631106 -7.842201337509771 -9.818939915076752 0 1 0
2065 655 4 0 -5.953792113891471 -7.975571309299224 -10.111570147637487 0 0 0
2776 892 4 0 -6.559901317902711 -7.350627167454794 -9.168447206399993 0 1 0
2063 655 2 0 -5.51336061958239 -7.908762409589151 -10.111542574731985 0 0 0
2064 655 4 0 -5.061454980068508 -7.83846688619447 -10.10605733069919 0 0 0
2979 960 4 0 -0.005296782833323048 -6.449358133241012 -4.326254951688552 0 1 1
1817 573 2 0 -10.098842132635452 -6.924131359516369 -10.198103342554687 1 -1 0
1819 573 4 0 -10.041650571289818 -7.081798665262177 -9.775904108386303 1 -1 0
2532 811 4 0 -0.07027000142310447 -9.843702062747225 -5.551298374219625 1 1 0
773 225 2 0 -2.6922003315088032 -6.87043252418948 -9.545815184770673 0 0 1
1527 476 4 0 -2.1840540248493467 -6.668336976645288 -10.180873086745834 0 1 1
774 225 4 0 -2.4768747818959937 -6.657713725688673 -9.897164442629617 0 0 1
775 225 4 0 -2.9000911353255496 -7.079544588606099 -9.225270830146759 0 0 1
1379 427 2 0 -0.9661424200258514 -6.059903350649322 -9.034800009553072 1 1 0
1224 375 4 0 -0.6243136167254345 -6.719200145214381 -9.094411527164956 0 1 0
1380 427 4 0 -0.6020713234399536 -6.324635655523358 -8.97253608064311 1 1 0
1694 532 2 0 -1.4978898014592148 -5.070439045216494 -9.365974347643226 0 0 0
1695 532 4 0 -1.546798419792254 -4.648093331697615 -9.469942490073725 0 0 0
843 248 4 0 -1.4180338933381424 -4.481200280155852 -9.80617470129708 0 0 1
1696 532 4 0 -1.4564757140370987 -5.483615067275734 -9.262679786800053 0 0 0
1381 427 4 0 -1.3271956181100948 -5.80658422800596 -9.084604844793137 1 1 0
408 103 4 0 -8.56548039965682 -3.377999133476778 -10.13945213996312 0 0 0
2058 653 4 0 -5.695653479477047 -2.9958237146241755 -9.371058655200763 0 0 1
842 248 2 0 -1.284994046158057 -4.301065810996478 -10.223711992874094 0 0 1
859 253 4 0 -10.395583858291243 -2.346704053062934 -9.144835552955868 0 -1 0
857 253 2 0 -10.086372619498057 -1.9690587902448755 -9.175586941310911 0 -1 0
858 253 4 0 -9.780687110352144 -1.607352413205396 -9.19596848508323 0 -1 0
491 131 2 0 -8.5572270309031 -1.8133606150129484 -10.077471003373436 0 0 0
492 131 4 0 -8.658897705440658 -2.185460627283712 -10.271765294281535 0 0 0
407 103 2 0 -8.48338718567896 -2.9357469246712498 -10.157732173194647 0 0 0
409 103 4 0 -8.403140000181684 -2.486310580651404 -10.162219056816921 0 0 0
2057 653 2 0 -5.511235665837363 -3.0190489426876588 -9.784936283052952 0 0 1
2059 653 4 0 -5.331712084873724 -3.037325124525842 -10.198961569340755 0 0 1
1703 535 2 0 -3.3350021191153982 -2.214963077382014 -9.507743735901142 0 -1 0
1705 535 4 0 -2.9361804215837135 -2.4581743053778804 -9.592916465387763 0 -1 0
1704 535 4 0 -3.7228040590634417 -1.9636387742302555 -9.434916701455471 0 -1 0
1122 341 4 0 -3.8049655468102825 -1.610422949989683 -9.631826938523188 0 0 0
1632 511 4 0 -9.71654662657568 -1.2282674467013805 -9.11832821048097 0 0 0
1631 511 2 0 -9.783047966454507 -0.800728374962757 -8.951406600317918 0 0 0
493 131 4 0 -8.447517711857463 -1.4126570566064995 -9.87180004566838 0 0 0
279 60 4 0 -8.16465270463288 -1.1779004557447947 -10.052771962993061 0 0 0
278 60 2 0 -7.9254238565827215 -0.8573205230735839 -10.309487044139354 0 0 0
462 121 4 0 -0.5668831244800608 -2.2079038505376785 -1.0791088650902254 -1 0 0
1123 341 4 0 -3.782150747418267 -0.7996363535390035 -9.34271280183767 0 0 0
2568 823 4 0 -3.9340127601421604 -0.4778231130884696 -9.532770672530638 0 0 0
2567 823 2 0 -4.091595436020818 -0.1442914425523061 -9.260422109268484 0 0 0
1121 341 2 0 -3.797869119102862 -1.2311276283534929 -9.49412463452873 0 0 0
2083 661 4 0 -2.459729749630585 -3.661637287086022 -10.2132407789473 0 0 0
2328 743 4 0 -0.6386643793396045 -1.0509139816886137 -10.125950094452868 1 0 1
2327 743 2 0 -0.3025873575076579 -0.7825802354681912 -10.017852311941272 1 0 1
2236 712 4 0 -0.9052522840090815 -1.342394221789062 -10.117337220722176 1 0 1
2553 818 4 0 -10.096831297150805 -10.177874009159883 -8.955483982180409 0 1 1
2112 671 4 0 -1.4401849309509513 -9.345183101903286 -8.083723845216316 1 0 0
945 282 4 0 -1.488140588349391 -9.671463943393057 -7.851598761198412 0 0 0
944 282 2 0 -1.3915234955453295 -10.069161978015945 -7.697707198552013 0 0 0
1575 492 4 0 -3.870828381578008 -8.070232919658142 -8.269750200680097 0 1 1
1574 492 2 0 -3.5476420341946846 -7.74481955856011 -8.315104228653903 0 1 1
692 198 2 0 -4.408347244511967 -8.388025937034609 -7.797281607435059 0 0 1
693 198 4 0 -4.107460040417919 -8.340567850906272 -8.098158110149894 0 0 1
769 223 4 0 -1.7060963341005497 -8.080647872265939 -7.858297522449753 -1 1 1
767 223 2 0 -1.792982667045507 -7.69288724044835 -8.082730807823728 -1 1 1
2111 671 2 0 -1.4918265562382225 -8.8841529645846 -7.990030813930602 1 0 0
768 223 4 0 -1.8944745571170818 -7.279862618307528 -8.323827767914514 -1 1 1
2113 671 4 0 -1.5381278030394248 -8.43777091492863 -7.912220930215056 1 0 0
1576 492 4 0 -3.2257326832556132 -7.40195793717217 -8.362776259383816 0 1 1
204 41 3 0 -2.999413706827371 -7.213189080642066 -8.10334489971668 1 1 0
203 41 3 0 -2.2821239075738005 -7.158936303403564 -8.343507397156646 1 1 0
201 41 1 0 -2.7129432916438105 -7.024110385789919 -8.42368439267695 1 1 0
202 41 3 0 -2.730239848335433 -6.590738889330239 -8.404343511574034 1 1 0
205 41 3 0 -2.835732303875514 -7.166426730820433 -8.823807548919278 1 1 0
1223 375 2 0 -0.33620881689803733 -6.971341671126542 -8.857811537864476 0 1 0
1225 375 4 0 -0.04128924350304561 -7.235517134654304 -8.610620357803265 0 1 0
1255 385 4 0 -10.191175981507621 -3.0593378192663976 -8.062584411546927 0 0 1
1992 631 4 0 -10.011372235885759 -3.1734752639353077 -7.739270017374788 0 -1 1
1991 631 2 0 -9.62958882581968 -3.4547018760327544 -7.830104631671796 0 -1 1
1993 631 4 0 -9.277388373515992 -3.7180943425212107 -7.918755606883796 0 -1 1
1325 409 2 0 -7.74592070964563 -4.254341447173861 -7.881503288109278 1 0 0
1160 354 2 0 -8.66571785641954 -3.8590451025759025 -7.445840424551543 0 0 0
1162 354 4 0 -8.222216010422883 -3.981211288612571 -7.335254729104717 0 0 0
1327 409 4 0 -8.117459690282951 -4.236710936853573 -7.6544788894483835 1 0 0
1495 465 4 0 -7.170746170379839 -4.350747156443128 -8.460918353118544 0 0 1
1326 409 4 0 -7.378585952010738 -4.272458566198027 -8.102810508419918 1 0 0
1493 465 2 0 -6.833451252890368 -4.126371018653955 -8.627689132421445 0 0 1
1494 465 4 0 -6.496818068262748 -3.9034083742320727 -8.81053801720881 0 0 1
270 57 4 0 -6.384760999712763 -3.58744203239373 -8.584488370837796 0 0 0
269 57 2 0 -6.116690464298907 -3.282905518624409 -8.8004956006379 0 0 0
271 57 4 0 -5.847173387818504 -2.9591141864525428 -9.012790788857385 0 0 0
1253 385 2 0 -10.271376054684204 -2.820709150596021 -8.435443716423611 0 0 1
2008 636 4 0 -0.0220635837091699 -2.903119914220185 -7.800716548791905 0 0 0
897 266 4 0 -0.40962132607369206 -2.8443085575073117 -7.67167975995129 0 0 1
896 266 2 0 -0.6308789807525211 -2.4962876980008013 -7.486159869672891 0 0 1
1633 511 4 0 -9.853237129569273 -0.3670486600677774 -8.782589367056499 0 0 0
2493 798 4 0 -9.92053947418072 -0.19171072219097746 -8.428277805355144 1 0 0
1191 364 4 0 -1.8898620940584427 -0.2132855243705075 -7.8240381391740526 0 0 1
1190 364 2 0 -1.7846186719300081 -0.596424546431984 -7.610026868771621 0 0 1
751 217 4 0 -1.6624080848562297 -1.3395444031338177 -7.539752420853647 0 0 0
894 265 4 0 -8.801131762744584 -10.051224014571705 -6.581853196369014 0 1 1
893 265 2 0 -8.469542781608583 -10.352701663969029 -6.721639736519886 0 1 1
739 213 4 0 -8.91460537575616 -10.000422540432172 -6.164701756130984 0 0 1
1009 303 4 0 -5.46949013498445 -9.477173771299428 -5.820036055641871 0 0 0
1007 303 2 0 -5.407756329580319 -9.099698244441976 -6.053738471385243 0 0 0
461 121 2 0 -0.16102141854723886 -2.0678952384194043 -1.1724655389533452 -1 0 0
1529 477 2 0 -6.138890391785459 -0.007957473504088004 -0.7254526269558312 0 0 0
1008 303 4 0 -5.349195966490521 -8.722232783135723 -6.2845500619489085 0 0 0
1339 413 4 0 -5.111907875860393 -8.484763173356852 -6.452627778628408 0 0 1
1337 413 2 0 -5.0851669105972235 -8.434490858434721 -6.907100235989037 0 0 1
1338 413 4 0 -5.064889106425889 -8.389542901230186 -7.344622921910611 0 0 1
694 198 4 0 -4.698149214220034 -8.422786381412408 -7.502065555943587 0 0 1
468 123 4 0 -3.20979641831833 -6.247396062714268 -6.028973911876341 0 0 0
689 197 2 0 -3.8881370541202513 -6.681145111431031 -6.0434016454904365 0 1 0
691 197 4 0 -3.5887772549519372 -6.3779590856350685 -6.194081807229348 0 1 0
467 123 2 0 -3.0031165191431928 -5.937513122810917 -5.791653540107641 0 0 0
1161 354 4 0 -9.083835808892617 -3.735442955021825 -7.547270394884001 0 0 0
2182 694 4 0 -7.056937794911911 -3.6105994352541386 -6.4607928441144935 1 0 1
2180 694 2 0 -7.148238927166881 -3.9411986741439886 -6.178541959303457 1 0 1
2314 738 4 0 -6.781020520111557 -3.3114332589020132 -6.521061124598972 0 0 1
2312 738 2 0 -6.4764619151081035 -2.9579537451189104 -6.56873834454528 0 0 1
2001 634 4 0 -5.956086080160818 -2.3656502370841594 -6.832942434330426 1 0 0
2313 738 4 0 -6.182435537533139 -2.624163267818944 -6.612349054275671 0 0 1
2000 634 2 0 -5.955484656845772 -1.9046380965861305 -6.745564989106045 1 0 0
749 217 2 0 -1.4264996200204378 -1.6794568709226572 -7.344051549777954 0 0 0
898 266 4 0 -0.8541410620333035 -2.136785931244046 -7.307560258271039 0 0 1
750 217 4 0 -1.189956642509244 -2.0156558651549923 -7.148110091341959 0 0 0
2002 634 4 0 -5.954596467066549 -1.483833109529197 -6.668861237230114 1 0 0
1362 421 4 0 -5.945269834571871 -1.0770060673879147 -6.5659894218711825 0 0 1
1879 593 4 0 -5.084191373881443 -0.2708900885799483 -6.004914342936011 1 0 0
1361 421 2 0 -5.6527662678234885 -0.7295101227504107 -6.416623152668724 0 0 1
1363 421 4 0 -5.378932660913776 -0.3931786463021545 -6.271715804155188 0 0 1
2417 773 2 0 -3.3144812084814435 -0.4125073071246826 -6.473573214786763 0 2 0
2419 773 4 0 -3.13944858096298 -0.5206412319986122 -6.062971194062165 0 2 0
2418 773 4 0 -3.4989533281470235 -0.305269312222051 -6.8631356879361265 0 2 0
1192 364 4 0 -1.6852417176870012 -0.9627931707855686 -7.399255396801561 0 0 1
737 213 2 0 -9.104408327859502 -9.637145375327867 -6.0116208557997375 0 0 1
2693 865 2 0 -9.881740669513281 -9.264730739975446 -5.233260699455865 1 0 0
2695 865 4 0 -9.564776540453655 -9.340251667906227 -5.572926415755688 1 0 0
738 213 4 0 -9.300441564902732 -9.262719412956018 -5.857298542002229 0 0 1
1971 624 4 0 -5.625054050331653 -9.819702356711566 -5.695543240397097 1 1 -1
1970 624 2 0 -5.501386042040871 -9.99291399097726 -5.29755654774036 1 1 -1
1972 624 4 0 -5.3776617454916895 -10.173818771557952 -4.873814466030018 1 1 -1
2981 961 2 0 -4.366496365315333 -7.948857063262219 -10.26822870009529 0 0 0
834 245 4 0 -2.408668411796766 -9.410743722028103 -4.63618316245409 0 0 1
2531 811 2 0 -0.3345258535434814 -9.991235924155863 -5.244619890629267 1 1 0
2533 811 4 0 -0.6382865568153405 -10.154426178455676 -4.912658950141037 1 1 0
1660 520 4 0 -5.378877268685818 -1.3496522299798426 -1.4017619699872779 0 0 0
2982 961 4 0 -4.741280543573574 -8.061913278361763 -10.081459929185318 0 0 0
1997 633 2 0 -1.1749297758751585 -10.389532506531602 -4.575236720864526 1 0 0
2690 864 2 0 -5.105327031750436 -8.05135615184271 -4.67943312125974 0 0 0
2692 864 4 0 -4.761233754149664 -7.809550701587229 -4.803725562198776 0 0 0
1287 396 4 0 -5.647965960816862 -8.615271317597157 -4.411813959142906 0 0 0
1978 626 4 0 -4.48855818382807 -7.512988637144628 -4.8677337853358695 1 0 0
1976 626 2 0 -4.3022568585646495 -7.273346329778733 -5.180049400664488 1 0 0
1977 626 4 0 -4.1110452458277145 -7.017545672721514 -5.505406241089491 1 0 0
690 197 4 0 -4.187250840316456 -6.993748957685267 -5.881674993140875 0 1 0
1658 520 2 0 -5.532125465619834 -0.9920764700143987 -1.1726040786863339 0 0 0
603 168 4 0 -7.587969236402505 -5.013105290217722 -5.069515476235808 0 0 1
939 280 4 0 -7.938006051221214 -5.109140917388435 -4.857953570017516 0 0 1
602 168 2 0 -7.479279092035316 -4.634916124663586 -5.2962355394483485 0 0 1
604 168 4 0 -7.362892201509621 -4.256918301555567 -5.529167346679414 0 0 1
2565 822 4 0 -2.6244055964979567 -5.326218190503214 -5.764503596125097 0 0 0
2564 822 2 0 -2.3110402611148912 -5.089293931988122 -5.565472804560189 0 0 0
469 123 4 0 -2.7883869508491 -5.627100069796245 -5.5554594838625375 0 0 0
2566 822 4 0 -2.0023839766186464 -4.847619492347857 -5.36191246392247 0 0 0
2181 694 4 0 -7.256064901400698 -4.2662020821898485 -5.900953528439161 1 0 1
3046 982 4 0 -1.823689154066803 -4.540713842858105 -5.50059066550303 0 1 0
3044 982 2 0 -1.448640565501488 -4.497922514028534 -5.27759547993938 0 1 0
2140 680 4 0 -0.8114786190943828 -4.588065491053143 -4.781586407993971 0 0 1
3045 982 4 0 -1.0578889997726622 -4.451816426530053 -5.0388154749543554 0 1 0
2087 663 2 0 -8.360559565878061 -0.8770762359879225 -4.790820242899351 1 0 0
2088 663 4 0 -8.29871729825423 -0.4600431894902033 -4.612277006837351 1 0 0
1877 593 2 0 -4.750344499727169 -0.4836331355838149 -5.777892791265361 1 0 0
1878 593 4 0 -4.4135440073775065 -0.6930854600799335 -5.543020552264872 1 0 0
1593 498 4 0 -4.159396974981614 -0.734214299347051 -5.236854452978384 0 0 0
1592 498 2 0 -4.346680155752498 -0.82008442353677 -4.815182107680441 0 0 0
2737 879 4 0 -3.134138371401843 -0.49023889046649444 -5.650377468615691 0 0 0
2735 879 2 0 -3.1595413583714875 -0.21711247298611033 -5.298938566499816 0 0 0
1836 579 4 0 -10.402842142732254 -8.973701508366723 -2.3287244608173845 1 0 0
1562 488 2 0 -10.29041034782185 -2.387433663218551 -4.2161020086772005 0 0 0
1131 344 4 0 -9.722890519147791 -9.470274734622015 -3.1813482605206995 0 0 1
1130 344 2 0 -9.375985566319734 -9.208097808710798 -3.2303260800999483 0 0 1
315 72 4 0 -10.000519368856938 -9.768519920779898 -3.191474417943215 0 0 -1
314 72 2 0 -10.098349617005201 -10.196061214945445 -3.077950214956716 0 0 -1
2694 865 4 0 -10.177217696398055 -9.198744309281048 -4.9147742435650486 1 0 0
984 295 4 0 -7.397556459951112 -10.04643207278255 -3.616472043144595 -1 1 0
1288 396 4 0 -6.3205278681386226 -9.22893910959873 -4.290243163480858 0 0 0
1722 541 4 0 -6.4213103698670535 -9.237877438515088 -3.8907106833455005 0 0 -1
1723 541 4 0 -7.158409624193003 -9.773285320571748 -3.78264762685509 0 0 -1
1721 541 2 0 -6.788803716570618 -9.512169247171787 -3.837865663978361 0 0 -1
557 153 2 0 -3.0410836761695355 -9.047140479814017 -4.202934963576716 0 0 0
558 153 4 0 -3.394209490160228 -8.857996823364816 -4.021787802114881 0 0 0
835 245 4 0 -1.7443681705854945 -9.946135619872242 -4.3264662735413335 0 0 1
833 245 2 0 -2.0716726295753083 -9.68136422461869 -4.478060643568183 0 0 1
559 153 4 0 -2.692947688867177 -9.245633415298682 -4.38119495617671 0 0 0
1998 633 4 0 -1.5300039435078665 -10.294536016297304 -4.293127626398907 1 0 0
1132 344 4 0 -9.025983038068453 -8.952013755250526 -3.2766124265916248 0 0 1
2458 786 4 0 -8.970831168893397 -7.764271153414121 -3.08610076347441 1 1 0
1286 396 2 0 -5.975577773883079 -8.912878686741879 -4.347323381625272 0 0 0
2691 864 4 0 -5.464292738165071 -8.29600918573948 -4.547658673640664 0 0 0
2470 790 4 0 -3.7117861842201796 -8.879435888199549 -3.7975853129157215 1 0 0
2469 790 4 0 -4.092156775996572 -8.417138359061177 -3.134997338763445 1 0 0
2468 790 2 0 -3.905228062338671 -8.651081761284438 -3.4586677330494093 1 0 0
3037 979 4 0 -8.720427715174305 -7.442939099488827 -3.0695996077796823 1 0 0
3035 979 2 0 -8.267775740913338 -7.3779214067918115 -3.0655800881845727 1 0 0
810 237 4 0 -2.098146044505526 -6.2457038067004875 -3.6628398308494927 0 0 1
2220 707 4 0 -2.1227959740164906 -6.548093392048584 -3.3617650189145145 0 1 1
809 237 2 0 -1.7521629871433806 -6.165947916526406 -3.931712925724262 0 0 1
353 85 2 0 -0.645907878821575 -6.2238058414425135 -4.141343627831234 0 0 0
355 85 4 0 -0.20599029503123614 -6.145850950025727 -4.258153744840374 0 0 0
811 237 4 0 -1.4088044291643635 -6.083177093987758 -4.199352320693103 0 0 1
938 280 2 0 -7.829841412003583 -5.2368150252995544 -4.427015843180287 0 0 1
940 280 4 0 -7.738958250826355 -5.347719510311911 -4.022980794966112 0 0 1
2863 921 4 0 -7.564606692801363 -5.394156605688845 -3.653997610913387 0 1 1
2861 921 2 0 -7.77427811997224 -5.27839588084868 -3.2838541185004875 0 1 1
1298 400 2 0 -3.687125370780162 -5.8261373520060316 -3.0344169152695137 0 0 0
1299 400 4 0 -3.548011325176008 -5.430993677031514 -3.218877233238581 0 0 0
708 203 4 0 -3.6935444216558606 -4.565298116669497 -2.816551531471034 0 0 0
354 85 4 0 -1.084805954779765 -6.290511858243914 -4.025917793244865 0 0 0
2398 766 4 0 -0.2064886988499407 -4.887111512546317 -2.8476096936285735 0 0 0
2396 766 2 0 -0.3644712767658407 -4.687001476999028 -3.227961529931015 0 0 0
2397 766 4 0 -0.5272017953683215 -4.4906570990202015 -3.614920227788288 0 0 0
2138 680 2 0 -0.7190079191024834 -4.671355343269446 -4.351924572568141 0 0 1
2139 680 4 0 -0.613824464894658 -4.769271421178753 -3.9022009794283967 0 0 1
1521 474 4 0 -7.376878290194257 -3.377965895734934 -3.373903232916095 0 1 1
394 98 4 0 -7.744383697645669 -3.3407961922848015 -3.209582189903078 0 0 0
392 98 2 0 -8.182778293236337 -3.2581456303966605 -3.24396615456379 0 0 0
1867 589 4 0 -8.978466465165296 -2.9649443560713973 -3.3147936332743577 1 0 0
393 98 4 0 -8.628652621380468 -3.1693436614445623 -3.2818608551933757 0 0 0
1520 474 2 0 -7.0717216909227485 -3.657327175983404 -3.242451787824272 0 1 1
1522 474 4 0 -6.742794214572806 -3.9620769255519632 -3.1009044918662783 0 1 1
1927 609 4 0 -6.866531775747296 -4.243254861652294 -2.860706308504231 1 0 0
707 203 2 0 -3.394005012490824 -4.366372173898238 -3.0523771486309035 0 0 0
709 203 4 0 -3.101245126185388 -4.159428001173937 -3.2788857346334925 0 0 0
961 287 4 0 -2.8891517308632437 -3.840782202085614 -3.3708572945632946 0 0 0
959 287 2 0 -2.5435870288274756 -3.5424821948440366 -3.4585288276436175 0 0 0
960 287 4 0 -2.228566662086001 -3.264112660782483 -3.5310457095623473 0 0 0
2728 876 4 0 -1.8644468067342006 -3.0966713117557836 -3.511667255932692 1 1 0
2726 876 2 0 -1.4338347467674255 -2.911687938955501 -3.5322148866084047 1 1 0
1865 589 2 0 -9.284887477196673 -2.7263446383437895 -3.5458727534328554 1 0 0
1866 589 4 0 -9.606515847596581 -2.476940535930934 -3.783903244509917 1 0 0
1563 488 4 0 -9.887131711014629 -2.3046376540497344 -4.0619738863068955 0 0 0
179 36 3 0 -0.05521079329875847 -2.165949901700089 -3.6856698484345443 0 0 0
176 36 1 0 -0.29891149186384497 -2.3487067374842483 -3.3425919268018642 0 0 0
2727 876 4 0 -1.02494754753034 -2.730514734272657 -3.556457543392645 1 1 0
178 36 3 0 -0.621651409417516 -2.6575820283603195 -3.5287429344505346 0 0 0
177 36 3 0 -0.5162037774232944 -2.0213302038816314 -3.11733113726318 0 0 0
2089 663 4 0 -8.42298893132796 -1.2866496694555218 -4.967112931906147 1 0 0
920 274 2 0 -6.1629332619543185 -0.810449542829785 -3.661643394224682 0 0 1
922 274 4 0 -6.342653000391928 -0.8608687912679288 -3.224182527148359 0 0 1
921 274 4 0 -5.9810042082714014 -0.7764776528830444 -4.07311969274992 0 0 1
951 284 4 0 -5.567538177486352 -0.6806899109370743 -4.023737489125853 0 0 0
950 284 2 0 -5.130009028238446 -0.6680436953621842 -4.056476977367551 0 0 0
1594 498 4 0 -4.534488622812429 -0.9117604038483463 -4.38779043844845 0 0 0
952 284 4 0 -4.666736382877594 -0.6501406434136016 -4.088148214517186 0 0 0
2956 952 4 0 -1.2370482763806079 -0.11534521646855979 -4.219987244744565 1 0 1
1282 394 4 0 -1.3542558677040004 -1.1124763588022608 -3.452435273082266 0 0 0
2954 952 2 0 -1.266579830920829 -0.4005150742009453 -3.8859162844744706 1 0 1
2955 952 4 0 -1.2845351661751705 -0.7109549661838476 -3.5313696832612296 1 0 1
1280 394 2 0 -1.1133891021562914 -1.494364897629509 -3.3660455648163636 0 0 0
1835 579 2 0 -10.092039502534147 -8.680542268947532 -2.481300122136816 1 0 0
1837 579 4 0 -9.770511434874003 -8.365109678430326 -2.6277730295346027 1 0 0
2457 786 4 0 -9.789857853948572 -8.00699922840983 -2.822693291211136 1 1 0
2456 786 2 0 -9.37744834384297 -7.884336923023979 -2.9525857845295413 1 1 0
2926 942 4 0 -4.070902896577825 -7.664686571950881 -2.1518792036514447 1 1 1
2925 942 4 0 -4.294300832343015 -8.165892968209471 -2.8917865663697633 1 1 1
2924 942 2 0 -4.17713982863879 -7.9040816034222425 -2.506492750802056 1 1 1
3036 979 4 0 -7.8373287900712425 -7.3250086225352495 -3.05649709420273 1 0 0
277 59 4 0 -7.453401198221314 -7.2962096953609015 -2.973089057747337 0 0 0
275 59 2 0 -7.3346574691549025 -6.980688749571248 -2.676957431336925 0 0 0
276 59 4 0 -7.219035378883645 -6.663565586356028 -2.3762548980073905 0 0 0
343 81 4 0 -7.102955854885153 -6.595473328311792 -1.9928978674881255 0 0 0
341 81 2 0 -6.73597870868322 -6.3297702347340685 -1.9442994496442423 0 0 0
12 3 3 0 -4.827885222091107 -6.794340912054226 -1.312427431756617 0 0 0
1698 533 4 0 -3.5785389572995245 -6.498200624858818 -2.716656948612889 0 0 -1
1300 400 4 0 -3.8278290264680153 -6.22804437791941 -2.840794238867636 0 0 0
1699 533 4 0 -3.991239538455735 -6.888032277179361 -2.011985868166929 0 0 -1
1697 533 2 0 -3.7839908457143303 -6.691525685910341 -2.3629375826387187 0 0 -1
15 3 3 0 -4.381682083996054 -6.889020407336271 -1.891070071469171 0 0 0
11 3 1 0 -4.435437554116029 -6.712583214261402 -1.4527569921842773 0 0 0
2256 719 4 0 -4.333699910834472 -5.918069424452037 -1.7437146531497467 1 0 1
13 3 3 0 -4.353079866790686 -6.246974393072344 -1.4605752158694134 0 0 0
2219 707 2 0 -1.973186091661771 -6.625776065072313 -2.9433931033642717 0 1 1
2708 870 2 0 -1.5390695660619165 -6.476571541346065 -1.9105429879814286 0 1 1
2221 707 4 0 -1.817278832877795 -6.703156140791156 -2.5114321385094147 0 1 1
2709 870 4 0 -1.5826476831014151 -6.407939563969333 -2.348251965503986 0 1 1
2862 921 4 0 -7.9817287219936865 -5.170954142465063 -2.908049968115586 0 1 1
427 109 4 0 -8.19900155377019 -4.897294847497255 -2.7270898968126605 0 0 0
342 81 4 0 -6.373115254280759 -6.059384140595882 -1.9007958172319424 0 0 0
252 51 4 0 -6.304991386713842 -5.698051554437361 -1.7457190731924321 0 0 0
251 51 2 0 -6.207436755325068 -5.314650442992226 -1.9708640291705444 0 0 0
253 51 4 0 -6.1089758129339415 -4.931023351099902 -2.1963263015713874 0 0 0
1926 609 4 0 -6.163223988278977 -4.727387141530819 -2.5374063631870225 1 0 0
2255 719 2 0 -4.15370882795638 -5.496897728955282 -1.7538814121387407 1 0 1
1530 477 4 0 -6.00085045228044 -0.3474256267082272 -0.9492782412459122 0 0 0
425 109 2 0 -8.285192777986982 -4.46487172500246 -2.6055918373929363 0 0 0
541 147 4 0 -8.381929092847832 -3.9820529071484585 -2.1073058950440022 0 -1 0
426 109 4 0 -8.3661435982302 -4.051288908096474 -2.4898427503105443 0 0 0
539 147 2 0 -8.30688590233024 -3.5482889616841415 -1.9224200159617506 0 -1 0
1925 609 2 0 -6.523855891885489 -4.47852981382775 -2.6990018233444957 1 0 0
2808 903 4 0 -4.042515819719706 -4.003127323741437 -1.2436376723488078 0 0 0
540 147 4 0 -8.235381090378748 -3.1163903232792616 -1.7458919294259432 0 -1 0
1113 338 4 0 -8.07704084699516 -2.794685278337861 -1.5747966992618128 0 0 0
1281 394 4 0 -0.8667929242287717 -1.87382433024959 -3.277518807344304 0 0 0
1659 520 4 0 -5.6869875803592835 -0.6337245330473658 -0.9377237482464637 0 0 0
180 36 3 0 -0.033745648453291525 -2.5636223024035663 -3.0725826444043753 0 0 0
3092 998 2 0 -7.876076888511343 -0.10690665382913203 -1.9845529935877975 1 0 0
3093 998 4 0 -8.048195246970609 -0.5261012588624836 -2.0717441118932607 1 0 0
2518 806 4 0 -6.28477704609784 -0.5222456130374479 -3.029965376724728 0 0 1
2516 806 2 0 -6.176425235847414 -0.23717701367674193 -2.6973543836230016 0 0 1
2837 913 2 0 -9.492384019007567 -9.572790532721346 -0.6184459707111397 1 1 0
2839 913 4 0 -9.925968496675882 -9.53931193647403 -0.7626465009441034 1 1 0
2838 913 4 0 -9.051463901122231 -9.613527932394408 -0.46586699195056797 1 1 0
264 55 4 0 -10.230537877565121 -9.420007728761906 -1.0344439986864518 0 0 0
2179 693 4 0 -8.708024627625603 -9.502897640329934 -0.2877154677420663 1 0 0
2177 693 2 0 -8.272275229993346 -9.427309579533144 -0.2981624636634546 1 0 0
1270 390 4 0 -7.607291737785093 -9.637680883657787 -0.11186702420805682 0 1 -1
1254 385 4 0 -10.355659282769347 -2.5808203616667624 -8.80158063468991 0 0 1
1268 390 2 0 -7.200133771189614 -9.815726195925034 -0.17426637331236922 0 1 -1
1269 390 4 0 -6.8000043852717535 -9.99942955245702 -0.23712282367440074 0 1 -1
2149 683 4 0 -6.63719260998595 -10.342714205716318 -0.39499431735800444 0 0 -1
265 55 4 0 -10.07637746926227 -8.643941770921373 -1.3840705856864257 0 0 0
263 55 2 0 -10.152945193346547 -9.012227747555604 -1.2132732213438802 0 0 0
2308 736 4 0 -3.808429972404925 -7.670972215408928 -0.38065208563237507 0 0 0
1100 334 2 0 -1.7065849622459321 -2.365448063823718 -0.025041818487519046 0 0 0
2373 758 4 0 -10.15772277300353 -6.031995939936807 -0.6692610125241548 1 0 0
2976 959 4 0 -10.139241932041122 -6.417196320968908 -0.5989954377934898 2 1 0
2975 959 2 0 -10.042856596992186 -6.692123461162631 -0.24500667297506729 2 1 0
2367 756 4 0 -5.745350731146442 -6.621053890639925 -0.5608920181214249 0 0 0
2368 756 4 0 -5.133947444537658 -7.012248128897771 -1.1667170208560886 0 0 0
2366 756 2 0 -5.458308222077577 -6.810606586938447 -0.8482583479708281 0 0 0
2904 935 4 0 -5.612120167025425 -6.586256502743204 -0.1837930945379545 0 0 0
239 48 3 0 -2.9406367245892815 -2.323534935736943 -0.4251195939145102 1 0 0
14 3 3 0 -4.152151580364233 -6.897688232501849 -1.1869978498041929 0 0 0
2306 736 2 0 -4.049437396712693 -7.313564637629548 -0.5968758003509036 0 0 0
1297 399 4 0 -3.114861586270274 -2.5504311069360526 -0.6881215462852055 -1 0 0
2307 736 4 0 -4.295845678134617 -6.955662698340136 -0.8057025223970328 0 0 0
554 152 2 0 -2.861513341415302 -6.394016263928251 -0.17660024966666296 0 0 0
556 152 4 0 -2.55453384738614 -6.502112996054373 -0.46712487136370834 0 0 0
1533 478 4 0 -2.29356117929775 -6.771083343467519 -0.608461485658015 0 1 0
2710 870 4 0 -1.489492388520697 -6.545191612873898 -1.478976748857357 0 1 1
1532 478 2 0 -2.0823353296697253 -6.627272761631195 -0.989764207095681 0 1 0
1534 478 4 0 -1.8774266078696746 -6.481478238507758 -1.3500754613439152 0 1 0
1087 329 4 0 -0.26754397692673854 -6.581407610343488 -0.0007584702853214826 0 1 0
53 11 3 0 -3.8844230472953303 -4.853804527913608 -1.4365807102589987 0 0 0
2257 719 4 0 -3.974660445929856 -5.069435618816704 -1.7581190013473895 1 0 1
54 11 3 0 -3.1760681463380536 -4.7266628438897085 -1.2450819095133803 0 0 0
51 11 1 0 -3.6142039205504015 -4.658988493664985 -1.1287477144175824 0 0 0
1236 379 4 0 -2.886987328332806 -4.581280139037714 -1.0309118509357684 0 1 0
1980 627 4 0 -1.6965811985048278 -4.850392570223086 -0.897421412265011 0 0 0
1235 379 2 0 -2.4566838918526184 -4.673324937167586 -1.0381232564565674 0 1 0
1237 379 4 0 -2.03549412761111 -4.761067032239797 -1.0449707227792406 0 1 0
1979 627 2 0 -1.3901988694728797 -4.641975775107508 -0.6635927856713946 0 0 0
1981 627 4 0 -1.0788778088029969 -4.425961019001048 -0.4328321714179986 0 0 0
2809 903 4 0 -3.8233330913405523 -3.1655630469756484 -1.4686623413790565 0 0 0
2807 903 2 0 -3.935550411107937 -3.5774169157156654 -1.3623836696421316 0 0 0
52 11 3 0 -3.7028333644291807 -4.218820503765225 -1.1053951700520537 0 0 0
55 11 3 0 -3.6883383446861115 -4.858210603204597 -0.7074129052770016 0 0 0
2496 799 4 0 -3.751152228741355 -4.683494997141936 -0.3413540851063046 1 0 0
2495 799 2 0 -3.9997094694587187 -4.373780812885412 -0.0639702630138314 1 0 0
1945 615 4 0 -1.1202428785634897 -4.256146456967487 -0.07462347046893976 0 0 0
1112 338 2 0 -7.779050114971283 -2.537356980033088 -1.3904551244951011 0 0 0
1114 338 4 0 -7.444956904039935 -2.2619069373243548 -1.1871700050238572 0 0 0
1314 405 4 0 -7.308920807133105 -1.9033600473152883 -1.1439759597678991 0 0 0
1313 405 2 0 -7.11184222303535 -1.7523939087205043 -0.7564188249354544 0 0 0
1315 405 4 0 -6.904495906464951 -1.5992957733431021 -0.3623579963649168 0 0 0
1798 566 4 0 -6.739318362478257 -1.8726682924312084 -0.11055439015963248 1 0 0
1296 399 4 0 -3.562442172940924 -2.867587924537457 -1.3808175185845915 -1 0 0
1295 399 2 0 -3.3298373044261287 -2.70391357493417 -1.024278498487263 -1 0 0
2178 693 4 0 -7.814875077607737 -9.34062954806101 -0.302866114685642 1 0 0
652 184 4 0 -4.328374744339276 -2.5996507124797237 -0.15770616616872785 0 0 0
1102 334 4 0 -1.2947145511287939 -2.378217266781085 -0.17283884084131484 0 0 0