LAMMPS data file via write_data, version 4 Feb 2025, timestep = 4000000, units = lj

2000 atoms
4 atom types
1500 bonds
1 bond types
1750 angles
2 angle types

-8.346487 8.346487 xlo xhi
-8.346487 8.346487 ylo yhi
-8.346487 8.346487 zlo zhi
8.526512829121202e-14 0 0 xy xz yz

Masses

1 1
2 1
3 0.1
4 0.1

Bond Coeffs # harmonic/omp

1 100 0.45

Angle Coeffs # harmonic/omp

1 100 180
2 100 109.471

Atoms # full

802 161 3 0 4.00684749384674 -7.979421841783543 -8.15178407678946 32 1 0
801 161 1 0 3.9833373418647824 -8.174632643233076 -7.734422640359907 32 1 0
573 115 3 0 5.644523940856633 -6.702798277750844 -7.687825143751581 6 0 1
1561 354 4 0 5.853236967726389 -7.045654189613799 -7.750623918700349 6 0 1
1560 354 2 0 6.096596290946449 -7.164175626309524 -8.097089894307986 6 0 1
186 38 1 0 -3.387879389346347 -5.936602314640641 -7.5866940772237115 9 0 0
190 38 3 0 -3.575870776268701 -5.8572748988595285 -7.989795002907031 9 0 0
187 38 3 0 -3.2964332634387308 -6.387232621427941 -7.543800815280702 9 0 0
189 38 3 0 -3.033930924266583 -5.723201739785761 -7.5561112312866054 9 0 0
1270 257 4 0 -2.7816558742521265 -5.4068659657336635 -7.503544327398273 8 0 0
1248 250 3 0 1.0393514358741829 -4.84108813679758 -7.4496507422767175 11 0 1
1275 259 2 0 2.163583701974094 -5.230901468882937 -8.049347196579467 7 0 0
1277 259 4 0 2.474777164122802 -5.11908892318054 -7.707755335910624 7 0 0
593 119 3 0 2.8867417507181496 -5.043156346537264 -7.5987401464949835 9 0 1
591 119 1 0 3.203302599623692 -4.7198761572958565 -7.49672689699193 9 0 1
594 119 3 0 3.5600861389022107 -4.788158327472523 -7.733102190000258 9 0 1
1339 280 4 0 3.9437690643889454 -4.675919499368183 -7.674119060065514 7 0 0
1462 321 4 0 -7.849115992987698 -4.217139476034569 -8.138198220114989 10 0 0
184 37 3 0 -8.238286035550162 -4.128052199296796 -8.106329366558256 13 0 0
1461 321 2 0 -7.4154571384228785 -4.2110165970910405 -8.100308593807199 10 0 0
1463 321 4 0 -6.951857673784924 -4.2054033477087485 -8.072714753018793 10 0 0
1079 216 3 0 -6.558270361513105 -4.163592095171594 -8.058249394923493 33 1 1
1076 216 1 0 -6.130519944759756 -4.042304597947046 -8.193867726963475 33 1 1
1078 216 3 0 -5.96050020395611 -3.7242030024816373 -7.9080249599593575 33 1 1
1080 216 3 0 -5.862433545144587 -4.4152394849213294 -8.187263940011327 33 1 1
1678 393 4 0 -5.4811694824819295 -4.288947985970325 -8.260895718471367 16 0 0
1247 250 3 0 1.1734235582206853 -4.213416442669556 -7.841515550131268 11 0 1
1508 336 4 0 1.1998967851222275 -3.9311270843469828 -8.131767478405958 10 0 1
1246 250 1 0 1.076797819615857 -4.388639820930951 -7.4200598974892475 11 0 1
1353 285 2 0 2.2110546093375465 -4.245047954427887 -7.42927274202997 10 0 0
592 119 3 0 3.0267892974987785 -4.328590063798071 -7.599420000841198 9 0 1
1354 285 4 0 2.6484838432536026 -4.2884024628551884 -7.512941392335511 10 0 0
1338 280 2 0 4.430762254687478 -4.583347925000393 -7.685502988047843 7 0 0
703 141 3 0 4.424313365609901 -3.873177574963096 -7.761310131723777 30 1 0
1340 280 4 0 4.882664860563329 -4.5054248375118355 -7.688999558116528 7 0 0
1159 232 3 0 5.277542643170483 -4.431396889361288 -7.797655585025495 28 1 1
1156 232 1 0 5.570102925108861 -4.13978498894773 -7.943250293636268 28 1 1
1157 232 3 0 5.494043938960543 -3.775169306765056 -7.78518260495332 28 1 1
1158 232 3 0 6.030187436664194 -4.286572132285659 -7.805853233269937 28 1 1
1460 320 4 0 6.430803033388768 -4.166802382584853 -7.843818039969258 11 0 0
1458 320 2 0 6.890102791518341 -4.062710703075373 -7.95648144741204 11 0 0
1459 320 4 0 7.299056913586325 -3.9762491825845263 -8.048350551426644 11 0 0
183 37 3 0 7.7194244110894985 -3.945646759954447 -8.05621151207402 12 0 0
181 37 1 0 8.121061668524963 -3.8523067195071174 -8.26895805637906 12 0 0
1575 359 2 0 -7.809313702624543 -2.9708874822479645 -8.225658916738029 13 0 1
1576 359 4 0 -7.421776064767348 -2.7918872586007915 -8.094482989416928 13 0 1
1550 350 4 0 -5.640512634314476 -3.4994982400656776 -7.962953956917741 15 0 1
1548 350 2 0 -5.298587844601865 -3.292387062104895 -7.769805279768431 15 0 1
1549 350 4 0 -4.94451593696418 -3.0818090069293973 -7.583363027726092 15 0 1
1170 234 3 0 -4.577748803209337 -2.962927673203003 -7.757106641820481 15 0 1
1307 269 4 0 0.3311449663393482 -3.2806415053379334 -7.474413707283233 11 0 0
518 104 3 0 0.35179511296415633 -3.051982293040626 -7.80928267257397 9 0 1
516 104 1 0 0.41447557832746185 -3.032945740539164 -8.271362934365877 9 0 1
1813 438 4 0 -0.33095067768506325 -3.100917988228934 -8.344749813201608 14 0 0
702 141 3 0 3.8350643526560333 -3.5992015766280376 -8.134735935917975 30 1 0
1451 317 4 0 3.6565765512375616 -3.282816649748966 -8.304738203990105 9 0 0
705 141 3 0 4.270124360821601 -3.1486181221090828 -7.7250750654438995 30 1 0
701 141 1 0 4.264570778771262 -3.518554500714348 -7.990947464161618 30 1 0
704 141 3 0 4.525953762796004 -3.4459720109362184 -8.337669092130282 30 1 0
185 37 3 0 8.234028080568976 -3.402264281671859 -8.195679422474903 12 0 0
846 170 1 0 -6.717442819322002 -2.449337346549264 -8.306367158277672 15 0 1
848 170 3 0 -7.169840409365817 -2.4782181744124436 -8.172901877130048 15 0 1
847 170 3 0 -6.460356620885034 -2.4176991056219084 -7.961058756249937 15 0 1
1990 497 4 0 -6.130287181589387 -2.1590606515887245 -7.949959209351861 12 0 1
1989 497 2 0 -5.691457237748898 -2.169185921446158 -7.956181198877008 12 0 1
1991 497 4 0 -5.240193499234664 -2.1788323219146077 -7.952426775714822 12 0 1
1169 234 3 0 -4.870303690259568 -2.259561022427148 -7.770309599632206 15 0 1
1167 234 3 0 -4.36633350882492 -2.462409750936546 -8.280578827650745 15 0 1
1166 234 1 0 -4.489057316059009 -2.5042062183993155 -7.847954418383637 15 0 1
1168 234 3 0 -4.151724816156125 -2.368654960095631 -7.564724978583592 15 0 1
1710 404 2 0 -1.8531021780761376 -1.9888168940765052 -7.4941883857466935 38 1 0
817 164 3 0 6.704890776605909 -2.1004760250049044 -7.631089884622252 18 0 0
1621 374 4 0 -6.2959383639322475 -1.0437933799054715 -7.456342364275743 19 0 0
328 66 3 0 -2.8723185885454354 -1.8340319625702124 -8.290444469529664 14 0 1
327 66 3 0 -2.225692968241747 -1.6712706563789688 -7.976367382565999 14 0 1
326 66 1 0 -2.487606063109334 -1.6027513295523423 -8.339120324424844 14 0 1
1711 404 4 0 -1.8433970819095427 -1.8209607750295849 -7.904891608817536 38 1 0
1624 375 4 0 7.3127006806212265 -1.4494515642266492 -7.697888456776457 18 0 0
1623 375 2 0 7.494751531381127 -1.1585846377640294 -7.991867315854295 18 0 0
1788 430 2 0 -7.541953822472024 -0.8742511367472261 -8.076439504014942 40 1 1
1790 430 4 0 -7.2277549945065465 -0.7664876620239536 -7.7804441848408 40 1 1
387 78 3 0 -6.911876397602075 -0.6284139462453586 -7.583851007002623 13 0 0
386 78 1 0 -6.524717865446181 -0.3758218197157346 -7.60478744233275 13 0 0
389 78 3 0 -6.509181387112934 -0.1443273640681646 -7.959425285496841 13 0 0
388 78 3 0 -6.168519751823675 -0.6584173830756779 -7.597898191068913 13 0 0
1751 417 4 0 -3.899050093111458 -0.2783573657808578 -8.105525833946727 17 0 0
1625 375 4 0 7.683336695720961 -0.8799293435184232 -8.292584475445661 18 0 0
660 132 3 0 -7.471044759449016 -8.12616288474148 -7.078400064112665 27 1 0
656 132 1 0 -7.679619700825633 -8.149112489188015 -6.681037851430935 27 1 0
658 132 3 0 -7.816800607020999 -7.717765397804593 -6.533653812195354 27 1 0
1526 342 4 0 -7.050423986048731 -8.207733537976187 -6.502924765657359 8 0 1
1524 342 2 0 -6.583490126278412 -8.203807571246795 -6.561876520608512 8 0 1
1525 342 4 0 -6.124085092637104 -8.198839996689083 -6.607236408675335 8 0 1
942 189 3 0 -5.690380726763999 -8.18843345287566 -6.596487741342609 8 0 1
803 161 3 0 4.05382367362874 -7.874507041871163 -7.411788879662866 32 1 0
1865 455 4 0 4.038132115772898 -7.917564980756049 -7.000733286347319 26 1 1
1863 455 2 0 4.109709028295347 -8.256475983826885 -6.656049026621174 26 1 1
1779 427 2 0 5.776427837910614 -7.632316915701222 -6.882972693451821 8 0 0
1781 427 4 0 6.029585746531133 -7.983990752483703 -6.746768141940243 8 0 0
768 154 3 0 6.426294366272318 -7.901419398490336 -6.809140273808842 7 0 0
770 154 3 0 7.130754260385473 -7.935500180625182 -6.66447829215018 7 0 0
766 154 1 0 6.755287390565719 -8.053402522299173 -6.515823619829833 7 0 0
1727 409 4 0 8.291801518079826 -8.26923483689128 -6.594869615170944 26 1 0
1725 409 2 0 7.856396561889795 -8.107559980016502 -6.512981013727132 26 1 0
571 115 1 0 5.4172663272108394 -6.686347889624018 -7.334452861137266 6 0 1
1780 427 4 0 5.524450738449744 -7.2857308279408315 -7.01000573600299 8 0 0
572 115 3 0 5.266753557759447 -7.077166470188786 -7.242779175943611 6 0 1
575 115 3 0 5.676785571601931 -6.532139318796237 -6.99500706960335 6 0 1
232 47 3 0 -5.773724773332085 -6.469041852283316 -6.699301528450801 7 0 0
234 47 3 0 -5.085827089636609 -6.306540852992159 -6.905533555672626 7 0 0
231 47 1 0 -5.339945178279963 -6.47436726650081 -6.574901151068437 7 0 0
1655 385 4 0 -4.695007256432904 -6.2664311450447485 -6.778879160208328 27 1 0
1654 385 4 0 -4.033004869905746 -5.998096200703479 -7.347607141408299 27 1 0
1653 385 2 0 -4.359480093804831 -6.14149737516179 -7.0616075151837565 27 1 0
188 38 3 0 -3.684491069093541 -5.797009983529756 -7.239762342599413 9 0 0
1511 337 4 0 3.190902788988744 -5.680136251285116 -6.497276038262984 9 0 1
574 115 3 0 5.05267329366383 -6.4048402435607175 -7.4044158966934095 6 0 1
1269 257 2 0 -2.867353057841367 -5.010714160109419 -7.313323087059657 8 0 0
1805 435 4 0 -1.1063050463293207 -4.745023070277807 -6.929183863174791 28 1 0
1803 435 2 0 -0.8268792341218356 -5.073749604120132 -6.819259968647575 28 1 0
1804 435 4 0 -0.5594662930815177 -5.405022866975662 -6.712022504603835 28 1 0
427 86 3 0 -0.1711427785115962 -5.316986225485175 -6.690801251639064 10 0 1
430 86 3 0 0.5103944588482658 -5.469679421884223 -6.5141324872672195 10 0 1
1325 275 4 0 2.594851751715993 -5.135101763621568 -7.3266719598055365 10 0 0
1323 275 2 0 2.3634719794440517 -5.222666082287772 -6.916063658604805 10 0 0
595 119 3 0 3.3032385388956946 -4.747523864168123 -7.0362305240442975 9 0 1
40 8 3 0 3.663379091945469 -4.699917574803582 -6.637504780541368 8 0 0
521 105 1 0 -3.231427571407681 -4.185843245026542 -6.5510054294465965 9 0 1
522 105 3 0 -3.211162562997843 -4.538979525887408 -6.818878924379851 9 0 1
525 105 3 0 -3.588479800563155 -3.9409751013249004 -6.657475589324305 9 0 1
1271 257 4 0 -2.9630695619175382 -4.608804278433206 -7.1227649770884645 8 0 0
524 105 3 0 -2.8536524483310126 -3.939908560502227 -6.603919267430142 9 0 1
1285 262 4 0 -2.6598933958793465 -3.8070158785477766 -6.903061189340395 8 0 0
52 11 3 0 -1.6409579968239 -3.893775067501421 -7.331249848871541 12 0 0
55 11 3 0 -1.35645783108298 -4.584013641234397 -7.240521159118533 12 0 0
1579 360 4 0 -0.5839266777908181 -4.132394295735903 -7.226764922533125 9 0 1
53 11 3 0 -0.9251248830136651 -4.024620631003028 -7.398850951147076 12 0 0
51 11 1 0 -1.2716494529173126 -4.141131973678027 -7.175355644573442 12 0 0
54 11 3 0 -1.2023914888216956 -4.049886854832192 -6.723067925466915 12 0 0
1580 360 4 0 0.2804144974678735 -4.252012324712743 -7.239604494020053 9 0 1
1578 360 2 0 -0.15613598878366197 -4.181005116153596 -7.228708943740276 9 0 1
1250 250 3 0 0.676351625729648 -4.213232335519776 -7.262039686808078 11 0 1
1355 285 4 0 1.7594173579621621 -4.199569501669025 -7.3298938196692625 10 0 0
1249 250 3 0 1.3996340995009806 -4.288595458660781 -7.131736890917596 11 0 1
1481 327 4 0 3.7577569799000337 -4.307652205798307 -6.669629779616294 9 0 0
1479 327 2 0 3.903994362237727 -3.899883900721292 -6.501127542333185 9 0 0
1284 262 2 0 -2.290040743999371 -3.6992492336379774 -7.115628565045064 8 0 0
1286 262 4 0 -1.9122667443417694 -3.583108772827754 -7.332798713676669 8 0 0
1305 269 2 0 0.5178707029759764 -3.148491028999077 -7.090864131335814 11 0 0
1306 269 4 0 0.6956418380614355 -3.008416484489743 -6.6983988393760425 11 0 0
1361 287 4 0 -3.8620543397433726 -2.30858944805197 -7.3172268416227455 11 0 0
1359 287 2 0 -3.497677956661554 -2.1553841170430843 -7.129638512591536 11 0 0
1360 287 4 0 -3.124814259805486 -2.0032801834660887 -6.933412056767528 11 0 0
213 43 3 0 -2.818146797132367 -2.178892953609105 -6.723238157364496 19 0 0
211 43 1 0 -2.477413043770711 -1.9672854207001826 -6.539222909209574 19 0 0
212 43 3 0 -2.1245170793702144 -2.0256935129066598 -6.785662246249011 19 0 0
1712 404 4 0 -1.852205691909007 -2.160562951349564 -7.07493356646587 38 1 0
819 164 3 0 6.789147462962424 -2.0413446412766625 -6.903532991971065 18 0 0
1620 374 2 0 -6.0913291600426085 -1.2979602878648118 -7.139986015982322 19 0 0
1622 374 4 0 -5.889111866430498 -1.5520909962022218 -6.800133061865282 19 0 0
215 43 3 0 -2.57036342496702 -1.54104177883689 -6.514293197059792 19 0 0
818 164 3 0 6.356028858083004 -1.57064220804902 -7.2635543347927545 18 0 0
820 164 3 0 7.094355282821178 -1.5335214532227264 -7.355376408918263 18 0 0
816 164 1 0 6.7339186840008285 -1.807974576110544 -7.287451382098514 18 0 0
390 78 3 0 -6.504473074555648 -0.0923097451344379 -7.2494906081310155 13 0 0
102 21 3 0 -3.417824861770919 -0.3828184722911425 -6.875139462090018 2 -1 0
659 132 3 0 -7.417568276148076 -8.31254137912313 -6.3854919347577805 27 1 0
176 36 1 0 -0.49733936946157 -8.217160097072291 -5.592302412402329 13 0 0
179 36 3 0 -0.18235537798553736 -8.288041796752209 -5.916276533485505 13 0 0
172 35 3 0 2.67264100451119 -8.06790165656486 -6.047016133479547 7 0 0
1313 271 4 0 3.630791394181971 -7.6493300589672835 -5.799431935071563 8 0 0
1726 409 4 0 7.428233249059165 -7.94953310243577 -6.415918841695658 26 1 0
769 154 3 0 6.680624693922635 -7.868898966783437 -6.09725170178648 7 0 0
1268 256 4 0 6.7760555953862465 -7.481523082272371 -6.120119054173782 7 0 0
1466 322 4 0 -7.93437891209521 -7.37109687268363 -6.37622440839449 8 0 0
1464 322 2 0 -8.101978452235452 -7.056800337305083 -6.087251573722969 8 0 0
1465 322 4 0 -8.262780692836888 -6.757143487871691 -5.807912431931333 8 0 0
780 156 3 0 -6.906700095285034 -6.727380532433514 -5.612786529927295 29 1 0
233 47 3 0 -5.221506007427077 -6.892705167289318 -6.485914539310908 7 0 0
1847 449 4 0 2.7457930883565655 -6.937863260494224 -6.424334803370646 8 0 0
1510 337 4 0 2.8698101668740517 -6.536694984794013 -6.4467577937000815 9 0 1
1845 449 2 0 3.0669246994208716 -7.144536498104606 -6.177880498283962 8 0 0
1846 449 4 0 3.3899391481801757 -7.363182141899746 -5.910510417122868 8 0 0
578 116 3 0 3.7589006636215814 -7.265920581046459 -5.790088899605146 10 0 0
579 116 3 0 3.750565157769042 -6.50795432121934 -5.746295618580258 10 0 0
576 116 1 0 3.987767995765939 -6.890415446735756 -5.645617487042437 10 0 0
580 116 3 0 4.404257277159328 -6.87145551253784 -5.866742922832936 10 0 0
1258 253 4 0 4.625104016975406 -6.5440812961148485 -5.928793592565189 10 0 0
1266 256 2 0 6.955585194295264 -7.215445263461771 -5.781113622451529 7 0 0
1000 200 3 0 8.169725509989831 -6.938066951687554 -5.583324355041533 7 0 0
1643 381 4 0 -6.731846558762179 -6.427441446041446 -5.851484954625885 27 1 0
1641 381 2 0 -6.401580685232095 -6.4530219971395 -6.1272277482726825 27 1 0
1642 381 4 0 -6.067722765024975 -6.48094735992145 -6.40915671500011 27 1 0
235 47 3 0 -5.300702800808898 -6.224752690620267 -6.203360903597879 7 0 0
429 86 3 0 0.014156572055791017 -5.9929047385946586 -6.4704129072181695 10 0 1
1509 337 2 0 3.0280566760643133 -6.10590106437543 -6.481967659440539 9 0 1
959 192 3 0 2.2681199262722096 -5.839154981679357 -5.841757836530487 27 1 0
1304 268 4 0 3.9092566723783566 -6.1481159094999756 -5.602583610096376 10 0 0
1257 253 2 0 4.734246205899149 -6.129438714423945 -6.071519451056757 10 0 0
1259 253 4 0 4.858915707311258 -5.701778128648616 -6.215377772041769 10 0 0
205 41 3 0 7.764244851591691 -5.896006166470491 -5.920258028768003 6 0 0
1522 341 4 0 -8.257746414904322 -5.107831486601154 -5.580028081735562 7 0 1
428 86 3 0 0.01966270217254973 -5.44717619564673 -6.005655344347456 10 0 1
426 86 1 0 0.09350878234243964 -5.5567914981511874 -6.421673930281505 10 0 1
1448 316 4 0 0.8843149920861073 -5.300598709667895 -6.488251849458966 8 0 0
1324 275 4 0 2.131545011124306 -5.290827003422693 -6.486486847936555 10 0 0
1446 316 2 0 1.32076515359714 -5.266511038586692 -6.407481077876633 8 0 0
956 192 1 0 2.144109294192331 -5.42760773199201 -5.7218166463768085 27 1 0
1447 316 4 0 1.7631957694235787 -5.241454202377356 -6.326903902003635 8 0 0
958 192 3 0 2.0899573833188025 -5.1683399915847295 -6.10102457983609 27 1 0
39 8 3 0 3.3032398116185107 -5.306138235284042 -6.405629239344457 8 0 0
37 8 3 0 3.4534029232263954 -4.77723487327519 -5.953188336684456 8 0 0
36 8 1 0 3.59985387109492 -4.996927301621772 -6.290400410712832 8 0 0
38 8 3 0 4.019657961285857 -5.205984344094638 -6.187536974552292 8 0 0
332 67 3 0 5.243438336197437 -4.826119695827035 -6.4497743020598355 8 0 0
334 67 3 0 5.200233710156988 -5.50715850353472 -6.155302899091861 8 0 0
333 67 3 0 5.307240144373216 -4.92881492958859 -5.698083776381579 8 0 0
331 67 1 0 5.404968868968419 -5.1109935829459925 -6.111134484121151 8 0 0
335 67 3 0 5.85797787590878 -5.170125977642332 -6.152560224749384 8 0 0
1408 303 4 0 6.136671694453071 -5.454816844528169 -6.229847787592243 8 0 0
1407 303 2 0 6.560959895594237 -5.370364453364917 -6.091199613116356 8 0 0
1409 303 4 0 6.9915767860494284 -5.279036728882291 -5.949609206809231 8 0 0
203 41 3 0 7.401667224712899 -5.244664056377891 -5.95967496453582 6 0 0
201 41 1 0 7.656887433561874 -5.514583288076329 -5.693523906969146 6 0 0
204 41 3 0 8.063470942184178 -5.2796008112448725 -5.565860903883878 6 0 0
814 163 3 0 -5.274470254189506 -4.32693424154208 -5.771817759197824 27 1 0
523 105 3 0 -3.254121639805928 -4.313159523668218 -6.13883769892209 9 0 1
1375 292 4 0 -0.1213291771301499 -3.3046959957288777 -5.638961009762625 9 0 0
1090 218 3 0 0.232582620282896 -3.1006198901478577 -5.706739015572114 28 1 1
1088 218 3 0 0.6959130935756388 -2.970949308023405 -6.289468027953795 28 1 1
280 56 3 0 3.7313842994686883 -2.857079980023981 -5.653435917139578 10 0 0
1480 327 4 0 4.044638514082955 -3.510470630358875 -6.344075683628616 9 0 0
279 56 3 0 4.137471393679119 -3.1566909227288082 -6.17596415975455 10 0 0
276 56 1 0 4.113011357928931 -3.0562608967685323 -5.733949906316402 10 0 0
278 56 3 0 4.444218195686455 -2.789651179716256 -5.625818343835949 10 0 0
1668 390 2 0 6.580301815905617 -3.546347064673183 -5.614712234810334 28 1 0
1669 390 4 0 6.516725588619035 -3.1638061043695043 -5.82683129301207 28 1 0
117 24 3 0 6.548669767685258 -2.802334370609789 -6.0048152223894355 11 0 0
653 131 3 0 -7.834835475185721 -2.2656138159509274 -5.736142161865883 9 0 0
651 131 1 0 -7.974224420446752 -1.8659644857559181 -5.9214242323069985 9 0 0
655 131 3 0 -8.060855084518732 -1.9314547767376515 -6.361989635563929 9 0 0
214 43 3 0 -2.4026788845205935 -2.1360127629969217 -6.121316645099128 19 0 0
724 145 3 0 -1.6179272861815788 -2.6927007112671575 -5.633432161826006 30 1 0
1413 305 2 0 -0.43977352662452507 -2.14645553398519 -5.917076501740096 9 0 0
1414 305 4 0 -0.8102293698431078 -2.12275518423821 -5.667592647440564 9 0 0
1415 305 4 0 -0.05054978949866573 -2.167793006244235 -6.186594827697441 9 0 0
1087 218 3 0 0.13693044074028116 -2.5340732271022546 -6.144336704449898 28 1 1
1086 218 1 0 0.43372842504214404 -2.780266956249732 -5.954220124064422 28 1 1
1381 294 4 0 0.8478173153643649 -2.1638349611897327 -5.7544742595141125 11 0 0
1089 218 3 0 0.6883273290032896 -2.525166592054763 -5.692562797080154 28 1 1
1309 270 4 0 4.815396459878784 -2.6274248792158206 -5.610743737028277 10 0 0
1308 270 2 0 5.261638367987608 -2.557258366528389 -5.675249524599702 10 0 0
1310 270 4 0 5.703605548465719 -2.5015845496600067 -5.740069986083108 10 0 0
119 24 3 0 6.25275680075505 -2.195684755494405 -6.248217274323203 11 0 0
116 24 1 0 6.413872374369804 -2.3902041696504917 -5.898055362600321 11 0 0
118 24 3 0 6.759544625303841 -2.1530524068510024 -5.723923680303909 11 0 0
1714 405 4 0 7.137921931656766 -2.0756919989018154 -5.684951759302985 28 1 0
1713 405 2 0 7.5598093173331655 -1.894770750227659 -5.738375536413377 28 1 0
652 131 3 0 -7.657591743065927 -1.563226274250157 -5.868198370168563 9 0 0
1294 265 4 0 -7.276485156920961 -1.4528690415499792 -5.844377018957054 19 0 0
1293 265 2 0 -6.818621718760762 -1.4799175799161093 -5.781625096804472 19 0 0
634 127 3 0 -5.721558282807201 -1.4644887843206025 -6.432904923125602 2 -1 1
1295 265 4 0 -6.370183385549485 -1.5034827155664843 -5.721131811205945 19 0 0
635 127 3 0 -5.973250413066653 -1.4186736561574094 -5.772184571338232 2 -1 1
631 127 1 0 -5.650372510602823 -1.2955010497845034 -6.046786707806764 2 -1 1
632 127 3 0 -5.227998024090811 -1.4301669137038768 -5.886941203780591 2 -1 1
1388 296 4 0 -4.832748637861098 -1.3295972221211763 -5.962638912651784 19 0 0
1386 296 2 0 -4.523979122487735 -1.0756615988648255 -6.1918128338801255 19 0 0
1706 402 4 0 -2.6048027713613537 -1.3981692193446555 -6.149606449064839 38 1 0
1704 402 2 0 -2.728800314501142 -0.9435853726434313 -6.096089935997755 38 1 0
654 131 3 0 8.33212495304705 -1.7206449440886438 -5.715469896917343 8 0 0
1715 405 4 0 7.943462504491457 -1.731943828118343 -5.78397046777199 28 1 0
633 127 3 0 -5.648550295539463 -0.842439385197074 -6.0861393201751275 2 -1 1
1387 296 4 0 -4.210849919328473 -0.8207735299048782 -6.424540935789698 19 0 0
104 21 3 0 -3.845283852385167 -0.6714481104848034 -6.377239292522201 2 -1 0
101 21 1 0 -3.5458107032062802 -0.3555156737580738 -6.45345631576584 2 -1 0
105 21 3 0 -3.203907478594582 -0.4115039772159621 -6.194008060187651 2 -1 0
1705 402 4 0 -2.853918181966656 -0.5288845944550307 -6.052089489753758 38 1 0
177 36 3 0 -0.5355020976725164 -7.784288344243159 -5.52121155306288 13 0 0
968 194 3 0 0.8321505863245005 -7.992453549241414 -4.7354666006993025 33 1 0
1311 271 2 0 3.8519076883431023 -7.960846258710141 -5.536292895608659 8 0 0
1312 271 4 0 4.0595820920180685 -8.250659801742627 -5.291426119951028 8 0 0
159 32 3 0 4.360565892186987 -8.32478302863255 -5.054819760337036 15 0 0
779 156 3 0 -7.153794022649442 -7.115983308875594 -5.056078193089271 29 1 0
776 156 1 0 -6.944675690596608 -6.734077323295784 -5.185905178487929 29 1 0
778 156 3 0 -6.54956976912501 -6.727089374626851 -5.011466366626548 29 1 0
1856 452 4 0 4.0096457180790726 -7.017914641866395 -4.83687938517663 8 0 0
577 116 3 0 4.062362483738147 -6.913036008026192 -5.197478902566463 10 0 0
1267 256 4 0 7.1267362438952215 -6.9700841230071555 -5.458213617044465 7 0 0
997 200 3 0 7.474078939171578 -6.7949175870847345 -5.4787821530907586 7 0 0
999 200 3 0 7.87905364251025 -7.030926018833491 -4.9207384699204075 7 0 0
996 200 1 0 7.870064047503536 -6.780197430539337 -5.302745935708639 7 0 0
1746 416 2 0 -7.964639051223886 -6.121366576115836 -5.163035959162323 27 1 0
1748 416 4 0 -7.534551524080279 -6.15212824097913 -5.090287998421319 27 1 0
777 156 3 0 -7.188147694344774 -6.351624504864615 -5.0324949332385405 29 1 0
1302 268 2 0 3.8549016513877863 -5.818046836299287 -5.295636555325364 10 0 0
1540 347 4 0 6.300756048905798 -6.230555698552992 -4.9505302012991645 6 0 1
1539 347 2 0 6.689110540317268 -6.055560320304162 -5.140610686070004 6 0 1
1541 347 4 0 7.078518574879643 -5.873756834000099 -5.314639947996207 6 0 1
202 41 3 0 7.413430431065086 -5.612966580238075 -5.313318317357041 6 0 0
1747 416 4 0 8.260959434977352 -6.0878082873286585 -5.234102710284011 26 1 0
998 200 3 0 7.969469031695134 -6.3611016477238636 -5.205889853921531 7 0 0
1521 341 2 0 -7.810208821359202 -5.0400146870920555 -5.478862607247027 7 0 1
1363 288 4 0 -6.996905694665354 -4.779327000147576 -5.362271426508329 8 0 0
1523 341 4 0 -7.3689324900968085 -4.971542438513475 -5.3688255307321535 7 0 1
1362 288 2 0 -6.5790551699973205 -4.710799254136173 -5.264745963889224 8 0 0
1364 288 4 0 -6.134126348855104 -4.642091928454887 -5.166832438544198 8 0 0
960 192 3 0 1.7307281070665201 -5.444171390037025 -5.485379329404837 27 1 0
957 192 3 0 2.474049797460296 -5.241126221777677 -5.447225059978008 27 1 0
1843 448 4 0 2.6163136455332765 -5.150045200298935 -5.0688737581342735 8 0 0
1842 448 2 0 3.0475960935772175 -5.217244822594275 -4.9542402766426425 8 0 0
1303 268 4 0 3.7932409322276115 -5.473519852351115 -4.998728254133333 10 0 0
1844 448 4 0 3.4963305684673767 -5.284589224229942 -4.840419595670385 8 0 0
1609 370 4 0 5.240359530018779 -5.061827414685494 -5.34382632745733 9 0 0
1608 370 2 0 5.452911554241799 -4.795714501446106 -5.029278147210397 9 0 0
810 162 3 0 6.646558279198006 -4.765451309484343 -5.18759192955749 12 0 0
815 163 3 0 -5.75940942031256 -4.477195793006468 -5.224298257632755 27 1 0
813 163 3 0 -5.541504281391295 -3.7841933496599136 -5.363852563543171 27 1 0
811 163 1 0 -5.404936907203714 -4.197943120594804 -5.363884536373723 27 1 0
812 163 3 0 -5.044408404609342 -4.240772173799794 -5.056864706498759 27 1 0
1330 277 4 0 -4.64250481866531 -4.199928119313815 -4.9563386373588845 7 0 0
1329 277 2 0 -4.215868049146204 -4.049955913932362 -4.971861651147793 7 0 0
1331 277 4 0 -3.781625966211087 -3.8923371052187727 -4.975095872286131 7 0 0
587 118 3 0 -3.371134913175582 -3.9285278856267043 -4.9723642016185075 28 1 1
586 118 1 0 -3.0005839086535335 -3.7370152549460736 -4.72337887563889 28 1 1
590 118 3 0 -2.597426695183634 -3.8846181779273596 -4.90024903251909 28 1 1
1757 419 4 0 -2.178794911869776 -3.9199264117308257 -4.895578129355373 14 0 0
1755 419 2 0 -1.718682142437748 -3.8069701515017806 -4.892759422087051 14 0 0
122 25 3 0 -0.9252166766472127 -3.889468766097166 -4.751084121493059 11 0 0
1327 276 4 0 0.2307518519825873 -3.7964458142403004 -4.932893930463456 10 0 0
123 25 3 0 -0.14400241851263473 -3.8638575564554483 -4.748428425472316 11 0 0
19 4 3 0 1.8894955249794094 -3.95074733242709 -5.481976094977258 8 0 0
1610 370 4 0 5.676594454583267 -4.5217799270513614 -4.733272610793539 9 0 0
806 162 1 0 6.473406049835811 -4.457611837747181 -4.914121890082322 12 0 0
807 162 3 0 6.011236343234607 -4.460026705884292 -4.9439403087073766 12 0 0
808 162 3 0 6.640248317724431 -4.047966472826152 -5.021439808402347 12 0 0
1670 390 4 0 6.633245756983005 -3.9378853088911008 -5.397899937262991 28 1 0
588 118 3 0 -3.02024865831846 -3.291581163551946 -4.747868168344079 28 1 1
1756 419 4 0 -1.2866631371797803 -3.7054303948447345 -4.883817646969854 14 0 0
1376 292 4 0 -0.9110821121991393 -2.9839959173158945 -5.3181014652106064 9 0 0
723 145 3 0 -1.2067394881143523 -2.859871810252841 -5.053675599118115 30 1 0
1374 292 2 0 -0.5118677149442972 -3.143369838297277 -5.486507079545348 9 0 0
1326 276 2 0 0.6308365516818473 -3.7032562217622376 -5.090239479547398 10 0 0
1328 276 4 0 1.0587219198565698 -3.5945388383135786 -5.2536673670714515 10 0 0
18 4 3 0 1.4188396832917896 -3.406680274473893 -5.293308694627196 8 0 0
16 4 1 0 1.8411752289593242 -3.578078618841781 -5.232053022909975 8 0 0
17 4 3 0 2.142780319317252 -3.269085710863582 -5.349646183767032 8 0 0
20 4 3 0 1.8899081986811126 -3.6729335677402073 -4.829627830731665 8 0 0
1393 298 4 0 2.4851798843566133 -3.0916937881686923 -5.399880201851848 11 0 0
1392 298 2 0 2.899665330574063 -2.961602412350153 -5.433140018224929 11 0 0
1394 298 4 0 3.3613557216266923 -2.826325488438936 -5.46452883786896 11 0 0
277 56 3 0 4.134369128444131 -3.439691705121807 -5.492762234768248 10 0 0
1736 412 4 0 -1.9590652704156701 -2.6037856307839284 -4.907975078945249 30 1 0
722 145 3 0 -1.681827126083947 -2.333674007878601 -4.9876041866434715 30 1 0
721 145 1 0 -1.3891505859909223 -2.529865607369765 -5.256180252933714 30 1 0
725 145 3 0 -1.0613723975723524 -2.2128076045328333 -5.384027484404667 30 1 0
1380 294 2 0 1.0151696692182384 -1.9983622792880507 -5.350747615326179 11 0 0
263 53 3 0 1.094456338184317 -2.1120870821463082 -4.648097475680494 11 0 0
120 24 3 0 6.0722905881381095 -2.4318869329941473 -5.561498677611805 11 0 0
1382 294 4 0 1.1743314135418927 -1.8284910689629923 -4.953391699430834 11 0 0
223 45 3 0 -7.160588027469402 -8.319407917735422 -4.550518428788321 11 0 0
35 7 3 0 -7.105627445151235 -7.838364126962981 -3.724413229666851 11 0 0
1849 450 4 0 -6.204621028218149 -7.523223299317891 -4.032604753306143 30 1 0
1848 450 2 0 -5.828896607508392 -7.752969208789864 -4.127787684066921 30 1 0
1850 450 4 0 -5.458130858863269 -7.996285628102857 -4.222730006091089 30 1 0
1108 222 3 0 -5.284926960358577 -8.344526902140291 -4.336595136430487 34 1 1
1687 396 4 0 -0.7861906152917788 -7.766420081113089 -3.8553276999221433 32 1 0
1686 396 2 0 -0.31059551354337067 -7.803380157352642 -3.9518094509253237 32 1 0
1688 396 4 0 0.12224887754348401 -7.83555800195017 -4.042515699638646 32 1 0
970 194 3 0 0.5273864130164068 -7.778822836817195 -4.104740955209467 33 1 0
966 194 1 0 0.8923628645379527 -7.743803496419206 -4.380022775481469 33 1 0
969 194 3 0 1.2544433925788034 -7.891044344583805 -4.165876832503505 33 1 0
1691 397 4 0 1.663728629454507 -7.901996306158981 -4.1335900592976875 27 1 0
1689 397 2 0 2.097063127657327 -7.918949552176538 -4.324951220131708 27 1 0
1690 397 4 0 2.516183151905313 -7.938420336842825 -4.505060845835752 27 1 0
1502 334 4 0 2.8665777364631033 -8.12345570295511 -4.580247450926042 9 0 1
1500 334 2 0 3.3201430230106137 -8.188642367567269 -4.597192876631522 9 0 1
1501 334 4 0 3.7807634918476705 -8.260743985838472 -4.60761311474744 9 0 1
156 32 1 0 4.4628115718153225 -8.229773006231698 -4.6192598747384315 15 0 0
157 32 3 0 4.564777664995383 -7.812595213264818 -4.575524885214486 15 0 0
158 32 3 0 4.105037584951884 -8.314882972057378 -4.355613094589009 15 0 0
402 81 3 0 6.883074065583797 -7.947346684965323 -3.8876189032502557 9 0 0
1765 422 4 0 6.7262112412607635 -7.593246129192032 -3.7743714873774508 9 0 0
1437 313 2 0 -7.7943036674482755 -6.916660187039131 -4.144215551233087 8 0 0
1438 313 4 0 -8.20066409749966 -6.697604017669143 -4.114901798531685 8 0 0
32 7 3 0 -7.2398166192756825 -7.107197112606361 -3.7975594959904555 11 0 0
1439 313 4 0 -7.384027314306116 -7.138051229839933 -4.168423582693064 8 0 0
33 7 3 0 -6.586757590752812 -7.393263412521438 -4.020384700785036 11 0 0
835 167 3 0 -1.541870939685574 -7.214054072322394 -4.147724183364417 33 1 0