LAMMPS data file via write_data, version 4 Feb 2025, timestep = 8500000, units = lj

2000 atoms
4 atom types
1500 bonds
1 bond types
1750 angles
2 angle types

-8.346487 8.346487 xlo xhi
-8.346487 8.346487 ylo yhi
-8.346487 8.346487 zlo zhi

Masses

1 1
2 1
3 0.1
4 0.1

Bond Coeffs # harmonic/omp

1 100 0.45

Angle Coeffs # harmonic/omp

1 100 180
2 100 109.471

Atoms # full

399 80 3 0 -8.093474923955336 -7.676255331122675 -6.488521701384472 1 0 0
1927 476 4 0 -8.233130819505032 -7.935407351533733 -6.761878846514193 0 1 1
1066 214 1 0 -8.245547420980202 -7.655215383504373 -8.211637818196719 1 2 1
397 80 3 0 8.179208913077769 -7.113266901728449 -6.758749649099251 0 0 0
1070 214 3 0 -8.000186470497258 -7.97509399219852 -8.21409269335358 1 2 1
336 68 1 0 -4.543223265786803 -7.284212900376469 -8.018398412270217 1 0 1
340 68 3 0 -4.848677673193685 -7.529214607608679 -8.239869586375956 1 0 1
615 123 3 0 4.0467596908366215 -2.026739225614943 -8.219276850374758 0 0 0
339 68 3 0 -4.445478131768434 -7.481578836238059 -7.643632864696321 1 0 1
1523 341 4 0 -4.0976742955910135 -7.3611582422641595 -7.504598647152251 1 0 1
337 68 3 0 -4.7239767239210675 -6.888559811614827 -7.9266621972949425 1 0 1
1521 341 2 0 -3.860421759362352 -7.156474845167231 -7.161002683188612 1 0 1
799 160 3 0 -4.164853318946546 -1.5862274881742895 -8.126800745359349 -1 1 1
120 24 3 0 -1.833222773209906 -1.6318402464377302 -3.3200585107662235 2 -1 0
1522 341 4 0 -3.635059573983477 -6.954134509169228 -6.829566346794843 1 0 1
240 48 3 0 -1.4675807411070476 -7.345815010627716 -8.112923065444154 1 0 0
239 48 3 0 -1.8263308497460544 -6.7452271387774765 -7.836821932322467 1 0 0
236 48 1 0 -1.4899471303288863 -7.053667942747514 -7.760280041942137 1 0 0
1667 389 4 0 -1.5918135752172429 -7.187031536115231 -6.9905447103249525 1 0 0
237 48 3 0 -1.0934165027748595 -6.838025934926579 -7.724925787453003 1 0 0
238 48 3 0 -1.5710707593482738 -7.2835241744760175 -7.373036263927916 1 0 0
483 97 3 0 0.1853467952195995 -7.139667593344124 -7.275754434168642 1 0 1
432 87 3 0 1.666977739221359 -6.66636538495957 -7.156299747378865 -1 0 1
434 87 3 0 1.1358463616366183 -6.4642139311806694 -7.600064872568967 -1 0 1
196 40 1 0 5.056419951662793 -7.422585027071323 -8.24701149126957 -1 0 1
1688 396 4 0 4.525692587435444 -7.038008440673534 -8.18637652948217 0 0 0
198 40 3 0 4.943842607287179 -6.998991321872311 -8.089502062146758 -1 0 1
1686 396 2 0 4.157843641028464 -6.77659664337236 -8.236899696076442 0 0 0
197 40 3 0 5.098245363701697 -7.700996986253503 -7.9045831247304355 -1 0 1
580 116 3 0 -1.1513142640099927 -0.3457755978563899 -4.076697465887382 0 0 1
1764 422 2 0 6.439098151276193 -6.997944054312707 -6.877766309260802 0 1 1
1766 422 4 0 6.187552242037887 -6.992355576162497 -6.5292669831796655 0 1 1
1744 415 4 0 5.39998241541144 -7.9725556114148945 -7.837482293983297 0 0 0
1743 415 2 0 5.661975236159833 -8.245936225885451 -7.6135687545243895 0 0 0
1765 422 4 0 6.716462207689707 -7.015431965345217 -7.2579833840099965 0 1 1
867 174 3 0 7.31860112281608 -7.749834234305886 -7.527844635365051 1 1 0
866 174 1 0 7.324118128998618 -7.3348641909908086 -7.6910392593999015 1 1 0
868 174 3 0 7.757477891290616 -7.178528532522715 -7.681421684974365 1 1 0
870 174 3 0 7.065998056028528 -7.070236026453467 -7.437159902197291 1 1 0
869 174 3 0 7.168829392381392 -7.338918609413455 -8.129181333082347 1 1 0
1069 214 3 0 8.321804223130336 -7.571783056978073 -7.79021370470912 0 2 1
1295 265 4 0 -0.9592674861623527 -6.461107443429888 -7.7208738193309925 1 0 0
1293 265 2 0 -1.0190306915487053 -6.056572339929904 -7.493161460265599 1 0 0
1294 265 4 0 -1.0729788129609696 -5.674781554183014 -7.271329088027805 1 0 0
9 2 3 0 -1.1484188828338935 -5.305882504877811 -7.393322811827661 1 1 0
481 97 1 0 0.4955349379890581 -6.813027310818735 -7.307966897823431 1 0 1
484 97 3 0 0.3252106771893377 -6.4316644867168185 -7.1702094558728655 1 0 1
485 97 3 0 0.6092899081537375 -6.774552704269514 -7.72697882515061 1 0 1
482 97 3 0 0.8732986697058109 -6.9149043663078995 -7.051016940781943 1 0 1
435 87 3 0 1.67574993832552 -6.005067437013404 -7.437350167268325 -1 0 1
431 87 1 0 1.5710508468332307 -6.434118919010331 -7.506079673602187 -1 0 1
433 87 3 0 1.8044041946637073 -6.589721747886208 -7.840771666994032 -1 0 1
1285 262 4 0 1.9606239575084015 -6.554283857667607 -8.227605654634335 1 -1 0
1898 466 4 0 -1.628577057675587 -1.2979495710627207 -3.4165719863629693 1 0 1
809 162 3 0 3.662712174612432 -5.757410345081636 -8.228813669000314 -2 0 0
1670 390 4 0 5.698447796662647 -4.860835210217942 -6.699126116367284 0 0 0
1963 488 4 0 7.310771146870838 -5.301634791942185 -7.962929958933416 -1 0 1
10 2 3 0 -1.8439449799838314 -5.08414538573485 -7.44872759429821 1 1 0
6 2 1 0 -1.4356910491583683 -4.966834666125017 -7.312000484129292 1 1 0
7 2 3 0 -1.4423377929850085 -4.865821191844189 -6.843837726817181 1 1 0
8 2 3 0 -1.3024935956726065 -4.609006295185228 -7.535187842299174 1 1 0
1531 344 4 0 -1.3842696292697267 -4.261063825305568 -7.757406988360983 1 0 1
1530 344 2 0 -1.4807839355442054 -4.269570696595256 -8.186912419404948 1 0 1
1032 207 3 0 2.0700918372140134 -4.233718686495557 -8.233938434576336 1 1 1
282 57 3 0 4.949005956082015 -3.8727440772984325 -7.919333425512499 -1 -1 0
1352 284 4 0 5.111612987460681 -3.5228866054392247 -7.869987502734347 1 1 0
284 57 3 0 5.152942722271202 -4.5372394170835175 -7.663853371493079 -1 -1 0
119 24 3 0 -2.534441246522345 -1.8454900820547726 -3.2111561458644236 2 -1 0
1669 390 4 0 5.115996569044857 -4.876447825432605 -7.4375899252559226 0 0 0
1668 390 2 0 5.404024475337362 -4.869395514437276 -7.077189214584344 0 0 0
281 57 1 0 5.162521645777627 -4.26863691805966 -8.02216285901373 -1 -1 0
283 57 3 0 5.597562000323553 -4.177132089705054 -8.13032333722706 -1 -1 0
1383 295 2 0 -7.662509932727596 -2.899648344481319 -7.9442564873500485 0 -1 0
1384 295 4 0 -8.046641069369386 -2.7519388379178364 -7.743946943797269 0 -1 0
673 135 3 0 -8.328915861094687 -2.58708843085605 -7.521399103712139 1 0 -1
1385 295 4 0 -7.251535751111677 -3.0491789276197503 -8.159952191318897 0 -1 0
1447 316 4 0 5.969165458453304 -1.973054744114533 -4.258014608786832 0 0 0
1693 398 4 0 -5.217626581347297 -1.9383211029083842 -6.667899319873286 2 0 0
1628 376 4 0 -0.8459767773366051 -8.301243134156735 -3.4237888485720633 0 0 0
1692 398 2 0 -5.133934302680718 -1.8458962889971993 -7.104505862658224 2 0 0
796 160 1 0 -4.343998801012546 -1.8706013707692888 -7.870592902761476 -1 1 1
800 160 3 0 -4.7033467778855975 -1.6983013481018148 -7.68701713919275 -1 1 1
797 160 3 0 -4.449073135738766 -2.230030095455745 -8.107184400794814 -1 1 1
798 160 3 0 -4.0622174561232045 -1.9849547119747868 -7.553242714718502 -1 1 1
1694 398 4 0 -5.062211614306614 -1.7537197239980005 -7.536936346934118 2 0 0
1477 326 4 0 -2.62109773536109 -1.956165102202097 -6.651311698337403 0 -1 1
613 123 3 0 4.701446739612106 -2.233700098471801 -7.933900507093646 0 0 0
1350 284 2 0 4.84622036439162 -3.195305034782484 -8.040551775838956 1 1 0
1351 284 4 0 4.579136608307383 -2.860004601652448 -8.220521222951156 1 1 0
611 123 1 0 4.461636212289886 -2.214468780222881 -8.311992175697911 0 0 0
190 38 3 0 5.8767328825063405 -2.048947840449646 -4.65798139407341 -1 -1 0
675 135 3 0 8.312703329275447 -1.918251734136291 -7.248576234068185 0 0 -1
671 135 1 0 8.085202447900425 -2.2952096091177108 -7.351741256645804 0 0 -1
674 135 3 0 7.766834484842679 -2.1931955790619355 -7.656067757072345 0 0 -1
672 135 3 0 7.890173476327494 -2.4606900646932397 -6.984280334861195 0 0 -1
825 165 3 0 -7.069587483930347 -0.3145828894563678 -7.376796291519443 0 1 0
821 165 1 0 -7.355444361670418 -0.48958206203100385 -7.045162181439923 0 1 0
824 165 3 0 -7.6513963688768465 -0.7576314850997035 -7.245774169633614 0 1 0
823 165 3 0 -7.088972898153614 -0.7482389398089753 -6.738476484403881 0 1 0
1759 420 4 0 -7.882744251914885 -0.5422713930075567 -7.5342189679511655 0 0 0
1367 289 4 0 -7.076989032551821 -0.16332819753765015 -7.761682356094192 0 0 -1
822 165 3 0 -7.550755392292967 -0.18054520414036723 -6.833262546316819 0 1 0
1758 420 2 0 -8.292432051481633 -0.7259218728789074 -7.590075051014622 0 0 0
1588 363 4 0 -6.810856176485706 -1.0143375862172448 -6.700328890141529 1 0 0
1587 363 2 0 -6.352038907411983 -1.050898997976394 -6.662497871482318 1 0 0
1589 363 4 0 -5.893979642221817 -1.0947761396025388 -6.629111126830293 1 0 0
1476 326 2 0 -2.6977808715187823 -1.5455335271675503 -6.788176799611231 0 -1 1
525 105 3 0 -3.116199386809054 -1.0202723073711262 -7.104124854747108 0 0 2
521 105 1 0 -3.1000627216529155 -0.622289073978501 -7.330895082689707 0 0 2
523 105 3 0 -3.483919385325171 -0.45532265401496375 -7.358188728220123 0 0 2
522 105 3 0 -2.8124413174876297 -0.32573930173239063 -7.10631182926434 0 0 2
1478 326 4 0 -2.7793902911915236 -1.1258552317888606 -6.931496748883025 0 -1 1
524 105 3 0 -2.948647276567491 -0.684524123607722 -7.718346569087454 0 0 2
1412 304 4 0 -3.572642136384312 -0.09184807469592471 -7.497128805894329 0 0 0
1715 405 4 0 -2.7545350751938233 -0.39883702388697095 -7.954533212901331 0 0 0
1713 405 2 0 -2.2863418535679285 -0.31486976420420554 -8.019742474719445 0 0 0
1714 405 4 0 -1.83979009644957 -0.2409804493580996 -8.076353555389618 0 0 0
839 168 3 0 -1.4725122339604582 -0.7037141906261537 -6.575134292284428 -1 1 1
204 41 3 0 4.201614109115932 -0.8233451645787984 -7.423756120547494 1 0 0
205 41 3 0 4.847653788478523 -0.4320022724728956 -7.4561975524200825 1 0 0
755 151 3 0 1.3248399002171372 -0.01131779210881767 -7.983047449544573 0 0 1
201 41 1 0 4.398643467591725 -0.47939102602487793 -7.625566597661415 1 0 0
202 41 3 0 4.412570728234607 -0.555917706394812 -8.088337403313737 1 0 0
912 183 3 0 4.213292771259487 -1.448543583190026 -6.763945628001935 0 0 0
203 41 3 0 4.179248550306523 -0.1365600342478217 -7.549307061920715 1 0 0
149 30 3 0 6.994614133615848 -0.7184484195111889 -7.650367153823384 -1 0 0
1741 414 4 0 6.895061342566024 -0.6230977179379869 -7.287392394637164 -1 1 0
1740 414 2 0 7.078405097732356 -0.5204908101185488 -6.866639067472188 -1 1 0
1760 420 4 0 8.000433938426234 -0.9003317837991807 -7.63748268757821 -1 0 0
148 30 3 0 7.709876780173271 -0.7979339050380609 -7.891154531647483 -1 0 0
146 30 1 0 7.3124466148396365 -0.571994586103088 -7.9542007725959545 -1 0 0
1365 289 2 0 -6.732139630033546 -0.015343009232108074 -8.056576978832236 0 0 -1
396 80 1 0 -8.26495828071743 -7.238743069780866 -6.4073986143318455 1 0 0
400 80 3 0 -7.9254832957307055 -6.9556565459240804 -6.354649815687593 1 0 0
1955 485 4 0 -7.650898989599191 -6.691973162084039 -6.49911117814869 0 1 1
1953 485 2 0 -7.351153748796083 -6.497855511112639 -6.207872225676492 0 1 1
553 111 3 0 -3.1680607647197485 -8.092418460346217 -6.655752513247187 0 0 1
72 15 3 0 -3.5774799791751866 -6.698659138464454 -6.52975940615598 0 0 0
1481 327 4 0 -2.264637884591383 -7.998982414712922 -4.692827915576716 0 1 1
619 124 3 0 -1.9489036254336263 -6.999771670950831 -5.285589421191245 0 0 0
1479 327 2 0 -2.1203714759902486 -7.696831492307055 -4.972531537507695 0 1 1
1480 327 4 0 -1.9754234914097033 -7.40336563928393 -5.250152265020509 0 1 1
1665 389 2 0 -1.6594101278746738 -6.999909451581099 -6.59578739112833 1 0 0
620 124 3 0 -1.5408738284527566 -6.7441319271295255 -5.822457684578811 0 0 0
1666 389 4 0 -1.7242135450457328 -6.798833297972867 -6.183095610926664 1 0 0
262 53 3 0 3.5378928674925945 -8.246210881652896 -6.231945590443272 -1 1 -1
1338 280 2 0 2.96512665395138 -7.091642205111378 -5.568594778745279 0 0 0
261 53 1 0 3.6739539057534003 -7.909758278574412 -5.981712029103279 -1 1 -1
1340 280 4 0 3.260653370719478 -7.4144201410683594 -5.544406000615126 0 0 0
265 53 3 0 3.3253129263989614 -7.627054346251985 -5.89495728127674 -1 1 -1
1339 280 4 0 2.650543024693471 -6.7377739113668 -5.589913914877203 0 0 0
263 53 3 0 3.828918951530575 -8.05483281745155 -5.621968030778966 -1 1 -1
1678 393 4 0 4.166564597683326 -8.302992637307742 -5.699188509411727 -1 1 0
264 53 3 0 4.001284348782907 -7.6883119653562755 -6.204349533158911 -1 1 -1
1962 488 2 0 7.118001833224234 -4.993856503517002 -8.216170318849516 -1 0 1
1810 437 4 0 4.385419781175701 -7.622456409660063 -6.173897793501033 0 0 1
1809 437 2 0 4.754851513532527 -7.3995745899580925 -6.043326769542772 0 0 1
1811 437 4 0 5.140415708216221 -7.168229026633643 -5.909271071785177 0 0 1
49 10 3 0 6.027913815458103 -6.806769972159517 -6.209213103124202 0 1 -1
1983 495 2 0 5.889349755453242 -7.7665186916823075 -5.029951975997653 0 1 1
1984 495 4 0 5.976920753079883 -7.435251648468053 -5.35311392883909 0 1 1
1985 495 4 0 5.815442563017989 -8.096263153858278 -4.714457558961783 0 1 1
50 10 3 0 5.46522730054453 -6.964110636224583 -5.799340747850147 0 1 -1
47 10 3 0 6.0689917934036846 -7.357883515958594 -5.7474486001496 0 1 -1
46 10 1 0 5.904263124272152 -6.950004290378741 -5.815136489316325 0 1 -1
1303 268 4 0 5.878370058685476 -6.4006011699364445 -5.227904021720695 0 0 0
398 80 3 0 8.178609987752079 -7.249374129020964 -6.0441242777241495 0 0 0
1954 485 4 0 -7.067403596030683 -6.311241090150528 -5.924934896281041 0 1 1
1874 458 4 0 -6.3232683541449335 -5.307348505512901 -5.194765570517851 1 0 0
100 20 3 0 -6.354353573648647 -5.6404263106727495 -5.383817449871272 0 0 -1
97 20 3 0 -6.552523435448355 -6.351828777571721 -5.241889035383677 0 0 -1
99 20 3 0 -6.827340031204134 -5.997826998435125 -5.836393454115273 0 0 -1
96 20 1 0 -6.462638531165771 -6.047093427114799 -5.577516326924023 0 0 -1
98 20 3 0 -6.097672171273065 -6.198244048411643 -5.843364596362648 0 0 -1
1709 403 4 0 -5.854055889869194 -6.5315769983632705 -5.853307561663319 1 1 0
1707 403 2 0 -5.398388907176216 -6.50326997598965 -5.819195499410737 1 1 0
1378 293 4 0 -4.775824870628747 -6.146593358023004 -5.962679816238443 0 1 0
1377 293 2 0 -4.379372791929256 -6.1714698764858955 -5.824433244334089 0 1 0
1708 403 4 0 -4.939254370394563 -6.48000371509194 -5.790814792698729 1 1 0
1379 293 4 0 -3.965471106460175 -6.196414295717648 -5.691016251337159 0 1 0
73 15 3 0 -3.1542004142439612 -6.924884277967078 -5.973936128490431 0 0 0
75 15 3 0 -3.7087682450470254 -6.462575167834123 -5.876647031253934 0 0 0
74 15 3 0 -3.1336973055144535 -6.21575289988293 -6.22469289989528 0 0 0
71 15 1 0 -3.3995424202007385 -6.572599075815992 -6.152515149797282 0 0 0
618 124 3 0 -1.274405791392752 -6.78384877810976 -5.1201733535379415 0 0 0
616 124 1 0 -1.6474492005065517 -6.7107561244780145 -5.380858607177815 0 0 0
617 124 3 0 -1.8047644833360899 -6.302119236371591 -5.302856862527442 0 0 0
1861 454 4 0 -1.7029813660069655 -5.912082735769587 -5.304532630554071 1 0 -1
1860 454 2 0 -1.5604430052644798 -5.5411963719275095 -5.100189497101423 1 0 -1
1862 454 4 0 -1.4189980941010738 -5.186507079666995 -4.8929335130046345 1 0 -1
93 19 3 0 1.5267384035599392 -5.273452420501151 -4.824225184444832 0 -1 -2
94 19 3 0 0.8315433986828076 -4.9882325499696964 -4.715643922573806 0 -1 -2
942 189 3 0 2.505783849939382 -5.628707967225278 -5.358952285684845 0 1 1
945 189 3 0 2.567682032427358 -6.374442315970089 -5.437958449826935 0 1 1
943 189 3 0 2.664715534547277 -5.952048805447713 -6.019582629849348 0 1 1
941 189 1 0 2.723824029788272 -5.989100025274402 -5.577355562540771 0 1 1
944 189 3 0 3.1547109632796193 -5.978433088691538 -5.495681856483165 0 1 1
1916 472 4 0 3.3772462831332923 -6.098290397432466 -5.171331894124351 0 1 1
1914 472 2 0 3.7366258041627436 -6.249255848682543 -4.926859311991122 0 1 1
48 10 3 0 6.048194588856127 -6.66347335751288 -5.492916587475575 0 1 -1
1304 268 4 0 5.430224435129302 -6.5432984779281025 -4.465178006140805 0 0 0
1302 268 2 0 5.652506940784379 -6.471192097467113 -4.841444847145599 0 0 0
937 188 3 0 6.082333856409019 -4.901720989458131 -5.703245334956283 -1 0 1
694 139 3 0 -7.510504176715465 -3.8879889010271977 -5.115677076194967 -1 0 0
691 139 1 0 -7.155844315714297 -3.984260783534152 -4.863938960663402 -1 0 0
1868 456 4 0 -7.684616988309236 -3.6388726523122203 -5.3831610571562365 1 0 0
693 139 3 0 -7.277585652906601 -4.244247237199203 -4.5204751971079205 -1 0 0
1872 458 2 0 -6.510891215206909 -4.885404522191507 -5.26251738487631 1 0 0
1873 458 4 0 -6.688052769164828 -4.4914232448025455 -5.32720531202571 1 0 0
695 139 3 0 -6.852973628266279 -4.212092891779332 -5.10713051755048 -1 0 0
32 7 3 0 -1.2513914364510894 -4.820818267498975 -4.856967567893293 0 0 1
34 7 3 0 -1.0983141206968634 -4.146368288300405 -4.571226305108251 0 0 1
1747 416 4 0 0.5550007293064869 -4.913904924146552 -5.02969159435037 0 1 0
1746 416 2 0 0.20002738272260956 -4.691488144240777 -4.940391167762764 0 1 0
216 44 1 0 4.20234600898643 -4.023698974859496 -4.519485031042012 -1 0 0
218 44 3 0 3.988502423705997 -3.8616188121706188 -4.897963560846338 -1 0 0
1712 404 4 0 4.5649716233004405 -3.4131416125641048 -4.644776469804634 0 1 0
940 188 3 0 5.893228618443208 -4.252648741355252 -6.082336069953013 -1 0 1
938 188 3 0 6.369486394136148 -4.763282553401007 -6.3782915088578855 -1 0 1
936 188 1 0 6.003566767452597 -4.721640879613143 -6.125179995347187 -1 0 1
939 188 3 0 5.665327884285642 -4.931634924151139 -6.317391943058499 -1 0 1
768 154 3 0 -7.402258370600742 -2.55899615563198 -6.386844286312674 1 -1 0
767 154 3 0 -7.800727512217263 -1.9089435060698152 -6.274931446431261 1 -1 0
1866 456 2 0 -7.630315133360396 -3.246100418462736 -5.567733051139121 1 0 0
770 154 3 0 -7.72919905321991 -2.4665923486832018 -5.7499686114966755 1 -1 0
766 154 1 0 -7.516242631540428 -2.2585069227260677 -6.072418381484594 1 -1 0
1867 456 4 0 -7.581331825759458 -2.8386500611196253 -5.760399022171412 1 0 0
769 154 3 0 -7.138283522854585 -2.0717893490692214 -5.902174545633687 1 -1 0
1405 302 4 0 -6.758500441572275 -2.221203619121181 -5.98774711055186 0 0 0
1406 302 4 0 -6.000128485623202 -1.835360952265833 -5.7384883345449405 0 0 0
1404 302 2 0 -6.3882458495067596 -2.031728390966137 -5.8656677869083165 0 0 0
967 194 3 0 -5.724365014985507 -1.5586874273406437 -5.719631118402282 0 1 -1
1173 235 3 0 -2.5871177464723996 -2.2247695242276597 -6.339265386510479 0 1 2
1174 235 3 0 -2.320101240400936 -2.9450116959925428 -6.289872375216527 0 1 2
1171 235 1 0 -2.4490932980747377 -2.571614268852371 -6.046962749867185 0 1 2
1175 235 3 0 -2.790645526777074 -2.6746332933811265 -5.76468593086252 0 1 2
1172 235 3 0 -2.081755901209407 -2.4168832480943037 -5.786667836740108 0 1 2
1468 323 4 0 -1.2944863431761533 -2.2864624783368983 -4.862082280578296 0 -1 0
1469 323 4 0 -2.084334387488667 -2.4809212136187657 -5.368406112709926 0 -1 0
1467 323 2 0 -1.6984747924605506 -2.384022666648838 -5.122107576810163 0 -1 0
1710 404 2 0 4.855439901649191 -3.113186782527806 -4.7604210578793555 0 1 0
1826 442 4 0 5.319349269476859 -2.1897280384644473 -5.568769874573574 -1 0 0
1824 442 2 0 5.022547286326496 -1.8468840514789866 -5.686869997611372 -1 0 0
189 38 3 0 5.503214872379328 -2.6960322297389965 -4.662873863064695 -1 -1 0
188 38 3 0 5.371797044053938 -2.1611937669977097 -5.176524006737662 -1 -1 0
187 38 3 0 6.002588143269614 -2.525691139929232 -5.174963753031847 -1 -1 0
186 38 1 0 5.696405515680551 -2.3551462001969945 -4.922047206415643 -1 -1 0
1711 404 4 0 5.168126492870709 -2.7817164788560707 -4.883135441527808 0 1 0
1931 477 4 0 -7.971195969618706 -1.5943005738934222 -6.111835424741409 0 1 1
1929 477 2 0 -8.196990205572215 -1.235784212690712 -5.969992615416469 0 1 1
966 194 1 0 -5.463217001319581 -1.472941944280505 -6.071035174736581 0 1 -1
969 194 3 0 -5.653401182887823 -1.1428361050811686 -6.319985494145898 0 1 -1
968 194 3 0 -5.426449990123939 -1.8325318561835529 -6.311128912188178 0 1 -1
970 194 3 0 -5.067025169894277 -1.347728025458637 -5.937728791874764 0 1 -1
840 168 3 0 -1.6360004124720469 -0.0768651738905266 -6.24042141463785 -1 1 1
1348 283 4 0 5.702020578244749 -3.2227793741395327 -2.962079411178985 -1 1 1
1638 380 2 0 -1.311966774612526 -0.27976707013712243 -5.182191132749207 0 0 0
837 168 3 0 -2.13455092004102 -0.6128346249320664 -6.274608850413127 -1 1 1
836 168 1 0 -1.6924426833064885 -0.5151231363638837 -6.23673650253753 -1 1 1
1640 380 4 0 -1.3722327239464818 -0.6241235311852122 -5.493930996372744 0 0 0
838 168 3 0 -1.5389124335360211 -0.6725934461772809 -5.846893603068212 -1 1 1
913 183 3 0 3.972051955919314 -1.0121304351465872 -6.2043501879490135 0 0 0
915 183 3 0 4.591529201494666 -0.8429812286356864 -6.563977313158538 0 0 0
1825 442 4 0 4.744284737941468 -1.5293174670066332 -5.802800986571162 -1 0 0
911 183 1 0 4.350320004455776 -1.1819398352057826 -6.4142571556221535 0 0 0
914 183 3 0 4.603507593083805 -1.436663211970159 -6.117326416903585 0 0 0
1494 332 2 0 6.650410387096377 -0.13999167209321683 -5.26639389609063 0 -1 0
1742 414 4 0 7.2699154269458255 -0.42907757175210914 -6.447811897853111 -1 1 0
1896 466 2 0 -1.413680694794932 -0.9369616117046249 -3.578824017264142 1 0 1
1930 477 4 0 8.261636202085821 -0.8640222606232566 -5.81094278266996 -1 1 1
1220 244 3 0 7.382314386595004 -0.327073903850275 -6.0763341833271145 -1 0 -1
1496 332 4 0 7.012880356770628 -0.39635916876619603 -5.289743318329359 0 -1 0
1218 244 3 0 7.408390815506252 -0.2896200168515968 -5.33050769775325 -1 0 -1
1216 244 1 0 7.657723025846035 -0.31576401367829554 -5.692927733963269 -1 0 -1
1217 244 3 0 7.911813380622416 -0.6991342853340141 -5.673288249252409 -1 0 -1
448 90 3 0 -0.7060540208831698 -7.996750506662595 -3.6205723084383346 1 -1 -1
450 90 3 0 -1.4120371736687618 -7.811585417231357 -3.6532684649163514 1 -1 -1
447 90 3 0 -0.9080284038242494 -7.331005261559849 -3.8185391488516913 1 -1 -1
446 90 1 0 -1.0113094828146263 -7.668618837591265 -3.55727462372759 1 -1 -1
449 90 3 0 -1.0026198398782125 -7.52983454227605 -3.131536618253138 1 -1 -1
1344 282 2 0 2.0452698435541556 -6.9460246085894415 -2.8346525213060616 0 0 0
663 133 3 0 2.6857891581896993 -6.855216118078001 -3.2001737450715053 1 1 1
661 133 1 0 3.127102736401966 -6.822445472941605 -3.1303903315178294 1 1 1
662 133 3 0 3.2782404588450493 -7.204647916764582 -2.9455826616163403 1 1 1
1345 282 4 0 2.3992125420860706 -7.129180845101634 -3.0607882322047866 0 0 0
1897 466 4 0 -1.2047831685412769 -0.5739049649740249 -3.735580885229072 1 0 1
976 196 1 0 5.047507519436303 -8.30182886209295 -4.344475990982528 0 1 0
980 196 3 0 4.83619508396467 -7.926040745255219 -4.27059474374061 0 1 0
1641 381 2 0 4.805218960234864 -7.300000780861669 -3.8475001094894274 -1 1 -1
1642 381 4 0 4.876801625523175 -7.734648290170555 -3.9118812455721814 -1 1 -1
1643 381 4 0 4.721830597395789 -6.868084971804335 -3.798636473343067 -1 1 -1
979 196 3 0 5.4850477040797045 -8.211227241829786 -4.481809430659225 0 1 0
1376 292 4 0 1.0245875186275395 -5.462706057849608 -3.7791209321579338 0 0 0
1374 292 2 0 1.0347151953017768 -5.57938288604572 -3.318503217519223 0 0 0
1375 292 4 0 1.054161468453021 -5.69350825961204 -2.885824632504062 0 0 0
1256 252 4 0 -1.349770128047724 -7.486405197310516 -2.9388622515826546 -1 0 0
92 19 3 0 1.1743247188787933 -5.370079709574567 -4.167250224310562 0 -1 -2
91 19 1 0 1.2434840009511738 -5.078345877302979 -4.511899210032853 0 -1 -2
665 133 3 0 3.3346011463507903 -6.7515958225239245 -3.5318797222275418 1 1 1
664 133 3 0 3.2089406773351126 -6.463475029843004 -2.855137142311442 1 1 1
1208 242 3 0 2.995522772925339 -5.134699929443888 -2.8360481510389395 0 0 0
1108 222 3 0 5.060003805943316 -6.423607361707751 -4.515483732400783 -1 1 1
1915 472 4 0 4.102087733545844 -6.394137108435458 -4.683997818418433 0 1 1
1107 222 3 0 4.397259274552521 -6.147478043117463 -4.5590884997333845 -1 1 1
1106 222 1 0 4.7266196503301785 -6.2447850038483494 -4.2842828975450615 -1 1 1
1110 222 3 0 4.589186683358564 -6.547422757169717 -3.983203833613752 -1 1 1
1109 222 3 0 4.875232782279447 -5.879154203898135 -4.07447432927054 -1 1 1
1561 354 4 0 5.218134088936999 -5.85886193393712 -3.859265622011476 0 1 0
1560 354 2 0 5.427567672774504 -5.582620676929912 -3.567643562065731 0 1 0
1562 354 4 0 5.656608466335044 -5.291175732400481 -3.2667958569611173 0 1 0
692 139 3 0 -6.965659991890646 -3.604957521674856 -4.699572598570848 -1 0 0
35 7 3 0 -0.8398204062467709 -4.754333762280805 -4.248614219741843 0 0 1
31 7 1 0 -0.9365766426861386 -4.562656224143105 -4.638063724293318 0 0 1
33 7 3 0 -0.5678485268180715 -4.535072700903461 -4.893226189933709 0 0 1
1748 416 4 0 -0.16722634545506487 -4.462342206035588 -4.843901020088283 0 1 0
95 19 3 0 1.4201747078307552 -4.69754669049299 -4.354833606835813 0 -1 -2
217 44 3 0 3.917932373111306 -4.060697730440396 -4.19076553013782 -1 0 0
1570 357 4 0 3.5505351669748357 -4.158956006531729 -4.381705428306328 0 0 1
1209 242 3 0 3.0773969546667637 -4.397872083033543 -2.9149631143503036 0 0 0
1206 242 1 0 3.1954575016183764 -4.806807926654727 -3.0721512386888747 0 0 0
1571 357 4 0 2.993117268028051 -4.634865790905488 -3.837761176681643 0 0 1
1210 242 3 0 3.075626168257555 -4.835944637010249 -3.5091814545953994 0 0 0
1569 357 2 0 3.2675196197172927 -4.400468877368127 -4.108593276542197 0 0 1
1207 242 3 0 3.6268965894330094 -4.859579944426931 -3.042489317329202 0 0 0
219 44 3 0 4.523248555398057 -3.7306181300922363 -4.398672097160945 -1 0 0
1489 330 4 0 3.9408085474549672 -5.107565397937583 -2.943479311892876 0 0 1
220 44 3 0 4.39662005466262 -4.41885070007239 -4.5983460815836725 -1 0 0
1349 283 4 0 5.46315821166565 -4.073106760477574 -3.0651120683890305 -1 1 1
184 37 3 0 5.945267921281056 -5.0454654633365985 -3.0899885791478034 0 1 0
185 37 3 0 5.699629986765936 -4.379576558944107 -3.188294048955708 0 1 0
183 37 3 0 6.060354061327889 -4.694091099529115 -3.713063682425064 0 1 0
181 37 1 0 6.0212680094311 -4.64675546648853 -3.273420190830068 0 1 0
182 37 3 0 6.392480001607822 -4.481841627064894 -3.117671906549459 0 1 0
1347 283 2 0 5.5898820506974936 -3.6395796770790394 -3.00881952359693 -1 1 1
118 24 3 0 -2.2735028792966308 -1.6341382029649045 -3.880980165187532 2 -1 0
117 24 3 0 -2.0295727554141294 -2.2644951786710497 -3.588408417327118 2 -1 0
116 24 1 0 -2.1632874941327493 -1.8386116399653156 -3.5016304207171984 2 -1 0
1448 316 4 0 5.621272200268145 -2.1836709720579295 -3.4475015842102774 0 0 0
1446 316 2 0 5.791686685338053 -2.080612748466466 -3.84661715766506 0 0 0
1028 206 3 0 5.8577083797172325 -2.318804982901481 -3.1867884867583305 -1 1 0
147 30 3 0 7.380219156107351 -0.11776268264005019 -7.880834052866817 -1 0 0
338 68 3 0 -4.15982847818169 -7.2368870911264995 -8.275433698193506 1 0 1
1687 396 4 0 3.801327596682478 -6.529679162250461 -8.279013482349107 0 0 0
438 88 3 0 -6.31040774859915 -6.905842858816711 -1.1868374640018882 0 0 0
255 51 3 0 -2.5593105340668902 -7.22789628380251 -1.4115872684653876 0 -1 1
254 51 3 0 -2.14802376017464 -6.635205949820231 -1.5878581788832644 0 -1 1
1255 252 4 0 -1.8992806389960588 -7.487456136786121 -2.2601918763097917 -1 0 0
252 51 3 0 -2.03644470415474 -7.276606013460232 -1.923202243294985 0 -1 1
1254 252 2 0 -1.6321638889701635 -7.4873389798675385 -2.593028381982986 -1 0 0
251 51 1 0 -2.143876401427522 -7.08868141157949 -1.5400639237845661 0 -1 1
253 51 3 0 -1.8379169377616948 -7.206411447097785 -1.2242210807796265 0 -1 1
1391 297 4 0 -1.7227304196763704 -7.315452831994903 -0.8140577082349143 1 0 0
923 185 3 0 7.77072912854992 -1.6682545968406393 2.4744384602682423 0 -1 0
1773 425 2 0 0.4908824123738249 -7.427116080662483 -1.2990294495126191 -1 1 1
1774 425 4 0 0.5892308362586647 -7.3721459831698475 -1.7610422547256794 -1 1 1
1346 282 4 0 1.695030687682948 -6.761064681500971 -2.611688721472662 0 0 0
23 5 3 0 1.4391400767682754 -6.471070011115093 -2.502727681857987 -1 1 0
439 88 3 0 -6.903355074828394 -6.6177815843103724 -1.519050484009635 0 0 0
440 88 3 0 -6.338915329915729 -6.176859338358419 -1.3326272024508103 0 0 0
436 88 1 0 -6.584020162928035 -6.543150201404301 -1.2092947414942508 0 0 0
1169 234 3 0 -2.772428746078999 -5.32553427883443 -1.811100758763759 0 0 1
1566 356 2 0 -2.2049433447324196 -5.877583042263091 -1.814045127855298 0 0 1
1568 356 4 0 -2.417533567666875 -5.5041777762705655 -1.9182406522665802 0 0 1
1167 234 3 0 -3.140309347847956 -5.29179357317509 -1.1249454742121197 0 0 1
1592 364 4 0 -2.799288037828899 -5.259043998529526 -0.9146193457403662 0 0 0
1170 234 3 0 -3.3870029063163862 -4.894482036600267 -1.694237810056225 0 0 1
1166 234 1 0 -3.0268242469456093 -5.042986409014912 -1.5068945519723833 0 0 1
1567 356 4 0 -1.9860118435887424 -6.279646651722907 -1.705519622930053 0 0 1
462 93 3 0 -1.06781297593783 -5.739605216751287 -0.444051917500647 -1 1 0
24 5 3 0 0.7830469293721425 -6.53046283300166 -2.1537430958625414 -1 1 0
1422 308 2 0 0.14358876756343264 -5.246380168388857 -1.0999264681319882 0 0 0
1423 308 4 0 0.5111011871245914 -4.963850428847614 -1.0816519370433832 0 0 0
1618 373 4 0 1.5102651093653332 -6.038772056196735 -1.8435971996893326 0 0 0
1617 373 2 0 1.6153768627472846 -5.635044899835667 -1.6080391793292748 0 0 0
1619 373 4 0 1.716694783060614 -5.243013435729543 -1.3705792151409586 0 0 0
22 5 3 0 1.222714812605389 -5.897168280927606 -2.0416439269579616 -1 1 0
85 17 3 0 1.4774907451378105 -4.952036246609675 -1.2315938431951308 1 1 0
21 5 1 0 1.0937266345039625 -6.2416150195483375 -2.354544213957543 -1 1 0
82 17 3 0 0.8273753261475747 -4.801328423272992 -0.9427904901248034 1 1 0
81 17 1 0 1.2950831868034687 -4.728417917507723 -0.9325462361035255 1 1 0
504 101 3 0 2.3198490387259607 -5.764914696189541 -1.0534123962778432 0 -1 1
1559 353 4 0 2.7405008339863866 -5.384211409833483 -2.6371631573213214 -1 1 1
503 101 3 0 3.0287786739325906 -5.802383940173475 -1.2184539054218941 0 -1 1
1558 353 4 0 3.095708755556508 -6.148130161938355 -2.6109421913623976 -1 1 1
501 101 1 0 2.6957288083816096 -5.889037774173644 -0.8995129653162897 0 -1 1
1557 353 2 0 2.9153553738928917 -5.754986473592755 -2.6182659649906688 -1 1 1
1168 234 3 0 -2.7615616417707676 -4.68824574088359 -1.3822183005381161 0 0 1
1945 482 4 0 -2.554109920945595 -4.407674047741818 -1.1814371425127517 1 1 0
1944 482 2 0 -2.3941414009149957 -4.006090228001427 -1.0732077963171243 1 1 0
1981 494 4 0 -1.0827263695313292 -3.341051495491884 -1.6987758684880614 0 1 0