LAMMPS data file via write_data, version 4 Feb 2025, timestep = 8500000, units = lj

4650 atoms
4 atom types
3150 bonds
1 bond types
1875 angles
2 angle types

-11.917153 11.917153 xlo xhi
-11.917153 11.917153 ylo yhi
-11.917153 11.917153 zlo zhi

Masses

1 1
2 1
3 0.1
4 0.1

Bond Coeffs # harmonic/omp

1 100 0.45

Angle Coeffs # harmonic/omp

1 100 180
2 100 109.471

Atoms # full

2363 738 4 0 -3.2401200186498076 -11.508739861079611 -11.892415161851115 0 1 1
2466 772 4 0 -11.261115011992143 -0.059405285829281236 -0.6368495450413303 0 0 0
4540 1464 2 0 -0.17079607182220816 -11.77612221543001 -10.64720970792226 0 1 1
2452 768 2 0 -0.10637464059471252 -10.696341702285943 -11.702865704433133 0 1 1
4136 1329 4 0 -11.627207071974132 -0.022527291119748317 -0.7735185317970624 1 0 0
246 50 1 0 -0.06700141934266012 -11.884103881055928 -11.813465509822683 0 0 1
1913 588 4 0 -7.304253937400251 -9.673952809141044 -11.902442298600272 0 1 0
1874 575 4 0 -7.232155427398689 -9.262389600115378 -11.851857393385922 0 1 0
2898 916 4 0 -0.09493281677936034 -9.970907589936086 -11.255381978752213 0 0 0
2453 768 4 0 -0.10562546981453327 -10.305312282044756 -11.467446543678662 0 1 1
1873 575 2 0 -7.444806223102858 -8.871479476996543 -11.89337650867006 0 1 0
2418 756 4 0 -0.3778729476386524 -8.0859453248109 -11.6237390598 0 1 1
3256 1036 2 0 -11.595969765338198 -6.013000008871511 -11.825485572879089 1 0 1
3258 1036 4 0 -11.342742770613444 -5.616704245969929 -11.847858609670933 1 0 1
3279 1043 4 0 -11.004839768640785 -5.403014953022597 -11.80527890580188 1 0 1
1205 352 4 0 -7.727303199230247 -5.133411477834813 -10.919561348720636 0 0 1
1204 352 2 0 -8.043720971574219 -5.058927106913291 -10.560503258640328 0 0 1
868 240 2 0 -7.02717456346882 -4.691147590842686 -11.006383678949012 0 0 0
870 240 4 0 -7.455202074285114 -4.8216530248557445 -10.997438984432572 0 0 0
869 240 4 0 -6.641601083153862 -4.570821971067468 -11.016972250483615 0 0 0
3358 1070 2 0 -7.085374042166622 -3.1555390746103735 -11.71731802022667 1 0 1
1789 547 2 0 -6.342182656447747 -3.8596552268427575 -10.840638455420606 0 1 0
1790 547 4 0 -6.5090716054885425 -4.216798103693376 -11.05334975504691 0 1 0
1791 547 4 0 -6.171300723719645 -3.508552193697835 -10.630455818035879 0 1 0
3004 952 2 0 -3.4243868434591795 -11.886299045824881 -3.34702232808193 0 0 0
1742 531 4 0 -5.908704274503413 -3.249655293661767 -10.798080222618417 0 1 0
674 175 4 0 -7.7561564276807005 -3.0571794867677182 -11.267928163271863 0 0 0
673 175 2 0 -7.848444020083364 -2.6575165358075084 -11.048635734024005 0 0 0
675 175 4 0 -7.942069725721112 -2.2403601675146083 -10.81914717362537 0 0 0
1028 293 4 0 -7.684449777302266 -2.2825935692301424 -10.511564378560937 0 0 1
3359 1070 4 0 -7.440317026305519 -3.0198675930205012 -11.479820766461415 1 0 1
1741 531 2 0 -5.731306492479107 -2.8103302967110846 -10.822011623977566 0 1 0
1743 531 4 0 -5.579429952916755 -2.3964504339158488 -10.843943564193074 0 1 0
882 244 4 0 -5.477437779231599 -2.051246269489103 -10.99394644642556 0 0 0
880 244 2 0 -5.128626898104331 -1.867159531909468 -11.167469262457798 0 0 0
881 244 4 0 -4.752355477769214 -1.6744731393475978 -11.349801072732651 0 0 0
1151 334 4 0 -4.866016465488466 -1.294336643551255 -11.413946750679925 0 0 1
1150 334 2 0 -4.771118700086628 -0.9739099891196922 -11.74415293282705 0 0 1
4542 1464 4 0 -0.43488847603814745 -11.608740556976901 -10.26038826084427 0 1 1
4088 1313 4 0 -0.6057323191378445 -11.321661958546482 -10.059654947803 0 1 0
3794 1215 4 0 -0.2692068640325726 -11.50117694416924 -9.909442945415645 0 1 0
4087 1313 2 0 -0.8159585328653853 -10.98329542914608 -9.898268721991672 0 1 0
2276 709 4 0 -2.827038426762144 -0.18484268768612988 -0.6780884802416609 0 0 0
4089 1313 4 0 -1.0188100073089899 -10.649300547887925 -9.735547476857024 0 1 0
2777 876 4 0 -1.8329673556232176 -9.284573521912154 -9.443142027571398 0 0 0
1833 561 4 0 -1.5536981386152198 -9.509415365220779 -9.642049116693709 0 1 0
2776 876 2 0 -2.0060283618535193 -9.049913984781856 -9.104577093516985 0 0 0
1832 561 4 0 -1.0335773943448952 -10.292028955439113 -9.603535200432868 0 1 0
1831 561 2 0 -1.2984849127623534 -9.888260270636703 -9.624536274859828 0 1 0
1380 410 4 0 -8.891893707300452 -5.304555572338022 -9.12893630026149 0 0 0
1379 410 4 0 -8.55325011465088 -5.071207590674414 -9.912306201312955 0 0 0
1378 410 2 0 -8.714918312265821 -5.184164485827854 -9.544854063584502 0 0 0
1206 352 4 0 -8.336794827669703 -4.992742116414466 -10.220883450007916 0 0 1
1027 293 2 0 -7.533507029840997 -2.2246959314767234 -10.079667304675667 0 0 1
1029 293 4 0 -7.378644259938938 -2.1638895657217407 -9.659381199396629 0 0 1
2108 653 4 0 -7.567560934897782 -2.0940455581044595 -9.332449190856464 0 1 1
2107 653 2 0 -7.455427090296495 -1.825914919418253 -9.001070042162112 0 1 1
885 245 4 0 -6.466989432569433 -0.5970585021054808 -8.963062264934784 0 0 0
783 211 4 0 -4.389465444660239 -11.791072643632463 -7.551936870066352 0 0 0
569 140 4 0 -3.989490077073446 -11.722221727303308 -7.447569964787065 0 0 0
568 140 2 0 -3.5615662474201732 -11.793208934423856 -7.511643735463915 0 0 0
1356 402 4 0 -7.543829168949042 -8.769639569460702 -7.638025349453542 0 0 0
1354 402 2 0 -7.373783264406658 -8.343942803084142 -7.532328385610796 0 0 0
1355 402 4 0 -7.214315244429767 -7.917993950319439 -7.428491472130062 0 0 0
2570 807 4 0 -3.04678939599665 -7.853418715318786 -8.824866228061515 0 0 0
2568 806 4 0 -3.1395554063156035 -7.515273113647379 -8.657395771580314 0 0 0
2569 807 2 0 -2.7199584573592523 -8.151601385703719 -8.705493754954695 0 0 0
2571 807 4 0 -2.3814766647995103 -8.485110804566698 -8.59151958615951 0 0 0
2778 876 4 0 -2.174376842462274 -8.802513143860375 -8.755812240917518 0 0 0
3039 963 4 0 -2.063817508958398 -8.669300331026879 -8.390982523159215 0 0 0
3037 963 2 0 -1.6996992252668977 -8.382049778298322 -8.235351209084214 0 0 0
3038 963 4 0 -1.3653347107552378 -8.11350810452941 -8.100569940066748 0 0 0
2556 802 4 0 -1.0986862956053118 -8.344692224109831 -7.9336879456983045 0 0 0
2936 929 4 0 -11.717287071998038 -7.459490462204771 -7.463927027899429 1 0 0
1153 335 2 0 -8.40016823391357 -6.533885512244373 -7.87075901128835 0 0 0
1155 335 4 0 -8.383818421472808 -6.12717697370832 -8.099941132360069 0 0 0
1154 335 4 0 -8.411738790641616 -6.918503317741188 -7.6536345302301 0 0 0
2566 806 2 0 -3.4868508988310114 -7.347595120239565 -8.435170248550648 0 0 0
2567 806 4 0 -3.828640917305723 -7.1940756223940125 -8.218906044634203 0 0 0
1341 397 4 0 -10.78781646923316 -5.938502281594347 -7.663974117630655 0 0 0
59 12 3 0 -11.371049674796447 -4.614847442365294 -8.100938598964513 0 0 0
1339 397 2 0 -10.519324206204248 -5.868081480789775 -8.043714640965504 0 0 0
624 158 4 0 -11.165972993220752 -5.8658235119172195 -7.487486135913145 0 0 0
622 158 2 0 -11.49353684892177 -5.519263108369237 -7.501395088183101 0 0 0
623 158 4 0 -11.834327452897094 -5.173430858837012 -7.514271419936883 0 0 0
58 12 3 0 -11.794303440971499 -4.792555830689775 -7.5486387794467324 0 0 0
1008 286 4 0 -9.163003150587228 -5.238727707220507 -8.834468356863946 0 0 0
1340 397 4 0 -10.257941189133382 -5.801297420109671 -8.411932384541414 0 0 0
1006 286 2 0 -9.580115351653058 -5.3750828555459735 -8.705884222384434 0 0 0
1007 286 4 0 -10.002095521294436 -5.521697399891601 -8.57055187323355 0 0 0
2525 792 4 0 -8.211747161201176 -5.791394427463246 -8.249824580382416 1 0 0
2526 792 4 0 -8.806171120727766 -5.355753945806728 -8.750708594631371 1 0 0
2524 792 2 0 -8.510449370657664 -5.578506714820674 -8.502066047275376 1 0 0
794 215 4 0 -3.9658105572327687 -4.982460387341861 -7.401473811908502 0 0 0
793 215 2 0 -4.068152352004008 -4.710539115261297 -7.733795359389559 0 0 0
56 12 1 0 -11.631631861414117 -4.451388680341487 -7.772182330047516 0 0 0
60 12 3 0 -11.396970879163684 -4.206320449856033 -7.505781342404776 0 0 0
1316 389 4 0 -11.137129505766636 -3.879419657984717 -7.523947065937597 0 0 0
1271 374 4 0 -2.587814965381872 -1.4580302802374474 -0.7994436001720868 0 0 0
795 215 4 0 -4.163493978830161 -4.445536417228038 -8.062938259782236 0 0 0
857 236 4 0 -6.451697070715549 -0.286037793963811 -8.716605531488836 0 0 0
755 202 4 0 -7.320345114040448 -1.1721322319345409 -7.515138272844841 0 0 0
2109 653 4 0 -7.333457930809114 -1.5403136903626253 -8.650975444742942 0 1 1
756 202 4 0 -7.342626996751497 -1.2200377023060076 -8.390701174626097 0 0 0
754 202 2 0 -7.32966358615573 -1.198835619701602 -7.945760577770008 0 0 0
884 245 4 0 -7.147310662336216 -1.1948713604703867 -8.725684965539575 0 0 0
883 245 2 0 -6.804883253229666 -0.8921341821611076 -8.853471764168534 0 0 0
856 236 2 0 -6.1420244305780765 -0.12177052693253293 -8.399677863146398 0 0 0
4092 1314 4 0 -10.95140195195737 -9.175454533399979 -5.943141368174912 1 1 0
891 247 4 0 -0.26326029104875376 -10.288548503539733 -5.871242179483407 0 0 0
889 247 2 0 -0.2443193384831067 -10.01432557150782 -6.208590527257027 0 0 0
890 247 4 0 -0.22670761045261575 -9.735760961006548 -6.553378515237351 0 0 0
38 8 3 0 -0.12009470020743541 -9.360355277894886 -6.653872451515227 0 0 0
39 8 3 0 -0.5822782216272039 -8.88256917740481 -6.2955185057323755 0 0 0
3621 1157 4 0 -0.8319362065317525 -9.074791807430772 -6.046400318416844 0 1 0
1272 374 4 0 -2.7348762844885806 -0.554959989385968 -0.8054245124403268 0 0 0
1329 393 4 0 -7.514961744309622 -7.644635073675045 -7.383527432223784 0 0 0
36 8 1 0 -0.23699148281510465 -8.90698068042542 -6.5797707922523125 0 0 0
2554 802 2 0 -0.8645806702659067 -8.459799595673925 -7.5566918298250885 0 0 0
2555 802 4 0 -0.6501726491337986 -8.569686301474581 -7.203886310928447 0 0 0
40 8 3 0 -0.34976322924401465 -8.715648600561053 -6.9890193694934775 0 0 0
2935 929 2 0 -11.710884454475789 -7.10701781314984 -7.196904804187275 1 0 0
3683 1178 4 0 -11.723218622575022 -6.330518939135971 -6.78954582300183 1 1 0
3682 1178 2 0 -11.57008958523145 -6.406344139231468 -6.344318493092647 1 1 0
2937 929 4 0 -11.710111945643154 -6.724851382874644 -6.909885902443571 1 0 0
2921 924 4 0 -11.046893955712195 -6.368579895042096 -5.8895463657479 1 0 0
3684 1178 4 0 -11.429626035125663 -6.486411893617689 -5.936029571388682 1 1 0
1327 393 2 0 -7.811176746642281 -7.350702209837446 -7.387932117067218 0 0 0
1328 393 4 0 -8.14980169679505 -7.025513104109087 -7.39096106148981 0 0 0
588 146 4 0 -3.6693858450565284 -4.857618473396667 -7.202779066850204 0 0 0
586 146 2 0 -3.257512981568707 -4.925168754496335 -6.979075928243184 0 0 0
587 146 4 0 -2.8708003730392733 -4.998932519030886 -6.770821705595009 0 0 0
650 167 4 0 -2.5253405768357626 -5.197091253860646 -6.860019490889389 0 0 0
649 167 2 0 -2.3037925281235103 -5.477011289166315 -6.563355875085167 0 0 0
651 167 4 0 -2.0937123011740555 -5.7589825476542424 -6.270460368010369 0 0 0
1315 389 2 0 -11.018864446218661 -3.5973803551637737 -7.200853323543723 0 0 0
1317 389 4 0 -10.902073627243382 -3.309641549546768 -6.886646195323061 0 0 0
1253 368 4 0 -10.521239528216844 -3.246971674805136 -6.7322272479803065 0 0 0
1252 368 2 0 -10.354145225447734 -3.221752939867743 -6.307374621094951 0 0 0
2574 808 4 0 -1.0227174115899953 -3.2516368685705586 -7.076600312535348 0 0 0
2572 808 2 0 -0.9522357858326929 -3.4340634342903504 -6.6476672570120146 0 0 0
2879 910 4 0 -0.6008481550773487 -3.80442394318256 -6.020884986816133 0 0 0
2573 808 4 0 -0.8911466491292709 -3.593549124901777 -6.260801389119668 0 0 0
1254 368 4 0 -10.202626684059325 -3.1964042639131227 -5.890511675530253 0 0 0
426 92 4 0 -3.6864609973385756 -1.9485912355614021 -6.522582314144588 0 0 0
440 97 4 0 -3.9090410631379395 -2.093176051845185 -6.236456564780822 0 0 0
424 92 2 0 -3.4082218668435917 -1.7848203977822998 -6.809298272281984 0 0 0
425 92 4 0 -3.1210103508739278 -1.6169550099447871 -7.107987059739456 0 0 0
1275 375 4 0 -2.941857108759183 -1.39673391136422 -7.399824396088997 0 0 0
385 79 2 0 -11.44450467897576 -0.29487461278149335 -6.481711909391265 0 0 0
386 79 4 0 -11.07584910325661 -0.34070737917364463 -6.207519040071902 0 0 0
387 79 4 0 -11.803455647446366 -0.25013545633349504 -6.747319115434503 0 0 0
1756 536 2 0 -9.12362919311534 -0.19497088464960247 -6.604583424897908 0 0 0
1886 579 4 0 -8.628638564764364 -0.6182828149413774 -6.2082770598011985 0 0 0
1757 536 4 0 -8.690089704666239 -0.35778281534685236 -6.491806168406067 0 0 0
687 179 4 0 -7.24160147303045 -1.2295022666527515 -7.13148345926119 0 0 0
685 179 2 0 -6.931597085966056 -1.0899301530641883 -6.811305129207497 0 0 0
686 179 4 0 -6.618766044882685 -0.9592696089900766 -6.497133874691843 0 0 0
1715 522 4 0 -6.534478369493998 -0.6983753042436548 -6.186640419271452 0 0 0
1714 522 2 0 -6.1890273140681735 -0.6531706070846965 -5.902091149515317 0 0 0
1274 375 4 0 -2.045452650019156 -1.2897242191125633 -7.296550185508136 0 0 0
1273 375 2 0 -2.487409029902438 -1.3415519026414944 -7.346823604011052 0 0 0
581 144 4 0 -1.9118237340305422 -0.9540071062622768 -7.086456196769507 0 0 0
580 144 2 0 -1.6658610994381304 -0.8298882504945192 -6.734641666878222 0 0 0
582 144 4 0 -1.4026293763145103 -0.7045677631762188 -6.375686812110748 0 0 0
1395 415 4 0 -1.06431905827732 -0.535873189715579 -6.264091562800414 0 0 0
1393 415 2 0 -0.7318720683765905 -0.2566138172391903 -6.114821009831183 0 0 0
3828 1226 4 0 -9.315583882356954 -10.609201969557011 -5.237894532287791 1 1 0
4101 1317 4 0 -9.68334414118057 -10.626142987560904 -5.353069618449493 1 1 0
3826 1226 2 0 -8.89891758591478 -10.732571106964292 -5.228364397534441 1 1 0
3827 1226 4 0 -8.469641001707966 -10.8518797852063 -5.220955420688573 1 1 0
3915 1255 4 0 -8.079533583484299 -10.935829743570537 -5.1749859748530564 1 1 0
3914 1255 4 0 -7.195380923238927 -11.038473223864257 -5.374390091595827 1 1 0
3913 1255 2 0 -7.641475480384597 -10.987361795035316 -5.27228178432681 1 1 0
3605 1152 4 0 -7.054840452301972 -11.358941306404438 -5.176093170159876 1 1 0
3604 1152 2 0 -6.817765563610575 -11.665791963088648 -4.961931247403263 1 1 0
3579 1143 4 0 -0.032263121663724484 -2.1945196919819367 -3.213593836591092 0 0 0
3918 1256 4 0 -4.7066232019802134 -11.769944014016094 -4.5314680153978175 1 1 0
3719 1190 4 0 -4.7472266287595435 -11.409532987813515 -4.348012372154339 1 1 0
3003 951 4 0 -3.1820960274454304 -10.535853892923777 -4.80936316722697 0 0 0
716 189 4 0 -0.10304900239112282 -10.633245298903878 -5.724095332587196 0 0 0
715 189 2 0 -0.2774165857961803 -10.92958657532613 -5.442341778054215 0 0 0
717 189 4 0 -0.4410980758600145 -11.230714851417476 -5.14962194588453 0 0 0
1869 573 4 0 -0.6944886378863259 -11.259208373158163 -4.854696874006818 0 1 0
4090 1314 2 0 -10.537483681054532 -9.398419211186306 -5.915904505113913 1 1 0
4091 1314 4 0 -10.17430407532013 -9.597894764124426 -5.879367108881999 1 1 0
4100 1317 4 0 -9.953170938730455 -9.814735026198601 -5.653938051531899 1 1 0
4099 1317 2 0 -9.821776602900654 -10.204226646185385 -5.5095001725669235 1 1 0
2619 823 4 0 -8.172360468218173 -9.245504468641276 -4.4175149625977275 1 0 0
3002 951 4 0 -2.418924446564821 -10.084896141848608 -4.785990294728905 0 0 0
3001 951 2 0 -2.8139271794201597 -10.318567136197087 -4.801932164284047 0 0 0
3854 1235 4 0 -2.436447754468838 -9.682899711556166 -4.917477577211879 0 1 0
3853 1235 2 0 -2.0895149008838776 -9.482263069453206 -5.171787881619921 0 1 0
3855 1235 4 0 -1.7650205874626814 -9.284204557694983 -5.415876135816708 0 1 0
3620 1157 4 0 -1.36412422933845 -9.361233177688277 -5.348989734781809 0 1 0
3619 1157 2 0 -1.095086437954642 -9.226182693277558 -5.691923116697853 0 1 0
2580 810 4 0 -11.313093967995023 -7.347195369976444 -4.43270667790683 1 0 0
4030 1294 2 0 -9.453289341407757 -8.188429208969728 -4.545324452651475 1 1 0
4032 1294 4 0 -9.107110217734602 -8.462192124727174 -4.643136952183029 1 1 0
2618 823 4 0 -8.7044284596895 -8.548595564144561 -4.670971456532111 1 0 0
2617 823 2 0 -8.436660417428845 -8.903395958723834 -4.543627143799518 1 0 0
4093 1315 2 0 -1.405663077115322 -8.685419168081491 -4.724477015613397 0 0 0
4095 1315 4 0 -1.5734435497982828 -8.297216169560548 -4.819564222042126 0 0 0
2837 896 4 0 -1.3357375990266764 -8.00516369744488 -4.738035614912664 0 0 0
2836 896 2 0 -1.1006316160684848 -7.588801055619421 -4.847131484377371 0 0 0
2920 924 2 0 -10.691804406026744 -6.390922970846476 -5.613502194304253 1 0 0
2578 810 2 0 -11.641502883595214 -7.099260858372722 -4.637641740697727 1 0 0
2922 924 4 0 -10.36216773878223 -6.407961504543081 -5.354424040647354 1 0 0
2688 846 4 0 -10.34351587726607 -6.5026890703431794 -4.960344575982401 1 0 0
2686 846 2 0 -9.995539997092854 -6.331884709139947 -4.732606020609227 1 0 0
753 201 4 0 -2.0627361082675058 -6.410686151947953 -4.734246100193899 0 0 0
659 170 4 0 -2.0341609810659196 -6.328373436979694 -5.151696076725425 0 0 0
658 170 2 0 -2.1196664027463408 -6.179961724810393 -5.573066182776797 0 0 0
2838 896 4 0 -0.8932249126020346 -7.21139972717671 -4.940662933023506 0 0 0
2868 906 4 0 -0.6639020129964158 -6.912343329498859 -4.783479532449135 0 0 0
2866 906 2 0 -0.3487703054343569 -6.79907490291895 -4.545702399634707 0 0 0
813 221 4 0 -7.692793515867123 -5.464778558894413 -4.508679314347353 0 0 0
660 170 4 0 -2.1989537241114805 -6.0308639278954255 -6.0087539635555665 0 0 0
1109 320 4 0 -10.574702785538472 -3.7374803896652495 -4.577298510193052 0 0 0
2023 625 2 0 -10.481626825800895 -3.2490968604945647 -5.248883336889939 0 0 0
2025 625 4 0 -10.569982255559028 -3.5153890899195575 -4.8993127165163415 0 0 0
1108 320 2 0 -10.252739025416886 -4.053152741344745 -4.4663734899285545 0 0 0
1110 320 4 0 -9.945280531914241 -4.342056527718903 -4.376545559284426 0 0 0
860 237 4 0 -4.858250292727215 -3.997772034596122 -4.97523950382888 0 0 0
859 237 2 0 -4.450743810769864 -3.83864633370027 -4.961141115310243 0 0 0
861 237 4 0 -4.0264123731518335 -3.6812118187914367 -4.945777288728591 0 0 0
500 117 4 0 -3.6647366214428216 -3.7840220560489675 -5.089556886902503 0 0 0
499 117 2 0 -3.4857450099341873 -3.4057409386881266 -5.263540286943832 0 0 0
501 117 4 0 -3.3052919653237627 -3.0272977645518613 -5.438902477215912 0 0 0
2878 910 2 0 -0.2700293541814753 -4.038666192329045 -5.861814035512426 0 0 0
2024 625 4 0 -10.396181739104778 -2.9870212652402435 -5.604074257673032 0 0 0
805 219 2 0 -6.797654880487955 -1.4135657177775864 -5.038521579206102 0 0 0
807 219 4 0 -7.245480016673816 -1.4999020016759432 -4.973085960106249 0 0 0
378 76 4 0 -3.044610326372402 -2.824713970180232 -5.151280340634254 0 0 0
439 97 2 0 -3.8112064067159346 -2.1063016655433993 -5.806003669506601 0 0 0
441 97 4 0 -3.71924889538415 -2.120353435790073 -5.380997134288126 0 0 0
3977 1276 4 0 -3.7960099689246616 -2.206027220932213 -4.967503234770141 1 1 0
3976 1276 2 0 -3.8953608487549407 -2.2447127079142977 -4.542820457709092 1 1 0
376 76 2 0 -2.8376551375623293 -2.486415419259831 -4.899510523151086 0 0 0
377 76 4 0 -2.648553627498904 -2.1818035473285105 -4.665930858098651 0 0 0
416 89 4 0 -2.282361817655233 -1.9878076362173591 -4.711339940931928 0 0 0
1563 471 4 0 -10.540085977858794 -0.16541177848694505 -5.047884642952219 0 0 0
450 100 4 0 -11.82381959731593 -1.124414596774091 -5.290265480032562 0 0 0
1561 471 2 0 -10.168165843632412 -0.44010601451905507 -5.096973923815934 0 0 0
1562 471 4 0 -9.794039605404542 -0.7098539377533136 -5.155000241177926 0 0 0
641 164 4 0 -9.421197846220444 -0.8463681664056192 -5.178905162032733 0 0 0
640 164 2 0 -9.005445161444708 -1.0005509937144768 -5.074446310247282 0 0 0
1885 579 2 0 -8.330573224120707 -0.5899585952609515 -5.895469993255293 0 0 0
98 20 3 0 -7.510009199424613 -1.2376357611466284 -4.828952560796292 0 0 0
1887 579 4 0 -8.0134110626262 -0.5549750557442439 -5.5757296097348 0 0 0
97 20 3 0 -8.273610142404149 -1.2727881945062496 -4.87469634091562 0 0 0
642 164 4 0 -8.637221149282512 -1.134374293740089 -4.9709735891754265 0 0 0
96 20 1 0 -7.886523556530253 -0.99387869780026 -4.878509264021341 0 0 0
99 20 3 0 -7.866854454914759 -0.7829543416649148 -5.2609397287980855 0 0 0
100 20 3 0 -7.916257475184698 -0.6856819406325967 -4.543552746720336 0 0 0
806 219 4 0 -6.371563154763063 -1.3363186165566374 -5.08980640312093 0 0 0
1716 522 4 0 -5.833973413266576 -0.6082830922071998 -5.613942258150754 0 0 0
23 5 3 0 -5.237368026311256 -1.3746703913542997 -5.094730737008671 0 0 0
22 5 3 0 -5.945295192043284 -1.3936697336344572 -5.156252767575072 0 0 0
21 5 1 0 -5.591072620079171 -1.1252763572929694 -5.148767701254505 0 0 0
24 5 3 0 -5.567891173431133 -0.8956801653433445 -5.547389965728376 0 0 0
561 137 4 0 -4.847426076930147 -1.2672049747000798 -5.193317287680128 0 0 0
25 5 3 0 -5.617623482644641 -0.8164272221872206 -4.793456549861419 0 0 0
1731 527 4 0 -5.495148757010127 -0.7870497506814738 -4.406505324864123 0 0 0
559 137 2 0 -4.4043684753115 -1.2023499872893384 -5.13893057115899 0 0 0
560 137 4 0 -3.96178870355009 -1.1337342674599271 -5.07880382299408 0 0 0
894 248 4 0 -3.597349869913165 -0.9349132988445922 -5.1340006807278025 0 0 0
892 248 2 0 -3.1982160003300333 -0.9796883641601555 -4.906317247126078 0 0 0
893 248 4 0 -2.8339911548579693 -1.022433183378452 -4.690421492927579 0 0 0
1112 321 4 0 -2.531430573246818 -0.7786153055424904 -4.522778083196631 0 0 0
1177 343 2 0 -0.2067450542780463 -1.2835423405461175 -4.540538029495814 0 0 0
3257 1036 4 0 -11.843560396625774 -6.378858732075794 -11.804853133111056 1 0 1
1467 439 4 0 -11.221197782586986 -11.47144974404126 -3.4894415215779198 0 0 0
1465 439 2 0 -11.196122809840743 -11.015684852442641 -3.441637088521749 0 0 0
1466 439 4 0 -11.161144988976286 -10.552049454991462 -3.3953421743850702 0 0 0
1488 446 4 0 -11.373659662470216 -11.797607615332856 -3.689121486949292 0 0 0
248 50 3 0 -0.1521787900578039 -11.470211703059464 -11.78712766327031 0 0 1
1270 374 2 0 -2.6644947230899247 -1.0074051895893157 -0.8006574476591259 0 0 0
4019 1290 4 0 -5.894384209172955 -11.903175892083901 -3.468131300901085 1 1 0
3923 1258 4 0 -5.795064319954881 -11.582142902013192 -3.7100476197154846 1 1 0
3922 1258 2 0 -5.809713419623698 -11.128663180716796 -3.5870177545097266 1 1 0
3924 1258 4 0 -5.818240703313691 -10.671643860382574 -3.4657493813375053 1 1 0
3718 1190 2 0 -4.682765943666037 -11.032596223070895 -4.099772456366142 1 1 0
3720 1190 4 0 -4.6182982185473085 -10.668761473012331 -3.845156501491857 1 1 0
3006 952 4 0 -3.157927619540469 -11.599799544471118 -3.5228190103388712 0 0 0
2856 902 4 0 -2.8806704490480106 -11.463116085995214 -3.7599626106147714 0 0 0
2854 902 2 0 -2.496795110631775 -11.3629595166802 -3.9835627440307815 0 0 0
2855 902 4 0 -2.1233124414867035 -11.262688211922812 -4.199144823770515 0 0 0
2652 834 4 0 -1.8514873421478202 -10.964778497684122 -4.17049523246784 0 0 0
2650 834 2 0 -1.6649514562329024 -10.602242568750365 -3.9918614337453135 0 0 0
1867 573 2 0 -0.5782766448969711 -11.27328100365745 -4.413052501084945 0 1 0
4084 1312 2 0 -0.5436133387432343 -11.510888237624545 -3.162479708749169 0 1 0
1868 573 4 0 -0.46882542528784793 -11.282099812291747 -3.972769305690823 0 1 0
4085 1312 4 0 -0.5109087996119138 -11.309341747178113 -3.561249483808315 0 1 0
1628 493 4 0 -11.09850357191061 -10.238141473872366 -3.1692718892072356 0 0 0
1627 493 2 0 -10.962954917427586 -9.8108435662761 -3.004842863282464 0 0 0
3987 1279 4 0 -7.863931679306846 -9.498999534684543 -4.399107850705937 1 1 0
3985 1279 2 0 -7.499054483734301 -9.77367599358227 -4.257376886487879 1 1 0
2774 875 4 0 -6.069786432763607 -10.416841518012985 -3.6563007843606403 1 0 0
3986 1279 4 0 -7.159767623843585 -10.029783599276115 -4.129483949324088 1 1 0
2775 875 4 0 -6.916463037394255 -10.228522978575196 -3.8834915454775025 1 0 0
2773 875 2 0 -6.5052024767041745 -10.320276743711712 -3.7695034076127567 1 0 0
3830 1227 4 0 -5.680563936693991 -10.31863012398975 -3.554223831932754 1 1 0
3829 1227 2 0 -5.4248980569863265 -9.996931696997452 -3.541355602292966 1 1 0
3831 1227 4 0 -5.114941597153248 -9.632773908112767 -3.5340723755350854 1 1 0
3633 1161 4 0 -5.251903421379546 -9.261308920305693 -3.464443638960171 1 1 0
3852 1234 4 0 -4.344628198670884 -10.407193026769194 -3.771069380472322 1 1 0
3850 1234 2 0 -4.1734666171707415 -10.117699008378992 -3.459623134023617 1 1 0
3851 1234 4 0 -4.0102142719314 -9.843943698488909 -3.141597240813732 1 1 0
2834 895 4 0 -3.867028885222297 -9.724566670596458 -2.8101341549303367 1 0 0
4094 1315 4 0 -1.2211383029482727 -9.083138875525295 -4.630326361942953 0 0 0
2651 834 4 0 -1.4782827247855221 -10.249089726292018 -3.811587709416311 0 0 0
2620 824 2 0 -1.2068828004130585 -9.588911461723434 -4.087413794676802 0 0 0
2622 824 4 0 -1.0208054779875977 -9.309727720012692 -4.405745316563036 0 0 0
2621 824 4 0 -1.3867762485505768 -9.849592104388533 -3.7805458924321456 0 0 0
2992 948 2 0 -10.577866334915631 -7.694731058153177 -4.332902808571974 1 0 0
2994 948 4 0 -10.936061311787077 -7.418333798308056 -4.232340936903776 1 0 0
1024 292 2 0 -11.289626391345669 -7.546985267844601 -3.4016136652010336 0 0 0
1025 292 4 0 -10.899073685719179 -7.63146569086804 -3.587668281122352 0 0 0
744 198 4 0 -10.593729678754913 -7.841578560068753 -3.36971190556252 0 0 0
2993 948 4 0 -10.21780693812589 -7.97564274689695 -4.441548688372085 1 0 0
4031 1294 4 0 -9.819085285281101 -7.909001445947326 -4.442204282266743 1 1 0
742 198 2 0 -10.199550068505342 -7.618496193444103 -3.2626991030878467 0 0 0
2769 873 4 0 -6.512918237894961 -7.769596589357477 -3.8664297228276925 1 0 0
2767 873 2 0 -6.134153234831483 -7.975454632023341 -3.7937376289747227 1 0 0
2768 873 4 0 -5.738038991322527 -8.185911916039474 -3.714986268990196 1 0 0
3377 1076 4 0 -6.694762375673012 -7.667842293852749 -4.19212592632486 1 0 0
3631 1161 2 0 -5.414819884646016 -8.867751619189805 -3.464222645064108 1 1 0
3632 1161 4 0 -5.5749170060648146 -8.446514623771773 -3.4587602133182926 1 1 0
993 281 4 0 -11.86745748035554 -7.387141567527636 -3.5397547950333883 0 0 0
1026 292 4 0 -11.677483500284609 -7.455325242813957 -3.2207121411513047 0 0 0
2687 846 4 0 -9.624871552367747 -6.1650460477231945 -4.49007753620489 1 0 0
1285 379 2 0 -9.273532617112027 -6.792972116250183 -3.3585528266863838 0 0 0
1286 379 4 0 -9.042490113476475 -6.494324750191554 -3.6260461139098967 0 0 0
743 198 4 0 -9.760083039181382 -7.3779757558042425 -3.156459143427058 0 0 0
1287 379 4 0 -9.492868847590746 -7.0777178525728335 -3.1000136988886253 0 0 0
83 17 3 0 -8.867206891347978 -6.166897215768209 -3.7604117842198757 0 0 0
3378 1076 4 0 -7.369307837502833 -7.07143499285223 -4.0927529964552685 1 0 0
3376 1076 2 0 -7.037180459057771 -7.369468225599833 -4.144206896821825 1 0 0
751 201 2 0 -2.0324736191202435 -6.26381773162556 -4.329983345581457 0 0 0
404 85 4 0 -1.7100425848037848 -6.050308345749168 -3.5873689695431206 0 0 0
403 85 2 0 -1.5116662005353623 -6.272004082451553 -3.2327208798329456 0 0 0
752 201 4 0 -1.9971161139240559 -6.100486099773464 -3.880391368627832 0 0 0
2648 833 4 0 -0.11385973626853434 -6.383451647362885 -4.0072058000133755 0 0 0
2647 833 2 0 -0.21122157971931543 -6.012678535605488 -3.751916114949543 0 0 0
82 17 3 0 -9.382732553509019 -5.946935877494647 -4.260959866708959 0 0 0
3322 1058 2 0 -9.239591770038597 -4.75354584491119 -4.244066816541943 1 0 0
81 17 1 0 -9.093037746676321 -5.813077879789519 -3.914849584428393 0 0 0
85 17 3 0 -9.340511585782798 -5.629886392486102 -3.5705160361360884 0 0 0
929 260 4 0 -9.648149038345544 -5.47279240391617 -3.3764967798735084 0 0 0
84 17 3 0 -8.785249159289545 -5.489389658761824 -4.095804143248849 0 0 0
3324 1058 4 0 -9.551230337884865 -4.406733848970368 -4.218107018601391 1 0 0
3323 1058 4 0 -8.90725063978865 -5.139717187747446 -4.265622517983109 1 0 0
811 221 2 0 -8.093775478436333 -5.349352915665358 -4.366481427965988 0 0 0
812 221 4 0 -8.512032901312422 -5.230744493306954 -4.221110655800794 0 0 0
392 81 4 0 -2.0351296115382516 -5.828505500542425 -3.5968119956810596 0 0 0
391 81 2 0 -2.225660095224196 -5.448162735363348 -3.47459945493153 0 0 0
393 81 4 0 -2.4224924995178885 -5.070396950888043 -3.3588525297980563 0 0 0
2559 803 4 0 -2.6476880158000227 -4.7514346892000505 -3.308486025181574 0 0 0
2649 833 4 0 -0.31437112280217455 -5.656839342945058 -3.513543143994509 0 0 0
3789 1213 4 0 -0.642380808756402 -5.526785063332822 -3.354289300628644 0 0 0
3787 1213 2 0 -0.6293842888097229 -5.037689737309789 -3.3520758462136446 0 0 0
3788 1213 4 0 -0.6116350362423975 -4.598516826099818 -3.344575569497305 0 0 0
709 187 2 0 -11.683552847785474 -3.364801134466628 -4.3923912293769325 0 0 0
711 187 4 0 -11.245802246087404 -3.3506333853644117 -4.305541188683263 0 0 0
2557 803 2 0 -2.3563756757528505 -4.43198611209323 -3.119268244907728 0 0 0
3983 1278 4 0 -1.6502409468116912 -4.017470312947046 -2.924564604849305 0 0 0
2558 803 4 0 -2.0579313237052093 -4.108412371223961 -2.9274266493666463 0 0 0
3717 1189 4 0 -0.5168915542892298 -4.297312720049973 -3.6039115885817967 0 0 0
3715 1189 2 0 -0.23941381965426606 -4.194571147075652 -3.97435065282005 0 0 0
3984 1278 4 0 -0.8367613531804903 -4.251690143283015 -3.3461793347273696 0 0 0
3982 1278 2 0 -1.2358325723656611 -4.135450601284163 -3.141713453266158 0 0 0
3978 1276 4 0 -4.00393201743755 -2.288216874919799 -4.090425149610712 1 1 0
902 251 4 0 -3.8779206049123616 -2.244961910333487 -3.711453195148086 0 0 1
901 251 2 0 -3.784042805946066 -2.1284173476987744 -3.2810613308322414 0 0 1
415 89 2 0 -2.0434647760423608 -1.9176739729902812 -4.314670382591906 0 0 0
2932 928 2 0 -1.8978121157084533 -1.7917467311091082 -3.2043347195616936 0 0 0
417 89 4 0 -1.804568227007093 -1.8438838365796768 -3.9239128843994395 0 0 0
2934 928 4 0 -1.8799159934069605 -1.6063666558258038 -3.615383625620354 0 0 0
1605 485 4 0 -8.137668188957326 -0.4830785270672888 -4.272719540600044 0 0 0
1603 485 2 0 -8.21988963232066 -0.0924925780591208 -4.149594059692785 0 0 0
1729 527 2 0 -5.095552131337582 -0.7797885388361877 -4.200173419503699 0 0 0
1730 527 4 0 -4.692912280238391 -0.7742494723227858 -3.9933899063841336 0 0 0
1619 490 4 0 -4.362288334930963 -0.7112028202942111 -3.766850989186703 0 0 0
1618 490 2 0 -4.2917717648487095 -0.7153827316326817 -3.3476975817082475 0 0 0