LAMMPS data file via write_data, version 4 Feb 2025, timestep = 400000, units = lj

64 atoms
4 atom types
48 bonds
1 bond types
56 angles
2 angle types

-2.5 2.5 xlo xhi
-2.5 2.5 ylo yhi
-2.5 2.5 zlo zhi
0 0 0 xy xz yz

Masses

1 1
2 1
3 0.1
4 0.1

Bond Coeffs # harmonic/omp

1 100 0.45

Angle Coeffs # harmonic/omp

1 100 180
2 100 109.471

Atoms # full

3 1 3 0 -2.038771289505358 1.3996427525636927 -1.0272716682833547 7 0 -1
5 1 3 0 -1.7014783698320328 0.7733996656596775 -0.8966918626170506 7 0 -1
60 15 4 0 -2.064403407598823 -2.497071046291773 -0.2346786733425028 5 0 2
59 15 2 0 -1.6455155383944118 -2.3454721326711803 -0.08383898493603281 5 0 2
61 15 4 0 -1.236786050107406 -2.2129589576441666 0.05106931750538202 5 0 2
37 8 3 0 -0.9736283096664007 -1.9464056801457743 0.13587988842841225 4 0 3
40 8 3 0 -0.2225144330174249 -2.0240653099013026 0.20279976108151399 4 0 3
39 8 3 0 -0.6276813592062489 -1.6972242033334326 0.7806572762040309 4 0 3
36 8 1 0 -0.593457231285329 -1.7525885130145191 0.30337255854815437 4 0 3
38 8 3 0 -0.5455096215480348 -1.3156218276254303 0.08860988441352369 4 0 3
63 16 4 0 -0.41982654286351195 -1.058942294462097 -0.1690895146176974 1 -1 3
62 16 2 0 -0.14273473784910262 -0.688579781213341 -0.193291697645106 1 -1 3
1 1 1 0 -1.7722878611624626 1.1857220032339644 -0.7524033505964967 7 0 -1
4 1 3 0 -1.368502484499994 1.41104363249526 -0.7386688143446063 7 0 -1
2 1 3 0 -1.9576316978359742 1.168128038325258 -0.33698954687785765 7 0 -1
34 7 3 0 -2.3843316338996288 2.4575261179983077 -0.027484462337313165 -1 -2 0
17 4 3 0 -1.229644312285727 -0.5939908527852342 1.9584937162206844 4 -1 1
18 4 3 0 -1.8004173022913001 -0.21393525482295583 1.6766709851042858 4 -1 1
55 13 4 0 -1.2786587420279174 0.3976203209051672 2.4234443545703934 3 -1 1
19 4 3 0 -1.3277073284910104 0.0997038214477386 2.1486998674334696 4 -1 1
16 4 1 0 -1.3639387130962581 -0.1940174587090171 1.8129777272347463 4 -1 1
20 4 3 0 -1.1053301481178048 -0.05955679769443645 1.4626504567690173 4 -1 1
53 13 2 0 -1.593000328123388 0.7192540378199719 2.3414607487002908 3 -1 1
9 2 3 0 -1.90366546886669 1.3830667637134586 2.4072557878591025 6 0 0
54 13 4 0 -1.8722741915016563 1.0113942982395812 2.2616249656924463 3 -1 1
8 2 3 0 -2.248785753131848 1.54643567240932 1.741859821539161 6 0 0
6 2 1 0 -2.28122356960396 1.5790302114697194 2.2087398144264423 6 0 0
7 2 3 0 -2.3092950242573114 2.002025505228092 2.3179487819578526 6 0 0
58 14 4 0 -2.4664500453585076 1.7603841623949723 1.488999737125083 3 -1 1
14 3 3 0 1.6693805420387688 0.2604240449397608 -1.3039229735041393 6 0 1
15 3 3 0 1.8996137390135894 0.9463762943734966 -1.2212537103495744 6 0 1
11 3 1 0 1.775600012145789 0.5441098674129208 -1.0117553382677167 6 0 1
45 10 4 0 2.019678203019625 0.8594473685790671 -1.60286980282747 10 1 1
44 10 2 0 2.0958243530832785 1.1264471712161206 -1.947900787087913 10 1 1
46 10 4 0 2.174529385413285 1.4018778640947716 -2.28806690554043 10 1 1
50 12 2 0 1.2354139476793407 -2.290803517239213 0.5555741839366224 -2 -1 1
51 12 4 0 0.8473826846646002 -2.23662348776926 0.7410471692284908 -2 -1 1
52 12 4 0 1.6196881619380301 -2.3311338812327658 0.3734392323747091 -2 -1 1
31 7 1 0 2.3306896350461948 -2.379432029671667 0.274307573055657 -2 -1 0
32 7 3 0 2.317522448270691 -1.935982639950351 0.23845382079466804 -2 -1 0
35 7 3 0 2.466984442302807 -2.488334034133346 0.6891944144276616 -2 -1 0
48 11 4 0 1.115978084673861 0.4707262623032289 -0.527095289317687 10 1 2
64 16 4 0 0.14506765963505064 -0.3183164403246086 -0.22647924231351135 1 -1 3
49 11 4 0 0.46946389558254653 -0.07971107246269682 -0.24246643270696033 10 1 2
47 11 2 0 0.8047368204840244 0.21017668138754164 -0.3874816775926475 10 1 2
13 3 3 0 2.1087872886938666 0.3930736018704546 -0.7815695865774586 6 0 1
12 3 3 0 1.4266872180045835 0.6171874849847807 -0.7357907058608237 6 0 1
33 7 3 0 1.9392880893177065 2.459070360288015 0.20682165764340077 -2 -2 0
27 6 3 0 0.2191542883547104 -1.774909733596882 1.530925770723428 3 0 1
26 6 1 0 0.6356898625295178 -1.9218444855926267 1.4666958818675457 3 0 1
30 6 3 0 0.7467381908343023 -2.2288312605527936 1.792486123039211 3 0 1
28 6 3 0 0.6617906779816316 -2.111595625681037 1.0642078769212002 3 0 1
29 6 3 0 0.9222166515262762 -1.566136380116348 1.47434736890866 3 0 1
57 14 4 0 2.3312469151421578 -2.480993142437987 1.0645535183176524 2 0 1
41 9 2 0 0.9206545720956081 -0.7786265299512651 1.367454455591811 3 0 0
42 9 4 0 1.0412785699175502 -1.208358910092293 1.3824477778086228 3 0 0
21 5 1 0 0.6383219000719014 0.3069415667043547 1.79339562074823 3 0 1
43 9 4 0 0.7893252106726529 -0.35655380054957453 1.3520717677749694 3 0 0
22 5 3 0 0.889895179027218 0.015587595170297064 1.5160219165620479 3 0 1
25 5 3 0 0.40232857675628564 0.06712632719378675 2.10500028384833 3 0 1
23 5 3 0 0.8827542380980629 0.5611606278115309 1.9758297369317752 3 0 1
24 5 3 0 0.35247584310565827 0.5438713103783366 1.5310660242800322 3 0 1
10 2 3 0 2.3337973530702456 1.359683565871908 2.352875748951453 5 0 0
56 14 2 0 2.43291107278783 2.1426411476701652 1.2785484418004556 2 -1 1

Velocities

3 -0.24684098626992218 0.7401225784346291 0.57658958453954
5 0.7665088353376445 0.7284000750696908 -0.709645752489278
60 -0.47679673795651834 -1.3027208417060774 0.7927484132440015
59 0.04733255743928767 0.36432295788825836 -0.15917450378040943
61 -0.4213935645850984 -0.9259360739382926 0.31787229695724345
37 -0.2498036512638793 -0.009751751247977787 0.3834380390587852
40 -0.5434404978985868 0.008609801309389584 0.12793987585849081
39 -0.525996828098685 0.7923946583938889 0.6348176293746375
36 0.1023109701420078 0.13344641930893392 0.19934651620429994
38 0.016651658043559864 -0.19686789749283992 -0.3040364760076104
63 0.011894898170629463 0.47082131816925515 -0.16225613820242946
62 -0.3542011112733125 0.24971128277613006 -0.06006755077610233
1 -0.20564823145219097 -0.4825157534867414 -0.019382295810120992
4 -0.04010806475407405 1.657839177110301 -1.1818640385583006
2 1.096256978212408 -0.21018840412479683 0.2796429181431504
34 0.4655482985464009 -1.5090912961307572 -0.09177157214013956
17 -0.4346686754702403 -0.5244586206132932 -0.06343197494570574
18 0.6737813758289785 0.23951876566634417 -1.411906410088122
55 0.28425190088711416 -0.2423838685528421 -0.43742813885843157
19 0.8492548888942377 0.2724136337112217 -0.07987308880855526
16 -0.24123983022114934 -0.08927417464315711 0.1355623467115788
20 -0.0517153505781918 -1.0604603222158686 0.6737457785690919
53 0.2571266094730317 0.13851459834055427 -0.12058462997699651
9 -0.8382894137405545 0.007669682269867285 0.4608707755664844
54 -0.3444062418459364 -1.8931248293431187 0.6453711419804
8 0.32342266712734136 -0.5678949743508549 -1.688093826685799
6 0.2977813430964639 0.008987151414033064 -0.06063769454676425
7 -1.4724282705291583 0.5228822012317181 -0.5558641853352151
58 1.4345481981371824 0.2904868218416891 -0.17458834096537496
14 0.3422897840365098 -1.0741417207630481 0.22127023134893412
15 -1.1109894473822424 -1.9154866298752893 0.4958811620300333
11 -0.01762764031899916 0.06282533425778188 -0.03145398692665292
45 0.40899448115722054 0.009403529804054137 -0.17650108370059717
44 -0.18656419644155378 0.15585195926076775 -0.11560334105593699
46 1.1085946736564116 0.6285860031095807 0.1377022928911151
50 0.023524974255324793 -0.6163073015452435 -0.3716107679609397
51 1.0605217943078864 -0.02944504986864359 -0.7010730154171766
52 0.1638900704866622 0.25544694376688454 0.18920146532469592
31 0.06181974978377147 0.0804965593295884 -0.2312216555164366
32 -1.5080811126742102 -0.1842736025174968 -0.9703040412592414
35 -0.3653765779939599 -0.4681587112579042 0.044283174385568336
48 0.914636515070467 -0.15925186188980092 0.5986947690903421
64 -0.30394952013235227 -0.4849865429357105 0.622962309332791
49 -0.5821611281009827 -0.7694664659903825 0.9031477806794197
47 -0.3257005941204513 0.24915980710640848 0.09819577310237941
13 -1.411153025739321 0.8677049509986724 0.4568303739604071
12 -0.686512986736526 0.42607950853523285 -0.29230390302731213
33 -0.6185708781077142 0.6592093802752165 0.4378406573521899
27 0.1965782285348494 -0.20414922642208672 0.6423063733572578
26 -0.16977210281016433 0.30104178493820266 0.0802070155872536
30 0.5797713982865991 0.1322365039574536 0.1696070343132112
28 1.7253842184768022 0.10602264993418309 -0.5087953058599277
29 0.7563511784602059 -0.034996349587984955 1.0473587646817457
57 -0.24200015951181744 1.176617822465907 1.2283566558076058
41 0.6210643929285931 -0.05432858397178564 -0.16168111160531015
42 1.4457551807485527 0.011333336590276383 0.282801771884192
21 0.2527015847231215 -0.13939444455368397 0.011300409617739673
43 -0.6049634387561544 1.3268723550576718 0.8902789129946599
22 1.1100492975379999 -1.3661404462544235 0.9270066136145154
25 0.017628034061100514 -0.5802544271595024 -0.8368352449321145
23 0.7287678822415179 0.6301401158286681 0.5686552226269799
24 0.4564078064048791 -0.9032755539805669 0.26135778595822057
10 -1.163121402770733 -0.07541669797066616 0.4487916917965526
56 0.04117101028054014 0.11061362698586472 0.29472522218503633

Bonds

1 1 59 60
2 1 59 61
3 1 36 37
4 1 36 38
5 1 36 39
6 1 36 40
7 1 62 63
8 1 62 64
9 1 1 2
10 1 1 3
11 1 1 4
12 1 1 5
13 1 16 17
14 1 16 18
15 1 16 19
16 1 16 20
17 1 53 54
18 1 53 55
19 1 6 7
20 1 6 8
21 1 6 9
22 1 6 10
23 1 11 12
24 1 11 13
25 1 11 14
26 1 11 15
27 1 44 45
28 1 44 46
29 1 50 51
30 1 50 52
31 1 31 32
32 1 31 33
33 1 31 34
34 1 31 35
35 1 47 48
36 1 47 49
37 1 26 27
38 1 26 28
39 1 26 29
40 1 26 30
41 1 41 42
42 1 41 43
43 1 21 22
44 1 21 23
45 1 21 24
46 1 21 25
47 1 56 57
48 1 56 58

Angles

1 1 60 59 61
2 2 37 36 38
3 2 37 36 39
4 2 37 36 40
5 2 38 36 39
6 2 38 36 40
7 2 39 36 40
8 1 63 62 64
9 2 2 1 3
10 2 2 1 4
11 2 2 1 5
12 2 3 1 4
13 2 3 1 5
14 2 4 1 5
15 2 17 16 18
16 2 17 16 19
17 2 17 16 20
18 2 18 16 19
19 2 18 16 20
20 2 19 16 20
21 1 54 53 55
22 2 7 6 8
23 2 7 6 9
24 2 7 6 10
25 2 8 6 9
26 2 8 6 10
27 2 9 6 10
28 2 12 11 13
29 2 12 11 14
30 2 12 11 15
31 2 13 11 14
32 2 13 11 15
33 2 14 11 15
34 1 45 44 46
35 1 51 50 52
36 2 32 31 33
37 2 32 31 34
38 2 32 31 35
39 2 33 31 34
40 2 33 31 35
41 2 34 31 35
42 1 48 47 49
43 2 27 26 28
44 2 27 26 29
45 2 27 26 30
46 2 28 26 29
47 2 28 26 30
48 2 29 26 30
49 1 42 41 43
50 2 22 21 23
51 2 22 21 24
52 2 22 21 25
53 2 23 21 24
54 2 23 21 25
55 2 24 21 25
56 1 57 56 58
