LAMMPS data file via write_data, version 19 Nov 2024, timestep = 1500000, units = lj

40 atoms
4 atom types
30 bonds
1 bond types
35 angles
2 angle types

-6 6 xlo xhi
-6 6 ylo yhi
-6 6 zlo zhi

Masses

1 1
2 1
3 1
4 1

Bond Coeffs # harmonic/omp

1 100 0.45

Angle Coeffs # harmonic/omp

1 100 180
2 100 109.471

Atoms # full

15 3 3 0 3.776943087852128 -0.3513137181727631 -3.23718907772386 0 0 0
12 3 3 0 3.4366494235668124 -0.3774564354119987 -2.6050917890275764 0 0 0
11 3 1 0 3.6245460406289296 -0.11160860981466798 -2.8966550803109543 0 0 0
39 10 4 0 -1.2170529555533256 -1.660406709145896 2.2282127353116667 0 0 0
38 10 2 0 -1.3534329876551117 -1.4244104752148443 1.8876504372719378 0 0 0
40 10 4 0 -1.4919633534931593 -1.1576856866415437 1.5209295730286156 0 0 0
35 9 2 0 1.4310071430002156 -0.10990060794102392 5.070632399242608 0 0 0
36 9 4 0 1.0189874723951275 -0.33573176376449376 5.0006718222001325 0 0 0
20 4 3 0 2.5752225582260557 -0.47981419395261804 4.860753674440327 0 0 0
18 4 3 0 2.4647085627825955 -0.05548882823670004 4.264128833065456 0 0 0
16 4 1 0 2.504980827923686 -0.05360532917480669 4.715994755993142 0 0 0
13 3 3 0 3.330228575375437 0.17719284607167982 -3.045255051675291 0 0 0
31 7 4 0 4.705368368587731 2.8006220186005457 -3.288175026264071 0 0 0
29 7 2 0 5.002921609687699 3.1313089261379217 -3.143663213383586 0 0 0
26 6 2 0 5.782605229091854 3.8457808979759363 -3.5177825506230795 0 0 0
28 6 4 0 5.610800757014448 3.737916870408924 -3.075753068947559 0 0 0
27 6 4 0 5.961494027826287 3.9487271369501857 -3.9113223399704844 0 0 0
34 8 4 0 4.125871762212049 0.46448985457195624 -2.779344514991555 0 0 0
32 8 2 0 4.355179289680065 0.828915234422356 -2.6452446732389787 0 0 0
14 3 3 0 3.962932581531858 0.11332619908684863 -2.7026728384851295 0 0 0
33 8 4 0 4.577351069700354 1.185643654002619 -2.512917885888676 0 0 0
30 7 4 0 5.318298705018853 3.4852422805956444 -2.99155155727852 0 0 0
1 1 1 0 5.421055313031149 3.9483718362969493 -2.543551622122692 0 0 0
2 1 3 0 5.2659239683512435 3.5343385498421553 -2.6062626264225695 0 0 0
5 1 3 0 5.064577687117439 4.243098436403496 -2.508033095110329 0 0 0
4 1 3 0 5.702678604023852 4.0634013642111535 -2.885489084032407 0 0 0
3 1 3 0 5.67224749546632 3.951709201622158 -2.131316200334173 0 0 0
23 5 3 0 4.615909421314585 4.951915884419343 3.034065283124842 0 0 0
25 5 3 0 5.230969494505934 5.296708402247714 2.7907336280992534 0 0 0
24 5 3 0 4.571909395011678 5.548013606857137 2.6339715369009005 0 0 0
8 2 3 0 1.8360933613266226 1.699335734882113 4.850360257539675 0 0 0
22 5 3 0 4.8044372049734045 5.611114497139105 3.3041873458758686 0 0 0
21 5 1 0 4.799237086523819 5.357475933276619 2.943690658793519 0 0 0
9 2 3 0 2.2655393805003494 1.0626801085295652 4.9308175772611875 0 0 0
10 2 3 0 1.9812039176249088 1.427152909625265 5.52417680836537 0 0 0
7 2 3 0 2.491666812245817 1.7332602886394395 5.146541373637834 0 0 0
17 4 3 0 2.1342240244594444 0.10633889830567234 4.907557581411161 0 0 0
19 4 3 0 2.865839617823677 0.2032655876848654 4.835132129970753 0 0 0
6 2 1 0 2.149873180113923 1.4865140637183751 5.116754799866976 0 0 0
37 9 4 0 1.8135394203419954 0.10514194275925065 5.132094211600162 0 0 0

Velocities

15 -0.06324513721240896 -0.35484086071152926 0.22617395067095566
12 0.19330621285959312 0.1598342749121226 0.23950307610818589
11 -0.13853151027013683 0.43117047263292924 -0.15186612636062052
39 0.37836966402717764 -0.37678735579699507 -0.169883536742139
38 -0.10234040174946507 -0.104670398268491 -0.2887042023351822
40 -0.4552746443322184 -0.08040529363850903 0.16788784778442578
35 0.3703145928059429 -0.2516147400195709 -0.3016182138986877
36 -0.3438965416148839 0.3057809649695129 -0.06238012535476856
20 0.16689860870734272 -0.09725575488803002 -0.05044033584516064
18 0.3097495384825956 -0.2381347933666772 -0.07865818377420243
16 0.5930715986902284 -0.22515258081489775 0.17781905054416497
13 -0.49459819004454364 -0.0028451633281083547 0.045783285327232526
31 -0.4057248073309305 0.13969412165388703 0.6296380006374435
29 -0.05710908606684963 0.16246517795633364 -0.26677070987186224
26 -0.6332711013102748 0.03333894259332805 -0.3004932590247285
28 0.07024090232121716 -0.16506124530673513 -0.09670912059850875
27 0.3319688980183129 -0.04373401220274114 0.5108379809220895
34 0.33819512903788623 -0.06552419547631304 -0.3529979757787865
32 0.17463279807876825 0.1045001910546978 -0.2598365872637463
14 -0.049319333242514383 -0.21125185473409291 0.4901444945176275
33 -0.07221354871313054 -0.09539232299131983 0.04658657306257505
30 0.19525076701827337 0.4019014681610063 -0.1485876069081045
1 0.12957526112567272 0.2711318995026488 0.016872449334603315
2 -0.722739650983923 0.3418520201897248 -0.19188694344694104
5 0.27949566227302847 -0.08351881677223452 -0.20895328738022578
4 0.0861661451983327 0.2474089303546483 -0.05726367993965931
3 0.027892786954708704 0.30986081497175644 0.1845628631937452
23 -0.13345634251024416 0.04060459292806947 0.1770236137839879
25 0.11272201008043944 0.01739183979832374 -0.09501991266218068
24 0.27942837902678563 -0.1783871098624197 -0.20892545524456121
8 0.15108541131595593 0.05803488509910532 -0.012093763176614982
22 -0.46125245891339145 0.5072659305276805 -0.05416446492129413
21 0.12966409635782233 -0.06820934495983084 0.07295881161107573
9 -0.028654211084655264 -0.035222932509845484 0.27263203021880167
10 0.32633848856774755 -0.020074993958801565 -0.3271174735384712
7 -0.19455486416497964 -0.2952349933914105 0.3922155762990418
17 0.13370861464624778 0.2967032326138678 0.22939440005394518
19 0.324277399593771 -0.15254566497800973 -0.04201577354353801
6 0.4845703521381965 0.19537928242076869 0.17463841729307505
37 -0.034924163612888914 0.020976196355393877 0.13742394364547825

Bonds

1 1 11 12
2 1 11 13
3 1 11 14
4 1 11 15
5 1 38 39
6 1 38 40
7 1 35 36
8 1 35 37
9 1 16 17
10 1 16 18
11 1 16 19
12 1 16 20
13 1 29 30
14 1 29 31
15 1 26 27
16 1 26 28
17 1 32 33
18 1 32 34
19 1 1 2
20 1 1 3
21 1 1 4
22 1 1 5
23 1 21 22
24 1 21 23
25 1 21 24
26 1 21 25
27 1 6 7
28 1 6 8
29 1 6 9
30 1 6 10

Angles

1 2 12 11 13
2 2 12 11 14
3 2 12 11 15
4 2 13 11 14
5 2 13 11 15
6 2 14 11 15
7 1 39 38 40
8 1 36 35 37
9 2 17 16 18
10 2 17 16 19
11 2 17 16 20
12 2 18 16 19
13 2 18 16 20
14 2 19 16 20
15 1 30 29 31
16 1 27 26 28
17 1 33 32 34
18 2 2 1 3
19 2 2 1 4
20 2 2 1 5
21 2 3 1 4
22 2 3 1 5
23 2 4 1 5
24 2 22 21 23
25 2 22 21 24
26 2 22 21 25
27 2 23 21 24
28 2 23 21 25
29 2 24 21 25
30 2 7 6 8
31 2 7 6 9
32 2 7 6 10
33 2 8 6 9
34 2 8 6 10
35 2 9 6 10
