LAMMPS data file via write_data, version 19 Nov 2024, timestep = 1000000, units = lj

79 atoms
4 atom types
54 bonds
1 bond types

-3.045986 3.045986 xlo xhi
-3.045986 3.045986 ylo yhi
-3.045986 3.045986 zlo zhi

Masses

1 1
2 1
3 0.1
4 0.1

Bond Coeffs # zero

1 0

Atoms # bond

17 5 2 -2.8283902761775237 -1.8554440387166224 -1.7237007338633001 0 0 1
18 5 4 -2.4021237740004824 -2.1133341727931203 -1.7660037818346017 0 0 1
16 4 4 -2.0195645020114936 -2.1844395773739302 -1.7618503756967623 0 0 1
14 4 2 -2.0238624247545762 -2.6576477076813454 -1.6004329253668028 0 0 1
63 20 4 -0.040183998857526715 -2.128058635232131 -1.60631435538944 0 0 1
31 9 4 -0.02621832623549797 -1.9506920211718501 -1.9612470445177899 0 0 1
29 9 2 -0.12133833690107161 -1.5146605771222055 -2.186699397291043 0 0 1
34 10 4 -0.0825586061938554 -0.8386602389803071 -2.717315551626565 0 0 1
32 10 2 -0.15892197823608528 -0.35350337715248364 -2.811078309861393 0 0 1
30 9 4 -0.2164583475666456 -1.078629133072561 -2.412151750064296 0 0 1
79 25 4 -3.016264258166035 -0.9128966302354397 2.986171089671096 1 0 0
67 21 4 -2.955009515023303 -0.44089111355373034 0.9912806427619076 1 0 1
65 21 2 -2.6313067105024626 -0.5179600039699644 1.3644788213149244 1 0 1
51 16 4 -2.648380121689351 -0.8702738232868912 2.8453655063007237 1 0 -1
52 16 4 -2.121362852056619 -0.8141753506400048 1.9973644692283679 1 0 -1
66 21 4 -2.3076039059816225 -0.5950288943861988 1.7376769998679416 1 0 1
50 16 2 -2.384871486872985 -0.8422245869634479 2.421364987764546 1 0 -1
37 11 4 -2.7987726843684078 0.9819373161877292 -2.7105955386685054 1 0 1
53 17 2 -1.9681299888541393 0.8020280202689498 -2.570378523615752 1 -1 1
55 17 4 -2.4424533904109187 0.9600558975865954 -2.563707637174908 1 -1 1
33 10 4 -0.2352853502783152 0.13165348467534016 -2.9048410680962213 0 0 1
8 2 3 -0.5046663619734388 1.0805335245800483 -2.689990136717277 0 0 1
7 2 3 -1.1064065477952516 0.7025288370291188 -2.445202054988323 0 0 1
6 2 1 -0.7633725364901885 0.7003142756835196 -2.751670263463463 0 0 1
9 2 3 -0.5052098893687729 0.32054940781164637 -2.685106814322972 0 0 1
76 24 4 -0.6807283555549786 1.4058919450604663 -2.5192380165802035 0 0 1
54 17 4 -1.4938065872973598 0.6440001429513047 -2.577049410056596 1 -1 1
15 4 4 -2.028160347497659 2.96111616201124 -1.4390154750368434 0 -1 1
74 24 2 -0.34906912872717705 1.7799659281633975 -2.5276530284955316 0 0 1
75 24 4 -0.017409901899375524 2.1540399112663287 -2.5360680404108598 0 0 1
11 3 2 -2.5291996496029676 0.9740970043309731 -0.1794423486725939 1 0 -1
13 3 4 -2.2896442313944667 1.4129105291932693 -0.18691844422841766 1 0 -1
42 13 4 -2.9610603725634426 0.21803669602842302 -0.020600750863040307 1 0 0
12 3 4 -2.768755067811469 0.535283479468677 -0.1719662531167702 1 0 -1
49 15 4 -2.929872416504246 1.9622302725849985 -1.0617495573672813 0 -1 1
25 7 4 -1.9384853887519633 2.688375238458438 -1.175675653623475 0 0 0
24 7 4 -2.883706555164299 2.366971349610521 -1.1186100177287466 0 0 0
23 7 2 -2.4110959719581313 2.5276732940344795 -1.1471428356761109 0 0 0
45 14 4 -2.083728709467913 1.7600094908469963 -0.2155563827240882 1 -1 0
41 13 2 -3.01750654447405 0.06538530577693681 0.4521691537744298 1 0 0
21 6 4 -1.3396173475906072 1.2316222172735714 1.2987340038428852 1 0 0
46 14 4 -1.7990601318192008 2.070347233641621 0.6914465314374 1 -1 0
22 6 4 -1.6495059971627177 2.152591427831514 1.0625460742803272 1 0 0
44 14 2 -1.941394420643557 1.9151783622443088 0.23794507435665604 1 -1 0
20 6 2 -1.4945616723766624 1.6921068225525426 1.180640039061606 1 0 0
26 8 2 -1.0177235940292864 1.0401164778073801 2.0893938003373846 1 0 0
27 8 4 -1.0992559773433834 1.1324544785378268 1.604805145814634 1 0 0
10 2 3 -0.93800208548002 0.6977366273185559 2.9197094442290425 0 0 0
28 8 4 -0.9361912107151894 0.9477784770769336 2.5739824548601353 1 0 0
19 5 4 2.8373152216454347 -1.5975539046401246 -1.6813976858919983 -1 0 1
77 25 2 2.6292383932433494 -1.096128383559196 -2.975067420575654 0 0 1
78 25 4 2.1827690446527335 -1.2793601368829521 -2.844333930822404 0 0 1
62 20 2 0.17937822817024202 -2.528830367351128 -1.403399478662972 0 0 1
64 20 4 0.3989404551980102 -2.9296020994701246 -1.2004846019365043 0 0 1
39 12 4 1.5928666096714525 -2.2374386869728915 -0.9338565057361955 -1 0 1
60 19 4 1.8649217847770247 -1.977691800657528 -1.014839727217239 0 0 1
38 12 2 1.597859603579989 -2.6672345956216064 -0.678414639706516 -1 0 1
59 19 2 2.3163316427674214 -1.8144961015946002 -1.1548265262963462 0 0 1
61 19 4 2.7677415007578183 -1.6513004025316724 -1.2948133253754528 0 0 1
43 13 4 3.018019283615343 -0.08726608447454928 0.9249390584118999 0 0 0
36 11 4 2.39395086261384 1.4030624705365837 -2.8289417431679342 0 0 1
35 11 2 2.8435750891227163 1.1924998933621564 -2.76976864091822 0 0 1
57 18 4 0.2670740501639247 2.228129720898697 -2.2630442375093516 0 0 1
56 18 2 0.736972954387673 2.1479270944190567 -2.413916894127747 0 0 1
58 18 4 1.2068718586114213 2.067724467939416 -2.5647895507461422 0 0 1
70 22 4 1.4718311404104425 1.8033670954912213 -2.4352187751821064 0 0 0
68 22 2 1.8020872287698873 1.6682207708945416 -2.7854563903087466 0 0 0
73 23 4 0.3974808909604943 3.0094542103852846 -0.8191999640511234 0 -1 0
72 23 4 0.9085085106860507 2.156919029988886 -0.7094979218437388 0 -1 0
3 1 3 1.2288461368271766 2.240710623919804 -0.449722704025706 -1 -2 0
71 23 2 0.6529947008232726 2.5831866201870852 -0.7643489429474312 0 -1 0
47 15 2 2.673481007339156 1.9859641285377454 -0.9583639146673177 -1 -1 1
5 1 3 1.6895022740350107 2.7455519545076132 -0.13376201947294475 -1 -2 0
1 1 1 1.6643869022785929 2.3290947384832004 -0.3163342115579359 -1 -2 0
40 12 4 1.6028525974885257 2.9949414957296794 -0.42297277367683606 -1 -1 1
48 15 4 2.1848624311825584 2.0096979844904923 -0.8549782719673542 -1 -1 1
2 1 3 1.939742210225485 2.308083147043331 -0.6842173008820065 -1 -2 0
4 1 3 1.8027707602823704 2.0120507428718417 -0.007088334154920106 -1 -2 0
69 22 4 2.1323433171293322 1.5330744462978616 2.956277994564613 0 0 -1

Velocities

17 0.07132036250738297 -0.34257357170549924 -0.042498702140428855
18 0.16133519925241901 -0.1481896189213396 -0.32047853116977354
16 -1.306270491679144 -0.21189212452153328 0.21902294192080823
14 -0.30936089116936366 -0.3052886576365418 -0.028232595111496513
63 0.4219451349699826 0.22744072402530469 -0.31173161256012855
31 0.5511254704654007 0.35520504965422167 0.6154067420655913
29 0.1914593841475668 0.09847752975020752 0.2706339849473288
34 -0.03631647757148847 0.3571638343643648 -0.25704970693181706
32 0.02768285895262948 0.4523083551243496 0.18313371710112314
30 -0.1682067021702669 -0.1582499901538068 -0.07413877217093334
79 0.45594727733581364 -0.15022878641253423 -0.41046708515828495
67 -0.16798679309308687 0.05978753310179605 -0.10226060454361605
65 0.0002613503175393373 0.12352268198709497 -0.2350329531774175
51 0.03409372677873562 -0.9936059938469505 0.14704051518722683
52 0.4647828637986474 1.0193910007408165 0.5478733621202375
66 0.16850949372816582 0.1872578308723939 -0.3678053018112188
50 0.24943829528869152 0.012892503446933028 0.3474569386537322
37 -0.26680753084563225 -0.1928612130911045 0.9899309944189478
53 -0.4292821741923214 -0.18082428288605334 0.06937817168707267
55 -0.2576652613666205 0.3317146135594349 0.13031220373143562
33 0.09168219547674747 0.5474528758843346 0.6233171411340637
8 -0.11091497404782735 0.05664999906159604 0.36245461933497697
7 -0.231802909780513 -0.38356748801530793 -0.6145022687587911
6 0.3248325572070269 -0.18219055545443152 0.0070921747644139025
9 0.5280550299608004 0.057637103512334587 0.5871953424557599
76 0.16378885844086485 -0.18567526988889657 -0.3410457072412366
54 -0.6008990870180219 -0.6933631793315415 0.008444139642709729
15 0.6875487093404166 -0.39868519075155023 -0.2754881321438012
74 0.15027152932813742 -0.1701641311525142 -0.18428223018974063
75 0.13675420021541 -0.15465299241613184 -0.0275187531382447
11 0.04104694413675635 0.11746110140289413 -0.10122252135518019
13 0.4447706863880794 -0.10030194840075285 0.05351579598930013
42 0.3161018690459515 -0.2790974929023415 0.2601435626139674
12 -0.3626767981145667 0.33522415120654114 -0.2559608386996605
49 -0.2645172631323821 0.5194777312962047 0.3547184853494944
25 0.3143794793670277 -0.1903212857560453 0.7998000248757362
24 0.07351394100221342 0.2298294387058445 -0.8234733676838143
23 0.19394671018462076 0.019754076474899747 -0.011836671404039309
45 -0.4053577341406349 0.0650803385472351 0.14532504111275982
41 -0.15357890823919348 0.0976420007907994 0.3257106075402387
21 0.5739220718095088 -0.13231318766698058 -0.3345485385511916
46 0.8769053901005854 -0.05207297273979267 -0.21703644685142676
22 -0.5422863332067797 -0.441753493973043 -0.07663815011239383
44 0.23577382797997554 0.006503682903721191 -0.03585570286933355
20 0.015817869301364456 -0.2870333408200118 -0.20559334433179272
26 0.03442154261220955 -0.0812602086041831 0.011522436816947536
27 -0.15705689762282402 0.0669240240662506 0.07197521278844113
10 1.088357125557244 -0.45596560870307656 -0.30824469093904855
28 0.22589998284724316 -0.22944444127461683 -0.04893033915454607
19 -0.018694474237653066 -0.5369575244896588 0.23548112688891576
77 0.375412580862091 0.22301736107710782 -0.16237248741201668
78 0.29487788438836826 0.5962635085667497 0.08572211033425156
62 0.1987712299427016 0.27073626294520503 0.01526357280359012
64 -0.024402675084579467 0.31403180186510554 0.34225875816730866
39 1.2990337882694187 0.059056445267873056 0.3066076132692167
60 0.5690663900336843 0.5290349989830478 1.4965320319828888
38 0.2420551540314544 -0.07766173521266602 0.0972314935378693
59 0.4132494418639846 -0.08737302524002104 0.27547086056294534
61 0.2574324936942862 -0.7037810494630896 -0.945590310856999
43 -0.6232596855243384 0.47438149448394024 0.39127765246651003
36 0.37019773675759715 0.8213047110430525 -0.24150030273533224
35 0.05169510295598232 0.314221748975974 0.3742153458418078
57 -0.40157444056523295 -0.5763405905532356 -0.10292043248550087
56 -0.3084932483281631 0.09993833570821775 -0.172519497805334
58 -0.2154120560910931 0.7762172619696713 -0.2421185631251672
70 0.18182196304438525 -0.5872090358018599 0.37908181956619336
68 0.10476270771938864 -0.22830701125595176 0.1679292347232676
73 0.12925068464843323 -0.07366614546381725 -0.5129970061400901
72 0.16172818685400459 0.06091444882117817 0.38158789497182755
3 -0.04302791727711367 0.5501307162621546 -0.25852235456800154
71 0.14548943575121892 -0.006375848321319562 -0.06570455558413126
47 -0.3410563602237399 0.1854479548496641 0.06966333384739139
5 0.29134185038679494 0.02611349858125847 0.09125554267336716
1 0.03176615867681614 0.20065526868660574 -0.2711755532463066
40 -0.8149234802065106 -0.2143799156932057 -0.11214462619347787
48 -0.41759545731509773 -0.14858182159687638 -0.2153918176547116
2 -0.056007041058895236 0.37893838715074124 -0.3470551717952167
4 -0.07252139354739351 -0.14597869168562772 -0.5798829895237247
69 0.02770345239439212 0.1305950132899565 -0.043223350119658416

Bonds

1 1 17 18
2 1 17 19
3 1 14 15
4 1 14 16
5 1 29 30
6 1 29 31
7 1 32 33
8 1 32 34
9 1 65 66
10 1 65 67
11 1 50 51
12 1 50 52
13 1 53 54
14 1 53 55
15 1 6 7
16 1 6 8
17 1 6 9
18 1 6 10
19 1 74 75
20 1 74 76
21 1 11 12
22 1 11 13
23 1 23 24
24 1 23 25
25 1 41 42
26 1 41 43
27 1 44 45
28 1 44 46
29 1 20 21
30 1 20 22
31 1 26 27
32 1 26 28
33 1 77 78
34 1 77 79
35 1 62 63
36 1 62 64
37 1 38 39
38 1 38 40
39 1 59 60
40 1 59 61
41 1 35 36
42 1 35 37
43 1 56 57
44 1 56 58
45 1 68 69
46 1 68 70
47 1 71 72
48 1 71 73
49 1 47 48
50 1 47 49
51 1 1 2
52 1 1 3
53 1 1 4
54 1 1 5
