LAMMPS data file via write_data, version 4 Feb 2025, timestep = 4000000, units = lj

2000 atoms
4 atom types
1500 bonds
1 bond types
1750 angles
2 angle types

-8.346487 8.346487 xlo xhi
-8.346487 8.346487 ylo yhi
-8.346487 8.346487 zlo zhi
8.526512829121202e-14 0 0 xy xz yz

Masses

1 1
2 1
3 0.1
4 0.1

Bond Coeffs # harmonic/omp

1 100 0.45

Angle Coeffs # harmonic/omp

1 100 180
2 100 109.471

Atoms # full

1015 203 3 0 -5.954159960598286 -7.914633769078701 -7.9377956216532075 27 1 0
1011 203 1 0 -5.670051721983455 -7.5627985117318435 -7.9131126736155 27 1 0
1013 203 3 0 -5.26766562191702 -7.718781845825986 -7.7820020276476 27 1 0
1771 424 4 0 -5.016017074898318 -7.99309207944798 -7.657158231685235 29 1 1
1770 424 2 0 -4.544455978792345 -8.029727360017457 -7.676762359451316 29 1 1
1772 424 4 0 -4.073624789343258 -8.061676580375323 -7.685257751778948 29 1 1
708 142 3 0 -3.717078085250802 -7.956304989375638 -7.759986985723469 32 1 0
706 142 1 0 -3.2907348904051847 -8.06608586951967 -7.888222065681375 32 1 0
710 142 3 0 -3.1065391430033618 -7.7153604183470845 -8.110104429874195 32 1 0
709 142 3 0 -3.0372114907572234 -8.164326978876511 -7.503594726344998 32 1 0
35 7 3 0 7.159270169948742 -8.146171075466766 -7.956219920158115 10 0 0
1014 203 3 0 -5.826453634797926 -7.248604502931692 -7.598834948125431 27 1 0
1012 203 3 0 -5.640176659578106 -7.371352459155947 -8.313254622185598 27 1 0
533 107 3 0 -0.15651814892630966 -6.832702647739986 -8.13974050215205 8 0 0
532 107 3 0 0.549160906530247 -6.670266566217727 -8.209637149271128 8 0 0
195 39 3 0 -5.778910155205057 -6.009559786902189 -7.458024723121231 31 1 0
925 185 3 0 -5.4638503604632 -5.856454100348162 -7.992058468347422 28 1 1
684 137 3 0 0.49419445161002784 -5.704782887650231 -8.197741232853588 28 1 0
1164 233 3 0 -7.046664124762853 -4.7200355171156145 -8.08112998496602 29 1 1
1161 233 1 0 -6.6029659354759485 -4.789508669374614 -8.07790234362863 29 1 1
1528 343 4 0 -6.812595385116257 -5.14262650672986 -7.551064841707057 11 0 1
1165 233 3 0 -6.472311931508223 -4.983816269033406 -7.6707346932095595 29 1 1
81 17 1 0 -1.8313980437295143 -5.068495639563858 -7.835816659771798 29 1 0
85 17 3 0 -1.7931970884919206 -5.478760838956267 -7.573715806484194 29 1 0
83 17 3 0 -1.4199074844240185 -4.92150276143639 -7.954203814380384 29 1 0
84 17 3 0 -2.0349378860086578 -4.765026350700086 -7.583537161581084 29 1 0
82 17 3 0 -2.060729763617819 -5.15106117749766 -8.191094374116107 29 1 0
1781 427 4 0 -1.13508259467267 -5.066477091323924 -7.737046729344165 9 0 0
1779 427 2 0 -0.7264813457664401 -5.19076024237103 -7.724568636688557 9 0 0
1780 427 4 0 -0.3168893725675801 -5.3211236401883415 -7.712332528828608 9 0 0
681 137 1 0 0.4282152603577103 -5.358111133776513 -7.938186307224043 28 1 0
685 137 3 0 -0.010738900308364663 -5.248401153825135 -7.936502981088088 28 1 0
682 137 3 0 0.5565431793516069 -5.468833653659152 -7.502179025582505 28 1 0
683 137 3 0 0.6948193064455594 -4.984020587634296 -8.088519980340633 28 1 0
1376 292 4 0 1.0729186910081037 -5.079201957712634 -7.960518248181448 6 0 0
1374 292 2 0 1.4956131880174066 -5.030285062154959 -7.818931045855092 6 0 0
1375 292 4 0 1.9220825294719397 -4.983743296146665 -7.678163173224186 6 0 0
498 100 3 0 2.1361687530869897 -4.653931522860397 -7.6220468336376985 8 0 0
497 100 3 0 2.765834863897812 -4.92431716336262 -7.84133280812477 8 0 0
258 52 3 0 6.188444213218833 -5.008878469715439 -8.17630146713336 8 0 1
1894 465 4 0 -7.326383937734666 -4.629505008617629 -7.799961822941448 31 1 1
1887 463 2 0 -5.8537973299717105 -4.006139544250281 -8.021244299077026 13 0 1
1888 463 4 0 -6.046925048705378 -4.288435182848194 -8.316143564536162 13 0 1
1163 233 3 0 -6.383172646058371 -4.37156321806555 -8.130773615044452 29 1 1
1889 463 4 0 -5.661571583138338 -3.726122771194829 -7.738787378898875 13 0 1
496 100 1 0 2.5406215886705734 -4.558625653138247 -7.751899553485948 8 0 0
500 100 3 0 2.521061640947721 -4.299700775827923 -8.13289092761617 8 0 0
1600 367 4 0 2.662183514532538 -3.9490988092139574 -8.042563690052749 9 0 1
983 197 3 0 -5.42970078868791 -3.377777384728562 -7.725930903973995 12 0 1
1404 302 2 0 -7.010945057534671 -8.335952918347497 -6.697007741850262 9 0 0
1813 438 4 0 -2.746825070896456 -8.143931942034348 -7.206151489697851 10 0 0
1812 438 2 0 -2.3516170950945945 -8.251974661402334 -7.337381924280711 10 0 0
1135 227 3 0 -1.601165245896781 -8.179879186292156 -7.35562053481305 27 1 1
1424 308 4 0 -1.6260460686052154 -7.656807712293827 -6.7012726450027955 7 0 0
1132 227 3 0 -1.3755941877267333 -7.979459187273583 -6.681789822391687 27 1 1
1133 227 3 0 -1.0560392541282804 -7.7116002026980475 -7.263341144825607 27 1 1
1131 227 1 0 -1.2401164892921033 -8.059462862642246 -7.109508881077117 27 1 1
1089 218 3 0 0.4558510869431789 -7.934076609240923 -6.8702700430557835 28 1 1
1086 218 1 0 0.47859201635909976 -8.289771339796978 -6.600431530533412 28 1 1
1478 326 4 0 5.276599017047133 -8.064930212993257 -7.305054145521794 8 0 1
1627 376 4 0 5.6503971971013485 -8.138107517789043 -7.278316910622154 31 1 0
1476 326 2 0 4.876153698823387 -8.294593885860781 -7.21177022154481 8 0 1
1626 376 2 0 6.037915081338147 -8.338699372918153 -7.36718631500828 31 1 0
1730 410 4 0 -6.107330505669221 -7.1035891106266424 -7.333833231020621 27 1 0
1728 410 2 0 -6.035006346747871 -6.784156355681139 -7.040511257918288 27 1 0
780 156 3 0 -2.962787210984935 -6.9397344038112525 -6.898846912302994 28 1 0
1422 308 2 0 -1.8926450484988768 -7.349124591233351 -6.5620751222199445 7 0 0
540 108 3 0 -6.700069891069521 -5.8698108315278 -6.62690943868059 10 0 1
1729 410 4 0 -5.964848340610533 -6.4527762503116 -6.732720284820684 27 1 0
194 39 3 0 -5.110706395797653 -5.695443126231406 -7.37414363562003 31 1 0
191 39 1 0 -5.553795995168361 -5.679348635421137 -7.251086939713869 31 1 0
192 39 3 0 -5.57590858571695 -5.740384890766391 -6.805829546238753 31 1 0
1527 343 2 0 -6.673454401515348 -5.333432626920803 -7.146470203150859 11 0 1
1002 201 3 0 -7.029644253582674 -5.010082106238382 -6.546450620746132 31 1 1
1529 343 4 0 -6.545470783466438 -5.518239823316067 -6.751947735666022 11 0 1
193 39 3 0 -5.727063328915293 -5.293610196021409 -7.366514196026955 31 1 0
894 179 3 0 3.582463254299654 -5.373123893801791 -6.607309245777709 28 1 0
1895 465 4 0 -7.537341286838725 -4.3068523430334595 -7.005691864413222 31 1 1
1893 465 2 0 -7.428839134495482 -4.4719166246713025 -7.419094838123499 31 1 1
1003 201 3 0 -7.368335402721287 -4.356571226045048 -6.624318528656512 31 1 1
1304 268 4 0 -6.62834525559846 -4.153323591937877 -6.6677395190828 12 0 0
1302 268 2 0 -6.303631168621177 -3.8904868551135374 -6.744486077203762 12 0 0
499 100 3 0 2.7617820794193637 -4.334959165487343 -7.413106392023056 8 0 0
1643 381 4 0 3.034904103219068 -4.039937647468762 -7.3507652618258685 28 1 0
1641 381 2 0 3.2782069875718687 -4.029223092129763 -6.997372809745593 28 1 0
1642 381 4 0 3.5375446038567055 -4.00430860233055 -6.615663659859234 28 1 0
1268 256 4 0 8.020348186564835 -3.911317384661742 -6.670801278975222 8 0 0
5 1 3 0 -7.752907688277702 -3.0436140526024023 -6.741563928233819 14 0 0
1267 256 4 0 -7.970944801249509 -3.3583603294335322 -6.9001595850444986 9 0 0
1266 256 2 0 -8.339329666058003 -3.6577708016264534 -6.779354688356264 9 0 0
1 1 1 0 -7.309698169928224 -3.0196806112657075 -6.731218937863276 14 0 0
3 1 3 0 -7.140269176012325 -3.394551596669465 -6.506193396352141 14 0 0
2 1 3 0 -7.1231505878914705 -3.0080817365181964 -7.1748161592729724 14 0 0
1625 375 4 0 -6.830174104672125 -2.877415032237119 -7.405006319698838 14 0 0
1303 268 4 0 -5.965936721098652 -3.607686071022319 -6.821662528761474 12 0 0
984 197 3 0 -5.700347580275611 -2.839064017030947 -7.2820955093875135 12 0 1
982 197 3 0 -5.619412057045624 -3.5590253440790534 -7.037815454732756 12 0 1
981 197 1 0 -5.440189810891808 -3.2409389879415276 -7.318905678488525 12 0 1
985 197 3 0 -5.018470979230415 -3.1572980705147664 -7.185409245197737 12 0 1
1639 380 4 0 -4.7790283188143725 -3.306509987590256 -6.894586397586625 11 0 0
504 101 3 0 -2.631506104639823 -3.683939374956756 -6.597201827894185 6 0 1
4 1 3 0 -7.1867379890508385 -2.6322790801358122 -6.505431571858141 14 0 0
1624 375 4 0 -5.986318609041328 -2.5695739502630133 -7.30888655489841 14 0 0
1623 375 2 0 -6.414582390395717 -2.7266950621615376 -7.354830975501018 14 0 0
510 102 3 0 1.4188509756847818 -0.22019884653746757 -6.6355051499098705 15 0 1
508 102 3 0 2.139113207541673 -0.3307908002974216 -6.700521255348549 15 0 1
1405 302 4 0 -6.80883785942772 -8.22340983412538 -6.315079431115996 9 0 0
872 175 3 0 -2.747768714038725 -8.198802683105106 -6.434830988882516 29 1 0
873 175 3 0 -2.1280284672583747 -8.296293851674434 -6.0988234597708795 29 1 0
1673 391 4 0 -1.7259539545761804 -8.261216690435333 -6.210888594117348 27 1 0
1912 471 4 0 0.637714062750403 -8.114451591431285 -5.817471776251217 31 1 1
1088 218 3 0 0.5205428305897737 -8.153565123205745 -6.1920749867701765 28 1 1
779 156 3 0 -3.129160117690841 -6.587845425202216 -6.257082903896505 28 1 0
778 156 3 0 -3.223517759711818 -7.314297546343361 -6.318352187995389 28 1 0
777 156 3 0 -2.5450206229040653 -7.050849654842666 -6.301495256925841 28 1 0
776 156 1 0 -2.9707504745932765 -6.979699904671406 -6.435206297365154 28 1 0
1423 308 4 0 -2.164970893764388 -7.0260674750927805 -6.41029621313081 7 0 0
1354 285 4 0 -1.4169719165895627 -6.694770774874259 -5.7879414014382204 10 0 0
1139 228 3 0 -1.0394883245668955 -6.796085203803582 -5.645011767906503 27 1 0
1138 228 3 0 -0.3341312601432609 -6.854543512175786 -5.8311156805739195 27 1 0
1630 377 4 0 0.04939343759801673 -6.712307004610952 -5.8108310521468844 11 0 0
1629 377 2 0 0.4837557948322466 -6.772408904285229 -5.8920494805201535 11 0 0
813 163 3 0 1.262698047235686 -6.687147279455104 -5.873496596644891 26 1 0
1631 377 4 0 0.9000996052380774 -6.840081747846783 -5.9698265990051755 11 0 0
814 163 3 0 1.8246530278158701 -7.094431931650579 -6.098330817392513 26 1 0
811 163 1 0 1.6980600985299894 -6.681361109816743 -5.992251195884668 26 1 0
815 163 3 0 1.9400070172674333 -6.548651633156087 -5.657204896773666 26 1 0
539 108 3 0 -6.911872175456393 -6.384747007124266 -6.139844077183519 10 0 1
538 108 3 0 -6.215527575097213 -6.384293841709378 -6.424555820616437 10 0 1
536 108 1 0 -6.563381459760479 -6.120624895299745 -6.28565945743816 10 0 1
537 108 3 0 -6.425450457059984 -5.844826433847443 -5.942753933185847 10 0 1
1669 390 4 0 -4.146506444138074 -6.238300053873303 -5.686850619067649 27 1 0
1670 390 4 0 -3.431854638310102 -6.332947057140343 -6.234132712458979 27 1 0
1668 390 2 0 -3.7845316959812045 -6.292834685877937 -5.9663659444922725 27 1 0
1451 317 4 0 2.019233133295211 -6.109735296379991 -6.307120852846774 6 0 0
812 163 3 0 1.768900715601287 -6.402854478576633 -6.349383090381751 26 1 0
1449 317 2 0 2.307880280356068 -5.798312317612395 -6.384862201821596 6 0 0
1004 201 3 0 -7.285175245567329 -4.660676351766913 -5.931873655928936 31 1 1
1417 306 4 0 -6.167737229156954 -5.5568563818451455 -5.917888990126983 13 0 0
754 151 3 0 -0.7605547855620243 -4.707567052235588 -5.866182012547016 8 0 0
1450 317 4 0 2.6213191925980617 -5.451075608153841 -6.471953356642238 6 0 0
892 179 3 0 2.8905468046810796 -5.1764919431379095 -6.470300564121142 28 1 0
895 179 3 0 3.4352864277647317 -4.786352880505593 -6.156366693699373 28 1 0
891 179 1 0 3.297151337179386 -5.204735582595234 -6.296271417781608 28 1 0
893 179 3 0 3.283360035622964 -5.481772750289334 -5.928174682398675 28 1 0
92 19 3 0 3.6514953934286734 -5.254802300682759 -5.657617448103905 12 0 0
1005 201 3 0 -6.673238742353007 -4.390094876774678 -6.340095416619907 31 1 1
1001 201 1 0 -7.095349044349353 -4.610448645517565 -6.366758745588453 31 1 1
1286 262 4 0 -4.744635195714901 -3.933214814048256 -5.735350055902533 11 0 0
866 174 1 0 -4.1351988050334105 -4.120717413824469 -5.7064906277516005 12 0 1
868 174 3 0 -4.390014582882026 -3.8535337390026 -5.937479422453921 12 0 1
867 174 3 0 -4.201118781421156 -4.5658370131310875 -5.8571720082375744 12 0 1
870 174 3 0 -3.69063467368468 -3.992704491295016 -5.767158918527288 12 0 1
501 101 1 0 -2.3740254749172047 -3.7256724630838622 -6.188126049786825 6 0 1
502 101 3 0 -2.217219539027673 -4.156983919353107 -6.150192326147736 6 0 1
1846 449 4 0 -1.9855216362459105 -4.301021006414042 -5.879224129317696 8 0 0
1845 449 2 0 -1.5592236011428575 -4.438202750306161 -5.862317826941286 8 0 0
751 151 1 0 -0.46729102404495393 -4.372067638972272 -5.713534954345336 8 0 0
753 151 3 0 -0.6013289209466484 -3.9786177719112388 -5.853947529466213 8 0 0
1847 449 4 0 -1.1197911040868282 -4.584229420242801 -5.858047161201862 8 0 0
1748 416 4 0 0.31886688852848266 -4.4621869791068125 -6.079572897707058 29 1 0
752 151 3 0 -0.05466814685158816 -4.457805460058703 -5.872812464709587 8 0 0
1746 416 2 0 0.7342134331445322 -4.207032333103424 -5.969819848207408 29 1 0
1747 416 4 0 1.1323949418611452 -3.973460058155835 -5.858285257065614 29 1 0
467 94 3 0 1.373361543878909 -3.7546716956114494 -5.610140631158179 12 0 1
1247 250 3 0 3.614594598372779 -4.200355872637158 -6.28069529846495 8 0 1
1248 250 3 0 3.7615985717731526 -4.017472554678407 -5.605509281905535 8 0 1
1246 250 1 0 3.783424778008376 -3.8816054407784124 -6.01213747177469 8 0 1
1249 250 3 0 4.22390941495833 -3.803437005489304 -6.129014330487516 8 0 1
733 147 3 0 4.928347348331229 -4.490914366164472 -6.373989804169204 9 0 0
732 147 3 0 4.953806549233658 -4.182781320111904 -5.711906404193564 9 0 0
731 147 1 0 5.152513883226186 -4.205069044318422 -6.102043890123791 9 0 0
735 147 3 0 5.571037669602381 -4.35180634898574 -6.059182733328705 9 0 0
734 147 3 0 5.158848522924181 -3.8009026420661307 -6.2849168664831465 9 0 0
1538 346 4 0 5.960322438396171 -4.313452974791013 -6.140822490491551 6 0 1
1536 346 2 0 6.413795336833406 -4.279031250936973 -6.129767723586735 6 0 1
1537 346 4 0 6.852093106606802 -4.251709851287465 -6.115889316674112 6 0 1
314 63 3 0 7.1643138110763225 -4.020965099698592 -6.012873401383842 12 0 1
313 63 3 0 7.64609717587107 -4.558611446730739 -6.010622460140955 12 0 1
311 63 1 0 7.589379403183569 -4.120471073267401 -6.051363378575214 12 0 1
315 63 3 0 7.728264858065494 -3.9930927553813165 -6.428647657853212 12 0 1
312 63 3 0 7.840377257653273 -3.896367047362877 -5.712812591216238 12 0 1
1750 417 4 0 8.205208082689143 -3.778947259223055 -5.787720449026293 11 0 0
1640 380 4 0 -4.688953586250495 -3.5827013034790394 -5.988710450861134 11 0 0
1638 380 2 0 -4.735221763601519 -3.4434460585651605 -6.450848602939683 11 0 0
505 101 3 0 -2.64177407445396 -3.625293043970128 -5.825176078825216 6 0 1
503 101 3 0 -2.0179830361109232 -3.447561800728498 -6.194286960234722 6 0 1
1459 320 4 0 -1.7111758434892588 -3.3238838206457277 -5.9995605922621085 12 0 0
1458 320 2 0 -1.3679816318314781 -3.0913613271828755 -6.043708697876479 12 0 0
1460 320 4 0 -0.9938353293762381 -2.843970938736363 -6.089191614483095 12 0 0
659 132 3 0 -0.2153260373718986 -3.031402676654035 -6.192448212786468 28 1 0
470 94 3 0 2.082115292603797 -3.5492505846033726 -5.608059965941154 12 0 1
1413 305 2 0 2.8357988739091518 -3.324084222782889 -5.841583847865607 7 0 0
1414 305 4 0 2.42993785949915 -3.3962882656773523 -5.711220630117936 7 0 0
1250 250 3 0 3.5490018352554777 -3.5145930281000446 -6.06379305514677 8 0 1
1415 305 4 0 3.2736950588233977 -3.245750307942714 -5.994763954292013 7 0 0
1507 336 4 0 4.428375403531209 -3.5938538805739055 -5.8528966225070125 8 0 1
1506 336 2 0 4.618757005544072 -3.280247992086 -5.598316696303554 8 0 1
1325 275 4 0 -6.853954520490047 -2.752009499765313 -6.353133582856403 14 0 0
1323 275 2 0 -6.515913158932596 -2.628781422135953 -6.096006311496306 14 0 0
1324 275 4 0 -6.137505071727553 -2.489165090830725 -5.818308367697556 14 0 0
429 86 3 0 -5.766021979175523 -2.55033135126554 -5.635049940328066 14 0 1
428 86 3 0 -5.2226788398143835 -2.7144638193406925 -6.1034980689211755 14 0 1
426 86 1 0 -5.3539563214272015 -2.6832661412976755 -5.662017693498969 14 0 1
1361 287 4 0 -4.248899342955216 -2.738375961557855 -5.584197697988807 13 0 0
588 118 3 0 -4.321809410951998 -2.344771812560394 -5.632609040258793 28 1 1
586 118 1 0 -4.481952620195749 -1.965991394682761 -5.609950286064766 28 1 1
658 132 3 0 -0.7794702562835667 -2.5058818002907994 -6.063365261328921 28 1 0
656 132 1 0 -0.3596684926946354 -2.6420103710479292 -5.931767596559908 28 1 0
657 132 3 0 -0.061421308420403165 -2.2899564145620666 -5.9985458512743355 28 1 0
330 66 3 0 -6.700967401836889 -1.218830634400354 -5.629886405815914 14 0 1
590 118 3 0 -4.564474379102585 -1.8198018592913945 -6.0211065566122715 28 1 1
509 102 3 0 1.7938545636665495 -0.5831951517660405 -6.114715406641055 15 0 1
506 102 1 0 1.8167382726622598 -0.24057097101410285 -6.42169853996567 15 0 1
248 50 3 0 -5.14177190604477 -7.924798130432271 -4.663491805033372 7 0 0
247 50 3 0 -4.6795290233709945 -8.079070386714688 -5.204429828408079 7 0 0
246 50 1 0 -4.770852909109866 -8.153755607706874 -4.781663848894674 7 0 0
1463 321 4 0 -0.7573398413336747 -7.476711383584219 -4.9329044435497025 8 0 0
1911 471 2 0 0.7374581311860879 -7.808484714727805 -5.487275198351351 31 1 1
1913 471 4 0 0.8385252461933099 -7.507202717700775 -5.159179722583523 31 1 1
602 121 3 0 -2.6940140120839997 -7.271092542661786 -4.642768514184265 11 0 1
603 121 3 0 -2.193170463497909 -6.837569069850795 -4.984050315597764 11 0 1
1355 285 4 0 -2.0514595678366563 -7.06851367773192 -5.267485216370282 10 0 0
1353 285 2 0 -1.7344893588852504 -6.882059429830394 -5.5293866878886355 10 0 0
1136 228 1 0 -0.631376592611038 -6.864216827006652 -5.487495121307741 27 1 0
1137 228 3 0 -0.6114974919258431 -7.281293398169708 -5.276745571697526 27 1 0
1140 228 3 0 -0.5175195064453018 -6.517566730176978 -5.164088984926591 27 1 0
767 154 3 0 0.7055130250025954 -7.381262738685671 -4.782514143015735 9 0 0
387 78 3 0 -4.742475089381744 -6.411910906390182 -4.777576347884091 10 0 0
390 78 3 0 -4.423195087876831 -6.146974015278078 -5.415689759989963 10 0 0
388 78 3 0 -4.470756614296695 -5.689275511877119 -4.840324162780326 10 0 0
386 78 1 0 -4.402518429365218 -6.121122158855506 -4.97182768434548 10 0 0
389 78 3 0 -3.9952236133744083 -6.257944631407412 -4.826390160347568 10 0 0
1342 281 4 0 -3.7380682992824763 -6.009971551803298 -5.027126191494464 11 0 0
1341 281 2 0 -3.3143471554832127 -5.884403086168007 -4.939017454867807 11 0 0
1343 281 4 0 -2.8976369098919603 -5.768286401292771 -4.85071929757129 11 0 0
1348 283 4 0 -0.4084615601848638 -6.339999141475987 -4.8365713988178705 11 0 0
1262 254 4 0 2.2577061238364724 -6.3670611939703265 -5.5410545822847075 13 0 0
1260 254 2 0 2.6034221921361382 -6.13723068609883 -5.401265556540457 13 0 0
1261 254 4 0 2.96249201447503 -5.89721832218991 -5.2555869955900425 13 0 0
94 19 3 0 3.3481192077781827 -5.762965758293149 -5.213147357208793 12 0 0
1416 306 2 0 -6.186708682878814 -5.2697527351627755 -5.548826589924371 13 0 0
1418 306 4 0 -6.206892098549059 -4.973112458030217 -5.1912469038766265 13 0 0
407 82 3 0 -2.7484060888921364 -5.410818573833048 -4.711735321348448 7 0 0
1790 430 4 0 2.8146398303335225 -4.9650705958579415 -5.080939880675321 32 1 1
1788 430 2 0 2.485673765482204 -4.754123574224835 -5.286758239044587 32 1 1
93 19 3 0 3.227645387444401 -5.047215007509277 -5.026674662685659 12 0 0
91 19 1 0 3.531498516692727 -5.377298571657526 -5.211950666818744 12 0 0
95 19 3 0 3.9106423418533467 -5.394951384098954 -4.9529972890493354 12 0 0
1387 296 4 0 4.25368149626013 -5.254281627085169 -4.799617811504676 12 0 0
1386 296 2 0 4.666166772992408 -5.041882916680269 -4.847839915441475 12 0 0
1388 296 4 0 5.0467557469468165 -4.842338655924507 -4.889507859648052 12 0 0
858 172 3 0 5.434667001086266 -4.825656258616165 -4.775606227028584 11 0 0
856 172 1 0 5.841775802574309 -5.040805175524387 -4.662730040034772 11 0 0
860 172 3 0 5.975304170975059 -5.294970267692806 -5.01980432307915 11 0 0
1288 263 4 0 -7.912123948186761 -4.504659062022604 -4.783643581929563 13 0 0
1287 263 2 0 -7.438017530283641 -4.395676263481196 -4.902126339111909 13 0 0
1289 263 4 0 -7.010890246286932 -4.295397451844669 -4.99773190251395 13 0 0
55 11 3 0 -6.718505258819468 -4.067218577624456 -5.184801770964482 13 0 0
53 11 3 0 -6.2010304171185755 -4.605671544047295 -5.0572367888179315 13 0 0
52 11 3 0 -5.940911683427352 -3.8952555889031455 -5.149425477560666 13 0 0
51 11 1 0 -6.292257981974046 -4.174835397123866 -4.971337470377135 13 0 0
1284 262 2 0 -5.164941331791267 -3.9397324994792458 -5.544698109144019 11 0 0
1285 262 4 0 -5.58820561999422 -3.95327159328615 -5.352264261977915 11 0 0
869 174 3 0 -4.2412034858150145 -4.1003634902112065 -5.258882416860946 12 0 1
1736 412 4 0 -2.7832003687666544 -3.84289413573606 -5.501747127208937 27 1 0
1735 412 4 0 -2.622023666550506 -4.47501362742679 -4.884790735009895 27 1 0
1734 412 2 0 -2.697510646723096 -4.159256002667946 -5.181736185111802 27 1 0
1330 277 4 0 -0.7831815591679208 -4.32954476713008 -5.0222955947702275 6 0 0
1329 277 2 0 -0.9973111608465555 -4.5309594336535195 -4.668778795443955 6 0 0
755 151 3 0 -0.472127760493275 -4.3700646018453995 -5.265308596351314 8 0 0
1465 322 4 0 1.6125251147012722 -3.9381925160319096 -4.724198229124399 8 0 0
466 94 1 0 1.7829416854696305 -3.7900999163993205 -5.386212624489952 12 0 1
469 94 3 0 1.910899109703129 -4.218638149335322 -5.372074741061289 12 0 1
1789 430 4 0 2.143991053541244 -4.544310123889168 -5.518565099741129 32 1 1
1749 417 2 0 -8.12903370609732 -3.669903766162242 -5.498521956316568 12 0 0
1751 417 4 0 -7.791599181583675 -3.5603491328776693 -5.223654508412997 12 0 0
173 35 3 0 -7.403129355887201 -3.5654240396583408 -5.089474475173451 11 0 0
174 35 3 0 -7.023505247364551 -3.1742357499882026 -5.555305346542528 11 0 0
171 35 1 0 -7.101263370674138 -3.2648809685615516 -5.1322180894876706 11 0 0
175 35 3 0 -6.736159762346247 -3.3977685218692795 -4.9513972858672135 11 0 0
172 35 3 0 -7.238095576245998 -2.903965842148378 -4.923297457677307 11 0 0
1510 337 4 0 -6.343238064271246 -3.3870473041868596 -4.855804054501566 13 0 1
1509 337 2 0 -6.025536424279304 -3.0891532794363616 -4.7711254408361 13 0 1
427 86 3 0 -5.312058757078832 -3.0963513994113985 -5.470329637792055 14 0 1
210 42 3 0 -5.303199256273121 -2.8954344605206312 -4.668106573126916 14 0 0
1359 287 2 0 -3.8003919923452836 -2.8274084571553075 -5.471403566761705 13 0 0
1360 287 4 0 -3.3852382055246215 -2.901973667011444 -5.375170536873588 13 0 0
1294 265 4 0 -0.01830738828586398 -2.868832456551478 -5.296040868341723 14 0 0
1293 265 2 0 -0.1061365218530188 -3.1380898716168364 -4.934641675986247 14 0 0
468 94 3 0 1.733624785786425 -3.6330033211061084 -4.961602747424654 12 0 1
1508 336 4 0 4.805446869255295 -2.9586598981982224 -5.3451070450924485 8 0 1
184 37 3 0 4.982933909727667 -2.843568214333523 -5.015510421437227 14 0 0
1511 337 4 0 -5.683224386629281 -2.76318927296105 -4.679373895030212 13 0 1
430 86 3 0 -5.09120612085087 -2.387625723782592 -5.450899853235535 14 0 1
589 118 3 0 -4.850283609443224 -1.9796010025945208 -5.384493174985469 28 1 1
110 22 3 0 -3.173965752885908 -2.1372345481321604 -4.9044273760136665 12 0 0
108 22 3 0 -3.0398815038993616 -2.6732364685592653 -5.374763146752202 12 0 0
106 22 1 0 -2.8574782606491356 -2.3890103933215547 -5.07386896787164 12 0 0
107 22 3 0 -2.5632932986246866 -2.1281663025270525 -5.276249527884522 12 0 0
109 22 3 0 -2.649198023239477 -2.617443063418011 -4.767429998474036 12 0 0
1291 264 4 0 -2.168969326596101 -2.206601239980177 -5.100710135022012 11 0 0
1290 264 2 0 -1.7166588531106983 -2.1420396852066963 -5.039637378119748 11 0 0
1292 264 4 0 -1.2747014210516996 -2.0822195411071682 -4.974373606919477 11 0 0
334 67 3 0 -0.9607171943226751 -1.9159383521195537 -4.7830747458705645 12 0 0
660 132 3 0 -0.3720368881931968 -2.7443213480765962 -5.4775462481916914 28 1 0
1237 248 3 0 1.6048761804611118 -2.364334799088857 -5.067657964493171 14 0 1
1236 248 1 0 1.5612848613798622 -2.1902650139077666 -4.649505324325791 14 0 1
329 66 3 0 -7.178078717336798 -1.2762664328041318 -5.068606873606045 14 0 1
326 66 1 0 -6.918505800245339 -0.9979583090204995 -5.269730801236091 14 0 1
587 118 3 0 -4.187473737448638 -1.684229575578037 -5.404597449887039 28 1 1
332 67 3 0 -0.6465918172291554 -1.2560990891793402 -4.872158008490988 12 0 0
328 66 3 0 -6.6038866653744375 -0.8430089568949333 -4.977177225699734 14 0 1
327 66 3 0 -7.161192723371601 -0.6456982845764667 -5.426800614109 14 0 1
1356 286 2 0 -5.591755708124783 -7.8080073007492565 -3.9746255418513616 7 0 0
1357 286 4 0 -5.314243361336243 -7.833318592579443 -4.312249398751393 7 0 0
250 50 3 0 -4.41191159297817 -8.010817605040208 -4.516269759948496 7 0 0
1461 321 2 0 -0.496175060674215 -7.505555304320696 -4.598861861913685 8 0 0
1462 321 4 0 -0.2306870797996048 -7.541444039418562 -4.252392688921997 8 0 0
768 154 3 0 0.16253668604739957 -7.507429560885723 -4.29383664822845 9 0 0
769 154 3 0 0.8730002197924982 -7.466134165625375 -4.065143392155791 9 0 0
601 121 1 0 -2.475147341198608 -6.874502672198145 -4.619834207961923 11 0 1
605 121 3 0 -2.2202672047326724 -6.856157077668203 -4.205302892667432 11 0 1
604 121 3 0 -2.7720412552186913 -6.5524252233528095 -4.633886590027385 11 0 1
1349 283 4 0 0.2791764104315231 -6.531560724797727 -4.339813780057988 11 0 0
770 154 3 0 0.5201561910695496 -6.87285799104593 -4.298649541610339 9 0 0
766 154 1 0 0.5692090888437829 -7.306340622996939 -4.359998947162438 9 0 0
1252 251 4 0 -4.91561143411406 -6.233866147526044 -4.480320888795852 8 0 0
1251 251 2 0 -5.015471524572222 -6.137397278837177 -4.043929948715062 8 0 0
1273 258 4 0 -2.198556113537225 -6.490090569243347 -4.046413943851514 11 0 0
1272 258 2 0 -1.963223721852252 -6.12540160623978 -3.961460576799449 11 0 0
1274 258 4 0 -1.7244021285682054 -5.726956326612468 -3.8761525705325557 11 0 0
1347 283 2 0 -0.0757989955348215 -6.428331763461586 -4.595535110151578 11 0 0
214 43 3 0 1.9645760046171379 -5.739962050045658 -3.745520751878802 13 0 0
212 43 3 0 2.0266187065465964 -5.63928877888622 -4.481548969450332 13 0 0
211 43 1 0 2.254278446477432 -5.674556412509586 -4.078005294433547 13 0 0
215 43 3 0 2.544362347581684 -6.015128345029317 -4.101998894455354 13 0 0
408 82 3 0 -3.1559406880683065 -4.9468496532244135 -4.310688647506843 7 0 0
410 82 3 0 -2.483990007071566 -4.723423018292907 -4.585657810373483 7 0 0
406 82 1 0 -2.726525907512716 -5.084315783382563 -4.408722519904126 7 0 0
409 82 3 0 -2.528232176572488 -5.230657408058549 -4.048541215689599 7 0 0
117 24 3 0 -1.8017662903659524 -5.359476028918088 -4.042991870903972 12 0 0
116 24 1 0 -1.563393040570129 -4.993054940909343 -3.8116325363305084 12 0 0
119 24 3 0 -1.5019157736788955 -4.643135262632809 -4.091741424630606 12 0 0
1340 280 4 0 -0.7909617585617186 -5.088507424693127 -3.8049758488424104 9 0 0
1331 277 4 0 -1.2070527767724926 -4.731695502663202 -4.32280021769508 6 0 0
1338 280 2 0 -0.33294441962791765 -5.08225187468822 -3.7600052060416136 9 0 0
1339 280 4 0 0.10267921940577374 -5.085323878508554 -3.73513424928459 9 0 0
1020 204 3 0 0.4559592848273173 -4.993089738936481 -3.885925786165978 8 0 0
213 43 3 0 2.4820856203999178 -5.298279273174229 -3.9994143182951314 13 0 0
1723 408 4 0 3.9463257252068757 -5.321567242465838 -4.564895355236155 28 1 0
1722 408 2 0 3.918185493333162 -5.35276443609244 -4.12808830165316 28 1 0
1548 350 2 0 5.155775581704054 -5.416473929180391 -3.8578795593646475 14 0 0
1550 350 4 0 5.564430762654634 -5.525329969035127 -4.022439752586874 14 0 0
857 172 3 0 5.776727024121609 -5.30375122675781 -4.308879127150006 11 0 0
859 172 3 0 6.143172273587044 -4.7479938933301495 -4.573750508464766 11 0 0
1307 269 4 0 6.518215802750063 -4.641449022365559 -4.503180078837562 12 0 0
49 10 3 0 8.285438647798273 -4.982265517288031 -3.9794486331184737 13 0 0
47 10 3 0 -8.237019992734872 -4.589154811425232 -4.57521887120469 14 0 0
1689 397 2 0 -6.635398607007776 -3.8467715365587987 -3.8814490367149546 34 1 0
54 11 3 0 -6.335244303913382 -4.1028391702864635 -4.522888768646236 13 0 0
1691 397 4 0 -6.3457555458948915 -4.035079455387928 -4.1176529780016216 34 1 0
159 32 3 0 -0.45117724718331154 -4.0902512778512605 -3.921123014128767 13 0 0
157 32 3 0 -0.19312126092427917 -4.32321780385365 -4.551006276838242 13 0 0
156 32 1 0 -0.10280725691052162 -4.079953426125126 -4.203070007342605 13 0 0
160 32 3 0 0.2578741412743266 -4.231179602018606 -4.005635437991783 13 0 0
1019 204 3 0 0.8671233032572125 -4.372237638881279 -3.8119640854859513 8 0 0
1466 322 4 0 0.9616614397404817 -4.213596831115903 -4.174813649463484 8 0 0
1464 322 2 0 1.2776134797461207 -4.079491544073065 -4.448511478750772 8 0 0
1305 269 2 0 6.966399419810559 -4.583532546792564 -4.366433238811866 12 0 0
1306 269 4 0 7.390912956790961 -4.539099457358651 -4.241977716205878 12 0 0
48 10 3 0 7.760438719091944 -4.619114899933364 -4.3834598832370135 13 0 0
46 10 1 0 8.195687324804183 -4.600331671687862 -4.233749003509473 13 0 0
50 10 3 0 8.261709435081059 -4.224393430364342 -3.9706744191156993 13 0 0
209 42 3 0 -4.876820841422045 -3.125544719284404 -4.121592899562387 14 0 0
1295 265 4 0 -0.19832116111400744 -3.3876477021787688 -4.561819349631161 14 0 0
158 32 3 0 -0.037465390773796514 -3.6824813608105593 -4.328878562359427 13 0 0
183 37 3 0 4.550842625485988 -2.8115136009945116 -4.446182685388049 14 0 0
185 37 3 0 4.952948818994821 -3.3625187394265232 -4.530195856769857 14 0 0
181 37 1 0 4.9286522290994235 -2.942497932634736 -4.581589981931948 14 0 0
207 42 3 0 -5.3594391077715695 -2.617792854313083 -4.009363065276381 14 0 0
206 42 1 0 -5.081714830673572 -2.773355503000026 -4.2998641621084595 14 0 0
1276 259 4 0 -5.497033790582774 -2.362110407817383 -3.714964217318446 13 0 0
208 42 3 0 -4.803369629102303 -2.464289921480095 -4.396142988877854 14 0 0
1479 327 2 0 0.3686783645424754 -2.0547559492117866 -4.333259301638082 13 0 0
1480 327 4 0 -0.048615440873520654 -1.9592783577044406 -4.206887932819742 13 0 0
1238 248 3 0 1.1671921039000814 -1.9885127044154647 -4.607963043008368 14 0 1
1481 327 4 0 0.7983505915179308 -2.1541629763077115 -4.476949404031252 13 0 0