LAMMPS data file via write_data, version 19 Nov 2024, timestep = 10000, units = lj

17 atoms
4 atom types
12 bonds
1 bond types
10 angles
2 angle types

-1.304955 1.304955 xlo xhi
-1.304955 1.304955 ylo yhi
-1.304955 1.304955 zlo zhi

Masses

1 1
2 1
3 0.1
4 0.1

Bond Coeffs # harmonic/omp

1 100 0.45

Angle Coeffs # harmonic/omp

1 100 180
2 100 109.471

Atoms # full

6 2 2 0 -0.8807131325072356 -0.5316017522048258 -0.923892901967723 0 0 0
7 2 4 0 -0.9881038460470407 -0.10147912845698542 -0.7946077230964295 0 0 0
8 2 4 0 -0.7738243490216584 -0.9482557195285825 -1.0428168849343096 0 0 0
17 5 4 0 -0.4043818495767835 -1.02931639557496 -1.1205306699722588 0 1 0
5 1 3 0 -0.9101254914436933 0.022441496362482515 0.46651813902926165 0 0 0
11 3 4 0 -0.6829108339554267 0.33541933485759245 0.42475829426613765 0 0 0
9 3 2 0 -0.25499441187327426 0.2626524272701496 0.437500568772036 0 0 0
16 5 4 0 -0.3915796204335743 1.0067112765791635 0.7523046617413003 0 0 -1
15 5 2 0 -0.39700073885933945 1.2903809496661787 1.1133116398782175 0 0 -1
3 1 3 0 1.1193573618344426 -0.4023441789869906 0.6675129008442224 -1 0 0
1 1 1 0 1.2287559482397787 -0.006765601725868215 0.48031716399844687 -1 0 0
12 4 2 0 0.9554994021289733 0.3969469220016952 -1.0986014353179707 0 0 0
14 4 4 0 0.7251860291444712 0.4283807346738555 -0.7263946084833199 0 0 0
13 4 4 0 1.2008037524368862 0.3703635868434168 1.1229795811892824 0 0 -1
10 3 4 0 0.21297965367617544 0.19758829949812073 0.45562254923408063 0 0 0
4 1 3 0 1.0641192879594852 0.03266652539959431 0.0766885891467499 -1 0 0
2 1 3 0 1.0598535188726566 0.3499714578797094 0.7516711198331194 -1 0 0

Velocities

6 -0.43804933220210895 -0.45444147108148475 -0.26204606644883816
7 -0.8708859098684149 0.5465901431068989 0.18723442567305307
8 -0.019072908770442897 0.7858576290130824 0.7006564521494345
17 0.21710252783596024 -1.0405208544247488 0.6221131444764165
5 -0.7934239067026538 -1.0865814851828615 -0.08745979725509735
11 -0.17925909761163417 -0.7995409386309534 0.03048085870114641
9 -0.050985164295831595 0.2565601594386334 -0.3029081879285519
16 0.9640922902810233 -0.2744980555934388 -1.3574357503526715
15 -0.17393644310110412 0.30746695181910033 0.3243815598537122
3 -0.814177923172549 0.6483023175531348 0.29867098958930477
1 0.0944129866201857 -0.09533442530102389 0.03249490605530239
12 -0.07798640995997405 -0.06516443164850755 0.15419952479606153
14 0.380188052814419 1.0685711701213902 0.1209412968633757
13 -1.4210774695257937 0.18369714549267774 -0.5271587234354456
10 0.7520091453547649 0.2247659575697549 -1.1074218839707417
4 0.0808743003426819 -0.7109830012137853 0.7321574379490036
2 -0.054460902880810624 0.25325239716686765 -0.08631794857390192

Bonds

1 1 6 7
2 1 6 8
3 1 9 10
4 1 9 11
5 1 15 16
6 1 15 17
7 1 1 2
8 1 1 3
9 1 1 4
10 1 1 5
11 1 12 13
12 1 12 14

Angles

1 1 7 6 8
2 1 10 9 11
3 1 16 15 17
4 2 2 1 3
5 2 2 1 4
6 2 2 1 5
7 2 3 1 4
8 2 3 1 5
9 2 4 1 5
10 1 13 12 14
