LAMMPS data file via write_data, version 19 Nov 2024, timestep = 100000, units = lj

679 atoms
4 atom types
486 bonds
1 bond types
443 angles
2 angle types

-4.496439 4.496439 xlo xhi
-4.496439 4.496439 ylo yhi
-4.496439 4.496439 zlo zhi

Masses

1 1
2 1
3 0.1
4 0.1

Bond Coeffs # harmonic/omp

1 100 0.45

Angle Coeffs # harmonic/omp

1 100 180
2 100 109.471

Atoms # full

263 55 2 0 -3.0794230888269114 -3.2191726802485108 -3.4684705744322195 0 0 0
265 55 4 0 -2.8184448227155 -3.2535018039380885 -3.8395453045092327 0 0 0
295 65 4 0 -2.6116534329955488 -3.1349875989458273 -4.150694356513693 0 0 0
293 65 2 0 -2.6928602185716684 -3.430734539425646 -4.493203057098882 0 0 0
288 63 4 0 -1.0833698584009954 -2.8864818473080316 -3.3734402352922124 0 0 0
289 63 4 0 -0.5208281427712286 -3.2584227528171557 -4.057767769226439 0 0 0
287 63 2 0 -0.8112961727040549 -3.0652091734677875 -3.7070101712762895 0 0 0
14 3 3 0 -0.13845259563768947 -3.3129609809193674 -4.156580917652188 0 0 0
11 3 1 0 -0.02193679748574679 -3.7468296201289752 -4.211812020318009 0 0 0
13 3 3 0 -0.39851109064160933 -4.0117463120434 -4.209114825645708 0 0 0
264 55 4 0 -3.3488288209442967 -3.1764819693364403 -3.08638091035104 0 0 0
286 62 4 0 -1.1990458639475274 -2.9114269124078134 -2.9868412847213084 0 0 0
251 51 2 0 -2.265407946519918 -1.9009863291674327 -3.7184607578439928 0 0 0
19 4 3 0 -1.6109442430986185 -2.016612054177748 -4.1284917247244515 0 0 0
252 51 4 0 -1.8917960804530118 -1.8123648636432288 -3.920264321697705 0 0 0
16 4 1 0 -1.4535157122619278 -1.7910622609488012 -4.44743634756457 0 0 0
253 51 4 0 -2.673539472721513 -1.999854392473934 -3.5109828261763445 0 0 0
18 4 3 0 -1.0219265899546288 -1.7510121089481037 -4.379421800478763 0 0 0
361 87 4 0 -0.875407845240759 -1.4369868468107416 -4.146076263146281 0 0 1
359 87 2 0 -0.5117959368857574 -1.544810594499903 -3.871480126019959 0 0 1
278 60 2 0 -1.937753345093577 -0.8057188901680391 -4.2519021492656055 0 0 0
280 60 4 0 -1.9078145475335675 -0.5113433365650293 -3.9316149631761546 0 0 0
282 61 4 0 -2.0455862523751787 -0.5193798156500291 -1.3498693380910642 0 0 0
67 14 3 0 -1.7882528553998798 -0.11781181519183448 -3.963705881182728 0 0 0
360 87 4 0 -0.14592468008415976 -1.6569209319318423 -3.6098710777613 0 0 1
97 20 3 0 -3.1492884847823626 -4.152395183636867 -2.920532645788753 0 1 1
364 88 4 0 -3.285993758150774 -4.484347627867446 -1.5297226393729377 0 1 0
270 57 4 0 -3.6471934421417957 -3.371050206392014 -1.9357917172572543 0 0 0
269 57 2 0 -3.6011834147584105 -3.2077264059703254 -2.3658572144629635 0 0 0
363 88 4 0 -3.516283350426483 -3.7470696462959756 -1.9497086856940475 0 1 0
362 88 2 0 -3.40195996035144 -4.117055917233453 -1.7368367025434837 0 1 0
284 62 2 0 -1.5696913715607916 -2.9858573873420085 -2.7075626163272735 0 0 0
285 62 4 0 -1.9388382282467191 -3.063945405244387 -2.433009769060567 0 0 0
254 52 2 0 -2.310498438143913 -3.328608471038124 -1.7622256855002825 0 0 0
255 52 4 0 -2.5508161490041394 -3.707338231465568 -1.7267044460839505 0 0 0
127 26 3 0 -0.0527662388481484 -3.66935725216104 -2.3673780500957418 0 0 0
422 108 2 0 -0.5704694706599155 -4.096684450040836 -1.8431419106100488 0 1 0
423 108 4 0 -0.27937384275905214 -3.859153844723984 -2.088232843709804 0 1 0
424 108 4 0 -0.876468231897103 -4.344120194309104 -1.5948361370113893 0 1 0
271 57 4 0 -3.5600297910562815 -3.048587308196928 -2.778390178562737 0 0 0
262 54 4 0 -3.268461910841417 -2.0543902362247186 -2.1799001784616845 0 0 0
260 54 2 0 -3.475863397556107 -2.155730678878176 -1.798704554889092 0 0 0
256 52 4 0 -2.0623538481321764 -2.950793878905674 -1.8051828679809472 0 0 0
267 56 4 0 -2.8666803944323185 -1.9817162882526016 -2.216289719332425 0 0 0
266 56 2 0 -2.7291886404650683 -1.9814455410741296 -2.6708041198616144 0 0 0
268 56 4 0 -2.5998267752198134 -1.980583924187758 -3.118473112354502 0 0 0
130 26 3 0 -0.01783298573624427 -3.1138385361606304 -1.883547419634508 0 0 0
508 136 4 0 -0.3584657761357914 -1.996338789511836 -1.7477519032329334 0 0 0
506 136 2 0 -0.3427194764031334 -2.4735731779315526 -1.760474877410962 0 0 0
489 130 4 0 -0.1876573054949468 -1.6509273235783688 -1.7364736764522173 0 0 0
507 136 4 0 -0.3321580979557046 -2.8973425150467005 -1.7715271786227909 0 0 0
523 141 4 0 -4.329834407001075 -0.6980718873391448 -2.4598214315376015 1 0 0
521 141 2 0 -3.8687089229113365 -0.7630802567657782 -2.3876330011674685 1 0 0
522 141 4 0 -3.424362701936661 -0.8222822109501473 -2.3235918438563066 1 0 0
258 53 4 0 -3.2077487301217293 -0.6465595389185544 -2.5749997928228185 0 0 0
349 83 4 0 -2.704062293200367 -0.09309225590416165 -1.5961050244650727 0 0 0
44 9 3 0 -1.9011084049346263 -0.8468819749710246 -1.5131820576200277 0 0 0
45 9 3 0 -1.829809372156369 -1.4254698125307905 -1.9861643041833053 0 0 0
257 53 2 0 -2.781159311473994 -0.7296524190242136 -2.4149192827808528 0 0 0
259 53 4 0 -2.371022219474641 -0.8067713880212142 -2.2621536724768774 0 0 0
41 9 1 0 -1.754583323020715 -0.9796242079508507 -1.9297394786266635 0 0 0
42 9 3 0 -1.9720622569687631 -0.7689312080460249 -2.2424732174805446 0 0 0
43 9 3 0 -1.3261034527129165 -0.8885617938880583 -1.9726172698195776 0 0 0
388 96 4 0 -1.1417673355214695 -0.6568083914390705 -2.2247507024681794 0 0 0
386 96 2 0 -0.9773854470441886 -0.2576123128911805 -2.2563956362511264 0 0 0
276 59 4 0 -3.8449640836138497 -3.127806672060899 -0.5554056730768446 0 0 0
301 67 4 0 -3.622434688123428 -3.424948080650265 -0.3676772319082771 0 0 0
299 67 2 0 -3.2202836357952624 -3.5099833209336073 -0.1773053729138605 0 0 0
22 5 3 0 -2.323742621156104 -3.2214402937618405 -0.36381770552380527 0 0 0
383 95 2 0 -1.6487312774954062 -4.356580174005895 -1.4235910516792318 0 1 0
21 5 1 0 -2.1367669451576377 -3.5395464969605843 -0.09234080868624804 0 0 0
24 5 3 0 -1.9359152364421883 -3.8564189882752773 -0.35384668947922865 0 0 0
385 95 4 0 -1.271841045361474 -4.232025243248849 -1.6579549397786564 0 1 0
637 179 4 0 -0.2216613124612618 -3.431979505441742 -0.2429146306111095 0 1 0
635 179 2 0 -0.5641493631106771 -3.2147978712090595 -0.46931608084619186 0 1 0
85 17 3 0 -0.5908057446782722 -4.140047306828336 -0.6762957817305001 0 1 0
636 179 4 0 -0.8791273862711988 -3.0221357662000727 -0.6724946775468068 0 1 0
261 54 4 0 -3.68507889677104 -2.263172459743801 -1.4208491098895615 0 0 0
275 59 2 0 -3.8366504549980123 -2.872878211973821 -0.9337029050056989 0 0 0
277 59 4 0 -3.8365458816136124 -2.6240185716613262 -1.3056228197096054 0 0 0
451 117 4 0 -1.789816728525659 -2.8917735019256114 -1.5063547179538022 0 1 0
449 117 2 0 -1.4335658045512527 -2.8492616548452685 -1.2290483832727659 0 1 0
450 117 4 0 -1.0938007392702074 -2.813597609739424 -0.97080264172072 0 1 0
170 34 3 0 -4.418896464355754 -1.4304706774599951 -0.2509577189339467 1 0 0
57 12 3 0 -1.8581368745211801 -0.21140619876765113 -0.17328572660800848 0 0 0
283 61 4 0 -1.8091210303651057 -0.23419242426818299 -0.5502842352054198 0 0 0
281 61 2 0 -1.930922375971797 -0.3826044598986223 -0.9614510090921982 0 0 0
17 4 3 0 -1.6504929740738032 -1.3761762222792309 -4.468576831353655 0 0 0
300 67 4 0 -2.7958707412575703 -3.596428521379738 0.02457360306964402 0 0 0
25 5 3 0 -1.838696233440291 -3.3607995433542084 0.15850593277610933 0 0 0
322 74 4 0 -1.5246307696671306 -3.4704386501203928 0.384325649622854 0 0 0
23 5 3 0 -2.4696063446054826 -3.749442782273994 0.17040683624713396 0 0 0
320 74 2 0 -1.2035218784078905 -3.118429284452289 0.45440058925230825 0 0 0
517 139 4 0 -0.01713393243414846 -3.5433725393993103 0.07230273866156561 0 0 0
313 71 4 0 -3.523541575538746 -1.9857876328152546 1.301588212716836 0 0 0
311 71 2 0 -3.1856881337719387 -1.937968228571388 1.004414328710872 0 0 0
312 71 4 0 -2.8461885418141417 -1.8800019155908236 0.7071033534371088 0 0 0
321 74 4 0 -0.8872477288944454 -2.7812077638504062 0.521009886442074 0 0 0
317 73 2 0 -0.6025738064226627 -2.1185690691404497 0.2529963776196628 0 0 0
318 73 4 0 -0.8148331886353105 -2.5098846759953406 0.24609913972224423 0 0 0
319 73 4 0 -0.3765102824464232 -1.7051085931367187 0.25361194357331274 0 0 0
342 81 4 0 -3.2428746052021356 -0.3316702162822308 0.0964911457248645 0 0 0
168 34 3 0 -4.2110765224066515 -1.0820429344188334 0.40216420144355214 1 0 0
341 81 2 0 -3.5681950879063304 -0.640407726644091 0.14047844450706162 0 0 0
343 81 4 0 -3.8898491212264967 -0.9618939823787311 0.18746675746396277 0 0 0
339 80 4 0 -2.792848397293474 -1.481551897751803 0.6409524090449817 0 0 0
338 80 2 0 -2.588923474452963 -1.0746510889714964 0.6589647245324625 0 0 0
340 80 4 0 -2.401729335931859 -0.6827974390150463 0.68039034225027 0 0 0
56 12 1 0 -1.8524241969051438 -0.27079304118272407 0.29326969317357704 0 0 0
59 12 3 0 -2.116429761930545 -0.6366274672997958 0.3942498506762546 0 0 0
60 12 3 0 -1.4229225035911086 -0.34591379880635453 0.43383812006390754 0 0 0
54 11 3 0 -0.06755029410537283 -1.5744091053302567 0.4356405035959673 0 0 0
354 85 4 0 -0.3056818306176143 -1.1851981604436432 3.8074644561107704 0 0 0
52 11 3 0 -0.2081679988989665 -1.0594476281847314 0.91370653076139 0 0 0
329 77 2 0 -3.406521944050403 -3.8907995422601727 3.1432037852053525 0 0 0
330 77 4 0 -3.4265169628472756 -3.5321521719951243 2.874095251397147 0 0 0
188 38 3 0 -0.07446764894750461 -4.18102386440815 2.7230374640354404 0 0 0
353 85 2 0 -0.4457583605033137 -1.6251741323340045 3.865487331053516 0 0 0
303 68 4 0 -3.770711521246191 -2.084177161354457 1.5935755014278683 0 0 0
302 68 2 0 -4.215802501401664 -2.1190432803690435 1.7517674167866375 0 0 0
350 84 2 0 -3.3501923698973335 -0.5902006249485919 2.6538683502868463 0 0 0
352 84 4 0 -3.4288456047014395 -0.9132358910652267 2.3478455155121343 0 0 0
351 84 4 0 -3.280688001200301 -0.26879079653156324 2.94858334073108 0 0 0
104 21 3 0 -1.5568469435386074 -0.1583550436479757 2.577399761494748 0 0 0
336 79 4 0 -2.362953335062544 -0.941269064950481 2.654472220037209 0 0 0
337 79 4 0 -1.5898318544929066 -0.547532180839268 2.4154722455882394 0 0 0
335 79 2 0 -1.974623023643623 -0.7436363023301606 2.5444151650231968 0 0 0
309 70 4 0 -3.6028138521303616 -3.2213317512883264 3.004707371112315 0 0 0
48 10 3 0 -3.167966472225516 -4.436676749031147 3.6992708464996342 0 0 0
331 77 4 0 -3.383362918508937 -4.242591252410205 3.400709590250359 0 0 0
540 147 4 0 -0.36187367075123583 -2.2449379007521473 4.149926110594261 0 0 0
49 10 3 0 -2.741276739560811 -4.132715600109484 4.1900172738628285 0 0 0
294 65 4 0 -2.763709084815316 -3.7194189835060607 4.1550358725934196 0 0 -1
187 38 3 0 -0.7579548211634168 -4.262017860748245 3.088039389591601 0 0 0
334 78 4 0 -0.8589627617551049 -3.4924161756602423 4.15045493863944 0 0 0
332 78 2 0 -0.8279145175179379 -3.7153724723576116 3.747662937190066 0 0 0
333 78 4 0 -0.7902082604343899 -3.9222343428110893 3.342609355296189 0 0 0
541 147 4 0 -0.697895052999873 -3.109252602387867 4.0830403160850075 0 0 0
186 38 1 0 -0.42256674972008473 -4.4886697727765155 2.8904744120965327 0 0 0
308 70 2 0 -3.8484457939681826 -2.941922477253134 3.311037330292183 0 0 0
529 143 4 0 -4.356908173534266 -2.4366356975431542 3.482946013578398 1 0 0
310 70 4 0 -4.094900128242543 -2.682844555622609 3.597020915568919 0 0 0
20 4 3 0 -1.5255733069838684 -2.0201146989223835 4.15856657170805 0 0 -1
539 147 2 0 -0.5327826810089332 -2.688622576152569 4.1189905919930085 0 0 0
355 85 4 0 -0.5728475768756193 -2.0174255889217814 3.9055222755298535 0 0 0
279 60 4 0 -1.9756543435588587 -1.1256152121198242 4.409597320413372 0 0 -1
345 82 4 0 -3.44482218396859 0.6878353715698396 -4.383609837080258 0 0 1
372 91 4 0 -4.308189893629394 0.8212505530545876 -3.7503971005077408 0 0 0
371 91 2 0 -4.121582042681154 0.8672986107313105 -3.3416647998957965 0 0 0
390 97 4 0 -3.2405670358264613 0.820141477283815 -4.061989572290183 0 0 0
389 97 2 0 -2.9822776344569046 0.7232440309143041 -3.695810303106687 0 0 0
391 97 4 0 -2.7304609401621263 0.6239400721291593 -3.33320984422925 0 0 0
70 14 3 0 -1.5105532478606665 0.5498073996880227 -3.9671570594823895 0 0 0
66 14 1 0 -1.589500977448595 0.2005310293947665 -3.71975601437459 0 0 0
431 111 2 0 -1.9007065768908815 1.22619730791636 -4.116256268900558 0 0 1
432 111 4 0 -1.6725591641556212 0.9123316578024171 -3.873682346483734 0 0 1
90 18 3 0 -2.632076237939855 0.817404364422488 -3.01183161138774 0 0 0
68 14 3 0 -1.8812579862699013 0.31929781294680715 -3.3663629002255346 0 0 0
69 14 3 0 -1.2214485013581968 0.049606407646801284 -3.5661721809253555 0 0 0
439 113 4 0 -0.8769067248947948 0.27201939432982947 -3.624137775551395 0 0 1
437 113 2 0 -0.48987524839333807 0.21750240968933005 -3.8809714863376064 0 0 1
438 113 4 0 -0.13369755363663943 0.16532819577815763 -4.112156651372659 0 0 1
394 98 4 0 -4.345422445223058 3.0721781069963017 -3.491726621388847 0 0 0
433 111 4 0 -2.114787354166949 1.5249077825624087 -4.350802855143866 0 0 1
420 107 4 0 -0.4025447341686131 2.4861136480812074 -3.36080876683312 0 0 0
419 107 2 0 -0.14008638128994483 2.257052125268328 -3.655881623136762 0 0 0
376 92 4 0 -0.5957825009977933 2.2638949077465056 -3.098762778647217 0 0 0
630 177 4 0 -3.4599265425494288 4.080795124488094 -3.6287016629420092 1 0 1
99 20 3 0 -3.31182453031349 4.22306585911979 -3.2730101407391317 0 0 1
629 177 2 0 -3.232473127789778 3.8898314048858613 -3.9743494640604866 1 0 1
631 177 4 0 -3.01004159564673 3.703379604424441 -4.307360355657425 1 0 1
392 98 2 0 -4.434197809644447 3.2569765234334187 -3.080050577843763 0 0 0
367 89 4 0 -1.9671918896895408 3.4648959510321906 -3.885512709046747 0 0 0
124 25 3 0 -2.3164479287844673 3.381379247715441 -4.061923445367653 0 0 1
365 89 2 0 -1.7198678743977323 3.4273186404511704 -3.5013986967188377 0 0 0
366 89 4 0 -1.472752603835285 3.400250379871799 -3.1345303114828966 0 0 0
121 25 1 0 -2.422680304822004 3.301495030613478 -4.485896034527071 0 0 1
379 93 4 0 -1.264915627576796 3.7325915220761026 -3.049453334914207 0 0 0
348 83 4 0 -3.5363518146903337 0.24438438209065277 -1.802985813705769 0 0 0
38 8 3 0 -4.26816162588494 0.5139106324462662 -2.1075794385723636 0 0 0
36 8 1 0 -3.9291432345763506 0.8123688583880507 -2.117554181065992 0 0 0
40 8 3 0 -3.515097727701848 0.5861303605621389 -2.006560877432699 0 0 0
39 8 3 0 -3.8936039318040847 0.9968575251024264 -2.5562061862673082 0 0 0
37 8 3 0 -4.013907380032938 1.1408419539279822 -1.8098849909911081 0 0 0
373 91 4 0 -3.9397169899526143 0.9070898258027229 -2.9288553026042177 0 0 0
612 171 4 0 -4.003040840168752 1.359199496154498 -1.4950551828816085 1 0 0
88 18 3 0 -2.86155503453899 1.25394562533867 -2.4981964638093697 0 0 0
86 18 1 0 -2.5088546558880487 1.0421940098772513 -2.6753315138409794 0 0 0
87 18 3 0 -2.33732799358868 0.7689469651318862 -2.374116354549839 0 0 0
89 18 3 0 -2.1767883953924496 1.3601930726429745 -2.805130682728953 0 0 0
34 7 3 0 -0.2550698474364687 0.8990917372496307 -2.7280922901362596 0 0 0
33 7 3 0 -0.7929045422046592 0.48907889168611085 -2.506497396039623 0 0 0
31 7 1 0 -0.4185373285998794 0.7021316543978267 -2.3922333839330627 0 0 0
32 7 3 0 -0.5016764869374468 0.9925951602607332 -2.070969116377108 0 0 0
402 101 4 0 -0.22856746017741278 1.030022467113988 -1.7932677355006525 0 0 0
387 96 4 0 -0.8103693654927845 0.14342961515406918 -2.2735090243081633 0 0 0
405 102 4 0 -2.135227195598744 1.6830928274189858 -2.56339747598762 0 0 0
404 102 2 0 -1.995866854526275 1.959525280308865 -2.2458479850070296 0 0 0
406 102 4 0 -1.8621758620428903 2.249593303798579 -1.9284953149547484 0 0 0
80 16 3 0 -1.7632427176654015 2.5886022637132484 -1.7359194070241586 0 0 0
375 92 4 0 -0.9821157092915315 2.6288384616620912 -2.364977034046251 0 0 0
78 16 3 0 -1.0843528358175794 2.479573883453975 -2.0285648629386404 0 0 0
374 92 2 0 -0.7906445477878803 2.44254374243406 -2.726550940581484 0 0 0
76 16 1 0 -1.3109100760936816 2.6936465688136333 -1.6924817805122783 0 0 0
79 16 3 0 -1.1635025497405702 2.558878917031632 -1.295354041587013 0 0 0
83 17 3 0 -0.0774603140827436 4.44296166377799 -0.4427832419285036 0 0 0
96 20 1 0 -3.075286702836219 4.397542635494527 -2.941719391223718 0 0 1
98 20 3 0 -3.1789954917941206 4.211592384774513 -2.5619709006845266 0 0 1
198 40 3 0 -4.049470027728311 3.9250417540006293 -2.1985873464115917 1 0 0
73 15 3 0 -2.5375385095683853 4.093783653651888 -1.6850158293544963 0 0 0
100 20 3 0 -2.669567850313867 4.339633611940803 -3.009040415108359 0 0 1
71 15 1 0 -2.6851028815097835 4.1044709331547935 -1.2546625293585656 0 0 0
377 93 2 0 -0.8477923986962598 3.73656405453319 -2.887861987609504 0 0 0
77 16 3 0 -1.2660559647781988 3.1304591057825135 -1.7278277946485656 0 0 0
378 93 4 0 -0.4265359212349056 3.7366000042351137 -2.734566240616441 0 0 0
414 105 4 0 -0.038872477738299195 3.8827789470411243 -2.7390997687799 0 0 0
347 83 2 0 -3.126940976719804 0.07020898463650602 -1.6964488863725677 0 0 0
611 171 2 0 -4.4016735920257535 1.476366916066791 -1.3187083818074128 1 0 0
28 6 3 0 -3.3288593729932505 0.6332285725858908 -0.25914820962069035 0 0 0
29 6 3 0 -2.698154442965247 0.2813664672657303 -0.1671840463688651 0 0 0
401 101 2 0 -0.29495365530528356 1.1699120241617382 -1.3899338628806954 0 0 0
403 101 4 0 -0.3526310086127959 1.3140664587037378 -0.9788169777239993 0 0 0
93 19 3 0 -0.458664134253719 1.2541072072094288 -0.5901979708487916 0 0 0
91 19 1 0 -0.7288838312134832 1.1941352806361614 -0.262019979999708 0 0 0
94 19 3 0 -1.1387377683148134 1.1421457196812081 -0.4297896613237246 0 0 0
425 109 2 0 -4.223352251559809 2.7031104872549547 -0.287058179200445 0 0 0
427 109 4 0 -3.8228466714197396 2.7290863064569044 -0.5646952918571045 0 0 0
445 115 4 0 -0.0499249178515547 2.337313763522487 -0.22814481466288977 0 0 0
95 19 3 0 -0.7209724156821385 1.547175814896905 -0.011059333440060196 0 0 0
297 66 4 0 -0.20963100142502028 2.18137245623951 -0.5701438768913298 0 0 0
298 66 4 0 -0.8254881098968988 2.459635336461395 -1.124758531114784 0 0 0
296 66 2 0 -0.5345730165844854 2.3250121746014947 -0.8624172370600068 0 0 0
370 90 4 0 -3.617284032996626 3.0216461971664863 -0.7244322036214063 0 0 0
74 15 3 0 -3.1088038400449105 4.260027604068613 -1.2396827789364306 0 0 0
368 90 2 0 -3.2501972308499427 3.2828540975037703 -0.7613139621016064 0 0 0
369 90 4 0 -2.881309099210475 3.543767971529168 -0.7961477312819656 0 0 0
384 95 4 0 -2.047015780330142 4.489102840744808 -1.1643042579955982 0 0 0
75 15 3 0 -2.4189475218844185 4.370373286631318 -1.0103204168682771 0 0 0
72 15 3 0 -2.6719808813377237 3.6967589258998057 -1.0915914568212122 0 0 0
397 99 4 0 -0.7500924033985585 4.21207869191356 -1.2685475441152887 0 0 0
196 40 1 0 -4.472514254643586 4.003147493050276 -2.2480692022582267 1 0 0
84 17 3 0 -0.5091271039879988 4.195014380616652 -0.9336505701373026 0 0 0
82 17 3 0 -0.7716527111531045 4.283859711581288 -0.25043639121888733 0 0 0
396 99 4 0 -1.0583058610704925 3.3498158184958973 -1.484524593341462 0 0 0
81 17 1 0 -0.47556671349366114 4.447871755352593 -0.5828466249261343 0 0 0
395 99 2 0 -0.9000356101851245 3.7801602313279896 -1.3742797032127758 0 0 0
35 7 3 0 -0.11788428594056341 0.40456109206064994 -2.2415068163676755 0 0 0
92 19 3 0 -0.6107878387910248 0.8234958947239485 -0.013795761433721732 0 0 0
380 94 2 0 -3.0734192719465185 1.3364884024465458 0.8920253590463066 0 0 0
381 94 4 0 -3.074319689594651 0.9674565222500192 0.6699223455565805 0 0 0
27 6 3 0 -2.985136882060477 0.7011448847324266 0.3772205792089482 0 0 0
30 6 3 0 -3.2964618607785363 0.07097954117406954 0.18649593150987243 0 0 0
26 6 1 0 -3.084113970594509 0.421349280779708 0.03591008539537699 0 0 0
323 75 2 0 -1.8027745902484344 0.38911912926701486 1.2244449054651796 0 0 0
324 75 4 0 -1.983642647333646 0.33472490534629173 0.8328242215792611 0 0 0
58 12 3 0 -2.01897381701279 0.09824745906630929 0.5015358355034543 0 0 0
571 157 4 0 -0.4664309396806109 0.8565783368190372 0.38520332145044267 0 0 0
46 10 1 0 -2.822757818759649 4.488517128358252 3.9417655450092712 0 -1 0
569 157 2 0 -0.1894637903951333 0.8388453175237898 0.695978082904117 0 0 0
382 94 4 0 -3.0677435650403373 1.7244337764417754 1.112493748937116 0 0 0
239 48 3 0 -3.896155868364399 2.346671200421 1.2545415713805945 1 0 0
237 48 3 0 -3.358406639520296 1.839406659407929 1.3480889145739212 1 0 0
112 23 3 0 -2.3579939022516143 3.4126954392937363 1.1879116523057547 0 0 0
290 64 2 0 -0.8812010881280761 4.2444919449385745 0.4106635853906922 0 -1 0
292 64 4 0 -1.2135856411581205 4.250488779585298 0.7554505642747135 0 -1 0
107 22 3 0 -0.26680876798639735 3.3471219407099593 1.4047344617623716 0 0 0
441 114 4 0 -0.35097789383902656 3.685332032356331 1.5990393324930374 0 0 0
108 22 3 0 -0.0973497514528831 2.8563350101488156 0.8826576221391099 0 0 0
64 13 3 0 -3.7079933530750973 0.5529673500575119 2.6804766241101152 0 0 0
65 13 3 0 -3.2322320953346906 0.1150098551591069 3.0154732564106674 0 0 0
325 75 4 0 -1.6075465548115988 0.45025421794348125 1.6316998380297454 0 0 0
102 21 3 0 -1.9158890682141292 0.4754789354054154 2.6547743638990475 0 0 0
456 119 4 0 -1.5669932562370972 1.3632968415600741 2.0016263787765967 0 0 0
62 13 3 0 -3.0614615249285064 0.808112512984927 2.894189442213238 0 0 0
105 21 3 0 -1.6172900746834447 0.30565425967414334 2.0006543892010726 0 0 0
101 21 1 0 -1.5670088735575787 0.2765640188602556 2.443738236689287 0 0 0
548 150 2 0 -0.4814870271506331 0.4298834179033432 2.588639097630218 0 0 0
103 21 3 0 -1.1589156988504592 0.48417235940477943 2.5725485925955214 0 0 0
549 150 4 0 -0.8622811306118013 0.2776193075770365 2.7552010478591447 0 0 0
671 191 2 0 -4.361484036513469 1.754642743488634 2.307418109848467 1 0 0
236 48 1 0 -3.5938583459574134 2.1620762066939405 1.558222444637351 1 0 0
238 48 3 0 -3.302709493146841 2.495716970524294 1.7096088907601343 1 0 0
672 191 4 0 -3.94336770872044 1.9344254677600874 2.27651925086575 1 0 0
240 48 3 0 -3.8066360996866884 2.002024631262577 1.8853048954769018 1 0 0
111 23 1 0 -2.4441731272787672 3.0448885550167564 1.4591217057703882 0 0 0
113 23 3 0 -2.9009655359407485 2.9332870724926803 1.418641549240757 0 0 0
114 23 3 0 -2.1761867409352744 2.685732156631739 1.3134127013300105 0 0 0
466 122 4 0 -2.257225181726866 2.385340034496901 1.5879793582762078 0 0 0
464 122 2 0 -2.0571740477628024 1.982757416174577 1.7411202694939867 0 0 0
465 122 4 0 -1.8634783750757156 1.5941101444041494 1.880118764702399 0 0 0
665 189 2 0 -0.20101333496287208 2.0521645314876213 1.8741054889928812 0 0 0
457 119 4 0 -0.6926866520462313 1.4213174517240406 2.1706798137650765 0 0 0
455 119 2 0 -1.1227238129930275 1.3927660029559514 2.084949562307603 0 0 0
667 189 4 0 -0.5384626294995852 1.776617794799498 2.026944513321984 0 0 0
115 23 3 0 -2.3332238531111815 3.1529081838306836 1.89764739526831 0 0 0
412 104 4 0 -2.139241615932944 3.204811667706973 2.2513775214187994 0 0 0
410 104 2 0 -1.750440393159933 3.4466691045488034 2.2538040640439685 0 0 0
411 104 4 0 -1.3780426967579533 3.6712642987341413 2.2524217198334995 0 0 0
442 114 4 0 -1.0866181245537718 3.4746120934725138 2.051969009767173 0 0 0
440 114 2 0 -0.7071882384453141 3.584159279037631 1.8165576245823314 0 0 0
190 38 3 0 -0.578971460213648 4.262073779359238 2.531956698885176 0 -1 0
346 82 4 0 -3.546128947895524 0.4532000615865681 3.7737408940336605 0 0 0
63 13 3 0 -3.561185050882974 0.6518418696780686 3.4322399752701767 0 0 0
61 13 1 0 -3.389291867537247 0.5340359681884266 2.9991988881980176 0 0 0
344 82 2 0 -3.497012227748182 0.5707923226636014 4.18528651310433 0 0 0
469 123 4 0 -2.8707710444926646 1.0793199147795187 3.117280584424718 0 0 0
467 123 2 0 -2.724047697085658 1.443759096919125 3.3227804138329877 0 0 0
468 123 4 0 -2.56448623975177 1.8076606861748232 3.5254742212125905 0 0 0
418 106 4 0 -2.220131509403599 1.886029054557807 3.7110766842765104 0 0 -1
416 106 2 0 -2.1596721610104024 2.213131004802261 4.0163228703472615 0 0 -1
417 106 4 0 -2.085293182892066 2.557129934554225 4.3362872046424465 0 0 -1
122 25 3 0 -2.3417972305949935 2.8566963206653613 4.400405924938715 0 0 0
47 10 3 0 -2.8981711115723567 4.13180345001018 4.224782173803451 0 -1 0
307 69 4 0 -2.1854024816090907 4.492570408513053 3.3586812114300146 0 -1 0
125 25 3 0 -2.170586365909233 3.5780415343564957 4.23012584759918 0 0 0
50 10 3 0 -2.4523424566156407 4.400051606245723 3.6587968425526722 0 -1 0
459 120 4 0 -1.787847236979989 3.6419128341388953 4.10252129100894 0 0 0
123 25 3 0 -2.8720794171278956 3.398637843682954 4.444415255835289 0 0 0
460 120 4 0 -0.9635337373600422 3.184657160559852 3.9973404724048804 0 0 0
189 38 3 0 -0.23625590369428034 4.212596171338149 3.206916743845539 0 -1 0
429 110 4 0 -0.5775963898179346 3.2146395560833456 3.8409401997867403 0 0 0
458 120 2 0 -1.3737085088617866 3.413684964771961 4.0465072224369 0 0 0
428 110 2 0 -0.4176787544684351 3.282347620602895 3.4300955420242665 0 0 0
430 110 4 0 -0.2548153588025721 3.355819360876262 2.982936981800607 0 0 0
443 115 2 0 -0.1528626924426979 2.4588082435364713 0.2004938827083522 0 0 0
444 115 4 0 -0.2545689322315734 2.572617659124195 0.6269042918622938 0 0 0
550 150 4 0 -0.11329261689325729 0.57878071993047 2.417704533430362 0 0 0
306 69 4 0 -2.0689584384992563 4.411477659142794 2.484070679069978 0 -1 0
305 69 2 0 -2.126023889811663 4.451716935365042 2.904351381237673 0 -1 0
291 64 4 0 -0.5594666573105523 4.243767880686583 0.08720958412891851 0 -1 0
12 3 3 0 0.2436976810180528 -3.8624133903751225 -3.883347446790587 0 0 0
141 29 1 0 2.2989884705534345 -4.454404558647396 -1.254396785709835 0 0 0
600 167 4 0 2.0299034727321557 -3.93299409698094 -4.276350706305521 0 1 0
185 37 3 0 2.1790244985922866 -4.043797256723335 -3.90598772699287 0 0 1
184 37 3 0 1.9274551720262474 -4.383799508558309 -3.3301597017080464 0 0 1
181 37 1 0 2.157993784356544 -4.039241418424052 -3.461835386168684 0 0 1
182 37 3 0 1.94420329996685 -3.6608034225987423 -3.3333849719460478 0 0 1
183 37 3 0 2.5753150816428896 -4.05401424564654 -3.2771239090750046 0 0 1
160 32 3 0 1.7100089919882844 -2.941725651973154 -3.4014807030787537 0 0 0
477 126 4 0 2.6517760127691687 -4.263581644045624 -2.9511569487469456 0 0 0
5 1 3 0 3.441231300383055 -3.2171299421553132 -4.084639021054965 -1 0 0
1 1 1 0 3.7150863829207106 -3.5652546400565437 -3.934137161831522 -1 0 0
400 100 4 0 4.134972964293744 -3.7717839253506407 -3.440053476293139 -1 1 0
3 1 3 0 3.843504166529583 -3.480653960999816 -3.5031117463372103 -1 0 0
398 100 2 0 4.254377220485554 -4.049184070154495 -3.0809896492160065 -1 1 0
2 1 3 0 3.4831493088216114 -3.945599336177686 -3.9488121032692742 -1 0 0
649 183 4 0 3.1378563243731796 -4.04186164915247 -4.1522299553399735 0 1 1
4 1 3 0 4.072871205470811 -3.5934246284340925 -4.183371269698611 -1 0 0
647 183 2 0 3.148193093961879 -4.393676400197864 -4.443006666786628 0 1 1
159 32 3 0 1.5046703844913767 -3.0790350466911893 -4.113576167740565 0 0 0
495 132 4 0 1.27921215271571 -2.414755285452219 -3.4166318901193504 0 0 0
158 32 3 0 1.374698740406396 -2.387838515160728 -3.7947358095557577 0 0 0
156 32 1 0 1.6714531189894792 -2.758687205316946 -3.8143911238390635 0 0 0
157 32 3 0 2.0966197684191514 -2.6025650808128185 -3.9605234893114214 0 0 0
492 131 4 0 2.3382726947006374 -2.7562968013624443 -3.6877274527299266 0 0 0
493 131 4 0 3.1640161511643226 -3.0571148057004103 -3.8598942387971835 0 0 0
491 131 2 0 2.7485913878995194 -2.90621100427231 -3.774877305615643 0 0 0
139 28 3 0 3.8380611858195146 -2.2366523803857223 -3.949535902117998 0 0 0
136 28 1 0 3.9849329084902503 -1.8573691139226007 -4.051394195924399 0 0 0
138 28 3 0 3.6411186221307363 -1.5760497351062623 -4.160391500432767 0 0 0
140 28 3 0 4.209998831396861 -1.6914963238865826 -3.6919187846375117 0 0 0
137 28 3 0 4.273335678191264 -1.8868260552727405 -4.405568391919776 0 0 0
519 140 4 0 3.2382632734827803 -1.4905108454749725 -4.070134190663259 0 0 0
498 133 4 0 0.16275220083226696 -1.471158438607535 -3.438292597384599 0 0 0
497 133 2 0 0.3808167305811298 -1.3655511469253934 -3.06612885632819 0 0 0
627 176 4 0 0.16756196288723751 -0.11743759744405309 -4.208140981837227 0 0 1
587 163 2 0 1.8532092938704217 -0.3209798566725153 -3.1948495054982344 0 0 0
588 163 4 0 1.818159884826276 -0.07876693612301254 -3.5559236443760147 0 0 0
520 140 4 0 2.8337384250821307 -1.1142097757244116 -3.4120672499249953 0 0 0
606 169 4 0 2.8986658704510018 -0.8710583363803187 -3.1032520281950067 0 0 0
486 129 4 0 4.403658323547438 -1.4726669845359155 -3.4220652208282 0 0 0
518 140 2 0 3.048105779496173 -1.3116699420103692 -3.7562457328047403 0 0 0
485 129 2 0 4.424608381167783 -1.2176645115630036 -3.085674865108291 0 0 0
126 26 1 0 0.20599299104628352 -3.328879670830052 -2.2073855111505263 0 0 0
129 26 3 0 0.30444644262661563 -3.045858388067353 -2.551304056250941 0 0 0
128 26 3 0 0.5742344968029526 -3.4947347350235516 -2.0491460104716572 0 0 0
504 135 4 0 2.5680949582648185 -2.9541701067815422 -1.8840496002881064 0 0 0
503 135 2 0 2.4441425688054004 -3.399202639054011 -1.7191367144892833 0 0 0
143 29 3 0 2.183394062495771 -4.003028693126526 -1.2228309000887652 0 0 0
399 100 4 0 4.373213584367399 -4.320036044734671 -2.7266936159968953 -1 1 0
494 132 2 0 1.1936775935540747 -2.0785492166650545 -3.121833225373559 0 0 0
496 132 4 0 1.119064483282581 -1.7524241676120182 -2.8321894809047405 0 0 0
502 134 4 0 2.392812656888599 -2.6527986837471857 -1.6920515436159 0 0 0
500 134 2 0 2.6279301800416355 -2.3143892188580977 -1.6115130095916481 0 0 0
501 134 4 0 2.8787002895408245 -1.951083828733152 -1.5232998675612233 0 0 0
490 130 4 0 0.4012001681047296 -1.3090321532007851 -2.3371267196597385 0 0 0
499 133 4 0 0.594408555020916 -1.2447559435704256 -2.6839488639687343 0 0 0
488 130 2 0 0.10464732589177504 -1.482057034156837 -2.035424156357287 0 0 0
135 27 3 0 1.221016076450405 -0.8084904288048983 -2.2935245182174713 0 0 0
132 27 3 0 1.2600485605268847 -1.3932304771952186 -2.769323990032837 0 0 0
131 27 1 0 1.500365828854481 -1.1160338184095786 -2.462703001431164 0 0 0
134 27 3 0 1.8137551372728646 -0.9252310797388232 -2.6654620020616724 0 0 0
133 27 3 0 1.671999695668703 -1.3565846624695552 -2.1388958259857302 0 0 0
589 163 4 0 1.8813803217995184 -0.5705780946669228 -2.83314662565247 0 0 0