LAMMPS data file via write_data, version 19 Nov 2024, timestep = 1500000, units = lj

400 atoms
4 atom types
300 bonds
1 bond types
350 angles
2 angle types

-5 5 xlo xhi
-5 5 ylo yhi
-5 5 zlo zhi

Masses

1 1
2 1
3 1
4 1

Bond Coeffs # harmonic/omp

1 100 0.45

Angle Coeffs # harmonic/omp

1 100 180
2 100 109.471

Atoms # full

101 21 1 0 -4.65872411358606 -3.5259767940838795 -4.899849693288072 1 0 1
104 21 3 0 -4.608716595361018 -3.9718670874683193 -4.86199708281989 1 0 1
105 21 3 0 -4.737883273023136 -3.345660807093697 -4.482561161746829 1 0 1
48 10 3 0 2.0470342559072363 -3.678664700124647 -4.467919821907089 0 0 0
46 10 1 0 2.0006949654498234 -3.688868908683542 -4.904703825915587 0 0 0
323 75 2 0 3.29013979942109 -4.403953485641354 -3.4860526974296646 0 1 0
172 35 3 0 3.913979456022372 -4.898520714506945 -3.5136034384151773 -1 1 0
325 75 4 0 3.676184967338725 -4.5859724109297275 -3.5997571402889266 0 1 0
17 4 3 0 4.719961396098221 -0.3946321650644791 -1.3377775163991414 -1 0 0
16 4 1 0 4.6368864433190655 -0.5982288111091926 -0.9306806608977007 -1 0 0
92 19 3 0 -2.29698049186033 -2.6745527327573773 -3.5374214301368387 0 0 1
91 19 1 0 -2.1028457687788285 -2.2441933081554297 -3.55025976592642 0 0 1
95 19 3 0 -2.015369025684812 -2.1382100423969583 -3.9680953962409418 0 0 1
93 19 3 0 -2.3839593709007927 -1.9412314953707388 -3.375218474785942 0 0 1
268 56 4 0 -1.6627860593927124 -1.9679004799294548 -4.104146157423925 0 0 0
336 79 4 0 -0.6154013024979436 -2.323802074492793 -3.6418241075948012 0 1 0
335 79 2 0 -1.0067447730053292 -2.3614640229123376 -3.398620102473059 0 1 0
266 56 2 0 -1.4821159659307301 -1.551578523974823 -4.209050122902383 0 0 0
94 19 3 0 -1.711458463564465 -2.250459044459622 -3.3115323076306424 0 0 1
330 77 4 0 -4.89576358797222 -3.477531047453627 -4.164381947549089 1 1 0
329 77 2 0 -4.856707898424755 -3.251706226988141 -3.788513267428714 1 1 0
331 77 4 0 -4.82092872995526 -3.0223226736987794 -3.408205120751872 1 1 0
109 22 3 0 -2.774823623841918 -1.6650666825220135 -4.738934688976492 0 0 1
110 22 3 0 -2.6713326131601547 -0.9616137949487883 -4.9108022382243375 0 0 1
18 4 3 0 -4.960911476692816 -0.6723579823405113 -0.7112018575062119 0 0 0
267 56 4 0 -1.3007600338548826 -1.1347548864548576 -4.321962459003967 0 0 0
44 9 3 0 -1.3142028296366612 -0.9300656879205186 -4.685411609371979 0 0 0
20 4 3 0 4.4333134034712245 -0.9834602591746711 -0.9935913620326784 -1 0 0
285 62 4 0 -3.2583396580759723 -4.909296196870689 -1.984266619011193 0 0 0
284 62 2 0 -2.9150036336757914 -4.682052210438516 -2.1869382673793663 0 0 0
286 62 4 0 -2.566327000768919 -4.454880446481143 -2.384355450273328 0 0 0
14 3 3 0 -2.406389454316695 -4.115998230508788 -2.1666974485041828 0 0 0
15 3 3 0 -1.8661864227214475 -3.566805676382466 -2.0940788802380363 0 0 0
11 3 1 0 -2.233401150774653 -3.7271380375716174 -2.3642204409218426 0 0 0
13 3 3 0 -2.5522569441505003 -3.4046873067240884 -2.380163101779707 0 0 0
36 8 1 0 0.6578224020517731 -4.067299881089812 -1.822693089839276 0 0 0
38 8 3 0 0.5662637990335924 -4.499140495462706 -1.733647570970185 0 0 0
37 8 3 0 1.0801229138524078 -4.027614302755367 -1.9698254266872097 0 0 0
69 14 3 0 2.0140847573970935 -4.019350532162287 -2.691891083447437 0 0 0
66 14 1 0 2.4516615616289408 -3.91859697977959 -2.719672600830603 0 0 0
67 14 3 0 2.6529299985789523 -4.164768753287472 -3.050382835022786 0 0 0
324 75 4 0 2.89652586795345 -4.212987492780641 -3.36509006332482 0 1 0
70 14 3 0 2.651668015424999 -4.014405351638526 -2.324143971165427 0 0 0
23 5 3 0 -4.7933362464043405 -2.16113551739339 -2.976685630638757 1 0 0
22 5 3 0 -4.918518277588464 -2.6466637368448205 -2.484725804763208 1 0 0
12 3 3 0 -2.073875412320248 -3.819152540836222 -2.792499979861716 0 0 0
289 63 4 0 -2.234913655273728 -1.7696289705821922 -2.348745299082499 0 0 0
337 79 4 0 -1.385845224646421 -2.3955872701107115 -3.167245973649314 0 1 0
287 63 2 0 -1.8837255684434722 -2.026346380193385 -2.3813886089982605 0 0 0
288 63 4 0 -1.4999965533867041 -2.294052924667396 -2.4144709874781602 0 0 0
144 29 3 0 -1.521591226628819 -2.416916359139256 -2.024646136970996 0 0 0
145 29 3 0 -1.5957790838079189 -2.9530067771473343 -1.5543820463589815 0 0 0
141 29 1 0 -1.3280922782710292 -2.6304638145783006 -1.7021022836211563 0 0 0
40 8 3 0 0.3670581664576793 -3.9176758511174437 -2.143921644270413 0 0 0
68 14 3 0 2.4923500708270248 -3.498502379895988 -2.79693867799823 0 0 0
235 47 3 0 3.0410109278267115 -1.971365359495351 -1.275500637546125 0 0 1
231 47 1 0 3.1218522301600267 -1.6366769445708755 -1.6070737916868987 0 0 1
24 5 3 0 4.96473835140172 -2.791147057366111 -3.1647068462587016 0 0 0
21 5 1 0 4.948150997441009 -2.4859710564020534 -2.8592100596655565 0 0 0
25 5 3 0 4.527625014693968 -2.3345058294898253 -2.8209070402282466 0 0 0
273 58 4 0 4.412553390021211 -2.0665068086970586 -2.5491341551017044 0 0 0
272 58 2 0 4.141779811960368 -1.961435122592477 -2.2195422080756546 0 0 0
274 58 4 0 3.856980507853883 -1.84636517341242 -1.8493731491761018 0 0 0
232 47 3 0 3.5500251340353715 -1.6440921920017177 -1.7343687374392132 0 0 1
188 38 3 0 -2.5853753301959266 -1.3812728397341756 -3.106424595214249 0 0 1
190 38 3 0 -1.9924275600549894 -0.9898991124455109 -2.9160446215387763 0 0 1
298 66 4 0 -2.514444052555542 -0.4329577545910396 -2.778960636277886 0 0 1
186 38 1 0 -2.3997448725859822 -1.1373006243214128 -2.7837017369108312 0 0 1
189 38 3 0 -2.6602592022122407 -0.785689739183774 -2.695205318997348 0 0 1
187 38 3 0 -2.3650766664743177 -1.3946996155646656 -2.3994655259085187 0 0 1
296 66 2 0 -2.8902943243147847 -0.16322897112264773 -2.883376464152507 0 0 1
234 47 3 0 2.8516708591415254 -1.7048606781976525 -1.9586378850062414 0 0 1
366 89 4 0 -4.28634535373791 -4.740884013776778 -0.17869211618232325 1 1 0
348 83 4 0 3.196117113691438 -0.8391110471843447 -1.3189208770251974 0 0 0
339 80 4 0 1.4530064957792337 -4.126301161217204 -1.8244437969336793 0 1 0
39 8 3 0 0.6022104616756156 -3.826011013538772 -1.4520058271692957 0 0 0
338 80 2 0 1.7324174902091305 -4.211388461944184 -1.5136717444707763 0 1 0
165 33 3 0 1.8047827485493517 -4.7551566592971515 -0.1787264876256456 0 1 0
161 33 1 0 1.9111941183425494 -4.8827268297628095 -0.6124915085752712 0 1 0
347 83 2 0 3.433401081757696 -0.48632977343415323 -1.2523419345843898 0 0 0
340 80 4 0 2.026478704363645 -4.298832304114647 -1.1849059628711165 0 1 0
163 33 3 0 2.0427890132997155 -4.520032109459786 -0.8457842104447383 0 1 0
233 47 3 0 3.0280772207647226 -1.2243876200316084 -1.4254094329568898 0 0 1
142 29 3 0 -0.9508311614262581 -2.799121890807973 -1.8459338821254458 0 0 0
255 52 4 0 -0.6324717622185428 -2.8948572226300957 -1.6075834725013103 0 0 0
143 29 3 0 -1.2364166682524549 -2.3469600343780184 -1.370095285721254 0 0 0
280 60 4 0 -1.5674030341811171 -2.215352191151391 -1.149414734813147 0 0 0
278 60 2 0 -1.6193551429960615 -1.878654278649098 -0.8521363529320757 0 0 0
254 52 2 0 -0.254496765195021 -2.8580712149411145 -1.4115808697743206 0 0 0
256 52 4 0 0.17538008788640483 -2.8168230155291027 -1.201989343072645 0 0 0
281 61 2 0 0.9105812154140204 -2.8959334845538405 -1.647636692689004 0 0 0
283 61 4 0 0.5074193302514739 -2.8030478055767256 -1.4210047583258212 0 0 0
282 61 4 0 1.2960440058824172 -2.9824473620174383 -1.8581630870747559 0 0 0
318 73 4 0 -4.383124818824594 -1.6043570842327857 -1.4685702182956992 1 0 0
317 73 2 0 -4.576817668564391 -1.2939070595694144 -1.1776544211500797 1 0 0
319 73 4 0 -4.77205360687084 -0.9742989112262367 -0.8853876100308443 1 0 0
156 32 1 0 -1.418034038681809 -0.059258444326316176 -1.0832752437729747 0 0 0
19 4 3 0 4.373276989300346 -0.31989435885469425 -0.6742981999205672 -1 0 0
279 60 4 0 -1.6838468386554657 -1.5466630701794326 -0.5541575255571315 0 0 0
160 32 3 0 -1.2397994564269703 -0.02788640395557529 -0.6750240892147155 0 0 0
158 32 3 0 -1.354495323001186 -0.47065864754031217 -1.244710229193759 0 0 0
349 83 4 0 3.6802537937508135 -0.11685699321838076 -1.1832144999381033 0 0 0
45 9 3 0 -0.6354032613756352 -0.8084898297075035 -4.90235278595258 0 0 0
396 99 4 0 -3.138327302616652 -4.762049037332598 0.7013976431446265 0 1 0
249 50 3 0 4.56186663012981 -1.03435738715868 3.935556316176942 0 0 0
252 51 4 0 1.6163154782335254 -0.3555193912574934 4.990293464940419 0 0 -1
211 43 1 0 0.6099741341467958 -4.125641337006105 1.5130629423274307 0 1 0
212 43 3 0 0.8847414071469617 -4.168868123767405 1.1672487067933992 0 1 0
215 43 3 0 0.18049095396314993 -4.175632574550266 1.3623434786646325 0 1 0
303 68 4 0 1.6027456892899101 -4.9009752581768735 1.0023864889730645 0 0 0
193 39 3 0 2.2738117458983687 -3.6585259825058247 1.3345319412666787 0 1 0
191 39 1 0 2.724031932629747 -3.670281838508744 1.246627130275739 0 1 0
192 39 3 0 2.7938798419934368 -3.5071033809089043 0.8269784290320783 0 1 0
194 39 3 0 2.8760132635401745 -4.091773883493744 1.2798068361137322 0 1 0
302 68 2 0 1.7376392338286204 -4.780704289417886 0.6207397758044239 0 0 0
73 15 3 0 4.441283827055474 -3.9932207719906216 0.7037530091419633 0 0 0
71 15 1 0 4.355465094035468 -4.381252609817077 0.5059792551344797 0 0 0
74 15 3 0 4.191406392611447 -4.68240634449354 0.8160599970459859 0 0 0
75 15 3 0 4.734883442699119 -4.536179555287418 0.31776768270653033 0 0 0
72 15 3 0 4.063863117178622 -4.328191091719598 0.20649854206873156 0 0 0
55 11 3 0 0.22032066653838056 -1.7498270712928934 0.7679269482605423 0 0 0
53 11 3 0 0.045613102823048195 -1.5527199194031287 1.4665881422701057 0 0 0
294 65 4 0 -4.2791533118186695 -0.23287294889645882 0.17186808498775225 0 0 0
321 74 4 0 2.6525585642372502 -0.2833634499431658 4.090481201576597 0 0 -1
1 1 1 0 -2.8551222853756806 -0.2035400576383364 0.7252725552285708 0 0 -1
4 1 3 0 -2.9670321141293012 -0.6430272235180737 0.6786278619017698 0 0 -1
52 11 3 0 0.6939071513064486 -1.3729568234821627 1.1852284597485108 0 0 0
51 11 1 0 0.2573611534043939 -1.4247403241815986 1.086896046611075 0 0 0
54 11 3 0 0.07247705229103893 -1.01870796217237 0.9235858930735051 0 0 0
122 25 3 0 3.612433983977351 -0.9833311291622271 1.5600101559681245 0 0 0
123 25 3 0 4.2948248799557485 -0.7923820281517127 1.3069417622551285 0 0 0
35 7 3 0 2.3441085120168963 -1.1462372478337335 4.624827802351934 0 0 -1
34 7 3 0 2.3476308754763076 -0.5487667378627837 4.201287359975298 0 0 -1
113 23 3 0 -3.2047723047447763 -3.6349920308455688 2.5653436080740057 1 0 0
111 23 1 0 -2.862947483788838 -3.366310663397817 2.6510260304533184 1 0 0
112 23 3 0 -2.4946053888328517 -3.595561621428853 2.6656072434492124 1 0 0
114 23 3 0 -2.93302299598241 -3.158742681167195 3.0484556297443786 1 0 0
87 18 3 0 -3.066130456492944 -4.950277991927731 2.8523469377135484 0 0 0
213 43 3 0 0.7172277802340259 -4.470381225739056 1.8527755179958465 0 1 0
214 43 3 0 0.65544257469331 -3.7261712194655865 1.686947590338383 0 1 0
195 39 3 0 2.9375569958304926 -3.40658408504691 1.54819686405515 0 1 0
291 64 4 0 3.284577389336313 -3.395637195952247 1.7518504811673399 -1 0 0
290 64 2 0 3.650531289393368 -3.2298858968168935 2.003854245029626 -1 0 0
292 64 4 0 4.0047625965790195 -3.068566103968852 2.2438019307607537 -1 0 0
77 16 3 0 4.265529037853655 -3.2237975900312366 2.489223023264555 0 0 0
120 24 3 0 -2.4606287355442875 -1.7098202662394535 1.7276671855561565 0 0 0
150 30 3 0 -3.320220853907129 -1.7119242986561778 2.6075754125634147 0 1 -1
116 24 1 0 -2.49811069805711 -1.9139857617984628 2.1423940914125685 0 0 0
119 24 3 0 -2.6786500906083712 -2.3347171449356936 2.091217267266226 0 0 0
118 24 3 0 -2.100943854629935 -1.9624726336212326 2.326800236601685 0 0 0
149 30 3 0 -2.808289196104467 -1.6446234034476332 3.108767983257445 0 1 -1
115 23 3 0 -2.83778489708299 -3.0429058445239168 2.308333682343685 1 0 0
229 46 3 0 -1.5446747970078638 -2.829711348078827 2.7156555480087365 0 1 0
228 46 3 0 -1.8001984751726487 -2.3294382653716665 3.170180606174719 0 1 0
226 46 1 0 -1.5347191336719748 -2.6943185877569786 3.129468540670998 0 1 0
373 91 4 0 -0.2648431509936377 -2.3649431992597147 2.1765120234136934 0 0 0
371 91 2 0 -0.24762288228100854 -2.085125640317703 2.5190204507781155 0 0 0
227 46 3 0 -1.0991061308631507 -2.5787610598489192 3.241891333986559 0 1 0
98 20 3 0 1.0537030310013051 -2.7393428285215604 3.0669874033301268 0 0 0
99 20 3 0 0.8526084711780848 -2.205429755590798 2.6129154615698944 0 0 0
100 20 3 0 1.3122935032795104 -2.734022466507313 2.4104719501774254 0 0 0
96 20 1 0 1.1935801792202996 -2.4878815468503044 2.749406451040324 0 0 0
97 20 3 0 1.533806698406499 -2.2604638910669834 2.8763891345664487 0 0 0
78 16 3 0 4.737727818807986 -3.538674334335255 2.908391419326318 0 0 0
76 16 1 0 4.444339555741699 -3.216617395582969 2.874216370338319 0 0 0
79 16 3 0 4.644746615300838 -2.8436262163507116 2.9242698814897268 0 0 0
80 16 3 0 4.125473029969872 -3.267725003785316 3.2060984491310633 0 0 0
265 55 4 0 -3.6213145430155484 -1.3221105362253824 3.596923520699183 0 0 0
31 7 1 0 2.0875484902171904 -0.8219770151157587 4.441160902856832 0 0 -1
146 30 1 0 -3.16968727727093 -1.4540942269076687 2.935917122462106 0 1 -1
148 30 3 0 -3.061211102770628 -1.027886233127986 2.76392460117145 0 1 -1
117 24 3 0 -2.746844732057643 -1.6727428942186087 2.41119455391214 0 0 0
372 91 4 0 -0.24141538828470183 -1.8180929700630328 2.843039475756674 0 0 0
370 90 4 0 -1.205795219050885 -0.2306111721433867 2.7664410813193427 0 0 0
140 28 3 0 1.306381226934441 -1.2165050967284876 2.2763268195929554 0 0 0
136 28 1 0 1.6722928706637084 -1.4787071559190663 2.3935891728049046 0 0 0
139 28 3 0 1.8070054847652164 -1.3689455169194393 2.816661606061166 0 0 0
137 28 3 0 2.0164167875246792 -1.391244831954924 2.0953113711897497 0 0 0
138 28 3 0 1.5590542697732888 -1.923830402765924 2.368367030775276 0 0 0
32 7 3 0 1.8766673087468606 -0.5847417270645205 4.768440136584599 0 0 -1
312 71 4 0 3.781305355985746 -0.07410103267657885 1.9164676655787154 0 0 0
124 25 3 0 3.973233956010425 -0.4128897146928664 1.8636700020232086 0 0 0
125 25 3 0 4.219884624895303 -1.103511038163751 2.0009650650060156 0 0 0
121 25 1 0 4.022522113231946 -0.817680412500622 1.6876456191822902 0 0 0
261 54 4 0 -4.150578170817615 -3.229243277396072 4.502446187531718 1 0 -1
102 21 3 0 -4.236295983630095 -3.3190531420529896 4.899287289663179 1 0 0
49 10 3 0 1.6548614414588707 -3.9608591139964124 4.998213745719911 0 0 -1
50 10 3 0 2.377382847983253 -3.85415444791461 4.908999809838681 0 0 -1
260 54 2 0 -3.7149931888202987 -3.107285144831511 4.5457144310538 1 0 -1
230 46 3 0 -1.6863387789145814 -3.0175473291387607 3.398966840132058 0 1 0
262 54 4 0 -3.267158276371799 -2.989983105441648 4.5914766054182 1 0 -1
209 42 3 0 -0.7543126888397146 -1.8445794947275898 3.062185693756614 0 0 0
206 42 1 0 -0.6836760154623414 -1.7331444040861752 3.5179621353912833 0 0 0
207 42 3 0 -0.8942460336890626 -2.0578848064664195 3.805273328985599 0 0 0
208 42 3 0 -0.23833949786087205 -1.7219329020274365 3.599590477248124 0 0 0
47 10 3 0 1.9290935841264538 -3.3025165535413845 4.945868911570531 0 0 -1
263 55 2 0 -4.067306724622375 -1.1960738474346566 3.548770092308223 0 0 0
264 55 4 0 -4.514554742328858 -1.076784863228407 3.5011168362477134 0 0 0
247 50 3 0 -4.720052467526131 -1.0969752999390792 3.864860722370042 1 0 0
248 50 3 0 4.976975906299839 -0.4771125493978934 4.051650601016446 0 0 0
246 50 1 0 4.943880895155167 -0.9058081612408271 4.095274849192066 0 0 0
250 50 3 0 4.969962734007208 -1.0198092470372877 4.526937001948197 0 0 0
147 30 3 0 -3.467760126536393 -1.4154875756070968 3.248292428358924 0 1 -1
306 69 4 0 -2.031908683259718 -0.5759296145074618 3.981129004076526 0 0 0
305 69 2 0 -1.7203522490177034 -0.4561487214366197 4.296589147398789 0 0 0
108 22 3 0 -2.999840752189645 -1.463633563524871 4.600761805908198 0 0 0
107 22 3 0 -2.250709792493695 -1.5408939704479596 4.773500998439727 0 0 0
368 90 2 0 -1.2089294823048036 -0.2796208191567571 3.218352655472158 0 0 0
369 90 4 0 -1.208187996652487 -0.3233218517759854 3.685410567689031 0 0 0
210 42 3 0 -0.8669166955432639 -1.3227410277537301 3.611341463035105 0 0 0
307 69 4 0 -1.4057733671292036 -0.33273101550141254 4.6102403723631395 0 0 0
43 9 3 0 -1.202985953834415 -0.6917818510656831 4.612598053417992 0 0 -1
42 9 3 0 -1.002060701197039 -1.3913110231226948 4.8357244758521905 0 0 -1
391 97 4 0 -4.6969879892972015 -0.2785692847816882 4.180298826421803 1 0 0
320 74 2 0 3.061472239865476 -0.10397710185242098 4.137776320452986 0 0 -1
33 7 3 0 1.7780593290511357 -1.0166871084965696 4.163958608628035 0 0 -1
2 1 3 0 -2.4970440273123344 -0.10674393803844827 0.4371169626871514 0 0 -1
5 1 3 0 -2.724619491816454 -0.12839697119472465 1.1523352202600519 0 0 -1
103 21 3 0 4.994868390170983 -3.4387796484276403 4.831155650391488 0 0 0
106 22 1 0 -2.6786135373191855 -1.4142691479126475 4.939795560599642 0 0 0
41 9 1 0 -1.0354816385051842 -0.9576939142363919 4.972072970677471 0 0 -1
365 89 2 0 -4.628676390473715 -4.5150579595595035 0.03263558361923012 1 1 0
304 68 4 0 1.885004787155872 -4.652998199845569 0.19208320956538763 0 0 0
367 89 4 0 -4.960892742081249 -4.302413477647753 0.23165150844804516 1 1 0
8 2 3 0 1.5135138250791922 0.7784603692484707 -4.988408440859807 0 0 0
225 45 3 0 1.0041419865950263 1.0907397760056008 -3.408969661697623 0 0 1
7 2 3 0 0.788114894205334 0.8262383927704254 -4.970534036424992 0 0 0
221 45 1 0 0.8306648486431474 1.4939730214050824 -3.4590655312351526 0 0 1
157 32 3 0 -1.8429969720510722 0.030531733803149864 -1.0585180102711784 0 0 0
10 2 3 0 1.195699098331023 1.408918009464876 -4.788000768130638 0 0 0
237 48 3 0 -0.6297298550746916 2.7804128679502234 -3.5898089994899216 0 0 1
236 48 1 0 -0.20055983213977546 2.865527992505069 -3.608692378600158 0 0 1
240 48 3 0 -0.10982923423515435 3.105642026364288 -3.9920274975404624 0 0 1
239 48 3 0 0.019550678075705367 2.5049614809585097 -3.617155537999623 0 0 1
223 45 3 0 0.4517620277605221 1.4636838354364152 -3.6972714790977643 0 0 1
151 31 1 0 1.3278743715537418 2.4573574751738136 -4.916133473083734 0 0 0
153 31 3 0 1.2447782803481529 2.0931648678825754 -4.661181360746261 0 0 0
152 31 3 0 0.9946887687659847 2.7302679406232664 -4.878816231807814 0 0 0
398 100 2 0 0.3324889228268736 3.1132256377435383 -4.573060066793151 0 0 1
400 100 4 0 0.6643068200363872 2.9345065600756213 -4.801206211229269 0 0 1
399 100 4 0 0.01899667137763107 3.282945202376909 -4.338817530308011 0 0 1
224 45 3 0 1.1182522531484826 1.7546024926617763 -3.6722959578244634 0 0 1
155 31 3 0 1.6869889009895758 2.65345343023894 -4.761477266704257 0 0 0
166 34 1 0 -3.8726244523133273 3.856102566581222 -4.953177853378946 0 0 0
168 34 3 0 -3.9519911730915362 4.282786582159629 -4.771088102999946 0 0 0
167 34 3 0 -4.155791556720375 3.556341909884906 -4.761102774453956 0 0 0
169 34 3 0 -3.436603043544871 3.7308046203064613 -4.869753953513772 0 0 0
175 35 3 0 4.243346964042012 4.540593572461162 -3.155061102787794 -1 0 0
173 35 3 0 3.978247365825314 4.455393246166081 -3.842169112375922 -1 0 0
171 35 1 0 4.1760115325417 4.73986103824422 -3.5676550956739197 -1 0 0
174 35 3 0 4.575134134310069 4.862732996815969 -3.7443348223914077 -1 0 0
179 36 3 0 -4.0620177536291 1.4051399727804323 -2.532791487302742 1 0 0
358 86 4 0 -3.8917435693637894 1.1179018492962538 -2.783628620228369 1 0 0
356 86 2 0 -3.563479755863709 0.7911420490011468 -2.8597597528863195 1 0 0
180 36 3 0 -4.552288889520892 1.8037364723859217 -2.197721221384014 1 0 0
357 86 4 0 -3.2558646625770646 0.4692974947332494 -2.933301833230951 1 0 0
297 66 4 0 -3.2304679657297295 0.08228922529264805 -2.980767562815533 0 0 1
222 45 3 0 0.7425260617151376 1.6692959224616253 -3.0503677757829752 0 0 1
177 36 3 0 -3.9857057356852743 1.6362717223245427 -1.8626591599098037 1 0 0
176 36 1 0 -4.149359267841447 1.7471282557741292 -2.2306978300362497 1 0 0
178 36 3 0 -3.9449073119257343 2.138178608840255 -2.3763063187865483 1 0 0
388 96 4 0 -3.736926738607257 2.475231660707077 -2.5014031933625818 0 0 1
386 96 2 0 -3.645642563054893 2.919629754487479 -2.457025200697025 0 0 1
238 48 3 0 -0.0799418003128135 3.116846548731244 -3.2453039665600016 0 0 1
387 96 4 0 -3.5420468509434837 3.3686953304073484 -2.4009928797489 0 0 1
63 13 3 0 -3.8139667997242195 3.6358701357787098 -2.447976963745357 1 -1 0
65 13 3 0 -3.65003603830637 4.299543935733973 -2.099948960764131 1 -1 0
64 13 3 0 -4.307091858109173 4.16622001523972 -2.431015942921599 1 -1 0
61 13 1 0 -3.9981343755781196 3.976248312338464 -2.203594117466748 1 -1 0
62 13 3 0 -4.176422877978188 3.8128161059434977 -1.8108190373780995 1 -1 0
257 53 2 0 4.319673004007995 3.740082451548854 -0.47732705588968366 0 0 0
382 94 4 0 -3.491299908316183 1.198456719605477 -0.8002335826417714 0 0 0
132 27 3 0 -3.776882475072587 1.1765983898747445 -0.5161465706529406 0 0 0
380 94 2 0 -3.5923766101594907 1.377138546803592 -1.1835072542974938 0 0 0
381 94 4 0 -3.6994038904059794 1.5599695128408948 -1.5706718359615113 0 0 0
258 53 4 0 4.562483324187131 4.043516350386422 -0.2942915167626265 0 0 0
131 27 1 0 -3.777648141359305 1.1967737114024013 -0.05716434090616253 0 0 0
299 67 2 0 -1.0191528754545136 0.9323675083213881 -1.592479469212608 0 0 0
301 67 4 0 -0.7362682020466172 1.2821318879494232 -1.6252542082246901 0 0 0
300 67 4 0 -1.296601757063346 0.5917819934016756 -1.5450402391852602 0 0 0
159 32 3 0 -1.2164667987406619 0.247018079481742 -1.3617205439171518 0 0 0
27 6 3 0 -0.28565068166196006 2.322154785830994 -0.12293411804604641 0 -1 0
353 85 2 0 2.7925851260735186 4.2279685025100635 -0.3540091581629822 0 0 0
183 37 3 0 3.2060775218333393 2.9353321463549262 -0.7974286087269822 0 0 0
181 37 1 0 3.3157628865887503 3.167096319849128 -0.43891983487846775 0 0 0
182 37 3 0 3.744350889591137 3.3202783883450464 -0.49345388682140257 0 0 0
259 53 4 0 4.089416768350117 3.44002429647173 -0.6624142937134742 0 0 0
275 59 2 0 0.679809493298504 3.5444553796122675 -0.2992973643564198 0 -1 0
277 59 4 0 0.9636416632344507 3.88143550739749 -0.32878307908584287 0 -1 0
363 88 4 0 0.9858556936250827 4.022440415532105 -0.7003003120049008 0 0 0
362 88 2 0 1.1143262400825684 4.439097643931217 -0.858268512635633 0 0 0
364 88 4 0 1.2334512974102774 4.810658019094063 -1.0043589707275389 0 0 0
162 33 3 0 2.235864486008478 4.807322714780582 -0.6005583418339336 0 0 0
164 33 3 0 1.5523913956465167 4.938773250671338 -0.7957088216200289 0 0 0
185 37 3 0 3.0437886739958953 3.5162160360185095 -0.3955726660957827 0 0 0
354 85 4 0 2.5386869463063126 4.5724537476753655 -0.469804198003198 0 0 0
355 85 4 0 3.043378326331472 3.886547931057348 -0.22604955481593528 0 0 0
30 6 3 0 0.16894251383854866 2.904686923995641 -0.1345137883671256 0 -1 0
184 37 3 0 3.2869839668473135 2.9152193662085533 -0.09652975890635332 0 0 0
334 78 4 0 -4.229463698169704 4.928244457845599 -0.011777307455366377 1 0 0
276 59 4 0 0.39675357306800574 3.2055664118085017 -0.2737993609425196 0 -1 0
253 51 4 0 1.8416245291376687 0.5300746564103279 -4.982968666906396 0 0 0
251 51 2 0 1.7233707156573217 0.08040409754979133 -4.997467060833131 0 0 0
295 65 4 0 -4.384023078982097 0.660580264734024 0.06405178224570555 0 0 0
134 27 3 0 -3.9744071094844027 1.5641223631765862 0.07765666051051161 0 0 0
293 65 2 0 -4.330020572438737 0.2060989930680235 0.11653409266729652 0 0 0
375 92 4 0 -0.7981214909260531 3.4131978029008723 4.7058606633908955 0 0 -1
270 57 4 0 -2.381449343045556 0.07391382673782684 1.1604571765489486 0 0 -1
60 12 3 0 3.076808445351525 2.1002510138172363 3.351801630795665 -1 -1 0
85 17 3 0 2.5661314432816065 1.3600401156637556 1.6927987376270663 -1 0 0
361 87 4 0 -3.2170784551371874 2.2934491692479435 1.0080744634661758 0 0 0
359 87 2 0 -3.399050491526306 2.5658104621138853 0.6881059689270503 0 0 0
360 87 4 0 -3.575084837093702 2.8227198681912604 0.3786108067994948 0 0 0
351 84 4 0 -3.89737216297727 2.999653674341438 0.5258685848293043 0 0 0
350 84 2 0 -4.085305787941936 3.4089697711076705 0.4655620821275705 0 0 0
383 95 2 0 -1.896552690212756 2.283490489077281 1.8359857369464307 0 0 0
384 95 4 0 -2.082851579959379 2.546422339276198 1.5039263381623156 0 0 0
314 72 2 0 -0.616778850723263 2.4952009751257336 0.9966892327628841 0 -1 0
28 6 3 0 -0.12757407579091878 2.6741283030254857 0.4952759625425177 0 -1 0
315 72 4 0 -0.8308022850254823 2.596642866816155 1.3706301182059717 0 -1 0
316 72 4 0 -0.3945461467969719 2.3955310807833063 0.5972005303313738 0 -1 0
26 6 1 0 0.03282456730910822 2.541670392569668 0.0985818909386982 0 -1 0
311 71 2 0 3.492431850087425 0.2616668288386611 1.9620517054236069 0 0 0
217 44 3 0 -3.8794238803820296 0.061111308795795266 2.987391365482096 1 0 0
333 78 4 0 -4.087567722494345 4.022273952082262 0.14294256863248425 1 0 0
352 84 4 0 -4.272208838289706 3.8038315271263725 0.41010417864245136 0 0 0
332 78 2 0 -4.155438872966975 4.466780477909006 0.0670247597438322 1 0 0
88 18 3 0 -3.773082436919796 4.908480665909615 2.8388132511302135 0 -1 0
202 41 3 0 1.1731611176522934 4.457074046519538 1.528517294183932 0 0 0
201 41 1 0 1.5822003197289989 4.408821076007611 1.37044437041154 0 0 0
205 41 3 0 1.5676450980437855 4.130725392116418 1.0032376352957506 0 0 0
89 18 3 0 -3.3723962039885627 4.93705198229194 2.2144884206019384 0 -1 0
204 41 3 0 1.8641278729694493 4.2276544507780764 1.700184366771257 0 0 0
203 41 3 0 1.745984304800865 4.817277984868179 1.248127574727912 0 0 0
219 44 3 0 -4.382724022215103 0.5389926907562496 2.7778520155321345 1 0 0
216 44 1 0 -4.069778225334196 0.43608503595618076 3.0948666637898667 1 0 0
218 44 3 0 -3.763133581072387 0.7555837864310517 3.119625072604871 1 0 0
271 57 4 0 -1.9192967353897576 0.0697019108170092 1.9920647451990003 0 0 -1
269 57 2 0 -2.144720829357687 0.07085271567950993 1.5746838816088928 0 0 -1
81 17 1 0 2.5772332478029965 1.0957220841910584 2.046888735136119 -1 0 0
82 17 3 0 2.752430794930789 1.3340626940213856 2.409455784779575 -1 0 0
83 17 3 0 2.82338684218728 0.7469236204778777 1.9607573533171796 -1 0 0
84 17 3 0 2.153517381061166 0.9578830553889315 2.1370919213989192 -1 0 0
313 71 4 0 3.1987573499833837 0.5936526892428904 1.9940253249899795 0 0 0
343 81 4 0 -3.374934274742561 2.3459936334109743 1.3976445610639865 0 0 0
341 81 2 0 -3.1830565485058213 2.4673823538802027 1.779745149362326 0 0 0
342 81 4 0 -2.978286667697753 2.6057831031724277 2.199006471318308 0 0 0
346 82 4 0 -2.838711716138196 2.918684357288064 2.4114144726690565 0 0 -1
344 82 2 0 -2.5033729343772286 3.0525034283083343 2.678164278347962 0 0 -1
345 82 4 0 -2.14093456057965 3.1926466077014095 2.9498505830926467 0 0 -1
394 98 4 0 -1.7761987171179243 3.378640757530984 2.8516010603275426 0 0 0
385 95 4 0 -1.710591241649849 1.9942814781937455 2.1913296224171983 0 0 0
129 26 3 0 -0.9155655989150236 2.8767555317970928 1.6748823599690739 0 0 0
127 26 3 0 -0.8416803758380599 3.272593857567272 2.296450588658932 0 0 0
126 26 1 0 -0.6163186962087172 3.0577424042293178 1.9238022343780288 0 0 0
128 26 3 0 -0.3389052554111722 2.753326935210929 2.082202831148992 0 0 0
392 98 2 0 -1.480056081329744 3.4262765775230606 2.5210754717215087 0 0 0
393 98 4 0 -1.1818194354819997 3.4737095654563066 2.1943182337131435 0 0 0
58 12 3 0 2.703391430181381 2.0567884102665084 2.73946103307712 -1 -1 0
57 12 3 0 2.792761496530668 2.692870191410435 3.0780272643061664 -1 -1 0
56 12 1 0 2.982739744529645 2.309001570674401 2.9851904985336986 -1 -1 0
59 12 3 0 3.363057322561612 2.3813518739691335 2.7482824444313425 -1 -1 0
90 18 3 0 -3.2755842630491085 4.401044764830113 2.689727093712691 0 -1 0
86 18 1 0 -3.3669740071899072 4.821725113453378 2.65067182095333 0 -1 0
309 70 4 0 -1.884731454126624 3.324267268622671 3.219741166645718 1 0 0
130 26 3 0 -0.3803233147985543 3.367569707859967 1.6834909527512805 0 0 0
327 76 4 0 3.357849298453767 1.915694160463189 3.58034695545022 0 0 -1
220 44 3 0 -4.255948784172724 0.4009206385624125 3.4599854511359673 1 0 0
390 97 4 0 -4.260523862236867 0.4090210759330845 3.8681771806040777 1 0 0
389 97 2 0 -4.495030754871274 0.04269973601653561 4.034204336689965 1 0 0
243 49 3 0 -0.009725236550075046 1.6479166697304448 3.543911501372493 0 0 0
9 2 3 0 1.1594111712126778 1.184990029903983 4.499526496498861 0 0 -1
322 74 4 0 3.4501130578348898 0.07191041491866902 4.186245920889439 0 0 -1
200 40 3 0 3.7897191945039412 0.22458671418690793 4.043788620192076 0 0 0
3 1 3 0 -3.2260292460737094 0.06361537285267936 0.6288476140839407 0 0 -1
395 99 2 0 -3.3573915819194426 4.928874470742686 0.9202958638133265 0 0 0
197 40 3 0 3.9995351719970405 0.617372295875522 3.4703765371314512 0 0 0
326 76 2 0 3.4251005541790382 1.5581804696437669 3.8585870370296784 0 0 -1
328 76 4 0 3.4949624212326458 1.2270177580403627 4.125324087919164 0 0 -1
198 40 3 0 4.413074916256889 0.5485407631982127 4.097692585046241 0 0 0
196 40 1 0 3.990937325393886 0.5752976845955093 3.9368427930160173 0 0 0
199 40 3 0 3.7850009661225594 0.9495977041572691 4.122820954361278 0 0 0
308 70 2 0 -1.8502090350599456 3.1811862910163367 3.64989602526754 1 0 0
310 70 4 0 -1.8136842619923605 3.0364461482177307 4.085136355869174 1 0 0
377 93 2 0 -1.617227159523447 2.205876010087192 4.469191258854819 0 0 0
378 93 4 0 -1.7035138655302922 2.661280068620362 4.257122807591968 0 0 0
379 93 4 0 -1.552669588024811 1.8067832877782977 4.657335970810518 0 0 0
244 49 3 0 0.14903304559114744 2.2750279592238325 3.911487617483013 0 0 0
376 92 4 0 -1.4472277898328214 3.020209088114708 4.29189907852995 0 0 -1
374 92 2 0 -1.1335064165632351 3.2140327319583633 4.49774867604041 0 0 -1
241 49 1 0 -0.11742053463014668 1.893915487824146 3.901154381972652 0 0 0
245 49 3 0 -0.039129357684977606 1.6497614455843264 4.2895581928070285 0 0 0
242 49 3 0 -0.5302671026918045 2.0087029887067125 3.884717326006512 0 0 0
154 31 3 0 1.3803968928670738 2.3588100839665915 4.684466505412269 0 0 -1
397 99 4 0 -3.567813974380947 4.6199907206480235 1.1421343524881549 0 0 0
6 2 1 0 1.1647770070093129 1.041807458452092 4.9435743067601745 0 0 -1
170 34 3 0 -3.9473090586490227 3.8570678333371764 4.593827422594537 0 0 -1
135 27 3 0 -4.011428984123572 0.8142956947934479 0.10192422358630283 0 0 0
133 27 3 0 -3.3407213819517216 1.1801365920225124 0.10335441639702975 0 0 0