LAMMPS data file via write_data, version 19 Nov 2024, timestep = 100000, units = lj

79 atoms
4 atom types
54 bonds
1 bond types
35 angles
2 angle types

-3.045986 3.045986 xlo xhi
-3.045986 3.045986 ylo yhi
-3.045986 3.045986 zlo zhi
-1.120259440767768e-11 0 0 xy xz yz

Masses

1 1
2 1
3 0.1
4 0.1

Bond Coeffs # harmonic/omp

1 100 0.45

Angle Coeffs # harmonic/omp

1 100 180
2 100 109.471

Atoms # full

23 7 2 0 -2.8590648886654444 -0.8289091616008548 -1.8155532913860895 1 0 1
25 7 4 0 -2.5899785512511815 -0.6950346954482294 -1.448502845923471 1 0 1
3 1 3 0 -1.6923258694524554 -1.0372172651095823 -0.8783473913395703 1 0 1
1 1 1 0 -1.813441996507212 -0.6548107008575412 -1.0599674628054898 1 0 1
2 1 3 0 -2.2385087955554663 -0.7035955325473404 -1.2632195332485328 1 0 1
5 1 3 0 -1.8375646025586514 -0.3357853693360888 -0.739834759915337 1 0 1
59 19 2 0 -1.52813393119054 -1.1865011564790064 -0.09692408653077944 1 -1 0
30 9 4 0 -2.07434224856625 -0.06571332240009387 -0.5836194089981972 1 0 1
60 19 4 0 -1.5646189345771393 -1.018848491685214 -0.505298819703079 1 -1 0
4 1 3 0 -1.5080933525281255 -0.5390623498440781 -1.36499488522673 1 0 1
27 8 4 0 -1.2201834449110267 -0.3183491010267865 -1.2275145612428284 1 0 1
26 8 2 0 -0.9253503664227702 -0.017503571300383047 -1.3659122466811564 1 0 1
56 18 2 0 -0.45754648371827944 -0.8372099724766882 -0.6033678169684826 1 -1 0
58 18 4 0 -0.30206108461323655 -0.5411623515555077 -0.900203661953975 1 -1 0
57 18 4 0 -0.6136278781727107 -1.1323579695133024 -0.3144729520419176 1 -1 0
79 25 4 0 -0.005275483670085013 -0.5858798948725279 -1.15932596478687 1 0 1
55 17 4 0 -2.0964449687301316 -1.5177017345617017 1.2440007595701736 1 0 0
53 17 2 0 -1.7484585445156637 -1.4340453288018449 0.9713416921983491 1 0 0
7 2 3 0 -2.456723155772527 -1.4700121420346177 1.3818931173075208 1 0 0
61 19 4 0 -1.4924098586301298 -1.3563695790277304 0.2966340700812409 1 -1 0
54 17 4 0 -1.3922826509963813 -1.3394187855184063 0.694109894486548 1 0 0
10 2 3 0 -2.4502320266686155 -1.8547372932768413 2.0035212823900013 1 0 0
69 22 4 0 -2.2455713254521905 -2.19113632042262 1.9622061990566975 1 1 0
68 22 2 0 -1.9988504194664636 -2.5585510551813457 1.9645506368431231 1 1 0
70 22 4 0 -1.7420459234155248 -2.9389521175678026 1.9742642524058551 2 1 0
6 2 1 0 -2.5869673009514167 -1.4829660511122187 1.8321816837203553 1 0 0
8 2 3 0 -2.400356991926296 -1.1256323484083897 2.057668399118877 1 0 0
9 2 3 0 -3.0197493029244296 -1.4575348645991688 1.8609669282178736 1 0 0
29 9 2 0 -1.9956698536493407 0.10415848946436856 -0.15049765886323785 1 0 1
28 8 4 0 -0.6097414188405925 0.2952514257446479 -1.5065870684005567 1 0 1
75 24 4 0 -0.20203380546466665 0.3459188361140022 -1.512537434602031 1 0 1
20 6 2 0 -1.5584446910297325 0.40601144524597643 0.904773308124474 1 0 0
21 6 4 0 -1.5969247960658661 0.3021399520359025 0.4784206184248845 1 0 0
31 9 4 0 -1.9191116182417782 0.25936589619605144 0.2588365524579559 1 0 1
22 6 4 0 -1.5153626659293626 0.508656188775864 1.3534520302782873 1 0 0
12 3 4 0 -1.1797012810540726 0.671690479289766 1.5181027276077916 1 0 0
64 20 4 0 -2.6776302086059007 2.279521037087898 1.4035889681863196 1 -1 0
62 20 2 0 -2.996022913308837 2.007889656066448 1.2476420579000296 1 -1 0
48 15 4 0 -2.297550913437322 2.121608143211412 1.4561137153374082 1 1 1
13 3 4 0 -0.28819582033208313 0.8766653097141686 1.5703359329123794 1 0 0
11 3 2 0 -0.7247859615255732 0.7799382813116065 1.542619117475427 1 0 0
16 4 4 0 -0.03135865523262682 1.1363403620859387 1.7266948726027591 0 0 0
47 15 2 0 -2.051011555283303 2.4555967674627484 1.6727229589749166 1 1 1
49 15 4 0 -1.810714611070373 2.7820847475133546 1.8811809163573079 1 1 1
37 11 4 0 2.3716018947234927 -1.7083062724964573 -3.0103303536150756 -1 0 1
35 11 2 0 2.555335013629141 -1.4883619161569643 -2.6838157826003823 -1 0 1
36 11 4 0 2.7568140624992523 -1.2482313120007806 -2.327133002959715 -1 0 1
24 7 4 0 2.9729419575294234 -0.9567318500102298 -2.160251409775456 0 0 1
72 23 4 0 1.1861292529196241 -0.20815136350921426 -1.5170916443283167 1 0 1
78 25 4 0 0.831629416626849 -0.36264293294325656 -1.4031288958505632 1 0 1
77 25 2 0 0.41075540661049414 -0.4775689110171326 -1.2803953346016936 1 0 1
71 23 2 0 1.4723773546002379 -0.08169847927451146 -1.190296436449381 1 0 1
41 13 2 0 2.5680907016881793 -1.7674983282078347 2.306694677239597 0 0 0
43 13 4 0 2.3689411559281455 -1.8066074747551046 2.711213150027933 0 0 0
42 13 4 0 2.762807487048052 -1.7243111704134793 1.9007397829183885 0 0 0
19 5 4 0 1.2351446099916883 0.6415732510323506 -2.608282682075762 0 0 1
17 5 2 0 1.373113018262786 0.456167971058671 -2.219183236665961 0 0 1
18 5 4 0 1.5135898336286653 0.27008029895203833 -1.8271745887107391 0 0 1
67 21 4 0 2.327616471512969 2.143134600917606 -1.7970739242741092 1 -1 1
76 24 4 0 0.42242452919848805 1.0143225391527242 -1.4275653183542194 1 0 1
74 24 2 0 0.1055352566931731 0.6742550657787669 -1.4695814317897598 1 0 1
51 16 4 0 0.6727253317904647 1.3325034815098649 -1.4376970375406792 1 0 1
50 16 2 0 1.0662321142417106 1.492074016358103 -1.2756640618732928 1 0 1
32 10 2 0 2.0459688782987486 0.6511233644059362 -0.35596767261305695 0 0 1
34 10 4 0 1.8244126371266125 0.34161112604503074 -0.6086396155512377 0 0 1
33 10 4 0 2.2686384042722434 0.9601118220878782 -0.10754224833618853 0 0 1
73 23 4 0 1.7548780308098584 0.04839329729904218 -0.8753954050592445 1 0 1
40 12 4 0 2.444177682706955 1.299708660412306 -0.016692190374027582 0 0 1
52 16 4 0 1.4562017784027965 1.6490568178509744 -1.112294540280967 1 0 1
65 21 2 0 2.085485058415089 1.8983691110434844 -1.5102997279195853 1 -1 1
66 21 4 0 1.8486724890402684 1.6499622921877135 -1.2241524819439162 1 -1 1
15 4 4 0 0.730219208001353 1.401918882184277 1.3023705390582432 0 0 0
45 14 4 0 1.0288477749959988 1.256236913317485 1.060843456274859 0 0 0
14 4 2 0 0.3475664476818596 1.2668908215149157 1.5164056658940517 0 0 0
44 14 2 0 1.4294330453453563 1.1119091903254317 1.2168389100385975 0 0 0
46 14 4 0 1.830030834549512 0.9709964921226586 1.3725299314724602 0 0 0
38 12 2 0 2.549215593618623 1.344968672716628 0.4292199010649047 0 0 1
39 12 4 0 2.6575875559311832 1.3943246506653368 0.878027170793299 0 0 1
63 20 4 0 2.7522083024488593 1.7258648210498873 1.088066598498119 0 -1 0

Velocities

23 -0.11638992171172445 -0.26818775978713477 -0.14594313880990478
25 -0.020448754002343687 -0.019797487094743268 -0.6556045752864808
3 0.0722140579029901 0.26393453616393747 0.3614616681004983
1 0.08127337198203208 0.2007257254537282 -0.11668152983124563
2 0.027946598147297396 -0.3200583310308867 -0.06943456115698626
5 0.22603915344160966 -1.0508655128939752 -0.986267460138486
59 0.10826850319772491 -0.06661643613981039 0.13469673903142107
30 -0.42388460251202453 0.008981777619269604 -0.2578803459149106
60 0.3442993923710552 -0.028325101431821917 -0.7598124970698531
4 -0.42264729385668304 -0.6599375702467285 -0.7431862188203763
27 0.295237906513401 0.03295562807928686 0.17503624732742668
26 -0.1662932594583264 0.0733807736232414 0.053841118832641165
56 0.08212221427256299 0.15401514808431324 -0.07007092540210255
58 0.38160186135197377 0.47027155170245055 0.3899554998075525
57 0.1838931112499244 0.14978593759292505 0.490131907749882
79 -0.610473056880568 -0.17130106012663143 0.47088281478089805
55 -1.05681005034671 1.2280075898958578 0.14719801899412896
53 -0.004796731659659457 -0.19601705897518037 0.03933011212654191
7 0.757621586852627 -0.3444186521668224 0.1901837526197941
61 0.3563350378929367 -0.06936085779195181 1.024748866837585
54 0.1621593583097844 0.1943211331640147 -0.32463233948651005
10 0.6143074550695532 0.5243425693131522 0.09171898614670969
69 -0.7979361588120257 -0.44790483862961045 0.18134766902469265
68 -0.05361097072839625 0.003071411064112687 0.060348997246492286
70 0.43307592394911043 1.2677903964395063 0.2757368945867513
6 -0.053469570596274114 0.05784640630071995 -0.016827708652959395
8 0.1459448444817369 0.08245552032103133 -0.3459618967475816
9 0.7722070776160751 -0.7133779751967049 0.17374926507951108
29 0.029843367202412947 -0.028051258356444654 -0.12588475703871937
28 0.21931417459613134 0.611901913923405 0.011800627843640474
75 0.22672563772795776 -0.2592856154191281 0.4166535104511378
20 -0.03233639221460049 0.03445630285720079 0.020033363672821408
21 0.6019104568895305 -0.308300206931127 -0.1031824476382282
31 -0.012209529447210243 0.0942149614041044 -0.8773257432805062
22 0.5507270489049756 0.1795690351271743 0.00662326159573915
12 -0.24347044180187105 0.16430398409431873 0.4664441926276776
64 0.08344601901768972 0.14608799057103855 0.9336689419617901
62 -0.14189487244581084 -0.0005667261139140306 -0.0679287912925149
48 0.8179527411576879 -0.36268536301394216 -0.028735744189319467
13 -0.06253165737652523 0.732975393390049 -0.8244728819497826
11 0.0778558801914156 -0.16925182787075 0.06774783385476922
16 0.6988225209694557 0.31970685319063663 0.753844917751291
47 0.06188910074089878 -0.18189635636827853 -0.061537841725034736
49 -0.17240361992776415 0.7208779839189662 0.5271028042706267
37 0.5469082071820063 0.7330091372642398 -0.32528292431670613
35 0.1754874640357527 0.1330991229832174 0.34715173312094283
36 -0.4992009285566593 0.010547437984543166 0.2065405264303297
24 -0.842952045039466 0.1430466952168392 0.448673089108703
72 0.2900587788091046 -0.3768605630939137 -0.46308997277113256
78 -0.6784228915315675 -0.18569932109110143 1.1933680251532084
77 -0.13493384708667067 0.012279936212776059 -0.02408674423336274
71 -0.0970327481419485 -0.06710600825327874 0.10069060840575862
41 0.15419971587591497 -0.1340543855478382 0.24086425485104992
43 0.37468703503793294 0.3194528264620721 -0.001829419863440288
42 -0.4072624223753653 0.511423551853201 -0.2858918573984927
19 0.23764164818215067 -0.7358166835619288 -0.2282596363795975
17 -0.16031318563174465 0.016503116589774658 0.14940875322371822
18 0.12919567497606035 -0.18888490285093212 -0.2758356890730929
67 -0.13496590455060822 0.7395452659196878 0.11259724083562433
76 -0.3023121238610245 -0.04878071080635857 0.3020391455020518
74 0.075626695457905 -0.3098244584547441 0.04977664183514983
51 0.3212568179952416 -0.06136440277066863 -1.5473393590433029
50 0.16275706553673913 0.2920363482930085 -0.06396948416566159
32 -0.3477460144812106 0.2846925195962422 0.04006016729859205
34 0.1647062139731212 -0.08531222078437169 0.7472966007887861
33 -0.3476314272552717 0.027240783359758228 -0.054119964304086866
73 -0.7336910833361605 -0.8294478687996887 -0.381129168206676
40 0.11224845549119346 -0.042827444054424124 0.3023834268004063
52 0.102473194123662 0.2899311686257035 -0.14695124470970322
65 -0.1293802407972655 0.15483493996467346 -0.26626178504327747
66 -0.7147105622805737 -0.49415026739063656 -0.597314634976719
15 -0.3167409970350674 0.23416457475447205 0.5272197546162672
45 -0.014556400272284437 0.4321106331362903 -0.32380540940000413
14 0.09132906958399695 0.04178508471026978 -0.053277694184502525
44 -0.12787184177930339 0.08326195534192056 -0.14268931090247783
46 1.1680643759489222 0.4996955886784763 -0.1796255264112633
38 -0.09533483941303672 -0.26847504652008064 -0.22425750492210028
39 -1.0105297284987027 -0.20924724117904808 0.15065632427458367
63 0.55486538538146 -0.03281622939745458 -0.1416487660831472

Bonds

1 1 23 24
2 1 23 25
3 1 1 2
4 1 1 3
5 1 1 4
6 1 1 5
7 1 59 60
8 1 59 61
9 1 26 27
10 1 26 28
11 1 56 57
12 1 56 58
13 1 53 54
14 1 53 55
15 1 68 69
16 1 68 70
17 1 6 7
18 1 6 8
19 1 6 9
20 1 6 10
21 1 29 30
22 1 29 31
23 1 20 21
24 1 20 22
25 1 62 63
26 1 62 64
27 1 11 12
28 1 11 13
29 1 47 48
30 1 47 49
31 1 35 36
32 1 35 37
33 1 77 78
34 1 77 79
35 1 71 72
36 1 71 73
37 1 41 42
38 1 41 43
39 1 17 18
40 1 17 19
41 1 74 75
42 1 74 76
43 1 50 51
44 1 50 52
45 1 32 33
46 1 32 34
47 1 65 66
48 1 65 67
49 1 14 15
50 1 14 16
51 1 44 45
52 1 44 46
53 1 38 39
54 1 38 40

Angles

1 1 24 23 25
2 2 2 1 3
3 2 2 1 4
4 2 2 1 5
5 2 3 1 4
6 2 3 1 5
7 2 4 1 5
8 1 60 59 61
9 1 27 26 28
10 1 57 56 58
11 1 54 53 55
12 1 69 68 70
13 2 7 6 8
14 2 7 6 9
15 2 7 6 10
16 2 8 6 9
17 2 8 6 10
18 2 9 6 10
19 1 30 29 31
20 1 21 20 22
21 1 63 62 64
22 1 12 11 13
23 1 48 47 49
24 1 36 35 37
25 1 78 77 79
26 1 72 71 73
27 1 42 41 43
28 1 18 17 19
29 1 75 74 76
30 1 51 50 52
31 1 33 32 34
32 1 66 65 67
33 1 15 14 16
34 1 45 44 46
35 1 39 38 40
