LAMMPS data file via write_data, version 4 Feb 2025, timestep = 11833330, units = lj

6000 atoms
4 atom types
4500 bonds
1 bond types
5250 angles
2 angle types

-12.037717 12.037717 xlo xhi
-12.037717 12.037717 ylo yhi
-12.037717 12.037717 zlo zhi
-0.0002407543399840506 0 0 xy xz yz

Masses

1 1
2 1
3 0.1
4 0.1

Bond Coeffs # harmonic/omp

1 100 0.45

Angle Coeffs # harmonic/omp

1 100 180
2 100 109.471

Atoms # full

1408 282 3 0 -11.637505900189677 -11.24354988101768 -11.756500023966987 5 0 1
1406 282 1 0 -11.456261090310935 -11.196437556264938 -11.321650795182366 5 0 1
1410 282 3 0 -11.177233256591952 -11.528987199278516 -11.23310088044382 5 0 1
4936 1146 2 0 -7.335583800760633 -11.951004749660433 -11.606632010603333 17 1 0
573 115 3 0 8.847047034237153 -0.5050879814924976 -4.456580150149662 10 0 0
154 31 3 0 -5.934042939196253 -11.27035596073162 -11.980217969485219 4 0 0
2349 470 3 0 -1.5991078187156287 -11.465511242527983 -11.443786248594977 15 1 0
1409 282 3 0 -11.227332060897103 -10.808329576234094 -11.301325479632302 5 0 1
5007 1169 4 0 -11.57073304853796 -10.930123677211565 -12.002861378099993 4 0 0
3777 759 4 0 -11.02814599165637 -10.742242259733702 -11.651798039756763 4 0 0
3775 759 2 0 -10.564972473229355 -10.638448490200052 -11.604182751149398 4 0 0
3776 759 4 0 -10.14323089918587 -10.538774109135161 -11.56176870163983 4 0 0
3308 662 3 0 -9.881528449770393 -10.29383394751144 -11.369962265939508 13 1 1
3310 662 3 0 -9.241009560828864 -10.247753037841433 -11.744557600323795 13 1 1
4088 863 4 0 -9.316027171745635 -10.597592707859825 -11.918061249772638 4 0 0
152 31 3 0 -5.280063105914861 -11.151258851461858 -11.6267192234334 4 0 0
4092 864 4 0 -4.878746481431023 -11.074262621703904 -11.546769448544625 6 0 0
4090 864 2 0 -4.477596867412116 -10.952543998607455 -11.678230625608885 6 0 0
4091 864 4 0 -4.056994774481522 -10.824831981363666 -11.808980853756802 6 0 0
2347 470 3 0 -2.1286363885855746 -11.028786877557563 -11.226694124930932 15 1 0
2346 470 1 0 -1.7535135814400924 -11.035373006916565 -11.420303562235391 15 1 0
2350 470 3 0 -1.8002078004734567 -10.869595456040267 -11.838816700712629 15 1 0
2348 470 3 0 -1.466665898016398 -10.80456905754651 -11.209392165885028 15 1 0
4877 1126 4 0 -10.431128957936735 -9.535837259401584 -11.294322682993556 16 1 0
3306 662 1 0 -9.429436562417068 -10.151597840118235 -11.355543517411686 13 1 1
3309 662 3 0 -9.406871082701628 -9.673747925475498 -11.28329768989976 13 1 1
499 100 3 0 5.670771012496381 -9.44489138555195 -11.713702089531049 4 0 0
497 100 3 0 6.2025237394575115 -9.392875323445733 -11.171907302212864 4 0 0
4532 1011 4 0 6.448268265155985 -9.708795125910289 -11.238079415504592 3 0 1
444 89 3 0 9.524881059150388 -9.463344720128752 -11.329674126436531 3 0 0
443 89 3 0 10.145836318011114 -9.828270707947055 -11.171953080378305 3 0 0
3167 634 3 0 -10.297060058782305 -9.197659090900611 -11.263949157891684 15 1 1
3170 634 3 0 -10.146842385080838 -8.497906942493676 -11.333368118099305 15 1 1
3166 634 1 0 -9.999750938256184 -8.91448434630015 -11.388353168113449 15 1 1
3169 634 3 0 -9.905976966209868 -8.97590320271796 -11.79294811933655 15 1 1
3168 634 3 0 -9.636911934739867 -8.979082804433913 -11.1536145565857 15 1 1
1495 299 3 0 1.8714448682063676 -8.51713982699384 -11.422688179610764 6 0 1
496 100 1 0 5.970233615616408 -9.161589861037983 -11.51710355556207 4 0 0
500 100 3 0 5.743175733886755 -8.820894934296762 -11.338309562612013 4 0 0
498 100 3 0 6.264394963334791 -9.014386356949217 -11.822477914737718 4 0 0
3935 812 4 0 -2.575153137614034 -7.535214659522753 -11.973914842756052 4 0 0
617 124 3 0 3.463268064041481 -7.521787675419174 -11.648827606668219 4 0 0
3866 789 4 0 3.508158360022245 -7.7482376255658885 -11.976604149043247 5 0 0
1605 321 3 0 8.25646210163918 -7.7214821198094405 -11.889202739018163 3 0 1
482 97 3 0 -4.626638687514101 -7.048411461401974 -11.638930449133031 4 0 0
481 97 1 0 -4.232960787417057 -7.049025850816461 -11.881573238855413 4 0 0
483 97 3 0 -3.96000279328627 -7.3261735779945845 -11.698151253087547 4 0 0
3245 649 3 0 -2.6624942775391514 -6.49658665335597 -11.942898174527429 15 1 1
3242 649 3 0 -2.391581386976176 -7.1735717462615725 -11.871793926233275 15 1 1
3241 649 1 0 -2.3743360965072835 -6.7617310795984045 -11.713085582039467 15 1 1
3244 649 3 0 -1.9579910495669584 -6.586129288937801 -11.746255130728997 15 1 1
3243 649 3 0 -2.4933326286364412 -6.773182989481464 -11.282423023457616 15 1 1
616 124 1 0 3.3416457273423603 -7.207474686603482 -11.381542601180938 4 0 0
620 124 3 0 2.9712325498546246 -7.0164673783435045 -11.534210340886984 4 0 0
619 124 3 0 3.6655039817724457 -6.919112577093834 -11.345039309806607 4 0 0
4547 1016 4 0 3.647449103908695 -6.521387639045042 -11.299651053575925 5 0 1
1604 321 3 0 7.641600404592712 -7.363225220995644 -11.643746982442465 3 0 1
5031 1177 4 0 -3.8387179663569686 -6.271966057355029 -11.81728534794488 14 1 0
5029 1177 2 0 -3.3574573535947785 -6.252036707762028 -11.778803851905879 14 1 0
5030 1177 4 0 -2.8966804178299483 -6.230593233803482 -11.737047200544735 14 1 0
4778 1093 4 0 -1.8024388343765843 -6.308470726208458 -11.537196154824933 4 0 1
4777 1093 2 0 -1.3669942133626964 -6.367286084686203 -11.488332340316315 4 0 1
4779 1093 4 0 -0.9118465323062619 -6.419493359876925 -11.448224511698168 4 0 1
3281 657 1 0 -0.23300462368893982 -6.2241910234539315 -11.26579233527924 14 1 1
3283 657 3 0 -0.5299683327554785 -6.420340988333432 -11.538007552490313 14 1 1
3284 657 3 0 -0.35214475937654477 -5.791679378153077 -11.203524263139029 14 1 1
3285 657 3 0 0.18354131717543254 -6.2439738022770435 -11.45089114959717 14 1 1
4491 997 4 0 0.43110913683754326 -6.497331549579544 -11.6592208706421 4 0 1
4489 997 2 0 0.8797582802230046 -6.462240816957644 -11.676086830058772 4 0 1
4490 997 4 0 1.3142794402120899 -6.42665078194507 -11.68171255423369 4 0 1
492 99 3 0 1.634308927394951 -6.188475370000345 -11.650894007239785 5 0 0
494 99 3 0 2.3526569546928098 -5.9774719761289115 -11.817010246161418 5 0 0
491 99 1 0 1.8854755046711276 -5.941318241495738 -11.940394231709126 5 0 0
3779 760 4 0 2.706147368477126 -5.856681133397573 -11.718864672762779 5 0 0
4546 1016 2 0 3.8789167151112007 -6.167364106397885 -11.176923857525452 5 0 1
2063 413 3 0 -5.994531059060585 -4.899303650632115 -11.468511917663063 7 0 0
2062 413 3 0 -5.3245530715623195 -4.995076654650145 -11.26489836510887 7 0 0
181 37 1 0 1.4603400248158778 -4.850771715299885 -11.522814514297757 4 0 0
182 37 3 0 1.1259244057755033 -4.854278723137441 -11.778761768582491 4 0 0
493 99 3 0 1.7468843293354475 -5.50540046301263 -11.910245979207534 5 0 0
185 37 3 0 1.8413819898756199 -4.964998714827223 -11.769442267610756 4 0 0
3778 760 2 0 2.9828526643976154 -5.481381560359553 -11.673191653220195 5 0 0
3780 760 4 0 3.2524309132263944 -5.120777746049265 -11.630191704763101 5 0 0
1680 336 3 0 3.454022706330104 -4.9888946165725985 -11.307806356935703 5 0 1
1677 336 3 0 3.9578551885821565 -5.4541767581766765 -11.031623995444372 5 0 1
1679 336 3 0 4.179105952330097 -4.796969336210875 -11.280727275039451 5 0 1
3895 799 2 0 5.008252090048092 -4.952139538429674 -11.236612630654133 5 0 0
1477 296 3 0 5.612329718146054 -5.054619972724588 -11.664011114192931 5 0 1
3897 799 4 0 5.437006972680841 -5.113893735472402 -11.27376371910281 5 0 0
1476 296 1 0 6.033819255363273 -4.920711295295602 -11.497231372045551 5 0 1
1479 296 3 0 6.319693778368318 -5.285739671921789 -11.509634320362618 5 0 1
1480 296 3 0 6.200180727802493 -4.595800720697419 -11.750821513246963 5 0 1
2544 509 3 0 -10.716671284023596 -4.107923228156963 -11.233423953886536 6 0 0
3894 798 4 0 -10.928783688717404 -4.003021028085129 -11.547430084302672 7 0 0
3892 798 2 0 -10.726704527423164 -3.942273394239418 -11.950832547415724 7 0 0
5708 1403 4 0 -4.230719733138871 -4.363908340296531 -11.0660337615063 7 0 1
64 13 3 0 -1.4979130323940506 -4.404905635915857 -11.66374046567689 6 0 0
183 37 3 0 1.5013252831515533 -4.443109369234131 -11.346378403279193 4 0 0
1645 329 3 0 -3.67310158220085 -3.6547814966856293 -11.328152601607828 7 0 1
4046 849 4 0 -3.3542787087382937 -3.382503827250922 -11.361886497554227 6 0 0
4045 849 2 0 -3.1253990816197135 -3.0166710632045657 -11.384357050432417 6 0 0
1402 281 3 0 0.8057991099546005 -3.4301614032991044 -11.930101900892193 9 0 1
1404 281 3 0 1.4282855649038133 -3.361848820257931 -11.505543821067564 9 0 1
1401 281 1 0 1.270135862085695 -3.3513377263944406 -11.924772090570851 9 0 1
5148 1216 4 0 3.1940927953021134 -3.0285021480141676 -11.841609097931604 10 0 0
5146 1216 2 0 3.0599076042381697 -2.892205096068839 -11.439924624203957 10 0 0
541 109 1 0 -2.5781895902302754 -1.9147626086215634 -11.42614279220999 6 0 0
4047 849 4 0 -2.8911625187824495 -2.6313397314852214 -11.394233542188191 6 0 0
544 109 3 0 -2.7802628381719874 -2.277203157795107 -11.26206541579791 6 0 0
543 109 3 0 -2.1800474004245576 -2.0141257212372388 -11.545876579037992 6 0 0
4503 1001 4 0 -1.835851587587328 -1.819582342815556 -11.477438347606189 10 0 1
4501 1001 2 0 -1.492809707292741 -1.8608144406108913 -11.773304103392412 10 0 1
545 109 3 0 -2.820967032905223 -1.7548813948373692 -11.784455201717112 6 0 0
5037 1179 4 0 4.431583962329253 -11.9514267325718 -6.3280474213609805 16 1 0
3875 792 4 0 10.509666113210066 -1.1799274208286459 -11.510577335042067 9 0 0
3874 792 2 0 10.86824463568168 -1.1255413601329245 -11.801104472834187 9 0 0
194 39 3 0 -6.20300861114836 -0.052098026343792014 -5.997346865729385 8 0 0
278 56 3 0 -10.446678003827886 -0.5509802656590317 -11.943510393027678 10 0 0
2154 431 3 0 -8.626056955863667 -0.6285107776598657 -11.946975556096719 13 0 0
576 116 1 0 0.374757412082678 -11.36687826945026 -4.017012199254223 3 0 0
2489 498 3 0 9.524556820327216 -0.7783536101801065 -11.29791633415793 10 0 0
2486 498 1 0 9.96733977590025 -0.6107304877792483 -11.330215482126228 10 0 0
2488 498 3 0 10.23250911785674 -0.9164452995413424 -11.594696523228526 10 0 0
2490 498 3 0 9.967344660191369 -0.21405321498929197 -11.518038100506768 10 0 0
1407 282 3 0 -11.801821311131762 -11.197857945582392 -11.015868401623143 5 0 1
4593 1031 4 0 -10.978265466643691 -11.58483486692328 -10.897083758181319 4 0 1
4591 1031 2 0 -11.053266973806451 -11.746027057966153 -10.473597529218306 4 0 1
3700 740 3 0 -9.247052559946788 -12.009512753857374 -10.275808699513874 14 1 1
2190 438 3 0 -7.224043294801396 -11.694819274969616 -10.403368752745973 14 1 0
5667 1389 4 0 -7.590916848032043 -11.691903284556517 -10.223168245000705 14 1 1
2186 438 1 0 -6.918176437909552 -12.017448803989298 -10.516317135565762 14 1 0
2189 438 3 0 -6.486236028370683 -11.861627800976004 -10.440829469903491 14 1 0
4661 1054 4 0 -6.090180950020782 -11.956924211711787 -10.510445598297844 5 0 1
4660 1054 2 0 -5.699536867061597 -12.014119183345157 -10.713635493426535 5 0 1
5159 1220 4 0 -10.325925070560263 -10.357963974390117 -10.385032171044722 14 1 0
5160 1220 4 0 -9.811653830798045 -11.060938018479794 -10.196592452181877 14 1 0
5158 1220 2 0 -10.07482634919819 -10.701190647771524 -10.301903598772245 14 1 0
644 129 3 0 -8.679066034728205 -10.627543001325284 -10.260918672054617 4 0 0
3307 662 3 0 -9.219151699124497 -10.358042293430724 -11.034474691248423 13 1 1
1630 326 3 0 4.87972931429487 -10.85685228264105 -11.029096333310799 3 0 1
1626 326 1 0 4.848411938665947 -10.507017359203024 -10.756660131474643 3 0 1
1629 326 3 0 4.461849418042899 -10.541880192815034 -10.508995258751044 3 0 1
1628 326 3 0 5.204041710335201 -10.492883796445604 -10.490907934771775 3 0 1
3849 783 4 0 5.575322775218584 -10.417997669518684 -10.304772342204114 3 0 0
4533 1011 4 0 6.9999710758154485 -10.230853969002467 -10.80222424927978 3 0 1
455 91 3 0 7.2474226263629475 -10.311086941375333 -10.510632271473709 2 0 0
453 91 3 0 7.950284147814685 -10.433214913643281 -10.736766742700663 2 0 0
4876 1126 2 0 -10.46415586304969 -9.772208082510124 -10.907659575712666 16 1 0
4878 1126 4 0 -10.48016652326487 -10.007102742466575 -10.51273746985653 16 1 0
3853 785 2 0 -9.34581374434444 -9.355283077895438 -10.545066081809821 4 0 0
645 129 3 0 -9.090071687608374 -10.033899032579841 -10.338027637423773 4 0 0
1627 326 3 0 4.8367146814730155 -10.10766517135673 -11.01595353988109 3 0 1
4531 1011 2 0 6.725814705268565 -9.97203553692465 -11.017642151747863 3 0 1
451 91 1 0 7.673492006737746 -10.144868841330208 -10.508975111116815 2 0 0
452 91 3 0 7.679046074130561 -9.753776850373114 -10.710343878518312 2 0 0
4566 1022 4 0 9.423600928282756 -9.841336207192732 -10.323544846434814 3 0 1
442 89 3 0 9.613371957229209 -9.722522382743483 -10.646263528942239 3 0 0
441 89 1 0 9.82976156361634 -9.541666206866278 -11.007366392305407 3 0 0
3854 785 4 0 -9.582170242939062 -9.070552300422435 -10.785162956558063 4 0 0
1494 299 3 0 1.3241824094175563 -8.540599768460078 -10.94949515525806 6 0 1
1491 299 1 0 1.7599380511730818 -8.599193326932117 -11.000728796332911 6 0 1
1493 299 3 0 1.8588752578699559 -8.99183836363753 -10.900838001562652 6 0 1
5546 1349 4 0 5.506685377198821 -8.607214849491562 -11.073958979386784 13 1 0
5545 1349 2 0 5.651972999266572 -8.583395212387982 -10.672315661627916 13 1 0
445 89 3 0 10.021165891737699 -9.162730370758561 -10.890177264753202 3 0 0
5915 1472 4 0 10.068581268600536 -8.748779798581824 -10.828977757804731 13 1 1
5914 1472 2 0 10.217950334023858 -8.369944663168468 -10.65581115449479 13 1 1
2218 444 3 0 -10.578759595234896 -7.483717820911411 -10.78829516307595 13 1 0
2216 444 1 0 -10.55175214394287 -7.5968893158272195 -10.360306462079066 13 1 0
2217 444 3 0 -10.537202732419301 -8.052175159853425 -10.322737493829605 13 1 0
1492 299 3 0 1.9889710199010562 -8.312957845179218 -10.73122130873704 6 0 1
4404 968 4 0 2.217760910794862 -7.929240825466787 -10.679223451503436 4 0 1
618 124 3 0 3.2549060330767716 -7.392232826081063 -10.968840779544157 4 0 0
4402 968 2 0 2.657129580041701 -7.79351900642717 -10.709291472246576 4 0 1
4403 968 4 0 3.072125328698778 -7.6615107733064685 -10.743202128813936 4 0 1
5916 1472 4 0 10.379367853835483 -7.9823720709828025 -10.488398406461478 13 1 1
1927 386 3 0 10.625682121310522 -7.754385605638423 -10.28874840328952 4 0 1
314 63 3 0 -11.269183354458033 -6.8959795020625565 -10.321503380403911 6 0 0
372 75 3 0 -8.016260219024971 -7.121226294726537 -10.501053059272254 4 0 0
4019 840 4 0 -8.34834713899576 -7.073440317170068 -10.282788482894283 4 0 0
373 75 3 0 -7.570032363432265 -6.620452798675697 -10.7121147212031 4 0 0
371 75 1 0 -7.7198653142360305 -6.851707344465544 -10.361912728435644 4 0 0
1930 386 3 0 10.877215773426983 -7.074464724835081 -10.33264849945884 4 0 1
5112 1204 4 0 11.19487490779477 -6.8351303489868664 -10.390176211624565 5 0 0
312 63 3 0 -11.780040652839753 -6.38015347361317 -10.278230622790108 6 0 0
315 63 3 0 -11.068150628668182 -6.216127389798612 -10.472296218023272 6 0 0
3871 791 2 0 -10.489279781661908 -5.743771374287474 -10.581061378868341 6 0 0
3872 791 4 0 -10.895072974785677 -5.881518354491829 -10.610114368187729 6 0 0
3873 791 4 0 -10.074018146332202 -5.600783287900659 -10.552906368667477 6 0 0
171 35 1 0 -9.356316455165574 -5.583336498014453 -10.350138826935684 9 0 0
3282 657 3 0 -0.2376535075195516 -6.446441188809682 -10.850246370914043 14 1 1
4548 1016 4 0 4.103779487715428 -5.839400966691956 -11.053430379302396 5 0 1
2338 468 3 0 6.017197678748818 -5.820518155424181 -10.996541903578615 6 0 0
2337 468 3 0 5.927687318374417 -6.282148223989936 -10.392105560485076 6 0 0
2336 468 1 0 6.218659514587564 -6.154104832960207 -10.736768168331016 6 0 0
2340 468 3 0 6.313753543533078 -6.50910527066431 -10.995801474214785 6 0 0
2339 468 3 0 6.624220980054403 -5.974265047316466 -10.54800812389228 6 0 0
2542 509 3 0 -10.788156151167977 -4.699793163818112 -10.816607010587312 6 0 0
174 35 3 0 -9.277341476264256 -5.451529521781349 -10.784048238162987 9 0 0
2064 413 3 0 -5.879210720791719 -5.119770401940425 -10.819980515273482 7 0 0
2061 413 1 0 -5.742869917275117 -4.864270647099784 -11.14060692994891 7 0 0
5709 1403 4 0 -4.965670059068533 -4.8067489470688995 -11.195212672330388 7 0 1
5707 1403 2 0 -4.5907362385924095 -4.5788060111239535 -11.130057622949128 7 0 1
184 37 3 0 1.3895076594362301 -5.169273864726542 -11.161893839208554 4 0 0
1678 336 3 0 3.7759762299190953 -4.860356108746147 -10.640277365098555 5 0 1
1676 336 1 0 3.8431601037180574 -5.029741986069149 -11.062064808104534 5 0 1
4275 925 4 0 3.6312026377264335 -5.040814023234485 -10.317759190776833 5 0 0
3896 799 4 0 4.560638413984769 -4.783000750834266 -11.206609279810047 5 0 0
1478 296 3 0 5.998990067926556 -4.7681406066941925 -11.053321007394977 5 0 1
2541 509 1 0 -10.535157872135795 -4.34412580812533 -10.903801195148512 6 0 0
2545 509 3 0 -10.508757980232906 -4.0798115094836 -10.536021437700711 6 0 0
2543 509 3 0 -10.095676443335604 -4.488898595913535 -11.041781837160558 6 0 0
2065 413 3 0 -5.726216817633679 -4.431586620323803 -11.001111697437862 7 0 0
1644 329 3 0 -4.087677129567239 -4.06677189725441 -10.836874242129355 7 0 1
1641 329 1 0 -3.6831520320494757 -3.8620628898594536 -10.907824765942182 7 0 1
1643 329 3 0 -3.337129111167892 -4.18840948101004 -10.882579951175702 7 0 1
1642 329 3 0 -3.6095086390925903 -3.5262663145609903 -10.570971609194318 7 0 1
5147 1216 4 0 2.9334785934692036 -2.747153290194813 -11.034871966527485 10 0 0
506 102 1 0 2.760121704654889 -2.084035274322998 -10.63565457975323 10 0 0
509 102 3 0 2.6868493790334362 -2.4515478260189205 -10.909505710960945 10 0 0
542 109 3 0 -2.556044413062587 -1.600632251164205 -11.117412746661396 6 0 0
510 102 3 0 2.517402058547157 -1.7335112301119349 -10.780286297213474 10 0 0
508 102 3 0 3.194172983412633 -1.98812080687423 -10.634649941797312 10 0 0
2487 498 3 0 10.141447429358092 -0.5848103069055508 -10.929254661327697 10 0 0
3948 816 4 0 -11.309723069777572 -12.024571709839705 -9.695033663867102 4 0 0
3946 816 2 0 -11.716653346326675 -11.783431065070106 -9.619017586888354 4 0 0
4592 1031 4 0 -11.120841309929606 -11.921859023083343 -10.03483198382715 4 0 1
3697 740 3 0 -9.55512510111586 -11.381776713768472 -10.188968153165892 14 1 1
3698 740 3 0 -8.829027108669736 -11.439075483552605 -10.06784142870701 14 1 1
3699 740 3 0 -9.342736400231528 -11.757776404845984 -9.601103491778849 14 1 1
3696 740 1 0 -9.244879977683036 -11.650263297691273 -10.040361711160822 14 1 1
5666 1389 4 0 -8.443821365506775 -11.535855393272797 -10.186087381242608 14 1 1
5665 1389 2 0 -8.015670389967937 -11.611705017058025 -10.207412917296214 14 1 1
2126 426 1 0 11.312890100510256 -11.112632228209327 -9.424576246295429 14 1 0
3947 816 4 0 11.974815185888378 -11.552957962083708 -9.54440533042169 3 0 0
2130 426 3 0 11.608555850624263 -11.42102937453219 -9.409239901311118 14 1 0
4715 1072 4 0 -9.397427802003811 -10.845171717924188 -9.624438598173262 4 0 1
642 129 3 0 -9.290214280369806 -10.534120193095731 -9.86090737005106 4 0 0
641 129 1 0 -8.945130942922326 -10.32488878760628 -10.049950199169446 4 0 0
643 129 3 0 -8.687752175492435 -10.113670797940893 -9.72011751060886 4 0 0
5852 1451 4 0 -8.511801530195335 -10.365280106880572 -9.452499116956654 15 1 1
2055 411 3 0 -6.822596815180754 -10.248802848067688 -9.631186535972734 14 1 0
432 87 3 0 -1.1339621698227624 -10.750994650241196 -9.354694494381311 5 0 0
3860 787 4 0 4.187861115203887 -10.262045020260455 -10.48694569899121 2 0 0
5009 1170 4 0 10.596591080655706 -11.02911759786835 -9.21713191788244 12 1 0
2128 426 3 0 11.231657917936193 -11.006134664728197 -9.85617873168678 14 1 0
89 18 3 0 -10.781968388558758 -9.564748849726351 -9.761008684788171 5 0 0
88 18 3 0 -10.352101323224236 -10.040950384052717 -10.15645141491299 5 0 0
86 18 1 0 -10.363538050430499 -9.724181380708952 -9.809016446421719 5 0 0
90 18 3 0 -10.079405217742258 -9.37204851542399 -9.911958636053818 5 0 0
87 18 3 0 -10.219772610909411 -9.92648011282884 -9.412854416047537 5 0 0
3855 785 4 0 -9.096099128871757 -9.634047752591837 -10.301500628572155 4 0 0
772 155 3 0 -4.717440777435355 -9.827838317571413 -9.522228218523297 4 0 0
309 62 3 0 1.4834547550867967 -10.15436272843315 -9.536930784121115 2 0 0
5204 1235 4 0 1.770623310505547 -9.874454091475084 -9.582174197418581 13 1 0
5203 1235 2 0 2.143079114321779 -9.632561905875352 -9.57756436696372 13 1 0
5205 1235 4 0 2.508184481468371 -9.39280543469327 -9.56650025175995 13 1 0
3726 746 1 0 3.2592908564447356 -9.511534277040713 -9.355603746287239 13 1 1
3727 746 3 0 2.806013580197023 -9.477221900064436 -9.334559563629632 13 1 1
3730 746 3 0 3.397398195022175 -9.622047683802876 -9.804098089552541 13 1 1
3859 787 2 0 3.8768401366779734 -10.10206205909218 -10.193828037306394 2 0 0
3861 787 4 0 3.5703411544447405 -9.946149245764978 -9.910969659000116 2 0 0
3847 783 2 0 5.9031936961572775 -10.14535725325531 -10.176891227034544 3 0 0
1013 203 3 0 6.405855954396287 -9.491866258440218 -10.027430697862716 3 0 0
3848 783 4 0 6.254460129835191 -9.866200024659781 -10.043582203131031 3 0 0
454 91 3 0 7.823757888823064 -10.089263250057826 -10.076084181103854 2 0 0
4565 1022 4 0 9.398521933117824 -9.33549664940694 -9.542141059637318 3 0 1
4564 1022 2 0 9.408434716628367 -9.587180658248018 -9.930028635665254 3 0 1
4930 1144 2 0 -10.76542598537753 -8.719621503433963 -9.994355979444753 15 1 0
4932 1144 4 0 -10.776499375446308 -9.191100624758075 -9.942448757052409 15 1 0
5547 1349 4 0 5.80203176980795 -8.554648779610723 -10.245958514702364 13 1 0
1015 203 3 0 5.833048035306458 -9.242591920710755 -9.534445637895919 3 0 0
1012 203 3 0 6.060388648395431 -8.828140917130149 -10.136112475093908 3 0 0
1014 203 3 0 6.533601283104108 -8.899760394912267 -9.558295175086977 3 0 0
1011 203 1 0 6.206807929232003 -9.108071230043864 -9.81762282332755 3 0 0
4439 980 4 0 8.180681240912513 -8.340814000914408 -9.565772811333561 6 0 1
2157 432 3 0 11.758936984555735 -9.021032723238193 -9.393567717148825 14 1 0
4931 1144 4 0 -10.758356208945525 -8.275013873449577 -10.047522819050595 15 1 0
2220 444 3 0 -10.173306952061834 -7.425472926641488 -10.18428664211408 13 1 0
4704 1068 4 0 -10.312234372013252 -7.5902319872379325 -9.521139296979015 4 0 1
1975 395 3 0 -9.695087490439855 -8.212735493507541 -10.00310993981644 4 0 1
1972 395 3 0 -9.934629581145453 -7.641092884472699 -9.587574502615556 4 0 1
1971 395 1 0 -9.582431349917249 -7.929027439028394 -9.662889248689533 4 0 1
4020 840 4 0 -9.03910077810246 -7.615637685331142 -10.12761211570461 4 0 0
1973 395 3 0 -9.218200697384743 -7.692880301966893 -9.769963511460475 4 0 1
804 161 3 0 7.508645115402839 -7.802551739880276 -10.232868787518983 6 0 0
802 161 3 0 7.645166535266956 -7.600761795887397 -9.549074002188469 6 0 0
801 161 1 0 7.834937968112442 -7.7163138859235145 -9.92843813525727 6 0 0
803 161 3 0 8.07157989572941 -8.094208236891184 -9.859956386316236 6 0 0
1929 386 3 0 10.694615464050663 -7.375797904860135 -9.692869344038435 4 0 1
2219 444 3 0 -10.910599436973474 -7.442806170202521 -10.146755927001683 13 1 0
4018 840 2 0 -8.698813800521458 -7.34834856168735 -10.202173664354632 4 0 0
3772 758 2 0 -9.158312627926936 -6.50950329723902 -9.681305610986318 4 0 0
374 75 3 0 -7.893307056732701 -6.5529617135523175 -10.039179678657046 4 0 0
375 75 3 0 -7.377732219920433 -7.0856786761128685 -10.174698762098759 4 0 0
3965 822 4 0 -7.35369480237331 -7.00707515691739 -9.780836025676258 5 0 0
3964 822 2 0 -7.04064515695461 -7.256654991962031 -9.594990137539263 5 0 0
1993 399 3 0 -5.832093939078577 -7.024356939439203 -9.325724583821525 15 1 0
805 161 3 0 8.078446786720768 -7.402105080702492 -10.064341054995195 6 0 0
3972 824 4 0 8.024910999488572 -6.993459715195027 -9.975726790760664 4 0 0
3970 824 2 0 8.23440154755632 -6.634794240484351 -9.826218930164776 4 0 0
1928 386 3 0 10.145582181622753 -7.193831399412181 -10.173814493922036 4 0 1
5803 1435 2 0 9.711325970943264 -6.861847661752032 -9.58456857071073 15 1 1
5805 1435 4 0 9.962201801779685 -6.887956212350558 -9.935970382187836 15 1 1
1926 386 1 0 10.59730306779949 -7.359583807922027 -10.118604124831844 4 0 1
5111 1204 4 0 12.002078043674071 -6.575826329937021 -10.050110572488824 5 0 0
5110 1204 2 0 11.62258917323351 -6.69440119204734 -10.213101634569243 5 0 0
311 63 1 0 -11.337623867010258 -6.489170680694122 -10.213294862223092 6 0 0
313 63 3 0 -11.223171640063256 -6.42520600613289 -9.769527408735426 6 0 0
3813 771 4 0 -10.820341447379839 -6.350761859581577 -9.68632902921603 6 0 0
3811 771 2 0 -10.595426950687875 -6.001545098171894 -9.513168347491858 6 0 0
3812 771 4 0 -10.361232508224871 -5.636079749131637 -9.328211811741856 6 0 0
172 35 3 0 -9.80042605457908 -5.566238355211388 -10.26976983113257 9 0 0
173 35 3 0 -9.208687738729749 -6.014837334357194 -10.299802389850246 9 0 0
3774 758 4 0 -9.350015656492364 -6.19208901373288 -9.97896161427368 4 0 0
3971 824 4 0 8.44987478186341 -6.259512795448577 -9.673959599488127 4 0 0
3349 670 3 0 8.345296381494393 -5.908146006240903 -9.572790335975098 5 0 1
2598 520 3 0 11.340699126577142 -5.576682327223017 -9.93887826767799 7 0 0
175 35 3 0 -9.140553387932265 -5.312241362432552 -10.057321219343377 9 0 0
4218 906 4 0 -8.934395316113457 -4.95443130170746 -10.069202677043059 6 0 0
4216 906 2 0 -8.524046774693662 -4.899989362712092 -9.963325502067342 6 0 0
4217 906 4 0 -8.074016450657355 -4.843931714800134 -9.846756406216048 6 0 0
2453 491 3 0 -7.937968103700531 -5.024962855874893 -9.511623854307214 6 0 0
4274 925 4 0 3.5383124977535125 -5.2501590475339075 -9.4365822851409 5 0 0
4273 925 2 0 3.581254647653049 -5.146475960229817 -9.868483729810462 5 0 0
899 180 3 0 7.518512012701532 -4.909762564369089 -9.396999621311581 5 0 0
1496 300 1 0 10.219723624109676 -5.070599674218983 -9.49015080909761 5 0 1
1497 300 3 0 10.29615020291913 -5.025349920754458 -9.928477022040047 5 0 1
2600 520 3 0 12.01076671794399 -5.3001646314153295 -9.967718181106793 7 0 0
2599 520 3 0 11.423919451817344 -4.891172171496796 -9.91388514991979 7 0 0
2596 520 1 0 11.58426070274685 -5.259326792356821 -9.795748097737224 7 0 0
1500 300 3 0 10.310623111840851 -4.699578553451605 -9.281936915111762 5 0 1
507 102 3 0 2.631609863203707 -2.182255586752831 -10.234860700572145 10 0 0
2178 436 3 0 1.7091217638633491 -1.150602976746642 -9.35539385621544 13 0 0
2180 436 3 0 1.0561703041930226 -0.8630102971151352 -9.532483414744192 13 0 0
2177 436 3 0 1.5633694556334436 -0.9059398321687908 -10.012166211704512 13 0 0
2176 436 1 0 1.4910363304849579 -0.832462801180057 -9.609972163194636 13 0 0
2127 426 3 0 10.936426868894689 -11.256181528587863 -9.221566780717044 14 1 0
4716 1072 4 0 -9.51133569932069 -10.726901536410214 -8.758144573244754 4 0 1
4577 1026 4 0 -9.801781111354128 -10.515960449145734 -8.573526942018207 5 0 1
4714 1072 2 0 -9.456000333785878 -10.781597887710783 -9.19618587481023 4 0 1
5851 1451 2 0 -8.381800079253114 -10.297199253817679 -9.062831488529502 15 1 1
2054 411 3 0 -7.000757716783843 -10.640933712777644 -9.044768798833786 14 1 0
2051 411 1 0 -6.663782611736564 -10.4500822454245 -9.275349056134626 14 1 0
2053 411 3 0 -6.364804529199907 -10.761183607871638 -9.415067114958237 14 1 0
433 87 3 0 -1.18946482372459 -10.647038402776092 -8.620908413641413 5 0 0
431 87 1 0 -1.1506244319213987 -10.438041062747551 -9.019966986077776 5 0 0
434 87 3 0 -0.7716057514877601 -10.20274890650216 -9.013698395984893 5 0 0
4523 1008 4 0 -0.36309218560887047 -10.130150994663863 -9.036518597908612 2 0 1
4522 1008 2 0 0.07042275234595685 -10.253142675624067 -9.055626073764612 2 0 1
4524 1008 4 0 0.5041560630679545 -10.35794715808052 -9.07677181319228 2 0 1
307 62 3 0 1.375662136826035 -10.874173853115014 -9.371101907487551 2 0 0
310 62 3 0 0.9159711010918308 -10.353392384385424 -9.069100056213978 2 0 0
306 62 1 0 1.3582204355047889 -10.451633000562232 -9.212574496462224 2 0 0
308 62 3 0 1.6469266109884977 -10.4162639575897 -8.86256762934321 2 0 0
1339 268 3 0 9.34289079374538 -10.163524711167376 -8.584578073017653 2 0 0
5008 1170 2 0 10.356009885381987 -10.886026315291321 -8.893636169021713 12 1 0
5010 1170 4 0 10.070331671989088 -10.724418261123503 -8.52617019124456 12 1 0
2129 426 3 0 11.487471484491717 -10.728512864263617 -9.193513169935816 14 1 0
4772 1091 4 0 11.50038610387002 -10.323076981160524 -9.0772047389956 3 0 1
4771 1091 2 0 11.916508284407417 -10.333224928117088 -8.91195411075643 3 0 1
4773 1091 4 0 -11.753324592734177 -10.338632154288696 -8.745073864959144 4 0 1
4044 848 4 0 -9.840998752492526 -9.800090527809518 -9.383153839153831 5 0 0
4042 848 2 0 -9.518146486094501 -9.621314274004172 -9.128850332939102 5 0 0
4043 848 4 0 -9.183113230616105 -9.434225995957663 -8.860605583029887 5 0 0
1109 222 3 0 -8.945085066936546 -9.461288712804368 -8.537886222555313 4 0 1
5853 1451 4 0 -8.247799167563237 -10.232609018622261 -8.62324318239807 15 1 1
2052 411 3 0 -6.455307883579529 -10.155968239251013 -9.01392235976398 14 1 0
5117 1206 4 0 -6.414412448176662 -10.029585363203301 -8.62173592204673 14 1 0
5116 1206 2 0 -6.478608883966767 -9.639999982018209 -8.434948517404298 14 1 0
774 155 3 0 -5.090121921820334 -9.39978993492309 -9.142431167278843 4 0 0
773 155 3 0 -4.37326561758282 -9.445879601935017 -9.01081835850876 4 0 0
775 155 3 0 -4.85828116055392 -10.00343772476375 -8.842085655407667 4 0 0
771 155 1 0 -4.767232766303486 -9.669288679962671 -9.14206919873598 4 0 0
435 87 3 0 -1.5081518659307438 -10.163105677079619 -9.087544280958427 5 0 0
3729 746 3 0 3.3933316469059847 -9.82321381123982 -9.094970184577123 13 1 1
4002 834 4 0 10.262795020461148 -9.692917863804665 -8.682046230545907 3 0 0
1340 268 3 0 10.06693166451602 -9.935659401502932 -8.4537992964323 2 0 0
4000 834 2 0 10.707689728099595 -9.519087209559546 -8.593683505857062 3 0 0
4086 862 4 0 -11.79755506654587 -8.517369028994914 -8.907430918552022 4 0 0
3728 746 3 0 3.4582513569436983 -9.083821479690279 -9.232467385002787 13 1 1
78 16 3 0 5.567073675715914 -8.710390083924556 -8.897649497271376 3 0 0
4438 980 2 0 8.506480526020109 -8.471355531706372 -9.315936253511007 6 0 1
4440 980 4 0 8.839397411579448 -8.592325410513684 -9.059188456223348 6 0 1
2708 542 3 0 9.167232935078331 -8.700591990449292 -9.246949336456554 15 1 0