LAMMPS data file via write_data, version 19 Nov 2024, timestep = 10000, units = lj

11 atoms
4 atom types
8 bonds
1 bond types
8 angles
2 angle types

-1.087555 1.087555 xlo xhi
-1.087555 1.087555 ylo yhi
-1.087555 1.087555 zlo zhi

Masses

1 1
2 1
3 0.1
4 0.1

Bond Coeffs # harmonic/omp

1 100 0.45

Angle Coeffs # harmonic/omp

1 100 180
2 100 109.471

Atoms # full

5 1 3 0 -0.867141168975716 -0.7892439785291215 -0.15014492636859786 1 0 0
11 3 4 0 -0.44307689511653403 0.8252390328097043 -0.07180433987888353 0 0 0
4 1 3 0 -0.9811760156801232 1.0037410202832728 0.45349665084103263 1 -1 0
9 3 2 0 -0.08399953764898696 1.0391755086415322 0.06386346074364248 0 0 0
2 1 3 0 0.6547358072746353 -1.013423317346871 -0.00500236373606512 0 0 0
10 3 4 0 0.28263413373695556 -0.9016280716920421 0.2134708342405478 0 1 0
1 1 1 0 1.0157611250055372 -0.8633843213708945 0.16214511151929628 0 0 0
3 1 3 0 0.9358443205637951 -0.4786647710381868 0.38174265227444726 0 0 0
7 2 4 0 0.7260700285599445 -0.18673708857879928 0.5800105117890686 -1 0 0
6 2 2 0 0.8296509259346185 0.25524790931334235 0.5401761254180747 -1 0 0
8 2 4 0 0.9297315757367378 0.7138840758812244 0.501145224593097 -1 0 0

Velocities

5 -0.23470655917341832 -0.17886499216673377 0.3719065943234815
11 -1.2382891520470094 -0.9063157013576352 -0.0674928072008532
4 0.45008556319520576 1.5192549372600517 0.17154691954488518
9 -0.012793894989423028 -0.5078739130505164 0.2816732573930963
2 1.9709266341495288 -0.3586388812481164 -0.5307423819842705
10 0.179512578057481 -0.13258126225247785 -0.8544760148042946
1 0.6068812909899878 0.1916505239634381 0.3330980135660096
3 -0.41631957041605794 -0.28892716652039774 0.6449811927209331
7 0.9547964816899771 0.1640376188724279 -0.01771939595500075
6 0.16019658283955265 -0.41844495754737054 0.05984488026719815
8 -0.058352850303295 0.8955910479124464 0.0776964916056832

Bonds

1 1 9 10
2 1 9 11
3 1 1 2
4 1 1 3
5 1 1 4
6 1 1 5
7 1 6 7
8 1 6 8

Angles

1 1 10 9 11
2 2 2 1 3
3 2 2 1 4
4 2 2 1 5
5 2 3 1 4
6 2 3 1 5
7 2 4 1 5
8 1 7 6 8
