LAMMPS data file via write_data, version 19 Nov 2024, timestep = 1000000, units = lj

79 atoms
4 atom types
54 bonds
1 bond types
35 angles
2 angle types

-3.045986 3.045986 xlo xhi
-3.045986 3.045986 ylo yhi
-3.045986 3.045986 zlo zhi

Masses

1 1
2 1
3 0.1
4 0.1

Bond Coeffs # harmonic/omp

1 100 0.45

Angle Coeffs # harmonic/omp

1 100 180
2 100 109.471

Atoms # full

18 5 4 0 -0.6932469586850459 -2.91926903128223 -2.0400034386057104 0 1 0
51 16 4 0 -0.24607964035382796 -1.6199990320909232 -2.6687990119810823 0 1 1
17 5 2 0 -0.9964544251738876 -2.6592743615084236 -1.788083594571114 0 1 0
5 1 3 0 -0.21428972242843713 -1.9087303272343923 -2.963774543766428 0 1 1
50 16 2 0 -0.3779963116325344 -1.658916544986371 -2.243108078743586 0 1 1
52 16 4 0 -0.5120283473652463 -1.6964798934602492 -1.824955405456783 0 1 1
15 4 4 0 -0.647376842766004 -1.4076292900704563 -1.5812688502110523 0 1 0
19 5 4 0 -1.2962364778920357 -2.426340428999109 -1.551909171936906 0 1 0
21 6 4 0 -2.962297050293651 -0.8709530663484369 -1.4731811850093126 0 0 1
63 20 4 0 -0.9099161312266147 -0.641494712005076 -0.5320797170348411 0 0 0
14 4 2 0 -0.7422272175339284 -1.1060787162010908 -1.2477856715050646 0 1 0
62 20 2 0 -0.8196555625088476 -0.7519879244508675 -0.12745553724279002 0 0 0
16 4 4 0 -0.8418729956778366 -0.8122208435912373 -0.9072953765858549 0 1 0
58 18 4 0 -0.5719943536960249 -2.658777847574284 1.268697251094063 0 1 0
37 11 4 0 -0.9014779777620049 -0.7042367398654227 0.6535911860788461 0 1 1
64 20 4 0 -0.7297884762631096 -0.8624870704266704 0.3087750591943498 0 0 0
35 11 2 0 -1.1770396750382872 -0.4307369591831985 0.911111411732781 0 1 1
56 18 2 0 -0.4903730203167424 -2.466513900800234 1.6726472298393698 0 1 0
1 1 1 0 -0.05728589519233301 -2.10719808346899 2.7375410164267557 0 1 0
4 1 3 0 -0.3994814542877767 -2.179406097701857 2.465496746210289 0 1 0
57 18 4 0 -0.4042240484998778 -2.2836659576111438 2.0828494419733463 0 1 0
36 11 4 0 -1.4496170902770336 -0.17109237864725138 1.1532508970527342 0 1 1
70 22 4 0 -0.4097250347502595 2.9228135382337777 -1.9046465621104975 0 0 0
69 22 4 0 -0.0071707592535877294 2.227762366602125 -2.1920726207830517 0 0 0
68 22 2 0 -0.20700577260223355 2.577017028181197 -2.0498847464599845 0 0 0
61 19 4 0 2.543241350023397 -2.2212179313577427 -1.7829959686765975 -1 0 1
60 19 4 0 1.8864047452740245 -2.603073734233144 -2.286911184451981 -1 0 1
7 2 3 0 1.8395845631304237 -2.7803990704925745 -2.635304242133017 0 1 1
27 8 4 0 2.8980870822334666 -2.0335452748499363 -1.7711269969130041 -1 0 1
59 19 2 0 2.216799060602793 -2.4038428010981385 -2.0346778115923585 -1 0 1
26 8 2 0 2.88404426952892 -1.5822805570304732 -1.6955308452740436 -1 0 1
22 6 4 0 2.8860690594256178 -0.08752375132664829 -1.1453624584856108 -1 0 1
42 13 4 0 0.33395259892101714 -0.810023110018253 -1.6702318513030845 -1 1 1
41 13 2 0 0.44383686213319823 -1.1907048832753115 -1.397893973403219 -1 1 1
43 13 4 0 0.5519298114194139 -1.5758517734724775 -1.1429600177625097 -1 1 1
28 8 4 0 2.8631380580236696 -1.130689731406568 -1.619729479299317 -1 0 1
20 6 2 0 3.0089143237315827 -0.4986827661470934 -1.3121222563249015 -1 0 1
38 12 2 0 0.6295762438727515 -2.8507660870260327 -2.743331719083857 0 1 1
40 12 4 0 0.25082562637796174 -2.6308370540547608 -2.8866947073971945 0 1 1
3 1 3 0 0.2755815918663575 -1.819258323056935 2.5321400585396905 0 1 0
34 10 4 0 1.9593343272247603 -0.1384188544080452 1.92710673130088 0 0 0
12 3 4 0 0.6683833490785136 -1.6758278662980872 2.552466966832474 0 -1 0
72 23 4 0 1.7669474096612008 -0.07290572608127474 2.283858690689296 1 0 0
2 1 3 0 0.124671156316622 -2.4899382522634546 2.8364797466200913 0 1 0
71 23 2 0 1.5453269989718075 -0.46132949539878704 2.408931376047663 1 0 0
73 23 4 0 1.345243029764911 -0.8220593073996558 2.530558780011224 1 0 0
11 3 2 0 0.8862146167050723 -1.3287109221177122 2.404373131365079 0 -1 0
13 3 4 0 1.1059876876185668 -0.9924285317854661 2.2539021126072085 0 -1 0
39 12 4 0 0.9843904640525593 3.0349167664178576 -2.6029159034925127 0 0 1
9 2 3 0 1.2908258139258224 2.8667010263156367 -2.8212161402439615 0 0 1
25 7 4 0 2.041308897275662 1.6150321168643123 -1.533869603852387 -1 0 1
67 21 4 0 1.5295140541946466 2.377897598934578 -2.328685653758875 0 0 1
65 21 2 0 1.6262603096611141 2.1283646331708272 -1.9626300008147703 0 0 1
8 2 3 0 1.8154370524653747 2.6471125409828167 -2.3463039545659634 0 0 1
66 21 4 0 1.7287255754581936 1.8663230431534277 -1.5917710806316574 0 0 1
6 2 1 0 1.733719725866092 2.900025314719604 -2.716136974552458 0 0 1
76 24 4 0 0.9391736303185567 1.3250920609607606 -0.49404813437673023 0 0 1
48 15 4 0 1.1286413613434432 1.0217723196773885 -0.30422077112795254 0 1 1
74 24 2 0 0.6975019182311237 1.4664367396080722 -0.8776727651721752 0 0 1
24 7 4 0 2.5762219992762048 1.2166767215412966 -0.8714113611069526 -1 0 1
31 9 4 0 2.527095195573914 0.8960020240011043 -0.6282902978195556 -1 0 1
29 9 2 0 2.60978949689161 0.45456070337325766 -0.7202187680961685 -1 0 1
75 24 4 0 0.4613541689482351 1.6016259370184105 -1.2462374645068754 0 0 1
23 7 2 0 2.300717368862989 1.4207693156043824 -1.2165614821235884 -1 0 1
30 9 4 0 2.6848998508020228 0.031231217208701027 -0.8137751941267625 -1 0 1
49 15 4 0 1.3684016927694114 0.8306944974405177 0.5274606709848432 0 1 1
44 14 2 0 2.0202423011538073 1.13184539218303 1.1686101232025052 0 -1 0
46 14 4 0 2.135271686134367 0.7136092965631523 1.0373379705382866 0 -1 0
33 10 4 0 2.273568715870246 0.36840887022654906 1.225049505261152 0 0 0
45 14 4 0 1.9010843198192213 1.5550949664187226 1.3091517263655184 0 -1 0
55 17 4 0 2.0670711470549556 1.8948513671104095 1.2210506361833438 0 -2 0
53 17 2 0 1.9398435247720252 2.2408121015077724 1.4648102354697872 0 -2 0
54 17 4 0 1.8034625274370368 2.58633921625153 1.7222583473635342 0 -2 0
32 10 2 0 2.1180656675737106 0.10658217808964728 1.5839073931429781 0 0 0
79 25 4 0 1.7912959833592665 2.9565437697461143 1.8513078043244535 0 0 0
77 25 2 0 1.860531880367094 3.006384397235065 2.312971211879993 0 0 0
78 25 4 0 1.9333705074531446 3.041489616080597 2.7589341610407367 0 0 0
10 2 3 0 1.9689812349979496 2.7499426435629326 3.0426121489121702 0 0 0
47 15 2 0 1.2528964012613606 0.9209680979642165 0.12857451116125876 0 1 1

Velocities

18 0.967592089405975 0.82645832129986 0.3966150285129468
51 0.36083046507235267 -0.13955872975022326 -0.9544307248130479
17 -0.04890623162678335 0.06096801304432814 0.036386327111862835
5 0.3323708885749759 -0.0746899273123975 0.05704118313925863
50 0.003015349499191664 -0.15293243702211015 -0.07188567775353741
52 0.29885501912434204 0.5620049411001757 0.3319044089525133
15 0.4743868085596638 0.49418446578039765 -1.4609224061724615
19 0.8033021437424248 0.23065656666051848 0.631858743305585
21 0.44914118081698895 0.07416226026164577 0.22310059789980713
63 -1.3404175461936298 -0.44364908389007224 0.9247467796494766
14 -0.025795034457256026 -0.2786346779985499 0.22871513071819685
62 0.6135099445928291 -0.38607169825834836 -0.175927122397504
16 -0.34683283570177714 0.009902447510384091 -1.109306807468448
58 0.053347018882771075 -0.7700374886145769 -0.8253577157107079
37 -1.1250733520177432 -0.38656928574937593 0.9773333382061136
64 0.010324120982945537 0.03368185044453373 0.36040404409705235
35 -0.09072610543701957 -0.24616705480256992 -0.25351716889575215
56 0.09000616468659586 -0.11630846503272908 0.026414633647908768
1 -0.15063197930388086 -0.30239956698952836 0.07361041492827473
4 0.17199409263976698 -1.0965382536063124 1.7570059308223538
57 -1.0494835244204503 -0.5704319456910315 0.1793788813501595
36 0.6146412054806561 -0.07713796514581442 0.46814204066265636
70 0.28754601345819547 -0.6297382138837728 0.7794527773646788
69 0.16642046985455958 -0.3666515740425871 -0.8016976977963135
68 -0.02952331771467387 0.24943105607795063 -0.5165963862486439
61 -0.20775578636996436 -0.5077183708007391 -0.6256372419010974
60 -0.5943750044892743 0.401601172685015 0.971793614413203
7 -0.172607119665864 -1.4862961616076142 -0.93613884514448
27 -0.2937082417021806 -0.7016724079589003 -1.3820855294030385
59 0.40717546446543373 -0.11521028586127523 -0.16013856373416008
26 -0.18333521673502748 -0.0394361965875995 0.15571476068628226
22 0.14524918898094424 0.12952015637840936 1.3985324878737766
42 -0.5736586852089768 -0.5415003966987191 0.1300698351685742
41 0.4596744120336507 0.20626387070941601 -0.03819410265765657
43 -0.3006981240928837 0.11731909687528418 0.7106027238176609
28 0.35411972736045483 -0.5703963667465166 -1.1201598455581363
20 -0.2258230151880012 -0.029282106477121993 0.41400639922120747
38 0.1402457087826797 -0.06586019753527621 0.1968394261292085
40 -0.32559516559305596 -0.62789741430948 0.052764522229035216
3 -0.1188724906998217 -1.0242249832293095 0.12903087805105912
34 0.024850379754412847 0.8464828250557845 -1.312042692538539
12 0.005017419746893209 -1.0298259349399999 0.13875916784609846
72 0.9287884211075871 -0.8589163603197462 0.5316825725793136
2 -0.25509800601421884 -0.14870335584484445 0.8376491242324815
71 -0.15060868632391355 0.1018599967522693 -0.29780304816156156
73 0.3916836713724482 -0.9581597636582161 -1.377193935880806
11 -0.09173425688975934 -0.36174211564141207 0.03814988968925096
13 -0.18818473409930567 0.6182963788373301 -0.2607793672071762
39 0.8039379329310775 -0.17700746843097598 -1.3537088252790128
9 0.01257730452611475 -0.07797539800210765 -0.11183753206015135
25 0.0017159954094257135 -0.6087742263736424 -0.08605951036360986
67 -0.5629647813839465 1.6247639880983256 -1.0610547227598957
65 -0.3792311694546234 0.21362326607105064 -0.1060628238735408
8 0.6053122907502148 0.601953194649717 -0.5342696020419314
66 -0.2838648744005222 0.9805057125112232 -0.3515396511468376
6 -0.06140019599833561 0.09097444005843251 -0.02807277928163202
76 -0.2790855869029924 -0.8518694139399883 -0.25469966946817957
48 -1.4780795420074562 0.013223404978257625 0.22932617389359833
74 -0.1560690574755983 0.24294454063533488 0.17744465826408862
24 -0.541059409675051 0.42244957763555846 -0.025211620696825504
31 -0.10820424793187484 0.2739048305323338 -0.8121509008872958
29 -0.10163119120365939 0.07538102255264595 -0.05825397853823249
75 -0.9712420016195091 0.3410021578297204 0.7507316097720398
23 -0.1286646635521901 0.0327321050445866 0.4069148534688022
30 0.4402100099966228 -0.6058091388071712 -1.1392362333171218
49 -0.5065368330641951 0.027897503807508696 -0.18385602258726433
44 -0.26856821897558414 0.33938540928735206 0.33521600533256013
46 0.43043180876109943 -0.3100789940378082 0.5353256781089007
33 0.9102236854583242 1.4803737478915167 0.7790061561016792
45 -0.3698091799436425 0.08903383356601793 -0.29328516533444854
55 -1.0656765376804282 -1.1394839124702152 -0.664049547865559
53 0.35299359104041556 0.048873341589758285 -0.2652085860071851
54 -0.9924846980321307 1.3411167262210801 0.8767730595855789
32 -0.12284848820101643 -0.03986620738050591 -0.025909407763156034
79 0.9206394087642105 -1.1549955833777505 -0.0871813322731792
77 -0.2597936504276255 0.21810863696185515 0.03725388668471995
78 -0.00968641964505137 -0.37011446382908497 0.3180409523589069
10 0.6819728896268495 -0.11717999853485819 -0.8558078605807943
47 0.07704277250192008 0.08346846284714458 -0.18871531344392833

Bonds

1 1 17 18
2 1 17 19
3 1 50 51
4 1 50 52
5 1 14 15
6 1 14 16
7 1 62 63
8 1 62 64
9 1 35 36
10 1 35 37
11 1 56 57
12 1 56 58
13 1 1 2
14 1 1 3
15 1 1 4
16 1 1 5
17 1 68 69
18 1 68 70
19 1 59 60
20 1 59 61
21 1 26 27
22 1 26 28
23 1 41 42
24 1 41 43
25 1 20 21
26 1 20 22
27 1 38 39
28 1 38 40
29 1 71 72
30 1 71 73
31 1 11 12
32 1 11 13
33 1 65 66
34 1 65 67
35 1 6 7
36 1 6 8
37 1 6 9
38 1 6 10
39 1 74 75
40 1 74 76
41 1 29 30
42 1 29 31
43 1 23 24
44 1 23 25
45 1 44 45
46 1 44 46
47 1 53 54
48 1 53 55
49 1 32 33
50 1 32 34
51 1 77 78
52 1 77 79
53 1 47 48
54 1 47 49

Angles

1 1 18 17 19
2 1 51 50 52
3 1 15 14 16
4 1 63 62 64
5 1 36 35 37
6 1 57 56 58
7 2 2 1 3
8 2 2 1 4
9 2 2 1 5
10 2 3 1 4
11 2 3 1 5
12 2 4 1 5
13 1 69 68 70
14 1 60 59 61
15 1 27 26 28
16 1 42 41 43
17 1 21 20 22
18 1 39 38 40
19 1 72 71 73
20 1 12 11 13
21 1 66 65 67
22 2 7 6 8
23 2 7 6 9
24 2 7 6 10
25 2 8 6 9
26 2 8 6 10
27 2 9 6 10
28 1 75 74 76
29 1 30 29 31
30 1 24 23 25
31 1 45 44 46
32 1 54 53 55
33 1 33 32 34
34 1 78 77 79
35 1 48 47 49
