ITEM: TIMESTEP
371000
ITEM: NUMBER OF ATOMS
1600
ITEM: BOX BOUNDS xy xz yz pp pp pp
-6.9325799999999997e+00 1.2755947199999971e+01 5.8233671999999714e+00
-6.9325799999999997e+00 6.9325799999999997e+00 0.0000000000000000e+00
-6.9325799999999997e+00 6.9325799999999997e+00 0.0000000000000000e+00
ITEM: ATOMS id type xs ys zs
530 2 0.0259309 0.0254685 0.00798232
532 4 0.0157399 0.0285623 0.0427933
132 3 0.0342026 0.0125598 0.0627547
134 3 0.0303391 0.011125 0.116759
645 4 0.997102 0.122461 0.0552259
310 4 0.077945 0.117079 0.118324
712 4 0.209834 0.0113886 0.119047
1000 4 0.226652 0.0118206 0.095504
998 2 0.234463 0.0415947 0.0944077
999 4 0.242275 0.0713688 0.0933114
230 3 0.251285 0.0941535 0.0968058
226 1 0.254064 0.122679 0.103683
228 3 0.288587 0.119431 0.100533
276 4 0.321219 0.109714 0.100442
644 2 0.000499689 0.134379 0.0222444
308 2 0.0883287 0.132773 0.0906471
139 3 0.123202 0.132896 0.0457983
309 4 0.0987123 0.148467 0.0629705
136 1 0.12642 0.155877 0.0251532
137 3 0.111256 0.185738 0.0393713
138 3 0.161498 0.149367 0.0195492
325 4 0.172126 0.169763 0.0163892
140 3 0.109893 0.155929 0.996756
323 2 0.197235 0.174392 0.0397805
227 3 0.233757 0.145856 0.0824288
324 4 0.222344 0.179022 0.0631717
1090 4 0.273956 0.225673 0.00876321
275 2 0.342226 0.129616 0.106929
277 4 0.363232 0.149518 0.113415
1003 4 0.364427 0.174564 0.10828
1001 2 0.377067 0.201428 0.110829
946 4 0.488981 0.204619 0.0754564
1002 4 0.389706 0.228292 0.113377
945 4 0.414729 0.227781 0.0978601
944 2 0.451855 0.2162 0.0866582
1269 4 0.0322341 0.309036 0.0288076
1052 2 0.100731 0.296476 0.0183636
1054 4 0.0626911 0.302874 0.0214758
673 4 0.085526 0.321855 0.130659
463 4 0.21447 0.253576 0.119877
1053 4 0.13877 0.290079 0.0152513
176 1 0.134065 0.341644 0.12329
178 3 0.136441 0.345693 0.0903213
1059 4 0.467289 0.333149 0.0296131
1096 4 0.462167 0.351819 0.0524943
1058 2 0.497829 0.302757 0.0374115
1229 2 0.0372109 0.392763 0.111041
1231 4 0.0533403 0.403118 0.0832229
122 3 0.0448537 0.430182 0.069199
368 2 0.0165306 0.493564 0.0142647
1326 4 0.0823317 0.418048 0.00657933
123 3 0.0916426 0.41463 0.0363973
121 1 0.0742698 0.435605 0.0610271
369 4 0.0532839 0.485074 0.0255316
177 3 0.118264 0.371475 0.137436
124 3 0.0642141 0.467274 0.050708
125 3 0.0954594 0.43038 0.0873088
1095 4 0.429572 0.403102 0.101986
1094 2 0.44587 0.37746 0.0772403
1392 4 0.398239 0.499121 0.034179
1045 4 0.448286 0.407589 0.123849
17 3 0.0979344 0.10084 0.138102
16 1 0.114506 0.104639 0.165601
19 3 0.145144 0.0775849 0.169656
18 3 0.0925054 0.108034 0.191776
960 4 0.150108 0.131458 0.157176
1409 2 0.455234 0.00984443 0.201559
1410 4 0.478927 0.0209618 0.18226
658 4 0.492624 0.0242767 0.157668
44 3 0.00515112 0.243137 0.13948
20 3 0.122029 0.13142 0.162553
461 2 0.17958 0.254086 0.129767
462 4 0.14469 0.254597 0.139657
300 4 0.146709 0.184447 0.202746
299 2 0.143774 0.213175 0.182953
301 4 0.140839 0.241903 0.16316
229 3 0.242404 0.132268 0.134823
959 2 0.181788 0.134056 0.142352
961 4 0.213467 0.136655 0.127528
149 3 0.302669 0.220022 0.243902
1266 4 0.293041 0.243585 0.175112
150 3 0.312257 0.221507 0.190587
146 1 0.324229 0.224568 0.220482
148 3 0.358192 0.202183 0.224426
319 4 0.368431 0.222476 0.211705
317 2 0.407383 0.210021 0.208845
318 4 0.446336 0.197567 0.205985
672 4 0.0233548 0.303698 0.12999
671 2 0.0544404 0.312776 0.130324
45 3 0.999515 0.292423 0.122369
288 4 0.0430439 0.353874 0.1773
287 2 0.0757908 0.346535 0.196446
1230 4 0.0210816 0.382408 0.138859
289 4 0.108538 0.339196 0.215593
180 3 0.114532 0.323875 0.129146
1071 4 0.1329 0.345627 0.212226
1070 2 0.163391 0.34774 0.229872
179 3 0.167253 0.32637 0.136321
1267 4 0.223037 0.264637 0.143212
1074 4 0.189181 0.336736 0.149444
1072 4 0.193881 0.349853 0.247518
1510 4 0.352089 0.251891 0.213565
1265 2 0.258039 0.254111 0.159162
1073 2 0.221134 0.343965 0.154339
154 3 0.275853 0.362455 0.15364
1075 4 0.253087 0.351195 0.159233
147 3 0.324075 0.255062 0.223754
151 1 0.302887 0.373093 0.149841
155 3 0.334284 0.347852 0.152881
1508 2 0.354435 0.283362 0.221798
721 4 0.362829 0.337814 0.16686
1509 4 0.356781 0.314834 0.230031
719 2 0.379944 0.360472 0.175684
720 4 0.397059 0.383129 0.184507
1351 4 0.0243906 0.382111 0.166453
1050 4 0.0323932 0.460563 0.182614
283 4 0.0444861 0.46937 0.159402
1049 2 0.998841 0.467372 0.164949
1048 4 0.157766 0.440371 0.145385
1047 4 0.141896 0.381551 0.135595
1046 2 0.149831 0.410961 0.14049
281 2 0.0783109 0.473421 0.164088
282 4 0.112136 0.477471 0.168773
652 4 0.132248 0.488736 0.158951
743 2 0.268997 0.39984 0.224825
152 3 0.30058 0.386362 0.119609
153 3 0.300067 0.396477 0.172734
744 4 0.298722 0.390959 0.201462
1044 4 0.412551 0.401462 0.184649
1043 2 0.430419 0.404525 0.154249
635 2 0.0260646 0.0742863 0.264239
637 4 0.0579934 0.0797681 0.27417
963 4 0.0838169 0.0871878 0.281247
962 2 0.111108 0.0994739 0.291066
964 4 0.138399 0.11176 0.300885
948 4 0.141124 0.134306 0.31334
1158 4 0.236942 0.0590978 0.377726
1157 2 0.252269 0.0682939 0.348611
1159 4 0.267596 0.0774899 0.319497
919 4 0.290831 0.0855545 0.307931
32 3 0.354797 0.998807 0.325205
917 2 0.327371 0.0671166 0.296474
918 4 0.363911 0.0486788 0.285018
876 4 0.393494 0.0473619 0.277451
875 2 0.424527 0.0553795 0.270186
877 4 0.45556 0.0633971 0.262921
579 4 0.476225 0.0730691 0.25015
1149 4 0.46668 0.0884457 0.352589
1132 4 0.031052 0.246501 0.292072
947 2 0.175016 0.137954 0.307665
161 1 0.0745034 0.240665 0.328672
163 3 0.0908316 0.209086 0.318026
162 3 0.0605363 0.240532 0.358739
927 4 0.127651 0.249787 0.336429
949 4 0.208909 0.141601 0.301989
243 3 0.371972 0.226834 0.332408
165 3 0.0981843 0.254764 0.330603
164 3 0.047713 0.257946 0.307701
337 4 0.084167 0.365827 0.294905
1065 4 0.192043 0.368064 0.270568
926 2 0.161509 0.253476 0.330671
928 4 0.195367 0.257165 0.324914
763 4 0.219663 0.262761 0.315718
242 3 0.347716 0.259481 0.374377
761 2 0.255261 0.261868 0.323403
762 4 0.290858 0.260974 0.331089
244 3 0.317728 0.266467 0.327926
241 1 0.350752 0.258055 0.341321
499 4 0.383123 0.294499 0.331692
245 3 0.365213 0.278972 0.331274
497 2 0.411714 0.303303 0.345123
498 4 0.440305 0.312107 0.358554
7 3 0.504214 0.336481 0.379883
10 3 0.458132 0.32306 0.373369
899 2 0.0131127 0.495878 0.251075
900 4 0.0326075 0.506567 0.275793
952 4 0.130537 0.499218 0.325866
753 4 0.132769 0.477481 0.242722
335 2 0.0838959 0.39882 0.300137
336 4 0.0836247 0.431813 0.305369
195 3 0.106282 0.442583 0.300418
191 1 0.0967093 0.473906 0.291202
192 3 0.112036 0.474979 0.262037
193 3 0.107868 0.490492 0.313925
194 3 0.0606449 0.488311 0.287802
752 2 0.157124 0.493532 0.25143
1064 2 0.201039 0.396563 0.263589
1066 4 0.210035 0.425062 0.256609
745 4 0.239272 0.40872 0.248188
373 4 0.395898 0.471409 0.356252
536 2 0.00857746 0.0471423 0.484287
537 4 0.0407661 0.0398413 0.464311
34 3 0.359691 0.0118903 0.376774
407 2 0.393101 0.0213907 0.422649
408 4 0.386209 0.00796653 0.391613
409 4 0.399992 0.0348148 0.453685
1148 2 0.477707 0.0994399 0.383164
1150 4 0.488734 0.110434 0.413738
522 4 0.443343 0.0829218 0.497986
581 2 0.000743969 0.248893 0.380312
583 4 0.0366414 0.249257 0.379481
1167 4 0.484889 0.222897 0.421392
1013 2 0.00998861 0.338096 0.456447
1015 4 0.0437319 0.33932 0.467645
705 4 0.0693758 0.344909 0.474783
704 2 0.0972088 0.358213 0.477336
1146 4 0.237674 0.276597 0.455744
1145 2 0.267196 0.261004 0.478755
6 1 0.48775 0.317133 0.390912
9 3 0.479314 0.324024 0.423188
706 4 0.125042 0.371517 0.479889
352 4 0.13824 0.391391 0.487506
350 2 0.172221 0.395721 0.487747
782 2 0.267213 0.401046 0.487625
783 4 0.230165 0.404579 0.492436
784 4 0.304261 0.397513 0.482814
933 4 0.33071 0.460726 0.471115
932 2 0.353134 0.475212 0.487786
815 2 0.366487 0.400003 0.490671
816 4 0.328962 0.407322 0.482924
371 2 0.40972 0.485957 0.382549
1483 4 0.433029 0.393717 0.501878
270 4 0.082035 0.997236 0.612149
442 4 0.0500317 0.00368166 0.618199
269 2 0.113289 0.00540562 0.606615
271 4 0.144544 0.0135752 0.601081
48 3 0.205947 0.0116401 0.597028
1381 4 0.179122 0.00342983 0.606158
46 1 0.231847 0.0238319 0.594031
47 3 0.235171 0.0301707 0.56202
1354 4 0.317356 0.019126 0.519214
472 4 0.287121 0.995476 0.58522
50 3 0.222995 0.0516411 0.611279
418 4 0.417522 0.0196342 0.516505
417 4 0.344226 0.0234634 0.523434
416 2 0.380874 0.0215488 0.519969
521 2 0.443696 0.0520396 0.511681
523 4 0.44405 0.0211574 0.525376
1086 4 0.0648845 0.161823 0.61887
1085 2 0.077169 0.187869 0.609775
1087 4 0.0894535 0.213915 0.600681
294 4 0.109448 0.22497 0.59295
1370 2 0.214983 0.241929 0.534893
1371 4 0.244633 0.224731 0.512495
1147 4 0.296718 0.245411 0.501767
443 2 0.412258 0.16702 0.614182
445 4 0.447495 0.152434 0.598682
293 2 0.124029 0.250014 0.599529
295 4 0.13861 0.275058 0.606108
1372 4 0.185332 0.259126 0.557291
27 3 0.145872 0.297044 0.610217
30 3 0.159757 0.32662 0.573739
26 1 0.173003 0.301914 0.595191
29 3 0.193532 0.273854 0.579188
28 3 0.192774 0.309494 0.618334
403 4 0.214297 0.319137 0.627366
351 4 0.206203 0.400051 0.487987
898 4 0.257221 0.50841 0.552742
934 4 0.375557 0.489698 0.504457
1468 4 0.324328 0.388329 0.613463
363 4 0.348731 0.394767 0.62439
817 4 0.404012 0.392683 0.498418
1175 2 0.425981 0.500281 0.528015
1335 4 0.470894 0.442025 0.56534
1176 4 0.462645 0.496924 0.534821
480 4 0.49358 0.48976 0.527587
1481 2 0.452659 0.406613 0.524391
1334 2 0.479163 0.464616 0.587129
1482 4 0.472289 0.419509 0.546903
1336 4 0.487432 0.487208 0.608918
1288 4 0.0489164 0.0842153 0.656211
1286 2 0.0495937 0.115525 0.644855
813 4 0.105363 0.0874585 0.701714
812 2 0.109138 0.119107 0.698964
1143 4 0.378829 0.122375 0.738346
1142 2 0.372386 0.0918838 0.737925
1144 4 0.365942 0.0613924 0.737504
1303 4 0.408089 0.120039 0.737325
1287 4 0.050271 0.146835 0.633498
814 4 0.112913 0.150755 0.696214
975 4 0.044295 0.203042 0.743405
1492 4 0.0532863 0.237233 0.689732
3 3 0.162532 0.190248 0.734039
487 4 0.194321 0.188737 0.732632
485 2 0.199187 0.209016 0.705985
486 4 0.204053 0.229296 0.679337
444 4 0.377022 0.181606 0.629682
1116 4 0.319279 0.249731 0.718771
1194 4 0.332485 0.224349 0.702826
1193 2 0.353918 0.198784 0.679751
1195 4 0.375351 0.173219 0.656676
1115 2 0.324647 0.243518 0.754186
1301 2 0.402748 0.15488 0.737722
1302 4 0.397408 0.189722 0.73812
559 4 0.0246371 0.252206 0.68176
1490 2 0.0795673 0.252078 0.684958
1491 4 0.105848 0.266924 0.680184
577 4 0.210055 0.262084 0.763071
401 2 0.228751 0.344814 0.629407
844 4 0.244082 0.276361 0.680778
842 2 0.237478 0.273899 0.715935
253 4 0.45963 0.321684 0.7394
251 2 0.492996 0.327108 0.738697
280 4 0.15802 0.441606 0.737585
402 4 0.243205 0.370491 0.631449
278 2 0.159449 0.47228 0.725146
1467 4 0.271934 0.365216 0.641942
1466 2 0.298131 0.376773 0.627703
547 4 0.26561 0.391416 0.751699
545 2 0.227396 0.409964 0.746154
261 4 0.276696 0.411913 0.752353
260 2 0.310863 0.395539 0.735394
262 4 0.345029 0.379165 0.718435
362 2 0.362177 0.411239 0.649177
364 4 0.375624 0.427711 0.673965
37 3 0.230266 0.0802479 0.848329
36 1 0.235441 0.107615 0.856924
40 3 0.269339 0.0993102 0.866149
1126 4 0.294321 0.104248 0.872462
1135 4 0.323066 0.00460772 0.771704
1133 2 0.339014 0.0287405 0.765565
1134 4 0.354963 0.0528733 0.759426
1472 2 0.419151 0.0550022 0.876112
1473 4 0.390954 0.0430206 0.883369
606 4 0.359712 0.0511183 0.876092
172 3 0.430268 0.0687289 0.782933
1449 4 0.509896 0.0676753 0.779915
171 1 0.464033 0.0509098 0.792551
175 3 0.463638 0.0395288 0.822924
173 3 0.478863 0.0253611 0.771328
1280 2 0.483613 0.106355 0.87022
174 3 0.482892 0.0705372 0.792175
1282 4 0.462377 0.0860159 0.87037
1474 4 0.447349 0.0669837 0.868854
102 3 0.00155462 0.234464 0.809465
101 1 0.00666538 0.245043 0.779507
354 4 0.0877648 0.118221 0.858913
104 3 0.0204547 0.218675 0.75908
5 3 0.14518 0.169495 0.776918
974 2 0.0819999 0.188034 0.752846
976 4 0.119705 0.173026 0.762286
439 4 0.102182 0.133224 0.847236
437 2 0.119065 0.13403 0.815563
438 4 0.135948 0.134836 0.783889
2 3 0.15041 0.216895 0.781236
1141 4 0.109418 0.235368 0.849831
1 1 0.164135 0.186795 0.767326
4 3 0.198663 0.171371 0.777083
430 4 0.21385 0.178426 0.75682
428 2 0.243906 0.178724 0.776554
429 4 0.273963 0.179022 0.796288
38 3 0.228071 0.12822 0.830585
1139 2 0.14342 0.232082 0.864846
1124 2 0.298805 0.135233 0.866607
57 3 0.321434 0.25075 0.858731
56 1 0.344811 0.251725 0.835624
1514 2 0.360544 0.157948 0.839078
60 3 0.348578 0.228645 0.813018
1117 4 0.330016 0.237306 0.789601
1516 4 0.332726 0.161961 0.863601
1125 4 0.303288 0.166217 0.860753
1515 4 0.388362 0.153935 0.814554
591 4 0.282755 0.192676 0.869392
59 3 0.376747 0.246043 0.85027
1186 4 0.448147 0.255177 0.787127
493 4 0.112778 0.280564 0.764907
103 3 0.0298432 0.260365 0.782381
492 4 0.0603655 0.250932 0.775733
491 2 0.086572 0.265748 0.77032
1205 2 0.0969534 0.325277 0.867147
1207 4 0.0709027 0.31268 0.879775
843 4 0.230875 0.271437 0.751092
576 4 0.133293 0.292839 0.776472
264 4 0.140354 0.354161 0.852479
1206 4 0.123004 0.337874 0.854519
575 2 0.171674 0.277462 0.769771
263 2 0.174523 0.357545 0.847753
265 4 0.208692 0.36093 0.843027
1479 4 0.230026 0.373241 0.839897
58 3 0.332067 0.281985 0.821331
1239 4 0.305874 0.351905 0.813537
1478 2 0.264716 0.37503 0.833479
987 4 0.396236 0.259811 0.85836
1238 2 0.341866 0.334691 0.800239
1240 4 0.377858 0.317477 0.786941
387 4 0.396134 0.330805 0.795889
386 2 0.412171 0.350639 0.778188
1184 2 0.463549 0.276114 0.770494
1185 4 0.478952 0.297051 0.753862
476 2 0.482368 0.359487 0.871476
478 4 0.484095 0.379956 0.84364
546 4 0.189181 0.428511 0.740608
1480 4 0.299405 0.37682 0.827061
1102 4 0.318138 0.388633 0.817402
1527 4 0.310416 0.452712 0.802572
1100 2 0.345156 0.402284 0.823838
1101 4 0.372175 0.415935 0.830275
1395 4 0.393918 0.421332 0.844505
1526 2 0.315602 0.483757 0.80045
388 4 0.428208 0.370472 0.760487
515 2 0.478875 0.477506 0.817448
1394 2 0.420585 0.430353 0.827432
1396 4 0.447253 0.439375 0.810359
517 4 0.471327 0.447595 0.816281
531 4 0.0361218 0.0223746 0.973171
1377 4 0.0413095 0.0282504 0.945208
355 4 0.0742754 0.0948539 0.923043
1376 2 0.0713299 0.029322 0.925951
1378 4 0.10135 0.0303936 0.906693
353 2 0.0810201 0.106537 0.890978
1487 2 0.152274 0.033015 0.890621
1039 4 0.102001 0.0786623 0.933363
1037 2 0.129427 0.0753054 0.958108
791 2 0.175297 0.106284 0.910528
1489 4 0.184258 0.0394813 0.898011
613 4 0.215837 0.0298017 0.899234
792 4 0.139455 0.109417 0.920457
1488 4 0.120291 0.0265487 0.883231
1038 4 0.156853 0.0719486 0.982853
385 4 0.185582 0.0696141 0.980312
793 4 0.211139 0.103151 0.900599
611 2 0.254449 0.0176929 0.893773
607 4 0.304942 0.0258395 0.893042
384 4 0.245124 0.0878398 0.999131
612 4 0.29306 0.00558411 0.888312
383 2 0.215353 0.078727 0.989721
605 2 0.332327 0.0384789 0.884567
39 3 0.213227 0.122488 0.882297
508 4 0.0254999 0.138775 0.966388
646 4 0.00389787 0.146298 0.989263
506 2 0.0590428 0.143059 0.972135
507 4 0.0925856 0.147343 0.977882
590 2 0.24489 0.211713 0.876162
592 4 0.207024 0.230749 0.882932
1140 4 0.177422 0.228796 0.87986
1089 4 0.309799 0.166722 0.968718
1088 2 0.291877 0.196197 0.98874
1501 4 0.00821107 0.292465 0.942496
1270 4 0.00863487 0.283184 0.970961
1268 2 0.0204345 0.29611 0.999885
1499 2 0.0264194 0.306457 0.919592
1500 4 0.0446277 0.320449 0.896688
986 2 0.423163 0.266522 0.877612
988 4 0.45009 0.273233 0.896863
1588 4 0.472608 0.282511 0.890388
893 2 0.493408 0.376079 0.946138
477 4 0.480641 0.339018 0.899312
1316 2 0.051843 0.495693 0.917887
1327 4 0.066356 0.444936 0.93982
1325 2 0.0743439 0.431492 0.9732
1318 4 0.0755041 0.461234 0.923233
913 4 0.303667 0.404254 0.907419
1393 4 0.376804 0.499847 0.965224
911 2 0.318014 0.429327 0.900142
912 4 0.33236 0.4544 0.892866
617 2 0.371056 0.477582 0.91324
619 4 0.357328 0.461532 0.888263
872 2 0.449579 0.485258 0.895566
873 4 0.431089 0.465182 0.882429
895 4 0.501259 0.395673 0.971788
1497 4 0.50886 0.405443 0.995273
1391 2 0.387522 0.499484 0.999702
618 4 0.384785 0.493632 0.938217
942 4 0.250044 0.525116 0.051608
941 2 0.273248 0.5312 0.0761001
943 4 0.296453 0.537284 0.100592
268 4 0.314945 0.540505 0.120928
266 2 0.353549 0.530893 0.117308
1035 4 0.407951 0.537658 0.109203
1414 4 0.360458 0.600564 0.0779234
1412 2 0.383476 0.608103 0.0543019
1034 2 0.445917 0.523906 0.100539
267 4 0.392154 0.521282 0.113687
1413 4 0.406494 0.615642 0.0306804
433 4 0.438278 0.600906 0.0328137
1036 4 0.483884 0.510155 0.0918752
431 2 0.464769 0.593908 0.00641681
1401 4 0.0157574 0.69473 0.0882021
391 4 0.0332944 0.707292 0.101817
389 2 0.0711965 0.69259 0.0930045
871 4 0.125409 0.689219 0.100247
869 2 0.155456 0.693972 0.116093
390 4 0.109099 0.677888 0.0841924
870 4 0.185503 0.698725 0.131939
1181 2 0.236186 0.713201 0.114942
1182 4 0.203578 0.715321 0.13197
1183 4 0.268794 0.711081 0.0979143
654 4 0.275183 0.712662 0.0700721
653 2 0.279475 0.742625 0.0592159
1114 4 0.397526 0.718932 0.010206
187 3 0.423454 0.717552 0.023408
186 1 0.440135 0.723765 0.0496751
189 3 0.474095 0.700808 0.05091
474 4 0.487694 0.698702 0.0754995
188 3 0.422161 0.722157 0.0774159
794 2 0.504158 0.745871 0.0334643
736 4 0.0707519 0.819281 0.0754703
734 2 0.086243 0.84424 0.0771517
1255 4 0.187339 0.850361 0.0219061
1253 2 0.155579 0.853603 0.041034
735 4 0.101734 0.8692 0.078833
1254 4 0.12382 0.856845 0.0601619
1069 4 0.213665 0.854581 0.0239255
1067 2 0.247217 0.826856 0.0311239
1068 4 0.280769 0.799132 0.0383222
655 4 0.283766 0.772588 0.0483598
1339 4 0.314067 0.870317 0.122374
190 3 0.440584 0.753758 0.0466645
795 4 0.46542 0.756398 0.0369213
614 2 0.0405706 0.931138 0.0418732
615 4 0.0497286 0.9466 0.0704459
135 3 0.0546581 0.965168 0.0882704
616 4 0.0314126 0.915677 0.0133006
133 3 0.0831456 0.998641 0.0925433
131 1 0.0506678 0.996634 0.0901678
1304 2 0.174923 0.947821 0.00653695
710 2 0.206699 0.979834 0.113029
1305 4 0.21155 0.939408 0.0181324
1518 4 0.227328 0.956366 0.0280944
1517 2 0.254857 0.969762 0.032758
711 4 0.203564 0.94828 0.107011
1519 4 0.282386 0.983158 0.0374215
972 4 0.305721 0.985643 0.0522034
971 2 0.342356 0.984195 0.052809
973 4 0.378992 0.982747 0.0534147
1024 4 0.408531 0.978306 0.0499324
1022 2 0.446195 0.973158 0.0462559
1023 4 0.48386 0.968011 0.0425794
313 4 0.143446 0.591991 0.237025
311 2 0.151631 0.576914 0.204319
650 2 0.133349 0.521144 0.164756
312 4 0.159816 0.561837 0.171613
651 4 0.13445 0.553552 0.170561
358 4 0.310973 0.568941 0.20782
356 2 0.320541 0.574724 0.241332
1028 2 0.032729 0.667135 0.249212
1030 4 0.0634495 0.676613 0.24668
1345 4 0.0685162 0.685607 0.221963
1343 2 0.0754411 0.715617 0.217667
1344 4 0.0823659 0.745628 0.213371
1228 4 0.330143 0.722963 0.170068
695 2 0.36118 0.726687 0.223975
696 4 0.340647 0.73373 0.193284
1598 2 0.0172662 0.839334 0.216077
1599 4 0.0516853 0.842828 0.216697
1128 4 0.0765181 0.851476 0.220212
1127 2 0.111648 0.853406 0.217975
1129 4 0.146778 0.855335 0.215737
742 4 0.174414 0.854104 0.223311
740 2 0.212079 0.848529 0.227962
1337 2 0.322751 0.834824 0.123776
741 4 0.249744 0.842954 0.232614
1227 4 0.320665 0.778949 0.126821
1338 4 0.331434 0.799331 0.125178
1226 2 0.325404 0.750956 0.148444
1078 4 0.272504 0.826345 0.215832
1076 2 0.298071 0.818922 0.24306
1411 4 0.431541 0.998727 0.220857
374 2 0.0759212 0.557104 0.359106
985 4 0.0120627 0.603877 0.365995
376 4 0.0497095 0.549261 0.378298
1057 4 0.218191 0.507883 0.370242
754 4 0.181479 0.509583 0.260138
375 4 0.102133 0.564948 0.339914
1299 4 0.143781 0.588245 0.265736
405 4 0.19799 0.519644 0.278374
1300 4 0.125477 0.572171 0.33143
1298 2 0.134629 0.580208 0.298583
404 2 0.219522 0.538905 0.285587
950 2 0.162073 0.502482 0.34025
951 4 0.193609 0.505747 0.354634
406 4 0.241054 0.558166 0.292801
357 4 0.33011 0.580507 0.274844
766 4 0.00350988 0.701291 0.367265
1029 4 0.00200843 0.657656 0.251743
697 4 0.381713 0.719643 0.254667
185 3 0.0817679 0.86341 0.330975
447 4 0.220886 0.866506 0.320769
1077 4 0.323637 0.8115 0.270288
862 4 0.491919 0.798085 0.355992
879 4 0.0055327 0.898877 0.334806
182 3 0.0308305 0.90109 0.346618
181 1 0.0653775 0.894812 0.34006
183 3 0.0670465 0.914945 0.31532
184 3 0.0809951 0.90062 0.36763
446 2 0.195838 0.900811 0.317544
448 4 0.170789 0.935115 0.314318
33 3 0.386476 0.960012 0.359798
31 1 0.357029 0.988322 0.356606
35 3 0.327799 0.982856 0.364031
549 4 0.37705 0.993876 0.304905
548 2 0.397561 0.996765 0.276267
490 4 0.475381 0.973458 0.344213
488 2 0.440212 0.971485 0.345048
489 4 0.405043 0.969512 0.345884
550 4 0.418071 0.999655 0.247628
380 2 0.0118923 0.527826 0.414361
382 4 0.0410517 0.534413 0.39894
1188 4 0.0277182 0.617104 0.385024
1055 2 0.239127 0.51449 0.396597
1056 4 0.260064 0.521097 0.422952
1552 4 0.272277 0.539492 0.409997
1550 2 0.298429 0.545025 0.43142
1551 4 0.324581 0.550558 0.452844
1404 4 0.339296 0.56865 0.454531
1403 2 0.340052 0.575739 0.489691
372 4 0.423542 0.500505 0.408845
1187 2 0.0393771 0.635898 0.408793
96 1 0.0298959 0.688886 0.478854
97 3 0.0312489 0.670518 0.451968
1189 4 0.0510361 0.654692 0.432561
1322 2 0.145357 0.720688 0.38259
451 4 0.075353 0.661164 0.432227
100 3 0.0448244 0.710298 0.471915
1512 4 0.0720186 0.709267 0.487546
449 2 0.0821861 0.687751 0.415808
450 4 0.0890193 0.714338 0.399389
1324 4 0.107494 0.727211 0.38751
1323 4 0.18322 0.714165 0.377671
939 4 0.355591 0.689995 0.398485
938 2 0.348486 0.721158 0.415616
25 3 0.413285 0.676312 0.487133
411 4 0.194722 0.759654 0.450891
410 2 0.210728 0.782918 0.460626
412 4 0.226734 0.806182 0.470362
1092 4 0.255339 0.805562 0.477666
1091 2 0.29208 0.786791 0.466925
940 4 0.341381 0.752322 0.432747
1093 4 0.32882 0.76802 0.456185
1387 4 0.372419 0.827062 0.429192
1385 2 0.383678 0.853547 0.419289
861 4 0.479894 0.769075 0.417426
860 2 0.485906 0.78358 0.386709
303 4 0.0948116 0.914236 0.387016
302 2 0.115704 0.930207 0.403856
304 4 0.136596 0.946179 0.420696
924 4 0.167905 0.940801 0.416882
569 2 0.279627 0.966453 0.395983
923 2 0.204506 0.939344 0.418633
925 4 0.241108 0.937886 0.420385
570 4 0.255762 0.955832 0.415612
717 4 0.359564 0.907753 0.485913
529 4 0.41913 0.889012 0.413217
571 4 0.303491 0.977074 0.376354
1386 4 0.394937 0.880031 0.409386
527 2 0.446703 0.896968 0.396441
528 4 0.474277 0.904925 0.379666
298 4 0.0757064 0.584289 0.600272
544 4 0.0444973 0.596853 0.602921
296 2 0.101671 0.578644 0.57359
297 4 0.127635 0.572998 0.546908
399 4 0.152506 0.580944 0.544753
398 2 0.185038 0.587673 0.542526
897 4 0.21191 0.508084 0.608743
249 3 0.218293 0.526826 0.624174
400 4 0.21757 0.594402 0.540299
775 4 0.224689 0.616832 0.535971
773 2 0.260123 0.617722 0.540148
1399 4 0.303992 0.576051 0.609514
1397 2 0.274273 0.567731 0.620834
896 2 0.234566 0.508247 0.580743
454 4 0.326026 0.552146 0.597972
452 2 0.343962 0.563939 0.572724
1405 4 0.340809 0.582828 0.524851
453 4 0.361899 0.575733 0.547477
1042 4 0.378274 0.533044 0.603664
1177 4 0.389317 0.503638 0.52121
1320 4 0.0344752 0.636988 0.579231
1319 2 0.026621 0.655313 0.548173
1321 4 0.0187669 0.673638 0.517115
99 3 0.0480087 0.668678 0.503732
1513 4 0.11213 0.736318 0.530214
685 4 0.146632 0.684152 0.611296
1511 2 0.0920742 0.722793 0.50888
868 4 0.142207 0.721759 0.532118
866 2 0.153848 0.709229 0.565326
867 4 0.165488 0.696699 0.598533
774 4 0.295557 0.618612 0.544324
865 4 0.321052 0.625414 0.546711
863 2 0.343637 0.643732 0.539769
864 4 0.366221 0.662049 0.532827
24 3 0.382927 0.678165 0.532636
22 3 0.396598 0.720089 0.518407
21 1 0.408077 0.687002 0.518182
23 3 0.439213 0.674158 0.53528
604 4 0.459097 0.683931 0.55274
602 2 0.452371 0.694276 0.587203
820 4 0.483666 0.69401 0.547687
603 4 0.445645 0.704621 0.621667
1296 4 0.298313 0.748217 0.556811
679 4 0.281725 0.842699 0.537278
1582 4 0.308522 0.817954 0.534502
1295 2 0.321962 0.763376 0.569836
1297 4 0.345612 0.778536 0.582862
1580 2 0.336344 0.830572 0.541151
677 2 0.2495 0.871263 0.528598
1453 4 0.359152 0.787377 0.605722
1451 2 0.383328 0.804798 0.608003
1452 4 0.407504 0.822218 0.610284
120 3 0.421636 0.839988 0.611445
1581 4 0.364165 0.843191 0.5478
119 3 0.399593 0.861025 0.563156
718 4 0.382146 0.858927 0.538956
116 1 0.406737 0.867852 0.594351
117 3 0.429574 0.883307 0.593062
440 2 0.017598 0.998667 0.609127
455 2 0.132968 0.877523 0.619811
457 4 0.169019 0.877534 0.620495
1462 4 0.248774 0.978255 0.524313
678 4 0.217276 0.899827 0.519918
1460 2 0.236459 0.951237 0.521067
1353 4 0.274026 0.979635 0.511981
1461 4 0.224143 0.924219 0.517822
49 3 0.26353 0.00131855 0.604942
118 3 0.376121 0.887954 0.609324
716 2 0.370855 0.88334 0.512434
420 4 0.350268 0.881942 0.612916
470 2 0.324 0.986436 0.596369
471 4 0.360879 0.977396 0.607517
1352 2 0.295691 0.99938 0.515598
1203 4 0.448879 0.897748 0.595581
1202 2 0.477675 0.908938 0.588283
542 2 0.0511657 0.597746 0.638276
543 4 0.0578341 0.598639 0.673632
1156 4 0.0880756 0.589747 0.676993
1154 2 0.126593 0.58175 0.677561
1155 4 0.165111 0.573752 0.678129
436 4 0.139167 0.620581 0.750135
248 3 0.186343 0.547241 0.669355
1520 2 0.212899 0.517679 0.729914
1522 4 0.185507 0.503741 0.728974
434 2 0.175935 0.616644 0.742929
247 3 0.184845 0.579741 0.627707
246 1 0.205902 0.553107 0.644849
279 4 0.160877 0.502954 0.712706
1521 4 0.240291 0.531618 0.730854
250 3 0.233194 0.558861 0.65762
1398 4 0.244555 0.559411 0.632155
757 4 0.259114 0.545766 0.719616
755 2 0.29198 0.548679 0.73101
756 4 0.324847 0.551592 0.742404
435 4 0.212703 0.612707 0.735724
1279 4 0.222419 0.620695 0.710274
1040 2 0.397107 0.537465 0.632867
888 4 0.3464 0.558435 0.729099
887 2 0.367737 0.577675 0.721045
889 4 0.389074 0.596915 0.71299
1041 4 0.415939 0.541886 0.66207
1575 4 0.434562 0.515131 0.666264
203 3 0.506198 0.579864 0.717502
1574 2 0.468855 0.515372 0.677101
595 4 0.996232 0.665248 0.716533
1119 4 0.0278199 0.665993 0.710526
1118 2 0.0499436 0.678975 0.691252
1120 4 0.0720673 0.691956 0.671977
684 4 0.102793 0.681492 0.667631
683 2 0.124712 0.682822 0.639463
1277 2 0.249386 0.634781 0.705725
1137 4 0.24376 0.743248 0.741261
1278 4 0.276354 0.648867 0.701175
1458 4 0.414808 0.604479 0.7143
994 4 0.290747 0.666052 0.71288
992 2 0.315854 0.670689 0.736267
1457 2 0.443192 0.616036 0.706417
1459 4 0.471576 0.627593 0.698535
760 4 0.48432 0.647133 0.694568
758 2 0.498421 0.673084 0.693162
1542 4 0.0303403 0.864978 0.689169
1136 2 0.254441 0.76976 0.73023
982 4 0.292785 0.785076 0.705652
980 2 0.33131 0.776943 0.706921
1138 4 0.265122 0.796271 0.7192
981 4 0.369835 0.768809 0.708191
1191 4 0.388588 0.783542 0.71913
892 4 0.393891 0.872085 0.75776
1190 2 0.423383 0.771122 0.70266
890 2 0.42819 0.874313 0.750412
1192 4 0.458178 0.758702 0.68619
213 3 0.474532 0.76494 0.707695
648 4 0.487769 0.85188 0.75058
891 4 0.462488 0.876542 0.743063
689 2 0.0338327 0.873706 0.629724
690 4 0.0666463 0.880018 0.628034
1541 2 0.0435131 0.88234 0.713257
1543 4 0.0566859 0.899702 0.737344
456 4 0.0969179 0.877512 0.619127
1161 4 0.194632 0.881155 0.623347
708 4 0.203966 0.946435 0.68691
421 4 0.28343 0.889947 0.646209
1160 2 0.223634 0.888788 0.637659
1162 4 0.252636 0.896421 0.651971
707 2 0.225599 0.958125 0.708341
709 4 0.247232 0.969816 0.729771
1379 2 0.194351 0.982948 0.63509
1380 4 0.20958 0.962466 0.664021
1261 4 0.270506 0.947301 0.741642
419 2 0.316849 0.885945 0.629563
1259 2 0.287812 0.96789 0.75589
907 4 0.0611546 0.589984 0.777421
905 2 0.0910785 0.597651 0.765456
906 4 0.121002 0.605318 0.753492
1495 4 0.162841 0.585742 0.814843
1493 2 0.197227 0.576748 0.831656
1494 4 0.231613 0.567754 0.848469
1180 4 0.243362 0.584667 0.838414
1178 2 0.269827 0.596409 0.851711
1199 2 0.287881 0.518177 0.875646
1528 4 0.320788 0.514802 0.798328
1179 4 0.296293 0.60815 0.865008
1200 4 0.322604 0.516992 0.864349
1360 4 0.351974 0.511087 0.792835
306 4 0.345633 0.527698 0.863999
1358 2 0.38251 0.520958 0.793187
1359 4 0.413047 0.53083 0.79354
790 4 0.301647 0.614512 0.838258
840 4 0.438364 0.536045 0.792979
305 2 0.356925 0.554977 0.870227
307 4 0.368217 0.582256 0.876454
516 4 0.486424 0.507417 0.818614
839 2 0.459891 0.55337 0.806042
841 4 0.481418 0.570696 0.819104
801 4 0.496692 0.59008 0.818509
800 2 0.469247 0.622712 0.811666
286 4 0.215387 0.705652 0.846237
284 2 0.244289 0.714239 0.85927
210 3 0.387542 0.622072 0.782831
993 4 0.340961 0.675327 0.759654
285 4 0.273191 0.722827 0.872304
788 2 0.324337 0.633442 0.836454
789 4 0.347026 0.652373 0.83465
207 3 0.371479 0.672216 0.763909
209 3 0.35823 0.664327 0.814919
206 1 0.383012 0.652853 0.790634
1285 4 0.26957 0.74763 0.856719
883 4 0.358583 0.736351 0.810682
1275 4 0.488579 0.732532 0.750985
208 3 0.414529 0.653786 0.800679
802 4 0.441803 0.655343 0.804822
882 4 0.432653 0.731283 0.811393
1276 4 0.457501 0.706636 0.803625
1274 2 0.47304 0.719584 0.777305
881 2 0.395618 0.733817 0.811038
1283 2 0.298315 0.750931 0.837182
1284 4 0.327059 0.754232 0.817645
771 4 0.00742037 0.878637 0.830762
1260 4 0.305118 0.988479 0.770137
805 4 0.473127 0.000358636 0.775494
1317 4 0.0281819 0.530152 0.912541
1201 4 0.253157 0.519363 0.886943
640 4 0.381418 0.576223 0.90281
638 2 0.413098 0.575186 0.920786
432 4 0.491259 0.586911 0.98002
639 4 0.444779 0.574149 0.938761
874 4 0.468069 0.505335 0.908702
1524 4 0.308068 0.723645 0.955582
1113 4 0.352708 0.692902 0.972576
1112 2 0.375117 0.705917 0.991391
1485 4 0.159181 0.827728 0.918324
728 2 0.125384 0.861093 0.962378
1484 2 0.19796 0.814248 0.923014
729 4 0.110264 0.868262 0.99558
730 4 0.140504 0.853924 0.929175
1525 4 0.265834 0.781357 0.916247
1486 4 0.236738 0.800768 0.927703
1523 2 0.286951 0.752501 0.935914
1306 4 0.138296 0.956234 0.994942
467 2 0.573939 0.0880228 0.114627
468 4 0.600454 0.10249 0.109241
1011 4 0.615023 0.116863 0.0976257
115 3 0.710244 0.0454661 0.0869171
111 1 0.717989 0.0135876 0.0813718
114 3 0.725033 0.0067366 0.0488812
334 4 0.723162 0.0494028 0.111325
332 2 0.72378 0.0820895 0.106204
333 4 0.724398 0.114776 0.101082
935 2 0.796364 0.0185742 0.118055
937 4 0.775503 0.00159185 0.102941
850 4 0.751131 0.12154 0.00788777
1010 2 0.637647 0.128308 0.0772059
1012 4 0.660272 0.139754 0.0567862
849 4 0.679812 0.142617 0.0371346
848 2 0.715472 0.132078 0.0225112
1060 4 0.528369 0.272366 0.0452099
1216 4 0.555925 0.272876 0.0396947
1214 2 0.581394 0.279313 0.0612669
1215 4 0.606862 0.285749 0.082839