ITEM: TIMESTEP
2632500
ITEM: NUMBER OF ATOMS
4590
ITEM: BOX BOUNDS xy xz yz pp pp pp
-1.6997568999999999e+01 9.9985700000000008e+00 -6.9989989999999977e+00
-9.9985700000000008e+00 9.9985700000000008e+00 0.0000000000000000e+00
-9.9985700000000008e+00 9.9985700000000008e+00 0.0000000000000000e+00
ITEM: ATOMS id type xs ys zs
2785 2 0.419165 0.012258 0.0353916
2787 4 0.394328 0.0103608 0.0414952
2606 4 0.465407 0.0204539 0.0257896
2786 4 0.444001 0.0141552 0.029288
2605 2 0.482039 0.0112163 0.0378395
2607 4 0.498671 0.00197867 0.0498895
1760 4 0.191329 0.131978 0.0128179
1071 4 0.232979 0.0984011 0.0271168
1069 2 0.252504 0.117369 0.0370849
1070 4 0.272029 0.136337 0.047053
1109 4 0.284852 0.128407 0.0384217
1108 2 0.310419 0.131701 0.0341467
1110 4 0.335986 0.134996 0.0298717
67 3 0.35784 0.143192 0.0357557
68 3 0.37732 0.118576 0.0315946
69 3 0.375918 0.141839 0.00309616
66 1 0.377289 0.139849 0.0261219
70 3 0.397337 0.155474 0.0339944
4505 4 0.417582 0.169479 0.0378312
4504 2 0.439754 0.166984 0.0472052
2773 2 0.118502 0.240581 0.0662604
2775 4 0.131972 0.243632 0.0447651
284 4 0.152686 0.244759 0.0417044
283 2 0.176873 0.250915 0.0517975
4506 4 0.461926 0.164489 0.0565793
960 4 0.483192 0.174919 0.0534882
617 4 0.0160807 0.327182 0.0680209
1200 4 0.0760665 0.326565 0.0555122
1593 4 0.054581 0.330568 0.016354
1591 2 0.0347695 0.327838 0.000161981
1198 2 0.0912575 0.312043 0.0573085
1199 4 0.106449 0.297521 0.0591048
2610 4 0.112648 0.285255 0.0480696
2608 2 0.136769 0.298585 0.0397633
285 4 0.20106 0.25707 0.0618906
2609 4 0.16089 0.311916 0.031457
3211 2 0.20204 0.31593 0.0471257
3213 4 0.182002 0.319229 0.0342724
3212 4 0.222078 0.312632 0.059979
1826 4 0.236221 0.306758 0.0697858
1825 2 0.226672 0.281841 0.0716955
1827 4 0.217124 0.256924 0.0736053
2632 2 0.310907 0.285489 0.0750769
2634 4 0.304372 0.271848 0.0541961
3369 4 0.297626 0.262369 0.0377371
3367 2 0.308537 0.263843 0.0150441
703 2 0.434897 0.311316 0.0818016
2974 2 0.423083 0.269221 0.0111966
2976 4 0.445177 0.277064 0.0249539
705 4 0.426432 0.286407 0.0796377
4437 4 0.460097 0.280353 0.0386476
4435 2 0.482953 0.293409 0.049618
783 4 0.0231724 0.411659 0.0116856
145 3 0.0105815 0.385803 0.0746614
781 2 0.00276395 0.409488 0.0269964
755 4 0.0101963 0.366411 0.0332791
2458 2 0.0755553 0.404749 0.0674391
2459 4 0.0826388 0.41344 0.0443455
3744 4 0.0988293 0.357812 0.0483906
3742 2 0.111767 0.367915 0.0692401
905 4 0.114881 0.344111 0.00809265
904 2 0.136471 0.356763 0.0211542
906 4 0.158061 0.369414 0.0342157
4586 4 0.171631 0.368046 0.0205423
4585 2 0.198104 0.376044 0.0214273
4587 4 0.224576 0.384042 0.0223123
3101 4 0.348387 0.333935 0.0290405
3100 2 0.367254 0.343487 0.046157
3102 4 0.38612 0.353039 0.0632735
3218 4 0.407225 0.361947 0.0625081
3217 2 0.432687 0.363377 0.0623024
704 4 0.443363 0.336225 0.0839655
3219 4 0.458149 0.364807 0.0620968
4358 4 0.47636 0.371983 0.0505561
4357 2 0.496236 0.385654 0.0360463
638 4 0.0430863 0.421731 0.0063918
4481 4 0.00855184 0.468488 0.0033198
3042 4 0.10648 0.418181 0.00917545
637 2 0.0661838 0.420724 0.0150105
639 4 0.0892814 0.419717 0.0236293
1133 4 0.116488 0.494986 0.0172258
1132 2 0.140299 0.498515 0.00707281
2087 4 0.263241 0.472749 0.00761813
2163 4 0.360547 0.488323 0.0656588
560 4 0.379649 0.493906 0.0541008
1319 4 0.404986 0.463596 0.0744894
1320 4 0.434625 0.450892 0.0401749
1318 2 0.419806 0.457244 0.0573321
607 2 0.37929 0.499927 0.00339702
1514 4 0.0154107 0.0727623 0.141976
2757 4 0.0352811 0.0822651 0.14917
654 4 0.343705 0.073236 0.150425
652 2 0.35669 0.0635515 0.16665
1481 4 0.396506 0.0167087 0.161801
1480 2 0.401967 0.0107839 0.138707
1482 4 0.407427 0.00485921 0.115614
298 2 0.00855716 0.14448 0.113222
292 2 0.0470984 0.156678 0.156566
2755 2 0.0507516 0.104628 0.141005
2756 4 0.0662221 0.126991 0.13284
299 4 0.0348079 0.152379 0.116568
294 4 0.0471103 0.162946 0.132459
2942 4 0.194218 0.131553 0.15832
2941 2 0.219896 0.141231 0.16421
370 2 0.265727 0.137998 0.119146
371 4 0.268085 0.116819 0.128154
372 4 0.26337 0.159178 0.110138
2707 2 0.0157456 0.236849 0.162873
2774 4 0.105031 0.237531 0.0877557
4076 4 0.243943 0.229504 0.155872
4075 2 0.261268 0.217054 0.15579
761 4 0.305723 0.23957 0.104593
2621 4 0.282374 0.173488 0.102866
2622 4 0.301148 0.222359 0.11333
2620 2 0.291761 0.197923 0.108098
33 3 0.304065 0.17995 0.158972
2936 4 0.323918 0.179872 0.153953
4077 4 0.278593 0.204603 0.155708
2670 4 0.387 0.232356 0.107174
2572 2 0.0105074 0.285216 0.137446
2573 4 0.0230998 0.280659 0.157524
641 4 0.208565 0.278365 0.11137
640 2 0.216152 0.29328 0.131298
642 4 0.223739 0.308195 0.151225
2633 4 0.317442 0.29913 0.0959576
760 2 0.312084 0.253528 0.125286
708 4 0.33433 0.314006 0.0896789
706 2 0.337825 0.320147 0.113879
762 4 0.318445 0.267486 0.145979
707 4 0.34132 0.326289 0.138079
2669 4 0.407887 0.278398 0.0882533
2668 2 0.397444 0.255377 0.0977138
1103 4 0.449034 0.334488 0.15453
690 4 0.460896 0.321466 0.152381
141 1 0.0229403 0.385399 0.0936936
142 3 0.0221367 0.40245 0.107569
144 3 0.0129112 0.365172 0.104675
2460 4 0.0684718 0.396057 0.0905328
143 3 0.0464079 0.388402 0.0885075
2718 4 0.137203 0.389473 0.104175
3743 4 0.124706 0.378019 0.0900895
507 4 0.146768 0.351982 0.150681
2716 2 0.161354 0.390715 0.111995
2403 4 0.155764 0.342468 0.137663
2717 4 0.185505 0.391957 0.119815
4314 4 0.198572 0.399757 0.135136
2401 2 0.177984 0.34123 0.127152
4312 2 0.222384 0.410777 0.124865
2402 4 0.200205 0.339993 0.116642
752 4 0.220553 0.338844 0.114475
751 2 0.241136 0.359758 0.111028
2896 2 0.274055 0.412148 0.106834
2898 4 0.28262 0.392511 0.105737
914 4 0.330595 0.379706 0.0961856
753 4 0.261719 0.380673 0.107581
915 4 0.285051 0.342793 0.087593
913 2 0.307823 0.36125 0.0918893
1047 4 0.351617 0.38341 0.0942325
1045 2 0.374824 0.40178 0.0917333
4276 2 0.432309 0.414623 0.148428
4278 4 0.448639 0.404567 0.137024
688 2 0.485433 0.337542 0.155409
2779 2 0.0136855 0.428842 0.122249
2780 4 0.0396717 0.432378 0.121788
1413 4 0.0596878 0.440094 0.114998
1411 2 0.0715165 0.454179 0.134471
1412 4 0.0833451 0.468264 0.153944
323 4 0.138961 0.472798 0.115183
324 4 0.176601 0.498721 0.147006
322 2 0.157781 0.48576 0.131095
4313 4 0.246197 0.421798 0.114593
2897 4 0.265489 0.431785 0.107931
1801 2 0.354933 0.482637 0.142412
1802 4 0.338385 0.495025 0.148379
387 4 0.419341 0.427876 0.0874495
1046 4 0.398031 0.420151 0.089234
2741 4 0.371667 0.478778 0.116535
482 4 0.435705 0.501753 0.161873
2742 4 0.388201 0.450745 0.0845855
4277 4 0.415979 0.424679 0.159832
2740 2 0.379934 0.464761 0.10056
1290 4 0.395322 0.419643 0.163261
1288 2 0.38741 0.438022 0.154228
1289 4 0.379499 0.456402 0.145195
1803 4 0.37148 0.470249 0.136446
386 4 0.464162 0.416936 0.091212
385 2 0.441751 0.422406 0.0893307
3663 4 0.485517 0.422556 0.0970908
2890 2 0.038471 0.047577 0.241421
2891 4 0.05246 0.0392879 0.224953
252 4 0.0587219 0.0292301 0.210471
250 2 0.0776159 0.0485735 0.200273
251 4 0.0965099 0.067917 0.190074
758 4 0.383059 0.00242602 0.173266
653 4 0.369675 0.053867 0.182875
1406 4 0.390653 0.0650111 0.178601
1405 2 0.411454 0.066603 0.193189
1407 4 0.432255 0.0681949 0.207778
2472 4 0.451756 0.0769717 0.199057
2645 4 0.480189 0.0060614 0.227751
2470 2 0.473094 0.0790958 0.185039
2471 4 0.494433 0.0812199 0.171021
3508 2 0.00872429 0.123312 0.189981
293 4 0.0470865 0.15041 0.180673
3509 4 0.0339957 0.137264 0.193837
3270 4 0.154475 0.148622 0.205074
3268 2 0.166991 0.148881 0.22677
3269 4 0.179507 0.14914 0.248466
488 4 0.209688 0.140935 0.22037
487 2 0.236018 0.151738 0.220546
2943 4 0.245573 0.150908 0.1701
35 3 0.268318 0.154713 0.166479
489 4 0.262348 0.16254 0.220723
396 4 0.261676 0.161822 0.241033
2709 4 0.0357801 0.238534 0.178501
2533 2 0.0148125 0.179378 0.187198
2534 4 0.0394675 0.191156 0.195253
713 4 0.0582638 0.191341 0.199926
712 2 0.0838325 0.20314 0.205059
714 4 0.109401 0.21494 0.210193
32 3 0.273629 0.191178 0.169248
31 1 0.284003 0.17498 0.172314
34 3 0.29022 0.174781 0.194649
2753 4 0.301858 0.183994 0.210963
2752 2 0.322692 0.203512 0.2179
2754 4 0.343527 0.22303 0.224837
2935 2 0.343833 0.186536 0.170434
1232 4 0.36459 0.228711 0.229125
933 4 0.378665 0.232487 0.215151
310 2 0.396842 0.184595 0.183416
311 4 0.372238 0.178601 0.192511
2937 4 0.363748 0.193199 0.186916
1231 2 0.378731 0.224905 0.248393
312 4 0.421446 0.190588 0.174321
246 4 0.0201949 0.301324 0.221668
244 2 0.0172548 0.292771 0.198172
245 4 0.0143148 0.284218 0.174677
2945 4 0.0492955 0.257188 0.181951
338 4 0.0078357 0.293254 0.238172
2944 2 0.0729959 0.275085 0.18101
2946 4 0.0966962 0.292982 0.180069
2910 4 0.112378 0.300931 0.192927
2908 2 0.137861 0.305092 0.198457
1764 4 0.221845 0.312032 0.169742
2909 4 0.163345 0.309253 0.203987
1763 4 0.174109 0.301243 0.190999
1762 2 0.197977 0.306638 0.180371
931 2 0.380428 0.251069 0.199108
932 4 0.382191 0.269652 0.183065
1104 4 0.412752 0.311326 0.188742
1102 2 0.430893 0.322907 0.171636
3015 4 0.476042 0.250812 0.20008
3013 2 0.476836 0.26405 0.220942
3014 4 0.477631 0.277287 0.241804
506 4 0.110143 0.334921 0.186318
505 2 0.128456 0.343452 0.1685
1848 4 0.083668 0.457464 0.218458
1846 2 0.0882538 0.461444 0.193981
1847 4 0.0928395 0.465425 0.169503
1863 4 0.0888934 0.449455 0.236779
1388 4 0.119523 0.421976 0.239411
1387 2 0.139279 0.431061 0.223043
1389 4 0.159034 0.440147 0.206676
2657 4 0.174059 0.439749 0.219615
2656 2 0.20007 0.449685 0.223942
2658 4 0.226081 0.459622 0.228269
853 2 0.259817 0.470238 0.228573
855 4 0.239403 0.478593 0.225303
854 4 0.280231 0.461883 0.231844
4198 2 0.437408 0.459347 0.228121
481 2 0.44651 0.49741 0.18319
4200 4 0.430543 0.444775 0.248363
483 4 0.457315 0.493066 0.204507
4199 4 0.444273 0.473919 0.20788
2892 4 0.024482 0.0558661 0.25789
735 4 0.00976575 0.0479671 0.309206
3503 4 0.00601775 0.0616131 0.25606
733 2 0.0181103 0.0538031 0.332688
2126 4 0.168663 8.75676e-05 0.282002
1677 4 0.233133 0.0193284 0.290169
1695 4 0.252882 0.0193132 0.296685
1675 2 0.208641 0.0078015 0.281576
1693 2 0.267328 0.042731 0.302827
1694 4 0.281774 0.0661489 0.308969
1517 4 0.331477 0.0652818 0.327601
1371 4 0.409475 0.0152907 0.278501
1369 2 0.433039 0.0189561 0.289241
544 2 0.491379 0.0241048 0.279457
545 4 0.465598 0.0164698 0.285192
1370 4 0.456603 0.0226214 0.29998
2847 4 0.20038 0.161668 0.249138
394 2 0.280836 0.161356 0.256894
20 3 0.279838 0.158597 0.317303
17 3 0.293821 0.13006 0.319282
2679 4 0.277633 0.116494 0.327555
2677 2 0.262364 0.0925854 0.32999
16 1 0.299132 0.152203 0.313544
19 3 0.30523 0.154748 0.291076
395 4 0.299995 0.16089 0.272756
18 3 0.318012 0.164943 0.32651
1516 2 0.321918 0.0842106 0.329821
677 4 0.400042 0.162206 0.281253
255 4 0.0139351 0.221626 0.257919
253 2 0.0401765 0.233039 0.257918
2447 4 0.0379849 0.23698 0.324952
2446 2 0.0145271 0.239213 0.330668
254 4 0.066418 0.244452 0.257916
620 4 0.0805984 0.235998 0.259201
3108 4 0.185683 0.239851 0.260112
3106 2 0.208227 0.238828 0.270094
2845 2 0.213145 0.184634 0.25782
3107 4 0.230771 0.237804 0.280075
2462 4 0.244167 0.20677 0.271829
2846 4 0.22591 0.2076 0.266503
2461 2 0.269901 0.217712 0.276897
2463 4 0.295634 0.228655 0.281966
1796 4 0.313765 0.242855 0.287119
1766 4 0.337667 0.173132 0.321081
1765 2 0.359921 0.190156 0.312724
1233 4 0.392872 0.221098 0.267662
1767 4 0.382175 0.207179 0.304366
676 2 0.417776 0.173693 0.298723
678 4 0.435509 0.18518 0.316192
2918 4 0.43822 0.171465 0.33042
619 2 0.104084 0.252562 0.265362
621 4 0.12757 0.269125 0.271522
682 2 0.163819 0.266858 0.27278
683 4 0.146185 0.277261 0.280798
684 4 0.181454 0.256455 0.264761
1797 4 0.350348 0.268295 0.320095
1795 2 0.332056 0.255575 0.303607
3321 4 0.324292 0.32877 0.288004
3818 4 0.0214056 0.375177 0.300259
581 4 0.0204723 0.382941 0.319991
494 4 0.0658501 0.359512 0.28085
3819 4 0.0620448 0.357573 0.301013
3817 2 0.0417252 0.366375 0.300636
493 2 0.092227 0.366674 0.278827
411 4 0.158464 0.407262 0.318573
409 2 0.148324 0.396711 0.296841
410 4 0.138184 0.38616 0.275108
495 4 0.118604 0.373836 0.276804
446 4 0.179066 0.408213 0.318095
2689 2 0.273986 0.408193 0.255811
2691 4 0.28476 0.390011 0.25675
3319 2 0.3133 0.339204 0.305378
3320 4 0.302309 0.349639 0.322752
2600 4 0.366007 0.387295 0.257637
2601 4 0.340053 0.345238 0.28225
2599 2 0.35303 0.366267 0.269943
2661 4 0.00498344 0.448782 0.314802
2508 4 0.0678966 0.487327 0.305946
2506 2 0.0441349 0.474991 0.31569
2507 4 0.0203733 0.462654 0.325433
1862 4 0.0964909 0.490134 0.265094
1861 2 0.0926922 0.469794 0.250936
2690 4 0.263211 0.426374 0.254873
734 4 0.0264549 0.0596391 0.35617
1622 4 0.0466987 0.0622783 0.359431
1621 2 0.0609985 0.0571829 0.377886
1623 4 0.0752983 0.0520875 0.39634
3668 4 0.132945 0.00415494 0.398553
577 2 0.166775 0.0719093 0.357531
578 4 0.144723 0.0521199 0.355343
2678 4 0.247095 0.0686764 0.332425
3646 2 0.452951 0.0602168 0.413898
3648 4 0.465278 0.0599188 0.392205
3235 2 0.0251569 0.156662 0.38594
3236 4 0.000845605 0.146081 0.395349
428 4 0.0487842 0.146564 0.338905
427 2 0.0751815 0.155851 0.337126
2813 4 0.119434 0.166071 0.344912
42 3 0.207134 0.131507 0.336968
2674 2 0.191564 0.156255 0.380354
579 4 0.188826 0.0916987 0.35972
41 1 0.219176 0.125835 0.354294
45 3 0.215833 0.136237 0.373312
2675 4 0.207448 0.143879 0.388311
43 3 0.210539 0.102819 0.357188
44 3 0.243105 0.132614 0.349022
1518 4 0.312359 0.103139 0.332041
296 4 0.481346 0.152276 0.391082
295 2 0.487702 0.138766 0.373199
297 4 0.494058 0.125256 0.355316
935 4 0.0182303 0.196553 0.407205
2652 4 0.0457579 0.230903 0.341613
3237 4 0.0494681 0.167242 0.376531
2650 2 0.0706919 0.234704 0.348935
2651 4 0.0956259 0.238504 0.356256
365 4 0.0680717 0.173187 0.387136
364 2 0.0944479 0.183387 0.386115
230 4 0.108439 0.240182 0.372481
229 2 0.124876 0.249253 0.391639
429 4 0.101579 0.165139 0.335346
2676 4 0.175679 0.168631 0.372398
366 4 0.120824 0.193587 0.385095
2814 4 0.170036 0.181093 0.359709
382 2 0.161202 0.217119 0.387615
383 4 0.139073 0.202869 0.376288
2812 2 0.144735 0.173582 0.35231
384 4 0.183331 0.231369 0.398943
661 2 0.38408 0.203723 0.409954
663 4 0.392348 0.209208 0.386399
2919 4 0.486948 0.18269 0.349598
2917 2 0.462584 0.177077 0.340009
1414 2 0.0600744 0.322971 0.35293
2994 4 0.0192238 0.324894 0.341486
1415 4 0.0344516 0.320048 0.349536
1416 4 0.0856972 0.325894 0.356323
2339 4 0.0262325 0.322325 0.403908
1061 4 0.100012 0.318739 0.349327
1060 2 0.126148 0.32879 0.345775
231 4 0.141313 0.258324 0.410796
580 2 0.011249 0.392747 0.339197
2992 2 0.00959386 0.337222 0.358181
582 4 0.00202559 0.402553 0.358403
2338 2 0.0466989 0.341707 0.411801
445 2 0.182488 0.397447 0.339486
1062 4 0.152284 0.33884 0.342224
3813 4 0.184144 0.40121 0.372206
3811 2 0.182897 0.398044 0.397008
447 4 0.18591 0.386681 0.360877
2630 4 0.259101 0.335931 0.374089
2654 4 0.267784 0.363204 0.388893
2629 2 0.278844 0.345411 0.357792
2653 2 0.276852 0.388108 0.391094
2655 4 0.28592 0.413012 0.393295
2631 4 0.298586 0.354891 0.341496
2517 4 0.0955734 0.419567 0.402035
3704 4 0.347066 0.437057 0.334113
3703 2 0.370756 0.445485 0.345248
3705 4 0.394446 0.453912 0.356384
1817 4 0.00419199 0.0788719 0.475259
2178 4 0.115981 0.0803357 0.454623
3774 4 0.184788 0.0481165 0.473149
1997 4 0.168272 0.0317776 0.472785
1996 2 0.15334 0.00955811 0.463824
3772 2 0.20831 0.0457986 0.478413
2981 4 0.188058 0.075293 0.492161
3773 4 0.231832 0.0434807 0.483677
812 4 0.254346 0.00748094 0.488142
2963 4 0.275616 0.0141423 0.494516
3647 4 0.440623 0.0605148 0.43559
4388 4 0.469226 0.0247423 0.453377
4387 2 0.447805 0.00777063 0.463251
248 4 0.0128006 0.133973 0.444258
828 4 0.998363 0.120567 0.4556
1816 2 0.0131055 0.0876049 0.452574
2765 4 0.00683822 0.0908643 0.491302
247 2 0.0364693 0.143596 0.455233
1818 4 0.0220189 0.096338 0.429888
1851 4 0.077316 0.160939 0.478935
249 4 0.060138 0.15322 0.466208
1849 2 0.0889927 0.143952 0.473826
1850 4 0.100669 0.126966 0.468717
2176 2 0.11525 0.100955 0.466322
2177 4 0.114519 0.121573 0.47802
3489 4 0.207814 0.0842588 0.499032
266 4 0.380955 0.105614 0.443273
265 2 0.403339 0.100524 0.447186
3955 2 0.463521 0.124089 0.450227
3957 4 0.438513 0.112164 0.443232
267 4 0.425723 0.0954346 0.4511
2825 4 0.492696 0.152735 0.46926
3956 4 0.488528 0.136014 0.457223
355 2 0.254636 0.201074 0.461634
356 4 0.237983 0.20733 0.446435
3806 4 0.268181 0.197263 0.496904
357 4 0.27129 0.194817 0.476832
662 4 0.375811 0.198239 0.433508
680 4 0.105923 0.325648 0.427951
679 2 0.128257 0.319951 0.428878
681 4 0.150591 0.314253 0.429804
2585 4 0.199431 0.319231 0.500787
2515 2 0.0846893 0.39928 0.416153
2340 4 0.0671653 0.36109 0.419694
2516 4 0.0738053 0.378994 0.430271
3812 4 0.18165 0.394878 0.421811
3199 2 0.23624 0.341871 0.487363
613 2 0.28572 0.35215 0.460479
615 4 0.263374 0.355079 0.452088
3200 4 0.25373 0.354197 0.470051
614 4 0.308066 0.349222 0.46887
569 4 0.322461 0.350832 0.483747
568 2 0.346554 0.360617 0.49386
4433 4 0.384807 0.365737 0.489582
4432 2 0.408626 0.366004 0.497469
1630 2 0.0582874 0.500055 0.42108
1632 4 0.0380715 0.483732 0.433263
1871 4 0.0178157 0.481512 0.43795
2927 4 0.119018 0.449442 0.492911
3702 4 0.101907 0.452044 0.500342
3770 4 0.22946 0.481496 0.425915
2139 4 0.418092 0.49984 0.440825
2802 4 0.435547 0.490216 0.500373
3755 4 0.446225 0.42953 0.441176
3754 2 0.462243 0.446655 0.456388
431 4 0.45935 0.427834 0.490139
3756 4 0.478262 0.463781 0.4716
1226 4 0.485607 0.479442 0.484183
1225 2 0.469679 0.492818 0.488823
198 3 0.49426 0.45605 0.469666
4369 2 0.999988 0.0756096 0.576651
3084 4 0.13593 0.0832025 0.531316
2982 4 0.153913 0.0853994 0.523444
2980 2 0.170985 0.0803462 0.507803
2962 2 0.286724 0.00942823 0.515497
2964 4 0.297831 0.00471415 0.536479
1096 2 0.479544 0.0618871 0.538264
1098 4 0.490695 0.0505357 0.521906
1097 4 0.468393 0.0732385 0.554622
3305 4 0.496053 0.0605603 0.502523
374 4 0.00493016 0.156202 0.581665
373 2 0.0259218 0.152258 0.571218
4371 4 0.0174591 0.0858852 0.558564
2764 2 0.0102828 0.0924932 0.516086
2766 4 0.0137273 0.094122 0.54087
375 4 0.0469134 0.148314 0.560772
2604 4 0.0377234 0.094984 0.559068
2602 2 0.0591258 0.0924775 0.547999
468 4 0.0533547 0.136553 0.574831
2603 4 0.0805282 0.089971 0.53693
3082 2 0.113962 0.0851864 0.541693
3083 4 0.0919948 0.0871703 0.55207
398 4 0.219755 0.126008 0.521547
397 2 0.238692 0.146168 0.530355
3487 2 0.232242 0.0899506 0.508488
399 4 0.257629 0.166329 0.539163
3488 4 0.25667 0.0956425 0.517945
2519 4 0.27162 0.113126 0.512366
2518 2 0.297241 0.118378 0.518025
2520 4 0.322862 0.123631 0.523683
3413 4 0.343692 0.124434 0.522948
3412 2 0.366569 0.125092 0.512369
3414 4 0.389445 0.125749 0.501791
1471 2 0.460171 0.1523 0.543584
1472 4 0.45547 0.140992 0.565872
1473 4 0.464872 0.163607 0.521296
319 2 0.490182 0.109002 0.573976
320 4 0.485746 0.086187 0.564382
4224 4 0.18986 0.208314 0.556642
4222 2 0.21297 0.217253 0.568727
4223 4 0.23608 0.226192 0.580812
1700 4 0.273326 0.171222 0.553777
1699 2 0.297884 0.187717 0.554251
1701 4 0.322443 0.204213 0.554726
584 4 0.339724 0.202752 0.545147
3805 2 0.293784 0.202093 0.502385
3807 4 0.319388 0.206923 0.507865
583 2 0.364733 0.206697 0.537983
585 4 0.389742 0.210642 0.530819
3039 4 0.403541 0.223752 0.542382
3037 2 0.428337 0.224413 0.537761
3038 4 0.453132 0.225073 0.533141
900 4 0.46773 0.238496 0.522638
2990 4 0.0510741 0.278681 0.551139
2989 2 0.0623648 0.300163 0.563364
2991 4 0.0736556 0.321645 0.575589
2586 4 0.154353 0.289737 0.521353
2584 2 0.176892 0.304484 0.51107
3201 4 0.218751 0.329546 0.504674
898 2 0.493357 0.249553 0.517203
3175 2 0.0307144 0.363565 0.569667
3177 4 0.0399028 0.359685 0.54733
558 4 0.0614756 0.370757 0.543633
556 2 0.0810414 0.391339 0.53665
557 4 0.100607 0.411921 0.529667
1015 2 0.0932485 0.367295 0.584303
1016 4 0.100341 0.368623 0.56023
3696 4 0.121041 0.378902 0.556079
3694 2 0.144941 0.388913 0.545641
3695 4 0.168841 0.398924 0.535202
1953 4 0.264427 0.359042 0.571421
1951 2 0.265102 0.336692 0.578731
570 4 0.370647 0.370402 0.503973
2346 4 0.454403 0.371895 0.503952
2344 2 0.474654 0.367697 0.515605
4434 4 0.432445 0.366271 0.505355
2345 4 0.494905 0.3635 0.527259
1039 2 0.0193675 0.436297 0.527896
1568 4 0.0329979 0.482289 0.524394
1041 4 0.0403897 0.434491 0.515525
1567 2 0.0225401 0.496168 0.510324
1040 4 0.998345 0.438103 0.540266
3700 2 0.0773571 0.437895 0.506738
3701 4 0.0528069 0.423746 0.513134
3684 4 0.182964 0.418466 0.533202
2928 4 0.165906 0.470004 0.515329
3683 4 0.181563 0.464171 0.522758
3682 2 0.182263 0.441318 0.52798
2926 2 0.142462 0.459723 0.50412
2800 2 0.417286 0.492868 0.516182
2801 4 0.399026 0.495521 0.531991
432 4 0.454877 0.420589 0.539582
1947 4 0.445358 0.46067 0.535961
430 2 0.457114 0.424212 0.514861
1945 2 0.463395 0.475773 0.551275
1946 4 0.481432 0.490876 0.566589
1910 4 0.478131 0.503216 0.582028
340 2 0.19819 0.0016845 0.667078
3870 4 0.268504 0.0208376 0.644774
3868 2 0.282777 0.0401729 0.658738
771 4 0.390752 0.0110572 0.634695
3313 2 0.475651 0.0676179 0.634937
3315 4 0.489605 0.0603623 0.652272
3314 4 0.461697 0.0748736 0.617602
457 2 0.0122001 0.121407 0.634136
459 4 0.0264658 0.145531 0.63108
939 4 0.0668169 0.149639 0.661014
466 2 0.0773133 0.146124 0.585265
937 2 0.0914734 0.164246 0.655548
97 3 0.0397611 0.159472 0.657002
467 4 0.101272 0.155695 0.595699
1269 4 0.112652 0.143747 0.590702
1268 4 0.146289 0.122048 0.608864
1267 2 0.129471 0.132897 0.599783
4182 4 0.158402 0.113954 0.598316
4180 2 0.184118 0.12419 0.59279
4181 4 0.209834 0.134426 0.587264
2241 4 0.339285 0.148271 0.613901
2568 4 0.345297 0.133336 0.61823
2566 2 0.357348 0.117158 0.625279
2567 4 0.369399 0.100979 0.632329
2078 4 0.47489 0.140249 0.645222
879 4 0.478626 0.144433 0.664674
2077 2 0.479291 0.132156 0.622698
2079 4 0.483692 0.124063 0.600173
321 4 0.494617 0.131818 0.583569
98 3 0.010248 0.173398 0.650982
3197 4 0.110961 0.239103 0.655453
3196 2 0.114864 0.217975 0.648301
3198 4 0.118766 0.196847 0.641149
938 4 0.11613 0.178852 0.650083
3191 4 0.247704 0.226451 0.597206
3190 2 0.26705 0.216615 0.60023
2853 4 0.263751 0.170681 0.657996
3192 4 0.286395 0.206779 0.603253
2852 4 0.289246 0.19535 0.617898
2851 2 0.276498 0.183016 0.637947
2240 4 0.340166 0.188249 0.640931
2239 2 0.339725 0.16826 0.627416
2264 4 0.110622 0.258517 0.655682
2263 2 0.0859778 0.251224 0.664846
2172 4 0.193436 0.287263 0.628922
2170 2 0.198281 0.297992 0.651481
2175 4 0.21116 0.285267 0.620621
1952 4 0.265777 0.314342 0.586041
2174 4 0.260514 0.302604 0.60255
2173 2 0.235837 0.293936 0.611585
3176 4 0.0215259 0.367445 0.592003
944 4 0.0135909 0.367204 0.610721
4112 4 0.0595203 0.335147 0.652584
1017 4 0.0861563 0.365967 0.608376
2684 4 0.105342 0.403073 0.642362
3537 4 0.0793863 0.334001 0.656105
3535 2 0.095964 0.354756 0.645727
3536 4 0.112542 0.375512 0.63535
1326 4 0.215563 0.398287 0.631839
2310 4 0.234972 0.405046 0.640301
1324 2 0.206599 0.412368 0.616545
3153 4 0.438423 0.404048 0.586087
3151 2 0.445281 0.410603 0.60978
2858 4 0.459632 0.406039 0.645498
2857 2 0.484716 0.411157 0.653011
2155 2 0.0166693 0.449391 0.623412
2156 4 0.0374957 0.446609 0.635336
1167 4 0.0515663 0.449525 0.650449
1165 2 0.0752176 0.46306 0.659629
2683 2 0.118974 0.420086 0.625724
2685 4 0.132607 0.437099 0.609087
902 4 0.189266 0.430518 0.584005
903 4 0.153564 0.445989 0.607895
901 2 0.171415 0.438254 0.59595
2215 2 0.206151 0.497992 0.614303
1325 4 0.197636 0.426449 0.60125
2216 4 0.184568 0.491276 0.628801
3737 4 0.167297 0.497442 0.625399
2308 2 0.253231 0.422312 0.653637
1140 4 0.436638 0.468377 0.627024
1138 2 0.428773 0.461016 0.650327
1911 4 0.45208 0.48573 0.624429
1909 2 0.465106 0.494473 0.603229
3152 4 0.45214 0.417159 0.633474
4061 4 0.500082 0.50032 0.653408
341 4 0.220823 0.0152974 0.678059
4162 2 0.288646 0.0808311 0.704898
4163 4 0.290608 0.0745655 0.681051
3869 4 0.29705 0.0595081 0.672703
2075 4 0.284186 0.00600576 0.739151
3579 4 0.306072 0.00993736 0.735371
3002 4 0.474807 0.0541672 0.710003
3001 2 0.487764 0.0379312 0.70624
99 3 0.00636117 0.146531 0.677291
96 1 0.0219976 0.165319 0.667127
1184 4 0.0339517 0.16249 0.745233
821 4 0.187615 0.118252 0.734059
820 2 0.193945 0.138783 0.748304
2831 4 0.204938 0.167118 0.708034
4164 4 0.286684 0.0870967 0.728744
636 4 0.284712 0.0895939 0.750103
3364 2 0.0192584 0.228263 0.676136
100 3 0.0316473 0.181418 0.682727
1183 2 0.0333192 0.174391 0.723773
3366 4 0.0437664 0.23829 0.685286
1185 4 0.0326866 0.186293 0.702313
2265 4 0.0613339 0.24393 0.67401
2832 4 0.161464 0.180422 0.705362
2830 2 0.183201 0.17377 0.706698
857 4 0.226018 0.177612 0.707774
856 2 0.245803 0.176925 0.692818
858 4 0.265588 0.176239 0.677861
993 4 0.0089891 0.312578 0.683815
4113 4 0.0239959 0.329513 0.689234
2627 4 0.00903679 0.266187 0.733194
3477 4 0.0256758 0.277541 0.723548
4111 2 0.0417581 0.33233 0.670909
3475 2 0.0478597 0.276494 0.712798
3476 4 0.0700435 0.275448 0.702047
2498 4 0.0846358 0.288322 0.714084
2497 2 0.109625 0.297761 0.705971
2499 4 0.134614 0.3072 0.697858
1206 4 0.143088 0.3219 0.68366
1204 2 0.167054 0.319327 0.68416
1205 4 0.191019 0.316754 0.684661
2171 4 0.203126 0.308722 0.674039
897 4 0.318686 0.317937 0.735303
895 2 0.344513 0.321915 0.73179
896 4 0.37034 0.325893 0.728278
3640 2 0.262802 0.408263 0.737522
3641 4 0.244937 0.388029 0.747498
1208 4 0.319005 0.335825 0.743327
1905 4 0.379612 0.345105 0.735899
3297 4 0.388857 0.4054 0.743767
1903 2 0.405669 0.349297 0.734178
1904 4 0.431726 0.353489 0.732458
3338 4 0.4493 0.352861 0.723719
3337 2 0.475686 0.359048 0.723185
4483 2 0.0320482 0.436714 0.714761
4485 4 0.00799533 0.434505 0.705909
7 3 0.000379911 0.480737 0.671689
2434 2 0.0618309 0.50049 0.698692
1166 4 0.098869 0.476594 0.66881
888 4 0.11981 0.484787 0.670615
886 2 0.132283 0.492162 0.692363
4348 2 0.0861201 0.439298 0.747648
4349 4 0.0759077 0.443163 0.725819
4484 4 0.056101 0.438923 0.723613
2436 4 0.0768111 0.489446 0.710858
2309 4 0.27149 0.439577 0.666973
3642 4 0.280667 0.428498 0.727547
1213 2 0.327055 0.442805 0.732628
1214 4 0.300629 0.435451 0.734118
1215 4 0.35348 0.450158 0.731139
3296 4 0.369078 0.442376 0.735839
3295 2 0.378968 0.423888 0.739803
1139 4 0.420908 0.453654 0.67363
4250 4 0.440239 0.466205 0.679737
4249 2 0.453645 0.465115 0.700568
4251 4 0.467051 0.464026 0.721398
845 4 0.0613969 0.0659028 0.823701
2598 4 0.149281 0.078567 0.82704
1995 4 0.104338 0.999874 0.776641
2074 2 0.262141 0.00670295 0.750461
2076 4 0.240097 0.00740014 0.761772
2091 4 0.274168 0.0363155 0.791478
635 4 0.278929 0.0558935 0.786557
634 2 0.281821 0.0727437 0.76833
3408 4 0.222006 0.00253549 0.775554
2089 2 0.285152 0.0364474 0.813962
2687 4 0.430104 0.0313456 0.834491
2321 4 0.382595 0.00459366 0.80155
450 4 0.484346 0.022612 0.793876
448 2 0.461247 0.00525094 0.788045
2688 4 0.479769 0.0492662 0.817265
2686 2 0.454937 0.0403059 0.825878
1305 4 0.483022 0.0663267 0.82702
3079 2 0.117815 0.161279 0.79916
3081 4 0.134837 0.153869 0.812779
2596 2 0.16975 0.0901922 0.812172
4028 4 0.209985 0.156985 0.779208
822 4 0.200274 0.159314 0.76255
4029 4 0.222561 0.143678 0.824227
4027 2 0.216273 0.150332 0.801717
2597 4 0.190219 0.101817 0.797304
1073 4 0.240351 0.157206 0.831422
1072 2 0.265819 0.158824 0.832989
2343 4 0.333296 0.11684 0.807652
2341 2 0.346702 0.132783 0.825252
3080 4 0.100792 0.168689 0.785541
2063 4 0.0550513 0.178186 0.811837
2062 2 0.0480829 0.189621 0.831178
3375 4 0.365913 0.186984 0.82592
3374 4 0.414763 0.206561 0.807114
3373 2 0.390338 0.196773 0.816517
2789 4 0.352251 0.196694 0.826244
471 4 0.500915 0.220758 0.805608
1235 4 0.432543 0.221918 0.808906
1236 4 0.479468 0.215884 0.801177
1234 2 0.456006 0.218901 0.805041
843 4 0.00153569 0.321158 0.777246
2626 2 0.00350577 0.260426 0.75727
2711 4 0.0149527 0.282189 0.800851
2710 2 0.0406465 0.284456 0.800699
2712 4 0.0663403 0.286723 0.800547
1087 2 0.105288 0.296081 0.804712
1088 4 0.0840055 0.287163 0.790021
1089 4 0.126571 0.304999 0.819403
2638 2 0.155066 0.279229 0.831563
2639 4 0.165792 0.282928 0.808704
274 2 0.48309 0.283428 0.810054
276 4 0.457039 0.271084 0.810827
4546 2 0.016351 0.348162 0.801652
4548 4 0.00536966 0.341861 0.779102
4547 4 0.0273324 0.354463 0.824201
2649 4 0.0812475 0.35772 0.830457
950 4 0.241495 0.374802 0.76366
949 2 0.259925 0.364394 0.769111
1209 4 0.298699 0.357311 0.77889
951 4 0.278354 0.353987 0.774563
1207 2 0.308852 0.346568 0.761108
1121 4 0.403586 0.399569 0.753519
1120 2 0.426662 0.409659 0.76541
1064 4 0.470402 0.374972 0.796232
1063 2 0.494085 0.373313 0.790429
4331 4 0.00845057 0.489049 0.775781
3243 4 0.0186816 0.498519 0.790677
792 4 0.12025 0.476374 0.812052
790 2 0.118472 0.462323 0.79161
4350 4 0.0963325 0.435433 0.769477
791 4 0.116695 0.448272 0.771167
3849 4 0.12478 0.496316 0.810548
1155 4 0.160867 0.424256 0.7963
1153 2 0.181898 0.43033 0.781106
1154 4 0.20293 0.436403 0.765911
3799 2 0.245842 0.445895 0.781087
3801 4 0.222961 0.446957 0.771956
3800 4 0.268723 0.444833 0.790218
2378 4 0.283636 0.490647 0.82788
2377 2 0.306048 0.498863 0.814613
2066 4 0.28138 0.432964 0.796362
2065 2 0.295703 0.42601 0.813567
2379 4 0.328461 0.507079 0.801347
2067 4 0.310026 0.419056 0.830773
4190 4 0.343132 0.500085 0.793006
1122 4 0.449738 0.419748 0.777302
885 4 0.469599 0.421957 0.785019
883 2 0.486541 0.41735 0.768904
846 4 0.0130834 0.0606193 0.841418
844 2 0.0372402 0.063261 0.832559
4232 4 0.999897 0.0133875 0.876842
2978 4 0.130429 0.0736585 0.83509
2977 2 0.104094 0.0675568 0.833555
2979 4 0.0777588 0.0614552 0.832019
1895 4 0.237329 2.58609e-05 0.879166
2090 4 0.296136 0.0365793 0.836446
986 4 0.341454 0.0527633 0.910179
1005 4 0.340228 0.0573034 0.890826
1003 2 0.324977 0.0470146 0.87124
1004 4 0.309726 0.0367259 0.851655
1841 4 0.419203 0.00407524 0.84744
3138 4 0.00646543 0.117148 0.894338
3136 2 0.0296267 0.113741 0.889815
3137 4 0.0527879 0.110333 0.885293
3362 4 0.071836 0.108084 0.889811
3361 2 0.0973248 0.115715 0.896615
3363 4 0.122814 0.123347 0.90342
2996 4 0.139768 0.136048 0.907856
2995 2 0.165495 0.144512 0.901911
1262 4 0.217228 0.0826603 0.886799
2997 4 0.191221 0.152977 0.895966
3134 4 0.209775 0.150267 0.896099
3133 2 0.234923 0.154962 0.903219
1074 4 0.291287 0.160442 0.834556
1263 4 0.258527 0.125099 0.886183