ITEM: TIMESTEP
3108500
ITEM: NUMBER OF ATOMS
4800
ITEM: BOX BOUNDS xy xz yz pp pp pp
-9.9985700000000008e+00 9.9985700000000008e+00 0.0000000000000000e+00
-9.9985700000000008e+00 9.9985700000000008e+00 0.0000000000000000e+00
-9.9985700000000008e+00 9.9985700000000008e+00 0.0000000000000000e+00
ITEM: ATOMS id type xs ys zs
3482 4 0.0301257 0.0405831 0.0162068
3481 2 0.0518283 0.0414856 0.00382206
4769 4 0.135954 0.0505591 0.0109014
1110 4 0.143213 0.0425678 0.0274723
1108 2 0.137531 0.0536366 0.049161
4768 2 0.113311 0.0510253 0.000303697
1109 4 0.131849 0.0647054 0.0708497
4224 4 0.342307 0.0851188 0.0472465
3878 4 0.396024 0.0692148 0.0126523
880 2 0.0402697 0.155984 0.0178758
882 4 0.0466348 0.171766 0.0361958
1936 2 0.223862 0.117766 0.056898
1938 4 0.223472 0.112525 0.032453
1937 4 0.224251 0.123007 0.081343
4222 2 0.32611 0.0992243 0.0600477
4223 4 0.309913 0.11333 0.0728489
4052 4 0.396894 0.0856886 0.0705196
3879 4 0.40206 0.0961668 0.0543388
3877 2 0.399042 0.0826908 0.0334956
403 3 0.056594 0.175353 0.0534809
966 4 0.0307738 0.204931 0.0550589
401 1 0.063911 0.195712 0.0618704
404 3 0.0457128 0.208957 0.0675084
964 2 0.00945674 0.217726 0.0524041
402 3 0.0764644 0.19189 0.0807635
405 3 0.0767518 0.206346 0.0463568
3516 4 0.0857928 0.17523 0.0780534
1278 4 0.190075 0.205048 0.0375209
1276 2 0.189926 0.225587 0.0517807
1277 4 0.189776 0.246125 0.0660405
1381 2 0.239358 0.234256 0.077444
1383 4 0.24912 0.220438 0.0590334
3681 4 0.254534 0.203435 0.0693084
3679 2 0.271313 0.192503 0.0543371
2802 4 0.307299 0.176023 0.0314018
2800 2 0.306285 0.189797 0.0105582
3680 4 0.288092 0.181571 0.0393659
4094 4 0.477931 0.245343 0.0322042
3264 4 0.454221 0.199979 0.0837283
1758 4 0.0429935 0.308403 0.0691258
3312 4 0.028952 0.304715 0.0551565
3310 2 0.0228901 0.302842 0.0309711
3311 4 0.0168281 0.300968 0.00678565
3213 4 0.00891599 0.295052 0.988851
94 3 0.0799102 0.278054 0.0389284
93 3 0.0950084 0.306746 0.019098
92 3 0.117115 0.280303 0.0340885
1303 2 0.151069 0.275854 0.0289983
91 1 0.0979228 0.292584 0.0372464
1304 4 0.129163 0.264585 0.0332817
95 3 0.0998835 0.304777 0.056381
2145 4 0.116045 0.316963 0.0537505
1553 4 0.0944301 0.312971 0.00122536
1305 4 0.172974 0.287123 0.0247148
3985 2 0.199993 0.314928 0.0407296
3986 4 0.178943 0.30322 0.0340208
3987 4 0.221042 0.326636 0.0474384
3122 4 0.426587 0.330907 0.0320039
4093 2 0.472149 0.268293 0.0241393
3121 2 0.448309 0.321012 0.0245604
4095 4 0.466368 0.291244 0.0160743
3123 4 0.470032 0.311117 0.0171168
994 2 0.481274 0.329558 0.0839926
3179 4 0.082011 0.365287 0.0799241
2078 4 0.00815716 0.413506 0.0763986
2143 2 0.133953 0.334127 0.0506092
2144 4 0.151862 0.351292 0.0474679
1820 4 0.158876 0.370539 0.0451129
2412 4 0.226476 0.345832 0.0508152
1819 2 0.176985 0.386136 0.0377657
1821 4 0.195093 0.401732 0.0304185
810 4 0.209178 0.389353 0.0220167
808 2 0.228605 0.393609 0.00686095
2410 2 0.242783 0.359884 0.0635365
3752 4 0.315528 0.416747 0.0428741
3751 2 0.331658 0.399452 0.050992
1219 2 0.291219 0.390961 0.999896
2411 4 0.25909 0.373936 0.0762577
1221 4 0.316047 0.391372 0.00282679
3753 4 0.347788 0.382158 0.05911
1308 4 0.346051 0.368845 0.0738896
1307 4 0.383272 0.34061 0.0560543
1306 2 0.364661 0.354728 0.0649719
3631 2 0.409613 0.356585 0.00633687
1990 2 0.494679 0.410036 0.00913846
3633 4 0.428141 0.343436 0.0167776
1901 4 0.0172949 0.42332 0.0610401
1900 2 0.0405411 0.431008 0.0559716
1902 4 0.0637873 0.438696 0.0509032
2358 4 0.0767565 0.450465 0.0404701
867 4 0.0148781 0.444208 0.998195
866 4 0.998961 0.464214 0.0411733
865 2 0.00691959 0.454211 0.0196842
2356 2 0.0887335 0.472119 0.0368805
2357 4 0.10071 0.493772 0.0332909
752 4 0.119779 0.498701 0.0297217
3442 2 0.325317 0.457464 0.0539706
3443 4 0.316294 0.438006 0.0411193
3444 4 0.334341 0.476922 0.066822
3936 4 0.335621 0.498346 0.0703436
1991 4 0.500488 0.423552 0.029356
791 4 0.465109 0.457217 0.048708
790 2 0.44787 0.474338 0.0546126
792 4 0.43063 0.491459 0.0605173
1778 4 0.00786092 0.0168229 0.123091
1777 2 0.0206165 0.995879 0.127976
1031 4 0.0994956 0.0181122 0.146797
2922 4 0.116189 0.0650699 0.083305
2920 2 0.125535 0.0798382 0.101187
1836 4 0.113747 0.0219196 0.161366
3849 4 0.201512 0.0615668 0.143389
983 4 0.186593 0.0717051 0.153921
3847 2 0.215595 0.0464995 0.157524
4051 2 0.413543 0.0811987 0.0886255
2868 4 0.442981 0.0710872 0.120545
4053 4 0.430193 0.0767088 0.106731
982 2 0.169703 0.085282 0.141447
2886 4 0.112704 0.12183 0.153875
219 3 0.135802 0.141279 0.111525
217 3 0.123076 0.136034 0.146499
216 1 0.133495 0.125848 0.1287
2921 4 0.13488 0.0946065 0.119068
218 3 0.120486 0.10799 0.121609
220 3 0.153994 0.118405 0.135264
984 4 0.152813 0.0988588 0.128974
3515 4 0.12399 0.156591 0.104405
3514 2 0.104891 0.16591 0.0912292
2952 4 0.231421 0.134073 0.0955521
2950 2 0.221764 0.140813 0.117609
2951 4 0.212107 0.147554 0.139666
2850 4 0.219876 0.165566 0.141138
3102 4 0.292698 0.177291 0.168887
2866 2 0.447571 0.0933109 0.131043
2867 4 0.452161 0.115535 0.141542
4329 4 0.45264 0.112914 0.16248
2836 2 0.00722775 0.19633 0.123321
2838 4 0.0241386 0.214097 0.128175
2848 2 0.210422 0.18846 0.144562
1117 2 0.21274 0.245476 0.126912
1119 4 0.204774 0.230421 0.145216
2849 4 0.200968 0.211353 0.147985
4425 4 0.310094 0.209022 0.116461
3101 4 0.295215 0.207485 0.129104
4423 2 0.305489 0.232437 0.108995
3100 2 0.293957 0.192388 0.148995
3263 4 0.406582 0.185435 0.0881655
754 2 0.373927 0.212289 0.137913
755 4 0.383586 0.207999 0.160573
756 4 0.364268 0.216579 0.115252
3262 2 0.430401 0.192707 0.0859469
1362 4 0.45989 0.200715 0.102729
1360 2 0.470122 0.202505 0.125473
1361 4 0.480354 0.204296 0.148217
359 3 0.477157 0.196342 0.166441
1756 2 0.0341909 0.301139 0.0913732
4188 4 0.00890778 0.285559 0.151328
1757 4 0.0253882 0.293874 0.11362
4186 2 0.0310064 0.274178 0.154031
4187 4 0.053105 0.262797 0.156733
2993 4 0.0833051 0.308925 0.110449
2994 4 0.0972388 0.262071 0.0999043
2992 2 0.090272 0.285498 0.105177
3180 4 0.0747556 0.32692 0.111167
1118 4 0.220707 0.260531 0.108608
1382 4 0.229595 0.248075 0.0958545
569 3 0.25132 0.3085 0.140615
566 1 0.254887 0.320078 0.160405
567 3 0.234595 0.323916 0.170537
2963 4 0.265898 0.294066 0.138683
2962 2 0.277703 0.283011 0.119615
4424 4 0.300883 0.255851 0.10153
2964 4 0.289509 0.271957 0.100546
4353 4 0.369371 0.292677 0.163604
1130 4 0.379605 0.301139 0.149514
1129 2 0.398563 0.311431 0.136872
1131 4 0.417522 0.321723 0.12423
4199 4 0.418382 0.338839 0.133598
3178 2 0.0783833 0.346103 0.0955456
570 3 0.264976 0.340021 0.15603
3527 4 0.264063 0.355446 0.143124
3526 2 0.263988 0.360957 0.118735
3528 4 0.263913 0.366468 0.0943456
996 4 0.465321 0.335474 0.102316
4198 2 0.43972 0.35143 0.136964
263 3 0.472755 0.373124 0.153611
261 1 0.487423 0.391033 0.152023
4200 4 0.461059 0.364022 0.14033
264 3 0.476339 0.409636 0.143688
3502 2 0.0578687 0.498051 0.120873
3503 4 0.0674341 0.497671 0.0977742
434 3 0.284633 0.424823 0.143822
4294 2 0.382789 0.487119 0.145448
4295 4 0.372163 0.484518 0.122965
4070 4 0.404453 0.47375 0.172293
3903 4 0.477616 0.429417 0.142284
3901 2 0.482732 0.453851 0.143703
3902 4 0.487847 0.478284 0.145122
1834 2 0.129034 0.0328895 0.177833
1835 4 0.144321 0.0438594 0.1943
2949 4 0.151899 0.0607376 0.18739
2947 2 0.161048 0.0747078 0.205999
3848 4 0.229679 0.0314322 0.17166
1637 4 0.218986 0.0286504 0.189239
1636 2 0.234793 0.0227922 0.207705
1638 4 0.250601 0.016934 0.22617
4547 4 0.244843 0.0218565 0.245331
1053 4 0.418894 0.00724629 0.216859
4576 2 0.357233 0.0643188 0.217115
4577 4 0.36472 0.0413156 0.223438
1052 4 0.377462 0.0306533 0.23223
1051 2 0.398178 0.0189498 0.224545
4578 4 0.349746 0.087322 0.210793
3084 4 0.428949 0.00428532 0.234704
2885 4 0.0873955 0.136124 0.194568
2884 2 0.10005 0.128977 0.174221
781 2 0.126848 0.146854 0.229772
782 4 0.136763 0.145978 0.206835
4245 4 0.152972 0.15486 0.209286
1166 4 0.169692 0.0986692 0.241983
783 4 0.116933 0.14773 0.25271
2948 4 0.170198 0.088678 0.224608
4243 2 0.177084 0.154492 0.20268
4244 4 0.201197 0.154124 0.196073
3725 4 0.238117 0.103933 0.217297
3724 2 0.220108 0.120764 0.21311
3726 4 0.202098 0.137596 0.208923
2972 4 0.251991 0.113933 0.227356
2971 2 0.276646 0.116643 0.224198
925 2 0.311317 0.147952 0.192086
927 4 0.31401 0.130805 0.210084
2973 4 0.301301 0.119354 0.221041
926 4 0.308623 0.165099 0.174089
4327 2 0.455074 0.110918 0.187286
377 3 0.472875 0.120188 0.217397
4328 4 0.457508 0.108922 0.212091
376 1 0.485567 0.128925 0.234477
380 3 0.484847 0.151665 0.233482
2183 4 0.0487019 0.20069 0.197489
2182 2 0.0725216 0.203092 0.190274
3459 4 0.156876 0.244353 0.163421
3843 4 0.156958 0.228397 0.174614
2184 4 0.0963413 0.205494 0.183059
3841 2 0.133724 0.223227 0.182273
3842 4 0.11049 0.218058 0.189932
3002 4 0.39299 0.203375 0.177683
3001 2 0.413592 0.216578 0.182822
3003 4 0.434194 0.229782 0.187961
358 3 0.451281 0.220846 0.179645
357 3 0.487663 0.225314 0.187956
356 1 0.471102 0.209753 0.184382
360 3 0.468602 0.197025 0.203101
2271 4 0.459271 0.200135 0.22034
2269 2 0.467329 0.192723 0.242819
450 3 0.00486003 0.282017 0.219187
4024 2 0.026073 0.311753 0.212998
4026 4 0.00311171 0.302488 0.216479
4025 4 0.0490342 0.321019 0.209516
1967 4 0.121806 0.276864 0.168046
1966 2 0.119349 0.291775 0.187966
4708 2 0.152717 0.301687 0.243982
1968 4 0.116892 0.306685 0.207887
3215 4 0.114155 0.325104 0.21609
3457 2 0.173675 0.261715 0.169868
3458 4 0.190474 0.279076 0.176315
4709 4 0.173357 0.307258 0.231016
3234 4 0.1838 0.306323 0.214345
3232 2 0.201162 0.311439 0.197095
3233 4 0.218524 0.316555 0.179844
568 3 0.268135 0.307467 0.174683
4076 4 0.284282 0.295299 0.181644
4075 2 0.277871 0.293746 0.205762
4077 4 0.27146 0.292193 0.22988
884 4 0.283614 0.280189 0.241111
4352 4 0.334134 0.306802 0.196155
4351 2 0.351753 0.29974 0.17988
75 3 0.400127 0.338462 0.204098
3141 4 0.498456 0.261266 0.236353
3139 2 0.476861 0.255339 0.247475
3216 4 0.0645833 0.331607 0.217142
1197 4 0.0150223 0.376738 0.247383
3214 2 0.0893691 0.328356 0.216616
1734 4 0.261117 0.402605 0.188706
1732 2 0.261184 0.387435 0.208582
2825 4 0.300098 0.33725 0.227107
2824 2 0.324775 0.341215 0.226372
1733 4 0.26125 0.372266 0.228459
29 3 0.259518 0.377242 0.24798
2826 4 0.349452 0.345179 0.225637
71 1 0.386657 0.347099 0.220303
73 3 0.364699 0.347749 0.212831
74 3 0.393744 0.368464 0.225932
4235 4 0.40267 0.361735 0.24259
72 3 0.38776 0.333733 0.238992
262 3 0.495457 0.395949 0.17301
371 1 0.471694 0.402344 0.254741
372 3 0.485837 0.402773 0.236604
4234 2 0.418284 0.379265 0.251196
374 3 0.449786 0.401452 0.247149
4236 4 0.433897 0.396796 0.259803
435 3 0.30172 0.431196 0.176762
431 1 0.281691 0.431249 0.165922
432 3 0.272884 0.452495 0.166379
433 3 0.266936 0.416784 0.176481
2700 4 0.31621 0.443281 0.180229
4296 4 0.393415 0.489719 0.167931
2698 2 0.337808 0.441614 0.192717
2699 4 0.359406 0.439947 0.205205
4283 4 0.355534 0.447834 0.222278
4282 2 0.377146 0.450361 0.234596
4284 4 0.398759 0.452888 0.246913
4069 2 0.426656 0.462333 0.170925
1847 4 0.472999 0.413456 0.223605
4071 4 0.448859 0.450916 0.169557
1846 2 0.463458 0.426248 0.204357
1848 4 0.453916 0.439041 0.185109
1879 2 0.435772 0.461836 0.239468
1881 4 0.457491 0.456599 0.228241
83 3 0.0457408 0.0375571 0.262229
84 3 0.0695179 0.00790897 0.262262
3163 2 0.0161418 0.00706611 0.304978
3165 4 0.0400744 0.0113514 0.299142
85 3 0.0574731 0.0226445 0.294749
81 1 0.0634282 0.0273961 0.273288
4173 4 0.0839717 0.0544235 0.258416
82 3 0.0813734 0.041788 0.273414
4172 4 0.128678 0.0689198 0.275503
4171 2 0.106325 0.0616717 0.26696
1167 4 0.177119 0.09339 0.291153
4546 2 0.262095 0.00511317 0.252204
3142 2 0.44365 0.0246653 0.310011
3144 4 0.444891 0.0409952 0.328905
799 2 0.47761 0.070826 0.323706
3143 4 0.442409 0.00833541 0.291117
604 3 0.038896 0.15554 0.305692
1893 4 0.0821764 0.157783 0.297858
1892 4 0.100003 0.137237 0.255895
1891 2 0.0910898 0.14751 0.276876
438 3 0.174125 0.123094 0.334181
437 3 0.15718 0.0899706 0.339506
440 3 0.180885 0.0942097 0.310993
436 1 0.176647 0.100083 0.332585
1165 2 0.173405 0.0960296 0.266568
439 3 0.194024 0.0930527 0.346259
793 2 0.30536 0.152863 0.281277
795 4 0.280594 0.152812 0.284714
794 4 0.330126 0.152913 0.27784
378 3 0.476936 0.121609 0.254735
605 3 0.0713726 0.17423 0.302003
601 1 0.0533334 0.17084 0.315484
602 3 0.0422011 0.190758 0.318396
603 3 0.0602869 0.163033 0.3362
4479 4 0.309205 0.21561 0.304079
3005 4 0.299527 0.20484 0.317424
4477 2 0.328335 0.201107 0.297086
1696 2 0.382742 0.206948 0.28385
1698 4 0.364157 0.195637 0.296171
4478 4 0.347464 0.186604 0.290093
1697 4 0.401328 0.218259 0.271528
578 3 0.411553 0.235473 0.276637
2270 4 0.475388 0.185312 0.265298
408 3 0.491852 0.184228 0.276499
3134 4 0.0152711 0.289904 0.296619
1170 4 0.0312606 0.28419 0.287037
1168 2 0.0462393 0.304191 0.287928
1169 4 0.061218 0.324192 0.28882
3914 4 0.0769067 0.330471 0.277024
4710 4 0.132076 0.296116 0.256948
3915 4 0.12152 0.309283 0.269184
3913 2 0.0992134 0.319877 0.273104
1784 4 0.229876 0.279443 0.328149
1785 4 0.223836 0.253046 0.286108
1783 2 0.226856 0.266244 0.307129
2934 4 0.251096 0.311642 0.30913
885 4 0.262914 0.270019 0.285483
883 2 0.273264 0.275104 0.263297
1671 4 0.315541 0.309363 0.308969
1669 2 0.303454 0.300385 0.328932
2969 4 0.419162 0.252632 0.315621
2968 2 0.401171 0.251584 0.332953
1158 4 0.412603 0.314219 0.289352
1156 2 0.407338 0.329195 0.270034
577 3 0.405331 0.271347 0.26731
576 1 0.419839 0.257099 0.278064
3140 4 0.455265 0.249411 0.258597
579 3 0.440587 0.25833 0.267747
580 3 0.42164 0.263305 0.299902
777 4 0.488586 0.319227 0.280622
1195 2 0.0378692 0.377386 0.257522
1196 4 0.060716 0.378034 0.26766
2238 4 0.0657563 0.371856 0.286932
2236 2 0.0877647 0.382082 0.28091
2237 4 0.109773 0.392308 0.274889
2218 2 0.148805 0.391996 0.293933
2220 4 0.126001 0.387487 0.284722
2219 4 0.171609 0.396504 0.303143
2932 2 0.249922 0.333796 0.297598
3937 2 0.210672 0.379796 0.292026
3938 4 0.23342 0.370798 0.286854
28 3 0.238845 0.387448 0.278193
3939 4 0.187923 0.388793 0.297198
2933 4 0.248748 0.35595 0.286065
26 1 0.259989 0.38139 0.270805
30 3 0.267087 0.362829 0.281931
27 3 0.274549 0.398718 0.274915
1157 4 0.402072 0.344171 0.250716
375 3 0.476285 0.383979 0.2674
776 4 0.469964 0.364228 0.269267
775 2 0.479275 0.341727 0.274945
3474 4 0.199971 0.475396 0.322594
1880 4 0.414052 0.467073 0.250694
890 4 0.36903 0.428958 0.324359
2246 4 0.329955 0.478585 0.314344
373 3 0.474962 0.421606 0.267258
1082 4 0.48149 0.428734 0.284602
3971 4 0.0360281 0.000898581 0.386041
3099 4 0.0487845 0.0159026 0.384038
3097 2 0.0735111 0.0138199 0.387114
909 4 0.140261 0.0124013 0.355021
3098 4 0.0982376 0.0117372 0.390189
907 2 0.156299 0.0301393 0.362325
2723 4 0.1655 0.0512823 0.38776
908 4 0.172337 0.0478772 0.369629
2722 2 0.185367 0.0637345 0.396445
2724 4 0.205234 0.0761866 0.40513
3106 2 0.286349 0.0212398 0.398875
3108 4 0.280212 0.0430648 0.409421
800 4 0.462886 0.0511185 0.328178
301 1 0.483182 0.013461 0.37782
303 3 0.504104 0.0232795 0.379887
304 3 0.466771 0.028189 0.385044
302 3 0.479465 0.00846651 0.355675
1471 2 0.217271 0.114803 0.396768
1473 4 0.225341 0.138138 0.400706
1472 4 0.209201 0.0914674 0.392829
396 1 0.32575 0.153869 0.384299
397 3 0.320542 0.158605 0.406199
398 3 0.309852 0.139261 0.375798
400 3 0.346386 0.144277 0.383401
2000 4 0.0704068 0.174973 0.34794
1999 2 0.0626454 0.18993 0.366412
2001 4 0.054884 0.204887 0.384884
870 4 0.0509549 0.208551 0.404097
1355 4 0.243056 0.230761 0.390042
1799 4 0.226579 0.237903 0.38306
399 3 0.325668 0.173625 0.372129
1354 2 0.264526 0.218616 0.385955
1356 4 0.285996 0.206472 0.381867
3006 4 0.293835 0.217829 0.365379
3004 2 0.296681 0.211334 0.341402
2970 4 0.38318 0.250536 0.350286
3775 2 0.153298 0.28998 0.38644
3776 4 0.162461 0.301123 0.366018
4305 4 0.164625 0.319228 0.355017
3777 4 0.144135 0.278837 0.406862
1800 4 0.230515 0.271892 0.346591
1798 2 0.228547 0.254897 0.364826
1670 4 0.291368 0.291407 0.348894
1855 2 0.301609 0.322269 0.382318
1857 4 0.323581 0.313211 0.374546
1140 4 0.327161 0.273504 0.376434
1139 4 0.363623 0.248763 0.352788
1138 2 0.345392 0.261133 0.364611
875 4 0.340055 0.323579 0.371848
4303 2 0.180592 0.33537 0.365488
4304 4 0.19656 0.351511 0.375959
3433 2 0.239111 0.34295 0.381402
3434 4 0.214298 0.346025 0.381661
3980 4 0.204283 0.403109 0.415727
9 3 0.211094 0.41562 0.40161
8 3 0.24619 0.404311 0.410817
1856 4 0.279638 0.331327 0.39009
3435 4 0.263924 0.339876 0.381143
874 2 0.359993 0.335668 0.380877
2263 2 0.400452 0.381094 0.370798
2265 4 0.382883 0.364739 0.377802
876 4 0.379932 0.347757 0.389906
2264 4 0.418021 0.397449 0.363794
914 4 0.197773 0.495734 0.388351
3472 2 0.199199 0.48615 0.345154
10 3 0.238711 0.440869 0.405791
913 2 0.197076 0.49942 0.413072
6 1 0.230351 0.421078 0.413348
2846 4 0.269142 0.502057 0.347445
2847 4 0.264936 0.455649 0.36559
2845 2 0.267039 0.478853 0.356517
4253 4 0.271834 0.459425 0.384603
4252 2 0.283169 0.442894 0.399551
889 2 0.3649 0.445886 0.342292
4126 2 0.371517 0.453269 0.401365
891 4 0.360769 0.462814 0.360225
4128 4 0.362644 0.454173 0.378006
3297 4 0.482352 0.467232 0.388744
832 2 0.459401 0.44446 0.41126
834 4 0.467126 0.454539 0.389721
2654 4 0.0282687 0.998497 0.498717
1480 2 0.0841885 0.0478439 0.440628
2906 4 0.0593374 0.0177306 0.459269
1481 4 0.0720061 0.0266078 0.445708
1482 4 0.096371 0.0690801 0.435549
3545 4 0.144672 0.00591701 0.453889
1536 4 0.199465 0.0171083 0.469402
3686 4 0.243872 0.0451304 0.489998
1534 2 0.212291 0.0335471 0.483202
1535 4 0.225117 0.0499858 0.497003
3260 4 0.281044 0.0595968 0.423034
3259 2 0.29058 0.0821561 0.428068
3685 2 0.266917 0.0456782 0.480315
1978 2 0.319779 0.0494219 0.469112
1979 4 0.299982 0.0508058 0.453902
3687 4 0.289963 0.0462259 0.470632
930 4 0.392069 0.0697058 0.430841
1980 4 0.339576 0.0480381 0.484323
928 2 0.397912 0.0500616 0.445164
993 4 0.387272 0.0188467 0.460578
929 4 0.403756 0.0304173 0.459486
89 3 0.340682 0.0652803 0.492734
991 2 0.385391 0.996878 0.472368
3225 4 0.00864521 0.0723923 0.433855
3223 2 0.0324497 0.0800407 0.433667
3224 4 0.0562541 0.087689 0.43348
3975 4 0.0185413 0.121263 0.466179
3711 4 0.320042 0.165098 0.424423
3261 4 0.300116 0.104715 0.433101
2213 4 0.291222 0.122179 0.428611
2212 2 0.274581 0.140788 0.430017
2214 4 0.257941 0.159398 0.431422
815 4 0.00799457 0.182728 0.450128
869 4 0.017018 0.193963 0.437805
868 2 0.0339864 0.201257 0.420951
212 3 0.230298 0.199396 0.433486
214 3 0.232225 0.187135 0.468963
211 1 0.244676 0.193406 0.450414
215 3 0.257591 0.175981 0.443471
2150 4 0.257354 0.229588 0.460092
213 3 0.258085 0.211603 0.455657
2149 2 0.277086 0.228671 0.47542
1076 4 0.306119 0.239896 0.461186
3709 2 0.339725 0.179199 0.43066
3282 4 0.363434 0.191666 0.456105
3710 4 0.359409 0.193301 0.436897
3280 2 0.35857 0.206981 0.475262
3281 4 0.353706 0.222296 0.494418
63 3 0.136728 0.267971 0.462523
65 3 0.143231 0.272002 0.425655
64 3 0.149015 0.301186 0.44873
61 1 0.150091 0.278116 0.446493
3354 4 0.218625 0.303669 0.432605
62 3 0.171857 0.271352 0.449593
3353 4 0.190896 0.264348 0.446234
3352 2 0.20476 0.284008 0.439419
1075 2 0.32776 0.248759 0.452336
2559 4 0.29381 0.325908 0.49167
1077 4 0.349401 0.257622 0.443487
1703 4 0.364843 0.26837 0.447069
1702 2 0.378611 0.28742 0.455598
1704 4 0.392378 0.306471 0.464126
3062 4 0.384586 0.323529 0.473593
3356 4 0.0120974 0.409779 0.472179
3355 2 0.0077677 0.398015 0.493814
3981 4 0.159682 0.380793 0.419413
3979 2 0.181982 0.391951 0.41757
3061 2 0.389326 0.346549 0.482126
3063 4 0.394066 0.36957 0.490658
1103 4 0.485862 0.419283 0.488995
4436 4 0.0925027 0.442817 0.484196
4560 4 0.2007 0.494969 0.45487
7 3 0.225142 0.423079 0.435663
1743 4 0.236201 0.44033 0.436514
4558 2 0.19238 0.500505 0.47779
1741 2 0.245116 0.449571 0.457969
3229 2 0.316684 0.453612 0.44117
4254 4 0.294505 0.426364 0.414498
4362 4 0.26746 0.459425 0.493371
3230 4 0.306568 0.435491 0.427225
1742 4 0.254031 0.458811 0.479423
4628 4 0.31999 0.422898 0.509909
4127 4 0.380391 0.452365 0.424723
3231 4 0.3268 0.471734 0.455114
833 4 0.451676 0.434382 0.432799
1007 4 0.459231 0.479326 0.479505
1102 2 0.503797 0.43515 0.496191
1008 4 0.443327 0.446729 0.445077
1006 2 0.451279 0.463028 0.462291
147 3 0.0653514 0.0484248 0.554081
3395 4 0.0173483 0.0489586 0.53456
2655 4 0.0315753 0.041981 0.523191
2653 2 0.029922 0.0202391 0.510954
3394 2 0.00593252 0.0592995 0.554256
146 1 0.0822367 0.0390358 0.566566
2538 4 0.100546 0.00358403 0.557835
148 3 0.0854401 0.0171396 0.559586
149 3 0.101665 0.0513028 0.563334
565 3 0.142598 0.0639704 0.51946
561 1 0.158884 0.048172 0.521409
4784 4 0.108098 0.0650092 0.57802
562 3 0.165072 0.0463546 0.543489
564 3 0.150902 0.0276329 0.514141
4542 4 0.172162 0.0313683 0.555359
4540 2 0.179096 0.0206662 0.576867
563 3 0.177432 0.0543369 0.508903
3251 4 0.239382 0.00153423 0.562469
3480 4 0.250475 0.994599 0.578013
2995 2 0.296149 0.0484325 0.538154
2997 4 0.284603 0.0322305 0.553299
2996 4 0.307694 0.0646345 0.523008
88 3 0.360298 0.0761043 0.523434
848 4 0.50672 0.0585644 0.508499
2437 2 0.010082 0.141807 0.583004
2439 4 0.0159199 0.163434 0.571898
4783 2 0.112314 0.0860586 0.565201
4780 2 0.12651 0.130475 0.534212
4781 4 0.140038 0.151489 0.534993
4785 4 0.11653 0.107108 0.552381
4782 4 0.112983 0.109462 0.533431
87 3 0.322723 0.0769431 0.523623
86 1 0.341402 0.0801 0.510574
90 3 0.341635 0.101529 0.502869
4523 4 0.406527 0.0763742 0.568215
3328 2 0.0284138 0.181659 0.508038
3329 4 0.0468723 0.16745 0.498952
3378 4 0.294463 0.222757 0.509649
3376 2 0.319429 0.223237 0.510952
2151 4 0.296819 0.227754 0.490748
3377 4 0.344394 0.223717 0.512255
734 3 0.124383 0.40283 0.576988
163 3 0.242503 0.40703 0.524678
161 1 0.262225 0.396023 0.529998
162 3 0.263432 0.37659 0.517749
165 3 0.280091 0.409205 0.524931
2859 4 0.276809 0.383221 0.563794
2557 2 0.284118 0.343392 0.506689
2558 4 0.274426 0.360875 0.521709
164 3 0.262475 0.390685 0.552578
4437 4 0.0673236 0.46431 0.521676
4435 2 0.0799131 0.453564 0.502936
1238 4 0.0693273 0.482533 0.527681
1237 2 0.0805661 0.496858 0.544817
3425 4 0.136753 0.479979 0.523478
3424 2 0.156733 0.470298 0.534978
2067 4 0.130003 0.493873 0.51033
1239 4 0.091805 0.511184 0.561953
3359 4 0.22893 0.414692 0.537168
3426 4 0.176713 0.460616 0.546478
3358 2 0.211205 0.43203 0.540393
3360 4 0.19348 0.449368 0.543618
4361 4 0.312498 0.440222 0.503549
4360 2 0.289979 0.449823 0.49846
4627 2 0.339741 0.42091 0.525112
4629 4 0.359492 0.418922 0.540314
3048 4 0.469794 0.420625 0.502384
3047 4 0.433317 0.437005 0.532415
3046 2 0.451556 0.428815 0.5174
4508 4 0.47895 0.485502 0.570119
4439 4 0.465587 0.471958 0.579241
2957 4 0.0677396 0.0269814 0.602303
150 3 0.0763867 0.0394004 0.588572
2956 2 0.065257 0.00211273 0.601541
757 2 0.170532 0.0130876 0.637659
3363 4 0.131486 0.060432 0.662176
759 4 0.157036 0.0193073 0.657768
4541 4 0.186029 0.00996413 0.598375
758 4 0.184029 0.00686795 0.617551
3183 4 0.235286 0.0362414 0.616406
3181 2 0.229718 0.0593614 0.62413
3478 2 0.236827 0.00796943 0.594142
3479 4 0.223179 0.0213397 0.610271
3707 4 0.317938 0.00181897 0.666308
343 3 0.341971 0.0570739 0.651159
4522 2 0.418358 0.0565436 0.577805
3678 4 0.363028 0.999828 0.620966
4524 4 0.430189 0.036713 0.587394
3346 2 0.469664 0.00455216 0.607654
3348 4 0.491297 0.0112776 0.597073
2987 4 0.433121 0.0198135 0.659109
3713 4 0.490424 0.0305515 0.60283
2438 4 0.00424408 0.12018 0.594111
2267 4 0.125554 0.077724 0.651306
3182 4 0.224151 0.0824814 0.631854
1334 4 0.222063 0.101053 0.625659
1333 2 0.205609 0.112303 0.610563
1335 4 0.189155 0.123553 0.595466
345 3 0.32143 0.0862102 0.663277
1300 2 0.319669 0.121776 0.650978
1302 4 0.326157 0.139177 0.634236
3660 4 0.336798 0.156399 0.633216
4113 4 0.3947 0.170029 0.605617
3658 2 0.357665 0.157644 0.619498
3659 4 0.378531 0.158889 0.60578
4111 2 0.413658 0.15625 0.614332
4112 4 0.432616 0.142472 0.623046
1511 4 0.437071 0.13088 0.639601
364 3 0.478694 0.15877 0.61814
1510 2 0.428679 0.109777 0.650061
361 1 0.491702 0.155388 0.599226
1370 4 0.480717 0.150078 0.637446
365 3 0.494674 0.133081 0.595725
3079 2 0.219037 0.182472 0.635497
2873 4 0.245876 0.181679 0.599517
3080 4 0.238297 0.179644 0.619805
169 3 0.231691 0.241742 0.65821
3081 4 0.199777 0.185299 0.651189
2872 2 0.27051 0.185958 0.599701
170 3 0.254194 0.212548 0.665886
2874 4 0.295145 0.190238 0.599884
1495 2 0.314962 0.242232 0.620738
1496 4 0.32996 0.223357 0.627369
4674 4 0.298861 0.17437 0.672429
3390 4 0.412996 0.233899 0.600306
1041 4 0.402612 0.235424 0.617634
1039 2 0.383466 0.251501 0.617984
362 3 0.480945 0.164539 0.581069
839 4 0.463796 0.201995 0.620324
3389 4 0.444118 0.202237 0.623324
838 2 0.483006 0.214398 0.610209
3388 2 0.428557 0.218068 0.611815
3873 4 0.0163298 0.30282 0.638063
3871 2 0.00202445 0.295601 0.618868
3315 4 0.123817 0.320755 0.62516
3418 2 0.210429 0.275859 0.660408
3419 4 0.204457 0.29887 0.668155
2562 4 0.25869 0.304792 0.617597
1497 4 0.299963 0.261107 0.614108
2561 4 0.285544 0.266262 0.600424
2560 2 0.272117 0.285527 0.609011
1325 4 0.39027 0.252181 0.663005
1040 4 0.364319 0.267579 0.618333
2898 4 0.411645 0.256201 0.659068
2896 2 0.435688 0.262994 0.660033
2897 4 0.459732 0.269787 0.660998
2741 4 0.479069 0.271512 0.65761
731 1 0.129028 0.393845 0.597872
735 3 0.110395 0.383874 0.606359
3314 4 0.108346 0.364444 0.606383
3313 2 0.116082 0.342599 0.615771
732 3 0.14569 0.37814 0.595671
2568 4 0.30847 0.332414 0.64923
2566 2 0.293794 0.345404 0.633704
2858 4 0.26349 0.367839 0.609475
2567 4 0.279117 0.358393 0.618178
2857 2 0.270149 0.37553 0.586634
2415 4 0.327859 0.334095 0.655031
733 3 0.136312 0.410545 0.612239
1569 4 0.136102 0.428386 0.60488
1567 2 0.151236 0.445018 0.615812
1568 4 0.166371 0.461649 0.626744
1830 4 0.168383 0.476022 0.641454
1828 2 0.18545 0.49329 0.635477
1517 4 0.183187 0.457992 0.674127
2607 4 0.445171 0.477036 0.645749
4440 4 0.449354 0.474863 0.626452
2605 2 0.465262 0.473939 0.660307
4438 2 0.45747 0.473411 0.602846
3540 4 0.0256513 0.0664463 0.688311
3538 2 0.0489492 0.0746192 0.684362
324 3 0.0174901 0.0471022 0.689954
3766 2 0.0806571 0.0440281 0.741327
3693 4 0.0160409 0.0690826 0.734248
3767 4 0.0666683 0.0233041 0.741361
321 1 0.00799412 0.0368333 0.708468
3539 4 0.072247 0.0827921 0.680414
323 3 0.0171154 0.0156929 0.711348
3114 4 0.0819566 0.00941191 0.741236
325 3 0.0116202 0.0494606 0.72707
3768 4 0.0946459 0.0647521 0.741292
1618 2 0.136245 0.0319652 0.728782
1620 4 0.158795 0.0353812 0.718534
1619 4 0.113695 0.0285492 0.739031
3361 2 0.155852 0.0572153 0.666772
3362 4 0.180218 0.0539987 0.671369
1532 4 0.177814 0.0284276 0.721894
1531 2 0.19731 0.0128599 0.720243
1745 4 0.235977 0.0472439 0.708446
1744 2 0.24987 0.0287439 0.698963
341 1 0.334776 0.0689327 0.66976
3706 2 0.299604 0.0091891 0.68163
1746 4 0.263763 0.0102439 0.68948
344 3 0.323133 0.0548837 0.684095
1384 2 0.309481 0.052288 0.720217
1385 4 0.326742 0.0580792 0.70308
1386 4 0.292219 0.0464968 0.737354
3708 4 0.28127 0.0165592 0.696951
342 3 0.353139 0.0772794 0.680817
4407 4 0.488363 0.0429152 0.665193
2986 2 0.453289 0.0307701 0.66903
2988 4 0.473456 0.0417268 0.67895
3477 4 0.0936847 0.0845909 0.747805
3369 4 0.0388068 0.148021 0.732276
2268 4 0.0861226 0.0956884 0.67627
2266 2 0.105838 0.0867062 0.663788
3475 2 0.0961922 0.0969289 0.726202
3578 4 0.10809 0.165043 0.751238
3476 4 0.0986997 0.109267 0.704599
3450 4 0.194665 0.157121 0.738559
1311 4 0.190724 0.163892 0.718096
3448 2 0.218252 0.154425 0.746406
1301 4 0.313181 0.104375 0.66772
515 3 0.39496 0.140214 0.715685
1512 4 0.420286 0.0886744 0.660521
511 1 0.411815 0.130058 0.727148
513 3 0.431613 0.131618 0.715148
514 3 0.406547 0.10777 0.730877
512 3 0.41457 0.140542 0.747437
3367 2 0.0208544 0.163337 0.72401
1486 2 0.0533153 0.242753 0.727892
1487 4 0.0452518 0.230295 0.707768
3368 4 0.00290191 0.178652 0.715743
3577 2 0.117682 0.182686 0.736341
1688 4 0.144331 0.201091 0.72958
3579 4 0.127274 0.200329 0.721444
1687 2 0.162575 0.218079 0.727645
168 3 0.220099 0.214264 0.681768
1309 2 0.19227 0.170118 0.693929
166 1 0.238368 0.226532 0.67441
1310 4 0.193817 0.176344 0.669761
1689 4 0.180819 0.235067 0.72571
167 3 0.247247 0.238061 0.692226
4673 4 0.270096 0.214744 0.679011
4672 2 0.284479 0.194557 0.67572
2556 4 0.266655 0.230326 0.691141
2554 2 0.285121 0.244504 0.700261
1326 4 0.393521 0.213796 0.694891
3171 4 0.396425 0.221234 0.713421
1324 2 0.391895 0.232989 0.678948
3169 2 0.414011 0.230218 0.728757
3170 4 0.431596 0.239202 0.744093
3615 4 0.451238 0.241999 0.74472
1124 4 0.0147112 0.328879 0.763971
1347 4 0.165081 0.282589 0.689448
1345 2 0.164344 0.288491 0.713734
1346 4 0.163606 0.294394 0.73802
3420 4 0.216401 0.252848 0.652662
2555 4 0.303588 0.258681 0.709381
1731 4 0.31848 0.272486 0.711866
1729 2 0.315029 0.279002 0.735758
1313 4 0.363578 0.337987 0.713742
3613 2 0.469106 0.247453 0.728102
2740 2 0.490449 0.2645 0.678741
3614 4 0.486975 0.252906 0.711484
2742 4 0.501828 0.257488 0.699872
3558 4 0.0490477 0.384443 0.683184
3556 2 0.056221 0.408392 0.68276
3221 4 0.110481 0.367266 0.733862
3785 4 0.0996764 0.409922 0.687914
3784 2 0.107656 0.397673 0.708199
3786 4 0.115635 0.385423 0.728483
2413 2 0.34099 0.338908 0.675758
2414 4 0.354121 0.34372 0.696485
1312 2 0.364864 0.341196 0.738505
4401 4 0.496919 0.388028 0.751588
3557 4 0.0633944 0.432341 0.682337
3463 2 0.0637706 0.460126 0.715555
3464 4 0.0592513 0.47447 0.73553
3465 4 0.0682899 0.445782 0.695579
4742 4 0.0493758 0.472975 0.753568
4741 2 0.0248775 0.468009 0.754164
1212 4 0.157644 0.49396 0.742575
1518 4 0.233112 0.455954 0.67612
1516 2 0.208149 0.456973 0.675124
1590 4 0.245015 0.470129 0.739738
1587 4 0.252746 0.471361 0.721952
1585 2 0.272032 0.487265 0.721431
647 3 0.298657 0.49674 0.738312
1766 4 0.349725 0.494557 0.650325
1839 4 0.381863 0.464136 0.758795
1837 2 0.366611 0.482633 0.75169
697 3 0.490962 0.453787 0.682666
2606 4 0.485352 0.470841 0.674866
4240 2 0.05712 0.0497384 0.803184
4242 4 0.0417739 0.0577997 0.785165
3692 4 0.0442869 0.0759529 0.774938
3691 2 0.0301639 0.0725178 0.754593
4241 4 0.072466 0.041677 0.821204
1274 4 0.109551 0.0357123 0.757896