ITEM: TIMESTEP
1081500
ITEM: NUMBER OF ATOMS
4800
ITEM: BOX BOUNDS xy xz yz pp pp pp
-1.7397511800000018e+01 9.9985700000000008e+00 -7.3989418000000171e+00
-9.9985700000000008e+00 9.9985700000000008e+00 0.0000000000000000e+00
-9.9985700000000008e+00 9.9985700000000008e+00 0.0000000000000000e+00
ITEM: ATOMS id type xs ys zs
3833 4 0.094823 0.00165979 0.0589946
353 3 0.15161 0.0169137 0.0702315
31 1 0.23907 0.00208345 0.00466377
33 3 0.251403 0.000158423 0.0237559
984 4 0.437358 0.0756304 0.0789583
3860 4 0.447148 0.0617025 0.0720774
3859 2 0.462928 0.0512118 0.0607392
3861 4 0.478708 0.0407211 0.0494011
3205 2 0.493872 0.0306448 0.0205886
3206 4 0.491469 0.0496501 0.0338158
3207 4 0.496275 0.0116396 0.00736141
3947 4 0.0637512 0.110566 0.0691632
3306 4 0.0811335 0.116056 0.0586403
3304 2 0.0997291 0.111576 0.0446789
3305 4 0.118325 0.107097 0.0307175
1491 4 0.124128 0.0935028 0.040241
1489 2 0.141802 0.0962077 0.0218052
3764 4 0.109952 0.16472 0.998033
1490 4 0.159475 0.0989127 0.00336948
45 3 0.319365 0.147355 0.0312765
3537 4 0.444244 0.10511 0.0430911
3535 2 0.465334 0.120406 0.0554652
3536 4 0.486424 0.135703 0.0678392
1278 4 0.499712 0.15095 0.0779259
766 2 0.00229266 0.218264 0.0212463
3320 4 0.015067 0.242423 0.00202889
768 4 0.0254577 0.227714 0.0334539
2877 4 0.0468525 0.234112 0.0327318
2875 2 0.0691238 0.234748 0.0209336
2876 4 0.0913951 0.235384 0.00913532
1094 4 0.109943 0.232498 0.0141178
3765 4 0.143252 0.198602 0.0283923
3763 2 0.126602 0.181661 0.0132128
3030 4 0.254415 0.173263 0.0744764
3028 2 0.277129 0.176501 0.0621577
3029 4 0.299843 0.179738 0.049839
44 3 0.32043 0.17973 0.0471002
41 1 0.328492 0.170049 0.0295193
42 3 0.321066 0.176433 0.00970572
3212 4 0.363122 0.173055 0.0142375
43 3 0.353216 0.177297 0.0296733
3211 2 0.389052 0.183046 0.0198099
3213 4 0.414982 0.193036 0.0253823
3197 4 0.434155 0.202728 0.0157239
3196 2 0.460105 0.206321 0.0181991
3198 4 0.486054 0.209914 0.0206743
808 2 0.0774602 0.3291 0.0644625
809 4 0.0616237 0.334571 0.0810825
810 4 0.0932968 0.323628 0.0478426
4095 4 0.304728 0.306572 0.0650878
4093 2 0.318271 0.319169 0.0453999
1119 4 0.315548 0.255841 0.00554761
4094 4 0.331815 0.331765 0.025712
4214 4 0.375773 0.303614 0.0104882
4213 2 0.356329 0.281856 0.00580314
4215 4 0.336885 0.260098 0.0011181
3327 4 0.0456732 0.357558 0.0363408
1990 2 0.0211446 0.337245 0.0688253
1992 4 0.0386628 0.343841 0.0500013
447 3 0.0822213 0.39952 0.0605979
448 3 0.0638783 0.373266 0.0351241
449 3 0.088631 0.40756 0.0240437
446 1 0.0846699 0.390891 0.040034
1709 4 0.0751214 0.413532 0.0653901
3325 2 0.0375512 0.351573 0.0127938
450 3 0.103477 0.383514 0.0406471
4379 4 0.103924 0.340291 0.0387924
4378 2 0.120961 0.338271 0.0213337
4353 4 0.121762 0.383211 0.0347009
4351 2 0.144784 0.400911 0.0283317
4380 4 0.137998 0.336251 0.00387495
2161 2 0.26122 0.410702 0.00301568
2162 4 0.284161 0.406222 0.00309955
4057 2 0.336292 0.372054 0.0760561
1578 4 0.35242 0.343417 0.0261083
4058 4 0.360708 0.382067 0.0662577
831 4 0.373734 0.397578 0.0563747
829 2 0.399049 0.413068 0.0550642
1576 2 0.355771 0.340331 0.00170572
507 3 0.462629 0.408031 0.0460482
2625 4 0.48317 0.406578 0.040488
2623 2 0.497677 0.399153 0.0239863
3442 2 0.0670884 0.494412 0.0422653
1708 2 0.0570538 0.420243 0.0779519
3443 4 0.0746971 0.474415 0.0425145
12 3 0.0951786 0.477963 0.0386668
15 3 0.070546 0.442676 0.0349655
11 1 0.0938132 0.456342 0.0344629
13 3 0.103461 0.45549 0.0135242
14 3 0.106628 0.449864 0.050743
1880 4 0.125442 0.462292 0.0584241
4352 4 0.167806 0.41861 0.0219624
3936 4 0.189779 0.42845 0.0233854
1879 2 0.149873 0.473597 0.0490749
1881 4 0.174305 0.484902 0.0397257
3934 2 0.204159 0.417841 0.0100622
4574 4 0.31268 0.496518 0.0399308
4573 2 0.33085 0.486196 0.0340017
4575 4 0.349019 0.475874 0.0280725
3339 4 0.3503 0.457885 0.0229014
3337 2 0.369292 0.463731 0.00535741
830 4 0.424364 0.428558 0.0537537
797 4 0.450756 0.422774 0.00413985
4033 2 0.471252 0.483196 0.00526831
508 3 0.444886 0.433857 0.0454397
510 3 0.467253 0.430357 0.0163625
506 1 0.464997 0.429242 0.0390342
4034 4 0.489884 0.484469 0.0224076
509 3 0.485135 0.444398 0.0489131
253 3 0.0205599 0.0729905 0.117523
254 3 0.0321914 0.0759866 0.153919
251 1 0.0227074 0.0612505 0.136455
255 3 0.0369868 0.0491287 0.132027
1031 4 0.0578623 0.0470664 0.129593
1030 2 0.0519565 0.0229354 0.123784
1056 4 0.480981 0.0104636 0.16776
3948 4 0.0322379 0.0904889 0.10812
3946 2 0.0479946 0.100528 0.0886415
4196 4 0.127065 0.144408 0.132784
407 3 0.203694 0.153828 0.14444
3036 4 0.218835 0.166474 0.133616
406 1 0.208151 0.151913 0.166774
408 3 0.227921 0.145404 0.168812
3092 4 0.281702 0.127115 0.0943595
3093 4 0.287617 0.149467 0.139031
3091 2 0.284659 0.138291 0.116695
3200 4 0.292936 0.165294 0.150622
1740 4 0.382107 0.128687 0.132752
1738 2 0.402221 0.15036 0.135778
982 2 0.450751 0.0879936 0.0988222
983 4 0.464144 0.100357 0.118686
2922 4 0.487818 0.163887 0.130199
2921 4 0.477373 0.1145 0.129594
2920 2 0.482596 0.139194 0.129897
4548 4 0.139856 0.208503 0.156444
4197 4 0.137736 0.189502 0.153545
4195 2 0.1324 0.166955 0.143165
4546 2 0.161423 0.229031 0.159374
4547 4 0.18299 0.249559 0.162304
3034 2 0.232517 0.166579 0.112662
3035 4 0.246198 0.166684 0.091709
2044 2 0.358853 0.232326 0.148298
2045 4 0.358824 0.222604 0.12554
1739 4 0.422335 0.172034 0.138803
926 4 0.481882 0.173697 0.142601
927 4 0.439724 0.18686 0.131846
925 2 0.460803 0.180278 0.137223
4073 4 0.444304 0.242768 0.157558
803 4 0.490096 0.236233 0.109709
4072 2 0.450369 0.248532 0.133547
1991 4 0.00362641 0.33065 0.0876494
777 4 0.0063774 0.29076 0.114754
3750 4 0.0245173 0.290514 0.106247
3748 2 0.0500322 0.294244 0.111612
3749 4 0.0755471 0.297974 0.116978
2061 4 0.19863 0.259436 0.14993
1716 4 0.29305 0.31012 0.0821007
2059 2 0.219017 0.270209 0.134433
1715 4 0.261225 0.289765 0.120782
2060 4 0.239403 0.280983 0.118936
1714 2 0.277137 0.299943 0.101441
4074 4 0.456434 0.254296 0.109537
2994 4 0.0197345 0.368745 0.122202
2887 2 0.00989899 0.414695 0.118281
2888 4 0.0191601 0.415652 0.0949371
2992 2 0.0452966 0.370421 0.122722
2993 4 0.0708586 0.372097 0.123242
3243 4 0.0884322 0.3804 0.132947
3241 2 0.099848 0.36741 0.119045
3242 4 0.111264 0.354419 0.105144
4059 4 0.311877 0.362042 0.0858545
4076 4 0.451713 0.384231 0.117794
4075 2 0.477746 0.391916 0.112468
1710 4 0.0389862 0.426954 0.0905137
4014 4 0.0380987 0.4941 0.160014
969 4 0.306069 0.430723 0.154259
2253 4 0.0286812 0.0788687 0.173539
2252 4 0.0318551 0.0774126 0.223387
2251 2 0.0302681 0.0781407 0.198463
3879 4 0.02838 0.0576622 0.231065
3877 2 0.0481191 0.0608501 0.247514
4318 2 0.046612 0.0291306 0.1933
4320 4 0.0291301 0.00632783 0.188461
4319 4 0.0640938 0.0519333 0.19814
4577 4 0.0826641 0.0604922 0.208808
4576 2 0.101147 0.0522194 0.218431
4578 4 0.11963 0.0439466 0.228053
1166 4 0.13117 0.0498251 0.24465
2947 2 0.321595 0.0641701 0.238576
2948 4 0.314316 0.0644758 0.214692
2967 4 0.334843 0.00436971 0.213087
4430 4 0.464238 0.0134093 0.177299
4487 4 0.0182576 0.114166 0.17679
410 3 0.188796 0.136314 0.176304
2184 4 0.165814 0.0996993 0.234777
2182 2 0.173014 0.112511 0.213447
2183 4 0.180215 0.125323 0.192117
1383 4 0.228397 0.178937 0.190366
409 3 0.21258 0.172495 0.177002
1381 2 0.224619 0.178372 0.215107
1382 4 0.220841 0.177807 0.239848
2046 4 0.358881 0.242048 0.171056
3199 2 0.308699 0.17188 0.170728
3201 4 0.324461 0.178465 0.190833
3146 4 0.362081 0.24181 0.19145
3145 2 0.386126 0.243449 0.200001
3147 4 0.410172 0.245088 0.208552
28 3 0.446552 0.242946 0.178302
783 4 0.367155 0.305287 0.197218
781 2 0.359742 0.280379 0.196003
782 4 0.352329 0.25547 0.194789
420 3 0.389234 0.313592 0.200194
1670 4 0.427454 0.257934 0.22025
418 3 0.427739 0.323905 0.189801
3019 2 0.453429 0.312423 0.194311
3020 4 0.44831 0.333485 0.190459
1669 2 0.426098 0.269726 0.241543
416 1 0.407619 0.330012 0.190318
30 3 0.452347 0.279528 0.182711
3021 4 0.458548 0.29136 0.198162
29 3 0.444814 0.257045 0.212903
26 1 0.45578 0.261431 0.192121
27 3 0.479827 0.265848 0.194827
1059 4 0.492926 0.256318 0.188166
4162 2 0.0163793 0.391461 0.23634
4163 4 0.0357649 0.395273 0.219383
1981 2 0.014828 0.336182 0.197277
1982 4 0.0412205 0.341465 0.197001
756 4 0.0620064 0.342354 0.189991
754 2 0.0879823 0.345869 0.188
755 4 0.113958 0.349384 0.186009
2826 4 0.129216 0.344057 0.193059
2824 2 0.15367 0.345381 0.20007
2825 4 0.178124 0.346705 0.207082
1785 4 0.194818 0.349746 0.193582
1783 2 0.220495 0.351831 0.194322
1784 4 0.246172 0.353916 0.195062
1176 4 0.252513 0.367282 0.208814
1174 2 0.275549 0.3828 0.21805
1175 4 0.298584 0.398318 0.227287
417 3 0.401377 0.333072 0.168744
419 3 0.412463 0.349903 0.201998
860 4 0.429142 0.357948 0.212405
859 2 0.455243 0.368665 0.216917
861 4 0.481343 0.379381 0.221429
372 3 0.188187 0.470531 0.228859
371 1 0.199285 0.476063 0.249271
374 3 0.212902 0.498663 0.24927
4708 2 0.261404 0.474134 0.247308
4710 4 0.28796 0.483307 0.245175
4709 4 0.234847 0.464962 0.249441
3072 4 0.306646 0.480095 0.245691
3070 2 0.331415 0.482213 0.238956
968 4 0.338431 0.453634 0.191748
967 2 0.32225 0.442178 0.173003
3071 4 0.356185 0.484331 0.232222
2129 4 0.376576 0.487944 0.22557
2128 2 0.399999 0.488353 0.216435
2130 4 0.423422 0.488762 0.2073
4284 4 0.43366 0.478008 0.196996
4282 2 0.459212 0.492906 0.198294
3878 4 0.0678581 0.064038 0.263963
2973 4 0.0852608 0.069458 0.27515
303 3 0.112782 0.0408955 0.331718
2971 2 0.110791 0.0779194 0.282352
4173 4 0.0939897 0.0391154 0.320303
304 3 0.107594 0.0047549 0.323274
301 1 0.12319 0.0266917 0.322161
302 3 0.128128 0.0324847 0.300076
4171 2 0.070498 0.0378573 0.329968
1167 4 0.124749 0.0198019 0.284366
1165 2 0.12796 0.0348135 0.264508
3918 4 0.18419 0.000754954 0.328518
305 3 0.143845 0.0286678 0.333014
2949 4 0.328874 0.0638644 0.26246
2972 4 0.136321 0.0863807 0.289553
4478 4 0.158584 0.0909893 0.291531
4477 2 0.182838 0.103723 0.300539
3575 4 0.226622 0.126812 0.31562
4479 4 0.207091 0.116456 0.309548
3574 2 0.253058 0.13793 0.317437
3576 4 0.279494 0.149048 0.319254
1163 4 0.295582 0.161249 0.329619
882 4 0.0124397 0.200351 0.28758
880 2 0.0214436 0.204501 0.311079
842 4 0.110373 0.22879 0.309581
841 2 0.101782 0.22018 0.332425
800 4 0.23278 0.182041 0.256109
799 2 0.256987 0.192703 0.266155
885 4 0.292725 0.192727 0.283692
801 4 0.281195 0.203365 0.276201
884 4 0.340241 0.209669 0.306326
883 2 0.316483 0.201198 0.295009
1194 4 0.480724 0.229465 0.290496
3865 2 0.0152766 0.317133 0.274353
3866 4 0.041123 0.328406 0.279672
1158 4 0.314068 0.275379 0.319897
1671 4 0.424742 0.281518 0.262837
3257 4 0.0600283 0.343082 0.281889
3256 2 0.0840123 0.357062 0.2906
979 2 0.153366 0.377811 0.29595
981 4 0.126729 0.36995 0.296541
3258 4 0.107996 0.371043 0.299311
980 4 0.180003 0.385672 0.29536
4360 2 0.22311 0.405463 0.316444
4362 4 0.202411 0.393968 0.301525
1082 4 0.26125 0.413133 0.332899
1743 4 0.291937 0.36497 0.314768
1741 2 0.318497 0.371777 0.315694
1742 4 0.345057 0.378583 0.316621
2968 2 0.375888 0.371872 0.319926
2969 4 0.362563 0.381002 0.303714
3474 4 0.422392 0.401113 0.327498
891 4 0.404523 0.357498 0.329605
2937 4 0.128195 0.475863 0.298211
3214 2 0.090796 0.473073 0.323716
3216 4 0.112135 0.476861 0.30911
2935 2 0.149451 0.480463 0.283322
375 3 0.182464 0.471613 0.265659
2936 4 0.170707 0.485064 0.268434
373 3 0.213822 0.463468 0.252625
4233 4 0.418841 0.483093 0.310339
4231 2 0.424625 0.471697 0.330221
2185 2 0.497315 0.469046 0.300771
3472 2 0.442864 0.421544 0.321092
3473 4 0.463336 0.441974 0.314686
2187 4 0.475779 0.461337 0.315491
997 2 0.0124237 0.039966 0.342811
999 4 0.0308894 0.03284 0.354172
4172 4 0.0470064 0.0365991 0.339633
3916 2 0.17145 0.0154177 0.337474
3917 4 0.158711 0.0300805 0.34643
1862 4 0.203822 0.011337 0.329693
1863 4 0.255245 0.0384759 0.33689
1861 2 0.229534 0.0249064 0.333292
4169 4 0.278184 0.0618742 0.411728
928 2 0.27224 0.0428118 0.375411
930 4 0.286116 0.0540286 0.39553
929 4 0.258364 0.031595 0.355291
584 3 0.290063 0.00322013 0.415454
245 3 0.460705 0.00326694 0.366049
243 3 0.491919 0.0106373 0.342558
1978 2 0.457277 0.0132966 0.398686
1980 4 0.447046 0.0266689 0.413382
1979 4 0.467507 0.999924 0.38399
1162 2 0.32102 0.164361 0.334685
3138 4 0.365344 0.165833 0.344017
399 3 0.475908 0.140735 0.410074
1015 2 0.483761 0.12399 0.383616
1016 4 0.493699 0.14427 0.398038
1017 4 0.473824 0.10371 0.369194
881 4 0.0304475 0.208651 0.334578
1622 4 0.0569986 0.227614 0.384812
1621 2 0.0671672 0.223216 0.406416
843 4 0.0931917 0.21157 0.355269
3485 4 0.232944 0.229252 0.365391
3484 2 0.241736 0.247994 0.381837
1157 4 0.282695 0.244709 0.353942
992 4 0.266297 0.178022 0.357301
993 4 0.302078 0.223269 0.347764
991 2 0.284187 0.200646 0.352533
2156 4 0.284958 0.216826 0.412415
1164 4 0.346457 0.167472 0.339752
3137 4 0.411341 0.172969 0.367893
3136 2 0.388343 0.169401 0.355955
909 4 0.493444 0.193642 0.391728
4083 4 0.432101 0.181757 0.359282
4082 4 0.477613 0.198182 0.385279
4081 2 0.454857 0.189969 0.372281
3355 2 0.0388501 0.298508 0.407728
3356 4 0.054132 0.288363 0.395082
3152 4 0.0561769 0.250802 0.358217
924 4 0.118876 0.289791 0.366469
3153 4 0.10117 0.290613 0.358313
3151 2 0.0786736 0.270708 0.358265
922 2 0.135232 0.313474 0.369046
816 4 0.27166 0.276129 0.401607
3486 4 0.250528 0.266736 0.398283
814 2 0.295811 0.285536 0.412066
1156 2 0.298381 0.260044 0.33692
3143 4 0.4128 0.322176 0.384738
3083 4 0.425078 0.310764 0.375359
3082 2 0.428827 0.29417 0.359483
3084 4 0.432575 0.277576 0.343607
605 3 0.491573 0.320647 0.403614
604 3 0.498901 0.326919 0.366828
18 3 0.0181681 0.385757 0.393959
16 1 0.0233623 0.374526 0.411982
19 3 0.00515932 0.354138 0.415006
17 3 0.0442099 0.370705 0.407626
923 4 0.151588 0.337157 0.371622
3434 4 0.11093 0.368981 0.402932
3435 4 0.143832 0.3471 0.384463
3433 2 0.127381 0.358041 0.393698
1053 4 0.220567 0.344037 0.358895
1051 2 0.195758 0.34413 0.361719
1052 4 0.170949 0.344223 0.364544
2970 4 0.389213 0.362741 0.336138
1140 4 0.340657 0.341405 0.400775
1139 4 0.366412 0.37887 0.369861
4252 2 0.405291 0.408138 0.369102
4253 4 0.388085 0.384711 0.367241
1138 2 0.353535 0.360137 0.385318
3142 2 0.430458 0.343182 0.394023
3045 4 0.443444 0.416098 0.386313
889 2 0.42914 0.366232 0.339176
890 4 0.453756 0.374966 0.348747
3043 2 0.450744 0.399275 0.398931
3605 4 0.477763 0.388762 0.416887
1846 2 0.484795 0.369474 0.361478
1847 4 0.473494 0.385625 0.353362
3044 4 0.458044 0.382452 0.41155
3144 4 0.448115 0.364189 0.403308
1848 4 0.496095 0.353324 0.369594
1090 2 0.0383189 0.464571 0.353367
1092 4 0.0135787 0.447984 0.355363
1091 4 0.0630592 0.481158 0.351371
3215 4 0.069457 0.469284 0.338323
596 1 0.138559 0.494552 0.383003
597 3 0.119598 0.478496 0.393094
600 3 0.135937 0.49264 0.360391
599 3 0.159477 0.491392 0.389374
4361 4 0.243809 0.416958 0.331364
3063 4 0.307844 0.468338 0.406211
1081 2 0.285158 0.424377 0.343331
1083 4 0.309065 0.43562 0.353763
3062 4 0.314475 0.454258 0.359711
3061 2 0.311159 0.461298 0.382961
3981 4 0.348452 0.447033 0.39404
3979 2 0.351766 0.427977 0.406474
915 4 0.312227 0.484329 0.418169
4254 4 0.422497 0.431565 0.370964
4232 4 0.43041 0.460301 0.350103
3228 4 0.434705 0.449455 0.364558
3226 2 0.458603 0.450499 0.373002
3227 4 0.4825 0.451542 0.381446
1061 4 0.0150659 0.00444925 0.430746
4168 2 0.292265 0.0553454 0.429346
4170 4 0.306347 0.0488166 0.446963
4469 4 0.429212 0.0444579 0.483716
4470 4 0.481181 0.053016 0.49048
4468 2 0.455196 0.048737 0.487098
1853 4 0.499468 0.0491081 0.491837
1077 4 0.0253097 0.15589 0.444162
4467 4 0.0464828 0.160761 0.447835
4466 4 0.0771012 0.138011 0.426403
4465 2 0.061792 0.149386 0.437119
2209 2 0.221632 0.142515 0.45107
2211 4 0.210503 0.117775 0.448033
3225 4 0.312954 0.108869 0.4491
3223 2 0.337228 0.111668 0.440307
1799 4 0.380962 0.113612 0.43376
3224 4 0.361501 0.114467 0.431513
1798 2 0.407064 0.123546 0.438615
396 1 0.47261 0.142116 0.432921
397 3 0.451607 0.145903 0.436509
1800 4 0.433166 0.13348 0.443471
400 3 0.490997 0.159308 0.441778
398 3 0.471202 0.122172 0.443166
1322 4 0.0888029 0.174928 0.478458
3754 2 0.0844221 0.229435 0.47065
1623 4 0.0773358 0.218818 0.428019
3756 4 0.0769588 0.225735 0.446684
3755 4 0.0918853 0.233135 0.494616
1321 2 0.0802794 0.184329 0.498276
3687 4 0.139674 0.243787 0.455726
2210 4 0.232761 0.167254 0.454108
868 2 0.249551 0.202403 0.435438
869 4 0.234393 0.188463 0.453627
870 4 0.264709 0.216343 0.417248
2155 2 0.311048 0.227356 0.417079
2157 4 0.337138 0.237885 0.421744
3776 4 0.29908 0.187891 0.486621
389 3 0.320123 0.197624 0.483422
3775 2 0.27444 0.182128 0.495861
4599 4 0.373206 0.205249 0.485378
390 3 0.355215 0.194573 0.49324
4598 4 0.424838 0.219971 0.473089
4597 2 0.399022 0.21261 0.479233
3053 4 0.445291 0.221847 0.478989
3052 2 0.468397 0.234662 0.467866
3054 4 0.491503 0.247477 0.456743
2865 4 0.00319274 0.305333 0.422733
3357 4 0.0235681 0.308653 0.420374
1354 2 0.0749418 0.325861 0.480167
1355 4 0.0525187 0.326927 0.490336
2593 2 0.134244 0.329359 0.451265
1356 4 0.0973648 0.324794 0.469997
2594 4 0.107734 0.32132 0.453838
3686 4 0.141585 0.282961 0.427306
3685 2 0.140629 0.263374 0.441516
3006 4 0.346772 0.257823 0.421658
815 4 0.319963 0.294944 0.422526
3005 4 0.390925 0.272648 0.449691
3004 2 0.368849 0.265235 0.435675
2858 4 0.444441 0.305851 0.491269
2857 2 0.427298 0.291752 0.474411
2859 4 0.410156 0.277653 0.457554
1703 4 0.00355654 0.33622 0.494561
20 3 0.0261425 0.387156 0.430838
4304 4 0.101882 0.361187 0.420236
4303 2 0.0779643 0.363693 0.421516
4305 4 0.0540465 0.366198 0.422796
1702 2 0.0296198 0.340312 0.496965
2595 4 0.160754 0.337398 0.448691
1949 4 0.178169 0.352004 0.452949
1948 2 0.189163 0.368391 0.471178
1950 4 0.200158 0.384779 0.489408
474 3 0.313868 0.37268 0.448542
471 1 0.333437 0.391216 0.454311
473 3 0.326172 0.409144 0.459191
472 3 0.348958 0.396852 0.43651
475 3 0.344707 0.386379 0.472331
2245 2 0.37721 0.373024 0.472003
2246 4 0.358097 0.379715 0.482694
2247 4 0.396324 0.366333 0.461312
3980 4 0.355081 0.408921 0.418909
1454 4 0.416346 0.376179 0.469821
1453 2 0.431245 0.373443 0.488914
4673 4 0.47136 0.362692 0.478917
3606 4 0.479849 0.374595 0.464282
3604 2 0.478806 0.381679 0.440585
4672 2 0.490811 0.370472 0.495946
4596 4 0.131836 0.427736 0.482714
2697 4 0.224184 0.493739 0.483527
2795 4 0.228812 0.498865 0.464716
2632 2 0.356795 0.466671 0.473023
2634 4 0.333338 0.469011 0.467719
914 4 0.330342 0.487805 0.46513
913 2 0.321285 0.486067 0.441649
2633 4 0.380251 0.464331 0.478328
1122 4 0.401348 0.476602 0.475005
1120 2 0.427817 0.483735 0.477544
726 1 0.490433 0.490699 0.49988
730 3 0.499703 0.475566 0.491603
727 3 0.477131 0.496035 0.48353
1121 4 0.454286 0.490869 0.480083
3252 4 0.0141971 0.0665517 0.529511
3250 2 0.0278757 0.0617929 0.548594
3251 4 0.0415543 0.0570341 0.567677
2373 4 0.998818 0.0722425 0.534983
954 4 0.0593923 0.0538739 0.561456
952 2 0.0839397 0.052721 0.561066
953 4 0.108487 0.0515682 0.560676
1511 4 0.116289 0.043543 0.575526
2803 2 0.266639 0.0337342 0.582146
2805 4 0.292089 0.046773 0.576688
212 3 0.302647 0.0487608 0.55975
215 3 0.322635 0.0676953 0.530325
211 1 0.324882 0.0607681 0.55148
213 3 0.33535 0.079131 0.565181
214 3 0.338634 0.0471542 0.551273
4112 4 0.32834 0.0289161 0.542679
4111 2 0.349485 0.0230873 0.549623
4113 4 0.37063 0.0172584 0.556566
1572 4 0.386322 0.0133486 0.566282
1570 2 0.410419 0.0173503 0.576165
759 4 0.440507 0.00761447 0.542912
39 3 0.460514 0.0173916 0.549886
36 1 0.470835 0.025071 0.570465
38 3 0.49291 0.0416562 0.567415
40 3 0.456358 0.0332365 0.582539
1039 2 0.0071922 0.127044 0.530208
1040 4 0.0223239 0.117307 0.516815
4512 4 0.12253 0.155803 0.51811
3282 4 0.371973 0.159227 0.550032
3280 2 0.354423 0.167703 0.538835
1323 4 0.0717559 0.19373 0.518094
2942 4 0.0958584 0.239992 0.512705
4510 2 0.147442 0.171813 0.520994
4511 4 0.172354 0.187823 0.523878
780 4 0.18423 0.178252 0.514226
779 4 0.229267 0.16949 0.504582
778 2 0.206748 0.173871 0.509404
3777 4 0.249801 0.176365 0.505101
387 3 0.342652 0.219585 0.510308
3377 4 0.338872 0.224411 0.529464
388 3 0.324252 0.182946 0.51715
386 1 0.335649 0.198584 0.500952
3281 4 0.336872 0.17618 0.527638
3376 2 0.363949 0.240277 0.531606
1539 4 0.391892 0.167985 0.545953
1537 2 0.417243 0.183313 0.544237
1538 4 0.442594 0.198641 0.542521
2985 4 0.461653 0.208721 0.538579
2983 2 0.481463 0.207117 0.552943
760 2 0.0404877 0.291403 0.520767
3384 4 0.064525 0.327969 0.568233
761 4 0.0147944 0.289189 0.519519
762 4 0.066181 0.293616 0.522015
3506 4 0.0848279 0.301462 0.531456
3505 2 0.110914 0.305221 0.532562
3507 4 0.136999 0.308981 0.533667
520 3 0.156864 0.312827 0.542109
2941 2 0.112264 0.253931 0.530151
2943 4 0.12867 0.267871 0.547596
519 3 0.148364 0.313227 0.578752
518 3 0.142136 0.280259 0.560812
516 1 0.156616 0.302573 0.562132
517 3 0.179416 0.303759 0.567397
2555 4 0.2009 0.314052 0.570595
2554 2 0.224868 0.315486 0.579186
3390 4 0.335001 0.311214 0.553696
3388 2 0.333313 0.292429 0.569336
2895 4 0.34975 0.318218 0.539178
2873 4 0.390209 0.329881 0.578615
3378 4 0.389026 0.256143 0.533747
3268 2 0.467347 0.317655 0.529551
3269 4 0.460984 0.314732 0.505287
2872 2 0.401638 0.312718 0.582422
3270 4 0.47371 0.320577 0.553815
1106 4 0.0105356 0.39025 0.544818
164 3 0.0314383 0.398707 0.546052
2897 4 0.0852688 0.331074 0.574353
161 1 0.0504027 0.393491 0.554691
162 3 0.0518823 0.375133 0.543569
3383 4 0.0395006 0.358885 0.553556
3382 2 0.0520128 0.343427 0.560894
1103 4 0.0900627 0.411052 0.560546
165 3 0.0468663 0.388661 0.576878
1102 2 0.112346 0.407971 0.568732
163 3 0.0715269 0.411316 0.55159
1704 4 0.0556832 0.344404 0.49937
2896 2 0.110819 0.345973 0.573032
4595 4 0.139157 0.401802 0.521982
498 3 0.153375 0.37448 0.579915
1104 4 0.134629 0.40489 0.576919
2898 4 0.136368 0.360871 0.57171
4594 2 0.135496 0.414769 0.502348
3573 4 0.255084 0.412521 0.57962
2893 2 0.374007 0.333998 0.533102
2894 4 0.398265 0.349779 0.527027
1652 4 0.404345 0.347893 0.573654
1651 2 0.426145 0.368482 0.574056
1455 4 0.446143 0.370707 0.508007
1653 4 0.447945 0.389071 0.574459
2503 2 0.0140741 0.493333 0.565855
1600 2 0.00340423 0.433022 0.57755
4374 4 0.428 0.490209 0.563064
4372 2 0.446028 0.491009 0.545453
4373 4 0.464056 0.491809 0.527843
729 3 0.475791 0.481615 0.518008
4602 4 0.099131 0.0602176 0.65622
4600 2 0.107789 0.0763093 0.637274
1510 2 0.119839 0.0442541 0.600302
1512 4 0.12339 0.0449652 0.625079
2804 4 0.24119 0.0206955 0.587604
2724 4 0.222571 0.00653669 0.590574
2722 2 0.22284 0.00282608 0.615246
1386 4 0.274435 0.0785507 0.649993
2723 4 0.223108 0.999115 0.639919
2268 4 0.259111 0.0783381 0.661863
37 3 0.473938 0.00756208 0.581901
1571 4 0.434515 0.0213521 0.586049
3323 4 0.453406 0.0345163 0.661105
2494 2 0.0728724 0.154114 0.599043
2496 4 0.0897769 0.141746 0.602329
2495 4 0.055968 0.166482 0.595756
1178 4 0.103505 0.133529 0.609559
1177 2 0.110869 0.13845 0.633439
1179 4 0.118233 0.143372 0.657318
4601 4 0.116447 0.092401 0.618329
3550 2 0.300334 0.144898 0.601379
3551 4 0.290005 0.120811 0.594823
1385 4 0.285211 0.11298 0.613779
1384 2 0.279823 0.0957655 0.631886
514 3 0.269598 0.154695 0.644666
3801 4 0.032189 0.184054 0.650271
3800 4 0.0567586 0.182929 0.606967
3799 2 0.0444738 0.183491 0.628619
3552 4 0.310663 0.168985 0.607936
512 3 0.278326 0.191757 0.64089
3048 4 0.330652 0.248671 0.637124
1569 4 0.338401 0.234418 0.638571
511 1 0.287668 0.174858 0.640272
515 3 0.297036 0.174254 0.619625
513 3 0.305363 0.178979 0.656395
1567 2 0.364959 0.241521 0.637123
1568 4 0.391517 0.248625 0.635676
2556 4 0.248836 0.316919 0.587778
1668 4 0.270465 0.323141 0.584276
1666 2 0.295549 0.324634 0.588873
3389 4 0.331626 0.273644 0.584976
3047 4 0.313353 0.26503 0.596042
3046 2 0.322003 0.25685 0.616583
1667 4 0.320634 0.326127 0.593471
2415 4 0.410777 0.257528 0.626414
2874 4 0.413067 0.295555 0.58623
3659 4 0.430659 0.31128 0.5943
3658 2 0.454948 0.318941 0.604607
2413 2 0.437289 0.265088 0.628795
2414 4 0.4638 0.272647 0.631176
3872 4 0.480109 0.287926 0.623693
3660 4 0.479236 0.326601 0.614914
3864 4 0.109157 0.389464 0.649658
500 3 0.14949 0.406711 0.591268
497 3 0.185549 0.403683 0.590077
3862 2 0.12799 0.381286 0.640687
496 1 0.161775 0.392522 0.594404
3863 4 0.146822 0.373107 0.631716
499 3 0.159311 0.385043 0.616367
3571 2 0.230694 0.411287 0.586751
3572 4 0.206304 0.410053 0.593883
4551 4 0.221472 0.399207 0.64788
4549 2 0.241649 0.390459 0.64855
4550 4 0.261826 0.381711 0.649221
3314 4 0.291232 0.393899 0.605226
734 3 0.290074 0.410127 0.611629
3720 4 0.279629 0.377656 0.652229
3313 2 0.298948 0.376454 0.594271
3718 2 0.303224 0.378008 0.660857
3315 4 0.306665 0.359009 0.583316
2528 4 0.34225 0.337258 0.600562
2527 2 0.366951 0.34742 0.609694
2529 4 0.391651 0.357581 0.618827
813 4 0.410393 0.357371 0.625782
1353 4 0.460989 0.395345 0.590726
811 2 0.435667 0.359286 0.630033
812 4 0.460941 0.361202 0.634284
595 3 0.482485 0.364286 0.634074
1351 2 0.478467 0.415624 0.601424
593 3 0.49944 0.343453 0.614701
591 1 0.499748 0.364944 0.618957
592 3 0.495484 0.374136 0.599312
1602 4 0.0243184 0.440408 0.593044
1470 4 0.0464643 0.447971 0.593902
1468 2 0.0713052 0.448802 0.598658
1469 4 0.0961461 0.449633 0.603413
2567 4 0.117147 0.457583 0.607458
2419 2 0.0795838 0.470036 0.66649
2421 4 0.101927 0.464623 0.664726
483 3 0.122303 0.477224 0.668157
2566 2 0.143475 0.464102 0.610725
2568 4 0.169804 0.470621 0.613992
1838 4 0.189715 0.478124 0.621214
1837 2 0.215951 0.482498 0.621242
735 3 0.272538 0.426746 0.587536
1839 4 0.242188 0.486873 0.621269
4733 4 0.261254 0.487883 0.626057
4732 2 0.287602 0.495297 0.629671
732 3 0.287212 0.443513 0.619785
731 1 0.290432 0.430345 0.602747
733 3 0.312274 0.441266 0.592635
2439 4 0.333258 0.443365 0.590604
2437 2 0.353954 0.443706 0.604814
2438 4 0.374651 0.444046 0.619023
2561 4 0.395722 0.448095 0.614709
2560 2 0.422023 0.457105 0.618767
2562 4 0.448325 0.466116 0.622825
1352 4 0.495944 0.435904 0.612121
463 3 0.0532149 0.0479235 0.725492
461 1 0.0624941 0.0617441 0.743659
464 3 0.0569297 0.081079 0.741984
3363 4 0.0609303 0.0594775 0.708022
3361 2 0.0806806 0.0646582 0.69128
3362 4 0.100431 0.069839 0.674538
3113 4 0.105432 0.0648435 0.749036
3112 2 0.131445 0.076043 0.744398
1642 2 0.246 0.0137422 0.674182
1643 4 0.252383 0.0258472 0.695978
3692 4 0.269146 0.0277316 0.707816
3688 2 0.221064 0.00255983 0.730402
3690 4 0.229603 0.0190296 0.749055
3691 2 0.292421 0.0300143 0.718624
3693 4 0.315697 0.0322969 0.729431
3831 4 0.330448 0.0259632 0.737165
3829 2 0.356815 0.031304 0.735844
3432 4 0.356089 0.00834149 0.672026
3830 4 0.383182 0.0366448 0.734523
4781 4 0.38822 0.0498221 0.749647
3430 2 0.378432 0.0263999 0.679361
4780 2 0.408568 0.0690746 0.740724
3431 4 0.400776 0.0444584 0.686695
3322 2 0.463015 0.0241748 0.679482
3324 4 0.472625 0.0138333 0.697859
325 3 0.488082 0.0145523 0.712257
1048 2 0.00897366 0.129563 0.686346
1050 4 0.0345371 0.135771 0.693078
1699 2 0.128111 0.15462 0.689417
1701 4 0.11599 0.134618 0.675174
3114 4 0.157458 0.0872425 0.73976
4242 4 0.176389 0.0951637 0.728842
4240 2 0.190252 0.0929665 0.708718
4241 4 0.204115 0.0907694 0.688595
3341 4 0.240761 0.134353 0.746778
2267 4 0.220925 0.083765 0.691117
2266 2 0.240018 0.0810516 0.67649
3340 2 0.264133 0.131501 0.742262
3342 4 0.287504 0.128649 0.737747
3714 4 0.297971 0.120141 0.727054
3712 2 0.321737 0.138496 0.726657
3713 4 0.345504 0.15685 0.72626
3348 4 0.357693 0.145601 0.730453
3346 2 0.377739 0.136929 0.727419
4782 4 0.428916 0.088327 0.7318
3347 4 0.397784 0.128257 0.724385
3480 4 0.417293 0.131494 0.716143
3478 2 0.441616 0.148626 0.713273
2524 2 0.0156036 0.213686 0.680572
2525 4 0.0353621 0.229843 0.667372
3803 4 0.085102 0.215187 0.676463
3802 2 0.0817524 0.203735 0.698672
3593 4 0.0975255 0.196509 0.729423
3804 4 0.0784028 0.192282 0.720881
3592 2 0.110123 0.208668 0.749715
1700 4 0.140232 0.174621 0.703659
1233 4 0.142676 0.178955 0.722797
1231 2 0.152849 0.186199 0.745525
125 3 0.247171 0.191869 0.71684
121 1 0.263197 0.195874 0.7339
122 3 0.255157 0.205071 0.75161
123 3 0.285099 0.210785 0.727
944 4 0.299156 0.210478 0.712888
124 3 0.26562 0.175995 0.740799
945 4 0.297148 0.180861 0.673601
943 2 0.298152 0.19567 0.693245
3479 4 0.46594 0.165757 0.710402
4523 4 0.481435 0.180522 0.702997
692 3 0.031943 0.281622 0.721428
693 3 0.0141203 0.275114 0.687773
691 1 0.0103543 0.275927 0.710602
1296 4 0.0374659 0.274881 0.738657
1294 2 0.062159 0.278127 0.746579
3758 4 0.00669338 0.262413 0.672909
3521 4 0.386158 0.331142 0.717434
1487 4 0.359353 0.252114 0.672705
1486 2 0.375756 0.270274 0.686904
1488 4 0.39216 0.288434 0.701104
3369 4 0.413917 0.295917 0.699491
3367 2 0.435273 0.290347 0.706259
3368 4 0.456629 0.284777 0.713027
1616 4 0.0742458 0.355641 0.671939
2425 2 0.0553956 0.388467 0.740924
2426 4 0.0450165 0.364036 0.735774
1615 2 0.084592 0.368515 0.692633
1617 4 0.0949382 0.381389 0.713328
3418 2 0.11796 0.38049 0.747672
3420 4 0.113847 0.381105 0.723056
2459 4 0.239992 0.375774 0.740689
3797 4 0.317845 0.371652 0.68674
3719 4 0.32682 0.378361 0.669486
3796 2 0.324884 0.367504 0.709859
3081 4 0.315737 0.351773 0.743109
3798 4 0.331924 0.363357 0.732977
1218 4 0.432222 0.414583 0.676482
3520 2 0.412743 0.338265 0.716523
3522 4 0.439329 0.345387 0.715612
1216 2 0.454086 0.410298 0.684028
822 4 0.459673 0.356559 0.71061
1217 4 0.475949 0.406012 0.691574
820 2 0.485806 0.369277 0.712684
4137 4 0.496596 0.408147 0.695755
2420 4 0.0572402 0.47545 0.668254
4706 4 0.0375178 0.474106 0.673584
4705 2 0.0113945 0.46998 0.675367
3463 2 0.112341 0.430143 0.745332
3465 4 0.0859155 0.419667 0.747974
485 3 0.147693 0.498053 0.694063
481 1 0.139532 0.497837 0.672772
649 3 0.191322 0.43601 0.731141
1588 2 0.213351 0.489233 0.714363
1590 4 0.202924 0.468542 0.728125
646 1 0.177385 0.446166 0.742192
650 3 0.186808 0.468751 0.739459
3464 4 0.138766 0.440619 0.74269
647 3 0.154755 0.438386 0.73333
4614 4 0.210499 0.453591 0.728982
3026 4 0.263833 0.450772 0.729792
4613 4 0.248951 0.435473 0.740533
4612 2 0.229725 0.444532 0.734758
3025 2 0.287536 0.454028 0.740204
3694 2 0.345614 0.449337 0.709453
3027 4 0.311239 0.457284 0.750616
3696 4 0.334229 0.457305 0.690578