ITEM: TIMESTEP
2179500
ITEM: NUMBER OF ATOMS
1600
ITEM: BOX BOUNDS xy xz yz pp pp pp
-1.2617295600000160e+01 6.9325799999999997e+00 -5.6847156000001604e+00
-6.9325799999999997e+00 6.9325799999999997e+00 0.0000000000000000e+00
-6.9325799999999997e+00 6.9325799999999997e+00 0.0000000000000000e+00
ITEM: ATOMS id type xs ys zs
1001 2 0.0399985 0.217382 0.111541
912 4 0.0516176 0.193425 0.0220221
911 2 0.0166644 0.193061 0.0125866
1508 2 0.108628 0.205158 0.0111406
1002 4 0.0612464 0.249163 0.0966109
1509 4 0.145583 0.215309 0.0221868
63 3 0.171673 0.237023 0.014439
64 3 0.176204 0.189233 0.00266375
61 1 0.191996 0.218755 0.0179886
65 3 0.196457 0.214111 0.049875
463 4 0.198545 0.238081 0.06522
62 3 0.224 0.23499 0.00403758
384 4 0.243395 0.221022 0.000950382
1384 4 0.231944 0.13301 0.0484981
1382 2 0.268845 0.148511 0.0597771
1383 4 0.305745 0.164013 0.071056
945 4 0.330267 0.155792 0.071289
944 2 0.362633 0.184694 0.0779399
840 4 0.414522 0.236824 0.0692788
946 4 0.395 0.213595 0.0845907
873 4 0.00497276 0.328901 0.0855576
872 2 0.0361332 0.324713 0.0997678
874 4 0.0672936 0.320524 0.113978
1103 2 0.11669 0.302364 0.0787919
1105 4 0.0862318 0.271356 0.0836994
1104 4 0.147148 0.333372 0.0738843
267 4 0.159972 0.354841 0.0924814
961 4 0.160947 0.277013 0.0523798
266 2 0.186245 0.374165 0.0681844
959 2 0.183294 0.302858 0.0301438
960 4 0.20564 0.328703 0.00790782
792 4 0.232095 0.341565 0.0206824
461 2 0.226168 0.268056 0.0781377
462 4 0.253791 0.298031 0.0910554
1056 4 0.254344 0.295544 0.118135
791 2 0.25683 0.370563 0.00351989
1270 4 0.410433 0.358587 0.999231
839 2 0.446132 0.255655 0.0499088
841 4 0.477741 0.274486 0.0305388
219 3 0.124256 0.432909 0.118651
218 3 0.180893 0.460974 0.105229
268 4 0.212517 0.393489 0.0438874
322 4 0.263021 0.402532 0.118378
320 2 0.295454 0.418804 0.0990907
370 4 0.226108 0.471382 0.121495
321 4 0.327886 0.435077 0.0798029
318 4 0.356691 0.445535 0.0933574
317 2 0.388631 0.438251 0.0881133
1051 4 0.418306 0.38071 0.0181692
1049 2 0.427424 0.397173 0.0501665
319 4 0.420572 0.430966 0.0828692
1050 4 0.436542 0.413637 0.0821638
1012 4 0.152042 0.00504329 0.143801
84 3 0.166384 0.0081797 0.168606
85 3 0.210759 0.0104903 0.201126
963 4 0.303678 0.00400839 0.226049
962 2 0.338054 0.0225269 0.241547
1003 4 0.0187506 0.185601 0.126471
935 2 0.244261 0.1423 0.195329
936 4 0.216658 0.155862 0.191234
44 3 0.27523 0.235072 0.180342
937 4 0.271863 0.128738 0.199424
741 4 0.30067 0.140249 0.185399
740 2 0.336217 0.139513 0.189243
742 4 0.371763 0.138777 0.193086
334 4 0.3876 0.165866 0.192617
332 2 0.414254 0.175003 0.218928
333 4 0.440907 0.18414 0.245238
744 4 0.0246618 0.287271 0.218255
1422 4 0.0915153 0.330007 0.132264
652 4 0.0513703 0.289016 0.228851
1421 2 0.114934 0.362889 0.143239
650 2 0.0891721 0.308997 0.233803
651 4 0.126974 0.328977 0.238754
43 3 0.246611 0.253909 0.143888
1057 4 0.262644 0.359923 0.145145
1055 2 0.258494 0.327734 0.13164
41 1 0.274124 0.262456 0.165577
42 3 0.304798 0.277675 0.149082
45 3 0.270379 0.282906 0.188238
1123 4 0.32918 0.287005 0.131731
1121 2 0.356799 0.307715 0.154219
1122 4 0.384418 0.328425 0.176707
957 4 0.486688 0.315792 0.24053
1044 4 0.0203948 0.40536 0.242761
1043 2 0.0116438 0.424415 0.217012
1045 4 0.00289284 0.44347 0.191263
1496 2 0.107091 0.498743 0.134893
216 1 0.156611 0.453266 0.130016
220 3 0.154449 0.480648 0.142253
1498 4 0.123598 0.474888 0.141243
518 2 0.151325 0.424786 0.237858
1423 4 0.138353 0.395772 0.154214
217 3 0.167044 0.437674 0.153984
68 3 0.157397 0.397529 0.177614
519 4 0.18072 0.419167 0.221609
66 1 0.192841 0.415936 0.175915
70 3 0.198198 0.444874 0.161805
69 3 0.207217 0.420739 0.206622
67 3 0.208652 0.399699 0.157688
368 2 0.257482 0.495714 0.137325
1075 4 0.438963 0.44143 0.241889
1073 2 0.471583 0.45747 0.222787
1600 4 0.00453654 0.0497879 0.295811
1598 2 0.0369355 0.0426625 0.297259
1599 4 0.0693344 0.035537 0.298707
1128 4 0.0882458 0.0332325 0.277782
1127 2 0.125391 0.0391689 0.270013
1129 4 0.162537 0.0451052 0.262245
948 4 0.178634 0.03638 0.282452
710 2 0.263951 0.025391 0.353444
711 4 0.265385 0.0455335 0.324321
949 4 0.236008 0.0411751 0.328373
947 2 0.207321 0.0387775 0.305413
964 4 0.372431 0.0410453 0.257045
768 4 0.403254 0.0536808 0.25099
769 4 0.471715 0.0594825 0.279299
767 2 0.437484 0.0565817 0.265144
443 2 0.341775 0.209172 0.370421
445 4 0.366952 0.194276 0.360428
408 4 0.459735 0.225719 0.351029
407 2 0.422098 0.22023 0.346772
409 4 0.384461 0.214741 0.342515
1158 4 0.485042 0.243286 0.36371
126 1 0.0920277 0.370299 0.368788
127 3 0.0705743 0.341335 0.35575
747 4 0.237845 0.273526 0.353246
361 4 0.211469 0.257525 0.370529
748 4 0.315124 0.306679 0.360092
746 2 0.276484 0.290103 0.356669
1537 4 0.342517 0.322939 0.34869
1535 2 0.373489 0.35318 0.342285
956 2 0.450303 0.297065 0.251741
958 4 0.413918 0.278338 0.262951
1298 2 0.00486298 0.486083 0.329228
191 1 0.0524534 0.443657 0.291784
1210 4 0.0764771 0.448388 0.35725
336 4 0.0164312 0.395892 0.27138
195 3 0.0269053 0.413614 0.292894
193 3 0.0496069 0.45915 0.263583
192 3 0.0489122 0.461309 0.317725
1299 4 0.0212545 0.4644 0.315406
194 3 0.0849332 0.441505 0.293276
520 4 0.12193 0.430405 0.254107
129 3 0.106064 0.392183 0.343981
1110 4 0.320766 0.469658 0.347536
1195 4 0.341763 0.457565 0.348394
1193 2 0.378841 0.46032 0.34914
1018 4 0.410618 0.423835 0.252723
1016 2 0.412047 0.415922 0.287594
1536 4 0.404462 0.383422 0.33588
1017 4 0.413477 0.40801 0.322466
1194 4 0.41592 0.463075 0.349887
240 3 0.0326803 0.114363 0.471742
712 4 0.262517 0.00524843 0.382567
402 4 0.299074 0.11466 0.41144
401 2 0.271473 0.124708 0.425341
1340 2 0.398661 0.088304 0.465849
1341 4 0.384337 0.112548 0.476981
762 4 0.424204 0.0646176 0.428768
1342 4 0.412985 0.06406 0.454716
1026 4 0.484806 0.0437974 0.470329
763 4 0.476939 0.0354646 0.441703
761 2 0.450572 0.0500411 0.435235
1354 4 0.999602 0.221625 0.410267
1143 4 0.0581504 0.19385 0.487783
1433 2 0.0896708 0.191352 0.439448
1434 4 0.0612137 0.181587 0.464089
359 2 0.178273 0.2395 0.388127
416 2 0.136971 0.147877 0.487717
360 4 0.145077 0.221475 0.405724
1435 4 0.118128 0.201116 0.414808
417 4 0.100029 0.124947 0.491742
1462 4 0.201657 0.17732 0.473805
418 4 0.173914 0.170806 0.483692
403 4 0.243872 0.134756 0.439243
9 3 0.264926 0.22418 0.39719
1461 4 0.257946 0.162857 0.440317
6 1 0.293667 0.23953 0.416695
8 3 0.284818 0.232134 0.448811
1460 2 0.229801 0.170088 0.457061
388 4 0.280424 0.230973 0.477733
444 4 0.316598 0.224068 0.380415
10 3 0.320185 0.230165 0.408358
784 4 0.378092 0.13644 0.469741
783 4 0.328925 0.132028 0.415523
782 2 0.353508 0.134234 0.442632
1335 4 0.146548 0.367833 0.393215
128 3 0.118505 0.365615 0.385864
7 3 0.304272 0.272325 0.412558
1208 2 0.078567 0.474337 0.380787
1209 4 0.080657 0.500286 0.404324
350 2 0.0236501 0.39458 0.401673
352 4 0.0611024 0.39849 0.401764
997 4 0.066879 0.410207 0.427411
130 3 0.0731039 0.381396 0.388906
1334 2 0.180416 0.387826 0.408763
996 4 0.110122 0.382493 0.465515
382 4 0.140249 0.391351 0.475147
380 2 0.165706 0.423974 0.484648
995 2 0.0885003 0.39635 0.446463
381 4 0.191162 0.456597 0.49415
705 4 0.296338 0.407829 0.472436
704 2 0.268085 0.415109 0.455954
1336 4 0.214285 0.407819 0.42431
706 4 0.239832 0.422389 0.439472
372 4 0.326467 0.419098 0.48156
858 4 0.0380441 0.101655 0.545174
756 4 0.0621578 0.115765 0.563065
857 2 0.000415003 0.0963884 0.549003
757 4 0.129483 0.105882 0.56613
755 2 0.0958206 0.110823 0.564598
1553 2 0.179829 0.00010041 0.609973
677 2 0.454042 0.0746801 0.551691
678 4 0.447632 0.057848 0.519802
679 4 0.460452 0.0915121 0.58358
1302 4 0.473062 0.107075 0.605706
1142 2 0.0257558 0.188282 0.506829
386 2 0.299633 0.239397 0.509059
1184 2 0.353051 0.240447 0.59163
387 4 0.318842 0.24782 0.540385
1186 4 0.328547 0.243904 0.566798
1185 4 0.377554 0.236989 0.616462
903 4 0.480388 0.249941 0.534136
1020 4 0.091692 0.372085 0.607346
1156 4 0.48487 0.315436 0.581331
1371 4 0.0652271 0.481473 0.623739
1021 4 0.16837 0.391593 0.597136
1019 2 0.130031 0.381839 0.602241
279 4 0.182933 0.402365 0.623168
371 2 0.347609 0.411529 0.50716
373 4 0.368751 0.403959 0.53276
1554 4 0.210465 0.00147764 0.629829
1245 4 0.243542 0.031863 0.725579
1244 2 0.272254 0.0619548 0.714316
1246 4 0.300967 0.0920466 0.703054
354 4 0.326793 0.114635 0.693042
353 2 0.35963 0.118582 0.710656
355 4 0.392468 0.12253 0.728269
1197 4 0.399165 0.105847 0.746794
55 3 0.438086 0.00620697 0.636425
54 3 0.460907 0.0363688 0.680355
1297 4 0.485478 0.0279743 0.684905
51 1 0.441444 0.00561898 0.669068
348 4 0.386141 0.00395952 0.674684
308 2 0.0236179 0.155627 0.707364
309 4 0.0601193 0.161286 0.717369
1116 4 0.0799214 0.181636 0.734252
1449 4 0.40465 0.237382 0.629714
1448 2 0.435095 0.229759 0.640453
1450 4 0.465541 0.222136 0.651191
487 4 0.495538 0.22808 0.644137
1106 2 0.00440145 0.308079 0.739934
1597 4 0.0160674 0.364818 0.675791
1595 2 0.0437976 0.369028 0.651163
1596 4 0.0715279 0.373238 0.626536
500 2 0.0345111 0.255639 0.707751
501 4 0.0694676 0.282329 0.704368
1500 4 0.0923354 0.300247 0.723021
1499 2 0.126759 0.297492 0.71765
843 4 0.0540801 0.327863 0.749031
1501 4 0.161182 0.294736 0.712279
1207 4 0.187394 0.308335 0.729261
1205 2 0.219012 0.338397 0.734219
1206 4 0.250629 0.368458 0.739177
547 4 0.317721 0.3621 0.683721
1370 2 0.0464595 0.467308 0.654265
1372 4 0.027692 0.453143 0.684791
224 3 0.00414297 0.428343 0.692114
278 2 0.218865 0.403569 0.629739
280 4 0.254796 0.404773 0.63631
546 4 0.271448 0.390809 0.651962
545 2 0.294584 0.376454 0.667842
1559 2 0.485241 0.379205 0.674066
1455 4 0.456183 0.465103 0.714012
1454 2 0.447127 0.429871 0.708526
456 4 0.476731 0.490877 0.720821
1561 4 0.458855 0.391769 0.686227
1456 4 0.438072 0.394639 0.70304
1471 4 0.0185092 0.0411405 0.778178
299 2 0.0456699 0.123886 0.837957
301 4 0.0191692 0.0990836 0.858417
1470 4 0.0919365 0.0829415 0.76126
1469 2 0.0552228 0.062041 0.769719
1138 4 0.122643 0.094666 0.765231
1136 2 0.161173 0.111281 0.769525
439 4 0.225586 0.0286491 0.751293
437 2 0.186674 0.0158508 0.753118
438 4 0.147762 0.00305247 0.754942
1254 4 0.260594 0.00263357 0.86531
1196 2 0.383763 0.0797997 0.771283
1198 4 0.368362 0.0537524 0.795773
1113 4 0.344649 0.0285348 0.80598
1112 2 0.311138 0.016122 0.824381
708 4 0.376476 0.102395 0.87392
707 2 0.407077 0.0925024 0.872686
1114 4 0.277628 0.00370922 0.842783
709 4 0.437677 0.0826102 0.871452
300 4 0.0721706 0.148689 0.817497
1115 2 0.0879022 0.174317 0.767812
1117 4 0.0958831 0.166997 0.801372
1137 4 0.199702 0.127896 0.77382
1347 4 0.230898 0.134124 0.766277
1348 4 0.307712 0.162967 0.754177
1346 2 0.269305 0.148545 0.760227
576 4 0.332575 0.16181 0.770574
575 2 0.364987 0.158247 0.782425
577 4 0.397398 0.154685 0.794275
1107 4 0.0332371 0.305016 0.75957
251 2 0.0965268 0.330801 0.849323
252 4 0.1032 0.345181 0.816262
844 4 0.117916 0.345965 0.790162
842 2 0.0859982 0.336914 0.769596
544 4 0.294797 0.489339 0.8511
1273 4 0.275862 0.492206 0.829574
1153 4 0.378471 0.11759 0.899078
612 4 0.462278 0.0948524 0.887587
1510 4 0.071673 0.195007 9.44877e-05
1281 4 0.139632 0.200159 0.912744
1282 4 0.169978 0.190652 0.975503
1280 2 0.154805 0.195405 0.944123
385 4 0.271981 0.20701 0.939089
383 2 0.257688 0.214016 0.97002
1358 2 0.338679 0.22153 0.928828
1360 4 0.300454 0.213772 0.92534
1126 4 0.402966 0.245888 0.946957
1359 4 0.376904 0.229287 0.932317
1171 4 0.436443 0.17496 0.95996
1152 4 0.404773 0.164373 0.953507
1151 2 0.391622 0.140981 0.926292
1169 2 0.470597 0.200974 0.96845
611 2 0.489349 0.127136 0.895766
253 4 0.0898535 0.316421 0.882385
906 4 0.0560685 0.266918 0.884237
905 2 0.0913057 0.268358 0.894136
586 4 0.0278262 0.264396 0.874833
907 4 0.126543 0.269798 0.904035
1526 2 0.190581 0.307443 0.928492
1528 4 0.155387 0.286649 0.915966
1527 4 0.225775 0.328238 0.941018
393 4 0.247929 0.315488 0.937433
394 4 0.319437 0.332818 0.964891
392 2 0.283683 0.324153 0.951162
1269 4 0.334664 0.322883 0.985433
1268 2 0.372549 0.340735 0.992332
60 3 0.492233 0.309963 0.903588
1125 4 0.470294 0.293275 0.921229
1124 2 0.43663 0.269581 0.934093
564 4 0.210784 0.453955 0.980059
1478 2 0.308112 0.43362 0.941073
1479 4 0.283277 0.420398 0.968437
565 4 0.193624 0.382931 0.983841
563 2 0.202204 0.418443 0.98195
793 4 0.281566 0.39956 0.986357
542 2 0.307821 0.479038 0.881048
543 4 0.320846 0.468737 0.910996
1480 4 0.332946 0.446843 0.913709
306 4 0.0341299 0.616611 0.0700142
1593 4 0.0176488 0.588146 0.0652166
1592 2 0.0494027 0.579969 0.0662808
1133 2 0.0189846 0.510966 0.0124036
1062 4 0.00705638 0.609528 0.000708989
1594 4 0.0811566 0.571792 0.067345
1248 4 0.0704702 0.518003 0.0317675
423 4 0.106883 0.578169 0.0830769
422 2 0.117718 0.588854 0.116909
1247 2 0.105188 0.530171 0.0153782
1134 4 0.0490215 0.500346 0.0146166
697 4 0.225362 0.526078 0.020755
695 2 0.22972 0.546607 0.0501235
696 4 0.234078 0.567137 0.0794921
312 4 0.370071 0.509266 0.0715469
311 2 0.354492 0.509602 0.104002
305 2 0.00945277 0.633581 0.0734242
1485 4 0.456816 0.747018 0.0573701
1181 2 0.0181155 0.771273 0.118096
1089 4 0.0264968 0.861736 0.120138
115 3 0.129462 0.835205 0.119417
615 4 0.109368 0.772681 0.0440073
614 2 0.138305 0.775523 0.0211792
1484 2 0.436716 0.755094 0.0835825
1023 4 0.457827 0.770076 0.0388277
1022 2 0.490981 0.788074 0.0211575
1486 4 0.416616 0.763171 0.109795
1378 4 0.000921867 0.928815 0.0743756
1376 2 0.0295888 0.957708 0.0878957
1377 4 0.0582557 0.9866 0.101416
1011 4 0.0913157 0.995516 0.100413
1010 2 0.121679 0.000279723 0.122107
910 4 0.246473 0.970379 0.0653566
908 2 0.263545 0.964116 0.0949459
1067 2 0.283972 0.921891 0.00382362
1068 4 0.301324 0.925439 0.0359972
807 4 0.310782 0.938824 0.0623355
806 2 0.336209 0.922948 0.0676681
808 4 0.361637 0.907072 0.0730006
667 4 0.380919 0.910414 0.0509894
665 2 0.416835 0.913879 0.0609195
666 4 0.45275 0.917344 0.0708496
1078 4 0.487445 0.939036 0.117292
1028 2 0.00443601 0.584406 0.138449
1029 4 0.0378599 0.609608 0.149945
1497 4 0.0905841 0.522599 0.128542
424 4 0.128554 0.59954 0.150741
738 4 0.15158 0.603468 0.169602
737 2 0.164347 0.583484 0.191091
739 4 0.177114 0.563501 0.21258
497 2 0.22211 0.541758 0.223696
498 4 0.24838 0.526635 0.219532
125 3 0.265675 0.540565 0.193736
499 4 0.19584 0.556882 0.227861
123 3 0.301665 0.590971 0.180572
369 4 0.288856 0.520046 0.153154
121 1 0.298598 0.55922 0.184143
124 3 0.306206 0.547778 0.155199
122 3 0.321945 0.557983 0.207169
1231 4 0.33997 0.562995 0.229364
1229 2 0.365439 0.597086 0.226876
1350 4 0.330488 0.51805 0.162509
313 4 0.338914 0.509938 0.136457
1349 2 0.356725 0.527506 0.189176
1351 4 0.382963 0.536962 0.215842
1405 4 0.413805 0.546678 0.220768
1403 2 0.452071 0.564047 0.22613
1404 4 0.490338 0.581415 0.231491
1413 4 0.0583581 0.632313 0.134894
1412 2 0.0778757 0.667745 0.139382
1414 4 0.0973933 0.703177 0.143869
978 4 0.16364 0.68893 0.202108
977 2 0.198417 0.698467 0.218132
979 4 0.233194 0.708003 0.234156
885 4 0.266223 0.717154 0.230366
1511 2 0.368149 0.669155 0.24159
1513 4 0.394534 0.658246 0.226449
1230 4 0.390908 0.631178 0.224388
1222 4 0.00467709 0.848445 0.139457
1088 2 0.0631484 0.874567 0.132403
1183 4 0.0510543 0.770335 0.131848
114 3 0.0847381 0.843298 0.143404
111 1 0.113733 0.835501 0.148184
113 3 0.103881 0.805531 0.162872
112 3 0.136812 0.8583 0.167991
83 3 0.176175 0.962735 0.180069
81 1 0.177572 0.992135 0.191989
877 4 0.146238 0.879865 0.187926
875 2 0.149143 0.913855 0.192763
876 4 0.152048 0.947846 0.1976
82 3 0.155893 0.986628 0.218317
657 4 0.141018 0.955931 0.220007
1090 4 0.0998 0.887398 0.144668
909 4 0.280616 0.957853 0.124535
833 2 0.291997 0.966387 0.174088
834 4 0.295563 0.988809 0.201766
835 4 0.288431 0.943966 0.14641
1077 4 0.44972 0.885202 0.162665
1540 4 0.458431 0.893059 0.187554
1538 2 0.481288 0.884411 0.210544
1076 2 0.468582 0.912119 0.139979
601 4 0.0142199 0.562294 0.355678
1032 4 0.243102 0.572358 0.357028
1031 2 0.256176 0.586303 0.324596
1033 4 0.26925 0.600247 0.292163
143 3 0.346096 0.603083 0.366444
1111 4 0.340919 0.541159 0.349868
1109 2 0.330843 0.505409 0.348702
145 3 0.366495 0.563552 0.359656
950 2 0.00778026 0.63092 0.365268
165 3 0.157409 0.660383 0.373684
634 4 0.221292 0.708991 0.357659
632 2 0.244874 0.699949 0.335888
884 2 0.29038 0.736912 0.255905
633 4 0.268456 0.690906 0.314117
205 3 0.324509 0.661312 0.324024
201 1 0.301607 0.659086 0.299726
204 3 0.318689 0.679126 0.274433
203 3 0.28658 0.627436 0.289047
202 3 0.275753 0.66855 0.310995
1512 4 0.341764 0.680064 0.25673
1322 2 0.365962 0.684112 0.357993
1324 4 0.351601 0.685862 0.325282
1331 2 0.457944 0.709767 0.342786
1333 4 0.452933 0.730703 0.316759
1332 4 0.462955 0.688832 0.368812
1309 4 0.471656 0.666007 0.374356
1548 4 0.00105177 0.774201 0.358254
447 4 0.0029146 0.843765 0.365676
725 2 0.119757 0.848619 0.321543
1549 4 0.0738747 0.802353 0.332681
727 4 0.0856281 0.832474 0.338368
1547 2 0.0374632 0.788277 0.345468
726 4 0.153886 0.864764 0.304718
886 4 0.314538 0.756669 0.281445
33 3 0.351147 0.754961 0.337374
489 4 0.394195 0.828002 0.334046
32 3 0.375622 0.780407 0.291615
34 3 0.366273 0.809096 0.332476
31 1 0.353301 0.779766 0.316388
35 3 0.321225 0.774728 0.304026
1338 4 0.400574 0.781928 0.305222
488 2 0.427051 0.840229 0.35343
1339 4 0.459137 0.758583 0.309035
1337 2 0.429855 0.770255 0.307128
490 4 0.459907 0.852456 0.372813
716 2 0.0688514 0.974622 0.311092
717 4 0.0523917 0.988596 0.335848
718 4 0.085311 0.960649 0.286337
656 2 0.124474 0.951749 0.252612
658 4 0.107929 0.947567 0.285216
1291 4 0.179797 0.882596 0.31326
1290 4 0.257731 0.908833 0.314195
1289 2 0.218764 0.895715 0.313728
398 2 0.0561798 0.614263 0.423359
231 1 0.04913 0.566517 0.487535
234 3 0.0479212 0.564956 0.454111
1225 4 0.0750351 0.612862 0.473981
399 4 0.0598919 0.595727 0.45215
233 3 0.0163489 0.561645 0.499724
933 4 0.187487 0.605758 0.472299
235 3 0.06032 0.543801 0.499469
232 3 0.0719932 0.596622 0.496687
258 4 0.216399 0.608611 0.477317
1550 2 0.267948 0.559127 0.394123
1552 4 0.23339 0.556793 0.38124
141 1 0.357303 0.581273 0.381881
1551 4 0.302506 0.561461 0.407006
1187 2 0.325089 0.606935 0.472025
144 3 0.385496 0.597603 0.401658
1188 4 0.346901 0.58694 0.471941
142 3 0.330531 0.56098 0.400546
1308 4 0.411582 0.617457 0.409445
274 4 0.359178 0.58998 0.498705
659 2 0.48255 0.584674 0.495707
698 2 0.999741 0.653965 0.44277
400 4 0.0524677 0.632799 0.394568
700 4 0.0386643 0.668355 0.444466
951 4 0.0212876 0.626624 0.397654
1385 2 0.106626 0.691209 0.434891
1386 4 0.0678609 0.680661 0.433136
162 3 0.205949 0.703438 0.383146
1223 2 0.106737 0.638328 0.48812
164 3 0.158865 0.694044 0.414468
1387 4 0.145391 0.701756 0.436645
161 1 0.177767 0.67969 0.397163
163 3 0.189718 0.661682 0.417702
1189 4 0.303278 0.626931 0.472109
932 2 0.202145 0.632549 0.448441
528 4 0.292363 0.748743 0.429206
934 4 0.216802 0.65934 0.424584
529 4 0.326378 0.70969 0.463467
527 2 0.30937 0.729216 0.446336
1243 4 0.350859 0.703725 0.469721
1241 2 0.363467 0.68715 0.444242
1242 4 0.376075 0.670575 0.418762
1323 4 0.380323 0.682361 0.390704
765 4 0.419802 0.744323 0.494545
1307 2 0.441619 0.641732 0.391901
1212 4 0.0179472 0.86804 0.381717
1211 2 0.0520485 0.870626 0.395932
1361 2 0.0722767 0.822078 0.492447
1363 4 0.0544673 0.81274 0.460544
1213 4 0.0861497 0.873212 0.410146
604 4 0.23043 0.754182 0.473821
602 2 0.260892 0.785532 0.471064
603 4 0.291353 0.816882 0.468307
610 4 0.488301 0.864237 0.382644
860 2 0.0270247 0.973463 0.496699
1149 4 0.177249 0.925309 0.440804
918 4 0.204183 0.947622 0.444738
1148 2 0.170615 0.908693 0.472809
917 2 0.226792 0.961802 0.41615
919 4 0.249401 0.975983 0.387562
847 4 0.334573 0.98137 0.470109
845 2 0.361262 0.984582 0.495534
1042 4 0.084207 0.546188 0.516558
1040 2 0.107242 0.560669 0.544815
1041 4 0.130277 0.57515 0.573072
458 2 0.102755 0.534931 0.619555
459 4 0.11825 0.564991 0.599888
824 2 0.204609 0.615046 0.587649
825 4 0.197439 0.580072 0.592733
259 4 0.256066 0.590071 0.528539
1314 4 0.280515 0.606549 0.54273
257 2 0.236233 0.599341 0.502928
1313 2 0.318757 0.619805 0.549688
272 2 0.387136 0.576916 0.503169
247 3 0.374547 0.617761 0.56211
248 3 0.407014 0.621757 0.606519
273 4 0.415094 0.563853 0.507634
660 4 0.444968 0.568556 0.504724
1465 4 0.00288173 0.6479 0.615086
479 2 0.127938 0.719505 0.582602
481 4 0.111605 0.68483 0.592277
1224 4 0.138439 0.663795 0.502258
411 4 0.162629 0.686803 0.502978
410 2 0.189931 0.72016 0.501531
826 4 0.211779 0.65002 0.582565
1315 4 0.356999 0.633062 0.556647
250 3 0.389906 0.662049 0.592575
1119 4 0.385507 0.671982 0.617232
246 1 0.400478 0.638773 0.581067
249 3 0.430323 0.652686 0.562531
867 4 0.44925 0.679241 0.552815
1546 4 0.426477 0.642232 0.621247
866 2 0.481916 0.700073 0.535947
1362 4 0.0900862 0.831417 0.52435
480 4 0.144271 0.75418 0.572927
1580 2 0.264236 0.836282 0.609216
1582 4 0.282898 0.868666 0.594292
412 4 0.217233 0.753518 0.500083
1581 4 0.245574 0.803898 0.624139
1562 2 0.401457 0.82876 0.619128
1564 4 0.428679 0.837741 0.593327
939 4 0.49989 0.79195 0.533765
766 4 0.484217 0.763903 0.535029
764 2 0.45201 0.754113 0.514787
862 4 0.0622917 0.984123 0.511939
537 4 0.0905322 0.987402 0.520553
1555 4 0.149193 0.998723 0.590117
536 2 0.115668 0.984118 0.544809
538 4 0.140803 0.980833 0.569065
1150 4 0.163982 0.892077 0.504814
820 4 0.29556 0.876772 0.621014
818 2 0.321869 0.910617 0.620373
846 4 0.387951 0.987794 0.520958
819 4 0.348179 0.944462 0.619731
967 4 0.403077 0.9888 0.545771
965 2 0.414883 0.987505 0.579632
966 4 0.426689 0.986209 0.613494
460 4 0.0872596 0.50487 0.639222
119 3 0.183654 0.600152 0.666537
1398 4 0.236507 0.604897 0.711428
1397 2 0.242129 0.574216 0.7167
1399 4 0.247751 0.543535 0.721972
642 4 0.27687 0.557926 0.732755
641 2 0.312243 0.566476 0.747307
525 4 0.375517 0.557306 0.69958
214 3 0.388658 0.556474 0.724789
524 2 0.403849 0.557418 0.677213
526 4 0.432182 0.55753 0.654846
891 4 0.460338 0.556687 0.647
890 2 0.479705 0.535804 0.637818
455 2 0.480571 0.513695 0.748196
892 4 0.499072 0.514921 0.628637
1570 4 0.042458 0.711784 0.725013
1568 2 0.0788416 0.736271 0.722396
1452 4 0.106459 0.654504 0.688691
1451 2 0.137117 0.654754 0.669542
1453 4 0.167776 0.655003 0.650393
120 3 0.191315 0.641203 0.700881
436 4 0.173488 0.639256 0.725541
1408 4 0.195393 0.677987 0.650417
1406 2 0.228149 0.707561 0.649954
116 1 0.207151 0.629212 0.678423
117 3 0.234582 0.624003 0.692543
118 3 0.21981 0.651137 0.653407
630 4 0.306167 0.710169 0.717396
1276 4 0.301725 0.733227 0.706494
629 2 0.329466 0.696529 0.700672
1407 4 0.260905 0.737136 0.649491
631 4 0.352765 0.682889 0.683948
1120 4 0.36988 0.667626 0.68788
1118 2 0.377693 0.669804 0.652556
1544 2 0.443087 0.643265 0.653455
1545 4 0.459697 0.644298 0.685664
1458 4 0.0023099 0.847328 0.630719
1457 2 0.0187823 0.828975 0.650411
1459 4 0.0352547 0.810623 0.670103
685 4 0.0525623 0.801533 0.687246
683 2 0.0898985 0.815222 0.697576
684 4 0.127235 0.828911 0.707905
1569 4 0.115225 0.760758 0.71978
1162 4 0.13577 0.812683 0.726162
1160 2 0.172753 0.82854 0.737112
1161 4 0.209735 0.844398 0.748062
376 4 0.268321 0.763177 0.639144
374 2 0.305606 0.785197 0.643288
375 4 0.342891 0.807217 0.647432
1563 4 0.374235 0.819779 0.644929
1275 4 0.33002 0.796941 0.74022
1274 2 0.315873 0.765084 0.723357
1179 4 0.355919 0.820535 0.73646
1261 4 0.490709 0.770133 0.681534
270 4 0.470197 0.77015 0.704406
269 2 0.473027 0.78257 0.738186
1591 4 0.0385672 0.967208 0.738676
1589 2 0.00447813 0.941731 0.729062
471 4 0.233511 0.998954 0.646509
472 4 0.298595 0.994014 0.672466
470 2 0.266053 0.996484 0.659487
349 4 0.308361 0.972865 0.677124
347 2 0.347251 0.988412 0.675904
53 3 0.408778 0.994145 0.683433
52 3 0.458324 0.985456 0.676927
419 2 0.447567 0.9559 0.732342
420 4 0.45663 0.967475 0.698463
254 2 0.137389 0.53612 0.821126
255 4 0.143515 0.526161 0.788005
256 4 0.131263 0.54608 0.854248
1271 2 0.262416 0.518777 0.830971
1272 4 0.24897 0.545348 0.832369
643 4 0.347617 0.575026 0.761859
1176 4 0.419027 0.614327 0.778659
211 1 0.392934 0.561038 0.757855
212 3 0.361296 0.557048 0.771442
215 3 0.416191 0.591393 0.764221
213 3 0.404603 0.538473 0.771011
457 4 0.48441 0.536512 0.77557
1284 4 0.0438423 0.708993 0.7539
1285 4 0.0303911 0.648943 0.792252
1283 2 0.0371167 0.678968 0.773076
285 4 0.0509188 0.649824 0.813768
284 2 0.0807828 0.639482 0.808255
286 4 0.110647 0.629139 0.802742
435 4 0.127746 0.64208 0.78026
434 2 0.150617 0.640668 0.752901
431 2 0.331903 0.716433 0.859943
433 4 0.301348 0.711674 0.838505
593 2 0.354817 0.645145 0.8609
1175 2 0.395148 0.626391 0.79666
1177 4 0.371269 0.638455 0.81466
594 4 0.377262 0.659808 0.832344
328 4 0.00967253 0.77737 0.804986
37 3 0.114354 0.829391 0.811797
327 4 0.0835338 0.818598 0.821048
326 2 0.0466032 0.797984 0.813017
276 4 0.140349 0.844865 0.85909
36 1 0.146984 0.853553 0.811018
38 3 0.1661 0.847177 0.786379
40 3 0.163113 0.854556 0.839842
621 4 0.238253 0.843469 0.750695
620 2 0.265287 0.84503 0.775217
1180 4 0.314617 0.847838 0.777695
622 4 0.292321 0.846592 0.799739
1178 2 0.335268 0.834186 0.757078
1542 4 0.414888 0.868334 0.760857
427 4 0.476826 0.774813 0.856785
425 2 0.470709 0.772026 0.821177
426 4 0.464591 0.769239 0.785569
271 4 0.475858 0.794989 0.771966
39 3 0.143531 0.882721 0.805394
340 4 0.141617 0.91638 0.773366
338 2 0.131944 0.937163 0.79655
339 4 0.122271 0.957947 0.819734
421 4 0.438505 0.944324 0.766222
341 2 0.490783 0.973004 0.82879
343 4 0.461164 0.941767 0.8223
1543 4 0.458389 0.915517 0.809769
1541 2 0.436639 0.891926 0.785313
1063 4 0.000812501 0.542025 0.98708
1061 2 0.00393444 0.575776 0.993894
689 2 0.0331925 0.583644 0.912234
691 4 0.01654 0.607923 0.910491
690 4 0.049845 0.559364 0.913976
507 4 0.051062 0.551623 0.885123
508 4 0.124037 0.554368 0.879483
506 2 0.0875495 0.552995 0.882303
1249 4 0.139906 0.54234 0.998989
566 2 0.19171 0.559741 0.978981
568 4 0.221866 0.588053 0.966537
1250 2 0.280559 0.602883 0.93289
1252 4 0.251602 0.591919 0.957012
567 4 0.161553 0.531429 0.991424
1251 4 0.309516 0.613847 0.908767
922 4 0.0412364 0.652851 0.907693
920 2 0.0799887 0.665151 0.911278
515 2 0.179578 0.721047 0.928977
516 4 0.142072 0.701068 0.922499
921 4 0.118741 0.677451 0.914862
517 4 0.217084 0.741025 0.935455
432 4 0.362458 0.721192 0.881381
595 4 0.332373 0.630481 0.889455
994 4 0.389143 0.739436 0.892054
799 4 0.0278204 0.863976 0.950661
811 4 0.01084 0.789096 0.969673
628 4 0.0540733 0.860841 0.960613
275 2 0.118515 0.829936 0.887911
277 4 0.0966798 0.815007 0.916732
810 4 0.0762097 0.795192 0.934858
809 2 0.0435248 0.792144 0.952266
626 2 0.0926951 0.874268 0.955764
682 4 0.246616 0.763504 0.940379
616 4 0.167243 0.778365 0.998351
681 4 0.312912 0.82145 0.946269
680 2 0.279764 0.792477 0.943324
831 4 0.338189 0.825586 0.961042
830 2 0.37557 0.829938 0.957251
1488 4 0.441531 0.849519 0.959379
832 4 0.412951 0.834289 0.95346
1487 2 0.476774 0.859497 0.974558
992 2 0.427729 0.750075 0.888052
75 3 0.484926 0.76516 0.905526
993 4 0.466315 0.760714 0.88405
531 4 0.161559 0.891358 0.95903
627 4 0.131317 0.887694 0.950916
530 2 0.198805 0.897096 0.966102
532 4 0.236051 0.902835 0.973174
1255 4 0.213395 0.935901 0.884153
1069 4 0.26662 0.918342 0.97165
1253 2 0.236994 0.969267 0.874732
574 4 0.585849 0.0759534 0.0448651
1232 2 0.575566 0.100428 0.0884593
1233 4 0.567696 0.0695443 0.0704681
572 2 0.592131 0.0454579 0.0490547
573 4 0.598414 0.0149624 0.0532442
19 3 0.602781 0.00340757 0.0770818
20 3 0.659874 0.0249532 0.0895647
637 4 0.679437 0.0241232 0.111351
592 4 0.73527 0.113608 0.07349
590 2 0.744215 0.111591 0.0388356
635 2 0.718328 0.03796 0.108993
636 4 0.75722 0.0517968 0.106635
591 4 0.75316 0.109574 0.0041811
1519 4 0.783586 0.0490225 0.116798
580 4 0.533375 0.177439 0.10466
578 2 0.551624 0.207647 0.0858564
579 4 0.569874 0.237855 0.0670532
753 4 0.530617 0.151737 0.113478
646 4 0.621725 0.243445 0.0460161
1147 4 0.606874 0.159751 0.109378
1234 4 0.583435 0.131311 0.106451
1145 2 0.642205 0.182505 0.119704
1083 4 0.780803 0.189592 0.117618
1082 2 0.800862 0.175758 0.0964755
1084 4 0.82092 0.161924 0.0753327
230 3 0.850271 0.164268 0.0770308
226 1 0.88569 0.174705 0.0775156
229 3 0.900155 0.2079 0.0816781
227 3 0.897099 0.167139 0.0486561
1036 4 0.879646 0.172706 0.0272085
228 3 0.896221 0.15965 0.1023
1304 2 0.953539 0.179743 0.121595
913 4 0.981711 0.192697 0.00315117
1305 4 0.99184 0.189357 0.116352
1473 4 0.50753 0.284831 0.0216834
644 2 0.653142 0.256908 0.024836
1065 4 0.746601 0.357665 0.0142725
1064 2 0.718139 0.327007 0.00388155
645 4 0.684558 0.270372 0.00365581
1430 2 0.944453 0.308657 0.0995441
1432 4 0.976502 0.316652 0.079325
1431 4 0.912404 0.300662 0.119763
415 4 0.769559 0.409477 0.0377082
413 2 0.760708 0.409208 0.002722
1375 4 0.848432 0.465605 0.0995591
1374 4 0.857377 0.46348 0.028138
1373 2 0.852904 0.464543 0.0638486
618 4 0.941352 0.383282 0.00577373
1517 2 0.793572 0.0272261 0.138414
1518 4 0.803557 0.00542975 0.160031
87 3 0.97353 0.00633498 0.238694
316 4 0.895892 0.00206444 0.248179
752 2 0.538977 0.153523 0.148679
754 4 0.547337 0.155308 0.18388
1146 4 0.677537 0.205258 0.130031
672 4 0.697601 0.192831 0.128724
673 4 0.774713 0.210132 0.128909
671 2 0.736157 0.201481 0.128817
606 4 0.792364 0.234339 0.243804
605 2 0.822997 0.224466 0.243353
720 4 0.933369 0.210282 0.237386
1306 4 0.915238 0.170129 0.126838
745 4 0.954671 0.238258 0.235869
607 4 0.85363 0.214593 0.242902
893 2 0.536965 0.36125 0.250542
1071 4 0.618016 0.324515 0.206594
1070 2 0.630608 0.335427 0.239992
1096 4 0.646987 0.252316 0.173458
1094 2 0.670659 0.27516 0.197417
155 3 0.742492 0.350774 0.178817
1095 4 0.694331 0.298003 0.221375
153 3 0.72302 0.31861 0.222117
151 1 0.751964 0.341265 0.207271
152 3 0.775962 0.327542 0.201378
154 3 0.766942 0.367717 0.22735
1389 4 0.884679 0.256268 0.190708
743 2 0.989667 0.262765 0.227062
1388 2 0.901484 0.284429 0.168805
1390 4 0.918289 0.31259 0.146902
1074 4 0.504204 0.47351 0.203684
894 4 0.560891 0.395526 0.245234
928 4 0.587948 0.41722 0.238804
926 2 0.626863 0.431728 0.240587
1060 4 0.693046 0.456625 0.126506
927 4 0.665779 0.446237 0.24237
1058 2 0.723116 0.458216 0.147304
1059 4 0.753186 0.459807 0.168102