ITEM: TIMESTEP
3092000
ITEM: NUMBER OF ATOMS
4800
ITEM: BOX BOUNDS xy xz yz pp pp pp
-9.9985700000000008e+00 9.9985700000000008e+00 0.0000000000000000e+00
-9.9985700000000008e+00 9.9985700000000008e+00 0.0000000000000000e+00
-9.9985700000000008e+00 9.9985700000000008e+00 0.0000000000000000e+00
ITEM: ATOMS id type xs ys zs
3482 4 0.0257843 0.0343877 0.0116226
2639 4 0.00738886 0.0295994 0.0117937
4769 4 0.128239 0.0337063 0.0264385
1110 4 0.136884 0.0357709 0.0442906
1108 2 0.124318 0.0417914 0.0650526
4768 2 0.107531 0.036344 0.0126756
4052 4 0.420777 0.0789735 0.0575684
3993 4 0.498389 0.0258169 0.0332953
3879 4 0.43384 0.0729751 0.0430611
1715 4 0.991815 0.162667 0.000625511
1936 2 0.207913 0.115153 0.0647988
1938 4 0.204454 0.116851 0.0400939
4224 4 0.338496 0.0920825 0.0335109
4222 2 0.342886 0.108617 0.051746
3878 4 0.425848 0.110514 0.0110053
3877 2 0.429844 0.0917445 0.0270332
3386 4 0.486872 0.133267 0.100257
3385 2 0.497153 0.114006 0.0880715
882 4 0.0589669 0.16949 0.0136935
403 3 0.0590951 0.177261 0.0321154
966 4 0.039282 0.201893 0.0576618
401 1 0.0719347 0.190924 0.0457859
404 3 0.0583532 0.201734 0.0611836
964 2 0.0202249 0.217021 0.0634211
402 3 0.0871423 0.177914 0.057127
965 4 0.00116794 0.232149 0.0691803
405 3 0.0831039 0.206246 0.0331716
3516 4 0.0917668 0.166 0.0715552
1278 4 0.170433 0.189306 0.041511
1276 2 0.179777 0.207291 0.0561545
1277 4 0.189121 0.225276 0.0707979
1383 4 0.248181 0.228031 0.0620932
3681 4 0.248452 0.211326 0.0736145
1381 2 0.238458 0.240095 0.0817176
3679 2 0.267117 0.195523 0.0684114
2802 4 0.298532 0.182548 0.0471354
2800 2 0.295322 0.176333 0.0231298
3680 4 0.285781 0.17972 0.0632083
3263 4 0.426929 0.191468 0.058025
3262 2 0.439571 0.179053 0.0756675
1756 2 0.0270387 0.316363 0.0810082
1758 4 0.0314966 0.304695 0.0593473
3312 4 0.017407 0.298459 0.046662
3310 2 0.00416851 0.310074 0.0289133
1553 4 0.0991401 0.300164 0.00988136
94 3 0.0828261 0.287868 0.0614172
93 3 0.0930855 0.304297 0.0287182
92 3 0.114579 0.277592 0.0441303
1303 2 0.156954 0.276326 0.0351227
91 1 0.10074 0.295383 0.0487269
1304 4 0.133465 0.270586 0.0414877
95 3 0.112392 0.311154 0.0603075
2145 4 0.128069 0.322162 0.0606435
1305 4 0.180443 0.282066 0.0287577
3985 2 0.213472 0.309173 0.0365004
3986 4 0.197138 0.293053 0.0265751
3987 4 0.229806 0.325294 0.0464258
2412 4 0.238392 0.343821 0.0445298
3122 4 0.429897 0.335717 0.0139777
4093 2 0.473626 0.267587 0.0161411
3121 2 0.443357 0.314652 0.0134492
4095 4 0.45603 0.280423 0.0284203
3123 4 0.456817 0.293587 0.0129208
4094 4 0.491223 0.25475 0.00386181
3179 4 0.0873356 0.343933 0.0654697
2078 4 0.0191717 0.40234 0.0786547
2143 2 0.14318 0.341583 0.0562071
2144 4 0.158291 0.361004 0.0517708
1820 4 0.167845 0.377087 0.0452023
1819 2 0.191967 0.371003 0.042699
1821 4 0.216089 0.364918 0.0401956
810 4 0.224083 0.376768 0.0257253
2410 2 0.253089 0.350921 0.0634711
808 2 0.244526 0.390647 0.0218941
809 4 0.264968 0.404526 0.0180629
1220 4 0.282184 0.412273 0.0133554
3752 4 0.292331 0.409694 0.0656909
2411 4 0.267786 0.358021 0.0824124
3751 2 0.305575 0.389027 0.0609352
3753 4 0.31882 0.368359 0.0561795
1307 4 0.376122 0.341037 0.0782697
1308 4 0.329848 0.353833 0.0642768
1306 2 0.352985 0.347435 0.0712733
3631 2 0.395491 0.356423 0.00713099
3632 4 0.3803 0.376235 0.00851685
4734 4 0.376221 0.394184 0.000731624
1901 4 0.0311056 0.416889 0.0712775
1900 2 0.0443747 0.432383 0.0568185
1902 4 0.0576439 0.447876 0.0423595
2358 4 0.0668153 0.46026 0.0539014
867 4 0.0152257 0.452785 0.00505825
2356 2 0.0814566 0.479303 0.0469567
2357 4 0.0960979 0.498345 0.040012
3442 2 0.310682 0.446614 0.061783
3443 4 0.295845 0.427572 0.0552666
3444 4 0.325519 0.465656 0.0682994
4422 4 0.364057 0.50708 0.024737
792 4 0.432918 0.493034 0.0411138
790 2 0.454627 0.4914 0.0534104
791 4 0.476337 0.489767 0.0657071
1777 2 0.017277 0.00328695 0.133038
1030 2 0.131032 0.00976765 0.136364
1109 4 0.111753 0.047812 0.0858146
1031 4 0.135695 0.0328271 0.144834
2922 4 0.10222 0.0525688 0.102425
2920 2 0.115538 0.0720926 0.110588
1836 4 0.131646 0.051386 0.14934
3849 4 0.191748 0.0498769 0.151706
983 4 0.184279 0.0662786 0.14104
4051 2 0.428069 0.0726559 0.0806359
4053 4 0.435362 0.0663383 0.103703
2868 4 0.437284 0.0697037 0.123034
2866 2 0.441525 0.084847 0.142473
2837 4 0.0106462 0.179959 0.151412
2886 4 0.0965556 0.116829 0.14603
219 3 0.136818 0.141556 0.117358
217 3 0.107928 0.13014 0.138516
216 1 0.126675 0.123139 0.127172
2921 4 0.128856 0.0916165 0.118751
218 3 0.120315 0.107951 0.110824
220 3 0.14104 0.113238 0.14181
984 4 0.144672 0.0949959 0.130681
3515 4 0.123391 0.155844 0.10894
982 2 0.164476 0.0806372 0.13586
1937 4 0.211373 0.113455 0.0895036
2952 4 0.204533 0.130509 0.0966597
2950 2 0.219325 0.145392 0.110257
2951 4 0.234116 0.160275 0.123855
2850 4 0.230969 0.162365 0.143266
4223 4 0.347277 0.125151 0.0699812
2867 4 0.445767 0.0999903 0.161911
2836 2 0.0116425 0.198945 0.135171
2838 4 0.0126387 0.21793 0.118931
4188 4 0.0740961 0.253454 0.177865
3514 2 0.107579 0.160922 0.0902473
3843 4 0.143251 0.246281 0.175887
2848 2 0.217829 0.181579 0.152395
1117 2 0.211824 0.232166 0.134275
1119 4 0.199517 0.214342 0.146765
1118 4 0.224131 0.24999 0.121784
2849 4 0.204689 0.200794 0.161525
4425 4 0.311066 0.231072 0.139078
3101 4 0.306077 0.223539 0.157756
4423 2 0.294771 0.241016 0.122929
3100 2 0.313997 0.200117 0.161483
754 2 0.369987 0.198888 0.139519
755 4 0.38574 0.198543 0.158934
3002 4 0.401683 0.202441 0.146733
756 4 0.354235 0.199232 0.120103
3264 4 0.452213 0.166639 0.0933099
1362 4 0.465603 0.17424 0.107773
3001 2 0.423825 0.209188 0.156188
1360 2 0.461828 0.176863 0.132351
1361 4 0.458052 0.179485 0.156928
1757 4 0.0225808 0.32803 0.102669
2993 4 0.0844351 0.304092 0.115123
3180 4 0.0779697 0.322017 0.109432
2994 4 0.127962 0.281489 0.124882
2992 2 0.106198 0.292791 0.120003
1382 4 0.228735 0.252159 0.101342
569 3 0.225047 0.307383 0.136345
566 1 0.229034 0.314255 0.158146
2963 4 0.245206 0.302814 0.133097
2962 2 0.256532 0.285558 0.118986
4424 4 0.278475 0.25096 0.10678
2964 4 0.267858 0.268302 0.104875
4353 4 0.353442 0.329173 0.159437
1130 4 0.36403 0.323963 0.143673
1129 2 0.387507 0.332327 0.145695
994 2 0.48591 0.311811 0.0790911
996 4 0.461718 0.317718 0.0813417
3178 2 0.0826526 0.332975 0.087451
570 3 0.239691 0.334381 0.158124
3527 4 0.240382 0.339906 0.139139
3526 2 0.250183 0.351603 0.119332
3528 4 0.259984 0.3633 0.0995255
1131 4 0.410983 0.34069 0.147718
4199 4 0.413565 0.359231 0.139312
4198 2 0.431125 0.376155 0.144828
263 3 0.465118 0.384972 0.154934
261 1 0.485984 0.395015 0.156398
4200 4 0.448685 0.393079 0.150344
264 3 0.486357 0.414401 0.143653
265 3 0.502062 0.380621 0.149122
3502 2 0.0623082 0.489993 0.144036
3503 4 0.0636062 0.468132 0.131968
4067 4 0.17051 0.478261 0.100274
434 3 0.275007 0.436856 0.150385
4294 2 0.392129 0.489142 0.139114
4296 4 0.398902 0.46612 0.146135
4070 4 0.417706 0.471367 0.153979
4069 2 0.421289 0.449019 0.164605
3903 4 0.477586 0.43238 0.145345
3901 2 0.474361 0.456012 0.152849
3902 4 0.471136 0.479643 0.160354
2114 4 0.486051 0.486702 0.148798
1834 2 0.129981 0.0562755 0.173805
1835 4 0.128316 0.061165 0.19827
2949 4 0.1458 0.0570779 0.205908
2947 2 0.161698 0.0736361 0.21582
3847 2 0.20243 0.0382766 0.17111
3848 4 0.213112 0.0266762 0.190514
1637 4 0.211532 0.0218091 0.209994
1636 2 0.233148 0.0111157 0.216595
1638 4 0.254764 0.000422355 0.223196
4578 4 0.343331 0.0684031 0.218804
4576 2 0.353814 0.0474517 0.22754
4577 4 0.364297 0.0265002 0.236276
1052 4 0.364772 0.00770785 0.228927
2885 4 0.0649127 0.114912 0.184705
2884 2 0.0807342 0.11587 0.165368
781 2 0.127133 0.149108 0.222163
783 4 0.118126 0.137565 0.242432
782 4 0.13614 0.160651 0.201894
4245 4 0.141288 0.15635 0.18233
2948 4 0.177596 0.0901944 0.225732
4243 2 0.165846 0.152936 0.185561
4244 4 0.190404 0.149522 0.188792
3725 4 0.231547 0.112148 0.213964
3724 2 0.219039 0.126759 0.197988
3726 4 0.206531 0.14137 0.182012
2972 4 0.248785 0.101928 0.215885
1166 4 0.180737 0.101116 0.243394
2971 2 0.271986 0.106721 0.207887
925 2 0.304441 0.152761 0.192636
927 4 0.297872 0.131161 0.203383
2973 4 0.295186 0.111514 0.19989
926 4 0.311009 0.17436 0.181888
4329 4 0.462993 0.105398 0.171961
4327 2 0.460467 0.114816 0.194985
377 3 0.467309 0.118842 0.235609
4328 4 0.457941 0.124234 0.21801
376 1 0.486326 0.130566 0.241091
380 3 0.483978 0.152213 0.234418
2183 4 0.0545124 0.199871 0.201369
2182 2 0.0710636 0.212789 0.18779
2184 4 0.0876149 0.225707 0.174211
448 3 0.0115536 0.245655 0.204335
3459 4 0.161751 0.24431 0.167335
3841 2 0.122807 0.232703 0.180667
3842 4 0.102362 0.219125 0.185447
3102 4 0.321917 0.176696 0.16521
794 4 0.315054 0.190383 0.241569
359 3 0.470772 0.176497 0.171445
3003 4 0.445967 0.215934 0.165643
358 3 0.45908 0.21133 0.181159
357 3 0.49545 0.202145 0.183519
356 1 0.473995 0.19424 0.186046
360 3 0.471052 0.187263 0.207524
2271 4 0.476407 0.180787 0.225455
2269 2 0.475364 0.184077 0.250219
450 3 0.00983833 0.281472 0.192854
4187 4 0.0275134 0.2715 0.18012
4186 2 0.0508047 0.262477 0.178992
4024 2 0.0356496 0.310598 0.201036
4026 4 0.0278833 0.289393 0.190302
4025 4 0.043416 0.331803 0.21177
447 3 0.00177821 0.272928 0.228279
1967 4 0.133419 0.301161 0.181649
3457 2 0.167696 0.267541 0.174419
3458 4 0.173641 0.290772 0.181503
1966 2 0.121507 0.318962 0.194549
4708 2 0.157349 0.325614 0.240729
4709 4 0.165985 0.336631 0.220011
567 3 0.208904 0.316354 0.16908
3234 4 0.185256 0.345205 0.221714
3232 2 0.198268 0.338696 0.201379
568 3 0.241959 0.298464 0.169191
4076 4 0.260533 0.295107 0.178148
4075 2 0.263476 0.286915 0.201587
4077 4 0.266419 0.278723 0.225027
884 4 0.272415 0.29871 0.229242
4352 4 0.330186 0.308384 0.198523
4351 2 0.341814 0.318779 0.17898
72 3 0.378986 0.333208 0.247777
3141 4 0.481401 0.274209 0.246108
3216 4 0.0566368 0.335509 0.226846
3214 2 0.0798286 0.343658 0.222274
3215 4 0.10302 0.351808 0.217701
1968 4 0.109595 0.336762 0.207449
3233 4 0.21128 0.332187 0.181044
433 3 0.273274 0.41514 0.181527
1734 4 0.283581 0.399107 0.188377
1732 2 0.275551 0.396733 0.211937
2825 4 0.299186 0.349537 0.229653
2824 2 0.321854 0.360086 0.229338
1733 4 0.26752 0.39436 0.235497
29 3 0.251027 0.389185 0.246702
75 3 0.380616 0.331409 0.210534
2826 4 0.344522 0.370635 0.229023
71 1 0.3801 0.345537 0.228389
73 3 0.361404 0.359222 0.227117
74 3 0.399364 0.358464 0.228815
4235 4 0.411513 0.349726 0.242943
375 3 0.489958 0.377615 0.24261
1847 4 0.462765 0.418445 0.227435
371 1 0.474666 0.394153 0.245969
372 3 0.463095 0.397855 0.226435
262 3 0.490083 0.400477 0.178365
435 3 0.305616 0.431729 0.171703
431 1 0.282952 0.43395 0.171991
432 3 0.277304 0.452388 0.184533
2700 4 0.324396 0.4368 0.17862
2698 2 0.340045 0.447194 0.195121
2699 4 0.355693 0.457589 0.211622
4283 4 0.357881 0.441539 0.223592
4282 2 0.379052 0.446968 0.235739
4284 4 0.400222 0.452397 0.247885
4071 4 0.424873 0.426672 0.175231
1846 2 0.447319 0.428147 0.210333
1848 4 0.431874 0.43785 0.193232
1879 2 0.428869 0.47366 0.243584
1881 4 0.452966 0.476085 0.237368
3163 2 0.0167279 0.0178078 0.321288
3165 4 0.0374265 0.022297 0.307998
85 3 0.0562058 0.023977 0.303585
81 1 0.0607978 0.0191299 0.281812
83 3 0.0458136 0.0301275 0.267923
4172 4 0.119923 0.0678912 0.263921
4173 4 0.0878297 0.0299516 0.258316
82 3 0.0821179 0.0261768 0.276815
4171 2 0.103876 0.0489214 0.261119
3142 2 0.446854 0.00966291 0.314785
3144 4 0.447883 0.0261396 0.333564
799 2 0.482649 0.0517147 0.326987
1892 4 0.121571 0.136196 0.262703
440 3 0.155066 0.102983 0.302657
1891 2 0.105846 0.149794 0.276596
1167 4 0.15887 0.114049 0.286468
1165 2 0.169804 0.107583 0.264931
436 1 0.164953 0.110748 0.321647
439 3 0.186322 0.118428 0.316876
795 4 0.300331 0.151885 0.269887
378 3 0.489336 0.12965 0.26408
605 3 0.0741794 0.163113 0.30295
604 3 0.0425396 0.177722 0.317203
601 1 0.0656274 0.1797 0.316002
602 3 0.0708716 0.200093 0.30674
1893 4 0.0901204 0.163392 0.290489
793 2 0.307693 0.171134 0.255728
1696 2 0.383856 0.206371 0.276149
1698 4 0.361617 0.1954 0.279354
4478 4 0.347754 0.188386 0.291906
1697 4 0.406095 0.217342 0.272945
4477 2 0.333208 0.203932 0.305019
2969 4 0.391242 0.244041 0.308799
580 3 0.409436 0.251781 0.308403
4479 4 0.318662 0.219477 0.318132
578 3 0.412387 0.237212 0.27381
576 1 0.421291 0.252358 0.288966
2270 4 0.47432 0.187367 0.274983
408 3 0.490826 0.188336 0.285525
3140 4 0.460498 0.24726 0.282681
579 3 0.443545 0.247263 0.293112
3134 4 0.0151007 0.305037 0.28408
1170 4 0.0301608 0.307561 0.296214
1168 2 0.0548413 0.307189 0.292222
1169 4 0.0795218 0.306818 0.28823
3914 4 0.0953675 0.29647 0.294255
4710 4 0.148714 0.314596 0.261447
3915 4 0.134071 0.320952 0.274169
3913 2 0.114719 0.308711 0.284212
1800 4 0.20659 0.252984 0.321972
1784 4 0.208449 0.271124 0.313525
1785 4 0.241191 0.303861 0.294632
1783 2 0.22482 0.287492 0.304078
2934 4 0.242116 0.317287 0.309323
883 2 0.273054 0.306243 0.253075
1671 4 0.278581 0.291766 0.304362
885 4 0.273693 0.313775 0.276909
1669 2 0.296215 0.278334 0.315929
1670 4 0.313849 0.264902 0.327497
2968 2 0.368439 0.250652 0.316641
1158 4 0.393448 0.338608 0.305324
2970 4 0.345635 0.257263 0.324483
3071 4 0.50905 0.329811 0.283898
577 3 0.420054 0.273489 0.279961
3139 2 0.470949 0.260734 0.264394
777 4 0.492038 0.321565 0.278203
1197 4 0.00993749 0.357288 0.299725
1195 2 0.0283586 0.373163 0.293909
1196 4 0.0467798 0.389039 0.288093
2238 4 0.0621817 0.401637 0.284086
2236 2 0.0819708 0.393863 0.297244
2237 4 0.10176 0.386089 0.310403
2218 2 0.144205 0.387659 0.30228
2220 4 0.119337 0.388953 0.300019
2219 4 0.169073 0.386365 0.30454
2932 2 0.241068 0.340602 0.300352
3937 2 0.203588 0.377822 0.286237
3938 4 0.22833 0.378826 0.282771
28 3 0.235169 0.397724 0.280168
3939 4 0.178846 0.376818 0.289702
2933 4 0.24002 0.363917 0.291381
26 1 0.25291 0.387018 0.269728
30 3 0.25315 0.364979 0.275464
27 3 0.272567 0.396834 0.276539
1156 2 0.394277 0.341138 0.280462
1157 4 0.395105 0.343668 0.2556
776 4 0.485157 0.358805 0.245544
4234 2 0.429019 0.367402 0.245444
4236 4 0.446525 0.385079 0.247945
374 3 0.459657 0.38782 0.262493
373 3 0.485435 0.413758 0.25214
775 2 0.488597 0.340185 0.261873
1082 4 0.487216 0.413372 0.271706
1880 4 0.404772 0.471236 0.2498
890 4 0.361391 0.450874 0.321979
889 2 0.381821 0.445581 0.335389
2169 4 0.496342 0.499886 0.278894
3099 4 0.0462116 0.00353027 0.368363
3164 4 0.996029 0.0133187 0.334577
3097 2 0.0689151 0.0138486 0.370175
3224 4 0.0473317 0.0884616 0.39409
3223 2 0.0285639 0.0719459 0.394523
3098 4 0.0916187 0.0241668 0.371986
3225 4 0.00979619 0.0554302 0.394957
907 2 0.156658 0.0121422 0.366437
908 4 0.15748 0.0333802 0.379608
2723 4 0.1687 0.0414385 0.394198
2722 2 0.188227 0.0559227 0.400036
2724 4 0.207753 0.0704069 0.405874
1472 4 0.222833 0.0768348 0.394279
3106 2 0.287214 0.0175178 0.399606
3107 4 0.280691 0.99443 0.392562
3259 2 0.291354 0.0820512 0.417191
3108 4 0.293737 0.0406055 0.406651
3260 4 0.295909 0.0609385 0.404593
4338 4 0.502682 0.0136149 0.36652
800 4 0.464355 0.0348616 0.329527
930 4 0.39936 0.0670444 0.413047
301 1 0.462813 0.0115399 0.380067
303 3 0.483333 0.0154938 0.369982
304 3 0.457824 0.0286988 0.394868
302 3 0.446559 0.0107835 0.363807
3975 4 0.0181169 0.129246 0.425614
437 3 0.166445 0.0936392 0.336952
438 3 0.152231 0.127879 0.330762
1471 2 0.220622 0.100268 0.385842
1473 4 0.218411 0.123701 0.377405
396 1 0.31535 0.135703 0.383509
397 3 0.316407 0.152598 0.399084
400 3 0.328012 0.118154 0.390605
398 3 0.293243 0.129065 0.381132
3711 4 0.324919 0.166505 0.409522
399 3 0.323457 0.143642 0.363269
603 3 0.0747944 0.178548 0.337287
2000 4 0.0652048 0.178228 0.356316
1999 2 0.0543647 0.177066 0.378818
2001 4 0.0435247 0.175904 0.40132
870 4 0.0404143 0.195727 0.403064
868 2 0.0231805 0.209587 0.41473
1355 4 0.223594 0.213903 0.376732
1354 2 0.248555 0.214107 0.378174
1799 4 0.222615 0.229418 0.363065
1798 2 0.214603 0.241201 0.342518
1356 4 0.273516 0.21431 0.379617
3006 4 0.276869 0.23209 0.371209
3004 2 0.294155 0.231662 0.353148
3005 4 0.311442 0.231234 0.335088
3775 2 0.14317 0.282696 0.396382
3777 4 0.137429 0.268439 0.416104
3776 4 0.14891 0.296953 0.376659
4305 4 0.160152 0.307848 0.364842
4303 2 0.182348 0.319152 0.362675
3354 4 0.201708 0.298989 0.408383
1855 2 0.285047 0.325818 0.369571
1857 4 0.293589 0.316727 0.347901
1856 4 0.276504 0.33491 0.391241
1140 4 0.343363 0.278617 0.387781
1139 4 0.352903 0.256856 0.343779
1138 2 0.348133 0.267736 0.36578
3433 2 0.233383 0.338799 0.381511
3434 4 0.2087 0.336398 0.378314
4304 4 0.204544 0.330456 0.360508
3980 4 0.201993 0.395436 0.398582
3435 4 0.258065 0.341199 0.384708
875 4 0.336056 0.323118 0.364171
874 2 0.357372 0.336157 0.365072
2263 2 0.401406 0.378234 0.374504
2265 4 0.392234 0.355274 0.378238
876 4 0.378688 0.349197 0.365974
2264 4 0.410578 0.401193 0.370769
10 3 0.231699 0.436757 0.399329
2846 4 0.271935 0.464135 0.363865
2847 4 0.252704 0.438466 0.402231
2845 2 0.262319 0.451301 0.383048
4127 4 0.358291 0.409139 0.400759
4126 2 0.367734 0.431191 0.393708
891 4 0.40225 0.440288 0.348799
4128 4 0.377176 0.453244 0.386657
3297 4 0.484797 0.460572 0.378852
832 2 0.45903 0.440902 0.396767
834 4 0.46782 0.450411 0.375378
2654 4 0.0145227 0.0200833 0.487164
1480 2 0.0758606 0.0597895 0.433389
1481 4 0.0869432 0.0384807 0.440339
2906 4 0.0842977 0.0187242 0.439881
3546 4 0.192159 0.00734585 0.485404
1536 4 0.19981 0.0140833 0.503276
3686 4 0.248435 0.0444074 0.492144
3685 2 0.266728 0.0504632 0.476211
1978 2 0.318417 0.0672064 0.468032
1979 4 0.30266 0.0567147 0.451696
3687 4 0.285021 0.0565189 0.460278
1980 4 0.334173 0.077698 0.484368
89 3 0.349678 0.0736244 0.495065
928 2 0.396011 0.0499561 0.430991
993 4 0.401024 0.0205666 0.461488
929 4 0.392662 0.0328677 0.448934
991 2 0.395467 0.996328 0.464092
1482 4 0.064778 0.0810984 0.42644
3261 4 0.286799 0.103164 0.429788
2213 4 0.291013 0.123763 0.424124
2212 2 0.272734 0.135686 0.436328
2214 4 0.254456 0.147609 0.448531
3709 2 0.341913 0.171776 0.427089
815 4 0.997295 0.213868 0.442757
869 4 0.00594676 0.223447 0.426396
63 3 0.148399 0.231087 0.457964
214 3 0.221218 0.189308 0.431795
211 1 0.243674 0.186586 0.436962
215 3 0.248185 0.16457 0.440655
212 3 0.256334 0.194049 0.419265
2150 4 0.263528 0.209676 0.466171
213 3 0.249035 0.199033 0.455796
2149 2 0.275492 0.21257 0.487934
3282 4 0.361029 0.1961 0.444892
3710 4 0.358907 0.177047 0.444656
3280 2 0.359713 0.213711 0.462592
3281 4 0.358397 0.231322 0.480293
3377 4 0.349758 0.225515 0.497435
65 3 0.141767 0.259041 0.433628
64 3 0.136897 0.265082 0.470471
61 1 0.149496 0.253996 0.454448
62 3 0.171411 0.260753 0.456237
3353 4 0.17976 0.265464 0.438301
3352 2 0.190734 0.282226 0.423342
1076 4 0.289309 0.280809 0.461616
1075 2 0.310139 0.268626 0.455069
1077 4 0.33097 0.256444 0.448522
1703 4 0.350219 0.263208 0.450274
1702 2 0.36909 0.27935 0.447359
1704 4 0.387962 0.295492 0.444443
3062 4 0.384965 0.312689 0.45519
3061 2 0.383704 0.332028 0.470989
3356 4 0.0120408 0.37776 0.494634
3981 4 0.186436 0.348454 0.405757
9 3 0.214947 0.404542 0.409291
3979 2 0.194215 0.371945 0.402169
8 3 0.244701 0.417586 0.429012
2559 4 0.29658 0.358814 0.499301
3063 4 0.382443 0.351367 0.486788
2065 2 0.130012 0.499016 0.486554
6 1 0.225812 0.423566 0.416936
4558 2 0.19738 0.492605 0.468125
4559 4 0.21583 0.488 0.484361
4560 4 0.17893 0.497209 0.451889
1741 2 0.236018 0.45153 0.463745
1743 4 0.22193 0.43973 0.446791
7 3 0.211563 0.435237 0.430716
3230 4 0.314047 0.441123 0.444977
1742 4 0.250106 0.46333 0.480699
4253 4 0.256789 0.429644 0.419492
3229 2 0.334173 0.454004 0.452339
4252 2 0.27942 0.427634 0.429931
4254 4 0.302051 0.425625 0.44037
4362 4 0.269096 0.458741 0.487355
3231 4 0.354299 0.466885 0.459702
833 4 0.45024 0.431393 0.418157
1007 4 0.449096 0.483569 0.465602
1008 4 0.45664 0.444539 0.435262
1006 2 0.452868 0.464054 0.450432
147 3 0.0764862 0.0575827 0.568516
3395 4 0.0124922 0.0426027 0.547004
2655 4 0.0241811 0.0354787 0.533752
3394 2 0.00210869 0.0560283 0.565364
2653 2 0.0193519 0.027781 0.510458
2538 4 0.0809321 0.0137953 0.54788
148 3 0.0927634 0.0274267 0.553079
146 1 0.0909558 0.0401303 0.572412
149 3 0.111709 0.0487428 0.578201
565 3 0.142351 0.035224 0.511018
561 1 0.143507 0.0190556 0.527015
4784 4 0.122092 0.0648403 0.570295
4542 4 0.15739 0.033845 0.555778
562 3 0.138224 0.0282178 0.547443
4540 2 0.154683 0.0322429 0.580584
4783 2 0.126276 0.0875161 0.560626
564 3 0.128383 0.00211393 0.522256
563 3 0.165022 0.0104202 0.528004
1534 2 0.218836 0.030121 0.505723
1535 4 0.237862 0.0461588 0.50817
3480 4 0.244136 0.999396 0.567355
2995 2 0.303883 0.0466238 0.538901
2997 4 0.290477 0.0257246 0.535957
2996 4 0.31729 0.067523 0.541845
87 3 0.325296 0.0689859 0.523292
86 1 0.344153 0.0803247 0.516583
88 3 0.361506 0.0753006 0.531145
848 4 0.49545 0.0690657 0.506629
4780 2 0.141468 0.138049 0.545159
4781 4 0.132538 0.161206 0.542129
4785 4 0.130461 0.110192 0.550956
4782 4 0.150398 0.114893 0.548189
90 3 0.339964 0.102707 0.516916
2705 4 0.494841 0.0817804 0.522694
2704 2 0.505959 0.082745 0.545069
3328 2 0.026912 0.186772 0.513971
3329 4 0.0444895 0.179335 0.497819
3330 4 0.00933458 0.19421 0.530124
3378 4 0.305904 0.215411 0.51924
3376 2 0.327831 0.220463 0.508338
2151 4 0.287457 0.215465 0.509697
2562 4 0.263375 0.302488 0.577245
3357 4 0.042188 0.402546 0.5259
3355 2 0.0271144 0.390153 0.510267
163 3 0.22764 0.397832 0.552398
161 1 0.246992 0.393203 0.540461
162 3 0.244618 0.372823 0.530061
2859 4 0.276488 0.398086 0.570347
2557 2 0.274577 0.357329 0.511085
2558 4 0.252574 0.355845 0.522868
164 3 0.265144 0.392198 0.554879
165 3 0.250451 0.409297 0.524723
3047 4 0.451718 0.422346 0.549976
3046 2 0.468695 0.422185 0.53162
4437 4 0.0654849 0.463172 0.539113
1238 4 0.0688141 0.481737 0.539611
4435 2 0.0757376 0.452103 0.519175
1237 2 0.0819678 0.496595 0.554823
4436 4 0.0859903 0.441034 0.499237
3425 4 0.149198 0.479647 0.509571
3424 2 0.164536 0.471925 0.527745
2067 4 0.133438 0.492202 0.510366
3359 4 0.222394 0.415742 0.546563
3426 4 0.179873 0.464203 0.54592
3358 2 0.209076 0.436176 0.54106
3360 4 0.195758 0.456609 0.535556
3683 4 0.209333 0.494669 0.501088
4628 4 0.317449 0.427057 0.513702
4361 4 0.297664 0.428556 0.515167
4360 2 0.28338 0.443649 0.501261
4627 2 0.336659 0.432927 0.528593
4629 4 0.355868 0.438796 0.543483
4439 4 0.458888 0.476068 0.577545
1103 4 0.497019 0.43871 0.514677
3048 4 0.485673 0.422024 0.513264
4508 4 0.466469 0.493873 0.569026
2957 4 0.0648356 0.0171048 0.593695
2268 4 0.079452 0.0871317 0.667148
150 3 0.0828479 0.0273143 0.589403
758 4 0.168533 0.0346853 0.616269
2266 2 0.104278 0.0866482 0.664209
3363 4 0.146517 0.0909489 0.656791
2267 4 0.129104 0.0861647 0.66127
4541 4 0.151976 0.0306407 0.605389
757 2 0.175258 0.020156 0.635476
3183 4 0.214029 0.0458127 0.60554
759 4 0.181983 0.00562673 0.654682
3181 2 0.207668 0.0680895 0.614946
3478 2 0.235759 0.0149842 0.585019
3479 4 0.227383 0.0305728 0.602683
345 3 0.321581 0.0792895 0.654042
3707 4 0.299143 0.00372699 0.668085
3676 2 0.394171 0.0260739 0.633487
3678 4 0.389777 0.050341 0.637607
342 3 0.34297 0.0516717 0.66718
3677 4 0.398566 0.00180681 0.629368
4524 4 0.413443 0.0500343 0.590913
4522 2 0.422966 0.0730714 0.592858
3346 2 0.470515 0.013489 0.607594
3347 4 0.44745 0.00527868 0.612671
3348 4 0.49358 0.0216993 0.602518
2437 2 0.0142501 0.152375 0.592546
2439 4 0.0237561 0.165019 0.573183
2438 4 0.00474422 0.139731 0.61191
1334 4 0.203277 0.107163 0.632593
1333 2 0.197793 0.129234 0.622201
1335 4 0.192309 0.151305 0.61181
3182 4 0.201307 0.0903664 0.624352
1300 2 0.318683 0.120454 0.641342
1302 4 0.323637 0.143479 0.632945
1301 4 0.31373 0.0974295 0.649739
4112 4 0.416174 0.100869 0.606009
4113 4 0.394256 0.145777 0.607915
3658 2 0.358301 0.159503 0.622102
3660 4 0.336123 0.158687 0.633619
3659 4 0.380479 0.160319 0.610585
4111 2 0.405215 0.123323 0.606962
4523 4 0.432489 0.0961085 0.594802
1370 4 0.502327 0.165074 0.635074
1511 4 0.445713 0.125203 0.630761
364 3 0.494058 0.148028 0.629899
1510 2 0.446052 0.11521 0.653678
362 3 0.47322 0.145337 0.598736
361 1 0.494747 0.145531 0.60684
365 3 0.504968 0.125905 0.601452
3079 2 0.216357 0.184845 0.652248
2873 4 0.243524 0.181673 0.618449
3080 4 0.230792 0.17772 0.633116
169 3 0.243619 0.245624 0.662341
168 3 0.231583 0.209976 0.667704
2872 2 0.255982 0.202511 0.612469
170 3 0.268364 0.21732 0.664403
2874 4 0.26844 0.223349 0.606488
1495 2 0.315204 0.234589 0.616903
1496 4 0.323551 0.214413 0.629088
3390 4 0.404162 0.22915 0.615924
1041 4 0.393573 0.247052 0.617459
1325 4 0.395947 0.245853 0.659105
839 4 0.459474 0.20576 0.611561
3389 4 0.44717 0.206673 0.628005
838 2 0.483885 0.202053 0.607618
3388 2 0.425666 0.217911 0.621965
1497 4 0.306857 0.254765 0.604719
2561 4 0.29695 0.270969 0.596737
2560 2 0.280163 0.286728 0.586991
2568 4 0.316701 0.324657 0.644915
2415 4 0.323857 0.328725 0.662899
1040 4 0.375153 0.28888 0.597163
1039 2 0.384363 0.267966 0.607311
2898 4 0.411012 0.25476 0.648643
2896 2 0.433503 0.265652 0.649498
2897 4 0.455993 0.276544 0.650353
734 3 0.158594 0.400632 0.587747
731 1 0.145833 0.399989 0.607117
735 3 0.131273 0.3825 0.606253
3314 4 0.126894 0.364868 0.601848
3313 2 0.109159 0.3539 0.615645
3315 4 0.091424 0.342933 0.629442
732 3 0.159841 0.397302 0.625164
2566 2 0.303302 0.337224 0.627952
2858 4 0.27541 0.358223 0.600522
2567 4 0.289904 0.349792 0.610989
2857 2 0.275949 0.378155 0.585434
1569 4 0.141601 0.437875 0.602607
733 3 0.134163 0.419893 0.609579
1567 2 0.159328 0.455468 0.603796
1568 4 0.177055 0.473061 0.604985
1830 4 0.194446 0.47075 0.614014
1828 2 0.201544 0.491438 0.626131
2607 4 0.449922 0.452798 0.64191
4440 4 0.459921 0.460984 0.625212
2605 2 0.464434 0.453945 0.662239
4438 2 0.459405 0.468526 0.601379
3539 4 0.0667427 0.0722964 0.671293
323 3 0.0096526 0.0245295 0.714845
3540 4 0.0216885 0.060872 0.68974
3538 2 0.0442156 0.0665842 0.680516
324 3 0.00920277 0.0611495 0.704688
3768 4 0.0767345 0.0620129 0.717645
3766 2 0.0639016 0.0422095 0.72591
3477 4 0.0786634 0.0815516 0.718018
3693 4 0.00819957 0.0561286 0.738333
3767 4 0.0510687 0.0224061 0.734176
3114 4 0.0534211 0.00367796 0.738318
1618 2 0.13686 0.0257758 0.730174
1620 4 0.141649 0.0215414 0.706001
762 4 0.144047 0.00397444 0.696309
1745 4 0.231137 0.0496391 0.720917
343 3 0.30573 0.0470071 0.66519
341 1 0.322686 0.0623299 0.669201
1744 2 0.245028 0.0311203 0.711468
1746 4 0.25892 0.0126014 0.702019
344 3 0.320777 0.0708061 0.690717
1384 2 0.303638 0.0593096 0.72291
1385 4 0.306596 0.0569225 0.698197
2986 2 0.466613 0.014619 0.675215
2988 4 0.487283 0.0283646 0.678216
2987 4 0.445944 0.000873426 0.672213
3368 4 0.0152428 0.148354 0.725208
3475 2 0.0930163 0.0897285 0.736789
3361 2 0.161027 0.0971913 0.676172
3362 4 0.175538 0.103434 0.695553
3450 4 0.198304 0.152401 0.751181
1311 4 0.192659 0.162462 0.733105
515 3 0.405782 0.116157 0.727506
1512 4 0.446391 0.105217 0.676595
511 1 0.424727 0.119077 0.739803
513 3 0.441258 0.128746 0.726702
514 3 0.432063 0.0986519 0.748015
512 3 0.420181 0.133017 0.757527
3367 2 0.0214874 0.171799 0.731249
1486 2 0.0466797 0.223349 0.744894
1488 4 0.0490567 0.2481 0.742259
3577 2 0.131036 0.182853 0.738514
1688 4 0.150684 0.219708 0.724127
3579 4 0.144303 0.200013 0.726075
3081 4 0.201922 0.19197 0.67138
166 1 0.248488 0.22521 0.672237
1310 4 0.200044 0.179126 0.686537
1309 2 0.196352 0.170794 0.709821
1687 2 0.166538 0.233053 0.73812
1689 4 0.182392 0.246397 0.752112
167 3 0.249945 0.228143 0.695007
4674 4 0.314159 0.185136 0.694304
4673 4 0.277006 0.216522 0.682672
4672 2 0.295583 0.200829 0.688488
2556 4 0.270639 0.226189 0.700224
2554 2 0.278402 0.246828 0.712012
1326 4 0.390399 0.250885 0.708547
3171 4 0.39835 0.235145 0.717765
1324 2 0.393173 0.248369 0.683826
3169 2 0.417967 0.236737 0.733186
3170 4 0.437584 0.23833 0.748607
3615 4 0.451949 0.248089 0.756807
1347 4 0.143631 0.280225 0.672122
1345 2 0.158299 0.287822 0.690892
1346 4 0.172967 0.295419 0.709663
3420 4 0.233165 0.254113 0.676589
3418 2 0.215957 0.271122 0.682896
3419 4 0.19875 0.288131 0.689203
2555 4 0.286165 0.267467 0.7238
1731 4 0.295339 0.286053 0.72726
1729 2 0.31763 0.278952 0.736084
1730 4 0.339922 0.271852 0.744908
2413 2 0.335792 0.323207 0.684166
2414 4 0.347727 0.317689 0.705433
1313 4 0.36649 0.319013 0.711836
1312 2 0.371261 0.340227 0.72418
3613 2 0.467371 0.25948 0.740757
2741 4 0.470868 0.273713 0.662259
2740 2 0.479918 0.268424 0.684959
3614 4 0.482794 0.270871 0.724708
2742 4 0.488969 0.263135 0.70766
3558 4 0.0583479 0.364006 0.669268
3556 2 0.0639266 0.386055 0.679655
3557 4 0.0695053 0.408105 0.690041
3221 4 0.104423 0.381388 0.725592
3785 4 0.124377 0.407303 0.67993
3784 2 0.112625 0.40439 0.701807
3786 4 0.100873 0.401477 0.723684
3220 2 0.0986727 0.369872 0.747028
1314 4 0.376033 0.361442 0.736523
3463 2 0.0677373 0.439841 0.71929
3464 4 0.0604076 0.454332 0.738303
3465 4 0.0750671 0.42535 0.700278
4741 2 0.0260287 0.464502 0.754212
4742 4 0.0499559 0.457321 0.755259
1518 4 0.220296 0.452635 0.670692
1516 2 0.211266 0.468541 0.68774
1517 4 0.202236 0.484447 0.704787
1590 4 0.238507 0.446247 0.737639
1587 4 0.25338 0.456603 0.744875
1585 2 0.26154 0.480235 0.7446
650 3 0.316805 0.48935 0.750763
1838 4 0.333358 0.493129 0.741188
1839 4 0.369015 0.458269 0.744951
1837 2 0.351187 0.475699 0.743069
697 3 0.493479 0.442008 0.686387
2606 4 0.478947 0.455092 0.682567
4240 2 0.0475368 0.045023 0.802684
4242 4 0.0404676 0.060397 0.784276
3692 4 0.0376799 0.0764439 0.773246
3691 2 0.0229398 0.0662862 0.75579
4241 4 0.054606 0.0296489 0.821092
1619 4 0.132072 0.0300101 0.754347
1274 4 0.119394 0.0299724 0.770896
1273 2 0.117474 0.00862894 0.78378
1386 4 0.300679 0.0616967 0.747623
3792 4 0.394385 0.0483565 0.812788
3790 2 0.410594 0.0593173 0.797221
112 3 0.35349 0.0304652 0.816965
3791 4 0.426803 0.0702781 0.781655
3497 4 0.392341 0.0959496 0.779593
1403 4 0.04498 0.140529 0.822114
1404 4 0.053696 0.145091 0.773084
1402 2 0.049338 0.14281 0.797599
2532 4 0.0469464 0.159037 0.830111
1232 4 0.0693327 0.155296 0.764829
3476 4 0.107369 0.0979054 0.755559
1231 2 0.0941175 0.15749 0.7673
1233 4 0.118902 0.159683 0.769771