ITEM: TIMESTEP
500500
ITEM: NUMBER OF ATOMS
1600
ITEM: BOX BOUNDS xy xz yz pp pp pp
-6.9325799999999997e+00 7.0712315999999564e+00 1.3865159999995669e-01
-6.9325799999999997e+00 6.9325799999999997e+00 0.0000000000000000e+00
-6.9325799999999997e+00 6.9325799999999997e+00 0.0000000000000000e+00
ITEM: ATOMS id type xs ys zs
85 3 0.00671687 0.103256 0.0475513
81 1 0.0233561 0.105605 0.0193435
1304 2 0.021538 0.015039 0.0829575
1305 4 0.0132399 0.0336119 0.112785
84 3 0.0555768 0.111789 0.0256323
834 4 0.0710111 0.12349 0.00553074
83 3 0.0206339 0.0772004 0.00190613
973 4 0.319221 0.00780375 0.0988115
971 2 0.289555 0.0016267 0.0793541
972 4 0.25989 0.99545 0.0598968
384 4 0.374034 0.0385217 0.00878554
385 4 0.419372 0.0446978 0.0644856
383 2 0.396703 0.0416097 0.0366356
317 2 0.0185703 0.198599 0.113531
82 3 0.0107046 0.130585 0.00137388
1508 2 0.105222 0.212147 0.105615
1509 4 0.131284 0.214948 0.0808778
1443 4 0.46204 0.248258 0.0168755
17 3 0.460375 0.130566 0.12331
463 4 0.0135258 0.277998 0.0863601
1267 4 0.0211162 0.292991 0.109196
672 4 0.0368485 0.353636 0.103528
671 2 0.0713105 0.36018 0.0954358
45 3 0.0127656 0.363934 0.118732
673 4 0.105772 0.366725 0.0873438
178 3 0.169959 0.33667 0.0647406
176 1 0.165941 0.359184 0.0892079
179 3 0.173975 0.345457 0.118689
180 3 0.134812 0.369959 0.089813
1326 4 0.366037 0.374395 0.0218936
1444 4 0.390161 0.251981 0.0117084
1442 2 0.4261 0.250119 0.0142919
1083 4 0.484048 0.265857 0.0134805
413 2 0.052817 0.461161 0.0334541
415 4 0.0401298 0.466997 0.066724
414 4 0.0655041 0.455325 0.000184144
177 3 0.186028 0.384762 0.083494
886 4 0.173594 0.478537 0.0698982
1047 4 0.213675 0.395869 0.0730358
1046 2 0.249392 0.397944 0.0686803
738 4 0.17544 0.497696 0.0468621
884 2 0.199245 0.496482 0.0875406
1048 4 0.285108 0.40002 0.0643247
125 3 0.310244 0.417082 0.0658499
122 3 0.326415 0.431611 0.0166555
121 1 0.336165 0.418999 0.0457931
123 3 0.349235 0.388488 0.0406882
124 3 0.359232 0.439037 0.0590998
369 4 0.384772 0.429716 0.0518611
368 2 0.407673 0.449018 0.0319978
370 4 0.430575 0.46832 0.0121346
1105 4 0.452382 0.482874 0.000309974
1233 4 0.0145461 0.020892 0.210992
1384 4 0.0416792 0.0329605 0.214993
397 4 0.0795375 0.125629 0.209035
1382 2 0.0770146 0.0389741 0.218376
360 4 0.104231 0.114791 0.223397
1383 4 0.11235 0.0449876 0.221758
636 4 0.137246 0.0438261 0.235593
635 2 0.172725 0.0497112 0.237293
637 4 0.208204 0.0555962 0.238994
711 4 0.399276 0.04299 0.173223
710 2 0.423743 0.0642651 0.15777
712 4 0.448209 0.0855403 0.142318
19 3 0.468689 0.0925221 0.161101
549 4 0.434515 0.0208125 0.232185
548 2 0.468884 0.0311985 0.230123
16 1 0.483119 0.116752 0.14328
396 4 0.00754342 0.127609 0.204848
395 2 0.0435405 0.126619 0.206942
1510 4 0.07916 0.209346 0.130352
319 4 0.0495009 0.204267 0.131084
148 3 0.0393269 0.206328 0.157895
146 1 0.0658774 0.217978 0.17442
149 3 0.0710232 0.200008 0.202211
147 3 0.0926286 0.215231 0.154953
150 3 0.0610224 0.249573 0.182166
359 2 0.138716 0.124841 0.221579
361 4 0.173201 0.134891 0.21976
1121 2 0.425837 0.227348 0.185912
18 3 0.495019 0.140259 0.163777
1123 4 0.403903 0.227693 0.214536
1122 4 0.447771 0.227003 0.157287
1215 4 0.47088 0.227099 0.13978
1265 2 0.0326071 0.283206 0.141981
1266 4 0.044098 0.273422 0.174767
1074 4 0.169831 0.340143 0.14734
1073 2 0.203764 0.345189 0.158301
1075 4 0.237697 0.350235 0.169262
154 3 0.248923 0.328884 0.186816
151 1 0.28113 0.337596 0.187889
153 3 0.300676 0.310419 0.184755
152 3 0.287274 0.351887 0.217162
155 3 0.287583 0.358902 0.163795
744 4 0.316383 0.290269 0.229484
721 4 0.322007 0.296997 0.200773
719 2 0.357812 0.300905 0.20014
720 4 0.393616 0.304813 0.199508
1214 2 0.489332 0.257621 0.13566
1044 4 0.4211 0.297525 0.192054
1043 2 0.454236 0.311238 0.189749
1045 4 0.487372 0.324951 0.187445
674 2 0.0639452 0.438514 0.178702
676 4 0.0504416 0.46152 0.154311
273 4 0.0633573 0.415835 0.229731
675 4 0.0774487 0.415508 0.203094
272 2 0.0345333 0.399672 0.24384
1350 4 0.108894 0.416693 0.153755
1351 4 0.172401 0.410914 0.187557
1349 2 0.140648 0.413803 0.170656
288 4 0.19759 0.426304 0.180417
287 2 0.212356 0.448318 0.204734
289 4 0.227122 0.470332 0.22905
1071 4 0.249792 0.48312 0.238986
963 4 0.231982 0.0676451 0.249375
571 4 0.363819 0.998632 0.277475
962 2 0.266707 0.068895 0.258974
948 4 0.327236 0.0818285 0.274283
964 4 0.301433 0.070145 0.268573
947 2 0.361524 0.0920542 0.270646
1159 4 0.495339 0.100462 0.282419
34 3 0.392017 0.0414496 0.301337
1157 2 0.460405 0.100478 0.273473
949 4 0.395811 0.10228 0.267009
489 4 0.443963 0.020297 0.335332
408 4 0.43535 0.0429713 0.355402
1158 4 0.42547 0.100494 0.264528
31 1 0.409454 0.0167068 0.286768
32 3 0.423136 0.0282098 0.258874
33 3 0.433801 0.0060468 0.307229
407 2 0.42921 0.0752125 0.370471
163 3 0.0491894 0.231445 0.326351
1388 2 0.26784 0.243249 0.374953
164 3 0.0181744 0.25854 0.289948
161 1 0.0322042 0.259806 0.320298
165 3 0.0523832 0.285456 0.32213
927 4 0.0736892 0.301346 0.310347
926 2 0.109123 0.305741 0.315086
162 3 0.00826166 0.263236 0.343043
928 4 0.144557 0.310135 0.319825
763 4 0.173886 0.311994 0.321381
761 2 0.205067 0.326454 0.331872
762 4 0.236248 0.340914 0.342364
1389 4 0.247141 0.272305 0.368656
1168 4 0.214687 0.269983 0.367974
244 3 0.264094 0.340366 0.34991
242 3 0.274412 0.287866 0.3592
745 4 0.298447 0.328367 0.288154
241 1 0.286208 0.315457 0.345282
243 3 0.290646 0.310037 0.312551
245 3 0.314846 0.322994 0.359338
1066 4 0.299771 0.357307 0.281008
743 2 0.307415 0.309318 0.258819
499 4 0.342694 0.317703 0.365841
497 2 0.376773 0.327951 0.371046
8 3 0.466996 0.291554 0.359883
958 4 0.487933 0.293646 0.342241
498 4 0.410851 0.338198 0.37625
274 4 0.00570922 0.383508 0.257948
1070 2 0.275896 0.468536 0.25933
1072 4 0.302 0.453951 0.279673
1064 2 0.307786 0.392317 0.278818
1065 4 0.315801 0.427326 0.276629
337 4 0.45018 0.434541 0.370962
335 2 0.477814 0.452535 0.356713
536 2 0.20133 0.999906 0.484595
329 2 0.164543 0.0753189 0.462323
538 4 0.185755 0.0317775 0.477395
331 4 0.157167 0.0408712 0.469685
330 4 0.171919 0.109767 0.454961
955 4 0.191746 0.119923 0.47123
409 4 0.42307 0.107454 0.385541
953 2 0.181382 0.146699 0.493173
1147 4 0.138763 0.246407 0.424855
1390 4 0.288539 0.214192 0.38125
1033 4 0.303089 0.21694 0.405891
1031 2 0.336528 0.208826 0.416931
1032 4 0.369966 0.200711 0.42797
748 4 0.389769 0.221581 0.420466
746 2 0.41489 0.247104 0.422711
1013 2 0.025395 0.367697 0.434529
1371 4 0.0713901 0.278836 0.488261
1146 4 0.0841811 0.259658 0.470258
1145 2 0.111472 0.253032 0.447557
1537 4 0.216772 0.356237 0.376538
1167 4 0.153167 0.260894 0.404351
1166 2 0.183927 0.265438 0.386163
10 3 0.440562 0.336404 0.376073
6 1 0.460973 0.312263 0.38552
7 3 0.489652 0.325362 0.395476
747 4 0.440012 0.272627 0.424955
9 3 0.447562 0.295357 0.411009
1015 4 0.0604232 0.374729 0.438899
705 4 0.086276 0.37932 0.45236
704 2 0.11856 0.38862 0.465232
706 4 0.150844 0.397919 0.478104
1210 4 0.189431 0.432481 0.418958
1208 2 0.179851 0.463127 0.402366
1209 4 0.170271 0.493772 0.385774
352 4 0.180795 0.401473 0.47849
1536 4 0.215045 0.419082 0.411907
1535 2 0.215908 0.38766 0.394223
350 2 0.216397 0.406258 0.475916
782 2 0.316485 0.407676 0.484292
784 4 0.351664 0.409815 0.49183
783 4 0.281306 0.405536 0.476754
351 4 0.251999 0.411043 0.473342
269 2 0.0428532 0.0146368 0.60667
367 4 0.0141562 0.0928947 0.572647
365 2 0.0398061 0.116795 0.564965
271 4 0.0713696 0.0298269 0.622413
678 4 0.125318 0.0157963 0.548294
677 2 0.158931 0.0209335 0.560157
679 4 0.192545 0.0260707 0.57202
48 3 0.188753 0.0342704 0.599646
47 3 0.242113 0.0372943 0.608523
46 1 0.213341 0.0270499 0.621251
1461 4 0.261364 0.0278015 0.590511
1460 2 0.293579 0.0418049 0.582928
1462 4 0.325795 0.0558083 0.575346
1353 4 0.354724 0.0562163 0.58325
1352 2 0.384217 0.0422513 0.567636
1354 4 0.413709 0.0282863 0.552022
417 4 0.441507 0.0283392 0.559763
416 2 0.477096 0.0330787 0.562595
366 4 0.0654559 0.140695 0.557282
349 4 0.0893767 0.153042 0.568715
347 2 0.120589 0.15638 0.551023
348 4 0.151801 0.159718 0.533331
954 4 0.171018 0.173476 0.515117
28 3 0.0264396 0.282677 0.606356
1372 4 0.0216623 0.279737 0.540501
1370 2 0.0465262 0.279287 0.514381
403 4 0.0501643 0.295141 0.597882
401 2 0.0856536 0.301012 0.599402
402 4 0.121143 0.306884 0.600922
1467 4 0.146122 0.294993 0.609263
480 4 0.0345233 0.49691 0.531225
479 2 0.066665 0.486583 0.51829
1176 4 0.0137307 0.490259 0.547906
481 4 0.0988068 0.476256 0.505354
1021 4 0.117438 0.498259 0.507477
815 2 0.412447 0.404494 0.515235
817 4 0.444967 0.405814 0.530736
1483 4 0.470409 0.410854 0.542152
816 4 0.379927 0.403175 0.499733
836 2 0.00617221 0.0169109 0.694555
823 4 0.0248453 0.0673011 0.704118
838 4 0.0332261 0.0385529 0.703958
821 2 0.0507479 0.0857727 0.720813
822 4 0.0766504 0.104244 0.737508
1381 4 0.0777861 0.0106759 0.643333
931 4 0.103579 0.0999113 0.746542
50 3 0.207874 0.0424347 0.64978
843 4 0.0109552 0.234891 0.69402
577 4 0.0330003 0.247634 0.708976
1184 2 0.122795 0.207085 0.739182
1186 4 0.141828 0.233467 0.723949
575 2 0.0214133 0.281891 0.709658
576 4 0.00982634 0.316147 0.710339
1466 2 0.15737 0.30052 0.643059
386 2 0.163032 0.275606 0.724774
1468 4 0.168617 0.306046 0.676855
388 4 0.173687 0.302761 0.703711
387 4 0.152377 0.24845 0.745837
362 2 0.477723 0.373628 0.624446
363 4 0.451379 0.369767 0.648726
1574 2 0.0167088 0.466102 0.654688
1576 4 0.0447099 0.449264 0.670251
201 1 0.0941734 0.469032 0.657951
204 3 0.0666065 0.45207 0.650016
205 3 0.116194 0.448894 0.671993
202 3 0.107149 0.481729 0.630241
203 3 0.0864154 0.494082 0.678832
261 4 0.404283 0.415425 0.702133
260 2 0.418066 0.401739 0.671688
262 4 0.43185 0.388054 0.641243
169 3 0.0839027 0.121724 0.778736
929 2 0.12653 0.09049 0.772796
1237 4 0.172649 0.0815099 0.816813
930 4 0.149481 0.0810686 0.799049
1235 2 0.188065 0.108015 0.835575
1170 4 0.230608 0.124095 0.860497
813 4 0.371101 0.0553436 0.773058
1487 2 0.396232 0.0197719 0.869238
812 2 0.403056 0.0648481 0.786582
814 4 0.435012 0.0743525 0.800105
613 4 0.450532 0.0159684 0.856231
1489 4 0.423561 0.0048674 0.850812
611 2 0.484642 0.0159527 0.844527
354 4 0.424481 0.115047 0.868171
1115 2 0.024122 0.232389 0.842079
990 4 0.00640833 0.140852 0.777709
167 3 0.0351513 0.145849 0.776949
168 3 0.0687372 0.15711 0.817889
166 1 0.0669636 0.150013 0.785237
1348 4 0.0663716 0.161773 0.845984
170 3 0.0793253 0.174733 0.767665
1185 4 0.103762 0.180702 0.754415
60 3 0.0747958 0.244995 0.821359
1236 4 0.203481 0.134521 0.854337
1586 2 0.234929 0.247801 0.867977
437 2 0.475174 0.14347 0.871412
1117 4 0.0481474 0.256593 0.830868
58 3 0.0826319 0.262932 0.770734
57 3 0.072096 0.297771 0.810995
56 1 0.0873824 0.26921 0.803251
59 3 0.120082 0.272111 0.809605
1063 4 0.0267501 0.353996 0.873069
460 4 0.00217168 0.340518 0.86718
987 4 0.139098 0.253285 0.82288
1205 2 0.149033 0.336115 0.859828
986 2 0.169975 0.266577 0.810145
264 4 0.174407 0.371788 0.81881
263 2 0.18666 0.352503 0.790826
988 4 0.200852 0.279869 0.797411
1206 4 0.167802 0.346489 0.830903
265 4 0.198912 0.333217 0.762843
1240 4 0.24554 0.303111 0.844542
1587 4 0.25173 0.275218 0.85194
1238 2 0.261416 0.312057 0.813469
1239 4 0.277291 0.321004 0.782396
1479 4 0.282385 0.351224 0.780106
1597 4 0.0272987 0.432877 0.755559
1595 2 0.0531821 0.454328 0.768177
517 4 0.0589651 0.475712 0.805331
1596 4 0.0790655 0.475779 0.780796
515 2 0.0597924 0.492035 0.837472
513 4 0.107169 0.474932 0.788111
512 2 0.135007 0.496064 0.779917
556 4 0.251745 0.453008 0.851443
1478 2 0.296136 0.383096 0.789416
1480 4 0.309887 0.414967 0.798727
1377 4 0.10313 0.00762277 0.951742
909 4 0.160725 0.109486 0.981984
908 2 0.195915 0.108794 0.974104
910 4 0.231105 0.108102 0.966223
1488 4 0.368903 0.0346764 0.887664
1039 4 0.363737 0.034399 0.982667
1037 2 0.371805 0.0632549 0.962718
1038 4 0.379873 0.0921108 0.942769
355 4 0.383924 0.0830031 0.918212
791 2 0.478394 0.0776136 0.9513
353 2 0.404203 0.0990252 0.893191
793 4 0.460882 0.108452 0.94399
833 2 0.105841 0.127723 0.997379
1346 2 0.0695511 0.15524 0.881312
1089 4 0.0295751 0.217942 0.944099
1347 4 0.0727306 0.148706 0.916639
1088 2 0.00404438 0.198342 0.96005
835 4 0.140671 0.131957 0.989228
1588 4 0.218128 0.220384 0.884014
1169 2 0.247597 0.148293 0.880942
1171 4 0.264586 0.172491 0.901388
439 4 0.439546 0.140073 0.875552
506 2 0.493965 0.183517 0.949346
645 4 0.391967 0.150821 0.928294
508 4 0.463495 0.19132 0.931574
644 2 0.41908 0.171798 0.917624
646 4 0.446194 0.192776 0.906954
1061 2 0.0280236 0.36208 0.908186
1062 4 0.0292972 0.370165 0.943304
669 4 0.0536209 0.363486 0.959976
1207 4 0.130264 0.325741 0.888752
1499 2 0.148323 0.347343 0.946519
1500 4 0.137258 0.329925 0.917011
1501 4 0.159389 0.364761 0.976027
1325 2 0.372438 0.373226 0.986422
15 3 0.0790492 0.476925 0.921984
1248 4 0.0550618 0.470416 0.909851
668 2 0.0573917 0.395732 0.975593
1247 2 0.0273605 0.448014 0.905516
1249 4 0.999659 0.425612 0.901181
670 4 0.0611625 0.427978 0.99121
555 4 0.222162 0.486672 0.908128
554 2 0.236954 0.46984 0.879785
1230 4 0.347753 0.463945 0.938815
1229 2 0.336741 0.44169 0.964872
1231 4 0.32573 0.419435 0.990928
1318 4 0.396063 0.379438 0.928199
1317 4 0.43388 0.440466 0.929104
1316 2 0.414972 0.409952 0.928652
1327 4 0.378839 0.372058 0.95095
266 2 0.048944 0.57712 0.0284381
268 4 0.0795983 0.581083 0.0469482
739 4 0.121515 0.530301 0.0112849
267 4 0.0182896 0.573158 0.00992797
737 2 0.148477 0.513998 0.0290735
885 4 0.224897 0.514426 0.105183
978 4 0.24101 0.527532 0.123641
1414 4 0.347877 0.60466 0.0799928
1412 2 0.326888 0.610194 0.0511559
1413 4 0.305899 0.615728 0.0223189
1432 4 0.462999 0.554284 0.0513262
1104 4 0.450509 0.550915 0.0241997
1103 2 0.451446 0.516895 0.0122548
1430 2 0.47277 0.543338 0.0843
1431 4 0.482541 0.532392 0.117274
941 2 0.0935035 0.656345 0.115167
943 4 0.123317 0.667972 0.0987507
1400 2 0.144826 0.725323 0.120287
1401 4 0.128567 0.694982 0.110013
391 4 0.191353 0.666199 0.103403
389 2 0.226082 0.675211 0.106016
871 4 0.287489 0.671848 0.101512
390 4 0.260812 0.684223 0.108629
870 4 0.352546 0.700836 0.11107
869 2 0.320017 0.686342 0.106291
1182 4 0.369878 0.716051 0.093094
1181 2 0.401603 0.732406 0.0890838
1097 2 0.0124651 0.754807 0.0968843
1333 4 0.0281678 0.814266 0.0275708
829 4 0.051373 0.83064 0.0299577
1099 4 0.0277737 0.76548 0.127688
827 2 0.0844275 0.842699 0.0373373
828 4 0.117482 0.854758 0.0447168
663 4 0.142915 0.867811 0.0527713
680 2 0.201761 0.796177 0.0277237
662 2 0.178233 0.87464 0.0540477
682 4 0.211825 0.808555 0.060026
968 2 0.202985 0.784787 0.11277
969 4 0.21818 0.804222 0.0865804
93 3 0.278662 0.849638 0.0597245
799 4 0.279218 0.821668 0.0654868
797 2 0.285308 0.798803 0.0382236
798 4 0.291399 0.775939 0.0109604
1183 4 0.433328 0.748761 0.0850736
654 4 0.460212 0.758957 0.082668
653 2 0.494303 0.770186 0.0847949
1306 4 0.029836 0.996466 0.0531301
664 4 0.213552 0.881469 0.055324
1518 4 0.178053 0.956775 0.0277758
1517 2 0.211519 0.96829 0.0341149
1519 4 0.244985 0.979806 0.0404539
94 3 0.240819 0.889556 0.0567254
95 3 0.274297 0.880099 0.0149529
91 1 0.271737 0.880158 0.0476987
92 3 0.293417 0.901645 0.0603324
1024 4 0.320546 0.911177 0.0640108
1022 2 0.354324 0.923365 0.062359
1356 4 0.4895 0.985858 0.0498502
1023 4 0.388101 0.935554 0.0607073
586 4 0.416761 0.943636 0.0542416
584 2 0.451834 0.951231 0.0569446
1197 4 0.459847 0.893405 0.0158919
342 4 0.462175 0.885703 0.0441202
585 4 0.486907 0.958825 0.0596476
341 2 0.489183 0.874406 0.0653201
357 4 0.210179 0.626885 0.212728
977 2 0.250541 0.560687 0.133835
979 4 0.260073 0.593842 0.144029
810 4 0.372266 0.585144 0.189937
809 2 0.406568 0.575999 0.196752
811 4 0.44087 0.566854 0.203567
1437 4 0.441677 0.545528 0.22402
1436 2 0.472586 0.527436 0.218647
1051 4 0.477484 0.516766 0.139675
942 4 0.0636901 0.644717 0.131582
610 4 0.998743 0.697218 0.216213
608 2 0.0242036 0.673509 0.20611
609 4 0.0496643 0.6498 0.196007
1029 4 0.0760566 0.661577 0.197249
1028 2 0.103648 0.684021 0.202046
1556 2 0.0200591 0.740059 0.247625
1030 4 0.13124 0.706464 0.206843
1345 4 0.158995 0.70851 0.204519
1343 2 0.186456 0.731284 0.200629
356 2 0.189022 0.647928 0.233195
1476 4 0.00964011 0.776593 0.147044
552 4 0.0627389 0.771283 0.233876
551 2 0.0755516 0.769698 0.200198
553 4 0.0883644 0.768113 0.166521
1402 4 0.161085 0.755665 0.130561
1344 4 0.213918 0.754058 0.19674
970 4 0.18779 0.765352 0.13896
1289 2 0.338651 0.829616 0.246743
1290 4 0.372908 0.831443 0.235683
88 3 0.400795 0.829082 0.226489
87 3 0.409314 0.861006 0.183579
86 1 0.422478 0.849801 0.211948
90 3 0.428457 0.875234 0.231777
89 3 0.451023 0.833452 0.205084
1243 4 0.456273 0.86381 0.238723
1600 4 0.472912 0.846211 0.2223
1111 4 0.186111 0.557333 0.344365
600 4 0.185721 0.582858 0.330112
1109 2 0.16652 0.531906 0.360491
599 2 0.221384 0.587282 0.327698
601 4 0.257048 0.591706 0.325285
1572 4 0.278405 0.571182 0.320625
1571 2 0.31391 0.576638 0.31814
1315 4 0.367076 0.561249 0.306492
1573 4 0.349416 0.582094 0.315655
1313 2 0.39701 0.56509 0.326175
1593 4 0.452409 0.564294 0.33183
1314 4 0.426943 0.56893 0.345857
1592 2 0.486203 0.559814 0.319941
1187 2 0.0441311 0.678955 0.36415
1189 4 0.0781607 0.689412 0.359055
1188 4 0.0101016 0.668498 0.369244
358 4 0.167866 0.668971 0.253661
768 4 0.127071 0.689503 0.32095
767 2 0.149701 0.714258 0.333767
769 4 0.17233 0.739013 0.346585
697 4 0.493268 0.696797 0.268672
1558 4 0.0412397 0.768334 0.253974
1174 4 0.0273608 0.819395 0.342207
1172 2 0.0593561 0.835709 0.34258
1173 4 0.0913515 0.852023 0.342953
1312 4 0.168021 0.754285 0.323227
1547 2 0.134199 0.865891 0.348353
1310 2 0.183802 0.78561 0.31547
1548 4 0.165831 0.856717 0.363236
1311 4 0.199583 0.816935 0.307714
727 4 0.217105 0.83413 0.293735
725 2 0.252273 0.835387 0.285913
1291 4 0.304395 0.827789 0.257803
726 4 0.287441 0.836643 0.278092
1241 2 0.460526 0.870604 0.273874
1549 4 0.102568 0.875065 0.33347
570 4 0.308701 0.975227 0.317353
1165 4 0.294413 0.960321 0.336338
1163 2 0.272046 0.96434 0.364369
569 2 0.33626 0.98693 0.297414
490 4 0.492287 0.976677 0.367045
35 3 0.389518 0.991862 0.279406
488 2 0.468125 0.998487 0.351188
1242 4 0.46478 0.877398 0.309026
453 4 0.000924614 0.556326 0.392488
452 2 0.0149213 0.539468 0.421211
1320 4 0.0337082 0.600894 0.476608
454 4 0.0289179 0.52261 0.449934
897 4 0.0062258 0.605824 0.489203
1110 4 0.146929 0.506478 0.376618
232 3 0.301409 0.536254 0.487779
858 4 0.271844 0.529159 0.49528
1225 4 0.381247 0.545425 0.501806
1263 4 0.452636 0.504537 0.447242
1224 4 0.430503 0.50565 0.466699
1223 2 0.405875 0.525537 0.484252
1262 2 0.487436 0.511911 0.441776
1319 2 0.0573904 0.626225 0.485878
1321 4 0.0810726 0.651555 0.495148
451 4 0.0930113 0.683698 0.383901
99 3 0.105894 0.644088 0.483057
96 1 0.120185 0.670959 0.496691
765 4 0.135625 0.714028 0.454658
97 3 0.127847 0.692303 0.472542
449 2 0.125693 0.678576 0.398374
450 4 0.158374 0.673454 0.412847
764 2 0.157338 0.740938 0.44501
1324 4 0.184885 0.683389 0.412028
1322 2 0.216385 0.696553 0.400774
1512 4 0.168282 0.671818 0.494994
1511 2 0.196288 0.69371 0.499947
1323 4 0.247884 0.709717 0.38952
699 4 0.16564 0.841884 0.387886
698 2 0.180439 0.814515 0.406335
766 4 0.179052 0.767848 0.435361
700 4 0.195237 0.787145 0.424785
1385 2 0.061491 0.931724 0.408327
1387 4 0.0336801 0.938691 0.386365
925 4 0.0141406 0.960369 0.394959
1386 4 0.089302 0.924758 0.430289
529 4 0.235076 0.953839 0.475451
527 2 0.248308 0.95131 0.44199
537 4 0.216905 0.968034 0.491795
1164 4 0.249678 0.968359 0.3924
528 4 0.261539 0.94878 0.408528
902 2 0.454849 0.916463 0.461433
903 4 0.486484 0.918193 0.478625
904 4 0.423214 0.914732 0.44424
1397 2 0.0537093 0.602518 0.593965
1399 4 0.0185777 0.600679 0.60181
1398 4 0.088841 0.604358 0.586121
250 3 0.11639 0.610698 0.589222
1042 4 0.0115741 0.578706 0.619508
246 1 0.144673 0.619479 0.575192
248 3 0.160112 0.592579 0.562301
1020 4 0.189296 0.50357 0.505901
859 4 0.207044 0.516349 0.52395
857 2 0.239444 0.522754 0.509615
1019 2 0.153367 0.500915 0.506689
234 3 0.320753 0.512215 0.532451
233 3 0.312952 0.56653 0.531155
231 1 0.322218 0.53965 0.513367
235 3 0.352753 0.543465 0.501983
524 2 0.0476613 0.703406 0.511432
526 4 0.0229377 0.729691 0.514774
525 4 0.0723849 0.677121 0.50809
98 3 0.0988702 0.685911 0.517867
1365 4 0.00506392 0.74796 0.598875
249 3 0.164415 0.63407 0.597808
399 4 0.189696 0.646663 0.590414
247 3 0.138343 0.64108 0.550764
100 3 0.1476 0.662046 0.512587
398 2 0.225509 0.643507 0.593598
1513 4 0.224294 0.715603 0.504901
868 4 0.244326 0.729453 0.520314
400 4 0.261322 0.640351 0.596781
775 4 0.285768 0.640201 0.612652
866 2 0.252692 0.738585 0.554159
867 4 0.261058 0.747717 0.588005
773 2 0.321549 0.643286 0.615563
774 4 0.357329 0.646371 0.618474
865 4 0.385307 0.654103 0.613246
863 2 0.417806 0.665479 0.602881
864 4 0.450306 0.676855 0.592517
24 3 0.478313 0.679415 0.597455
22 3 0.493218 0.703345 0.551233
1585 4 0.023572 0.826272 0.599093
1203 4 0.0534266 0.833699 0.600535
1202 2 0.0853332 0.850157 0.59951
1204 4 0.11724 0.866614 0.598484
685 4 0.268346 0.764427 0.609474
270 4 0.0143368 0.999447 0.590927
427 4 0.143721 0.87598 0.586383
425 2 0.177317 0.888749 0.586068
426 4 0.210914 0.901519 0.585753
1545 4 0.236531 0.914483 0.587811
49 3 0.215157 0.993987 0.626211
1544 2 0.271162 0.916793 0.578106
1546 4 0.305793 0.919103 0.568401
1027 4 0.33058 0.921805 0.57996
1025 2 0.363426 0.916096 0.593843
1026 4 0.396272 0.910386 0.607726
1279 4 0.0466982 0.614526 0.704212
1040 2 0.00237639 0.544168 0.623574
1277 2 0.0668918 0.63593 0.683577
435 4 0.0499327 0.665764 0.737948
1278 4 0.0870853 0.657334 0.662941
594 4 0.115518 0.656433 0.706149
256 4 0.0480088 0.695646 0.747744
593 2 0.147366 0.664176 0.721025
595 4 0.179214 0.671919 0.7359
1119 4 0.192906 0.697156 0.727749
1118 2 0.221966 0.708417 0.709787
684 4 0.244115 0.743995 0.674183
1120 4 0.251025 0.719678 0.691824
1458 4 0.394382 0.669316 0.741476
1457 2 0.425964 0.679725 0.727761
1459 4 0.457546 0.690135 0.714045
760 4 0.481888 0.703717 0.708115
1257 4 0.165519 0.799899 0.74427
683 2 0.256231 0.754211 0.641828
1379 2 0.080386 0.991084 0.673513
1380 4 0.0829858 0.971492 0.703693
708 4 0.090406 0.94779 0.718708
472 4 0.241668 0.994287 0.634315
707 2 0.125035 0.950824 0.728192
1261 4 0.173245 0.951736 0.714368
709 4 0.159664 0.953858 0.737677
1259 2 0.206117 0.951055 0.699541
1260 4 0.238989 0.950375 0.684713
471 4 0.305947 0.965586 0.651138
470 2 0.273807 0.979937 0.642727
1590 4 0.431389 0.947164 0.745773
1495 4 0.0857597 0.581005 0.763246
516 4 0.0606196 0.508357 0.869613
1493 2 0.0933347 0.607603 0.7863
839 2 0.195376 0.566916 0.868943
841 4 0.178715 0.598973 0.866546
840 4 0.212037 0.534859 0.87134
514 4 0.162846 0.517195 0.771724
801 4 0.279874 0.585539 0.851916
800 2 0.303699 0.602444 0.830964
1218 4 0.378037 0.562876 0.81745
802 4 0.327524 0.619349 0.810012
1217 2 0.400085 0.534409 0.813407
1219 4 0.422134 0.505941 0.809363
1494 4 0.10091 0.634201 0.809355
434 2 0.0227736 0.647136 0.752291
854 2 0.025443 0.749712 0.832249
254 2 0.0448039 0.730688 0.755766
781 4 0.116141 0.706813 0.84056
714 4 0.0899508 0.693673 0.841962
855 4 0.0102323 0.728466 0.807528
713 2 0.0830447 0.703388 0.876016
790 4 0.227647 0.631171 0.776874
1178 2 0.166445 0.635022 0.792204
1179 4 0.199407 0.637443 0.777835
1180 4 0.133482 0.632601 0.806573
779 2 0.136676 0.712597 0.811527
780 4 0.157211 0.718382 0.782494
1258 4 0.177015 0.735317 0.77449
209 3 0.322012 0.655896 0.754409
789 4 0.295201 0.648956 0.75961
788 2 0.261424 0.640064 0.768242
210 3 0.376226 0.655092 0.757561
208 3 0.347008 0.637228 0.799581
993 4 0.360654 0.708251 0.80416
207 3 0.347838 0.690032 0.7874
206 1 0.348435 0.659429 0.774593
992 2 0.387957 0.729459 0.794485
284 2 0.471496 0.740263 0.79111
286 4 0.437992 0.745804 0.803397
255 4 0.0415991 0.76573 0.763787
785 2 0.00649703 0.805784 0.761322
856 4 0.0406537 0.770959 0.856971
786 4 0.0323611 0.787815 0.77915
1564 4 0.106497 0.847412 0.85705
1256 2 0.171267 0.767608 0.75938
1562 2 0.138651 0.836689 0.869639
994 4 0.41526 0.750666 0.784809
1589 2 0.464424 0.959651 0.752478
1591 4 0.497458 0.972139 0.759184
306 4 0.0223825 0.589099 0.876847
305 2 0.045999 0.614185 0.886922
11 1 0.0930999 0.503812 0.9097
13 3 0.0885979 0.505011 0.876559
12 3 0.0790751 0.530731 0.923368
14 3 0.125806 0.503587 0.916798
638 2 0.125795 0.613413 0.896178
639 4 0.15641 0.597504 0.885235
1008 4 0.238063 0.507761 0.9193
1007 2 0.253996 0.538835 0.927728
1009 4 0.269929 0.569909 0.936155
431 2 0.283741 0.604096 0.967542
432 4 0.259922 0.594782 0.942207
433 4 0.307561 0.613411 0.992878
715 4 0.0761386 0.713103 0.91007
307 4 0.0696156 0.639271 0.896997
640 4 0.0951793 0.629322 0.907122
72 3 0.245974 0.744411 0.966045
73 3 0.28872 0.75285 0.933907
853 4 0.315165 0.740648 0.931642
628 4 0.0454435 0.765833 0.884824
626 2 0.0637373 0.787489 0.906934
627 4 0.0820311 0.809144 0.929045
832 4 0.108339 0.80352 0.94228
1563 4 0.170804 0.825966 0.882227
830 2 0.137597 0.794209 0.961337
831 4 0.166854 0.784898 0.980395
1504 4 0.189158 0.813773 0.901222
1369 4 0.230911 0.864231 0.876967
1502 2 0.221569 0.806533 0.915443
681 4 0.191697 0.783799 0.995421
1503 4 0.25398 0.799294 0.929665
74 3 0.262827 0.795098 0.957799
71 1 0.272715 0.76324 0.961459
75 3 0.2925 0.760399 0.987544
851 2 0.337704 0.762341 0.913979
852 4 0.360244 0.784035 0.896316
1153 4 0.375559 0.807638 0.893348
1151 2 0.411274 0.809708 0.897722
770 2 0.489418 0.796536 0.925515
1152 4 0.446989 0.811778 0.902097
771 4 0.465988 0.788919 0.899249
530 2 0.0557431 0.995006 0.979946
531 4 0.0915858 0.996504 0.976421
532 4 0.0199005 0.993507 0.983471
1368 4 0.17865 0.905538 0.905379
1367 2 0.20478 0.884884 0.891173
1378 4 0.165698 0.973023 0.940211
1376 2 0.134414 0.990323 0.945977
1198 4 0.488985 0.929793 0.961052
1196 2 0.474416 0.911599 0.988472
1000 4 0.571846 0.0408835 0.0502589
1357 4 0.552833 0.0195936 0.0467088
998 2 0.588897 0.0663332 0.0690554
999 4 0.605947 0.0917828 0.0878519
20 3 0.507505 0.10415 0.125073
1355 2 0.521166 0.00272599 0.0482795
230 3 0.62469 0.107238 0.0743057
226 1 0.648865 0.109348 0.0964185
229 3 0.660425 0.0787534 0.103983
1011 4 0.822069 0.0711342 0.105246
1010 2 0.857 0.0796872 0.104195
1012 4 0.891932 0.0882402 0.103143
849 4 0.916065 0.0929277 0.0884234
848 2 0.947922 0.0945829 0.0716358
850 4 0.979778 0.0962381 0.0548482
131 1 0.950716 0.00228367 0.00115024
132 3 0.919397 0.0118767 0.00695914
310 4 0.546266 0.135845 0.110386
308 2 0.546644 0.150115 0.0772719
139 3 0.559309 0.1411 0.0297528
309 4 0.547023 0.164385 0.044158
228 3 0.673649 0.128028 0.0842746
276 4 0.695252 0.14244 0.0743679
275 2 0.730126 0.15127 0.0747352
277 4 0.765 0.1601 0.0751025
1003 4 0.794419 0.159407 0.0710603
1001 2 0.827971 0.169121 0.0796516
1002 4 0.861523 0.178835 0.088243
945 4 0.890546 0.180126 0.0969088
944 2 0.924997 0.188758 0.091153
946 4 0.959447 0.19739 0.0853972
318 4 0.98764 0.19293 0.0959786
1052 2 0.91835 0.24813 0.0190333
1060 4 0.533851 0.285158 0.117714
1082 2 0.511849 0.287649 0.0198449
1058 2 0.546163 0.314136 0.100339
1084 4 0.53965 0.309441 0.0262093
1059 4 0.558476 0.343114 0.0829633
393 4 0.567171 0.320316 0.0181887
1096 4 0.585824 0.351481 0.0800787
392 2 0.59996 0.326482 0.00465199
1094 2 0.599395 0.373127 0.105412
1053 4 0.926537 0.266496 0.0489172
462 4 0.950436 0.254558 0.0610143
1268 2 0.959928 0.339396 0.0478876
42 3 0.964439 0.350388 0.0996179
1269 4 0.95559 0.329123 0.0821687
461 2 0.981981 0.266278 0.0736872
1270 4 0.964266 0.349668 0.0136064
41 1 0.983465 0.351735 0.126754
283 4 0.552243 0.468446 0.120068
68 3 0.78031 0.442086 0.0780881
67 3 0.781508 0.444335 0.0239408
66 1 0.797964 0.433832 0.0508293
69 3 0.801747 0.40059 0.0490945
70 3 0.827375 0.448132 0.0517909
322 4 0.844842 0.44275 0.0750233
320 2 0.879763 0.444172 0.0661955
321 4 0.914685 0.445594 0.0573677
1035 4 0.942387 0.437276 0.0607975
1034 2 0.964732 0.438229 0.0890781
1036 4 0.987078 0.439182 0.117359
960 4 0.548247 0.129208 0.138393
1409 2 0.560119 0.033985 0.21573
550 4 0.503252 0.0415845 0.228061
1410 4 0.58868 0.0168819 0.20152
1411 4 0.531558 0.051088 0.22994
658 4 0.664569 0.10274 0.178759
469 4 0.740621 0.0552812 0.129757
656 2 0.691227 0.0882195 0.159097
657 4 0.717886 0.0736991 0.139434
1005 4 0.702411 0.00268493 0.191748
227 3 0.63709 0.123624 0.124015
468 4 0.812683 0.0573078 0.128395
467 2 0.776652 0.0562945 0.129076
482 2 0.850719 0.10565 0.233481
483 4 0.882685 0.103121 0.216931
495 4 0.908842 0.103562 0.207025
494 2 0.944079 0.11076 0.205635
1232 2 0.980896 0.00828064 0.211764
496 4 0.979316 0.117957 0.204245
959 2 0.584038 0.127729 0.14268
961 4 0.619828 0.12625 0.146967
1216 4 0.507785 0.288144 0.131541
520 4 0.69666 0.323487 0.177076
518 2 0.732586 0.320043 0.177669
519 4 0.768512 0.316599 0.178263
751 4 0.789133 0.298657 0.16715
749 2 0.82057 0.315755 0.17016
750 4 0.852006 0.332854 0.17317
501 4 0.877721 0.346028 0.177159
500 2 0.912818 0.351127 0.170911
300 4 0.937523 0.256681 0.196589
502 4 0.947915 0.356227 0.164663
299 2 0.952973 0.282145 0.176454
43 3 0.968494 0.371495 0.149365
301 4 0.968422 0.307609 0.156319
44 3 0.98721 0.320823 0.139105
1049 2 0.506118 0.494651 0.14168
1050 4 0.534752 0.472535 0.143684
281 2 0.58582 0.467051 0.133184
754 4 0.59406 0.417104 0.219485
405 4 0.607431 0.391148 0.220767
1095 4 0.612966 0.394774 0.130745
404 2 0.612693 0.383845 0.185836
282 4 0.619397 0.465656 0.146301
752 2 0.569581 0.424495 0.244984
650 2 0.668937 0.491034 0.176473
406 4 0.617955 0.376542 0.150905
652 4 0.642491 0.479023 0.15525
642 4 0.981497 0.392907 0.244095
919 4 0.524169 0.0933394 0.279884
917 2 0.560087 0.0903687 0.281789
918 4 0.596005 0.0873981 0.283694
876 4 0.624422 0.0809085 0.287363
875 2 0.65777 0.0875464 0.275537
877 4 0.691117 0.0941843 0.26371
579 4 0.719338 0.0966014 0.26068
465 4 0.683884 0.0154335 0.333444
464 2 0.690706 0.0348765 0.362993
580 4 0.790305 0.107071 0.254281
484 4 0.818754 0.108178 0.25003
578 2 0.754822 0.101836 0.257481
667 4 0.757619 0.0138387 0.288354
665 2 0.776417 0.0362167 0.309278
666 4 0.795215 0.0585946 0.330203
956 2 0.522295 0.28295 0.345798
957 4 0.556656 0.272253 0.349355
723 4 0.585859 0.281203 0.350194