ITEM: TIMESTEP
2990000
ITEM: NUMBER OF ATOMS
4800
ITEM: BOX BOUNDS xy xz yz pp pp pp
-9.9985700000000008e+00 9.9985700000000008e+00 0.0000000000000000e+00
-9.9985700000000008e+00 9.9985700000000008e+00 0.0000000000000000e+00
-9.9985700000000008e+00 9.9985700000000008e+00 0.0000000000000000e+00
ITEM: ATOMS id type xs ys zs
3483 4 0.0664475 0.0516435 0.998804
4770 4 0.0854656 0.0542946 0.995345
4769 4 0.129991 0.0628726 0.0164343
1110 4 0.140062 0.0574913 0.0330771
1108 2 0.159697 0.0676782 0.044734
4768 2 0.107728 0.0585836 0.00588974
1109 4 0.179333 0.0778652 0.0563908
1397 4 0.45773 0.0024719 0.0261056
881 4 0.045606 0.134698 0.0439765
880 2 0.0563789 0.157168 0.0460432
2922 4 0.169725 0.0849106 0.0721125
2952 4 0.192267 0.135019 0.0710786
1937 4 0.204545 0.139212 0.056244
1936 2 0.199095 0.154385 0.037132
4222 2 0.316458 0.118883 0.0336863
4223 4 0.298523 0.130916 0.0210874
4224 4 0.334393 0.106851 0.0462851
3877 2 0.40546 0.0931138 0.0604794
3878 4 0.380529 0.0912813 0.0609432
3879 4 0.430392 0.0949462 0.0600156
3993 4 0.477727 0.0768615 0.0491266
4052 4 0.460346 0.0820876 0.0587136
3991 2 0.488928 0.0879645 0.0297238
882 4 0.0671518 0.179637 0.0481098
403 3 0.0766314 0.196645 0.0472779
404 3 0.0621749 0.220566 0.0730311
966 4 0.050355 0.228157 0.060127
964 2 0.030939 0.231137 0.0446565
401 1 0.0816476 0.210994 0.064809
965 4 0.011523 0.234116 0.029186
405 3 0.0959017 0.227268 0.0576948
1278 4 0.129186 0.246347 0.0595777
1276 2 0.146887 0.228699 0.0589326
1277 4 0.164589 0.211051 0.0582875
1305 4 0.117876 0.259259 0.0676313
402 3 0.0916932 0.198949 0.081636
3516 4 0.105695 0.184784 0.0849946
1938 4 0.193644 0.169557 0.0180201
1382 4 0.183943 0.20853 0.0530903
1381 2 0.203263 0.209065 0.0689539
1383 4 0.222582 0.2096 0.0848175
3681 4 0.237864 0.208585 0.0726913
3679 2 0.255522 0.203907 0.0556184
2802 4 0.280205 0.183578 0.0267075
2800 2 0.297206 0.187668 0.00883398
3680 4 0.27318 0.199228 0.0385454
3263 4 0.394135 0.227643 0.0547508
3262 2 0.411088 0.218064 0.0704368
4094 4 0.428262 0.261434 0.0838366
1756 2 0.0412027 0.314718 0.0675676
1757 4 0.0638201 0.319934 0.05827
1758 4 0.0185853 0.309502 0.0768653
94 3 0.0783794 0.331477 0.0490034
93 3 0.0949087 0.331887 0.0147835
2994 4 0.084847 0.297605 0.0815549
92 3 0.0933543 0.300085 0.0347556
1303 2 0.103629 0.270155 0.05021
91 1 0.0957159 0.322923 0.0361704
1304 4 0.0893826 0.28105 0.0327886
3985 2 0.224324 0.274277 0.0819845
3987 4 0.22671 0.298291 0.0754399
2412 4 0.229062 0.315244 0.0664008
3121 2 0.435236 0.294403 0.00505788
4095 4 0.440234 0.291586 0.0457798
4093 2 0.434248 0.27651 0.0648082
3123 4 0.446342 0.289006 0.0267999
2079 4 0.0152895 0.390919 0.0519008
1553 4 0.0896817 0.34998 0.0060323
2077 2 0.0175798 0.414286 0.0433023
95 3 0.115722 0.327807 0.0458931
2145 4 0.124434 0.344323 0.0404156
2143 2 0.145941 0.355164 0.0471327
2144 4 0.167448 0.366005 0.0538498
1820 4 0.186739 0.359755 0.0557936
1819 2 0.206806 0.374113 0.0517553
1821 4 0.226873 0.388472 0.0477171
810 4 0.240716 0.396782 0.0604112
808 2 0.257028 0.395605 0.0414978
809 4 0.273341 0.394427 0.0225844
1220 4 0.268537 0.375786 0.0161717
3751 2 0.319518 0.396361 0.0631925
3753 4 0.310595 0.377056 0.0763403
1219 2 0.283843 0.361925 0.00207238
1221 4 0.29915 0.348064 0.987973
1307 4 0.385947 0.328951 0.0755311
2078 4 0.0198701 0.437653 0.0347038
1901 4 0.0345674 0.433075 0.0211898
865 2 0.017752 0.496636 0.0221444
1900 2 0.0523989 0.449966 0.0165096
867 4 0.034021 0.489635 0.00449562
1598 4 0.048517 0.502345 0.000626844
1902 4 0.0702304 0.466857 0.0118293
2356 2 0.0962538 0.486846 0.0209266
2358 4 0.0886515 0.465616 0.0101237
3752 4 0.328441 0.415667 0.0500447
3443 4 0.330721 0.426886 0.0328116
3442 2 0.342059 0.423591 0.010771
4195 2 0.013219 0.0235426 0.134666
2886 4 0.053731 0.0850971 0.10475
4197 4 0.0263759 0.0204171 0.155697
4196 4 6.20452e-05 0.0266682 0.113634
1834 2 0.11191 0.0618567 0.154757
1030 2 0.0982406 0.00697641 0.165351
1836 4 0.114375 0.0395468 0.165775
982 2 0.168953 0.0793859 0.148532
3849 4 0.199956 0.0643339 0.159597
4051 2 0.456485 0.078018 0.0830802
4053 4 0.452624 0.0739483 0.107447
2868 4 0.465044 0.0726148 0.122101
2884 2 0.0610101 0.104083 0.119302
2885 4 0.0682893 0.123068 0.133854
2836 2 0.0125652 0.162855 0.128029
2837 4 0.0183435 0.163041 0.152356
4119 4 0.014326 0.143237 0.158264
219 3 0.123085 0.136521 0.126109
217 3 0.114023 0.103919 0.142468
216 1 0.130416 0.114998 0.130734
2921 4 0.152765 0.0963924 0.117734
218 3 0.134484 0.103592 0.110941
1835 4 0.109444 0.0841667 0.143739
220 3 0.149399 0.115785 0.143292
3515 4 0.108384 0.146427 0.116969
984 4 0.158885 0.0993655 0.137368
3514 2 0.10704 0.165605 0.100982
2920 2 0.161245 0.0906515 0.094923
2950 2 0.197694 0.144657 0.0935028
2951 4 0.203122 0.154295 0.115927
2850 4 0.221136 0.163289 0.110771
2866 2 0.474638 0.0859244 0.140969
2867 4 0.484232 0.099234 0.159836
3458 4 0.172362 0.247725 0.163701
2848 2 0.222209 0.175667 0.13247
3986 4 0.221938 0.250264 0.0885291
2849 4 0.223282 0.188044 0.154169
1117 2 0.200791 0.222693 0.161444
1118 4 0.192516 0.246217 0.159621
4424 4 0.284062 0.233321 0.121288
2964 4 0.270123 0.248779 0.119015
3101 4 0.345749 0.205146 0.158075
4423 2 0.306597 0.244147 0.121711
756 4 0.338131 0.202885 0.138593
754 2 0.361231 0.200663 0.129284
755 4 0.384331 0.198441 0.119975
3002 4 0.396378 0.209678 0.130581
3001 2 0.412148 0.213976 0.149502
3264 4 0.42804 0.208485 0.0861229
1362 4 0.443081 0.201572 0.0965734
1360 2 0.455969 0.211124 0.115753
1361 4 0.468856 0.220676 0.134933
359 3 0.46647 0.220862 0.154471
3842 4 0.0782625 0.266502 0.134044
3457 2 0.151442 0.260523 0.158828
3459 4 0.130522 0.273321 0.153955
3843 4 0.125841 0.281816 0.135653
2992 2 0.0974524 0.315996 0.0928704
3841 2 0.102052 0.274159 0.134848
2410 2 0.239103 0.332734 0.0811827
569 3 0.238512 0.304016 0.14824
2963 4 0.243401 0.28677 0.137545
2962 2 0.256762 0.267775 0.12828
4425 4 0.329132 0.254972 0.122133
4352 4 0.341719 0.270142 0.12701
4351 2 0.35481 0.290582 0.133012
4353 4 0.367901 0.311021 0.139015
1129 2 0.402728 0.323354 0.152455
1130 4 0.385153 0.307018 0.145423
996 4 0.486875 0.331408 0.105542
3179 4 0.110196 0.390475 0.102512
2993 4 0.110058 0.334387 0.104186
3180 4 0.127567 0.343581 0.102389
3178 2 0.118881 0.367028 0.10245
3528 4 0.251507 0.362811 0.111212
3527 4 0.252477 0.339951 0.155678
2411 4 0.249143 0.350223 0.0959645
3526 2 0.251992 0.351381 0.133445
431 1 0.317353 0.412874 0.134356
433 3 0.304263 0.394445 0.139593
434 3 0.329843 0.408556 0.115284
435 3 0.331195 0.417773 0.151765
1308 4 0.34458 0.343014 0.0998564
1306 2 0.365263 0.335982 0.0876937
4199 4 0.433271 0.353567 0.1676
4198 2 0.452834 0.364856 0.156873
4200 4 0.472396 0.376145 0.146146
263 3 0.489073 0.367771 0.140686
994 2 0.498249 0.337088 0.0840111
1848 4 0.462656 0.421048 0.160698
264 3 0.487482 0.39933 0.119568
432 3 0.303596 0.430863 0.13032
2700 4 0.335689 0.436865 0.148015
4294 2 0.407518 0.493479 0.130261
3935 4 0.373264 0.494948 0.113565
4296 4 0.425505 0.480663 0.141983
4070 4 0.418924 0.465477 0.155162
4069 2 0.437826 0.449548 0.151399
4071 4 0.456727 0.433619 0.147635
1778 4 0.0389464 0.0109529 0.168417
1777 2 0.0506495 0.0311473 0.177385
1779 4 0.0623525 0.0513416 0.186353
82 3 0.0632945 0.0724339 0.240852
4173 4 0.0683849 0.0576112 0.227901
1031 4 0.113421 0.0227961 0.177372
4171 2 0.0932479 0.0558758 0.225895
4172 4 0.118111 0.0541404 0.22389
2949 4 0.127111 0.0726915 0.220248
983 4 0.179022 0.0594064 0.159696
3847 2 0.209687 0.0602589 0.182266
3848 4 0.219419 0.0561839 0.204935
1637 4 0.225437 0.0546279 0.224074
1638 4 0.231452 0.00726205 0.23894
1636 2 0.228444 0.030945 0.231507
4578 4 0.306679 0.0511784 0.187955
4576 2 0.324665 0.0365541 0.197327
4577 4 0.342651 0.0219298 0.206698
1052 4 0.362118 0.0189106 0.210089
1051 2 0.362692 0.0125872 0.234273
4117 2 0.00253066 0.139612 0.180011
84 3 0.03661 0.0981285 0.24721
4118 4 0.990735 0.135987 0.201757
2947 2 0.137304 0.0846626 0.23969
3725 4 0.222553 0.111529 0.189831
3724 2 0.206128 0.127478 0.199883
3726 4 0.189703 0.143427 0.209934
4244 4 0.182842 0.134637 0.226739
2972 4 0.243363 0.109982 0.184594
4243 2 0.176694 0.156779 0.236594
2971 2 0.262885 0.117504 0.198287
925 2 0.304314 0.15424 0.214944
927 4 0.299286 0.13042 0.220643
2973 4 0.282406 0.125027 0.21198
4329 4 0.484873 0.105768 0.178506
4327 2 0.48565 0.118911 0.199763
4328 4 0.486428 0.132055 0.22102
377 3 0.478783 0.138743 0.238266
376 1 0.498364 0.137382 0.250261
380 3 0.504506 0.158254 0.256989
2184 4 0.0421504 0.214304 0.182375
2182 2 0.0574202 0.207108 0.200821
4186 2 0.0147456 0.24102 0.175649
4188 4 0.0335702 0.225875 0.169212
2183 4 0.0726901 0.199913 0.219267
4245 4 0.170546 0.178921 0.246448
1119 4 0.209065 0.19917 0.163268
3102 4 0.313363 0.181897 0.188264
3100 2 0.329556 0.193522 0.17317
926 4 0.309341 0.178061 0.209245
795 4 0.299897 0.177927 0.252117
793 2 0.292106 0.198101 0.264667
577 3 0.417464 0.24353 0.24294
3003 4 0.427917 0.218274 0.168424
357 3 0.461039 0.251231 0.17594
358 3 0.44247 0.219539 0.18391
356 1 0.462496 0.228274 0.176097
360 3 0.479589 0.221935 0.189747
2271 4 0.475096 0.210172 0.206756
2269 2 0.478826 0.207794 0.231365
4708 2 0.156006 0.30272 0.230912
4710 4 0.132926 0.310736 0.23623
3915 4 0.113446 0.310669 0.241916
4709 4 0.179085 0.294705 0.225594
3234 4 0.197997 0.288282 0.222648
3232 2 0.206437 0.30446 0.205552
3233 4 0.214877 0.320637 0.188457
566 1 0.247839 0.30738 0.169219
567 3 0.230898 0.310144 0.184532
4076 4 0.256579 0.274233 0.18903
4077 4 0.256743 0.258546 0.236514
568 3 0.260514 0.288921 0.175304
4075 2 0.256661 0.26639 0.212772
570 3 0.260889 0.326043 0.16902
3139 2 0.470478 0.267512 0.245379
3141 4 0.488226 0.281841 0.235137
4024 2 0.0121298 0.334806 0.213559
3216 4 0.0452488 0.331712 0.214975
4025 4 0.0333125 0.347718 0.216682
3214 2 0.0695689 0.33655 0.218187
3215 4 0.093889 0.341388 0.221398
1967 4 0.134925 0.338896 0.182565
1966 2 0.122031 0.346578 0.202563
1968 4 0.109138 0.35426 0.222561
1733 4 0.244054 0.374159 0.22378
29 3 0.238528 0.382899 0.240412
1734 4 0.285127 0.376331 0.195336
1732 2 0.264591 0.375245 0.209558
2825 4 0.305919 0.376154 0.193565
2824 2 0.325722 0.3687 0.206886
1131 4 0.420303 0.339689 0.159487
2826 4 0.345526 0.361245 0.220207
75 3 0.3851 0.35623 0.211911
71 1 0.3776 0.367639 0.230138
73 3 0.357151 0.377537 0.225419
74 3 0.393034 0.383859 0.236228
72 3 0.374901 0.352987 0.247665
4235 4 0.403204 0.374267 0.251045
371 1 0.478054 0.401367 0.243513
374 3 0.455485 0.396077 0.244551
4234 2 0.42699 0.376549 0.243684
4236 4 0.450776 0.378831 0.236322
372 3 0.484703 0.401297 0.221491
3503 4 0.031929 0.459208 0.178305
3502 2 0.0344402 0.482193 0.168787
3504 4 0.0369514 0.505177 0.159269
2698 2 0.343718 0.446531 0.169632
2699 4 0.351746 0.456198 0.191249
4283 4 0.365619 0.470421 0.189288
4282 2 0.376589 0.486795 0.204675
1847 4 0.480886 0.416129 0.207003
1846 2 0.471771 0.418588 0.183851
3163 2 0.0195655 0.0621654 0.288722
3165 4 0.0445575 0.0626721 0.289302
85 3 0.0502829 0.0773602 0.275483
440 3 0.19754 0.0788147 0.326308
1053 4 0.363266 0.00626373 0.258457
3084 4 0.37914 0.00737249 0.271337
3082 2 0.388646 0.027274 0.283117
3083 4 0.398152 0.0471755 0.294896
3143 4 0.418488 0.049974 0.296571
3142 2 0.440771 0.0485918 0.307829
799 2 0.49673 0.0568315 0.31598
800 4 0.476302 0.0562471 0.330387
3144 4 0.463054 0.0472097 0.319086
83 3 0.0720532 0.103732 0.259729
81 1 0.0555022 0.0879072 0.255986
1891 2 0.0849926 0.168845 0.296683
1893 4 0.0660679 0.170183 0.31297
1166 4 0.162046 0.100423 0.272104
2948 4 0.147496 0.0966338 0.259132
437 3 0.219229 0.105716 0.312208
1165 2 0.171103 0.091889 0.293792
1167 4 0.18016 0.0833553 0.315479
436 1 0.215413 0.0922938 0.330495
439 3 0.211048 0.105744 0.348891
378 3 0.494904 0.123801 0.268753
605 3 0.0503944 0.176327 0.323313
602 3 0.0423021 0.212193 0.316906
601 1 0.0367883 0.193592 0.329266
604 3 0.0146575 0.188058 0.325024
1892 4 0.103917 0.167508 0.280395
783 4 0.10695 0.185613 0.273037
782 4 0.152609 0.183281 0.252775
781 2 0.12978 0.184447 0.262906
1798 2 0.194417 0.231596 0.323881
1354 2 0.253099 0.197625 0.334725
1355 4 0.229262 0.20417 0.330967
1799 4 0.212187 0.214768 0.329004
794 4 0.284316 0.218275 0.277217
3006 4 0.280531 0.17334 0.341719
1696 2 0.389066 0.21453 0.303578
1698 4 0.368232 0.21656 0.317252
1697 4 0.409901 0.2125 0.289903
578 3 0.409184 0.228184 0.276236
576 1 0.420254 0.24563 0.265677
406 1 0.499932 0.198299 0.293639
408 3 0.494383 0.208826 0.27372
407 3 0.493982 0.176122 0.292237
409 3 0.488391 0.208064 0.311242
1072 2 0.490622 0.249066 0.324356
579 3 0.442919 0.244744 0.270567
3140 4 0.45273 0.253182 0.255621
2270 4 0.482556 0.205415 0.255974
1170 4 0.0478051 0.254958 0.298841
3133 2 0.0067741 0.315066 0.27502
1168 2 0.056464 0.274268 0.285524
3134 4 0.0309294 0.308934 0.272996
1197 4 0.0332147 0.328376 0.27451
1169 4 0.0651229 0.293578 0.272207
3914 4 0.0834553 0.294085 0.278334
3913 2 0.0984508 0.302377 0.260125
1800 4 0.176647 0.248424 0.318758
1784 4 0.171497 0.262502 0.304976
1785 4 0.196207 0.305492 0.311458
1783 2 0.183852 0.283997 0.308217
2934 4 0.200924 0.313102 0.292429
2932 2 0.22034 0.327804 0.286767
1671 4 0.278669 0.264961 0.309033
885 4 0.276035 0.281766 0.298332
883 2 0.270868 0.271636 0.276064
884 4 0.265701 0.261506 0.253795
1669 2 0.294583 0.262397 0.328147
2969 4 0.404819 0.285315 0.2764
2970 4 0.377174 0.278594 0.317527
2968 2 0.390996 0.281954 0.296964
580 3 0.41161 0.26557 0.272485
1073 4 0.486885 0.273582 0.327544
777 4 0.505417 0.329455 0.266182
3072 4 0.492725 0.28383 0.310661
1195 2 0.0563506 0.337729 0.272946
2238 4 0.0757113 0.366574 0.276213
1196 4 0.0794865 0.347082 0.271383
2236 2 0.0912995 0.377521 0.29241
2237 4 0.106888 0.388469 0.308607
2218 2 0.138558 0.394231 0.321512
2220 4 0.114883 0.402264 0.321902
2219 4 0.162233 0.386197 0.321122
30 3 0.235602 0.358088 0.268582
2933 4 0.239756 0.342505 0.281105
3937 2 0.202458 0.392756 0.305383
3938 4 0.225223 0.3917 0.295094
28 3 0.223903 0.393486 0.273854
3939 4 0.179694 0.393811 0.315671
26 1 0.239549 0.379911 0.263399
27 3 0.260552 0.385761 0.270733
1157 4 0.391774 0.358804 0.260364
1158 4 0.376948 0.355761 0.308027
1156 2 0.384361 0.357282 0.284195
4128 4 0.33466 0.483269 0.335871
889 2 0.410793 0.426569 0.334614
2246 4 0.350781 0.48982 0.324049
1082 4 0.500398 0.423628 0.259985
2169 4 0.484705 0.485871 0.29568
373 3 0.481651 0.42251 0.252368
891 4 0.430198 0.442265 0.336134
3223 2 0.0129251 0.0498549 0.410304
3224 4 0.0220512 0.0282957 0.401523
1482 4 0.0730747 0.0448739 0.375512
1480 2 0.0770229 0.0302011 0.395369
909 4 0.119657 0.99754 0.391739
907 2 0.131636 0.018243 0.384451
908 4 0.143614 0.0389457 0.377163
2723 4 0.158238 0.0533565 0.379471
2722 2 0.1795 0.0534756 0.392627
1471 2 0.235486 0.0632026 0.40399
2724 4 0.200762 0.0535946 0.405782
1473 4 0.253522 0.0760751 0.392407
3259 2 0.293009 0.063114 0.385824
3260 4 0.311979 0.0470825 0.382938
3108 4 0.324614 0.030564 0.384208
3261 4 0.27404 0.0791454 0.38871
3106 2 0.338648 0.033396 0.363708
3107 4 0.352682 0.036228 0.343208
4336 2 0.491932 0.00478356 0.36693
4337 4 0.501277 0.0218615 0.351239
3975 4 0.00483487 0.091823 0.418936
438 3 0.234305 0.0794037 0.334413
399 3 0.334773 0.148011 0.363081
396 1 0.336511 0.129582 0.377071
398 3 0.316741 0.1267 0.388872
2213 4 0.311706 0.129284 0.40885
2212 2 0.296369 0.147281 0.41698
400 3 0.341037 0.110925 0.36482
397 3 0.353631 0.133174 0.39201
3711 4 0.349616 0.153571 0.396422
603 3 0.0395609 0.198456 0.351784
2000 4 0.0276083 0.209871 0.361727
1999 2 0.0352354 0.205826 0.385193
2001 4 0.0428624 0.201781 0.408659
870 4 0.0573819 0.19607 0.421587
1356 4 0.276936 0.19108 0.338483
3005 4 0.324559 0.187488 0.360749
3004 2 0.302545 0.180414 0.351234
4478 4 0.36387 0.227044 0.33384
4477 2 0.354084 0.209961 0.349253
4479 4 0.344297 0.192877 0.364667
3709 2 0.355004 0.174155 0.409554
63 3 0.122484 0.260756 0.384491
61 1 0.128915 0.278896 0.397453
3775 2 0.138017 0.322421 0.36449
65 3 0.12025 0.298096 0.388795
3777 4 0.13715 0.305315 0.382706
3353 4 0.1642 0.295813 0.402601
3435 4 0.236147 0.314719 0.356685
1670 4 0.310497 0.259833 0.347261
1076 4 0.30744 0.273322 0.402775
1855 2 0.301448 0.309487 0.381723
1856 4 0.299033 0.286174 0.390433
1857 4 0.303863 0.3328 0.373013
1140 4 0.327814 0.269892 0.347839
1139 4 0.374622 0.264117 0.331215
1138 2 0.351218 0.267005 0.339527
3776 4 0.138884 0.339527 0.346274
4305 4 0.151935 0.353836 0.351863
3433 2 0.221996 0.335321 0.355959
3434 4 0.207844 0.355922 0.355232
3981 4 0.191155 0.352644 0.412192
4304 4 0.197703 0.373022 0.35801
4303 2 0.174819 0.363429 0.354937
3980 4 0.239864 0.36282 0.407221
3979 2 0.215509 0.357732 0.409706
9 3 0.252514 0.376183 0.399805
6 1 0.261953 0.39467 0.410175
875 4 0.316697 0.342978 0.385398
8 3 0.283887 0.390051 0.416168
4253 4 0.295943 0.406166 0.416718
10 3 0.261341 0.412603 0.396149
874 2 0.338265 0.355506 0.383646
2263 2 0.378066 0.386395 0.361427
2265 4 0.378829 0.366797 0.376937
876 4 0.359834 0.368033 0.381894
2264 4 0.377304 0.405993 0.345917
2847 4 0.25033 0.429439 0.396662
4252 2 0.30818 0.427949 0.417701
2845 2 0.261335 0.450629 0.389244
2846 4 0.272341 0.471819 0.381826
3230 4 0.330772 0.467098 0.420694
4126 2 0.312992 0.473171 0.3432
4127 4 0.291324 0.463073 0.350529
3229 2 0.319266 0.487144 0.411157
890 4 0.391389 0.410873 0.333093
833 4 0.491205 0.446841 0.417081
3225 4 0.003799 0.0714141 0.419084
1481 4 0.0809712 0.0155283 0.415226
2906 4 0.0974476 0.00833123 0.424754
1472 4 0.21745 0.05033 0.415573
1535 4 0.227473 0.0684543 0.471577
3686 4 0.229225 0.0518205 0.460122
3685 2 0.246213 0.0348759 0.453091
1534 2 0.211357 0.0609956 0.48918
1980 4 0.32173 0.0469267 0.461849
1978 2 0.30172 0.0320311 0.460135
1979 4 0.281711 0.0171355 0.45842
3687 4 0.263202 0.0179312 0.446059
89 3 0.329135 0.0525764 0.479091
930 4 0.356999 0.0672207 0.421916
928 2 0.361233 0.05223 0.441474
993 4 0.356117 0.0190902 0.465185
929 4 0.365467 0.0372393 0.461033
991 2 0.366469 0.00202104 0.48024
88 3 0.347472 0.0320973 0.505337
815 4 0.012884 0.187268 0.447128
869 4 0.0265788 0.174214 0.454363
868 2 0.0419804 0.185142 0.437975
214 3 0.247304 0.185378 0.445206
2214 4 0.281032 0.165277 0.425111
211 1 0.269614 0.18927 0.450259
215 3 0.282303 0.171599 0.443523
212 3 0.276543 0.208221 0.439215
213 3 0.272107 0.19256 0.473093
2150 4 0.271783 0.192655 0.493645
3710 4 0.360392 0.19474 0.422685
3282 4 0.347293 0.205271 0.433548
3280 2 0.358769 0.205321 0.455763
3281 4 0.370245 0.20537 0.477977
3377 4 0.36968 0.206783 0.498185
1538 4 0.506681 0.243023 0.445715
62 3 0.151876 0.28027 0.39745
64 3 0.121574 0.276035 0.419278
3354 4 0.196537 0.333797 0.406116
3352 2 0.180368 0.314805 0.404359
1075 2 0.30927 0.278072 0.427256
1077 4 0.311099 0.282821 0.451736
1703 4 0.323288 0.291381 0.466142
1702 2 0.332845 0.31439 0.46825
7 3 0.249912 0.399495 0.429171
1743 4 0.240894 0.397616 0.4477
3062 4 0.342559 0.354296 0.460829
3061 2 0.352122 0.37256 0.474977
3063 4 0.361685 0.390824 0.489126
1704 4 0.342403 0.337398 0.470358
2066 4 0.132044 0.490198 0.484856
4436 4 0.0961828 0.443996 0.483776
2065 2 0.147079 0.477477 0.500261
1742 4 0.246387 0.430674 0.484817
4254 4 0.320417 0.449731 0.418685
1741 2 0.24364 0.414145 0.466259
1104 4 0.499478 0.491493 0.489149
1102 2 0.477779 0.480129 0.494172
1008 4 0.473259 0.439546 0.415105
1007 4 0.43806 0.472092 0.429335
1006 2 0.45566 0.455819 0.42222
3395 4 0.0300882 0.0619943 0.536976
2655 4 0.0196239 0.0486074 0.525558
3394 2 0.0274475 0.0722735 0.559615
2653 2 0.0117467 0.0260101 0.518312
2654 4 0.00386943 0.00341281 0.511067
2957 4 0.0858192 0.00474126 0.580439
147 3 0.084351 0.0380391 0.536607
146 1 0.0990493 0.0239927 0.547367
149 3 0.119764 0.0343673 0.548649
565 3 0.151387 0.0561829 0.532411
564 3 0.147234 0.0236771 0.51387
4784 4 0.12682 0.0526251 0.55117
4783 2 0.127174 0.0754131 0.561455
150 3 0.0912534 0.0195934 0.568309
148 3 0.100801 0.00427205 0.535266
4542 4 0.171563 0.02627 0.564937
561 1 0.161643 0.0367109 0.526554
562 3 0.167339 0.0251243 0.545592
563 3 0.180931 0.0412425 0.514477
1536 4 0.195242 0.0535368 0.506782
4540 2 0.171288 0.00717971 0.581083
3480 4 0.256662 0.00393711 0.556356
3478 2 0.25736 0.0249091 0.569953
87 3 0.320731 0.0564684 0.515518
2996 4 0.308019 0.0666676 0.527135
2995 2 0.291397 0.0850399 0.530507
86 1 0.337828 0.0526646 0.500605
90 3 0.353369 0.069186 0.502638
4523 4 0.421847 0.0680741 0.567936
4522 2 0.432185 0.0558984 0.548699
4524 4 0.442523 0.0437227 0.529462
3714 4 0.499218 0.069078 0.567486
3330 4 0.0404363 0.155014 0.529559
3328 2 0.0184948 0.166548 0.532832
4785 4 0.127528 0.098201 0.57174
4782 4 0.110255 0.106886 0.574734
2997 4 0.274776 0.103412 0.53388
2706 4 0.488019 0.0746243 0.552166
2151 4 0.310067 0.216836 0.514864
2149 2 0.290925 0.204745 0.504255
3378 4 0.325621 0.205948 0.521826
3376 2 0.347651 0.206366 0.510005
3357 4 0.0785854 0.328726 0.513029
1040 4 0.390456 0.285373 0.589241
3355 2 0.0905351 0.350114 0.518025
3356 4 0.102485 0.371502 0.52302
2559 4 0.224346 0.335536 0.549828
2557 2 0.237298 0.356922 0.550142
162 3 0.26051 0.395169 0.550958
2558 4 0.25025 0.378307 0.550456
161 1 0.257518 0.413747 0.564189
4437 4 0.0727954 0.448169 0.527779
727 3 0.99649 0.480806 0.579362
1238 4 0.0716197 0.459674 0.543129
1237 2 0.0758865 0.472844 0.56395
4435 2 0.0844891 0.446083 0.505777
1239 4 0.0801533 0.486013 0.584772
2067 4 0.162114 0.464755 0.515666
3424 2 0.156247 0.458872 0.552121
3426 4 0.142396 0.463014 0.572521
3425 4 0.170099 0.454729 0.531721
1950 4 0.122585 0.505838 0.493679
3358 2 0.227617 0.457903 0.545308
3359 4 0.222234 0.433556 0.547155
163 3 0.23946 0.425877 0.556113
3360 4 0.233 0.482251 0.543461
4362 4 0.261923 0.430498 0.495829
4360 2 0.279243 0.421089 0.511213
4628 4 0.3104 0.419382 0.513264
4361 4 0.296563 0.41168 0.526597
165 3 0.276363 0.426518 0.563559
4627 2 0.332337 0.431379 0.513053
4629 4 0.354273 0.443376 0.512842
3047 4 0.422929 0.440952 0.548548
3046 2 0.43483 0.446566 0.527287
3048 4 0.446731 0.45218 0.506026
1103 4 0.45608 0.468765 0.499195
1629 4 0.0165413 0.0891557 0.598379
1627 2 0.999813 0.0737192 0.608725
3539 4 0.0465426 0.0560046 0.669114
1620 4 0.138342 0.0133482 0.666255
3182 4 0.221967 0.0821315 0.613415
1333 2 0.217345 0.0808499 0.656688
3181 2 0.242533 0.0725509 0.602906
3479 4 0.258059 0.0458811 0.583549
3183 4 0.263099 0.0629703 0.592397
342 3 0.335846 0.0512227 0.653393
341 1 0.325157 0.0661837 0.667214
3678 4 0.373634 0.0229601 0.651913
4112 4 0.424926 0.0746726 0.586116
4111 2 0.423898 0.0749371 0.611097
3676 2 0.392056 0.0127586 0.638432
4113 4 0.42287 0.0752015 0.636079
3659 4 0.416014 0.089674 0.645704
3677 4 0.410477 0.00255722 0.624951
3348 4 0.466086 0.0430346 0.620166
3346 2 0.46058 0.0187225 0.618217
3713 4 0.481629 0.0461233 0.608284
3712 2 0.490423 0.0576006 0.587885
4407 4 0.484812 0.017357 0.667619
4405 2 0.496225 0.0396038 0.66775
2988 4 0.492286 0.00200624 0.679425
3396 4 0.0248068 0.0825527 0.582254
4781 4 0.132531 0.148496 0.591257
4780 2 0.121393 0.127691 0.582996
2267 4 0.120675 0.111535 0.655426
1334 4 0.21691 0.0854106 0.632108
4672 2 0.296162 0.154121 0.649815
4674 4 0.29213 0.129518 0.647911
3658 2 0.409752 0.107906 0.661628
1302 4 0.358638 0.138271 0.660482
364 3 0.497446 0.137647 0.612779
2439 4 0.0374636 0.205153 0.628533
2437 2 0.016402 0.200853 0.615763
2874 4 0.20893 0.175415 0.598009
3079 2 0.191347 0.242671 0.612852
3080 4 0.188771 0.234095 0.636196
170 3 0.207232 0.236933 0.64216
2872 2 0.211969 0.187536 0.619666
2873 4 0.215009 0.199657 0.641323
168 3 0.211061 0.204323 0.660586
166 1 0.210633 0.227437 0.662578
1496 4 0.302463 0.19778 0.656009
4673 4 0.300194 0.178724 0.651719
1495 2 0.304587 0.206361 0.63262
1497 4 0.30671 0.214943 0.609231
2561 4 0.314327 0.234847 0.609211
2554 2 0.260927 0.24814 0.651704
2560 2 0.337217 0.241337 0.601523
1041 4 0.409599 0.242548 0.606572
839 4 0.480186 0.198608 0.599356
3389 4 0.465373 0.210156 0.60232
3390 4 0.430408 0.245019 0.610252
3388 2 0.447891 0.227587 0.606286
838 2 0.503403 0.202438 0.590899
3873 4 0.0114516 0.315468 0.614299
3420 4 0.169517 0.30836 0.646306
1346 4 0.173739 0.315419 0.664943
3081 4 0.193923 0.251248 0.589507
3418 2 0.193383 0.301018 0.644996
3419 4 0.217249 0.293677 0.643687
2555 4 0.273447 0.264955 0.638077
2562 4 0.360107 0.247826 0.593836
1039 2 0.400028 0.26396 0.597906
2898 4 0.458878 0.279769 0.664116
732 3 0.16942 0.389032 0.616329
731 1 0.147291 0.394159 0.612701
735 3 0.135377 0.389765 0.631605
3314 4 0.144481 0.374776 0.64167
733 3 0.145591 0.416667 0.607324
734 3 0.139368 0.381202 0.595158
164 3 0.253341 0.406864 0.585951
2858 4 0.285219 0.359738 0.618292
2567 4 0.294133 0.35601 0.63554
2566 2 0.300692 0.342902 0.655797
2857 2 0.269121 0.374949 0.606688
2859 4 0.253023 0.39016 0.595084
726 1 0.00538883 0.498184 0.591527
4706 4 0.0954291 0.495319 0.594941
4707 4 0.13945 0.488251 0.617592
4705 2 0.11744 0.491785 0.606267
1569 4 0.147865 0.432061 0.620397
1567 2 0.1588 0.454419 0.618003
1568 4 0.169736 0.476777 0.61561
1830 4 0.184315 0.482857 0.629211
1828 2 0.20218 0.489181 0.645521
1829 4 0.220046 0.495504 0.661831
1767 4 0.331392 0.485391 0.647513
2605 2 0.471406 0.480872 0.653314
2999 4 0.4289 0.507768 0.644178
3540 4 0.0137762 0.0352383 0.700671
3538 2 0.0301594 0.0456215 0.684892
2268 4 0.089832 0.0732135 0.664421
3767 4 0.05859 0.0768148 0.702504
324 3 0.998278 0.0475757 0.704875
3114 4 0.028285 0.0247063 0.728297
1618 2 0.128722 0.024586 0.686414
1619 4 0.119103 0.0358237 0.706573
1274 4 0.114177 0.0168751 0.71412
1273 2 0.114725 0.00062401 0.733115
1335 4 0.21778 0.0762892 0.681269
1533 4 0.18551 0.0428842 0.690009
1531 2 0.197324 0.0425074 0.712043
1532 4 0.209139 0.0421306 0.734076
345 3 0.327564 0.087209 0.658801
1745 4 0.260165 0.0723041 0.737046
343 3 0.302656 0.0606233 0.668314
1744 2 0.268376 0.0542563 0.721813
1746 4 0.276587 0.0362085 0.70658
3708 4 0.28384 0.0181355 0.712369
3706 2 0.296671 0.00479693 0.695556
344 3 0.334657 0.0649789 0.68835
1385 4 0.341336 0.0468149 0.690632
1384 2 0.342357 0.0481279 0.715581
1386 4 0.343377 0.049441 0.740529
3497 4 0.341824 0.0693676 0.742892
1512 4 0.45778 0.0757632 0.674359
1510 2 0.468441 0.0782084 0.696843
3270 4 0.0232117 0.148686 0.709704
3268 2 0.00435449 0.133607 0.716201
3766 2 0.0653573 0.0807474 0.726251
3768 4 0.0721247 0.08468 0.749998
3368 4 0.025512 0.164761 0.697651
3269 4 0.985497 0.118528 0.722699
3363 4 0.133364 0.116321 0.66971
2266 2 0.105254 0.0923743 0.659923
3362 4 0.156714 0.117917 0.713901
3477 4 0.0893141 0.0936098 0.744157
3361 2 0.145039 0.117119 0.691805
1310 4 0.166286 0.172456 0.665159
1309 2 0.177896 0.167616 0.686768
1311 4 0.189507 0.162776 0.708378
1301 4 0.324704 0.10271 0.669678
1300 2 0.341671 0.12049 0.66508
514 3 0.417389 0.141196 0.708669
3660 4 0.40349 0.126138 0.677551
511 1 0.408316 0.16121 0.716121
512 3 0.397238 0.157435 0.735924
1511 4 0.479102 0.0806537 0.719327
3367 2 0.0396739 0.179348 0.712205
3369 4 0.0538359 0.193935 0.72676
1487 4 0.0718328 0.200442 0.732433
1486 2 0.092906 0.211715 0.739783
3578 4 0.114803 0.239168 0.757722
167 3 0.230833 0.234552 0.670975
3448 2 0.204957 0.183312 0.741165
3450 4 0.189736 0.168771 0.727672
169 3 0.193771 0.233817 0.677185
2556 4 0.248407 0.231326 0.665331
515 3 0.39361 0.169287 0.700722
1324 2 0.393971 0.219467 0.692723
1326 4 0.38887 0.233206 0.712981
3171 4 0.392219 0.229144 0.732887
1325 4 0.399072 0.205728 0.672464
513 3 0.425213 0.17668 0.719808
1700 4 0.0367855 0.282054 0.744436
1699 2 0.0445586 0.261061 0.755574
3577 2 0.136294 0.251222 0.753473
3579 4 0.157785 0.263276 0.749224
1347 4 0.137927 0.322835 0.69905
3785 4 0.136111 0.308763 0.714573
1345 2 0.155833 0.319127 0.681996
3784 2 0.131728 0.326968 0.731142
1689 4 0.185145 0.242594 0.692951
1688 4 0.175056 0.260779 0.738429
1687 2 0.180101 0.251686 0.71569
1731 4 0.262528 0.282732 0.741914
2415 4 0.32683 0.331324 0.675101
1313 4 0.38108 0.312178 0.710451
2414 4 0.362399 0.315029 0.706246
2413 2 0.344614 0.323176 0.690673
1312 2 0.399609 0.328887 0.712087
2896 2 0.465225 0.28986 0.686095
2897 4 0.471572 0.299951 0.708074
2741 4 0.460193 0.294003 0.722799
3557 4 0.0174721 0.400861 0.704224
3313 2 0.146269 0.372104 0.666466
3315 4 0.148056 0.369432 0.691262
3221 4 0.0973307 0.366564 0.727708
3786 4 0.127346 0.345173 0.747712
2568 4 0.307251 0.329795 0.676054
1314 4 0.418138 0.345596 0.713723
4613 4 0.42859 0.354568 0.729853
3465 4 0.027807 0.412243 0.717136
3464 4 0.0385366 0.457712 0.734974
3463 2 0.0331718 0.434977 0.726055
4742 4 0.035682 0.477714 0.737471
4741 2 0.0135321 0.487119 0.74426
1340 4 0.225341 0.495234 0.68188
1518 4 0.221445 0.438509 0.732085
1516 2 0.204937 0.436126 0.713458
1517 4 0.18843 0.433743 0.69483
2383 2 0.19083 0.503029 0.730153
1586 4 0.264142 0.500939 0.743231
650 3 0.308807 0.471547 0.728303
646 1 0.297042 0.485138 0.742285
647 3 0.277606 0.491711 0.731884
2606 4 0.463562 0.460678 0.665798
1319 4 0.503906 0.42816 0.716045
700 3 0.48587 0.463158 0.719261
698 3 0.491394 0.430749 0.70091
697 3 0.470867 0.458179 0.685454
696 1 0.489085 0.453739 0.698778
2489 4 0.492262 0.479449 0.730623
2488 2 0.474966 0.495336 0.739204
3691 2 0.00383748 0.0814091 0.756983
4240 2 0.0193464 0.078512 0.813754
4242 4 0.0218211 0.087672 0.790621
1885 2 0.225427 0.0434062 0.816214
1887 4 0.234177 0.0247878 0.802002
4490 4 0.241361 0.0107644 0.788913
1886 4 0.216677 0.0620247 0.830426
114 3 0.326744 0.0528633 0.819419
3792 4 0.370597 0.068509 0.802638
3790 2 0.387199 0.0760852 0.785545
115 3 0.36159 0.049912 0.805465
111 1 0.349349 0.0558312 0.823734
3791 4 0.403801 0.0836614 0.768452
3692 4 0.0210386 0.0917898 0.771867
1404 4 0.0594955 0.139106 0.798928
1402 2 0.0747864 0.155407 0.810138
3475 2 0.109266 0.105765 0.753066
3476 4 0.129218 0.11792 0.761974
1232 4 0.116986 0.132732 0.768367
1231 2 0.12554 0.154542 0.777105
4585 2 0.29969 0.130693 0.785903
4586 4 0.277386 0.141661 0.788625
1523 4 0.261183 0.146129 0.777969
4587 4 0.321994 0.119725 0.783181
3498 4 0.336131 0.106008 0.776444
3496 2 0.338978 0.087688 0.759668
1701 4 0.0523316 0.240067 0.766712
1328 4 0.029978 0.227159 0.838055
1403 4 0.0900772 0.171707 0.821348