ITEM: TIMESTEP
1023500
ITEM: NUMBER OF ATOMS
4800
ITEM: BOX BOUNDS xy xz yz pp pp pp
-9.9985700000000008e+00 1.9397225800000001e+01 9.3986558000000002e+00
-9.9985700000000008e+00 9.9985700000000008e+00 0.0000000000000000e+00
-9.9985700000000008e+00 9.9985700000000008e+00 0.0000000000000000e+00
ITEM: ATOMS id type xs ys zs
353 3 0.125595 0.0129446 0.0619702
32 3 0.266527 0.0216627 0.0185261
35 3 0.250875 0.999947 0.034424
31 1 0.26916 0.00701767 0.0357488
34 3 0.267569 0.0179295 0.0559188
4289 4 0.342458 0.000519675 0.0235246
3859 2 0.331111 0.0559843 0.0781086
3861 4 0.355449 0.0559702 0.0723503
1244 4 0.361084 0.0697817 0.0805138
45 3 0.000682189 0.133217 0.0133584
43 3 0.00596802 0.162139 0.0283509
3212 4 0.0260859 0.149668 0.023663
3211 2 0.0513815 0.147044 0.017394
3213 4 0.0766771 0.144419 0.0111249
3197 4 0.0787174 0.160772 0.00365434
3537 4 0.192094 0.102136 0.033069
3535 2 0.19347 0.1172 0.0511453
3536 4 0.194846 0.132264 0.0692215
1278 4 0.193779 0.147715 0.0828197
3195 4 0.292748 0.148273 0.0802952
1303 2 0.432703 0.151845 0.0136749
1887 4 0.473268 0.0982218 0.059134
918 4 0.460468 0.114854 0.00281614
1885 2 0.472799 0.108935 0.08126
92 3 0.0308478 0.219065 0.0605368
95 3 0.0497784 0.193414 0.0343137
966 4 0.0542305 0.222964 0.0105005
91 1 0.0488981 0.212244 0.0443423
93 3 0.0432398 0.229193 0.0286639
94 3 0.0714505 0.207838 0.0543171
3015 4 0.0924501 0.201907 0.0511103
3013 2 0.115798 0.204723 0.0481816
3198 4 0.112647 0.183287 0.00721008
3196 2 0.0956822 0.17203 0.00543221
3014 4 0.139145 0.207539 0.0452529
1758 4 0.140787 0.224981 0.046305
1756 2 0.167594 0.21954 0.0435629
1253 4 0.197739 0.188617 0.00088649
1213 2 0.157497 0.180269 0.00390165
1214 4 0.180513 0.183896 0.00296307
1757 4 0.194401 0.214099 0.0408208
3761 4 0.197411 0.222063 0.0583122
3760 2 0.218245 0.221493 0.0725211
3762 4 0.23908 0.220922 0.0867301
1207 2 0.269122 0.227689 0.071259
1209 4 0.288532 0.222601 0.0536623
3158 4 0.352207 0.180238 0.0356388
1128 4 0.303894 0.223533 0.066633
1126 2 0.318125 0.230064 0.0498043
300 3 0.336589 0.227307 0.0156111
3157 2 0.378929 0.17395 0.0401973
1127 4 0.332356 0.236596 0.0329757
3159 4 0.405651 0.167662 0.0447558
299 3 0.350532 0.193034 0.000171174
1304 4 0.416373 0.169815 0.0291697
4403 4 0.389268 0.24155 0.0419683
1184 4 0.407017 0.2278 0.0312661
1183 2 0.425593 0.233124 0.0189143
1185 4 0.444168 0.238449 0.00656249
2837 4 0.466141 0.225641 0.00123162
2836 2 0.486688 0.220745 0.0176117
4051 2 0.028113 0.285458 0.0274125
4053 4 0.0365235 0.262598 0.0175567
4052 4 0.0197025 0.308319 0.0372683
3993 4 0.0398713 0.305706 0.0426686
3991 2 0.0561053 0.317308 0.038168
3992 4 0.0723392 0.32891 0.0336674
1220 4 0.27684 0.311263 0.00361637
877 2 0.321985 0.304633 0.0178681
878 4 0.296608 0.3108 0.00882101
879 4 0.347362 0.298466 0.0269151
4404 4 0.357859 0.290794 0.0446792
4402 2 0.373563 0.266172 0.0433238
3411 4 0.368999 0.320961 0.0662602
809 4 0.389748 0.310696 0.0673994
808 2 0.404569 0.318764 0.0527825
905 4 0.457361 0.27252 0.000739662
810 4 0.41939 0.326832 0.0381657
763 2 0.00797213 0.380176 0.0182473
765 4 0.0202877 0.378965 0.040287
1171 2 0.020361 0.373607 0.0755183
1173 4 0.0265956 0.362987 0.0529161
2145 4 0.0708658 0.34016 0.0500677
2143 2 0.0824802 0.356088 0.0526489
2144 4 0.0940946 0.372017 0.05523
432 3 0.152645 0.36878 0.0624706
434 3 0.191982 0.361045 0.0536283
431 1 0.170917 0.376113 0.0643895
435 3 0.163108 0.396671 0.0547671
1709 4 0.241905 0.409404 0.0379284
449 3 0.273223 0.369624 0.022991
447 3 0.261587 0.398528 0.0469369
448 3 0.298682 0.369467 0.051275
446 1 0.281402 0.382689 0.0357465
450 3 0.291598 0.393116 0.0222554
1992 4 0.315649 0.361855 0.0653323
4353 4 0.308601 0.397242 0.0164507
1990 2 0.334011 0.370193 0.0576372
4351 2 0.323296 0.409991 0.0105586
1991 4 0.352373 0.378531 0.0499421
3327 4 0.365196 0.367883 0.0335456
3325 2 0.371682 0.354951 0.01215
4379 4 0.419458 0.343863 0.0302529
4378 2 0.433677 0.35202 0.0149957
4380 4 0.447895 0.360176 0.999739
3444 4 0.0505112 0.48886 0.0688056
3442 2 0.0749972 0.475846 0.0579256
3443 4 0.0994831 0.462833 0.0470455
12 3 0.109263 0.47392 0.0560922
13 3 0.145427 0.463585 0.038044
15 3 0.14159 0.442567 0.0661118
11 1 0.134526 0.463861 0.0585945
14 3 0.141302 0.476012 0.0739196
2888 4 0.197688 0.423755 0.0790193
1880 4 0.159192 0.478517 0.0741344
1710 4 0.205228 0.436526 0.072461
1708 2 0.223566 0.422965 0.0551947
1879 2 0.165876 0.497779 0.0766873
4352 4 0.337992 0.422739 0.00466655
52 3 0.427877 0.498291 0.0843089
3339 4 0.403119 0.466658 0.0157397
4575 4 0.389412 0.468577 0.0293153
4573 2 0.39071 0.475621 0.0528596
4574 4 0.392009 0.482664 0.0764039
938 4 0.482423 0.47846 0.0374562
4034 4 0.478105 0.472686 0.0189179
380 3 0.0552203 0.00373356 0.10428
1032 4 0.00131866 0.0481131 0.118671
377 3 0.0200744 0.000647077 0.0976422
378 3 0.0191224 0.0303611 0.116627
376 1 0.0326186 0.00765285 0.112784
983 4 0.263336 0.0702679 0.136362
982 2 0.281506 0.0686348 0.118483
984 4 0.299676 0.0670016 0.100603
3860 4 0.306772 0.0559983 0.0838669
1243 2 0.377615 0.0639208 0.10054
1245 4 0.394145 0.05806 0.120567
3983 4 0.416831 0.0528803 0.120128
3982 2 0.440433 0.0497579 0.108926
3984 4 0.464036 0.0466354 0.0977233
1054 2 0.472202 0.0331408 0.159581
1055 4 0.489372 0.0346938 0.142193
1740 4 0.1175 0.119952 0.127893
1738 2 0.108667 0.143814 0.120814
2922 4 0.206815 0.130394 0.140273
2920 2 0.230175 0.110268 0.135086
1276 2 0.212602 0.156962 0.0845071
2921 4 0.253534 0.0901421 0.129899
1277 4 0.231424 0.16621 0.0861944
3193 2 0.267381 0.159758 0.0900169
1109 4 0.307075 0.153245 0.0886672
1201 2 0.437214 0.145562 0.117077
1886 4 0.472331 0.119649 0.103386
1202 4 0.457275 0.122325 0.118375
802 2 0.00197098 0.224949 0.137447
804 4 0.0154351 0.238412 0.144674
3312 4 0.0244264 0.251178 0.138487
1739 4 0.0998335 0.167676 0.113735
927 4 0.101711 0.184722 0.107803
925 2 0.119115 0.193127 0.117731
926 4 0.136518 0.201531 0.127659
3194 4 0.242015 0.171243 0.0997387
1208 4 0.249712 0.232777 0.0888558
1108 2 0.315474 0.171278 0.0925805
1110 4 0.323872 0.18931 0.0964937
899 4 0.34488 0.186619 0.0955269
1203 4 0.417153 0.168799 0.115778
898 2 0.370254 0.181306 0.104108
900 4 0.395627 0.175992 0.112689
3310 2 0.0447439 0.254326 0.150326
3311 4 0.0650615 0.257474 0.162165
3409 2 0.365188 0.306488 0.0836704
776 4 0.36649 0.281277 0.118443
3410 4 0.361378 0.292016 0.101081
775 2 0.392009 0.272212 0.127987
777 4 0.417527 0.263146 0.137531
3750 4 0.418845 0.275894 0.123966
3748 2 0.442975 0.276591 0.118816
3749 4 0.467104 0.277289 0.113665
2324 4 0.0274598 0.365938 0.164744
2325 4 0.0210134 0.382137 0.117447
2323 2 0.0242366 0.374037 0.141095
1172 4 0.0141265 0.384227 0.0981204
3033 4 0.132555 0.402307 0.159393
3842 4 0.151766 0.404408 0.155999
433 3 0.175854 0.377375 0.0868887
2994 4 0.293824 0.357788 0.0910061
2993 4 0.281924 0.401527 0.113648
3243 4 0.287009 0.414084 0.12484
2992 2 0.287874 0.379657 0.102327
3115 2 0.0127187 0.469945 0.154116
3116 4 0.0393397 0.453692 0.153285
3841 2 0.156328 0.422479 0.144678
3843 4 0.160889 0.440551 0.133357
2887 2 0.188714 0.431566 0.102172
2889 4 0.179739 0.439377 0.125324
3241 2 0.306898 0.422108 0.123835
3242 4 0.326786 0.430132 0.12283
4259 4 0.370521 0.483758 0.138806
3078 4 0.384498 0.466209 0.131131
3076 2 0.392958 0.452978 0.110033
3077 4 0.401417 0.439748 0.0889358
4577 4 0.0209894 0.0175282 0.242564
4319 4 0.00890037 0.0116559 0.228887
4576 2 0.0317252 0.0341371 0.244916
4578 4 0.0424611 0.0507461 0.247268
2948 4 0.166671 0.0695333 0.220709
2947 2 0.192564 0.0662157 0.225404
2949 4 0.218457 0.062898 0.2301
2966 4 0.274346 0.019912 0.18426
3066 4 0.265639 0.00858393 0.175246
2965 2 0.277059 0.0314673 0.204883
4307 4 0.269565 0.999652 0.231971
2967 4 0.279772 0.0430225 0.225507
369 3 0.392087 0.0532315 0.232491
3998 4 0.411721 0.0531312 0.229187
367 3 0.415402 0.0193992 0.247087
3997 2 0.425007 0.0657914 0.219446
4430 4 0.454146 0.0140541 0.177856
1056 4 0.455032 0.0315878 0.17697
3999 4 0.438293 0.0784516 0.209705
4118 4 0.451288 0.0721414 0.225861
4117 2 0.47341 0.0768636 0.229079
3097 2 0.407758 0.142676 0.245747
3098 4 0.431869 0.142493 0.238822
385 3 0.43994 0.156041 0.239119
4119 4 0.495533 0.0815857 0.232297
381 1 0.454225 0.165225 0.229721
384 3 0.46678 0.152645 0.21139
3002 4 0.472729 0.147042 0.192655
382 3 0.471172 0.165378 0.245197
3288 4 0.486399 0.169219 0.2365
2274 4 0.107323 0.185426 0.239804
2272 2 0.116774 0.201181 0.230168
2273 4 0.126224 0.216936 0.220531
833 4 0.136623 0.227174 0.211811
832 2 0.158732 0.232132 0.213626
834 4 0.180842 0.237091 0.215442
4026 4 0.199236 0.239584 0.220474
4024 2 0.221639 0.243675 0.216389
4025 4 0.244043 0.247766 0.212304
383 3 0.43958 0.187051 0.22318
1058 4 0.0155807 0.287992 0.207166
1228 2 0.0348292 0.263877 0.240176
359 3 0.0214527 0.299769 0.193673
1230 4 0.0323147 0.277649 0.219686
358 3 0.0523614 0.272065 0.212565
356 1 0.0464675 0.285537 0.193677
360 3 0.0523513 0.272625 0.174918
357 3 0.0597558 0.298166 0.193995
932 4 0.0735046 0.305159 0.203323
931 2 0.100222 0.300458 0.204888
1047 4 0.137979 0.263318 0.228745
933 4 0.126938 0.295758 0.206454
3674 4 0.145237 0.298758 0.202691
1045 2 0.143746 0.273675 0.248865
3673 2 0.164307 0.306639 0.196025
3675 4 0.183378 0.314519 0.189359
1734 4 0.252227 0.261159 0.210879
1732 2 0.269012 0.271813 0.204813
3867 4 0.270926 0.312082 0.229147
1733 4 0.285797 0.282467 0.198747
3865 2 0.2876 0.320628 0.240286
1169 4 0.300202 0.289888 0.19192
1168 2 0.322055 0.295236 0.190229
1170 4 0.343908 0.300584 0.188538
1983 4 0.361586 0.303675 0.192279
3866 4 0.304273 0.329174 0.251425
1981 2 0.384661 0.307197 0.191189
1982 4 0.407736 0.310719 0.190099
756 4 0.423832 0.319134 0.190126
754 2 0.443024 0.326963 0.196515
3141 4 0.0207163 0.353057 0.172295
3139 2 0.0274875 0.354079 0.196202
3140 4 0.0342587 0.355101 0.220109
577 3 0.0356566 0.345265 0.236954
579 3 0.0355298 0.379178 0.240493
576 1 0.0447866 0.357696 0.249221
578 3 0.0703785 0.347756 0.247827
3938 4 0.077114 0.410179 0.192233
3032 4 0.0958999 0.395712 0.189004
3031 2 0.114228 0.39901 0.174199
3257 4 0.320223 0.336383 0.250684
755 4 0.462215 0.334792 0.202903
967 2 0.433835 0.407186 0.206169
968 4 0.421946 0.410084 0.228663
969 4 0.445723 0.404288 0.183675
2826 4 0.477424 0.343433 0.199855
2824 2 0.488193 0.36007 0.198151
3939 4 0.0366132 0.450815 0.172451
3937 2 0.0568636 0.430497 0.182342
4709 4 0.241725 0.501204 0.242324
4172 4 0.0147854 0.00553975 0.312483
4171 2 0.0234425 0.0225569 0.320113
303 3 0.0541188 0.035569 0.327576
4173 4 0.0320997 0.0395741 0.327743
4477 2 0.00341918 0.0790962 0.298998
3917 4 0.113408 0.000823638 0.33373
1166 4 0.0439504 0.0667475 0.257859
304 3 0.0816158 0.00858755 0.305285
1165 2 0.0642069 0.0584201 0.274852
301 1 0.0783329 0.025894 0.31996
302 3 0.0831534 0.0418346 0.308849
1167 4 0.0844633 0.0500927 0.291845
4140 4 0.0813853 0.0104604 0.285483
370 3 0.378825 0.0406819 0.262375
366 1 0.399041 0.0409571 0.252146
368 3 0.410554 0.0502171 0.266324
2940 4 0.421033 0.0463817 0.283509
2938 2 0.438936 0.0546143 0.292641
2939 4 0.456839 0.0628469 0.301773
3669 4 0.47885 0.0540684 0.29906
3667 2 0.486002 0.0717636 0.307592
4479 4 0.0210469 0.0884431 0.306273
3952 2 0.239453 0.161334 0.262216
393 3 0.306594 0.0956965 0.252593
3953 4 0.266631 0.148445 0.265817
395 3 0.277434 0.130105 0.260652
394 3 0.295671 0.105925 0.288682
391 1 0.298954 0.113273 0.267729
1098 4 0.3712 0.134046 0.245902
392 3 0.316871 0.121085 0.269174
1097 4 0.325133 0.127821 0.25376
1096 2 0.348167 0.130934 0.249831
3099 4 0.383647 0.142858 0.252671
1878 4 0.436266 0.1379 0.317854
3668 4 0.493153 0.0894588 0.316124
2150 4 0.457302 0.13642 0.317882
2149 2 0.478886 0.142019 0.320617
3380 4 0.0458253 0.18354 0.26177
1194 4 0.0272428 0.229879 0.310104
1192 2 0.0262515 0.245646 0.291791
3381 4 0.0943778 0.185231 0.253852
3379 2 0.0701016 0.184386 0.257811
3954 4 0.212275 0.174224 0.258616
827 4 0.465866 0.228875 0.329106
1160 4 0.486154 0.220932 0.321026
1229 4 0.0373436 0.250106 0.260667
1193 4 0.0252602 0.261414 0.273478
1046 4 0.149513 0.284031 0.268985
872 4 0.0189848 0.35842 0.265315
580 3 0.037619 0.358391 0.270932
1038 4 0.0730304 0.363612 0.253353
1036 2 0.0977894 0.364101 0.252649
1037 4 0.122548 0.364591 0.251945
876 4 0.139691 0.360076 0.264445
874 2 0.165035 0.359229 0.265914
875 4 0.190379 0.358383 0.267382
2049 4 0.189741 0.375641 0.261787
2047 2 0.214185 0.376691 0.263272
2048 4 0.238628 0.377742 0.264757
4164 4 0.259752 0.371273 0.268075
3256 2 0.338267 0.346388 0.253458
4163 4 0.295333 0.390524 0.256307
4162 2 0.277543 0.380899 0.262191
3258 4 0.356311 0.356393 0.256233
981 4 0.375021 0.357958 0.259287
979 2 0.392879 0.365058 0.270493
980 4 0.410737 0.372158 0.281699
4362 4 0.422921 0.380907 0.291945
4360 2 0.434208 0.395687 0.300563
4361 4 0.445494 0.410468 0.30918
2229 4 0.0799524 0.483074 0.254222
3214 2 0.121682 0.489686 0.323444
3216 4 0.133553 0.494213 0.303227
2937 4 0.140463 0.500019 0.285998
373 3 0.233081 0.492312 0.254844
1082 4 0.460892 0.416398 0.315878
1081 2 0.474721 0.42821 0.326366
305 3 0.0941444 0.0179942 0.337563
930 4 0.188242 0.0720058 0.4006
4169 4 0.172508 0.0810832 0.416666
928 2 0.196002 0.0839299 0.383153
1205 4 0.352806 0.000928359 0.38727
1204 2 0.363028 0.000140915 0.364303
1206 4 0.373251 0.999353 0.341336
929 4 0.203763 0.095854 0.365706
1015 2 0.202591 0.148419 0.375887
1017 4 0.198041 0.163421 0.356041
1016 4 0.207142 0.133417 0.395734
399 3 0.199172 0.141412 0.414419
1877 4 0.423155 0.119161 0.358709
1876 2 0.42971 0.128531 0.338282
1162 2 0.0043657 0.181381 0.337372
1164 4 0.0188845 0.192941 0.347038
3138 4 0.0364323 0.182222 0.359766
3136 2 0.0550955 0.185875 0.373784
3137 4 0.0737586 0.189529 0.387801
4083 4 0.0894377 0.194681 0.380312
4081 2 0.112936 0.196011 0.373872
4082 4 0.136433 0.197342 0.367431
909 4 0.155273 0.201344 0.367283
907 2 0.143917 0.22577 0.361939
908 4 0.132561 0.250196 0.356595
1581 4 0.396274 0.196524 0.387994
1579 2 0.418238 0.196923 0.376404
1580 4 0.440202 0.197323 0.364814
828 4 0.432996 0.215196 0.356843
826 2 0.449431 0.222035 0.342975
3074 4 0.47918 0.19598 0.396823
3054 4 0.00444103 0.261214 0.413219
1856 4 0.141232 0.297485 0.389286
1855 2 0.164905 0.298453 0.395773
1857 4 0.188579 0.299421 0.402261
847 2 0.221294 0.311564 0.404855
849 4 0.198104 0.310346 0.412535
848 4 0.244485 0.312783 0.397174
921 4 0.250931 0.327426 0.398277
1187 4 0.00969185 0.395545 0.361
1186 2 0.0279413 0.40347 0.369918
1188 4 0.0461908 0.411394 0.378836
919 2 0.271493 0.334603 0.399172
920 4 0.292055 0.341779 0.400067
18 3 0.316183 0.354419 0.389944
16 1 0.314688 0.351357 0.412756
19 3 0.306164 0.335134 0.416559
3433 2 0.420663 0.358015 0.407528
3435 4 0.417478 0.37704 0.39236
3981 4 0.492148 0.404866 0.390113
1092 4 0.0785981 0.455058 0.368863
1090 2 0.0899654 0.471101 0.365646
1091 4 0.101333 0.487143 0.36243
3215 4 0.109811 0.485159 0.343661
600 3 0.12818 0.481963 0.40346
2796 4 0.28893 0.485501 0.39122
913 2 0.349066 0.476181 0.413118
915 4 0.359278 0.477516 0.390626
3063 4 0.371909 0.458872 0.382592
3061 2 0.393388 0.459979 0.370762
3062 4 0.414868 0.461087 0.358932
1083 4 0.488551 0.440022 0.336855
1060 2 0.0731585 0.00841039 0.416484
1061 4 0.0838574 0.0225816 0.427575
4170 4 0.176236 0.0579236 0.460405
4168 2 0.174372 0.0695034 0.438536
4468 2 0.379233 0.00899428 0.492557
4470 4 0.372731 0.0278311 0.476283
1853 4 0.38184 0.0384633 0.470003
1852 2 0.398636 0.0494995 0.465512
4764 4 0.447404 0.0049058 0.491821
1854 4 0.415431 0.0605357 0.461022
1286 4 0.432701 0.065431 0.467882
758 4 0.450708 0.0199783 0.495922
3225 4 0.0470836 0.131183 0.455551
3223 2 0.0724716 0.128223 0.449183
3224 4 0.0978597 0.125263 0.442816
1799 4 0.105351 0.122985 0.424591
1800 4 0.145242 0.138925 0.425868
1798 2 0.125296 0.130955 0.425229
397 3 0.163379 0.138023 0.41629
400 3 0.169054 0.162944 0.437958
398 3 0.189943 0.126156 0.445124
396 1 0.180382 0.142269 0.428546
3344 4 0.271986 0.158435 0.471836
3343 2 0.276502 0.161772 0.495858
1285 2 0.438583 0.084921 0.472248
1287 4 0.444465 0.104411 0.476614
63 3 0.45599 0.114233 0.471252
65 3 0.448241 0.14467 0.492426
61 1 0.465988 0.12448 0.485879
62 3 0.48459 0.127638 0.475122
3425 4 0.444924 0.163649 0.482953
3052 2 0.99936 0.247605 0.430775
1698 4 0.15774 0.172196 0.454223
1696 2 0.150823 0.187615 0.473903
1697 4 0.143905 0.203035 0.493583
3672 4 0.217785 0.183856 0.42705
3671 4 0.263276 0.168724 0.455312
3670 2 0.24053 0.17629 0.441181
3353 4 0.227408 0.247095 0.490834
3126 4 0.370346 0.185617 0.475197
3124 2 0.355581 0.184844 0.495089
3426 4 0.390378 0.187911 0.475832
3424 2 0.417651 0.17578 0.479393
1536 4 0.449809 0.181616 0.482089
1534 2 0.468256 0.182865 0.465922
1535 4 0.486702 0.184113 0.449756
2829 4 0.118982 0.31361 0.475246
4629 4 0.166566 0.270262 0.453576
2827 2 0.13543 0.320334 0.489227
4627 2 0.185539 0.264527 0.471668
4628 4 0.204512 0.258793 0.48976
3352 2 0.247069 0.2552 0.487892
3354 4 0.266729 0.263305 0.484949
840 4 0.285651 0.26338 0.493602
838 2 0.304543 0.272174 0.497811
174 3 0.339652 0.278704 0.490676
171 1 0.360821 0.281669 0.486142
172 3 0.354203 0.301778 0.475338
175 3 0.376244 0.264841 0.472762
2864 4 0.376754 0.269904 0.454269
1703 4 0.350139 0.320596 0.482028
1702 2 0.370895 0.327538 0.482298
2863 2 0.39665 0.272996 0.441625
2865 4 0.416545 0.276087 0.428981
3357 4 0.439383 0.268912 0.433957
3355 2 0.444363 0.288998 0.437669
3356 4 0.449343 0.309084 0.441382
2594 4 0.465538 0.310954 0.433136
2593 2 0.480015 0.320601 0.446203
2595 4 0.494491 0.330247 0.459269
20 3 0.299217 0.370975 0.422489
17 3 0.337876 0.344346 0.421937
3434 4 0.423847 0.338989 0.422696
1704 4 0.391651 0.334481 0.482568
4305 4 0.358133 0.336154 0.43257
4303 2 0.382939 0.335052 0.426734
4304 4 0.407745 0.333949 0.420898
1355 4 0.398806 0.346179 0.474044
1354 2 0.419391 0.35288 0.469926
1948 2 0.482213 0.370084 0.46938
1356 4 0.439976 0.359582 0.465808
1949 4 0.495308 0.345141 0.47047
1950 4 0.469118 0.395026 0.46829
2632 2 0.366402 0.458029 0.468676
914 4 0.338854 0.474846 0.435611
2634 4 0.35746 0.46065 0.445035
1120 2 0.40247 0.477386 0.49739
2633 4 0.375344 0.455409 0.492316
1122 4 0.383965 0.468832 0.490709
1511 4 0.00373225 0.0576535 0.574636
2803 2 0.183061 0.0490759 0.564449
2804 4 0.166534 0.0479812 0.582713
2805 4 0.199587 0.0501706 0.546184
212 3 0.206321 0.0486147 0.526096
211 1 0.229067 0.049021 0.524402
213 3 0.229735 0.0652504 0.538762
214 3 0.247186 0.0281916 0.530332
4112 4 0.26096 0.0289194 0.545105
4111 2 0.282321 0.0233967 0.560678
215 3 0.232621 0.0539078 0.502942
4113 4 0.303683 0.0178741 0.576251
1570 2 0.340606 0.027514 0.580323
1572 4 0.321708 0.0185508 0.583602
1571 4 0.359504 0.0364772 0.577044
40 3 0.372801 0.0467407 0.577382
39 3 0.395326 0.0651932 0.56719
3366 4 0.405348 0.0620344 0.548807
37 3 0.413391 0.0316275 0.583946
36 1 0.39224 0.0512874 0.583079
759 4 0.420842 0.0513274 0.531825
757 2 0.435775 0.0356528 0.513873
3364 2 0.417458 0.077712 0.54888
3282 4 0.0182566 0.143886 0.536282
1539 4 0.0271543 0.157159 0.541636
3570 4 0.297438 0.159177 0.53399
3365 4 0.429567 0.0933897 0.548954
3678 4 0.421675 0.159362 0.561094
1533 4 0.444618 0.0985692 0.557001
1531 2 0.439239 0.121486 0.565422
1532 4 0.43386 0.144403 0.573844
64 3 0.475806 0.110956 0.504414
1647 4 0.488679 0.110486 0.51942
3378 4 0.000300026 0.234958 0.531843
1537 2 0.0389274 0.170578 0.552508
1538 4 0.0507004 0.183997 0.563381
2985 4 0.0557387 0.199222 0.563958
2983 2 0.0731448 0.208873 0.571071
2984 4 0.0905509 0.218525 0.578183
1574 4 0.1129 0.213455 0.58047
1573 2 0.134027 0.219843 0.578999
1614 4 0.150267 0.191498 0.510429
1612 2 0.166804 0.19194 0.528992
1613 4 0.183342 0.192382 0.547556
128 3 0.193174 0.198566 0.561021
1575 4 0.155154 0.226231 0.577528
3345 4 0.281018 0.165109 0.519879
126 1 0.196164 0.212342 0.577117
129 3 0.208685 0.223917 0.568069
2997 4 0.221582 0.230527 0.578539
2995 2 0.244207 0.23265 0.570625
2996 4 0.266832 0.234774 0.562711
1499 4 0.282499 0.242378 0.56057
3568 2 0.314493 0.170368 0.532575
3569 4 0.331548 0.181559 0.53116
1498 2 0.307388 0.223017 0.56159
1500 4 0.332276 0.203656 0.56261
3125 4 0.340815 0.18407 0.514981
3676 2 0.404662 0.172233 0.542673
3677 4 0.387649 0.185103 0.524253
3740 4 0.207067 0.311058 0.562419
3739 2 0.195984 0.301829 0.579802
2828 4 0.151877 0.327059 0.503209
839 4 0.323435 0.280968 0.50202
173 3 0.372731 0.282029 0.50595
761 4 0.389789 0.281322 0.516081
760 2 0.416201 0.274972 0.522084
762 4 0.442612 0.268621 0.528087
3506 4 0.450459 0.281561 0.51919
3505 2 0.468236 0.288874 0.530221
3507 4 0.486013 0.296186 0.541252
520 3 0.500042 0.301898 0.553073
3542 4 0.0194711 0.390274 0.53079
3541 2 0.0336785 0.400533 0.543352
3543 4 0.047886 0.410793 0.555914
974 4 0.0514882 0.403591 0.574175
159 3 0.0658998 0.41612 0.553646
157 3 0.102913 0.414622 0.56324
902 4 0.155863 0.333627 0.520724
901 2 0.171449 0.34601 0.524417
1601 4 0.122651 0.417252 0.566524
903 4 0.187035 0.358393 0.528111
1107 4 0.192952 0.371377 0.538961
1105 2 0.211645 0.379721 0.545604
1106 4 0.230339 0.388064 0.552248
164 3 0.236268 0.402354 0.546591
162 3 0.27312 0.377433 0.559224
3383 4 0.288465 0.357627 0.561807
161 1 0.253277 0.397385 0.563865
163 3 0.261508 0.414039 0.565655
3382 2 0.315152 0.353019 0.560178
3384 4 0.341839 0.348411 0.558548
1103 4 0.282456 0.414649 0.566132
2897 4 0.363983 0.344796 0.554376
2896 2 0.370922 0.362075 0.564367
2898 4 0.377862 0.379354 0.574358
4594 2 0.359031 0.401218 0.522087
4595 4 0.332532 0.407839 0.516223
498 3 0.380325 0.395316 0.569203
4596 4 0.38553 0.394597 0.527951
496 1 0.368403 0.415111 0.581022
156 1 0.0779012 0.425517 0.567083
158 3 0.0699639 0.447974 0.561859
2505 4 0.0806589 0.456334 0.571733
2503 2 0.0896636 0.474207 0.570049
2504 4 0.0986683 0.49208 0.568366
1600 2 0.13974 0.426374 0.575745
10 3 0.112769 0.50155 0.567036
1469 4 0.203091 0.459582 0.575413
8 3 0.138932 0.497346 0.538488
1102 2 0.305445 0.418215 0.568156
500 3 0.34562 0.427282 0.572113
1104 4 0.328434 0.421781 0.570179
1121 4 0.420976 0.485939 0.50407
729 3 0.459229 0.480804 0.534684
726 1 0.461658 0.482603 0.511783
727 3 0.438654 0.490309 0.502082
733 3 0.486672 0.452446 0.575442
728 3 0.471672 0.497667 0.507385
730 3 0.476409 0.462217 0.503048
4508 4 0.49925 0.454432 0.502065
1510 2 0.0209451 0.0676703 0.581294
1512 4 0.038158 0.0776871 0.587951
2723 4 0.185519 0.0102707 0.628483
1642 2 0.209697 0.00554377 0.651882
2724 4 0.158109 0.034078 0.587607
2722 2 0.171814 0.0221743 0.608045
1643 4 0.220693 0.0186325 0.664524
1649 4 0.419621 0.012982 0.588563
38 3 0.388192 0.0614158 0.603943
1427 4 0.40138 0.0593013 0.620612
1650 4 0.470869 0.00213818 0.604476
1648 2 0.445245 0.00756011 0.596519
1426 2 0.419113 0.0698269 0.620465
1428 4 0.436847 0.0803525 0.620318
492 3 0.491032 0.0018991 0.608105
495 3 0.482704 0.036922 0.618114
148 3 0.455542 0.0829442 0.61484
146 1 0.480929 0.0717916 0.611978
150 3 0.486778 0.0516371 0.602012
147 3 0.492141 0.0684267 0.632595
3551 4 0.0108286 0.122949 0.604546
1385 4 0.0309775 0.118098 0.599546
1384 2 0.0505455 0.115057 0.616484
1386 4 0.0701134 0.112016 0.633423
2268 4 0.0676846 0.115607 0.652734
3711 4 0.458678 0.109367 0.65812
3768 4 0.481348 0.157648 0.663214
3710 4 0.464347 0.152198 0.65891
149 3 0.489277 0.0845796 0.598989
3709 2 0.461512 0.130782 0.658515
127 3 0.173234 0.227487 0.584173
130 3 0.20894 0.199904 0.59489
1494 4 0.374967 0.191592 0.647096
1492 2 0.394855 0.197294 0.637967
1493 4 0.414744 0.202996 0.628838
3239 4 0.42125 0.187064 0.615936
1628 4 0.372614 0.179868 0.662111
3240 4 0.469178 0.174736 0.591989
3238 2 0.445214 0.1809 0.603963
3741 4 0.1849 0.292599 0.597186
975 4 0.031415 0.413522 0.620702
973 2 0.0414516 0.408557 0.597439
165 3 0.24274 0.395476 0.583467
3863 4 0.357655 0.409187 0.622369
3862 2 0.353309 0.396332 0.641131
3864 4 0.348964 0.383476 0.659893
499 3 0.366196 0.410494 0.603336
734 3 0.497246 0.416323 0.58537
4707 4 0.0455827 0.446209 0.60224
160 3 0.0732892 0.423253 0.589021
4705 2 0.0587746 0.458175 0.613552
4706 4 0.0719666 0.470141 0.624865
2420 4 0.0786528 0.480393 0.636115
2419 2 0.0966286 0.485273 0.649917
1602 4 0.156829 0.435497 0.584965
2421 4 0.114605 0.490154 0.66372
1470 4 0.160867 0.451099 0.592541
1468 2 0.181979 0.455341 0.583977
2567 4 0.216692 0.461859 0.589736
2566 2 0.237711 0.464208 0.601148
2568 4 0.258729 0.466557 0.612559
1838 4 0.26938 0.477843 0.618455
497 3 0.382196 0.427242 0.579624
1837 2 0.288436 0.485943 0.624526
1839 4 0.307492 0.494043 0.630598
4733 4 0.328158 0.492854 0.626351
1589 4 0.319514 0.447132 0.664728
4732 2 0.348903 0.497536 0.635113
3572 4 0.397386 0.433491 0.585415
3573 4 0.444498 0.438486 0.590843
3571 2 0.420942 0.435989 0.588129
1461 4 0.391071 0.496343 0.648152
735 3 0.462578 0.443908 0.598996
731 1 0.4863 0.438387 0.592531
732 3 0.499442 0.440775 0.610418
3112 2 0.00308023 0.0669076 0.742493
3114 4 0.0285156 0.0649743 0.746952
4242 4 0.0374859 0.0785273 0.745296
3688 2 0.225913 0.0112103 0.730898
3689 4 0.215954 0.0296675 0.714079
3692 4 0.243479 0.0118806 0.664866
3691 2 0.254277 0.0183242 0.684678
3693 4 0.265075 0.0247678 0.704489
3831 4 0.282882 0.0257372 0.712933
3829 2 0.302446 0.0336416 0.717493
3830 4 0.32201 0.041546 0.722053
4781 4 0.335261 0.0544743 0.728085
109 3 0.346915 0.0340553 0.737348
723 3 0.313137 0.00622548 0.667173
4780 2 0.335059 0.0764907 0.72196
110 3 0.386791 0.0101344 0.742402
3431 4 0.378488 0.011323 0.695332
106 1 0.363328 0.0164214 0.750053
3323 4 0.392528 0.0197485 0.695708
3322 2 0.415663 0.0231318 0.697263
3324 4 0.438798 0.026515 0.698818
325 3 0.459138 0.0284259 0.702415
324 3 0.484364 0.0251534 0.673332
321 1 0.477324 0.0338172 0.694652
323 3 0.469041 0.0568763 0.694258
322 3 0.497461 0.0248109 0.708619
1137 4 0.492799 0.033806 0.728518
3712 2 0.0200015 0.144416 0.73896
4240 2 0.054131 0.0844394 0.730704
2266 2 0.0704444 0.107557 0.676385
3713 4 0.0457921 0.139526 0.731933
3348 4 0.0618209 0.142519 0.721731
4241 4 0.070776 0.0903515 0.716111
2267 4 0.0732042 0.0995069 0.700035
3346 2 0.0829382 0.146813 0.713276
3347 4 0.104056 0.151107 0.70482
3480 4 0.123342 0.150543 0.698604
3478 2 0.140334 0.161371 0.703119
4523 4 0.178975 0.161302 0.713087
1736 4 0.26494 0.111216 0.729647
3707 4 0.263066 0.112333 0.710338
3706 2 0.269748 0.131488 0.706837
3708 4 0.27643 0.150644 0.703337
1311 4 0.295735 0.152396 0.708214
1735 2 0.249192 0.111565 0.749197
4782 4 0.334857 0.098507 0.715834
1309 2 0.316825 0.15742 0.701144
1629 4 0.360348 0.154218 0.697486
1310 4 0.337915 0.162443 0.694074
1376 4 0.10481 0.224899 0.732053
3479 4 0.157327 0.172198 0.707634
4522 2 0.192017 0.175196 0.706081
4524 4 0.205059 0.18909 0.699074
1692 4 0.220048 0.194876 0.705436
1690 2 0.244154 0.196415 0.702916
1691 4 0.268259 0.197954 0.700396
1627 2 0.366481 0.167043 0.679798
3759 4 0.42296 0.247999 0.679122
2918 4 0.462948 0.216181 0.726939
3455 4 0.472784 0.201407 0.71381
2917 2 0.468941 0.235345 0.732677
3454 2 0.485035 0.178632 0.724014
1145 4 0.135761 0.312952 0.745129
1144 2 0.145702 0.321135 0.725943
1146 4 0.155644 0.329319 0.706757
3722 4 0.172427 0.319855 0.693144
3721 2 0.197909 0.317014 0.698977
3723 4 0.223391 0.314174 0.70481
2813 4 0.326421 0.267396 0.68415
2812 2 0.339325 0.280733 0.69308
2814 4 0.352229 0.29407 0.702009
3757 2 0.438712 0.260315 0.6822
3758 4 0.454464 0.272632 0.685279
1479 4 0.441715 0.307309 0.742333
695 3 0.439368 0.304512 0.722617
1477 2 0.414898 0.317158 0.748322
2919 4 0.474935 0.254509 0.738415
694 3 0.472384 0.271663 0.728062
693 3 0.461544 0.285508 0.692934
691 1 0.462478 0.290967 0.715213
692 3 0.477363 0.302026 0.717095
1296 4 0.490866 0.311086 0.717985
1517 4 0.00142884 0.413109 0.672412
1516 2 0.0277394 0.409526 0.669989
1518 4 0.0540499 0.405943 0.667566
2426 4 0.166224 0.382749 0.745075
2425 2 0.187797 0.388044 0.740812
2427 4 0.209371 0.393339 0.736549
3465 4 0.230388 0.390095 0.737471
3463 2 0.250622 0.397227 0.741715
647 3 0.281005 0.414541 0.735462
1616 4 0.328443 0.389679 0.705857
3464 4 0.270856 0.404359 0.745959
1615 2 0.351647 0.391396 0.712618
1617 4 0.37485 0.393112 0.71938
3420 4 0.391688 0.395763 0.725538
3418 2 0.391163 0.391007 0.749929
4551 4 0.469285 0.371383 0.675669
4549 2 0.485613 0.383226 0.673309
3695 4 0.498674 0.409988 0.725478
483 3 0.135738 0.488287 0.663604
648 3 0.263916 0.452078 0.737274
646 1 0.283926 0.433354 0.729391
650 3 0.285084 0.434222 0.706687
649 3 0.30563 0.43229 0.738754
1590 4 0.305541 0.436586 0.709797
4614 4 0.314502 0.440604 0.726326
1588 2 0.312528 0.441859 0.687263
4612 2 0.33754 0.438334 0.738044
3696 4 0.452846 0.434121 0.698477
3694 2 0.47576 0.422054 0.711978
1314 4 0.459303 0.476583 0.745132
1559 4 0.00551303 0.0025274 0.775231
102 3 0.205679 0.0138346 0.783538
1236 4 0.224903 0.0109946 0.790691
1234 2 0.236762 0.0225739 0.80454
1235 4 0.248621 0.0341532 0.818389
1464 4 0.259345 0.0454841 0.817212
3374 4 0.235304 0.0810728 0.829052
1462 2 0.285014 0.0433434 0.813704
1463 4 0.310684 0.0412027 0.810195
4725 4 0.325204 0.0422537 0.825038
107 3 0.361962 0.0232565 0.771939
2959 2 0.408966 0.0440041 0.826258
2960 4 0.42521 0.0493422 0.810605
4010 4 0.443732 0.0531777 0.814072
1135 2 0.494336 0.0281939 0.752859
4009 2 0.46884 0.0431469 0.803647
4011 4 0.493947 0.0331161 0.793222
1136 4 0.495874 0.0225818 0.7772
2720 4 0.00648331 0.141857 0.827261
3490 2 0.0499665 0.141042 0.830584
3491 4 0.0749337 0.140093 0.825789
3373 2 0.237571 0.0915494 0.807518
3375 4 0.239839 0.102026 0.785984
1737 4 0.233443 0.111914 0.768746
1375 2 0.118386 0.207318 0.749018
1377 4 0.131962 0.189736 0.765984
1325 4 0.146506 0.182435 0.782016
1324 2 0.156411 0.193861 0.798181
1326 4 0.166316 0.205288 0.814345
3449 4 0.417875 0.240719 0.798832
990 4 0.466707 0.245703 0.820823
988 2 0.492046 0.244605 0.818036
2741 4 0.11566 0.275406 0.786562
2740 2 0.139198 0.27417 0.796393
2742 4 0.162735 0.272934 0.806223
1149 4 0.168066 0.286196 0.794348
1147 2 0.188107 0.290565 0.783489
1148 4 0.208149 0.294933 0.772629
1686 4 0.227588 0.297089 0.770634
1684 2 0.254308 0.289893 0.765275
1685 4 0.281029 0.282697 0.759915
1280 4 0.292423 0.294692 0.754692
1681 2 0.359495 0.250937 0.811741