ITEM: TIMESTEP
1453000
ITEM: NUMBER OF ATOMS
4590
ITEM: BOX BOUNDS xy xz yz pp pp pp
-9.9985700000000008e+00 1.1198398400000002e+01 1.1998284000000012e+00
-9.9985700000000008e+00 9.9985700000000008e+00 0.0000000000000000e+00
-9.9985700000000008e+00 9.9985700000000008e+00 0.0000000000000000e+00
ITEM: ATOMS id type xs ys zs
2551 2 0.0171428 0.0026388 0.0599413
2553 4 0.997716 0.0194782 0.0615078
1532 4 0.0879495 0.0259867 0.0358048
1531 2 0.103659 0.0397995 0.0484893
1533 4 0.119368 0.0536123 0.0611738
532 2 0.116949 0.00104896 0.999273
1826 4 0.0866289 0.00678237 0.0241241
1403 4 0.206843 0.0334965 0.0697654
1402 2 0.225909 0.0371576 0.0542786
1404 4 0.244975 0.0408187 0.0387918
2523 4 0.23881 0.0600734 0.0332986
2521 2 0.260327 0.0678727 0.0242978
2522 4 0.281845 0.075672 0.015297
419 4 0.299138 0.0637681 0.0180133
418 2 0.311171 0.0467168 0.0326149
420 4 0.323203 0.0296655 0.0472166
1037 4 0.309917 0.0271263 0.0631495
3153 4 0.360041 0.067601 0.0202652
3151 2 0.370843 0.0449074 0.0248517
2399 4 0.373994 0.0740867 0.00781257
3152 4 0.381646 0.0222138 0.0294382
1287 4 0.401825 0.0274373 0.0253422
1285 2 0.426327 0.026603 0.0201839
1286 4 0.450828 0.0257687 0.0150256
486 4 0.455244 0.0457153 0.0155555
484 2 0.475969 0.0529066 0.00433468
1257 4 0.0139647 0.093063 0.029324
3270 4 0.00255099 0.0935696 0.00974076
52 3 0.0210386 0.103388 0.0460105
53 3 0.0286921 0.118377 0.0793996
51 1 0.0379211 0.107409 0.060835
54 3 0.0484539 0.0871378 0.0672115
55 3 0.0529122 0.120376 0.0507431
2714 4 0.0112491 0.127586 0.0822108
2639 4 0.0720291 0.120998 0.0558961
2638 2 0.0948948 0.127921 0.0499583
2640 4 0.11776 0.134843 0.0440205
1784 4 0.272959 0.14216 0.0298989
1783 2 0.28247 0.13875 0.0528544
461 4 0.270974 0.161099 0.0237156
1785 4 0.29198 0.13534 0.07581
2717 4 0.304107 0.148857 0.0815596
3048 4 0.0869268 0.242441 0.0789039
1252 2 0.116012 0.197509 0.0256657
1254 4 0.115991 0.200118 0.0505324
510 4 0.136026 0.195796 0.0505179
3046 2 0.0937428 0.247462 0.0554664
508 2 0.156923 0.199816 0.0632535
301 2 0.197712 0.232853 0.0801349
509 4 0.17782 0.203835 0.0759892
302 4 0.174841 0.224227 0.078196
622 2 0.247934 0.228566 0.0538282
623 4 0.240022 0.234991 0.0767906
624 4 0.255845 0.222141 0.0308658
462 4 0.247153 0.206391 0.0257147
460 2 0.259064 0.183745 0.0247152
769 2 0.344984 0.243998 0.00595777
867 4 0.307188 0.249245 0.998086
3632 4 0.434764 0.18846 0.00500804
771 4 0.367146 0.231137 0.00445317
3631 2 0.45138 0.197969 0.0204797
3633 4 0.467997 0.207478 0.0359513
666 4 0.483678 0.210311 0.0258528
3471 4 0.119399 0.260317 0.0330688
3047 4 0.100559 0.252483 0.0320289
3469 2 0.128011 0.261514 0.0096524
2520 4 0.251234 0.323019 0.0395138
989 4 0.258193 0.312806 0.0235463
770 4 0.322823 0.256858 0.00746237
495 4 0.426505 0.320104 0.0338475
2093 4 0.435905 0.322076 0.0161318
493 2 0.449484 0.313849 0.0425141
494 4 0.472463 0.307594 0.0511806
521 4 0.491025 0.31283 0.0487113
363 4 0.0198232 0.369278 0.0792811
361 2 0.0421264 0.379059 0.0816417
701 4 0.0839525 0.391148 0.0799077
2902 2 0.233628 0.39821 0.0624532
2519 4 0.249489 0.372989 0.0380401
2518 2 0.250362 0.348004 0.038777
2904 4 0.215892 0.416109 0.0676681
2903 4 0.251363 0.380312 0.0572383
1224 4 0.293036 0.362378 0.0160471
1222 2 0.313326 0.371538 0.0263902
3341 4 0.298657 0.409882 0.0137091
1223 4 0.333616 0.380698 0.0367334
1236 4 0.351928 0.381428 0.0263725
1234 2 0.370846 0.372157 0.0121572
2092 2 0.420568 0.337194 0.00240523
1665 4 0.1535 0.498693 0.0795808
4533 4 0.183729 0.419942 0.0254276
4531 2 0.199103 0.438116 0.0205502
1559 4 0.136371 0.498018 0.0672522
4532 4 0.214478 0.45629 0.0156728
3656 4 0.231409 0.443555 0.0187285
3655 2 0.252885 0.451485 0.0276964
3657 4 0.27436 0.459416 0.0366642
3404 4 0.281477 0.456032 0.0550532
3403 2 0.290878 0.458362 0.078047
160 3 0.318594 0.459572 0.0112583
156 1 0.32447 0.437915 0.00590235
157 3 0.346624 0.433242 0.0112745
159 3 0.311451 0.423693 0.0178908
3088 2 0.380116 0.436369 0.00460516
3090 4 0.402951 0.436298 0.0147979
2582 4 0.400127 0.432519 0.0338166
2581 2 0.402188 0.433325 0.0587182
2857 2 0.0452414 0.0713552 0.161456
2465 4 0.0327791 0.0219762 0.13741
2464 2 0.0577087 0.0199236 0.135043
2858 4 0.0638659 0.0720425 0.144833
2466 4 0.0826383 0.0178709 0.132675
2471 4 0.0807207 0.0769614 0.134653
2948 4 0.0865891 0.0190505 0.152066
2470 2 0.10516 0.0775233 0.139748
2947 2 0.107453 0.0260184 0.16319
2472 4 0.129599 0.0780852 0.144844
834 4 0.147952 0.0705805 0.144093
3782 4 0.265913 0.0349956 0.114084
3781 2 0.27072 0.0180313 0.132057
1038 4 0.281713 0.0239105 0.104186
1036 2 0.295815 0.0255184 0.0836675
2575 2 0.323822 0.000967294 0.126391
2577 4 0.338713 0.0133074 0.14151
2597 4 0.00712207 0.15379 0.111433
2596 2 0.0280567 0.153286 0.125142
2598 4 0.0489914 0.152782 0.138851
731 4 0.0617739 0.145379 0.150922
730 2 0.0852854 0.152346 0.152929
732 4 0.108797 0.159313 0.154936
3502 2 0.139147 0.165194 0.158093
832 2 0.164223 0.088539 0.142779
833 4 0.180493 0.106498 0.141466
764 4 0.173546 0.160224 0.138758
763 2 0.186067 0.137963 0.140875
765 4 0.198589 0.115702 0.142993
2716 2 0.328191 0.154034 0.0833787
2718 4 0.352274 0.159211 0.0851977
2673 4 0.365458 0.154903 0.099654
2671 2 0.388052 0.164287 0.100611
401 4 0.00885504 0.172523 0.106695
563 4 0.0897774 0.230813 0.0957924
562 2 0.11165 0.219373 0.102532
564 4 0.133523 0.207933 0.109272
3504 4 0.158592 0.17239 0.144739
756 4 0.148016 0.218114 0.118826
754 2 0.171794 0.217186 0.12667
755 4 0.195573 0.216258 0.134514
1767 4 0.215972 0.213064 0.133506
303 4 0.220582 0.241479 0.0820737
1765 2 0.23783 0.221663 0.140625
1766 4 0.259687 0.230262 0.147744
2477 4 0.279598 0.232083 0.155878
345 4 0.305154 0.172155 0.129149
343 2 0.322306 0.189288 0.130218
344 4 0.339457 0.206422 0.131287
2762 4 0.357721 0.214441 0.133931
2476 2 0.301433 0.241019 0.162576
2672 4 0.410645 0.173672 0.101569
2761 2 0.38034 0.223807 0.134262
2763 4 0.402958 0.233174 0.134594
2913 4 0.412223 0.241586 0.120056
2766 4 0.426441 0.170269 0.115138
2911 2 0.435361 0.249747 0.120636
2764 2 0.447402 0.173374 0.128112
2765 4 0.468363 0.176479 0.141086
827 4 0.488902 0.183875 0.138715
557 4 0.453933 0.235656 0.164004
614 4 0.0769525 0.256029 0.164674
2950 2 0.398692 0.326935 0.151348
2951 4 0.373849 0.326702 0.154045
2952 4 0.423535 0.327168 0.148651
2912 4 0.458498 0.257909 0.121217
15 3 0.474602 0.266513 0.126926
11 1 0.494914 0.275483 0.125065
13 3 0.493584 0.293084 0.109948
362 4 0.0644297 0.38884 0.0840022
700 2 0.104963 0.400873 0.0879275
702 4 0.125974 0.410598 0.0959474
813 4 0.438863 0.333915 0.136486
3141 4 0.485342 0.37014 0.0846312
811 2 0.461422 0.339398 0.14493
812 4 0.48398 0.344881 0.153374
1760 4 0.480339 0.386009 0.0966347
107 3 0.487426 0.363265 0.159325
1759 2 0.498653 0.393098 0.111595
106 1 0.500867 0.380304 0.16477
1439 4 0.00864898 0.491994 0.144244
1663 2 0.152589 0.480576 0.096697
1664 4 0.151678 0.462459 0.113813
588 4 0.140087 0.423418 0.0962617
586 2 0.164565 0.426581 0.0936754
587 4 0.189043 0.429744 0.0910891
4368 4 0.205185 0.439924 0.0977496
4366 2 0.218161 0.454784 0.112311
4367 4 0.231138 0.469644 0.126872
3405 4 0.300279 0.460692 0.101041
2583 4 0.404248 0.434131 0.0836197
2814 4 0.383556 0.435046 0.148788
2812 2 0.388426 0.437472 0.124412
2813 4 0.393295 0.439899 0.100037
16 1 0.00743105 0.0474218 0.205017
19 3 0.0117677 0.0600696 0.186242
18 3 0.026439 0.0343343 0.210936
2859 4 0.0266169 0.0706679 0.178078
3479 4 0.0361763 0.0507591 0.215417
743 4 0.0125038 0.0760241 0.227011
3478 2 0.0600187 0.0549877 0.220581
20 3 0.000934637 0.0611163 0.222306
3480 4 0.0838611 0.0592162 0.225744
2932 2 0.112037 0.0738067 0.216718
2949 4 0.128316 0.0329864 0.174314
4026 4 0.148376 0.036581 0.171863
2934 4 0.136339 0.0751627 0.222086
2933 4 0.0877349 0.0724508 0.211349
2675 4 0.0946961 0.997196 0.23532
4024 2 0.161223 0.051539 0.18644
4025 4 0.174071 0.0664971 0.201018
1851 4 0.193119 0.0703167 0.206987
1849 2 0.196599 0.0633986 0.230819
3929 4 0.452433 0.00430649 0.245839
744 4 0.0108552 0.125776 0.22215
2844 4 0.0193134 0.166917 0.192913
742 2 0.0116795 0.1009 0.224581
25 3 0.00129256 0.160648 0.188199
23 3 0.00276212 0.126772 0.204624
3503 4 0.119703 0.157998 0.171447
2769 4 0.408024 0.110681 0.225227
2767 2 0.431638 0.117398 0.223417
2768 4 0.455251 0.124115 0.221608
549 4 0.45998 0.125728 0.241851
547 2 0.481465 0.136111 0.247201
2842 2 0.0404959 0.168593 0.205929
2843 4 0.0616785 0.170269 0.218945
2906 4 0.0755434 0.182946 0.224721
2905 2 0.0856951 0.1952 0.243603
558 4 0.472676 0.18966 0.175387
556 2 0.463304 0.212658 0.169695
266 4 0.0615725 0.289782 0.212281
615 4 0.0510001 0.277862 0.202315
613 2 0.0639763 0.266945 0.183494
265 2 0.0782839 0.301598 0.225775
267 4 0.0949954 0.313415 0.239269
2478 4 0.323268 0.249956 0.169273
2955 4 0.341298 0.254078 0.174898
2953 2 0.364388 0.262299 0.176109
2954 4 0.387477 0.27052 0.17732
2849 4 0.408198 0.270876 0.182185
2848 2 0.429473 0.282774 0.181886
2850 4 0.450749 0.294673 0.181586
2819 4 0.468321 0.300783 0.189917
2818 2 0.488693 0.313989 0.191606
660 4 0.998039 0.402166 0.239295
1332 4 0.0165827 0.400575 0.232973
1585 2 0.0882488 0.399072 0.220292
1587 4 0.10282 0.380398 0.230065
561 4 0.108486 0.374089 0.24806
1757 4 0.417453 0.413227 0.199494
109 3 0.489556 0.394484 0.179867
1742 4 0.463632 0.384113 0.241666
1741 2 0.469819 0.390468 0.218393
1743 4 0.476006 0.396823 0.195119
103 3 0.00332547 0.421486 0.24513
104 3 0.0109265 0.457644 0.23868
1586 4 0.0736779 0.417746 0.210518
1758 4 0.368237 0.423927 0.204672
2563 2 0.368799 0.457313 0.232947
2564 4 0.36174 0.43934 0.217587
1756 2 0.392845 0.418577 0.202083
4432 2 0.414839 0.495288 0.244358
2565 4 0.375857 0.475286 0.248307
4433 4 0.396446 0.480027 0.248771
3543 4 0.426242 0.42737 0.210551
3541 2 0.431315 0.439668 0.231531
1420 2 0.103359 0.000389226 0.267395
1421 4 0.118117 0.0123811 0.282946
3488 4 0.1265 0.00695184 0.30027
4508 4 0.196625 0.0371671 0.253081
1850 4 0.200078 0.0564804 0.25465
3487 2 0.148959 0.00436266 0.31127
4507 2 0.211747 0.0303424 0.272111
3489 4 0.171418 0.00177349 0.322271
4509 4 0.226869 0.0235178 0.291141
2547 4 0.24374 0.0157452 0.282215
2545 2 0.264137 0.00776734 0.269377
1428 4 0.439364 0.0642456 0.271539
1426 2 0.438664 0.0499781 0.292014
1427 4 0.437965 0.0357107 0.312488
704 4 0.430336 0.0213064 0.324174
1676 4 0.494248 0.00290235 0.279775
1182 4 0.456616 0.0736729 0.276298
3930 4 0.495508 0.0177118 0.26573
3928 2 0.47397 0.0110091 0.255785
703 2 0.452132 0.0144702 0.335177
507 4 0.430297 0.16269 0.2911
1180 2 0.479034 0.0832052 0.2787
3851 4 0.0212682 0.199545 0.316052
3888 4 0.0329012 0.184224 0.324931
3886 2 0.0543565 0.18848 0.31328
2907 4 0.0958468 0.207454 0.262485
3887 4 0.0758118 0.192735 0.30163
506 4 0.399744 0.175044 0.252899
505 2 0.415021 0.168867 0.271999
647 4 0.436543 0.178699 0.301201
648 4 0.47924 0.186509 0.325211
646 2 0.457891 0.182604 0.313206
2600 4 0.498782 0.191431 0.328069
2580 4 0.055216 0.252338 0.271258
2579 4 0.0476531 0.277832 0.313853
2578 2 0.0514345 0.265085 0.292555
3194 4 0.0524021 0.287909 0.330605
2937 4 0.130788 0.250338 0.269491
560 4 0.102164 0.325178 0.252822
2935 2 0.146618 0.260352 0.285457
2936 4 0.162449 0.270365 0.301424
620 4 0.17405 0.286594 0.300666
619 2 0.19589 0.2968 0.296553
621 4 0.217729 0.307007 0.29244
2493 4 0.230185 0.312803 0.278591
2491 2 0.250829 0.325697 0.279068
2787 4 0.290283 0.332698 0.280073
2785 2 0.315074 0.33475 0.279547
1194 4 0.424576 0.321704 0.330534
1330 2 0.0323006 0.401414 0.25236
1331 4 0.0480184 0.402253 0.271747
559 2 0.105325 0.349634 0.250441
270 4 0.0597349 0.414555 0.28406
268 2 0.0840112 0.408696 0.288355
1530 4 0.127535 0.398588 0.300611
269 4 0.108287 0.402837 0.292649
1528 2 0.134199 0.389847 0.323219
2492 4 0.271472 0.338592 0.279544
2474 4 0.226164 0.378679 0.326112
2786 4 0.339864 0.336802 0.27902
3791 4 0.354558 0.341656 0.266731
3790 2 0.37798 0.348658 0.269508
3792 4 0.401402 0.355659 0.272286
1193 4 0.413789 0.346741 0.288252
1192 2 0.419183 0.334222 0.309393
247 2 0.445975 0.403219 0.275967
248 4 0.4616 0.391112 0.259947
872 4 0.435593 0.406071 0.309611
1914 4 0.0151081 0.449197 0.321102
2502 4 0.0320969 0.455031 0.329406
442 2 0.118823 0.472757 0.329603
2550 4 0.153122 0.456143 0.329933
2548 2 0.173654 0.467653 0.323429
2549 4 0.194186 0.479164 0.316925
444 4 0.134863 0.45394 0.322622
1430 4 0.359931 0.494653 0.313338
249 4 0.43035 0.415325 0.291987
3542 4 0.436389 0.451965 0.252511
1578 4 0.4509 0.462556 0.259575
1576 2 0.450444 0.461437 0.284548
1577 4 0.449989 0.460318 0.309521
2778 4 0.170563 0.0587839 0.401166
2776 2 0.188407 0.0647612 0.385101
2910 4 0.168414 0.0704482 0.417934
2777 4 0.206252 0.0707386 0.369036
705 4 0.473929 0.00763403 0.346179
676 2 0.0150943 0.15564 0.368816
677 4 0.0387933 0.160637 0.373741
2615 4 0.0543994 0.149564 0.363702
2614 2 0.0773478 0.15706 0.368341
473 4 0.455421 0.125084 0.404406
472 2 0.475476 0.133819 0.393209
474 4 0.495532 0.142554 0.382011
2616 4 0.100296 0.164557 0.372979
2737 2 0.104264 0.23654 0.393474
2499 4 0.111697 0.180018 0.36779
2738 4 0.12502 0.224691 0.384365
2497 2 0.136244 0.183504 0.367361
2543 4 0.145186 0.223629 0.386097
2542 2 0.156219 0.244564 0.380105
2498 4 0.160791 0.186989 0.366932
2838 4 0.178582 0.194402 0.365105
2836 2 0.196849 0.208928 0.358181
2837 4 0.215115 0.223453 0.351257
1462 2 0.0572977 0.262798 0.408483
3193 2 0.0676722 0.304769 0.339313
1463 4 0.0753612 0.262777 0.391193
3195 4 0.0829422 0.321629 0.348022
2739 4 0.0835072 0.248389 0.402583
1494 4 0.0989725 0.327796 0.355993
2544 4 0.167252 0.265499 0.374114
3072 4 0.195519 0.293111 0.395217
3070 2 0.209231 0.272816 0.387658
585 4 0.196413 0.28931 0.415108
3071 4 0.222944 0.25252 0.380099
3962 4 0.270869 0.261422 0.41602
3027 4 0.35403 0.259477 0.407314
3961 2 0.292739 0.267735 0.406517
3963 4 0.31461 0.274049 0.397013
425 4 0.311123 0.28618 0.379306
424 2 0.328678 0.298743 0.367811
426 4 0.346233 0.311307 0.356316
1151 4 0.410918 0.320668 0.344723
1152 4 0.366011 0.310508 0.362772
1150 2 0.388464 0.315588 0.353747
458 4 0.0084895 0.40621 0.354371
452 4 0.0235728 0.396936 0.364436
451 2 0.0384203 0.378834 0.374835
453 4 0.0532678 0.360732 0.385233
2462 4 0.0655565 0.345515 0.37953
2461 2 0.0747931 0.344712 0.40277
1493 4 0.128617 0.36515 0.346572
1492 2 0.113795 0.346473 0.351282
1529 4 0.140862 0.381106 0.345826
2925 4 0.180462 0.416472 0.411972
2570 4 0.184846 0.408633 0.394146
2569 2 0.207706 0.41728 0.392175
2473 2 0.243798 0.386751 0.341336
2475 4 0.261432 0.394822 0.35656
143 3 0.261321 0.396949 0.376577
144 3 0.27037 0.385592 0.411868
141 1 0.276828 0.384658 0.389584
142 3 0.277703 0.362734 0.382634
145 3 0.297451 0.392855 0.387215
3596 4 0.30935 0.388258 0.370623
3595 2 0.332915 0.391429 0.377753
3597 4 0.356479 0.394601 0.384884
651 4 0.373921 0.390733 0.395533
649 2 0.395193 0.390728 0.382392
650 4 0.416466 0.390723 0.369251
2852 4 0.421786 0.359342 0.411322
871 2 0.43417 0.398822 0.333469
873 4 0.432746 0.391574 0.357327
2501 4 0.0411392 0.449709 0.378358
326 4 0.0386874 0.454169 0.397481
2500 2 0.0366181 0.45237 0.353882
443 4 0.102783 0.491575 0.336584
325 2 0.0590362 0.446261 0.410429
2571 4 0.230565 0.425928 0.390204
2355 4 0.464328 0.450148 0.410079
3157 2 0.0563057 0.0592015 0.473751
3158 4 0.0355156 0.0605208 0.487697
3159 4 0.0770957 0.0578822 0.459805
2333 4 0.10128 0.00976593 0.461998
1142 4 0.0909207 0.0529504 0.474697
1141 2 0.11534 0.057041 0.474997
3137 4 0.118623 0.0152747 0.455601
1143 4 0.13976 0.0611316 0.475296
3136 2 0.142334 0.00859442 0.449504
3138 4 0.166045 0.00191412 0.443407
2909 4 0.153926 0.0546921 0.462815
2908 2 0.16117 0.0625702 0.440374
3723 4 0.416248 0.0326702 0.427447
367 2 0.418311 0.00210954 0.484091
3721 2 0.439947 0.0390205 0.425218
368 4 0.44268 0.00618774 0.485747
3722 4 0.463647 0.0453709 0.422988
298 2 0.494676 0.0339286 0.441626
299 4 0.47474 0.0498322 0.438172
2626 2 0.0185167 0.113851 0.457992
2627 4 0.0379348 0.107936 0.442933
3714 4 0.197074 0.132387 0.503678
384 4 0.0523788 0.167698 0.435095
3080 4 0.0171009 0.216854 0.461329
3079 2 0.0277522 0.198757 0.44697
3081 4 0.0384035 0.18066 0.432611
382 2 0.0753375 0.170903 0.443981
383 4 0.0982963 0.174108 0.452866
2727 4 0.103558 0.193311 0.450898
2725 2 0.117862 0.209324 0.462548
2726 4 0.132167 0.225338 0.474199
1122 4 0.22519 0.23417 0.457565
1120 2 0.241049 0.246898 0.443894
3025 2 0.358609 0.247744 0.429051
3026 4 0.363188 0.236011 0.450788
399 4 0.361288 0.233763 0.470401
397 2 0.369627 0.225034 0.49249
3438 4 0.466771 0.191966 0.468718
2529 4 0.471663 0.242912 0.428206
3436 2 0.472971 0.193759 0.492846
1464 4 0.0392342 0.262818 0.425772
3820 2 0.0210146 0.288483 0.497162
3822 4 0.00288248 0.274343 0.489099
2536 2 0.121655 0.323118 0.441775
2537 4 0.143777 0.312301 0.448638
584 4 0.165516 0.311735 0.448642
583 2 0.180964 0.300523 0.431875
1121 4 0.256908 0.259626 0.430223
2719 2 0.321429 0.286923 0.496082
1490 4 0.356643 0.288867 0.479782
2720 4 0.336105 0.291025 0.476444
1489 2 0.38056 0.292441 0.474302
1491 4 0.404478 0.296016 0.468822
2654 4 0.420773 0.306305 0.469503
2527 2 0.483701 0.263104 0.421733
2653 2 0.442419 0.312892 0.4793
2655 4 0.464065 0.319479 0.489097
2960 4 0.0200487 0.347847 0.428878
2959 2 0.0260457 0.363649 0.446967
2961 4 0.0320428 0.379452 0.465056
4081 2 0.0366695 0.407261 0.493878
4083 4 0.0274687 0.387103 0.483368
2538 4 0.0995327 0.333935 0.434913
2463 4 0.0840297 0.343909 0.42601
3513 4 0.198691 0.373964 0.493473
3511 2 0.205586 0.362058 0.472373
3128 4 0.154649 0.414485 0.500794
3512 4 0.212482 0.350151 0.451272
2958 4 0.22717 0.353767 0.439007
2956 2 0.243337 0.371088 0.433612
2957 4 0.259505 0.388408 0.428217
3990 4 0.282036 0.375265 0.449844
3988 2 0.300141 0.364418 0.464087
3989 4 0.318246 0.353571 0.478331
3695 4 0.327 0.336566 0.486869
3694 2 0.349506 0.345311 0.482585
3696 4 0.372012 0.354055 0.478301
2851 2 0.444239 0.363429 0.42098
2853 4 0.466692 0.367515 0.430638
2882 4 0.484035 0.357765 0.438053
327 4 0.0793851 0.438352 0.423377
1173 4 0.0560165 0.43791 0.492877
2920 2 0.108107 0.432993 0.438539
2921 4 0.0833583 0.433509 0.442275
768 4 0.139476 0.500332 0.416313
2923 2 0.163922 0.421824 0.430234
2922 4 0.132856 0.432478 0.434803
2924 4 0.147382 0.427176 0.448496
4068 4 0.335682 0.477163 0.438555
4067 4 0.308881 0.442216 0.459636
4066 2 0.322282 0.45969 0.449096
3114 4 0.349652 0.452123 0.501958
1977 4 0.39597 0.451538 0.419928
1975 2 0.374993 0.461014 0.43083
2354 4 0.416211 0.454566 0.423915
1976 4 0.354015 0.47049 0.441733
2678 4 0.493984 0.464503 0.487466
2353 2 0.440269 0.452357 0.416997
3985 2 0.460262 0.455677 0.497224
3986 4 0.483616 0.448699 0.49012
3468 4 0.0199489 0.0687735 0.557078
3462 4 0.000169263 0.0677723 0.550311
2131 2 0.159586 0.01522 0.566914
2132 4 0.156624 0.0171709 0.542149
1083 4 0.23231 0.0412639 0.527437
1081 2 0.248209 0.0226 0.535081
1082 4 0.264107 0.00393599 0.542724
3466 2 0.037522 0.0827835 0.5476
3467 4 0.0550952 0.0967936 0.538122
1179 4 0.0695521 0.110768 0.533705
1177 2 0.088553 0.122022 0.523151
1178 4 0.107554 0.133276 0.512596
3712 2 0.220261 0.131558 0.51312
3713 4 0.243449 0.130728 0.522562
4283 4 0.244811 0.114561 0.534049
4282 2 0.255419 0.107396 0.555734
4284 4 0.266027 0.100231 0.577419
888 4 0.400628 0.106924 0.51496
886 2 0.422978 0.108312 0.525916
887 4 0.445328 0.1097 0.536871
858 4 0.465678 0.108324 0.537335
856 2 0.486209 0.108655 0.551574
3315 4 0.275441 0.174851 0.577691
728 4 0.294653 0.222317 0.530446
727 2 0.293443 0.24652 0.524174
398 4 0.377966 0.216305 0.514578
2919 4 0.382818 0.222469 0.533657
2917 2 0.404404 0.23275 0.538809
2918 4 0.42599 0.24303 0.543961
801 4 0.431324 0.244701 0.563013
3437 4 0.479171 0.195551 0.516975
3375 4 0.494433 0.197911 0.52875
799 2 0.447779 0.247853 0.581403
807 4 0.0395449 0.321838 0.511362
3821 4 0.0391467 0.302623 0.505224
816 4 0.135696 0.322972 0.567963
814 2 0.155884 0.308459 0.574399
710 4 0.186381 0.31391 0.524986
709 2 0.195272 0.329701 0.541691
729 4 0.292234 0.270723 0.517903
2721 4 0.306753 0.282821 0.515721
695 4 0.39276 0.287778 0.569179
890 4 0.40204 0.299402 0.554445
889 2 0.423137 0.311582 0.553838
694 2 0.394066 0.267969 0.584435
891 4 0.444234 0.323762 0.553231
3381 4 0.461185 0.313214 0.552373
3379 2 0.480938 0.326328 0.546777
805 2 0.0593728 0.335273 0.515712
806 4 0.0792007 0.348708 0.520062
3129 4 0.127678 0.410771 0.542596
3328 2 0.128195 0.410407 0.578507
3447 4 0.190662 0.388886 0.50527
3127 2 0.141163 0.412628 0.521695
4316 4 0.164003 0.417144 0.582437
3445 2 0.211113 0.396653 0.516554
711 4 0.204163 0.345492 0.558396
3446 4 0.231564 0.40442 0.527838
3422 4 0.251576 0.409061 0.527936
3238 2 0.281988 0.389542 0.579796
3240 4 0.293099 0.396357 0.558677
3380 4 0.500691 0.339443 0.541182
4082 4 0.0458702 0.42742 0.504388
1171 2 0.0636428 0.454473 0.509507
1172 4 0.0712692 0.471036 0.526137
3329 4 0.149225 0.41931 0.569513
3812 4 0.192131 0.481902 0.545364
3811 2 0.192504 0.496116 0.52483
10 3 0.256473 0.430678 0.557417
3421 2 0.272645 0.419103 0.520541
6 1 0.254888 0.439173 0.57852
9 3 0.243133 0.459855 0.578203
3423 4 0.293714 0.429144 0.513146
3113 4 0.304307 0.443454 0.519903
3112 2 0.326979 0.447789 0.51093
501 4 0.367777 0.460295 0.50371
499 2 0.392456 0.463069 0.504123
500 4 0.417136 0.465844 0.504537
1399 2 0.498338 0.477736 0.577788
1401 4 0.474164 0.472974 0.579848
3987 4 0.436909 0.462655 0.504328
225 3 0.0604505 0.0706181 0.65647
409 2 0.0617841 0.00898348 0.617399
2460 4 0.008666 0.0852474 0.665445
410 4 0.0766871 0.0247977 0.628527
2315 4 0.129428 0.044022 0.63653
977 4 0.12807 0.0460956 0.656416
2314 2 0.136885 0.0288108 0.617796
2316 4 0.144342 0.0135995 0.599062
2133 4 0.162548 0.0132692 0.591678
2658 4 0.195488 0.00793814 0.639235
962 4 0.196922 0.0271644 0.647169
961 2 0.218937 0.0374873 0.649685
1260 4 0.252467 0.0620445 0.644792
963 4 0.240951 0.0478102 0.652201
1258 2 0.271019 0.0755821 0.636608
3032 4 0.300447 0.0223237 0.650833
3031 2 0.314382 0.0409527 0.658014
3414 4 0.345468 0.06462 0.65657
966 4 0.35369 0.00927605 0.639719
3412 2 0.368335 0.0704276 0.663816
669 4 0.414742 0.0747256 0.646721
4048 2 0.491938 0.0408241 0.663112
239 4 0.00664724 0.15455 0.59529
3003 4 0.0156859 0.0891064 0.645867
223 3 0.0349271 0.0930991 0.638365
221 1 0.0436275 0.0867575 0.659076
238 2 0.0288605 0.164264 0.598632
3237 4 0.130313 0.0997972 0.639948
3235 2 0.155266 0.100458 0.639578
3236 4 0.180218 0.101119 0.639209
4136 4 0.182821 0.119002 0.647463
4135 2 0.204636 0.127108 0.639582
1259 4 0.289571 0.0891197 0.628424
4137 4 0.226451 0.135214 0.631702
1218 4 0.243444 0.141637 0.622419
1216 2 0.251255 0.121301 0.609451
1217 4 0.259066 0.100965 0.596483
4227 4 0.296642 0.105984 0.61844
4226 4 0.337446 0.13157 0.611125
4225 2 0.317044 0.118777 0.614782
667 2 0.434701 0.088613 0.64672
668 4 0.454661 0.1025 0.646718
1262 4 0.464625 0.119249 0.649848
1261 2 0.479943 0.137908 0.652473
1263 4 0.49526 0.156566 0.655097
240 4 0.0510737 0.173979 0.601975
3358 2 0.0588194 0.196829 0.629291
3359 4 0.056876 0.202534 0.653582
3360 4 0.0607628 0.191124 0.604999
4328 4 0.0403597 0.194634 0.66289
4215 4 0.279394 0.231801 0.637748
4213 2 0.266708 0.221811 0.656427
3066 4 0.286784 0.250055 0.635198
3313 2 0.295104 0.184911 0.588335
3314 4 0.314766 0.19497 0.598979
831 4 0.328048 0.201397 0.612082
829 2 0.339781 0.197254 0.633902
830 4 0.351514 0.193111 0.655722
696 4 0.395373 0.24816 0.599691
3056 4 0.494241 0.239513 0.656267
815 4 0.176071 0.293946 0.580834
4085 4 0.191865 0.303658 0.586003
3065 4 0.274478 0.260158 0.58764
4084 2 0.215592 0.308943 0.590381
4086 4 0.239319 0.314228 0.594759
3064 2 0.280631 0.255106 0.611419
4196 4 0.258446 0.310678 0.59999
4195 2 0.277316 0.325713 0.602855
1165 2 0.376348 0.317228 0.661936
1167 4 0.393676 0.328301 0.648563
800 4 0.464235 0.251006 0.599793
3324 4 0.442061 0.335189 0.605552
3958 2 0.00972058 0.402996 0.621122
3959 4 0.0244824 0.417574 0.608155
822 4 0.134626 0.336752 0.582745
2310 4 0.0887272 0.410726 0.587906
821 4 0.0963367 0.360111 0.607125
820 2 0.115481 0.348431 0.594935
3330 4 0.107164 0.401504 0.587502
4315 2 0.183443 0.406556 0.595064
4317 4 0.202882 0.395968 0.607692
929 4 0.209316 0.388577 0.625003
928 2 0.233684 0.389551 0.619749
3239 4 0.270877 0.382727 0.600916
930 4 0.258051 0.390525 0.614495
4197 4 0.296186 0.340748 0.605719
2015 4 0.309606 0.345977 0.619014
2014 2 0.329471 0.359758 0.621681
2016 4 0.349337 0.373539 0.624349
2217 4 0.352167 0.3832 0.640962
2215 2 0.34349 0.394122 0.661975
3323 4 0.405317 0.341432 0.639302
3322 2 0.423689 0.338311 0.622427
2309 4 0.0413389 0.424817 0.599566
4131 4 0.0129114 0.489482 0.645302
2308 2 0.065033 0.417771 0.593736
3317 4 0.186316 0.49076 0.602408
3316 2 0.207582 0.477346 0.597251
3318 4 0.228847 0.463932 0.592093
3384 4 0.242554 0.452971 0.671077
8 3 0.244151 0.424594 0.592341
7 3 0.27606 0.4418 0.586725
2385 4 0.295535 0.442049 0.589146
2383 2 0.311804 0.452632 0.604227
2384 4 0.328073 0.463215 0.619308
3440 4 0.348797 0.46434 0.621372
3439 2 0.37202 0.460287 0.61239
3441 4 0.395244 0.456235 0.603409
2153 4 0.406739 0.469036 0.591272
2152 2 0.431167 0.466314 0.585886
2154 4 0.455595 0.463593 0.5805
4287 4 0.0374016 0.00680221 0.693468
3130 2 0.000666665 0.0176213 0.700835
4285 2 0.0568687 0.0208404 0.689511
222 3 0.0268608 0.0784337 0.671795
4286 4 0.0763359 0.0348787 0.685554
976 2 0.110537 0.0443974 0.67406
978 4 0.0930031 0.0426993 0.691703
2979 4 0.211727 0.010716 0.711311
2977 2 0.199758 0.0188376 0.731984
3033 4 0.328317 0.0595816 0.665195
2374 2 0.301826 0.00735334 0.701387
2376 4 0.322101 0.0203691 0.697858
1128 4 0.342335 0.0199384 0.694862
1126 2 0.365679 0.0269511 0.698214
3413 4 0.391202 0.0762352 0.671062
1127 4 0.389023 0.0339638 0.701567
3086 4 0.400523 0.0315143 0.68555
3085 2 0.424703 0.0325313 0.679507
3087 4 0.448883 0.0335483 0.673464
1064 4 0.427439 0.0817132 0.715798
89 3 0.395462 0.0555564 0.748542
4049 4 0.468406 0.0400881 0.671408
224 3 0.0516429 0.105136 0.669915
515 4 0.00971869 0.154169 0.707496
726 4 0.0604093 0.11627 0.683142
4329 4 0.0165058 0.161681 0.690232
514 2 0.0034651 0.166889 0.728309
724 2 0.0849839 0.113732 0.687862
725 4 0.109559 0.111193 0.692582
4164 4 0.12953 0.10835 0.696475
4162 2 0.148416 0.11373 0.71155
4163 4 0.167302 0.11911 0.726626
1196 4 0.187884 0.116172 0.725542
1195 2 0.208423 0.128708 0.721707
1197 4 0.228962 0.141245 0.717872
4355 4 0.246471 0.140594 0.705801
4354 2 0.267868 0.136623 0.693086
4356 4 0.289265 0.132653 0.68037
1065 4 0.394658 0.094779 0.679657
1063 2 0.411049 0.0882461 0.697727
3197 4 0.446601 0.0833147 0.719941
3196 2 0.452222 0.090803 0.743012
4327 2 0.0284328 0.178158 0.676561
3008 4 0.155324 0.229504 0.723798
1095 4 0.141559 0.234844 0.737236
3007 2 0.177606 0.235308 0.714889
3009 4 0.199888 0.241113 0.705979
1042 2 0.229654 0.247482 0.725077
1044 4 0.254393 0.243319 0.727929
3107 4 0.273754 0.238173 0.72809
4214 4 0.254022 0.21182 0.675105
3753 4 0.332307 0.225975 0.718007
1202 4 0.319283 0.217537 0.706907
1201 2 0.334443 0.213537 0.687245
3751 2 0.346885 0.230935 0.737482
1203 4 0.349602 0.209537 0.667583
3055 2 0.481174 0.23652 0.67726
3057 4 0.468106 0.233528 0.698254
1130 4 0.0186744 0.264097 0.740595
1043 4 0.204915 0.251645 0.722225
1207 2 0.183594 0.318491 0.744148
3245 4 0.282735 0.315337 0.678189
3106 2 0.292518 0.251081 0.719326
3246 4 0.307226 0.300081 0.719567
3244 2 0.29498 0.307709 0.698878
3108 4 0.311283 0.263989 0.710563
3099 4 0.313056 0.309395 0.735334
3249 4 0.352183 0.298015 0.691859
3248 4 0.331207 0.257398 0.709262
3247 2 0.341695 0.277707 0.70056
1166 4 0.35902 0.306155 0.675309
4249 2 0.00236041 0.376367 0.735926
4250 4 0.0223004 0.387969 0.72788
566 4 0.041491 0.387527 0.727524
565 2 0.0663529 0.388741 0.726116
567 4 0.0912147 0.389955 0.724708
3149 4 0.103343 0.404625 0.73082
1208 4 0.168473 0.335205 0.732045
3148 2 0.128234 0.405912 0.731194
3150 4 0.153125 0.407199 0.731568
3170 4 0.17304 0.401501 0.7332
3169 2 0.197934 0.400318 0.730437
3171 4 0.222827 0.399135 0.727674
2742 4 0.241411 0.391591 0.725202
2740 2 0.266129 0.392455 0.721902
2741 4 0.290847 0.393319 0.718602
1205 4 0.308354 0.394913 0.73058
1204 2 0.325872 0.403013 0.715237
2216 4 0.334812 0.405044 0.682988
1206 4 0.343391 0.411113 0.699894
860 4 0.420766 0.406691 0.747258
1334 4 0.447965 0.406043 0.708037
1333 2 0.472419 0.401105 0.703888
1335 4 0.496873 0.396167 0.699739
3383 4 0.213383 0.465837 0.710175
3382 2 0.227968 0.459404 0.690626
1052 4 0.363105 0.494138 0.746408
1051 2 0.38054 0.475968 0.74113
1053 4 0.397975 0.457797 0.735852
861 4 0.415258 0.452809 0.728117
859 2 0.418012 0.42975 0.737688
2277 4 0.0868768 0.0187348 0.8278
2275 2 0.108338 0.0280275 0.820451
2276 4 0.129799 0.0373202 0.813102
3417 4 0.0966023 0.0723068 0.822895
3186 4 0.147719 0.035499 0.821515
3184 2 0.16741 0.0456583 0.811034
3185 4 0.187102 0.0558176 0.800553
2978 4 0.187788 0.0269593 0.752657
2510 4 0.206721 0.0537559 0.802352
2509 2 0.229675 0.0553748 0.792802
2511 4 0.252628 0.0569936 0.783251
2270 4 0.27059 0.0648961 0.781616
2269 2 0.29175 0.0504969 0.77919
2271 4 0.312911 0.0360977 0.776764
2052 4 0.324662 0.0458079 0.762903
2050 2 0.348909 0.0387192 0.765634
2051 4 0.373156 0.0316305 0.768365
87 3 0.393047 0.0273593 0.773052
86 1 0.402888 0.0471421 0.769028
90 3 0.397072 0.0619794 0.785588
3356 4 0.408257 0.0159254 0.812774
88 3 0.425969 0.0430481 0.768603
3355 2 0.425569 0.0222463 0.829274
3387 4 0.0127126 0.105943 0.759251
3385 2 0.0356851 0.105964 0.769121
3416 4 0.068809 0.106648 0.797219
3386 4 0.0586576 0.105984 0.77899
3415 2 0.0827057 0.0894772 0.810057
896 4 0.131202 0.154651 0.802055
895 2 0.147823 0.134992 0.801516
897 4 0.164443 0.115333 0.800977
3018 4 0.183341 0.110905 0.801417
3016 2 0.195036 0.110555 0.823525
3233 4 0.34055 0.132084 0.788497
3232 2 0.359084 0.147542 0.785759
3234 4 0.377618 0.163 0.783021
2322 4 0.406089 0.0867479 0.830066
3198 4 0.457843 0.0982914 0.766082
3293 4 0.470122 0.104835 0.781083
3292 2 0.48734 0.117867 0.792544
3418 2 0.0011104 0.209935 0.772121
3420 4 0.0117563 0.222103 0.790768
1094 4 0.152177 0.241643 0.785536
1093 2 0.146868 0.238244 0.761386
58 3 0.167818 0.241973 0.796913