ITEM: TIMESTEP
473000
ITEM: NUMBER OF ATOMS
4800
ITEM: BOX BOUNDS xy xz yz pp pp pp
-9.9985700000000008e+00 1.9197254399999991e+01 9.1986843999999905e+00
-9.9985700000000008e+00 9.9985700000000008e+00 0.0000000000000000e+00
-9.9985700000000008e+00 9.9985700000000008e+00 0.0000000000000000e+00
ITEM: ATOMS id type xs ys zs
850 2 0.0545222 0.0442619 0.00653584
852 4 0.0281767 0.0499325 0.0119738
114 3 0.0256957 0.0329919 0.0105521
112 3 0.998102 0.0203811 0.0223184
111 1 0.00106262 0.0390694 0.0155108
1817 4 0.0949099 0.0693426 0.0408905
1816 2 0.109929 0.0472307 0.0515083
1818 4 0.124948 0.0251187 0.062126
3207 4 0.100474 0.0766587 0.00555526
33 3 0.140231 0.0120702 0.0752711
3245 4 0.193287 0.00359101 0.0723719
3244 2 0.204565 0.0178398 0.0825785
3535 2 0.0299126 0.105185 0.0830589
3205 2 0.112536 0.0875902 0.0201713
3537 4 0.0456517 0.104439 0.0633717
3206 4 0.124597 0.0985217 0.0347874
3298 2 0.131448 0.10639 0.0728431
3300 4 0.130331 0.110332 0.0481619
1215 4 0.19305 0.156844 0.0147506
3198 4 0.214823 0.172935 0.0379641
1886 4 0.0661632 0.179706 0.0792218
1758 4 0.130846 0.174773 0.0246083
1756 2 0.143633 0.187359 0.0356384
1757 4 0.15642 0.199946 0.0466685
1209 4 0.067717 0.248986 0.0804711
3196 2 0.219687 0.174431 0.0622974
3761 4 0.169465 0.197029 0.0627562
3760 2 0.153581 0.212384 0.0804086
3213 4 0.238304 0.18514 0.085384
3028 2 0.364085 0.206396 0.0706915
3030 4 0.383781 0.203109 0.0538478
3092 4 0.38996 0.217188 0.0465742
3091 2 0.410659 0.222141 0.0551011
3093 4 0.431357 0.227094 0.063628
407 3 0.440883 0.233773 0.0502705
410 3 0.474245 0.201507 0.047309
406 1 0.465099 0.223944 0.0435881
408 3 0.466347 0.228064 0.0209709
3200 4 0.489422 0.244704 0.0555766
409 3 0.478364 0.233092 0.0558103
2144 4 0.0450169 0.254236 0.00986048
1185 4 0.0254592 0.261768 0.000110434
2143 2 0.0607059 0.260922 0.0249724
2145 4 0.0763948 0.267608 0.0400843
764 4 0.187181 0.324175 0.0624457
2876 4 0.239486 0.253895 0.0510928
810 4 0.254829 0.261686 0.0527315
808 2 0.275531 0.265043 0.0418205
2875 2 0.222365 0.255381 0.0698747
809 4 0.296232 0.268399 0.0309094
3411 4 0.306368 0.280277 0.0323281
3409 2 0.326823 0.287 0.0272788
3410 4 0.347278 0.293723 0.0222296
776 4 0.368602 0.290904 0.0206993
775 2 0.378371 0.304759 0.00755912
790 2 0.417213 0.28557 0.0567691
791 4 0.412341 0.267452 0.0678384
792 4 0.422086 0.303687 0.0456998
1119 4 0.427998 0.318176 0.0406891
1117 2 0.448826 0.322211 0.0309781
1118 4 0.469655 0.326246 0.0212671
1507 2 0.106302 0.376691 0.0131065
1509 4 0.114449 0.389361 0.0295191
1374 4 0.0959878 0.398982 0.0386924
3078 4 0.164018 0.406303 0.0878887
4035 4 0.38317 0.385051 0.00854278
448 3 0.396003 0.365449 0.00493906
4034 4 0.394694 0.392183 0.055773
4033 2 0.388932 0.388617 0.0321579
1912 2 0.440775 0.411877 0.0752116
3068 4 0.473412 0.336462 0.0049506
1913 4 0.458204 0.410232 0.0566505
937 2 0.0210147 0.447127 0.0571182
939 4 0.0446949 0.444485 0.0677724
1373 4 0.0668125 0.439392 0.0661809
1372 2 0.0814002 0.419187 0.0524366
3583 2 0.0805057 0.483544 0.0640764
3585 4 0.100747 0.486079 0.0514088
3584 4 0.0602645 0.481008 0.0767439
3549 4 0.162439 0.493007 0.0147318
54 3 0.117215 0.493942 0.0491061
51 1 0.13878 0.496294 0.0446334
53 3 0.144256 0.493049 0.022006
3116 4 0.159564 0.470101 0.0751129
52 3 0.157697 0.480442 0.0565794
3548 4 0.210234 0.493815 0.00131535
3547 2 0.186336 0.493411 0.00802359
825 4 0.21455 0.440495 0.0427991
823 2 0.225512 0.457169 0.0426315
824 4 0.236474 0.473842 0.0424638
742 3 0.245415 0.486627 0.0364175
741 1 0.245027 0.490581 0.0138019
1272 4 0.27251 0.454419 0.0686249
4258 2 0.202146 0.50203 0.0839768
743 3 0.251163 0.470563 0.00247762
745 3 0.261608 0.499169 0.0089729
1270 2 0.293978 0.454777 0.0560905
1271 4 0.315445 0.455134 0.0435562
2624 4 0.329334 0.461055 0.0360496
2623 2 0.353549 0.454863 0.0474639
2625 4 0.377764 0.448671 0.0588782
4574 4 0.396533 0.488031 0.0589776
4573 2 0.423755 0.481023 0.0593524
2249 4 0.45465 0.424403 0.041873
2248 2 0.448923 0.43976 0.0221863
2250 4 0.443197 0.455116 0.0024997
4575 4 0.450977 0.474014 0.0597273
4310 4 0.463265 0.483333 0.0566171
4309 2 0.474603 0.499494 0.0600286
4487 4 0.128328 0.0125906 0.152605
4486 2 0.142617 0.0241236 0.142201
3853 2 0.158654 0.0630572 0.10581
3854 4 0.165905 0.0406258 0.116422
4488 4 0.156906 0.0356567 0.131797
3246 4 0.215843 0.0320886 0.0927851
404 3 0.224543 0.0357779 0.109679
405 3 0.20919 0.0732956 0.112218
401 1 0.229575 0.0538688 0.115406
403 3 0.248888 0.0538534 0.102535
402 3 0.236247 0.0520711 0.137582
1596 4 0.253138 0.0502842 0.148378
1440 4 0.257962 0.0666419 0.103436
4329 4 0.304213 0.0121651 0.115057
2531 4 0.312322 0.0160209 0.0982733
2532 4 0.330511 0.0518552 0.0944678
2530 2 0.321417 0.0339381 0.0963705
3536 4 0.0141735 0.10593 0.102746
3299 4 0.132565 0.102449 0.0975243
3855 4 0.151402 0.0854886 0.0951981
3194 4 0.196093 0.0910209 0.103651
3193 2 0.19399 0.114306 0.106635
3195 4 0.191887 0.137591 0.10962
1109 4 0.20651 0.144081 0.11466
1438 2 0.256187 0.0886138 0.11198
1439 4 0.254411 0.110586 0.120524
3014 4 0.346221 0.106681 0.113679
3013 2 0.361742 0.115927 0.125871
3015 4 0.377263 0.125174 0.138064
3983 4 0.371888 0.127007 0.157945
1885 2 0.0813322 0.176729 0.0998589
1670 4 0.0285786 0.249935 0.163721
1669 2 0.0529919 0.249318 0.157198
1887 4 0.0965012 0.173751 0.120496
1671 4 0.0774051 0.248702 0.150674
1207 2 0.0920752 0.242874 0.0915868
900 4 0.103784 0.180768 0.13569
898 2 0.125624 0.186261 0.13455
899 4 0.147464 0.191753 0.13341
1208 4 0.116433 0.236761 0.102703
3762 4 0.137698 0.227739 0.098061
1108 2 0.187602 0.165703 0.123454
3197 4 0.224551 0.175928 0.0866307
1110 4 0.168694 0.187326 0.132248
3211 2 0.252643 0.198608 0.090088
3212 4 0.266983 0.212076 0.094792
43 3 0.283879 0.216595 0.0937602
45 3 0.315837 0.184254 0.102699
41 1 0.306755 0.206948 0.104025
42 3 0.304194 0.213239 0.126149
3036 4 0.304147 0.214583 0.147419
3029 4 0.344389 0.209683 0.0875353
44 3 0.322861 0.214323 0.0938357
3034 2 0.32685 0.203814 0.161352
1094 4 0.454199 0.23765 0.122224
803 4 0.0891301 0.260336 0.149893
802 2 0.116285 0.252822 0.152557
4380 4 0.0875828 0.332041 0.102716
1394 4 0.0672855 0.332098 0.150342
804 4 0.14344 0.245307 0.155221
2877 4 0.205243 0.256867 0.0886565
1708 2 0.168408 0.312551 0.137759
1709 4 0.15583 0.320284 0.159759
3312 4 0.150099 0.259748 0.154688
3310 2 0.170147 0.265165 0.164059
1710 4 0.180986 0.304817 0.115759
3843 4 0.169562 0.3281 0.165808
1010 4 0.349683 0.325462 0.100949
1169 4 0.396792 0.258889 0.162298
1095 4 0.427487 0.278468 0.0944463
1093 2 0.440843 0.258059 0.108335
885 4 0.500535 0.279153 0.158359
4379 4 0.0449961 0.36989 0.0818765
4378 2 0.0662895 0.350966 0.0922962
1393 2 0.0488843 0.342927 0.168448
435 3 0.111151 0.357836 0.114983
434 3 0.0925397 0.394457 0.106412
431 1 0.110065 0.378452 0.119789
433 3 0.104229 0.383425 0.142174
432 3 0.132636 0.378573 0.115642
3077 4 0.143738 0.387267 0.123879
763 2 0.186539 0.335933 0.0839915
765 4 0.185897 0.34769 0.105537
1173 4 0.207789 0.344856 0.106509
3076 2 0.153878 0.396785 0.105884
1171 2 0.222428 0.357615 0.112977
1172 4 0.237066 0.370375 0.119445
2889 4 0.240786 0.378373 0.135986
2887 2 0.260385 0.37369 0.153276
1009 2 0.352292 0.347028 0.102723
1011 4 0.354901 0.368593 0.104497
3242 4 0.371736 0.36708 0.0955372
3241 2 0.394039 0.370565 0.101986
577 3 0.335102 0.369516 0.170149
3140 4 0.350508 0.374685 0.16005
3243 4 0.416341 0.374049 0.108435
1914 4 0.423346 0.413522 0.0937726
1784 4 0.419524 0.390923 0.110389
785 4 0.468789 0.401555 0.172952
853 2 0.022361 0.496084 0.161396
854 4 0.0231811 0.495904 0.136404
1448 4 0.0990438 0.443256 0.114321
1447 2 0.114239 0.437894 0.135163
12 3 0.0488208 0.489631 0.0940433
1449 4 0.129435 0.432531 0.156005
3115 2 0.153196 0.474083 0.0993769
3117 4 0.146828 0.478066 0.123641
4710 4 0.157153 0.4712 0.141862
4708 2 0.173491 0.48191 0.149496
4260 4 0.203121 0.479042 0.0861111
4709 4 0.189828 0.492621 0.157131
1783 2 0.406111 0.414164 0.119199
1785 4 0.392698 0.437405 0.128008
2825 4 0.407371 0.44167 0.136014
2824 2 0.428594 0.447836 0.138897
2826 4 0.449818 0.454001 0.141781
4076 4 0.455938 0.467356 0.148906
4075 2 0.476448 0.46981 0.136623
4077 4 0.496958 0.472265 0.124339
392 3 0.0660591 0.0193442 0.214611
394 3 0.0450861 0.0501365 0.235059
391 1 0.0682281 0.0333693 0.230677
393 3 0.0836963 0.0426406 0.222736
1872 4 0.0986358 0.0504388 0.221251
1870 2 0.125991 0.0411824 0.223703
395 3 0.0778173 0.0214347 0.249635
2198 4 0.214987 0.0120148 0.223914
1871 4 0.153346 0.031926 0.226156
4172 4 0.161958 0.0137887 0.235846
4224 4 0.169079 0.0801852 0.208709
2197 2 0.230675 0.0238044 0.217549
2199 4 0.246363 0.0355939 0.211184
1595 4 0.238708 0.0373679 0.192183
1594 2 0.245923 0.0438261 0.170281
4430 4 0.290453 0.0787216 0.206265
2150 4 0.303017 0.0601991 0.236766
3860 4 0.491113 0.0696563 0.187256
4222 2 0.174535 0.0934954 0.226428
4223 4 0.179991 0.106806 0.244147
4429 2 0.267617 0.0859158 0.220126
4431 4 0.24478 0.09311 0.233987
1244 4 0.278409 0.120733 0.188764
1243 2 0.279825 0.136566 0.206051
1245 4 0.281241 0.152399 0.223338
1163 4 0.273032 0.161687 0.241265
3982 2 0.362708 0.149988 0.167697
3861 4 0.467655 0.112636 0.16196
3859 2 0.479384 0.091146 0.174608
3101 4 0.0226235 0.182867 0.187231
2061 4 0.00496382 0.24152 0.171817
418 3 0.0255932 0.229716 0.217732
3100 2 0.0473858 0.183265 0.185569
3102 4 0.0721482 0.183662 0.183907
419 3 0.0260504 0.243157 0.182808
420 3 0.0495749 0.247628 0.210071
416 1 0.0276875 0.246748 0.205495
2885 4 0.00275245 0.18254 0.188339
3164 4 0.0902391 0.187867 0.187819
3163 2 0.111413 0.1943 0.188995
3165 4 0.132588 0.200733 0.190171
783 4 0.0692687 0.247832 0.206455
1383 4 0.151819 0.203113 0.188653
1381 2 0.171709 0.211138 0.190819
1382 4 0.191599 0.219163 0.192984
800 4 0.207266 0.221914 0.20312
799 2 0.231082 0.22302 0.208798
801 4 0.254899 0.224126 0.214477
3575 4 0.269472 0.229204 0.22242
3574 2 0.291461 0.234183 0.219122
3984 4 0.353528 0.172969 0.177449
3035 4 0.349554 0.193046 0.175285
3576 4 0.31345 0.239163 0.215824
2157 4 0.432553 0.248107 0.247373
417 3 0.00875444 0.266754 0.211344
3675 4 0.0162839 0.279529 0.225436
980 4 0.0343969 0.286141 0.227129
979 2 0.0445355 0.303069 0.23129
981 4 0.0546741 0.319997 0.235451
781 2 0.0893547 0.255678 0.204987
782 4 0.109441 0.263524 0.203519
1242 4 0.0737986 0.316907 0.24431
3311 4 0.190195 0.270581 0.17343
2046 4 0.119851 0.271198 0.213546
2044 2 0.139321 0.279428 0.21762
2045 4 0.158792 0.287658 0.221694
1059 4 0.17013 0.298014 0.225429
1047 4 0.205804 0.277196 0.176303
1057 2 0.187964 0.308518 0.226495
1058 4 0.205798 0.319022 0.22756
1045 2 0.223342 0.287974 0.178017
357 3 0.226531 0.320669 0.226992
360 3 0.247869 0.306153 0.195891
1046 4 0.24088 0.298753 0.179732
356 1 0.249631 0.311635 0.217577
359 3 0.264347 0.292655 0.229507
358 3 0.25949 0.327318 0.218555
3867 4 0.278703 0.327269 0.224481
881 4 0.329691 0.243053 0.221533
880 2 0.346386 0.25453 0.224787
2156 4 0.383559 0.26467 0.224692
1168 2 0.414587 0.266418 0.173094
882 4 0.363081 0.266007 0.228042
2155 2 0.408056 0.256389 0.236032
1170 4 0.432383 0.273948 0.183889
2274 4 0.496876 0.266447 0.17144
2273 4 0.444725 0.285101 0.187387
2272 2 0.4708 0.275774 0.179414
1197 4 0.992484 0.393362 0.218145
1195 2 0.0163287 0.376421 0.209172
1196 4 0.0401735 0.359481 0.200199
1395 4 0.0304831 0.353755 0.186554
1082 4 0.00446398 0.408778 0.171131
3841 2 0.169293 0.348837 0.176259
3842 4 0.169024 0.369574 0.18671
3033 4 0.186165 0.361829 0.19909
3031 2 0.196812 0.377446 0.207049
3032 4 0.20746 0.393063 0.215007
2915 4 0.206757 0.407207 0.227893
2888 4 0.279984 0.369007 0.170565
3865 2 0.297205 0.335204 0.232937
2914 2 0.23136 0.406262 0.221555
2916 4 0.255963 0.405316 0.215216
580 3 0.295472 0.376152 0.166836
1028 4 0.272655 0.394932 0.228331
1027 2 0.286717 0.392335 0.249612
579 3 0.310403 0.380283 0.200262
576 1 0.315407 0.367941 0.180625
3866 4 0.315707 0.343139 0.241394
3139 2 0.370303 0.380492 0.169362
578 3 0.321395 0.345644 0.185424
3256 2 0.345393 0.3642 0.238996
3257 4 0.330883 0.350409 0.238685
3258 4 0.359904 0.377991 0.239307
1983 4 0.37751 0.381291 0.24003
1981 2 0.379001 0.403058 0.244394
3141 4 0.390099 0.386299 0.178674
2325 4 0.45376 0.392832 0.172783
2324 4 0.403674 0.395067 0.182215
2323 2 0.428717 0.39395 0.177499
784 2 0.480713 0.417489 0.173716
1081 2 0.0144652 0.424456 0.180246
1083 4 0.0244665 0.440134 0.18936
4163 4 0.0365424 0.443954 0.203298
855 4 0.021541 0.496264 0.186388
4162 2 0.0424332 0.463032 0.210087
4164 4 0.0483241 0.482111 0.216877
67 3 0.127294 0.442197 0.173444
68 3 0.150723 0.425907 0.203333
70 3 0.119531 0.460124 0.206175
66 1 0.137677 0.446112 0.192559
69 3 0.153437 0.45584 0.186696
1968 4 0.173168 0.446113 0.191708
1966 2 0.185733 0.45959 0.201273
1967 4 0.198297 0.473067 0.210838
2048 4 0.215146 0.477416 0.214497
2047 2 0.242427 0.47002 0.215053
2049 4 0.269707 0.462623 0.215608
875 4 0.267024 0.481046 0.217042
874 2 0.290088 0.483765 0.211885
876 4 0.313152 0.486484 0.206728
1037 4 0.327816 0.475039 0.220746
1036 2 0.345011 0.458087 0.236542
1982 4 0.380491 0.424826 0.248757
1038 4 0.362207 0.441136 0.252338
786 4 0.492638 0.433423 0.17448
375 3 0.488162 0.472348 0.200145
826 2 0.000989446 0.0829973 0.327423
3998 4 0.997451 0.0456947 0.276503
3066 4 0.0137779 0.0508384 0.280748
3064 2 0.0401075 0.0425282 0.287787
3065 4 0.0664371 0.034218 0.294827
2966 4 0.0789902 0.0366395 0.310069
2965 2 0.10383 0.0203554 0.31775
2967 4 0.12867 0.00407133 0.325431
1581 4 0.138574 0.0181289 0.324623
83 3 0.0857301 0.0512363 0.309431
81 1 0.0791875 0.0739854 0.307086
84 3 0.095889 0.077484 0.29327
1579 2 0.160117 0.0238057 0.327716
1580 4 0.181659 0.0294824 0.330809
3909 4 0.24382 0.0258563 0.335868
2149 2 0.311334 0.0579959 0.260578
2151 4 0.31965 0.0557926 0.284389
4577 4 0.339319 0.0527545 0.29194
4576 2 0.362965 0.0540007 0.285852
4578 4 0.386611 0.0552469 0.279764
1166 4 0.383608 0.0673184 0.296089
4244 4 0.00964766 0.134403 0.277238
827 4 0.0123312 0.0979812 0.319166
4243 2 0.0204495 0.114185 0.291872
4245 4 0.0312514 0.0939674 0.306506
1143 4 0.104769 0.0911351 0.292357
82 3 0.056187 0.0837747 0.297538
85 3 0.0786314 0.0833671 0.327494
1141 2 0.11882 0.104212 0.285179
1142 4 0.132871 0.11729 0.278002
58 3 0.171082 0.117921 0.260148
56 1 0.165466 0.122412 0.282634
59 3 0.150521 0.112256 0.289739
60 3 0.153869 0.144906 0.285963
57 3 0.186964 0.113921 0.294782
3218 4 0.201282 0.0960865 0.28628
3217 2 0.221179 0.0916042 0.269339
3219 4 0.241076 0.0871218 0.252398
1162 2 0.294078 0.159608 0.256006
1164 4 0.315123 0.157528 0.270748
1165 2 0.396653 0.0822396 0.298577
4007 4 0.336211 0.153733 0.276592
4006 2 0.356557 0.159622 0.284272
4008 4 0.376903 0.165511 0.291952
1167 4 0.409698 0.0971608 0.301064
1206 4 0.393427 0.162115 0.305736
999 4 0.40966 0.112628 0.311022
1204 2 0.418298 0.162341 0.306899
1205 4 0.44317 0.162567 0.308062
29 3 0.432911 0.230859 0.252624
30 3 0.439879 0.22789 0.289738
27 3 0.458885 0.198234 0.267724
26 1 0.4503 0.221104 0.269261
2271 4 0.488965 0.209782 0.259992
1194 4 0.476127 0.186562 0.279203
28 3 0.46989 0.226952 0.26646
3673 2 0.0094083 0.279065 0.249409
3674 4 0.00253275 0.278601 0.273383
1156 2 0.026068 0.335129 0.313824
1240 2 0.0896521 0.326836 0.254779
1241 4 0.105505 0.336764 0.265249
3254 4 0.121392 0.341096 0.274745
890 4 0.346712 0.299652 0.333024
1847 4 0.352488 0.310659 0.320829
1846 2 0.344286 0.33542 0.319442
3270 4 0.425875 0.317712 0.330823
3268 2 0.446296 0.324994 0.333494
1157 4 0.0520889 0.332396 0.315937
3233 4 0.0613239 0.337257 0.331023
3232 2 0.0629482 0.359314 0.331398
3253 2 0.140166 0.344641 0.288756
3255 4 0.158939 0.348186 0.302766
861 4 0.178465 0.350846 0.303523
859 2 0.198491 0.358453 0.307243
860 4 0.218518 0.36606 0.310963
3020 4 0.235296 0.370007 0.318333
3019 2 0.252456 0.381097 0.315759
3021 4 0.269616 0.392187 0.313185
602 3 0.286607 0.397679 0.316583
1029 4 0.300779 0.389738 0.270893
604 3 0.308799 0.397003 0.286031
603 3 0.317436 0.365287 0.306109
601 1 0.309769 0.388276 0.307314
1848 4 0.336083 0.36018 0.318056
605 3 0.325541 0.393156 0.320363
1743 4 0.342294 0.375228 0.320096
1741 2 0.367848 0.373863 0.321517
1742 4 0.393402 0.372498 0.322937
2936 4 0.423178 0.394257 0.293163
2935 2 0.438102 0.402413 0.30765
2937 4 0.453027 0.410569 0.322137
793 2 0.494502 0.39761 0.311101
795 4 0.469044 0.39865 0.310749
79 3 0.0131017 0.490181 0.246394
1175 4 0.0317131 0.481407 0.312573
1174 2 0.0276935 0.48533 0.287978
1176 4 0.023674 0.489252 0.263384
3216 4 0.319265 0.462678 0.312868
3214 2 0.318813 0.449969 0.333459
2852 4 0.42297 0.485331 0.271609
2851 2 0.431697 0.499205 0.257311
367 3 0.00367861 0.0490149 0.338114
1180 2 0.0331735 0.0340922 0.406875
1181 4 0.0384657 0.0528076 0.415913
1182 4 0.0278813 0.0153769 0.397837
87 3 0.0183215 0.0034163 0.406859
3907 2 0.216344 0.0350577 0.335365
3908 4 0.188868 0.0442592 0.334861
3204 4 0.24438 0.0400684 0.346528
3202 2 0.263486 0.0382868 0.363488
3203 4 0.282592 0.0365052 0.380447
3726 4 0.288997 0.0388261 0.400261
3724 2 0.280814 0.0634853 0.402929
24 3 0.29548 0.0258589 0.4161
23 3 0.295309 0.017196 0.379329
21 1 0.305993 0.0094103 0.400002
25 3 0.330692 0.00342931 0.39893
2306 4 0.405837 0.00269393 0.399614
2305 2 0.399035 0.0272635 0.398487
2307 4 0.392233 0.0518331 0.397361
1285 2 0.496594 0.065338 0.416024
1883 4 0.0818663 0.0993466 0.334536
1882 2 0.100337 0.107391 0.342837
1884 4 0.118808 0.115435 0.351139
3285 4 0.198825 0.125731 0.374512
3283 2 0.209753 0.127776 0.396424
3725 4 0.272632 0.0881444 0.405597
1852 2 0.400531 0.113473 0.391271
1853 4 0.397492 0.132083 0.375511
997 2 0.408816 0.116617 0.335686
998 4 0.407971 0.120605 0.360349
1854 4 0.403569 0.094863 0.40703
909 4 0.077627 0.241788 0.409127
2970 4 0.399269 0.229955 0.349874
2968 2 0.42201 0.233971 0.35198
2969 4 0.444751 0.237988 0.354085
2858 4 0.450769 0.249945 0.364498
2857 2 0.477491 0.235737 0.360519
891 4 0.306328 0.294475 0.358422
889 2 0.32652 0.297064 0.345723
2594 4 0.492022 0.297452 0.396731
3269 4 0.466717 0.332276 0.336164
3234 4 0.0645726 0.381371 0.331773
2000 4 0.177355 0.396074 0.388955
1999 2 0.17796 0.418375 0.385818
1138 2 0.283237 0.374117 0.402997
1139 4 0.304269 0.371559 0.388018
1140 4 0.262204 0.376674 0.417976
2846 4 0.454137 0.400014 0.388334
2845 2 0.427785 0.408239 0.381393
1092 4 0.386171 0.411531 0.384043
2847 4 0.401433 0.416464 0.374451
2238 4 0.47472 0.392828 0.382159
2236 2 0.482271 0.409339 0.393258
3810 4 0.11235 0.447641 0.403551
2001 4 0.178566 0.440675 0.382681
1091 4 0.3363 0.427149 0.363196
3215 4 0.318361 0.43726 0.35405
1090 2 0.361235 0.41934 0.373619
2237 4 0.489822 0.425849 0.404357
88 3 0.0132887 0.00800835 0.444048
86 1 0.0044839 0.00217788 0.424749
757 2 0.0845374 0.00319839 0.45996
758 4 0.0909506 0.0185025 0.445469
1647 4 0.0922665 0.0299657 0.430237
1645 2 0.0983328 0.0490034 0.436796
1646 4 0.104399 0.0680411 0.443355
3252 4 0.0975434 0.0806571 0.459389
3107 4 0.19413 0.0610237 0.44971
4554 4 0.210644 0.00471788 0.487287
4552 2 0.234196 0.00500328 0.479276
3106 2 0.213237 0.0701131 0.450203
4553 4 0.257749 0.00528868 0.471265
3074 4 0.241127 0.0832855 0.468559
3073 2 0.264256 0.086651 0.470779
3108 4 0.232344 0.0792025 0.450696
1284 4 0.436902 0.0253593 0.497424
1282 2 0.444575 0.044234 0.496214
1283 4 0.452247 0.0631088 0.495004
64 3 0.469059 0.0573289 0.481486
61 1 0.488089 0.0602105 0.470727
63 3 0.47862 0.0788685 0.456961
1287 4 0.486904 0.077142 0.43765
1040 4 0.00310471 0.16449 0.497772
3250 2 0.0893704 0.0846111 0.483247
4170 4 0.234189 0.137843 0.42565
3284 4 0.220681 0.12982 0.418336
4168 2 0.259618 0.136876 0.425754
3776 4 0.216128 0.126381 0.501171
3075 4 0.287384 0.0900164 0.472998
4169 4 0.285048 0.135909 0.425859
3224 4 0.41743 0.136145 0.420873
3672 4 0.412563 0.151062 0.478903
3223 2 0.42441 0.138108 0.44452
3225 4 0.43139 0.140071 0.468167
907 2 0.100482 0.231227 0.422903
908 4 0.123337 0.220666 0.436678
3670 2 0.389783 0.16894 0.48858
3345 4 0.311132 0.217061 0.478455
3343 2 0.332815 0.210284 0.493771
3671 4 0.367002 0.186818 0.498257
1534 2 0.452361 0.226933 0.502147
1535 4 0.4762 0.211753 0.491631
4252 2 0.0233925 0.2928 0.434645
4254 4 0.0458766 0.296656 0.439324
1053 4 0.0460522 0.313909 0.444984
1051 2 0.06781 0.316917 0.436006
1052 4 0.0895677 0.319925 0.427028
923 4 0.108857 0.317843 0.434327
922 2 0.130881 0.323019 0.435984
924 4 0.152906 0.328196 0.437642
3124 2 0.269794 0.294082 0.490398
3125 4 0.282729 0.301716 0.473181
1499 4 0.317768 0.308938 0.453051
4628 4 0.334072 0.307248 0.440075
4629 4 0.377787 0.309259 0.417626
3054 4 0.381853 0.322165 0.427182
4627 2 0.355929 0.308253 0.42885
4595 4 0.483463 0.278931 0.488091
4674 4 0.0116916 0.358632 0.457934
3231 4 0.0250175 0.365973 0.45084
3229 2 0.0445328 0.374192 0.454702
3230 4 0.064048 0.382411 0.458564
1043 4 0.0712617 0.396092 0.458768
1042 2 0.0940453 0.399384 0.463661
1044 4 0.116829 0.402677 0.468553
1187 4 0.125229 0.397058 0.486895
3153 4 0.161382 0.341184 0.432134
1186 2 0.152613 0.384935 0.485277
3151 2 0.181423 0.349077 0.433719
1188 4 0.179998 0.372813 0.48366
3152 4 0.201464 0.356971 0.435304
3023 4 0.186051 0.386108 0.493053
843 4 0.196604 0.377746 0.432186
841 2 0.218684 0.381208 0.424918
3022 2 0.207052 0.392587 0.495895
1498 2 0.304133 0.333561 0.456737
842 4 0.240763 0.384671 0.41765
3024 4 0.228053 0.399067 0.498737
1500 4 0.290499 0.358183 0.460422
1239 4 0.287519 0.373477 0.447575
1237 2 0.300343 0.387383 0.455472
1007 4 0.359201 0.40719 0.471165
1238 4 0.313167 0.401289 0.46337
3052 2 0.395583 0.334223 0.437584
3053 4 0.409314 0.34628 0.447986
1950 4 0.436477 0.411269 0.446259
1455 4 0.493515 0.404587 0.475587
3808 2 0.120568 0.432926 0.423714
3809 4 0.128786 0.418211 0.443877
2218 2 0.279154 0.465817 0.433418
2220 4 0.261072 0.487531 0.424028
1008 4 0.312679 0.426569 0.444503
1006 2 0.33594 0.41688 0.457834
2219 4 0.297235 0.444103 0.442809
1948 2 0.455061 0.415559 0.45983
1949 4 0.473645 0.419848 0.473401
2956 2 0.0472639 0.0195129 0.507661
2957 4 0.0501525 0.0399908 0.500289
4113 4 0.0711476 0.033192 0.505451
954 4 0.0761048 0.0839803 0.524565
4112 4 0.118119 0.0388764 0.502354
4111 2 0.0946335 0.0360342 0.503902
1480 2 0.195401 0.00845925 0.521032
1482 4 0.176634 0.00652314 0.536361
1481 4 0.214169 0.0103954 0.505702
2666 4 0.470249 0.0526766 0.55058
2665 2 0.461125 0.06796 0.570258
493 3 0.0174708 0.094781 0.540052
953 4 0.0211418 0.106123 0.52688
1041 4 0.0063358 0.124023 0.522802
1039 2 0.00472026 0.144257 0.510287
3251 4 0.0811975 0.0885652 0.507104
3766 2 0.0172006 0.164423 0.580479
952 2 0.0486233 0.0950516 0.525723
3768 4 0.0416994 0.16515 0.583303
3775 2 0.23004 0.128764 0.521027
3777 4 0.243952 0.131148 0.540882
779 4 0.247142 0.125228 0.559274
778 2 0.264162 0.136603 0.560073
780 4 0.281182 0.147978 0.560872
1232 4 0.303046 0.145836 0.558676
1231 2 0.329257 0.135236 0.566268
1233 4 0.355468 0.124636 0.573859
2893 2 0.104214 0.223288 0.556106
2895 4 0.125818 0.216785 0.540728
2894 4 0.0826106 0.229791 0.571483
3390 4 0.143568 0.22111 0.544654
3388 2 0.170145 0.209451 0.538391
3389 4 0.196722 0.197792 0.532129
3047 4 0.218111 0.192852 0.535865
3046 2 0.233046 0.206259 0.535454
3048 4 0.247981 0.219665 0.535044
1569 4 0.244546 0.237513 0.546271
3344 4 0.354498 0.203507 0.509086
1536 4 0.428523 0.242114 0.512664
1567 2 0.255563 0.253517 0.55187
3425 4 0.197769 0.305857 0.523112
3424 2 0.22127 0.292056 0.511259
3426 4 0.24477 0.278255 0.499406
1568 4 0.266579 0.26952 0.557468
3126 4 0.256859 0.286449 0.507616
4508 4 0.206067 0.332623 0.565613
2415 4 0.28153 0.276744 0.553739
2413 2 0.292036 0.290611 0.565898
4596 4 0.494568 0.305755 0.523184
4594 2 0.489016 0.292343 0.505637
1591 2 0.0192378 0.41112 0.540879
1592 4 0.0452992 0.403399 0.548552
1704 4 0.999834 0.412209 0.573726
3542 4 0.0648674 0.398849 0.537539
3541 2 0.0861805 0.404957 0.539982
3543 4 0.107494 0.411065 0.542425
160 3 0.105198 0.412706 0.570167
4507 2 0.222067 0.342177 0.576475
163 3 0.466095 0.370588 0.571267
4373 4 0.121033 0.421005 0.540848
4372 2 0.141818 0.427666 0.537376
4374 4 0.162602 0.434326 0.533904
2420 4 0.175398 0.444175 0.528399
2419 2 0.195917 0.451238 0.531619
3572 4 0.196819 0.421929 0.592252
3383 4 0.218949 0.416813 0.584357
2421 4 0.216436 0.458302 0.534839
8 3 0.235174 0.448117 0.545578
6 1 0.246141 0.437452 0.565274
7 3 0.269047 0.421021 0.560415
1652 4 0.286426 0.419874 0.548488
9 3 0.232011 0.42766 0.575038
10 3 0.248598 0.452428 0.579662
1651 2 0.310023 0.422173 0.545014
1653 4 0.33362 0.424471 0.54154
1353 4 0.354629 0.42296 0.538734
1351 2 0.372947 0.429576 0.549919
1352 4 0.391265 0.436192 0.561104
2085 4 0.396941 0.450636 0.567454
2083 2 0.415211 0.460616 0.56917
4705 2 0.478933 0.463752 0.570226
2084 4 0.433482 0.470596 0.570886
4707 4 0.453098 0.468672 0.576957
1426 2 0.0357205 0.0591058 0.624081
1428 4 0.0245631 0.0433658 0.617839
1427 4 0.0468779 0.0748458 0.630324
1512 4 0.127902 0.0668871 0.627053
1511 4 0.165484 0.0775258 0.651206
1510 2 0.146693 0.0722065 0.63913
1946 4 0.302474 0.0363854 0.648082
2723 4 0.290516 0.010458 0.608915
1644 4 0.305118 0.017887 0.602877
1945 2 0.282907 0.0379769 0.664449
2373 4 0.303527 0.0523543 0.638505
2371 2 0.314417 0.0689245 0.635693
1642 2 0.326553 0.0220287 0.610833
1643 4 0.347987 0.0261703 0.618788
3692 4 0.36693 0.0116665 0.61443
3691 2 0.388685 0.00668869 0.629313
3693 4 0.41044 0.00171084 0.644196
3432 4 0.434789 0.0625107 0.662725
4545 4 0.480182 0.000217605 0.648549
721 1 0.442657 0.00287203 0.667235
4543 2 0.50096 0.00707919 0.650837
3801 4 0.0633461 0.163543 0.584792
3804 4 0.236949 0.141832 0.663535
2372 4 0.325307 0.0854947 0.632882
3802 2 0.261844 0.141898 0.661553
3803 4 0.286738 0.141964 0.65957
2706 4 0.335837 0.0931446 0.645544
2704 2 0.348883 0.0914135 0.667273
1700 4 0.372388 0.125243 0.585188
1699 2 0.382825 0.129793 0.606342
1701 4 0.393263 0.134342 0.627496
1683 4 0.407544 0.141078 0.633763
2667 4 0.452001 0.0832435 0.589935
149 3 0.466696 0.0910793 0.591054
148 3 0.460722 0.110648 0.623493
146 1 0.475747 0.102841 0.604873
1681 2 0.427534 0.149051 0.635158
147 3 0.475907 0.120812 0.593246
150 3 0.49912 0.0893914 0.611382
1682 4 0.447524 0.157023 0.636552
2873 4 0.000398199 0.188806 0.652986
1310 4 0.0199079 0.188699 0.652464
1309 2 0.0427469 0.192356 0.649217
1311 4 0.0655858 0.196012 0.645971
3799 2 0.0847987 0.169531 0.58662
3377 4 0.122288 0.182556 0.589604
3376 2 0.149181 0.177138 0.590266
3800 4 0.106251 0.175519 0.588448
1690 2 0.0827972 0.223943 0.648638
1692 4 0.0882304 0.243526 0.642879
130 3 0.108856 0.23624 0.635496
126 1 0.1238 0.236009 0.618222
127 3 0.132737 0.21539 0.608038
1691 4 0.077364 0.20436 0.654396
2985 4 0.19348 0.176505 0.591697
3378 4 0.176074 0.171719 0.590927
128 3 0.143472 0.239887 0.626162
1385 4 0.157549 0.245691 0.616133
1384 2 0.184246 0.234203 0.622024
2983 2 0.217732 0.177794 0.5942
1386 4 0.210943 0.222714 0.627915
2984 4 0.241984 0.179082 0.596702
2268 4 0.217996 0.236261 0.628239
1574 4 0.252381 0.189625 0.601263
2266 2 0.241528 0.238892 0.630708
1575 4 0.299226 0.195339 0.605797
1573 2 0.275804 0.192482 0.60353
2267 4 0.265059 0.241524 0.633178
3494 4 0.283571 0.237042 0.643916
3493 2 0.296222 0.222194 0.663173
1613 4 0.315066 0.199191 0.593912
1612 2 0.339702 0.199664 0.596609
1614 4 0.364337 0.200138 0.599306
4241 4 0.381031 0.206441 0.597532
4242 4 0.430462 0.20427 0.585271
4240 2 0.405746 0.205355 0.591402
3114 4 0.444159 0.211719 0.595291
3112 2 0.470781 0.206725 0.598213
3113 4 0.497403 0.201731 0.601135
129 3 0.11061 0.252223 0.602644
2414 4 0.302541 0.304477 0.578057
1145 4 0.448171 0.319058 0.614741
1468 2 0.0134446 0.381224 0.63755
1470 4 0.0282671 0.391294 0.625496
1602 4 0.0464187 0.392498 0.620824
1600 2 0.0686065 0.397412 0.619002
1601 4 0.0907944 0.402326 0.617179
157 3 0.1049 0.407224 0.606976
4509 4 0.238066 0.351731 0.587336
3384 4 0.242424 0.366905 0.581252
3382 2 0.230686 0.391859 0.582805
3129 4 0.252154 0.411216 0.652957
498 3 0.290607 0.395232 0.624008
3522 4 0.305055 0.398546 0.63663
593 3 0.337468 0.340712 0.665748
3520 2 0.32054 0.374816 0.643045
3521 4 0.336025 0.351085 0.64946
1144 2 0.458337 0.336179 0.617303
1146 4 0.468503 0.3533 0.619865
165 3 0.472944 0.36715 0.60839
162 3 0.476509 0.39506 0.589819
161 1 0.480068 0.373042 0.588712
3684 4 0.017485 0.485701 0.637362
3682 2 0.0152579 0.497073 0.659426
159 3 0.131597 0.419586 0.592444
3367 2 0.072723 0.461078 0.667627
3368 4 0.0929318 0.468758 0.666026
158 3 0.0906825 0.442254 0.593485
156 1 0.108089 0.420444 0.590591
732 3 0.0989884 0.484961 0.666856
3369 4 0.0525142 0.453399 0.669227
733 3 0.128721 0.495914 0.657706
3573 4 0.14488 0.427253 0.587444
731 1 0.11908 0.48047 0.653289
735 3 0.111927 0.482013 0.6315
734 3 0.136564 0.45902 0.657792
3571 2 0.17085 0.424591 0.589848
499 3 0.255975 0.422187 0.638958
2504 4 0.261273 0.462267 0.582981
496 1 0.273042 0.417068 0.621761
500 3 0.261488 0.41969 0.601644
497 3 0.284528 0.431301 0.622917
1461 4 0.247166 0.480185 0.656595
3723 4 0.288184 0.435353 0.642123
2503 2 0.276484 0.472513 0.594081
1459 2 0.26124 0.493919 0.652043
3721 2 0.313096 0.432307 0.650071
3722 4 0.338007 0.42926 0.65802
2505 4 0.291696 0.482759 0.605181
3864 4 0.337199 0.448028 0.655372
727 3 0.296142 0.499451 0.601458
3862 2 0.36336 0.444702 0.652638
3863 4 0.38952 0.441375 0.649905
3342 4 0.0326308 0.0438279 0.727155
3340 2 0.0494137 0.0550301 0.731458
3714 4 0.0161718 0.0465357 0.739936
4723 2 0.0106463 0.00577528 0.74709
3341 4 0.0661966 0.0662323 0.735761
462 3 0.070069 0.0818353 0.7421
1525 2 0.204148 0.00881744 0.730823
1526 4 0.22779 0.0107043 0.72625
1527 4 0.180507 0.00693054 0.735397
1137 4 0.163293 0.00197949 0.740585
477 3 0.243813 0.0153649 0.720889
480 3 0.254895 0.0308051 0.692187
476 1 0.263395 0.0166759 0.709935
1947 4 0.263339 0.0395685 0.680816
478 3 0.27573 0.0246985 0.724674
3324 4 0.291721 0.033503 0.7245
3322 2 0.313792 0.0386574 0.723407
3323 4 0.335863 0.0438118 0.722315
524 3 0.352914 0.0491223 0.717625
521 1 0.368045 0.0595184 0.711813
522 3 0.354632 0.0783295 0.699459
725 3 0.432093 0.0251492 0.671955
523 3 0.376665 0.0658243 0.730942
525 3 0.387332 0.0453922 0.699342