ITEM: TIMESTEP
933500
ITEM: NUMBER OF ATOMS
4800
ITEM: BOX BOUNDS xy xz yz pp pp pp
-1.6597626200000008e+01 9.9985700000000008e+00 -6.5990562000000068e+00
-9.9985700000000008e+00 9.9985700000000008e+00 0.0000000000000000e+00
-9.9985700000000008e+00 9.9985700000000008e+00 0.0000000000000000e+00
ITEM: ATOMS id type xs ys zs
3331 2 0.0668242 0.0101841 0.0441901
3332 4 0.0860468 0.0262221 0.0573779
1887 4 0.306686 0.073079 0.0805972
32 3 0.329674 0.0130974 0.0115061
114 3 0.471623 0.0711505 0.0191414
3207 4 0.482731 0.00840728 0.0070392
3537 4 0.00762666 0.122577 0.0436529
3535 2 0.0249086 0.139994 0.0573934
3536 4 0.0421905 0.157411 0.0711339
1278 4 0.0616107 0.159437 0.0811542
1109 4 0.154227 0.147115 0.0793354
1108 2 0.176096 0.140517 0.0811876
3158 4 0.207177 0.109229 0.0481087
3157 2 0.230471 0.121563 0.0379351
899 4 0.211592 0.124456 0.0808053
3159 4 0.253765 0.133897 0.0277615
1304 4 0.263067 0.128791 0.0114799
1303 2 0.289093 0.14013 0.0116434
1305 4 0.315119 0.15147 0.0118069
3516 4 0.331742 0.151014 0.024056
3514 2 0.336528 0.155366 0.048449
3515 4 0.341313 0.159718 0.072842
3762 4 0.0296323 0.20982 0.0330028
3760 2 0.00452495 0.209485 0.0334928
1208 4 0.0481768 0.213033 0.0243709
1207 2 0.0724025 0.211789 0.0284563
1209 4 0.0966282 0.210545 0.0325417
1128 4 0.115834 0.212249 0.0403899
1126 2 0.142135 0.219341 0.0395201
1127 4 0.168437 0.226433 0.0386502
1184 4 0.185768 0.237899 0.0283909
1183 2 0.211481 0.243986 0.0232715
2837 4 0.256133 0.245196 0.0128965
2877 4 0.319174 0.208026 0.998712
2875 2 0.339125 0.209531 0.0143469
2876 4 0.359076 0.211036 0.0299815
1093 2 0.39665 0.239703 0.0145325
1094 4 0.379325 0.220606 0.0263221
3410 4 0.0410195 0.252096 0.0373773
809 4 0.0190677 0.289693 0.0692712
3411 4 0.00815788 0.274265 0.0572529
808 2 0.0387505 0.309567 0.0768867
3409 2 0.0245887 0.263181 0.0473151
776 4 0.0554708 0.256307 0.0517156
810 4 0.0584333 0.32944 0.0845022
877 2 0.0646066 0.263132 7.42492e-05
1220 4 0.028606 0.258053 0.00176804
879 4 0.0850849 0.258285 0.0107633
4404 4 0.105435 0.258582 0.0108231
775 2 0.0810029 0.265173 0.0576772
777 4 0.106535 0.274039 0.0636389
3750 4 0.127243 0.274847 0.0680936
4402 2 0.127468 0.255132 0.00208261
3748 2 0.151144 0.286143 0.0776128
4403 4 0.1495 0.251683 0.993342
1185 4 0.237195 0.250073 0.0181522
3319 2 0.305833 0.317912 0.0023803
2836 2 0.282214 0.256029 0.0117576
2838 4 0.308295 0.266863 0.0106187
3320 4 0.331237 0.329103 0.00772763
1095 4 0.413974 0.2588 0.00274284
3156 4 0.503479 0.33668 0.045941
791 4 0.476458 0.328583 0.998036
1991 4 0.00214794 0.358798 0.00850593
3327 4 0.0205195 0.35438 0.0103146
3325 2 0.044545 0.370157 0.00561154
4379 4 0.0760185 0.340492 0.0758
3326 4 0.0685705 0.385934 0.000908505
797 4 0.200227 0.404085 0.0195063
510 3 0.211434 0.419275 0.0306949
830 4 0.231395 0.395528 0.0655231
829 2 0.216622 0.373504 0.0746779
508 3 0.238281 0.4111 0.0525562
509 3 0.203923 0.412866 0.0674027
831 4 0.201849 0.351481 0.0838327
3155 4 0.486512 0.367818 0.0740295
3154 2 0.494995 0.352249 0.0599852
4034 4 0.0129409 0.475334 0.0365329
938 4 0.0133096 0.456933 0.0355025
937 2 0.0375749 0.455926 0.0398751
939 4 0.0618403 0.45492 0.0442477
2409 4 0.0773265 0.459104 0.0578207
2407 2 0.0917857 0.453468 0.0397345
2408 4 0.106245 0.447832 0.0216484
4530 4 0.108166 0.433961 0.0103529
3987 4 0.213811 0.482636 0.0826466
2623 2 0.207975 0.456722 0.00732512
1363 2 0.235015 0.482756 0.0558339
1365 4 0.240281 0.467989 0.0383895
2625 4 0.227216 0.466203 0.0239285
506 1 0.221211 0.421753 0.0514854
507 3 0.23158 0.444144 0.0558327
1364 4 0.22975 0.497523 0.0732784
824 4 0.400909 0.441451 0.022918
744 3 0.429517 0.453783 0.0637413
742 3 0.422877 0.448317 0.0268713
743 3 0.411581 0.474898 0.0442887
741 1 0.428649 0.464228 0.0434757
823 2 0.401984 0.427971 0.00259681
745 3 0.450041 0.479338 0.0388734
3752 4 0.45551 0.483294 0.0194544
3751 2 0.474418 0.476795 0.00763394
2910 4 0.0357381 0.0439126 0.100987
2908 2 0.0187139 0.0212905 0.0962908
379 3 0.0196888 0.0494216 0.155493
378 3 0.0423994 0.0774167 0.133602
376 1 0.0363065 0.0547752 0.138487
377 3 0.0267596 0.0427572 0.119683
380 3 0.0557898 0.0494588 0.144758
4319 4 0.0118302 0.00333825 0.171271
2921 4 0.116737 0.0581652 0.151034
2920 2 0.137496 0.0501906 0.14723
2922 4 0.158255 0.0422161 0.143427
983 4 0.173664 0.0571569 0.136676
982 2 0.195415 0.0510103 0.131994
984 4 0.217167 0.0448636 0.127313
3860 4 0.219841 0.033353 0.142883
3859 2 0.244035 0.031211 0.142167
3861 4 0.26823 0.0290691 0.141452
1244 4 0.284275 0.039522 0.153037
1243 2 0.305365 0.059718 0.149997
1245 4 0.326455 0.0799141 0.146958
3982 2 0.359095 0.0686795 0.129452
3983 4 0.336462 0.0676388 0.140733
3984 4 0.381729 0.0697201 0.118171
1054 2 0.441022 0.0414355 0.159954
1055 4 0.450166 0.0425302 0.136569
4043 4 0.466602 0.0472677 0.124088
4042 2 0.491706 0.0609611 0.127825
1276 2 0.060042 0.144174 0.100652
1277 4 0.0584733 0.128911 0.120151
3194 4 0.103294 0.132248 0.120129
3193 2 0.126011 0.143313 0.108328
3195 4 0.148728 0.154379 0.0965264
1110 4 0.197965 0.133919 0.0830397
898 2 0.229783 0.137803 0.0968365
900 4 0.247974 0.151149 0.112868
1203 4 0.262208 0.141744 0.114909
1885 2 0.296069 0.0887487 0.0920151
1201 2 0.281465 0.131846 0.110445
1202 4 0.300722 0.121949 0.105981
1886 4 0.285451 0.104418 0.103433
2886 4 0.384143 0.144332 0.164241
2884 2 0.407116 0.144703 0.154096
2885 4 0.430089 0.145074 0.143951
3101 4 0.450568 0.15893 0.145904
3100 2 0.475242 0.163239 0.154024
2060 4 0.410739 0.227021 0.136696
1715 4 0.399092 0.235935 0.127264
2059 2 0.435391 0.226747 0.14029
2061 4 0.460043 0.226473 0.143883
4547 4 0.466912 0.223556 0.125443
4546 2 0.490329 0.237598 0.116771
1170 4 0.0829781 0.293344 0.164352
1983 4 0.095552 0.309914 0.15594
1981 2 0.120331 0.309536 0.153744
1982 4 0.145111 0.309157 0.151548
3749 4 0.175046 0.297439 0.087132
756 4 0.162838 0.320644 0.159298
1010 4 0.363901 0.317518 0.0856827
1009 2 0.388033 0.331128 0.0930443
1716 4 0.411197 0.28089 0.105533
1714 2 0.405145 0.258413 0.116398
4095 4 0.426911 0.293288 0.116199
4093 2 0.447418 0.304936 0.101644
4094 4 0.467925 0.316584 0.0870889
4378 2 0.09666 0.341972 0.0905259
4380 4 0.117301 0.343452 0.105252
4059 4 0.137856 0.343956 0.104201
4057 2 0.163659 0.351453 0.0992239
4058 4 0.189461 0.358951 0.0942466
754 2 0.179094 0.343589 0.154472
755 4 0.195349 0.366535 0.149645
4076 4 0.251737 0.354243 0.150975
4075 2 0.275539 0.36885 0.158151
4077 4 0.299342 0.383457 0.165328
3178 2 0.447211 0.358092 0.0879416
1011 4 0.412165 0.344738 0.100406
3179 4 0.42224 0.358184 0.087589
3180 4 0.472182 0.358001 0.0882941
4620 4 0.206165 0.474714 0.136587
3986 4 0.209791 0.494768 0.130492
3985 2 0.211801 0.488702 0.106569
4618 2 0.201739 0.479844 0.160281
4038 4 0.295068 0.488309 0.0915792
1966 2 0.275415 0.455304 0.156567
69 3 0.287536 0.461519 0.122575
1968 4 0.296474 0.461834 0.141561
70 3 0.311588 0.49027 0.103109
66 1 0.309636 0.470262 0.112943
1449 4 0.317226 0.472228 0.147098
68 3 0.31315 0.455454 0.0971777
67 3 0.326461 0.473385 0.129372
1447 2 0.337038 0.47882 0.163549
1412 4 0.438543 0.452706 0.157692
4578 4 0.0213681 0.0512637 0.224709
4576 2 0.022639 0.0545207 0.199919
4577 4 0.02391 0.0577777 0.175129
1166 4 0.0246371 0.0434617 0.242
4318 2 0.0345677 0.00124188 0.179748
4320 4 0.0573052 0.999146 0.188225
4139 4 0.127136 0.0552337 0.235503
2948 4 0.141479 0.07287 0.232716
2947 2 0.139233 0.0649128 0.209016
2949 4 0.136986 0.0569555 0.185315
3259 2 0.135767 0.00627502 0.196161
3261 4 0.144948 0.0227001 0.214635
2967 4 0.190414 0.0500291 0.217833
2965 2 0.214265 0.0536314 0.227766
2966 4 0.238115 0.0572337 0.2377
3065 4 0.24591 0.0445879 0.227063
3064 2 0.261691 0.0357881 0.212971
3066 4 0.277472 0.0269884 0.198878
3998 4 0.324414 0.0628035 0.235948
3997 2 0.345677 0.0831322 0.235586
4119 4 0.420775 0.0803539 0.226793
1056 4 0.431879 0.0403408 0.183339
3293 4 0.488152 0.0345547 0.222509
3294 4 0.446551 0.0502985 0.214579
3292 2 0.467351 0.0424266 0.218544
3954 4 0.0718651 0.110831 0.181826
3952 2 0.0902118 0.11765 0.199703
3953 4 0.108558 0.124468 0.21758
395 3 0.126593 0.131529 0.227633
391 1 0.145751 0.12504 0.222851
393 3 0.138654 0.102583 0.21702
392 3 0.157743 0.13743 0.205154
394 3 0.16063 0.128642 0.241236
1097 4 0.176542 0.151676 0.204568
1096 2 0.201541 0.151678 0.204071
1098 4 0.226541 0.15168 0.203574
3099 4 0.246477 0.154888 0.197901
3097 2 0.271009 0.158124 0.205909
3098 4 0.295542 0.161359 0.213916
3003 4 0.36894 0.12785 0.167118
384 3 0.329588 0.155105 0.185982
3002 4 0.326222 0.142744 0.170287
3001 2 0.347581 0.135297 0.168703
3999 4 0.366939 0.103461 0.235223
4118 4 0.386929 0.106105 0.233467
4117 2 0.403852 0.0932297 0.23013
385 3 0.316471 0.173723 0.21244
383 3 0.3396 0.193009 0.184788
381 1 0.334863 0.174485 0.198693
382 3 0.354499 0.176143 0.211421
3288 4 0.368336 0.193684 0.217376
3286 2 0.388456 0.187112 0.226608
3287 4 0.408576 0.180541 0.235839
440 3 0.455145 0.166531 0.225418
438 3 0.428901 0.182946 0.237493
417 3 0.487498 0.246457 0.220597
436 1 0.448717 0.177064 0.243014
439 3 0.467083 0.196007 0.248742
1168 2 0.0570562 0.285128 0.168706
1169 4 0.0311344 0.276912 0.17306
1733 4 0.0171135 0.284153 0.183502
3255 4 0.398117 0.328276 0.217963
861 4 0.408849 0.326652 0.201254
859 2 0.434619 0.329657 0.202725
860 4 0.460389 0.332661 0.204196
418 3 0.48336 0.25161 0.183827
416 1 0.499232 0.250843 0.200495
3019 2 0.475206 0.332377 0.242542
785 4 0.183125 0.409384 0.16934
2824 2 0.237091 0.371623 0.219334
2826 4 0.231124 0.368382 0.19503
2825 4 0.243059 0.374864 0.243638
2834 4 0.301583 0.393828 0.182675
2833 2 0.326593 0.407227 0.178007
3253 2 0.392583 0.344647 0.233377
3254 4 0.38705 0.361018 0.248791
1395 4 0.459229 0.407561 0.239036
3020 4 0.469385 0.340716 0.220585
4619 4 0.197313 0.484974 0.183975
786 4 0.233386 0.438448 0.167928
784 2 0.208256 0.423916 0.168634
1967 4 0.254356 0.448775 0.171573
570 3 0.264892 0.482134 0.247357
4070 4 0.346091 0.477083 0.196353
1448 4 0.356851 0.485413 0.180001
4069 2 0.347661 0.487941 0.218786
4071 4 0.349232 0.498799 0.241219
2835 4 0.351603 0.420626 0.173339
1393 2 0.465979 0.427855 0.22443
1413 4 0.480233 0.478297 0.184907
1394 4 0.472729 0.448149 0.209825
1411 2 0.459388 0.465502 0.1713
1165 2 0.0299663 0.0636415 0.256703
3917 4 0.11995 0.00596648 0.297756
301 1 0.0907192 0.0152311 0.304331
4138 2 0.110296 0.0486158 0.254649
4140 4 0.0934559 0.0419979 0.273796
304 3 0.0965112 0.0252953 0.283571
302 3 0.0845487 0.0297689 0.318385
305 3 0.109554 0.0103368 0.313077
3916 2 0.142633 0.00732232 0.286401
1862 4 0.184311 0.00708051 0.26573
3918 4 0.165316 0.00867817 0.275045
1861 2 0.198799 0.00760335 0.286223
1863 4 0.213288 0.00812619 0.306716
1205 4 0.302112 0.0556852 0.333155
2940 4 0.349755 0.040063 0.26569
368 3 0.329926 0.0325606 0.273624
367 3 0.29047 0.0180234 0.274002
370 3 0.30908 0.037406 0.303464
366 1 0.309192 0.0358861 0.28075
369 3 0.307031 0.0552662 0.271284
1204 2 0.317262 0.0782605 0.325654
2938 2 0.375333 0.0532253 0.264675
3667 2 0.439345 0.0657294 0.273292
3669 4 0.419702 0.0755847 0.271328
2939 4 0.400912 0.0663875 0.263661
3668 4 0.458987 0.0558742 0.275257
1882 2 0.494284 0.0162955 0.264118
1167 4 0.0352955 0.0838214 0.271407
1878 4 0.3036 0.140082 0.314722
1876 2 0.325007 0.140616 0.327919
1206 4 0.332412 0.100836 0.318154
2149 2 0.372356 0.105098 0.31251
2150 4 0.348596 0.0936761 0.322262
2151 4 0.396116 0.11652 0.302757
1361 4 0.410963 0.13217 0.306237
1362 4 0.448597 0.149227 0.271807
1360 2 0.42978 0.140699 0.289022
437 3 0.443513 0.162817 0.261067
881 4 0.424008 0.235935 0.305355
3915 4 0.386418 0.20222 0.330219
888 4 0.483661 0.192611 0.257491
3258 4 0.00369887 0.325528 0.272163
981 4 0.0211 0.336163 0.283202
979 2 0.0414291 0.331427 0.27209
980 4 0.0617583 0.326691 0.260978
1743 4 0.19413 0.327181 0.285551
891 4 0.313548 0.32925 0.310256
889 2 0.334918 0.330944 0.324011
3021 4 0.481028 0.324037 0.264499
1028 4 0.490126 0.322149 0.281782
882 4 0.466882 0.276266 0.304969
880 2 0.445445 0.2561 0.305162
794 4 0.486981 0.28415 0.306486
1082 4 0.0195182 0.389158 0.297362
4360 2 0.00894154 0.404598 0.25836
4361 4 0.0148629 0.392984 0.278237
1081 2 0.0326635 0.40948 0.310429
1176 4 0.169669 0.395292 0.272351
1785 4 0.230727 0.381468 0.25661
1741 2 0.220088 0.333877 0.289594
1783 2 0.211194 0.390609 0.262368
1784 4 0.191661 0.399749 0.268125
1742 4 0.246046 0.340573 0.293637
2968 2 0.282476 0.335969 0.299937
2969 4 0.257527 0.333325 0.306142
2970 4 0.307425 0.338613 0.293731
1242 4 0.344333 0.413305 0.331616
1197 4 0.403701 0.377123 0.256936
1195 2 0.429354 0.390047 0.257786
1196 4 0.455007 0.40297 0.258635
1846 2 0.403381 0.348976 0.334668
1848 4 0.429112 0.361619 0.333896
604 3 0.474229 0.367371 0.325889
1027 2 0.486846 0.339553 0.297302
1029 4 0.483565 0.356956 0.312822
1083 4 0.0458088 0.429801 0.323497
2186 4 0.0786587 0.477311 0.309101
3822 4 0.125588 0.469197 0.271378
3820 2 0.102819 0.467734 0.282619
3821 4 0.0800497 0.466272 0.29386
2892 4 0.142844 0.482377 0.279125
3473 4 0.127213 0.439868 0.333498
2185 2 0.0817651 0.499435 0.319971
2890 2 0.160903 0.49553 0.262876
1174 2 0.172473 0.419727 0.272999
3134 4 0.196302 0.469555 0.32226
1175 4 0.175277 0.444162 0.273647
80 3 0.179016 0.47077 0.313379
79 3 0.164212 0.440943 0.290943
76 1 0.158946 0.456896 0.304096
78 3 0.143181 0.446514 0.320781
77 3 0.148764 0.469206 0.29088
566 1 0.270003 0.497217 0.264419
569 3 0.256036 0.488445 0.282828
3133 2 0.219865 0.476491 0.311104
2806 2 0.227024 0.428746 0.303972
2808 4 0.203426 0.43169 0.307563
3135 4 0.243429 0.483428 0.299948
2807 4 0.250621 0.425803 0.30038
2105 4 0.463276 0.470519 0.274893
2104 2 0.478095 0.491864 0.285339
4170 4 0.0473972 0.0398386 0.405398
4168 2 0.0596485 0.0610268 0.393209
4169 4 0.0718998 0.082215 0.38102
3203 4 0.339555 0.999672 0.378955
3725 4 0.47724 0.0223463 0.417947
3724 2 0.498072 0.023136 0.403757
930 4 0.0892106 0.0921749 0.371398
929 4 0.141134 0.114985 0.374474
928 2 0.115172 0.10358 0.372936
1877 4 0.346413 0.14115 0.341116
3283 2 0.375394 0.107638 0.388025
3285 4 0.361022 0.100735 0.408792
3075 4 0.35745 0.118851 0.410366
3284 4 0.389765 0.114541 0.367258
3974 4 0.460484 0.0882735 0.344214
3975 4 0.497943 0.125946 0.36555
3973 2 0.479213 0.10711 0.354882
1017 4 0.0723134 0.192249 0.365136
1015 2 0.0655986 0.179547 0.386524
1016 4 0.0588838 0.166845 0.407913
828 4 0.255009 0.176182 0.355114
1579 2 0.238868 0.179285 0.397228
1580 4 0.245459 0.179168 0.373119
826 2 0.280837 0.180651 0.351632
827 4 0.306666 0.18512 0.34815
1160 4 0.324773 0.201778 0.347206
1159 2 0.346742 0.195825 0.343091
1161 4 0.368711 0.189872 0.338976
3913 2 0.405731 0.193313 0.337339
3914 4 0.425044 0.184406 0.344458
1472 4 0.427471 0.173253 0.359397
1076 4 0.477853 0.189691 0.405136
1471 2 0.44534 0.18301 0.377156
1473 4 0.463208 0.192767 0.394916
923 4 0.149024 0.296615 0.360273
1052 4 0.163094 0.314361 0.364735
2865 4 0.114166 0.270867 0.404884
3357 4 0.132759 0.281254 0.412646
924 4 0.173674 0.262102 0.357008
922 2 0.161349 0.279359 0.35864
3151 2 0.218219 0.277469 0.361456
3153 4 0.193078 0.264172 0.365664
843 4 0.248225 0.300115 0.374752
3152 4 0.24336 0.290766 0.357248
841 2 0.273654 0.309122 0.381058
842 4 0.299083 0.318129 0.387365
890 4 0.356289 0.332637 0.337765
3485 4 0.30915 0.253661 0.409833
3486 4 0.359019 0.282165 0.402683
3484 2 0.334084 0.267913 0.406258
1138 2 0.334947 0.331525 0.405904
816 4 0.372959 0.272145 0.396733
814 2 0.398992 0.276378 0.396195
3143 4 0.438792 0.287914 0.411696
815 4 0.425026 0.280611 0.395656
4303 2 0.00723735 0.342867 0.403766
3474 4 0.104632 0.390309 0.335911
3472 2 0.115923 0.415089 0.334705
3433 2 0.0801025 0.362364 0.411381
3434 4 0.0539079 0.355067 0.408903
4304 4 0.0332148 0.3486 0.407258
3435 4 0.106297 0.369661 0.413859
474 3 0.178167 0.376543 0.395236
1053 4 0.180073 0.35933 0.386506
1051 2 0.171583 0.336845 0.375621
4252 2 0.227315 0.364497 0.388377
4254 4 0.201836 0.362614 0.386437
4253 4 0.252793 0.36638 0.390316
1140 4 0.315463 0.336099 0.393117
3044 4 0.266259 0.383237 0.397092
3043 2 0.286821 0.382067 0.410692
1847 4 0.377651 0.336333 0.335441
605 3 0.449928 0.333545 0.335932
601 1 0.460198 0.355017 0.342821
603 3 0.443015 0.364548 0.34868
602 3 0.474054 0.355104 0.361205
2000 4 0.493953 0.355988 0.361912
3228 4 0.111023 0.484119 0.351157
4232 4 0.0992922 0.465213 0.35238
4231 2 0.0784657 0.445784 0.346062
4233 4 0.0576392 0.426354 0.339745
3226 2 0.133808 0.479251 0.348607
3868 2 0.190103 0.492313 0.370552
3227 4 0.156594 0.474383 0.346057
3870 4 0.16676 0.476909 0.36317
2219 4 0.197251 0.447318 0.396138
1238 4 0.202303 0.440216 0.379386
1922 4 0.265899 0.456705 0.348095
1239 4 0.248206 0.445681 0.356451
1237 2 0.225255 0.442948 0.367918
1921 2 0.286914 0.448733 0.349681
1240 2 0.335773 0.43221 0.338599
1923 4 0.307928 0.440761 0.351267
1241 4 0.327212 0.451115 0.345581
2846 4 0.34782 0.479478 0.398001
2238 4 0.332832 0.488869 0.403063
2845 2 0.368372 0.477571 0.411151
215 3 0.228243 0.0473961 0.497167
1852 2 0.27894 0.0674635 0.449877
1853 4 0.260467 0.0697206 0.434041
1854 4 0.297413 0.0652064 0.465712
1286 4 0.317122 0.0659993 0.465278
4470 4 0.350663 0.0270009 0.495119
1647 4 0.432236 0.0593461 0.469765
758 4 0.411322 0.0519361 0.471908
757 2 0.387939 0.0358153 0.478157
759 4 0.364556 0.0196945 0.484406
90 3 0.497932 0.0627759 0.47485
1645 2 0.455709 0.0587493 0.477799
89 3 0.486217 0.0354582 0.449079
3120 4 0.473271 0.0186219 0.456414
1646 4 0.479183 0.0581525 0.485834
3118 2 0.451434 0.00373772 0.46724
1800 4 0.0014429 0.137122 0.44867
397 3 0.0110042 0.153903 0.438178
396 1 0.0343208 0.166474 0.440111
399 3 0.0473023 0.159122 0.424396
398 3 0.0420389 0.163796 0.461494
3569 4 0.147834 0.133803 0.493649
3125 4 0.163832 0.149422 0.486801
3124 2 0.187582 0.166619 0.485142
3073 2 0.351745 0.13964 0.41629
3074 4 0.34604 0.16043 0.422213
1287 4 0.360256 0.106034 0.466894
1285 2 0.338689 0.0860165 0.466086
63 3 0.377536 0.107524 0.477233
64 3 0.398183 0.0943127 0.451846
61 1 0.399629 0.106452 0.471454
65 3 0.408296 0.0966885 0.488246
62 3 0.414509 0.127812 0.468053
1698 4 0.032666 0.225062 0.487449
400 3 0.0365555 0.188386 0.436433
1696 2 0.0100403 0.218382 0.500237
3672 4 0.0489174 0.232353 0.499226
839 4 0.996429 0.244414 0.462442
3670 2 0.0645201 0.218082 0.502218
1581 4 0.232276 0.179401 0.421336
3126 4 0.211332 0.183815 0.483483
3424 2 0.247266 0.176838 0.482258
3426 4 0.224787 0.17741 0.471721
1536 4 0.285826 0.169767 0.490494
3425 4 0.269745 0.176265 0.492795
1535 4 0.327848 0.20525 0.472524
1534 2 0.306837 0.187509 0.481509
1623 4 0.291095 0.244596 0.419518
1075 2 0.492809 0.179692 0.418988
174 3 0.024466 0.264902 0.457142
172 3 0.0587017 0.292956 0.455808
1703 4 0.0414215 0.316761 0.446064
175 3 0.0519041 0.264853 0.431375
171 1 0.0484017 0.270322 0.452836
173 3 0.0585995 0.259024 0.467561
2864 4 0.0718884 0.272243 0.430823
1702 2 0.0566971 0.331788 0.46318
2863 2 0.0930273 0.271555 0.417854
760 2 0.104611 0.277734 0.481234
761 4 0.0789628 0.269594 0.475607
762 4 0.13026 0.285875 0.486862
3506 4 0.146858 0.278527 0.487743
3356 4 0.174443 0.283244 0.441168
3355 2 0.153601 0.282249 0.426907
2593 2 0.212549 0.302365 0.457174
2594 4 0.195528 0.284196 0.444002
2595 4 0.22957 0.320534 0.470347
1622 4 0.258071 0.264358 0.442891
1621 2 0.274583 0.254477 0.431204
3687 4 0.360491 0.291333 0.489844
3756 4 0.343213 0.276507 0.489783
1139 4 0.354432 0.326951 0.41869
3685 2 0.38391 0.307279 0.483423
3686 4 0.407329 0.323226 0.477001
3142 2 0.463005 0.292403 0.421095
3144 4 0.487217 0.296892 0.430493
1704 4 0.0719727 0.346815 0.480296
1355 4 0.0896223 0.342468 0.475901
472 3 0.145965 0.375906 0.414953
471 1 0.167037 0.371432 0.415805
3980 4 0.126078 0.378847 0.419234
1356 4 0.140009 0.35985 0.490217
1354 2 0.114816 0.351159 0.483059
3979 2 0.128261 0.390581 0.441248
3981 4 0.130445 0.402315 0.463263
475 3 0.180786 0.384132 0.432114
473 3 0.162611 0.348913 0.420525
2245 2 0.225857 0.402805 0.430242
2246 4 0.201289 0.391046 0.437917
1454 4 0.263555 0.419991 0.437227
3045 4 0.307383 0.380897 0.424293
3605 4 0.315029 0.371095 0.438309
1652 4 0.29345 0.416801 0.490095
3604 2 0.334602 0.391897 0.443874
3606 4 0.354176 0.412699 0.449439
3231 4 0.448411 0.356649 0.491127
3229 2 0.471762 0.367432 0.480303
3230 4 0.495113 0.378216 0.469479
2450 4 0.00764046 0.462781 0.499499
2449 2 0.0338765 0.472594 0.499549
2842 2 0.10697 0.496694 0.490439
1007 4 0.129753 0.464249 0.488661
2843 4 0.0820785 0.491494 0.498252
2218 2 0.182612 0.45332 0.413829
2220 4 0.167974 0.459323 0.431519
1008 4 0.154776 0.459501 0.446576
1006 2 0.142265 0.461875 0.467619
4265 4 0.258186 0.50069 0.421973
2247 4 0.250426 0.414565 0.422567
3130 2 0.261167 0.475722 0.44695
3131 4 0.286226 0.48494 0.454398
3132 4 0.236108 0.466505 0.439502
2236 2 0.316759 0.484693 0.422857
2237 4 0.300686 0.480516 0.442651
1453 2 0.281572 0.419548 0.454405
1455 4 0.29959 0.419106 0.471583
4673 4 0.370407 0.419269 0.462122
4674 4 0.40145 0.428878 0.502514
2847 4 0.388924 0.475665 0.4243
4672 2 0.385929 0.424073 0.482318
2803 2 0.169149 0.0182672 0.5478
2805 4 0.181805 0.0350266 0.530668
213 3 0.2221 0.0716828 0.522215
212 3 0.201647 0.0351008 0.524255
2804 4 0.156493 0.00150772 0.564933
211 1 0.223154 0.0502012 0.518952
214 3 0.240201 0.0464765 0.532754
4112 4 0.242925 0.055531 0.55048
4111 2 0.249099 0.0369554 0.561825
4113 4 0.255274 0.0183798 0.573171
3365 4 0.303399 0.0808916 0.569102
3364 2 0.315029 0.0647995 0.560202
3366 4 0.32666 0.0487075 0.551301
4469 4 0.333006 0.0382415 0.538912
4468 2 0.341835 0.0326212 0.517015
39 3 0.341675 0.0350876 0.554758
36 1 0.347273 0.0248845 0.573571
1426 2 0.409085 0.0698814 0.581473
38 3 0.368678 0.0379369 0.582273
1648 2 0.394822 0.00468086 0.573248
37 3 0.349118 0.00441768 0.567545
1427 4 0.385428 0.0532727 0.577113
1650 4 0.416717 0.0211464 0.582364
3181 2 0.477539 0.0642584 0.528737
3183 4 0.475328 0.0705068 0.552567
3182 4 0.47975 0.0580101 0.504906
492 3 0.436411 0.0198038 0.585112
3345 4 0.0843571 0.142634 0.514317
3343 2 0.0789077 0.163072 0.506649
3568 2 0.126252 0.13759 0.503109
3570 4 0.104669 0.141378 0.51257
3677 4 0.236176 0.126785 0.559201
3676 2 0.260342 0.129076 0.567682
3678 4 0.284508 0.131367 0.576162
1532 4 0.304316 0.139335 0.567301
1531 2 0.309868 0.117965 0.564196
1533 4 0.31542 0.0965955 0.561091
3344 4 0.0734583 0.183509 0.498982
3671 4 0.0801228 0.203812 0.50521
3240 4 0.285128 0.200082 0.576575
365 3 0.377486 0.167904 0.533447
362 3 0.389964 0.187067 0.564877
4031 4 0.378637 0.178861 0.582133
363 3 0.376323 0.203165 0.536695
361 1 0.388725 0.188547 0.541987
364 3 0.411406 0.196513 0.533451
3248 4 0.430133 0.200443 0.541578
3247 2 0.452588 0.198017 0.532721
3249 4 0.475044 0.19559 0.523864
1041 4 0.485431 0.187288 0.535377
3047 4 0.477114 0.243976 0.573092
3389 4 0.462682 0.240782 0.558419
3505 2 0.165405 0.281934 0.505351
3507 4 0.183952 0.285341 0.522959
519 3 0.197291 0.266538 0.556951
520 3 0.20424 0.283748 0.523487
516 1 0.214391 0.277003 0.541374
1949 4 0.228177 0.327176 0.508668
517 3 0.230216 0.295374 0.551192
518 3 0.226279 0.262457 0.534422
2943 4 0.23618 0.252134 0.544684
2555 4 0.246669 0.310648 0.560041
2941 2 0.259987 0.259306 0.534004
2942 4 0.283794 0.266478 0.523325
2554 2 0.265036 0.311598 0.577312
3755 4 0.303203 0.276855 0.519627
3754 2 0.323208 0.276681 0.504705
2874 4 0.380967 0.305679 0.573698
2872 2 0.397512 0.308975 0.554323
2873 4 0.414057 0.312271 0.534948
2894 4 0.426445 0.321098 0.519711
2893 2 0.441796 0.306385 0.520311
2895 4 0.457148 0.291671 0.52091
3390 4 0.44998 0.274112 0.529641
3388 2 0.456331 0.257447 0.54403
1948 2 0.21372 0.338201 0.521942
1351 2 0.238495 0.402259 0.560035
1950 4 0.199263 0.349225 0.535217
1653 4 0.262588 0.403637 0.530396
1352 4 0.22422 0.391258 0.579805
1651 2 0.278019 0.410219 0.510246
3429 4 0.424554 0.380164 0.567643
2991 4 0.428037 0.386245 0.547351
2989 2 0.43781 0.377123 0.527894
2990 4 0.447583 0.368001 0.508437
3023 4 0.483879 0.376161 0.574425
3022 2 0.498094 0.37405 0.554466
2451 4 0.0601126 0.482407 0.499598
4373 4 0.126497 0.472504 0.574128
1019 4 0.13552 0.474075 0.505325
2924 4 0.182136 0.486402 0.547109
1018 2 0.153791 0.485687 0.522114
2923 2 0.204536 0.482159 0.540729
1353 4 0.25277 0.41326 0.540265
2925 4 0.226936 0.477916 0.53435
2136 4 0.244693 0.472291 0.536031
2134 2 0.253126 0.458085 0.520183
2135 4 0.26156 0.443878 0.504334
2085 4 0.444149 0.425119 0.548804
2083 2 0.469034 0.438703 0.553744
2084 4 0.493919 0.452288 0.558684
2724 4 0.16326 0.0100372 0.583001
1572 4 0.259986 0.00858435 0.589557
3692 4 0.248183 0.00886029 0.654622
3691 2 0.272023 0.00655777 0.658458
1570 2 0.285111 0.00946629 0.592329
1571 4 0.310236 0.0103482 0.5951
40 3 0.330047 0.0218761 0.589258
494 3 0.475579 0.0280013 0.581123
495 3 0.460553 0.0445602 0.608023
491 1 0.457466 0.0252235 0.596452
493 3 0.456951 0.00800221 0.611119
2267 4 0.00608052 0.135003 0.624101
4241 4 0.0228178 0.144252 0.637894
4240 2 0.0171841 0.14029 0.6622
1492 2 0.251028 0.15883 0.645711
1493 4 0.253136 0.159377 0.620788
3766 2 0.345304 0.161111 0.652348
4032 4 0.352775 0.1495 0.619241
4030 2 0.365706 0.16418 0.600687
3767 4 0.357661 0.167233 0.63042
1428 4 0.432741 0.0864902 0.585833
148 3 0.400484 0.0888459 0.61694
147 3 0.389363 0.114845 0.635609
146 1 0.407769 0.106581 0.631833
2667 4 0.447345 0.133418 0.623585
150 3 0.414329 0.0994703 0.65155
149 3 0.426485 0.123444 0.622829
2665 2 0.465737 0.15572 0.626051
129 3 0.012281 0.203239 0.608086
2997 4 0.024427 0.216981 0.594251
2995 2 0.0502244 0.229211 0.592819
1692 4 0.0849572 0.201922 0.656936
1690 2 0.108754 0.201223 0.663819
2996 4 0.0760217 0.241442 0.591388
1311 4 0.150108 0.194787 0.665465
3239 4 0.247813 0.168789 0.604739
3238 2 0.266471 0.184435 0.590657
2666 4 0.48413 0.178022 0.628518
2813 4 0.0927522 0.273824 0.663247
1499 4 0.094322 0.253279 0.58434
1498 2 0.117828 0.270682 0.586949
1500 4 0.141334 0.288086 0.589557
3759 4 0.147698 0.265093 0.662048
2556 4 0.283404 0.312547 0.594584
1668 4 0.294223 0.32203 0.610461
3659 4 0.372978 0.296945 0.591107
1666 2 0.316683 0.3331 0.622664
3658 2 0.383815 0.309767 0.611531
3660 4 0.394652 0.322589 0.631955
3521 4 0.396932 0.28718 0.655865
3046 2 0.499368 0.253492 0.586103
3571 2 0.0267976 0.415486 0.628513
3572 4 0.00149583 0.407294 0.621629
3315 4 0.0315962 0.351131 0.663243
3313 2 0.0525869 0.366678 0.651756
3314 4 0.0735776 0.382224 0.640269
734 3 0.0872995 0.397314 0.63151
4551 4 0.0966436 0.365124 0.622912
4549 2 0.109117 0.358724 0.642185
3720 4 0.140918 0.356214 0.654294
3718 2 0.167005 0.366114 0.656828
4550 4 0.121591 0.352324 0.661459
3719 4 0.193093 0.376013 0.659362
1218 4 0.206369 0.393979 0.663844
1216 2 0.231551 0.395818 0.659621
1217 4 0.256734 0.397657 0.655399
1667 4 0.339144 0.34417 0.634867
2527 2 0.375917 0.361404 0.659315
2528 4 0.35078 0.350176 0.653008
3427 2 0.417713 0.376636 0.591736
3428 4 0.410872 0.373108 0.61583
595 3 0.420524 0.371312 0.65946
593 3 0.408829 0.337324 0.643266
592 3 0.427688 0.367891 0.623232
591 1 0.426154 0.358005 0.643931
594 3 0.447727 0.355323 0.649111
3128 4 0.457743 0.367689 0.664048
3127 2 0.48294 0.38075 0.659763
3573 4 0.0520994 0.423678 0.635397
731 1 0.0919963 0.420216 0.629121
735 3 0.0730237 0.426171 0.635813
733 3 0.0972946 0.426341 0.606981
732 3 0.111079 0.431053 0.642208
4374 4 0.117247 0.438955 0.611167
4372 2 0.121872 0.455729 0.592647
2439 4 0.127092 0.436397 0.628661
2437 2 0.151872 0.435933 0.630476
2438 4 0.176652 0.435469 0.632292
2561 4 0.19965 0.441193 0.631728
2560 2 0.224471 0.440751 0.633002
2562 4 0.249293 0.44031 0.634276
1767 4 0.270571 0.438724 0.634437
1765 2 0.295877 0.440808 0.638282
1766 4 0.321183 0.442891 0.642127
1392 4 0.34491 0.446984 0.643021
1390 2 0.37086 0.450731 0.642421
1391 4 0.396811 0.454479 0.641821
2420 4 0.418186 0.457501 0.636176
2419 2 0.442956 0.459588 0.642575
2421 4 0.467725 0.461675 0.648975
483 3 0.488245 0.462944 0.651048
3688 2 0.213457 0.0463935 0.740191
3689 4 0.234597 0.0620092 0.728976
106 1 0.341858 0.00194127 0.732661
3693 4 0.295863 0.00425524 0.662295
3830 4 0.324445 0.0473579 0.712407
4781 4 0.332053 0.05417 0.729806
3829 2 0.31375 0.0286609 0.696434
3831 4 0.303056 0.00996396 0.680461
110 3 0.333496 0.0184211 0.725137
107 3 0.365949 0.0102822 0.734724
3322 2 0.435337 0.0142211 0.698205
325 3 0.463719 0.049591 0.719016
3324 4 0.448473 0.0324332 0.713784
322 3 0.485498 0.0680607 0.747402
321 1 0.486144 0.0593769 0.726392
324 3 0.497932 0.0436147 0.727534
323 3 0.49794 0.0765919 0.712086
4242 4 0.0115504 0.136328 0.686506
1494 4 0.248919 0.158284 0.670634
1736 4 0.211477 0.111962 0.725761
1627 2 0.218077 0.156009 0.697956
1628 4 0.231928 0.149158 0.680106
3707 4 0.211724 0.0971873 0.713097
3706 2 0.226222 0.103471 0.692328
1629 4 0.204226 0.162861 0.715807
1735 2 0.199017 0.10258 0.746961
3708 4 0.24072 0.109754 0.671559
3710 4 0.32867 0.153594 0.692909
3768 4 0.332947 0.154989 0.674277
3709 2 0.340448 0.155875 0.715235
3711 4 0.352225 0.158156 0.73756
3328 2 0.418962 0.166644 0.71339
3330 4 0.431866 0.15113 0.705666
3564 4 0.451223 0.148697 0.705966
3562 2 0.476966 0.152166 0.703122
3479 4 0.0245516 0.189039 0.711582
3478 2 0.00066692 0.179626 0.721821
4523 4 0.0402557 0.2046 0.704901
2814 4 0.0451151 0.249074 0.681422
4524 4 0.0799323 0.199275 0.677413
4522 2 0.060094 0.201938 0.691157
1691 4 0.132551 0.200524 0.670702
1309 2 0.165565 0.202895 0.685367
1310 4 0.181023 0.211003 0.705269
3329 4 0.406058 0.182157 0.721114
1346 4 0.0778679 0.308319 0.750179
2812 2 0.0689336 0.261449 0.672334
1478 4 0.0990168 0.315387 0.751879
3758 4 0.156018 0.275798 0.71066
3757 2 0.151858 0.270445 0.686354
693 3 0.165655 0.295067 0.709644
691 1 0.178519 0.309418 0.725966
692 3 0.185233 0.330926 0.717817
695 3 0.165054 0.308214 0.744578
694 3 0.198542 0.303797 0.731275
1296 4 0.22249 0.302995 0.707451
1294 2 0.24838 0.308607 0.703466
1295 4 0.274269 0.31422 0.699481
2526 4 0.291038 0.308946 0.694919
2524 2 0.292663 0.286315 0.689414
3557 4 0.311443 0.327603 0.724683
2918 4 0.236168 0.254924 0.741383
2525 4 0.294289 0.263684 0.683908
820 2 0.348686 0.322802 0.70807
822 4 0.368339 0.324097 0.692137