ITEM: TIMESTEP
334500
ITEM: NUMBER OF ATOMS
4590
ITEM: BOX BOUNDS xy xz yz pp pp pp
-1.6197683399999988e+01 9.9985700000000008e+00 -6.1991133999999875e+00
-9.9985700000000008e+00 9.9985700000000008e+00 0.0000000000000000e+00
-9.9985700000000008e+00 9.9985700000000008e+00 0.0000000000000000e+00
ITEM: ATOMS id type xs ys zs
1783 2 0.0110266 0.0734269 0.0322037
1785 4 0.0209506 0.055509 0.0241706
572 4 0.0418064 0.0621112 0.0245597
571 2 0.0667304 0.0676118 0.0320307
573 4 0.0916544 0.0731124 0.0395017
2856 4 0.106835 0.0659299 0.0459691
2854 2 0.129342 0.0815179 0.0543236
2715 4 0.019854 0.145809 0.0367465
1784 4 0.00110268 0.0913448 0.0402368
461 4 0.0168119 0.104105 0.0495878
2713 2 0.0384315 0.152347 0.019182
460 2 0.0356036 0.118942 0.063858
2714 4 0.0570091 0.158884 0.00161753
462 4 0.0543953 0.133779 0.0781281
2855 4 0.15185 0.0971058 0.0626781
485 4 0.309799 0.114884 0.0414009
484 2 0.331996 0.117365 0.0540445
486 4 0.354193 0.119846 0.0666881
311 4 0.367753 0.135012 0.0753833
3048 4 0.401557 0.117229 0.00861834
2640 4 0.0144226 0.221474 0.0172736
2804 4 0.0317325 0.22737 0.00700702
2803 2 0.051707 0.226147 0.0214778
3941 4 0.0762227 0.170856 0.00505246
3940 2 0.0994999 0.175779 0.0163591
2805 4 0.0716815 0.224923 0.0359486
3102 4 0.0922581 0.231212 0.0346304
3100 2 0.109683 0.242292 0.0521434
3942 4 0.122777 0.180702 0.0276657
3363 4 0.142358 0.180507 0.0310785
3361 2 0.167954 0.192167 0.0286214
3362 4 0.19355 0.203827 0.0261644
833 4 0.21521 0.206948 0.028604
832 2 0.240919 0.215789 0.0330176
834 4 0.266628 0.22463 0.0374312
2472 4 0.286465 0.222827 0.0399506
2470 2 0.309821 0.220489 0.0462604
2471 4 0.333177 0.218151 0.0525703
2858 4 0.354689 0.217821 0.0552428
2857 2 0.376733 0.224608 0.0687164
2859 4 0.398776 0.231395 0.08219
2567 4 0.419533 0.235229 0.0766945
2566 2 0.445042 0.247795 0.0770513
4547 4 0.00403663 0.332076 0.0414902
1596 4 0.00046265 0.277996 0.0149112
1594 2 0.0119652 0.279393 0.0372874
1595 4 0.0234677 0.28079 0.0596637
957 4 0.0424241 0.277465 0.0596561
955 2 0.0672129 0.28101 0.0524869
956 4 0.0920018 0.284554 0.0453178
546 4 0.107456 0.28961 0.031182
544 2 0.133588 0.295664 0.0316401
3101 4 0.127107 0.253372 0.0696565
545 4 0.15972 0.301718 0.0320982
3405 4 0.177714 0.301825 0.023195
3403 2 0.201899 0.304716 0.0318237
3404 4 0.226084 0.307606 0.0404524
2912 4 0.236217 0.302833 0.0550414
2911 2 0.261242 0.316616 0.0529137
2520 4 0.251759 0.267064 0.069433
2913 4 0.286268 0.330399 0.0507861
329 4 0.271684 0.289396 0.00355437
3633 4 0.369938 0.269805 0.00690856
666 4 0.381234 0.287874 0.00301709
1759 2 0.373255 0.278241 0.0734132
1761 4 0.39577 0.288355 0.0612753
3631 2 0.38493 0.261893 0.0229787
3632 4 0.399923 0.253981 0.0390489
2828 4 0.406281 0.30478 0.0727425
2827 2 0.431064 0.318259 0.0683876
3141 4 0.418841 0.268103 0.0369834
3139 2 0.441939 0.276927 0.0254644
2829 4 0.455847 0.331739 0.0640327
2568 4 0.470552 0.260361 0.0774081
3140 4 0.465037 0.285751 0.0139454
30 3 0.480614 0.306852 0.032418
323 4 0.482725 0.289013 0.0245525
13 3 0.492132 0.265585 0.0809544
26 1 0.484366 0.329351 0.0338507
2357 4 0.0146596 0.386654 0.014875
2356 2 0.0262693 0.40965 0.0236096
1235 4 0.0944545 0.39189 0.00354172
2661 4 0.121189 0.339147 0.0608832
2659 2 0.13096 0.361219 0.07226
1234 2 0.119194 0.401293 0.0113184
1236 4 0.143933 0.410696 0.0190951
2660 4 0.14073 0.383291 0.0836368
537 4 0.306188 0.342482 0.0465184
4188 4 0.278137 0.36044 0.0731233
4186 2 0.299396 0.380367 0.0723159
4187 4 0.320656 0.400293 0.0715084
2450 4 0.340639 0.410182 0.0782984
535 2 0.324797 0.354702 0.030512
536 4 0.343405 0.366923 0.0145057
2449 2 0.364223 0.406645 0.0801809
29 3 0.467173 0.333865 0.0469787
27 3 0.483464 0.337855 0.0127722
2358 4 0.0378789 0.432646 0.0323443
924 4 0.0487362 0.426903 0.0473963
922 2 0.072769 0.435706 0.0570834
923 4 0.0968018 0.444508 0.0667705
1223 4 0.163779 0.420224 0.0235748
1222 2 0.181705 0.430149 0.0410736
1224 4 0.19963 0.440073 0.0585725
2986 2 0.397702 0.439656 0.0163224
2987 4 0.402685 0.449141 0.0393666
876 4 0.998903 0.0801312 0.108417
3522 4 0.0243218 0.0551197 0.155012
3957 4 0.0441781 0.059609 0.16452
3955 2 0.069052 0.0592157 0.165
2575 2 0.0710464 0.00598008 0.112656
2577 4 0.0934895 0.0135001 0.125468
2768 4 0.113708 0.0561331 0.164771
2767 2 0.13807 0.0673472 0.15682
3781 2 0.123048 0.00144949 0.128918
3956 4 0.093926 0.0588224 0.16548
1038 4 0.167656 0.0174128 0.12238
1036 2 0.18346 0.0303067 0.140255
1037 4 0.199264 0.0432006 0.158131
3782 4 0.149035 0.00593592 0.129217
2769 4 0.162432 0.0785612 0.148869
2523 4 0.179974 0.0763159 0.138448
3504 4 0.00518549 0.148159 0.163344
3502 2 0.030193 0.149025 0.166867
874 2 0.0246874 0.0835496 0.109901
866 4 0.0611347 0.144295 0.0951838
875 4 0.0504715 0.086968 0.111385
865 2 0.0870124 0.153311 0.0985128
914 4 0.0725509 0.100427 0.109408
867 4 0.11289 0.162328 0.101842
913 2 0.0982888 0.106457 0.105036
770 4 0.133614 0.163478 0.104877
915 4 0.124027 0.112488 0.100664
25 3 0.1386 0.126727 0.132651
21 1 0.14373 0.126352 0.15481
828 4 0.144125 0.11266 0.102533
23 3 0.167807 0.13241 0.157794
22 3 0.135007 0.141345 0.166016
826 2 0.169546 0.118666 0.0966959
24 3 0.1335 0.105129 0.163452
3479 4 0.216234 0.129522 0.0869314
827 4 0.194967 0.124672 0.0908584
2521 2 0.205673 0.0867985 0.135078
744 4 0.188178 0.13746 0.15519
3478 2 0.241 0.136266 0.0950265
742 2 0.214165 0.147668 0.15488
743 4 0.240152 0.157876 0.15457
2522 4 0.231371 0.0972811 0.131708
3480 4 0.265766 0.14301 0.103122
419 4 0.251173 0.10295 0.135081
18 3 0.288174 0.159475 0.135474
418 2 0.273674 0.110491 0.122361
420 4 0.296174 0.118032 0.109641
365 4 0.306719 0.161882 0.141449
20 3 0.256739 0.151808 0.158156
364 2 0.328499 0.15985 0.130548
310 2 0.367357 0.15208 0.0927476
366 4 0.35028 0.157818 0.119647
692 4 0.437308 0.165991 0.147173
2760 4 0.454064 0.159578 0.152363
769 2 0.159607 0.171186 0.101936
771 4 0.1856 0.178894 0.0989959
476 4 0.206218 0.185167 0.105308
475 2 0.230784 0.18584 0.110915
477 4 0.25535 0.186514 0.116522
16 1 0.273445 0.16846 0.147758
17 3 0.262814 0.179686 0.133476
19 3 0.286291 0.183417 0.163485
312 4 0.36696 0.169148 0.110112
302 4 0.40732 0.208387 0.162988
691 2 0.416416 0.168712 0.15923
2849 4 0.4253 0.216051 0.153188
2848 2 0.449854 0.218831 0.145696
2758 2 0.479883 0.169042 0.15581
2850 4 0.474408 0.221611 0.138204
765 4 0.494898 0.23166 0.135941
756 4 0.0455051 0.259638 0.161663
754 2 0.0628406 0.261806 0.143148
509 4 0.136196 0.293934 0.0876557
755 4 0.0801762 0.263974 0.124633
508 2 0.11243 0.284036 0.0975967
510 4 0.0886641 0.274137 0.107538
2904 4 0.22438 0.312232 0.125551
2902 2 0.206786 0.299501 0.14219
2903 4 0.189192 0.28677 0.158828
2519 4 0.224957 0.251715 0.111613
2518 2 0.238358 0.25939 0.0905231
429 4 0.239381 0.304984 0.131871
427 2 0.264321 0.318954 0.129568
1760 4 0.35074 0.268127 0.0855511
519 4 0.319752 0.286835 0.149515
517 2 0.344403 0.293899 0.157929
558 4 0.30471 0.283351 0.16477
2951 4 0.0374062 0.400951 0.0987033
2950 2 0.038643 0.379423 0.10866
2952 4 0.0398798 0.357894 0.118616
3656 4 0.0457953 0.34179 0.115667
3655 2 0.0688852 0.339346 0.122773
3657 4 0.0919751 0.336903 0.12988
3594 4 0.107135 0.354482 0.128479
3592 2 0.118327 0.378814 0.132933
3593 4 0.129518 0.403145 0.137386
428 4 0.28926 0.332923 0.127264
2451 4 0.387808 0.403109 0.0820635
588 4 0.406901 0.402641 0.159264
2583 4 0.40459 0.358955 0.152736
2581 2 0.426779 0.35923 0.141051
2582 4 0.448968 0.359505 0.129366
2813 4 0.463317 0.377605 0.129772
2812 2 0.485959 0.372457 0.126427
2890 2 0.0167147 0.476401 0.159439
2892 4 0.0409894 0.485131 0.150286
3517 2 0.225857 0.493302 0.154233
3519 4 0.225233 0.486499 0.130218
3258 4 0.240457 0.477896 0.123696
3256 2 0.264195 0.475157 0.127323
3257 4 0.287933 0.472418 0.13095
3534 4 0.301477 0.484445 0.117211
3532 2 0.323931 0.501029 0.12431
586 2 0.430032 0.419458 0.154647
387 4 0.471409 0.431362 0.148816
587 4 0.453164 0.436275 0.15003
2774 4 0.470402 0.498671 0.140299
385 2 0.49682 0.433703 0.152033
2945 4 0.211185 0.0349475 0.16667
2944 2 0.221663 0.0437058 0.188766
2946 4 0.232141 0.0524642 0.210861
350 4 0.239851 0.0508379 0.229095
349 2 0.230345 0.0617425 0.24754
3503 4 0.0552005 0.149891 0.17039
732 4 0.0730691 0.149179 0.179467
730 2 0.0987925 0.15704 0.184064
731 4 0.124516 0.1649 0.188661
2477 4 0.144841 0.17579 0.196459
2476 2 0.169627 0.175438 0.198751
2478 4 0.194414 0.175087 0.201044
530 4 0.215038 0.176972 0.197691
529 2 0.241068 0.185192 0.195194
531 4 0.267098 0.193412 0.192698
1767 4 0.289024 0.195517 0.193689
1765 2 0.313421 0.197704 0.186084
1766 4 0.337817 0.19989 0.178478
693 4 0.395525 0.171433 0.171286
301 2 0.382321 0.204775 0.169464
303 4 0.357323 0.201163 0.17594
343 2 0.0209808 0.250621 0.186707
344 4 0.0416238 0.269163 0.178992
557 4 0.256709 0.265431 0.184212
556 2 0.280709 0.274391 0.174491
518 4 0.369053 0.300962 0.166344
569 4 0.00770908 0.38971 0.213019
568 2 0.0321705 0.39906 0.221551
103 3 0.0955585 0.386167 0.234169
570 4 0.056632 0.40841 0.230084
102 3 0.0768198 0.412403 0.235659
101 1 0.0867636 0.399287 0.248341
2555 4 0.199538 0.353992 0.238799
3605 4 0.204229 0.374353 0.242064
3209 4 0.0114609 0.437191 0.194554
3208 2 0.00644289 0.421064 0.175447
2690 4 0.235202 0.49245 0.234715
736 2 0.338766 0.427232 0.23964
738 4 0.353698 0.433758 0.219245
1788 4 0.369036 0.447576 0.20863
1786 2 0.378319 0.472475 0.210301
1787 4 0.387602 0.497373 0.211971
2585 4 0.00294109 0.00536347 0.258986
415 2 0.00569505 0.0383269 0.261148
417 4 0.0172148 0.0211874 0.26808
2943 4 0.0989893 0.085304 0.317941
351 4 0.220839 0.0726471 0.265984
3722 4 0.206593 0.0824375 0.265352
467 4 0.248934 0.00129943 0.279165
497 4 0.259543 0.0188148 0.288468
496 2 0.262666 0.0426126 0.282085
498 4 0.265789 0.0664104 0.275702
3859 2 0.494438 0.0472288 0.286692
3860 4 0.484604 0.0633393 0.298764
2941 2 0.0778555 0.0883255 0.329296
2643 4 0.116184 0.0964272 0.327506
2641 2 0.140694 0.0974413 0.321281
2642 4 0.165203 0.0984555 0.315055
3723 4 0.173706 0.0922014 0.298752
3721 2 0.19015 0.0873194 0.282052
1516 2 0.466546 0.137618 0.311518
1518 4 0.441572 0.128713 0.304274
1199 4 0.426115 0.128168 0.31469
1517 4 0.491519 0.146522 0.318762
2955 4 0.0780695 0.238743 0.253992
2954 4 0.0924285 0.247581 0.301821
2953 2 0.085249 0.243162 0.277906
2838 4 0.20292 0.242506 0.265723
2737 2 0.478442 0.219701 0.324644
647 4 0.00722603 0.256619 0.270765
2554 2 0.196949 0.333097 0.25197
2556 4 0.194359 0.312203 0.265141
2837 4 0.186515 0.260761 0.306719
2836 2 0.194718 0.251634 0.286221
2964 4 0.20602 0.307818 0.280069
2962 2 0.231674 0.310368 0.279368
2963 4 0.257328 0.312917 0.278666
3195 4 0.26692 0.331269 0.278619
1220 4 0.328711 0.322559 0.315229
2580 4 0.348569 0.333286 0.313877
1219 2 0.31503 0.304352 0.330365
2935 2 0.432838 0.290133 0.310072
276 4 0.392543 0.28119 0.315826
2937 4 0.411428 0.280666 0.32401
2936 4 0.454247 0.299599 0.296135
1528 2 0.0171116 0.404091 0.278276
1530 4 0.0169262 0.380713 0.272909
2499 4 0.0312396 0.3383 0.320575
105 3 0.0701724 0.386024 0.262016
2512 2 0.0556224 0.356216 0.287484
2514 4 0.0739709 0.370033 0.272107
2513 4 0.0372739 0.342399 0.302861
104 3 0.104749 0.413048 0.261023
620 4 0.123054 0.416637 0.2693
3604 2 0.210706 0.388641 0.26248
3606 4 0.217182 0.402929 0.282897
2620 2 0.218474 0.410501 0.325564
2622 4 0.219192 0.411504 0.300584
3193 2 0.29228 0.343924 0.280964
560 4 0.320844 0.406446 0.275281
3194 4 0.31764 0.356579 0.283309
559 2 0.334776 0.399675 0.293235
2579 4 0.338017 0.36785 0.284658
561 4 0.348708 0.392905 0.311189
2578 2 0.343293 0.350568 0.299268
1587 4 0.367652 0.401956 0.307847
231 4 0.0117249 0.474686 0.264891
1529 4 0.0172969 0.427468 0.283644
812 4 0.00724949 0.432416 0.299912
229 2 0.0169975 0.491362 0.28352
4362 4 0.135375 0.490658 0.328014
4360 2 0.14342 0.487473 0.304918
4001 4 0.115217 0.48502 0.3231
4000 2 0.0920436 0.486125 0.331525
621 4 0.173321 0.444 0.266823
4361 4 0.151464 0.484289 0.281821
619 2 0.148187 0.430318 0.268062
3716 4 0.192589 0.44911 0.274906
3717 4 0.233009 0.481809 0.252224
3715 2 0.212799 0.465459 0.263565
737 4 0.323834 0.420707 0.260034
1446 4 0.290737 0.458533 0.294097
1641 4 0.354354 0.486305 0.309612
1445 4 0.338624 0.470919 0.314275
1444 2 0.314681 0.464726 0.304186
1639 2 0.376271 0.486826 0.321925
1640 4 0.398188 0.487348 0.334238
679 2 0.433171 0.494149 0.314567
1585 2 0.392687 0.415905 0.309125
680 4 0.409054 0.495873 0.318382
1586 4 0.417723 0.429855 0.310403
681 4 0.457287 0.492426 0.310752
3671 4 0.46992 0.491627 0.295203
3670 2 0.49561 0.494557 0.296767
2832 4 0.00251401 0.0727924 0.375184
3816 4 0.00765935 0.012968 0.366467
2830 2 0.0267601 0.0762546 0.366454
2831 4 0.0510063 0.0797168 0.357724
3137 4 0.115523 0.0532562 0.396705
3136 2 0.136022 0.0461544 0.404414
3138 4 0.156521 0.0390526 0.412124
367 2 0.188783 0.0413984 0.391866
369 4 0.16376 0.0409837 0.394166
368 4 0.213805 0.0418131 0.389566
1772 4 0.23193 0.0479296 0.377207
1773 4 0.280142 0.0702182 0.394471
1771 2 0.256036 0.0590739 0.385839
299 4 0.285625 0.0530357 0.395031
298 2 0.3061 0.0517279 0.408724
489 4 0.349323 0.997952 0.377139
707 4 0.349329 0.0136845 0.366783
708 4 0.389242 0.0136821 0.336657
706 2 0.369285 0.0136833 0.35172
2557 2 0.4786 0.00939012 0.39599
2559 4 0.457464 0.0170682 0.392352
2558 4 0.499735 0.00171202 0.399629
2942 4 0.0567218 0.0913471 0.340652
900 4 0.134271 0.12635 0.39629
258 4 0.133248 0.106308 0.392551
256 2 0.112574 0.0932548 0.405905
898 2 0.155793 0.145873 0.394116
899 4 0.177314 0.165397 0.391943
791 4 0.4051 0.148184 0.41318
1200 4 0.398183 0.133431 0.354678
792 4 0.413135 0.146711 0.363922
790 2 0.409117 0.147448 0.388551
1198 2 0.412149 0.130799 0.334684
1031 4 0.457441 0.13779 0.416082
1032 4 0.500217 0.146527 0.387464
1030 2 0.478829 0.142159 0.401773
3060 4 0.267363 0.216749 0.404484
3058 2 0.28812 0.214786 0.391644
2922 4 0.324922 0.217919 0.367964
3059 4 0.308876 0.212822 0.378804
2852 4 0.334394 0.2435 0.355482
2920 2 0.347243 0.212313 0.364101
2544 4 0.388824 0.213382 0.355768
2921 4 0.369563 0.206706 0.360238
2542 2 0.411081 0.210861 0.346386
2543 4 0.433339 0.20834 0.337004
2738 4 0.454329 0.210078 0.333924
2823 4 0.00726465 0.323306 0.380094
676 2 0.0241747 0.274533 0.355735
2821 2 0.0205112 0.321239 0.400783
677 4 0.0432924 0.267131 0.366314
2529 4 0.0605974 0.264759 0.357709
2533 2 0.0531149 0.283744 0.413423
2535 4 0.0790548 0.291287 0.410068
678 4 0.00505708 0.281935 0.345157
2527 2 0.0805934 0.258912 0.368451
2528 4 0.100589 0.253066 0.379192
1150 2 0.124858 0.298825 0.408184
1151 4 0.0989663 0.290412 0.411687
1152 4 0.15075 0.307238 0.404681
2961 4 0.179463 0.328835 0.366297
459 4 0.172345 0.31046 0.408763
458 4 0.220433 0.306706 0.416565
457 2 0.196389 0.308583 0.412664
1221 4 0.301349 0.286146 0.345501
2853 4 0.298379 0.265947 0.343231
2851 2 0.316387 0.254724 0.349356
275 4 0.354569 0.263035 0.349364
274 2 0.373556 0.272113 0.332595
2498 4 0.00816206 0.338045 0.364979
2497 2 0.0197008 0.338172 0.342777
2959 2 0.205068 0.334468 0.361374
1473 4 0.183343 0.393104 0.39841
1471 2 0.190408 0.401351 0.375241
2621 4 0.217755 0.409497 0.350544
2960 4 0.230672 0.3401 0.356452
1472 4 0.197474 0.409597 0.352071
2462 4 0.246703 0.355051 0.363842
2461 2 0.266533 0.372815 0.374063
2463 4 0.286363 0.39058 0.384284
2536 2 0.32504 0.399516 0.398817
2538 4 0.300041 0.39945 0.39769
2537 4 0.350038 0.399583 0.399944
3704 4 0.0505089 0.481143 0.349894
4002 4 0.0688706 0.487229 0.339951
1736 4 0.152168 0.434619 0.39893
1735 2 0.149421 0.457438 0.396107
1737 4 0.146674 0.480258 0.393283
1161 4 0.426814 0.482547 0.399374
1159 2 0.452524 0.492497 0.395594
430 2 0.0518691 0.0754218 0.434329
432 4 0.0259177 0.065408 0.436038
431 4 0.0778205 0.0854355 0.432621
257 4 0.0919003 0.0802013 0.419259
703 2 0.186297 0.00630155 0.449941
705 4 0.207272 0.0171678 0.435901
354 4 0.204641 0.00060661 0.424024
441 4 0.345517 0.0478905 0.419511
300 4 0.326574 0.0504202 0.422418
439 2 0.36619 0.062657 0.43168
440 4 0.386863 0.0774235 0.443849
2332 2 0.495649 0.99944 0.464236
1490 4 0.00993101 0.130464 0.496553
3049 2 0.385038 0.113278 0.487795
3050 4 0.361109 0.100353 0.495622
3081 4 0.445341 0.127359 0.431968
3079 2 0.428812 0.133041 0.448041
3080 4 0.412283 0.138723 0.464114
3051 4 0.408967 0.126202 0.479968
890 4 0.1074 0.217495 0.502175
695 4 0.122078 0.227686 0.489087
694 2 0.109632 0.240911 0.475802
2685 4 0.259365 0.219867 0.421317
2684 4 0.242531 0.228456 0.466559
2683 2 0.250948 0.224161 0.443938
240 4 0.461621 0.176711 0.431498
238 2 0.486562 0.187727 0.437858
2534 4 0.0271749 0.276201 0.416777
2822 4 0.0337578 0.319172 0.421473
3435 4 0.0500015 0.324291 0.433074
3433 2 0.0738012 0.33208 0.443427
1178 4 0.0813058 0.306859 0.48545
1179 4 0.0837935 0.264328 0.464326
1177 2 0.0825496 0.285594 0.474888
142 3 0.139854 0.331457 0.452066
696 4 0.0971847 0.254136 0.462518
452 4 0.235475 0.298352 0.42071
451 2 0.256902 0.308615 0.434383
453 4 0.27833 0.318878 0.448056
2550 4 0.297781 0.317716 0.445413
2549 4 0.346052 0.326656 0.42669
2548 2 0.321917 0.322186 0.436051
2957 4 0.36147 0.3233 0.436375
801 4 0.354081 0.284239 0.492921
374 4 0.369795 0.276291 0.493193
375 4 0.419072 0.302016 0.481655
373 2 0.394433 0.289154 0.487424
728 4 0.435666 0.30106 0.471132
727 2 0.445885 0.299573 0.448573
2956 2 0.387412 0.329868 0.439623
729 4 0.456104 0.298086 0.426014
4082 4 0.00380761 0.367321 0.433336
1173 4 0.0135468 0.38432 0.442809
1171 2 0.025535 0.398172 0.46215
1172 4 0.0375232 0.412024 0.481492
540 4 0.0773675 0.373622 0.447688
538 2 0.0999253 0.389778 0.440192
661 2 0.0880451 0.351878 0.493058
662 4 0.0997401 0.344156 0.473899
767 4 0.181707 0.389972 0.418353
3434 4 0.097601 0.339869 0.453781
144 3 0.113312 0.348768 0.44233
766 2 0.160687 0.395787 0.426748
141 1 0.127746 0.34568 0.459417
143 3 0.143658 0.365995 0.465186
768 4 0.139667 0.401602 0.435142
145 3 0.114637 0.336511 0.47756
539 4 0.122483 0.405933 0.432695
2571 4 0.157904 0.329779 0.446737
2570 4 0.208384 0.346749 0.459695
2569 2 0.183144 0.338264 0.453216
2925 4 0.219025 0.333989 0.462041
2923 2 0.244541 0.344415 0.466505
2924 4 0.270056 0.354841 0.47097
2972 4 0.287407 0.370609 0.474213
2971 2 0.306397 0.360701 0.467864
583 2 0.385074 0.399587 0.420841
584 4 0.359691 0.394817 0.415272
2973 4 0.325386 0.350793 0.461515
585 4 0.410457 0.404357 0.426409
3072 4 0.431028 0.415328 0.422106
3128 4 0.432756 0.350948 0.442123
2958 4 0.413354 0.336436 0.442872
3127 2 0.45561 0.369058 0.442007
3129 4 0.478464 0.387168 0.44189
3384 4 0.34561 0.428398 0.484453
3382 2 0.360999 0.451176 0.490534
3383 4 0.376387 0.473955 0.496616
3071 4 0.482336 0.425069 0.430716
3070 2 0.456682 0.420198 0.426411
2132 4 0.489797 0.0541822 0.57762
1057 2 0.0143374 0.0892906 0.566508
1059 4 0.0401206 0.0964026 0.562189
1491 4 0.0620483 0.14155 0.499388
2654 4 0.081458 0.148114 0.509274
1218 4 0.0605478 0.105469 0.56891
1216 2 0.0861127 0.112875 0.563535
1489 2 0.0359897 0.136007 0.49797
2653 2 0.106438 0.154848 0.516743
1217 4 0.111678 0.12028 0.55816
4227 4 0.125112 0.117538 0.570063
4225 2 0.147643 0.113318 0.576313
2655 4 0.131417 0.161582 0.524212
4226 4 0.170175 0.109099 0.582564
1395 4 0.3123 0.134341 0.577886
1263 4 0.331244 0.131375 0.579252
1271 4 0.481292 0.161233 0.578037
891 4 0.087026 0.206034 0.547853
889 2 0.0972129 0.211764 0.525014
3033 4 0.150613 0.170085 0.516931
3031 2 0.175721 0.171078 0.513903
3032 4 0.200829 0.172072 0.510875
3161 4 0.0610176 0.301052 0.549293
3160 2 0.0702526 0.299437 0.52632
3162 4 0.0794877 0.297822 0.503346
711 4 0.12526 0.28797 0.539589
709 2 0.14826 0.283146 0.538218
710 4 0.17126 0.278323 0.536847
806 4 0.192391 0.284361 0.538097
805 2 0.212328 0.303463 0.546087
807 4 0.232266 0.322566 0.554076
3379 2 0.28237 0.278864 0.538998
3380 4 0.289202 0.287568 0.515926
3381 4 0.275539 0.27016 0.56207
816 4 0.287609 0.271452 0.577621
800 4 0.306469 0.285681 0.506667
799 2 0.330275 0.28496 0.499794
982 2 0.069149 0.39426 0.573068
984 4 0.077571 0.385086 0.552719
3822 4 0.0965985 0.395515 0.55626
663 4 0.0763502 0.3596 0.512216
3820 2 0.115404 0.407034 0.540123
4484 4 0.0461908 0.482134 0.544492
4483 2 0.0321754 0.489453 0.526986
4485 4 0.0181599 0.496771 0.509481
3821 4 0.13421 0.418553 0.523987
1837 2 0.14577 0.472612 0.567128
327 4 0.176582 0.488667 0.534954
1839 4 0.164147 0.480952 0.549628
325 2 0.174694 0.493683 0.510702
3239 4 0.184367 0.466172 0.577703
2927 4 0.384549 0.49507 0.500616
3422 4 0.359934 0.463913 0.584969
336 4 0.475819 0.454756 0.576668
334 2 0.453512 0.438672 0.58482
4137 4 0.00433646 0.0163478 0.588863
1994 4 0.0248811 0.0284617 0.592826
1993 2 0.0503601 0.0366726 0.598467
831 4 0.015494 0.068783 0.65439
1995 4 0.075839 0.0448834 0.604108
2604 4 0.0947522 0.0479977 0.598316
2602 2 0.120113 0.0496663 0.600593
2603 4 0.145474 0.051335 0.602871
3462 4 0.16162 0.0574676 0.615557
3460 2 0.184323 0.0523876 0.612398
3461 4 0.207025 0.0473076 0.609239
2017 2 0.185732 0.000182852 0.627127
2019 4 0.162857 0.00334165 0.620333
3104 4 0.226049 0.0513773 0.615542
3103 2 0.2475 0.0638608 0.628202
3105 4 0.26895 0.0763444 0.640862
2811 4 0.29057 0.0832305 0.646599
2018 4 0.208608 0.997024 0.633921
2201 4 0.323175 0.00252144 0.62945
1062 4 0.34531 0.0112236 0.629173
1060 2 0.371198 0.0173199 0.632655
1061 4 0.397086 0.0234163 0.636136
2300 4 0.41963 0.0301045 0.635897
2299 2 0.445668 0.0351421 0.636742
2301 4 0.471706 0.0401796 0.637586
48 3 0.492552 0.0484813 0.636959
829 2 0.0188258 0.0826358 0.633597
830 4 0.0221577 0.0964886 0.612804
1202 4 0.174872 0.143994 0.63625
1201 2 0.197953 0.156334 0.646356
1394 4 0.280952 0.134167 0.616891
960 4 0.270838 0.137368 0.632722
958 2 0.265038 0.132878 0.656921
1393 2 0.296626 0.134254 0.597388
1261 2 0.351738 0.124689 0.587693
1262 4 0.372232 0.118004 0.596134
1086 4 0.389225 0.113765 0.605157
1084 2 0.414167 0.115337 0.610124
1085 4 0.439109 0.116909 0.615092
2508 4 0.458604 0.130842 0.617908
2506 2 0.483434 0.13073 0.620545
3097 2 0.0104758 0.21734 0.639268
3099 4 0.0320674 0.20996 0.63997
3413 4 0.0538969 0.213111 0.640202
3412 2 0.0771391 0.212965 0.631099
3414 4 0.100381 0.21282 0.621997
1203 4 0.221034 0.168673 0.656462
514 2 0.262308 0.191284 0.662832
515 4 0.287436 0.203416 0.658202
4329 4 0.307057 0.206546 0.658822
4327 2 0.332807 0.215883 0.662772
4328 4 0.358558 0.22522 0.666723
4196 4 0.0409543 0.322524 0.614294
4195 2 0.0579005 0.311534 0.604801
4197 4 0.0748467 0.300543 0.595309
3959 4 0.0913311 0.316847 0.598174
3958 2 0.116064 0.330033 0.603185
893 4 0.236477 0.334329 0.638193
892 2 0.245653 0.314881 0.642166
894 4 0.254829 0.295434 0.646139
3077 4 0.276232 0.300412 0.643148
3076 2 0.3013 0.308786 0.650225
814 2 0.301613 0.282879 0.597247
948 4 0.346651 0.322333 0.661784
815 4 0.315617 0.294306 0.616873
3078 4 0.326367 0.317159 0.657302
1136 4 0.331991 0.292968 0.627354
1135 2 0.357571 0.304136 0.623998
1137 4 0.383151 0.315304 0.620642
4086 4 0.034614 0.334324 0.627253
983 4 0.060727 0.403435 0.593417
4085 4 0.0661424 0.380493 0.635786
4084 2 0.0503782 0.357408 0.631519
3372 4 0.0867902 0.387958 0.63821
3370 2 0.105144 0.386465 0.654608
3960 4 0.140796 0.34322 0.608195
3495 4 0.160976 0.345709 0.609377
3493 2 0.186892 0.352287 0.612815
3494 4 0.212808 0.358864 0.616252
3183 4 0.232598 0.369731 0.611672
3181 2 0.256888 0.376345 0.602354
3182 4 0.281178 0.382959 0.593036
3872 4 0.293347 0.374083 0.584697
3871 2 0.318774 0.384809 0.589346
3873 4 0.344202 0.395535 0.593995
1239 4 0.363612 0.395809 0.596591
1237 2 0.389605 0.402877 0.599545
1238 4 0.415597 0.409946 0.602499
3114 4 0.00360695 0.415464 0.648599
3112 2 0.0291942 0.420984 0.653563
3113 4 0.0547815 0.426503 0.658527
3477 4 0.084708 0.485638 0.655959
879 4 0.087082 0.475401 0.638635
10 3 0.0757437 0.435662 0.659041
877 2 0.103233 0.473808 0.620045
878 4 0.119385 0.472215 0.601456
7 3 0.114003 0.452753 0.65525
4316 4 0.130437 0.467268 0.648171
1838 4 0.127393 0.464272 0.584629
3238 2 0.20319 0.4594 0.589602
4315 2 0.155839 0.479743 0.650587
4317 4 0.181241 0.492217 0.653003
929 4 0.201738 0.50131 0.650451
3240 4 0.222012 0.452629 0.601502
3512 4 0.237747 0.444019 0.608293
3511 2 0.257464 0.437519 0.597774
3447 4 0.297424 0.430523 0.584336
3513 4 0.277181 0.431018 0.587255
3445 2 0.319539 0.449556 0.584263
3446 4 0.341655 0.468589 0.584189
3421 2 0.378965 0.477042 0.600102
3423 4 0.397995 0.490172 0.615234
335 4 0.431204 0.422587 0.592972
1128 4 0.00280448 0.0152844 0.711274
2376 4 0.0155415 0.00709125 0.721796
4163 4 0.0483826 0.084329 0.700983
3232 2 0.10219 0.0137798 0.745038
3233 4 0.122718 0.00761991 0.735883
2256 4 0.197642 0.00875716 0.730715
3131 4 0.179145 0.00959364 0.728153
4550 4 0.208247 0.0740211 0.72928
4549 2 0.189817 0.0751876 0.712829
4551 4 0.171386 0.0763541 0.696377
4466 4 0.22967 0.0763186 0.731935
3130 2 0.153239 0.00280609 0.724601
2315 4 0.223425 0.0116431 0.671391
2254 2 0.216915 0.0257088 0.742604
4465 2 0.252928 0.0816258 0.720538
2314 2 0.246965 0.0251518 0.679649
2316 4 0.270505 0.0386605 0.687906
2809 2 0.29096 0.0844068 0.671575
4286 4 0.28228 0.0300497 0.698052
4285 2 0.30719 0.0418293 0.703928
4287 4 0.332099 0.0536089 0.709805
1022 4 0.352859 0.0572672 0.710579
1021 2 0.377278 0.069091 0.717975
945 4 0.375999 0.00455308 0.721741
943 2 0.396721 0.00745076 0.706781
944 4 0.417443 0.0103484 0.691821
1023 4 0.401696 0.0809147 0.725371
1893 4 0.415681 0.0793383 0.739318
1891 2 0.440805 0.0799492 0.741062
1892 4 0.46593 0.0805601 0.742806
3415 2 0.026549 0.150919 0.746195
3417 4 0.047954 0.147369 0.735895
3245 4 0.0616275 0.144993 0.722321
3244 2 0.0861374 0.154279 0.73075
4162 2 0.0740612 0.0894598 0.696668
3246 4 0.110647 0.163565 0.739179
4164 4 0.0997398 0.0945905 0.692352
4499 4 0.117145 0.0961213 0.701698
976 2 0.151558 0.158716 0.740749
4498 2 0.14135 0.0938854 0.701165
977 4 0.126271 0.154506 0.73506
978 4 0.176844 0.162925 0.746438
3236 4 0.179073 0.148273 0.734491
4500 4 0.165554 0.0916495 0.700632
3235 2 0.196222 0.135348 0.737739
963 4 0.233243 0.126322 0.736004
3237 4 0.213371 0.122423 0.740987
961 2 0.249534 0.133578 0.716629
2810 4 0.291351 0.085583 0.696551
4467 4 0.276187 0.086933 0.709141
962 4 0.265825 0.140834 0.697255
959 4 0.259239 0.128387 0.68112
1064 4 0.321671 0.140544 0.747388
1063 2 0.34749 0.144087 0.748625
2271 4 0.482918 0.094012 0.747846
808 2 0.0265884 0.188649 0.686712
810 4 0.00237763 0.179522 0.677508
809 4 0.0507992 0.197776 0.695917
3143 4 0.0710288 0.206283 0.699142
3142 2 0.0970109 0.212117 0.701749
3144 4 0.122993 0.217952 0.704355
3018 4 0.14028 0.213155 0.707926
3016 2 0.164844 0.214306 0.71408
3017 4 0.189408 0.215456 0.720233
3012 4 0.205517 0.230442 0.72397
516 4 0.237179 0.179152 0.667462
3010 2 0.222145 0.230159 0.742563
3359 4 0.368496 0.213362 0.673774
3358 2 0.382789 0.217366 0.694721
3314 4 0.401625 0.226969 0.736034
3360 4 0.397082 0.221371 0.715669
3452 4 0.006107 0.310871 0.721613
3451 2 0.0317247 0.320512 0.717123
3453 4 0.0573425 0.330153 0.712632
3108 4 0.0754231 0.327226 0.70941
3106 2 0.0983217 0.322939 0.704958
3107 4 0.12122 0.318651 0.700506
4250 4 0.140596 0.320438 0.706221
4249 2 0.1655 0.325492 0.698804
4251 4 0.190404 0.330547 0.691386
1039 2 0.310434 0.310223 0.737383
1041 4 0.327346 0.317805 0.718524
946 2 0.346835 0.322406 0.686787
947 4 0.347019 0.322479 0.71179
2242 2 0.0741049 0.365585 0.742605
2244 4 0.079072 0.384747 0.726573
3371 4 0.123498 0.384972 0.671005
1938 4 0.171216 0.401123 0.739476
3330 4 0.384158 0.407593 0.733315
1206 4 0.372832 0.388476 0.740462
3328 2 0.406051 0.416403 0.719885
140 3 0.469499 0.401167 0.697376
137 3 0.450499 0.413368 0.670451
3475 2 0.0658253 0.483206 0.673006
3476 4 0.0469426 0.480774 0.690054
3326 4 0.0281862 0.470248 0.695713
3325 2 0.0120993 0.457317 0.713379
6 1 0.0967423 0.441476 0.669828
3223 2 0.109449 0.438929 0.742112
8 3 0.101806 0.422437 0.67729
3177 4 0.11581 0.466288 0.687645
3175 2 0.124332 0.486962 0.701548
9 3 0.0961493 0.455346 0.687775
3225 4 0.11362 0.45546 0.723377
3039 4 0.20257 0.457287 0.704591
3037 2 0.176668 0.450364 0.708185
3038 4 0.150766 0.443441 0.711779
1936 2 0.190912 0.420801 0.746764
4269 4 0.236328 0.487272 0.74588
1229 4 0.278483 0.427698 0.735714
1228 2 0.301528 0.426946 0.726619
2372 4 0.339271 0.436779 0.731645
1230 4 0.324574 0.426194 0.717525
2371 2 0.364322 0.44928 0.736173
2373 4 0.389373 0.461781 0.740702
3329 4 0.427944 0.425213 0.706454
139 3 0.447969 0.424052 0.706009
136 1 0.462572 0.418872 0.690234
138 3 0.48199 0.437236 0.686655
2016 4 0.497352 0.440982 0.673285
3054 4 0.0508789 0.0507186 0.788946
3052 2 0.0304717 0.0313891 0.78233
3053 4 0.0100646 0.0120597 0.775714
3234 4 0.0816625 0.0199397 0.754192
3393 4 0.160802 0.060222 0.810929
3086 4 0.16494 0.0531736 0.793443
3085 2 0.179109 0.0528205 0.772921
3087 4 0.193279 0.0524674 0.752398
690 4 0.261726 0.0111617 0.822178
1298 4 0.242874 0.068397 0.784403
2255 4 0.236187 0.0426604 0.754492
2265 4 0.271491 0.998437 0.815293
688 2 0.235716 0.00112981 0.821827
2263 2 0.294485 0.00764705 0.803684
2264 4 0.31748 0.0168568 0.792075
4193 4 0.336764 0.0161254 0.794763
4192 2 0.355317 0.0229839 0.777204
4194 4 0.37387 0.0298424 0.759646
3094 2 0.378458 0.0816866 0.824849
3416 4 0.00514404 0.154468 0.756495
3356 4 0.108339 0.125076 0.779009
3355 2 0.131799 0.126597 0.788723
3357 4 0.155259 0.128119 0.798438
3000 4 0.17988 0.152997 0.830399
42 3 0.175177 0.126284 0.794183
45 3 0.185518 0.103327 0.817871
41 1 0.190699 0.124889 0.810695
44 3 0.188777 0.138677 0.828299
43 3 0.213226 0.131788 0.802027
2052 4 0.224327 0.135312 0.81962
2050 2 0.24754 0.131944 0.814579
1297 2 0.260135 0.0896241 0.792183
1299 4 0.277396 0.110851 0.799962
2051 4 0.270753 0.128576 0.809537
88 3 0.312184 0.153308 0.796273
89 3 0.287643 0.130565 0.821199
86 1 0.305403 0.132144 0.805783
87 3 0.297184 0.116572 0.789195
1065 4 0.373309 0.147631 0.749862
90 3 0.324052 0.128005 0.815993
3336 4 0.341343 0.131191 0.828386
2978 4 0.386913 0.141217 0.758135
2977 2 0.388343 0.121808 0.772028
3095 4 0.389303 0.0930904 0.803832
2979 4 0.389772 0.102398 0.78592
4356 4 0.998837 0.170144 0.762086
3753 4 0.088009 0.186913 0.797003
3751 2 0.103855 0.173513 0.803758
3166 2 0.124161 0.239078 0.831828