ITEM: TIMESTEP
1934500
ITEM: NUMBER OF ATOMS
4590
ITEM: BOX BOUNDS xy xz yz pp pp pp
-1.6197683400000017e+01 9.9985700000000008e+00 -6.1991134000000159e+00
-9.9985700000000008e+00 9.9985700000000008e+00 0.0000000000000000e+00
-9.9985700000000008e+00 9.9985700000000008e+00 0.0000000000000000e+00
ITEM: ATOMS id type xs ys zs
70 3 0.0261155 0.0768799 0.00481898
1108 2 0.0577773 0.0219382 0.00908749
125 3 0.0796072 0.0109732 0.0758966
1926 4 0.0950873 0.0198517 0.0172843
1109 4 0.0743399 0.00972908 0.0169676
1924 2 0.119883 0.0239175 0.00988635
122 3 0.118232 0.0272746 0.0762951
3546 4 0.138775 0.0384751 0.0817488
1925 4 0.14468 0.0279832 0.00248837
987 4 0.152476 0.0482755 0.00414559
89 3 0.249629 0.0586714 0.00262675
2854 2 0.287599 0.0138608 0.0673301
2856 4 0.302653 0.00268865 0.0547821
1008 4 0.334635 0.058932 0.0204645
1006 2 0.355045 0.0762593 0.030406
258 4 0.335051 0.0190662 0.0791791
2855 4 0.272544 0.0250329 0.0798782
2787 4 0.346927 0.0145831 0.0635905
2785 2 0.357838 0.0251265 0.0422454
4259 4 0.385846 0.0300899 0.0157199
2786 4 0.368749 0.0356698 0.0209003
3808 2 0.416887 0.00763502 0.079379
4096 2 0.412612 0.00654769 0.0267199
1285 2 0.486152 0.00912287 0.0609057
4098 4 0.430719 0.0155766 0.00913197
1069 2 0.00537767 0.108466 0.0696511
1070 4 0.0145198 0.106416 0.0467298
299 4 0.034862 0.112892 0.0464926
298 2 0.0403143 0.0983857 0.0287236
300 4 0.0457666 0.0838791 0.0109545
631 2 0.168956 0.145127 0.0289565
633 4 0.169168 0.122277 0.0360144
114 3 0.360158 0.11692 0.00510197
111 1 0.377612 0.131628 0.017586
112 3 0.37454 0.152533 0.0166468
1007 4 0.375454 0.0935866 0.0403475
113 3 0.376191 0.1247 0.0397196
3983 4 0.387878 0.0911762 0.0552503
3984 4 0.435999 0.100684 0.0744794
3982 2 0.411939 0.0959302 0.0648649
115 3 0.399016 0.13263 0.00906069
1634 4 0.419637 0.137396 0.0107595
1633 2 0.443246 0.135995 0.0174787
1635 4 0.466855 0.134595 0.024198
1169 4 0.450944 0.0924865 0.0784507
3921 4 0.486145 0.133811 0.028887
1168 2 0.476288 0.105291 0.0763543
2803 2 0.0938249 0.242814 0.0119697
632 4 0.168744 0.167977 0.0218985
2501 4 0.168467 0.175669 0.00414885
1028 4 0.179645 0.242514 0.0163671
2969 4 0.432605 0.227436 0.044401
2634 4 0.441075 0.227942 0.063155
2968 2 0.454846 0.240246 0.0331173
3195 4 0.00109168 0.296219 0.0314859
3193 2 0.0257705 0.308657 0.0254117
3194 4 0.0504494 0.321094 0.0193376
638 4 0.0691224 0.330721 0.0258479
2804 4 0.115445 0.252363 0.0256017
2528 4 0.128386 0.27792 0.0556312
738 4 0.113426 0.2791 0.0673098
2527 2 0.144638 0.290112 0.0377153
2529 4 0.160891 0.302304 0.0197993
3213 4 0.167332 0.310916 0.00167779
1027 2 0.182606 0.257314 0.0364541
1029 4 0.185567 0.272114 0.0565412
3211 2 0.192917 0.32284 0.999691
2966 4 0.191333 0.27783 0.0752057
2965 2 0.208692 0.300255 0.0789492
3004 2 0.258427 0.312518 0.00437972
3006 4 0.261401 0.301627 0.0259724
2976 4 0.413639 0.310083 0.0742031
2974 2 0.413778 0.296501 0.0536654
2975 4 0.413916 0.282919 0.0331276
2970 4 0.477087 0.253055 0.0218335
966 4 0.49561 0.264949 0.0278791
782 4 0.022157 0.363929 0.0389423
2459 4 0.0329088 0.370961 0.0223546
2458 2 0.0569204 0.375686 0.0320761
2460 4 0.0809321 0.380411 0.0417976
637 2 0.0950461 0.336889 0.0225941
639 4 0.12097 0.343057 0.0193404
2610 4 0.135275 0.348255 0.0356563
2608 2 0.14709 0.348143 0.057674
2609 4 0.158905 0.348032 0.0796917
555 4 0.307925 0.35174 0.0776334
3114 4 0.397938 0.388548 0.0496697
3112 2 0.418054 0.38184 0.040315
3113 4 0.438171 0.375132 0.0309603
906 4 0.456758 0.376758 0.0192449
904 2 0.482716 0.384444 0.0224572
1047 4 0.0213595 0.434807 0.0600063
1045 2 0.0359389 0.446648 0.0408756
1046 4 0.0505182 0.458489 0.0217449
4586 4 0.0144997 0.437369 0.0801043
2088 4 0.0662933 0.469389 0.0317472
2086 2 0.0744862 0.475902 0.00840939
4477 2 0.496025 0.491903 0.00220834
3484 2 0.0103255 0.0609137 0.130234
124 3 0.094017 0.0467127 0.0872655
3486 4 0.0352549 0.0700152 0.122913
2792 4 0.0706229 0.0156831 0.162772
121 1 0.0974694 0.0257523 0.0870256
123 3 0.0987309 0.0184139 0.108752
489 4 0.132628 0.0198989 0.125813
3544 2 0.164806 0.0469436 0.084128
487 2 0.154263 0.02622 0.139889
488 4 0.175898 0.0325411 0.153964
3545 4 0.190836 0.0554122 0.0865073
3270 4 0.19129 0.0501121 0.151412
1437 4 0.210937 0.0649298 0.0961848
702 4 0.258595 0.0325441 0.0871455
1435 2 0.235065 0.074138 0.105557
700 2 0.241454 0.0150685 0.100648
256 2 0.333664 0.00684929 0.100862
3810 4 0.433508 0.02099 0.0964395
759 4 0.440719 0.040931 0.100634
757 2 0.463689 0.0368738 0.105297
758 4 0.486659 0.0328167 0.10996
2755 2 0.0742695 0.132539 0.122704
2756 4 0.0609836 0.137636 0.103257
2757 4 0.0875554 0.127442 0.142152
395 4 0.108374 0.132212 0.146395
394 2 0.128865 0.123852 0.141657
396 4 0.149356 0.115492 0.136919
1436 4 0.259193 0.0833463 0.11493
404 4 0.278095 0.0866929 0.125037
403 2 0.302112 0.0881211 0.133248
405 4 0.326129 0.0895493 0.141459
2606 4 0.339187 0.094803 0.157165
2605 2 0.364768 0.10091 0.16234
3587 4 0.372627 0.140201 0.153445
3586 2 0.387972 0.154769 0.13625
1233 4 0.416491 0.15807 0.115917
1232 4 0.463952 0.152633 0.108446
1231 2 0.440222 0.155351 0.112182
2754 4 0.480166 0.144275 0.110886
2838 4 0.236279 0.192648 0.150239
2708 4 0.251029 0.190183 0.136102
2707 2 0.260542 0.208476 0.119495
2709 4 0.270055 0.226769 0.102887
641 4 0.366294 0.219624 0.162184
3588 4 0.403318 0.169338 0.119055
2632 2 0.442079 0.233635 0.0874901
708 4 0.439249 0.24176 0.13237
2633 4 0.443083 0.239327 0.111825
706 2 0.441056 0.222431 0.146181
707 4 0.442863 0.203103 0.159992
690 4 0.00270848 0.315392 0.15181
1103 4 0.0150993 0.303896 0.156832
2959 2 0.121818 0.27736 0.147261
2961 4 0.133234 0.265321 0.131426
736 2 0.120745 0.274094 0.0901449
737 4 0.128065 0.269088 0.11298
2960 4 0.110403 0.2894 0.163097
2967 4 0.226051 0.322679 0.0826927
3106 2 0.335806 0.31114 0.136155
3108 4 0.336723 0.31578 0.160719
3107 4 0.334888 0.3065 0.111591
3336 4 0.354101 0.306703 0.112858
3334 2 0.376225 0.3078 0.100633
3335 4 0.398349 0.308896 0.0884081
143 3 0.0841519 0.401179 0.0959619
4089 4 0.142253 0.337301 0.140501
4087 2 0.141741 0.337873 0.115513
4088 4 0.141229 0.338445 0.0905251
2578 2 0.283599 0.366472 0.151714
2579 4 0.299396 0.379237 0.133768
553 2 0.311358 0.363813 0.0995271
554 4 0.314791 0.375886 0.121421
2590 2 0.00383045 0.480737 0.143261
2592 4 0.0238728 0.484204 0.127343
4585 2 0.0320448 0.433865 0.0964061
4587 4 0.0495899 0.43036 0.112708
145 3 0.0881915 0.416401 0.130393
141 1 0.0864665 0.420543 0.108202
142 3 0.0670276 0.427569 0.10467
144 3 0.10618 0.43722 0.101218
524 4 0.125055 0.450236 0.108183
1559 4 0.154163 0.495104 0.144853
523 2 0.148704 0.448689 0.114555
525 4 0.172352 0.447141 0.120927
288 4 0.189171 0.453792 0.132233
286 2 0.214809 0.463548 0.136549
287 4 0.240447 0.473304 0.140864
753 4 0.258759 0.479617 0.148277
2142 4 0.420703 0.437278 0.160293
2140 2 0.437817 0.442383 0.141375
2141 4 0.454931 0.447488 0.122456
2780 4 0.473635 0.460012 0.114062
2779 2 0.496844 0.47762 0.113792
3268 2 0.197369 0.0502967 0.175679
3269 4 0.203449 0.0504813 0.199946
1687 2 0.191946 0.0128311 0.218703
1689 4 0.20203 0.0374703 0.215223
588 4 0.229627 0.0823558 0.232886
3062 4 0.118549 0.0956731 0.232222
3061 2 0.14145 0.104154 0.244153
2607 4 0.390349 0.107016 0.167515
2808 4 0.410915 0.113558 0.166114
2806 2 0.435898 0.118501 0.173242
2807 4 0.460881 0.123445 0.180371
712 2 0.0164303 0.180282 0.23775
713 4 0.0340681 0.177733 0.221043
474 4 0.0859444 0.231218 0.199409
472 2 0.110194 0.229543 0.202388
473 4 0.134444 0.227867 0.205368
2574 4 0.14817 0.229476 0.220037
2572 2 0.169746 0.236504 0.20591
2513 4 0.165121 0.185865 0.239046
2573 4 0.191321 0.243532 0.191782
2512 2 0.176316 0.184382 0.216974
2514 4 0.18751 0.182898 0.194902
2836 2 0.222729 0.191049 0.171504
2837 4 0.209178 0.189451 0.192769
1463 4 0.295777 0.195815 0.169197
1462 2 0.321886 0.201621 0.169929
1464 4 0.347995 0.207426 0.170662
640 2 0.384442 0.213193 0.175531
285 4 0.462641 0.20903 0.167095
642 4 0.402591 0.206763 0.188878
665 4 0.412371 0.217334 0.203951
664 2 0.410461 0.196788 0.217486
666 4 0.408552 0.176243 0.23102
283 2 0.476812 0.199445 0.18257
2675 4 0.40118 0.177093 0.249488
284 4 0.490983 0.189861 0.198045
1102 2 0.0381162 0.314956 0.167749
1104 4 0.0611331 0.326016 0.178666
1511 4 0.0643441 0.308485 0.177572
1510 2 0.0885159 0.306153 0.177517
338 4 0.0890209 0.275111 0.242766
1512 4 0.112688 0.303821 0.177463
244 2 0.129441 0.289116 0.23638
245 4 0.150563 0.305898 0.226886
246 4 0.10832 0.272335 0.245874
2841 4 0.170881 0.304008 0.230596
2839 2 0.188966 0.29257 0.235739
2840 4 0.207051 0.281132 0.240883
2909 4 0.308452 0.273263 0.209894
2908 2 0.314632 0.28849 0.190116
2910 4 0.320813 0.303718 0.170338
446 4 0.48116 0.307987 0.230395
2510 4 0.123205 0.382003 0.245368
2511 4 0.127755 0.352969 0.206975
2509 2 0.12548 0.367486 0.226171
3818 4 0.274949 0.34176 0.237279
2580 4 0.267802 0.353708 0.16966
3819 4 0.269091 0.344126 0.187764
3817 2 0.27202 0.342943 0.212521
3963 4 0.061815 0.495519 0.187228
3884 4 0.0109498 0.454063 0.18885
3883 2 0.0323829 0.47147 0.196912
3885 4 0.0538161 0.488876 0.204974
2817 4 0.195844 0.42791 0.222718
2815 2 0.221386 0.437899 0.218073
751 2 0.276231 0.482915 0.166818
2816 4 0.246929 0.447889 0.213427
752 4 0.293703 0.486213 0.185358
3882 4 0.309313 0.499254 0.195714
278 4 0.433541 0.436111 0.22545
279 4 0.431383 0.431885 0.175629
277 2 0.432462 0.433998 0.20054
774 4 0.44848 0.442323 0.238288
3555 4 0.141607 0.0493112 0.287434
3554 4 0.183925 0.04506 0.263379
3553 2 0.162766 0.0471856 0.275406
586 2 0.214267 0.0718051 0.252061
587 4 0.198907 0.0612545 0.271237
18 3 0.000877198 0.0993722 0.32456
2677 2 0.00716644 0.151371 0.291654
2679 4 0.025812 0.147282 0.277096
2534 4 0.0436318 0.159925 0.269225
20 3 0.0373543 0.122192 0.330254
55 3 0.120954 0.15395 0.269568
295 2 0.186516 0.120555 0.291944
296 4 0.182564 0.119405 0.267226
3063 4 0.16435 0.112636 0.256084
297 4 0.190467 0.121706 0.316661
1600 2 0.00294448 0.248575 0.267021
1601 4 0.0213525 0.245597 0.251445
1796 4 0.0381634 0.226665 0.294398
1795 2 0.0499529 0.208758 0.292454
1797 4 0.0617425 0.19085 0.29051
2533 2 0.0694258 0.170248 0.26637
2535 4 0.0952198 0.180571 0.263515
52 3 0.116658 0.187515 0.26249
51 1 0.13212 0.176325 0.269238
54 3 0.14021 0.183594 0.290487
2798 4 0.134808 0.248567 0.334548
53 3 0.150699 0.180921 0.254304
1798 2 0.177444 0.208614 0.301253
1800 4 0.158902 0.197001 0.284911
1799 4 0.195987 0.220227 0.317594
579 4 0.21431 0.223912 0.327945
3237 4 0.292229 0.169116 0.302572
3235 2 0.294667 0.192791 0.308945
3236 4 0.297106 0.216467 0.315317
1764 4 0.304764 0.225785 0.261633
1763 4 0.346444 0.209348 0.255108
1762 2 0.325604 0.217566 0.25837
2676 4 0.414408 0.165864 0.295264
2674 2 0.407794 0.171479 0.272376
337 2 0.064597 0.264608 0.250939
339 4 0.0401731 0.254105 0.259113
1863 4 0.0932992 0.322226 0.323431
1861 2 0.1042 0.316777 0.302527
1862 4 0.115102 0.311328 0.281623
2660 4 0.138024 0.310841 0.310259
2659 2 0.161383 0.324715 0.30192
269 4 0.198987 0.328865 0.288391
268 2 0.221135 0.322745 0.291483
677 4 0.211724 0.274447 0.257936
678 4 0.242465 0.265623 0.294021
676 2 0.227094 0.270035 0.275979
2918 4 0.25053 0.251391 0.297888
270 4 0.243283 0.316626 0.294575
2917 2 0.252386 0.256699 0.322321
445 2 0.495292 0.309561 0.251288
2814 4 0.480077 0.254949 0.273743
2812 2 0.495018 0.255421 0.293894
2490 4 0.0897955 0.339844 0.32741
3960 4 0.142384 0.385959 0.254724
3958 2 0.144422 0.401629 0.274004
2661 4 0.184741 0.33859 0.293581
415 2 0.275445 0.359225 0.320024
416 4 0.280694 0.351753 0.297394
108 3 0.297266 0.38402 0.25368
110 3 0.282836 0.346544 0.255994
106 1 0.29792 0.365074 0.265379
107 3 0.291357 0.366956 0.287163
109 3 0.32048 0.363234 0.265204
4511 4 0.327879 0.381954 0.272951
4510 2 0.353827 0.38971 0.276232
4512 4 0.379775 0.397466 0.279513
494 4 0.388697 0.384551 0.285939
493 2 0.40191 0.37241 0.272171
495 4 0.415123 0.360269 0.258403
410 4 0.421301 0.344709 0.25227
409 2 0.444035 0.344176 0.262297
411 4 0.466768 0.343643 0.272323
1577 4 0.0472818 0.497244 0.294614
1392 4 0.0336347 0.438182 0.316238
1576 2 0.0231742 0.485072 0.302586
1775 4 0.0370321 0.452727 0.330963
1390 2 0.0515904 0.433398 0.301257
1391 4 0.0695462 0.428614 0.286275
3220 2 0.105001 0.418845 0.301694
3222 4 0.0811813 0.421471 0.298306
3221 4 0.12882 0.416219 0.305081
3959 4 0.14646 0.417298 0.293283
2506 2 0.223825 0.459372 0.325217
669 4 0.268827 0.472062 0.255836
667 2 0.255483 0.478006 0.274788
668 4 0.242138 0.483949 0.293741
2507 4 0.24153 0.47271 0.308995
772 2 0.469458 0.455697 0.251055
773 4 0.490437 0.469071 0.263821
1375 2 0.00527422 0.0429811 0.371823
1377 4 0.0294846 0.0463562 0.38061
3957 4 0.0490008 0.0530725 0.387513
3955 2 0.074542 0.0571061 0.391856
3956 4 0.100083 0.0611396 0.396199
1035 4 0.128189 0.00277888 0.366415
2825 4 0.114486 0.0633167 0.409972
2260 2 0.172027 0.0210643 0.364557
2262 4 0.147183 0.0175389 0.371533
2261 4 0.196871 0.0245897 0.357581
2553 4 0.212638 0.0262437 0.343364
2551 2 0.237648 0.0263453 0.342255
2552 4 0.262658 0.0264469 0.341147
1622 4 0.271458 0.0251312 0.358871
402 4 0.341161 0.0398123 0.378798
1623 4 0.322172 0.0362969 0.370842
1621 2 0.296815 0.0307141 0.364856
400 2 0.366632 0.0516487 0.381924
3051 4 0.406526 0.0791803 0.373568
401 4 0.392103 0.0634852 0.385049
1838 4 0.452592 0.000193357 0.34788
1217 4 0.468877 0.00779203 0.359846
1216 2 0.470601 0.0225869 0.379799
1218 4 0.472326 0.0373818 0.399752
3665 4 0.488141 0.0543294 0.403186
3664 2 0.475209 0.070612 0.409253
912 4 0.000699875 0.119711 0.391706
19 3 0.00814189 0.124724 0.352868
16 1 0.0170991 0.110407 0.340459
1517 4 0.0311469 0.0982318 0.372488
17 3 0.0216157 0.0948451 0.354591
1516 2 0.0469872 0.102487 0.392393
1865 4 0.104205 0.117053 0.356329
1518 4 0.0628275 0.106742 0.412298
1866 4 0.155839 0.139482 0.355179
1864 2 0.130022 0.128267 0.355754
519 4 0.169037 0.129577 0.346635
517 2 0.190143 0.149644 0.347601
3029 4 0.201624 0.147532 0.41077
364 2 0.247127 0.158935 0.409706
365 4 0.221898 0.15218 0.403047
3049 2 0.427668 0.0853588 0.388312
3050 4 0.448809 0.0915373 0.403056
3666 4 0.462278 0.0868946 0.41532
2611 2 0.00370129 0.222649 0.364288
2612 4 0.0114839 0.245172 0.353461
2653 2 0.0600065 0.224334 0.392799
2654 4 0.056039 0.227157 0.368431
453 4 0.0771619 0.243217 0.340452
451 2 0.053757 0.246969 0.343192
2797 2 0.108973 0.237813 0.336352
2799 4 0.0831386 0.22706 0.338155
3806 4 0.141411 0.217008 0.367008
3805 2 0.163543 0.232299 0.376438
3807 4 0.185674 0.24759 0.385868
577 2 0.218241 0.205838 0.342354
578 4 0.222172 0.187765 0.356763
518 4 0.211249 0.169712 0.348568
1765 2 0.293112 0.242737 0.413602
384 4 0.338296 0.206894 0.409116
382 2 0.314478 0.192125 0.41519
663 4 0.358299 0.21311 0.40438
661 2 0.383835 0.216338 0.407957
662 4 0.40937 0.219567 0.411535
452 4 0.0303521 0.250722 0.345933
570 4 0.0637288 0.273147 0.413889
3 3 0.104076 0.285415 0.403983
1698 4 0.193122 0.255761 0.36772
1696 2 0.218695 0.264608 0.362652
1697 4 0.244268 0.273455 0.357585
2919 4 0.254242 0.262008 0.346754
1766 4 0.309311 0.255606 0.39598
3708 4 0.327206 0.256085 0.387246
3706 2 0.352595 0.257894 0.384904
438 4 0.393568 0.254191 0.375135
3707 4 0.377984 0.259703 0.382562
436 2 0.417511 0.254927 0.367247
437 4 0.441454 0.255663 0.359358
231 4 0.459483 0.265545 0.349285
229 2 0.48429 0.264973 0.350068
582 4 0.00986423 0.36028 0.373438
580 2 0.0348668 0.366695 0.366062
2488 2 0.0809745 0.358652 0.334946
2489 4 0.0721536 0.37746 0.342482
581 4 0.0598693 0.37311 0.358685
417 4 0.270196 0.366697 0.342654
3167 4 0.447974 0.412533 0.396788
2298 4 0.0147558 0.41594 0.408503
1774 2 0.0216888 0.448565 0.351221
1776 4 0.0063455 0.444403 0.371478
2508 4 0.20612 0.446034 0.341438
3168 4 0.419631 0.428257 0.362875
3166 2 0.433802 0.420395 0.379831
599 4 0.462311 0.427724 0.40656
598 2 0.487715 0.437289 0.401065
813 4 0.0789334 0.00446016 0.484053
2963 4 0.0841144 0.0235937 0.487962
2824 2 0.135685 0.0721918 0.424328
2962 2 0.106609 0.0331333 0.475615
2964 4 0.129105 0.0426728 0.463268
2826 4 0.156884 0.081067 0.438683
3548 4 0.209465 0.0701235 0.467424
3547 2 0.233296 0.0787302 0.457262
3359 4 0.207292 0.0300267 0.497629
3396 4 0.489244 0.0670012 0.466457
3324 4 0.00324648 0.150749 0.444994
2519 4 0.010988 0.121775 0.494207
3488 4 0.0306979 0.134218 0.494721
3322 2 0.0282802 0.164764 0.445846
1817 4 0.0912716 0.111284 0.457019
1816 2 0.113909 0.114442 0.44493
3028 2 0.17687 0.141274 0.418867
3030 4 0.152116 0.135015 0.426964
1818 4 0.136546 0.1176 0.432842
2697 4 0.174737 0.0945057 0.446692
2695 2 0.198441 0.108693 0.453846
366 4 0.272356 0.165689 0.416364
3549 4 0.257127 0.0873369 0.447101
2696 4 0.222146 0.12288 0.461
4001 4 0.239156 0.134472 0.468584
4002 4 0.290066 0.159757 0.471099
4000 2 0.264611 0.147115 0.469842
3327 4 0.30929 0.157008 0.47086
3325 2 0.325066 0.159867 0.490742
2338 2 0.00493895 0.206942 0.477819
2340 4 0.0304123 0.208656 0.478181
680 4 0.0494158 0.219032 0.469886
2655 4 0.063974 0.221512 0.417166
681 4 0.067455 0.240286 0.426092
3323 4 0.053314 0.17878 0.446698
679 2 0.0584354 0.229659 0.447989
1142 4 0.0728302 0.178509 0.447915
1141 2 0.0974952 0.186722 0.456192
357 4 0.116234 0.19864 0.484064
1143 4 0.12216 0.194935 0.464468
355 2 0.135526 0.216303 0.495126
2355 4 0.257888 0.204807 0.493918
2354 4 0.278913 0.223585 0.450135
2353 2 0.268401 0.214196 0.472026
1767 4 0.276914 0.229868 0.431223
383 4 0.29066 0.177356 0.421265
569 4 0.0123784 0.266264 0.419469
568 2 0.0380536 0.269705 0.416679
4 3 0.0746511 0.287064 0.42734
2 3 0.0851324 0.255524 0.42461
1 1 0.0933608 0.278499 0.424406
2493 4 0.0943009 0.298687 0.497751
2492 4 0.116581 0.282968 0.458811
2491 2 0.105441 0.290828 0.478281
5 3 0.109101 0.285507 0.441301
2172 4 0.170044 0.305056 0.491445
2850 4 0.187997 0.299609 0.488847
2848 2 0.207872 0.291255 0.481726
3021 4 0.241391 0.284179 0.489068
2849 4 0.227747 0.282901 0.474604
3020 4 0.293605 0.301774 0.491236
3019 2 0.267498 0.292976 0.490152
344 4 0.446573 0.256396 0.448644
343 2 0.472044 0.258396 0.450543
345 4 0.497515 0.260395 0.452442
2296 2 0.0344604 0.413085 0.422399
3024 4 0.0234718 0.361022 0.491553
4068 4 0.013063 0.374504 0.496454
2800 2 0.117584 0.394194 0.49058
2666 4 0.0537163 0.395111 0.446869
3023 4 0.0746916 0.365641 0.492329
2665 2 0.0724146 0.387022 0.436378
2297 4 0.054165 0.410229 0.436295
2801 4 0.0960355 0.3746 0.491923
3022 2 0.0490817 0.363332 0.491941
2667 4 0.091113 0.378933 0.425887
2802 4 0.139133 0.413788 0.489236
709 2 0.253839 0.400665 0.459053
1812 4 0.27888 0.38082 0.47793
1810 2 0.294668 0.394569 0.495346
711 4 0.245392 0.415124 0.443276
710 4 0.262287 0.386206 0.474831
2349 4 0.158216 0.416835 0.499009
1282 2 0.0216463 0.0220169 0.575128
374 4 0.0267755 0.0515577 0.518079
373 2 0.0376449 0.0752728 0.525179
342 4 0.207754 0.0253044 0.582431
340 2 0.222925 0.0481123 0.576158
341 4 0.238096 0.0709202 0.569884
3358 2 0.221463 0.0254626 0.516641
3360 4 0.235633 0.0208985 0.535652
2283 4 0.25122 0.0152568 0.52891
1211 4 0.24775 0.0804878 0.554513
466 2 0.0413072 0.107449 0.570429
468 4 0.0555391 0.107693 0.549821
266 4 0.0867457 0.134566 0.522047
375 4 0.0485142 0.0989879 0.53228
3489 4 0.0801726 0.147795 0.511076
3487 2 0.0554352 0.141007 0.502898
265 2 0.107356 0.150957 0.532789
267 4 0.127967 0.167347 0.543532
2981 4 0.14604 0.163803 0.542406
1212 4 0.23752 0.120554 0.534963
1210 2 0.242635 0.100521 0.544738
650 4 0.353449 0.162441 0.525963
3326 4 0.340842 0.162726 0.510625
649 2 0.37302 0.161652 0.541192
1181 4 0.395832 0.144738 0.563441
651 4 0.392591 0.160864 0.556422
1180 2 0.412575 0.152725 0.582358
3460 2 0.491988 0.104273 0.541745
3462 4 0.471069 0.0875908 0.551691
4579 2 0.0126063 0.189008 0.557934
4580 4 0.0229673 0.196006 0.580497
4581 4 0.00224532 0.18201 0.53537
356 4 0.154817 0.233966 0.506187
2980 2 0.170875 0.173471 0.549811
576 4 0.167732 0.243435 0.521274
3524 4 0.207925 0.189141 0.573181
2982 4 0.195709 0.18314 0.557216
2989 2 0.11721 0.285673 0.568986
2990 4 0.1331 0.296946 0.550426
2171 4 0.145902 0.294164 0.535614
2170 2 0.157973 0.29961 0.51353
574 2 0.185907 0.251698 0.538969
575 4 0.204083 0.25996 0.556664
936 4 0.401199 0.32049 0.539499
934 2 0.393718 0.330805 0.559617
2374 2 0.393509 0.291333 0.51779
2375 4 0.398094 0.26975 0.512114
2376 4 0.388923 0.312916 0.523466
3501 4 0.438313 0.290752 0.509025
3499 2 0.457835 0.30918 0.518767
3500 4 0.477356 0.327609 0.52851
510 4 0.493531 0.319776 0.528909
979 2 0.0229514 0.400828 0.532813
980 4 0.00198263 0.380656 0.534137
1811 4 0.310455 0.408318 0.512761
935 4 0.386236 0.34112 0.579735
2157 4 0.491538 0.410889 0.520102
981 4 0.0439202 0.420999 0.531489
1227 4 0.0122952 0.459277 0.513631
2347 2 0.183224 0.421168 0.50582
2348 4 0.208232 0.425502 0.51263
431 4 0.220234 0.422713 0.52835
3057 4 0.258376 0.425714 0.569304
432 4 0.266355 0.43449 0.551981
430 2 0.243295 0.428602 0.540166
1908 4 0.307371 0.434624 0.55882
1907 4 0.327178 0.425068 0.515335
1906 2 0.317274 0.429846 0.537077
3737 4 0.383514 0.453722 0.574425
2156 4 0.478536 0.443167 0.550588
2155 2 0.485037 0.427028 0.535345
1283 4 0.0439775 0.0275798 0.588151
2115 4 0.0509164 0.014894 0.59953
2113 2 0.0449258 0.00874893 0.62342
3419 4 0.0222911 0.00862777 0.651852
2114 4 0.0389353 0.00260381 0.647311
1268 4 0.169142 0.029015 0.621527
3935 4 0.18685 0.0150679 0.583985
1267 2 0.191944 0.0470561 0.623413
1269 4 0.214745 0.0650973 0.625299
2597 4 0.301568 0.0806709 0.648291
879 4 0.310049 0.0808959 0.627608
318 4 0.412198 0.0143673 0.630566
2333 4 0.390642 0.00918477 0.629351
3458 4 0.36976 0.0416606 0.664897
316 2 0.437829 0.0229116 0.635463
317 4 0.46346 0.0314558 0.640361
2204 4 0.479482 0.0271389 0.631926
2230 2 0.018516 0.106289 0.625801
2232 4 0.0370992 0.107573 0.608688
467 4 0.0270752 0.107205 0.591038
3366 4 0.0783547 0.162512 0.666935
877 2 0.33618 0.0887745 0.629009
878 4 0.362311 0.0966531 0.63041
1098 4 0.382426 0.100129 0.620135
1096 2 0.398618 0.112986 0.637767
1097 4 0.41481 0.125842 0.6554
1182 4 0.429318 0.160712 0.601275
2977 2 0.0540875 0.174131 0.656831
2979 4 0.0333473 0.180424 0.66524
2978 4 0.0748276 0.167838 0.648422
3039 4 0.101597 0.233557 0.637878
3037 2 0.0979074 0.245036 0.616881
3523 2 0.229374 0.203926 0.584233
3525 4 0.250824 0.218711 0.595285
2832 4 0.260347 0.222736 0.61222
2830 2 0.272161 0.220653 0.633799
2831 4 0.283974 0.218571 0.655377
2991 4 0.101321 0.274401 0.587546
3038 4 0.0942175 0.256514 0.595884
4421 4 0.158202 0.252502 0.609068
4422 4 0.210416 0.263947 0.607883
4420 2 0.184309 0.258224 0.608476
3191 4 0.203438 0.319419 0.661184
3190 2 0.192012 0.294713 0.660412
3192 4 0.180586 0.270006 0.65964
1919 4 0.220813 0.265012 0.625681
1918 2 0.246114 0.278088 0.627346
1920 4 0.271415 0.291163 0.62901
3027 4 0.287804 0.285385 0.62355
3025 2 0.310464 0.283015 0.632048
3026 4 0.333125 0.280646 0.640547
3131 4 0.339797 0.265696 0.647616
3130 2 0.365815 0.270988 0.645917
3132 4 0.391834 0.27628 0.644218
503 4 0.409353 0.281304 0.632318
502 2 0.4347 0.291838 0.637481
504 4 0.460046 0.302371 0.642644
1079 4 0.462533 0.302172 0.663163
1952 4 0.022346 0.3464 0.629472
1951 2 0.00139702 0.354502 0.632489
2175 4 0.0784373 0.370172 0.597929
2174 4 0.0425653 0.344041 0.630282
2173 2 0.0605013 0.357106 0.614105
2498 4 0.173647 0.348029 0.626541
2497 2 0.193538 0.347032 0.61184
1206 4 0.234787 0.351651 0.596677
291 4 0.218693 0.334072 0.655342
2499 4 0.21343 0.346035 0.59714
1204 2 0.260208 0.357934 0.590786
1205 4 0.28563 0.364218 0.584895
3158 4 0.301134 0.376361 0.594305
3157 2 0.325898 0.383505 0.60241
3159 4 0.350661 0.390648 0.610515
3141 4 0.367111 0.388612 0.619334
3139 2 0.391652 0.389248 0.625
3140 4 0.416194 0.389885 0.630667
7 3 0.436896 0.393367 0.626109
6 1 0.45077 0.396827 0.644905
9 3 0.444392 0.377615 0.657909
8 3 0.447451 0.414659 0.656828
10 3 0.473615 0.40151 0.638654
1138 2 0.0158162 0.487501 0.636872
3183 4 0.0220428 0.451608 0.621622
3181 2 0.0470435 0.451814 0.623433
1139 4 0.0140567 0.463407 0.633402
3182 4 0.0720441 0.452019 0.625244
2033 4 0.0798063 0.463928 0.639662
2032 2 0.0967078 0.46181 0.657337
2037 4 0.22123 0.452439 0.661977
4306 2 0.257236 0.452928 0.646668
4307 4 0.231189 0.447543 0.648051
3055 2 0.270415 0.423048 0.590578
4308 4 0.283283 0.458313 0.645284
2106 4 0.295352 0.449061 0.638017
3056 4 0.282454 0.420382 0.611852
2104 2 0.320566 0.457954 0.631549
2105 4 0.345779 0.466847 0.62508
3738 4 0.348647 0.46239 0.606289
3736 2 0.36608 0.458056 0.590357
4411 2 0.474546 0.493427 0.649458
4413 4 0.465625 0.497716 0.627059
2324 4 0.489788 0.416593 0.634746
3003 4 0.00606321 0.055413 0.70532
3420 4 0.000635255 0.00186398 0.697376
3418 2 0.0114632 0.00524588 0.674614
1971 4 0.0351247 0.0283344 0.730659
1969 2 0.0476836 0.0511645 0.739257
3314 4 0.0921267 0.00452307 0.706022
1970 4 0.0602426 0.0739947 0.747855
3313 2 0.116794 0.0180385 0.701206
3315 4 0.141462 0.0315538 0.69639
4181 4 0.172924 0.0775247 0.680932
2240 4 0.184668 0.0734922 0.695713
2239 2 0.209206 0.0826425 0.704109
2596 2 0.288602 0.0679731 0.667846
2598 4 0.275636 0.0552753 0.687402
3457 2 0.386442 0.0389493 0.682525
3459 4 0.403125 0.036238 0.700154
4164 4 0.403414 0.0202295 0.710154
4162 2 0.422955 0.0105063 0.714832
635 4 0.461169 0.0273045 0.745052
634 2 0.477769 0.0184422 0.731925
636 4 0.494368 0.0095798 0.718797
4163 4 0.442496 0.000783094 0.71951
3364 2 0.100722 0.159392 0.675359
1193 4 0.131544 0.148296 0.697448
3365 4 0.123088 0.156273 0.683784
4180 2 0.152786 0.0869748 0.679
4182 4 0.132647 0.096425 0.677067
1192 2 0.156298 0.159329 0.704399
2241 4 0.233745 0.0917929 0.712505
1943 4 0.251555 0.0946898 0.700795
1942 2 0.276544 0.108208 0.697656
1944 4 0.301534 0.121727 0.694517
2199 4 0.318943 0.135214 0.702586
2197 2 0.341409 0.135592 0.713792
2198 4 0.363876 0.135971 0.724998
1259 4 0.383017 0.134548 0.724124
1258 2 0.402199 0.144596 0.740435
3870 4 0.406295 0.118329 0.671946
3868 2 0.428184 0.1179 0.683781
3869 4 0.450073 0.117472 0.695615
845 4 0.0171875 0.179303 0.677406
2265 4 0.0300869 0.23196 0.732953
3305 4 0.0483273 0.233877 0.723812
2263 2 0.00500046 0.218418 0.730608
3304 2 0.062649 0.218924 0.717317
3306 4 0.0769706 0.20397 0.710822
2567 4 0.0902369 0.219433 0.699453
2566 2 0.115717 0.22125 0.698442
2568 4 0.141198 0.223067 0.697432
1194 4 0.181052 0.170363 0.71135
3379 2 0.200468 0.248716 0.686075
3380 4 0.216935 0.241709 0.701195
1184 4 0.197467 0.17857 0.723749
1183 2 0.219018 0.174184 0.714746
1185 4 0.240569 0.169798 0.705743
3476 4 0.254282 0.168986 0.692346
3477 4 0.289603 0.204955 0.667389
3475 2 0.271942 0.18697 0.679867
3104 4 0.288403 0.191081 0.733868
3387 4 0.273685 0.184755 0.746561
3103 2 0.313744 0.192327 0.732915
3105 4 0.339085 0.193574 0.731962
3282 4 0.351181 0.204177 0.717554
3280 2 0.377182 0.211331 0.720454
3281 4 0.403182 0.218485 0.723354
444 4 0.401875 0.215609 0.743451
3381 4 0.184 0.255723 0.670954
1089 4 0.39491 0.290399 0.701773
1087 2 0.419813 0.296942 0.694083
1088 4 0.444716 0.303484 0.686392
3295 2 0.449976 0.318989 0.74779
2414 4 0.460784 0.320701 0.690887
3296 4 0.475576 0.323122 0.7437
1078 2 0.487317 0.303278 0.668317
1215 4 0.494196 0.333438 0.735069
289 2 0.218936 0.348928 0.674975
290 4 0.219179 0.363784 0.694608
3165 4 0.227359 0.355173 0.709599
3163 2 0.229475 0.342106 0.730005
3152 4 0.44031 0.392315 0.723412
3151 2 0.440622 0.39062 0.69848
3153 4 0.440933 0.388926 0.673548
2858 4 0.436056 0.399599 0.740088
2415 4 0.47306 0.369978 0.698857
2413 2 0.466922 0.345339 0.694872
3264 4 0.115237 0.442113 0.681328
2034 4 0.113609 0.459692 0.675011
4577 4 0.118225 0.476541 0.739907
4576 2 0.139253 0.469474 0.733893
3262 2 0.133383 0.430268 0.678354
2035 2 0.195771 0.442184 0.66684
2036 4 0.170313 0.431929 0.671702
4578 4 0.16028 0.462407 0.72788
4062 4 0.174637 0.471924 0.713575
3263 4 0.15153 0.418423 0.67538
4060 2 0.197004 0.487047 0.704414
1019 4 0.235341 0.497251 0.68578
4296 4 0.301877 0.498931 0.685003
3071 4 0.46108 0.420654 0.670854
4412 4 0.483467 0.489139 0.671856
3070 2 0.46858 0.445367 0.67465
3072 4 0.47608 0.47008 0.678445
2949 4 0.0796795 0.0828627 0.756874
3252 4 0.40651 0.00225345 0.823316
2947 2 0.0947752 0.0903598 0.77702
2948 4 0.109871 0.097857 0.797167
471 4 0.177745 0.151709 0.805516
209 3 0.178772 0.140843 0.823125
469 2 0.20126 0.158509 0.79453
470 4 0.224775 0.165309 0.783544
1260 4 0.421381 0.154643 0.756747
2135 4 0.438502 0.157949 0.812765
825 4 0.449138 0.146484 0.819844
2134 2 0.431649 0.164714 0.790419
823 2 0.474094 0.147778 0.815308
824 4 0.499051 0.149072 0.810772
2796 4 0.0158255 0.24994 0.833519
3386 4 0.237999 0.182627 0.78219
3385 2 0.255842 0.183691 0.764375
1422 4 0.279191 0.240402 0.819367
1420 2 0.256475 0.23177 0.831575
442 2 0.413548 0.214331 0.765311
443 4 0.425221 0.213053 0.787172
2136 4 0.424797 0.171479 0.768073
1155 4 0.00180759 0.312624 0.807842
4520 4 0.0222171 0.321763 0.802816
4519 2 0.0470474 0.330841 0.810437
276 4 0.0847513 0.284079 0.830967
274 2 0.102826 0.282968 0.814094
275 4 0.1209 0.281858 0.797222
261 4 0.190815 0.331791 0.802138
3164 4 0.231591 0.329039 0.75041
260 4 0.229042 0.329898 0.770662
259 2 0.209928 0.330844 0.7864
2988 4 0.293536 0.251893 0.809049
2986 2 0.316714 0.262173 0.798099
1256 4 0.360974 0.285121 0.782986
2987 4 0.339891 0.272452 0.787149
3297 4 0.424377 0.314856 0.75188
1257 4 0.407103 0.301097 0.759534
1255 2 0.384038 0.293109 0.77126
2983 2 0.00203373 0.382492 0.752899
2985 4 0.0253404 0.397178 0.760502
4521 4 0.0718776 0.33992 0.818059
1013 4 0.0938176 0.351293 0.821623
1012 2 0.119558 0.355368 0.818549
1014 4 0.145299 0.359443 0.815475
36 1 0.173638 0.359618 0.802775
40 3 0.152643 0.361518 0.795764
37 3 0.174275 0.359901 0.825771
39 3 0.176445 0.339587 0.795303
38 3 0.191685 0.377426 0.794753
1614 4 0.212559 0.382046 0.798234
1613 4 0.261787 0.399959 0.814737
1612 2 0.237173 0.391003 0.806486
4092 4 0.2819 0.402424 0.814917
4090 2 0.304312 0.413214 0.826967
2859 4 0.425236 0.384342 0.78732
2857 2 0.430646 0.39197 0.763704
1120 2 0.00480188 0.456092 0.814506
3243 4 0.045851 0.459519 0.824734
1122 4 0.0290067 0.453844 0.814315
3241 2 0.071073 0.47277 0.822785
972 4 0.0829675 0.499211 0.787107