ITEM: TIMESTEP
908500
ITEM: NUMBER OF ATOMS
4590
ITEM: BOX BOUNDS xy xz yz pp pp pp
-9.9985700000000008e+00 1.3398083800000009e+01 3.3995138000000082e+00
-9.9985700000000008e+00 9.9985700000000008e+00 0.0000000000000000e+00
-9.9985700000000008e+00 9.9985700000000008e+00 0.0000000000000000e+00
ITEM: ATOMS id type xs ys zs
1286 4 0.0738449 0.0234063 0.00483591
1285 2 0.0493306 0.0226719 0.00064748
484 2 0.105803 0.0290522 0.0199559
485 4 0.117422 0.0427799 0.0355142
1566 4 0.128038 0.048935 0.0502289
486 4 0.0941842 0.0153244 0.00439763
1564 2 0.146557 0.0627109 0.0506828
1565 4 0.165077 0.0764868 0.0511367
4232 4 0.212314 0.0280252 0.0371723
4231 2 0.223498 0.0359582 0.0573014
4233 4 0.234682 0.0438912 0.0774306
55 3 0.251919 0.0679585 0.00864857
53 3 0.260559 0.0303834 0.00783293
3363 4 0.040587 0.130614 0.0109005
3101 4 0.040195 0.127163 0.0300614
3100 2 0.0248873 0.1471 0.0393152
1247 4 0.179978 0.0879842 0.05273
1246 2 0.186735 0.0909942 0.0289962
1248 4 0.193492 0.0940041 0.00526247
1255 2 0.297067 0.087679 0.00582131
1256 4 0.305853 0.107256 0.0155779
2807 4 0.496159 0.143364 0.0141022
3102 4 0.00957949 0.167037 0.0485689
3942 4 0.00296663 0.18226 0.0607583
328 2 0.150771 0.238295 0.065027
330 4 0.142773 0.241684 0.0413921
770 4 0.201145 0.247563 0.00289766
756 4 0.252354 0.181681 0.0830975
2903 4 0.0157081 0.316382 0.0484717
2912 4 0.111343 0.303352 0.034438
11 1 0.114139 0.308884 0.0752878
15 3 0.113493 0.306534 0.0526598
2911 2 0.122996 0.279894 0.0304202
2913 4 0.134649 0.256436 0.0264023
243 4 0.153301 0.321551 0.0122685
241 2 0.174295 0.327947 0.00243629
14 3 0.13475 0.314555 0.0816699
769 2 0.218228 0.260681 0.0118475
771 4 0.235312 0.273799 0.0207973
3082 2 0.2803 0.267079 0.0235592
3083 4 0.255007 0.270563 0.0252671
3084 4 0.305592 0.263596 0.0218512
3632 4 0.321479 0.272341 0.026806
3631 2 0.345682 0.274719 0.0230677
3633 4 0.369886 0.277098 0.0193293
666 4 0.381 0.291857 0.0176555
664 2 0.40231 0.289364 0.0311739
665 4 0.423619 0.286872 0.0446923
1223 4 0.0437507 0.390128 0.0670529
1236 4 0.0528085 0.406312 0.0679103
1234 2 0.0617524 0.416136 0.0475134
535 2 0.189575 0.378313 0.0809559
537 4 0.210677 0.366868 0.0696755
4188 4 0.228339 0.371988 0.0651227
4186 2 0.246972 0.367127 0.0482562
4187 4 0.265604 0.362266 0.0313896
4533 4 0.232337 0.412637 0.0243735
956 4 0.397825 0.366463 0.00362092
1119 4 0.378776 0.36065 0.000771063
2892 4 0.462177 0.401461 0.0657394
2891 4 0.454435 0.377726 0.0233287
2890 2 0.458306 0.389594 0.044534
2358 4 0.480293 0.408804 0.0655256
544 2 0.0437236 0.450226 0.00762467
1235 4 0.0706962 0.425959 0.0271165
546 4 0.0601905 0.444907 0.0264581
3405 4 0.1156 0.444136 0.0508752
3403 2 0.136459 0.45471 0.0510892
3404 4 0.157318 0.465284 0.0513031
3657 4 0.158161 0.466439 0.070974
3655 2 0.183217 0.459978 0.0740571
3656 4 0.208272 0.453517 0.0771402
4532 4 0.211925 0.445461 0.0590613
4531 2 0.222131 0.429049 0.0417174
3783 4 0.158538 0.0169175 0.152061
3905 4 0.166854 0.0264888 0.1372
3904 2 0.191892 0.0258247 0.135342
3906 4 0.216931 0.0251605 0.133485
2781 4 0.22409 0.0321134 0.150367
1449 4 0.389646 0.00422978 0.115894
2944 2 0.451123 0.0158707 0.147964
2945 4 0.438106 0.0133271 0.12704
350 4 0.472106 0.035245 0.166713
3279 4 0.0630606 0.104355 0.140139
3277 2 0.0730605 0.120057 0.154908
827 4 0.201109 0.106929 0.112512
826 2 0.22533 0.109632 0.115478
828 4 0.24955 0.112334 0.118444
915 4 0.266737 0.0994937 0.11659
913 2 0.292074 0.0954928 0.115481
549 4 0.304377 0.151742 0.161228
914 4 0.317411 0.0914919 0.114372
875 4 0.331757 0.0878904 0.10133
874 2 0.349195 0.102018 0.106988
876 4 0.366632 0.116146 0.112646
699 4 0.38564 0.115449 0.105692
697 2 0.409834 0.118464 0.103306
698 4 0.434028 0.121478 0.100921
1124 4 0.451412 0.128318 0.0983348
1123 2 0.476667 0.125916 0.0997666
1765 2 0.400223 0.164546 0.165002
1766 4 0.401613 0.163612 0.140046
2820 4 0.0154184 0.232059 0.118087
2818 2 0.0366566 0.232831 0.105128
2802 4 0.0445287 0.183942 0.153205
530 4 0.0321393 0.201804 0.161407
529 2 0.0100428 0.193572 0.159094
2819 4 0.0578949 0.233603 0.0921695
3344 4 0.0731292 0.239826 0.102851
2800 2 0.0664019 0.181948 0.165754
3991 2 0.114481 0.19764 0.149202
3993 4 0.0980819 0.187871 0.163471
3992 4 0.13088 0.207409 0.134934
329 4 0.15877 0.234906 0.0886618
754 2 0.27127 0.192654 0.0916374
755 4 0.290186 0.203626 0.100177
510 4 0.300325 0.209125 0.116634
518 4 0.310357 0.223386 0.15067
508 2 0.323109 0.216183 0.116267
509 4 0.345892 0.223242 0.115901
303 4 0.365325 0.219491 0.111452
301 2 0.380382 0.201329 0.123783
302 4 0.39544 0.183168 0.136114
2766 4 0.436473 0.240627 0.160243
2763 4 0.417245 0.240313 0.155461
558 4 0.0182123 0.275116 0.152976
2849 4 0.0085579 0.25976 0.155586
13 3 0.0964696 0.325271 0.0822413
556 2 0.0386365 0.281341 0.141799
12 3 0.111824 0.288949 0.0852473
557 4 0.0590607 0.287566 0.130621
2567 4 0.0544434 0.306362 0.131236
2566 2 0.0684985 0.3114 0.111808
3343 2 0.087277 0.256824 0.096068
2568 4 0.0825536 0.316437 0.0923797
3345 4 0.101425 0.273822 0.0892852
2717 4 0.149444 0.325231 0.0868701
2716 2 0.172888 0.314933 0.0938344
2673 4 0.187631 0.301614 0.118301
2718 4 0.196332 0.304635 0.100799
2671 2 0.198711 0.292223 0.139445
2672 4 0.209791 0.282831 0.160588
429 4 0.423235 0.308452 0.159957
2764 2 0.44758 0.25087 0.141396
2765 4 0.458686 0.261113 0.12255
1222 2 0.0446682 0.376518 0.0879814
1224 4 0.0455856 0.362909 0.10891
536 4 0.168474 0.389757 0.0922364
2450 4 0.166927 0.406394 0.103929
3408 4 0.320008 0.395292 0.127812
3406 2 0.336322 0.382229 0.143809
3407 4 0.352636 0.369165 0.159806
2813 4 0.382145 0.4066 0.107403
2812 2 0.401719 0.412902 0.120022
659 4 0.459224 0.393778 0.152033
2706 4 0.478921 0.382175 0.151901
2704 2 0.493625 0.389361 0.134015
658 2 0.437197 0.392353 0.163313
3517 2 0.0212211 0.465374 0.112391
1591 2 0.0260559 0.491625 0.16474
3519 4 0.0448558 0.465139 0.10412
1593 4 0.0507821 0.485941 0.159416
2449 2 0.145631 0.418998 0.0939536
2451 4 0.124336 0.431602 0.0839784
3258 4 0.124913 0.483369 0.125617
3256 2 0.14437 0.495135 0.120487
3534 4 0.181608 0.497406 0.120008
2583 4 0.331039 0.458498 0.094578
2582 4 0.37215 0.423436 0.100556
2581 2 0.351594 0.440967 0.0975669
2814 4 0.421293 0.419204 0.132641
362 4 0.429024 0.435681 0.139899
2356 2 0.47733 0.425464 0.0841701
361 2 0.445184 0.446534 0.126364
363 4 0.461344 0.457387 0.112828
2357 4 0.474367 0.442124 0.102815
316 2 0.0523163 0.00752948 0.173578
318 4 0.0747723 0.0152669 0.173083
4507 2 0.137977 0.00303009 0.229945
3662 4 0.0926373 0.0150578 0.185057
3661 2 0.101813 0.034506 0.194604
3663 4 0.110989 0.0539541 0.204152
4509 4 0.156296 0.0170412 0.22934
2547 4 0.168964 0.0303949 0.224912
2545 2 0.192028 0.0347943 0.218683
2546 4 0.215092 0.0391936 0.212453
2779 2 0.227159 0.034572 0.175004
2780 4 0.230229 0.0370306 0.19964
2745 4 0.437305 0.0211818 0.242799
2946 4 0.464141 0.0184144 0.168888
349 2 0.472073 0.0525927 0.184482
351 4 0.47204 0.0699404 0.202251
3278 4 0.0830603 0.135759 0.169676
2759 4 0.0792391 0.121429 0.228652
2758 2 0.0938187 0.136756 0.238395
2760 4 0.108398 0.152084 0.248138
450 4 0.242866 0.137551 0.231815
448 2 0.245785 0.153774 0.213655
547 2 0.285206 0.163793 0.174894
2895 4 0.254001 0.140117 0.247801
2933 4 0.321037 0.152328 0.170582
2932 2 0.340542 0.140258 0.183806
2934 4 0.360048 0.128188 0.197029
1767 4 0.398832 0.165481 0.189958
2801 4 0.0882752 0.179955 0.178303
548 4 0.266035 0.175844 0.188561
449 4 0.248703 0.169996 0.195495
517 2 0.310211 0.233079 0.173669
2476 2 0.3027 0.232527 0.232395
519 4 0.310065 0.242772 0.196669
2478 4 0.30585 0.250344 0.215977
343 2 0.354576 0.225106 0.208739
345 4 0.351191 0.214253 0.230649
2955 4 0.361014 0.197243 0.237092
344 4 0.357961 0.23596 0.186829
2762 4 0.377102 0.230205 0.180882
2477 4 0.29955 0.21471 0.248813
2761 2 0.397173 0.235259 0.168172
2513 4 0.427125 0.321591 0.249501
427 2 0.439766 0.315696 0.175994
2512 2 0.443408 0.322471 0.230676
428 4 0.456297 0.322939 0.192032
2936 4 0.463002 0.266779 0.244055
103 3 0.468594 0.331192 0.17976
620 4 0.476675 0.269383 0.230825
619 2 0.490201 0.284558 0.219184
2514 4 0.459691 0.323351 0.211852
2837 4 0.273498 0.345829 0.247845
3608 4 0.3544 0.379175 0.177139
660 4 0.41517 0.390927 0.174593
3607 2 0.376171 0.387304 0.181943
3609 4 0.397941 0.395432 0.186748
749 4 0.499894 0.370308 0.192779
105 3 0.472426 0.335859 0.216834
101 1 0.483364 0.334709 0.196785
1912 2 0.469185 0.393424 0.242728
102 3 0.490961 0.354554 0.192918
1914 4 0.490929 0.402307 0.24038
1913 4 0.44744 0.384542 0.245075
4367 4 0.00733372 0.425049 0.200082
1592 4 0.00132972 0.49731 0.170064
4366 2 0.0246354 0.438784 0.192944
4368 4 0.041937 0.452518 0.185807
587 4 0.0600411 0.441413 0.191024
586 2 0.0756712 0.457846 0.187059
588 4 0.0913013 0.474279 0.183094
702 4 0.104252 0.485897 0.175201
700 2 0.125009 0.496596 0.176239
2565 4 0.25292 0.440105 0.208905
2563 2 0.266858 0.456428 0.217818
2564 4 0.280795 0.472751 0.226731
1758 4 0.279173 0.471573 0.246843
354 4 0.182418 0.0531993 0.319293
705 4 0.172071 0.038314 0.320332
352 2 0.205859 0.0485596 0.328807
3741 4 0.311916 0.00206246 0.313271
389 4 0.311729 0.0195272 0.323793
3681 4 0.440621 0.0658769 0.272953
3679 2 0.446407 0.0423979 0.264544
3680 4 0.452194 0.018919 0.256136
692 4 0.12225 0.139554 0.259097
691 2 0.130984 0.144694 0.281601
693 4 0.139719 0.149834 0.304105
279 4 0.157596 0.156334 0.306673
277 2 0.181181 0.156881 0.298659
278 4 0.204767 0.157428 0.290645
2894 4 0.221149 0.145084 0.2859
2893 2 0.237575 0.142601 0.26685
3252 4 0.391795 0.118773 0.282143
3250 2 0.414176 0.111589 0.293362
3251 4 0.436556 0.104404 0.304581
762 4 0.449411 0.108145 0.318076
760 2 0.473824 0.100407 0.323713
761 4 0.498237 0.0926683 0.329351
2907 4 0.0542503 0.208226 0.269767
2905 2 0.0715729 0.221419 0.278034
2906 4 0.0888955 0.234612 0.286301
1464 4 0.0894732 0.245791 0.303092
1516 2 0.22636 0.205184 0.32122
1517 4 0.2408 0.204324 0.300723
2615 4 0.259351 0.21046 0.299415
2614 2 0.279167 0.210422 0.284159
2499 4 0.281773 0.249294 0.261179
2616 4 0.298984 0.210383 0.268902
2954 4 0.330888 0.18336 0.272486
2953 2 0.345951 0.190302 0.254789
339 4 0.315795 0.241382 0.312154
261 4 0.324489 0.242152 0.330643
337 2 0.336282 0.247856 0.301325
505 2 0.394791 0.245136 0.302934
2612 4 0.414257 0.215659 0.328375
506 4 0.414217 0.231232 0.314796
2611 2 0.43961 0.212121 0.328238
2613 4 0.464963 0.208584 0.328101
423 4 0.469586 0.220911 0.314667
421 2 0.493464 0.221676 0.307724
2637 4 0.0414017 0.328429 0.331273
1462 2 0.101664 0.252651 0.323085
2635 2 0.0664513 0.325888 0.32771
1586 4 0.111751 0.314486 0.320423
2636 4 0.0915009 0.323347 0.324148
1585 2 0.128935 0.317931 0.303173
1587 4 0.146118 0.321377 0.285923
561 4 0.159927 0.311464 0.272616
559 2 0.184017 0.314166 0.27652
560 4 0.208106 0.316867 0.280424
2497 2 0.275555 0.270749 0.273759
2838 4 0.275355 0.301365 0.270007
2498 4 0.269337 0.292204 0.28634
2836 2 0.274427 0.323597 0.258926
338 4 0.356769 0.254329 0.290496
507 4 0.375364 0.259039 0.291071
290 4 0.437026 0.307676 0.313373
289 2 0.44482 0.328917 0.32
3193 2 0.498181 0.293039 0.296459
2935 2 0.465534 0.266251 0.268933
2937 4 0.468067 0.265722 0.293812
3195 4 0.481834 0.277339 0.292325
1787 4 0.0692299 0.4021 0.274374
291 4 0.452613 0.350159 0.326628
287 4 0.472497 0.343771 0.326632
286 2 0.495998 0.34715 0.320791
2539 2 0.0274364 0.47496 0.281271
2541 4 0.0109601 0.495968 0.277111
1788 4 0.0420463 0.44759 0.26709
2540 4 0.0439126 0.453952 0.285432
1786 2 0.0556381 0.424845 0.270732
1756 2 0.277406 0.491537 0.261808
597 4 0.403787 0.496646 0.279935
595 2 0.408955 0.486462 0.302511
596 4 0.414122 0.476278 0.325087
2642 4 0.0227708 0.060136 0.334132
2641 2 0.0457581 0.0659668 0.338158
3722 4 0.00501808 0.0603095 0.342
2643 4 0.0687454 0.0717976 0.342184
703 2 0.152537 0.0402842 0.336227
1182 4 0.0812222 0.0191441 0.360185
1180 2 0.0975561 0.0350352 0.356972
1181 4 0.11389 0.0509263 0.353758
704 4 0.133002 0.0422543 0.352123
353 4 0.229301 0.0439198 0.338321
390 4 0.323621 0.0348809 0.369122
388 2 0.317675 0.027204 0.346457
468 4 0.328078 0.0515581 0.376036
466 2 0.3356 0.0738566 0.375978
2943 4 0.0837065 0.0815792 0.34639
2941 2 0.0999681 0.093264 0.358867
2942 4 0.11623 0.104949 0.371344
2831 4 0.137827 0.102437 0.37192
2830 2 0.159992 0.110652 0.370313
2832 4 0.182156 0.118867 0.368706
2627 4 0.196998 0.131078 0.371327
1200 4 0.173404 0.164602 0.372239
2626 2 0.221346 0.123501 0.365329
790 2 0.15762 0.160729 0.399975
792 4 0.162438 0.149383 0.377882
2628 4 0.245695 0.115923 0.359331
467 4 0.343121 0.0961552 0.375919
1518 4 0.21192 0.206045 0.341717
1198 2 0.190315 0.177868 0.363189
1199 4 0.207226 0.191133 0.354139
2528 4 0.222518 0.204911 0.406483
372 4 0.296999 0.245442 0.390608
676 2 0.357548 0.197556 0.409929
677 4 0.338241 0.184787 0.410845
259 2 0.316953 0.247306 0.354186
678 4 0.376855 0.210326 0.409013
3050 4 0.32767 0.170074 0.415058
1398 4 0.453307 0.196979 0.364595
1396 2 0.471656 0.205843 0.376939
1397 4 0.490004 0.214706 0.389284
3059 4 0.00685263 0.311333 0.410127
2739 4 0.0223042 0.329225 0.334346
3887 4 0.00895684 0.269558 0.362889
2737 2 0.0019933 0.320219 0.342532
3058 2 0.0314549 0.301648 0.412229
3060 4 0.0560571 0.291964 0.41433
1463 4 0.113854 0.259512 0.343078
2685 4 0.060588 0.306101 0.401687
2683 2 0.0778809 0.318516 0.391962
2684 4 0.0951738 0.33093 0.382237
3438 4 0.186837 0.292527 0.411246
3436 2 0.210384 0.280377 0.407234
370 2 0.274263 0.253669 0.400717
371 4 0.251526 0.261896 0.410825
3437 4 0.23393 0.268226 0.403221
260 4 0.309416 0.25246 0.377728
2852 4 0.492075 0.285598 0.370521
3071 4 0.0123042 0.376849 0.34938
2463 4 0.0104855 0.383654 0.402011
3070 2 0.0365884 0.37936 0.346509
3072 4 0.0608725 0.381871 0.343639
585 4 0.0764179 0.392455 0.348166
583 2 0.0793724 0.390905 0.372977
584 4 0.0823269 0.389356 0.397787
2537 4 0.0714446 0.385009 0.41376
2536 2 0.0474451 0.381201 0.415556
1151 4 0.481481 0.342426 0.393298
315 4 0.426422 0.488459 0.33459
1431 4 0.488535 0.495301 0.347167
314 4 0.471818 0.490061 0.3549
2345 4 0.435453 0.42908 0.367187
313 2 0.44912 0.48926 0.344745
2344 2 0.449684 0.443355 0.379183
1161 4 0.467851 0.448681 0.409551
2346 4 0.463916 0.457631 0.39118
3488 4 0.0238376 0.0342291 0.417404
3487 2 0.0475384 0.0390237 0.418488
3489 4 0.0712392 0.0438184 0.419572
1427 4 0.0825297 0.0291139 0.431699
1426 2 0.101958 0.0224808 0.447393
1428 4 0.121385 0.0158476 0.463086
2658 4 0.135169 0.0219147 0.496782
3138 4 0.353516 0.0416414 0.453222
3136 2 0.368691 0.0549025 0.465286
3137 4 0.383866 0.0681637 0.477351
2333 4 0.398071 0.0600722 0.490323
2114 4 0.0182255 0.109701 0.478668
2113 2 0.0373034 0.114435 0.493071
716 4 0.374158 0.153077 0.466893
3049 2 0.327464 0.165866 0.439687
3051 4 0.327257 0.161658 0.464317
715 2 0.393141 0.160732 0.454437
802 2 0.0104268 0.184061 0.441893
397 2 0.0275918 0.238599 0.449837
804 4 0.0321779 0.191918 0.436374
513 4 0.0488106 0.17912 0.439005
399 4 0.00371521 0.234485 0.451908
398 4 0.0514683 0.242712 0.447765
511 2 0.0663585 0.191984 0.430624
1034 4 0.0737366 0.241265 0.447087
512 4 0.0839063 0.204848 0.422242
576 4 0.0997038 0.198371 0.434223
574 2 0.123694 0.187258 0.43786
791 4 0.152802 0.172075 0.422068
575 4 0.147684 0.176146 0.441498
1179 4 0.189952 0.233663 0.494084
696 4 0.180019 0.218508 0.489269
2527 2 0.229312 0.210157 0.429691
2529 4 0.236105 0.215403 0.452899
2727 4 0.255618 0.210147 0.450679
2725 2 0.274421 0.223247 0.454044
2726 4 0.293224 0.236347 0.457409
2720 4 0.298582 0.247446 0.471379
3080 4 0.328883 0.166512 0.483219
3026 4 0.368223 0.24245 0.477427
3079 2 0.346762 0.176791 0.494809
2719 2 0.323705 0.243615 0.474785
2721 4 0.348829 0.239785 0.478191
717 4 0.412123 0.168388 0.44198
3025 2 0.392321 0.230819 0.478173
3027 4 0.416419 0.219187 0.478919
504 4 0.420156 0.172649 0.459576
502 2 0.438436 0.186239 0.45551
503 4 0.456716 0.19983 0.451444
382 2 0.499581 0.201271 0.448541
383 4 0.476434 0.195119 0.447102
1033 2 0.0932056 0.253704 0.444935
1035 4 0.112675 0.266143 0.442784
471 4 0.129828 0.276771 0.442455
470 4 0.172808 0.283993 0.420224
469 2 0.151318 0.280382 0.43134
805 2 0.240336 0.299064 0.49411
807 4 0.264597 0.292207 0.487417
3821 4 0.276062 0.298398 0.47312
806 4 0.216076 0.305921 0.500803
3822 4 0.322118 0.310165 0.465852
3820 2 0.29909 0.304282 0.469486
984 4 0.340999 0.304026 0.470924
982 2 0.364028 0.305004 0.461639
983 4 0.387057 0.305983 0.452355
2973 4 0.405017 0.297768 0.463278
2971 2 0.416153 0.27743 0.450925
2972 4 0.427288 0.257093 0.438572
2538 4 0.0234456 0.377393 0.417351
1172 4 0.439058 0.367066 0.493445
4081 2 0.480094 0.389689 0.43281
4082 4 0.461532 0.38545 0.448152
1173 4 0.441718 0.387643 0.448286
4083 4 0.498656 0.393928 0.417467
1171 2 0.440388 0.377354 0.470866
2355 4 0.219747 0.494296 0.425186
1975 2 0.212819 0.439448 0.479901
2353 2 0.221487 0.470737 0.433251
2354 4 0.223228 0.447178 0.441315
1977 4 0.214895 0.437358 0.455044
4067 4 0.313621 0.416969 0.493184
2045 4 0.333969 0.419431 0.4898
1544 4 0.351387 0.498665 0.475415
3708 4 0.352209 0.490896 0.494631
2044 2 0.344446 0.439291 0.496033
3770 4 0.417634 0.468388 0.498079
1160 4 0.469087 0.469703 0.45467
3430 2 0.452224 0.473604 0.486876
3431 4 0.467471 0.482351 0.470486
1159 2 0.468469 0.459192 0.432111
1142 4 0.00991964 0.00764027 0.575639
3159 4 0.0273819 0.011008 0.568588
3157 2 0.043324 0.0227328 0.555702
3158 4 0.0592661 0.0344577 0.542817
1025 4 0.073882 0.0332108 0.529664
1024 2 0.0949477 0.0300824 0.515745
1026 4 0.116013 0.026954 0.501826
2656 2 0.159995 0.0200444 0.501368
2657 4 0.184821 0.0181741 0.505953
217 3 0.276405 0.0253481 0.565569
216 1 0.294242 0.0265373 0.579793
219 3 0.310192 0.0366576 0.568669
4137 4 0.326997 0.0293204 0.580854
4135 2 0.343246 0.0438231 0.572813
4136 4 0.359495 0.0583257 0.564773
3714 4 0.377737 0.0654255 0.567809
3712 2 0.39013 0.082582 0.577631
2931 4 0.414142 0.0126362 0.53206
2332 2 0.409171 0.044985 0.508343
2334 4 0.420271 0.0298978 0.526362
2115 4 0.0563813 0.11917 0.507474
3467 4 0.0613126 0.135232 0.515923
3466 2 0.0785991 0.14605 0.527854
3468 4 0.0958857 0.156869 0.539786
4227 4 0.254431 0.145704 0.573967
1217 4 0.272076 0.14805 0.562671
1216 2 0.294056 0.149328 0.574111
799 2 0.022086 0.234333 0.565355
801 4 0.0459799 0.235244 0.572137
374 4 0.0605422 0.246747 0.573832
891 4 0.0764584 0.215019 0.519446
373 2 0.0846402 0.247963 0.568088
889 2 0.101463 0.20862 0.515948
890 4 0.126467 0.202222 0.512451
375 4 0.108738 0.249179 0.562344
695 4 0.146533 0.200841 0.518547
694 2 0.163276 0.209674 0.503908
1260 4 0.150965 0.196502 0.57292
1177 2 0.2135 0.234978 0.501722
1178 4 0.237048 0.236294 0.50936
3162 4 0.253725 0.244577 0.514729
3160 2 0.278279 0.243544 0.520191
3081 4 0.364641 0.18707 0.5064
3161 4 0.302833 0.242512 0.525653
1031 4 0.384276 0.182676 0.513383
3221 4 0.322385 0.241835 0.521954
3220 2 0.344166 0.244806 0.532893
3222 4 0.365948 0.247777 0.543832
4515 4 0.385068 0.246353 0.533776
1030 2 0.408009 0.181745 0.521663
1032 4 0.431741 0.180813 0.529943
239 4 0.445709 0.190154 0.537286
238 2 0.468864 0.195455 0.532995
240 4 0.492018 0.200756 0.528705
728 4 0.11401 0.2604 0.545987
816 4 0.109648 0.310553 0.562834
814 2 0.0972154 0.332107 0.571984
727 2 0.138834 0.261352 0.545951
729 4 0.163657 0.262303 0.545915
711 4 0.176718 0.275271 0.544479
709 2 0.190953 0.287249 0.52975
710 4 0.205188 0.299228 0.515021
4513 2 0.407861 0.252285 0.528929
4514 4 0.430653 0.258218 0.524081
2751 4 0.445386 0.257203 0.53642
2749 2 0.466618 0.263505 0.545802
2750 4 0.487851 0.269807 0.555184
3266 4 0.49556 0.27328 0.536339
815 4 0.0847829 0.353661 0.581134
499 2 0.241737 0.399582 0.549146
501 4 0.262268 0.384602 0.55794
500 4 0.221205 0.414561 0.540353
3114 4 0.28082 0.388178 0.559883
4068 4 0.271655 0.417898 0.520606
3112 2 0.299614 0.399244 0.56856
4066 2 0.292638 0.417433 0.506895
3113 4 0.318408 0.410309 0.577237
663 4 0.428979 0.366524 0.511702
3434 4 0.483836 0.343275 0.512355
662 4 0.474815 0.34892 0.530548
661 2 0.451897 0.357722 0.521125
3987 4 0.226035 0.430898 0.531627
1976 4 0.210743 0.441538 0.504758
3985 2 0.235537 0.452179 0.532046
3986 4 0.245038 0.47346 0.532465
879 4 0.177477 0.497933 0.575859
2678 4 0.257788 0.485771 0.529539
2677 2 0.279319 0.49334 0.536413
3707 4 0.317848 0.49777 0.531396
3706 2 0.335028 0.494333 0.513013
2046 4 0.354923 0.459152 0.502267
3771 4 0.373924 0.453509 0.509963
3769 2 0.395779 0.460948 0.504021
3432 4 0.436976 0.464858 0.503266
1162 2 0.0243646 0.0784766 0.659912
1164 4 0.0106358 0.0807317 0.638889
3003 4 0.154566 0.066389 0.653635
225 3 0.210369 0.0604202 0.656639
3272 4 0.214527 0.077501 0.665287
223 3 0.172557 0.0676515 0.661842
3271 2 0.235004 0.0759955 0.650659
1994 4 0.320049 0.0123998 0.588521
3273 4 0.255482 0.07449 0.636031
1925 4 0.284183 0.02491 0.612459
220 3 0.286464 0.0388034 0.598118
1924 2 0.282869 0.00760171 0.629994
1470 4 0.271701 0.0604621 0.638229
1468 2 0.296794 0.0598744 0.637807
218 3 0.303835 0.00503825 0.58619
1469 4 0.321887 0.0592866 0.637385
2258 4 0.338291 0.0528627 0.649171
2602 2 0.39325 0.00517454 0.607234
2603 4 0.415145 0.0139988 0.607346
3462 4 0.432275 0.0216968 0.608361
3460 2 0.45041 0.0358159 0.606322
3461 4 0.468545 0.0499349 0.604283
1261 2 0.0301709 0.133518 0.630204
1262 4 0.055127 0.133639 0.631361
1263 4 0.00521493 0.133397 0.629047
1086 4 0.0699182 0.142315 0.623207
726 4 0.0692563 0.107295 0.649336
1084 2 0.0922094 0.149473 0.627826
1085 4 0.114501 0.15663 0.632445
2508 4 0.134467 0.154056 0.639741
2506 2 0.157107 0.161251 0.64173
4225 2 0.237981 0.158196 0.590212
1218 4 0.316035 0.150607 0.585551
3713 4 0.402522 0.0997385 0.587453
4283 4 0.411479 0.112814 0.598421
4282 2 0.432794 0.122594 0.599681
4284 4 0.454108 0.132373 0.600941
3374 4 0.46543 0.146242 0.607655
978 4 0.48121 0.0926065 0.664533
3373 2 0.480089 0.158957 0.621094
1284 4 0.000104397 0.252279 0.638338
667 2 0.121975 0.20963 0.652549
668 4 0.133978 0.192172 0.637096
1259 4 0.135065 0.20344 0.620205
641 4 0.195195 0.177916 0.650169
1258 2 0.143015 0.199971 0.596563
2507 4 0.179748 0.168446 0.643719
640 2 0.218333 0.178837 0.64113
4226 4 0.221532 0.170688 0.606456
642 4 0.241472 0.179757 0.632092
3420 4 0.259042 0.18689 0.637297
3418 2 0.279039 0.179392 0.622518
516 4 0.293389 0.199226 0.659893
3419 4 0.299036 0.171895 0.607739
3558 4 0.315921 0.168708 0.597179
3556 2 0.337871 0.171974 0.607573
3557 4 0.359821 0.17524 0.617966
2319 4 0.371758 0.175187 0.632759
2317 2 0.394067 0.177836 0.642767
2318 4 0.416376 0.180486 0.652776
3375 4 0.494747 0.171671 0.634534
2916 4 0.0140982 0.262651 0.645702
2914 2 0.0385787 0.263146 0.650339
2915 4 0.0630592 0.263642 0.654976
1136 4 0.175851 0.301404 0.584738
796 2 0.121686 0.325157 0.640649
797 4 0.12895 0.304545 0.627004
1137 4 0.141516 0.289514 0.616949
1135 2 0.158683 0.295459 0.600843
3249 4 0.306107 0.317358 0.633846
3247 2 0.296968 0.321416 0.657026
1166 4 0.319916 0.327573 0.625313
3324 4 0.407903 0.329987 0.606131
2847 4 0.494771 0.252215 0.633713
2846 4 0.488084 0.281337 0.593098
2845 2 0.491428 0.266776 0.613406
3263 4 0.497986 0.296929 0.593567
4195 2 0.0149883 0.376718 0.655976
4196 4 0.0360954 0.384471 0.663864
4086 4 0.0529042 0.390113 0.654824
4084 2 0.0719306 0.373794 0.645092
4085 4 0.090957 0.357474 0.635359
798 4 0.114423 0.345769 0.654294
3384 4 0.167341 0.402942 0.643078
3318 4 0.18863 0.369095 0.615072
3316 2 0.210326 0.376608 0.608671
3317 4 0.232021 0.384121 0.60227
3372 4 0.24738 0.389875 0.613079
3370 2 0.268393 0.399607 0.61716
3371 4 0.289406 0.409339 0.621241
8 3 0.307259 0.411879 0.629011
1165 2 0.333782 0.342852 0.614328
1167 4 0.347649 0.358131 0.603344
10 3 0.324115 0.413956 0.595586
3323 4 0.365338 0.363751 0.603993
3322 2 0.386621 0.346869 0.605062
4316 4 0.355227 0.415635 0.617967
3328 2 0.499183 0.383303 0.642509
3330 4 0.485069 0.388714 0.663048
2385 4 0.135365 0.458491 0.606377
3382 2 0.156405 0.423072 0.630293
2383 2 0.140154 0.48132 0.611748
3383 4 0.145468 0.443203 0.617507
9 3 0.306862 0.445566 0.61224
6 1 0.319344 0.424395 0.615603
7 3 0.339312 0.426452 0.626191
4315 2 0.37699 0.42465 0.616852
929 4 0.417837 0.428459 0.608629
4317 4 0.398752 0.433664 0.615737
1334 4 0.420415 0.48518 0.630509
1333 2 0.428119 0.476746 0.653197
928 2 0.437998 0.440083 0.608759
930 4 0.458159 0.451706 0.60889
3239 4 0.467671 0.445879 0.592152
3238 2 0.488448 0.456472 0.593958
2996 4 0.0526637 0.062646 0.687275
1163 4 0.0380934 0.0762215 0.680936
2995 2 0.077289 0.0545115 0.68294
2997 4 0.101914 0.0463769 0.678605
3002 4 0.119835 0.0509691 0.683092
3001 2 0.137201 0.058679 0.668363
2375 4 0.153622 0.00169647 0.717601
222 3 0.193442 0.0368069 0.676559
221 1 0.193315 0.0589196 0.671363
224 3 0.196499 0.070452 0.69083
2460 4 0.214191 0.0773606 0.686018
1128 4 0.204942 0.0135213 0.737335
1126 2 0.228034 0.0198766 0.736659
2458 2 0.228722 0.0763092 0.706466
3085 2 0.285905 0.00172434 0.719142
2459 4 0.243253 0.0752577 0.726913
1127 4 0.251127 0.0262318 0.735983
3086 4 0.269717 0.0219182 0.726536
3377 4 0.311205 0.0832701 0.736488
2257 2 0.350038 0.0438733 0.670145
2259 4 0.361786 0.0348838 0.691119
918 4 0.376047 0.0250305 0.702444
916 2 0.394301 0.036006 0.712441
3236 4 0.477837 0.0802509 0.678212
3237 4 0.43945 0.0544972 0.675271
917 4 0.412555 0.0469815 0.722438
3234 4 0.429188 0.0366644 0.733552
3232 2 0.451564 0.038403 0.723152
3235 2 0.458644 0.0673741 0.676741
3233 4 0.473939 0.0401417 0.712752
3132 4 0.487393 0.0532295 0.719192
1080 4 0.0388303 0.154952 0.742239
724 2 0.0837659 0.110636 0.669001
725 4 0.0982754 0.113977 0.688665
4500 4 0.135496 0.118453 0.745422
4164 4 0.152417 0.124114 0.73877
4162 2 0.174741 0.12127 0.726936
4163 4 0.197066 0.118427 0.715102
1133 4 0.249824 0.0920745 0.724148
1132 2 0.274135 0.0950383 0.724916
1134 4 0.298447 0.0980022 0.725685
3378 4 0.360986 0.0816859 0.729647
3376 2 0.336096 0.082478 0.733068
4354 2 0.496273 0.141744 0.728095
976 2 0.485958 0.11091 0.679645
977 4 0.490707 0.129213 0.694758
1078 2 0.016132 0.167181 0.735137
3098 4 0.0444863 0.22468 0.680678
669 4 0.109972 0.227088 0.668001
3097 2 0.0695002 0.224616 0.680519
3099 4 0.0945141 0.224552 0.68036
1201 2 0.279782 0.236799 0.680213
1203 4 0.281342 0.215003 0.668149
515 4 0.331028 0.172611 0.68627
514 2 0.312209 0.185918 0.673081
4329 4 0.331742 0.186121 0.700191
4327 2 0.349157 0.198218 0.710177
4328 4 0.366572 0.210314 0.720164
3359 4 0.384169 0.202873 0.731053
3358 2 0.404146 0.212869 0.723607
3360 4 0.424122 0.222865 0.716161
830 4 0.441215 0.21668 0.70534
829 2 0.46317 0.220778 0.715101
831 4 0.485125 0.224876 0.724863
4251 4 0.0359974 0.269378 0.715671
4249 2 0.0435255 0.286593 0.730487
4250 4 0.0510536 0.303809 0.745303
863 4 0.120723 0.260522 0.701657
1028 4 0.0682407 0.31253 0.741767
1027 2 0.0892664 0.322154 0.74613
1029 4 0.110292 0.331777 0.750492
862 2 0.132732 0.275368 0.687744
864 4 0.144742 0.290214 0.673832
1202 4 0.278222 0.258595 0.692276
3751 2 0.244955 0.262432 0.721631
3753 4 0.261168 0.26485 0.703111
3752 4 0.228742 0.260015 0.740151
3248 4 0.28783 0.325474 0.680206
1208 4 0.00778707 0.411043 0.749722
1008 4 0.100349 0.357709 0.665873
2242 2 0.0544239 0.409765 0.725839
2243 4 0.0503792 0.40179 0.748913
1006 2 0.111633 0.363058 0.687037
1007 4 0.122918 0.368408 0.7082
941 4 0.21367 0.343082 0.739975
1270 2 0.316014 0.341585 0.701388
1272 4 0.295969 0.341651 0.686429
1271 4 0.33606 0.341519 0.716348
893 4 0.350413 0.348144 0.726817
1130 4 0.28198 0.374488 0.750654
3476 4 0.00993353 0.477978 0.713793
3475 2 0.0235295 0.496037 0.709177
2244 4 0.0584685 0.41774 0.702765
774 4 0.0462777 0.489687 0.747622
2590 2 0.144262 0.43059 0.739253
2360 4 0.168819 0.48517 0.716624
2592 4 0.161126 0.432725 0.721257
3038 4 0.127187 0.468737 0.750661
1335 4 0.435824 0.468312 0.675884
2217 4 0.452946 0.475572 0.676343
2215 2 0.474585 0.482338 0.684093
2216 4 0.496224 0.489104 0.691844
2978 4 0.0210233 0.0371228 0.762576
1065 4 0.0382495 0.0305514 0.774265
1063 2 0.0594574 0.0364493 0.784119
3357 4 0.0686191 0.0675599 0.828621
2977 2 0.00323745 0.0237307 0.76916
3393 4 0.0487517 0.0820067 0.767091
1064 4 0.0806653 0.0423472 0.793973
2998 2 0.145055 0.0542889 0.80851
2999 4 0.141037 0.0309527 0.812615
3486 4 0.153351 0.0204509 0.826407
3000 4 0.149074 0.077625 0.804404
3484 2 0.169072 0.000199857 0.818388
3020 4 0.21356 0.0557259 0.788566
3019 2 0.236407 0.0552585 0.77824
3021 4 0.259254 0.0547911 0.767915
3053 4 0.272569 0.0628331 0.77837
3052 2 0.296283 0.0503189 0.779982
1049 4 0.294452 0.00548976 0.795124
3054 4 0.319997 0.0378048 0.781594
3068 4 0.0333097 0.0868987 0.780205
3067 2 0.00986131 0.0883076 0.77101
3465 4 0.0519153 0.163612 0.753595
3425 4 0.0475229 0.152867 0.825206
3391 2 0.0709483 0.0889462 0.772621
3392 4 0.093145 0.0958856 0.778151
4499 4 0.112582 0.08876 0.774358
4498 2 0.124039 0.103606 0.75989
41 1 0.132577 0.112437 0.822508
45 3 0.122668 0.130548 0.810509
42 3 0.144543 0.0969873 0.808253
3463 2 0.0722751 0.166 0.767316
1146 4 0.322387 0.11348 0.763127
1144 2 0.342675 0.122083 0.771964
1145 4 0.362964 0.130685 0.780801
2322 4 0.377872 0.116647 0.778541
2320 2 0.399085 0.125283 0.784556
2321 4 0.420298 0.13392 0.790571
3294 4 0.426184 0.152334 0.787489
3292 2 0.446942 0.150641 0.773231
3293 4 0.4677 0.148949 0.758974
4355 4 0.48721 0.147719 0.751002
1093 2 0.00928629 0.219091 0.788198
1095 4 0.0326791 0.22464 0.789668
3008 4 0.0509693 0.225501 0.781884
3464 4 0.0926349 0.168388 0.781037
3007 2 0.0703767 0.237022 0.775886
3311 4 0.102504 0.176698 0.794548
3310 2 0.11333 0.197181 0.795509
3312 4 0.124155 0.217664 0.796471
3009 4 0.0897842 0.248542 0.769888
1043 4 0.110364 0.245596 0.771695
1226 4 0.177737 0.247213 0.755235
1042 2 0.133554 0.24893 0.764647
2981 4 0.0012786 0.294224 0.810382
2980 2 0.0243587 0.300386 0.808132
2982 4 0.0474388 0.306548 0.805881
897 4 0.0664536 0.295462 0.805105
895 2 0.0879348 0.278939 0.806978
896 4 0.109416 0.262416 0.808851
2001 4 0.121027 0.266773 0.822776
1225 2 0.201972 0.250236 0.757118
1044 4 0.156744 0.252265 0.757598
1999 2 0.143085 0.272865 0.815377
2000 4 0.165143 0.278957 0.807977
942 4 0.174958 0.326503 0.76236
396 4 0.162859 0.292135 0.823295
394 2 0.1837 0.298653 0.833342