ITEM: TIMESTEP
351000
ITEM: NUMBER OF ATOMS
4800
ITEM: BOX BOUNDS xy xz yz pp pp pp
-9.9985700000000008e+00 1.0398512799999992e+01 3.9994279999999094e-01
-9.9985700000000008e+00 9.9985700000000008e+00 0.0000000000000000e+00
-9.9985700000000008e+00 9.9985700000000008e+00 0.0000000000000000e+00
ITEM: ATOMS id type xs ys zs
3855 4 0.0593808 0.0274976 0.0732346
1817 4 0.0618343 0.0133461 0.0586189
1816 2 0.0855307 0.0186257 0.0530718
1818 4 0.109227 0.0239053 0.0475247
33 3 0.128317 0.02249 0.0415222
31 1 0.146363 0.018381 0.0556221
35 3 0.147699 0.0349815 0.0711235
32 3 0.165662 0.0177421 0.0431011
3186 4 0.184359 0.017681 0.0505684
3184 2 0.201962 0.0228209 0.0674581
1842 4 0.251976 0.0104084 0.0143471
771 4 0.243506 0.00269898 0.0305075
917 4 0.325857 0.059128 0.0215495
3461 4 0.329593 0.0192622 0.0212957
3460 2 0.325497 0.00112145 0.0379154
916 2 0.345663 0.0717051 0.029592
918 4 0.36547 0.0842822 0.0376344
1332 4 0.381597 0.080185 0.0507695
1277 4 0.268913 0.153899 0.0613262
1276 2 0.2935 0.155126 0.0655657
1278 4 0.318086 0.156353 0.0698053
1330 2 0.397587 0.0931388 0.036864
1331 4 0.413576 0.106093 0.0229584
966 4 0.387921 0.152045 0.00204007
4402 2 0.0517243 0.248871 0.0575797
4403 4 0.0711682 0.234526 0.0648189
409 3 0.118099 0.169873 0.0711161
410 3 0.112537 0.197967 0.0465521
407 3 0.127662 0.20495 0.0798858
406 1 0.126408 0.189687 0.0627466
408 3 0.147673 0.185981 0.0540517
3200 4 0.166793 0.190542 0.0487587
3750 4 0.0838156 0.249513 0.0718408
3199 2 0.184552 0.201054 0.0349088
3201 4 0.20231 0.211566 0.0210589
1733 4 0.227785 0.188166 0.068467
1732 2 0.241141 0.203035 0.0537134
1734 4 0.254497 0.217905 0.0389599
1203 4 0.330271 0.171245 0.0763351
926 4 0.423926 0.200159 0.0193662
925 2 0.446099 0.205788 0.0292072
927 4 0.468272 0.211417 0.0390483
1739 4 0.478485 0.216279 0.0550264
1738 2 0.480685 0.234556 0.071895
1328 4 0.450903 0.175808 0.997342
1990 2 0.0225996 0.299662 0.045216
1991 4 0.026348 0.280044 0.0603502
4404 4 0.0322804 0.263216 0.0503405
1992 4 0.0188511 0.319281 0.0300818
509 3 0.0732707 0.331396 0.0362359
507 3 0.037246 0.327305 0.026632
4073 4 0.0787377 0.327406 0.0549745
3748 2 0.106782 0.25893 0.0712416
4072 2 0.103512 0.327542 0.0516218
3749 4 0.129748 0.268348 0.0706425
4074 4 0.128287 0.327678 0.048269
3235 2 0.164573 0.294078 0.0623582
3237 4 0.144223 0.280219 0.065121
1378 2 0.178735 0.324082 0.0207799
3236 4 0.184923 0.307937 0.0595955
1379 4 0.184165 0.322528 0.0451439
2837 4 0.218961 0.285884 0.0100379
1406 4 0.231328 0.300982 0.0144441
1405 2 0.236185 0.297031 0.0386668
1407 4 0.241041 0.293079 0.0628896
3992 4 0.244135 0.280487 0.0790837
1127 4 0.369669 0.298588 0.0181889
1184 4 0.381846 0.307966 0.0311464
1183 2 0.404813 0.315953 0.0259948
1126 2 0.358603 0.286564 0.999407
1185 4 0.42778 0.32394 0.0208433
1151 4 0.436888 0.309352 0.0300221
1150 2 0.456391 0.30867 0.0456707
1152 4 0.475894 0.307988 0.0613192
1209 4 0.494671 0.303422 0.0584643
508 3 0.0476849 0.359095 0.0433467
4058 4 0.0575984 0.36841 0.0584385
506 1 0.054186 0.342425 0.0284316
510 3 0.0582091 0.351479 0.0079621
4057 2 0.0682668 0.371303 0.0808384
4547 4 0.139885 0.344638 0.0521762
4546 2 0.146415 0.353679 0.074501
4215 4 0.264986 0.387968 0.0321115
4213 2 0.253319 0.388258 0.00999563
4379 4 0.326936 0.399817 0.0840826
1509 4 0.329432 0.3893 0.00582912
763 2 0.481208 0.367518 0.0780931
764 4 0.482018 0.382365 0.058005
938 4 0.0694384 0.424775 0.0478102
4084 2 0.0611894 0.491192 0.0195174
4086 4 0.0826752 0.480133 0.0123977
3583 2 0.0855284 0.496003 0.0696148
937 2 0.093816 0.429494 0.0498187
939 4 0.118194 0.434214 0.0518271
54 3 0.114034 0.477528 0.0417508
1373 4 0.136727 0.43971 0.0482127
3585 4 0.101734 0.482223 0.0561418
53 3 0.144791 0.481658 0.0199265
51 1 0.133254 0.489727 0.0384703
52 3 0.146725 0.487437 0.0570083
1372 2 0.161676 0.437949 0.0470406
3549 4 0.157694 0.486918 0.0077806
3116 4 0.156853 0.493318 0.0728577
1374 4 0.186625 0.436188 0.0458685
825 4 0.193034 0.453604 0.040069
823 2 0.214894 0.459699 0.0298313
824 4 0.236755 0.465794 0.0195935
4260 4 0.248944 0.496329 0.0764519
2624 4 0.367091 0.502362 0.0505493
1271 4 0.356113 0.486909 0.0510548
1270 2 0.345639 0.475835 0.0707568
2623 2 0.391291 0.496481 0.0472875
2625 4 0.415491 0.490601 0.0440257
1912 2 0.501443 0.47574 0.072114
1914 4 0.4879 0.456714 0.0804417
3190 2 0.0350781 0.00248663 0.147235
3854 4 0.0465193 0.0410421 0.119697
3192 4 0.0586858 0.0099264 0.144898
3853 2 0.0529501 0.0342698 0.0964657
4488 4 0.0767193 0.0189729 0.152952
4486 2 0.0971624 0.0327788 0.15065
4487 4 0.117606 0.0465846 0.148348
3244 2 0.139298 0.00682475 0.111796
3246 4 0.157699 0.0191125 0.123044
405 3 0.138316 0.0419671 0.150493
401 1 0.160168 0.0462615 0.146141
403 3 0.163395 0.0691692 0.145891
404 3 0.166316 0.0370555 0.125694
1440 4 0.178472 0.0628167 0.134988
402 3 0.173339 0.0368204 0.162617
1438 2 0.197408 0.0767973 0.12721
3185 4 0.219566 0.0279607 0.0843478
983 4 0.405806 0.0528192 0.167845
3983 4 0.075378 0.166312 0.14972
3982 2 0.051615 0.168727 0.157266
3015 4 0.0851216 0.158125 0.133517
3013 2 0.0941728 0.136099 0.141634
3014 4 0.103224 0.114073 0.14975
1439 4 0.216344 0.090778 0.119431
3098 4 0.498022 0.14755 0.145467
3097 2 0.500717 0.148224 0.12062
3028 2 0.0109993 0.208551 0.108082
3030 4 0.0338988 0.218141 0.10801
3092 4 0.0521678 0.223353 0.106419
3091 2 0.0768455 0.221531 0.102589
3984 4 0.027852 0.171143 0.164813
3093 4 0.101523 0.219709 0.0987596
833 4 0.120758 0.219179 0.0940112
832 2 0.142819 0.227594 0.101772
1032 4 0.236308 0.17999 0.0840931
834 4 0.164881 0.236009 0.109532
3179 4 0.184899 0.233899 0.114176
1031 4 0.19421 0.177991 0.110946
3178 2 0.208038 0.237891 0.105803
1030 2 0.215259 0.17899 0.0975196
3180 4 0.231178 0.241882 0.0974305
3155 4 0.252184 0.241115 0.0966477
3154 2 0.276041 0.236173 0.102672
3156 4 0.299899 0.231232 0.108696
906 4 0.313497 0.243188 0.116103
1201 2 0.349933 0.182974 0.085914
1202 4 0.369596 0.194702 0.0954929
956 4 0.385807 0.206471 0.101127
955 2 0.406117 0.219241 0.107388
957 4 0.426427 0.232011 0.113648
1716 4 0.446433 0.236857 0.121433
1714 2 0.470125 0.242563 0.126523
1740 4 0.482885 0.252833 0.0887635
1715 4 0.493817 0.248269 0.131613
3991 2 0.245846 0.288039 0.102847
3993 4 0.247558 0.295591 0.12661
831 4 0.262981 0.295979 0.140749
829 2 0.281821 0.280959 0.148221
830 4 0.300662 0.265939 0.155694
904 2 0.331353 0.258957 0.122911
905 4 0.349209 0.274726 0.129718
1172 4 0.488493 0.314887 0.150675
1171 2 0.480651 0.330101 0.13232
4059 4 0.0789351 0.374196 0.103238
756 4 0.0863818 0.391195 0.110246
754 2 0.103977 0.387302 0.127657
755 4 0.121573 0.383409 0.145069
4548 4 0.152946 0.36272 0.0968259
4362 4 0.140454 0.381167 0.152437
1449 4 0.265262 0.410317 0.151415
1447 2 0.289422 0.410484 0.15784
4378 2 0.319166 0.414927 0.102551
1448 4 0.313582 0.410651 0.164266
2889 4 0.44608 0.401088 0.154566
765 4 0.480398 0.352672 0.0981811
1173 4 0.472809 0.345315 0.113966
2887 2 0.469606 0.392303 0.152905
2888 4 0.493132 0.383518 0.151244
961 2 0.106001 0.493906 0.160569
3115 2 0.159482 0.494493 0.0976923
4708 2 0.192481 0.484252 0.145044
4709 4 0.214368 0.473199 0.150839
3117 4 0.162112 0.495669 0.122527
1272 4 0.335166 0.464761 0.0904588
4258 2 0.270388 0.490957 0.0883292
4259 4 0.291831 0.485584 0.100207
4380 4 0.311396 0.430037 0.12102
67 3 0.255691 0.41863 0.165625
3843 4 0.43617 0.418483 0.155957
1784 4 0.473585 0.44487 0.0858077
1783 2 0.481239 0.441958 0.109451
1785 4 0.488893 0.439045 0.133094
392 3 0.0197279 0.0438212 0.212642
394 3 0.0257138 0.0229341 0.243389
391 1 0.0338568 0.0282006 0.22235
395 3 0.0347687 0.00953176 0.209318
393 3 0.0549955 0.0371708 0.224216
1872 4 0.0718724 0.0410973 0.214596
1870 2 0.0930404 0.052413 0.220875
1871 4 0.114208 0.0637287 0.227154
2150 4 0.131395 0.0533434 0.221407
2149 2 0.148903 0.0602126 0.237736
1596 4 0.177246 0.053042 0.173054
1594 2 0.19286 0.0552026 0.192428
2198 4 0.247722 0.00506609 0.23856
1595 4 0.208474 0.0573631 0.211803
2199 4 0.215957 0.0393234 0.219556
2197 2 0.23184 0.0221947 0.229058
3859 2 0.329228 0.0809077 0.175319
982 2 0.380969 0.0513404 0.165692
984 4 0.356132 0.0498615 0.16354
3860 4 0.343253 0.0599372 0.174783
2922 4 0.421542 0.066008 0.169112
2920 2 0.441791 0.0522401 0.175167
2921 4 0.46204 0.0384722 0.181222
380 3 0.478774 0.0424907 0.171784
3219 4 0.0769213 0.10975 0.231937
4431 4 0.0726257 0.106658 0.21235
3217 2 0.0594272 0.103489 0.248536
4430 4 0.0963345 0.110471 0.168527
4429 2 0.0844801 0.108564 0.190439
3861 4 0.315203 0.101878 0.175854
385 3 0.491803 0.144366 0.163905
3287 4 0.437355 0.0912592 0.212106
3286 2 0.457608 0.103734 0.205091
3288 4 0.477861 0.116209 0.198076
382 3 0.485457 0.135014 0.19944
381 1 0.496432 0.149511 0.18558
3035 4 0.00955243 0.163665 0.16271
2183 4 0.0403366 0.218779 0.179984
4006 2 0.000826341 0.183628 0.249081
2182 2 0.0625208 0.229623 0.177577
1204 2 0.0590586 0.217518 0.248168
1205 4 0.0811344 0.227676 0.243105
2184 4 0.0847049 0.240467 0.175171
383 3 0.489161 0.171188 0.190246
417 3 0.476474 0.218589 0.233049
416 1 0.491968 0.222429 0.216559
3675 4 0.460222 0.229847 0.231231
419 3 0.482398 0.236474 0.200594
418 3 0.498184 0.202165 0.206864
882 4 0.0184882 0.260994 0.23868
2156 4 0.0313968 0.27338 0.231569
2155 2 0.0537711 0.277734 0.241654
2270 4 0.0909338 0.259097 0.1795
2269 2 0.105075 0.258068 0.200109
2271 4 0.119216 0.257039 0.220717
28 3 0.122943 0.262739 0.239888
1197 4 0.230271 0.324323 0.173882
4025 4 0.211373 0.331429 0.177217
1195 2 0.254109 0.328762 0.179623
1196 4 0.277948 0.3332 0.185364
1241 4 0.406804 0.329228 0.209112
3254 4 0.420564 0.330476 0.22413
1240 2 0.421214 0.312187 0.197415
1242 4 0.435624 0.295146 0.185718
981 4 0.44944 0.287651 0.199017
2061 4 0.489988 0.255363 0.202262
979 2 0.464279 0.285923 0.219092
980 4 0.479118 0.284194 0.239168
2059 2 0.500492 0.265268 0.181951
4360 2 0.143746 0.386961 0.176521
4361 4 0.147037 0.392755 0.200604
1082 4 0.154219 0.410809 0.205586
4024 2 0.190751 0.33833 0.189785
4026 4 0.170129 0.34523 0.202353
1395 4 0.298828 0.33481 0.180959
3078 4 0.30751 0.403002 0.180063
1393 2 0.322253 0.342526 0.184067
3076 2 0.326193 0.397021 0.195708
3077 4 0.344877 0.39104 0.211353
432 3 0.36142 0.38021 0.214581
1394 4 0.345678 0.350241 0.187175
435 3 0.365475 0.356432 0.186038
431 1 0.376229 0.371394 0.199177
433 3 0.38435 0.38863 0.186152
434 3 0.393713 0.360775 0.210461
3842 4 0.393767 0.404755 0.178113
3033 4 0.403284 0.377113 0.217517
3841 2 0.414968 0.411619 0.167035
3253 2 0.432444 0.335414 0.245515
3031 2 0.422531 0.388906 0.22784
3032 4 0.441778 0.400698 0.238162
2915 4 0.45834 0.39524 0.228654
2914 2 0.479394 0.388022 0.216998
579 3 0.493916 0.365942 0.193376
2916 4 0.500448 0.380804 0.205343
80 3 0.0206709 0.49867 0.228219
4070 4 0.00431322 0.486364 0.182617
3094 2 0.0201111 0.428321 0.241073
3095 4 0.025664 0.433661 0.217311
4071 4 0.0282593 0.453855 0.212636
4069 2 0.0162863 0.470109 0.197627
3134 4 0.012376 0.482056 0.233378
962 4 0.120134 0.480215 0.176243
68 3 0.222602 0.419288 0.183464
1081 2 0.173084 0.421778 0.217446
1083 4 0.191949 0.432747 0.229306
3070 2 0.196685 0.480423 0.207337
3072 4 0.207475 0.460179 0.217705
3071 4 0.185895 0.500667 0.196969
70 3 0.236654 0.450904 0.169233
66 1 0.241911 0.43112 0.179412
4163 4 0.203703 0.43348 0.245067
69 3 0.253013 0.43502 0.199366
1968 4 0.263288 0.435161 0.216687
1966 2 0.288007 0.433471 0.220283
1967 4 0.312727 0.431781 0.223879
2048 4 0.329638 0.436005 0.232246
2047 2 0.354578 0.434787 0.230538
2049 4 0.379517 0.433568 0.228829
875 4 0.399149 0.433336 0.225063
874 2 0.418396 0.448045 0.230259
876 4 0.437642 0.462754 0.235454
1038 4 0.495758 0.432809 0.230274
1037 4 0.45478 0.461699 0.224455
1036 2 0.475269 0.447254 0.227364
2965 2 0.0212506 0.0761524 0.331993
4578 4 0.144503 0.0605986 0.317732
4577 4 0.156667 0.0724328 0.270754
4576 2 0.150585 0.0665157 0.294243
3908 4 0.138154 0.0482829 0.332359
2151 4 0.16641 0.0670818 0.254066
59 3 0.0260054 0.122914 0.302266
56 1 0.0160187 0.117257 0.282156
60 3 0.020375 0.13303 0.266407
57 3 0.024618 0.0969259 0.27518
3218 4 0.0419331 0.0972285 0.265136
1230 4 0.125642 0.15426 0.281284
888 4 0.144484 0.160732 0.284646
2900 4 0.327005 0.101011 0.299224
2899 2 0.334786 0.11154 0.278
2901 4 0.342567 0.122068 0.256775
1788 4 0.335454 0.114592 0.312478
3914 4 0.397078 0.106199 0.259582
3915 4 0.393931 0.143238 0.293094
3913 2 0.395505 0.124719 0.276338
1161 4 0.390627 0.162457 0.295681
4008 4 0.0241753 0.19188 0.251127
1206 4 0.0369828 0.207359 0.253231
1229 4 0.101448 0.189037 0.308469
27 3 0.0918675 0.24438 0.249214
1228 2 0.113545 0.171648 0.294877
1193 4 0.11449 0.204439 0.30588
1192 2 0.122795 0.225896 0.29647
1194 4 0.131099 0.247352 0.287061
886 2 0.165151 0.17301 0.278557
887 4 0.185819 0.185288 0.272469
439 3 0.203226 0.194226 0.276518
438 3 0.216264 0.171752 0.304462
436 1 0.220047 0.191035 0.292248
437 3 0.219943 0.209015 0.306593
440 3 0.240284 0.189439 0.281861
1362 4 0.221457 0.224292 0.319641
1360 2 0.241005 0.23812 0.326041
3146 4 0.280879 0.226286 0.257743
3147 4 0.259297 0.191849 0.286359
3145 2 0.270088 0.209067 0.272051
1159 2 0.405725 0.170533 0.313767
4319 4 0.462669 0.174489 0.314235
3674 4 0.435822 0.240323 0.273725
1160 4 0.420823 0.178609 0.331854
4320 4 0.488332 0.181708 0.272015
4318 2 0.4755 0.178099 0.293125
3673 2 0.448022 0.235085 0.252478
2157 4 0.0761455 0.282089 0.251739
29 3 0.0950442 0.280398 0.259221
26 1 0.106631 0.2603 0.25616
30 3 0.116236 0.253614 0.275762
1857 4 0.147844 0.279472 0.328348
847 2 0.193711 0.28308 0.323363
849 4 0.168872 0.280667 0.323455
921 4 0.236955 0.291466 0.327794
848 4 0.218549 0.285493 0.323272
19 3 0.295856 0.327294 0.331505
18 3 0.318072 0.31751 0.302115
932 4 0.392445 0.298215 0.25476
931 2 0.412379 0.282743 0.25395
933 4 0.432314 0.267271 0.25314
2890 2 0.0122271 0.364809 0.274295
2892 4 0.0358721 0.368729 0.281151
3822 4 0.0364469 0.370577 0.300488
3820 2 0.0487318 0.385487 0.316126
3096 4 0.0145582 0.422981 0.264835
3821 4 0.0610168 0.400397 0.331764
2186 4 0.0817586 0.402774 0.332534
16 1 0.312388 0.334449 0.317044
20 3 0.305051 0.352913 0.305677
17 3 0.331009 0.339727 0.329318
1158 4 0.347134 0.352416 0.328424
3255 4 0.444325 0.340353 0.266899
861 4 0.461776 0.330604 0.264971
859 2 0.484704 0.340059 0.263788
4162 2 0.222677 0.446817 0.253848
4164 4 0.24165 0.460155 0.262629
3965 4 0.259165 0.465112 0.271853
3964 2 0.280679 0.47273 0.261968
3966 4 0.302193 0.480348 0.252083
4275 4 0.316993 0.493482 0.259006
4273 2 0.341703 0.496599 0.257672
3216 4 0.343521 0.459365 0.318181
3214 2 0.364684 0.465971 0.329497
90 3 0.0256132 0.0217178 0.407413
1581 4 0.0653995 0.077792 0.333217
3284 4 0.0553896 0.0640528 0.380673
3283 2 0.072265 0.0657019 0.399018
86 1 0.0256865 0.00139471 0.417684
3907 2 0.153525 0.0326571 0.344779
3909 4 0.168895 0.0170313 0.357199
3204 4 0.187264 0.0164111 0.36492
3202 2 0.19475 0.0323752 0.38251
3203 4 0.202236 0.0483393 0.4001
3726 4 0.19809 0.0606759 0.416776
23 3 0.221058 0.051 0.395337
21 1 0.224772 0.0713917 0.405614
22 3 0.246178 0.0712815 0.41404
1061 4 0.255905 0.0264565 0.369367
1060 2 0.27399 0.033944 0.353985
1062 4 0.292076 0.0414315 0.338603
2307 4 0.330754 0.0310324 0.367355
2305 2 0.341171 0.0139292 0.382558
1285 2 0.396476 0.0314484 0.401549
1286 4 0.413298 0.0207449 0.386227
1100 4 0.472365 0.00744407 0.409823
1101 4 0.433616 0.0220521 0.381391
1099 2 0.452991 0.0147481 0.395607
2967 4 0.0454712 0.0768044 0.338115
2970 4 0.0390718 0.14985 0.338822
1580 4 0.111642 0.09276 0.343731
1166 4 0.132699 0.0923143 0.337174
1579 2 0.0885209 0.085276 0.338474
1853 4 0.128528 0.121392 0.389788
1852 2 0.152932 0.125837 0.392142
1165 2 0.154058 0.104831 0.335914
2858 4 0.101734 0.16458 0.364176
1854 4 0.177335 0.130282 0.394495
397 3 0.183665 0.140506 0.411041
1167 4 0.175416 0.117347 0.334654
999 4 0.195743 0.115622 0.338445
398 3 0.210761 0.122569 0.39165
997 2 0.206623 0.11096 0.360515
25 3 0.222424 0.0882751 0.390463
998 4 0.217504 0.106299 0.382585
399 3 0.217587 0.155818 0.408468
396 1 0.206271 0.135863 0.410193
3353 4 0.316776 0.162234 0.39943
1786 2 0.345799 0.127877 0.330812
3352 2 0.341355 0.161512 0.40404
1787 4 0.356144 0.141162 0.349145
3354 4 0.365934 0.16079 0.40865
838 2 0.407401 0.16468 0.408533
2969 4 0.0413681 0.188801 0.370031
2968 2 0.0402199 0.169325 0.354426
3473 4 0.0674158 0.209973 0.364081
3474 4 0.10459 0.24054 0.352306
3472 2 0.0860029 0.225257 0.358193
2857 2 0.125394 0.170648 0.368954
3005 4 0.150791 0.192945 0.384416
2859 4 0.149054 0.176716 0.373732
3004 2 0.172506 0.204363 0.38077
3006 4 0.194222 0.215781 0.377124
1017 4 0.210627 0.203577 0.383153
1015 2 0.220974 0.186575 0.398514
1016 4 0.23132 0.169573 0.413875
1471 2 0.273949 0.168067 0.413746
1473 4 0.297719 0.16832 0.406009
840 4 0.384377 0.168566 0.399392
1076 4 0.437417 0.169849 0.339258
1321 2 0.49646 0.191172 0.391331
1323 4 0.489422 0.198473 0.368432
1075 2 0.458588 0.181531 0.344786
1077 4 0.479759 0.193212 0.350314
1856 4 0.108621 0.260459 0.352241
1855 2 0.128233 0.269966 0.340295
919 2 0.258117 0.303781 0.3317
1361 4 0.260553 0.251948 0.332441
920 4 0.279278 0.316095 0.335606
992 4 0.278876 0.254077 0.341669
993 4 0.319037 0.283033 0.340069
991 2 0.298956 0.268555 0.340869
3136 2 0.359998 0.285821 0.346872
3138 4 0.337244 0.28684 0.336512
4254 4 0.359431 0.324073 0.408254
4083 4 0.402268 0.288053 0.352329
3137 4 0.382752 0.284802 0.357231
4081 2 0.418103 0.292472 0.371094
1053 4 0.368201 0.33442 0.394638
4082 4 0.433937 0.296891 0.389858
923 4 0.426437 0.335786 0.4018
1621 2 0.454761 0.273841 0.407925
1623 4 0.453256 0.291476 0.390238
3131 4 0.0157535 0.335015 0.384699
3434 4 0.0335696 0.342375 0.389944
3433 2 0.058307 0.345494 0.390598
3435 4 0.0830443 0.348613 0.391251
472 3 0.100861 0.356515 0.389211
471 1 0.116946 0.362958 0.404203
474 3 0.12117 0.385458 0.400989
3605 4 0.13252 0.401568 0.399673
473 3 0.136289 0.350296 0.400509
3044 4 0.149356 0.340804 0.412727
4304 4 0.135401 0.422311 0.342374
2185 2 0.101054 0.413903 0.343507
3233 4 0.407699 0.379864 0.345566
1157 4 0.391865 0.369703 0.341463
1052 4 0.414817 0.351335 0.397786
1051 2 0.391509 0.342877 0.396212
1156 2 0.3695 0.36106 0.334943
922 2 0.450112 0.34204 0.406231
3232 2 0.427339 0.39489 0.344225
3234 4 0.446979 0.409916 0.342885
924 4 0.473786 0.348295 0.410663
3153 4 0.490786 0.3492 0.40045
4303 2 0.159748 0.425282 0.337826
2187 4 0.120349 0.425031 0.354479
4305 4 0.184095 0.428252 0.333278
3215 4 0.385848 0.472576 0.340814
1091 4 0.396942 0.464603 0.354492
1090 2 0.4172 0.455102 0.365987
1092 4 0.437459 0.4456 0.377483
2847 4 0.454874 0.452146 0.380241
2845 2 0.479584 0.452758 0.376547
759 4 0.0689805 0.999957 0.493494
88 3 0.0385736 0.0020542 0.43696
3285 4 0.0891404 0.0673511 0.417364
3107 4 0.119203 0.00372496 0.468635
4170 4 0.0960002 0.0513861 0.42764
4168 2 0.120118 0.0518259 0.434187
4169 4 0.144237 0.0522657 0.440735
3108 4 0.163461 0.0243772 0.47751
3725 4 0.155671 0.0675845 0.442568
3106 2 0.141332 0.0140511 0.473072
3073 2 0.196511 0.00810313 0.493621
3724 2 0.17688 0.0641302 0.429672
3074 4 0.18106 0.0265884 0.486136
24 3 0.209783 0.0746158 0.423086
1282 2 0.333873 0.0304918 0.496565
1283 4 0.337092 0.0317673 0.471805
1287 4 0.379653 0.0421519 0.416871
64 3 0.348028 0.0354508 0.455837
65 3 0.379262 0.0535817 0.465358
62 3 0.377745 0.0166009 0.469856
63 3 0.379734 0.0310145 0.435219
61 1 0.371216 0.0343366 0.456572
400 3 0.212606 0.12488 0.429183
3569 4 0.308006 0.120077 0.483664
3240 4 0.416443 0.13124 0.467843
839 4 0.430424 0.160794 0.417675
3238 2 0.435433 0.130116 0.484096
175 3 0.475515 0.149868 0.441697
3239 4 0.454422 0.128991 0.500349
3223 2 0.076739 0.204197 0.490066
3225 4 0.0525435 0.198359 0.489941
3672 4 0.0370933 0.184981 0.491142
3380 4 0.110047 0.208288 0.472443
3224 4 0.100934 0.210035 0.490191
3379 2 0.120331 0.197903 0.452052
3381 4 0.130616 0.187519 0.43166
1472 4 0.250179 0.167814 0.421482
2995 2 0.353123 0.234279 0.495708
2996 4 0.351272 0.218848 0.476153
3249 4 0.370417 0.223349 0.472937
3247 2 0.389575 0.221115 0.456973
3248 4 0.408733 0.21888 0.441008
3357 4 0.425853 0.212474 0.449118
172 3 0.481118 0.179466 0.419822
3355 2 0.441524 0.224891 0.434367
2865 4 0.485582 0.23894 0.470602
174 3 0.446043 0.168687 0.426969
173 3 0.466912 0.184454 0.454301
171 1 0.467396 0.170467 0.435788
2864 4 0.471772 0.191197 0.472426
2863 2 0.478677 0.215068 0.471514
3356 4 0.457194 0.237308 0.419616
3754 2 0.0120205 0.291981 0.492507
975 4 0.0889966 0.3088 0.49441
4253 4 0.327505 0.306242 0.442027
4252 2 0.343468 0.315158 0.425141
3513 4 0.341435 0.30664 0.457128
3511 2 0.352106 0.308056 0.479682
389 3 0.402271 0.273069 0.498913
3512 4 0.362777 0.309471 0.502236
390 3 0.368067 0.289432 0.500429
3871 2 0.435365 0.286836 0.493854
3872 4 0.455696 0.28747 0.479331
1622 4 0.456266 0.256206 0.425613
1018 2 0.0389714 0.382538 0.485725
1020 4 0.0573967 0.395555 0.475401
2924 4 0.0733865 0.406458 0.475915
1019 4 0.0205461 0.36952 0.496048
475 3 0.109412 0.359552 0.425399
3604 2 0.139999 0.41065 0.421673
3043 2 0.172396 0.346071 0.420583
3045 4 0.195437 0.351338 0.42844
4673 4 0.217156 0.352537 0.429976
4672 2 0.24056 0.354852 0.438337
4674 4 0.263964 0.357168 0.446699
3231 4 0.284463 0.358834 0.447389
3808 2 0.297636 0.408005 0.486818
3810 4 0.318637 0.394044 0.485904
3229 2 0.307838 0.366349 0.451292
3230 4 0.331214 0.373864 0.455195
1043 4 0.351021 0.373636 0.456618
1042 2 0.375087 0.375282 0.463074
1044 4 0.399154 0.376928 0.469531
1187 4 0.418844 0.379442 0.477527
1188 4 0.461145 0.394985 0.498583
1186 2 0.439994 0.387214 0.488055
3023 4 0.479655 0.39896 0.497961
2923 2 0.0937589 0.420045 0.472122
3606 4 0.147478 0.419733 0.443673
2925 4 0.114131 0.433633 0.46833
3809 4 0.276635 0.421967 0.487732
2000 4 0.384952 0.490682 0.413618
2001 4 0.34476 0.469832 0.434036
1999 2 0.364856 0.480257 0.423827
2219 4 0.458875 0.454517 0.490685
2220 4 0.490632 0.45089 0.452166
2218 2 0.474754 0.452703 0.471425
4113 4 0.0150901 0.0598048 0.537422
4111 2 0.039559 0.062858 0.541182
2957 4 0.00637307 0.0438629 0.531994
4112 4 0.0640279 0.0659111 0.544943
1284 4 0.330653 0.0292164 0.521324
778 2 0.0113719 0.116801 0.549435
780 4 0.0232351 0.122479 0.570637
2667 4 0.22254 0.10799 0.579389
3570 4 0.273195 0.114582 0.519035
3568 2 0.290601 0.117329 0.501349
3741 4 0.387007 0.10778 0.581091
3739 2 0.409355 0.1031 0.570698
3740 4 0.431703 0.0984212 0.560305
3551 4 0.450663 0.103841 0.565493
3550 2 0.474075 0.11184 0.567848
958 2 0.492904 0.138386 0.515142
960 4 0.468696 0.139521 0.508897
3670 2 0.0138733 0.183827 0.500286
2554 2 0.069886 0.242035 0.583223
520 3 0.124799 0.245808 0.538797
2555 4 0.0934186 0.234514 0.578545
2997 4 0.354974 0.249711 0.515262
2942 4 0.0385935 0.26789 0.519006
3755 4 0.0251401 0.279516 0.509946
2941 2 0.0598549 0.258565 0.528705
973 2 0.0742126 0.324566 0.507343
3507 4 0.139081 0.252353 0.526099
517 3 0.105894 0.24993 0.57076
2943 4 0.0811164 0.24924 0.538403
3505 2 0.162987 0.257921 0.521933
518 3 0.092461 0.26574 0.539286
516 1 0.111765 0.260148 0.551067
519 3 0.12352 0.279301 0.555987
2829 4 0.140024 0.291155 0.55871
2827 2 0.164012 0.297618 0.557369
761 4 0.227483 0.251562 0.567721
762 4 0.205219 0.254694 0.523022
3506 4 0.186893 0.263489 0.517768
2828 4 0.188 0.304081 0.556028
1698 4 0.208785 0.30717 0.556992
760 2 0.216351 0.253128 0.545371
1696 2 0.232148 0.311911 0.564232
1697 4 0.255512 0.316652 0.571473
1538 4 0.269353 0.32287 0.585816
1537 2 0.293927 0.326846 0.587068
387 3 0.373642 0.255488 0.515151
388 3 0.388169 0.28545 0.532067
386 1 0.382983 0.27601 0.511563
4599 4 0.407289 0.289723 0.526857
3873 4 0.415034 0.286201 0.508376
4597 2 0.418408 0.299028 0.547125
4598 4 0.429528 0.308332 0.567394
4509 4 0.49574 0.341031 0.572841
974 4 0.0594286 0.340333 0.520276
2990 4 0.0632259 0.335587 0.539857
2991 4 0.0676442 0.381548 0.558826
2989 2 0.065435 0.358567 0.549341
2528 4 0.0878919 0.383124 0.558463
2527 2 0.110986 0.382703 0.568057
1593 4 0.146913 0.394169 0.521855
2529 4 0.134081 0.382281 0.57765
1703 4 0.148948 0.39651 0.578494
1591 2 0.167879 0.40495 0.529618
3541 2 0.229751 0.415344 0.547927
3543 4 0.254712 0.413885 0.546726
4373 4 0.274392 0.413228 0.540576
4767 4 0.0136002 0.434298 0.5564
2896 2 0.000525009 0.46741 0.535933
2898 4 0.0107892 0.453454 0.554118
4765 2 0.020857 0.439829 0.579644
3542 4 0.20479 0.416804 0.549128
1592 4 0.188846 0.415732 0.537381
4372 2 0.297293 0.422647 0.542403
4374 4 0.320194 0.432067 0.544231
2420 4 0.333565 0.445719 0.539283
2419 2 0.358395 0.445279 0.536303
3572 4 0.372104 0.42558 0.578771
2421 4 0.383225 0.44484 0.533322
8 3 0.399419 0.45452 0.541416
6 1 0.405426 0.448021 0.562902
9 3 0.39117 0.431646 0.570492
10 3 0.404524 0.465994 0.576878
7 3 0.426915 0.439384 0.56249
1652 4 0.444738 0.437733 0.552621
1651 2 0.468156 0.446007 0.553346
1653 4 0.491574 0.454281 0.554072
1512 4 0.0214796 0.0796977 0.612274
1510 2 0.998941 0.0788186 0.623027
1946 4 0.174282 0.0830887 0.670469
2704 2 0.255267 0.0732284 0.658577
3692 4 0.383734 0.00507479 0.64347
3691 2 0.407386 0.0100571 0.649488
3693 4 0.431038 0.0150395 0.655507
723 3 0.445819 0.00353627 0.662636
1232 4 0.0339133 0.134801 0.582194
1231 2 0.0570588 0.133288 0.591605
1233 4 0.0802043 0.131775 0.601016
1700 4 0.0833804 0.132921 0.620505
1699 2 0.106793 0.141184 0.62151
1947 4 0.126502 0.0931434 0.658815
1701 4 0.130205 0.149447 0.622516
1683 4 0.134718 0.153453 0.641743
1945 2 0.150392 0.088116 0.664642
1681 2 0.157216 0.153439 0.652653
2665 2 0.201111 0.0960765 0.583099
2666 4 0.179681 0.0841628 0.586808
2373 4 0.186098 0.0810804 0.654695
2371 2 0.20493 0.0900874 0.641181
2372 4 0.223762 0.0990944 0.627668
149 3 0.241982 0.109844 0.589663
147 3 0.228263 0.118423 0.623655
146 1 0.247044 0.111213 0.61226
1682 4 0.179714 0.153424 0.663562
2706 4 0.259015 0.0897928 0.640297
148 3 0.253544 0.0903106 0.62029
150 3 0.263731 0.126032 0.615516
1179 4 0.283474 0.124086 0.619333
1177 2 0.305165 0.11257 0.624989
1178 4 0.326856 0.101055 0.630645
527 3 0.33852 0.107229 0.6458
526 1 0.353564 0.110097 0.662913
1746 4 0.362328 0.143931 0.645408
529 3 0.368069 0.09171 0.663601
1744 2 0.353052 0.163186 0.632166
530 3 0.365255 0.129043 0.65917
1668 4 0.0262861 0.242503 0.584056
1666 2 0.00624355 0.238571 0.598369
3802 2 0.00622625 0.180918 0.664885
1614 4 0.0243542 0.18517 0.604866
4241 4 0.0435382 0.193444 0.611179
4240 2 0.0683845 0.194722 0.6134
4242 4 0.0932309 0.196001 0.61562
3114 4 0.113168 0.20042 0.620028
3112 2 0.137043 0.205202 0.625293
3113 4 0.160918 0.209985 0.630558
3363 4 0.179129 0.218067 0.628937
3361 2 0.203038 0.213794 0.635212
3362 4 0.226947 0.209522 0.641487
4602 4 0.246416 0.208671 0.635175
4600 2 0.271186 0.210503 0.637717
4601 4 0.295956 0.212335 0.64026
513 3 0.314703 0.217274 0.642494
511 1 0.336936 0.219475 0.636387
512 3 0.345367 0.198891 0.629971
515 3 0.338526 0.234021 0.618965
514 3 0.349231 0.227083 0.654432
1745 4 0.343776 0.182442 0.618924
3414 4 0.366887 0.231947 0.662843
2556 4 0.0463534 0.249556 0.5879
3659 4 0.291259 0.312315 0.656973
3282 4 0.327567 0.311392 0.586794
1539 4 0.318501 0.330822 0.588319
3281 4 0.376364 0.301562 0.580302
3280 2 0.351966 0.306477 0.583548
3384 4 0.483187 0.329472 0.584035
4551 4 0.122936 0.380444 0.649027
1469 4 0.142265 0.385828 0.644239
4549 2 0.100821 0.373075 0.657704
1468 2 0.167097 0.386274 0.641426
1702 2 0.169581 0.405654 0.5889
1470 4 0.191929 0.386719 0.638613
1602 4 0.209032 0.38624 0.627276
1600 2 0.231972 0.389853 0.618191
1704 4 0.190214 0.414799 0.599305
1601 4 0.254913 0.393466 0.609106
157 3 0.270791 0.401937 0.60243
159 3 0.306264 0.409306 0.592968
3573 4 0.326452 0.411556 0.592711
497 3 0.442293 0.409532 0.627924
496 1 0.457115 0.391709 0.62643
500 3 0.446023 0.373314 0.619435
3383 4 0.451271 0.363355 0.603446
499 3 0.466452 0.38779 0.647342
498 3 0.473739 0.396881 0.611204
3382 2 0.467229 0.346414 0.593741
3129 4 0.46772 0.387282 0.66728
3522 4 0.489605 0.407754 0.614274
4766 4 0.0281137 0.44536 0.602889
3315 4 0.0383053 0.455359 0.616409
3313 2 0.0532797 0.473509 0.624188
3314 4 0.0682542 0.49166 0.631966
1588 2 0.152381 0.448049 0.662324
650 3 0.112344 0.43265 0.658541
1590 4 0.12778 0.446098 0.658552
3682 2 0.0898399 0.489119 0.660794
3369 4 0.196432 0.451491 0.669252
160 3 0.278581 0.434464 0.586192
156 1 0.286268 0.41856 0.600731
158 3 0.289397 0.42793 0.621699
3027 4 0.333123 0.4618 0.646176
3025 2 0.353838 0.474391 0.640979
3571 2 0.349278 0.418568 0.585741
3026 4 0.374554 0.486982 0.635782
2503 2 0.403758 0.486692 0.60809
2504 4 0.413964 0.481865 0.585736
2505 4 0.393553 0.491519 0.630443
3723 4 0.44468 0.429925 0.62573
3722 4 0.45293 0.478392 0.617565
3721 2 0.448805 0.454158 0.621648
3864 4 0.469824 0.473473 0.606849
3862 2 0.484834 0.49314 0.607919
3324 4 0.19289 0.00595897 0.699156
3322 2 0.214412 0.0176782 0.702965
3323 4 0.235934 0.0293974 0.706775
2705 4 0.251518 0.0566641 0.676857
524 3 0.253753 0.0333454 0.715701
522 3 0.252195 0.0643769 0.694516
523 3 0.264358 0.0667116 0.729986
521 1 0.264084 0.0533749 0.711006
525 3 0.285369 0.0493158 0.703755
3431 4 0.300975 0.0634809 0.707915
725 3 0.442639 0.0103307 0.699545
1375 2 0.000188696 0.139188 0.745286
4524 4 0.191343 0.139127 0.67046
4522 2 0.206948 0.146274 0.688519
2773 2 0.247046 0.156549 0.731353
4523 4 0.222553 0.153421 0.706577
2775 4 0.236655 0.167226 0.711164
1620 4 0.274 0.0830864 0.731049
3430 2 0.313561 0.0830724 0.699374
1618 2 0.271529 0.105405 0.742138
3432 4 0.326146 0.102664 0.690833
528 3 0.341928 0.111924 0.682926
3399 4 0.461228 0.15266 0.693707
3803 4 0.025261 0.189345 0.678501
2814 4 0.0713158 0.241841 0.682801
2813 4 0.105033 0.251602 0.718233
2812 2 0.0881742 0.246721 0.700517
3348 4 0.131079 0.196594 0.738079
1404 4 0.110868 0.241621 0.735643
3346 2 0.109409 0.190839 0.748917
3412 2 0.39039 0.226934 0.670079
3413 4 0.413893 0.221921 0.677314
1640 4 0.432371 0.220408 0.683025
3351 4 0.497468 0.237445 0.69807
3398 4 0.498473 0.185271 0.692671
3397 2 0.479851 0.168966 0.693189
1639 2 0.45511 0.226921 0.690757
1641 4 0.477848 0.233433 0.69849
1295 4 0.0109199 0.265847 0.685177
691 1 0.0348975 0.302609 0.732383