ITEM: TIMESTEP
1988000
ITEM: NUMBER OF ATOMS
4590
ITEM: BOX BOUNDS xy xz yz pp pp pp
-9.9985700000000008e+00 9.9985700000000008e+00 0.0000000000000000e+00
-9.9985700000000008e+00 9.9985700000000008e+00 0.0000000000000000e+00
-9.9985700000000008e+00 9.9985700000000008e+00 0.0000000000000000e+00
ITEM: ATOMS id type xs ys zs
1827 4 0.999929 0.0197896 0.0554358
2552 4 0.0182555 0.0221501 0.0445936
2551 2 0.0383371 0.0212542 0.0297231
2553 4 0.0584187 0.0203582 0.0148525
4400 4 0.0776821 0.0149233 0.013364
4399 2 0.0985716 0.0285901 0.014788
4401 4 0.119461 0.0422569 0.016212
1566 4 0.130597 0.0579601 0.0110369
1124 4 0.243237 0.080639 0.0516079
1531 2 0.36901 0.0714998 0.0385011
2638 2 0.392449 0.0364099 0.0739806
1533 4 0.386476 0.055847 0.0471669
2639 4 0.399775 0.0574887 0.0627022
2522 4 0.448111 0.0186611 0.0120423
54 3 0.434388 0.0712751 0.0427272
55 3 0.445552 0.0358076 0.0486467
51 1 0.447094 0.0572528 0.0561552
52 3 0.469062 0.0640237 0.055288
3291 4 0.485535 0.0708999 0.0476461
3876 4 0.511225 0.99817 0.0145416
53 3 0.439723 0.0584991 0.0781212
419 4 0.452497 0.0023435 0.0215529
1232 4 0.0430987 0.101023 0.00663768
699 4 0.162785 0.137617 0.0436763
697 2 0.182584 0.12662 0.0542707
698 4 0.202383 0.115622 0.0648652
1125 4 0.219779 0.123784 0.0610381
1123 2 0.231508 0.102211 0.056323
1532 4 0.351543 0.0871526 0.0298353
1248 4 0.355288 0.0855917 0.00987413
1246 2 0.349265 0.107301 0.99903
2400 4 0.374603 0.140492 0.0674815
2398 2 0.388482 0.1384 0.0467893
2399 4 0.402361 0.136309 0.0260971
2517 4 0.415221 0.122578 0.0218478
2515 2 0.431135 0.119877 0.00275205
666 4 0.0171026 0.244296 0.0059441
3633 4 0.000611363 0.233791 0.00998703
1783 2 0.116184 0.177948 0.0741892
1784 4 0.130081 0.163598 0.0591518
933 4 0.139574 0.177376 0.0480316
931 2 0.162713 0.18374 0.0410121
932 4 0.185852 0.190104 0.0339927
1254 4 0.194334 0.1929 0.0516795
1252 2 0.214645 0.204152 0.0424043
1253 4 0.234956 0.215405 0.0331292
294 4 0.250326 0.212707 0.019757
292 2 0.268071 0.196432 0.0130184
293 4 0.285815 0.180156 0.00627991
670 2 0.413509 0.219456 0.0590432
671 4 0.407669 0.196353 0.0666146
672 4 0.419349 0.242559 0.0514719
1140 4 0.0134579 0.316227 0.0289474
2788 2 0.22415 0.331471 0.00356122
2789 4 0.246681 0.321901 0.00865528
627 4 0.266354 0.325081 0.01185
1586 4 0.400367 0.299011 0.0607548
702 4 0.402188 0.307782 0.0428823
700 2 0.387421 0.303344 0.0231993
1585 2 0.388516 0.288631 0.0801703
701 4 0.372654 0.298906 0.00351631
3100 2 0.45545 0.258535 0.0699988
3101 4 0.431345 0.254885 0.0644458
2855 4 0.440038 0.27883 0.0193185
2854 2 0.459982 0.290791 0.010133
3102 4 0.479555 0.262184 0.0755518
1674 4 0.00222016 0.399957 0.017211
1047 4 0.0500297 0.388021 0.0923234
4187 4 0.00296431 0.381547 0.0220862
2228 4 0.157931 0.343152 0.04495
2453 4 0.167994 0.358746 0.0545662
2227 2 0.170907 0.339059 0.0239722
2790 4 0.20162 0.341042 0.998467
2452 2 0.185796 0.368656 0.0690603
2454 4 0.203598 0.378565 0.0835544
2229 4 0.183883 0.334966 0.00299445
2449 2 0.390034 0.378895 0.0505454
2450 4 0.387254 0.37052 0.0271505
2451 4 0.392815 0.387269 0.0739403
1069 2 0.478921 0.403176 0.0201443
1071 4 0.457321 0.391824 0.0146931
4366 2 0.0260436 0.450494 0.0638829
4367 4 0.0508665 0.447934 0.0654413
1664 4 0.0696487 0.442794 0.0699632
1663 2 0.0887793 0.45482 0.0592593
1665 4 0.10791 0.466846 0.0485554
1559 4 0.127148 0.471692 0.048231
1558 2 0.151985 0.474573 0.0481524
1560 4 0.176822 0.477454 0.0480738
1775 4 0.188693 0.493166 0.0524273
1774 2 0.212989 0.490695 0.0577902
1776 4 0.237286 0.488224 0.0631531
1792 2 0.278982 0.496697 0.0803658
1236 4 0.327166 0.455549 0.0289991
1794 4 0.25625 0.494588 0.0701693
3646 2 0.336833 0.484743 0.0703671
3648 4 0.359774 0.477437 0.0636214
132 3 0.399705 0.432039 0.0450887
1234 2 0.34457 0.454417 0.0110831
1070 4 0.500521 0.414529 0.0255955
4272 4 0.408591 0.477282 0.0102881
134 3 0.41784 0.461889 0.0589727
131 1 0.420432 0.440478 0.0504145
135 3 0.430238 0.427031 0.0659596
133 3 0.433422 0.441146 0.0312001
1224 4 0.441405 0.453187 0.017048
3258 4 0.429776 0.412549 0.0788285
1222 2 0.462033 0.467199 0.0152269
1223 4 0.482662 0.481211 0.0134059
2771 4 0.502432 0.482326 0.0142954
2472 4 0.0796112 0.052092 0.151658
834 4 0.0774813 0.0480637 0.13122
832 2 0.0893849 0.0673247 0.120613
558 4 0.0954767 0.06658 0.167723
310 2 0.227471 0.998825 0.113117
312 4 0.208007 0.0133696 0.119018
2640 4 0.385122 0.0153311 0.0852589
2714 4 0.430017 0.0471088 0.0916341
2713 2 0.441921 0.0500596 0.113423
2715 4 0.453826 0.0530104 0.135211
476 4 0.473454 0.0529076 0.128781
1038 4 0.453231 0.0147204 0.11793
475 2 0.493909 0.0660306 0.134662
3782 4 0.437903 0.00249017 0.119436
1036 2 0.47295 0.999503 0.120112
2718 4 0.0423135 0.161082 0.103628
2673 4 0.029337 0.146237 0.101935
2671 2 0.0102852 0.130145 0.10013
2664 4 0.0162245 0.140786 0.145352
2662 2 0.0340609 0.12387 0.149922
2663 4 0.0518972 0.106954 0.154493
3498 4 0.00404158 0.155828 0.149112
833 4 0.101289 0.0865856 0.110006
765 4 0.114822 0.0976087 0.101355
763 2 0.129068 0.106393 0.11993
764 4 0.143314 0.115177 0.138506
3504 4 0.163224 0.110892 0.132643
3502 2 0.186744 0.106921 0.125148
3503 4 0.210265 0.10295 0.117652
732 4 0.222194 0.107698 0.102781
730 2 0.245125 0.10301 0.111578
731 4 0.268056 0.0983222 0.120374
2596 2 0.296907 0.10587 0.155164
2598 4 0.280124 0.105112 0.136645
2944 2 0.453998 0.111009 0.151521
2945 4 0.469355 0.13074 0.151512
1497 4 0.466803 0.140852 0.133335
2946 4 0.43864 0.0912779 0.15153
1495 2 0.48837 0.14821 0.123044
2716 2 0.0652117 0.169165 0.0976671
1765 2 0.0444525 0.243318 0.149967
1766 4 0.0417035 0.220243 0.159198
2717 4 0.0881099 0.177248 0.0917065
1785 4 0.102286 0.192298 0.0892265
2768 4 0.0944947 0.201986 0.142962
2767 2 0.104327 0.201948 0.165951
914 4 0.359937 0.192003 0.126259
913 2 0.357054 0.201106 0.149368
2820 4 0.33119 0.255919 0.12887
2891 4 0.0477382 0.325232 0.116201
2890 2 0.046766 0.300485 0.119641
2892 4 0.0457938 0.275739 0.12308
1767 4 0.0472014 0.266392 0.140737
2818 2 0.350085 0.271124 0.122792
2819 4 0.368981 0.286329 0.116714
1587 4 0.376664 0.27825 0.0995858
3791 4 0.444862 0.283288 0.159354
1046 4 0.0401852 0.341469 0.107714
1045 2 0.0451074 0.364745 0.100018
324 4 0.2173 0.365194 0.0913903
322 2 0.239456 0.374834 0.0978245
323 4 0.261611 0.384473 0.104259
3405 4 0.272652 0.385866 0.087307
3403 2 0.296416 0.391629 0.092528
3404 4 0.320179 0.397392 0.097749
3657 4 0.33531 0.399419 0.110818
3655 2 0.356763 0.397509 0.0981178
3656 4 0.378217 0.395599 0.0854179
101 1 0.405302 0.380458 0.161559
103 3 0.384183 0.382648 0.1522
102 3 0.418305 0.39819 0.154802
104 3 0.415164 0.360739 0.154326
1573 2 0.461909 0.405895 0.145905
1575 4 0.486806 0.408064 0.145116
387 4 0.0283562 0.422736 0.139636
385 2 0.0065622 0.412419 0.146251
1680 4 0.127539 0.487627 0.16484
1793 4 0.301714 0.498806 0.0905624
3647 4 0.313891 0.492049 0.0771128
748 2 0.410449 0.452667 0.158748
750 4 0.390251 0.464377 0.149798
1574 4 0.437011 0.403726 0.146693
3257 4 0.454677 0.437533 0.114275
3256 2 0.442226 0.425041 0.0965518
1017 4 0.479056 0.433255 0.140837
749 4 0.430648 0.440956 0.167698
1015 2 0.497008 0.443084 0.126474
2470 2 0.0615377 0.0484463 0.168547
2471 4 0.0434641 0.0448007 0.185437
1180 2 0.0175039 0.0137179 0.219149
1182 4 0.0381283 0.0165316 0.233002
2858 4 0.0358074 0.0534427 0.202758
1428 4 0.0514493 0.0145827 0.24817
2857 2 0.0355174 0.077757 0.208582
2779 2 0.346691 0.028785 0.198995
2780 4 0.351908 0.0506607 0.209923
2546 4 0.365448 0.0651166 0.206345
2545 2 0.385825 0.0636493 0.22076
2547 4 0.406202 0.062182 0.235176
4509 4 0.39988 0.0559844 0.254485
2859 4 0.0352274 0.102071 0.214407
19 3 0.0282045 0.102218 0.23428
548 4 0.0871101 0.161798 0.23495
2759 4 0.0740412 0.167226 0.250143
556 2 0.0990743 0.0911427 0.170711
557 4 0.102672 0.115705 0.173698
305 4 0.199007 0.0946053 0.215508
304 2 0.218197 0.0940661 0.231528
306 4 0.237386 0.093527 0.247549
2597 4 0.313689 0.106627 0.173684
3992 4 0.404073 0.106627 0.20366
3993 4 0.419175 0.151827 0.188507
3991 2 0.411624 0.129227 0.196084
350 4 0.46435 0.0852239 0.229983
349 2 0.482763 0.0959534 0.216905
2477 4 0.0501262 0.215508 0.176488
2895 4 0.022233 0.178053 0.225379
2478 4 0.0225168 0.189265 0.208889
2476 2 0.0363215 0.202386 0.192688
547 2 0.101168 0.176522 0.220433
549 4 0.115227 0.191247 0.205917
2769 4 0.114159 0.201911 0.18894
915 4 0.354171 0.21021 0.172476
828 4 0.369138 0.223778 0.16885
826 2 0.385054 0.237402 0.182497
827 4 0.40097 0.251027 0.196144
2670 4 0.420022 0.170878 0.183917
2668 2 0.439476 0.185367 0.189981
2634 4 0.473643 0.21145 0.188518
2669 4 0.45893 0.199857 0.196045
2632 2 0.481312 0.23507 0.191423
2955 4 0.0901916 0.257746 0.188021
3209 4 0.0266589 0.336054 0.173612
519 4 0.13766 0.254222 0.226994
2953 2 0.108091 0.263519 0.204497
2954 4 0.125991 0.269292 0.220973
266 4 0.161691 0.29563 0.232536
517 2 0.134982 0.250029 0.251498
265 2 0.185919 0.29887 0.227275
267 4 0.210148 0.30211 0.222014
560 4 0.226596 0.31167 0.214092
3792 4 0.418738 0.260173 0.195187
2633 4 0.488981 0.258691 0.194327
3790 2 0.4318 0.271731 0.17727
2492 4 0.496551 0.276706 0.197844
2491 2 0.488661 0.299716 0.203632
621 4 0.488656 0.320318 0.227686
2493 4 0.48077 0.322725 0.20942
619 2 0.488524 0.33076 0.250404
2556 4 0.0110083 0.325049 0.18088
3208 2 0.050108 0.343014 0.178799
3210 4 0.0735571 0.349974 0.183985
3800 4 0.0719651 0.366979 0.193828
3799 2 0.0877437 0.385602 0.199249
3801 4 0.103522 0.404225 0.204671
3608 4 0.122189 0.400642 0.211593
3607 2 0.144828 0.410658 0.208075
559 2 0.230845 0.335187 0.221444
561 4 0.235093 0.358705 0.228797
3455 4 0.334386 0.353678 0.204899
3454 2 0.348824 0.354654 0.22529
105 3 0.403775 0.380504 0.184281
3819 4 0.478754 0.418422 0.200764
443 4 0.0161487 0.483361 0.237945
275 4 0.998395 0.478227 0.228841
442 2 0.0363235 0.495052 0.246972
3609 4 0.167467 0.420674 0.204558
428 4 0.162655 0.440338 0.203974
427 2 0.171282 0.461723 0.194307
429 4 0.17991 0.483108 0.18464
3881 4 0.37629 0.439077 0.234329
4434 4 0.39414 0.437783 0.226562
4432 2 0.411451 0.453805 0.218268
2561 4 0.493476 0.488521 0.188211
4433 4 0.428761 0.469828 0.209974
2564 4 0.440469 0.476233 0.22612
2563 2 0.462238 0.483686 0.216335
2565 4 0.484006 0.49114 0.20655
1426 2 0.051667 0.0382208 0.256317
1427 4 0.0518847 0.061859 0.264464
704 4 0.0585146 0.0618834 0.283751
703 2 0.0785914 0.0751543 0.290533
1700 4 0.336634 0.0677082 0.311504
3401 4 0.398036 0.00264617 0.279738
4508 4 0.412399 0.00969098 0.26866
4507 2 0.406139 0.0328377 0.261572
3888 4 0.392666 0.0689682 0.324037
2646 4 0.356506 0.00713784 0.3216
2642 4 0.387439 0.0640012 0.342149
488 4 0.501323 0.00777172 0.333971
489 4 0.456648 0.0254078 0.320045
487 2 0.478986 0.0165897 0.327008
707 4 0.446217 0.00784923 0.320441
2758 2 0.0591693 0.148806 0.258189
3479 4 0.0087148 0.0828423 0.278822
20 3 0.040135 0.0911702 0.26824
18 3 0.00317236 0.0941361 0.261712
2760 4 0.0442973 0.130387 0.266235
17 3 0.0246687 0.124878 0.264057
16 1 0.0241363 0.102954 0.257113
705 4 0.0986682 0.0884253 0.297315
743 4 0.108891 0.0981351 0.312483
742 2 0.131364 0.106289 0.319806
744 4 0.153837 0.114443 0.32713
354 4 0.171986 0.108316 0.3352
352 2 0.196635 0.109932 0.331329
761 4 0.24779 0.0824519 0.259035
1699 2 0.324422 0.0813603 0.294484
1701 4 0.31221 0.0950125 0.277465
760 2 0.271167 0.0897022 0.264145
762 4 0.294544 0.0969526 0.269256
3852 4 0.337669 0.083181 0.324374
3886 2 0.405547 0.0777755 0.3045
3887 4 0.418428 0.0865827 0.284962
518 4 0.132305 0.245836 0.276001
2684 4 0.228017 0.245583 0.259401
372 4 0.321886 0.253535 0.286872
370 2 0.343581 0.248395 0.29819
371 4 0.365276 0.243254 0.309508
2486 4 0.384268 0.237106 0.307815
2485 2 0.396488 0.249722 0.325612
1493 4 0.0675455 0.30412 0.274008
1492 2 0.091397 0.308707 0.279944
1494 4 0.115249 0.313295 0.285881
2580 4 0.134135 0.319655 0.286314
3058 2 0.200169 0.288964 0.332582
3059 4 0.216152 0.287334 0.313422
2528 4 0.230149 0.289055 0.298011
2683 2 0.248766 0.257729 0.266267
2685 4 0.269516 0.269875 0.273132
3206 4 0.276709 0.288252 0.273607
3205 2 0.299887 0.278881 0.274
2527 2 0.252182 0.295572 0.307873
3207 4 0.323065 0.26951 0.274393
2529 4 0.274215 0.30209 0.317735
469 2 0.441758 0.283659 0.326847
471 4 0.464033 0.290933 0.318122
1035 4 0.473494 0.294626 0.300692
247 2 0.0126233 0.34331 0.289148
249 4 0.0350864 0.353806 0.285918
872 4 0.0492445 0.361073 0.29814
871 2 0.0732322 0.358471 0.304698
2578 2 0.15595 0.331694 0.2884
873 4 0.0972198 0.355869 0.311256
650 4 0.113607 0.365263 0.317662
649 2 0.13717 0.368926 0.325184
1698 4 0.135524 0.413776 0.293309
2579 4 0.177765 0.343732 0.290487
3194 4 0.183079 0.363502 0.286882
3193 2 0.206148 0.355645 0.281288
3195 4 0.229216 0.347788 0.275694
2474 4 0.225862 0.374988 0.309125
142 3 0.206823 0.369437 0.31245
2473 2 0.250341 0.379179 0.30623
2475 4 0.274821 0.38337 0.303335
3596 4 0.290214 0.395946 0.29742
3595 2 0.309085 0.412239 0.295513
3456 4 0.363261 0.355629 0.245681
288 4 0.369774 0.374415 0.248975
286 2 0.386578 0.374059 0.267487
287 4 0.403382 0.373703 0.286
3882 4 0.367404 0.412108 0.275494
1788 4 0.484529 0.35268 0.28911
620 4 0.488392 0.341203 0.273122
291 4 0.422152 0.378081 0.292581
289 2 0.438564 0.39153 0.279353
290 4 0.454975 0.40498 0.266125
453 4 0.0738359 0.423214 0.306104
451 2 0.0561007 0.432446 0.321118
1750 2 0.0741329 0.495402 0.321075
1697 4 0.0919555 0.426006 0.314593
1696 2 0.11374 0.419891 0.303951
2622 4 0.151418 0.421229 0.304651
2620 2 0.168312 0.439072 0.300026
1472 4 0.202697 0.457465 0.305205
2621 4 0.185207 0.456915 0.2954
1471 2 0.226489 0.462754 0.299623
1473 4 0.25028 0.468044 0.294041
644 4 0.270061 0.472024 0.295604
643 2 0.289954 0.475216 0.280796
4001 4 0.321125 0.490547 0.27667
645 4 0.309847 0.478408 0.265989
3597 4 0.327957 0.428531 0.293605
4002 4 0.370846 0.488242 0.281496
3880 2 0.371847 0.425593 0.254912
4000 2 0.345986 0.489395 0.279083
1625 4 0.340392 0.435476 0.307808
1624 2 0.361968 0.447802 0.310587
1626 4 0.383544 0.460128 0.313365
2512 2 0.491211 0.414144 0.273898
2513 4 0.467286 0.420351 0.270124
1631 4 0.483486 0.467324 0.30045
1630 2 0.465307 0.482702 0.29282
1632 4 0.447128 0.49808 0.28519
2641 2 0.400351 0.0488762 0.357305
2643 4 0.413263 0.0337512 0.372461
2943 4 0.419525 0.0469555 0.385618
2830 2 0.495289 0.078408 0.407326
2831 4 0.478757 0.0705687 0.390284
2942 4 0.464044 0.064243 0.40045
2941 2 0.441784 0.0555992 0.393034
575 4 0.0132742 0.104178 0.407571
2933 4 0.00678219 0.142452 0.374441
2934 4 0.0450822 0.123262 0.34864
791 4 0.0610109 0.110575 0.355297
2932 2 0.0259322 0.132857 0.36154
790 2 0.0826009 0.0992848 0.360917
792 4 0.104191 0.0879941 0.366536
1200 4 0.118441 0.083299 0.380762
1198 2 0.138863 0.0914866 0.392641
1199 4 0.159284 0.0996742 0.404521
353 4 0.221284 0.111548 0.327457
2616 4 0.232223 0.0991739 0.340044
1518 4 0.178132 0.105807 0.41078
1516 2 0.19839 0.119453 0.40543
1517 4 0.218647 0.133098 0.40008
503 4 0.22732 0.151526 0.404245
502 2 0.243703 0.145835 0.386234
2615 4 0.275193 0.111606 0.362401
2614 2 0.253708 0.10539 0.351222
677 4 0.277169 0.130991 0.36604
676 2 0.298755 0.13654 0.354708
678 4 0.320341 0.142089 0.343376
504 4 0.260086 0.140145 0.368223
716 4 0.333781 0.141864 0.35833
3850 2 0.357108 0.0875574 0.339478
717 4 0.380161 0.147534 0.34051
3851 4 0.376547 0.0919338 0.354583
715 2 0.356971 0.144699 0.34942
473 4 0.155738 0.172067 0.343988
953 4 0.0928294 0.240097 0.388879
472 2 0.158447 0.178001 0.368126
474 4 0.161156 0.183935 0.392265
803 4 0.156572 0.200251 0.403999
2613 4 0.154734 0.243213 0.381509
952 2 0.0774735 0.258396 0.396263
954 4 0.0621176 0.276694 0.403647
1397 4 0.0989434 0.245988 0.370266
1396 2 0.123593 0.2471 0.366221
1398 4 0.148243 0.248212 0.362177
3060 4 0.184187 0.290594 0.351742
2611 2 0.173419 0.258465 0.388099
2612 4 0.192103 0.273718 0.394689
1211 4 0.206989 0.260253 0.396058
1210 2 0.231041 0.265934 0.392258
1212 4 0.255092 0.271616 0.388458
423 4 0.273437 0.267717 0.379947
421 2 0.297683 0.272816 0.38331
422 4 0.321929 0.277916 0.386674
2924 4 0.291354 0.325521 0.411058
2487 4 0.408707 0.262337 0.343408
260 4 0.339584 0.279632 0.376826
259 2 0.363556 0.275625 0.382694
261 4 0.387529 0.271618 0.388562
1193 4 0.407338 0.277319 0.383292
1152 4 0.49677 0.319764 0.424468
470 4 0.419484 0.276385 0.335572
1150 2 0.481791 0.306719 0.40928
1192 2 0.432331 0.277963 0.382923
1194 4 0.457324 0.278606 0.382555
1151 4 0.466813 0.293674 0.394092
2537 4 0.423791 0.308048 0.418787
651 4 0.160732 0.372589 0.332705
2571 4 0.219035 0.336882 0.343008
2569 2 0.24324 0.335988 0.349213
145 3 0.180697 0.378171 0.337631
143 3 0.205991 0.351387 0.345407
144 3 0.216568 0.387853 0.343732
141 1 0.202378 0.371758 0.3349
2957 4 0.227263 0.397643 0.357846
2956 2 0.24786 0.395266 0.37182
2923 2 0.284994 0.336485 0.389505
2958 4 0.268457 0.392889 0.385795
2570 4 0.267446 0.335095 0.355418
3512 4 0.275597 0.391668 0.404817
2925 4 0.278634 0.347448 0.367952
3511 2 0.296728 0.394899 0.417789
2852 4 0.402726 0.376411 0.332394
2851 2 0.416243 0.384444 0.351835
2853 4 0.429761 0.392477 0.371275
768 4 0.43945 0.393261 0.389019
766 2 0.461683 0.381909 0.390433
767 4 0.483916 0.370557 0.391847
2156 4 0.499673 0.374864 0.403348
452 4 0.0383656 0.441679 0.336132
458 4 0.0195143 0.439997 0.34082
636 4 0.0475769 0.473777 0.406868
3687 4 0.0553184 0.471542 0.389514
3685 2 0.0728964 0.471754 0.371733
1752 4 0.0802997 0.48511 0.343012
3686 4 0.0904745 0.471966 0.353953
1173 4 0.210897 0.453754 0.41037
1171 2 0.234948 0.452503 0.403651
4082 4 0.198197 0.444557 0.398454
1172 4 0.259 0.451252 0.396932
3704 4 0.273658 0.457061 0.408556
1644 4 0.397179 0.470059 0.413376
1642 2 0.420387 0.47845 0.409357
1643 4 0.443595 0.486842 0.405338
2922 4 0.449686 0.503351 0.415949
2920 2 0.474668 0.504375 0.416052
2499 4 0.0241164 0.116947 0.440598
2498 4 0.048816 0.112398 0.483841
2497 2 0.0364662 0.114672 0.46222
3374 4 0.243994 0.161912 0.450314
3373 2 0.268038 0.155669 0.453162
3375 4 0.292081 0.149425 0.45601
3437 4 0.302136 0.16508 0.446952
3079 2 0.48921 0.138829 0.441351
258 4 0.416973 0.108562 0.455532
256 2 0.436282 0.123794 0.460042
257 4 0.455591 0.139026 0.464552
3080 4 0.470889 0.12896 0.455213
3265 2 0.0364483 0.217242 0.485894
3267 4 0.0486688 0.211688 0.464799
332 4 0.0602255 0.197224 0.463805
331 2 0.0795672 0.209725 0.454068
333 4 0.0989088 0.222226 0.444331
3050 4 0.107322 0.221909 0.462644
3049 2 0.120974 0.242857 0.462644
3051 4 0.134626 0.263804 0.462643
802 2 0.178723 0.200061 0.415595
804 4 0.200874 0.199871 0.427192
513 4 0.208508 0.208414 0.445096
511 2 0.22619 0.192803 0.453394
512 4 0.243872 0.177192 0.461692
1009 2 0.288337 0.224068 0.476133
1011 4 0.288479 0.219884 0.451482
3436 2 0.320522 0.173718 0.461529
1010 4 0.288194 0.228251 0.500784
3438 4 0.338909 0.182356 0.476107
2456 4 0.358543 0.23491 0.465033
2455 2 0.377509 0.224528 0.452476
2457 4 0.396476 0.214147 0.439919
984 4 0.35065 0.252204 0.460136
3026 4 0.342664 0.195743 0.490297
3822 4 0.414685 0.220578 0.432642
3820 2 0.433616 0.222009 0.448913
3821 4 0.452547 0.223439 0.465185
2653 2 0.283228 0.319212 0.473647
2655 4 0.280777 0.312986 0.497739
2654 4 0.285679 0.325438 0.449555
982 2 0.337266 0.246569 0.48049
2536 2 0.416498 0.298144 0.440556
2538 4 0.409204 0.288241 0.462326
2882 4 0.357552 0.311137 0.492763
2881 2 0.375242 0.325091 0.48192
2222 4 0.108492 0.389725 0.480687
3513 4 0.317859 0.398131 0.43076
3447 4 0.334675 0.408316 0.431032
2883 4 0.392932 0.339045 0.471078
3422 4 0.396638 0.410054 0.450584
3445 2 0.355531 0.407494 0.444798
3446 4 0.376387 0.406671 0.458565
4023 4 0.402899 0.355209 0.477227
2875 2 0.489283 0.359832 0.46036
4021 2 0.42737 0.357267 0.472521
4022 4 0.45184 0.359324 0.467815
2876 4 0.470154 0.365896 0.475276
635 4 0.0732935 0.478701 0.449472
3813 4 0.057852 0.4807 0.495828
634 2 0.0604352 0.476239 0.42817
3119 4 0.076365 0.498603 0.447896
4068 4 0.128392 0.48161 0.463611
4067 4 0.145803 0.443309 0.436581
4066 2 0.137098 0.46246 0.450096
4081 2 0.181527 0.446515 0.416987
4083 4 0.164857 0.448472 0.435521
3703 2 0.296031 0.459767 0.419388
3705 4 0.318403 0.462474 0.43022
1392 4 0.33532 0.470418 0.437166
1390 2 0.359249 0.466586 0.431007
1391 4 0.383177 0.462754 0.424849
3421 2 0.417124 0.41868 0.462033
3423 4 0.437611 0.427305 0.473481
3113 4 0.454152 0.436915 0.481794
3112 2 0.477093 0.435048 0.491562
4049 4 0.0278786 0.0705498 0.54437
4048 2 0.0515118 0.0659899 0.537599
4050 4 0.0751451 0.06143 0.530827
721 2 0.0215632 0.0172539 0.579963
3087 4 0.0106526 0.0675778 0.552426
1926 4 0.0952527 0.0575372 0.533152
1924 2 0.116071 0.0671956 0.523227
1925 4 0.136889 0.0768541 0.513301
220 3 0.152592 0.085276 0.523542
216 1 0.17143 0.0758799 0.532233
219 3 0.175039 0.0550606 0.522645
217 3 0.168809 0.0732581 0.554936
4282 2 0.224288 0.0694966 0.519074
4284 4 0.200473 0.0768838 0.517215
4283 4 0.248103 0.0621094 0.520933
3712 2 0.268935 0.0605879 0.547961
3713 4 0.251742 0.0747678 0.536624
888 4 0.291124 0.0335634 0.542773
886 2 0.314599 0.0253326 0.545295
3714 4 0.286129 0.0464079 0.559297
887 4 0.338074 0.0171019 0.547816
3623 4 0.347698 0.0103949 0.53213
3622 2 0.366048 0.0248123 0.52315
3624 4 0.384397 0.0392298 0.51417
218 3 0.189679 0.0896693 0.528331
3315 4 0.253236 0.14124 0.571675
3266 4 0.0242278 0.222797 0.506988
2750 4 0.0175716 0.217909 0.524987
2749 2 0.0346517 0.225881 0.541416
2751 4 0.0517317 0.233853 0.557845
4513 2 0.0896926 0.23536 0.552417
1136 4 0.117896 0.222206 0.52327
4515 4 0.110742 0.229173 0.540425
1135 2 0.138097 0.207628 0.525412
1137 4 0.158297 0.193051 0.527555
797 4 0.176248 0.190456 0.517262
796 2 0.194275 0.200606 0.531305
798 4 0.212302 0.210756 0.545348
2121 4 0.227847 0.218936 0.53489
2119 2 0.241743 0.234098 0.54911
3025 2 0.353743 0.202892 0.511542
3027 4 0.364821 0.210042 0.532787
4514 4 0.0686429 0.241546 0.564409
728 4 0.125559 0.272825 0.583217
727 2 0.127719 0.294754 0.5714
729 4 0.129879 0.316683 0.559583
3434 4 0.146761 0.323632 0.56385
2120 4 0.25564 0.249259 0.56333
801 4 0.268345 0.312532 0.513642
799 2 0.287742 0.312915 0.529415
800 4 0.307139 0.313297 0.545188
1490 4 0.320297 0.301265 0.535163
3066 4 0.271307 0.321516 0.576186
983 4 0.323882 0.240934 0.500844
1489 2 0.338107 0.296724 0.518211
1491 4 0.355917 0.292184 0.50126
3222 4 0.429588 0.257953 0.50225
3220 2 0.449582 0.27107 0.509555
3986 4 0.447632 0.309634 0.577856
3161 4 0.489622 0.283884 0.514236
3221 4 0.469575 0.284188 0.51686
2821 2 0.155505 0.403144 0.538677
3433 2 0.148847 0.348089 0.559085
2823 4 0.144263 0.421247 0.525599
2223 4 0.126022 0.418431 0.517693
1007 4 0.109048 0.422037 0.586867
2221 2 0.117257 0.404078 0.49919
3435 4 0.150932 0.372546 0.55432
2822 4 0.166747 0.38504 0.551755
3812 4 0.0656245 0.444368 0.529299
3811 2 0.0617383 0.462534 0.512563
2678 4 0.127605 0.426399 0.583658
2677 2 0.137421 0.449395 0.583789
3706 2 0.200305 0.455423 0.561132
3708 4 0.218981 0.462182 0.545943
1544 4 0.229189 0.468025 0.530105
3707 4 0.181629 0.448665 0.576322
1543 2 0.247747 0.473824 0.514384
1545 4 0.266305 0.479623 0.498663
4317 4 0.386677 0.429849 0.568014
4315 2 0.368224 0.417155 0.579129
929 4 0.405881 0.429426 0.565239
928 2 0.427814 0.438942 0.572557
722 4 0.0428488 0.0299973 0.583081
2019 4 0.0607983 0.0388445 0.583431
2017 2 0.0857787 0.0397017 0.584105
3033 4 0.015411 0.0772108 0.679846
2018 4 0.110759 0.040559 0.58478
689 4 0.12648 0.0524874 0.588272
688 2 0.144056 0.0680737 0.596837
690 4 0.161631 0.0836599 0.605401
1058 4 0.2215 0.0220072 0.604248
1057 2 0.221162 0.0370704 0.624203
1059 4 0.220825 0.0521336 0.644157
3146 4 0.235288 0.0609215 0.654836
1218 4 0.174487 0.0853215 0.590598
734 4 0.236622 0.0118676 0.594834
735 4 0.28312 0.0147297 0.576659
1062 4 0.29556 0.0167626 0.592678
733 2 0.259871 0.0132987 0.585747
3145 2 0.258328 0.0700258 0.658223
1060 2 0.318636 0.0133457 0.601679
3147 4 0.281367 0.07913 0.66161
1061 4 0.341712 0.00992876 0.61068
2202 4 0.349296 0.0140185 0.629117
2200 2 0.37269 0.0127665 0.620379
2201 4 0.396084 0.0115146 0.611641
2657 4 0.415894 0.00950214 0.610173
2656 2 0.435822 0.0201936 0.62084
962 4 0.473241 0.0301357 0.64106
2658 4 0.455749 0.0308851 0.631508
961 2 0.494927 0.0365324 0.651736
4080 4 0.011162 0.147055 0.631845
4078 2 0.0327903 0.152572 0.643114
1308 4 0.0706579 0.149991 0.647549
4079 4 0.0544185 0.158088 0.654383
1306 2 0.0926041 0.158058 0.656406
1217 4 0.221207 0.102067 0.596717
4227 4 0.232593 0.143344 0.653451
1216 2 0.197847 0.0936945 0.593658
240 4 0.237039 0.113056 0.603359
959 4 0.175068 0.167455 0.633397
223 3 0.189558 0.151914 0.668492
4354 2 0.323946 0.0897662 0.665365
4356 4 0.299159 0.0875492 0.667787
3313 2 0.253561 0.161094 0.586869
4225 2 0.255897 0.140609 0.66209
238 2 0.258335 0.100023 0.60471
239 4 0.279631 0.0869906 0.606062
1032 4 0.297045 0.0888499 0.597189
1030 2 0.31581 0.10294 0.605823
1031 4 0.334574 0.11703 0.614457
4137 4 0.337206 0.133852 0.602829
4135 2 0.337183 0.158294 0.608098
4355 4 0.348733 0.0919832 0.662942
2318 4 0.408663 0.134817 0.665941
1196 4 0.414425 0.114133 0.667984
1197 4 0.367936 0.096451 0.662799
1195 2 0.39118 0.105292 0.665392
960 4 0.128284 0.164079 0.650736
958 2 0.151676 0.165767 0.642066
3314 4 0.253887 0.180949 0.602064
3236 4 0.321135 0.193502 0.616928
4136 4 0.33716 0.182736 0.613366
3237 4 0.350363 0.232408 0.605403
3235 2 0.335749 0.212955 0.611165
829 2 0.4043 0.192941 0.641034
830 4 0.393396 0.21528 0.643734
831 4 0.415203 0.170602 0.638335
1130 4 0.0143037 0.262051 0.66698
3323 4 0.130304 0.275732 0.60279
3322 2 0.141489 0.282062 0.624238
3324 4 0.152674 0.288393 0.645686
4213 2 0.237921 0.318054 0.604585
3008 4 0.172276 0.287903 0.637585
3007 2 0.196085 0.295002 0.634766
3009 4 0.219894 0.3021 0.631947
4214 4 0.21693 0.315526 0.617934
3064 2 0.293544 0.32152 0.587618
3116 4 0.304557 0.256411 0.64769
2048 4 0.322943 0.250618 0.647739
3115 2 0.288984 0.267907 0.631862
3117 4 0.273411 0.279404 0.616035
822 4 0.330563 0.320668 0.664686
3065 4 0.315781 0.321525 0.59905
820 2 0.322231 0.324615 0.641444
821 4 0.313898 0.328562 0.618202
2047 2 0.342749 0.256893 0.661649
3985 2 0.452239 0.326936 0.595307
2534 4 0.0662648 0.354514 0.664978
2533 2 0.0452103 0.342263 0.670619
1237 2 0.0725909 0.393708 0.65926
1238 4 0.0670435 0.418072 0.658376
1239 4 0.0781383 0.369344 0.660145
4215 4 0.258912 0.320582 0.591237
2309 4 0.251159 0.381912 0.593114
2310 4 0.279271 0.410965 0.622549
2308 2 0.265215 0.396438 0.607831
3330 4 0.298192 0.404291 0.620665
3328 2 0.320459 0.411354 0.611749
4316 4 0.349772 0.404461 0.590245
3987 4 0.456847 0.344239 0.612759
2845 2 0.450029 0.377831 0.6226
2847 4 0.446115 0.360006 0.605507
2846 4 0.453943 0.395655 0.639692
1008 4 0.0613856 0.434548 0.57835
3074 4 0.0598371 0.445986 0.594
3075 4 0.0184849 0.442214 0.621866
3073 2 0.039161 0.4441 0.607933
3177 4 0.00514698 0.425591 0.620413
2679 4 0.147238 0.472391 0.583919
1006 2 0.0852168 0.428292 0.582609
3317 4 0.195519 0.49212 0.582771
3329 4 0.342725 0.418417 0.602833
930 4 0.449747 0.448459 0.579875
3353 4 0.458347 0.446522 0.598385
3352 2 0.47757 0.452783 0.613097
3354 4 0.496794 0.459044 0.62781
1065 4 0.0335575 0.0219093 0.727244
3413 4 0.0217145 0.0384356 0.729523
2997 4 0.0354453 0.0777805 0.67655
88 3 0.207191 0.0854613 0.736353
2257 2 0.274199 0.00785634 0.713462
2259 4 0.29816 0.000782677 0.714448
2258 4 0.250237 0.01493 0.712477
918 4 0.373249 0.077945 0.723625
2269 2 0.426727 0.00290061 0.722675
4193 4 0.441092 0.0870046 0.727683
2271 4 0.427599 0.0115673 0.699238
2996 4 0.0835218 0.087099 0.666423
2995 2 0.0594835 0.0824398 0.671486
3002 4 0.015938 0.14222 0.699343
1307 4 0.11455 0.166125 0.665263
1259 4 0.101284 0.0906712 0.674993
1258 2 0.123311 0.0953037 0.685882
1260 4 0.145337 0.0999361 0.69677
1085 4 0.148976 0.0800002 0.700016
225 3 0.218676 0.129966 0.65911
221 1 0.203482 0.134688 0.675404
222 3 0.190715 0.115997 0.679506
1086 4 0.193869 0.0820042 0.721957
1084 2 0.171423 0.0810022 0.710987
224 3 0.214445 0.14072 0.694945
89 3 0.241385 0.100759 0.742765
4226 4 0.279201 0.137873 0.670729
726 4 0.297004 0.149549 0.674146
724 2 0.29696 0.16201 0.695822
725 4 0.296916 0.174471 0.717499
2276 4 0.259691 0.109674 0.747555
4164 4 0.338371 0.130515 0.700144
4162 2 0.354236 0.113067 0.708456
4163 4 0.3701 0.0956203 0.716768
916 2 0.397794 0.0827043 0.723456
2317 2 0.412886 0.153824 0.681628
917 4 0.42234 0.0874637 0.723288
4192 2 0.44601 0.0965068 0.750282
1146 4 0.0816908 0.239035 0.751412
3556 2 0.339012 0.177947 0.74119
3557 4 0.347879 0.191373 0.72205
1202 4 0.354841 0.211319 0.719855
1201 2 0.375718 0.21003 0.706155
1203 4 0.396594 0.208741 0.692454
2982 4 0.356963 0.225388 0.735771
2319 4 0.417108 0.172831 0.697315
3751 2 0.425871 0.194794 0.733413
3753 4 0.42424 0.187171 0.709656
3752 4 0.427503 0.202416 0.757171
2535 4 0.0241559 0.330012 0.676259
3099 4 0.244009 0.271483 0.753668
3244 2 0.268707 0.284862 0.73461
3245 4 0.273052 0.299604 0.714887
816 4 0.312749 0.321915 0.674117
815 4 0.277825 0.318687 0.709763
814 2 0.295287 0.320301 0.69194
2049 4 0.362556 0.263168 0.675559
2741 4 0.00505628 0.332486 0.684153
2242 2 0.0143045 0.486808 0.691646
2396 4 0.0648087 0.485395 0.752362
2243 4 0.0390161 0.487391 0.687878
1176 4 0.227128 0.457979 0.705563
1280 4 0.209561 0.465087 0.70802
1279 2 0.192746 0.480439 0.718353
1281 4 0.175932 0.495791 0.728686
1174 2 0.248544 0.469044 0.712205
1175 4 0.26996 0.480109 0.718846
882 4 0.277897 0.498191 0.720382
1063 2 0.0505964 0.0307714 0.743254
1132 2 0.0248969 0.0902293 0.763961
1064 4 0.0676353 0.0396335 0.759264
1133 4 0.0393284 0.0875243 0.7842
1134 4 0.0104653 0.0929344 0.743723
3197 4 0.0850796 0.0300425 0.760087
3196 2 0.10596 0.0389832 0.77054
3198 4 0.12684 0.0479238 0.780993
3293 4 0.147243 0.0534864 0.780041
3292 2 0.17181 0.0567771 0.783333
3294 4 0.196377 0.0600678 0.786626
2033 4 0.215537 0.0695113 0.783257
2032 2 0.228551 0.0636705 0.803792
90 3 0.227312 0.0750838 0.766437
2034 4 0.241566 0.0578297 0.824326
3095 4 0.260112 0.0599649 0.834054
1901 4 0.322451 0.0379406 0.808038
1900 2 0.319618 0.0536576 0.827277
1049 4 0.451335 0.0137353 0.816034
2510 4 0.44358 0.00290089 0.800482
2509 2 0.432673 0.992448 0.780559