ITEM: TIMESTEP
552500
ITEM: NUMBER OF ATOMS
4590
ITEM: BOX BOUNDS xy xz yz pp pp pp
-9.9985700000000008e+00 1.0998426999999992e+01 9.9985699999999156e-01
-9.9985700000000008e+00 9.9985700000000008e+00 0.0000000000000000e+00
-9.9985700000000008e+00 9.9985700000000008e+00 0.0000000000000000e+00
ITEM: ATOMS id type xs ys zs
3544 2 0.0109208 0.0440072 0.0386745
3545 4 0.0353316 0.0481902 0.0374317
405 4 0.0513153 0.05681 0.0292835
403 2 0.0663879 0.0591458 0.0490068
404 4 0.0814604 0.0614816 0.0687301
624 4 0.0877162 0.0467819 0.0809196
1021 2 0.121698 0.00875368 0.0528382
1023 4 0.135885 0.0202626 0.0694153
4026 4 0.155493 0.0215716 0.0671506
4024 2 0.180257 0.0212109 0.0635861
4025 4 0.205021 0.0208502 0.0600216
3624 4 0.213299 0.0355015 0.0687667
3622 2 0.234322 0.0479975 0.0681071
3623 4 0.255344 0.0604936 0.0674475
1108 2 0.415578 0.0305131 0.055682
1109 4 0.39782 0.02953 0.0732066
1110 4 0.433337 0.0314961 0.0381573
4505 4 0.438406 0.0146464 0.0268215
4504 2 0.441961 0.0169691 0.00219816
1231 2 0.0292241 0.143146 0.0710495
1232 4 0.00836926 0.132208 0.0641569
1233 4 0.0500789 0.154084 0.0779422
2555 4 0.119928 0.154424 0.0328834
2969 4 0.0996999 0.156776 0.0366558
2968 2 0.0877859 0.164516 0.0574497
2554 2 0.128651 0.157415 0.00969909
835 2 0.0640064 0.230033 0.0673526
836 4 0.0725149 0.236274 0.0448043
783 4 0.0919633 0.231109 0.0440835
781 2 0.116685 0.226475 0.0460715
2970 4 0.0758719 0.172257 0.0782437
782 4 0.141406 0.221841 0.0480595
1290 4 0.161145 0.227554 0.0504543
1288 2 0.184079 0.216481 0.0517481
1289 4 0.207013 0.205408 0.053042
959 4 0.336362 0.230805 0.0812873
2161 2 0.0580734 0.284608 0.0336365
2163 4 0.047603 0.263996 0.0253886
4477 2 0.0037236 0.325777 0.0808215
2162 4 0.0685438 0.305221 0.0418843
2828 4 0.0809229 0.307976 0.0258742
2827 2 0.105465 0.309395 0.0217075
2829 4 0.130007 0.310814 0.0175409
3102 4 0.149581 0.311898 0.0185106
3100 2 0.174196 0.308589 0.0144558
3101 4 0.198811 0.305279 0.010401
3921 4 0.213961 0.316806 0.00438837
3919 2 0.238217 0.319396 0.99951
157 3 0.307369 0.325126 0.00635542
3285 4 0.320262 0.331759 0.0219322
309 4 0.408025 0.298709 0.0701048
2287 2 0.4034 0.279301 0.0304156
2289 4 0.40312 0.287422 0.0540633
2288 4 0.403679 0.27118 0.0067679
3212 4 0.00854188 0.348239 0.00345032
3211 2 0.0200315 0.346203 0.0256168
4088 4 0.0407573 0.360074 0.0433975
3213 4 0.031521 0.344167 0.0477832
4087 2 0.0517597 0.378145 0.0559227
353 4 0.0533986 0.411763 0.0587023
4089 4 0.062762 0.396216 0.068448
3632 4 0.190319 0.344284 0.0827553
4547 4 0.191844 0.377918 0.00465227
3283 2 0.338415 0.347665 0.0255586
3284 4 0.356569 0.363571 0.0291851
354 4 0.0551197 0.453087 0.0307983
352 2 0.0542591 0.432425 0.0447503
282 4 0.0628862 0.469764 0.0258835
280 2 0.0685304 0.466089 0.00176181
853 2 0.452915 0.447045 0.0507052
854 4 0.45831 0.430758 0.0691146
855 4 0.44752 0.463333 0.0322959
288 4 0.464337 0.417248 0.0825725
578 4 0.0187886 0.0681198 0.0868682
577 2 0.0393011 0.0567028 0.0967247
579 4 0.0598136 0.0452857 0.106581
2453 4 0.00101288 0.0667362 0.0967771
1435 2 0.0747071 0.0753719 0.138992
1437 4 0.0905365 0.0614553 0.124763
622 2 0.103474 0.0630811 0.0901314
623 4 0.119232 0.0793804 0.0993432
3502 2 0.21624 0.0312989 0.148116
3504 4 0.195872 0.0301358 0.162489
3503 4 0.236608 0.032462 0.133743
122 3 0.320621 0.035145 0.161183
124 3 0.340926 0.0633812 0.14919
2481 4 0.359073 0.0628452 0.0954875
633 4 0.304814 0.0242856 0.168218
2480 4 0.385005 0.0196643 0.0870643
2479 2 0.372039 0.0412548 0.0912759
1069 2 0.397262 0.0119645 0.150146
1070 4 0.414234 0.0277748 0.142419
3509 4 0.429966 0.0278655 0.131721
3508 2 0.452381 0.0330275 0.140912
3510 4 0.474796 0.0381896 0.150102
32 3 0.48914 0.0486024 0.142168
33 3 0.493262 0.0286216 0.110487
652 2 0.0204749 0.0835746 0.160399
1436 4 0.0588777 0.0892885 0.153221
1584 4 0.0404526 0.163319 0.142736
654 4 0.0435043 0.0902962 0.166235
2939 4 0.163714 0.149435 0.152172
567 4 0.236149 0.101977 0.132228
565 2 0.260558 0.0952329 0.131763
566 4 0.284968 0.0884883 0.131298
659 4 0.301686 0.0981855 0.127308
658 2 0.324797 0.106635 0.1273
660 4 0.347907 0.115084 0.127292
3216 4 0.348934 0.116017 0.147968
3214 2 0.368872 0.127054 0.157108
3215 4 0.388809 0.138091 0.166249
1007 4 0.484117 0.157753 0.126802
3234 4 0.469878 0.0959944 0.14452
3232 2 0.480199 0.118051 0.141661
3233 4 0.49052 0.140108 0.138802
1006 2 0.461012 0.165192 0.119519
837 4 0.055498 0.223792 0.0899009
2942 4 0.0352438 0.17859 0.131183
2941 2 0.0533708 0.17409 0.114318
2943 4 0.0714977 0.16959 0.097452
524 4 0.117496 0.235792 0.092655
246 4 0.259946 0.187837 0.139434
244 2 0.245654 0.208884 0.136802
245 4 0.231362 0.22993 0.13417
2946 4 0.341912 0.182153 0.167806
958 2 0.338741 0.232887 0.10608
2511 4 0.334267 0.235199 0.14913
2944 2 0.356811 0.188637 0.14906
960 4 0.341121 0.23497 0.130873
252 4 0.380144 0.178923 0.122556
2945 4 0.37171 0.195121 0.130315
250 2 0.402224 0.177537 0.110775
251 4 0.424305 0.176152 0.0989952
1008 4 0.437907 0.172632 0.112235
2779 2 0.0361249 0.319008 0.12602
2780 4 0.0572542 0.311967 0.138016
2781 4 0.0149955 0.326048 0.114024
523 2 0.107106 0.257459 0.100967
525 4 0.0967153 0.279126 0.10928
2580 4 0.098264 0.28938 0.126047
2578 2 0.0981497 0.28942 0.151051
2717 4 0.293705 0.321102 0.151732
2716 2 0.312293 0.311484 0.166043
307 2 0.411449 0.285989 0.0914499
308 4 0.414873 0.273269 0.112795
4511 4 0.449398 0.333463 0.15761
4478 4 0.0141492 0.338836 0.0990399
103 3 0.00575636 0.415818 0.145578
1045 2 0.186453 0.374501 0.155047
1047 4 0.201397 0.359569 0.140882
3631 2 0.200928 0.351208 0.104138
3633 4 0.211537 0.358132 0.125521
2460 4 0.278865 0.33753 0.153848
286 2 0.488704 0.412049 0.0866907
4510 2 0.471386 0.342901 0.163239
105 3 0.0409484 0.42593 0.139167
3492 4 0.0532413 0.439556 0.136548
101 1 0.0189523 0.433014 0.138857
104 3 0.0128742 0.440035 0.117496
102 3 0.0156724 0.450686 0.153387
3490 2 0.0775164 0.441963 0.131624
3491 4 0.101791 0.444371 0.1267
561 4 0.120934 0.445596 0.12066
559 2 0.144961 0.451408 0.120401
336 4 0.142984 0.443148 0.166052
560 4 0.168988 0.45722 0.120143
482 4 0.187221 0.459617 0.113651
481 2 0.211966 0.457132 0.117226
483 4 0.236712 0.454647 0.120802
1577 4 0.257365 0.456853 0.118536
1576 2 0.279613 0.465682 0.12423
1578 4 0.301861 0.474511 0.129925
3786 4 0.321026 0.471777 0.124472
3784 2 0.343372 0.469634 0.135698
3785 4 0.365718 0.467491 0.146923
3596 4 0.379581 0.474221 0.160091
3595 2 0.399352 0.478682 0.145754
3597 4 0.419122 0.483142 0.131417
2784 4 0.432203 0.48885 0.117309
296 4 0.0167842 0.0555748 0.241661
1356 4 0.0250296 0.0733543 0.238562
1354 2 0.0496898 0.0700251 0.234801
1355 4 0.07435 0.066696 0.231039
2714 4 0.10611 0.0214021 0.233737
351 4 0.0923357 0.0707197 0.2375
349 2 0.112168 0.073128 0.252375
2713 2 0.119648 0.00704061 0.249692
546 4 0.167503 0.0512635 0.203441
544 2 0.178737 0.06531 0.220335
545 4 0.189971 0.0793565 0.237229
1476 4 0.263709 0.0295521 0.241498
631 2 0.288811 0.00685523 0.174268
1474 2 0.265829 0.00469413 0.244046
125 3 0.31232 0.0698688 0.173184
121 1 0.32934 0.0550968 0.16724
2486 4 0.366571 0.00549917 0.169949
123 3 0.343765 0.0513663 0.185177
2487 4 0.358983 0.0200578 0.217296
2753 4 0.356864 0.0621868 0.195286
2485 2 0.362777 0.0127785 0.193622
2892 4 0.359091 0.0292854 0.238271
2752 2 0.375427 0.0780095 0.195799
1582 2 0.0368159 0.161919 0.167423
1583 4 0.0331792 0.16052 0.192111
2940 4 0.125817 0.156109 0.184502
2798 4 0.134567 0.153087 0.202589
2938 2 0.144766 0.152772 0.168337
2797 2 0.147382 0.153111 0.224058
2799 4 0.160196 0.153135 0.245528
1850 4 0.19091 0.0982333 0.23811
357 4 0.262886 0.133506 0.226577
355 2 0.261562 0.158507 0.226234
513 4 0.315711 0.157609 0.202399
511 2 0.330319 0.136608 0.201877
512 4 0.344928 0.115606 0.201356
1464 4 0.362379 0.119638 0.208937
2754 4 0.39399 0.0938322 0.196312
1462 2 0.382908 0.131051 0.21599
1463 4 0.403436 0.142465 0.223043
489 4 0.418675 0.131519 0.233059
707 4 0.016335 0.217821 0.179481
371 4 0.197768 0.206949 0.216249
370 2 0.184411 0.228436 0.212697
356 4 0.260238 0.183508 0.225891
14 3 0.321469 0.175445 0.211171
337 2 0.3133 0.234346 0.231272
338 4 0.31604 0.227423 0.207366
12 3 0.319063 0.210051 0.196521
2510 4 0.31884 0.243178 0.196153
11 1 0.333685 0.192917 0.203309
2509 2 0.326554 0.239189 0.172641
15 3 0.346556 0.1859 0.185627
13 3 0.347146 0.200677 0.220233
665 4 0.352605 0.219317 0.211897
664 2 0.372693 0.222419 0.226242
2471 4 0.396969 0.20521 0.242931
666 4 0.392781 0.225521 0.240587
2579 4 0.0980355 0.28946 0.176054
372 4 0.171054 0.249923 0.209145
2718 4 0.330881 0.301865 0.180354
3107 4 0.332132 0.297484 0.199328
3106 2 0.352532 0.310665 0.202154
3108 4 0.372932 0.323845 0.204981
335 4 0.155027 0.396027 0.17971
1046 4 0.171509 0.389433 0.169212
2458 2 0.279002 0.358276 0.167754
2459 4 0.27914 0.379023 0.181661
2909 4 0.420495 0.383146 0.244845
1473 4 0.401292 0.385533 0.250495
3348 4 0.45308 0.390892 0.215091
3346 2 0.460919 0.405338 0.196566
4512 4 0.493373 0.352339 0.168868
2959 2 0.0258791 0.422877 0.224632
2961 4 0.0327944 0.426924 0.201007
737 4 0.0494805 0.437021 0.207833
2960 4 0.0189638 0.41883 0.248257
736 2 0.0669599 0.452153 0.199853
738 4 0.0844394 0.467284 0.191873
2965 2 0.12056 0.470148 0.172094
2967 4 0.0973588 0.477429 0.179209
334 2 0.149006 0.419588 0.172881
2966 4 0.143761 0.462868 0.164978
4160 4 0.205843 0.475029 0.168531
4159 2 0.22659 0.484529 0.177728
4161 4 0.247336 0.494029 0.186924
1311 4 0.263641 0.488635 0.17603
3885 4 0.295687 0.476113 0.231584
410 4 0.479399 0.435379 0.173871
3347 4 0.468758 0.419785 0.178041
350 4 0.132 0.0755363 0.267251
16 1 0.23884 0.0798059 0.299436
18 3 0.229017 0.0609766 0.291191
20 3 0.256722 0.073603 0.312529
427 2 0.330809 0.0218602 0.313327
429 4 0.344127 0.0402954 0.30424
428 4 0.317491 0.0034251 0.322413
2890 2 0.378843 0.035623 0.251772
379 2 0.410523 0.0757825 0.281705
381 4 0.394509 0.0585497 0.275116
2891 4 0.398594 0.0419607 0.265273
1548 4 0.386545 0.000127779 0.335407
480 4 0.400509 0.00185625 0.320066
1032 4 0.457588 0.0401356 0.32344
2462 4 0.132838 0.0846172 0.285991
2461 2 0.153849 0.0967769 0.28915
2463 4 0.174859 0.108937 0.292309
2533 2 0.181491 0.140741 0.267984
2534 4 0.187805 0.119565 0.280196
2535 4 0.175177 0.161916 0.255771
1849 2 0.21014 0.0949444 0.253949
17 3 0.223321 0.0919766 0.312034
1851 4 0.229369 0.0916556 0.269789
19 3 0.245665 0.0929841 0.281866
487 2 0.423413 0.121881 0.255735
380 4 0.426538 0.0930154 0.288293
488 4 0.428151 0.112243 0.27841
1061 4 0.000711409 0.218935 0.306512
1060 2 0.0243525 0.224436 0.311302
1062 4 0.0479936 0.229936 0.316092
2660 4 0.066317 0.229382 0.325821
2659 2 0.0874147 0.233387 0.31335
2661 4 0.108512 0.237391 0.300878
678 4 0.125173 0.241166 0.290378
401 4 0.277009 0.246827 0.322747
339 4 0.310561 0.24127 0.255178
2808 4 0.294263 0.240945 0.313912
2806 2 0.297095 0.247326 0.289943
2470 2 0.41857 0.201079 0.255195
2472 4 0.44017 0.196947 0.26746
582 4 0.455949 0.190323 0.334299
1104 4 0.0116941 0.267607 0.258789
676 2 0.142257 0.257335 0.283776
677 4 0.159342 0.273504 0.277175
2651 4 0.174223 0.265063 0.287556
2650 2 0.194929 0.274243 0.277916
2652 4 0.215636 0.283422 0.268275
2601 4 0.227376 0.290126 0.283202
2599 2 0.252315 0.288745 0.28539
2600 4 0.277253 0.287364 0.287577
2807 4 0.299928 0.253708 0.265974
712 2 0.499434 0.276113 0.308336
713 4 0.482823 0.279083 0.326919
231 4 0.0118121 0.337493 0.302446
1697 4 0.141109 0.333869 0.313051
1758 4 0.134667 0.350685 0.30271
1756 2 0.137945 0.369426 0.286705
1757 4 0.141223 0.388167 0.270699
3900 4 0.14529 0.402794 0.257496
1472 4 0.367404 0.379677 0.286524
1471 2 0.384348 0.382605 0.26851
1391 4 0.500806 0.395814 0.329191
2908 2 0.440496 0.3888 0.258328
2910 4 0.460497 0.394455 0.271811
302 4 0.469009 0.375322 0.273098
301 2 0.493652 0.376936 0.276465
2742 4 0.00286222 0.426223 0.257625
501 4 0.0612736 0.465159 0.284822
499 2 0.0739097 0.48295 0.27361
3058 2 0.107351 0.444196 0.308006
3060 4 0.0839224 0.438893 0.313975
2657 4 0.079744 0.425444 0.328455
3898 2 0.144481 0.42244 0.272962
3059 4 0.130781 0.449499 0.302036
3899 4 0.143671 0.442087 0.288427
3883 2 0.292825 0.490964 0.251587
1632 4 0.389283 0.433757 0.291787
1630 2 0.403465 0.453604 0.290759
1631 4 0.417647 0.47345 0.289731
1575 4 0.420739 0.494069 0.291816
1977 4 0.00527707 0.00739135 0.415493
2847 4 0.352727 0.0720376 0.339228
693 4 0.360442 0.0575347 0.352672
691 2 0.383085 0.066639 0.355639
692 4 0.405727 0.0757433 0.358605
2518 2 0.423174 0.0175888 0.402194
4223 4 0.444439 0.0406498 0.416845
1030 2 0.473477 0.0482821 0.340566
1031 4 0.489365 0.0564287 0.357691
2505 4 0.0215282 0.146318 0.376407
3146 4 0.0300467 0.15328 0.393373
3145 2 0.0248836 0.163931 0.415515
2930 4 0.0692294 0.0993895 0.411391
2929 2 0.0812492 0.120544 0.413974
2931 4 0.093269 0.141698 0.416556
2642 4 0.111665 0.148775 0.411734
2641 2 0.132685 0.15674 0.401585
2643 4 0.153705 0.164705 0.391435
1743 4 0.170773 0.165651 0.402824
514 2 0.251848 0.162481 0.411092
1035 4 0.260844 0.1253 0.415879
516 4 0.268548 0.143079 0.412242
2846 4 0.322112 0.112749 0.334084
1128 4 0.329772 0.0917303 0.389454
3268 2 0.328477 0.161759 0.377132
2845 2 0.337419 0.0923931 0.336656
1126 2 0.350333 0.0925541 0.403598
3269 4 0.308028 0.159441 0.391164
3270 4 0.348927 0.164077 0.363101
1407 4 0.415512 0.0933629 0.356067
1405 2 0.439635 0.0979423 0.35272
587 4 0.481797 0.104176 0.338375
1406 4 0.463758 0.102522 0.349372
1741 2 0.194045 0.173695 0.402772
1742 4 0.217317 0.181739 0.40272
515 4 0.235149 0.181883 0.409942
400 2 0.259098 0.235357 0.335074
402 4 0.241188 0.223887 0.347401
2490 4 0.358468 0.181714 0.367648
2488 2 0.375387 0.195265 0.356164
2489 4 0.392306 0.208817 0.344679
581 4 0.407718 0.194345 0.347627
580 2 0.431833 0.192334 0.340963
2585 4 0.391636 0.249618 0.411947
3807 4 0.339522 0.27226 0.39705
3805 2 0.355138 0.290578 0.393002
3806 4 0.370753 0.308895 0.388954
722 4 0.379221 0.319255 0.373502
721 2 0.396782 0.331769 0.385241
3236 4 0.421649 0.267871 0.342161
3237 4 0.46854 0.283017 0.341125
3235 2 0.445094 0.275444 0.341643
3128 4 0.482836 0.330214 0.389061
2658 4 0.0568915 0.397233 0.361864
2455 2 0.0555671 0.360162 0.413439
2656 2 0.0683178 0.411338 0.345159
2457 4 0.0717432 0.372718 0.399832
680 4 0.0866736 0.375748 0.38604
679 2 0.107149 0.389068 0.386932
1698 4 0.130184 0.337901 0.361729
681 4 0.127625 0.402388 0.387823
1696 2 0.135646 0.335885 0.33739
914 4 0.145276 0.409509 0.39055
913 2 0.169622 0.413378 0.393382
438 4 0.398327 0.397738 0.391162
2298 4 0.413407 0.394904 0.378092
436 2 0.385512 0.395776 0.412483
723 4 0.414344 0.344284 0.39698
4307 4 0.43094 0.334013 0.402399
2296 2 0.435369 0.39891 0.36723
2297 4 0.457331 0.402915 0.356367
118 3 0.0154551 0.42408 0.381202
120 3 0.027025 0.454461 0.399185
696 4 0.0436371 0.459632 0.351513
116 1 0.0166249 0.447156 0.380493
119 3 0.0282327 0.45334 0.361568
465 4 0.0434547 0.460907 0.408645
694 2 0.0650452 0.471509 0.351324
2725 2 0.12687 0.490454 0.339149
2726 4 0.104481 0.480683 0.341671
695 4 0.0864534 0.483386 0.351135
915 4 0.193968 0.417248 0.396214
3959 4 0.206392 0.431389 0.388131
3958 2 0.231406 0.429805 0.387172
3960 4 0.256421 0.428222 0.386213
3707 4 0.276665 0.427635 0.386012
3706 2 0.299724 0.435725 0.389046
3708 4 0.322783 0.443816 0.392081
1446 4 0.341737 0.438478 0.398343
1444 2 0.36337 0.449968 0.398301
1445 4 0.385003 0.461458 0.398259
1820 4 0.4018 0.454184 0.392439
1819 2 0.425542 0.450612 0.384878
1821 4 0.449285 0.447039 0.377317
1976 4 0.0465967 0.00337492 0.443668
1975 2 0.0259369 0.00538314 0.42958
4563 4 0.0708517 0.0469108 0.486206
3028 2 0.0703106 0.0727769 0.44828
3030 4 0.072388 0.0595966 0.46948
4561 2 0.0950645 0.0463012 0.492532
2544 4 0.0974554 0.0275521 0.456695
2542 2 0.0808318 0.0125514 0.446779
1151 4 0.109381 0.0378254 0.444479
1150 2 0.133613 0.0303632 0.443968
4562 4 0.119277 0.0456915 0.498858
3051 4 0.155397 0.00728405 0.455133
1152 4 0.157844 0.022901 0.443458
1800 4 0.245741 0.0103039 0.481479
1798 2 0.261635 0.0286541 0.479062
1799 4 0.277528 0.0470043 0.476644
458 4 0.289464 0.0621746 0.476605
457 2 0.311705 0.0632558 0.465338
459 4 0.333945 0.064337 0.454071
2519 4 0.424974 0.0349097 0.420028
4222 2 0.441965 0.0628627 0.428243
3095 4 0.00308332 0.10531 0.456506
3029 4 0.0682332 0.0859572 0.42708
3548 4 0.0198296 0.114038 0.462935
3547 2 0.0372788 0.131065 0.462341
3549 4 0.0547279 0.148093 0.461746
266 4 0.0752199 0.152648 0.46375
265 2 0.0924238 0.138746 0.476375
267 4 0.109628 0.124845 0.488999
2589 4 0.188721 0.0931045 0.479727
2587 2 0.175864 0.108001 0.495744
1034 4 0.263231 0.0885979 0.449841
1033 2 0.262037 0.106949 0.43286
1700 4 0.342393 0.148126 0.471985
1699 2 0.328649 0.162571 0.45627
4224 4 0.439491 0.0850756 0.439641
872 4 0.389425 0.125938 0.413904
1127 4 0.370893 0.093378 0.417743
2736 4 0.403623 0.140588 0.435046
871 2 0.406409 0.108329 0.421373
2734 2 0.406372 0.165137 0.432456
873 4 0.423392 0.0907208 0.428842
2613 4 0.00994104 0.19305 0.433958
3147 4 0.0197205 0.174582 0.437657
2765 4 0.0589004 0.196486 0.452427
2764 2 0.0826281 0.196247 0.460344
2766 4 0.106356 0.196008 0.468261
2697 4 0.118262 0.203228 0.454586
2695 2 0.139219 0.21159 0.464503
2696 4 0.160177 0.219952 0.47442
3308 4 0.164151 0.204555 0.487303
1701 4 0.314906 0.177015 0.440554
2978 4 0.302 0.215886 0.46769
2977 2 0.323337 0.226327 0.461495
2979 4 0.344673 0.236767 0.4553
375 4 0.361345 0.226453 0.461294
373 2 0.375875 0.227081 0.48161
2735 4 0.409121 0.189686 0.429865
615 4 0.425292 0.195503 0.442099
613 2 0.437526 0.202977 0.462357
312 4 0.49312 0.21897 0.423396
614 4 0.449759 0.210451 0.482615
3038 4 0.051576 0.31571 0.46151
3037 2 0.0756491 0.311028 0.467423
3039 4 0.0997222 0.306345 0.473335
446 4 0.14447 0.29428 0.472862
445 2 0.164295 0.29144 0.457706
447 4 0.184119 0.288599 0.44255
3275 4 0.202297 0.292947 0.43896
3274 2 0.223721 0.304445 0.435956
3276 4 0.245145 0.315943 0.432952
2447 4 0.258097 0.307798 0.447472
2446 2 0.28284 0.303971 0.450256
2448 4 0.307583 0.300143 0.45304
1812 4 0.320803 0.313215 0.444611
2584 2 0.398493 0.259909 0.433509
3473 4 0.380304 0.30273 0.459444
3472 2 0.380357 0.316101 0.48056
2586 4 0.405351 0.2702 0.455071
430 2 0.00137609 0.351572 0.438312
2456 4 0.039391 0.347605 0.427046
432 4 0.0241865 0.358462 0.431865
710 4 0.0349819 0.350177 0.483047
709 2 0.0535134 0.364858 0.476844
711 4 0.072045 0.379539 0.47064
2171 4 0.0780904 0.3723 0.452185
2170 2 0.0992025 0.377053 0.44007
2172 4 0.120315 0.381806 0.427955
2850 4 0.136747 0.385295 0.476464
2848 2 0.1488 0.376085 0.496613
1810 2 0.32418 0.33742 0.448883
1811 4 0.327558 0.361625 0.453154
4433 4 0.351541 0.390859 0.498052
4432 2 0.362187 0.394653 0.47584
4434 4 0.372832 0.398448 0.453627
437 4 0.372696 0.393813 0.433803
508 2 0.451756 0.416091 0.436813
510 4 0.463577 0.397918 0.423553
4306 2 0.440633 0.344385 0.422729
4308 4 0.450326 0.354757 0.44306
1191 4 0.441058 0.360111 0.461151
1189 2 0.447178 0.356422 0.485158
240 4 0.0141631 0.474346 0.481225
238 2 0.0309127 0.488094 0.492719
463 2 0.0649189 0.45702 0.421201
464 4 0.0863831 0.453134 0.433757
413 4 0.484056 0.440547 0.484427
509 4 0.439935 0.434263 0.450073
3007 2 0.10556 0.0760142 0.566836
3396 4 0.126322 0.0473577 0.518005
3009 4 0.0932858 0.0563713 0.574811
3394 2 0.151087 0.0448543 0.521442
3395 4 0.175851 0.0423508 0.524879
2964 4 0.194769 0.0488497 0.520172
605 4 0.200659 0.0819792 0.570976
2962 2 0.216512 0.0530656 0.531373
2963 4 0.238254 0.0572815 0.542574
2973 4 0.257138 0.058422 0.544901
2971 2 0.27686 0.0589068 0.560231
2019 4 0.295203 0.0150315 0.579676
2972 4 0.296582 0.0593916 0.575562
4464 4 0.359463 0.0795823 0.56501
4462 2 0.384086 0.075273 0.561708
1997 4 0.409473 0.0511313 0.556159
4463 4 0.408708 0.0709637 0.558405
1996 2 0.433337 0.0424089 0.555669
1998 4 0.4572 0.0336864 0.55518
1129 2 0.490667 0.0399421 0.541529
1130 4 0.465745 0.0427138 0.539716
3249 4 0.0163416 0.0850327 0.559949
304 2 0.0144363 0.130813 0.576969
3247 2 0.0237316 0.0933039 0.537681
3248 4 0.0311216 0.101575 0.515413
390 4 0.00992332 0.0885969 0.57898
953 4 0.0510387 0.101104 0.509674
3825 4 0.064128 0.147121 0.582631
952 2 0.0734722 0.10492 0.519612
3823 2 0.0834396 0.143868 0.566885
3824 4 0.102751 0.140615 0.55114
954 4 0.0959057 0.108736 0.52955
49 3 0.115807 0.142837 0.534526
50 3 0.114253 0.108585 0.519237
48 3 0.128097 0.112029 0.554012
46 1 0.126228 0.121665 0.53295
3008 4 0.117835 0.0956572 0.558861
47 3 0.147334 0.123541 0.52422
2588 4 0.163006 0.122898 0.511761
910 2 0.19923 0.144637 0.54012
912 4 0.176504 0.152079 0.531748
604 2 0.217436 0.0975596 0.579591
911 4 0.221956 0.137196 0.548493
1146 4 0.232599 0.150412 0.538416
1144 2 0.252011 0.137845 0.52772
1145 4 0.271423 0.125277 0.517025
4465 2 0.269985 0.110956 0.581629
4466 4 0.288592 0.117924 0.566887
1136 4 0.0785669 0.217554 0.579616
4421 4 0.107946 0.187917 0.512979
4420 2 0.113382 0.211901 0.515417
4422 4 0.118819 0.235884 0.517854
3309 4 0.172587 0.165696 0.518101
3307 2 0.168369 0.185126 0.502702
1164 4 0.360973 0.243172 0.570437
1163 4 0.311338 0.247428 0.564103
1162 2 0.336155 0.2453 0.56727
1179 4 0.367644 0.235951 0.552744
1177 2 0.38476 0.228615 0.535691
1178 4 0.401877 0.221279 0.518638
374 4 0.390404 0.227708 0.501927
1227 4 0.00151252 0.332233 0.56319
1143 4 0.133273 0.250351 0.516297
1141 2 0.15203 0.265337 0.520781
1142 4 0.170787 0.280323 0.525265
3323 4 0.190423 0.270842 0.523767
3322 2 0.204369 0.290498 0.519768
662 4 0.220701 0.330221 0.51776
3324 4 0.218314 0.310153 0.515769
3474 4 0.38041 0.329472 0.501676
3501 4 0.362894 0.331006 0.510161
2492 4 0.447857 0.304502 0.572054
3414 4 0.435147 0.294322 0.560115
3412 2 0.451699 0.295235 0.541437
3413 4 0.468251 0.296147 0.522759
2990 4 0.487221 0.304021 0.524613
3123 4 0.038131 0.388825 0.578196
2849 4 0.160852 0.366876 0.516762
504 4 0.180566 0.368855 0.518934
502 2 0.19501 0.369933 0.539277
503 4 0.209454 0.37101 0.55962
661 2 0.239769 0.344391 0.511993
663 4 0.258838 0.358561 0.506225
3499 2 0.354692 0.354974 0.51145
3500 4 0.34649 0.378942 0.51274
3141 4 0.330781 0.377642 0.582027
1190 4 0.453298 0.352734 0.509166
897 4 0.447568 0.3507 0.528407
895 2 0.465014 0.363116 0.540433
3158 4 0.482534 0.376105 0.571984
896 4 0.482459 0.375532 0.55246
851 4 0.0131609 0.426781 0.536493
850 2 0.0370793 0.42814 0.543421
2106 4 0.0130199 0.482995 0.581388
852 4 0.0609977 0.429498 0.550349
3537 4 0.0746126 0.442836 0.555774
3535 2 0.0982074 0.449008 0.551812
3536 4 0.121802 0.455181 0.547849
3056 4 0.138469 0.464437 0.554141
3055 2 0.148706 0.476748 0.535277
3057 4 0.158944 0.489058 0.516413
991 2 0.241273 0.454655 0.575778
992 4 0.216432 0.458328 0.577708
993 4 0.266114 0.450982 0.573848
475 2 0.470584 0.454709 0.516425
477 4 0.478846 0.43492 0.502984
476 4 0.462323 0.474499 0.529866
433 2 0.00530438 0.0183653 0.664958
434 4 0.0267533 0.00502586 0.661041
2191 2 0.107934 0.0348545 0.649467
2193 4 0.0968015 0.0147433 0.658034
2192 4 0.119066 0.0549657 0.6409
1097 4 0.137343 0.0609721 0.646404
3401 4 0.0795831 0.0050165 0.659606
1096 2 0.16126 0.0668752 0.648426
1098 4 0.185178 0.0727783 0.650449
2283 4 0.249808 0.0287191 0.618313
2281 2 0.257378 0.032538 0.641773
2018 4 0.252531 0.0130838 0.605516
2282 4 0.264948 0.0363569 0.665233
2017 2 0.273867 0.0140577 0.592596
2144 4 0.284101 0.0346333 0.657403
878 4 0.306427 0.0669144 0.589796
877 2 0.323247 0.0682843 0.608183
2196 4 0.315455 0.0063298 0.587375
879 4 0.340067 0.0696541 0.626569
306 4 0.0331622 0.121175 0.591091
3364 2 0.0668633 0.143734 0.622656
3365 4 0.0634457 0.151884 0.646102
3104 4 0.0497603 0.141086 0.656864
3366 4 0.0702808 0.135584 0.599211
1181 4 0.154711 0.115197 0.618207
1180 2 0.170167 0.130921 0.607523
3461 4 0.194362 0.0907767 0.649195
1182 4 0.185622 0.146645 0.596839
2135 4 0.205891 0.142143 0.597785
3460 2 0.204022 0.112942 0.653427
3462 4 0.213682 0.135108 0.657659
4467 4 0.251378 0.103989 0.59637
606 4 0.234214 0.11314 0.588206
2134 2 0.228027 0.144297 0.608999
2136 4 0.250164 0.146451 0.620212
2091 4 0.264194 0.13994 0.631801
2089 2 0.274511 0.130575 0.652789
3315 4 0.342921 0.0840908 0.63931
3313 2 0.358723 0.0931806 0.655991
1137 4 0.0544396 0.1795 0.598983
1183 2 0.000444413 0.185968 0.642589
1184 4 0.0176751 0.202413 0.647962
1135 2 0.0665032 0.198527 0.5893
980 4 0.0956369 0.226573 0.587504
979 2 0.113842 0.223683 0.604553
981 4 0.132047 0.220793 0.621601
2015 4 0.134326 0.237026 0.632573
2014 2 0.151025 0.238392 0.65107
3173 4 0.229419 0.246365 0.655317
3021 4 0.395459 0.236055 0.625476
584 4 0.465446 0.221558 0.611542
583 2 0.466012 0.245617 0.618116
1225 2 0.00215971 0.323182 0.586497
1226 4 0.0028069 0.314131 0.609805
945 4 0.0133404 0.299516 0.617046
943 2 0.0332319 0.283461 0.615309
944 4 0.0531235 0.267405 0.613572
3164 4 0.0701237 0.274496 0.620594
3163 2 0.0932928 0.282587 0.622595
3165 4 0.116462 0.290678 0.624596
935 4 0.124898 0.308574 0.625401
934 2 0.149671 0.308072 0.621865
936 4 0.174443 0.307569 0.61833
275 4 0.182129 0.293931 0.607357
274 2 0.205756 0.293484 0.599124
276 4 0.229383 0.293038 0.59089
1215 4 0.239024 0.260014 0.644561
1213 2 0.249456 0.271716 0.625407
1214 4 0.259889 0.283417 0.606253
3019 2 0.4027 0.259499 0.62329
2493 4 0.420129 0.298543 0.613039
3020 4 0.409941 0.282943 0.621104
2491 2 0.433993 0.301522 0.592547
585 4 0.466578 0.269676 0.624689
3122 4 0.000762827 0.400542 0.609984
3121 2 0.0194469 0.394683 0.59409
3183 4 0.0551732 0.389291 0.589362
3181 2 0.078499 0.388596 0.59843
3182 4 0.101825 0.387901 0.607498
1382 4 0.119648 0.388113 0.599016
1381 2 0.140021 0.401271 0.595894
1383 4 0.160394 0.41443 0.592773
841 2 0.273484 0.398847 0.61835
843 4 0.252103 0.412213 0.622533
842 4 0.294865 0.38548 0.614168
3140 4 0.35102 0.390897 0.625481
3139 2 0.3409 0.38427 0.603754
2777 4 0.488031 0.370129 0.635026
3157 2 0.479218 0.370455 0.596074
3159 4 0.475902 0.364804 0.620163
3319 2 0.442105 0.414477 0.637313
3320 4 0.449424 0.40678 0.660069
1208 4 0.465007 0.365988 0.66197
2104 2 0.0315113 0.498836 0.582938
2700 4 0.17485 0.424046 0.60175
2698 2 0.191232 0.44186 0.598667
2699 4 0.207615 0.459673 0.595584
2594 4 0.381997 0.491724 0.636663
3321 4 0.434785 0.422174 0.614557
3292 2 0.169438 0.0455874 0.747041
3293 4 0.173395 0.0207432 0.746284
4438 2 0.211846 0.0118852 0.739214
3294 4 0.165481 0.0704316 0.747799
4440 4 0.231984 0.00705139 0.724863
4163 4 0.252949 0.00669551 0.721839
4162 2 0.268145 0.0193212 0.736511
2143 2 0.305326 0.0419101 0.667707
2145 4 0.32655 0.0491869 0.678011
1243 2 0.336074 0.0707622 0.700325
1245 4 0.334032 0.0661742 0.675851
1203 4 0.330848 0.0600967 0.737007
1244 4 0.338117 0.0753502 0.724798
2240 4 0.499873 0.0515813 0.697403
2627 4 0.00804579 0.155924 0.704222
3105 4 0.0256183 0.162075 0.695939
3103 2 0.0376893 0.15158 0.676402
1073 4 0.104872 0.121386 0.734813
1072 2 0.122925 0.12897 0.719716
2264 4 0.0902129 0.136508 0.73734
1074 4 0.140978 0.136553 0.704618
1944 4 0.155205 0.146406 0.697709
1942 2 0.173653 0.128606 0.697846
1943 4 0.192101 0.110805 0.697983
844 2 0.21554 0.14654 0.747616
348 4 0.221486 0.150365 0.669004
845 4 0.231602 0.130459 0.736051
3017 4 0.247861 0.121638 0.725495
3016 2 0.263994 0.115372 0.707174
2090 4 0.284829 0.12121 0.673776
3018 4 0.280127 0.109107 0.688853
2996 4 0.328786 0.132073 0.732719
3197 4 0.344423 0.131284 0.718559
3314 4 0.374526 0.10227 0.672673
3196 2 0.368787 0.135517 0.720373
3420 4 0.395001 0.107464 0.669436
3198 4 0.393151 0.13975 0.722187
3134 4 0.404685 0.134626 0.737051
3418 2 0.416822 0.111987 0.680328
3419 4 0.438644 0.116509 0.69122
977 4 0.4575 0.109423 0.697107
976 2 0.479524 0.114288 0.686828
1065 4 0.469662 0.159231 0.698812
825 4 0.483939 0.164281 0.685703
2016 4 0.167725 0.239758 0.669568
346 2 0.236723 0.168814 0.673872
3172 2 0.235108 0.249141 0.679473
347 4 0.25196 0.187263 0.678741
2853 4 0.2652 0.198521 0.688679
3174 4 0.240798 0.251916 0.703629
2851 2 0.289136 0.202245 0.694106
2852 4 0.313071 0.20597 0.699533
4182 4 0.329147 0.212705 0.708301
4180 2 0.348994 0.216335 0.722822
4181 4 0.368841 0.219965 0.737343
949 2 0.434259 0.23068 0.70016
951 4 0.42578 0.209937 0.710375
1064 4 0.431431 0.190555 0.712045
1063 2 0.450547 0.174893 0.705429
869 4 0.016733 0.270652 0.732993
868 2 0.00410932 0.290432 0.74292
3464 4 0.343404 0.282589 0.736324
3463 2 0.366532 0.283682 0.745626
950 4 0.442739 0.251423 0.689944
3641 4 0.458433 0.261579 0.684846
3640 2 0.475007 0.277239 0.693718
3642 4 0.49158 0.292898 0.70259
557 4 0.491688 0.312854 0.70433
918 4 0.080187 0.416143 0.746947
1207 2 0.468679 0.370979 0.686155
1209 4 0.47235 0.375969 0.71034
4482 4 0.0955815 0.423833 0.738644
4480 2 0.114979 0.433177 0.726675
790 2 0.110513 0.492668 0.736572
791 4 0.0855998 0.494693 0.734242
4481 4 0.134377 0.442521 0.714705
3011 4 0.13806 0.486363 0.679408
3012 4 0.150281 0.454164 0.716168
792 4 0.135427 0.490642 0.738901
3010 2 0.14417 0.470263 0.697788
4349 4 0.361881 0.450992 0.698839
4348 2 0.376453 0.47057 0.699099
4350 4 0.391025 0.490148 0.699359
4190 4 0.408155 0.484783 0.710182
4189 2 0.431026 0.4935 0.712629
3001 2 0.00823693 0.0395408 0.811466
3002 4 0.0266156 0.0364682 0.794626
3250 2 0.0968326 0.0736904 0.775017
3251 4 0.114291 0.0549247 0.774717
2565 4 0.133417 0.057979 0.774833
2563 2 0.142913 0.0464273 0.795135
4439 4 0.191708 0.0167191 0.753565
2564 4 0.15241 0.0348755 0.815438
3579 4 0.156286 0.00213714 0.821099
4164 4 0.283341 0.0319469 0.751183
1005 4 0.263884 0.0777635 0.776104
1201 2 0.314419 0.0476919 0.750448
1202 4 0.297991 0.035287 0.763888
4318 2 0.376798 0.019324 0.75178
4319 4 0.388094 0.041029 0.750896
3252 4 0.0793739 0.0924561 0.775318
2263 2 0.0877833 0.137146 0.76222
2265 4 0.0853536 0.137784 0.7871
1263 4 0.0963235 0.153292 0.793133
2948 4 0.111473 0.110864 0.825318
1261 2 0.103064 0.165123 0.813905
2947 2 0.0870668 0.112383 0.830877
636 4 0.165073 0.0897581 0.753218
3343 2 0.148314 0.121999 0.828251
634 2 0.187357 0.0999941 0.754103
3345 4 0.171514 0.124632 0.819658
3099 4 0.189512 0.132405 0.81885
3097 2 0.193704 0.146707 0.798936
635 4 0.20964 0.11023 0.754988
846 4 0.199477 0.16262 0.759182
1004 4 0.220199 0.1037 0.770513
3098 4 0.197895 0.161008 0.779022