ITEM: TIMESTEP
2752500
ITEM: NUMBER OF ATOMS
1600
ITEM: BOX BOUNDS xy xz yz pp pp pp
-6.9325800000002165e+00 6.9325799999999997e+00 -2.1671553440683056e-13
-6.9325799999999997e+00 6.9325799999999997e+00 0.0000000000000000e+00
-6.9325799999999997e+00 6.9325799999999997e+00 0.0000000000000000e+00
ITEM: ATOMS id type xs ys zs
321 4 0.212811 0.0929032 0.111578
998 2 0.198673 0.08947 0.00723338
999 4 0.226247 0.0838915 0.0297948
1540 4 0.354594 0.996953 0.0974966
1146 4 0.400586 0.109187 0.0998469
578 2 0.0246556 0.195991 0.0488842
580 4 0.0552011 0.178441 0.0411759
1145 2 0.366287 0.118757 0.105544
1147 4 0.331989 0.128327 0.111242
672 4 0.41993 0.123869 0.0857054
671 2 0.450594 0.132044 0.0685785
673 4 0.481258 0.140219 0.0514515
1012 4 0.508162 0.150009 0.0560582
911 2 0.322189 0.282283 0.0217461
913 4 0.348768 0.263726 0.0375474
1122 4 0.358372 0.270471 0.0639496
912 4 0.295611 0.300839 0.00594485
1121 2 0.392106 0.275751 0.075552
1123 4 0.42584 0.281031 0.0871545
697 4 0.44695 0.294361 0.0734848
695 2 0.474316 0.317846 0.0731818
696 4 0.501681 0.341331 0.0728789
713 2 0.0642098 0.481842 0.0743376
714 4 0.054266 0.485678 0.108788
715 4 0.0741537 0.478007 0.039887
493 4 0.100561 0.476913 0.0298189
491 2 0.136112 0.480973 0.034304
1374 4 0.186539 0.468074 0.0567656
1373 2 0.193703 0.466913 0.0920896
492 4 0.171662 0.485034 0.0387891
1273 4 0.213461 0.421071 0.0457694
1271 2 0.237324 0.435338 0.0228038
1375 4 0.200868 0.465751 0.127414
856 4 0.276378 0.47053 0.987146
1389 4 0.336329 0.389206 0.0287166
1388 2 0.369702 0.395573 0.0408056
1390 4 0.403075 0.401939 0.0528946
1431 4 0.424806 0.412482 0.0698958
1430 2 0.426248 0.414684 0.105862
635 2 0.0412286 0.998882 0.20313
266 2 0.0294187 0.106297 0.176355
637 4 0.0756005 0.00618871 0.211233
267 4 0.0652331 0.104785 0.180292
1103 2 0.105214 0.11153 0.20899
1105 4 0.135578 0.0970516 0.221984
81 1 0.47381 0.122193 0.154073
85 3 0.49006 0.0936858 0.152628
1129 4 0.46541 0.0660871 0.223551
1127 2 0.447017 0.0765351 0.252758
1104 4 0.0748503 0.126008 0.195995
332 2 0.0883553 0.188453 0.183803
333 4 0.101561 0.202425 0.214313
742 4 0.0923274 0.202542 0.241502
334 4 0.0751498 0.174481 0.153293
320 2 0.216325 0.12033 0.134727
322 4 0.219838 0.147757 0.157875
84 3 0.442514 0.116969 0.164713
82 3 0.472728 0.135703 0.123791
83 3 0.489543 0.14327 0.174766
652 4 0.479863 0.197167 0.233711
650 2 0.444231 0.198768 0.239029
360 4 0.352001 0.323126 0.19989
359 2 0.381413 0.311565 0.182519
361 4 0.410824 0.300003 0.165148
625 4 0.438787 0.288634 0.167385
623 2 0.45838 0.29452 0.197082
624 4 0.477974 0.300406 0.22678
1072 4 0.478332 0.327129 0.236918
405 4 0.0438226 0.463877 0.124472
404 2 0.0657522 0.444898 0.145904
406 4 0.0876819 0.42592 0.167336
901 4 0.116517 0.430625 0.167877
900 4 0.181245 0.448786 0.141757
899 2 0.148881 0.439706 0.154817
1043 2 0.330489 0.449979 0.190077
1045 4 0.296956 0.449384 0.203331
1422 4 0.346667 0.376391 0.212901
282 4 0.377356 0.473857 0.163508
874 4 0.359227 0.395121 0.19459
1044 4 0.364021 0.450574 0.176823
1421 2 0.341 0.388644 0.246341
872 2 0.387737 0.393048 0.172606
281 2 0.390063 0.494338 0.136684
873 4 0.416248 0.390975 0.150622
1432 4 0.427689 0.416887 0.141828
316 4 0.150277 0.0319539 0.273396
769 4 0.180017 0.0325767 0.27904
767 2 0.207685 0.0550167 0.284649
314 2 0.121382 0.0105646 0.276234
768 4 0.235352 0.0774568 0.290258
1533 4 0.252003 0.102535 0.290701
88 3 0.285258 0.00547558 0.277707
89 3 0.302199 0.0365882 0.319535
86 1 0.3115 0.0140301 0.296631
90 3 0.335367 0.0264048 0.277761
87 3 0.32278 0.986981 0.312182
535 4 0.352339 0.110611 0.37013
1340 2 0.305121 0.0740455 0.370528
1341 4 0.33172 0.0954491 0.358914
761 2 0.252752 0.006622 0.354239
1342 4 0.278522 0.0526418 0.382141
1128 4 0.428625 0.0869831 0.281964
740 2 0.112813 0.208399 0.270595
741 4 0.133299 0.214257 0.299689
351 4 0.147258 0.210105 0.324008
350 2 0.163485 0.238743 0.338738
1532 2 0.275105 0.130226 0.290743
1035 4 0.325058 0.171504 0.284247
1534 4 0.298206 0.157917 0.290785
1034 2 0.358592 0.180425 0.274433
1036 4 0.392126 0.189346 0.26462
651 4 0.408599 0.200369 0.244347
346 4 0.207608 0.274733 0.35262
352 4 0.179712 0.267382 0.353468
344 2 0.238731 0.286847 0.339014
153 3 0.316169 0.364893 0.342593
345 4 0.269854 0.298961 0.325409
956 2 0.465108 0.348877 0.30651
957 4 0.430032 0.351173 0.298458
676 4 0.0279312 0.494833 0.240423
1324 4 0.994942 0.37744 0.35441
1573 4 0.00537374 0.513245 0.356612
129 3 0.0105559 0.474437 0.251903
1428 4 0.031776 0.501781 0.346063
1423 4 0.335334 0.400897 0.279781
154 3 0.28735 0.41071 0.333936
155 3 0.292004 0.373438 0.294719
151 1 0.307381 0.387868 0.319902
152 3 0.334745 0.40298 0.308788
927 4 0.358789 0.408226 0.326489
926 2 0.392908 0.417241 0.333917
928 4 0.427026 0.426255 0.341345
336 4 0.455948 0.431181 0.345158
335 2 0.487815 0.4439 0.356255
1014 4 0.0238237 0.0907321 0.502727
367 4 0.0415006 0.0697636 0.490683
365 2 0.0746074 0.0677864 0.476524
366 4 0.107714 0.0658092 0.462365
388 4 0.128854 0.0522588 0.448047
386 2 0.134949 0.0173872 0.441171
762 4 0.261714 0.0266525 0.382856
402 4 0.282171 0.988199 0.443416
403 4 0.347137 0.00096044 0.414808
401 2 0.314654 0.99458 0.429112
533 2 0.385532 0.106743 0.383684
534 4 0.418725 0.102876 0.397238
1353 4 0.447156 0.107969 0.404464
1352 2 0.478818 0.122498 0.395145
420 4 0.473412 0.0626345 0.503469
1354 4 0.51048 0.137028 0.385827
105 3 0.488452 0.217778 0.475962
101 1 0.477288 0.242012 0.495118
1395 4 0.0164993 0.319563 0.519919
102 3 0.468306 0.267692 0.476132
1434 4 0.116961 0.461493 0.466336
1433 2 0.0886508 0.440511 0.474001
1435 4 0.0603403 0.419529 0.481666
931 4 0.035581 0.432939 0.489359
1142 2 0.179592 0.459763 0.474584
430 4 0.245578 0.459457 0.470753
1143 4 0.144305 0.467186 0.474963
1144 4 0.21488 0.452341 0.474206
428 2 0.278372 0.471018 0.480312
100 3 0.339561 0.481524 0.484316
429 4 0.311166 0.482578 0.489872
97 3 0.390088 0.479937 0.502808
521 2 0.214863 0.0469957 0.607027
523 4 0.243049 0.0381999 0.586324
838 4 0.264046 0.0249663 0.572477
836 2 0.298641 0.0255514 0.582639
783 4 0.299808 0.0427725 0.502565
478 4 0.359327 0.0131538 0.584249
837 4 0.333237 0.0261365 0.592801
782 2 0.328714 0.0214138 0.505515
476 2 0.393176 0.0216816 0.575194
52 3 0.466646 0.0398979 0.521683
51 1 0.463453 0.00872331 0.532575
53 3 0.444654 0.0088089 0.560261
477 4 0.427025 0.0302094 0.566139
419 2 0.470253 0.0969715 0.514025
486 4 0.0149317 0.181743 0.545788
416 2 0.0945206 0.158971 0.623554
418 4 0.116333 0.18757 0.620948
417 4 0.0727081 0.130372 0.62616
755 2 0.169125 0.223345 0.617176
756 4 0.144129 0.197397 0.615634
496 4 0.360879 0.252925 0.589433
421 4 0.467094 0.131308 0.524582
1186 4 0.475162 0.156583 0.535751
1184 2 0.500273 0.166577 0.559626
104 3 0.450644 0.231523 0.512439
224 3 0.0115935 0.3749 0.610537
378 4 0.00337185 0.332804 0.49745
1394 2 0.0509858 0.323761 0.529589
1396 4 0.0854724 0.327958 0.53926
263 2 0.0980209 0.321633 0.609251
14 3 0.0989362 0.340172 0.514276
264 4 0.127955 0.31703 0.589674
13 3 0.122499 0.326759 0.561913
11 1 0.127549 0.340081 0.531632
15 3 0.150396 0.322872 0.515485
47 3 0.190757 0.320182 0.62418
48 3 0.189568 0.271225 0.600936
46 1 0.209544 0.295492 0.612425
49 3 0.228625 0.307296 0.587594
757 4 0.194122 0.249293 0.618718
1466 2 0.29353 0.306469 0.579452
1468 4 0.257513 0.30749 0.58094
396 4 0.375134 0.262798 0.566384
1467 4 0.329547 0.305448 0.577964
558 4 0.346063 0.328167 0.579133
494 2 0.336409 0.245928 0.614982
397 4 0.424232 0.234501 0.521771
557 2 0.378417 0.338957 0.59085
395 2 0.399683 0.24865 0.544078
559 4 0.41077 0.349747 0.602566
903 4 0.401201 0.279795 0.629692
103 3 0.501364 0.251981 0.516116
902 2 0.437003 0.284055 0.628941
904 4 0.472805 0.288315 0.628191
929 2 0.0244616 0.441018 0.522698
1156 4 0.011197 0.403717 0.623683
1154 2 0.0394469 0.424665 0.615705
1155 4 0.0676967 0.445612 0.607727
1560 4 0.0855635 0.434395 0.589132
868 4 0.999554 0.475154 0.554158
930 4 0.0133422 0.449097 0.556038
1559 2 0.1212 0.431614 0.593895
12 3 0.137979 0.371363 0.53528
1561 4 0.156837 0.428834 0.598657
99 3 0.348702 0.479898 0.53782
816 4 0.348704 0.465704 0.563067
96 1 0.359042 0.469349 0.507791
815 2 0.375221 0.458021 0.586267
98 3 0.358711 0.435903 0.506693
456 4 0.273085 0.420582 0.60303
455 2 0.285542 0.390058 0.617641
457 4 0.298 0.359534 0.632253
1455 4 0.250076 0.42189 0.620703
1086 4 0.415366 0.37646 0.614773
817 4 0.401738 0.450338 0.609467
458 2 0.451298 0.46221 0.618752
459 4 0.475173 0.487453 0.628407
296 2 0.450108 0.496223 0.524684
1041 4 0.490855 0.50748 0.613444
298 4 0.417485 0.485442 0.51373
460 4 0.427422 0.436967 0.609096
297 4 0.482732 0.507004 0.535638
858 4 0.0663546 0.0395217 0.653188
857 2 0.0616867 0.0737609 0.642875
859 4 0.0570188 0.108 0.632561
94 3 0.132063 0.0210151 0.667959
91 1 0.16452 0.0262845 0.674179
1471 4 0.177878 0.0238188 0.731301
522 4 0.186677 0.0557915 0.627731
92 3 0.168197 0.0338722 0.706266
95 3 0.175545 0.0512024 0.655838
1239 4 0.190979 0.112965 0.736641
107 3 0.485741 0.0681326 0.688319
110 3 0.441059 0.0555905 0.71559
109 3 0.485661 0.0251567 0.721356
106 1 0.467229 0.0432292 0.70006
108 3 0.457325 0.024102 0.674447
510 4 0.488635 0.0703133 0.659249
1238 2 0.202849 0.146571 0.731142
1240 4 0.214718 0.180177 0.725644
502 4 0.345306 0.236879 0.720286
500 2 0.376232 0.223213 0.707746
501 4 0.407158 0.209548 0.695206
702 4 0.434533 0.205274 0.693209
701 2 0.461725 0.220437 0.675011
265 4 0.0680867 0.326236 0.628827
225 3 0.0442515 0.339536 0.635668
221 1 0.0153119 0.354996 0.637182
50 3 0.228519 0.283886 0.636593
976 4 0.252838 0.299057 0.638626
1527 4 0.27367 0.303159 0.742184
974 2 0.26368 0.279698 0.667054
975 4 0.274523 0.260339 0.695482
5 3 0.299839 0.307289 0.731609
3 3 0.327831 0.26143 0.723714
1 1 0.329391 0.29318 0.734172
495 4 0.31194 0.238931 0.640531
561 4 0.374088 0.320242 0.729491
2 3 0.351053 0.309666 0.715207
703 4 0.488917 0.2356 0.656813
560 2 0.406124 0.329587 0.715822
562 4 0.43816 0.338932 0.702153
1087 4 0.441558 0.352929 0.677718
1085 2 0.428462 0.364695 0.646245
222 3 0.0142608 0.373554 0.664663
1584 4 0.0242216 0.394882 0.679552
1583 2 0.0243616 0.427271 0.695407
1585 4 0.0245017 0.45966 0.711261
1107 4 0.0757829 0.387855 0.749947
1456 4 0.178143 0.419457 0.616069
1454 2 0.21411 0.420674 0.618386
1470 4 0.174409 0.0154747 0.802857
1469 2 0.176144 0.0196467 0.767079
1113 4 0.356375 0.00723494 0.804137
1112 2 0.380919 0.0104403 0.830362
1197 4 0.486368 0.0660175 0.853018
1196 2 0.457235 0.0457151 0.84673
1198 4 0.428101 0.0254128 0.840442
1114 4 0.405463 0.0136457 0.856588
180 3 0.0227695 0.379466 0.799983
178 3 0.0401239 0.335217 0.826245
176 1 0.0271591 0.36589 0.829567
177 3 0.0481888 0.384576 0.847154
843 4 0.0875711 0.36804 0.7689
842 2 0.0971267 0.333966 0.775839
844 4 0.106682 0.299892 0.782778
252 4 0.131416 0.285873 0.777841
251 2 0.164357 0.29438 0.789799
253 4 0.197297 0.302887 0.801757
1528 4 0.2106 0.293476 0.775803
1526 2 0.242135 0.298318 0.758994
4 3 0.339833 0.294243 0.765949
690 4 0.262551 0.336536 0.855091
507 4 0.0761754 0.376294 0.846762
1108 4 0.0856041 0.458734 0.75897
1106 2 0.0806935 0.423294 0.754459
643 4 0.0271889 0.419259 0.780436
547 4 0.104819 0.465379 0.780846
506 2 0.107699 0.3915 0.838076
545 2 0.13225 0.481233 0.798072
888 4 0.18145 0.492982 0.835126
1102 4 0.158466 0.413578 0.851914
508 4 0.139223 0.406705 0.829389
1100 2 0.191437 0.428153 0.850933
546 4 0.15968 0.497088 0.815298
1101 4 0.224407 0.442729 0.849952
514 4 0.253407 0.42804 0.843666
689 2 0.264211 0.370326 0.842602
512 2 0.275067 0.447266 0.822178
691 4 0.26587 0.404116 0.830114
513 4 0.296726 0.466492 0.800691
262 4 0.320827 0.455535 0.786003
260 2 0.350706 0.473212 0.776246
261 4 0.380586 0.49089 0.766489
556 4 0.40598 0.506966 0.769826
1587 4 0.107503 0.100428 0.928862
1586 2 0.140845 0.101776 0.942534
1588 4 0.174188 0.103124 0.956207
1000 4 0.171099 0.0950485 0.984672
982 4 0.19933 0.0190987 0.00422966
980 2 0.232527 0.0103289 0.993204
135 3 0.283572 0.997418 0.960758
779 2 0.385459 0.00559917 0.945603
781 4 0.421407 0.00672592 0.948243
613 4 0.0989282 0.127903 0.929856
612 4 0.0403966 0.169876 0.933615
1509 4 0.0254805 0.192631 0.924236
611 2 0.0696624 0.14889 0.931735
1508 2 0.998279 0.187523 0.947354
585 4 0.49063 0.162724 0.962358
1478 2 0.0183987 0.307424 0.891212
1479 4 0.052413 0.318049 0.896746
394 4 0.0749729 0.320396 0.914809
392 2 0.103429 0.339921 0.925273
393 4 0.131886 0.359447 0.935738
619 4 0.00253451 0.473135 0.952358
854 2 0.263311 0.490563 0.960158
1272 4 0.261188 0.449606 0.999838
855 4 0.250243 0.510596 0.93317
23 3 0.458989 0.431542 0.893096
21 1 0.491997 0.428672 0.888388
539 2 0.450839 0.483634 0.934654
540 4 0.449507 0.451554 0.951068
1266 4 0.0831901 0.609181 0.0987875
1318 4 0.0957221 0.618054 0.0737016
415 4 0.000816344 0.526538 0.0262009
1317 4 0.166841 0.60623 0.0757123
1316 2 0.131282 0.612142 0.074707
288 4 0.1929 0.613807 0.0648712
287 2 0.22846 0.619809 0.0647886
312 4 0.260923 0.564402 0.0773824
311 2 0.259129 0.533742 0.0962816
358 4 0.263897 0.569187 0.0484336
356 2 0.285075 0.573052 0.0195026
313 4 0.257335 0.503082 0.115181
357 4 0.306253 0.576917 0.990572
1060 4 0.441709 0.594827 0.101519
1351 4 0.435555 0.613626 0.121549
1058 2 0.431761 0.562047 0.112791
283 4 0.402769 0.51482 0.10986
1059 4 0.421813 0.529268 0.124063
1265 2 0.057238 0.627463 0.115895
423 4 0.176696 0.706157 0.0922625
1594 4 0.198628 0.724191 0.0815385
1592 2 0.18919 0.721398 0.0468458
422 2 0.189371 0.702265 0.125798
1593 4 0.179752 0.718605 0.0121531
289 4 0.26402 0.625812 0.0647059
1531 4 0.291085 0.620931 0.0614237
1529 2 0.316774 0.645749 0.0564676
1530 4 0.342463 0.670568 0.0515115
1326 4 0.364749 0.687218 0.0472596
1325 2 0.395987 0.669755 0.0516955
1327 4 0.427225 0.652293 0.0561314
276 4 0.445813 0.648893 0.0361897
275 2 0.480094 0.652485 0.0467902
883 4 0.488955 0.676904 0.988789
1485 4 0.147923 0.810921 0.0715146
1484 2 0.16689 0.821193 0.0426154
1486 4 0.185858 0.831464 0.0137161
1099 4 0.157547 0.805959 0.100112
1097 2 0.185973 0.78943 0.114919
391 4 0.393194 0.839975 0.104131
210 3 0.413059 0.833268 0.086171
810 4 0.415836 0.870996 0.0316347
206 1 0.434205 0.858343 0.0844426
208 3 0.427315 0.877269 0.0577155
794 2 0.480134 0.812121 0.00972759
209 3 0.465533 0.846745 0.082459
1222 4 0.0814097 0.984685 0.110115
1076 2 0.204261 0.891885 0.102649
1078 4 0.234283 0.891704 0.0826732
1077 4 0.174238 0.892066 0.122626
1294 4 0.261038 0.899376 0.0806505
1292 2 0.291138 0.909071 0.0633173
1539 4 0.33857 0.934291 0.0655813
1538 2 0.346582 0.965622 0.081539
1293 4 0.321239 0.918766 0.045984
17 3 0.342037 0.900275 0.0399335
20 3 0.366186 0.899974 0.991828
16 1 0.360241 0.918023 0.0186193
18 3 0.343261 0.945621 0.0102578
1378 4 0.268835 0.908024 0.126205
19 3 0.389086 0.926391 0.033382
573 4 0.407808 0.946369 0.041357
207 3 0.431364 0.876937 0.111771
572 2 0.440225 0.945352 0.0255926
574 4 0.472643 0.944334 0.00982824
674 2 0.0630531 0.502565 0.23775
675 4 0.098175 0.510298 0.235076
1426 4 0.118543 0.531047 0.229983
1424 2 0.153815 0.537061 0.225485
1425 4 0.189087 0.543075 0.220986
895 4 0.217292 0.545434 0.217212
893 2 0.24966 0.560091 0.211051
894 4 0.282028 0.574747 0.204889
490 4 0.306689 0.582098 0.214663
488 2 0.340978 0.58681 0.204538
489 4 0.375268 0.591521 0.194413
1403 2 0.462526 0.52547 0.254782
886 4 0.381764 0.605073 0.220128
1404 4 0.429119 0.513181 0.249005
884 2 0.416124 0.607527 0.230795
499 4 0.49247 0.549395 0.233948
1267 4 0.0312859 0.645746 0.133002
424 4 0.202045 0.698374 0.159334
738 4 0.231357 0.699992 0.164842
737 2 0.25194 0.698171 0.194396
739 4 0.272524 0.696349 0.22395
688 4 0.295371 0.693743 0.240161
1349 2 0.460702 0.634452 0.136859
1350 4 0.485849 0.655278 0.152169
113 3 0.116923 0.839051 0.186438
112 3 0.11918 0.824765 0.23868
870 4 0.237177 0.790625 0.123932
111 1 0.1263 0.84887 0.217025
115 3 0.158628 0.854655 0.21752
1329 4 0.184501 0.842766 0.217784
1098 4 0.214399 0.772902 0.129725
1328 2 0.209896 0.864169 0.203733
869 2 0.272933 0.794992 0.12562
717 4 0.276703 0.809491 0.227393
871 4 0.308689 0.79936 0.127307
390 4 0.334545 0.812738 0.136074
389 2 0.36387 0.826356 0.120103
114 3 0.109615 0.876534 0.225759
1417 4 0.0276667 0.922256 0.231646
182 3 0.0544634 0.937454 0.231868
181 1 0.0848566 0.934667 0.218861
1220 2 0.0888694 0.967951 0.141176
183 3 0.0821157 0.930321 0.185792
185 3 0.100063 0.908858 0.232333
1221 4 0.096329 0.951218 0.172237
1415 2 0.00302127 0.897706 0.222141
184 3 0.102 0.962673 0.225323
636 4 0.00685664 0.991575 0.195027
552 4 0.202875 0.963606 0.155977
910 4 0.154176 0.957309 0.227775
553 4 0.150945 0.97249 0.205231
551 2 0.17691 0.968048 0.180604
1330 4 0.235291 0.885573 0.189682
908 2 0.165298 0.941219 0.258072
1377 4 0.254781 0.905842 0.196914
1376 2 0.261808 0.906933 0.16156
1599 4 0.3903 0.939282 0.214913
1427 2 0.0622112 0.497228 0.327263
1429 4 0.0926463 0.492674 0.308462
1215 4 0.106905 0.514871 0.297055
1214 2 0.142838 0.515064 0.300105
1216 4 0.178771 0.515257 0.303154
1507 4 0.184691 0.598373 0.348493
1505 2 0.188826 0.594826 0.312845
1506 4 0.192961 0.591279 0.277197
1231 4 0.204937 0.509522 0.295427
1229 2 0.23646 0.526129 0.300992
164 3 0.202619 0.618508 0.359803
1230 4 0.267982 0.542737 0.306557
1513 4 0.282948 0.538705 0.283233
204 3 0.374764 0.507452 0.299278
1512 4 0.345564 0.573454 0.274654
1511 2 0.314256 0.556079 0.278943
1032 4 0.281986 0.630091 0.362194
203 3 0.369529 0.558317 0.279533
201 1 0.391015 0.533457 0.285877
202 3 0.404999 0.523832 0.257372
205 3 0.414423 0.543849 0.306442
1405 4 0.495933 0.53776 0.260559
165 3 0.256556 0.616546 0.365791
1031 2 0.299106 0.659909 0.351319
686 2 0.307593 0.71551 0.266186
1333 4 0.343455 0.686961 0.332711
1033 4 0.316226 0.689727 0.340445
687 4 0.319814 0.737278 0.292211
897 4 0.308356 0.756291 0.310389
1331 2 0.373398 0.697048 0.315328
1332 4 0.403341 0.707135 0.297945
885 4 0.450485 0.60998 0.241463
1243 4 0.420502 0.730406 0.287008
1241 2 0.443362 0.75431 0.301376
877 4 0.09949 0.814831 0.25744
875 2 0.119332 0.805612 0.286106
876 4 0.139173 0.796393 0.314773
657 4 0.164012 0.791157 0.329369
725 2 0.145665 0.842849 0.379827
656 2 0.198898 0.796588 0.322023
726 4 0.158175 0.87576 0.372028
658 4 0.233784 0.802019 0.314676
718 4 0.235122 0.801834 0.285824
727 4 0.133155 0.809938 0.387625
896 2 0.314781 0.756146 0.345874
716 2 0.255913 0.805663 0.256608
1242 4 0.466222 0.778215 0.315743
732 4 0.0776429 0.963714 0.279335
731 2 0.0489841 0.96227 0.301177
315 4 0.0924872 0.989175 0.279073
733 4 0.0203253 0.960827 0.323019
1168 4 0.120465 0.949425 0.349309
1166 2 0.100093 0.938728 0.377076
1290 4 0.16439 0.942372 0.307962
909 4 0.17642 0.925129 0.288368
1289 2 0.172541 0.933187 0.341868
1291 4 0.180693 0.924002 0.375774
763 4 0.24379 0.986591 0.325623
1598 2 0.380683 0.944303 0.249303
1600 4 0.371065 0.949324 0.283694
963 4 0.444666 0.968106 0.280857
962 2 0.479467 0.958875 0.282891
964 4 0.514268 0.949644 0.284924
248 3 0.00771484 0.563853 0.488527
163 3 0.224995 0.587267 0.398891
934 4 0.242565 0.593598 0.42195
932 2 0.265229 0.573809 0.441827
933 4 0.287894 0.55402 0.461704
161 1 0.227812 0.615822 0.381668
162 3 0.226388 0.641312 0.402856
400 4 0.219678 0.661829 0.421438
398 2 0.237078 0.691769 0.431509
399 4 0.254477 0.721708 0.441579
1308 4 0.282022 0.722173 0.452606
1307 2 0.305478 0.738998 0.430991
951 4 0.478309 0.746826 0.492646
196 1 0.0172038 0.837598 0.492088
198 3 0.0283938 0.816484 0.468659
200 3 0.0339015 0.865845 0.490615
898 4 0.321207 0.756001 0.381359
880 4 0.37677 0.788087 0.468375
1309 4 0.328933 0.755822 0.409376
363 4 0.302862 0.803954 0.50644
362 2 0.338191 0.80251 0.499356
364 4 0.373521 0.801065 0.492271
878 2 0.412622 0.787635 0.472232
879 4 0.448474 0.787183 0.476089
1092 4 0.050863 0.933916 0.410817
1091 2 0.0254426 0.930195 0.436124
1167 4 0.0797213 0.928032 0.404844
1516 4 0.0448773 0.89226 0.485796
387 4 0.141045 0.982516 0.434295
1296 4 0.361422 0.973101 0.495312
1295 2 0.396883 0.977155 0.490157
659 2 0.0520737 0.608422 0.502525
1398 4 0.0843639 0.61048 0.600224
1397 2 0.118301 0.606957 0.611899
661 4 0.0292143 0.582985 0.491083
1596 4 0.237301 0.519267 0.598215
1399 4 0.152238 0.603435 0.623573
233 3 0.215537 0.604888 0.596522
1595 2 0.220176 0.508359 0.628018
232 3 0.178463 0.599402 0.635688
231 1 0.205143 0.616627 0.626087
1019 2 0.290144 0.520232 0.57589
1021 4 0.318831 0.533082 0.558216
279 4 0.339923 0.550559 0.550292
278 2 0.372252 0.560651 0.537902
1020 4 0.261457 0.507383 0.593565
280 4 0.404581 0.570742 0.525512
775 4 0.425773 0.586914 0.511649
773 2 0.455748 0.605935 0.517986
259 4 0.449849 0.554118 0.567741
257 2 0.480921 0.565706 0.581906
660 4 0.0749332 0.633859 0.513966
1464 4 0.00426391 0.638172 0.591265
630 4 0.00243823 0.723713 0.569551
1463 2 0.0328072 0.649813 0.609981
1276 4 0.00370308 0.71 0.595512
620 2 0.374249 0.713344 0.604616
621 4 0.358373 0.68176 0.611747
774 4 0.485723 0.624957 0.524323
622 4 0.390125 0.744928 0.597485
1080 4 0.494909 0.734958 0.513665
197 3 0.0216437 0.823824 0.521942
1459 4 0.413741 0.862647 0.633315
685 4 0.418264 0.836234 0.622192
683 2 0.436065 0.805975 0.630436
820 4 0.458102 0.796964 0.500955
818 2 0.474323 0.804138 0.532354
819 4 0.490543 0.811313 0.563753
684 4 0.453866 0.775717 0.638681
758 2 0.0112895 0.962239 0.56285
759 4 0.0437871 0.948973 0.554582
1515 4 0.0617685 0.944044 0.533073
1514 2 0.0533229 0.918152 0.509434
784 4 0.357619 5.49962e-05 0.508465
1457 2 0.430674 0.880673 0.60707
1458 4 0.447608 0.898698 0.580824
1362 4 0.470938 0.901518 0.563278
1361 2 0.502903 0.909271 0.548494
54 3 0.448667 0.990412 0.508784
1297 4 0.432343 0.98121 0.485002
537 4 0.50048 0.993566 0.612481
235 3 0.228901 0.61316 0.648501
1372 4 0.219538 0.501025 0.680093
1370 2 0.235038 0.510536 0.711233
1597 4 0.203052 0.49745 0.657821
1371 4 0.250539 0.520047 0.742373
1544 2 0.290431 0.622402 0.651015
1546 4 0.256308 0.613458 0.643529
1545 4 0.324555 0.631347 0.658502
915 4 0.354487 0.631994 0.656606
1465 4 0.0613505 0.661453 0.628697
1494 4 0.177663 0.703151 0.718343
1493 2 0.171749 0.684817 0.748827
234 3 0.196741 0.648896 0.623251
914 2 0.387548 0.645024 0.662742
1119 4 0.505533 0.704323 0.662262
435 4 0.394351 0.649247 0.726591
916 4 0.42061 0.658055 0.668878
1120 4 0.44922 0.659702 0.668562
1118 2 0.477377 0.682012 0.665412
427 4 0.353605 0.836443 0.756608
801 4 0.389297 0.738653 0.710225
800 2 0.411391 0.756219 0.732671
173 3 0.462521 0.869615 0.732827
1236 4 0.47037 0.861558 0.706083
93 3 0.182071 0.998576 0.667534
575 2 0.199228 0.931332 0.720311
577 4 0.193576 0.922084 0.685916
570 4 0.346417 0.960184 0.672669
569 2 0.378567 0.953678 0.657686
571 4 0.410717 0.947172 0.642702
861 4 0.429615 0.97009 0.647435
1235 2 0.495445 0.878591 0.686551
862 4 0.496335 0.966058 0.620339
860 2 0.462975 0.968074 0.633887
670 4 0.0144924 0.533425 0.82904
887 2 0.212788 0.510334 0.830967
889 4 0.244126 0.527685 0.826809
212 3 0.27108 0.531776 0.756206
214 3 0.267518 0.534645 0.81022
213 3 0.256908 0.578692 0.779368
211 1 0.275997 0.551386 0.782511
1175 2 0.363491 0.566223 0.81135
1176 4 0.330245 0.557579 0.800377
215 3 0.307678 0.559953 0.783848
555 4 0.470232 0.537399 0.781968
1177 4 0.396738 0.574868 0.822323
594 4 0.423804 0.572412 0.830352
554 2 0.438106 0.522183 0.775897
593 2 0.452586 0.574289 0.851997
595 4 0.481369 0.576166 0.873642
682 4 0.0711134 0.681671 0.803497
680 2 0.103866 0.669396 0.794721
1062 4 0.157403 0.641679 0.848454
1495 4 0.165835 0.666482 0.779312
681 4 0.13662 0.65712 0.785946
993 4 0.229483 0.741672 0.862774
436 4 0.394973 0.645925 0.798635
434 2 0.394662 0.647586 0.762613
516 4 0.399175 0.62676 0.820615
515 2 0.402107 0.653856 0.84423
1256 2 0.042125 0.813901 0.797053
1258 4 0.0777091 0.812473 0.80273
286 4 0.0829115 0.835112 0.818882
505 4 0.0956106 0.816967 0.752517
284 2 0.112375 0.844911 0.837222
504 4 0.165748 0.833077 0.747713
503 2 0.130679 0.825022 0.750115
38 3 0.183168 0.804946 0.854527
285 4 0.141838 0.85471 0.855563
149 3 0.168808 0.859843 0.850581
1180 4 0.156412 0.79932 0.860968
36 1 0.20977 0.788735 0.8423
37 3 0.20696 0.756491 0.849585
40 3 0.2111 0.792382 0.809684
39 3 0.23778 0.800582 0.856266
799 4 0.244562 0.815605 0.87863
1369 4 0.268105 0.819041 0.775155
1367 2 0.298824 0.834331 0.764061
1368 4 0.329542 0.84962 0.752966
171 1 0.472031 0.862456 0.764103
425 2 0.386458 0.840944 0.770781
426 4 0.419311 0.845445 0.784954
174 3 0.489748 0.834067 0.764441
802 4 0.433484 0.773785 0.755116
175 3 0.445643 0.859428 0.783425
1503 4 0.443378 0.773245 0.782328
1502 2 0.47673 0.76077 0.776628
73 3 0.00228859 0.901768 0.839595
1244 2 0.052055 0.945086 0.843991
1246 4 0.0239007 0.922575 0.845037
1245 4 0.0802094 0.967597 0.842945
1137 4 0.108264 0.964438 0.842537
576 4 0.20488 0.94058 0.754705
805 4 0.174471 0.90853 0.832879
803 2 0.179778 0.914543 0.79772
804 4 0.185084 0.920556 0.762561
1136 2 0.13978 0.979606 0.833753
150 3 0.171461 0.913245 0.860064
1138 4 0.171296 0.994774 0.82497
146 1 0.173387 0.883482 0.873822
1116 4 0.365746 0.912792 0.833968
1115 2 0.331454 0.915723 0.844736
1117 4 0.297162 0.918653 0.855504
309 4 0.415496 0.898267 0.86616
308 2 0.450795 0.905053 0.869061
172 3 0.491097 0.887132 0.77543
310 4 0.486093 0.91184 0.871962
736 4 0.399319 0.877724 0.852321
617 2 0.00779236 0.499439 0.97646
618 4 0.0130502 0.525743 0.000562357
1061 2 0.181303 0.622358 0.86732
1063 4 0.205204 0.603037 0.886186
1135 4 0.206698 0.576213 0.896977
1133 2 0.21841 0.552153 0.921151
1134 4 0.230122 0.528094 0.945324
1248 4 0.316391 0.568746 0.917703
1249 4 0.329215 0.558698 0.987963
1247 2 0.322803 0.563722 0.952833
541 4 0.452172 0.515715 0.918239
566 2 0.452305 0.579686 0.932703
567 4 0.45216 0.544686 0.924017
568 4 0.452451 0.614686 0.94139
544 4 0.0119799 0.648814 0.895872
305 2 0.200371 0.707739 0.961555
307 4 0.196226 0.704285 0.925899
306 4 0.204517 0.711194 0.99721
992 2 0.247118 0.730269 0.89209
994 4 0.264752 0.718865 0.921406
1284 4 0.278248 0.731552 0.94355
1283 2 0.311563 0.740302 0.954227
517 4 0.405038 0.680952 0.867844
1402 4 0.409168 0.698681 0.949873
1400 2 0.434264 0.687256 0.973114
1401 4 0.459359 0.675831 0.996355
972 4 0.04145 0.767128 0.9366
971 2 0.076521 0.766823 0.928209
973 4 0.111592 0.766518 0.919818
1179 4 0.130619 0.74972 0.906534
1178 2 0.143515 0.77452 0.883751
665 2 0.154532 0.87232 0.978885
666 4 0.174186 0.846492 0.994604
797 2 0.269536 0.817888 0.904544
798 4 0.29451 0.820171 0.930458
969 4 0.283583 0.868935 0.985229
614 2 0.32786 0.83377 0.972145
616 4 0.347695 0.810046 0.953591
942 4 0.367907 0.766849 0.960773
1285 4 0.344878 0.749052 0.964905
615 4 0.308025 0.857494 0.990699
811 4 0.386718 0.833772 0.977151
734 2 0.391611 0.848324 0.871729
735 4 0.383904 0.818924 0.891138
941 2 0.402557 0.77188 0.969408
943 4 0.437206 0.776911 0.978042
809 2 0.401277 0.852384 0.0043928
795 4 0.449201 0.799155 0.996481
1443 4 0.0910119 0.96911 0.955678
1442 2 0.099739 0.934168 0.953847
301 4 0.223442 0.893645 0.903068
667 4 0.134879 0.898149 0.963166
148 3 0.203257 0.879548 0.888391
1444 4 0.108466 0.899226 0.952015
147 3 0.149731 0.880559 0.896899
981 4 0.265723 0.00155913 0.982177
780 4 0.349512 0.00447243 0.942963
300 4 0.283603 0.925564 0.879322
131 1 0.309162 0.977383 0.956004
132 3 0.312547 0.971495 0.92353
133 3 0.304 0.948327 0.971786
299 2 0.253522 0.909604 0.891195
970 4 0.277626 0.940664 0.980614
968 2 0.280604 0.904799 0.982922
134 3 0.337171 0.991741 0.967373
188 3 0.446125 0.996802 0.960365
186 1 0.471773 0.975435 0.958008
189 3 0.465673 0.95286 0.934069
190 3 0.476417 0.960285 0.986779
834 4 0.550785 0.0355511 0.0944476
833 2 0.547174 0.00716872 0.116399
945 4 0.699516 0.0171904 0.0781469
1383 4 0.677108 0.0209311 0.0617223
944 2 0.734711 0.0243957 0.0750103
946 4 0.769906 0.031601 0.0718736
754 4 0.795882 0.0174415 0.0721593
752 2 0.824124 0.0350573 0.0582816
753 4 0.852366 0.0526731 0.0444038
937 4 0.879262 0.059776 0.0566868
935 2 0.899174 0.0897119 0.0538859
936 4 0.919086 0.119648 0.0510851
319 4 0.554725 0.245635 0.0790433
1010 2 0.536103 0.159556 0.0353555
1011 4 0.564045 0.169103 0.0146528
1233 4 0.568635 0.190962 0.997012
1002 4 0.707042 0.15201 0.0759663
1001 2 0.719656 0.1852 0.0696578
1003 4 0.73227 0.21839 0.0633494
1096 4 0.756841 0.229194 0.0650703
1304 2 0.789739 0.171271 0.114546
1305 4 0.806976 0.183793 0.0854503
1066 4 0.827863 0.197817 0.0735527
1064 2 0.845629 0.229073 0.0707511
590 2 0.866708 0.163444 0.0294044
591 4 0.859235 0.164421 0.0646704
229 3 0.874747 0.147453 0.0813403
226 1 0.884632 0.167941 0.105885
1269 4 0.929056 0.130724 0.0259322
228 3 0.887452 0.199189 0.0942428
1268 2 0.94995 0.15693 0.0126204
227 3 0.914253 0.157906 0.116956
1270 4 0.970844 0.183136 0.999309
841 4 0.934639 0.140469 0.100898
579 4 0.99411 0.213542 0.0565925
42 3 0.523057 0.355515 0.0555741
41 1 0.555965 0.352897 0.0588839
45 3 0.562815 0.337662 0.0871648
43 3 0.568051 0.335215 0.0331701
318 4 0.571836 0.312347 0.100458
1281 4 0.577171 0.325675 0.00643255
317 2 0.56328 0.278991 0.0897507
1280 2 0.612328 0.326448 0.998443
61 1 0.698959 0.315104 0.00617694
65 3 0.692159 0.32293 0.0373432
463 4 0.666557 0.315796 0.0519948
461 2 0.666335 0.299731 0.0842798
63 3 0.729599 0.325884 0.998122
462 4 0.666113 0.283665 0.116565
62 3 0.697939 0.282124 0.00271975
1094 2 0.760772 0.247982 0.0955998
1065 4 0.863394 0.26033 0.0679494
959 2 0.771112 0.370461 0.0180147
1095 4 0.764704 0.26677 0.126129
1051 4 0.948615 0.336959 0.00300586
565 4 0.923672 0.318344 0.999813
44 3 0.569311 0.383586 0.058922
639 4 0.585824 0.394865 0.0789195
638 2 0.616274 0.412528 0.0710934
640 4 0.646725 0.430192 0.0632672
1140 4 0.673101 0.420863 0.0568623
1139 2 0.708884 0.417619 0.0599398
1141 4 0.744668 0.414375 0.0630172
960 4 0.798547 0.391287 0.0286964
792 4 0.820349 0.408148 0.0206898
791 2 0.856377 0.406749 0.0213546
793 4 0.892405 0.40535 0.0220194
1049 2 0.931033 0.368437 0.00232821
605 2 0.536859 0.062871 0.212037
607 4 0.558564 0.0519613 0.238688
948 4 0.579136 0.034393 0.231315
606 4 0.515154 0.0737807 0.185386
1006 4 0.920662 0.00300893 0.165619
268 4 0.993604 0.107809 0.172417
840 4 0.982993 0.129231 0.153218
743 2 0.538002 0.222126 0.223508