ITEM: TIMESTEP
2230500
ITEM: NUMBER OF ATOMS
4800
ITEM: BOX BOUNDS xy xz yz pp pp pp
-1.7797454600000002e+01 9.9985700000000008e+00 -7.7988846000000009e+00
-9.9985700000000008e+00 9.9985700000000008e+00 0.0000000000000000e+00
-9.9985700000000008e+00 9.9985700000000008e+00 0.0000000000000000e+00
ITEM: ATOMS id type xs ys zs
852 4 0.0458679 0.037199 0.0703561
851 4 0.0853488 0.055209 0.0368463
850 2 0.0656084 0.046204 0.0536012
3186 4 0.106166 0.0657426 0.0308686
3184 2 0.130004 0.0766596 0.019796
3304 2 0.240673 0.0346982 0.0705844
3306 4 0.248145 0.0274822 0.0489671
3698 4 0.265953 0.0233984 0.0479562
3697 2 0.289602 0.0330318 0.0362635
3699 4 0.31325 0.0426652 0.0245708
3264 4 0.333297 0.0448616 0.0279178
1417 2 0.33303 0.0110816 0.0353905
3262 2 0.343688 0.0588781 0.00780605
1418 4 0.307464 0.00856528 0.0315885
1419 4 0.358596 0.0135979 0.0391925
1202 4 0.376888 0.019909 0.0304973
1201 2 0.386826 0.0101718 0.0120119
2922 4 0.436508 0.0808141 0.0592814
2920 2 0.425202 0.0689381 0.0802479
1109 4 0.443222 0.071978 0.0445833
3761 4 0.0233603 0.151518 0.0729325
3185 4 0.153843 0.0875765 0.00872345
2850 4 0.238803 0.101305 0.0446788
4223 4 0.242167 0.116565 0.0562618
2848 2 0.257118 0.0999616 0.0282941
4488 4 0.315696 0.143925 0.00876145
2849 4 0.275434 0.0986184 0.0119094
917 4 0.289268 0.0904309 0.00418537
4222 2 0.258419 0.130121 0.0741835
4486 2 0.323176 0.165277 0.0217441
1720 2 0.30783 0.0910609 0.0723653
916 2 0.310686 0.0986344 0.0192168
1721 4 0.324446 0.100399 0.0531385
918 4 0.332105 0.106838 0.0342482
1108 2 0.466669 0.0855439 0.034024
1110 4 0.490117 0.0991098 0.0234648
1937 4 0.493188 0.083549 0.013351
1756 2 0.181235 0.19343 0.0063928
1758 4 0.20675 0.206316 0.0126653
1095 4 0.22312 0.213335 0.025402
1093 2 0.237892 0.200414 0.0172941
1094 4 0.252665 0.187494 0.00918623
2061 4 0.300182 0.227557 0.0815862
2059 2 0.312762 0.2114 0.0788263
4487 4 0.330656 0.18663 0.0347267
2060 4 0.325342 0.195243 0.0760665
4058 4 0.35209 0.249059 0.0766792
2838 4 0.351916 0.189761 0.0369298
2836 2 0.373266 0.202476 0.0508888
2837 4 0.394615 0.215192 0.0648478
417 3 0.421596 0.198856 0.0842446
964 2 0.49614 0.202867 0.0686171
965 4 0.498191 0.18758 0.0505258
767 4 0.245569 0.318216 0.0580484
766 2 0.248418 0.302658 0.0406238
768 4 0.251267 0.287099 0.0231991
4571 4 0.264129 0.276987 0.01751
4570 2 0.282855 0.267405 0.0121475
3321 4 0.342265 0.25211 0.0590205
4572 4 0.301582 0.257823 0.00678503
3320 4 0.311796 0.249897 0.0187801
3319 2 0.327031 0.251003 0.0389003
3524 4 0.013819 0.380794 0.00861481
3608 4 0.0109865 0.360929 0.00730082
1554 4 0.0747679 0.410734 0.0595665
1552 2 0.0766219 0.388614 0.0544635
1553 4 0.0784758 0.366494 0.0493604
4353 4 0.0969012 0.371022 0.0595689
3523 2 0.0387167 0.384091 0.00107875
4351 2 0.122542 0.375052 0.0650112
4352 4 0.148183 0.379082 0.0704534
53 3 0.16634 0.383307 0.0804024
1952 4 0.213053 0.373247 0.069
1951 2 0.238825 0.387432 0.0652104
1953 4 0.264597 0.401616 0.0614209
52 3 0.202162 0.379497 0.0829158
3503 4 0.28399 0.40159 0.0516283
3502 2 0.310169 0.406717 0.0554035
3504 4 0.336348 0.411843 0.0591787
1967 4 0.347616 0.414704 0.0769078
4403 4 0.43499 0.348921 0.0805151
4402 2 0.457504 0.344024 0.0783496
4404 4 0.480017 0.339127 0.0761841
3749 4 0.497733 0.356602 0.0776065
178 3 0.0437213 0.492802 0.0361197
3338 4 0.0591101 0.484916 0.0289228
3339 4 0.0508838 0.437142 0.0394168
3337 2 0.054997 0.461029 0.0341698
1349 4 0.0759926 0.498526 0.0166461
180 3 0.0230743 0.49283 0.00464043
1694 4 0.00332032 0.481289 0.000250182
938 4 0.0950111 0.418761 0.0532233
937 2 0.108317 0.443199 0.0569239
939 4 0.121623 0.467638 0.0606246
434 3 0.136041 0.430415 0.070388
3530 4 0.227477 0.491358 0.00199498
1902 4 0.247409 0.496234 0.013194
3255 4 0.489384 0.496564 0.0517404
2058 4 0.0293854 0.0317974 0.0834058
2056 2 0.00504353 0.0173252 0.0915389
3278 4 0.0832094 0.0318717 0.150541
4044 4 0.094558 0.0241588 0.139101
4042 2 0.087538 0.00143548 0.128833
3305 4 0.233201 0.0419141 0.0922017
680 3 0.252861 0.0815118 0.133393
679 3 0.241226 0.0528065 0.109032
676 1 0.260555 0.0681735 0.120187
677 3 0.271179 0.0567907 0.133327
3293 4 0.288657 0.0752851 0.135736
1722 4 0.291215 0.0817225 0.0915921
983 4 0.271803 0.0187425 0.104288
3292 2 0.307244 0.0711201 0.149854
982 2 0.29132 0.0222936 0.121135
984 4 0.310837 0.0258447 0.137982
3294 4 0.325831 0.0669552 0.163972
3999 4 0.305273 0.0167822 0.156479
218 3 0.329886 0.0383261 0.131995
220 3 0.341165 0.0587296 0.163464
216 1 0.339598 0.0392998 0.153216
219 3 0.325422 0.0211679 0.165833
217 3 0.362201 0.0385126 0.151308
3195 4 0.380899 0.0361895 0.148828
3193 2 0.401298 0.0498152 0.134269
3194 4 0.421697 0.0634409 0.119709
2921 4 0.413895 0.057062 0.101214
1247 4 0.447826 0.0070127 0.158753
3311 4 0.00919352 0.153737 0.086253
2868 4 0.00168899 0.123481 0.162561
3760 2 0.043004 0.153244 0.0891291
439 3 0.0573243 0.136863 0.156743
881 4 0.0709681 0.128741 0.148723
880 2 0.0771675 0.1441 0.128993
882 4 0.083367 0.159459 0.109263
3762 4 0.0626478 0.15497 0.105326
1192 2 0.160673 0.156871 0.0963814
1194 4 0.139023 0.158899 0.0855411
1193 4 0.182323 0.154844 0.107222
1594 2 0.226426 0.130546 0.162258
887 4 0.20283 0.160386 0.113446
1596 4 0.199921 0.123589 0.165538
678 3 0.277284 0.0811136 0.104873
59 3 0.272103 0.144564 0.148316
60 3 0.265879 0.145881 0.111296
1595 4 0.25293 0.137503 0.158978
1811 4 0.256193 0.0842587 0.153952
4224 4 0.27467 0.143677 0.0921053
56 1 0.279931 0.14152 0.127153
58 3 0.279147 0.119752 0.124882
57 3 0.303253 0.155988 0.12445
3102 4 0.323415 0.165201 0.116427
2183 4 0.467665 0.163523 0.126182
3091 2 0.0204872 0.200995 0.134084
3093 4 0.0415346 0.195517 0.14168
4320 4 0.0622376 0.201339 0.140831
4318 2 0.0605799 0.184737 0.158896
886 2 0.227437 0.176739 0.118498
905 4 0.248132 0.240721 0.119027
904 2 0.265981 0.233845 0.106521
888 4 0.252043 0.193091 0.123549
3879 4 0.272091 0.201606 0.131371
906 4 0.283829 0.226969 0.0940152
3877 2 0.297787 0.207891 0.138105
3878 4 0.323483 0.214176 0.144839
357 3 0.344134 0.217724 0.150092
418 3 0.401478 0.222361 0.0826665
356 1 0.365742 0.218826 0.159004
360 3 0.383945 0.232735 0.14628
3100 2 0.349933 0.177622 0.115347
359 3 0.366635 0.197525 0.159131
3101 4 0.376451 0.190043 0.114268
419 3 0.398232 0.200341 0.113179
420 3 0.432745 0.229062 0.106155
416 1 0.413596 0.212799 0.0966605
966 4 0.49409 0.218153 0.0867083
4164 4 0.454962 0.239437 0.111237
756 4 0.436857 0.192605 0.0897229
4162 2 0.479808 0.24558 0.120371
754 2 0.452912 0.18777 0.106454
755 4 0.468968 0.182936 0.123186
2182 2 0.491503 0.171425 0.137667
3020 4 0.0356398 0.293168 0.141974
3019 2 0.026262 0.292697 0.165221
765 4 0.0377392 0.281978 0.127315
763 2 0.0610391 0.292658 0.115273
764 4 0.084339 0.303339 0.103231
2916 4 0.10054 0.31408 0.0909992
449 3 0.121251 0.31563 0.138925
2914 2 0.125523 0.328618 0.0973893
446 1 0.127642 0.307599 0.1585
450 3 0.132302 0.288749 0.154134
447 3 0.147928 0.323689 0.167099
2888 4 0.149925 0.289425 0.14495
2887 2 0.159611 0.27108 0.142711
2889 4 0.169297 0.252735 0.140472
3327 4 0.19011 0.256925 0.144158
3325 2 0.216714 0.268971 0.143679
1709 4 0.16811 0.331892 0.158625
3326 4 0.243318 0.281017 0.143201
3200 4 0.255119 0.272391 0.152532
3199 2 0.276567 0.287462 0.140058
3201 4 0.298015 0.302533 0.127583
1740 4 0.318148 0.280992 0.136991
1738 2 0.331543 0.271521 0.152595
4057 2 0.358053 0.261493 0.0983437
4059 4 0.364015 0.273927 0.120008
1364 4 0.0228562 0.402501 0.103523
3674 4 0.0435416 0.403659 0.104558
3673 2 0.0700782 0.409391 0.10322
3675 4 0.0966148 0.415123 0.101882
2915 4 0.150506 0.343157 0.103779
54 3 0.16921 0.351865 0.0954616
51 1 0.180372 0.374866 0.0933262
55 3 0.184 0.384632 0.113899
435 3 0.149475 0.412434 0.0963927
1708 2 0.194876 0.341666 0.156955
1710 4 0.221641 0.351439 0.155284
1185 4 0.383017 0.349279 0.0971477
1184 4 0.436104 0.365516 0.0899984
1183 2 0.40956 0.357398 0.093573
3179 4 0.0247586 0.473632 0.129047
3555 4 0.0388024 0.469185 0.119139
3553 2 0.0504764 0.457796 0.103785
433 3 0.118453 0.42306 0.104646
3554 4 0.0621504 0.446407 0.0884312
431 1 0.139915 0.428474 0.0930414
432 3 0.155691 0.448645 0.10077
2115 4 0.160874 0.462576 0.114166
2113 2 0.185259 0.478624 0.120417
2114 4 0.209645 0.494671 0.126667
265 3 0.231178 0.497778 0.130438
3938 4 0.311379 0.473425 0.156487
3216 4 0.323539 0.464481 0.146954
3214 2 0.340185 0.456441 0.133946
3215 4 0.356831 0.4484 0.120938
1966 2 0.358924 0.426293 0.0979982
1968 4 0.370232 0.437882 0.119089
4176 4 0.0612549 0.0766821 0.227667
4171 2 0.0417344 0.0763797 0.191803
3099 4 0.0338374 0.0177829 0.231928
4173 4 0.0609436 0.0772429 0.208182
1098 4 0.0382178 0.0109139 0.249987
4172 4 0.0225251 0.0755166 0.175423
3097 2 0.0598271 0.0286338 0.226092
3098 4 0.0858168 0.0394846 0.220256
3277 2 0.0862654 0.0354293 0.175234
3279 4 0.0893214 0.0389868 0.199928
3997 2 0.292361 0.00336153 0.176129
2899 2 0.305379 0.0664217 0.239115
1141 2 0.342657 0.0145564 0.227722
1142 4 0.323933 0.00851833 0.245632
1143 4 0.361381 0.0205945 0.209812
3138 4 0.378253 0.0298912 0.2208
3136 2 0.402717 0.0433713 0.212164
3137 4 0.427182 0.0568514 0.203529
2939 4 0.443371 0.0673493 0.192437
2938 2 0.469951 0.0731515 0.191995
1002 4 0.452935 0.00746762 0.224369
1000 2 0.456381 0.00731548 0.199613
1001 4 0.459828 0.00716334 0.174856
2940 4 0.496532 0.0789537 0.191553
4576 2 0.0124387 0.156473 0.201425
3854 4 0.0379779 0.164488 0.230164
438 3 0.0194509 0.123187 0.170833
437 3 0.0479952 0.152103 0.187518
436 1 0.0436673 0.132392 0.176146
440 3 0.049817 0.118027 0.189345
1167 4 0.0673893 0.116484 0.195546
1165 2 0.0936586 0.125815 0.200646
1166 4 0.119928 0.135147 0.205745
1836 4 0.141637 0.139647 0.205831
1834 2 0.164566 0.140615 0.216586
1835 4 0.187495 0.141582 0.227341
1229 4 0.207872 0.151526 0.221968
1228 2 0.230746 0.147235 0.219927
1810 2 0.27058 0.0952919 0.173996
1230 4 0.253621 0.142944 0.217887
385 3 0.270671 0.0985371 0.228282
382 3 0.265132 0.131068 0.226717
381 1 0.281569 0.120822 0.224136
383 3 0.290222 0.124137 0.202382
2252 4 0.300948 0.142097 0.195161
1812 4 0.284967 0.106325 0.19404
384 3 0.300272 0.130208 0.239103
2251 2 0.324164 0.149531 0.182623
3288 4 0.314772 0.122658 0.246656
2900 4 0.32085 0.084861 0.224396
1073 4 0.34189 0.0965508 0.226928
1072 2 0.367658 0.110916 0.223437
1074 4 0.393426 0.125282 0.219947
2253 4 0.347379 0.156964 0.170086
2271 4 0.411399 0.133863 0.230424
2269 2 0.434617 0.153084 0.233353
4578 4 0.026459 0.1731 0.218511
4319 4 0.0589223 0.168135 0.176961
926 4 0.348963 0.226303 0.213743
925 2 0.344578 0.24431 0.200675
1059 4 0.318223 0.174641 0.245691
358 3 0.367523 0.226979 0.180683
1208 4 0.360472 0.178996 0.171709
3002 4 0.383782 0.238199 0.19086
1207 2 0.384863 0.178439 0.176107
1209 4 0.409253 0.177883 0.180505
2270 4 0.457835 0.172304 0.236283
409 3 0.469086 0.190058 0.246357
406 1 0.491345 0.196599 0.236002
408 3 0.490883 0.207631 0.216153
407 3 0.496535 0.17787 0.231286
3233 4 0.00893069 0.317249 0.205095
30 3 0.0140579 0.278434 0.203139
3021 4 0.0168842 0.292227 0.188468
26 1 0.0126993 0.257765 0.209959
28 3 0.0105239 0.256159 0.233055
29 3 0.0330491 0.253899 0.203199
3232 2 0.0356089 0.327328 0.207579
4188 4 0.0531772 0.257706 0.19691
4709 4 0.0658393 0.331526 0.228415
4186 2 0.0744993 0.271108 0.183253
448 3 0.109265 0.302992 0.174066
4187 4 0.0958214 0.28451 0.169596
4036 2 0.214056 0.282589 0.225782
4038 4 0.22558 0.306315 0.218228
4037 4 0.202532 0.258862 0.233337
1739 4 0.344937 0.26205 0.168199
927 4 0.340193 0.262317 0.187607
3001 2 0.40807 0.25541 0.19534
3003 4 0.432357 0.272622 0.19982
4076 4 0.00866955 0.370998 0.248116
4075 2 0.0340951 0.385727 0.243543
4077 4 0.0595207 0.400456 0.238971
3234 4 0.062287 0.337406 0.210063
4708 2 0.0919799 0.345535 0.227236
4710 4 0.11812 0.359544 0.226057
3072 4 0.125923 0.365036 0.24534
4296 4 0.022987 0.495857 0.238454
777 4 0.074063 0.418904 0.23581
775 2 0.0994794 0.420047 0.235214
776 4 0.124896 0.421191 0.234619
2937 4 0.14031 0.439651 0.228677
2935 2 0.165166 0.442418 0.221453
2936 4 0.190023 0.445184 0.214229
3117 4 0.208832 0.451788 0.205442
3937 2 0.289116 0.471546 0.169062
3115 2 0.233226 0.466135 0.19732
3116 4 0.257621 0.480483 0.189198
3939 4 0.266854 0.469667 0.181638
2852 4 0.36377 0.447326 0.226809
2851 2 0.38953 0.460676 0.231761
2853 4 0.415291 0.474026 0.236713
873 4 0.422801 0.492578 0.242623
1010 4 0.483855 0.425702 0.232212
969 4 0.464167 0.420081 0.241735
1097 4 0.00220638 0.00119951 0.286976
4174 2 0.0470998 0.068473 0.248592
4175 4 0.0329447 0.0602639 0.269516
1096 2 0.0202121 0.0060567 0.268481
998 4 0.094279 0.0563517 0.283722
997 2 0.111442 0.0748416 0.297297
4007 4 0.27586 0.0303732 0.261203
2901 4 0.289908 0.0479824 0.253833
950 4 0.339177 0.039025 0.305157
949 2 0.322612 0.0432001 0.321792
4008 4 0.304431 0.00126505 0.253484
4006 2 0.290145 0.0158191 0.257343
3855 4 0.0384822 0.139761 0.272429
3853 2 0.03823 0.152125 0.251297
227 3 0.00718024 0.116603 0.333133
999 4 0.128605 0.0933315 0.310872
1161 4 0.140845 0.112216 0.305749
1159 2 0.163613 0.112065 0.315952
826 2 0.22686 0.137195 0.313254
827 4 0.208853 0.123892 0.330103
1160 4 0.186381 0.111914 0.326156
828 4 0.244868 0.150497 0.296405
1580 4 0.267007 0.158916 0.292116
4548 4 0.347697 0.157574 0.303122
3286 2 0.329056 0.136062 0.265722
3287 4 0.343339 0.149466 0.284788
4546 2 0.362165 0.157083 0.323371
1579 2 0.289506 0.167527 0.278526
1581 4 0.312004 0.176138 0.264936
1057 2 0.342177 0.190897 0.252809
1058 4 0.366132 0.207153 0.259928
885 4 0.435339 0.247071 0.304254
799 2 0.40068 0.240422 0.332268
801 4 0.424847 0.24852 0.321395
1734 4 0.00395271 0.255504 0.251894
2186 4 0.258032 0.290963 0.269334
2220 4 0.263463 0.311331 0.26551
2187 4 0.299751 0.278842 0.283357
2185 2 0.278891 0.284902 0.276345
76 1 0.333527 0.298283 0.297102
79 3 0.329039 0.295244 0.319867
77 3 0.327464 0.315923 0.289999
80 3 0.320104 0.279479 0.285788
3044 4 0.378876 0.30998 0.298564
78 3 0.357727 0.303172 0.292914
3043 2 0.405058 0.323541 0.300737
883 2 0.462091 0.256552 0.306207
884 4 0.488843 0.266033 0.30816
793 2 0.0145412 0.347353 0.312187
794 4 0.0374976 0.34925 0.323501
3070 2 0.149707 0.382712 0.250579
3071 4 0.173492 0.400389 0.255817
2218 2 0.275307 0.336087 0.262765
1848 4 0.302314 0.361605 0.275225
2219 4 0.287151 0.360843 0.260019
1846 2 0.327006 0.372746 0.284557
889 2 0.353948 0.403386 0.33144
891 4 0.361421 0.395001 0.310476
371 1 0.386501 0.394976 0.289371
375 3 0.383055 0.406433 0.307391
373 3 0.364554 0.382307 0.279953
1847 4 0.351697 0.383886 0.29389
4236 4 0.403079 0.370615 0.309765
374 3 0.398631 0.381184 0.295824
968 4 0.415407 0.409943 0.261493
372 3 0.400035 0.409924 0.273675
3045 4 0.431241 0.337103 0.302909
1027 2 0.471933 0.350929 0.328302
1029 4 0.449495 0.34341 0.314585
967 2 0.439787 0.415012 0.251614
3297 4 0.00830161 0.456006 0.318458
3295 2 0.0325217 0.474216 0.317706
2264 4 0.0573462 0.490742 0.297352
3296 4 0.0567418 0.492426 0.316955
2263 2 0.0811081 0.496572 0.285974
871 2 0.437705 0.489403 0.261452
872 4 0.452609 0.486229 0.280281
4362 4 0.492512 0.447021 0.312692
3974 4 0.0268302 0.0566913 0.390127
3973 2 0.0511966 0.073956 0.386103
82 3 0.275621 0.0798482 0.333903
84 3 0.284075 0.0669811 0.366547
1863 4 0.274954 0.0564967 0.382642
1861 2 0.259669 0.0324415 0.38606
1862 4 0.244383 0.00838625 0.389478
81 1 0.290307 0.0704661 0.34413
85 3 0.287442 0.0506285 0.334062
951 4 0.306047 0.0473752 0.338427
1697 4 0.388087 0.0774706 0.405643
3053 4 0.035569 0.1606 0.345457
228 3 0.0258425 0.107236 0.36189
229 3 0.0299645 0.143477 0.35635
226 1 0.014332 0.121404 0.355002
3975 4 0.075563 0.0912206 0.382078
3223 2 0.115801 0.106206 0.39085
3224 4 0.0943011 0.0937054 0.376974
3225 4 0.137301 0.118706 0.404726
1481 4 0.153667 0.112297 0.410393
1017 4 0.323002 0.158464 0.413456
83 3 0.313948 0.0850009 0.342098
2211 4 0.379522 0.162787 0.391992
2209 2 0.357931 0.156606 0.406794
843 4 0.390742 0.151725 0.397453
4547 4 0.376634 0.156592 0.343621
841 2 0.417151 0.157865 0.394168
842 4 0.443561 0.164005 0.390882
1322 4 0.480171 0.0853032 0.387644
1321 2 0.496962 0.0993362 0.404969
3152 4 0.0045759 0.18626 0.369279
3144 4 0.081117 0.219514 0.414317
908 4 0.0952363 0.232757 0.404292
909 4 0.0984921 0.214062 0.359125
3054 4 0.0833749 0.194287 0.358265
3052 2 0.059472 0.177443 0.351861
907 2 0.0968642 0.223409 0.381708
400 3 0.243483 0.170022 0.407675
800 4 0.376513 0.232324 0.343141
1077 4 0.448451 0.22196 0.385377
1075 2 0.457397 0.246902 0.386955
3135 4 0.00525719 0.300297 0.352834
1076 4 0.466342 0.271843 0.388534
1138 2 0.48237 0.309115 0.387023
1140 4 0.484682 0.286934 0.390625
1139 4 0.480059 0.331297 0.383421
19 3 0.311842 0.360523 0.369346
18 3 0.297189 0.387373 0.378951
3810 4 0.291861 0.392931 0.395757
3808 2 0.279658 0.409218 0.391796
16 1 0.317817 0.382979 0.374489
20 3 0.332705 0.388453 0.392545
890 4 0.346475 0.41177 0.352404
17 3 0.329349 0.395616 0.356437
2829 4 0.350411 0.382859 0.394789
2827 2 0.371685 0.392127 0.409869
4234 2 0.404105 0.368973 0.334659
4235 4 0.40513 0.36733 0.359553
1028 4 0.494372 0.358447 0.34202
3809 4 0.267456 0.425504 0.387836
1187 4 0.275873 0.435331 0.371306
1186 2 0.293975 0.456952 0.363294
1188 4 0.312077 0.478574 0.355282
3472 2 0.353114 0.482206 0.369131
3473 4 0.327137 0.473964 0.362876
3474 4 0.379091 0.490448 0.375386
2891 4 0.394273 0.483203 0.382146
2371 2 0.0216134 0.0336372 0.482337
2373 4 0.0477474 0.0394481 0.486999
991 2 0.0956262 0.00140971 0.465704
779 4 0.139071 0.0113057 0.482394
778 2 0.15897 0.0110743 0.497412
992 4 0.120803 0.00305864 0.470236
3247 2 0.332844 0.0390539 0.463941
3249 4 0.316615 0.0448526 0.479742
3248 4 0.349072 0.0332551 0.448139
1698 4 0.359121 0.0354084 0.429596
1696 2 0.373604 0.0564395 0.41762
266 1 0.403089 0.00934429 0.464789
270 3 0.404049 0.0289794 0.474184
1101 4 0.376723 0.00869775 0.440684
267 3 0.396228 0.00881813 0.442777
269 3 0.425541 0.0076246 0.465677
3118 2 0.459568 0.0154568 0.491967
3120 4 0.439534 0.00333073 0.476349
1495 2 0.494643 0.0784477 0.498656
1480 2 0.178111 0.12429 0.419915
396 1 0.245303 0.160372 0.427533
398 3 0.222632 0.14733 0.43522
1482 4 0.202554 0.136283 0.429437
1015 2 0.300189 0.160223 0.421817
4469 4 0.236299 0.114159 0.483625
397 3 0.258514 0.146957 0.424517
1016 4 0.277376 0.161983 0.430178
4598 4 0.304524 0.123992 0.464423
4470 4 0.282542 0.110255 0.469342
4468 2 0.25942 0.112207 0.476484
2210 4 0.336341 0.150424 0.421597
4597 2 0.330613 0.13447 0.45883
2724 4 0.39778 0.136701 0.488937
1612 2 0.386272 0.109462 0.42748
387 3 0.396862 0.143679 0.44432
386 1 0.39603 0.157942 0.461197
1613 4 0.379666 0.128631 0.435189
390 3 0.372692 0.154209 0.466285
4599 4 0.356703 0.144948 0.453237
388 3 0.407721 0.153945 0.47982
1614 4 0.392877 0.0902924 0.41977
1496 4 0.494484 0.0979393 0.485053
3082 2 0.00375137 0.226171 0.447302
3083 4 0.0239809 0.224196 0.433875
3143 4 0.0379903 0.216582 0.441327
3142 2 0.0595537 0.218048 0.427822
3074 4 0.121167 0.169226 0.42302
3073 2 0.136718 0.176287 0.443308
3075 4 0.152269 0.183347 0.463595
849 4 0.168061 0.201164 0.462938
847 2 0.185708 0.198324 0.479228
848 4 0.203355 0.195484 0.495518
399 3 0.256814 0.176763 0.443139
4465 2 0.291601 0.202758 0.445229
4467 4 0.277641 0.178917 0.439305
4466 4 0.305561 0.226598 0.451153
389 3 0.407399 0.17982 0.454005
1800 4 0.453757 0.242219 0.426636
1798 2 0.474809 0.247311 0.44199
1799 4 0.495861 0.252403 0.457345
4627 2 0.0210183 0.40192 0.427308
4628 4 0.0478431 0.410439 0.427802
902 4 0.40676 0.391428 0.428165
2828 4 0.39296 0.401395 0.424949
901 2 0.431222 0.40848 0.424024
1238 4 0.439502 0.458465 0.475529
1107 4 0.473545 0.425379 0.42951
903 4 0.455685 0.425532 0.419883
1105 2 0.496109 0.439046 0.441402
1237 2 0.442995 0.436602 0.477176
1239 4 0.446488 0.414739 0.478824
36 1 0.0441561 0.049114 0.581792
39 3 0.0211251 0.0491521 0.579092
1426 2 0.047444 0.0312235 0.529759
1428 4 0.0424305 0.0381495 0.507006
38 3 0.0482923 0.0347162 0.566429
40 3 0.0605593 0.0701786 0.578983
1427 4 0.0524576 0.0242976 0.552512
780 4 0.178869 0.0108429 0.51243
3773 4 0.406274 0.0642786 0.578255
3119 4 0.479603 0.0275829 0.507584
3672 4 0.473766 0.015921 0.52292
3670 2 0.4766 0.0165088 0.547781
1497 4 0.494803 0.0589561 0.512258
3671 4 0.479434 0.0170966 0.572641
3390 4 0.278807 0.115575 0.574934
3755 4 0.297551 0.122711 0.564391
3754 2 0.321107 0.140294 0.558293
1041 4 0.380675 0.121247 0.55382
2723 4 0.390344 0.131723 0.538392
2722 2 0.394062 0.134212 0.513665
3756 4 0.344664 0.157876 0.552195
1039 2 0.3944 0.113829 0.570966
1510 2 0.452651 0.126406 0.573649
1511 4 0.477104 0.132351 0.563654
3251 4 0.493764 0.143794 0.551094
175 3 0.260002 0.228956 0.564163
2893 2 0.243013 0.202473 0.514119
2895 4 0.268125 0.213869 0.522375
2894 4 0.217901 0.191076 0.505863
171 1 0.27868 0.222091 0.560231
172 3 0.2731 0.200772 0.568427
174 3 0.282821 0.22195 0.53741
173 3 0.299152 0.236224 0.570949
4673 4 0.362166 0.168033 0.56436
2561 4 0.19077 0.318601 0.572727
2560 2 0.188263 0.294985 0.577471
2562 4 0.185757 0.271369 0.582215
519 3 0.208055 0.273419 0.583994
518 3 0.234253 0.262401 0.564168
813 4 0.256749 0.271687 0.562985
811 2 0.278074 0.276275 0.548067
812 4 0.299398 0.280863 0.533149
2528 4 0.319448 0.289048 0.537981
2527 2 0.343573 0.291075 0.546732
2529 4 0.367697 0.293102 0.555484
2460 4 0.00432519 0.397383 0.572117
734 3 0.0246001 0.397435 0.572944
3314 4 0.08664 0.408247 0.580689
735 3 0.0638721 0.404381 0.578648
733 3 0.0378819 0.368737 0.577623
4551 4 0.212057 0.410353 0.536733
3719 4 0.222922 0.407802 0.520148
3718 2 0.22817 0.387165 0.524893
3720 4 0.233417 0.366528 0.529638
2439 4 0.251807 0.372822 0.538611
4549 2 0.21207 0.414827 0.561272
2437 2 0.267155 0.37582 0.558986
2438 4 0.282504 0.378818 0.57936
2067 4 0.483532 0.389888 0.505032
3358 2 0.00782589 0.449204 0.569726
3359 4 0.0119886 0.442772 0.546503
3313 2 0.11236 0.422076 0.576131
3315 4 0.13808 0.435905 0.571572
483 3 0.160159 0.441399 0.567613
3605 4 0.181543 0.448123 0.524181
484 3 0.200657 0.453292 0.563485
3604 2 0.207738 0.452842 0.521057
481 1 0.182068 0.450143 0.578555
1218 4 0.222578 0.466327 0.564337
3606 4 0.233933 0.457561 0.517934
1216 2 0.247958 0.481322 0.559995
3572 4 0.253738 0.458377 0.519059
1217 4 0.273338 0.496316 0.555653
3571 2 0.280252 0.468582 0.515413
3573 4 0.306766 0.478788 0.511767
2136 4 0.310282 0.466548 0.526297
2134 2 0.335965 0.477594 0.5331
2135 4 0.361648 0.488641 0.539904
2991 4 0.372913 0.476903 0.536259
2989 2 0.392568 0.468023 0.539703
2990 4 0.412223 0.459142 0.543147
2843 4 0.446583 0.478223 0.571627
159 3 0.427779 0.472738 0.583526
2842 2 0.457834 0.471067 0.552216
4437 4 0.472803 0.455683 0.515395
2844 4 0.469084 0.46391 0.532806
4435 2 0.499182 0.463192 0.51105
1547 4 0.0419723 0.0218931 0.60417
37 3 0.0462964 0.0418159 0.603029
1548 4 0.0545885 0.0160292 0.651543
1546 2 0.0482804 0.0189612 0.627856
523 3 0.0589435 0.0302051 0.664183
3340 2 0.123238 0.0655392 0.657765
3341 4 0.139507 0.0634398 0.639632
1628 4 0.151897 0.0694274 0.622658
1627 2 0.173976 0.0636598 0.622843
1629 4 0.196055 0.0578921 0.623029
1650 4 0.306561 0.0731389 0.66493
1648 2 0.309794 0.0580865 0.647162
1649 4 0.313027 0.0430341 0.629393
4410 4 0.345104 0.0267437 0.590528
4409 4 0.306189 0.0401989 0.609744
4408 2 0.325647 0.0334713 0.600136
4112 4 0.420562 0.0589832 0.58733
4111 2 0.447379 0.0672602 0.58682
3774 4 0.364316 0.0237466 0.591451
3772 2 0.385295 0.0440126 0.584853
1302 4 0.372036 0.063374 0.618516
1300 2 0.382802 0.0750665 0.639728
2511 4 0.422468 0.00871294 0.634883
1136 4 0.407725 0.0777308 0.666681
4784 4 0.44434 0.0185925 0.635848
4783 2 0.469935 0.0223916 0.630432
4785 4 0.495529 0.0261906 0.625017
4113 4 0.474196 0.0755372 0.58631
761 4 0.00275148 0.152651 0.661704
477 3 0.999913 0.0904549 0.661382
1945 2 0.212161 0.152691 0.663669
1946 4 0.218933 0.134161 0.654404
1335 4 0.218964 0.118062 0.664989
839 4 0.265925 0.162313 0.611481
3389 4 0.274255 0.148228 0.608634
3388 2 0.276531 0.131901 0.591784
1040 4 0.408126 0.106411 0.588112
1512 4 0.428199 0.120462 0.583645
1301 4 0.393568 0.086759 0.66094
1668 4 0.0124287 0.172755 0.606734
363 3 0.0109358 0.210358 0.596445
3432 4 0.034338 0.222484 0.595205
3430 2 0.0610261 0.231838 0.592587
1666 2 0.038896 0.177881 0.606253
1667 4 0.0653633 0.183006 0.605772
2997 4 0.0773028 0.200086 0.614102
3431 4 0.0877142 0.241193 0.589969
2995 2 0.100044 0.209135 0.627301
1653 4 0.109032 0.250899 0.585355
2996 4 0.122785 0.218183 0.6405
1623 4 0.297748 0.22342 0.587956
840 4 0.279977 0.206062 0.587447
838 2 0.272951 0.184187 0.599464
1621 2 0.321961 0.233709 0.598505
1622 4 0.346175 0.243998 0.609053
4672 2 0.37222 0.182834 0.584052
4674 4 0.382275 0.197636 0.603744
2873 4 0.394621 0.204838 0.619283
2872 2 0.418343 0.221026 0.61153
594 3 0.374083 0.242333 0.644168
1452 4 0.427566 0.20348 0.661524
2874 4 0.442065 0.237214 0.603777
1450 2 0.445242 0.192746 0.667178
3873 4 0.0667392 0.270051 0.620026
3871 2 0.0813689 0.278454 0.640658
3872 4 0.0959986 0.286857 0.66129
1651 2 0.135675 0.257151 0.585864
1652 4 0.162317 0.263402 0.586372
2942 4 0.269501 0.29977 0.595447
520 3 0.247898 0.291187 0.588318
516 1 0.230198 0.271026 0.584391
517 3 0.230173 0.25642 0.601234
2941 2 0.295488 0.309084 0.601667
2943 4 0.321476 0.318398 0.607887
595 3 0.366761 0.256053 0.611476
3128 4 0.37674 0.281517 0.661054
2924 4 0.33763 0.327577 0.595191
592 3 0.377167 0.2782 0.641464
591 1 0.380595 0.260886 0.630251
3864 4 0.416019 0.313693 0.653248
593 3 0.40464 0.267314 0.624491
3512 4 0.425403 0.27824 0.629399
3511 2 0.450838 0.283945 0.622054
3862 2 0.411596 0.329652 0.637213
3513 4 0.476273 0.289651 0.614708
2555 4 0.487707 0.284646 0.660988
3660 4 0.494734 0.296329 0.603851
732 3 0.0377441 0.39107 0.606529
731 1 0.0411687 0.390485 0.583825
2420 4 0.153281 0.391623 0.648337
2419 2 0.163445 0.406001 0.628395
3268 2 0.227905 0.33394 0.653766
3269 4 0.238218 0.34231 0.631284
1692 4 0.235319 0.359527 0.627743
1690 2 0.257068 0.370508 0.613617
1691 4 0.278817 0.381489 0.599491
2925 4 0.388203 0.340395 0.611302
2923 2 0.362916 0.333986 0.603246
1352 4 0.480269 0.382029 0.594375
3863 4 0.407172 0.345611 0.621178
1351 2 0.474635 0.401418 0.603041
2859 4 0.0133749 0.432683 0.649049
3360 4 0.0036632 0.455636 0.59295
164 3 0.0178491 0.429779 0.630925
2421 4 0.17361 0.420379 0.608453
482 3 0.184306 0.470469 0.587699
485 3 0.183156 0.436027 0.595166
4428 4 0.188621 0.468906 0.607424
4426 2 0.192984 0.470391 0.632095
4427 4 0.197347 0.471875 0.656766
4550 4 0.212083 0.419302 0.585811
1593 4 0.221604 0.429339 0.602404
1591 2 0.24498 0.447794 0.607187
1592 4 0.268356 0.466249 0.611969
1616 4 0.342494 0.444508 0.660362
3542 4 0.344964 0.449293 0.641422
3541 2 0.359238 0.454643 0.620255
3543 4 0.373512 0.459993 0.599088
157 3 0.404292 0.436722 0.58866
160 3 0.393587 0.463652 0.60342
156 1 0.412572 0.457555 0.598413
158 3 0.424956 0.45667 0.617794
1353 4 0.469001 0.420808 0.611706
524 3 0.0523447 0.0464399 0.696021
521 1 0.0694472 0.0418688 0.683337
522 3 0.0787432 0.0288977 0.695781
525 3 0.0874697 0.061297 0.677673
3342 4 0.106969 0.0676386 0.675898
1049 4 0.0821864 0.0222553 0.714135
1048 2 0.10829 0.0259343 0.712375
1050 4 0.134394 0.0296133 0.710616
3706 2 0.243811 0.0230368 0.733109
1746 4 0.260018 0.0476614 0.709171
3708 4 0.240058 0.0343244 0.712342
1744 2 0.282126 0.0541841 0.695032
465 3 0.279067 0.0726426 0.745671
1745 4 0.304234 0.0607069 0.680894
1618 2 0.33832 0.0035431 0.707897
1619 4 0.364142 0.0129343 0.714675
325 3 0.384476 0.0238263 0.719008
1135 2 0.41245 0.0778558 0.691243
324 3 0.408978 0.0332554 0.748925
321 1 0.406117 0.0379426 0.726689
322 3 0.407062 0.0596255 0.725083
1137 4 0.417175 0.0779808 0.715805
323 3 0.42447 0.0356985 0.713895
4454 4 0.404916 0.002621 0.680102
4412 4 0.444523 0.0449636 0.709759
4411 2 0.4695 0.0498941 0.718089
4413 4 0.494477 0.0548246 0.726418
760 2 0.0280318 0.159556 0.66991
142 3 0.0624377 0.146953 0.728045
3552 4 0.0804907 0.149217 0.717322
3550 2 0.077505 0.160896 0.696539
141 1 0.0579961 0.139335 0.7497
762 4 0.053312 0.166462 0.678116
3456 4 0.0931304 0.142306 0.728646
3454 2 0.119923 0.150209 0.727919
3455 4 0.146716 0.158112 0.727192
2666 4 0.210097 0.085382 0.724184
1333 2 0.2157 0.102059 0.683969
1334 4 0.212435 0.0860569 0.702949
2665 2 0.233274 0.0962187 0.736375
3398 4 0.309904 0.157699 0.740539
3397 2 0.294476 0.133855 0.744904
2525 4 0.317044 0.160814 0.72179
2667 4 0.256451 0.107055 0.748567
3399 4 0.279048 0.11001 0.74927
3693 4 0.371196 0.0967403 0.737725
3239 4 0.403781 0.162662 0.679471
527 3 0.389591 0.0926613 0.734326
529 3 0.410675 0.12759 0.746028
528 3 0.419329 0.115187 0.712733
526 1 0.411989 0.109259 0.734596
3741 4 0.431299 0.124873 0.69731
3739 2 0.449832 0.145954 0.68868
530 3 0.427681 0.10154 0.745049
1369 2 0.469215 0.109468 0.744229
1371 4 0.493781 0.120575 0.734617
3367 2 0.00134283 0.196567 0.676764
3368 4 0.0236766 0.192252 0.671308
3506 4 0.0393787 0.21141 0.674852
3505 2 0.0597489 0.231059 0.683664
3551 4 0.0745193 0.172576 0.675757
1492 2 0.179443 0.173449 0.705849
1494 4 0.158255 0.174822 0.718154
1390 2 0.16844 0.243416 0.737805
1493 4 0.20063 0.172076 0.693544
1947 4 0.205389 0.171222 0.672933
2918 4 0.281255 0.183708 0.745313
2917 2 0.307067 0.197318 0.749732
2524 2 0.331791 0.171927 0.701958
3170 4 0.352671 0.214579 0.745684
2526 4 0.346537 0.18304 0.682126
3240 4 0.364013 0.179891 0.686017
3081 4 0.394875 0.176682 0.737505
3238 2 0.383897 0.171276 0.682744
3079 2 0.416836 0.191393 0.74957
2556 4 0.46803 0.238187 0.679422
1451 4 0.462918 0.182012 0.672831
3740 4 0.468365 0.167034 0.68005
695 3 0.0225278 0.256776 0.734263
1177 2 0.0182974 0.317174 0.683565
1179 4 0.01977 0.294932 0.688808
1701 4 0.0285945 0.290073 0.705138
1699 2 0.0510938 0.285594 0.709294
4032 4 0.0120219 0.255772 0.717867
2414 4 0.115732 0.294716 0.668664
3507 4 0.0801192 0.250709 0.692475
1700 4 0.0735932 0.281116 0.713449
2415 4 0.094013 0.281985 0.714028
2413 2 0.104872 0.288351 0.691346
1391 4 0.184451 0.251119 0.717888
3270 4 0.217593 0.325571 0.676249
3695 4 0.205231 0.256569 0.725171
3694 2 0.225367 0.262274 0.708684
3696 4 0.245503 0.26798 0.692196
1514 4 0.264774 0.282932 0.694101