ITEM: TIMESTEP
178500
ITEM: NUMBER OF ATOMS
4590
ITEM: BOX BOUNDS xy xz yz pp pp pp
-1.8597340200000005e+01 9.9985700000000008e+00 -8.5987702000000041e+00
-9.9985700000000008e+00 9.9985700000000008e+00 0.0000000000000000e+00
-9.9985700000000008e+00 9.9985700000000008e+00 0.0000000000000000e+00
ITEM: ATOMS id type xs ys zs
3557 4 0.0677259 0.0593817 0.0543083
3556 2 0.0606726 0.0521075 0.0307105
3558 4 0.0536194 0.0448332 0.00711271
4155 4 0.0870395 0.0736503 0.0605819
3291 4 0.167992 0.0743568 0.00546178
2521 2 0.176463 0.0809668 0.069739
2522 4 0.195871 0.0719569 0.0711266
114 3 0.274033 0.0837733 0.0491007
785 4 0.356044 0.0330241 0.000438852
448 2 0.320705 0.087364 0.00877722
1149 4 0.366974 0.0406329 0.0184186
1147 2 0.384382 0.061209 0.0297561
2745 4 0.42944 0.0660612 0.0640548
1086 4 0.424921 0.0627696 0.0456435
532 2 0.39315 0.00183472 0.0417172
1084 2 0.446695 0.0751477 0.0314543
533 4 0.411677 0.00163668 0.0584122
2743 2 0.408261 0.0528022 0.0785398
2744 4 0.387081 0.0395431 0.0930248
2 3 0.00673679 0.231737 0.419053
4153 2 0.114242 0.0835038 0.0597471
4351 2 0.213509 0.0853433 0.00752898
2523 4 0.157055 0.0899767 0.0683515
4154 4 0.141444 0.0933574 0.0589123
1826 4 0.169485 0.113278 0.0151179
1825 2 0.163204 0.130759 0.00375119
4352 4 0.238111 0.0856311 0.0126198
115 3 0.258145 0.0867519 0.0157244
112 3 0.272954 0.11643 0.0382613
111 1 0.275841 0.0975966 0.0309291
113 3 0.298602 0.10395 0.0210874
450 4 0.321544 0.109197 0.0174605
3983 4 0.3456 0.117175 0.0228365
3982 2 0.370843 0.134549 0.0200986
3984 4 0.396086 0.151922 0.0173606
2669 4 0.416627 0.158118 0.0116267
2591 4 0.406815 0.167179 0.0787183
1633 2 0.393242 0.097018 0.0799484
1148 4 0.401789 0.081785 0.0410936
1634 4 0.40036 0.0887004 0.0589337
2668 2 0.442675 0.166498 0.00447126
1085 4 0.468468 0.0875258 0.0172651
2162 4 0.157319 0.189226 0.0403531
2161 2 0.164651 0.193989 0.0163828
836 4 0.198983 0.246698 0.0430984
1007 4 0.208655 0.190477 0.0558843
835 2 0.225975 0.255565 0.0400577
1006 2 0.209405 0.18985 0.0808593
2501 4 0.265403 0.181465 0.0594108
2500 2 0.281898 0.196772 0.0765169
2634 4 0.334616 0.179827 0.00867032
2502 4 0.298392 0.21208 0.093623
2620 2 0.326431 0.245916 0.0225629
2633 4 0.303857 0.199072 0.0332992
2622 4 0.335785 0.238354 0.0427889
2632 2 0.319236 0.189449 0.0209848
2621 4 0.317077 0.253478 0.00233693
4077 4 0.361429 0.191542 0.0614136
4075 2 0.382396 0.184531 0.0623765
4076 4 0.403362 0.17752 0.0633395
395 4 0.48861 0.176076 0.00148301
2773 2 0.495455 0.17491 0.0786473
2590 2 0.431613 0.166722 0.079217
394 2 0.49745 0.175665 0.0248003
3284 4 0.0187265 0.321578 0.0537489
3283 2 0.0419416 0.32548 0.0416615
2827 2 0.0151781 0.262149 0.0540721
2828 4 0.0412536 0.267292 0.0486646
2786 4 0.0593959 0.282646 0.0562045
3285 4 0.0651568 0.329382 0.0295742
2785 2 0.0802555 0.286692 0.0406083
2787 4 0.101115 0.290738 0.025012
2934 4 0.119978 0.28982 0.0308335
2932 2 0.139895 0.282413 0.0247823
2933 4 0.159812 0.275005 0.0187311
3089 4 0.179929 0.279427 0.0131128
3088 2 0.206659 0.291868 0.009467
3090 4 0.233389 0.304309 0.00582118
837 4 0.252968 0.264431 0.037017
781 2 0.295869 0.28291 0.0501438
783 4 0.274041 0.269926 0.0362618
782 4 0.317697 0.295894 0.0640258
1290 4 0.338956 0.303019 0.068691
1288 2 0.364393 0.304999 0.0727895
1289 4 0.38983 0.306978 0.0768881
3921 4 0.0172914 0.363052 0.0070185
3919 2 0.0436851 0.367023 0.00713047
560 4 0.0838091 0.402274 0.0612607
3920 4 0.0700787 0.370995 0.00724243
160 3 0.0901263 0.369379 0.00636161
157 3 0.076479 0.347815 0.0365071
559 2 0.108558 0.409043 0.0713827
156 1 0.0964665 0.364147 0.0267938
158 3 0.10445 0.382902 0.0404555
159 3 0.114675 0.356138 0.0244638
2967 4 0.364964 0.384955 0.0262904
2966 4 0.384103 0.395602 0.0729308
2965 2 0.374534 0.390279 0.0496106
2540 4 0.365579 0.379634 0.00568439
483 4 0.0390138 0.427905 0.0671216
482 4 0.0841815 0.419671 0.059352
481 2 0.0615977 0.423788 0.0632368
386 4 0.114849 0.482637 0.0765722
1727 4 0.13104 0.484209 0.0641029
1726 2 0.155898 0.48522 0.0588461
561 4 0.133307 0.415811 0.0815047
1728 4 0.180757 0.48623 0.0535893
4088 4 0.186307 0.466107 0.00448024
3491 4 0.150791 0.433863 0.0774048
4547 4 0.206188 0.467433 0.00971322
4546 2 0.228603 0.472863 0.0235869
3490 2 0.166444 0.424574 0.0897679
4548 4 0.251018 0.478292 0.0374607
1620 4 0.272096 0.486454 0.0421956
1618 2 0.282894 0.486524 0.0647618
1619 4 0.293691 0.486593 0.087328
854 4 0.322943 0.442761 0.0644336
853 2 0.345245 0.442018 0.0538098
855 4 0.367548 0.441275 0.043186
4026 4 0.0109131 0.0411119 0.139649
3545 4 0.0188744 0.0398337 0.121617
3544 2 0.0149545 0.0232342 0.103197
3546 4 0.0110346 0.00663475 0.0847776
2481 4 0.0807793 0.062759 0.148263
2479 2 0.10279 0.0595797 0.156543
2480 4 0.1248 0.0564004 0.164824
1231 2 0.222966 0.0637279 0.0997539
1233 4 0.235205 0.0800773 0.11794
1232 4 0.210727 0.0473785 0.0815674
995 4 0.268201 0.0169694 0.116275
2330 4 0.247672 0.0169275 0.121846
994 2 0.293314 0.0349174 0.116963
996 4 0.318427 0.0528655 0.117651
3510 4 0.326354 0.0726367 0.148511
33 3 0.339181 0.0624928 0.11245
31 1 0.355572 0.0803897 0.124387
2467 2 0.357976 0.023535 0.108811
2469 4 0.368602 0.0247286 0.0859749
35 3 0.372345 0.0742373 0.13457
2468 4 0.34735 0.0223415 0.131647
522 4 0.472199 0.0352634 0.116936
520 2 0.47869 0.0185237 0.129488
3588 4 0.021041 0.105136 0.13049
3586 2 0.048123 0.117082 0.129547
3587 4 0.0752049 0.129029 0.128604
2607 4 0.0939842 0.137907 0.116219
2605 2 0.119459 0.139623 0.113007
2606 4 0.144934 0.141339 0.109795
252 4 0.204242 0.141571 0.153971
250 2 0.204107 0.158044 0.136602
2945 4 0.215082 0.138889 0.169706
32 3 0.343066 0.0867718 0.140382
3214 2 0.3848 0.157251 0.150579
34 3 0.367129 0.0982902 0.110137
1635 4 0.386123 0.105336 0.100963
3215 4 0.402372 0.158697 0.132254
3216 4 0.367229 0.155805 0.168904
359 4 0.392774 0.0900954 0.139241
358 2 0.416271 0.0901756 0.130599
360 4 0.439768 0.0902559 0.121957
578 4 0.460103 0.102578 0.116445
577 2 0.485597 0.107598 0.109001
2814 4 0.418255 0.41844 0.479003
356 4 0.15982 0.222937 0.166587
1008 4 0.210155 0.189223 0.105834
251 4 0.203972 0.174518 0.119233
524 4 0.400634 0.250798 0.138801
523 2 0.421309 0.243384 0.137923
525 4 0.441983 0.23597 0.137044
2592 4 0.456411 0.166265 0.0797156
307 2 0.480376 0.2489 0.125714
2775 4 0.472964 0.167984 0.0926644
554 4 0.0148018 0.245843 0.106713
553 2 0.041824 0.258089 0.105339
555 4 0.0688461 0.270335 0.103965
2610 4 0.29325 0.320473 0.134249
2528 4 0.309641 0.317512 0.124879
2527 2 0.330954 0.31663 0.137283
2529 4 0.352266 0.315748 0.149688
2897 4 0.354245 0.309701 0.169551
639 4 0.407056 0.302782 0.0800102
637 2 0.424203 0.297855 0.0951669
638 4 0.441351 0.292929 0.110324
1094 4 0.462565 0.29946 0.109396
309 4 0.459291 0.254146 0.132982
1093 2 0.488651 0.30239 0.109879
2616 4 0.03042 0.338628 0.158285
2614 2 0.0571952 0.349424 0.162617
2615 4 0.0839704 0.36022 0.166949
3817 2 0.125999 0.385233 0.16658
104 3 0.169714 0.394036 0.151059
3818 4 0.151395 0.397124 0.158072
105 3 0.18261 0.417535 0.121773
103 3 0.16925 0.380421 0.115988
101 1 0.181507 0.39785 0.130546
102 3 0.204758 0.398967 0.133613
2475 4 0.222202 0.415326 0.130398
2609 4 0.281903 0.347563 0.099064
2608 2 0.287577 0.334018 0.116657
1512 4 0.481376 0.358239 0.153361
738 4 0.101495 0.474719 0.133872
736 2 0.0890428 0.451021 0.141521
387 4 0.103248 0.492255 0.123054
385 2 0.109048 0.487446 0.099813
737 4 0.0765904 0.427324 0.14917
3492 4 0.182098 0.415285 0.102131
334 2 0.24563 0.471627 0.118377
335 4 0.247386 0.478694 0.142326
2473 2 0.248434 0.418986 0.128456
336 4 0.243875 0.464559 0.0944274
2474 4 0.274665 0.422645 0.126514
609 4 0.312175 0.484231 0.0858168
607 2 0.336844 0.487716 0.0945453
608 4 0.361512 0.491201 0.103274
1592 4 0.469723 0.486411 0.0975558
1591 2 0.461022 0.480157 0.121006
1593 4 0.45232 0.473904 0.144457
2889 4 0.44696 0.454711 0.14571
1572 4 0.104785 0.0175662 0.201071
2756 4 0.248004 0.0657838 0.194156
2755 2 0.237943 0.0440169 0.181872
2757 4 0.227882 0.02225 0.169588
3062 4 0.265293 0.0817913 0.185557
3554 4 0.27514 0.0817044 0.247507
1070 4 0.298406 0.0215579 0.193712
1069 2 0.275199 0.00613117 0.183103
3509 4 0.303341 0.0404972 0.185703
3508 2 0.314848 0.0565669 0.167107
545 4 0.424985 0.0551746 0.23231
1850 4 0.441572 0.0626829 0.245519
544 2 0.437902 0.052242 0.211925
546 4 0.450819 0.0493095 0.19154
350 4 0.088513 0.145936 0.233026
349 2 0.0959465 0.141016 0.210448
351 4 0.10338 0.136096 0.18787
2939 4 0.123176 0.134346 0.187786
2938 2 0.1496 0.146874 0.192854
2940 4 0.176024 0.159402 0.197922
2798 4 0.19603 0.100086 0.212696
2944 2 0.225432 0.135542 0.1915
2797 2 0.209908 0.0988423 0.23309
2946 4 0.235783 0.132195 0.213293
2453 4 0.255705 0.143145 0.218936
2452 2 0.279004 0.15055 0.231809
3061 2 0.274049 0.088624 0.208894
3063 4 0.282805 0.0954566 0.232232
659 4 0.324162 0.151675 0.211456
658 2 0.340494 0.160664 0.191734
660 4 0.356826 0.169654 0.172012
511 2 0.0110969 0.219952 0.188409
512 4 0.0373713 0.225878 0.193618
735 4 0.0537375 0.242372 0.202446
733 2 0.0802395 0.256658 0.205017
2463 4 0.0957641 0.18351 0.247713
355 2 0.141349 0.199391 0.167649
357 4 0.122877 0.175846 0.168712
2462 4 0.149397 0.206195 0.239913
2461 2 0.122581 0.194852 0.243813
473 4 0.171162 0.214646 0.239246
472 2 0.193545 0.221413 0.225096
1104 4 0.235087 0.241804 0.215957
474 4 0.215927 0.22818 0.210947
1102 2 0.25879 0.239414 0.213155
641 4 0.299428 0.233622 0.217278
1103 4 0.282493 0.237025 0.210352
2454 4 0.302303 0.157954 0.244683
640 2 0.324542 0.233897 0.217808
642 4 0.349657 0.234172 0.218337
761 4 0.365532 0.227543 0.21524
760 2 0.386337 0.225323 0.203125
762 4 0.407142 0.223104 0.191009
933 4 0.426391 0.238654 0.19268
931 2 0.451057 0.24116 0.184778
932 4 0.475724 0.243666 0.176875
2573 4 0.00258314 0.300934 0.240868
3807 4 0.109227 0.31164 0.246823
734 4 0.106742 0.270944 0.207588
2459 4 0.126312 0.270056 0.205428
2458 2 0.15317 0.281286 0.201711
2460 4 0.180027 0.292516 0.197994
2717 4 0.197982 0.291463 0.203577
2716 2 0.221844 0.299019 0.215545
2718 4 0.245705 0.306575 0.227513
3107 4 0.265518 0.312516 0.223862
3106 2 0.287989 0.310942 0.233181
3108 4 0.310461 0.309368 0.2425
2896 2 0.381194 0.320721 0.172781
2898 4 0.408143 0.33174 0.176011
1453 2 0.999375 0.372681 0.185937
3150 4 0.0194541 0.330993 0.175252
1454 4 0.0155018 0.360438 0.181728
3819 4 0.100602 0.373343 0.175088
494 4 0.209134 0.413183 0.240623
2690 4 0.276685 0.373071 0.227614
2689 2 0.295268 0.373718 0.210593
3900 4 0.277954 0.384253 0.242381
2691 4 0.31385 0.374364 0.193572
327 4 0.317527 0.366763 0.176227
325 2 0.327484 0.349814 0.18259
326 4 0.337441 0.332865 0.188954
621 4 0.419971 0.340603 0.193627
620 4 0.466893 0.353335 0.168713
619 2 0.443432 0.346969 0.18117
2812 2 0.414786 0.416635 0.45421
1776 4 0.0173672 0.479027 0.219089
1774 2 0.0394524 0.499493 0.224554
1791 4 0.311169 0.488756 0.236352
3348 4 0.312157 0.421452 0.175752
3346 2 0.307377 0.430616 0.197319
270 4 0.317011 0.447971 0.233943
1789 2 0.32017 0.488888 0.213004
3347 4 0.302596 0.439781 0.218885
755 4 0.328617 0.490086 0.170652
1790 4 0.329171 0.489019 0.189655
2887 2 0.457308 0.442153 0.160525
3883 2 0.462486 0.468954 0.239994
3885 4 0.436864 0.452098 0.241855
2919 4 0.461184 0.411639 0.186967
2888 4 0.467656 0.429596 0.17534
2917 2 0.486942 0.413997 0.189684
3884 4 0.488108 0.48581 0.238133
2553 4 0.0743067 0.0134754 0.292047
725 4 0.234192 0.0171665 0.309353
2339 4 0.242448 0.0220132 0.328405
724 2 0.224185 0.0052283 0.287931
3553 2 0.263399 0.0668129 0.26687
3555 4 0.251657 0.0519214 0.286233
1849 2 0.463496 0.0731714 0.260078
1851 4 0.48542 0.0836599 0.274636
2490 4 0.137691 0.0933889 0.286148
2799 4 0.223785 0.0975982 0.253483
2488 2 0.159631 0.103872 0.300688
2489 4 0.181571 0.114355 0.315228
580 2 0.22042 0.135634 0.312957
581 4 0.194829 0.131248 0.306322
2533 2 0.254383 0.122433 0.278132
2708 4 0.267042 0.146114 0.314715
2535 4 0.230227 0.112269 0.266713
582 4 0.246011 0.140019 0.319592
2534 4 0.27854 0.132596 0.289551
2707 2 0.291567 0.163173 0.320936
2845 2 0.45985 0.120268 0.273652
2846 4 0.441347 0.129403 0.26744
2847 4 0.478353 0.111133 0.279863
17 3 0.499585 0.115447 0.278807
1865 4 0.0126328 0.175498 0.270611
526 2 0.055219 0.184799 0.262508
528 4 0.0334913 0.184558 0.275059
527 4 0.0769466 0.18504 0.249958
2838 4 0.20793 0.172882 0.251431
2836 2 0.211247 0.19259 0.26593
2837 4 0.214564 0.212297 0.280428
3201 4 0.33103 0.173052 0.318154
2709 4 0.316092 0.180232 0.327158
3199 2 0.357938 0.182406 0.314422
2675 4 0.409353 0.166763 0.280796
255 4 0.400416 0.192267 0.322867
2650 2 0.401997 0.241611 0.323439
3200 4 0.384846 0.19176 0.310691
2652 4 0.425126 0.252589 0.310563
253 2 0.424088 0.195906 0.333967
1061 4 0.475023 0.171314 0.283311
2676 4 0.45665 0.163968 0.292658
2674 2 0.433002 0.165365 0.286727
254 4 0.447761 0.199546 0.345066
1220 4 0.119362 0.295438 0.323502
3805 2 0.0979713 0.303742 0.269207
3806 4 0.0867157 0.295843 0.291591
384 4 0.136748 0.298518 0.336973
3235 2 0.482271 0.320843 0.331444
2601 4 0.443228 0.249511 0.308327
2599 2 0.470064 0.258111 0.312311
3236 4 0.485844 0.336623 0.312317
110 3 0.0103058 0.347736 0.319842
597 4 0.0311979 0.353356 0.311754
596 4 0.0537029 0.388214 0.276694
595 2 0.0424504 0.370785 0.294224
2537 4 0.203244 0.423182 0.253495
3058 2 0.262149 0.386053 0.321498
3898 2 0.27833 0.384112 0.26738
3899 4 0.278706 0.38397 0.292379
3059 4 0.284542 0.39676 0.307566
2536 2 0.177657 0.417807 0.260877
2538 4 0.152069 0.412432 0.268259
493 2 0.233954 0.417511 0.249531
3564 4 0.318804 0.496865 0.254414
495 4 0.258773 0.421839 0.258439
269 4 0.277453 0.428476 0.267837
594 4 0.363502 0.491679 0.284129
268 2 0.297232 0.438224 0.25089
592 2 0.378518 0.483296 0.298557
3562 2 0.337169 0.501162 0.272687
127 3 0.415547 0.484169 0.315137
593 4 0.393533 0.474913 0.312985
3626 4 0.453184 0.427515 0.318894
3625 2 0.45051 0.448183 0.326915
3383 4 0.0582445 0.0231107 0.394893
3382 2 0.0321053 0.00818235 0.398561
2646 4 0.105322 0.0736048 0.347865
2644 2 0.128687 0.0770451 0.359456
2931 4 0.148049 0.0684914 0.386862
427 2 0.170791 0.00111735 0.376661
2930 4 0.194884 0.0623142 0.383242
2929 2 0.171466 0.0654028 0.385052
2645 4 0.152053 0.0804854 0.371046
428 4 0.192443 0.00425396 0.362409
2340 4 0.201464 0.0233307 0.356199
1602 4 0.247583 0.0213568 0.402136
2338 2 0.221956 0.022672 0.342302
1216 2 0.492313 0.0271436 0.381254
1218 4 0.466135 0.0126104 0.377152
258 4 0.444455 0.00435129 0.372671
402 4 0.00643066 0.15378 0.377869
1743 4 0.101323 0.16432 0.426097
514 2 0.200226 0.147155 0.408357
516 4 0.226031 0.159863 0.401292
3774 4 0.309275 0.105226 0.3873
3772 2 0.327687 0.118408 0.370299
1126 2 0.377169 0.166048 0.366431
1128 4 0.352706 0.150166 0.358557
3773 4 0.346099 0.131591 0.353299
3 3 0.0193337 0.206833 0.403264
570 4 0.0638209 0.238223 0.349676
569 4 0.0353534 0.210822 0.388037
568 2 0.0495871 0.224523 0.368857
1221 4 0.0840144 0.255209 0.347095
1741 2 0.1271 0.169806 0.419265
1742 4 0.152877 0.175291 0.412432
312 4 0.243415 0.17126 0.390684
310 2 0.268345 0.180716 0.380659
311 4 0.293274 0.190171 0.370634
3268 2 0.339492 0.205199 0.357578
3270 4 0.315287 0.195233 0.36894
3269 4 0.363696 0.215166 0.346217
2651 4 0.378868 0.230632 0.336316
872 4 0.403807 0.198545 0.384835
1127 4 0.401632 0.181931 0.374305
871 2 0.419757 0.211461 0.403551
2678 4 0.467647 0.199075 0.344912
1219 2 0.101688 0.275323 0.335298
383 4 0.190829 0.316279 0.342283
382 2 0.163788 0.307398 0.339628
2655 4 0.210511 0.327741 0.351582
3275 4 0.313118 0.298027 0.429958
445 2 0.335182 0.275565 0.414115
447 4 0.316287 0.284881 0.41785
676 2 0.366478 0.272418 0.368345
677 4 0.380109 0.275804 0.34677
446 4 0.354076 0.266249 0.41038
678 4 0.352846 0.269033 0.38992
3237 4 0.478697 0.305064 0.350572
3166 2 0.0149308 0.377898 0.397234
3168 4 0.0415473 0.383865 0.393896
118 3 0.0835958 0.419079 0.341218
2515 2 0.14301 0.348487 0.360133
2517 4 0.119424 0.330183 0.366707
2658 4 0.18033 0.382441 0.34468
2516 4 0.166595 0.366791 0.353559
3060 4 0.239756 0.375346 0.33543
2657 4 0.219834 0.365241 0.342387
2656 2 0.200082 0.373841 0.343533
2653 2 0.237346 0.338721 0.355534
722 4 0.284848 0.350948 0.365687
2654 4 0.264181 0.349702 0.359486
723 4 0.337708 0.360326 0.360341
721 2 0.311278 0.355637 0.363014
2586 4 0.359488 0.369298 0.358205
2585 4 0.412028 0.376503 0.360274
2584 2 0.385758 0.372901 0.359239
1758 4 0.433292 0.377459 0.358056
1756 2 0.460501 0.386964 0.358522
345 4 0.484298 0.366886 0.399462
1757 4 0.487711 0.39647 0.358988
3960 4 0.0593296 0.489678 0.363796
3958 2 0.0337962 0.485492 0.357134
3959 4 0.00826276 0.481306 0.350472
120 3 0.0804381 0.451239 0.350958
116 1 0.0741785 0.429419 0.356687
378 4 0.0788812 0.430047 0.396157
117 3 0.0836362 0.428373 0.377421
119 3 0.0490324 0.418465 0.357577
376 2 0.0701858 0.438721 0.416045
667 2 0.190555 0.450936 0.375852
669 4 0.165043 0.449597 0.374601
668 4 0.216067 0.452276 0.377103
1401 4 0.271792 0.487798 0.345169
1863 4 0.281542 0.492293 0.327936
1399 2 0.253472 0.477234 0.363163
1400 4 0.235152 0.46667 0.381157
1556 4 0.373588 0.490857 0.405335
1697 4 0.31206 0.420711 0.343151
1555 2 0.354275 0.48544 0.387802
1696 2 0.321113 0.440891 0.357909
1698 4 0.330166 0.461071 0.372667
1557 4 0.334962 0.480023 0.370269
3770 4 0.368381 0.43158 0.387417
3627 4 0.447837 0.468852 0.334937
128 3 0.426607 0.463098 0.338882
130 3 0.411792 0.487665 0.35192
3771 4 0.40398 0.471794 0.363999
3769 2 0.38618 0.451687 0.375708
774 4 0.426478 0.49019 0.40772
126 1 0.425702 0.483872 0.335711
772 2 0.402289 0.488668 0.416024
2507 4 0.460184 0.4881 0.33768
1375 2 0.175599 0.00324164 0.451554
1377 4 0.200418 0.0173025 0.44289
1600 2 0.233843 0.0265205 0.420677
1601 4 0.220102 0.0316842 0.439217
1517 4 0.008321 0.085522 0.432304
3308 4 0.0353164 0.160718 0.430903
267 4 0.0152181 0.15928 0.430546
2504 4 0.0304072 0.0919344 0.44007
2503 2 0.0572753 0.0991395 0.442945
2642 4 0.105863 0.117054 0.443898
2505 4 0.0841433 0.106345 0.44582
2641 2 0.130882 0.122327 0.434967
2643 4 0.1559 0.1276 0.426035
515 4 0.17442 0.134447 0.415423
3094 2 0.313863 0.107904 0.492655
3096 4 0.325405 0.0926584 0.484581
4002 4 0.35524 0.159409 0.460745
2735 4 0.386052 0.132133 0.492381
1033 2 0.353347 0.081893 0.461646
4001 4 0.378453 0.128001 0.473627
4000 2 0.366846 0.143705 0.467186
1034 4 0.330766 0.0855959 0.466853
398 4 0.391398 0.0971838 0.448538
1035 4 0.375928 0.0781901 0.45644
399 4 0.437577 0.135564 0.460667
397 2 0.414487 0.116374 0.454602
2813 4 0.411317 0.414831 0.429417
2850 4 0.398669 0.41281 0.487888
1 1 0.00983133 0.212136 0.422538
4 3 0.0258166 0.215123 0.44024
3307 2 0.0604904 0.164539 0.423361
3309 4 0.0856644 0.168361 0.415819
873 4 0.435706 0.224378 0.422267
3248 4 0.357087 0.162782 0.481332
4224 4 0.437052 0.211563 0.480768
4222 2 0.427571 0.214449 0.458365
4223 4 0.418091 0.217334 0.435962
2809 2 0.487823 0.181479 0.422953
2810 4 0.471312 0.191282 0.412978
3499 2 0.116105 0.302175 0.495678
4308 4 0.0997974 0.290383 0.453137
3500 4 0.107874 0.293821 0.472572
4306 2 0.11965 0.283917 0.444704
4307 4 0.139502 0.27745 0.436271
1810 2 0.179608 0.289814 0.447491
1811 4 0.154156 0.272586 0.445821
2446 2 0.240764 0.314043 0.428109
1812 4 0.205061 0.307043 0.449161
2448 4 0.217191 0.316158 0.432724
3276 4 0.262449 0.295974 0.434184
2447 4 0.264337 0.311927 0.423494
3274 2 0.287784 0.297001 0.432071
946 2 0.380507 0.275325 0.495757
3192 4 0.41136 0.301081 0.50185
256 2 0.419884 0.000894515 0.36371
3190 2 0.437633 0.312824 0.495781
3191 4 0.463907 0.324568 0.489712
502 2 0.311081 0.421891 0.490645
503 4 0.288473 0.403097 0.498452
2848 2 0.374148 0.411892 0.494387
291 4 0.484809 0.33525 0.488902
344 4 0.48772 0.385622 0.445594
343 2 0.486009 0.376254 0.422528
377 4 0.0614903 0.447395 0.435934
504 4 0.33369 0.440685 0.482838
1324 2 0.0192143 0.48102 0.457579
1325 4 0.0448366 0.496066 0.451923
2384 4 0.173789 0.497867 0.470976
773 4 0.378099 0.487147 0.424328
1060 2 0.498934 0.186171 0.273441
2600 4 0.4969 0.266712 0.316295
2677 2 0.493999 0.207189 0.350964
107 3 0.000594986 0.360635 0.351365
1656 4 0.488478 0.497335 0.0873906
521 4 0.485182 0.00178395 0.14204
1570 2 0.100208 0.999217 0.217729
947 4 0.354652 0.268426 0.48843
843 4 0.271149 0.405707 0.497619
4353 4 0.188908 0.0850555 0.00243813
2771 4 0.250527 0.302724 0.99692
750 4 0.134505 0.369498 0.986352
2964 4 0.016556 0.0647815 0.564085
3395 4 0.0261056 0.0521169 0.558136
3394 2 0.0130534 0.0277513 0.563122
884 4 0.227139 0.456517 0.960381
2832 4 0.111329 0.0776927 0.520274
2830 2 0.131507 0.0808335 0.536426
2262 4 0.379692 0.00341294 0.541568
320 4 0.450783 0.0535399 0.583695
319 2 0.472183 0.0475183 0.580032
305 4 0.0186349 0.111716 0.55824
304 2 0.0392328 0.114953 0.573919
2006 4 0.276096 0.501294 0.981
2831 4 0.151684 0.0839742 0.552577
952 2 0.171879 0.114248 0.573657
953 4 0.171085 0.0984115 0.555266
3456 4 0.288504 0.162212 0.573445
3454 2 0.303884 0.164333 0.553163
3095 4 0.30232 0.123149 0.50073
3455 4 0.319263 0.166455 0.532881
2734 2 0.38696 0.129223 0.51712
2736 4 0.387867 0.126313 0.54186
2603 4 0.405522 0.124582 0.549641
390 4 0.467938 0.0870651 0.550466
2602 2 0.430681 0.130641 0.558573
2604 4 0.455841 0.1367 0.567505
388 2 0.480101 0.110989 0.543443
389 4 0.492263 0.134912 0.53642
910 2 0.0111696 0.18281 0.575749
911 4 0.035885 0.191292 0.565291
1701 4 0.0510767 0.192453 0.552258
1699 2 0.0778116 0.19785 0.55233
1700 4 0.104546 0.203247 0.552402
2132 4 0.123221 0.217011 0.560966
2131 2 0.149537 0.231341 0.564664
2133 4 0.175852 0.24567 0.568362
3249 4 0.336495 0.177119 0.521072
3247 2 0.346791 0.16995 0.501202
1143 4 0.490364 0.227589 0.509001
3322 2 0.0196327 0.291307 0.534918
3324 4 0.0444204 0.29167 0.539201
3501 4 0.124337 0.310529 0.518784
3474 4 0.129923 0.324847 0.533374
3472 2 0.155159 0.327284 0.539218
3473 4 0.180396 0.329721 0.545063
3414 4 0.19691 0.332336 0.532935
944 4 0.145088 0.270616 0.587427
4434 4 0.188956 0.263015 0.56159
4432 2 0.215199 0.26661 0.563104
3412 2 0.222319 0.33365 0.535428
4433 4 0.241443 0.270205 0.564618
3793 2 0.115314 0.998215 0.934819
3026 4 0.109277 0.345991 0.545458
3025 2 0.113172 0.369359 0.55188
3027 4 0.117067 0.392727 0.558302
842 4 0.217945 0.39089 0.506992
841 2 0.244547 0.398299 0.502306
3413 4 0.247728 0.334963 0.53792
56 1 0.204668 0.495927 0.941411
2990 4 0.285363 0.356205 0.546883
2989 2 0.299715 0.36137 0.525638
2991 4 0.314066 0.366536 0.504393
2849 4 0.349627 0.410974 0.500886
276 4 0.355304 0.34175 0.563536
274 2 0.331815 0.335979 0.575808
281 4 0.00180652 0.426094 0.988752
992 4 0.101164 0.478376 0.527695
2699 4 0.0874761 0.460364 0.535758
2698 2 0.0792292 0.452204 0.558913
2700 4 0.0709822 0.444044 0.582068
2156 4 0.239615 0.500463 0.541012
1139 4 0.30981 0.433758 0.572608
1138 2 0.332599 0.431658 0.564896
1140 4 0.355387 0.429558 0.557184
1251 4 0.369573 0.427751 0.569546
1249 2 0.393465 0.446963 0.566119
1250 4 0.417358 0.466174 0.562692
3498 4 0.438563 0.472732 0.570338
3496 2 0.464617 0.48883 0.570489
4440 4 0.0252077 0.0793684 0.657953
3293 4 0.0123997 0.0605259 0.664189
1998 4 0.176768 0.00356214 0.605099
1130 4 0.194122 0.0193098 0.604395
2204 4 0.238606 0.0491184 0.625919
1129 2 0.214491 0.011511 0.60314
2203 2 0.239967 0.0697065 0.61387
1131 4 0.234861 0.0037122 0.601884
1283 4 0.254515 0.00420868 0.596676
1282 2 0.280719 0.0186816 0.600743
1284 4 0.306922 0.0331545 0.60481
316 2 0.320362 0.0661122 0.63014
318 4 0.319284 0.0447799 0.619914
1182 4 0.43239 0.0770477 0.63216
321 4 0.493583 0.0414966 0.57637
1192 2 0.0138954 0.131377 0.629557
1193 4 0.0383784 0.144358 0.619585
2354 4 0.0569146 0.160005 0.620735
306 4 0.0598307 0.11819 0.589598
3825 4 0.0763308 0.131128 0.60001
3823 2 0.0994301 0.136949 0.612937
3824 4 0.122529 0.142769 0.625863
46 1 0.158247 0.146066 0.610148
49 3 0.140401 0.13852 0.626527
50 3 0.153455 0.130473 0.59366
48 3 0.180906 0.15034 0.619456
954 4 0.172674 0.130084 0.592047
3008 4 0.185598 0.136787 0.608407
3007 2 0.211628 0.140672 0.612496
3009 4 0.237658 0.144558 0.616584
2588 4 0.256167 0.160343 0.612043
3014 4 0.277766 0.152048 0.591145
3015 4 0.261024 0.103192 0.60092
2205 4 0.241328 0.0902946 0.601822
3013 2 0.269395 0.12762 0.596032
346 2 0.321117 0.133424 0.655576
347 4 0.337207 0.146444 0.636986
317 4 0.32144 0.0874445 0.640367
1180 2 0.426376 0.0816476 0.608919
1181 4 0.420361 0.0862476 0.585679
2135 4 0.429967 0.0902348 0.646253
2134 2 0.426653 0.101371 0.667122
823 2 0.0102168 0.193522 0.66675
824 4 0.0356404 0.204602 0.658054
1230 4 0.0558787 0.218577 0.659333
1228 2 0.081664 0.232921 0.653451
2353 2 0.0760195 0.17928 0.609044
1229 4 0.107449 0.247264 0.647569
2355 4 0.0951245 0.198554 0.597353
1145 4 0.115086 0.201097 0.598207
1144 2 0.132928 0.190547 0.601821
1212 4 0.126256 0.254875 0.637778
47 3 0.158341 0.16557 0.601206
1146 4 0.15077 0.179997 0.605434
2587 2 0.280371 0.177156 0.619419
2016 4 0.334183 0.239064 0.637985
2589 4 0.304575 0.193968 0.626795
2014 2 0.356765 0.234725 0.640921
2852 4 0.324561 0.195335 0.621562
2851 2 0.337354 0.180551 0.627876
2015 4 0.379348 0.230386 0.643857
2853 4 0.350148 0.165767 0.634189
981 4 0.392598 0.249717 0.638277
1227 4 0.0260615 0.256858 0.592092
1225 2 0.0500041 0.254626 0.592368
3157 2 0.0145345 0.329939 0.648513
1226 4 0.0739467 0.252394 0.592643
945 4 0.0911668 0.254079 0.581421
943 2 0.118127 0.262348 0.584424
3164 4 0.159808 0.289143 0.584628
1210 2 0.150859 0.254205 0.635506
3163 2 0.186889 0.297024 0.585947
1211 4 0.175462 0.253535 0.633234
3165 4 0.213971 0.304906 0.587267
935 4 0.233287 0.303121 0.589203
934 2 0.260332 0.313412 0.59197
936 4 0.287376 0.323704 0.594736
979 2 0.41899 0.259682 0.632183
980 4 0.445383 0.269647 0.626089
1136 4 0.456949 0.268339 0.610733
1135 2 0.48402 0.277668 0.613269
3158 4 0.0416197 0.337631 0.647714
3426 4 0.0636136 0.349766 0.643733
3424 2 0.0907087 0.359717 0.646097
3425 4 0.117804 0.369669 0.648462
3122 4 0.136522 0.383055 0.639359
3121 2 0.163025 0.395684 0.644009
3123 4 0.189529 0.408314 0.64866
2595 4 0.255837 0.415474 0.641065
2594 4 0.239592 0.392348 0.597177
2593 2 0.247714 0.403911 0.619121
275 4 0.308327 0.330208 0.588081
1382 4 0.0995288 0.465589 0.640388
984 4 0.0898863 0.47023 0.654328
1381 2 0.0938932 0.455538 0.617531
1383 4 0.0882575 0.445486 0.594675
3183 4 0.202331 0.42787 0.655161
3181 2 0.225351 0.448472 0.654691
3182 4 0.248371 0.469073 0.65422
1009 2 0.278246 0.432961 0.664929
1010 4 0.259714 0.43498 0.649286
4113 4 0.477962 0.482354 0.63781
4111 2 0.477934 0.48408 0.662742
3173 4 0.116285 0.0480875 0.701115
3172 2 0.137499 0.0460071 0.712607
3174 4 0.158713 0.0439268 0.724098
1073 4 0.173806 0.0557031 0.711857
1072 2 0.200218 0.0624693 0.706658
1074 4 0.22663 0.0692354 0.70146
4507 2 0.257654 0.0558157 0.732233
4509 4 0.264828 0.0425086 0.715446
4508 4 0.250481 0.0691227 0.749019
2320 2 0.00614991 0.122607 0.795813
2240 4 0.328853 0.0183467 0.735381
2231 4 0.348555 0.0240988 0.728945
2239 2 0.301674 0.00940848 0.734518
2241 4 0.274495 0.000470248 0.733655
2230 2 0.373381 0.0269865 0.736731
2232 4 0.398207 0.0298742 0.744516
1082 4 0.418531 0.0450549 0.74463
1081 2 0.445047 0.0530027 0.739294
1083 4 0.471563 0.0609506 0.733957
2143 2 0.458429 0.00973053 0.710496
2144 4 0.485377 0.0185164 0.707161
2114 4 0.494237 0.0729451 0.734648
2145 4 0.43148 0.0009447 0.71383
3079 2 0.0252864 0.111551 0.745388
3400 2 0.0494942 0.162554 0.691358
3402 4 0.0421265 0.137951 0.688267
4438 2 0.0369316 0.102429 0.667447
4439 4 0.0486556 0.125489 0.676941
3080 4 0.0510168 0.113994 0.74857
1944 4 0.235597 0.0890031 0.699071
348 4 0.305028 0.120403 0.674167
1942 2 0.260021 0.101254 0.688671
1943 4 0.284445 0.113506 0.678272
2136 4 0.423339 0.112507 0.687991
2091 4 0.417342 0.107971 0.706367
2089 2 0.427464 0.0977813 0.724001
3315 4 0.491785 0.165632 0.698881
2090 4 0.437587 0.0875921 0.741636
2005 2 0.253297 0.488929 0.968089
3401 4 0.0568618 0.187157 0.694449
261 4 0.0442093 0.23565 0.72034
3461 4 0.489264 0.212668 0.680022
3460 2 0.498363 0.194446 0.68254
4087 2 0.164091 0.46909 0.996475
3254 4 0.0127949 0.325638 0.732243
260 4 0.0961493 0.264477 0.730636
259 2 0.0701793 0.250064 0.725488
2981 4 0.167998 0.329969 0.745923
4521 4 0.113504 0.274 0.74193
3475 2 0.149146 0.293104 0.678331
3476 4 0.132496 0.268921 0.67946
3477 4 0.165796 0.317288 0.677203
2998 2 0.207865 0.324335 0.731483
3000 4 0.187546 0.331569 0.736369
2999 4 0.228185 0.317101 0.726598
3120 4 0.248887 0.318235 0.722339
3118 2 0.255673 0.307589 0.741902
1911 4 0.0101364 0.399644 0.679017
3255 4 0.0604946 0.339562 0.708433
3253 2 0.0366447 0.3326 0.720338
3273 4 0.0746563 0.351716 0.722077
3326 4 0.131797 0.350038 0.691831
3272 4 0.119097 0.359667 0.694604
3271 2 0.0968767 0.355692 0.708341
3325 2 0.153689 0.344918 0.696128
3327 4 0.175581 0.339797 0.700425
3072 4 0.27708 0.409225 0.74361
3389 4 0.430225 0.394095 0.750215
3388 2 0.454511 0.393182 0.746304
3390 4 0.478797 0.392268 0.742393
918 4 0.0434737 0.458892 0.726214
916 2 0.0222702 0.456603 0.740744
3011 4 0.0282267 0.415943 0.680318
4482 4 0.0560574 0.449418 0.728909
983 4 0.135939 0.484111 0.68081
982 2 0.112913 0.477171 0.667569
3012 4 0.0791329 0.422738 0.692649
4480 2 0.0733504 0.443939 0.743369
3010 2 0.0536798 0.419341 0.686484
3071 4 0.300081 0.428492 0.699873
3070 2 0.28858 0.418858 0.721742
1011 4 0.296778 0.430942 0.680573
2120 4 0.490559 0.482374 0.702235
4112 4 0.477907 0.485806 0.687674
4028 4 0.215108 0.0264658 0.784449
3188 4 0.260164 0.0778661 0.766107
4027 2 0.232162 0.0292332 0.803576
4029 4 0.249216 0.0320007 0.822704
1895 4 0.270348 0.0436238 0.826909
1248 4 0.290811 0.010088 0.830014
455 4 0.311425 0.0129257 0.825414
454 2 0.337491 0.0288407 0.826968
456 4 0.363556 0.0447556 0.828522
2198 4 0.467929 0.0562222 0.819329
3356 4 0.455199 0.0377988 0.810757
3357 4 0.478196 0.0115062 0.785603
3355 2 0.466697 0.0246525 0.79818
1242 4 0.481084 0.0124199 0.765757
2322 4 0.0299891 0.121182 0.800838
86 1 0.0669455 0.11905 0.78634
87 3 0.0638392 0.121035 0.763767
90 3 0.0503308 0.12445 0.797781
2264 4 0.111441 0.140781 0.794682
89 3 0.0903421 0.133471 0.792236
88 3 0.0636121 0.0971472 0.79099
3344 4 0.135787 0.0868535 0.800121