ITEM: TIMESTEP
1692000
ITEM: NUMBER OF ATOMS
4800
ITEM: BOX BOUNDS xy xz yz pp pp pp
-1.3198112400000014e+01 9.9985700000000008e+00 -3.1995424000000128e+00
-9.9985700000000008e+00 9.9985700000000008e+00 0.0000000000000000e+00
-9.9985700000000008e+00 9.9985700000000008e+00 0.0000000000000000e+00
ITEM: ATOMS id type xs ys zs
852 4 0.00252129 0.00899084 0.0114022
1032 4 0.414903 0.0463266 0.0752041
3514 2 0.0267027 0.120436 0.0202965
3516 4 0.046419 0.137109 0.0278161
1439 4 0.0607903 0.126942 0.0362111
1438 2 0.0671428 0.137592 0.0583504
1440 4 0.0734953 0.148243 0.0804898
3515 4 0.00698646 0.103762 0.0127769
2848 2 0.245374 0.155183 0.0279769
2850 4 0.240116 0.161517 0.00461621
917 4 0.264804 0.13444 0.0545738
2849 4 0.250632 0.148849 0.0513376
916 2 0.289738 0.137529 0.0502947
918 4 0.314673 0.140618 0.0460156
1305 4 0.333394 0.134039 0.0505006
1303 2 0.354144 0.147705 0.0408147
1304 4 0.374895 0.16137 0.0311289
3242 4 0.0301054 0.169034 0.00710109
3241 2 0.0423753 0.180326 0.0268036
3243 4 0.0546452 0.191619 0.0465061
404 3 0.0678096 0.196908 0.0606925
401 1 0.0812636 0.190221 0.0775073
405 3 0.0754745 0.167865 0.0812502
3749 4 0.107535 0.256427 0.0630751
402 3 0.103558 0.1947 0.0709125
3158 4 0.433215 0.178776 0.0100049
3159 4 0.391567 0.171586 0.0384465
3157 2 0.412391 0.175181 0.0242257
2951 4 0.451365 0.173982 0.00972269
2950 2 0.463878 0.197247 0.00713826
2952 4 0.476392 0.220511 0.00455382
4095 4 0.00728049 0.303586 0.0224395
3123 4 0.0203198 0.300393 0.0357975
3121 2 0.038808 0.296697 0.0200658
3122 4 0.0572962 0.293001 0.00433401
2625 4 0.14985 0.305595 0.0360301
3750 4 0.13063 0.296772 0.0386592
3748 2 0.119082 0.276599 0.0508672
2623 2 0.154826 0.330452 0.0385363
4058 4 0.25864 0.328184 0.0103216
829 2 0.2783 0.30705 0.000986614
830 4 0.282884 0.283772 0.0047662
4187 4 0.274031 0.311877 0.0690792
951 4 0.256687 0.00395669 0.410078
2994 4 0.35066 0.309871 0.0459646
2992 2 0.355274 0.31591 0.069952
4037 4 0.00898719 0.393092 0.0866782
4351 2 0.178575 0.418379 0.0655804
2624 4 0.159802 0.35531 0.0410426
4353 4 0.190416 0.415917 0.0439141
3524 4 0.211063 0.418097 0.0371912
2143 2 0.206673 0.364443 0.0626898
2145 4 0.212502 0.357449 0.0397119
4059 4 0.23124 0.358959 0.0328764
4057 2 0.24494 0.343571 0.021599
3523 2 0.230049 0.412048 0.0233931
3525 4 0.249036 0.405999 0.00959499
424 3 0.26781 0.412307 0.00135485
229 3 0.120929 0.00570626 0.409655
423 3 0.30458 0.410838 0.00989223
3936 4 0.439763 0.414008 0.00332516
867 4 0.0187515 0.459235 0.0269849
865 2 0.033487 0.451463 0.00939369
4575 4 0.00652657 0.445785 0.0356035
1721 4 0.194842 0.00108846 0.131973
435 3 0.0745085 0.433922 0.0764701
434 3 0.0977983 0.430248 0.0475905
431 1 0.0948279 0.442077 0.066951
433 3 0.0957887 0.464597 0.0620218
432 3 0.111931 0.439697 0.0817091
1952 4 0.132939 0.44634 0.0792055
939 4 0.118752 0.42454 0.00409214
2142 4 0.152818 0.491817 0.0140208
4352 4 0.166733 0.420841 0.0872467
937 2 0.141201 0.436337 0.0120436
1951 2 0.153889 0.463317 0.0770796
1953 4 0.174839 0.480295 0.0749536
3503 4 0.18216 0.499978 0.0776659
938 4 0.163651 0.448135 0.019995
3502 2 0.206523 0.498973 0.0728956
4013 4 0.242122 0.49372 0.052712
3504 4 0.230886 0.497969 0.0681253
4012 2 0.261081 0.485649 0.0649578
4014 4 0.28004 0.477578 0.0772037
422 3 0.291832 0.44381 0.00909689
3753 4 0.309802 0.452114 0.00517199
3751 2 0.315303 0.476121 0.0119605
1152 4 0.328328 0.450339 0.0148562
1150 2 0.347129 0.43741 0.0195941
1151 4 0.365931 0.424482 0.0243319
791 4 0.386142 0.432066 0.024103
790 2 0.408738 0.42451 0.0229144
792 4 0.431334 0.416955 0.0217259
1073 4 0.0111255 0.0159881 0.162882
220 3 0.164986 0.0324948 0.140828
216 1 0.171279 0.049899 0.155092
217 3 0.158025 0.0661284 0.151284
218 3 0.193778 0.0589758 0.151481
3998 4 0.202286 0.0543245 0.169025
2866 2 0.237379 0.0124836 0.136068
2867 4 0.260009 0.0266909 0.139058
4328 4 0.272783 0.0332813 0.154215
3997 2 0.227578 0.0583209 0.167815
3999 4 0.25287 0.0623173 0.166605
4327 2 0.296148 0.0441554 0.147944
4329 4 0.319513 0.0550295 0.141673
4223 4 0.332142 0.0728719 0.144229
4222 2 0.354467 0.0864849 0.150057
1030 2 0.408642 0.0233794 0.0847918
1031 4 0.402382 0.000432183 0.0943794
2908 2 0.428645 0.0683993 0.119713
2910 4 0.435554 0.0457258 0.119938
377 3 0.435769 0.0333115 0.136958
378 3 0.428431 0.00701091 0.163625
376 1 0.437687 0.0291021 0.159424
379 3 0.460435 0.0327894 0.16524
1636 2 0.496144 0.0518627 0.149935
982 2 0.486384 0.00607777 0.105792
881 4 0.27791 0.137828 0.155219
880 2 0.253954 0.126127 0.156002
3101 4 0.293924 0.150991 0.151901
882 4 0.229998 0.114426 0.156785
4224 4 0.376793 0.100098 0.155885
60 3 0.395494 0.105995 0.161597
2909 4 0.421735 0.0910728 0.119488
59 3 0.418632 0.0899419 0.139255
56 1 0.417318 0.102969 0.158154
58 3 0.431081 0.123515 0.1556
1596 4 0.449381 0.129078 0.167979
403 3 0.0786628 0.201993 0.0969935
3019 2 0.176571 0.278646 0.16076
3020 4 0.15209 0.269786 0.164604
30 3 0.220616 0.297606 0.155796
28 3 0.247413 0.282326 0.137655
4188 4 0.236892 0.308799 0.102965
27 3 0.231943 0.310023 0.121862
26 1 0.238742 0.301873 0.141789
29 3 0.255321 0.317751 0.151235
4186 2 0.255462 0.310338 0.0860222
3021 4 0.201052 0.287506 0.156916
2993 4 0.359888 0.32195 0.0939393
1821 4 0.150236 0.338758 0.104295
3674 4 0.163508 0.343655 0.162885
51 1 0.143741 0.413779 0.12011
53 3 0.154613 0.409166 0.100557
55 3 0.127593 0.396139 0.12558
1820 4 0.135585 0.382426 0.115501
1819 2 0.142911 0.360592 0.109898
3673 2 0.183138 0.349222 0.147296
1010 4 0.17921 0.423389 0.145653
3675 4 0.202768 0.354788 0.131706
2144 4 0.200843 0.371438 0.0856677
3411 4 0.21823 0.354614 0.144199
3409 2 0.243247 0.360878 0.147236
3410 4 0.268265 0.367141 0.150273
1365 4 0.288865 0.372514 0.146792
1363 2 0.308231 0.384442 0.16014
764 4 0.408393 0.41098 0.13375
2916 4 0.415437 0.394439 0.137639
2914 2 0.435708 0.385446 0.14618
2915 4 0.45598 0.376452 0.154721
1237 2 0.256804 0.471023 0.45969
3254 4 0.00172854 0.478915 0.0855104
52 3 0.133644 0.432407 0.116775
54 3 0.159348 0.418078 0.137354
1009 2 0.204274 0.424262 0.143864
1967 4 0.257596 0.428204 0.0882909
1968 4 0.219548 0.444351 0.112561
1966 2 0.238572 0.436277 0.100426
2853 4 0.247086 0.437701 0.146223
1011 4 0.229338 0.425135 0.142075
2851 2 0.268158 0.444133 0.159717
763 2 0.393553 0.422271 0.118898
765 4 0.378712 0.433561 0.104046
2900 4 0.0166288 0.00735293 0.179373
2899 2 0.0377727 0.0226892 0.18575
4007 4 0.0644116 0.0380171 0.211301
2901 4 0.0589167 0.0380255 0.192127
4006 2 0.0682507 0.0316023 0.234973
219 3 0.168285 0.0426314 0.177052
3292 2 0.187534 0.0604005 0.205832
3293 4 0.189487 0.064385 0.230481
3294 4 0.185581 0.056416 0.181184
2981 4 0.265208 0.0659954 0.183595
2980 2 0.272454 0.05586 0.204662
2982 4 0.279701 0.0457246 0.225728
1834 2 0.42607 0.0639499 0.201086
1836 4 0.432622 0.0417347 0.206521
380 3 0.426349 0.043032 0.171279
1638 4 0.480411 0.0408774 0.167519
1166 4 0.448943 0.0331633 0.21181
1165 2 0.473479 0.0342157 0.217313
1167 4 0.498016 0.0352682 0.222816
4173 4 0.499294 0.0556601 0.222566
2253 4 0.075724 0.152017 0.244632
3878 4 0.0681722 0.091658 0.199769
3877 2 0.0931595 0.0991767 0.201488
3879 4 0.118147 0.106695 0.203208
437 3 0.134341 0.109246 0.215103
1871 4 0.150543 0.165313 0.228297
436 1 0.154877 0.123058 0.216697
440 3 0.154546 0.141396 0.203592
438 3 0.158537 0.129511 0.23883
439 3 0.1718 0.111459 0.209545
888 4 0.190197 0.119269 0.205632
886 2 0.21019 0.118989 0.190679
887 4 0.230183 0.118709 0.175726
3100 2 0.310279 0.148579 0.170316
3102 4 0.326634 0.146166 0.18873
3164 4 0.336334 0.138511 0.204707
3163 2 0.330836 0.126323 0.226249
3165 4 0.325339 0.114135 0.247791
1835 4 0.419519 0.086165 0.195652
57 3 0.424675 0.0922006 0.17634
1594 2 0.472704 0.138941 0.175399
1595 4 0.496028 0.148803 0.182818
408 3 0.00993691 0.196457 0.189795
2183 4 0.0280086 0.199753 0.180522
2182 2 0.0500451 0.214877 0.183933
2184 4 0.0720816 0.230002 0.187345
756 4 0.0917493 0.236597 0.184714
1870 2 0.170617 0.179864 0.218369
1872 4 0.190691 0.194416 0.208441
2271 4 0.206787 0.185269 0.212729
2269 2 0.228616 0.19228 0.224863
2270 4 0.250446 0.19929 0.236997
3117 4 0.0687253 0.324254 0.206467
754 2 0.115319 0.248614 0.181222
755 4 0.138889 0.26063 0.17773
2049 4 0.294243 0.309805 0.196302
2047 2 0.314553 0.299107 0.191227
1037 4 0.297944 0.327253 0.186104
2048 4 0.334864 0.288408 0.186152
4163 4 0.34742 0.290307 0.169519
4162 2 0.36943 0.294432 0.181862
4164 4 0.39144 0.298558 0.194206
420 3 0.406264 0.300007 0.207679
419 3 0.411533 0.269446 0.188173
416 1 0.422087 0.288758 0.19865
418 3 0.435298 0.302291 0.183377
2826 4 0.446561 0.315959 0.194204
417 3 0.435816 0.282943 0.215396
860 4 0.452607 0.276953 0.208096
2824 2 0.470565 0.326689 0.197857
859 2 0.473125 0.265722 0.209147
861 4 0.493642 0.254491 0.210199
3031 2 0.0253794 0.372204 0.230785
3032 4 0.0499568 0.370122 0.230226
3033 4 0.000801965 0.374287 0.231345
3115 2 0.0721806 0.347865 0.198246
3116 4 0.0756359 0.371477 0.190026
3939 4 0.0691414 0.388327 0.194377
3937 2 0.0738837 0.413319 0.194136
833 4 0.121429 0.349141 0.23909
1981 2 0.238952 0.346737 0.226892
1983 4 0.259529 0.359579 0.216065
1982 4 0.218376 0.333896 0.237719
1364 4 0.327596 0.39637 0.173487
1038 4 0.27824 0.354574 0.220378
1036 2 0.288092 0.340913 0.203241
776 4 0.341469 0.402888 0.188775
775 2 0.351167 0.411957 0.210568
969 4 0.469551 0.409884 0.234951
2825 4 0.494569 0.337418 0.20151
3938 4 0.078626 0.43831 0.193894
2852 4 0.289229 0.450566 0.173212
3166 2 0.33422 0.465477 0.18041
3168 4 0.309984 0.45762 0.174459
3167 4 0.358456 0.473334 0.186361
777 4 0.360864 0.421026 0.232362
4283 4 0.375 0.469229 0.196962
4282 2 0.399731 0.46786 0.196044
4284 4 0.424462 0.466492 0.195127
2130 4 0.442553 0.47222 0.205508
2128 2 0.465906 0.485207 0.207481
2129 4 0.489259 0.498193 0.209454
3137 4 0.0242549 0.0529532 0.312546
3136 2 0.0461649 0.045801 0.306026
2939 4 0.0304879 0.0504814 0.331474
4008 4 0.0720897 0.0251875 0.258645
3138 4 0.068075 0.0386488 0.299506
84 3 0.0807492 0.025658 0.29278
82 3 0.0909298 0.0215603 0.257024
81 1 0.0963396 0.0177865 0.278905
83 3 0.11794 0.0290687 0.283297
1143 4 0.131981 0.0455255 0.281366
3636 4 0.00129751 0.495232 0.340812
3918 4 0.137708 0.00197973 0.315622
1141 2 0.156941 0.0453043 0.280759
1142 4 0.1819 0.0450832 0.280152
1883 4 0.197739 0.0597154 0.285317
1882 2 0.221621 0.0699148 0.280211
1884 4 0.245504 0.0801142 0.275105
3575 4 0.265314 0.0858246 0.274926
4228 2 0.343252 0.00971563 0.301548
4229 4 0.362031 0.0290885 0.299535
393 3 0.400783 0.0251779 0.262092
395 3 0.416113 0.0510383 0.287063
391 1 0.396531 0.0416998 0.276852
392 3 0.381378 0.0322284 0.292773
394 3 0.387181 0.0580035 0.265469
1163 4 0.435027 0.060838 0.293446
1877 4 0.482215 0.0748633 0.319031
3626 4 0.49745 0.0779785 0.304792
4083 4 0.0516402 0.11248 0.300905
4081 2 0.0729361 0.102453 0.301328
2973 4 0.105337 0.083836 0.288123
2251 2 0.0951327 0.155025 0.260692
4082 4 0.0942321 0.0924249 0.301752
3288 4 0.134557 0.167248 0.272271
2252 4 0.114541 0.158034 0.276752
2971 2 0.130044 0.0914616 0.284197
3286 2 0.150425 0.152481 0.263625
3287 4 0.166293 0.137714 0.254979
2972 4 0.15475 0.0990871 0.28027
4478 4 0.162668 0.115892 0.291736
4477 2 0.18458 0.109747 0.299688
4479 4 0.206492 0.103603 0.307641
3574 2 0.287994 0.0981766 0.268291
2947 2 0.298156 0.105247 0.329362
3576 4 0.310673 0.110529 0.261655
2948 4 0.313562 0.109006 0.309567
3975 4 0.439597 0.144461 0.329868
1162 2 0.445666 0.0845446 0.289408
1164 4 0.456305 0.108251 0.28537
1580 4 0.00707046 0.196394 0.301143
783 4 0.00265221 0.247574 0.269638
1579 2 0.0231833 0.189232 0.28453
1581 4 0.0392961 0.18207 0.267916
2211 4 0.162825 0.190834 0.319069
4548 4 0.265937 0.196986 0.249784
4546 2 0.287638 0.203297 0.262324
4547 4 0.309339 0.209609 0.274864
1362 4 0.39264 0.189629 0.298508
1361 4 0.432044 0.181409 0.270667
1360 2 0.412342 0.185519 0.284587
3486 4 0.448919 0.190485 0.279996
3484 2 0.47081 0.203217 0.271694
3485 4 0.492701 0.215949 0.263392
2272 2 0.229795 0.308916 0.320386
2273 4 0.206699 0.29639 0.315544
2274 4 0.25289 0.321443 0.325227
580 3 0.271589 0.327266 0.320481
576 1 0.292954 0.323779 0.315396
578 3 0.295162 0.301729 0.319789
3381 4 0.305973 0.2867 0.32528
577 3 0.296995 0.328025 0.29304
579 3 0.308626 0.338076 0.327841
3379 2 0.330257 0.287034 0.331439
3084 4 0.447945 0.249154 0.283806
3082 2 0.469379 0.257345 0.29618
3083 4 0.490814 0.265537 0.308554
1239 4 0.270196 0.452496 0.4559
4254 4 0.0267721 0.392081 0.322531
4252 2 0.0489015 0.401098 0.311763
1139 4 0.0840421 0.407356 0.316337
1138 2 0.0999112 0.400036 0.333106
2970 4 0.099603 0.344455 0.307178
4253 4 0.0710309 0.410114 0.300996
2968 2 0.123249 0.34231 0.313895
2969 4 0.146895 0.340165 0.320611
832 2 0.139206 0.346972 0.256178
834 4 0.156983 0.344803 0.273266
3095 4 0.176562 0.353006 0.274907
3094 2 0.189347 0.362264 0.295198
3096 4 0.202132 0.371521 0.315489
4026 4 0.261118 0.407627 0.329877
3141 4 0.297812 0.38228 0.260313
3139 2 0.301005 0.364877 0.277242
872 4 0.315974 0.350348 0.311196
3140 4 0.304197 0.347474 0.294172
871 2 0.339649 0.360305 0.317396
873 4 0.363324 0.370262 0.323597
1923 4 0.372132 0.420445 0.279223
1188 4 0.380207 0.384317 0.323751
371 1 0.49512 0.399724 0.30878
1855 2 0.448412 0.346978 0.319372
968 4 0.464755 0.389541 0.280608
967 2 0.467153 0.399712 0.257779
372 3 0.478898 0.390344 0.293797
1856 4 0.469808 0.345247 0.307023
1394 4 0.485549 0.351797 0.295165
374 3 0.484541 0.404494 0.328453
3228 4 0.315192 0.491981 0.311069
1922 4 0.333763 0.446614 0.277021
3227 4 0.327139 0.448525 0.295099
3226 2 0.321166 0.470253 0.303084
1921 2 0.352947 0.433529 0.278122
4232 4 0.310417 0.495817 0.329487
1241 4 0.390947 0.416347 0.279975
1240 2 0.412634 0.43202 0.2834
1242 4 0.43432 0.447694 0.286824
4296 4 0.44618 0.452494 0.271262
4294 2 0.471046 0.458416 0.275511
4295 4 0.495911 0.464338 0.279759
3218 4 0.00870098 0.00201856 0.393568
3217 2 0.0281788 0.0182911 0.384871
3219 4 0.0476566 0.0345637 0.376174
2938 2 0.0136059 0.0533074 0.349271
3917 4 0.133937 0.0167743 0.362996
227 3 0.134145 0.000984216 0.375084
226 1 0.140329 0.00560309 0.396952
3224 4 0.162776 0.0643889 0.412451
993 4 0.175512 0.0268244 0.398883
228 3 0.153862 0.0264226 0.397905
3916 2 0.135823 0.00937704 0.339309
991 2 0.197701 0.0350941 0.387863
992 4 0.21989 0.0433638 0.376844
3669 4 0.382195 0.0434224 0.362398
3667 2 0.396181 0.0647816 0.35483
1876 2 0.471831 0.055517 0.333095
1878 4 0.461448 0.0361707 0.347158
1079 4 0.444476 0.0221965 0.348726
2210 4 0.151413 0.168125 0.362939
2949 4 0.282749 0.101488 0.349158
3668 4 0.410168 0.0861408 0.347263
3974 4 0.415674 0.105412 0.355627
3973 2 0.427636 0.124937 0.342748
1017 4 0.148856 0.175735 0.380923
1015 2 0.138483 0.174798 0.403723
2209 2 0.157119 0.17948 0.341004
814 2 0.492554 0.18394 0.349539
815 4 0.472627 0.179435 0.364902
869 4 0.459117 0.186574 0.377104
868 2 0.461596 0.192126 0.401432
1356 4 0.211194 0.308103 0.388725
1354 2 0.191069 0.307955 0.403594
3006 4 0.230593 0.313467 0.388991
3004 2 0.254656 0.317904 0.381234
3005 4 0.278718 0.32234 0.373478
1704 4 0.297485 0.323392 0.378663
1702 2 0.322537 0.326773 0.375058
3380 4 0.354542 0.287368 0.337597
1670 4 0.36947 0.280031 0.348964
1669 2 0.39473 0.285676 0.349199
1703 4 0.347589 0.330155 0.371453
3354 4 0.365966 0.334869 0.362322
1671 4 0.419991 0.291321 0.349434
3435 4 0.437445 0.288664 0.353691
3433 2 0.460062 0.300117 0.361566
3434 4 0.482679 0.31157 0.369442
1140 4 0.11578 0.392716 0.349875
1743 4 0.135421 0.399169 0.346838
1741 2 0.148291 0.384175 0.359769
1742 4 0.161161 0.369181 0.3727
4025 4 0.265586 0.375685 0.367142
4024 2 0.263352 0.391656 0.348509
3353 4 0.408999 0.351164 0.337808
1186 2 0.402301 0.395217 0.333356
3352 2 0.387483 0.343017 0.350065
1187 4 0.424395 0.406116 0.342961
1857 4 0.427017 0.348709 0.331721
3809 4 0.441143 0.421403 0.349387
3302 4 0.0184572 0.489967 0.334091
1006 2 0.0461656 0.431034 0.41157
4627 2 0.109033 0.447034 0.389415
4628 4 0.0838034 0.441007 0.389172
1007 4 0.0673626 0.437559 0.398286
4629 4 0.134263 0.453061 0.389658
3810 4 0.490656 0.431714 0.359563
3808 2 0.465899 0.426558 0.354475
3223 2 0.156866 0.0820762 0.427811
4358 4 0.469332 0.00470591 0.488737
398 3 0.159827 0.153744 0.468439
1481 4 0.13958 0.0917048 0.461125
3225 4 0.150956 0.0997635 0.443171
1480 2 0.150692 0.110751 0.475174
1482 4 0.161803 0.129798 0.489223
4469 4 0.173411 0.144471 0.477472
4468 2 0.198645 0.148924 0.479489
4470 4 0.223879 0.153377 0.481505
388 3 0.243047 0.158136 0.473827
3377 4 0.463049 0.167687 0.478392
1016 4 0.128111 0.173861 0.426523
1800 4 0.132104 0.195996 0.485904
397 3 0.137602 0.178139 0.480049
399 3 0.137751 0.168901 0.443652
396 1 0.150955 0.172819 0.462754
400 3 0.168053 0.190166 0.459204
4598 4 0.181762 0.182354 0.44649
4597 2 0.206556 0.190932 0.444739
4599 4 0.231349 0.19951 0.442987
390 3 0.243918 0.189157 0.452885
389 3 0.263067 0.191194 0.485431
386 1 0.2561 0.177985 0.466981
3776 4 0.28032 0.202165 0.491043
3775 2 0.296092 0.223654 0.494404
2984 4 0.293444 0.176845 0.448534
387 3 0.274916 0.173126 0.455953
2983 2 0.314947 0.182324 0.461561
2985 4 0.33645 0.187803 0.474589
1538 4 0.356621 0.193567 0.478329
3378 4 0.470857 0.202781 0.442835
870 4 0.464076 0.197678 0.42576
3376 2 0.466953 0.185234 0.460614
1355 4 0.170943 0.307806 0.418463
2155 2 0.139924 0.298752 0.438917
2156 4 0.157447 0.293068 0.423007
2157 4 0.1224 0.304435 0.454827
2846 4 0.0069663 0.417917 0.433686
1008 4 0.0249686 0.424508 0.424853
1238 4 0.243412 0.489551 0.46348
877 2 0.00279268 0.378841 0.0122277
3752 4 0.320803 0.500128 0.018749
3816 4 0.163246 0.496559 0.138962
3777 4 0.311864 0.245143 0.497765
878 4 0.0246795 0.371947 0.0052201
646 1 0.499163 0.427435 0.717788
4511 4 0.00322217 0.00567077 0.568308
4357 2 0.482021 0.0226618 0.503104
4359 4 0.49471 0.0406177 0.517472
215 3 0.00345477 0.0931578 0.57622
2805 4 0.0217865 0.100962 0.570308
2803 2 0.0464305 0.109936 0.567853
2804 4 0.0710746 0.118911 0.565398
960 4 0.0851521 0.133506 0.573751
2724 4 0.372947 0.0999624 0.577718
2722 2 0.381852 0.110872 0.55639
2723 4 0.390757 0.121781 0.535061
1613 4 0.410599 0.120557 0.536425
1612 2 0.432414 0.136486 0.535853
1614 4 0.454228 0.152414 0.53528
1697 4 0.45628 0.156967 0.515948
1799 4 0.111238 0.200935 0.530707
1798 2 0.121671 0.198465 0.508305
3461 4 0.447823 0.00571855 0.981299
1539 4 0.359019 0.192234 0.52825
3711 4 0.369928 0.182182 0.539986
1537 2 0.35782 0.1929 0.50329
3709 2 0.382289 0.189845 0.561021
3710 4 0.394651 0.197509 0.582056
1696 2 0.473925 0.17742 0.515406
1698 4 0.491569 0.197873 0.514863
813 4 0.4106 0.257182 0.569255
811 2 0.431284 0.266612 0.582238
2923 2 0.00132268 0.39315 0.569941
4549 2 0.331745 0.391115 0.564359
4550 4 0.340195 0.374879 0.579835
4551 4 0.323294 0.40735 0.548882
2438 4 0.437168 0.393781 0.573033
2561 4 0.457031 0.39177 0.570891
2560 2 0.479673 0.385893 0.576764
4718 4 0.446634 0.457534 0.949572
472 3 0.0109477 0.483889 0.527993
2925 4 0.00619288 0.41808 0.571636
2136 4 0.0733421 0.426558 0.549117
2134 2 0.0812453 0.441108 0.529563
2991 4 0.10242 0.472638 0.507191
2135 4 0.0891485 0.455659 0.510008
3573 4 0.089304 0.429284 0.561425
2989 2 0.113494 0.493524 0.518557
3719 4 0.329939 0.423962 0.536245
3718 2 0.350651 0.44125 0.534181
3720 4 0.371364 0.458538 0.532117
2695 2 0.404547 0.458993 0.574777
2697 4 0.426957 0.462966 0.563148
729 3 0.442489 0.477867 0.558982
726 1 0.457595 0.496841 0.553264
727 3 0.477658 0.49051 0.546565
2790 4 0.0268082 0.0513806 0.654332
2788 2 0.012489 0.0459685 0.633963
3773 4 0.0472996 0.0554981 0.657512
3772 2 0.054559 0.0802724 0.656761
2511 4 0.31098 0.0115214 0.607258
4784 4 0.330204 0.0253847 0.607047
4783 2 0.337118 0.0501352 0.609017
4785 4 0.344031 0.0748857 0.610987
1644 4 0.0527004 0.120819 0.653674
1642 2 0.0441843 0.128947 0.632163
1643 4 0.0356682 0.137075 0.610651
3774 4 0.0618184 0.105047 0.65601
958 2 0.105064 0.149495 0.582022
959 4 0.124975 0.165484 0.590293
1945 2 0.22059 0.127775 0.658076
1947 4 0.226588 0.127313 0.633825
4780 2 0.298814 0.0894785 0.65634
4782 4 0.314679 0.103353 0.64064
3346 2 0.0133326 0.17457 0.631051
3347 4 0.0380646 0.183392 0.629172
3480 4 0.0522723 0.181609 0.643451
3478 2 0.0744021 0.193992 0.635334
3479 4 0.0965318 0.206375 0.627216
4524 4 0.136663 0.18146 0.597028
4523 4 0.116378 0.212948 0.626488
4522 2 0.12652 0.197204 0.611758
3282 4 0.40688 0.184509 0.577689
3281 4 0.45036 0.182057 0.601562
3280 2 0.42862 0.183283 0.589626
3741 4 0.421004 0.190915 0.663832
3739 2 0.443705 0.205001 0.660888
2525 4 0.401584 0.180661 0.668042
3129 4 0.430187 0.245592 0.654431
2943 4 0.461416 0.201313 0.603333
3740 4 0.466407 0.219087 0.657944
2941 2 0.4851 0.198877 0.597032
3759 4 0.48559 0.223551 0.654085
3864 4 0.0234857 0.319463 0.618333
3047 4 0.00815242 0.313115 0.632554
2413 2 0.0878245 0.259438 0.662376
3872 4 0.124805 0.276034 0.64003
2414 4 0.106873 0.272357 0.649341
3871 2 0.144112 0.282259 0.655877
2528 4 0.236793 0.311477 0.648007
2527 2 0.234793 0.29631 0.628133
2529 4 0.232794 0.281143 0.60826
595 3 0.467872 0.289039 0.586859
812 4 0.451968 0.276043 0.595221
3127 2 0.440413 0.25633 0.633515
3128 4 0.450638 0.267069 0.612598
594 3 0.470513 0.268151 0.617608
591 1 0.481853 0.284499 0.603643
592 3 0.488531 0.303612 0.615922
3862 2 0.0406371 0.337554 0.628062
3383 4 0.00405447 0.406533 0.629054
1569 4 0.0665991 0.370018 0.651955
3863 4 0.0577885 0.355644 0.637792
498 3 0.0853104 0.381852 0.654113
499 3 0.0752758 0.355478 0.627374
497 3 0.0853586 0.391577 0.617838
496 1 0.0895106 0.375208 0.632513
3572 4 0.0844377 0.407144 0.606244
500 3 0.111527 0.372225 0.630564
1043 4 0.130189 0.382348 0.637112
1042 2 0.154125 0.393445 0.633797
1044 4 0.17806 0.404541 0.630482
1593 4 0.197855 0.408408 0.634408
1591 2 0.222807 0.41291 0.630194
1592 4 0.247759 0.417413 0.62598
3542 4 0.266207 0.415832 0.619192
3313 2 0.331665 0.373652 0.653972
157 3 0.351552 0.408532 0.59599
3315 4 0.310073 0.377331 0.664913
735 3 0.350554 0.361209 0.587326
3314 4 0.353256 0.369973 0.643032
1451 4 0.394037 0.328739 0.658598
734 3 0.354763 0.366216 0.624487
731 1 0.365573 0.362645 0.604585
733 3 0.374909 0.343121 0.605979
2439 4 0.399825 0.37157 0.602455
732 3 0.382656 0.380317 0.600896
2437 2 0.418497 0.382675 0.587744
3382 2 0.0263782 0.417858 0.637785
3384 4 0.0487019 0.429182 0.646515
3571 2 0.0868709 0.418214 0.583835
2897 4 0.0687956 0.432 0.652614
2896 2 0.0930708 0.43326 0.659252
2898 4 0.117346 0.43452 0.66589
4641 4 0.103192 0.459818 0.644626
4639 2 0.108071 0.477901 0.627473
3541 2 0.291229 0.421716 0.615925
3543 4 0.316251 0.427601 0.612657
159 3 0.326252 0.432307 0.595425
974 4 0.329232 0.433773 0.627356
973 2 0.329504 0.445005 0.649643
160 3 0.349163 0.431072 0.625125
156 1 0.347715 0.429412 0.602443
1461 4 0.338562 0.48551 0.653696
2696 4 0.382136 0.455021 0.586406
158 3 0.363914 0.445403 0.592612
1050 4 0.00649429 0.00573156 0.669615
2666 4 0.0270224 0.00815614 0.674262
2665 2 0.0519253 0.016419 0.673329
2667 4 0.0768282 0.0246818 0.672396
1746 4 0.0954413 0.0361031 0.67577
3412 2 0.102725 0.016697 0.735554
1744 2 0.120482 0.0436217 0.6751
3413 4 0.127649 0.0239408 0.73274
3414 4 0.0778005 0.00945325 0.738368
1745 4 0.145522 0.0511403 0.67443
1620 4 0.166281 0.0577565 0.670365
1618 2 0.189101 0.0717956 0.672562
1640 4 0.139756 0.0152159 0.721111
324 3 0.263627 0.077824 0.680231
4781 4 0.282949 0.0756043 0.67204
4455 4 0.327231 0.017038 0.700211
105 3 0.343351 0.00879934 0.707513
103 3 0.340359 0.041865 0.723504
101 1 0.352204 0.0239264 0.723275
102 3 0.350381 0.0138685 0.743961
104 3 0.374906 0.0313821 0.718781
4731 4 0.388831 0.0367724 0.732257
4729 2 0.410579 0.0280917 0.736068
4730 4 0.432326 0.0194111 0.739879
1533 4 0.0219491 0.108003 0.67639
1494 4 0.159523 0.127269 0.715259
1492 2 0.183156 0.133025 0.70653
1493 4 0.206789 0.138781 0.6978
1946 4 0.214593 0.128237 0.682327
1619 4 0.211921 0.0858347 0.674759
3239 4 0.286786 0.127114 0.681719
325 3 0.232823 0.0945034 0.675877
323 3 0.266696 0.115658 0.682247
321 1 0.252933 0.095495 0.686812
322 3 0.249 0.0939962 0.709467
3240 4 0.334242 0.151429 0.678303
3238 2 0.310514 0.139272 0.680011
1179 4 0.29476 0.197264 0.750654
1701 4 0.309338 0.203791 0.736704
2524 2 0.377123 0.172204 0.672483
2526 4 0.352662 0.163748 0.676923
1699 2 0.334622 0.208843 0.735928
1700 4 0.359907 0.213894 0.735152
695 3 0.378422 0.214676 0.742986
691 1 0.399792 0.226066 0.745592
692 3 0.407643 0.234776 0.725304
693 3 0.414064 0.211718 0.75321
1515 4 0.420066 0.241126 0.671337
2415 4 0.0687763 0.246519 0.675411
3873 4 0.163419 0.288485 0.671724
1340 4 0.23283 0.317168 0.666868
4135 2 0.3232 0.283956 0.734023
4137 4 0.298683 0.27397 0.734485
4136 4 0.347716 0.293942 0.733561
1392 4 0.355739 0.297089 0.71444
1390 2 0.377081 0.313657 0.715597
1391 4 0.398423 0.330225 0.716753
1513 2 0.434597 0.255247 0.687926
1514 4 0.449129 0.269367 0.704515
3368 4 0.464217 0.267618 0.717041
3367 2 0.487085 0.26078 0.719094
1567 2 0.0497183 0.376638 0.668064
1568 4 0.0328376 0.383258 0.684173
1144 2 0.015138 0.373155 0.731637
1145 4 0.0364704 0.384678 0.742249
3804 4 0.153152 0.375298 0.742314
3802 2 0.157668 0.383643 0.71896
1518 4 0.170559 0.382902 0.680083
3803 4 0.162184 0.391988 0.695605
1516 2 0.194166 0.378112 0.677229
1339 2 0.234114 0.342025 0.666939
1517 4 0.217773 0.373322 0.674374
1341 4 0.235398 0.366883 0.66701
2459 4 0.273893 0.379095 0.720002
2458 2 0.283116 0.378106 0.696847
2460 4 0.292339 0.377116 0.673691
3696 4 0.323681 0.378695 0.725657
3694 2 0.341201 0.372811 0.709854
1450 2 0.385356 0.346723 0.671565
3695 4 0.358722 0.366928 0.694051
1452 4 0.376675 0.364707 0.684531
3465 4 0.415402 0.414038 0.708282
2741 4 0.407576 0.41629 0.727709
3463 2 0.440149 0.416528 0.713398
3464 4 0.464895 0.419017 0.718513
650 3 0.481288 0.410619 0.715484
1837 2 0.0377815 0.431977 0.736605
1838 4 0.0126775 0.425096 0.7353
2729 4 0.0064788 0.441755 0.726942
1839 4 0.0628855 0.438858 0.73791
2642 4 0.119639 0.476373 0.756122
2641 2 0.0991951 0.458921 0.753109
822 4 0.134215 0.427736 0.673728
820 2 0.15887 0.435107 0.678174
821 4 0.183524 0.442477 0.68262
3557 4 0.203124 0.443115 0.687353
3556 2 0.227734 0.442062 0.690537
3558 4 0.252344 0.44101 0.693721
3000 4 0.272321 0.446673 0.697789
3614 4 0.31348 0.479106 0.724029
2998 2 0.296286 0.45576 0.703779
2999 4 0.320251 0.464847 0.709769
1446 4 0.342277 0.462233 0.705918
975 4 0.329776 0.456236 0.67193
3613 2 0.31615 0.480999 0.748848
2740 2 0.384657 0.421705 0.733199
2742 4 0.361738 0.427121 0.738688
1444 2 0.366451 0.466428 0.71335
1445 4 0.390624 0.470623 0.720783
2426 4 0.411335 0.476459 0.721177
2425 2 0.436208 0.478826 0.725607
647 3 0.496498 0.444548 0.703395
2427 4 0.461081 0.481192 0.730037
3393 4 0.489547 0.431507 0.922597
152 3 0.481882 0.487233 0.737826
3586 2 0.130879 0.0122717 0.801069
3587 4 0.15565 0.0201465 0.804302
1524 4 0.173348 0.0311853 0.799715
1522 2 0.198641 0.0348856 0.800873
4586 4 0.243711 0.0421224 0.804396
1523 4 0.223934 0.0385858 0.802032
4585 2 0.267048 0.0426903 0.813586
2773 2 0.335894 0.051125 0.81953
2774 4 0.310673 0.046557 0.817398
4587 4 0.290385 0.0432581 0.822776
2775 4 0.361115 0.055693 0.821662
4717 2 0.466319 0.471902 0.93878
143 3 0.415432 0.0463016 0.822069
4723 2 0.400086 0.017458 0.790557
3560 4 0.428326 0.0579614 0.809968
142 3 0.378922 0.0509356 0.823933
4724 4 0.409186 0.0353886 0.774282
1560 4 0.447154 0.0203742 0.753919
3559 2 0.446043 0.0722208 0.796419
1559 4 0.490928 0.0173673 0.77701
1558 2 0.469041 0.0188708 0.765464
3349 2 0.496212 0.0975721 0.75462
3561 4 0.46376 0.0864802 0.782869
1370 4 0.492959 0.165956 0.794807
3351 4 0.477883 0.0844234 0.768369
1603 2 0.0123861 0.183286 0.776565
1605 4 0.0361774 0.183321 0.768857
3578 4 0.0487918 0.199873 0.762576
3577 2 0.0720727 0.198438 0.770966
3579 4 0.0953537 0.197002 0.779355
1688 4 0.116238 0.195716 0.781088
1687 2 0.139927 0.199002 0.772264
1689 4 0.163616 0.202288 0.76344
2495 4 0.184289 0.205208 0.765049
2494 2 0.209163 0.205252 0.762436
2496 4 0.234037 0.205296 0.759822
1178 4 0.24538 0.190781 0.761683
1177 2 0.27007 0.194022 0.756168
3594 4 0.344995 0.252119 0.78403
1233 4 0.431963 0.20501 0.757313
694 3 0.399648 0.243483 0.760641
1231 2 0.456144 0.213946 0.762579
1232 4 0.480325 0.222881 0.767845
3476 4 0.484981 0.227937 0.787587
1280 4 0.00370038 0.324127 0.791169
1685 4 0.0202294 0.331945 0.801839
988 2 0.128813 0.309769 0.822532
990 4 0.14687 0.323401 0.808847
3593 4 0.296366 0.254802 0.793348
3592 2 0.320681 0.25346 0.788689
1718 4 0.354681 0.267655 0.793912
1717 2 0.379605 0.275185 0.791485
1719 4 0.404529 0.282715 0.789058
1684 2 0.0295995 0.350899 0.816865
1686 4 0.0389697 0.369853 0.831892
1294 2 0.142389 0.351655 0.775967
1296 4 0.145228 0.336854 0.795435
1295 4 0.139549 0.366456 0.756499
3026 4 0.480001 0.411869 0.799207
3025 2 0.484562 0.416335 0.774907
2282 4 0.0230412 0.473685 0.808098
2281 2 0.0313649 0.498287 0.808938
2304 4 0.00975726 0.457059 0.807365
2643 4 0.0787516 0.44147 0.750096
3615 4 0.318819 0.482892 0.773668
2579 4 0.325308 0.492247 0.790097
3027 4 0.489122 0.420801 0.750608
3235 2 0.352328 0.0564326 0.91426
4489 2 0.353877 0.0144195 0.858966
3236 4 0.365244 0.0719776 0.897683
4491 4 0.334132 0.000260989 0.869882
141 1 0.397983 0.0495305 0.836393
144 3 0.403897 0.0693059 0.848216
145 3 0.393514 0.0320064 0.850842
4490 4 0.373623 0.0285781 0.84805
4208 4 0.41261 0.082584 0.861419
1410 4 0.2545 0.0860345 0.892513
1408 2 0.270149 0.0903812 0.912076
3197 4 0.339274 0.164681 0.90329
1215 4 0.339786 0.152347 0.887003
1213 2 0.36339 0.147255 0.885283
4209 4 0.380898 0.0884888 0.898827
4207 2 0.396754 0.0855364 0.880123
1214 4 0.386994 0.142163 0.883562
1253 4 0.443868 0.150346 0.886937
1842 4 0.43558 0.0800618 0.910761
4719 4 0.486004 0.48627 0.927989
1841 4 0.484817 0.0973783 0.90431
1840 2 0.460199 0.08872 0.907536
1683 4 0.00364765 0.237306 0.909049
3787 2 0.219521 0.250662 0.873983
3788 4 0.19674 0.246407 0.863089
3789 4 0.242302 0.254917 0.884877
1658 4 0.271525 0.169726 0.905912
3198 4 0.290012 0.167796 0.899424
3196 2 0.314643 0.166239 0.901357
2298 4 0.381177 0.205908 0.894284
2296 2 0.370619 0.226409 0.897936