ITEM: TIMESTEP
163500
ITEM: NUMBER OF ATOMS
4800
ITEM: BOX BOUNDS xy xz yz pp pp pp
-9.9985700000000008e+00 1.5397797800000006e+01 5.3992278000000056e+00
-9.9985700000000008e+00 9.9985700000000008e+00 0.0000000000000000e+00
-9.9985700000000008e+00 9.9985700000000008e+00 0.0000000000000000e+00
ITEM: ATOMS id type xs ys zs
405 3 0.0163917 0.0258986 0.0426977
3861 4 0.0282222 0.0166157 0.0281338
3859 2 0.0526106 0.0125672 0.0362647
403 3 0.0057995 0.0556836 0.0655888
1440 4 0.00848389 0.048868 0.0844022
3860 4 0.0769991 0.00851875 0.0443955
984 4 0.0950792 0.0096219 0.0488279
982 2 0.104474 0.0229295 0.0655436
3184 2 0.107189 0.0737639 0.0160259
3185 4 0.117603 0.0772819 0.038018
1330 2 0.131668 0.0720512 0.0693008
3186 4 0.0967739 0.0702459 0.994034
918 4 0.214266 0.0266942 0.0773233
1331 4 0.136564 0.0697868 0.0447713
3790 2 0.385162 0.999053 0.049535
255 3 0.368207 0.00615302 0.149031
3791 4 0.400841 0.00940833 0.0362439
1098 4 0.45054 0.0645232 0.0692267
3029 4 0.26376 0.124142 0.0665372
2137 2 0.300308 0.0879041 0.00169367
2139 4 0.315563 0.101697 0.0103395
1637 4 0.313147 0.112205 0.0260817
1636 2 0.326495 0.121531 0.0430069
1638 4 0.339842 0.130858 0.0599322
44 3 0.351943 0.132466 0.0752107
410 3 0.341008 0.162178 0.079543
45 3 0.384591 0.112208 0.0916003
3536 4 0.418773 0.0943001 0.0176931
3535 2 0.428037 0.103317 0.0378673
3537 4 0.437302 0.112335 0.0580416
3194 4 0.444293 0.127383 0.0659222
1201 2 0.462215 0.136924 0.0321444
1202 4 0.458483 0.134157 0.0565874
956 4 0.466948 0.15054 0.0618173
955 2 0.48309 0.16237 0.0723681
1203 4 0.465948 0.13969 0.00770137
1758 4 0.00249662 0.201806 0.0628913
3213 4 0.0997569 0.177836 0.0492348
3211 2 0.0845754 0.180473 0.0290145
1509 4 0.0738699 0.246417 0.0101109
1716 4 0.504549 0.189978 0.0919024
3212 4 0.0693938 0.183111 0.00879428
408 3 0.350091 0.194233 0.0708514
3200 4 0.400318 0.183978 0.0467175
3179 4 0.340856 0.254948 0.0742194
3199 2 0.41836 0.196756 0.0466079
3201 4 0.436401 0.209534 0.0464982
1733 4 0.438726 0.223214 0.0323716
1732 2 0.462442 0.213575 0.0230715
1734 4 0.486158 0.203936 0.0137714
3264 4 0.492222 0.214284 0.000348704
1406 4 0.0243053 0.308034 0.0465124
1405 2 0.0350322 0.3089 0.068969
763 2 0.0270114 0.323694 0.0166738
765 4 0.011941 0.322787 0.0364173
1128 4 0.0855274 0.255833 0.0203118
1126 2 0.101579 0.269793 0.0264296
1127 4 0.117631 0.283753 0.0325474
1184 4 0.127081 0.288743 0.0492537
1183 2 0.152813 0.283368 0.0518477
1185 4 0.178545 0.277993 0.0544416
1151 4 0.193184 0.283604 0.0656054
1150 2 0.218622 0.280049 0.0619486
834 4 0.322203 0.255944 0.0822003
1152 4 0.24406 0.276494 0.0582917
1209 4 0.256312 0.289218 0.058483
1207 2 0.272893 0.303573 0.0576801
1208 4 0.289475 0.317927 0.0568772
1010 4 0.309264 0.31912 0.061393
3178 2 0.359589 0.265146 0.066503
3410 4 0.371462 0.314868 0.0163476
3180 4 0.378322 0.275344 0.0587865
3155 4 0.397105 0.279991 0.0588928
3154 2 0.413963 0.272617 0.0401901
3156 4 0.43082 0.265244 0.0214873
4034 4 0.0222656 0.36241 0.0248965
4033 2 0.0362075 0.376289 0.0139586
4035 4 0.0501495 0.390169 0.00302067
3243 4 0.00139028 0.362502 0.0252394
447 3 0.0695557 0.387242 0.00913722
938 4 0.14223 0.403665 0.063915
937 2 0.159353 0.416424 0.0701908
777 4 0.168078 0.409516 0.0263997
775 2 0.187969 0.39441 0.0142767
776 4 0.207859 0.379304 0.0021537
1009 2 0.315015 0.337391 0.0747054
3411 4 0.358184 0.364559 0.0107336
3409 2 0.364823 0.339714 0.0135406
2055 4 0.363733 0.383788 0.0557912
2053 2 0.377014 0.388567 0.0360433
2054 4 0.390296 0.393347 0.0162954
790 2 0.420357 0.342386 0.0694633
791 4 0.394612 0.347869 0.0719838
792 4 0.446101 0.336903 0.0669428
1119 4 0.450661 0.345571 0.0497461
767 4 0.40271 0.405964 0.0142656
1117 2 0.472203 0.349457 0.0397613
1118 4 0.493746 0.353342 0.0297765
4086 4 0.0156951 0.458459 0.0728268
4084 2 0.0297704 0.458106 0.0520997
4085 4 0.0438457 0.457753 0.0313726
3209 4 0.0577091 0.466956 0.0248826
3208 2 0.0777069 0.47579 0.018091
3210 4 0.0977048 0.484625 0.0112993
2975 4 0.112847 0.494025 0.0120121
2450 4 0.157573 0.456849 0.491257
939 4 0.176475 0.429183 0.0764666
3527 4 0.151932 0.427601 0.999953
2974 2 0.136835 0.495268 0.00635238
1373 4 0.193275 0.436706 0.079003
3442 2 0.182589 0.451329 0.0098277
3444 4 0.167479 0.435573 0.00842326
3443 4 0.197699 0.467085 0.0112321
1372 2 0.217878 0.437656 0.0815112
3583 2 0.214144 0.48378 0.0382267
1374 4 0.242481 0.438605 0.0840193
3584 4 0.214641 0.465036 0.0223202
744 3 0.254726 0.499116 0.00948085
823 2 0.274441 0.456923 0.067809
825 4 0.2573 0.445126 0.0763445
2992 2 0.331352 0.417545 0.0690991
3327 4 0.308557 0.436118 0.0318497
2993 4 0.322302 0.425888 0.0465299
3325 2 0.306832 0.426918 0.00898402
824 4 0.291581 0.468721 0.0592734
1272 4 0.308565 0.475822 0.0544998
1270 2 0.329858 0.48308 0.0488582
4259 4 0.303766 0.473102 0.00813524
742 3 0.285429 0.469439 0.00534552
1271 4 0.35115 0.490339 0.0432167
1438 2 0.0300848 0.0508255 0.0958755
4488 4 0.0228196 0.0495245 0.161716
4486 2 0.0431094 0.057829 0.15475
1439 4 0.0516856 0.052783 0.107349
983 4 0.113868 0.036237 0.0822594
4487 4 0.0633992 0.0661335 0.147783
3098 4 0.0699437 0.0690014 0.128801
2922 4 0.130949 0.0344486 0.0942059
2920 2 0.147946 0.0366217 0.111848
3097 2 0.09072 0.0742591 0.118559
3099 4 0.111496 0.0795168 0.108318
1332 4 0.126773 0.0743155 0.0938303
2921 4 0.164944 0.0387947 0.129491
380 3 0.159266 0.0520719 0.14544
376 1 0.180336 0.0524571 0.153816
378 3 0.197802 0.0382348 0.141549
377 3 0.182902 0.073845 0.152349
917 4 0.201275 0.0274134 0.12566
916 2 0.207771 0.0270538 0.101492
769 2 0.285659 0.00822434 0.119485
900 4 0.2831 0.0667248 0.154021
2198 4 0.246759 0.00581611 0.137869
771 4 0.30465 0.0136805 0.106195
254 3 0.373474 0.0290414 0.121413
251 1 0.381897 0.00829253 0.131409
253 3 0.404464 0.00589455 0.138633
1936 2 0.471392 0.0563325 0.146728
1938 4 0.476482 0.0441293 0.124978
1097 4 0.472215 0.0627493 0.114485
1096 2 0.461378 0.0636363 0.0918559
2850 4 0.190633 0.0826907 0.136661
2848 2 0.186143 0.0994529 0.118108
2849 4 0.181653 0.116215 0.0995555
3028 2 0.270571 0.140578 0.081654
3030 4 0.277382 0.157014 0.0967708
898 2 0.289214 0.0886205 0.15295
899 4 0.295328 0.110516 0.151879
1110 4 0.311743 0.108095 0.141142
1108 2 0.333289 0.105733 0.127636
1109 4 0.354836 0.103372 0.11413
43 3 0.351957 0.12327 0.112004
41 1 0.364902 0.128885 0.0947494
42 3 0.370744 0.148259 0.100335
3036 4 0.383934 0.151396 0.115335
3034 2 0.402245 0.153876 0.131422
3035 4 0.420555 0.156356 0.147508
3193 2 0.453407 0.12525 0.089326
3984 4 0.435569 0.166395 0.149866
3982 2 0.46094 0.162293 0.1543
3195 4 0.46252 0.123117 0.11273
4224 4 0.478458 0.1073 0.11723
3092 4 0.270635 0.169339 0.112563
3091 2 0.285634 0.184599 0.107387
3093 4 0.300633 0.199859 0.102211
833 4 0.307099 0.216531 0.0990674
407 3 0.317409 0.19491 0.0897204
832 2 0.314651 0.236237 0.0906338
406 1 0.340155 0.183249 0.0867044
409 3 0.351771 0.182329 0.106912
3983 4 0.48631 0.158191 0.158734
957 4 0.499232 0.174201 0.0829189
3992 4 0.0335548 0.311096 0.106906
1407 4 0.0457591 0.309765 0.0914255
3991 2 0.0515303 0.319106 0.119375
3993 4 0.0695059 0.327116 0.131844
905 4 0.197828 0.325472 0.132477
904 2 0.218149 0.322324 0.11711
906 4 0.23847 0.319176 0.101743
3140 4 0.0025101 0.370186 0.15025
3139 2 0.0209988 0.382411 0.15122
3141 4 0.0394875 0.394637 0.15219
831 4 0.0820333 0.336539 0.119404
829 2 0.10592 0.330676 0.129065
830 4 0.129807 0.324813 0.138726
2324 4 0.0556368 0.398113 0.16173
1011 4 0.320765 0.355662 0.0880177
2994 4 0.340402 0.409202 0.0916683
4197 4 0.363296 0.396545 0.156525
1091 4 0.476516 0.479069 0.425458
3986 4 0.0246046 0.444833 0.173916
3985 2 0.0353065 0.458032 0.158184
2102 4 0.0518969 0.485936 0.132943
2101 2 0.0756794 0.474875 0.124555
3987 4 0.0460084 0.47123 0.142453
2103 4 0.0994619 0.463815 0.116167
4708 2 0.274308 0.500993 0.145245
4709 4 0.293945 0.485001 0.133637
4195 2 0.340582 0.413421 0.159794
182 3 0.0629779 0.00839365 0.167554
3192 4 0.0038813 0.0470294 0.167528
17 3 0.996813 0.310298 0.367184
379 3 0.181902 0.0459885 0.176099
3259 2 0.198106 0.0625669 0.209779
3261 4 0.189442 0.0476341 0.194254
3260 4 0.20677 0.0774996 0.225303
1887 4 0.266262 0.0621171 0.162022
1886 4 0.216669 0.0738024 0.176433
1885 2 0.241466 0.0679597 0.169227
1937 4 0.466302 0.0685356 0.168477
1002 4 0.473957 0.0807467 0.179567
1094 4 0.0237282 0.163424 0.177578
3003 4 0.0431164 0.102679 0.183752
3001 2 0.0175262 0.112813 0.183346
2886 4 0.0585406 0.111809 0.189482
2884 2 0.0843503 0.106293 0.187674
2885 4 0.11016 0.100776 0.185867
3101 4 0.126767 0.10765 0.179829
3100 2 0.145321 0.119617 0.177114
3102 4 0.163875 0.131585 0.1744
3164 4 0.179801 0.14014 0.178615
3279 4 0.2139 0.0896961 0.238285
3163 2 0.190251 0.158049 0.187029
3277 2 0.215963 0.113018 0.241657
1884 4 0.394289 0.0903068 0.252001
1882 2 0.40434 0.109875 0.24933
1883 4 0.414391 0.129443 0.24666
1000 2 0.481975 0.0956241 0.195661
1001 4 0.489994 0.110501 0.211754
1244 4 0.498888 0.120815 0.224495
1093 2 0.0404854 0.174218 0.18861
3576 4 0.074794 0.186133 0.191256
1095 4 0.0572426 0.185012 0.199641
3574 2 0.0935368 0.190072 0.205999
3575 4 0.11228 0.194012 0.220743
801 4 0.133018 0.185218 0.223128
799 2 0.148846 0.199479 0.229012
800 4 0.164673 0.213739 0.234895
1205 4 0.106867 0.244534 0.247628
1382 4 0.182943 0.217408 0.226574
3165 4 0.200702 0.175958 0.195443
1381 2 0.199432 0.20219 0.211073
1383 4 0.215922 0.186972 0.195571
2060 4 0.40166 0.232989 0.169441
2059 2 0.377368 0.243 0.177113
1709 4 0.419688 0.234719 0.179924
1708 2 0.424581 0.246265 0.200605
2183 4 0.0244331 0.272719 0.216863
2182 2 0.0482004 0.263665 0.207454
2184 4 0.0719677 0.254611 0.198044
2270 4 0.0845236 0.262629 0.186677
2269 2 0.101012 0.273361 0.198262
28 3 0.114427 0.284769 0.230584
2271 4 0.1175 0.284094 0.209846
3255 4 0.154132 0.277271 0.241749
3253 2 0.174548 0.286424 0.237556
3254 4 0.194963 0.295578 0.233362
861 4 0.204291 0.320552 0.216843
1241 4 0.210257 0.304719 0.227771
1240 2 0.23324 0.295377 0.216851
1242 4 0.256224 0.286035 0.205931
981 4 0.276774 0.283635 0.210753
979 2 0.285363 0.299627 0.196511
980 4 0.293953 0.315619 0.182269
1027 2 0.260334 0.333446 0.252387
2061 4 0.353076 0.25301 0.184786
3674 4 0.362075 0.261443 0.200487
3673 2 0.365912 0.262741 0.225103
416 1 0.411768 0.268703 0.249781
419 3 0.407185 0.286991 0.235504
418 3 0.425191 0.249997 0.238901
1710 4 0.429475 0.25781 0.221286
783 4 0.426321 0.278474 0.226567
781 2 0.433905 0.296546 0.214598
782 4 0.44149 0.314617 0.202628
2046 4 0.460434 0.318621 0.204225
2044 2 0.482835 0.32508 0.204923
2323 2 0.0777523 0.401609 0.170742
2325 4 0.0998678 0.405106 0.179754
859 2 0.183249 0.337324 0.22528
860 4 0.162207 0.354095 0.233717
1029 4 0.283362 0.336342 0.245326
1892 4 0.284178 0.35428 0.238133
3270 4 0.284283 0.40652 0.246435
1891 2 0.30474 0.362814 0.232702
1893 4 0.325303 0.371347 0.227272
2891 4 0.342436 0.377123 0.230955
2890 2 0.365571 0.381534 0.234691
2892 4 0.388707 0.385946 0.238428
3822 4 0.398947 0.401617 0.237692
3820 2 0.421306 0.40696 0.243181
1083 4 0.465756 0.40995 0.197748
1081 2 0.4908 0.406353 0.192024
3821 4 0.443665 0.412303 0.24867
4620 4 0.0125589 0.43346 0.168761
785 4 0.021881 0.432258 0.228917
78 3 0.0162974 0.486157 0.228933
4052 4 0.0430254 0.430268 0.224303
76 1 0.0300621 0.494944 0.243103
4051 2 0.0573353 0.443566 0.212992
4053 4 0.0716453 0.456863 0.201681
4070 4 0.0714854 0.475225 0.200131
4069 2 0.0836557 0.49327 0.197106
4095 4 0.107636 0.421198 0.184122
4093 2 0.125145 0.434457 0.186281
4094 4 0.142654 0.447715 0.18844
2933 4 0.16061 0.452042 0.189956
2932 2 0.169892 0.470827 0.198099
2934 4 0.179174 0.489611 0.206242
3071 4 0.233988 0.449365 0.192711
3070 2 0.240587 0.463136 0.210851
3072 4 0.247187 0.476907 0.228992
4164 4 0.260684 0.485909 0.2379
4196 4 0.317869 0.430298 0.163063
3268 2 0.303109 0.418137 0.243624
3269 4 0.321935 0.429753 0.240814
2151 4 0.0727875 0.0127069 0.270737
2187 4 0.497174 0.432198 0.279176
3953 4 0.0804081 0.0280567 0.273186
3952 2 0.0974472 0.0399216 0.281826
3954 4 0.114486 0.0517864 0.290466
1062 4 0.135121 0.0506483 0.29137
1060 2 0.151261 0.0605177 0.304567
1061 4 0.167402 0.070387 0.317764
929 4 0.369289 0.039154 0.269434
928 2 0.378331 0.0594137 0.267402
930 4 0.387374 0.0796734 0.26537
1876 2 0.464259 0.0122868 0.25588
1877 4 0.462216 0.0267566 0.276186
4244 4 0.468452 0.0425081 0.273544
4243 2 0.48658 0.0551128 0.275189
2901 4 0.0259931 0.100941 0.254653
2899 2 0.0460237 0.10544 0.267046
2900 4 0.0660543 0.10994 0.279438
3278 4 0.218026 0.13634 0.24503
4044 4 0.220543 0.154777 0.252492
4042 2 0.239801 0.166058 0.253141
1163 4 0.422651 0.143943 0.253806
1853 4 0.438648 0.106308 0.335701
1162 2 0.433573 0.15207 0.273482
83 3 0.491816 0.0929169 0.307358
1164 4 0.444494 0.160196 0.293158
826 2 0.463113 0.118021 0.317107
827 4 0.484693 0.111661 0.303316
828 4 0.441532 0.124382 0.330897
1206 4 0.0665165 0.236452 0.272657
1204 2 0.0866916 0.240493 0.260143
4043 4 0.25906 0.17734 0.253789
3147 4 0.240359 0.237366 0.322893
3145 2 0.251413 0.237972 0.300555
3146 4 0.262467 0.238577 0.278217
1055 4 0.275479 0.185467 0.261522
1054 2 0.290612 0.20121 0.262784
1056 4 0.305745 0.216954 0.264046
3294 4 0.319539 0.228497 0.266321
1229 4 0.332616 0.174706 0.330899
3292 2 0.337448 0.240825 0.261611
1228 2 0.352902 0.184483 0.328903
1230 4 0.373188 0.194261 0.326907
888 4 0.393283 0.187033 0.319374
886 2 0.41287 0.197104 0.314256
887 4 0.432457 0.207174 0.309137
439 3 0.445955 0.216397 0.313309
437 3 0.444986 0.246384 0.291799
436 1 0.459198 0.229504 0.304088
440 3 0.475739 0.216852 0.290439
438 3 0.469524 0.238915 0.320948
2156 4 0.0156274 0.316823 0.276413
2155 2 0.0355372 0.327251 0.276454
1157 4 0.0407869 0.334297 0.329578
26 1 0.119571 0.278084 0.252552
27 3 0.10973 0.260878 0.257373
30 3 0.142943 0.27085 0.255302
29 3 0.110502 0.295765 0.266952
932 4 0.230095 0.288277 0.254748
933 4 0.218365 0.311245 0.298823
931 2 0.22423 0.299761 0.276785
891 4 0.237353 0.304312 0.306193
1028 4 0.237305 0.330549 0.259448
889 2 0.244487 0.306838 0.329809
3675 4 0.369749 0.264039 0.249719
3293 4 0.355357 0.253153 0.2569
417 3 0.391136 0.264562 0.256023
420 3 0.423006 0.273102 0.268352
3143 4 0.437328 0.282189 0.276617
3142 2 0.460063 0.286095 0.283249
3144 4 0.482798 0.290002 0.289881
3083 4 0.502915 0.293242 0.293813
2157 4 0.0554471 0.337679 0.276495
3020 4 0.0746887 0.340348 0.282025
3232 2 0.0521008 0.371961 0.31456
3234 4 0.0604617 0.391652 0.307464
3233 4 0.0437399 0.352269 0.321657
1742 4 0.0664434 0.399187 0.290665
3019 2 0.0960729 0.347789 0.277275
1741 2 0.0842585 0.404389 0.275541
3021 4 0.117457 0.355231 0.272525
605 3 0.129228 0.388219 0.301344
602 3 0.135754 0.355455 0.283623
601 1 0.14598 0.370762 0.293039
603 3 0.160573 0.36044 0.31014
1743 4 0.102074 0.409591 0.260417
1848 4 0.156842 0.372049 0.326991
604 3 0.15861 0.378313 0.276722
3866 4 0.178034 0.380697 0.277505
3865 2 0.202203 0.380502 0.270907
360 3 0.269115 0.406061 0.259382
3867 4 0.226372 0.380307 0.264309
358 3 0.242742 0.386162 0.255653
356 1 0.262225 0.388169 0.267201
359 3 0.257374 0.39073 0.289885
357 3 0.279758 0.369035 0.264023
2936 4 0.000103524 0.431642 0.288736
2935 2 0.00839006 0.452334 0.286608
2937 4 0.0166766 0.473027 0.28448
80 3 0.0445826 0.478181 0.254839
3134 4 0.0550268 0.479854 0.272005
3133 2 0.0746872 0.485801 0.283734
3135 4 0.0943476 0.491748 0.295463
4162 2 0.282561 0.47606 0.250503
3965 4 0.319843 0.471058 0.250515
4163 4 0.304438 0.466212 0.263107
3964 2 0.345031 0.465147 0.256313
4275 4 0.368894 0.478447 0.26223
3966 4 0.37022 0.459235 0.262111
4273 2 0.389248 0.48538 0.271347
4274 4 0.409602 0.492313 0.280464
2964 4 0.366899 0.491386 0.324057
2851 2 0.451133 0.496973 0.28411
2853 4 0.476479 0.494534 0.287231
2186 4 0.460176 0.414393 0.258295
2185 2 0.478675 0.423295 0.268736
4305 4 0.496137 0.486042 0.292651
90 3 0.0667941 0.00489386 0.41013
89 3 0.086636 0.00642832 0.378429
1285 2 0.380319 0.000733913 0.403537
2307 4 0.344256 0.00632373 0.420609
1286 4 0.405871 0.997802 0.405402
1099 2 0.433531 0.0114301 0.404717
1100 4 0.445058 0.0269895 0.416366
2737 2 0.49051 0.00580289 0.336606
1800 4 0.0780137 0.161748 0.406867
908 4 0.205458 0.163421 0.38976
4007 4 0.282406 0.148173 0.336818
4006 2 0.297511 0.163966 0.337597
2969 4 0.349884 0.119024 0.336607
2968 2 0.358641 0.13293 0.353198
2970 4 0.367398 0.146836 0.36979
2858 4 0.375975 0.16177 0.370978
1854 4 0.421229 0.11219 0.38277
1852 2 0.429938 0.109249 0.359235
400 3 0.417481 0.154013 0.402895
397 3 0.435539 0.119862 0.390709
2857 2 0.399169 0.162188 0.361934
2859 4 0.422363 0.162605 0.352889
396 1 0.436955 0.13687 0.404984
399 3 0.456315 0.144142 0.399433
1472 4 0.474153 0.141594 0.408238
1471 2 0.493243 0.152947 0.410571
3004 2 0.453707 0.167266 0.353852
3005 4 0.432367 0.168694 0.367419
849 4 0.00636357 0.207842 0.362983
1857 4 0.0263549 0.207437 0.361913
1855 2 0.043921 0.220559 0.359188
1856 4 0.061487 0.23368 0.356462
3474 4 0.0827993 0.226017 0.353953
3472 2 0.1042 0.234032 0.351578
3473 4 0.125601 0.242047 0.349203
1193 4 0.14026 0.247625 0.358629
909 4 0.188055 0.198774 0.355276
907 2 0.196757 0.181098 0.372518
992 4 0.248519 0.228907 0.376007
4008 4 0.312617 0.179758 0.338376
991 2 0.270596 0.23114 0.386294
993 4 0.292673 0.233372 0.396581
3138 4 0.306396 0.215203 0.39836
3136 2 0.321317 0.225099 0.413116
4083 4 0.354535 0.224887 0.42012
3006 4 0.475046 0.165838 0.340285
1016 4 0.485316 0.179481 0.336963
20 3 0.0115142 0.284598 0.39311
1158 4 0.00225721 0.319539 0.351384
1156 2 0.021522 0.326918 0.340481
923 4 0.0808224 0.297172 0.389035
1052 4 0.087634 0.278907 0.398091
922 2 0.0938841 0.299355 0.3682
3153 4 0.111807 0.315999 0.334148
924 4 0.106946 0.301537 0.347366
3151 2 0.13228 0.32357 0.341947
1192 2 0.162167 0.254978 0.359142
843 4 0.163367 0.319538 0.363367
1362 4 0.196021 0.27554 0.358734
1194 4 0.184075 0.262332 0.359656
1361 4 0.241984 0.248097 0.374896
1360 2 0.219002 0.261818 0.366815
890 4 0.251621 0.309363 0.353425
1500 4 0.323261 0.284542 0.400665
1498 2 0.345908 0.289393 0.40593
1499 4 0.368555 0.294244 0.411195
4628 4 0.382021 0.301521 0.420663
1622 4 0.473677 0.254796 0.404889
3356 4 0.487427 0.264487 0.412449
3152 4 0.152754 0.331141 0.349745
841 2 0.175531 0.33482 0.374603
842 4 0.187695 0.350103 0.38584
1846 2 0.166914 0.387484 0.340562
1847 4 0.176986 0.40292 0.354133
1238 4 0.208011 0.342023 0.386252
1140 4 0.171865 0.415092 0.369988
1237 2 0.227638 0.350677 0.378012
1239 4 0.247265 0.359331 0.369772
1020 4 0.365486 0.386836 0.397126
2924 4 0.375634 0.393274 0.411168
1018 2 0.380207 0.374861 0.378423
1019 4 0.394928 0.362885 0.35972
3037 2 0.00666468 0.499924 0.374636
3869 4 0.0112428 0.439245 0.380875
3868 2 0.0352658 0.440093 0.37485
3870 4 0.0592889 0.440941 0.368825
3227 4 0.0761622 0.447404 0.364923
3226 2 0.0897176 0.464556 0.365446
3228 4 0.103273 0.481707 0.36597
4231 2 0.14257 0.49303 0.353031
4232 4 0.121114 0.487537 0.361323
1138 2 0.176542 0.423228 0.39261
1139 4 0.181219 0.431365 0.415231
3215 4 0.461065 0.481407 0.411577
3216 4 0.429983 0.492346 0.371705
3214 2 0.445524 0.486877 0.391641
3365 4 0.312592 0.0537952 0.496083
4512 4 0.367744 0.0502548 0.492252
2449 2 0.132649 0.457417 0.494618
1593 4 0.402408 0.410123 0.459806
3181 2 0.439699 0.0463419 0.4463
3182 4 0.45105 0.0531031 0.466446
3183 4 0.428349 0.0395808 0.426154
2523 4 0.465601 0.0130814 0.490593
1536 4 0.0519438 0.164414 0.471262
1534 2 0.063198 0.163719 0.493673
1799 4 0.065804 0.123663 0.430199
1798 2 0.0719088 0.142706 0.418533
505 3 0.400754 0.091176 0.470141
3251 4 0.372638 0.153994 0.479854
502 3 0.38899 0.100791 0.435264
501 1 0.403896 0.103332 0.451985
504 3 0.39922 0.125805 0.457593
503 3 0.426481 0.0958022 0.444285
3250 2 0.395759 0.155006 0.488622
1572 4 0.434182 0.101835 0.482188
3252 4 0.418879 0.156018 0.497391
398 3 0.438918 0.128824 0.426747
1570 2 0.449832 0.0904853 0.500572
3224 4 0.329985 0.21228 0.495213
3052 2 0.430979 0.333692 0.469409
3137 4 0.336238 0.234996 0.427872
3379 2 0.371361 0.213361 0.489324
4081 2 0.371426 0.237733 0.426877
3381 4 0.392825 0.216411 0.47841
4082 4 0.388317 0.250579 0.433634
388 3 0.400782 0.22853 0.46808
386 1 0.411838 0.244037 0.459981
387 3 0.430075 0.233174 0.44668
1623 4 0.437484 0.236678 0.426902
2995 2 0.483679 0.18595 0.483747
1621 2 0.45558 0.245737 0.415895
2997 4 0.458744 0.194269 0.490165
2594 4 0.0114823 0.311726 0.475618
3686 4 0.0299463 0.312816 0.483266
3685 2 0.0472782 0.322771 0.49446
1051 2 0.097383 0.280484 0.420876
4254 4 0.101898 0.269339 0.457594
1053 4 0.107132 0.282061 0.443661
4252 2 0.107762 0.282256 0.476852
3513 4 0.125079 0.304596 0.486854
3511 2 0.133954 0.324798 0.483435
4253 4 0.113626 0.295174 0.49611
390 3 0.396773 0.259829 0.447628
4627 2 0.399606 0.31214 0.430366
3054 4 0.432885 0.314933 0.453181
4629 4 0.417191 0.322759 0.440068
389 3 0.42033 0.254094 0.477635
3873 4 0.43746 0.261864 0.475036
3871 2 0.451402 0.276784 0.466112
3872 4 0.465344 0.291704 0.457188
3512 4 0.142829 0.345001 0.480015
2925 4 0.397398 0.391724 0.456364
1591 2 0.415843 0.410311 0.48086
3053 4 0.429074 0.35245 0.485636
2923 2 0.386516 0.392499 0.433766
3380 4 0.349896 0.21031 0.500238
2976 4 0.160822 0.49651 0.000692681
743 3 0.249626 0.464202 0.00567896
3074 4 0.213568 0.0138758 0.512699
3108 4 0.200939 0.00933416 0.497796
3073 2 0.232911 0.0209966 0.523756
3075 4 0.252254 0.0281174 0.534813
1284 4 0.268035 0.0322529 0.546035
1282 2 0.288051 0.0389843 0.556191
1283 4 0.308068 0.0457157 0.566348
65 3 0.360744 0.0255881 0.570766
64 3 0.325955 0.0507489 0.571662
61 1 0.349289 0.0467655 0.576868
1480 2 0.373756 0.0094271 0.542187
1482 4 0.372134 0.0299453 0.555929
62 3 0.358359 0.0617752 0.565394
3364 2 0.301055 0.0749814 0.50802
1496 4 0.37681 0.0489871 0.559096
1495 2 0.397559 0.057921 0.56208
1497 4 0.418309 0.0668548 0.565064
39 3 0.435581 0.0721512 0.565807
36 1 0.45805 0.0700416 0.558432
40 3 0.45779 0.0770314 0.536818
38 3 0.470857 0.0479347 0.560139
3800 4 0.128173 0.150355 0.587806
3377 4 0.143609 0.160761 0.586205
3345 4 0.22001 0.132936 0.564403
3343 2 0.229088 0.153177 0.566408
3366 4 0.289518 0.0961675 0.519957
1650 4 0.291659 0.129237 0.569802
494 3 0.286245 0.128554 0.550494
492 3 0.305177 0.0999554 0.528835
491 1 0.30533 0.120775 0.536732
493 3 0.304249 0.135123 0.518711
495 3 0.325187 0.119208 0.548501
953 4 0.320586 0.142439 0.519201
952 2 0.345208 0.141514 0.513698
4511 4 0.346356 0.0959714 0.510387
3437 4 0.377978 0.132042 0.523633
3436 2 0.394619 0.121075 0.541459
3438 4 0.41126 0.110109 0.559284
1428 4 0.427934 0.0939555 0.567563
3114 4 0.374661 0.168084 0.574653
954 4 0.369831 0.140588 0.508195
1571 4 0.465482 0.0791356 0.518956
37 3 0.468119 0.0830712 0.571652
3775 2 0.433281 0.157203 0.534742
3776 4 0.42368 0.166272 0.512567
3777 4 0.442882 0.148134 0.556918
779 4 0.462874 0.143141 0.563927
778 2 0.472745 0.119563 0.571476
780 4 0.482615 0.0959861 0.579026
1535 4 0.0744523 0.163025 0.516083
2942 4 0.0885857 0.170553 0.526861
2941 2 0.101122 0.187343 0.519657
2554 2 0.107342 0.207467 0.583317
2943 4 0.113659 0.204134 0.512454
519 3 0.120655 0.242518 0.539857
2555 4 0.129039 0.197097 0.570648
518 3 0.127961 0.208112 0.523836
517 3 0.134027 0.21158 0.5606
516 1 0.135133 0.220994 0.539931
520 3 0.157355 0.221619 0.535818
3507 4 0.16786 0.235722 0.536215
3505 2 0.190366 0.241988 0.535582
3344 4 0.238165 0.173418 0.568413
3671 4 0.247271 0.175952 0.552002
3670 2 0.260408 0.187826 0.537268
1574 4 0.24697 0.23069 0.589542
3672 4 0.273544 0.199701 0.522533
3225 4 0.283702 0.212333 0.514184
761 4 0.275218 0.250556 0.511966
760 2 0.253942 0.248195 0.523774
2163 4 0.450044 0.497581 0.930264
1698 4 0.0857654 0.31008 0.587846
2829 4 0.110592 0.262831 0.537567
2828 4 0.0955444 0.299482 0.571196
2827 2 0.103068 0.281156 0.554382
3506 4 0.212872 0.248254 0.53495
762 4 0.232667 0.245834 0.535581
3281 4 0.294927 0.249043 0.514304
3280 2 0.311188 0.258673 0.527598
4599 4 0.395475 0.2544 0.51815
3282 4 0.327449 0.268303 0.540891
4598 4 0.347368 0.265993 0.53668
4597 2 0.371421 0.260197 0.527415
4240 2 0.364365 0.30883 0.578168
4241 4 0.353794 0.289975 0.583104
4242 4 0.374936 0.327686 0.573232
3125 4 0.469558 0.303943 0.549426
3124 2 0.492384 0.309527 0.548057
3384 4 0.99972 0.413348 0.579451
3687 4 0.0646101 0.332726 0.505653
4509 4 0.0191409 0.416465 0.57992
3756 4 0.0730119 0.346721 0.514486
2844 4 0.0832692 0.41826 0.522535
3754 2 0.0848089 0.362205 0.525895
3755 4 0.0966058 0.377689 0.537303
1538 4 0.116074 0.3799 0.541986
1537 2 0.141001 0.367516 0.53954
1539 4 0.165928 0.355132 0.537095
1356 4 0.274224 0.410828 0.559221
1354 2 0.283515 0.398496 0.580139
3485 4 0.285676 0.416299 0.543732
3484 2 0.308694 0.408874 0.532397
3486 4 0.331712 0.401449 0.521061
902 4 0.352646 0.393918 0.519429
901 2 0.368101 0.38437 0.538617
1107 4 0.377113 0.373743 0.576468
903 4 0.383556 0.374823 0.557806
2842 2 0.0872289 0.440187 0.515696
2843 4 0.0911886 0.462115 0.508856
2451 4 0.107726 0.457986 0.497979
4767 4 0.123923 0.473996 0.576589
2898 4 0.13048 0.456825 0.564982
2896 2 0.154463 0.448139 0.555952
2897 4 0.178446 0.439453 0.546923
3636 4 0.195317 0.493257 0.558508
3542 4 0.429025 0.429508 0.509976
3543 4 0.476025 0.437955 0.510904
4373 4 0.487813 0.448329 0.520511
3541 2 0.452525 0.433732 0.51044
63 3 0.351959 0.0496549 0.599631
1533 4 0.364807 0.0572302 0.612706
1531 2 0.387617 0.0520081 0.624535
1532 4 0.410427 0.046786 0.636365
2495 4 0.429167 0.0491487 0.63943
2494 2 0.43763 0.0660652 0.652439
2496 4 0.446093 0.0829818 0.665448
4032 4 0.0100389 0.104754 0.597532
3766 2 0.0457817 0.123502 0.592015
3767 4 0.0270253 0.111596 0.592866
3768 4 0.0645381 0.135408 0.591165
3801 4 0.0841732 0.136014 0.589646
3799 2 0.106173 0.143185 0.588726
1649 4 0.274262 0.159355 0.608632
1648 2 0.28296 0.144296 0.589217
3328 2 0.333901 0.126029 0.656825
3330 4 0.34731 0.132151 0.63783
3564 4 0.367862 0.128603 0.642657
3562 2 0.389213 0.132115 0.631906
1426 2 0.421556 0.106246 0.589122
3563 4 0.410564 0.135627 0.621155
1427 4 0.415177 0.118537 0.61068
2266 2 0.0212957 0.209695 0.652847
1667 4 0.0347832 0.197349 0.600469
2556 4 0.0856447 0.217838 0.595987
2267 4 0.0441703 0.215239 0.653529
1666 2 0.051407 0.210644 0.594156
1668 4 0.0680307 0.223938 0.587842
3494 4 0.0564601 0.227526 0.655458
3493 2 0.0777315 0.235918 0.654588
3376 2 0.162682 0.172232 0.584752
3378 4 0.181754 0.183703 0.583299
2984 4 0.230463 0.222873 0.583776
2983 2 0.212457 0.210066 0.584475
2985 4 0.194451 0.19726 0.585174
3802 2 0.20078 0.23599 0.650062
3804 4 0.193309 0.251377 0.630634
4409 4 0.280323 0.174861 0.599757
3660 4 0.297082 0.241316 0.666611
4408 2 0.287349 0.193473 0.611313
4410 4 0.294374 0.212086 0.622868
1573 2 0.265322 0.243103 0.589228
3113 4 0.416453 0.161854 0.603861
3112 2 0.395557 0.164969 0.589257
3363 4 0.431416 0.171113 0.610653
3361 2 0.446275 0.181585 0.624891
3362 4 0.461134 0.192057 0.639128
4602 4 0.475162 0.200535 0.643285
4600 2 0.495195 0.209694 0.649179
1697 4 0.0679922 0.279239 0.617314
1696 2 0.0768788 0.294659 0.60258
3495 4 0.0990029 0.24431 0.653719
1660 2 0.138286 0.250946 0.667749
1661 4 0.159026 0.258108 0.675482
1662 4 0.117547 0.243784 0.660016
1145 4 0.268288 0.310576 0.598888
1575 4 0.283673 0.255516 0.588913
1144 2 0.286219 0.323207 0.602086
1613 4 0.29818 0.265908 0.586308
1146 4 0.304149 0.335838 0.605284
1612 2 0.320491 0.272166 0.58947
1614 4 0.342802 0.278424 0.592632
3129 4 0.0112264 0.36413 0.6682
3127 2 0.0151585 0.38584 0.660586
3128 4 0.0190907 0.407549 0.652972
4614 4 0.115749 0.406834 0.659702
1616 4 0.29611 0.358296 0.654895
1290 4 0.236347 0.399092 0.586505
1288 2 0.240224 0.375137 0.593185
1289 4 0.244102 0.351182 0.599865
1615 2 0.272642 0.355701 0.660757
1617 4 0.249175 0.353107 0.666618
165 3 0.298645 0.349371 0.619253
1355 4 0.292806 0.386163 0.601056
163 3 0.30489 0.383593 0.61666
161 1 0.312807 0.362289 0.625596
164 3 0.335254 0.352661 0.6184
162 3 0.31277 0.363854 0.648543
1106 4 0.351607 0.359538 0.614389
1105 2 0.36436 0.36664 0.595428
1601 4 0.487102 0.408012 0.654907
1600 2 0.472178 0.393112 0.661554
4507 2 0.0190674 0.430271 0.600444
4508 4 0.0189939 0.444077 0.620968
4613 4 0.0940357 0.430433 0.618368
4612 2 0.104893 0.418633 0.639035
4765 2 0.129225 0.479884 0.599892
4766 4 0.134526 0.485772 0.623194
3313 2 0.173484 0.492863 0.641121
3314 4 0.195448 0.477452 0.649532
3027 4 0.430715 0.492847 0.608676
3368 4 0.425071 0.47659 0.615626
3367 2 0.42685 0.461277 0.635251
4106 4 0.997985 0.322234 0.913563
3369 4 0.42863 0.445964 0.654876
160 3 0.488735 0.448616 0.631006
3122 4 0.496011 0.443281 0.912943
1629 4 0.368788 0.0661313 0.717976
1627 2 0.394388 0.05606 0.717522
1628 4 0.419988 0.0459888 0.717069
1494 4 0.432935 0.0558334 0.709815
1137 4 0.447912 0.0055547 0.735878
1492 2 0.440316 0.0751431 0.719495
1135 2 0.467987 0.015669 0.734209
1136 4 0.488061 0.0257833 0.732539
3705 4 0.228188 0.120166 0.730925
3703 2 0.227538 0.143512 0.737866
3704 4 0.226889 0.166858 0.744806
465 3 0.356816 0.0822092 0.707338
3708 4 0.313925 0.125112 0.695252
3480 4 0.316481 0.146646 0.734874
3478 2 0.336077 0.146068 0.750589
3329 4 0.320491 0.119908 0.675821
463 3 0.333215 0.116866 0.703645
461 1 0.353929 0.104179 0.712507
3706 2 0.295953 0.146916 0.697185
462 3 0.353328 0.106643 0.735378
464 3 0.37228 0.111543 0.704112
1326 4 0.370373 0.097912 0.745348
1737 4 0.387441 0.116976 0.695215
1735 2 0.398021 0.130477 0.710726
1736 4 0.408601 0.143977 0.726236
1376 4 0.407425 0.151158 0.74312
1493 4 0.447697 0.0944529 0.729174
944 4 0.457272 0.105687 0.718915
943 2 0.475529 0.106922 0.735589
945 4 0.493787 0.108157 0.752264
2801 4 0.108838 0.183638 0.7351
2800 2 0.104447 0.164232 0.747585
3608 4 0.111076 0.189894 0.716762
3607 2 0.124605 0.197219 0.698567
3609 4 0.138134 0.204544 0.680372
2780 4 0.153267 0.204655 0.692582
2779 2 0.176009 0.205634 0.682839
3803 4 0.208251 0.220604 0.66949
2781 4 0.198751 0.206613 0.673097
3711 4 0.226852 0.181336 0.731783
3709 2 0.244878 0.18353 0.715237
3710 4 0.262903 0.185724 0.698692
3707 4 0.277982 0.168719 0.699118
3346 2 0.286118 0.237909 0.740111
3658 2 0.274145 0.252005 0.677044
3347 4 0.267617 0.228416 0.749671