ITEM: TIMESTEP
876500
ITEM: NUMBER OF ATOMS
4590
ITEM: BOX BOUNDS xy xz yz pp pp pp
-1.9397225800000001e+01 9.9985700000000008e+00 -9.3986558000000002e+00
-9.9985700000000008e+00 9.9985700000000008e+00 0.0000000000000000e+00
-9.9985700000000008e+00 9.9985700000000008e+00 0.0000000000000000e+00
ITEM: ATOMS id type xs ys zs
1662 4 0.0677039 0.0253666 0.0356289
1660 2 0.0770489 0.0265418 0.0122517
284 4 0.137296 0.0800039 0.0742551
2767 2 0.359691 0.0742886 0.0693461
624 4 0.341282 0.00707533 0.070102
2769 4 0.348481 0.0493728 0.0713771
4025 4 0.355783 0.0228109 0.0613071
4024 2 0.366618 0.0167013 0.0413071
4026 4 0.377452 0.0105916 0.0213072
2523 4 0.399004 0.0160634 0.0265058
1437 4 0.443286 0.051804 0.0809795
2521 2 0.424564 0.018248 0.0222015
3545 4 0.456583 0.0704775 0.0828704
2522 4 0.450124 0.0204326 0.0178973
4506 4 0.460178 0.0304511 0.00205754
2793 4 0.492345 0.0208402 0.0558038
2554 2 0.00271475 0.122624 0.0353921
2555 4 0.0253734 0.130785 0.0496848
2969 4 0.04467 0.14529 0.056097
285 4 0.117143 0.114271 0.0776795
283 2 0.127219 0.0971376 0.0759673
3984 4 0.170917 0.145938 0.00551746
3982 2 0.193846 0.151933 0.019111
251 4 0.121884 0.131867 0.0675297
3983 4 0.216775 0.157928 0.0327045
837 4 0.225291 0.165541 0.0502616
2768 4 0.370901 0.0992045 0.067315
1006 2 0.388977 0.137051 0.0764557
1007 4 0.402536 0.161634 0.0723464
739 2 0.491823 0.158497 0.0287572
740 4 0.480894 0.157915 0.00614545
300 4 0.460253 0.141835 0.00869435
2161 2 0.0119193 0.247943 0.0153985
3557 4 0.00209984 0.213378 0.0749377
2968 2 0.0639167 0.168826 0.0540413
2941 2 0.106084 0.231059 0.0681858
2970 4 0.0831634 0.192363 0.0519856
2943 4 0.0958681 0.206252 0.065405
2974 2 0.221486 0.212459 0.999489
2976 4 0.247909 0.223054 0.00677525
835 2 0.248648 0.186102 0.0541258
836 4 0.272005 0.206663 0.05799
2622 4 0.386984 0.171591 0.00346832
1587 4 0.375008 0.182095 0.00757584
2620 2 0.409853 0.172302 0.0142791
2621 4 0.432722 0.173014 0.0250899
782 4 0.448447 0.183032 0.0384609
781 2 0.46892 0.203035 0.0485856
783 4 0.489393 0.223037 0.0587103
2162 4 0.0335736 0.268187 0.0236455
2828 4 0.0496322 0.278825 0.0107004
2827 2 0.0762001 0.293459 0.00586876
3102 4 0.125219 0.317244 0.00564674
2528 4 0.1283 0.327753 0.0709132
2829 4 0.102768 0.308093 0.00103715
2942 4 0.1163 0.255865 0.0709667
3100 2 0.148223 0.313703 0.00362347
2527 2 0.151073 0.323994 0.0738844
3101 4 0.171228 0.310162 0.00160021
2529 4 0.173846 0.320234 0.0768555
2579 4 0.19434 0.334494 0.0725044
3919 2 0.217359 0.328281 0.00923327
3283 2 0.234941 0.316111 0.0568795
3285 4 0.24643 0.326517 0.0351226
3284 4 0.223453 0.305704 0.0786365
157 3 0.266741 0.328819 0.0387377
159 3 0.286406 0.327365 0.00717123
1825 2 0.285176 0.256906 0.0143826
1826 4 0.305264 0.274382 0.0277532
3909 4 0.324026 0.290847 0.0301352
3907 2 0.347158 0.294052 0.0422694
3908 4 0.37029 0.297257 0.0544035
611 4 0.387204 0.304875 0.0126478
610 2 0.402514 0.294456 0.00224052
1156 2 0.423252 0.256825 0.0118419
1157 4 0.432472 0.249078 0.0318363
1290 4 0.0193777 0.372209 0.0677199
524 4 0.0324672 0.361623 0.0693232
523 2 0.0576373 0.363373 0.0747385
906 4 0.0612737 0.392177 0.0261296
525 4 0.0828074 0.365124 0.0801537
904 2 0.0761267 0.380062 0.01863
905 4 0.0909798 0.367948 0.0111304
3005 4 0.0985303 0.354072 0.0164819
3148 2 0.124908 0.389706 0.0782511
3004 2 0.123152 0.354069 0.0121371
3150 4 0.148046 0.405986 0.0672826
4277 4 0.167568 0.409908 0.060562
3006 4 0.147775 0.354067 0.00779223
4276 2 0.186707 0.405183 0.0726702
3212 4 0.169509 0.361368 0.00774914
3211 2 0.195877 0.367467 0.0137195
3213 4 0.222246 0.373566 0.0196898
3920 4 0.241781 0.337639 0.020923
4088 4 0.242119 0.377627 0.0271583
4087 2 0.264349 0.381766 0.0411796
4089 4 0.286579 0.385905 0.0552009
160 3 0.254956 0.337543 0.00611173
156 1 0.274738 0.33867 0.0182252
158 3 0.291196 0.360841 0.0214522
323 4 0.362704 0.3732 0.0451918
324 4 0.31327 0.365626 0.0267812
322 2 0.337987 0.369413 0.0359865
282 4 0.394344 0.407418 0.04973
354 4 0.380138 0.413679 0.0392619
280 2 0.407515 0.396347 0.0368852
281 4 0.420686 0.385276 0.0240404
2903 4 0.436297 0.378374 0.0261415
2902 2 0.446567 0.388549 0.00397092
2287 2 0.470663 0.345205 0.0748566
2289 4 0.48326 0.368445 0.0657853
4256 4 0.302873 0.426965 0.0798153
4255 2 0.324286 0.443717 0.0671176
3744 4 0.282233 0.424067 0.0855699
4257 4 0.3457 0.460468 0.0544199
703 2 0.360746 0.482697 0.0264949
704 4 0.35026 0.45891 0.0341704
353 4 0.354576 0.434375 0.010503
352 2 0.367357 0.424027 0.0248825
647 4 0.494859 0.47529 0.0613518
646 2 0.472062 0.465631 0.0472606
648 4 0.449265 0.455973 0.0331694
3518 4 0.487021 0.474056 0.0801787
1285 2 0.00119137 0.0216192 0.101514
1287 4 0.023698 0.0174103 0.0986937
2729 4 0.0636911 0.00714081 0.157969
2606 4 0.161991 0.059593 0.15172
1572 4 0.166069 0.00573161 0.163165
405 4 0.332 0.0336443 0.135315
403 2 0.355928 0.0540683 0.136978
404 4 0.379855 0.0744924 0.13864
1436 4 0.432384 0.0171744 0.116653
1435 2 0.437835 0.0344892 0.0988164
653 4 0.450019 0.0297609 0.12571
652 2 0.469325 0.0265099 0.139146
654 4 0.488632 0.0232589 0.152581
660 4 0.00405346 0.126269 0.0945615
3216 4 0.025175 0.13516 0.0974666
707 4 0.0340785 0.15647 0.16292
3214 2 0.0512873 0.139925 0.103176
3215 4 0.0773996 0.144691 0.108885
252 4 0.0984079 0.145893 0.104944
250 2 0.110146 0.13888 0.0862371
761 4 0.148473 0.149261 0.163647
1008 4 0.375418 0.112469 0.0805651
3544 2 0.480327 0.0908923 0.0857392
4076 4 0.0126864 0.186091 0.15422
236 4 0.0323046 0.187008 0.153338
235 2 0.05978 0.199951 0.153126
237 4 0.0872554 0.212894 0.152914
1764 4 0.108841 0.21554 0.153953
1762 2 0.132504 0.219768 0.165678
245 4 0.448682 0.227694 0.153057
246 4 0.470465 0.209738 0.11749
244 2 0.459574 0.218716 0.135273
959 4 0.0131691 0.307062 0.0998668
958 2 0.0218893 0.311026 0.123583
960 4 0.0306096 0.31499 0.147299
3107 4 0.0513393 0.269496 0.116462
3106 2 0.0627852 0.268343 0.138374
3108 4 0.0742312 0.26719 0.160286
307 2 0.227819 0.301427 0.115569
309 4 0.235049 0.31 0.138838
308 4 0.220589 0.292854 0.0923007
2718 4 0.249584 0.328662 0.140321
2716 2 0.266981 0.332901 0.159554
2288 4 0.458066 0.321966 0.0839278
619 2 0.427968 0.2564 0.152291
621 4 0.444012 0.268312 0.132947
3149 4 0.10177 0.373425 0.0892197
3743 4 0.227736 0.409647 0.089527
2780 4 0.187486 0.412555 0.119885
4278 4 0.205846 0.400458 0.0847784
2779 2 0.208847 0.408438 0.127981
2578 2 0.216458 0.349579 0.0856109
2781 4 0.230208 0.404321 0.136076
2580 4 0.238576 0.364664 0.0987175
326 4 0.244939 0.379673 0.1121
325 2 0.268727 0.379948 0.120186
327 4 0.292515 0.380223 0.128272
3819 4 0.458657 0.403633 0.131656
286 2 0.0239631 0.429302 0.116855
288 4 0.0515376 0.440948 0.115794
854 4 0.0747589 0.447688 0.117762
853 2 0.10228 0.45926 0.119674
855 4 0.129801 0.470833 0.121586
1310 4 0.151067 0.481966 0.126506
1309 2 0.177168 0.489519 0.134224
1311 4 0.20327 0.497072 0.141943
3742 2 0.254984 0.416857 0.0875485
4161 4 0.224983 0.501239 0.137504
3594 4 0.251315 0.415812 0.130563
1559 4 0.196356 0.427702 0.164016
3592 2 0.268999 0.436664 0.141887
3593 4 0.286683 0.457517 0.153211
3542 4 0.305198 0.455389 0.146571
3541 2 0.331586 0.46879 0.153054
3543 4 0.357973 0.482191 0.159537
410 4 0.379662 0.486141 0.16101
3519 4 0.493284 0.496827 0.124478
3517 2 0.490153 0.485442 0.102328
3817 2 0.48461 0.421323 0.130601
1407 4 0.0872583 0.0772622 0.2399
2646 4 0.0174315 0.0546392 0.240817
2644 2 0.0443029 0.0672091 0.235553
2645 4 0.0711744 0.0797791 0.230289
1571 4 0.116984 0.00200332 0.178865
2728 2 0.086343 0.0119096 0.171602
2730 4 0.108995 0.0166783 0.185235
1405 2 0.11297 0.0788886 0.23949
1406 4 0.138681 0.080515 0.23908
2605 2 0.183426 0.0670759 0.167472
1570 2 0.141527 0.00386747 0.171015
3554 4 0.153467 0.00556316 0.219848
3553 2 0.158853 0.0119786 0.243898
2607 4 0.204861 0.0745588 0.183224
3587 4 0.22686 0.0818489 0.179619
529 2 0.290451 0.0707735 0.21411
530 4 0.286998 0.085925 0.197264
531 4 0.293905 0.055622 0.230956
693 4 0.488936 0.0061714 0.234874
706 2 0.0502514 0.147582 0.174411
708 4 0.0664243 0.138694 0.185902
55 3 0.0619537 0.135239 0.204716
53 3 0.0945577 0.162079 0.221971
52 3 0.071439 0.129886 0.239648
51 1 0.080904 0.13922 0.219246
54 3 0.0959724 0.129638 0.211276
762 4 0.104154 0.138191 0.19277
760 2 0.126313 0.143726 0.178209
642 4 0.167232 0.164573 0.168317
587 4 0.161051 0.0926688 0.236165
381 4 0.18631 0.117047 0.203002
586 2 0.181485 0.0871256 0.244143
379 2 0.213124 0.122097 0.204523
380 4 0.239939 0.127147 0.206044
488 4 0.261812 0.135852 0.207497
3586 2 0.254051 0.0903205 0.18346
487 2 0.288283 0.141716 0.212829
3588 4 0.281242 0.0987922 0.1873
489 4 0.314753 0.14758 0.218161
1463 4 0.326582 0.159572 0.201902
12 3 0.428853 0.166037 0.215967
712 2 0.0474199 0.247175 0.249192
1763 4 0.156166 0.223996 0.177403
640 2 0.192542 0.170638 0.177482
933 4 0.217796 0.21919 0.201201
932 4 0.176045 0.224817 0.178882
931 2 0.196921 0.222003 0.190042
641 4 0.217852 0.176704 0.186647
517 2 0.239769 0.221211 0.233433
518 4 0.236084 0.218719 0.208681
1462 2 0.353001 0.167842 0.208912
512 4 0.458895 0.240968 0.168494
1464 4 0.379419 0.176112 0.215922
15 3 0.399123 0.177431 0.221631
511 2 0.450853 0.2307 0.191064
513 4 0.442812 0.220432 0.213635
11 1 0.422632 0.181099 0.227164
14 3 0.438951 0.202599 0.221035
13 3 0.424236 0.178201 0.249994
620 4 0.411925 0.244489 0.171635
493 2 0.00385837 0.330266 0.223224
495 4 0.0251015 0.331811 0.209016
735 4 0.067845 0.275888 0.173941
734 4 0.0576243 0.257143 0.22028
714 4 0.0663548 0.266473 0.236723
733 2 0.0627346 0.266516 0.19711
3633 4 0.11592 0.281625 0.234097
3631 2 0.132277 0.306023 0.231648
3632 4 0.148634 0.330422 0.229199
2459 4 0.340832 0.32958 0.201432
2460 4 0.299684 0.330077 0.17336
2458 2 0.320258 0.329829 0.187396
4511 4 0.357606 0.323953 0.205001
4510 2 0.363525 0.321852 0.22894
269 4 0.0623074 0.414583 0.220373
268 2 0.0587432 0.392405 0.211085
1512 4 0.0386103 0.341195 0.223665
270 4 0.0551789 0.370227 0.201798
1510 2 0.0646549 0.348364 0.231388
1511 4 0.0906995 0.355533 0.23911
417 4 0.113357 0.367774 0.238053
2615 4 0.168732 0.345699 0.231214
2614 2 0.194881 0.362046 0.227096
2616 4 0.221031 0.378393 0.222977
145 3 0.242662 0.392987 0.223717
141 1 0.252482 0.413553 0.213937
143 3 0.246077 0.411681 0.191478
2717 4 0.284378 0.337139 0.178787
1047 4 0.307826 0.408987 0.191942
334 2 0.39067 0.398996 0.194503
335 4 0.368432 0.401317 0.185811
1046 4 0.349011 0.394959 0.19655
1045 2 0.328418 0.401973 0.194246
336 4 0.412908 0.396675 0.203196
2966 4 0.43313 0.400183 0.199897
2965 2 0.453741 0.395932 0.1901
738 4 0.494647 0.39715 0.189986
2967 4 0.474351 0.391682 0.180304
3596 4 0.0396325 0.435999 0.181844
3785 4 0.0257 0.443026 0.175164
3784 2 0.000586183 0.427406 0.183247
262 2 0.0369904 0.419021 0.245227
264 4 0.0610825 0.426984 0.233075
2784 4 0.11222 0.455106 0.172973
3597 4 0.0939907 0.449097 0.184247
3595 2 0.0668116 0.442548 0.183045
1558 2 0.18408 0.441695 0.172613
1560 4 0.171804 0.455689 0.181211
2783 4 0.152123 0.440646 0.1835
2782 2 0.132171 0.447876 0.178237
142 3 0.243283 0.426994 0.224316
144 3 0.278003 0.423219 0.216155
4585 2 0.325519 0.443873 0.225582
4587 4 0.298845 0.431344 0.219565
4586 4 0.352192 0.456403 0.231599
3905 4 0.395396 0.429197 0.223731
3904 2 0.384016 0.445288 0.226455
3906 4 0.372635 0.461379 0.229178
3384 4 0.0384698 0.0129598 0.289163
1404 4 0.0193057 0.00863872 0.280845
3061 2 0.0406398 0.0624084 0.326058
3063 4 0.0236482 0.0623504 0.30769
3382 2 0.0629263 0.0163547 0.298704
682 2 0.130898 0.0485166 0.296216
683 4 0.108788 0.033579 0.309421
3383 4 0.0873829 0.0197495 0.308245
684 4 0.153008 0.0634543 0.283011
588 4 0.201918 0.0815824 0.252122
2714 4 0.215911 0.0662251 0.305673
366 4 0.229209 0.0803557 0.318038
2713 2 0.199197 0.0470302 0.291618
3555 4 0.164239 0.018394 0.267949
2715 4 0.182482 0.0278354 0.277562
297 4 0.371952 0.0446914 0.326202
2126 4 0.404307 0.0040734 0.308236
1356 4 0.441184 0.054641 0.309336
296 4 0.423122 0.0572264 0.309071
295 2 0.397537 0.0509589 0.317637
1354 2 0.459071 0.0479124 0.321033
3269 4 0.0433191 0.130514 0.326972
3268 2 0.0385442 0.124887 0.302703
3270 4 0.0337693 0.11926 0.278434
2535 4 0.0410276 0.156636 0.269895
364 2 0.252241 0.101596 0.319983
2512 2 0.244637 0.102362 0.261099
2514 4 0.218585 0.0875829 0.267559
2470 2 0.314779 0.120357 0.267842
2472 4 0.290222 0.113913 0.256879
2513 4 0.270689 0.117142 0.254639
365 4 0.275272 0.122837 0.321928
664 2 0.387061 0.154116 0.27307
666 4 0.361286 0.142695 0.281917
2471 4 0.339336 0.126802 0.278805
665 4 0.412837 0.165537 0.264222
713 4 0.0284851 0.227878 0.261661
3237 4 0.0172276 0.207776 0.263025
2674 2 0.14058 0.202591 0.283761
2675 4 0.112977 0.192782 0.283215
2534 4 0.092286 0.190208 0.280615
2533 2 0.0666568 0.173422 0.275255
1866 4 0.22854 0.23074 0.26547
1864 2 0.207083 0.228159 0.279916
1865 4 0.185626 0.225578 0.294362
2676 4 0.168183 0.212401 0.284307
519 4 0.243455 0.223704 0.258185
2601 4 0.111721 0.314589 0.305693
2652 4 0.10723 0.327143 0.317229
2600 4 0.165941 0.33016 0.298045
2599 2 0.138831 0.322375 0.301869
2993 4 0.344706 0.306483 0.313375
2994 4 0.36435 0.305922 0.267505
2992 2 0.354528 0.306202 0.29044
4512 4 0.369444 0.319751 0.252879
597 4 0.00341269 0.363954 0.317332
263 4 0.0128983 0.411057 0.257379
3222 4 0.0884244 0.401918 0.322151
107 3 0.0468651 0.371967 0.29019
108 3 0.0666104 0.395086 0.318462
106 1 0.0449995 0.386304 0.305988
109 3 0.041636 0.403393 0.295195
110 3 0.0253694 0.374833 0.319565
415 2 0.124627 0.380773 0.258779
416 4 0.135898 0.393772 0.279505
3221 4 0.131477 0.402756 0.296068
3220 2 0.10995 0.402337 0.30911
2650 2 0.0916468 0.333113 0.333083
1756 2 0.207273 0.336339 0.312396
1758 4 0.182534 0.336717 0.310342
1757 4 0.232011 0.33596 0.31445
3898 2 0.277768 0.355154 0.300338
3900 4 0.250871 0.347583 0.305155
2515 2 0.327282 0.407676 0.321636
3060 4 0.378552 0.385797 0.307359
3058 2 0.351036 0.374715 0.305184
3059 4 0.323519 0.363633 0.303008
3899 4 0.304664 0.362724 0.29552
2658 4 0.445217 0.392505 0.323195
2656 2 0.418346 0.387355 0.322267
2657 4 0.391476 0.382205 0.321338
1861 2 0.488221 0.408915 0.332084
2562 4 0.243526 0.501317 0.288562
2629 2 0.23392 0.466575 0.334152
1401 4 0.267248 0.48461 0.309527
2631 4 0.259843 0.474716 0.325745
1414 2 0.335732 0.456917 0.296939
1415 4 0.323715 0.471294 0.288813
1400 4 0.303727 0.467966 0.29337
1399 2 0.285488 0.476288 0.301448
2516 4 0.336319 0.423352 0.302228
3628 2 0.42302 0.464644 0.315009
3629 4 0.397386 0.447677 0.320054
1416 4 0.347748 0.44254 0.305064
4179 4 0.492932 0.466001 0.283662
4178 4 0.466024 0.493177 0.297357
3630 4 0.448654 0.481611 0.309963
4177 2 0.479478 0.479589 0.29051
2694 4 0.498751 0.423447 0.269166
3062 4 0.0576313 0.0624665 0.344426
3872 4 0.331616 0.0061214 0.38151
398 4 0.403611 0.0667573 0.403697
1797 4 0.496702 0.0433005 0.340088
1355 4 0.476958 0.0411838 0.332729
2490 4 0.0337453 0.117926 0.368259
1601 4 0.0202398 0.0968809 0.36821
581 4 0.0937418 0.119492 0.376158
2489 4 0.0885944 0.135526 0.372905
2488 2 0.0611699 0.126726 0.370582
582 4 0.147029 0.128114 0.374639
580 2 0.120386 0.123803 0.375399
2671 2 0.998963 0.192979 0.363323
3376 2 0.0633494 0.21349 0.347917
3377 4 0.0358503 0.201125 0.346521
2672 4 0.0232278 0.208763 0.353719
3378 4 0.0908485 0.225854 0.349312
2677 2 0.128386 0.241557 0.334291
2679 4 0.102471 0.223794 0.333248
2612 4 0.195292 0.176316 0.387879
2611 2 0.178046 0.180531 0.403299
2613 4 0.1608 0.184745 0.418718
1742 4 0.275368 0.190552 0.40539
2697 4 0.290677 0.202046 0.418321
2655 4 0.236043 0.192735 0.349141
2653 2 0.225712 0.184556 0.371861
2654 4 0.21538 0.176377 0.394581
2696 4 0.33509 0.209593 0.390505
2695 2 0.312883 0.205819 0.404413
2678 4 0.154301 0.259321 0.335335
1696 2 0.166529 0.334432 0.388292
1697 4 0.143677 0.330339 0.401348
721 2 0.285899 0.329301 0.381162
3805 2 0.223908 0.332953 0.384507
3806 4 0.248394 0.333247 0.378827
723 4 0.306212 0.323668 0.373023
575 4 0.476023 0.267061 0.412578
2812 2 0.0658201 0.360957 0.359316
2814 4 0.0740363 0.38572 0.358815
2813 4 0.0576038 0.336194 0.359817
2651 4 0.0760636 0.339084 0.348937
1362 4 0.23437 0.410919 0.381041
3807 4 0.199422 0.33266 0.390187
1698 4 0.189382 0.338525 0.375237
722 4 0.265586 0.334935 0.389302
2801 4 0.290852 0.411232 0.402199
2517 4 0.318244 0.392001 0.341043
1811 4 0.384336 0.384124 0.391072
1810 2 0.368286 0.376827 0.411386
3627 4 0.36399 0.382828 0.37831
3625 2 0.343114 0.37983 0.362908
3626 4 0.322237 0.376832 0.347506
2457 4 0.425637 0.346567 0.383578
1863 4 0.461296 0.402988 0.334793
2455 2 0.415074 0.362935 0.388473
2456 4 0.404511 0.379303 0.393369
3127 2 0.128695 0.441472 0.410612
3613 2 0.177046 0.44775 0.374797
3615 4 0.154182 0.443116 0.388056
3129 4 0.147645 0.456338 0.394454
3614 4 0.19991 0.452384 0.361538
3896 4 0.252853 0.424477 0.37283
1360 2 0.222423 0.421034 0.39666
1361 4 0.210476 0.431149 0.412278
2630 4 0.207997 0.458434 0.342558
3895 2 0.276594 0.423333 0.378698
3897 4 0.300335 0.42219 0.384566
1649 4 0.232791 0.013358 0.447278
2603 4 0.249597 0.0467271 0.470297
2602 2 0.246624 0.0472932 0.495084
953 4 0.276515 0.0283505 0.498698
3030 4 0.358019 0.0264264 0.454407
3028 2 0.330855 0.0198243 0.456044
3029 4 0.303691 0.0132223 0.45768
397 2 0.386733 0.052263 0.421412
399 4 0.369855 0.0377687 0.439126
1146 4 0.00270495 0.128877 0.49393
3146 4 0.0104669 0.146373 0.460691
2519 4 0.092706 0.0879931 0.478335
2518 2 0.0760908 0.0847027 0.458656
2520 4 0.0594757 0.0814123 0.438976
873 4 0.183912 0.128945 0.494784
2764 2 0.190931 0.138652 0.434064
4224 4 0.16184 0.11597 0.492318
2765 4 0.168456 0.119064 0.425974
4222 2 0.137448 0.110156 0.481259
4223 4 0.113057 0.104342 0.470201
1743 4 0.230975 0.159879 0.431106
2736 4 0.251215 0.132699 0.474782
872 4 0.235075 0.136587 0.481392
2766 4 0.213405 0.15824 0.442154
871 2 0.209494 0.132766 0.488088
615 4 0.325806 0.162125 0.478816
2735 4 0.306207 0.151222 0.470871
2734 2 0.278711 0.14196 0.472826
2824 2 0.460801 0.144134 0.494129
2825 4 0.487023 0.149284 0.48846
3145 2 0.0323397 0.168254 0.46417
4002 4 0.0719341 0.238403 0.440488
2810 4 0.0643612 0.192857 0.486243
3147 4 0.0542125 0.190136 0.467649
384 4 0.051835 0.235922 0.436415
382 2 0.0260943 0.23023 0.444211
2132 4 0.136379 0.240516 0.434533
4000 2 0.0990462 0.245425 0.437509
2809 2 0.0883473 0.196267 0.496852
266 4 0.209013 0.195487 0.496739
265 2 0.196734 0.18983 0.474364
267 4 0.184455 0.184173 0.451989
3488 4 0.243959 0.24784 0.464598
1741 2 0.253172 0.175216 0.418248
613 2 0.346086 0.177939 0.493308
2446 2 0.0120599 0.270094 0.415662
2448 4 0.0239889 0.254276 0.415672
3276 4 0.0083609 0.301406 0.42888
2131 2 0.163936 0.249749 0.433572
4001 4 0.126158 0.252447 0.43453
3487 2 0.228564 0.255597 0.45037
3489 4 0.213169 0.263355 0.436142
2133 4 0.191492 0.258981 0.432612
2355 4 0.406511 0.271788 0.497767
3474 4 0.45752 0.330775 0.474561
3023 4 0.403264 0.261047 0.480937
3024 4 0.426556 0.299291 0.449159
3022 2 0.41491 0.280169 0.465048
574 2 0.490743 0.273703 0.433709
4420 2 0.0101611 0.366004 0.50144
600 4 0.0915278 0.410816 0.431703
1143 4 0.0245444 0.341859 0.490585
4422 4 0.0302429 0.359735 0.493984
598 2 0.0997807 0.40586 0.453808
662 4 0.145805 0.349844 0.493183
2926 2 0.151989 0.413545 0.493842
2927 4 0.126871 0.404203 0.483435
599 4 0.108033 0.400903 0.475913
3324 4 0.125504 0.337439 0.489462
663 4 0.189156 0.388218 0.473502
661 2 0.167481 0.369031 0.483342
2802 4 0.288391 0.378497 0.437726
431 4 0.305712 0.379963 0.447261
2800 2 0.289622 0.394864 0.419963
709 2 0.39384 0.399033 0.496596
1812 4 0.352235 0.369531 0.431699
432 4 0.347863 0.367133 0.451091
430 2 0.326788 0.373548 0.449176
710 4 0.369965 0.378463 0.497083
2171 4 0.470845 0.40396 0.449275
3472 2 0.471888 0.349393 0.458845
2170 2 0.468969 0.396913 0.473222
3473 4 0.486256 0.368012 0.443129
2172 4 0.467093 0.389866 0.497169
3128 4 0.109745 0.426605 0.42677
774 4 0.171063 0.491929 0.44241
2156 4 0.226222 0.453987 0.46867
413 4 0.232527 0.44774 0.484875
2155 2 0.226558 0.450819 0.443936
2157 4 0.226895 0.447652 0.419201
928 2 0.325165 0.431651 0.49538
930 4 0.323368 0.431974 0.470454
477 4 0.385551 0.465445 0.486202
475 2 0.392105 0.487144 0.474325
4067 4 0.434442 0.433227 0.485581
4066 2 0.461078 0.449438 0.486448
4068 4 0.487714 0.465649 0.487315
711 4 0.417715 0.419603 0.49611
2604 4 0.243652 0.0478593 0.519871
389 4 0.244121 0.0469689 0.539746
388 2 0.26365 0.0470994 0.555436
390 4 0.283179 0.0472299 0.571126
3249 4 0.303343 0.0501288 0.567053
952 2 0.271115 0.0109722 0.516461
3247 2 0.319395 0.0455311 0.55055
3248 4 0.335446 0.0409334 0.534048
4562 4 0.344592 0.0375341 0.517184
4561 2 0.370537 0.0534879 0.522696
4563 4 0.396482 0.0694417 0.528208
1131 4 0.497227 0.00554358 0.57486
1180 2 0.0208537 0.158441 0.562351
1182 4 0.00876624 0.143758 0.581914
911 4 0.237577 0.166799 0.544351
3455 4 0.303496 0.127933 0.531974
3454 2 0.324226 0.121096 0.529721
3456 4 0.344957 0.114258 0.527468
3014 4 0.367118 0.12087 0.531961
3013 2 0.391652 0.125847 0.521578
3015 4 0.416186 0.130824 0.511195
2826 4 0.434579 0.138984 0.499798
1181 4 0.0329411 0.173124 0.542789
2811 4 0.112333 0.199677 0.50746
1818 4 0.125149 0.207617 0.523876
1816 2 0.143542 0.204348 0.538616
1817 4 0.161936 0.201079 0.553357
731 4 0.17979 0.202776 0.565183
730 2 0.202841 0.223817 0.568224
732 4 0.225892 0.244858 0.571265
910 2 0.264412 0.172583 0.547534
912 4 0.291247 0.178367 0.550717
3309 4 0.312059 0.185959 0.545305
3307 2 0.33966 0.196638 0.546404
3308 4 0.367261 0.207316 0.547504
614 4 0.366366 0.193754 0.507801
3823 2 0.449034 0.237158 0.555924
3825 4 0.443992 0.214198 0.547865
1137 4 0.45698 0.205554 0.556776
1135 2 0.483113 0.208382 0.558169
1142 4 0.0614975 0.329977 0.514039
2375 4 0.176721 0.274843 0.510999
2374 2 0.190933 0.263037 0.52076
2376 4 0.205145 0.25123 0.530521
2493 4 0.246112 0.303345 0.57287
3020 4 0.265853 0.320343 0.572399
948 4 0.227892 0.257435 0.52686
946 2 0.255219 0.267731 0.523184
1211 4 0.244401 0.255054 0.578878
947 4 0.282545 0.278027 0.519507
2991 4 0.303816 0.288147 0.526921
2989 2 0.328637 0.293649 0.536946
3019 2 0.290214 0.327652 0.560828
2990 4 0.353458 0.299151 0.54697
3413 4 0.367184 0.300878 0.561676
3412 2 0.391142 0.315138 0.550536
3414 4 0.415099 0.329397 0.539396
2354 4 0.409471 0.284342 0.546084
2353 2 0.407991 0.278065 0.521925
1229 4 0.421704 0.280887 0.559571
3824 4 0.454076 0.260118 0.563984
1228 2 0.424751 0.285942 0.584049
1141 2 0.043021 0.335918 0.502312
3323 4 0.082923 0.33993 0.513552
3322 2 0.104213 0.338685 0.501507
502 2 0.361072 0.355017 0.534467
3021 4 0.314574 0.334961 0.549256
503 4 0.335564 0.343458 0.543878
2849 4 0.401614 0.359175 0.524178
504 4 0.386579 0.366576 0.525055
2848 2 0.428614 0.369741 0.518884
2850 4 0.455615 0.380307 0.51359
1205 4 0.443661 0.411282 0.555674
3055 2 0.00999917 0.489825 0.535054
3424 2 0.0165715 0.440761 0.538932
3425 4 0.0441556 0.450518 0.537901
3321 4 0.0634618 0.451963 0.53114
3319 2 0.0809213 0.45039 0.548214
3389 4 0.0890287 0.433402 0.578158
3320 4 0.0983807 0.448818 0.565287
3388 2 0.108968 0.425896 0.582418
2928 4 0.177107 0.422886 0.50425
414 4 0.192079 0.425322 0.518094
412 2 0.212303 0.436531 0.501485
2310 4 0.333938 0.483677 0.516296
2308 2 0.336001 0.490967 0.540174
2309 4 0.338065 0.498256 0.564053
929 4 0.326961 0.431328 0.520306
1017 4 0.348263 0.434119 0.517973
1015 2 0.368643 0.433781 0.532228
1016 4 0.389023 0.433442 0.546484
1206 4 0.400804 0.422751 0.549239
1226 4 0.465488 0.418666 0.559043
1204 2 0.422233 0.417017 0.552456
1225 2 0.493045 0.429099 0.560823
3359 4 0.0133715 0.0192497 0.616655
3358 2 0.000236457 0.00219237 0.599105
4386 4 0.125832 0.0531729 0.632782
4384 2 0.141371 0.076757 0.625772
4346 4 0.117118 0.039476 0.647641
4345 2 0.133508 0.0288657 0.655099
342 4 0.169525 0.023951 0.654101
340 2 0.18935 0.0382102 0.638302
341 4 0.209176 0.0524694 0.622503
435 4 0.229478 0.0673372 0.619593
4347 4 0.149899 0.0182554 0.662557
433 2 0.255103 0.0694171 0.62325
434 4 0.280728 0.0714969 0.626906
3402 4 0.274319 0.0526747 0.632208
3400 2 0.278873 0.0363876 0.646728
3401 4 0.283427 0.0201005 0.661248
2019 4 0.316668 0.00797054 0.634799
2281 2 0.400323 0.012656 0.640002
2282 4 0.42568 0.0308013 0.643576
2144 4 0.44573 0.0380108 0.650633
2143 2 0.464215 0.0288114 0.655141
2145 4 0.4827 0.019612 0.659648
4465 2 0.999353 0.130966 0.614474
4467 4 0.00503632 0.133553 0.638938
845 4 0.125096 0.147739 0.66354
4385 4 0.156911 0.100341 0.618763
4137 4 0.17403 0.0971002 0.611737
4135 2 0.200446 0.100849 0.609917
347 4 0.241218 0.121639 0.619682
4136 4 0.226862 0.104599 0.608097
346 2 0.263811 0.121875 0.63062
348 4 0.286405 0.122111 0.641558
2231 4 0.391973 0.098892 0.603852
2230 2 0.401554 0.100393 0.627179
2232 4 0.411136 0.101895 0.650506
2276 4 0.424194 0.116522 0.662585
3294 4 0.409132 0.0883561 0.665215
821 4 0.037587 0.19615 0.645611
3640 2 0.153227 0.305654 0.652085
557 4 0.159801 0.275515 0.639964
3642 4 0.152577 0.289077 0.634782
556 2 0.179979 0.267827 0.640084
2491 2 0.228933 0.312259 0.582311
2492 4 0.211754 0.321173 0.591751
558 4 0.200157 0.260138 0.640204
3027 4 0.212329 0.270852 0.625825
3025 2 0.239389 0.282799 0.630574
3026 4 0.26645 0.294745 0.635323
585 4 0.274327 0.312795 0.625738
1210 2 0.269848 0.257643 0.584479
1212 4 0.295294 0.260231 0.590081
3353 4 0.318265 0.269731 0.587358
3352 2 0.328031 0.291966 0.598773
3354 4 0.337796 0.314201 0.610189
584 4 0.327679 0.32174 0.623447
583 2 0.301003 0.317268 0.624592
1230 4 0.427797 0.290997 0.608527
3192 4 0.442283 0.298588 0.622965
3190 2 0.46945 0.305249 0.621218
3191 4 0.496618 0.311909 0.619471
3381 4 0.496693 0.279928 0.619681
3337 2 0.11899 0.399843 0.626942
3338 4 0.114877 0.385121 0.646956
1953 4 0.133157 0.388609 0.658185
1951 2 0.160284 0.39482 0.658969
3390 4 0.128907 0.41839 0.586678
3339 4 0.123103 0.414565 0.606928
1952 4 0.18741 0.401031 0.659753
2154 4 0.208017 0.406676 0.653417
2105 4 0.0271419 0.486511 0.623778
3738 4 0.0487492 0.493582 0.629075
2104 2 0.0121857 0.498093 0.615125
3736 2 0.0736075 0.494819 0.63493
3737 4 0.0984657 0.496055 0.640784
4349 4 0.464273 0.484166 0.648971
4180 2 0.0786637 0.0756064 0.729877
2239 2 0.01995 0.0472831 0.728424
2240 4 0.0468579 0.0613287 0.732369
4181 4 0.0605504 0.0518195 0.73324
2192 4 0.260563 0.0133797 0.724922
2191 2 0.268964 0.0113475 0.701824
2193 4 0.277365 0.00931528 0.678726
4239 4 0.367931 0.0759619 0.737075
4237 2 0.355154 0.0561957 0.722165
4238 4 0.342376 0.0364294 0.707255
1970 4 0.300853 0.047308 0.742699
3293 4 0.407875 0.0441389 0.678031
3292 2 0.408503 0.0662475 0.671623
4440 4 0.406211 0.0199444 0.742529
4439 4 0.444339 0.0451393 0.708251
4438 2 0.425275 0.0325419 0.72539
260 4 0.49173 0.0806068 0.703072
2134 2 0.00859276 0.114848 0.695184
2135 4 0.0346838 0.118362 0.699128
4182 4 0.096777 0.0993932 0.726514
844 2 0.123997 0.157511 0.68584
2852 4 0.211503 0.103922 0.674174
2851 2 0.212349 0.125416 0.682977
2853 4 0.213195 0.146911 0.691779
3198 4 0.347392 0.155033 0.744767
3196 2 0.371949 0.15718 0.736639
3081 4 0.369701 0.0940434 0.740573
3197 4 0.396506 0.159327 0.728511
2275 2 0.44787 0.11945 0.673509
2277 4 0.471545 0.122378 0.684433
261 4 0.464348 0.109222 0.699239
259 2 0.478039 0.0949142 0.701155
857 4 0.00812084 0.192535 0.703343
820 2 0.0330986 0.196662 0.670158
822 4 0.0286103 0.197173 0.694705
846 4 0.122897 0.167283 0.708139
1943 4 0.130792 0.171377 0.726297
2263 2 0.180715 0.245044 0.735927
2265 4 0.167264 0.220102 0.735588
1942 2 0.155021 0.191576 0.726506
1944 4 0.179251 0.211775 0.726714
1184 4 0.277432 0.204242 0.67167
1183 2 0.296733 0.218111 0.688084
1185 4 0.316035 0.23198 0.704498
3476 4 0.335479 0.237375 0.694166
3475 2 0.36093 0.249376 0.684746
2996 4 0.418477 0.169361 0.731179
2981 4 0.41018 0.222278 0.707875
3326 4 0.415341 0.242564 0.709766
2982 4 0.376825 0.175601 0.69403
2980 2 0.393503 0.198939 0.700952
951 4 0.113319 0.296656 0.71744
949 2 0.125386 0.311194 0.697782
950 4 0.137453 0.325732 0.678124
3464 4 0.125234 0.305008 0.735646
3641 4 0.153878 0.322231 0.669388
2264 4 0.194166 0.269985 0.736266
3477 4 0.38638 0.261377 0.675327
3271 2 0.433638 0.318859 0.729014
3273 4 0.447019 0.321547 0.707309
3325 2 0.435355 0.265418 0.713876
3327 4 0.455369 0.288272 0.717986
2152 2 0.222061 0.410346 0.674863
2153 4 0.236106 0.414016 0.696309
3120 4 0.307483 0.363622 0.679954
3118 2 0.324911 0.371467 0.699314
3119 4 0.34234 0.379312 0.718674
3153 4 0.342909 0.380352 0.738644
3151 2 0.366581 0.377825 0.737743
3152 4 0.390253 0.375298 0.736842
3170 4 0.448113 0.335936 0.693109
3169 2 0.472097 0.337947 0.683605
3171 4 0.496081 0.339958 0.674101
1122 4 0.234701 0.42737 0.710047
1120 2 0.221777 0.425644 0.731852
3467 4 0.0330041 0.0284138 0.794114
3466 2 0.0189269 0.0108576 0.777291
3003 4 0.272849 0.00406641 0.781193
1969 2 0.297183 0.0568091 0.764349
1971 4 0.293513 0.0663102 0.785999
3828 4 0.29248 0.0631165 0.806055
3826 2 0.274646 0.0458451 0.821302
3001 2 0.247535 0.000895584 0.788086
3252 4 0.294926 0.00697384 0.784131
3250 2 0.320614 0.0178642 0.793268
192 3 0.379183 0.0642733 0.815443
3251 4 0.346302 0.0287545 0.802406
2565 4 0.365397 0.0286504 0.805964
4163 4 0.390532 0.00536252 0.750826
2563 2 0.386959 0.0414382 0.791139
2564 4 0.408522 0.0542261 0.776314
1248 4 0.427998 0.0640235 0.784527
1246 2 0.449712 0.0604157 0.792537
1247 4 0.471426 0.0568078 0.800547
4354 2 0.493728 0.0328905 0.831935
3134 4 0.350298 0.152051 0.763895
3133 2 0.346463 0.144356 0.787684
3135 4 0.342628 0.13666 0.811473
207 3 0.351278 0.145826 0.829319
195 3 0.364631 0.0898623 0.821064
191 1 0.385516 0.0864456 0.820006
3079 2 0.382447 0.0948142 0.76228
3361 2 0.41748 0.150092 0.807549
3080 4 0.395194 0.0955851 0.783988
208 3 0.384279 0.137897 0.830231
3362 4 0.397289 0.131624 0.819862
194 3 0.400796 0.0994033 0.803093
2997 4 0.440215 0.166068 0.775312
848 4 0.00937862 0.223826 0.781449
3295 2 0.0905832 0.24544 0.802411
3296 4 0.0698328 0.246251 0.815752
849 4 0.0476304 0.238539 0.817536
847 2 0.0285045 0.231182 0.799493
3297 4 0.111334 0.244629 0.78907
2568 4 0.334923 0.24916 0.806558
2995 2 0.429346 0.167714 0.753246
3363 4 0.437671 0.16856 0.795236
3463 2 0.12108 0.311117 0.758852