ITEM: TIMESTEP
2762000
ITEM: NUMBER OF ATOMS
1600
ITEM: BOX BOUNDS xy xz yz pp pp pp
-6.9325800000002165e+00 6.9325799999999997e+00 -2.1671553440683056e-13
-6.9325799999999997e+00 6.9325799999999997e+00 0.0000000000000000e+00
-6.9325799999999997e+00 6.9325799999999997e+00 0.0000000000000000e+00
ITEM: ATOMS id type xs ys zs
321 4 0.180568 0.108387 0.0804849
999 4 0.218986 0.103544 0.987192
320 2 0.195251 0.107349 0.113406
982 4 0.231015 0.0260143 0.024192
1145 2 0.374444 0.12131 0.104274
1147 4 0.344166 0.140637 0.10109
1146 4 0.404722 0.101983 0.107458
672 4 0.42369 0.104235 0.0854848
578 2 0.02502 0.193978 0.0562071
580 4 0.0412402 0.171689 0.0794572
579 4 0.00879986 0.216267 0.032957
671 2 0.444007 0.127485 0.0668538
673 4 0.464325 0.150735 0.0482228
911 2 0.308943 0.279864 0.0478811
913 4 0.322757 0.252445 0.066798
1122 4 0.347378 0.266133 0.0732512
912 4 0.295129 0.307282 0.0289641
1121 2 0.383213 0.27007 0.0741531
1123 4 0.419048 0.274007 0.0750549
697 4 0.444158 0.288157 0.0764685
695 2 0.465259 0.312309 0.0599781
696 4 0.48636 0.336461 0.0434878
713 2 0.080792 0.470786 0.0656552
714 4 0.0627635 0.46253 0.0957759
715 4 0.0988205 0.479041 0.0355344
493 4 0.120738 0.489534 0.0194373
405 4 0.046079 0.467768 0.117793
491 2 0.155485 0.484317 0.0275493
1374 4 0.202674 0.468054 0.0592322
1373 2 0.202155 0.445013 0.086968
492 4 0.190233 0.4791 0.0356614
1273 4 0.216902 0.431043 0.0222774
1271 2 0.246508 0.44731 0.00965659
1375 4 0.201637 0.421971 0.114704
313 4 0.264152 0.506234 0.120203
1389 4 0.37513 0.395026 0.0157359
1388 2 0.393132 0.40286 0.045984
1390 4 0.411135 0.410695 0.0762322
1431 4 0.426122 0.436392 0.0802913
1430 2 0.435031 0.424066 0.11299
281 2 0.383562 0.485908 0.14067
635 2 0.0438212 0.998824 0.223798
266 2 0.0529927 0.10432 0.164959
637 4 0.0780765 0.989948 0.216851
267 4 0.080885 0.0917866 0.184074
1103 2 0.13106 0.11148 0.216187
1104 4 0.0984725 0.105467 0.201964
268 4 0.0251003 0.116853 0.145844
1105 4 0.163648 0.117493 0.230411
322 4 0.209934 0.106312 0.146326
81 1 0.480703 0.115172 0.160419
85 3 0.484692 0.087002 0.176832
1129 4 0.467958 0.117256 0.234256
332 2 0.0876044 0.207485 0.198051
333 4 0.107893 0.208371 0.227851
742 4 0.110116 0.181413 0.237589
334 4 0.0673155 0.206598 0.168251
84 3 0.448964 0.125471 0.162962
82 3 0.487855 0.110268 0.128396
83 3 0.501309 0.138533 0.172652
652 4 0.475677 0.210985 0.248274
650 2 0.443875 0.197705 0.258893
745 4 0.494179 0.214662 0.2266
360 4 0.341017 0.305089 0.171092
359 2 0.372297 0.291492 0.182803
361 4 0.403577 0.277895 0.194514
625 4 0.425191 0.288031 0.178316
623 2 0.449369 0.309954 0.193656
624 4 0.473548 0.331876 0.208995
1072 4 0.460491 0.352629 0.226611
404 2 0.0642818 0.448138 0.141954
406 4 0.0824847 0.428509 0.166115
901 4 0.111487 0.43334 0.159622
129 3 0.00620288 0.478277 0.256253
900 4 0.173521 0.427693 0.123268
899 2 0.142504 0.430517 0.141445
1043 2 0.326504 0.448714 0.188928
1045 4 0.302636 0.423329 0.198222
1422 4 0.358321 0.409955 0.221878
282 4 0.369115 0.46033 0.161587
874 4 0.365686 0.396455 0.19653
1044 4 0.350371 0.474098 0.179633
1421 2 0.368759 0.413898 0.25617
872 2 0.396179 0.393518 0.177504
873 4 0.426672 0.390581 0.158479
1432 4 0.44394 0.411741 0.145689
316 4 0.146821 0.0355547 0.277416
769 4 0.164682 0.0560775 0.289015
767 2 0.196612 0.0707633 0.280935
314 2 0.114392 0.0200084 0.27473
768 4 0.228542 0.085449 0.272856
1533 4 0.249457 0.103614 0.269237
88 3 0.292158 0.0153447 0.271685
89 3 0.282478 0.00935736 0.325304
86 1 0.306215 0.0115302 0.301814
90 3 0.326038 0.0369227 0.308229
1341 4 0.349195 0.0872842 0.38607
761 2 0.246314 0.0163677 0.360886
1127 2 0.468968 0.103265 0.267478
1128 4 0.469978 0.0892738 0.3007
740 2 0.115341 0.185977 0.272977
741 4 0.120565 0.19054 0.308364
351 4 0.128911 0.207123 0.329673
350 2 0.150826 0.232396 0.343144
352 4 0.172741 0.257669 0.356615
1532 2 0.274088 0.126956 0.281442
1035 4 0.32488 0.138427 0.285153
1534 4 0.298719 0.150297 0.293647
1034 2 0.358619 0.151127 0.28423
1036 4 0.392357 0.163827 0.283307
651 4 0.412074 0.184425 0.269513
1354 4 0.497793 0.134121 0.370828
1132 4 0.996447 0.252845 0.31373
344 2 0.226156 0.263313 0.355323
345 4 0.258021 0.259424 0.338891
153 3 0.321584 0.347448 0.353168
155 3 0.290515 0.387948 0.33464
152 3 0.307224 0.349448 0.300936
956 2 0.488968 0.319807 0.338934
957 4 0.455149 0.309844 0.331358
1215 4 0.107716 0.500849 0.302276
1429 4 0.0771036 0.517704 0.352577
676 4 0.0324124 0.469786 0.252774
1428 4 0.0103196 0.49255 0.34213
1427 2 0.0437116 0.505127 0.347354
1423 4 0.379197 0.417841 0.290463
154 3 0.342769 0.38564 0.320044
151 1 0.315407 0.367803 0.327333
927 4 0.385595 0.397994 0.311698
926 2 0.415118 0.407039 0.330328
928 4 0.444642 0.416084 0.348958
336 4 0.445012 0.443226 0.361636
335 2 0.478406 0.446328 0.374891
1014 4 0.0190377 0.109381 0.454817
367 4 0.0386857 0.0905561 0.457277
365 2 0.0665648 0.0680469 0.453208
366 4 0.0944438 0.0455378 0.44914
388 4 0.0999911 0.0257525 0.468975
386 2 0.126379 0.00228332 0.461671
535 4 0.360038 0.113144 0.394973
1340 2 0.315628 0.0743034 0.383774
1342 4 0.282062 0.0613227 0.381478
762 4 0.258767 0.0434388 0.381197
403 4 0.34688 0.99938 0.427178
533 2 0.393083 0.101943 0.404083
534 4 0.426129 0.0907426 0.413193
1353 4 0.448336 0.106175 0.415265
1352 2 0.473065 0.120148 0.393046
105 3 0.496207 0.214173 0.518192
101 1 0.483797 0.237747 0.49898
102 3 0.482375 0.226743 0.467714
346 4 0.194291 0.267202 0.371755
103 3 0.503413 0.26484 0.500032
1434 4 0.143309 0.432265 0.487946
1433 2 0.107867 0.425868 0.486097
1435 4 0.0724244 0.419471 0.484248
1142 2 0.191402 0.44989 0.470894
430 4 0.25048 0.455172 0.453862
1143 4 0.156415 0.455843 0.477293
1144 4 0.226388 0.443937 0.464495
429 4 0.306762 0.470019 0.496451
100 3 0.335548 0.468427 0.500496
428 2 0.278621 0.462596 0.475157
97 3 0.388121 0.471531 0.489364
521 2 0.218695 0.034896 0.615825
523 4 0.225968 0.0198121 0.583887
838 4 0.255549 0.0210216 0.574923
836 2 0.291603 0.0215433 0.574441
783 4 0.310972 0.057768 0.482824
478 4 0.355275 0.0268514 0.570805
837 4 0.327658 0.022065 0.57396
782 2 0.333925 0.0357595 0.499831
476 2 0.389985 0.0361854 0.573737
52 3 0.463135 0.0537258 0.527006
51 1 0.463572 0.0245256 0.542749
53 3 0.447341 0.0276775 0.571844
477 4 0.424695 0.0455195 0.576669
419 2 0.464577 0.105225 0.519335
54 3 0.448363 0.00168052 0.523599
420 4 0.464291 0.0724906 0.504208
486 4 0.0151208 0.121591 0.561736
416 2 0.0909689 0.164512 0.638718
418 4 0.112777 0.192157 0.630929
755 2 0.161855 0.224708 0.612261
756 4 0.129557 0.208757 0.613951
496 4 0.355498 0.248428 0.582146
421 4 0.464862 0.13796 0.534461
1186 4 0.490817 0.144098 0.544379
104 3 0.452884 0.245624 0.509093
396 4 0.383467 0.24871 0.567749
395 2 0.404569 0.250522 0.538562
224 3 0.0193326 0.373413 0.623674
1394 2 0.0444634 0.341333 0.521861
1396 4 0.0776639 0.344194 0.535645
263 2 0.074071 0.307449 0.600096
14 3 0.0981994 0.363709 0.526177
264 4 0.0968875 0.314932 0.573191
12 3 0.107298 0.366125 0.579561
265 4 0.0512544 0.299965 0.627001
1395 4 0.0112629 0.338472 0.508077
13 3 0.116627 0.319705 0.553167
11 1 0.117975 0.353072 0.55099
15 3 0.148907 0.36271 0.545585
48 3 0.210041 0.252999 0.590568
46 1 0.217238 0.283451 0.602434
49 3 0.228529 0.302972 0.577709
757 4 0.194154 0.240659 0.61057
1466 2 0.28745 0.327307 0.573477
1468 4 0.254569 0.313769 0.567476
1467 4 0.320332 0.340844 0.579478
558 4 0.347455 0.326541 0.588477
557 2 0.379403 0.335809 0.602402
397 4 0.42567 0.252333 0.509376
559 4 0.411351 0.345077 0.616327
903 4 0.403456 0.286072 0.618802
902 2 0.43728 0.273858 0.616114
1086 4 0.413849 0.373456 0.620199
929 2 0.0435364 0.446533 0.529584
1154 2 0.0413283 0.419956 0.604387
1155 4 0.0688945 0.435144 0.586782
1560 4 0.0878749 0.450538 0.575504
868 4 0.991589 0.468209 0.558227
930 4 0.0182169 0.465537 0.546853
1559 2 0.1198 0.434545 0.580542
931 4 0.0688559 0.427529 0.512315
1561 4 0.151726 0.418552 0.58558
1455 4 0.230546 0.422903 0.645013
1456 4 0.179542 0.422078 0.594026
1454 2 0.205044 0.42249 0.61952
99 3 0.371547 0.472266 0.540971
816 4 0.362921 0.460718 0.566193
96 1 0.365549 0.459631 0.510568
815 2 0.389635 0.448884 0.587329
98 3 0.367995 0.426266 0.511376
455 2 0.289214 0.398922 0.639872
457 4 0.321267 0.38564 0.630043
817 4 0.41635 0.437051 0.608465
296 2 0.44869 0.485646 0.495459
298 4 0.413996 0.483676 0.485815
460 4 0.420732 0.462595 0.620008
297 4 0.483383 0.487615 0.505103
858 4 0.050472 0.0594422 0.634099
857 2 0.0555465 0.0900144 0.65254
859 4 0.060621 0.120587 0.670982
94 3 0.151506 0.0546866 0.67499
91 1 0.172491 0.029157 0.680265
1471 4 0.164874 0.0340247 0.736997
522 4 0.211421 0.04998 0.647763
92 3 0.171177 0.0206369 0.712302
95 3 0.203172 0.0381226 0.672705
1239 4 0.225638 0.134562 0.740465
107 3 0.494067 0.0390082 0.685445
110 3 0.442869 0.0555676 0.684014
109 3 0.461079 0.0277785 0.726967
106 1 0.462861 0.0313919 0.693746
108 3 0.454336 0.00275867 0.678666
510 4 0.517134 0.0538644 0.674725
417 4 0.0691613 0.136867 0.646507
1238 2 0.204371 0.162913 0.747133
1240 4 0.183105 0.191263 0.753801
494 2 0.35305 0.237513 0.616429
502 4 0.347116 0.250183 0.714773
500 2 0.371096 0.225172 0.704782
495 4 0.350601 0.226599 0.650713
501 4 0.395075 0.200161 0.69479
702 4 0.425145 0.202772 0.684187
701 2 0.458751 0.211543 0.674482
703 4 0.492357 0.220313 0.664777
225 3 0.0328319 0.32146 0.631879
221 1 0.0179909 0.347658 0.645
222 3 0.033561 0.356132 0.673044
47 3 0.189606 0.296893 0.614944
50 3 0.239858 0.281184 0.626142
1526 2 0.228815 0.310695 0.74236
976 4 0.261155 0.272974 0.645129
1527 4 0.254475 0.316107 0.717607
974 2 0.270148 0.287959 0.676673
975 4 0.279141 0.302944 0.708218
5 3 0.309019 0.28904 0.710723
3 3 0.333901 0.24981 0.738843
1 1 0.323724 0.281688 0.739158
561 4 0.377477 0.316641 0.737815
2 3 0.350146 0.301341 0.7432
904 4 0.471105 0.261644 0.613425
560 2 0.401814 0.335846 0.719394
562 4 0.426151 0.355052 0.700972
1087 4 0.439362 0.378993 0.687432
1085 2 0.426605 0.376224 0.653815
1156 4 0.0137621 0.404768 0.621991
1584 4 0.0453934 0.383106 0.665995
1583 2 0.0482959 0.41485 0.682859
1585 4 0.0511983 0.446594 0.699723
1372 4 0.214964 0.500085 0.694361
1597 4 0.226699 0.502287 0.666357
456 4 0.257161 0.412204 0.649701
458 2 0.448026 0.485801 0.624131
459 4 0.47532 0.509006 0.628255
1469 2 0.164095 0.01426 0.767151
1113 4 0.344921 0.998114 0.831104
1112 2 0.376865 0.0133163 0.824111
1197 4 0.473686 0.0857223 0.844603
1196 2 0.451441 0.0664653 0.82375
1198 4 0.429197 0.0472083 0.802897
1114 4 0.40881 0.0285183 0.817118
180 3 0.0234244 0.391464 0.804735
178 3 0.0274882 0.337431 0.808309
176 1 0.0240304 0.365972 0.825438
843 4 0.0782546 0.357073 0.753706
842 2 0.0924636 0.330469 0.773475
844 4 0.106673 0.303864 0.793244
252 4 0.133391 0.295013 0.803154
251 2 0.161548 0.28805 0.781726
253 4 0.189705 0.281088 0.760298
1528 4 0.203155 0.305282 0.767113
4 3 0.302546 0.286668 0.764587
690 4 0.262252 0.322416 0.822123
689 2 0.274736 0.355976 0.826408
1107 4 0.0837447 0.378395 0.734018
177 3 0.0497867 0.369275 0.846089
507 4 0.0677407 0.388769 0.837543
1108 4 0.0967664 0.442213 0.764993
1106 2 0.0902556 0.410304 0.749505
643 4 0.0160492 0.410521 0.785889
547 4 0.117478 0.458331 0.776713
506 2 0.102419 0.398595 0.836404
641 2 0.00289017 0.441326 0.799244
545 2 0.126545 0.482182 0.802197
888 4 0.15624 0.522722 0.815948
1102 4 0.160705 0.403078 0.821815
508 4 0.137097 0.408422 0.835266
1100 2 0.17867 0.420912 0.847498
546 4 0.135613 0.506032 0.827681
1101 4 0.196636 0.438746 0.873182
514 4 0.27054 0.408358 0.846873
512 2 0.285835 0.434117 0.826799
691 4 0.28722 0.389536 0.830693
513 4 0.30113 0.459877 0.806725
262 4 0.325533 0.468713 0.792193
260 2 0.35986 0.467464 0.781214
261 4 0.394188 0.466215 0.770235
556 4 0.403983 0.494769 0.773212
1587 4 0.0981425 0.0983181 0.911419
1586 2 0.12158 0.081044 0.932697
1588 4 0.145018 0.06377 0.953975
1000 4 0.150443 0.0881014 0.970905
980 2 0.242504 0.0142228 0.992107
998 2 0.184714 0.0958229 0.979048
780 4 0.354143 0.0033684 0.948742
981 4 0.253993 0.00243119 0.960023
135 3 0.281537 0.00613227 0.96563
187 3 0.491719 0.988621 0.954366
613 4 0.10013 0.12126 0.894171
612 4 0.0630328 0.182017 0.905758
1509 4 0.0413683 0.182037 0.924178
611 2 0.0815815 0.151639 0.899964
1508 2 0.0202096 0.169159 0.950387
585 4 0.482284 0.173056 0.947271
1478 2 0.0129105 0.325545 0.897091
1479 4 0.0440638 0.330022 0.914696
394 4 0.0598828 0.312626 0.898237
392 2 0.0906941 0.306273 0.915867
393 4 0.121505 0.299921 0.933497
59 3 0.990179 0.439458 0.945772
854 2 0.263849 0.504327 0.957849
1272 4 0.276114 0.463578 0.997036
856 4 0.285925 0.484312 0.978158
540 4 0.492057 0.47569 0.977156
539 2 0.482596 0.507813 0.963779
24 3 0.494549 0.39159 0.917176
23 3 0.470292 0.438845 0.903646
21 1 0.497921 0.424875 0.916352
1266 4 0.0732082 0.606313 0.114259
1318 4 0.095624 0.606473 0.0967423
415 4 0.00723979 0.516919 0.0318839
618 4 0.0124809 0.518327 0.00276746
1317 4 0.159385 0.620083 0.0659032
1316 2 0.127505 0.613278 0.0813227
288 4 0.182879 0.615467 0.0826842
287 2 0.216832 0.626357 0.077281
312 4 0.25643 0.548026 0.0619313
311 2 0.260291 0.52713 0.0910673
358 4 0.246035 0.568873 0.0458653
356 2 0.27273 0.570347 0.0216654
1531 4 0.279296 0.631096 0.0763148
1058 2 0.436202 0.560299 0.125633
283 4 0.398009 0.511486 0.119754
1059 4 0.412064 0.533684 0.128716
1265 2 0.0401654 0.620569 0.111944
1267 4 0.00712269 0.634825 0.109628
423 4 0.192326 0.703162 0.08226
1594 4 0.189022 0.730551 0.0750061
1592 2 0.188633 0.726 0.0392346
1593 4 0.188243 0.72145 0.00346314
289 4 0.250784 0.637246 0.0718778
1529 2 0.311651 0.644337 0.067467
1530 4 0.344006 0.657577 0.0586192
1326 4 0.368546 0.665798 0.0732404
1325 2 0.399873 0.649595 0.0657243
1327 4 0.4312 0.633392 0.0582082
276 4 0.447194 0.656052 0.0502754
275 2 0.481441 0.645383 0.0539896
1401 4 0.474501 0.684821 0.990454
1485 4 0.140753 0.797279 0.0653041
1484 2 0.155147 0.81615 0.0381534
1486 4 0.169542 0.83502 0.0110028
1099 4 0.144142 0.791648 0.0940458
1097 2 0.177299 0.790268 0.108158
869 2 0.266157 0.812635 0.125182
871 4 0.297561 0.82697 0.114755
389 2 0.362301 0.825539 0.108261
969 4 0.289317 0.871761 0.986776
391 4 0.397823 0.829016 0.103106
210 3 0.403005 0.856667 0.102166
206 1 0.428871 0.876164 0.0967224
208 3 0.425054 0.892357 0.0676844
794 2 0.466241 0.804272 0.0167183
209 3 0.456947 0.857966 0.0960499
943 4 0.408865 0.796236 0.0118487
809 2 0.403593 0.852727 0.998029
795 4 0.434056 0.806156 0.00056137
1222 4 0.101276 0.0119525 0.124501
1076 2 0.212871 0.928013 0.0958381
1078 4 0.246355 0.921673 0.084045
1077 4 0.179387 0.934352 0.107631
1294 4 0.262881 0.898176 0.0813195
1292 2 0.292376 0.913145 0.0669511
1539 4 0.344287 0.943939 0.0613321
1538 2 0.348329 0.970998 0.0848254
1293 4 0.321872 0.928113 0.0525827
17 3 0.326245 0.909453 0.0325565
16 1 0.354669 0.923209 0.022383
18 3 0.357883 0.953271 0.0367318
1540 4 0.352371 0.998057 0.108319
810 4 0.41429 0.886348 0.990563
19 3 0.380108 0.903445 0.0314499
573 4 0.445589 0.884923 0.0488837
207 3 0.431112 0.898436 0.121209
572 2 0.450999 0.916236 0.0318341
574 4 0.456409 0.947549 0.0147845
1426 4 0.155909 0.543762 0.246238
1424 2 0.179996 0.529592 0.223444
1425 4 0.204082 0.515422 0.200651
895 4 0.227499 0.530736 0.197715
893 2 0.256862 0.54792 0.209676
894 4 0.286224 0.565103 0.221637
490 4 0.299759 0.564371 0.196483
488 2 0.332904 0.576247 0.204281
489 4 0.366049 0.588123 0.212078
1060 4 0.460339 0.586915 0.12255
1351 4 0.439508 0.607909 0.12695
1403 2 0.448554 0.520676 0.258054
886 4 0.392308 0.584943 0.216493
884 2 0.420699 0.605232 0.225591
1405 4 0.480396 0.537573 0.259049
885 4 0.449089 0.625522 0.234689
422 2 0.201676 0.704671 0.117056
424 4 0.211025 0.70618 0.151852
738 4 0.231242 0.698737 0.174198
737 2 0.257596 0.70718 0.197321
739 4 0.28395 0.715623 0.220443
688 4 0.291445 0.718597 0.247239
1349 2 0.460608 0.633266 0.141521
1350 4 0.481708 0.658623 0.156092
122 3 0.500239 0.642963 0.169515
113 3 0.119309 0.827966 0.181108
112 3 0.108276 0.826674 0.234164
111 1 0.122524 0.844456 0.21005
114 3 0.107236 0.874157 0.208035
870 4 0.234753 0.7983 0.13561
115 3 0.154331 0.848677 0.217071
1098 4 0.210456 0.788889 0.12227
390 4 0.326779 0.822061 0.113415
1417 4 0.0402866 0.922196 0.211603
182 3 0.061308 0.931396 0.195921
181 1 0.093216 0.934962 0.204279
1220 2 0.10998 0.981594 0.141908
183 3 0.112108 0.930432 0.17703
185 3 0.100971 0.912672 0.227123
1221 4 0.118684 0.951235 0.159316
1415 2 0.0140956 0.897419 0.212358
184 3 0.0978453 0.965813 0.216392
636 4 0.00956594 0.00769997 0.230745
1329 4 0.169779 0.872922 0.222226
1328 2 0.203468 0.871008 0.209503
552 4 0.209539 0.952208 0.168174
910 4 0.159374 0.958087 0.241923
553 4 0.157025 0.967631 0.215144
551 2 0.183282 0.959919 0.191659
1330 4 0.237156 0.869094 0.196781
1378 4 0.304019 0.909685 0.137992
1377 4 0.246785 0.886357 0.175167
1376 2 0.275402 0.898021 0.15658
1599 4 0.374108 0.931604 0.204033
1598 2 0.367003 0.935544 0.239167
1165 4 0.484376 0.893195 0.185385
674 2 0.0611298 0.49024 0.245195
675 4 0.0898472 0.510694 0.237617
1214 2 0.139478 0.499648 0.319313
1216 4 0.171239 0.498447 0.33635
1507 4 0.191385 0.60684 0.342455
1505 2 0.182976 0.611442 0.30769
1506 4 0.174566 0.616044 0.272926
1231 4 0.19391 0.508088 0.321471
1229 2 0.227519 0.516693 0.311629
164 3 0.1897 0.619896 0.367935
165 3 0.243985 0.619487 0.366564
1230 4 0.261127 0.525299 0.301788
1513 4 0.258423 0.555789 0.29933
204 3 0.362785 0.519834 0.304729
1512 4 0.327227 0.550919 0.278255
1511 2 0.292825 0.553354 0.288793
203 3 0.350656 0.552005 0.262039
1404 4 0.416711 0.503778 0.257058
201 1 0.375172 0.541068 0.282021
202 3 0.39771 0.525138 0.263611
205 3 0.38952 0.56648 0.297095
1032 4 0.265678 0.626514 0.349135
1031 2 0.296737 0.644478 0.345526
686 2 0.302075 0.735771 0.277114
1333 4 0.349226 0.667478 0.322576
1033 4 0.327797 0.662443 0.341918
687 4 0.312705 0.752946 0.306989
897 4 0.318273 0.742675 0.334407
1331 2 0.3691 0.688136 0.300695
896 2 0.312746 0.745281 0.369948
1332 4 0.388975 0.708794 0.278814
1243 4 0.416117 0.711898 0.289302
1241 2 0.435573 0.74195 0.293636
877 4 0.0946002 0.810313 0.253849
875 2 0.116496 0.805946 0.282167
876 4 0.138393 0.801579 0.310486
657 4 0.166791 0.801849 0.320041
656 2 0.200281 0.814312 0.315186
658 4 0.233771 0.826775 0.310331
718 4 0.23682 0.806975 0.287672
717 4 0.307364 0.812816 0.273845
716 2 0.272092 0.809895 0.280758
1242 4 0.455029 0.772002 0.297969
634 4 0.468316 0.785323 0.320077
1419 4 0.994168 0.955557 0.317925
732 4 0.0774593 0.979225 0.284633
731 2 0.0493742 0.962425 0.299782
315 4 0.0819644 0.00446207 0.272044
733 4 0.021289 0.945626 0.314931
908 2 0.16434 0.935839 0.269866
1168 4 0.128583 0.940624 0.363699
1290 4 0.179773 0.898676 0.320961
909 4 0.169307 0.913591 0.297809
1289 2 0.166593 0.918365 0.348147
763 4 0.233862 0.989297 0.340574
87 3 0.323977 0.983509 0.301891
1600 4 0.359899 0.939484 0.274302
963 4 0.438626 0.983403 0.278708
962 2 0.473484 0.978137 0.271112
659 2 0.0565066 0.617526 0.497546
660 4 0.0852067 0.601022 0.483248
163 3 0.21804 0.589291 0.403498
161 1 0.217686 0.617925 0.386179
934 4 0.235188 0.574426 0.42168
932 2 0.25401 0.57784 0.45225
933 4 0.272832 0.581253 0.482819
661 4 0.0278066 0.63403 0.511844
162 3 0.218416 0.643351 0.407478
400 4 0.221517 0.648772 0.434847
398 2 0.239013 0.671559 0.456645
399 4 0.256509 0.694346 0.478443
1308 4 0.27398 0.715855 0.482281
1307 2 0.287747 0.737127 0.456621
898 4 0.307219 0.747886 0.405488
1309 4 0.301514 0.758399 0.430961
951 4 0.485549 0.746074 0.500941
196 1 0.0173101 0.829968 0.509512
198 3 0.0243791 0.801598 0.49323
200 3 0.0420754 0.851283 0.506159
725 2 0.141986 0.83339 0.385091
727 4 0.113336 0.812592 0.378227
362 2 0.333941 0.826781 0.496672
364 4 0.353516 0.818278 0.467604
1339 4 0.467678 0.772775 0.406647
952 4 0.462675 0.762294 0.434493
950 2 0.474112 0.754184 0.467717
880 4 0.377657 0.813645 0.482202
878 2 0.41324 0.812022 0.487829
879 4 0.448824 0.8104 0.493456
1166 2 0.0938715 0.93994 0.373453
1092 4 0.0507182 0.937698 0.410359
1091 2 0.0206501 0.929214 0.42837
1167 4 0.0591602 0.939255 0.383206
1516 4 0.0567369 0.875938 0.503808
726 4 0.170636 0.854187 0.391955
1291 4 0.153414 0.938054 0.375333
387 4 0.152766 0.978814 0.454366
401 2 0.319057 0.979129 0.437956
402 4 0.291233 0.958877 0.448734
1296 4 0.365894 0.985997 0.506862
784 4 0.356877 0.013751 0.516838
1295 2 0.401151 0.992427 0.502856
1297 4 0.436407 0.998858 0.498849
1398 4 0.102354 0.6197 0.604775
1397 2 0.133719 0.604405 0.61387
250 3 0.00410995 0.564499 0.502247
1399 4 0.165084 0.589109 0.622965
233 3 0.232346 0.586644 0.605523
231 1 0.216817 0.609396 0.624527
1596 4 0.260243 0.51878 0.604675
1019 2 0.304011 0.533281 0.561019
1021 4 0.321391 0.5424 0.530766
279 4 0.346452 0.556556 0.535383
1020 4 0.28663 0.524162 0.591271
278 2 0.377407 0.575057 0.535435
280 4 0.408362 0.593558 0.535487
775 4 0.427326 0.61398 0.526392
773 2 0.456192 0.632369 0.51503
259 4 0.437208 0.552215 0.60805
257 2 0.469126 0.565302 0.597543
630 4 0.995929 0.75694 0.578816
1463 2 0.0398448 0.631808 0.607715
1465 4 0.0752622 0.63346 0.601129
234 3 0.209045 0.636254 0.606137
621 4 0.415834 0.7046 0.577859
620 2 0.392203 0.706769 0.605013
774 4 0.485057 0.650758 0.503668
622 4 0.368572 0.708938 0.632166
1080 4 0.480561 0.732744 0.525292
197 3 0.0130868 0.823098 0.541693
363 4 0.314366 0.835284 0.52574
1459 4 0.460229 0.857599 0.605628
685 4 0.458601 0.837977 0.626608
820 4 0.473326 0.819275 0.506561
818 2 0.489683 0.814243 0.538304
758 2 0.998613 0.956947 0.562034
759 4 0.0324282 0.947918 0.55335
1515 4 0.0576625 0.936318 0.543245
1514 2 0.0571997 0.906128 0.523526
55 3 0.49472 0.0156389 0.548198
1457 2 0.456323 0.880432 0.577989
1458 4 0.452417 0.903265 0.550351
1362 4 0.462628 0.897523 0.522113
1361 2 0.496964 0.89525 0.511326
862 4 0.468814 0.973686 0.600407
1595 2 0.243471 0.510533 0.635516
232 3 0.188855 0.596117 0.636466
235 3 0.236175 0.618178 0.649566
1370 2 0.235017 0.517435 0.7188
1371 4 0.255071 0.534785 0.743239
1544 2 0.295236 0.624838 0.649571
1546 4 0.260435 0.633762 0.646458
1545 4 0.330038 0.615913 0.652684
1041 4 0.494364 0.504433 0.650083
1494 4 0.189119 0.695718 0.738456
915 4 0.354201 0.630949 0.652522
435 4 0.362635 0.642055 0.718282
914 2 0.385782 0.647635 0.6575
916 4 0.417362 0.66432 0.662477
1120 4 0.445264 0.66415 0.652884
1118 2 0.473646 0.683811 0.663294
801 4 0.391497 0.735903 0.707668
505 4 0.0972738 0.846837 0.721287
504 4 0.162495 0.876349 0.730071
503 2 0.129884 0.861593 0.725679
683 2 0.445011 0.808554 0.64242
684 4 0.43142 0.779131 0.658232
800 2 0.407162 0.743517 0.739245
173 3 0.477902 0.866121 0.711089
1236 4 0.469865 0.849617 0.687702
93 3 0.163377 0.00285277 0.661692
575 2 0.208719 0.937224 0.725261
577 4 0.213363 0.948624 0.691365
570 4 0.345628 0.947519 0.678498
569 2 0.379933 0.958576 0.677333
1237 4 0.487243 0.905854 0.646023
571 4 0.414238 0.969634 0.676168
861 4 0.436839 0.983906 0.664243
1235 2 0.478554 0.877735 0.666862
860 2 0.452827 0.978796 0.632325
670 4 0.975121 0.513683 0.835907
887 2 0.19168 0.529212 0.814421
889 4 0.227121 0.535701 0.812894
1062 4 0.175375 0.623449 0.844686
1061 2 0.204914 0.61736 0.864455
212 3 0.26411 0.537453 0.770187
214 3 0.2548 0.532774 0.823384
213 3 0.255718 0.582175 0.79965
211 1 0.269254 0.551569 0.799767
1175 2 0.366521 0.552069 0.810619
1176 4 0.330548 0.554419 0.811545
215 3 0.301565 0.553627 0.8053
555 4 0.473975 0.505275 0.787097
1177 4 0.402495 0.549719 0.809693
594 4 0.429661 0.554958 0.818592
554 2 0.438979 0.500022 0.780155
593 2 0.451813 0.570265 0.84258
595 4 0.473965 0.585573 0.866568
682 4 0.0564966 0.689153 0.804547
680 2 0.0924893 0.687038 0.803828
1493 2 0.16961 0.681329 0.765154
1495 4 0.150101 0.66694 0.791853
681 4 0.128482 0.684924 0.803109
993 4 0.233858 0.744663 0.875484
436 4 0.383935 0.659397 0.78497
434 2 0.373285 0.650726 0.751626
516 4 0.380466 0.647469 0.810634
515 2 0.395743 0.660739 0.840483
1502 2 0.462852 0.756017 0.813088
1256 2 0.0584711 0.811542 0.81611
1258 4 0.0867263 0.81104 0.793707
286 4 0.111277 0.824567 0.801454
284 2 0.135202 0.839367 0.824017
38 3 0.181272 0.786077 0.87762
285 4 0.159127 0.854166 0.846579
149 3 0.168164 0.860963 0.872532
1180 4 0.150882 0.788768 0.878486
36 1 0.204133 0.775027 0.855822
37 3 0.209553 0.742773 0.861391
40 3 0.193183 0.779012 0.825112
39 3 0.232855 0.791696 0.859956
427 4 0.372263 0.831909 0.761314
799 4 0.256551 0.810213 0.863158
1369 4 0.289003 0.821694 0.760942
1367 2 0.323851 0.818718 0.752152
1368 4 0.358699 0.815743 0.743362
171 1 0.476644 0.859985 0.743962
425 2 0.401625 0.851169 0.769521
426 4 0.430987 0.87043 0.777727
174 3 0.4877 0.829029 0.750237
802 4 0.422827 0.751131 0.770822
175 3 0.445816 0.863288 0.754808
1503 4 0.430881 0.76049 0.797016
734 2 0.377409 0.849822 0.848581
735 4 0.373212 0.814022 0.847463
73 3 0.0123202 0.895357 0.838552
1244 2 0.0542185 0.936604 0.850874
1246 4 0.0210915 0.922354 0.85064
1245 4 0.0873455 0.950853 0.851108
1137 4 0.113307 0.938811 0.852153
1470 4 0.163316 0.994495 0.797304
576 4 0.204074 0.925825 0.759157
805 4 0.1621 0.899093 0.819735
803 2 0.18928 0.901604 0.796168
804 4 0.21646 0.904114 0.7726
1136 2 0.13855 0.955221 0.832304
150 3 0.1825 0.902146 0.840172
1138 4 0.163792 0.971632 0.812456
301 4 0.229223 0.907587 0.896926
1116 4 0.360213 0.902865 0.846216
1115 2 0.332608 0.921845 0.859564
1117 4 0.305002 0.940825 0.872911
309 4 0.409092 0.892294 0.860496
172 3 0.49615 0.881734 0.759686
736 4 0.381607 0.885621 0.849699
855 4 0.241773 0.524342 0.93754
1063 4 0.234453 0.611271 0.884224
1135 4 0.235439 0.59096 0.905805
1133 2 0.230534 0.555444 0.909673
1134 4 0.22563 0.519927 0.913541
1248 4 0.313304 0.58221 0.918739
1249 4 0.326626 0.567915 0.988166
1247 2 0.319965 0.575062 0.953452
357 4 0.299425 0.571821 0.997465
1393 4 0.498714 0.591122 0.881003
541 4 0.473136 0.539937 0.950402
566 2 0.449968 0.595521 0.963529
567 4 0.46801 0.56654 0.951909
568 4 0.431926 0.624503 0.975149
544 4 0.00392756 0.628425 0.914354
305 2 0.200735 0.689438 0.958149
307 4 0.190944 0.674714 0.926719
306 4 0.210527 0.704161 0.989578
992 2 0.25333 0.728964 0.901462
994 4 0.272802 0.713265 0.92744
1284 4 0.299326 0.720895 0.934492
1283 2 0.319988 0.743319 0.953744
1285 4 0.340651 0.765743 0.972997
517 4 0.411021 0.674008 0.870332
1402 4 0.406683 0.663359 0.97854
1400 2 0.440592 0.67409 0.984497
883 4 0.494401 0.707109 0.985133
972 4 0.0263698 0.738113 0.948921
971 2 0.0616174 0.743817 0.943867
973 4 0.0968651 0.749521 0.938813
1179 4 0.113694 0.740715 0.917341
1178 2 0.132288 0.764742 0.897913
665 2 0.157208 0.869043 0.973676
666 4 0.181384 0.845656 0.986678
797 2 0.273666 0.828155 0.889341
798 4 0.290781 0.846097 0.915525
614 2 0.322002 0.842174 0.00682903
616 4 0.35748 0.837861 0.0116407
942 4 0.367014 0.752471 0.97267
615 4 0.286523 0.846487 0.00201739
811 4 0.392896 0.819107 0.00549535
941 2 0.387939 0.774354 0.992259
1443 4 0.123352 0.966616 0.943048
1442 2 0.114277 0.93193 0.946921
1444 4 0.105202 0.897244 0.950793
146 1 0.183739 0.890536 0.870872
299 2 0.25403 0.928969 0.881829
667 4 0.133031 0.892429 0.960674
148 3 0.215603 0.887227 0.880551
147 3 0.168502 0.91184 0.891236
134 3 0.335477 0.00204614 0.970384
968 2 0.285031 0.906727 0.979063
133 3 0.304918 0.957215 0.962584
132 3 0.311308 0.993316 0.922655
131 1 0.308144 0.98976 0.955489
300 4 0.278838 0.950351 0.866733
970 4 0.280746 0.941693 0.97135
20 3 0.354053 0.9264 0.989698
781 4 0.425006 0.998514 0.961263
190 3 0.475192 0.96262 0.998504
189 3 0.448017 0.956645 0.95187
186 1 0.465214 0.977885 0.971186
779 2 0.389574 0.000941105 0.955003
188 3 0.446072 0.00415912 0.979132
308 2 0.443813 0.897401 0.868791
310 4 0.478535 0.902508 0.877085
834 4 0.573246 0.000630774 0.0791854
945 4 0.697736 0.00949596 0.0571161
1383 4 0.672617 0.00143277 0.0443605
944 2 0.731688 0.021637 0.0565318
946 4 0.765639 0.033778 0.0559475
754 4 0.781515 0.048452 0.0766341
752 2 0.817322 0.0480897 0.0723553
753 4 0.853128 0.0477273 0.0680765
937 4 0.883211 0.0499417 0.0722928
935 2 0.900115 0.0803618 0.0628399
936 4 0.917019 0.110782 0.0533869
1269 4 0.935163 0.116553 0.0313293
319 4 0.620047 0.269449 0.0988542
1010 2 0.515201 0.183579 0.0264375
1011 4 0.546858 0.195978 0.0144138
1012 4 0.483544 0.171181 0.0384613
1002 4 0.686489 0.148886 0.0519497
1001 2 0.708961 0.176856 0.055581
1003 4 0.731432 0.204826 0.0592123
1096 4 0.74984 0.227054 0.0507506
1304 2 0.779837 0.169 0.106785
1305 4 0.809312 0.188993 0.101132
1066 4 0.829679 0.211398 0.104729
1064 2 0.844533 0.234664 0.0815224
590 2 0.885631 0.151057 0.0186747
591 4 0.900804 0.134649 0.0469776
229 3 0.894746 0.14286 0.0726239
1094 2 0.763354 0.242143 0.0805868
226 1 0.893152 0.164749 0.0978881
228 3 0.891429 0.195941 0.0858876
1268 2 0.963499 0.134162 0.0176366
227 3 0.920577 0.161853 0.116333
841 4 0.931324 0.140658 0.13336
839 2 0.966985 0.13645 0.136675
42 3 0.509232 0.345549 0.0606314
41 1 0.541946 0.350665 0.0627117
45 3 0.556101 0.324585 0.0767942
43 3 0.554193 0.355043 0.0318774
318 4 0.55711 0.295281 0.074906
1281 4 0.58145 0.368295 0.026688
317 2 0.588578 0.282365 0.0868801
1280 2 0.606762 0.347539 0.0115573
61 1 0.679751 0.319822 0.000227238
65 3 0.665918 0.311906 0.0289464
463 4 0.66675 0.317333 0.0556774
461 2 0.671075 0.311117 0.0909352
63 3 0.70497 0.341248 0.00522105
462 4 0.675401 0.3049 0.126193
1065 4 0.859387 0.257929 0.0583158
959 2 0.757798 0.376953 0.00846535
1095 4 0.776868 0.257231 0.110423
44 3 0.547466 0.378018 0.0811867
639 4 0.57476 0.384686 0.0857217
638 2 0.598806 0.409117 0.0745269
640 4 0.622853 0.433549 0.063332
1140 4 0.652012 0.431248 0.0583352
1139 2 0.68551 0.431488 0.0449849
1141 4 0.719009 0.431728 0.0316345
960 4 0.784214 0.400344 0.0159162
792 4 0.805513 0.409694 0.0344083
791 2 0.83883 0.403678 0.0219903
793 4 0.872147 0.397662 0.00957239
1414 4 0.981186 0.441693 0.111807
605 2 0.526051 0.0774076 0.211944
607 4 0.552072 0.0572832 0.22672
948 4 0.572602 0.0354307 0.224101
606 4 0.50003 0.097532 0.197167
947 2 0.596376 0.0220943 0.24771
1005 4 0.000853571 0.01576 0.203354
1004 2 0.968362 0.00494013 0.192055
1006 4 0.93587 0.99412 0.180755
840 4 0.00264686 0.132242 0.139989