ITEM: TIMESTEP
1978000
ITEM: NUMBER OF ATOMS
4590
ITEM: BOX BOUNDS xy xz yz pp pp pp
-9.9985700000000008e+00 9.9985700000000008e+00 0.0000000000000000e+00
-9.9985700000000008e+00 9.9985700000000008e+00 0.0000000000000000e+00
-9.9985700000000008e+00 9.9985700000000008e+00 0.0000000000000000e+00
ITEM: ATOMS id type xs ys zs
1108 2 0.0371481 0.0215125 0.0179314
67 3 0.0177712 0.049092 0.00468003
1110 4 0.0372284 0.0445983 0.00832848
300 4 0.0142317 0.0797158 0.020815
124 3 0.0990619 0.0367129 0.0776123
1008 4 0.370448 0.0384373 0.0429688
1006 2 0.375898 0.0628328 0.0423617
2786 4 0.371442 0.0329797 0.0627227
4259 4 0.36786 0.00707742 0.0179158
4097 4 0.405472 0.0039572 0.0443111
1286 4 0.48957 0.0408026 0.0506962
3809 4 0.423334 0.00373439 0.0534953
3808 2 0.437985 0.0191092 0.0666933
1285 2 0.49056 0.0158665 0.0491518
3810 4 0.452635 0.034484 0.0798913
759 4 0.469678 0.0428412 0.0766402
298 2 0.022628 0.0896851 0.0421527
299 4 0.0310244 0.0996543 0.0634905
4505 4 0.00882755 0.12177 0.0367025
1262 4 0.0111136 0.12603 0.0172408
1070 4 0.0172057 0.110498 0.0742224
633 4 0.200687 0.148743 0.0444935
631 2 0.186166 0.165743 0.0332984
1007 4 0.381347 0.0872282 0.0417546
3983 4 0.395476 0.10094 0.0444946
113 3 0.389236 0.0999619 0.0134884
3982 2 0.418389 0.101995 0.0544483
3984 4 0.441302 0.10305 0.0644019
1168 2 0.479905 0.108317 0.080205
3919 2 0.487959 0.15186 0.999918
1169 4 0.455249 0.104708 0.0781387
2805 4 0.0683782 0.242783 0.0161933
2913 4 0.0585326 0.244351 0.998639
2501 4 0.158196 0.196213 0.0151562
632 4 0.171645 0.182743 0.0221033
3193 2 0.0207996 0.285368 0.0639951
3194 4 0.040665 0.286662 0.0488664
3195 4 0.000934209 0.284073 0.0791238
2803 2 0.0770752 0.253791 0.0368907
2804 4 0.0857723 0.264799 0.0575881
2528 4 0.119557 0.283262 0.0412216
738 4 0.156652 0.251113 0.0634504
2527 2 0.141825 0.290268 0.032265
2529 4 0.164094 0.297275 0.0233083
3213 4 0.158256 0.315402 0.0192287
639 4 0.100703 0.339028 0.0184711
1028 4 0.23821 0.304169 0.0292023
1027 2 0.224112 0.299322 0.0492754
1029 4 0.210014 0.294474 0.0693486
3211 2 0.180382 0.319941 0.00850218
2976 4 0.398101 0.304153 0.0523071
3335 4 0.380269 0.3001 0.0627524
2974 2 0.408205 0.282562 0.0447643
2970 4 0.499847 0.270094 0.0489186
2975 4 0.418308 0.26097 0.0372215
2968 2 0.488832 0.258028 0.0678465
638 4 0.0512968 0.343652 0.0246703
637 2 0.0759999 0.34134 0.0215707
2458 2 0.0357333 0.381887 0.0635323
2460 4 0.0485824 0.396741 0.0480575
2459 4 0.0228842 0.367034 0.079007
4088 4 0.144331 0.364956 0.0871953
2610 4 0.115028 0.332408 0.0327268
2608 2 0.128137 0.343601 0.0508394
2609 4 0.141246 0.354794 0.0689519
3006 4 0.236988 0.339735 0.0518342
3004 2 0.245333 0.345461 0.0289699
3005 4 0.253677 0.351187 0.00610556
1593 4 0.488882 0.398897 0.99938
1047 4 0.0616946 0.447338 0.0499867
1045 2 0.0622035 0.468417 0.0365478
1046 4 0.0627124 0.489496 0.0231089
4586 4 0.0752497 0.43748 0.0594786
2088 4 0.0789828 0.497293 0.0308706
3623 4 0.0619125 0.00872379 0.0871129
3622 2 0.0396568 0.997336 0.0866709
125 3 0.0805449 0.00900306 0.0951324
3484 2 0.00154848 0.0651383 0.106069
3486 4 0.0146495 0.0570536 0.125772
121 1 0.0976971 0.0238808 0.0968965
122 3 0.117443 0.0123937 0.0995986
123 3 0.0944169 0.0375968 0.115322
3546 4 0.138166 0.0167385 0.0991726
3544 2 0.156177 0.0337504 0.0957953
396 4 0.107693 0.0692165 0.129331
489 4 0.162744 0.0398157 0.136271
3545 4 0.174187 0.0507623 0.0924181
487 2 0.184048 0.0385819 0.149302
1437 4 0.190249 0.0594019 0.100599
1435 2 0.215192 0.0597776 0.102302
1436 4 0.240134 0.0601532 0.104005
404 4 0.246769 0.0632869 0.123115
488 4 0.205351 0.037348 0.162333
1539 4 0.216821 0.00527472 0.120134
403 2 0.26407 0.0801458 0.129569
2785 2 0.368709 0.0235008 0.0856979
258 4 0.362335 0.00956692 0.127643
2787 4 0.365975 0.0140218 0.108673
757 2 0.482551 0.0518392 0.0960956
758 4 0.495424 0.0608372 0.115551
2756 4 0.052442 0.156179 0.110158
1069 2 0.0335678 0.125357 0.0859139
1071 4 0.04993 0.140216 0.0976054
2755 2 0.0748004 0.146888 0.1164
2757 4 0.0971589 0.137597 0.122642
395 4 0.104034 0.118687 0.123005
394 2 0.105863 0.0939516 0.126168
2606 4 0.287393 0.0939117 0.154379
405 4 0.281371 0.0970047 0.136024
3586 2 0.40104 0.15167 0.136309
3587 4 0.385707 0.131931 0.137012
3588 4 0.416372 0.171408 0.135606
2754 4 0.489284 0.141784 0.131335
1232 4 0.473762 0.151536 0.139092
2838 4 0.193479 0.210108 0.148196
2708 4 0.201554 0.22716 0.141053
2707 2 0.224652 0.218061 0.138069
2709 4 0.247749 0.208961 0.135086
1463 4 0.303287 0.224108 0.156406
1462 2 0.327136 0.217224 0.159413
641 4 0.367074 0.219143 0.159236
1464 4 0.350985 0.21034 0.162421
1231 2 0.45365 0.164956 0.132722
1233 4 0.433538 0.178376 0.126351
706 2 0.451697 0.224504 0.153142
708 4 0.444749 0.23541 0.131743
2633 4 0.442959 0.253781 0.125327
690 4 0.00937785 0.315863 0.151517
1102 2 0.0421255 0.330757 0.148417
1103 4 0.0193705 0.327165 0.138695
1511 4 0.079665 0.323451 0.151342
1510 2 0.100523 0.327589 0.138189
2959 2 0.143235 0.283982 0.131981
4089 4 0.14251 0.328564 0.121445
736 2 0.148052 0.251371 0.0869273
737 4 0.139451 0.251629 0.110404
1512 4 0.121381 0.331727 0.125036
2961 4 0.133545 0.271006 0.112932
2960 4 0.152926 0.296959 0.151031
2966 4 0.206335 0.299706 0.0873468
2965 2 0.213512 0.300789 0.111273
2967 4 0.22069 0.301871 0.1352
2910 4 0.331146 0.275973 0.161036
3108 4 0.331365 0.292973 0.150429
3334 2 0.38179 0.306279 0.0869327
3106 2 0.349216 0.304109 0.136919
3107 4 0.367067 0.315245 0.123409
3336 4 0.383312 0.312458 0.111113
2969 4 0.477816 0.245962 0.0867744
2634 4 0.455904 0.294628 0.0995473
2632 2 0.449431 0.274204 0.112437
782 4 0.0043953 0.364727 0.087343
1104 4 0.0648805 0.334349 0.158138
4087 2 0.14342 0.34676 0.10432
2578 2 0.303452 0.348104 0.147949
2579 4 0.317741 0.345156 0.127643
554 4 0.31979 0.347463 0.108015
553 2 0.341471 0.356626 0.0995786
555 4 0.363152 0.365788 0.0911418
1488 4 0.00462572 0.4951 0.0914901
2590 2 0.0265473 0.465549 0.125899
4585 2 0.0789315 0.442948 0.0835973
2591 4 0.030145 0.441472 0.131599
2592 4 0.0229496 0.489627 0.1202
143 3 0.119847 0.418686 0.109737
4587 4 0.0826133 0.448416 0.107716
145 3 0.114138 0.429099 0.145467
141 1 0.117905 0.436638 0.12431
142 3 0.100194 0.449728 0.117666
144 3 0.137277 0.4494 0.123784
524 4 0.154199 0.458169 0.116799
523 2 0.173972 0.472487 0.111394
525 4 0.193745 0.486805 0.10599
288 4 0.214108 0.488688 0.105692
286 2 0.229385 0.47102 0.114617
287 4 0.244662 0.453352 0.123541
753 4 0.256568 0.464737 0.136695
751 2 0.275537 0.466261 0.152914
2140 2 0.441406 0.485542 0.148011
2141 4 0.449498 0.48444 0.124379
2780 4 0.459826 0.499235 0.115414
2779 2 0.484435 0.495682 0.112768
1687 2 0.165592 0.998723 0.23209
3553 2 0.166308 0.0619569 0.23619
1689 4 0.178438 0.020036 0.234525
3270 4 0.213848 0.0431265 0.179947
3268 2 0.20348 0.0342585 0.2009
3269 4 0.193111 0.0253904 0.221853
3554 4 0.184222 0.0623529 0.21875
587 4 0.198781 0.0726732 0.228307
2607 4 0.33225 0.0792638 0.17093
2808 4 0.347178 0.0782725 0.184332
712 2 0.0331073 0.15794 0.241969
3062 4 0.122659 0.0883654 0.1997
3061 2 0.123095 0.10184 0.220758
3063 4 0.123531 0.115314 0.241816
586 2 0.216036 0.0888172 0.220132
588 4 0.23329 0.104961 0.211957
2605 2 0.309822 0.0865878 0.162655
2807 4 0.395787 0.0894553 0.180737
2806 2 0.371483 0.0838639 0.182535
666 4 0.417574 0.159045 0.241726
714 4 0.0226531 0.17271 0.224714
734 4 0.0134928 0.191839 0.22511
474 4 0.0922708 0.253242 0.176579
2513 4 0.124961 0.184847 0.241063
2512 2 0.138577 0.186997 0.220202
2514 4 0.152192 0.189147 0.199341
472 2 0.115849 0.249863 0.184183
2837 4 0.169911 0.191242 0.188063
2572 2 0.170051 0.234926 0.213672
2836 2 0.181695 0.200675 0.16813
2573 4 0.182164 0.219891 0.229561
1763 4 0.336396 0.230429 0.247236
642 4 0.396524 0.19943 0.194518
640 2 0.381799 0.209286 0.176877
665 4 0.396412 0.180097 0.201605
664 2 0.406993 0.169571 0.221665
707 4 0.458646 0.213597 0.174541
285 4 0.464637 0.205642 0.192494
283 2 0.488582 0.202485 0.198965
339 4 0.0533689 0.287672 0.23692
1601 4 0.0448398 0.270135 0.236235
337 2 0.0774228 0.29449 0.237278
473 4 0.139428 0.246485 0.191787
2574 4 0.157939 0.249961 0.197783
338 4 0.101477 0.301307 0.237636
246 4 0.114704 0.290012 0.228209
244 2 0.138805 0.296557 0.226996
245 4 0.162906 0.303103 0.225783
2841 4 0.173296 0.321253 0.226536
2839 2 0.194455 0.307932 0.226702
2840 4 0.215613 0.294611 0.226867
677 4 0.209244 0.283597 0.243418
2908 2 0.316115 0.27115 0.180427
2909 4 0.301084 0.266326 0.199818
1762 2 0.328746 0.253525 0.241472
1764 4 0.321095 0.276621 0.235708
3960 4 0.157915 0.39961 0.24328
2509 2 0.171576 0.370925 0.214421
2511 4 0.173219 0.354583 0.195568
2510 4 0.169932 0.387267 0.233274
2580 4 0.289163 0.351052 0.168254
3819 4 0.284358 0.365611 0.181082
3817 2 0.283806 0.367089 0.206036
3818 4 0.283255 0.368567 0.23099
110 3 0.297023 0.362348 0.244306
3686 4 0.0176647 0.434137 0.240372
3884 4 0.0265838 0.45221 0.23789
3883 2 0.0211317 0.471733 0.223251
3885 4 0.0156797 0.491255 0.208611
2042 4 0.174012 0.480292 0.219576
2041 2 0.181064 0.490078 0.197674
2817 4 0.233587 0.453566 0.204928
2815 2 0.235935 0.459967 0.228984
3882 4 0.309119 0.477872 0.181086
752 4 0.294506 0.467785 0.169132
2142 4 0.433315 0.486644 0.171644
279 4 0.445456 0.472034 0.179041
277 2 0.460393 0.465297 0.197928
278 4 0.47533 0.45856 0.216814
774 4 0.478934 0.469273 0.232924
3555 4 0.148394 0.0615608 0.253629
546 4 0.314094 0.0080462 0.313152
2678 4 0.00850986 0.143105 0.307714
19 3 0.00942848 0.124642 0.303736
16 1 0.00705393 0.102399 0.3099
713 4 0.0435615 0.143169 0.259223
2677 2 0.00925026 0.163815 0.293724
2534 4 0.0542045 0.144915 0.27601
20 3 0.0200025 0.0892209 0.296584
2533 2 0.0790126 0.14195 0.27503
2535 4 0.103821 0.138985 0.274049
295 2 0.144572 0.102284 0.277543
296 4 0.127141 0.11029 0.261504
52 3 0.107299 0.159155 0.277379
1866 4 0.104923 0.114842 0.33091
55 3 0.14145 0.16734 0.264744
297 4 0.162003 0.094279 0.293583
2675 4 0.432171 0.148577 0.251876
2674 2 0.433754 0.163773 0.271669
2679 4 0.00999067 0.184525 0.279734
1796 4 0.0425733 0.238466 0.285162
1795 2 0.0563403 0.2204 0.295615
1797 4 0.0701072 0.202334 0.306067
1602 4 0.0370378 0.231642 0.267189
2611 2 0.00838838 0.214632 0.334311
2612 4 0.0247336 0.233328 0.3314
53 3 0.112446 0.189781 0.256207
51 1 0.121938 0.176202 0.272452
54 3 0.125897 0.188496 0.291729
1800 4 0.121584 0.190284 0.310411
1798 2 0.138826 0.205132 0.320778
1799 4 0.156067 0.21998 0.331144
2918 4 0.223839 0.24801 0.289797
3236 4 0.269568 0.166003 0.30322
3237 4 0.309344 0.195347 0.295643
3235 2 0.289456 0.180675 0.299432
2676 4 0.435336 0.178969 0.291462
2812 2 0.48633 0.224544 0.266413
2814 4 0.467421 0.208198 0.267051
1600 2 0.0409388 0.250889 0.251712
453 4 0.0676304 0.278157 0.325636
451 2 0.0479369 0.264551 0.332863
2799 4 0.0858796 0.268551 0.321517
2797 2 0.107855 0.257861 0.32681
1862 4 0.13115 0.337896 0.280805
2660 4 0.144762 0.328085 0.293788
1861 2 0.107866 0.33287 0.288404
2659 2 0.169407 0.325757 0.297314
1863 4 0.0845815 0.327843 0.296003
2798 4 0.12983 0.247171 0.332102
678 4 0.236618 0.256918 0.275661
2917 2 0.223888 0.254639 0.313906
2661 4 0.194051 0.323429 0.30084
676 2 0.222931 0.270257 0.25954
269 4 0.204947 0.326771 0.31738
268 2 0.227694 0.317447 0.312818
270 4 0.25044 0.308123 0.308255
417 4 0.309487 0.333028 0.33341
415 2 0.304809 0.328794 0.309215
416 4 0.300132 0.32456 0.285021
446 4 0.493488 0.322458 0.293449
411 4 0.480845 0.32188 0.279013
409 2 0.458477 0.332987 0.277792
582 4 0.99354 0.409724 0.347156
2490 4 0.0712279 0.339629 0.305082
2488 2 0.0566306 0.352111 0.321092
3958 2 0.138244 0.411898 0.252621
3221 4 0.111482 0.412516 0.276672
109 3 0.320976 0.370447 0.272206
4511 4 0.328517 0.387544 0.278982
108 3 0.28386 0.37764 0.276095
106 1 0.299564 0.363232 0.266921
107 3 0.296413 0.342216 0.275726
4510 2 0.352642 0.383049 0.274186
4512 4 0.376766 0.378553 0.269389
494 4 0.379453 0.36431 0.28278
493 2 0.404398 0.363171 0.281512
410 4 0.436109 0.344093 0.276572
495 4 0.429344 0.362032 0.280245
3222 4 0.0788324 0.447271 0.291731
1392 4 0.0199028 0.425892 0.300586
1390 2 0.0398653 0.438747 0.292747
1391 4 0.0598277 0.451603 0.284909
1775 4 0.00010241 0.44615 0.334534
3959 4 0.118574 0.424187 0.261962
3220 2 0.0951573 0.429893 0.284202
2816 4 0.238282 0.466369 0.25304
667 2 0.243621 0.468883 0.297739
668 4 0.245147 0.473602 0.322245
669 4 0.242094 0.464164 0.273232
2507 4 0.258047 0.484066 0.33277
772 2 0.494436 0.482596 0.247325
1376 4 0.0643108 0.0336025 0.409981
1375 2 0.0491198 0.0464625 0.394847
1377 4 0.0339287 0.0593226 0.379713
1033 2 0.113301 0.997786 0.376974
1034 4 0.0919312 0.00561874 0.366622
2553 4 0.22145 0.00299532 0.389017
2551 2 0.246317 0.002183 0.386543
2552 4 0.271185 0.00137068 0.38407
1622 4 0.281306 0.0176724 0.381641
1623 4 0.32173 0.0469637 0.378701
1621 2 0.301518 0.032318 0.380171
3548 4 0.254602 0.0664373 0.404005
402 4 0.334967 0.044476 0.395041
400 2 0.359914 0.0428077 0.394849
3051 4 0.387452 0.0537573 0.409173
401 4 0.384862 0.0411393 0.394658
3049 2 0.411865 0.0590922 0.410037
1216 2 0.489524 0.0177813 0.363334
1218 4 0.494863 0.0392612 0.374967
3665 4 0.476381 0.0488306 0.377386
3664 2 0.463042 0.0639805 0.392142
3050 4 0.436278 0.064427 0.410902
3666 4 0.449703 0.0791304 0.406899
17 3 0.0137637 0.0999854 0.33177
1518 4 0.0491218 0.113404 0.388658
1517 4 0.0226236 0.096309 0.349847
1516 2 0.0358727 0.104856 0.369253
1865 4 0.129631 0.103035 0.372753
1864 2 0.117277 0.108939 0.351832
1817 4 0.13101 0.157376 0.407154
1816 2 0.152892 0.150711 0.417252
519 4 0.164836 0.125957 0.354073
518 4 0.189434 0.166791 0.338962
517 2 0.177135 0.146374 0.346518
3030 4 0.19351 0.141474 0.420502
452 4 0.0282434 0.250944 0.340089
2654 4 0.0191929 0.215583 0.366316
2653 2 0.0405785 0.215413 0.379271
2655 4 0.061964 0.215244 0.392225
579 4 0.175679 0.220443 0.338207
577 2 0.189856 0.199878 0.339312
578 4 0.204034 0.179312 0.340418
365 4 0.24959 0.171565 0.411718
3806 4 0.17889 0.167924 0.403491
3805 2 0.182593 0.190609 0.393647
3807 4 0.186297 0.213293 0.383803
1698 4 0.19065 0.233616 0.380412
364 2 0.273972 0.170172 0.417079
569 4 0.0229954 0.281911 0.404731
568 2 0.0465398 0.283634 0.41297
4 3 0.081758 0.299515 0.414285
2 3 0.114686 0.281648 0.411257
1696 2 0.198863 0.250442 0.363839
1697 4 0.207076 0.267267 0.347266
2919 4 0.223936 0.261267 0.338015
1765 2 0.310853 0.260165 0.416015
1766 4 0.334336 0.268403 0.413587
3708 4 0.351503 0.278198 0.408968
3706 2 0.369645 0.275016 0.392058
3707 4 0.387786 0.271834 0.375148
438 4 0.395911 0.267722 0.357517
230 4 0.496837 0.285505 0.370793
436 2 0.419305 0.259962 0.361724
437 4 0.442698 0.252202 0.365932
231 4 0.449184 0.270366 0.369974
229 2 0.473011 0.277936 0.370384
580 2 0.0124528 0.393394 0.348072
581 4 0.0313654 0.377065 0.348988
2489 4 0.0420332 0.364593 0.337101
2666 4 0.0780812 0.408972 0.413291
711 4 0.249486 0.418416 0.418083
3168 4 0.435981 0.393521 0.353825
598 2 0.493383 0.438798 0.377161
3166 2 0.445377 0.414744 0.363124
3167 4 0.454774 0.435968 0.372423
599 4 0.469804 0.440875 0.385216
2715 4 0.0768373 0.020447 0.419548
811 2 0.0666958 0.0105277 0.49348
813 4 0.0539061 0.0274829 0.480284
2963 4 0.0714254 0.0355869 0.472795
2962 2 0.0889914 0.0522153 0.466462
2713 2 0.0863953 0.999137 0.428474
2964 4 0.106557 0.0688436 0.460128
2825 4 0.1406 0.0774279 0.41523
2824 2 0.162044 0.0781639 0.428066
2826 4 0.183489 0.0788998 0.440901
2697 4 0.187712 0.0784376 0.460871
3359 4 0.202629 0.0473877 0.495697
3358 2 0.227568 0.0484086 0.497169
3547 2 0.268423 0.0755084 0.422764
3396 4 0.48715 0.0678804 0.480154
2520 4 0.0146141 0.120353 0.459875
2518 2 0.0354028 0.115102 0.472738
3324 4 0.023704 0.168719 0.423972
2519 4 0.0561915 0.109852 0.485601
3957 4 0.0754406 0.0851997 0.423701
3955 2 0.100303 0.0873607 0.42217
3956 4 0.125166 0.0895216 0.420639
3029 4 0.241925 0.153319 0.416444
1818 4 0.174773 0.144046 0.42735
3028 2 0.217718 0.147396 0.418473
2695 2 0.211418 0.0852393 0.456752
2696 4 0.235123 0.092041 0.452633
4001 4 0.244832 0.109258 0.459339
3549 4 0.282244 0.0845796 0.441523
4000 2 0.257574 0.106556 0.480682
4002 4 0.270317 0.103855 0.502025
3275 4 0.005795 0.161903 0.426297
681 4 0.0579931 0.219632 0.412265
3322 2 0.0463169 0.168967 0.434639
2338 2 0.0186816 0.203659 0.47686
3323 4 0.0689298 0.169214 0.445306
2340 4 0.0391528 0.211644 0.464929
680 4 0.0369729 0.229873 0.456469
679 2 0.047483 0.224753 0.434367
1142 4 0.0887372 0.168104 0.445095
1141 2 0.106742 0.183829 0.452425
1143 4 0.124748 0.199555 0.459755
357 4 0.130545 0.198246 0.478778
366 4 0.298355 0.16878 0.42244
2355 4 0.264106 0.203066 0.456813
383 4 0.30345 0.187202 0.4285
382 2 0.328263 0.185829 0.425736
2354 4 0.291376 0.236292 0.431257
2353 2 0.277741 0.219679 0.444035
662 4 0.405821 0.186449 0.429984
661 2 0.382387 0.195026 0.428399
663 4 0.358954 0.203602 0.426814
384 4 0.353075 0.184456 0.422973
344 4 0.450194 0.240342 0.43997
343 2 0.463262 0.253336 0.456869
570 4 0.0700842 0.285356 0.421209
614 4 0.0127007 0.271323 0.418612
4068 4 0.0143845 0.325323 0.471942
3 3 0.114393 0.318879 0.416401
1 1 0.103734 0.298965 0.421713
2491 2 0.134604 0.284106 0.472515
5 3 0.104242 0.295648 0.444239
2492 4 0.113205 0.288771 0.460454
2493 4 0.156004 0.279441 0.484577
2850 4 0.189929 0.296352 0.5024
2848 2 0.213369 0.297258 0.493744
2849 4 0.236809 0.298164 0.485089
1767 4 0.287371 0.251927 0.418443
3020 4 0.279235 0.311526 0.451086
3019 2 0.266755 0.299717 0.469251
3021 4 0.254275 0.287908 0.487416
345 4 0.47633 0.266329 0.473768
3024 4 0.0268033 0.337251 0.481926
3022 2 0.0307547 0.36194 0.481776
2667 4 0.0803606 0.362936 0.432687
3023 4 0.034706 0.38663 0.481626
2665 2 0.0792209 0.385954 0.422989
2800 2 0.106329 0.393597 0.493908
2801 4 0.0880028 0.38655 0.478426
709 2 0.252392 0.414582 0.442619
710 4 0.255298 0.410748 0.467156
2297 4 0.0770836 0.416237 0.433414
2298 4 0.0910274 0.447894 0.469527
2296 2 0.0840555 0.432066 0.45147
1812 4 0.268245 0.425949 0.469711
1810 2 0.280317 0.422121 0.49127
373 2 0.0476644 0.0729822 0.520463
374 4 0.0387618 0.0530415 0.508284
1269 4 0.143175 0.0778642 0.578087
341 4 0.21219 0.0521226 0.565557
1211 4 0.226873 0.0587638 0.5778
3360 4 0.252508 0.0494294 0.498641
2283 4 0.258728 0.019617 0.561768
1210 2 0.249569 0.0676259 0.572186
340 2 0.205391 0.0317882 0.57842
1212 4 0.272265 0.076488 0.566571
375 4 0.0565669 0.0929229 0.532641
468 4 0.0622242 0.10386 0.548245
466 2 0.049418 0.100705 0.569487
3487 2 0.0704506 0.140957 0.506796
3488 4 0.0566556 0.120284 0.504049
266 4 0.0912811 0.167029 0.528514
265 2 0.113508 0.165968 0.539917
3489 4 0.0842456 0.161629 0.509543
3325 2 0.302805 0.125688 0.518472
3326 4 0.320129 0.134124 0.534407
3327 4 0.285481 0.117252 0.502537
650 4 0.339132 0.128762 0.533644
649 2 0.363429 0.131658 0.53879
651 4 0.387725 0.134554 0.543936
1181 4 0.404558 0.13842 0.554942
1180 2 0.41245 0.160124 0.564526
3460 2 0.481219 0.146536 0.550909
3462 4 0.467903 0.153892 0.570752
3461 4 0.494535 0.13918 0.531065
4580 4 0.999983 0.226519 0.573367
267 4 0.135735 0.164906 0.55132
2981 4 0.136761 0.179502 0.565466
356 4 0.16993 0.201249 0.509448
355 2 0.150238 0.199748 0.494113
2980 2 0.158422 0.191859 0.567272
2982 4 0.180084 0.204217 0.569079
575 4 0.218554 0.235758 0.52878
574 2 0.199097 0.220155 0.527012
576 4 0.17964 0.204551 0.525244
3524 4 0.197958 0.199855 0.567257
3523 2 0.215934 0.212438 0.579247
1182 4 0.420343 0.181828 0.57411
2989 2 0.125928 0.281001 0.572294
2990 4 0.145933 0.295093 0.567156
2991 4 0.105923 0.26691 0.577432
3038 4 0.0925074 0.252013 0.580718
2171 4 0.162781 0.298038 0.557101
2170 2 0.179629 0.300346 0.53877
2172 4 0.196477 0.302653 0.520439
2374 2 0.383312 0.306495 0.548641
2375 4 0.369231 0.295453 0.531177
2376 4 0.397392 0.317537 0.566105
936 4 0.401128 0.305309 0.580769
3501 4 0.435647 0.308978 0.560366
3499 2 0.439501 0.320964 0.538763
3500 4 0.443355 0.33295 0.517161
979 2 0.0244376 0.414017 0.508722
981 4 0.0300339 0.39063 0.501874
2349 4 0.139414 0.400059 0.497984
2347 2 0.163165 0.39654 0.504959
2802 4 0.124655 0.400644 0.50939
431 4 0.207016 0.395505 0.515474
430 2 0.215241 0.408603 0.535121
2348 4 0.186917 0.39302 0.511935
432 4 0.223466 0.421702 0.554767
1811 4 0.292389 0.418293 0.512829
1205 4 0.32095 0.349813 0.581925
3158 4 0.341009 0.35078 0.580189
510 4 0.46252 0.337667 0.520333
508 2 0.482994 0.351189 0.515518
2156 4 0.464909 0.409651 0.505985
980 4 0.0188413 0.437404 0.51557
3057 4 0.239753 0.427651 0.565488
3055 2 0.243963 0.445241 0.582752
1907 4 0.302657 0.42503 0.528111
1906 2 0.311699 0.433176 0.549953
1908 4 0.32074 0.441321 0.571796
3737 4 0.387028 0.436386 0.584432
2155 2 0.483432 0.422031 0.517334
2157 4 0.501956 0.434411 0.528684
2230 2 0.0134557 0.0828353 0.615379
2231 4 0.00822746 0.077428 0.639225
1268 4 0.145968 0.0759325 0.627978
1267 2 0.144572 0.0768983 0.603032
342 4 0.198591 0.0114539 0.591283
879 4 0.324077 0.0610422 0.660496
2597 4 0.334127 0.0450039 0.664731
2334 4 0.326696 0.00128429 0.654768
3458 4 0.401609 0.0500773 0.645258
2333 4 0.364055 0.0200907 0.627358
316 2 0.392059 0.00456694 0.61074
2332 2 0.345376 0.0106875 0.641063
877 2 0.338254 0.0755479 0.645875
318 4 0.36963 0.00194852 0.621476
317 4 0.414488 0.00718535 0.600004
2204 4 0.434441 0.00776141 0.606006
2203 2 0.449847 0.0156093 0.624068
2205 4 0.465253 0.0234571 0.642129
2232 4 0.018684 0.0882425 0.591533
467 4 0.0366117 0.0975504 0.590729
2979 4 0.0396808 0.140911 0.643366
845 4 0.0206599 0.143952 0.650658
2977 2 0.062351 0.15127 0.645352
2978 4 0.0850211 0.161629 0.647339
4182 4 0.160958 0.119419 0.650867
3366 4 0.0959158 0.173008 0.660551
4180 2 0.18414 0.114926 0.659087
4181 4 0.207323 0.110433 0.667308
878 4 0.352432 0.0900536 0.631254
1098 4 0.370322 0.0980744 0.636452
1096 2 0.38816 0.109001 0.650149
1097 4 0.405997 0.119928 0.663846
3037 2 0.0913554 0.228613 0.589454
3039 4 0.0902035 0.205213 0.598189
2568 4 0.106151 0.231613 0.652603
2566 2 0.0905205 0.215015 0.662869
3525 4 0.233909 0.225022 0.591236
2832 4 0.228501 0.228196 0.609232
1185 4 0.214213 0.196549 0.65812
2830 2 0.237012 0.216119 0.629403
2831 4 0.245522 0.204041 0.649575
3477 4 0.304539 0.187345 0.652697
3131 4 0.331092 0.229229 0.660189
3026 4 0.327783 0.248676 0.654736
3475 2 0.293644 0.205929 0.665391
3464 4 0.499342 0.176215 0.643097
4421 4 0.181561 0.258928 0.584598
4420 2 0.204131 0.267654 0.590895
3191 4 0.176069 0.317921 0.629038
4422 4 0.226702 0.276379 0.597191
1919 4 0.245014 0.274295 0.606442
3190 2 0.179264 0.297683 0.643369
3192 4 0.18246 0.277445 0.6577
3381 4 0.19058 0.259153 0.659425
1918 2 0.267035 0.283944 0.613308
1920 4 0.289056 0.293593 0.620175
3027 4 0.305681 0.285186 0.628674
3025 2 0.316732 0.266931 0.641705
934 2 0.413712 0.322897 0.593319
503 4 0.421971 0.273215 0.614033
502 2 0.443579 0.283844 0.620763
504 4 0.465187 0.294473 0.627494
1079 4 0.484064 0.290713 0.62855
1952 4 0.0290625 0.363119 0.624634
1951 2 0.00744216 0.352637 0.631551
2174 4 0.0500734 0.368298 0.621248
2173 2 0.0734227 0.369485 0.630114
3182 4 0.0643837 0.414686 0.641842
945 4 0.0124989 0.407811 0.615171
3183 4 0.0275273 0.418489 0.608259
3181 2 0.0459555 0.416587 0.62505
2033 4 0.0792327 0.414691 0.654069
2175 4 0.0967719 0.370673 0.638979
291 4 0.203446 0.339611 0.636365
289 2 0.21359 0.341654 0.659128
2498 4 0.233846 0.374764 0.637763
2497 2 0.254453 0.366819 0.626042
1206 4 0.273197 0.348686 0.59673
2499 4 0.275061 0.358875 0.614321
1204 2 0.297074 0.34925 0.589328
3157 2 0.358915 0.36096 0.594365
3159 4 0.376821 0.371139 0.60854
3141 4 0.384914 0.38276 0.620262
3139 2 0.4071 0.391559 0.627715
935 4 0.426296 0.340485 0.605868
3140 4 0.429286 0.400358 0.635168
7 3 0.439716 0.415584 0.629071
6 1 0.456039 0.413964 0.645199
10 3 0.476424 0.412634 0.635133
2324 4 0.488041 0.401613 0.622062
9 3 0.452204 0.394904 0.657864
1140 4 0.00182729 0.49382 0.63559
1138 2 0.0160789 0.478338 0.622085
1139 4 0.0303305 0.462857 0.608579
4307 4 0.24201 0.451131 0.660529
2037 4 0.224941 0.448039 0.648404
2035 2 0.204636 0.436015 0.656669
3056 4 0.248173 0.462832 0.600016
4306 2 0.266119 0.447788 0.654805
4308 4 0.290229 0.444446 0.649082
2106 4 0.297523 0.460121 0.63981
2104 2 0.314493 0.466191 0.622479
2105 4 0.331463 0.47226 0.605147
3738 4 0.348118 0.464552 0.598336
3736 2 0.367573 0.450469 0.591384
8 3 0.455106 0.432788 0.658734
3070 2 0.480161 0.466641 0.646914
3071 4 0.468081 0.44506 0.650592
3072 4 0.49224 0.488223 0.643236
3419 4 0.0190073 0.0128259 0.673483
3314 4 0.0718181 0.00822602 0.724274
3313 2 0.0568175 0.0269982 0.717362
3315 4 0.041817 0.0457705 0.710449
3418 2 0.999415 0.0236129 0.684662
2598 4 0.322077 0.0396076 0.712964
2596 2 0.328102 0.0423057 0.688848
3457 2 0.409609 0.0493841 0.668936
3459 4 0.417609 0.0486909 0.692615
4164 4 0.43049 0.0344419 0.69395
4162 2 0.440402 0.037005 0.716761
4163 4 0.450314 0.0395681 0.739573
844 2 0.0125186 0.148854 0.673785
3365 4 0.132368 0.148819 0.684776
1193 4 0.142377 0.144158 0.701677
3364 2 0.114142 0.160913 0.672663
1192 2 0.166839 0.149121 0.703157
2241 4 0.23566 0.113756 0.71497
2240 4 0.214383 0.128837 0.672301
2239 2 0.225021 0.121296 0.693635
1943 4 0.250651 0.106643 0.725406
1194 4 0.191301 0.154084 0.704637
1184 4 0.204111 0.160193 0.690937
1942 2 0.273704 0.100074 0.718292
1944 4 0.296757 0.0935057 0.711179
2199 4 0.310567 0.108543 0.715607
2197 2 0.322123 0.120813 0.734076
3870 4 0.412531 0.133429 0.677508
3868 2 0.42744 0.11736 0.689538
3869 4 0.442348 0.101291 0.701568
2265 4 0.0156907 0.228221 0.709115
3305 4 0.0299932 0.212319 0.711363
3304 2 0.0493899 0.200623 0.700772
3306 4 0.0687865 0.188928 0.69018
2567 4 0.0748897 0.198418 0.673135
3380 4 0.211524 0.234212 0.697373
1183 2 0.209162 0.178371 0.674529
3379 2 0.201052 0.246682 0.678399
3476 4 0.282749 0.224512 0.678084
3104 4 0.285304 0.186598 0.715502
3103 2 0.307103 0.196238 0.723057
3105 4 0.328902 0.205877 0.730612
3387 4 0.267349 0.185413 0.726686
3385 2 0.25486 0.17958 0.747547
3282 4 0.341391 0.217788 0.743723
3280 2 0.364813 0.217151 0.734996
3281 4 0.388236 0.216514 0.726268
444 4 0.405215 0.212282 0.71737
3130 2 0.343297 0.23802 0.680162
3132 4 0.355502 0.246811 0.700135
442 2 0.42566 0.226656 0.718162
443 4 0.446104 0.24103 0.718954
3164 4 0.218882 0.315984 0.741993
3163 2 0.220032 0.321762 0.717694
3165 4 0.221182 0.327539 0.693394
1088 4 0.371495 0.250081 0.712512
1087 2 0.383027 0.270885 0.72022
1089 4 0.394558 0.291689 0.727929
2415 4 0.460332 0.324829 0.679931
2413 2 0.480022 0.32295 0.695227
3296 4 0.480533 0.299401 0.745895
1215 4 0.497389 0.310115 0.748782
290 4 0.223733 0.343696 0.68189
2857 2 0.410367 0.356785 0.737653
3153 4 0.454635 0.384624 0.675103
3152 4 0.437996 0.365823 0.718351
2858 4 0.427456 0.349177 0.721061
3151 2 0.446315 0.375223 0.696727
3618 4 0.0176647 0.432334 0.701057
2032 2 0.099252 0.417282 0.668823
2034 4 0.119271 0.419874 0.683577
3264 4 0.12669 0.435948 0.692718
4576 2 0.161351 0.48668 0.688568
3262 2 0.150678 0.431482 0.687256
2036 4 0.184332 0.42399 0.664935
4191 4 0.165317 0.482897 0.738223
3263 4 0.174665 0.427016 0.681793
4578 4 0.181189 0.47342 0.681097
4062 4 0.18951 0.476808 0.698459
4060 2 0.213783 0.478834 0.704107
4061 4 0.238056 0.48086 0.709754
4189 2 0.181578 0.501356 0.7427
1019 4 0.253809 0.487217 0.698852
1018 2 0.278506 0.490751 0.697187
1020 4 0.303202 0.494286 0.695522
3343 2 0.408807 0.0104554 0.824562
3345 4 0.429879 0.0227965 0.819189
1971 4 0.037211 0.116901 0.746772
1969 2 0.0530905 0.103379 0.760563
1970 4 0.0689701 0.089857 0.774353
2949 4 0.0743452 0.0941597 0.793735
2948 4 0.118609 0.116658 0.799676
2947 2 0.0964772 0.105409 0.796706
2198 4 0.33368 0.133082 0.752545
1259 4 0.351616 0.123512 0.753804
1258 2 0.369956 0.125569 0.770673
1260 4 0.388296 0.127626 0.787543
2136 4 0.386198 0.142275 0.801644
2134 2 0.409952 0.150024 0.800685
823 2 0.461109 0.139594 0.782118
824 4 0.485623 0.135648 0.77917
825 4 0.436595 0.143539 0.785067
2135 4 0.433705 0.157772 0.799726
2794 2 0.0538064 0.246669 0.8177
3386 4 0.242371 0.173747 0.768408
470 4 0.233529 0.173358 0.786664
469 2 0.219577 0.179663 0.806431
471 4 0.205625 0.185968 0.826199
4509 4 0.309783 0.190069 0.836275
4519 2 0.0151235 0.317547 0.801686
2795 4 0.0626162 0.259054 0.797846
4521 4 0.035405 0.331359 0.806491
275 4 0.0912225 0.277776 0.771524
276 4 0.104266 0.313336 0.804175
274 2 0.0977442 0.295556 0.78785
260 4 0.206213 0.328382 0.750356
1420 2 0.278234 0.256504 0.826733
1422 4 0.296312 0.269311 0.815143
2988 4 0.314406 0.279894 0.812615
2986 2 0.337539 0.284931 0.80457
2987 4 0.360671 0.289968 0.796526
1256 4 0.381059 0.290464 0.799249
1255 2 0.403975 0.298476 0.793259
1257 4 0.42689 0.306489 0.78727
3297 4 0.436113 0.301428 0.768775
3295 2 0.458323 0.300415 0.757335
261 4 0.165975 0.355726 0.761931
40 3 0.168089 0.394821 0.791866
36 1 0.164206 0.373185 0.797819
37 3 0.148469 0.372648 0.814589
39 3 0.156161 0.361282 0.779599
2864 4 0.135048 0.418857 0.818123
750 4 0.160109 0.361798 0.828615
259 2 0.186094 0.342054 0.756144
38 3 0.183793 0.363477 0.8056
1614 4 0.1859 0.376776 0.82079
1612 2 0.210681 0.375409 0.823826
1613 4 0.235461 0.374041 0.826863
4092 4 0.245082 0.375648 0.808199
4090 2 0.263302 0.392771 0.808199
4091 4 0.281522 0.409894 0.808198
2859 4 0.393278 0.364394 0.754244
1122 4 0.0385076 0.47081 0.808736
1120 2 0.0145774 0.463755 0.810397
3243 4 0.0537778 0.48214 0.804068
3241 2 0.0761274 0.489656 0.812386
3242 4 0.0984769 0.497172 0.820705
790 2 0.132259 0.49063 0.820358
791 4 0.150466 0.477545 0.831425
2379 4 0.163995 0.492293 0.834637
2377 2 0.186345 0.481535 0.831488
2378 4 0.208695 0.470778 0.828339
4480 2 0.240907 0.481021 0.811718
4481 4 0.217197 0.473394 0.809522
1280 4 0.279699 0.424788 0.822173
4375 2 0.302936 0.479165 0.827659
4482 4 0.264617 0.488649 0.813914
4377 4 0.283926 0.484596 0.812353
4126 2 0.160786 0.0104985 0.879109
4127 4 0.171718 0.0298312 0.890596
2320 2 0.282864 0.0452857 0.87539
2322 4 0.260764 0.0460564 0.887058
449 4 0.252142 0.0566838 0.899974
4338 4 0.307993 0.0425004 0.843763
2321 4 0.304965 0.044515 0.863721
4336 2 0.330254 0.053721 0.845685
4172 4 0.410284 0.0273459 0.889694
1202 4 0.391079 0.022885 0.89769
1201 2 0.370785 0.0197243 0.91195