ITEM: TIMESTEP
26000
ITEM: NUMBER OF ATOMS
1600
ITEM: BOX BOUNDS xy xz yz pp pp pp
-1.3587856799999999e+01 6.9325799999999997e+00 -6.6552767999999993e+00
-6.9325799999999997e+00 6.9325799999999997e+00 0.0000000000000000e+00
-6.9325799999999997e+00 6.9325799999999997e+00 0.0000000000000000e+00
ITEM: ATOMS id type xs ys zs
332 2 0.162905 0.104346 0.117615
645 4 0.16984 0.110143 0.0534696
334 4 0.167399 0.101414 0.0821608
508 4 0.217603 0.113805 0.00160047
310 4 0.232075 0.0586952 0.0749934
308 2 0.269522 0.082133 0.0669384
309 4 0.306968 0.105571 0.0588834
1011 4 0.325173 0.0922591 0.0469751
137 3 0.350793 0.113447 0.0335643
1010 2 0.331834 0.065232 0.0333941
1012 4 0.338496 0.038205 0.0198132
849 4 0.339038 0.0182851 0.00333991
112 3 0.460076 0.0485724 0.0319436
111 1 0.48586 0.0602117 0.00833626
59 3 0.131271 0.193205 0.0472579
56 1 0.136932 0.1871 0.0154955
57 3 0.104921 0.165742 0.00241501
646 4 0.16168 0.150561 0.000473913
644 2 0.16576 0.130352 0.0269717
60 3 0.160705 0.17396 0.0143499
502 4 0.320019 0.226165 0.103326
139 3 0.315752 0.134131 0.0556649
43 3 0.347816 0.24701 0.10516
138 3 0.350139 0.158016 0.0119769
136 1 0.348241 0.14162 0.040533
140 3 0.37568 0.160059 0.0603662
1054 4 0.0059455 0.317946 0.0240913
1052 2 0.0394355 0.324838 0.0425849
1053 4 0.0729256 0.331731 0.0610784
177 3 0.100083 0.330606 0.0692063
176 1 0.100379 0.342051 0.0999097
179 3 0.0757907 0.317415 0.118622
178 3 0.0910939 0.367609 0.0984248
180 3 0.133768 0.352176 0.112655
1095 4 0.162847 0.372293 0.115974
69 3 0.349334 0.351756 0.0275974
66 1 0.377982 0.357077 0.00733154
1498 4 0.396843 0.316965 0.992631
42 3 0.389887 0.278402 0.0701756
41 1 0.380757 0.273527 0.102282
1497 4 0.385164 0.266615 0.0427375
1496 2 0.391003 0.29179 0.0176843
67 3 0.384063 0.329952 0.00709331
44 3 0.406688 0.267896 0.118662
45 3 0.37881 0.300246 0.114394
671 2 0.35631 0.33134 0.120658
673 4 0.352454 0.359716 0.106883
463 4 0.449497 0.29927 0.0255991
461 2 0.486781 0.312549 0.0385888
123 3 0.0220118 0.471519 0.0293991
1326 4 0.0539567 0.486765 0.0268792
1325 2 0.0921076 0.494606 0.0193624
1045 4 0.105633 0.396609 0.103209
1043 2 0.124945 0.432392 0.107142
1044 4 0.144258 0.468175 0.111076
1327 4 0.130258 0.502448 0.0118456
1393 4 0.285912 0.451046 0.0179239
1391 2 0.322891 0.456813 0.0277647
1392 4 0.359869 0.46258 0.0376054
1008 4 0.374483 0.491707 0.0386676
70 3 0.407829 0.382603 0.0181816
1423 4 0.401143 0.399931 8.76248e-05
1421 2 0.42003 0.435632 0.00486114
1422 4 0.438918 0.471334 0.00963465
359 2 0.00134725 0.111649 0.22531
361 4 0.0351367 0.112286 0.238685
1003 4 0.18689 0.113522 0.250889
333 4 0.158412 0.107278 0.15307
396 4 0.134244 0.0949329 0.171982
395 2 0.153044 0.0925153 0.201919
397 4 0.171844 0.0900978 0.231855
468 4 0.247031 0.00258346 0.154487
467 2 0.283097 0.0306506 0.155974
469 4 0.319164 0.0587177 0.157461
17 3 0.34293 0.0680817 0.137577
20 3 0.357439 0.106596 0.174969
16 1 0.370801 0.0922985 0.153397
18 3 0.390694 0.0790619 0.169392
19 3 0.392058 0.114779 0.130924
276 4 0.403215 0.0664115 0.186884
275 2 0.441378 0.0828823 0.176224
959 2 0.446705 0.00602338 0.150592
277 4 0.479542 0.099353 0.165563
961 4 0.479319 0.0370682 0.145802
150 3 0.0169742 0.200637 0.176372
1265 2 0.05768 0.249913 0.156261
1266 4 0.0456994 0.214619 0.161756
749 2 0.213872 0.222975 0.171425
750 4 0.242948 0.226484 0.148233
501 4 0.262003 0.211808 0.152131
751 4 0.184797 0.219466 0.194616
519 4 0.177305 0.200239 0.215721
518 2 0.166624 0.188833 0.249532
500 2 0.291011 0.218987 0.127729
1046 2 0.0257088 0.305305 0.140616
1047 4 0.0559051 0.296525 0.134351
1267 4 0.0696607 0.285207 0.150767
672 4 0.360167 0.302963 0.134432
335 2 0.499754 0.343723 0.172165
337 4 0.468387 0.335574 0.150251
1075 4 0.0331473 0.432002 0.184787
154 3 0.0538384 0.455918 0.171916
952 4 0.034091 0.477709 0.239853
151 1 0.0696493 0.485529 0.187426
153 3 0.0573447 0.48252 0.218937
1073 2 0.000145384 0.405872 0.170676
720 4 0.15715 0.474852 0.13772
719 2 0.145523 0.486302 0.167319
721 4 0.133896 0.497752 0.196919
1431 4 0.282881 0.450896 0.263377
1059 4 0.256979 0.443566 0.147393
1058 2 0.294792 0.468889 0.146471
1096 4 0.224384 0.426717 0.147371
1094 2 0.193616 0.399505 0.131673
1060 4 0.332605 0.494213 0.145549
1216 4 0.349724 0.482698 0.132931
580 4 0.18213 0.0217649 0.287522
578 2 0.160115 0.0402933 0.288847
876 4 0.0863498 0.023968 0.376336
877 4 0.112396 0.0469104 0.309632
875 2 0.0993728 0.0354392 0.342984
579 4 0.1381 0.0588217 0.290172
484 4 0.191466 0.00776615 0.268185
1361 2 0.453609 0.12437 0.357778
1166 2 0.0441767 0.247605 0.340716
1167 4 0.010293 0.245502 0.326043
520 4 0.155942 0.177427 0.283344
1510 4 0.0420177 0.121883 0.267026
1509 4 0.0579133 0.165362 0.324355
1508 2 0.0499655 0.143623 0.29569
1002 4 0.239236 0.16702 0.291246
1001 2 0.213063 0.140271 0.271068
944 2 0.199623 0.228167 0.317742
945 4 0.179691 0.198379 0.298213
746 2 0.342702 0.204008 0.359047
747 4 0.351141 0.23044 0.334887
582 4 0.434308 0.165434 0.294241
581 2 0.46499 0.185085 0.272729
1363 4 0.474844 0.141317 0.328767
583 4 0.495672 0.204736 0.251217
1168 4 0.0780604 0.249709 0.355389
666 4 0.231557 0.271168 0.312133
946 4 0.219556 0.257955 0.337271
665 2 0.250878 0.30504 0.32412
667 4 0.2702 0.338913 0.336107
744 4 0.017769 0.44911 0.244729
1529 2 0.155558 0.494669 0.350902
1051 4 0.308567 0.471725 0.252704
1430 2 0.24421 0.428434 0.259119
1432 4 0.205539 0.405972 0.254862
1050 4 0.362263 0.444564 0.255959
1049 2 0.335415 0.458145 0.254332
845 2 0.179094 0.0182476 0.442524
1546 4 0.13118 0.0508478 0.48013
1025 2 0.102734 0.0232844 0.432924
1026 4 0.0999394 0.0163364 0.397542
1027 4 0.105528 0.0302324 0.468306
847 4 0.207425 0.038492 0.465852
365 2 0.430447 0.0775448 0.425819
367 4 0.409735 0.0913454 0.406774
1362 4 0.432375 0.107423 0.386789
349 4 0.471271 0.0686489 0.468465
366 4 0.451159 0.0637443 0.444864
330 4 0.160713 0.2389 0.481278
403 4 0.394258 0.23561 0.502144
748 4 0.334263 0.177577 0.383208
1031 2 0.227526 0.304706 0.429005
1033 4 0.187649 0.291713 0.429158
1390 4 0.156855 0.275642 0.421516
1388 2 0.130677 0.26442 0.394272
1389 4 0.104499 0.253197 0.367028
1032 4 0.267402 0.317699 0.428851
1057 4 0.1759 0.467169 0.399154
1056 4 0.150996 0.494835 0.453728
1055 2 0.163448 0.481002 0.426441
1531 4 0.169338 0.486536 0.381259
1221 4 0.361264 0.43208 0.460533
983 2 0.383088 0.485095 0.47896
1220 2 0.3832 0.422771 0.437804
984 4 0.371637 0.449941 0.484894
1222 4 0.405135 0.413463 0.415074
1545 4 0.0929558 0.0516799 0.541034
1085 2 0.0921872 0.100488 0.609016
1086 4 0.12292 0.118637 0.586967
1544 2 0.112068 0.0512639 0.510582
471 4 0.183428 0.0318112 0.6013
522 4 0.144985 0.00974965 0.531372
521 2 0.158827 0.00661782 0.563855
470 2 0.212031 0.0518103 0.624524
54 3 0.327304 0.0358075 0.548845
441 4 0.358865 0.0121087 0.58153
55 3 0.350814 0.000100675 0.553479
1287 4 0.0355113 0.251414 0.58963
445 4 0.0892886 0.240206 0.58023
443 2 0.0949875 0.214099 0.597157
444 4 0.100686 0.187992 0.614083
1195 4 0.12728 0.184496 0.616791
329 2 0.163677 0.218232 0.507872
331 4 0.166641 0.197565 0.534467
537 4 0.150361 0.138889 0.577196
538 4 0.182928 0.207921 0.556317
536 2 0.166645 0.173405 0.566757
1370 2 0.442662 0.230456 0.528134
1371 4 0.477753 0.243598 0.545435
844 4 0.472822 0.237582 0.575107
1372 4 0.407571 0.217314 0.510834
1286 2 0.0350673 0.251585 0.625687
351 4 0.0344933 0.324688 0.554858
350 2 0.0258282 0.290218 0.561937
783 4 0.0651204 0.332738 0.560221
782 2 0.0763741 0.367758 0.56679
352 4 0.017163 0.255747 0.569015
558 4 0.16876 0.266099 0.596816
1108 4 0.166087 0.263942 0.568526
1107 4 0.203569 0.329817 0.539754
1106 2 0.184828 0.296879 0.55414
1468 4 0.311461 0.290778 0.573607
363 4 0.305125 0.294398 0.60147
364 4 0.27705 0.340886 0.579075
362 2 0.291087 0.317642 0.590272
1336 4 0.293119 0.37031 0.579896
1466 2 0.342593 0.286914 0.55956
1467 4 0.373726 0.283049 0.545513
402 4 0.381009 0.29289 0.518285
401 2 0.387633 0.26425 0.510214
784 4 0.0876277 0.402778 0.573359
816 4 0.119587 0.420314 0.576991
815 2 0.157603 0.436475 0.588112
817 4 0.195619 0.452636 0.599234
1483 4 0.217054 0.445523 0.585616
1481 2 0.237907 0.436803 0.561174
1482 4 0.258761 0.428083 0.536731
1334 2 0.286852 0.397115 0.565207
1335 4 0.280585 0.423921 0.550518
1019 2 0.473345 0.449054 0.583381
1021 4 0.475429 0.423746 0.561994
481 4 0.471386 0.398014 0.551298
1020 4 0.471262 0.474361 0.604768
425 2 0.0371655 0.0284621 0.644503
426 4 0.0659087 0.0620768 0.6479
1087 4 0.0614545 0.0823383 0.631064
439 4 0.174715 0.105064 0.725002
930 4 0.119791 0.0281102 0.737051
931 4 0.183764 0.0859535 0.713707
929 2 0.151777 0.0570318 0.725379
472 4 0.240634 0.0718094 0.647748
270 4 0.259899 0.0719391 0.669015
269 2 0.253991 0.059692 0.702933
271 4 0.248083 0.0474449 0.736852
836 2 0.362384 0.100141 0.677331
823 4 0.352597 0.0654467 0.732541
50 3 0.326148 0.0485994 0.748002
838 4 0.361263 0.0778657 0.704027
821 2 0.371296 0.0440035 0.732237
822 4 0.389995 0.0225604 0.731933
803 2 0.44403 0.00721451 0.714927
804 4 0.48163 0.031814 0.720411
976 4 0.0300944 0.209708 0.72558
487 4 0.0297169 0.210567 0.754825
974 2 0.0458973 0.229965 0.696371
1115 2 0.128029 0.193908 0.730114
1193 2 0.140469 0.181831 0.649715
1194 4 0.153659 0.179166 0.682639
1116 4 0.15139 0.183648 0.710237
437 2 0.208309 0.135626 0.722125
438 4 0.241902 0.166189 0.719248
3 3 0.291729 0.216387 0.685238
2 3 0.274416 0.175085 0.720257
1 1 0.301231 0.193927 0.699524
4 3 0.332659 0.209575 0.716932
5 3 0.305638 0.174837 0.676496
814 4 0.329127 0.180564 0.657105
430 4 0.365266 0.227148 0.712722
812 2 0.341009 0.156763 0.643295
837 4 0.363506 0.122417 0.650636
813 4 0.352891 0.132962 0.629484
1288 4 0.0346232 0.251756 0.661744
975 4 0.0617001 0.250221 0.667162
557 2 0.179377 0.272486 0.631494
559 4 0.189994 0.278873 0.666173
1492 4 0.388392 0.333436 0.736705
1490 2 0.360005 0.302333 0.749033
428 2 0.393398 0.244951 0.737215
388 4 0.450778 0.405483 0.745348
1472 2 0.0356364 0.0686641 0.858813
1474 4 0.0515054 0.0939285 0.833354
990 4 0.0998151 0.00523401 0.751535
48 3 0.2729 0.0505617 0.750915
49 3 0.299424 0.0435127 0.796307
46 1 0.294087 0.0368434 0.763582
47 3 0.276888 0.00396073 0.759408
485 2 0.0621036 0.206974 0.765959
1117 4 0.104668 0.204168 0.749991
486 4 0.0944902 0.203382 0.777093
1500 4 0.294347 0.23572 0.866269
791 2 0.375536 0.177301 0.806078
792 4 0.336947 0.169571 0.801158
354 4 0.311244 0.170702 0.815113
353 2 0.288065 0.15864 0.844312
476 2 0.318599 0.241354 0.807881
478 4 0.297417 0.23008 0.838288
40 3 0.491098 0.218421 0.804343
37 3 0.466157 0.166243 0.791119
36 1 0.46026 0.190636 0.805108
39 3 0.449467 0.182282 0.836796
1089 4 0.424914 0.191446 0.838617
38 3 0.433683 0.194607 0.787993
793 4 0.414124 0.18503 0.810999
1248 4 0.0950658 0.293335 0.837436
566 2 0.214845 0.311759 0.78777
568 4 0.187146 0.310953 0.811305
1249 4 0.165781 0.321534 0.803715
1247 2 0.130423 0.307434 0.820576
1596 4 0.333468 0.347951 0.817544
1595 2 0.303939 0.340312 0.793602
567 4 0.242543 0.312565 0.764236
1597 4 0.27441 0.332673 0.76966
1124 2 0.416739 0.272213 0.823176
1125 4 0.41734 0.28644 0.855722
1514 2 0.440351 0.349845 0.851293
1516 4 0.421298 0.313897 0.853518
1491 4 0.331617 0.271231 0.761361
477 4 0.339782 0.252627 0.777473
429 4 0.42153 0.262754 0.761707
1126 4 0.416137 0.257986 0.790629
1396 4 0.0542893 0.413487 0.782582
1394 2 0.0381071 0.43574 0.791724
1395 4 0.0219249 0.457993 0.800865
1101 4 0.0119857 0.477017 0.785087
216 1 0.157983 0.414704 0.874994
220 3 0.159577 0.444884 0.876349
1527 4 0.169836 0.466569 0.858271
218 3 0.160796 0.406573 0.843233
1526 2 0.146338 0.483373 0.853608
1528 4 0.12284 0.500177 0.848946
597 4 0.282687 0.460309 0.819235
1062 4 0.247568 0.477201 0.874859
669 4 0.259009 0.436003 0.808501
668 2 0.219868 0.419508 0.815815
670 4 0.180727 0.403012 0.823129
1238 2 0.371264 0.393292 0.853099
1240 4 0.384695 0.385094 0.822576
222 3 0.391007 0.483988 0.815822
223 3 0.38261 0.492266 0.867946
598 4 0.358392 0.469736 0.812435
596 2 0.320539 0.465023 0.815835
1040 2 0.473548 0.435416 0.856684
1515 4 0.459405 0.385793 0.849068
1042 4 0.450925 0.405791 0.837918
386 2 0.421932 0.397349 0.77009
387 4 0.393086 0.389216 0.794833
606 4 0.0234793 0.0373495 0.911688
1473 4 0.0197675 0.0433996 0.884271
735 4 0.132566 0.00487241 0.97264
1254 4 0.163521 0.00676683 0.97032
1255 4 0.231659 0.0409303 0.00716741
833 2 0.212011 0.00818558 0.89575
908 2 0.245391 0.0890709 0.898931
1253 2 0.19759 0.0238485 0.988744
910 4 0.26232 0.124541 0.892428
909 4 0.228461 0.0536005 0.905433
835 4 0.198012 0.0331229 0.897799
573 4 0.399968 0.0456035 0.915178
572 2 0.360675 0.0353181 0.918965
574 4 0.321383 0.0250326 0.922753
115 3 0.470917 0.0648702 0.980732
339 4 0.474462 0.107673 0.946003
1407 4 0.40479 0.0262077 0.901978
114 3 0.49953 0.0379119 0.00299061
1406 2 0.427212 0.00808985 0.903925
592 4 0.0032264 0.129151 0.984273
63 3 0.156194 0.180043 0.937377
58 3 0.149823 0.215495 0.997801
591 4 0.0831552 0.160448 0.981187
590 2 0.0431908 0.144799 0.98273
507 4 0.235567 0.132016 0.932426
1499 2 0.264345 0.219537 0.889597
1501 4 0.234343 0.203354 0.912925
65 3 0.214967 0.192256 0.936872
61 1 0.182237 0.170772 0.947584
64 3 0.182276 0.169095 0.980997
62 3 0.174642 0.140771 0.935163
506 2 0.226585 0.122911 0.967013
355 4 0.264886 0.146579 0.87351
325 4 0.370751 0.17671 0.99262
323 2 0.392163 0.173988 0.964747
324 4 0.413574 0.171266 0.936874
1090 4 0.415516 0.181949 0.909948
1088 2 0.420215 0.186697 0.874282
338 2 0.491327 0.13201 0.972104
1374 4 0.029849 0.370729 0.914119
1268 2 0.00593373 0.340796 0.965894
1270 4 0.00605405 0.357333 0.934816
1231 4 0.156933 0.351431 0.953893
565 4 0.289749 0.321791 0.888082
563 2 0.262736 0.314415 0.914445
564 4 0.235722 0.307039 0.940809
68 3 0.370096 0.36302 0.976198
124 3 0.00433093 0.469135 0.977194
1229 2 0.159868 0.382341 0.968153
1230 4 0.162803 0.413251 0.982413
1317 4 0.142351 0.425861 0.976743
219 3 0.126008 0.392565 0.888186
1375 4 0.109373 0.398572 0.907077
1316 2 0.138177 0.455774 0.984628
1318 4 0.134004 0.485688 0.992512
1373 2 0.0696109 0.384651 0.910598
306 4 0.286032 0.435269 0.946959
1200 4 0.279023 0.447177 0.924116
1199 2 0.239455 0.428464 0.920266
1201 4 0.199888 0.40975 0.916416
217 3 0.185911 0.414086 0.892421
894 4 0.371596 0.392157 0.905037
1239 4 0.357832 0.401489 0.883622
913 4 0.39344 0.498642 0.943037
307 4 0.364867 0.47689 0.944639
305 2 0.325449 0.456079 0.945799
617 2 0.494577 0.486961 0.917201
619 4 0.470348 0.489137 0.942832
893 2 0.381444 0.391332 0.939603
895 4 0.391292 0.390507 0.974169
1402 4 0.0410334 0.613871 0.0637504
884 2 0.135152 0.586614 0.110766
885 4 0.149535 0.588981 0.0773093
978 4 0.180348 0.604503 0.0750168
977 2 0.216354 0.607979 0.0645645
979 4 0.252361 0.611455 0.0541122
1113 4 0.27048 0.597482 0.0479369
1112 2 0.281896 0.576803 0.068365
1114 4 0.293312 0.556123 0.0887932
1007 2 0.412034 0.517237 0.0416301
283 4 0.447592 0.543161 0.0998098
1215 4 0.426891 0.520072 0.115695
1009 4 0.449584 0.542767 0.0445927
281 2 0.482746 0.57151 0.0941073
390 4 0.0530862 0.695136 0.0717956
389 2 0.0406029 0.681909 0.0388128
391 4 0.0281195 0.668682 0.00583011
871 4 0.0644032 0.735789 0.0996105
869 2 0.0978544 0.731576 0.0946807
1400 2 0.0793367 0.633967 0.0550689
1401 4 0.11764 0.654064 0.0463874
795 4 0.154481 0.719076 0.0292168
870 4 0.131306 0.727362 0.0897509
794 2 0.151016 0.735445 0.999146
187 3 0.135386 0.674208 0.0654968
190 3 0.150628 0.716786 0.098016
186 1 0.156895 0.690788 0.0908381
188 3 0.149007 0.670414 0.11732
474 4 0.212164 0.714914 0.0606162
189 3 0.1924 0.700904 0.0819942
473 2 0.246693 0.735502 0.0442114
1464 4 0.262978 0.685712 0.0589689
1539 4 0.285564 0.694714 0.0821078
1463 2 0.292606 0.681007 0.0427965
1538 2 0.284594 0.707996 0.11482
1465 4 0.322234 0.676301 0.0266242
921 4 0.351861 0.690974 0.0142745
920 2 0.388513 0.715995 0.0224725
1533 4 0.357329 0.63997 0.10356
1532 2 0.397087 0.659061 0.10346
922 4 0.425165 0.741015 0.0306706
1534 4 0.436844 0.678153 0.103359
732 4 0.24214 0.806637 0.106941
475 4 0.281223 0.75609 0.0278065
729 4 0.303959 0.747053 0.0170753
831 4 0.40372 0.84672 0.00889107
830 2 0.438215 0.848714 0.0219947
832 4 0.472709 0.850708 0.0350984
1445 2 0.465328 0.793807 0.0427087
1447 4 0.474083 0.828253 0.0500152
1446 4 0.456573 0.75936 0.0354022
1333 4 0.320352 0.900987 0.999387
1035 4 0.0189562 0.558892 0.154029
1034 2 0.0585333 0.576697 0.149497
152 3 0.0605525 0.507098 0.171391
1036 4 0.0981104 0.594502 0.144965
155 3 0.10589 0.496626 0.187238
886 4 0.120769 0.584248 0.144223
1438 4 0.209347 0.551827 0.215641
625 4 0.18253 0.536579 0.231831
1436 2 0.247121 0.569631 0.204275
1437 4 0.284895 0.587435 0.192908
1417 4 0.315408 0.606625 0.19551
1415 2 0.330857 0.620164 0.163306
1214 2 0.388307 0.501385 0.124313
1182 4 0.99901 0.71822 0.173142
688 4 0.180225 0.744021 0.246244
686 2 0.192831 0.7456 0.212221
687 4 0.205437 0.747179 0.178198
1540 4 0.283624 0.721277 0.147532
1098 4 0.314615 0.730774 0.15564
1416 4 0.346305 0.633704 0.131103
1293 4 0.460461 0.696076 0.120495
144 3 0.417238 0.704335 0.22092
1428 4 0.441624 0.644653 0.240122
1292 2 0.495915 0.702762 0.135192
1427 2 0.478693 0.647565 0.235702
95 3 0.00971835 0.819631 0.141593
93 3 0.00990013 0.81807 0.195866
699 4 0.000295464 0.796518 0.214875
698 2 0.0201121 0.80496 0.246191
733 4 0.219074 0.775695 0.17157
731 2 0.230607 0.791166 0.139256
1289 2 0.394158 0.851189 0.194642
1291 4 0.383407 0.820096 0.176858
1099 4 0.376049 0.792043 0.176191
1097 2 0.345332 0.761408 0.165915
1241 2 0.00599323 0.898354 0.203946
1243 4 0.0448305 0.907 0.208691
494 2 0.182634 0.969318 0.168657
87 3 0.0915778 0.960237 0.185277
90 3 0.0710784 0.907583 0.19538
86 1 0.101019 0.936086 0.193935
89 3 0.117535 0.943324 0.223893
482 2 0.171066 0.982164 0.244119
88 3 0.124446 0.934205 0.171035
483 4 0.150666 0.956561 0.220053
495 4 0.149506 0.950752 0.187876
496 4 0.215761 0.987884 0.149438
657 4 0.384299 0.959624 0.150097
960 4 0.414091 0.974979 0.155382
656 2 0.352656 0.943713 0.1718
658 4 0.321013 0.927802 0.193502
1290 4 0.404909 0.882281 0.212427
1345 4 0.475306 0.950274 0.163707
1343 2 0.496396 0.952838 0.193699
1313 2 0.00992995 0.599269 0.31611
1571 2 0.0892913 0.605711 0.343148
1573 4 0.0562842 0.602959 0.326152
951 4 0.0704798 0.538595 0.277845
950 2 0.0522854 0.508152 0.258849
1572 4 0.122298 0.608464 0.360145
624 4 0.144208 0.511608 0.294159
1530 4 0.141778 0.502801 0.320544
623 2 0.163369 0.524094 0.262995
588 4 0.359329 0.605972 0.365249
1425 4 0.0138995 0.65841 0.270229
1324 4 0.0255684 0.714798 0.366661
765 4 0.178897 0.725604 0.317591
315 4 0.178084 0.71831 0.255367
1315 4 0.048394 0.623145 0.315007
314 2 0.166264 0.685962 0.270868
316 4 0.154444 0.653614 0.286369
411 4 0.310032 0.682998 0.331559
410 2 0.331488 0.706464 0.356974
143 3 0.441617 0.670973 0.237042
141 1 0.428365 0.692432 0.247276
145 3 0.454082 0.717188 0.263847
1557 4 0.4835 0.735686 0.268492
142 3 0.399518 0.67643 0.267192
1329 4 0.371165 0.663329 0.283704
1328 2 0.368957 0.645154 0.314161
1330 4 0.366748 0.626979 0.344619
1312 4 0.120687 0.829592 0.335291
1310 2 0.0968392 0.826018 0.307044
1311 4 0.0729918 0.822444 0.278798
700 4 0.0399287 0.813403 0.277506
742 4 0.218299 0.819811 0.333546
1387 4 0.146797 0.858989 0.334257
1078 4 0.321066 0.875443 0.300463
741 4 0.294727 0.85646 0.313619
740 2 0.256513 0.838135 0.323583
766 4 0.212536 0.792746 0.343892
764 2 0.195716 0.759175 0.330742
1006 4 0.502439 0.866746 0.351599
1598 2 0.0815732 0.97148 0.277633
1128 4 0.0221384 0.955241 0.29272
1599 4 0.0453361 0.947245 0.288013
1600 4 0.11781 0.995716 0.267253
1076 2 0.348981 0.902532 0.281909
1077 4 0.376896 0.929621 0.263355
526 4 0.0226826 0.610098 0.494952
372 4 0.149772 0.519663 0.455978
371 2 0.17045 0.55483 0.448961
600 4 0.20101 0.605819 0.416796
373 4 0.191128 0.589998 0.441943
599 2 0.176283 0.608826 0.392169
659 2 0.0934728 0.529549 0.488988
661 4 0.0848643 0.50942 0.459086
601 4 0.151556 0.611834 0.367542
985 4 0.394539 0.520249 0.473026
1187 2 0.417179 0.547236 0.427106
1189 4 0.41052 0.555506 0.393653
1109 2 0.381105 0.606298 0.490529
589 4 0.409186 0.580226 0.391098
587 2 0.384257 0.593099 0.378173
1110 4 0.344354 0.583369 0.47995
197 3 0.446568 0.558344 0.477852
1188 4 0.423838 0.538966 0.460558
524 2 0.00267376 0.630207 0.498989
449 2 0.00101165 0.722059 0.418096
450 4 0.0161707 0.730412 0.384834
1092 4 0.35126 0.731816 0.411062
412 4 0.352944 0.72993 0.382388
1579 4 0.487969 0.686209 0.433463
1577 2 0.466517 0.667909 0.461837
1578 4 0.445065 0.649609 0.490211
32 3 0.0225349 0.841413 0.448436
35 3 0.0756927 0.841903 0.458252
34 3 0.0401674 0.841104 0.499644
31 1 0.0516073 0.852596 0.468777
446 2 0.181572 0.805773 0.426122
448 4 0.209927 0.797852 0.440393
778 4 0.222405 0.870186 0.391077
447 4 0.153218 0.813693 0.41185
1385 2 0.1439 0.876484 0.363698
939 4 0.34972 0.867213 0.391259
1093 4 0.328736 0.782805 0.430886
940 4 0.33264 0.811354 0.435832
938 2 0.34118 0.839284 0.413545
1091 2 0.339998 0.75731 0.420974
529 4 0.149785 0.918103 0.411724
527 2 0.115985 0.911939 0.429368
528 4 0.0821851 0.905775 0.447011
33 3 0.0670624 0.886056 0.468732
1386 4 0.141002 0.893979 0.393139
846 4 0.150764 0.998003 0.419197
776 2 0.250089 0.897689 0.409361
777 4 0.277772 0.925192 0.427645
1441 4 0.292373 0.974296 0.496846
1440 4 0.301888 0.93235 0.446218
1439 2 0.297131 0.953323 0.471532
1548 4 0.380978 0.886476 0.391887
919 4 0.488208 0.93127 0.384202
1547 2 0.420183 0.899629 0.38513
1549 4 0.459387 0.912781 0.378374
1560 4 0.0244164 0.549396 0.543987
916 4 0.0520487 0.61927 0.510064
914 2 0.0467194 0.585193 0.514262
915 4 0.04139 0.551117 0.51846
660 4 0.102081 0.549679 0.51889
1585 4 0.195125 0.594403 0.614212
1583 2 0.228997 0.60289 0.59576
1584 4 0.262869 0.611376 0.577308
198 3 0.434871 0.58476 0.518428
196 1 0.455833 0.569593 0.508823
199 3 0.449902 0.543701 0.529005
200 3 0.491043 0.590913 0.509551
1319 2 0.00158886 0.678397 0.558718
1320 4 0.0183997 0.691305 0.590674
594 4 0.0361037 0.693573 0.614941
24 3 0.173369 0.653694 0.550998
21 1 0.209971 0.672931 0.550071
22 3 0.222149 0.681839 0.581037
25 3 0.217065 0.699876 0.532219
23 3 0.22731 0.655814 0.536884
604 4 0.253624 0.658485 0.552135
1120 4 0.292987 0.630344 0.58654
602 2 0.293532 0.672904 0.550029
603 4 0.33344 0.687322 0.547922
1118 2 0.328413 0.630591 0.593869
1309 4 0.339586 0.680231 0.521641
1307 2 0.379373 0.695361 0.52534
1111 4 0.417856 0.629227 0.501109
1119 4 0.36384 0.630837 0.601198
864 4 0.386726 0.638176 0.580199
1308 4 0.41916 0.71049 0.52904
863 2 0.418445 0.638972 0.598027
825 4 0.450123 0.712793 0.524219
824 2 0.481997 0.743492 0.53224
865 4 0.450163 0.639769 0.615856
523 4 0.172668 0.00348598 0.596338
53 3 0.314936 0.996353 0.511367
52 3 0.292357 0.984066 0.561459
51 1 0.321626 0.00412931 0.543781
892 4 0.265801 0.875339 0.626004
1453 4 0.294246 0.897081 0.620522
1451 2 0.33194 0.915371 0.609126
861 4 0.375768 0.917756 0.580951
1452 4 0.369634 0.93366 0.59773
440 2 0.349896 0.998397 0.614797
860 2 0.403277 0.936215 0.556214
862 4 0.430786 0.954674 0.531476
417 4 0.477851 0.896131 0.503583
760 4 0.205815 0.61918 0.62836
889 4 0.268188 0.631607 0.715311
887 2 0.268154 0.607479 0.739497
1574 2 0.347716 0.55649 0.72556
1576 4 0.367839 0.553531 0.696793
204 3 0.374857 0.571103 0.672739
205 3 0.409539 0.55838 0.639225
201 1 0.409548 0.576057 0.665578
202 3 0.429744 0.608253 0.659126
203 3 0.424338 0.567359 0.691744
593 2 0.052844 0.680536 0.639467
595 4 0.0695844 0.667499 0.663994
772 4 0.211763 0.739473 0.727107
759 4 0.214659 0.676734 0.667559
758 2 0.210237 0.647957 0.647959
897 4 0.437451 0.632482 0.643803
896 2 0.464696 0.658884 0.663578
898 4 0.491941 0.685285 0.683353
685 4 0.00801246 0.768271 0.652027
620 2 0.0300997 0.8082 0.753989
683 2 0.0218158 0.76706 0.685074
684 4 0.035619 0.76585 0.71812
621 4 0.0418814 0.783912 0.741298
890 2 0.229532 0.847489 0.625375
891 4 0.193263 0.819639 0.624745
771 4 0.149865 0.753343 0.7447
770 2 0.180814 0.746408 0.735903
427 4 0.00842226 0.994847 0.641106
1296 4 0.240507 0.905516 0.713056
1295 2 0.252388 0.911709 0.678665
1590 4 0.300467 0.961378 0.712693
442 4 0.340926 0.984684 0.648065
1297 4 0.264268 0.917902 0.644274
1589 2 0.338245 0.965557 0.714516
1591 4 0.376023 0.969736 0.716339
805 4 0.406429 0.982615 0.709443
1381 4 0.49534 0.938333 0.71089
1359 4 0.168341 0.583689 0.801542
1358 2 0.152125 0.549691 0.813567
840 4 0.187088 0.611331 0.806052
1360 4 0.135908 0.515693 0.825591
540 4 0.147893 0.587843 0.851357
1061 2 0.261303 0.504144 0.850903
460 4 0.295493 0.55886 0.828889
1063 4 0.275039 0.531087 0.826947
888 4 0.268121 0.583352 0.763682
225 3 0.407394 0.534165 0.833719
458 2 0.322073 0.564449 0.802467
459 4 0.348653 0.570039 0.776044
1575 4 0.327593 0.559449 0.754328
872 2 0.500381 0.549258 0.863982
873 4 0.468768 0.528746 0.843835
224 3 0.438717 0.506746 0.848491
221 1 0.404995 0.504536 0.84154
789 4 0.0313146 0.666719 0.858591
209 3 0.0525026 0.694354 0.851474
210 3 0.0412106 0.706062 0.801217
800 2 0.127773 0.674789 0.806018
802 4 0.0890508 0.661437 0.797184
208 3 0.0761858 0.680332 0.808082
207 3 0.0958706 0.732413 0.822147
206 1 0.0661921 0.703203 0.820612
801 4 0.166495 0.688141 0.814852
839 2 0.185899 0.642912 0.81204
841 4 0.18471 0.674492 0.818028
1257 4 0.38058 0.721876 0.825025
1459 4 0.35756 0.732708 0.82592
1457 2 0.322413 0.709857 0.812002
1458 4 0.287267 0.687006 0.798084
781 4 0.453998 0.645164 0.873082
779 2 0.450907 0.668562 0.849676
780 4 0.447815 0.69196 0.82627
1258 4 0.445236 0.712002 0.808037
1256 2 0.412908 0.716939 0.816531
562 4 0.00206889 0.847201 0.756115
622 4 0.018318 0.832488 0.76668
649 4 0.24499 0.847256 0.776662
854 2 0.157194 0.781982 0.789323
855 4 0.145616 0.783019 0.823286
856 4 0.168772 0.780945 0.755359
713 2 0.110359 0.769768 0.865739
714 4 0.118664 0.757048 0.835228
255 4 0.332596 0.830391 0.75012
786 4 0.325034 0.852015 0.742842
256 4 0.371058 0.790546 0.767374
254 2 0.351827 0.810469 0.758747
561 4 0.0435226 0.918306 0.746512
991 4 0.058736 0.935835 0.769568
989 2 0.0792755 0.970534 0.760551
560 2 0.0227958 0.882753 0.751314
647 2 0.254938 0.882253 0.782019
648 4 0.264887 0.91725 0.787377
785 2 0.33217 0.886444 0.748032
787 4 0.339306 0.920872 0.753222
1524 4 0.447207 0.902206 0.858531
1523 2 0.41336 0.87829 0.873637
1570 4 0.113338 0.602901 0.999637
1494 4 0.0161605 0.56081 0.856417
790 4 0.0303906 0.611141 0.896663
1568 2 0.111642 0.584802 0.96924
541 4 0.12747 0.561373 0.918002
1569 4 0.109946 0.566702 0.938844
539 2 0.137681 0.574608 0.88468
911 2 0.431162 0.504814 0.950394
912 4 0.468884 0.510986 0.957752
292 4 0.0102723 0.649432 0.986371
788 2 0.0308526 0.63893 0.877627
853 4 0.0720738 0.774506 0.899702
715 4 0.102053 0.782489 0.89625
851 2 0.0332753 0.762432 0.907794
693 4 0.239456 0.837023 0.955904
694 4 0.170137 0.779089 0.966964
692 2 0.204796 0.808056 0.961434
796 4 0.147551 0.751815 0.969074
1332 4 0.247603 0.857092 0.974806
1485 4 0.347483 0.775476 0.950067
730 4 0.352084 0.753343 0.961149
681 4 0.384446 0.851519 0.989538
1525 4 0.379513 0.854374 0.888743
1484 2 0.354703 0.802532 0.926934
728 2 0.328022 0.750198 0.989112
680 2 0.363192 0.870642 0.992459
1486 4 0.361923 0.829588 0.903801
736 4 0.0667929 0.967437 0.933714
799 4 0.0397178 0.94328 0.928358
797 2 0.0103727 0.921788 0.90653
734 2 0.0996793 0.986155 0.953177
83 3 0.30799 0.996458 0.913014
850 4 0.278927 0.980573 0.958453
82 3 0.282134 0.945942 0.893416
848 2 0.308982 0.999429 0.980896
85 3 0.26571 0.956498 0.941625
81 1 0.276371 0.968382 0.911408
84 3 0.249979 0.97459 0.89662
834 4 0.226009 0.983248 0.893701
682 4 0.341938 0.889765 0.99538
1331 2 0.283977 0.87904 0.987096
1408 4 0.449635 0.989972 0.905873
1355 2 0.583857 0.0346273 0.0396474
1357 4 0.555088 0.0306453 0.015915
113 3 0.5129 0.089219 0.0186553
937 4 0.529198 0.108378 0.0373881
935 2 0.543365 0.0974085 0.0657161
936 4 0.557532 0.0864389 0.0940442
227 3 0.5431 0.0960473 0.115539
1233 4 0.599655 0.0143994 0.104478
1356 4 0.612627 0.0386094 0.0633799
1232 2 0.639246 0.0325922 0.108627
532 4 0.712312 0.0646247 0.108505
1234 4 0.678838 0.050785 0.112776
530 2 0.743768 0.0614014 0.0943343
132 3 0.761491 0.060699 0.00609603
531 4 0.775224 0.0581782 0.0801635
133 3 0.799838 0.100839 0.0371317
131 1 0.789488 0.0691723 0.0274565
134 3 0.778266 0.0487831 0.0539549
135 3 0.817313 0.0663141 0.0126847
342 4 0.865664 0.0450025 0.0858913
585 4 0.846316 0.0229336 0.102461
343 4 0.910716 0.111592 0.0614718
341 2 0.88819 0.0782973 0.0736815
1037 2 0.550082 0.20765 0.00681399
1039 4 0.540849 0.173039 0.999883
1038 4 0.559315 0.242261 0.0137447
340 4 0.508192 0.156347 0.998206
385 4 0.590475 0.263567 0.00733128
1282 4 0.780092 0.162315 0.0111833
462 4 0.524064 0.325828 0.0515786
394 4 0.553245 0.33766 0.0392052
392 2 0.589996 0.346568 0.0263036
393 4 0.626747 0.355475 0.0134019
1084 4 0.641028 0.353121 0.0360958
1082 2 0.668185 0.341057 0.0444228
1083 4 0.695342 0.328994 0.0527497
1443 4 0.698351 0.303946 0.0523496
1442 2 0.703797 0.304323 0.0880228
1444 4 0.709243 0.3047 0.123696
414 4 0.580062 0.428853 0.12358
413 2 0.607744 0.456125 0.105038
415 4 0.635426 0.483397 0.0864959
738 4 0.673395 0.499451 0.0145335
125 3 0.968857 0.471121 0.0174181
121 1 0.992952 0.459789 0.00857991
941 2 0.952218 0.482005 0.0613048
943 4 0.936602 0.469545 0.0937448
942 4 0.967835 0.494464 0.0288648
228 3 0.507599 0.102588 0.152989
998 2 0.626853 0.123033 0.163641
229 3 0.510828 0.0546836 0.1483
226 1 0.529918 0.0879452 0.146339
230 3 0.557685 0.0983348 0.167599
999 4 0.588029 0.110662 0.171763
1383 4 0.659671 0.0300333 0.194761
636 4 0.678035 0.0493549 0.17492
635 2 0.706169 0.0696132 0.198396
1000 4 0.665676 0.135403 0.155518
637 4 0.734303 0.0898715 0.221872
963 4 0.739959 0.0712173 0.238535
360 4 0.967558 0.111012 0.211936
712 4 0.686739 0.147217 0.174504
710 2 0.726043 0.161996 0.18118
711 4 0.765347 0.176776 0.187857
1132 4 0.775371 0.228731 0.243194
1130 2 0.803741 0.23042 0.219997
1131 4 0.83211 0.232109 0.1968
149 3 0.961154 0.16102 0.171379
147 3 0.97803 0.190503 0.216786
288 4 0.971765 0.193636 0.244042
146 1 0.989431 0.176943 0.192372
148 3 0.000761174 0.155253 0.205667
274 4 0.61148 0.339385 0.239352