ITEM: TIMESTEP
1160000
ITEM: NUMBER OF ATOMS
4800
ITEM: BOX BOUNDS xy xz yz pp pp pp
-9.9985700000000008e+00 1.3997997999999995e+01 3.9994279999999947e+00
-9.9985700000000008e+00 9.9985700000000008e+00 0.0000000000000000e+00
-9.9985700000000008e+00 9.9985700000000008e+00 0.0000000000000000e+00
ITEM: ATOMS id type xs ys zs
3332 4 0.0182064 0.00640676 0.0120309
32 3 0.189952 0.0135806 0.0180683
34 3 0.204487 0.00600277 0.0525026
1816 2 0.499264 0.0107653 0.998684
3207 4 0.501387 0.0435702 0.0138051
3277 2 0.0634579 0.140006 0.0786177
3279 4 0.0779333 0.131819 0.0587851
2138 4 0.133863 0.154229 0.0316125
2137 2 0.127626 0.159654 0.00775456
3305 4 0.187412 0.113487 0.0765301
2837 4 0.151842 0.161741 0.0353249
1491 4 0.201368 0.121613 0.066406
1489 2 0.217189 0.128815 0.0498121
1490 4 0.23301 0.136018 0.0332182
1185 4 0.0942925 0.211119 0.0412545
1183 2 0.117556 0.214773 0.0472619
2836 2 0.167375 0.177874 0.0389319
1184 4 0.14082 0.218427 0.0532693
4403 4 0.159145 0.215092 0.0600393
4402 2 0.163188 0.237698 0.0536518
2838 4 0.182908 0.194007 0.042539
767 4 0.197937 0.195678 0.0536728
766 2 0.218332 0.202637 0.0637771
768 4 0.238727 0.209596 0.0738814
2877 4 0.249246 0.220611 0.0647015
2875 2 0.27273 0.216218 0.0549602
2876 4 0.296214 0.211825 0.045219
3763 2 0.317371 0.189884 0.023032
3765 4 0.314827 0.21094 0.0364141
3764 4 0.319914 0.168829 0.00964983
1094 4 0.420282 0.237915 0.0336559
42 3 0.493383 0.191591 0.0344493
44 3 0.494505 0.187249 0.0717821
878 4 0.160608 0.306547 0.0170836
877 2 0.169374 0.290123 0.035122
4404 4 0.167231 0.260304 0.0472643
879 4 0.178139 0.273699 0.0531604
3320 4 0.307549 0.315328 0.00546674
1991 4 0.368079 0.321975 0.0705551
1990 2 0.346209 0.329327 0.0830037
808 2 0.400332 0.332602 0.060872
809 4 0.425777 0.32859 0.0595256
1093 2 0.438416 0.251662 0.034007
3242 4 0.438648 0.314236 0.0693147
1095 4 0.45655 0.265408 0.034358
3154 2 0.0942751 0.409088 0.0644443
1507 2 0.0843144 0.393057 0.00391866
3155 4 0.0993728 0.386742 0.0756447
1509 4 0.1064 0.377276 0.00813505
313 3 0.145962 0.387198 0.0243139
311 1 0.141861 0.382448 0.00217083
763 2 0.149476 0.414772 0.0440993
764 4 0.156423 0.40319 0.022429
1173 4 0.148243 0.414486 0.0819661
3122 4 0.161154 0.404627 0.00297433
810 4 0.374887 0.336614 0.0622184
434 3 0.299781 0.399614 0.0568877
431 1 0.297467 0.409305 0.0779677
3327 4 0.432065 0.366618 0.0030473
448 3 0.441648 0.382206 0.000937968
449 3 0.439394 0.41196 0.0242931
4378 2 0.491447 0.335345 0.0296042
447 3 0.454313 0.377256 0.0363195
1709 4 0.464147 0.403587 0.0559198
1708 2 0.463706 0.401517 0.0808229
446 1 0.452328 0.391385 0.0181861
450 3 0.473494 0.393861 0.0116037
4380 4 0.467111 0.347075 0.0275959
1952 4 0.0406487 0.471593 0.00743391
1951 2 0.0549488 0.44891 0.00352005
3156 4 0.0891774 0.431434 0.053244
1011 4 0.0611234 0.4636 0.0745179
1009 2 0.0768777 0.479286 0.0697985
765 4 0.142528 0.426353 0.0657695
1010 4 0.0926319 0.494971 0.0650791
823 2 0.203619 0.463565 0.0102611
824 4 0.224474 0.471393 0.0180845
742 3 0.241939 0.477875 0.0243343
741 1 0.264725 0.472949 0.0297762
744 3 0.270116 0.451132 0.0376129
743 3 0.268904 0.487635 0.0462711
745 3 0.277324 0.47517 0.0112407
433 3 0.290574 0.432316 0.0760677
4037 4 0.286788 0.48889 0.0363852
3752 4 0.288017 0.489397 0.016741
1821 4 0.331945 0.504387 0.0744788
3751 2 0.302571 0.484075 0.996372
1937 4 0.0449572 0.0634095 0.137765
1030 2 0.0374024 0.0087227 0.143687
1031 4 0.0577154 0.0195793 0.145025
255 3 0.0706644 0.0314496 0.146632
1936 2 0.0295828 0.0740221 0.119409
252 3 0.0642247 0.067639 0.137543
251 1 0.0807334 0.049274 0.14275
253 3 0.0957772 0.0446995 0.124922
3948 4 0.107954 0.0567623 0.119041
254 3 0.0922679 0.0539826 0.161739
3946 2 0.124617 0.0673407 0.106367
3947 4 0.141281 0.0779191 0.0936921
679 3 0.454748 0.0141179 0.0805317
3861 4 0.46289 0.0288371 0.0873505
3859 2 0.479396 0.0432704 0.0937403
1054 2 0.486077 0.0253569 0.164093
3860 4 0.495901 0.0577037 0.10013
2884 2 0.0255831 0.150318 0.160709
1938 4 0.0142083 0.0846348 0.101053
4044 4 0.0385497 0.157831 0.112608
2885 4 0.0476451 0.154955 0.15204
3278 4 0.0489824 0.148193 0.0984504
3304 2 0.174212 0.0969982 0.0855384
3306 4 0.161013 0.0805095 0.0945466
3165 4 0.15476 0.158552 0.131448
3163 2 0.138261 0.167835 0.149464
2184 4 0.31306 0.0986321 0.155383
2182 2 0.330561 0.110598 0.146094
2183 4 0.348061 0.122563 0.136806
408 3 0.357709 0.132862 0.148023
406 1 0.371009 0.148455 0.153092
407 3 0.387362 0.147751 0.136788
3036 4 0.404252 0.155663 0.135809
3092 4 0.472139 0.151462 0.1351
3091 2 0.483683 0.154881 0.15664
4042 2 0.0247326 0.179776 0.105212
4043 4 0.0109155 0.20172 0.0978154
3101 4 0.0551807 0.17285 0.149906
3102 4 0.10299 0.173833 0.163879
3100 2 0.0790851 0.173341 0.156893
3164 4 0.121762 0.177118 0.167481
410 3 0.357773 0.169339 0.153764
4196 4 0.354914 0.188479 0.149523
4195 2 0.371283 0.202624 0.142005
4197 4 0.387651 0.21677 0.134487
4548 4 0.397951 0.215153 0.116867
4546 2 0.410006 0.231928 0.106555
3034 2 0.422976 0.168303 0.139521
3035 4 0.4417 0.180943 0.143234
4547 4 0.422061 0.248702 0.0962435
3030 4 0.446887 0.185933 0.123415
3028 2 0.465579 0.184676 0.106576
3029 4 0.484271 0.18342 0.0897371
2061 4 0.485729 0.245503 0.100881
1740 4 0.498613 0.20908 0.159841
3673 2 0.105965 0.326248 0.157253
3675 4 0.113151 0.317824 0.134363
3411 4 0.18677 0.255198 0.113337
3409 2 0.206063 0.26725 0.116322
3410 4 0.225356 0.279302 0.119307
776 4 0.238986 0.287537 0.112147
775 2 0.26315 0.290718 0.111937
777 4 0.287313 0.293899 0.111726
3750 4 0.372913 0.29406 0.119773
3748 2 0.361886 0.306913 0.139483
3749 4 0.350859 0.319765 0.159193
2992 2 0.426118 0.319752 0.14567
2994 4 0.404475 0.320934 0.158537
3241 2 0.445753 0.320645 0.0919815
2993 4 0.44776 0.318569 0.132803
3243 4 0.452857 0.327053 0.114648
2059 2 0.493374 0.267372 0.0993026
2060 4 0.50102 0.289241 0.0977245
2916 4 0.063919 0.355416 0.136576
4188 4 0.0651118 0.360249 0.116547
4186 2 0.0776821 0.376004 0.105153
2914 2 0.0578557 0.365066 0.159269
4187 4 0.0902525 0.391759 0.0937591
1172 4 0.15204 0.386113 0.123102
2325 4 0.161168 0.382942 0.14166
2323 2 0.164303 0.383426 0.166449
1171 2 0.150142 0.400299 0.102534
435 3 0.281932 0.400757 0.0901424
432 3 0.318237 0.404664 0.0886409
1992 4 0.324339 0.33668 0.0954523
3033 4 0.332776 0.389501 0.158566
3842 4 0.349019 0.391059 0.14547
3841 2 0.373686 0.389501 0.150905
3843 4 0.398354 0.387943 0.156339
2889 4 0.415568 0.395494 0.156005
2887 2 0.431092 0.400431 0.137889
2888 4 0.446617 0.405367 0.119773
1710 4 0.463265 0.399447 0.105726
2833 2 0.00693117 0.495188 0.151856
3180 4 0.028788 0.428426 0.0958338
3179 4 0.0565321 0.464183 0.0936988
3178 2 0.04266 0.446305 0.0947663
785 4 0.181713 0.482609 0.148601
784 2 0.206496 0.481375 0.153253
1035 4 0.250737 0.501015 0.0946612
67 3 0.241207 0.475256 0.138539
68 3 0.237016 0.49575 0.107033
66 1 0.25248 0.485822 0.123101
786 4 0.231279 0.48014 0.157904
70 3 0.269273 0.470497 0.113338
1819 2 0.347467 0.501053 0.0943132
1820 4 0.362988 0.49772 0.114148
1871 4 0.0215548 0.0360229 0.17463
3385 2 0.0168231 0.0228649 0.236229
3387 4 0.0327466 0.0359574 0.225741
4320 4 0.0377368 0.0333462 0.185848
4318 2 0.0592333 0.0393566 0.194441
1870 2 0.00473661 0.0549843 0.184426
4319 4 0.0807298 0.045367 0.203034
4577 4 0.0896063 0.0277114 0.211763
4487 4 0.103105 0.0662349 0.177908
4576 2 0.109246 0.0303341 0.226313
2253 4 0.120172 0.0684744 0.189353
4578 4 0.128886 0.0329567 0.240864
2251 2 0.140125 0.0741843 0.201502
2252 4 0.160077 0.0798942 0.213652
3879 4 0.173796 0.0914165 0.219113
4429 2 0.464925 0.00693249 0.210296
4430 4 0.478578 0.0204119 0.197022
1056 4 0.467469 0.0261389 0.180949
3855 4 0.0062164 0.104958 0.200667
2886 4 0.00352099 0.14568 0.169378
3853 2 0.0296025 0.102731 0.190975
3854 4 0.0529886 0.100505 0.181283
3003 4 0.00891633 0.154036 0.187111
4486 2 0.085521 0.0862486 0.184247
4488 4 0.0679372 0.106262 0.190586
3877 2 0.194761 0.094586 0.231304
881 4 0.17687 0.151759 0.233334
880 2 0.15621 0.152479 0.247609
3878 4 0.215726 0.0977554 0.243495
2973 4 0.228031 0.111774 0.246668
409 3 0.38173 0.143374 0.173546
1383 4 0.400611 0.14396 0.182857
1381 2 0.414681 0.156978 0.196189
3093 4 0.495226 0.158299 0.178181
833 4 0.0796483 0.23052 0.228638
832 2 0.0958965 0.246272 0.227757
1382 4 0.428751 0.169995 0.20952
800 4 0.432259 0.180899 0.224972
799 2 0.449439 0.193565 0.233699
801 4 0.46662 0.20623 0.242426
3200 4 0.491315 0.177571 0.180449
834 4 0.112145 0.262024 0.226876
3674 4 0.0987789 0.334672 0.180144
3141 4 0.113109 0.322219 0.190794
4026 4 0.128637 0.268115 0.233249
3139 2 0.125676 0.320002 0.21255
3140 4 0.138242 0.317785 0.234305
4024 2 0.152912 0.270781 0.23164
4025 4 0.177188 0.273447 0.230031
1734 4 0.186099 0.284475 0.240972
1732 2 0.205263 0.296944 0.241784
1733 4 0.224428 0.309412 0.242595
1169 4 0.24387 0.310247 0.237821
1168 2 0.265836 0.317286 0.232408
1170 4 0.287802 0.324325 0.226995
1983 4 0.307873 0.318714 0.223728
1981 2 0.332825 0.309527 0.22118
1982 4 0.357777 0.30034 0.218631
756 4 0.374938 0.305825 0.211103
754 2 0.389325 0.322101 0.218105
1785 4 0.49246 0.332836 0.208687
1197 4 0.0191733 0.400067 0.236886
1195 2 0.0336984 0.386972 0.219224
1196 4 0.0482235 0.373877 0.201562
2915 4 0.0517923 0.374716 0.181962
577 3 0.140112 0.332316 0.24763
1393 2 0.0846856 0.406353 0.236805
1394 4 0.108146 0.392257 0.237457
2324 4 0.167439 0.383909 0.191238
1412 4 0.177157 0.39194 0.206055
1411 2 0.201494 0.394577 0.206194
1413 4 0.22583 0.397214 0.206332
2412 4 0.22285 0.405635 0.188003
875 4 0.265478 0.355117 0.250415
2049 4 0.282781 0.3431 0.237056
2047 2 0.302405 0.354514 0.240931
3031 2 0.326807 0.401499 0.180211
2048 4 0.322029 0.365928 0.244806
4164 4 0.341142 0.364971 0.238657
4162 2 0.361067 0.376428 0.238011
755 4 0.403712 0.338378 0.225107
4163 4 0.380991 0.387884 0.237366
2826 4 0.422938 0.345153 0.224781
2824 2 0.447569 0.342833 0.218799
2825 4 0.472199 0.340512 0.212818
2835 4 0.026571 0.489237 0.167648
1395 4 0.0612256 0.420448 0.236153
3168 4 0.0532804 0.501146 0.247107
2411 4 0.249183 0.435944 0.164922
2410 2 0.236017 0.42079 0.176462
4069 2 0.226773 0.431851 0.244874
1449 4 0.238998 0.47825 0.176919
4070 4 0.238527 0.444107 0.228345
1447 2 0.238681 0.470592 0.200649
1448 4 0.238364 0.462934 0.224379
3938 4 0.338052 0.417477 0.202444
3032 4 0.320838 0.413497 0.201855
3937 2 0.339356 0.438471 0.214859
3939 4 0.34066 0.459466 0.227274
3116 4 0.359737 0.457392 0.233796
3115 2 0.37697 0.471644 0.229468
3117 4 0.394203 0.485896 0.22514
3600 4 0.405583 0.493678 0.210778
3598 2 0.426237 0.48529 0.196823
3599 4 0.446891 0.476903 0.182868
1166 4 0.134865 0.0156636 0.250658
4171 2 0.11622 0.0364738 0.326149
4173 4 0.127502 0.014513 0.31638
1167 4 0.136808 0.00498284 0.299511
1165 2 0.135836 0.0103232 0.275085
4172 4 0.104939 0.0584346 0.335919
4306 2 0.274424 0.0157761 0.30012
4307 4 0.2887 0.0295589 0.312166
2949 4 0.4163 0.0748576 0.289864
2947 2 0.398248 0.0795778 0.272252
3287 4 0.0114585 0.167812 0.264546
1360 2 0.00633266 0.161629 0.327162
1362 4 0.0296485 0.165484 0.32167
438 3 0.0305962 0.168363 0.270426
437 3 0.041502 0.16186 0.306177
436 1 0.0484768 0.158804 0.284283
440 3 0.0545964 0.136499 0.279997
886 2 0.0998785 0.147077 0.263089
888 4 0.0751602 0.15545 0.267994
887 4 0.124597 0.138704 0.258184
882 4 0.13555 0.153199 0.261884
2971 2 0.251296 0.11304 0.255063
2972 4 0.274562 0.114306 0.263457
4478 4 0.286715 0.123474 0.275917
4477 2 0.31011 0.127172 0.281304
4479 4 0.333506 0.13087 0.28669
2948 4 0.380195 0.084298 0.254639
3575 4 0.349762 0.132369 0.298119
3574 2 0.369459 0.138666 0.310217
3576 4 0.389155 0.144964 0.322316
1163 4 0.406799 0.148179 0.32981
1162 2 0.430706 0.152102 0.330121
1164 4 0.454614 0.156025 0.330431
439 3 0.0669716 0.169058 0.280943
1580 4 0.0966909 0.235844 0.317966
1579 2 0.0892098 0.215438 0.326631
1581 4 0.0817288 0.195031 0.335295
828 4 0.108555 0.246853 0.308831
826 2 0.133535 0.24526 0.305023
827 4 0.158514 0.243666 0.301215
1159 2 0.18594 0.245991 0.329079
841 2 0.306862 0.233616 0.330968
885 4 0.478458 0.210353 0.255951
883 2 0.49014 0.21867 0.275391
1160 4 0.175932 0.251019 0.3063
578 3 0.170798 0.335849 0.267995
1038 4 0.187046 0.325153 0.276967
842 4 0.324675 0.246108 0.323445
3151 2 0.34843 0.262883 0.320335
3153 4 0.369963 0.262944 0.307647
924 4 0.385818 0.267656 0.317358
923 4 0.418348 0.27013 0.279889
922 2 0.402083 0.268893 0.298624
2806 2 0.0136202 0.411322 0.293779
579 3 0.14909 0.366233 0.251356
871 2 0.109745 0.358699 0.311848
872 4 0.116908 0.34836 0.28966
580 3 0.135377 0.349735 0.280614
576 1 0.148797 0.346103 0.262058
873 4 0.102581 0.369038 0.334036
3096 4 0.156984 0.407268 0.283072
1036 2 0.205682 0.336956 0.283676
1037 4 0.224318 0.34876 0.290385
876 4 0.236423 0.361969 0.291492
874 2 0.250951 0.358543 0.270953
4071 4 0.215019 0.419596 0.261403
3867 4 0.451792 0.338003 0.294281
3865 2 0.474826 0.344088 0.29458
3866 4 0.497859 0.350172 0.29488
2807 4 0.0262135 0.429458 0.288018
3134 4 0.0459511 0.430782 0.282356
1238 4 0.0554087 0.440866 0.335697
3820 2 0.0187058 0.496865 0.307985
3133 2 0.0662188 0.441757 0.282762
3135 4 0.0864866 0.452732 0.283167
569 3 0.1053 0.439206 0.286113
570 3 0.128183 0.444612 0.25758
566 1 0.126799 0.442602 0.280194
567 3 0.130399 0.461954 0.290135
2852 4 0.133398 0.500466 0.254827
3094 2 0.180224 0.412486 0.2802
3095 4 0.203464 0.417705 0.277328
1891 2 0.128974 0.496348 0.290079
568 3 0.143331 0.424861 0.287615
1892 4 0.143248 0.474262 0.283734
997 2 0.0727485 0.0823147 0.346862
303 3 0.135937 0.00377515 0.33215
999 4 0.0869765 0.0595255 0.343354
3918 4 0.220074 0.0108436 0.35022
1862 4 0.237263 0.0189539 0.353748
1861 2 0.251513 0.0337071 0.364316
1863 4 0.265763 0.0484603 0.374883
929 4 0.271568 0.0517049 0.393517
928 2 0.285235 0.0343765 0.408378
1979 4 0.466299 0.00259482 0.413803
245 3 0.472693 0.0101419 0.396048
998 4 0.0585205 0.105104 0.350371
3073 2 0.0145066 0.143787 0.411651
1076 4 0.127884 0.127048 0.407757
1473 4 0.139881 0.132666 0.392133
1471 2 0.147701 0.153615 0.385641
993 4 0.415143 0.152433 0.377574
991 2 0.41953 0.145331 0.401363
3138 4 0.469397 0.163477 0.341775
3136 2 0.49339 0.162757 0.349248
1472 4 0.155521 0.174563 0.37915
3914 4 0.165115 0.190998 0.374609
3913 2 0.174997 0.211028 0.369035
3915 4 0.184879 0.231059 0.363461
1161 4 0.195947 0.240962 0.351857
843 4 0.289049 0.221125 0.338491
3355 2 0.290652 0.239897 0.41293
3356 4 0.301515 0.215699 0.411095
3357 4 0.279789 0.264095 0.414765
3152 4 0.326897 0.262822 0.333024
4236 4 0.00346326 0.369203 0.354051
3810 4 0.00972178 0.363024 0.374397
3808 2 0.0330175 0.360006 0.384454
3809 4 0.0563133 0.356989 0.39451
1187 4 0.0736791 0.360573 0.387099
1186 2 0.0906321 0.365747 0.37052
1188 4 0.107585 0.370921 0.353941
1857 4 0.215359 0.354032 0.386532
849 4 0.215799 0.339581 0.400081
1856 4 0.210059 0.388695 0.350524
1855 2 0.212709 0.371364 0.368528
847 2 0.23513 0.34248 0.414925
919 2 0.293326 0.344808 0.414186
18 3 0.3274 0.398712 0.407595
19 3 0.328349 0.361277 0.407066
920 4 0.316889 0.349148 0.411111
4305 4 0.375537 0.376029 0.407022
4303 2 0.400973 0.372709 0.407732
4304 4 0.426408 0.369389 0.408442
3433 2 0.458362 0.368919 0.41336
3435 4 0.480983 0.354583 0.407933
80 3 0.0153168 0.470947 0.338258
76 1 0.0176715 0.44992 0.346805
2218 2 0.0188998 0.47831 0.40633
79 3 0.01956 0.45056 0.369912
77 3 0.0371079 0.436752 0.338236
3870 4 0.0310933 0.493199 0.373566
2219 4 0.0330928 0.47804 0.385709
1237 2 0.0720335 0.455747 0.340116
1239 4 0.0886583 0.470629 0.344536
1922 4 0.109468 0.462401 0.340526
1921 2 0.133314 0.46348 0.347237
1923 4 0.157161 0.464558 0.353948
3130 2 0.14768 0.494886 0.412309
1241 4 0.170243 0.473924 0.362563
1240 2 0.184949 0.491117 0.363187
4116 4 0.318914 0.494447 0.393047
1092 4 0.489528 0.450918 0.353121
959 4 0.0468711 0.0488573 0.478802
958 2 0.0644079 0.0415218 0.461106
960 4 0.0819447 0.0341863 0.44341
4466 4 0.193597 0.0689752 0.46805
4169 4 0.284427 0.00470913 0.424528
930 4 0.298902 0.017048 0.423239
4470 4 0.460071 0.000780759 0.484381
1978 2 0.458214 0.0209245 0.430225
1980 4 0.450129 0.0392543 0.446646
1852 2 0.494589 0.00938584 0.469921
3075 4 0.0331563 0.127632 0.422897
4465 2 0.176449 0.0884564 0.459681
1075 2 0.13523 0.12428 0.43166
1077 4 0.142576 0.121511 0.455563
4467 4 0.159301 0.107938 0.451311
992 4 0.423917 0.13823 0.425153
779 4 0.429252 0.140725 0.493586
1622 4 0.305917 0.201241 0.425681
1621 2 0.325322 0.202354 0.44113
1623 4 0.344728 0.203468 0.45658
3756 4 0.345693 0.216471 0.471655
3754 2 0.362305 0.22156 0.48864
2211 4 0.409429 0.210416 0.453401
2209 2 0.434435 0.20103 0.454871
2210 4 0.45944 0.191645 0.456341
3686 4 0.411387 0.247786 0.434649
869 4 0.480695 0.186126 0.455506
868 2 0.497157 0.200044 0.447688
3353 4 0.192738 0.326066 0.478521
3352 2 0.197969 0.307759 0.495478
171 1 0.307478 0.284625 0.496716
2865 4 0.283342 0.281876 0.423147
175 3 0.30787 0.270305 0.479181
2863 2 0.295924 0.284286 0.444329
2864 4 0.308507 0.286695 0.465512
172 3 0.314456 0.303629 0.489517
1703 4 0.32403 0.298909 0.471772
1702 2 0.344241 0.309864 0.473597
1704 4 0.364453 0.320818 0.475421
1355 4 0.37901 0.330668 0.481687
3685 2 0.405371 0.255519 0.458003
3687 4 0.399355 0.263253 0.481356
2847 4 0.137402 0.398641 0.497459
2845 2 0.13136 0.405372 0.473841
4628 4 0.199951 0.341782 0.471388
4627 2 0.220265 0.351635 0.477003
1043 4 0.215522 0.411244 0.501646
848 4 0.254461 0.345379 0.429769
921 4 0.269762 0.340468 0.417261
4629 4 0.240578 0.361487 0.482618
2829 4 0.260543 0.358796 0.481572
2827 2 0.283398 0.365258 0.482181
16 1 0.335411 0.378572 0.418407
2828 4 0.306252 0.371719 0.482789
902 4 0.321038 0.381223 0.487196
901 2 0.34406 0.386828 0.483891
20 3 0.327549 0.379606 0.43983
903 4 0.367081 0.392432 0.480586
17 3 0.358862 0.374612 0.418641
3434 4 0.435741 0.383256 0.418787
1354 2 0.400727 0.339321 0.480981
1356 4 0.422445 0.347974 0.480276
1107 4 0.383077 0.389113 0.49267
2594 4 0.432097 0.36225 0.474779
1105 2 0.406301 0.390374 0.501181
1948 2 0.497036 0.405135 0.478813
2593 2 0.453365 0.370285 0.468665
2595 4 0.474633 0.378319 0.462551
1949 4 0.47685 0.395781 0.471658
1006 2 0.000257832 0.474225 0.457149
1019 4 0.0173583 0.471091 0.489858
1007 4 0.00251821 0.484233 0.479662
2220 4 0.00470693 0.478581 0.426951
2238 4 0.134726 0.428799 0.447536
2846 4 0.125318 0.412103 0.450222
3131 4 0.165144 0.481598 0.427454
2237 4 0.153365 0.4702 0.439653
2236 2 0.144046 0.4495 0.443594
1593 4 0.27481 0.425845 0.496521
4114 2 0.318783 0.501274 0.417069
2371 2 0.0371409 0.0431046 0.572973
2373 4 0.0601648 0.028455 0.570367
2372 4 0.0141169 0.0577541 0.575579
2706 4 0.000580127 0.0459904 0.576315
3252 4 0.0724362 0.0411516 0.565282
3250 2 0.0971297 0.0418765 0.562504
3251 4 0.121823 0.0426015 0.559727
954 4 0.124632 0.0555188 0.573693
2803 2 0.328537 0.0827931 0.576897
2805 4 0.35159 0.0792934 0.566256
4112 4 0.368173 0.0638758 0.565282
4111 2 0.373454 0.0403789 0.573811
214 3 0.379163 0.0685949 0.548484
4113 4 0.378735 0.016882 0.58234
4469 4 0.429016 0.00938007 0.523956
4468 2 0.444543 0.00508042 0.504169
40 3 0.446637 0.0134806 0.579019
39 3 0.443477 0.0118142 0.541567
36 1 0.458135 0.0130258 0.559313
38 3 0.467478 0.0320433 0.557335
1427 4 0.486765 0.0273654 0.557464
3248 4 0.0716588 0.164765 0.563382
365 3 0.0661704 0.15185 0.577686
212 3 0.347493 0.094994 0.552872
4512 4 0.357337 0.132674 0.551811
4510 2 0.366148 0.151824 0.541877
211 1 0.36535 0.087031 0.538687
215 3 0.356975 0.0810437 0.518909
213 3 0.37771 0.103743 0.535145
778 2 0.409613 0.153324 0.506753
3247 2 0.0960437 0.166907 0.565596
3249 4 0.120429 0.169048 0.56781
1041 4 0.139574 0.168317 0.56151
1039 2 0.158284 0.176673 0.549677
1040 4 0.176993 0.185028 0.537845
1323 4 0.191404 0.193181 0.528828
1321 2 0.216286 0.193145 0.526294
1322 4 0.241168 0.193108 0.523759
4511 4 0.374959 0.170974 0.531943
780 4 0.389973 0.165923 0.519919
2942 4 0.387995 0.236111 0.522463
3755 4 0.378918 0.226648 0.505624
2941 2 0.408741 0.236602 0.536265
2943 4 0.429486 0.237093 0.550066
3777 4 0.464035 0.17816 0.530282
518 3 0.447822 0.240146 0.55423
3775 2 0.479299 0.190991 0.518339
3776 4 0.494562 0.203823 0.506396
3741 4 0.125171 0.308707 0.566048
3739 2 0.120123 0.315478 0.542264
3740 4 0.115075 0.322248 0.51848
3354 4 0.2032 0.289451 0.512435
840 4 0.221719 0.280659 0.516748
838 2 0.246517 0.280269 0.513011
839 4 0.271315 0.279878 0.509275
174 3 0.285487 0.290528 0.505111
173 3 0.322189 0.27464 0.513361
761 4 0.335911 0.273692 0.528883
760 2 0.351638 0.287006 0.539359
762 4 0.367365 0.300319 0.549835
3506 4 0.384757 0.307688 0.551771
3505 2 0.408538 0.294308 0.552618
3507 4 0.43232 0.280928 0.553465
520 3 0.429387 0.271889 0.570476
516 1 0.447927 0.254941 0.57184
517 3 0.467435 0.263659 0.570617
2555 4 0.480822 0.269819 0.582004
2990 4 0.0615502 0.353524 0.543344
2989 2 0.0767762 0.369574 0.548609
2991 4 0.0920022 0.385623 0.553874
2135 4 0.0890707 0.404283 0.548908
3231 4 0.149554 0.405659 0.509283
3229 2 0.174424 0.406222 0.510137
3230 4 0.199294 0.406785 0.510991
1042 2 0.239237 0.414802 0.505633
1106 4 0.429525 0.391636 0.509693
164 3 0.444225 0.3971 0.521436
162 3 0.444279 0.398093 0.559007
3383 4 0.43749 0.394848 0.578248
161 1 0.453145 0.405912 0.540053
163 3 0.476693 0.399166 0.540382
1103 4 0.494936 0.396041 0.532801
1018 2 0.0355902 0.480241 0.501647
1020 4 0.053822 0.489391 0.513436
2924 4 0.0734184 0.493198 0.509969
2923 2 0.0925725 0.473824 0.514015
2134 2 0.0995115 0.420901 0.536275
2925 4 0.111727 0.454451 0.518062
2136 4 0.109952 0.437518 0.523641
2084 4 0.178294 0.488645 0.502861
2083 2 0.20305 0.47884 0.499794
1044 4 0.262951 0.418361 0.509619
2085 4 0.227807 0.469035 0.496727
3024 4 0.267705 0.493983 0.512573
1591 2 0.29839 0.423416 0.505791
1592 4 0.32197 0.420988 0.515061
3542 4 0.338453 0.427035 0.51644
3541 2 0.359089 0.433651 0.526401
3543 4 0.379724 0.440267 0.536361
974 4 0.380052 0.43794 0.557692
159 3 0.393281 0.448061 0.524299
160 3 0.394969 0.447947 0.561914
158 3 0.416963 0.467116 0.54234
156 1 0.40727 0.448228 0.542786
157 3 0.424393 0.429531 0.542137
973 2 0.373165 0.438475 0.581753
2505 4 0.427137 0.4792 0.553694
2503 2 0.445847 0.49175 0.557865
165 3 0.447392 0.428651 0.539666
1601 4 0.478566 0.468833 0.527505
1600 2 0.489538 0.450303 0.542638
1602 4 0.500509 0.431772 0.55777
952 2 0.139374 0.0666643 0.588286
4600 2 0.148891 0.0593128 0.643747
4601 4 0.150398 0.0674311 0.620306
953 4 0.154116 0.0778098 0.602878
1511 4 0.174195 0.0301756 0.604029
1510 2 0.185178 0.0105276 0.617791
4602 4 0.147384 0.0511944 0.667188
2723 4 0.287484 0.0630026 0.636837
1644 4 0.283373 0.0445057 0.641655
1642 2 0.288196 0.0277274 0.660135
2722 2 0.296941 0.0648746 0.613923
2724 4 0.306397 0.0667466 0.59101
3431 4 0.367692 0.0244059 0.648816
1572 4 0.391662 0.00272074 0.593362
3430 2 0.385476 0.0368786 0.656461
4031 4 0.032072 0.129023 0.610526
4030 2 0.00741813 0.128914 0.606491
362 3 0.0494063 0.137305 0.60587
361 1 0.0528263 0.156831 0.596162
3563 4 0.0835221 0.161338 0.611433
3800 4 0.250934 0.152319 0.666572
2804 4 0.305483 0.0862927 0.587539
2496 4 0.304336 0.144041 0.659937
1386 4 0.344824 0.10824 0.666584
1178 4 0.316513 0.156762 0.665702
1384 2 0.360359 0.118587 0.652155
1385 4 0.375894 0.128934 0.637725
3551 4 0.391143 0.131442 0.649153
3550 2 0.411826 0.141137 0.653565
3552 4 0.432508 0.150832 0.657976
515 3 0.445836 0.163534 0.656286
363 3 0.031849 0.169598 0.590166
364 3 0.0635209 0.16841 0.611494
3562 2 0.0912384 0.166657 0.634232
3564 4 0.0989547 0.171976 0.657031
3799 2 0.227949 0.165379 0.66028
3759 4 0.208253 0.240668 0.654349
3801 4 0.204965 0.178439 0.653989
2525 4 0.268954 0.248174 0.633688
512 3 0.478374 0.166245 0.639218
514 3 0.449903 0.196323 0.641131
511 1 0.460811 0.177276 0.65232
519 3 0.447771 0.243797 0.592053
1145 4 0.139576 0.258397 0.645579
1144 2 0.149731 0.276696 0.655554
1146 4 0.159886 0.294994 0.665528
2524 2 0.268639 0.253814 0.658033
2554 2 0.498804 0.28372 0.582936
1517 4 0.0246006 0.362193 0.659309
1341 4 0.0114934 0.363987 0.644851
3428 4 0.0727124 0.390604 0.607191
3427 2 0.0553821 0.409582 0.616235
1516 2 0.0462234 0.369841 0.653771
1518 4 0.0678461 0.377489 0.648233
3382 2 0.453064 0.374311 0.58673
3384 4 0.468638 0.353775 0.595211
2897 4 0.486708 0.356808 0.589236
1390 2 0.00674985 0.441442 0.630684
1391 4 0.0304347 0.444697 0.635413
3429 4 0.0380517 0.42856 0.62528
975 4 0.366277 0.439009 0.605813
7 3 0.486133 0.495742 0.584839
3422 4 0.446261 0.462405 0.662611
3350 4 0.000207158 0.0546014 0.672345
1640 4 0.00466233 0.0665947 0.736378
1562 4 0.0171044 0.00631816 0.718925
3351 4 0.0190412 0.0224053 0.708545
3349 2 0.0096242 0.0385033 0.690445
3363 4 0.129755 0.0745291 0.726003
3361 2 0.135558 0.0601211 0.705778
463 3 0.137473 0.0682741 0.744101
3362 4 0.141362 0.0457131 0.685553
3689 4 0.20442 0.00921707 0.733054
3688 2 0.225893 0.0151116 0.741849
3690 4 0.247365 0.0210062 0.750645
1643 4 0.293019 0.0109492 0.678616
3692 4 0.30354 0.0143482 0.694635
3691 2 0.320736 0.0244476 0.707043
3693 4 0.337931 0.034547 0.719451
3831 4 0.342555 0.0515082 0.71628
3829 2 0.367882 0.0492178 0.715075
3830 4 0.39321 0.0469273 0.71387
4781 4 0.401066 0.045779 0.732257
3432 4 0.403259 0.0493514 0.664105
4780 2 0.422611 0.0546985 0.733432
4782 4 0.444156 0.063618 0.734607
323 3 0.494265 0.0453424 0.719109
1050 4 0.0160293 0.128253 0.676209
1639 2 0.00288325 0.0912242 0.733432
1641 4 0.00110416 0.115854 0.730487
2495 4 0.259764 0.141063 0.681192
4240 2 0.270944 0.0913364 0.740709
4242 4 0.250063 0.0842404 0.749512
3114 4 0.232034 0.0813549 0.745113
2494 2 0.28205 0.142552 0.670565
4241 4 0.291826 0.0984324 0.731905
3592 2 0.279254 0.162504 0.740219
3594 4 0.273746 0.139801 0.743186
2267 4 0.308741 0.091023 0.721342
2268 4 0.338105 0.098489 0.682705
2266 2 0.323423 0.094756 0.702023
3341 4 0.429757 0.1327 0.730327
125 3 0.431112 0.141761 0.747558
3340 2 0.445472 0.127074 0.710816
3342 4 0.461187 0.121448 0.691305
3714 4 0.471782 0.128306 0.676386
121 1 0.424284 0.164157 0.750954
3712 2 0.492093 0.1371 0.684181
3330 4 0.102123 0.186566 0.668133
3328 2 0.10053 0.20278 0.687096
3329 4 0.0989369 0.218993 0.706058
3456 4 0.108043 0.230564 0.719105
3454 2 0.130632 0.223968 0.730474
3455 4 0.153221 0.217373 0.741843
2918 4 0.168084 0.22745 0.738781
2917 2 0.183968 0.243218 0.735022
3757 2 0.221433 0.223713 0.669901
3758 4 0.234613 0.206757 0.685453
1177 2 0.332088 0.169417 0.677415
3804 4 0.284101 0.203132 0.731056
3593 4 0.284762 0.185207 0.737251
3802 2 0.290959 0.200778 0.706997
3803 4 0.297817 0.198425 0.682938
1296 4 0.305928 0.233967 0.749332
1294 2 0.323084 0.238073 0.732445
1179 4 0.347663 0.182072 0.689129
1701 4 0.36248 0.183141 0.702844
1295 4 0.340239 0.24218 0.715559
1699 2 0.382084 0.191763 0.712641
1700 4 0.401688 0.200384 0.722438
513 3 0.469728 0.183164 0.672365
123 3 0.422469 0.175333 0.730624
1233 4 0.407969 0.215157 0.731959
1231 2 0.427602 0.226191 0.737104
944 4 0.441117 0.179434 0.732231
1232 4 0.447234 0.237225 0.74225
1689 4 0.448066 0.182239 0.751808
943 2 0.456049 0.178679 0.712078
945 4 0.470981 0.177925 0.691925
1281 4 0.155222 0.285094 0.738044
1279 2 0.132481 0.293827 0.748443
3722 4 0.170203 0.306856 0.675002
3721 2 0.179445 0.319413 0.69315
2919 4 0.199852 0.258987 0.731263
693 3 0.242224 0.302588 0.716049
3723 4 0.188688 0.33197 0.711298
694 3 0.253277 0.268376 0.732056
2813 4 0.237802 0.314063 0.700132
2526 4 0.268324 0.259455 0.682379
692 3 0.256323 0.272585 0.69491
691 1 0.257946 0.282576 0.715311
695 3 0.279439 0.286521 0.717881
1479 4 0.288358 0.292131 0.735864
1477 2 0.291763 0.31131 0.750179
821 4 0.0192271 0.404128 0.725956
3557 4 0.0353893 0.412179 0.7207
3556 2 0.0575152 0.418244 0.727311
2812 2 0.231706 0.337341 0.709146
2814 4 0.225611 0.360619 0.71816
1615 2 0.496681 0.356646 0.694746
1617 4 0.496063 0.349884 0.718737
3420 4 0.502649 0.355867 0.735865
1616 4 0.497299 0.363408 0.670755
1530 4 0.0361285 0.490444 0.736862
1528 2 0.0589504 0.496833 0.734973
3558 4 0.0796411 0.424308 0.733923
3000 4 0.0973894 0.430169 0.729165
2998 2 0.118867 0.439221 0.728215
2999 4 0.140344 0.448274 0.727265
1446 4 0.154881 0.455221 0.734345
1444 2 0.178084 0.460918 0.733895
1445 4 0.201287 0.466614 0.733444
3629 4 0.218904 0.47615 0.73496
3628 2 0.241211 0.483408 0.732132
3630 4 0.263519 0.490667 0.729304
327 3 0.282657 0.492872 0.73824
326 1 0.305366 0.48802 0.743988
329 3 0.318046 0.47974 0.725325
3795 4 0.336406 0.472971 0.717504
3793 2 0.361613 0.467053 0.721116
3794 4 0.386819 0.461136 0.724729
152 3 0.402326 0.458687 0.736338
3421 2 0.458214 0.470478 0.682001
3423 4 0.470168 0.47855 0.70139
4655 4 0.478998 0.48492 0.716899
3561 4 0.0580122 0.0470309 0.800293
3559 2 0.0635295 0.0313671 0.819635
1559 4 0.0770837 0.0443479 0.792033
1558 2 0.0985054 0.0528409 0.78773
1560 4 0.119927 0.0613338 0.783428
462 3 0.138765 0.0551142 0.779281
461 1 0.147776 0.0686605 0.764849
465 3 0.170668 0.060956 0.763001
3113 4 0.189328 0.0648792 0.755753
3112 2 0.210681 0.073117 0.750433
2789 4 0.229904 0.0335252 0.82421
2788 2 0.23022 0.0543759 0.81116
2790 4 0.230536 0.0752265 0.79811
4257 4 0.239357 0.00499966 0.790866
105 3 0.260074 0.000617227 0.784151
104 3 0.248932 0.0331223 0.765724
101 1 0.26689 0.0192991 0.776517
103 3 0.274456 0.0306299 0.794218
102 3 0.284506 0.0131748 0.761584
3491 4 0.289269 0.0384172 0.78536
1236 4 0.295508 0.0268281 0.769591
3490 2 0.295703 0.0502431 0.805557
3492 4 0.302137 0.062069 0.825754
1234 2 0.319569 0.020922 0.761416
2720 4 0.322346 0.0603853 0.830588
1235 4 0.34363 0.015016 0.753242
1462 2 0.390358 0.0146587 0.807419
1463 4 0.401073 0.0317218 0.819014
4725 4 0.414642 0.0427945 0.819479
1464 4 0.379643 0.997596 0.795823
4723 2 0.43686 0.0497778 0.823815
4724 4 0.459077 0.056761 0.82815
464 3 0.143538 0.0902852 0.773262
3773 4 0.244166 0.0867506 0.803346
3772 2 0.261114 0.101794 0.804134
3774 4 0.278063 0.116837 0.804921
3497 4 0.292607 0.119555 0.790929
3496 2 0.308752 0.132539 0.780665
3498 4 0.324897 0.145524 0.770402
2745 4 0.343525 0.147865 0.762746
2743 2 0.363189 0.159672 0.761918
2740 2 0.00314149 0.237021 0.801346
1655 4 0.173044 0.185198 0.82437
3449 4 0.174258 0.20003 0.811955