ITEM: TIMESTEP
2503500
ITEM: NUMBER OF ATOMS
1600
ITEM: BOX BOUNDS xy xz yz pp pp pp
-6.9325799999999997e+00 7.9031411999998173e+00 9.7056119999981760e-01
-6.9325799999999997e+00 6.9325799999999997e+00 0.0000000000000000e+00
-6.9325799999999997e+00 6.9325799999999997e+00 0.0000000000000000e+00
ITEM: ATOMS id type xs ys zs
1011 4 0.0617691 0.0265675 0.0169577
1012 4 0.0672931 0.0184877 0.0884556
1010 2 0.0645311 0.0225276 0.0527066
81 1 0.111623 0.0368639 0.115885
84 3 0.0878903 0.0158441 0.109339
83 3 0.127575 0.044108 0.0876609
85 3 0.0980675 0.0644178 0.129466
839 2 0.222246 0.115281 0.0781561
840 4 0.251179 0.0947022 0.0891614
268 4 0.27129 0.105053 0.105472
1540 4 0.357825 0.0324462 0.118302
1121 2 0.0325092 0.235368 0.075744
228 3 0.0318606 0.168398 0.0511353
579 4 0.0576599 0.152765 0.0491852
578 2 0.0893143 0.159214 0.0340821
580 4 0.120969 0.165664 0.0189791
1122 4 0.06804 0.231085 0.0693494
322 4 0.0963722 0.234746 0.0632395
741 4 0.0842477 0.165807 0.129378
841 4 0.193313 0.13586 0.0671508
912 4 0.213589 0.224523 0.102938
913 4 0.203121 0.162374 0.0694755
911 2 0.208355 0.193448 0.0862067
1269 4 0.144028 0.181207 0.0227222
1268 2 0.170045 0.201897 0.0118552
266 2 0.299532 0.123954 0.11379
1001 2 0.497753 0.224533 0.110948
65 3 0.028541 0.305389 0.0381676
463 4 0.03858 0.297018 0.0633313
461 2 0.0647616 0.313473 0.0801428
462 4 0.0909431 0.329927 0.0969544
61 1 0.0347716 0.30451 0.00591878
320 2 0.128163 0.24965 0.0627888
321 4 0.159955 0.264555 0.0623381
318 4 0.186433 0.265846 0.0539217
317 2 0.219595 0.277828 0.0530179
319 4 0.252758 0.289809 0.052114
1050 4 0.270856 0.311653 0.0527702
1049 2 0.306292 0.314566 0.0574356
1051 4 0.341729 0.317479 0.0621009
565 4 0.367116 0.328263 0.0666405
563 2 0.400757 0.327355 0.0535199
564 4 0.434399 0.326448 0.0403992
1002 4 0.498315 0.240368 0.0785915
792 4 0.145833 0.360627 0.0247202
960 4 0.118244 0.371961 0.0277121
1389 4 0.291742 0.393816 0.0581053
1388 2 0.310354 0.416282 0.0778115
1390 4 0.328966 0.438747 0.0975177
358 4 0.465322 0.503909 0.0878216
312 4 0.492104 0.497659 0.0791246
82 3 0.133586 0.0222379 0.137058
1519 4 0.171812 0.0772383 0.194892
1517 2 0.160012 0.073347 0.228649
333 4 0.223605 0.123904 0.185038
332 2 0.192938 0.129338 0.166231
185 3 0.32007 0.0307144 0.214482
1538 2 0.36301 0.0127263 0.148254
181 1 0.333249 0.000846147 0.222466
910 4 0.379845 0.0169623 0.239768
553 4 0.445905 0.00925471 0.189203
908 2 0.408268 0.0371962 0.240603
909 4 0.436691 0.0574302 0.241438
607 4 0.00561754 0.120129 0.161235
740 2 0.115021 0.157485 0.147256
605 2 0.0300919 0.140735 0.146945
606 4 0.0545664 0.161341 0.132656
334 4 0.162272 0.134772 0.147425
742 4 0.145795 0.149163 0.165134
719 2 0.188632 0.239763 0.236813
720 4 0.166012 0.221608 0.256815
744 4 0.240492 0.196078 0.172504
743 2 0.250281 0.181248 0.204189
745 4 0.260071 0.166419 0.235875
267 4 0.327773 0.142855 0.122108
1104 4 0.352478 0.140741 0.13794
1035 4 0.402457 0.212542 0.12736
1105 4 0.407143 0.183478 0.13079
1103 2 0.37981 0.16211 0.134365
1034 2 0.418595 0.236376 0.14774
1056 4 0.0998766 0.336804 0.12346
1055 2 0.131691 0.351669 0.123322
1057 4 0.163506 0.366533 0.123184
721 4 0.211252 0.257919 0.216811
1045 4 0.169198 0.376542 0.149031
68 3 0.216292 0.285313 0.214838
66 1 0.226693 0.316064 0.218929
69 3 0.201516 0.336654 0.230443
70 3 0.23759 0.327294 0.190359
67 3 0.251471 0.314715 0.241056
1096 4 0.245305 0.321895 0.163716
1094 2 0.262132 0.345621 0.143821
1095 4 0.278958 0.369348 0.123926
1036 4 0.434732 0.26021 0.16812
151 1 0.0168639 0.403502 0.239435
155 3 0.0495207 0.40466 0.241828
518 2 0.099978 0.474404 0.202876
193 3 0.0404651 0.495735 0.20928
520 4 0.0683818 0.492705 0.209695
519 4 0.131574 0.456104 0.196056
220 3 0.201336 0.494357 0.209018
1043 2 0.174104 0.40291 0.172686
1044 4 0.17901 0.429278 0.196342
217 3 0.15406 0.471774 0.209663
216 1 0.170135 0.497946 0.219413
1431 4 0.328223 0.434048 0.127121
1430 2 0.341602 0.436983 0.160398
1432 4 0.35498 0.439917 0.193675
893 2 0.459826 0.494611 0.225028
894 4 0.424723 0.4968 0.216415
873 4 0.375792 0.435457 0.214162
872 2 0.411332 0.430073 0.208248
874 4 0.446872 0.424689 0.202333
1422 4 0.476104 0.41627 0.201691
1421 2 0.507389 0.421941 0.185424
895 4 0.494929 0.492421 0.233642
314 2 0.0878954 0.0347459 0.366928
316 4 0.117077 0.0412034 0.347419
90 3 0.145956 0.0447836 0.34129
1518 4 0.148212 0.0694557 0.262406
87 3 0.150073 0.0612473 0.290313
86 1 0.166765 0.0478012 0.316232
88 3 0.1805 0.0176917 0.307393
89 3 0.190781 0.0677429 0.324983
1600 4 0.21741 0.0756826 0.321832
1598 2 0.250924 0.081245 0.310878
184 3 0.357035 0.00339306 0.245688
1599 4 0.284439 0.0868074 0.299923
1128 4 0.311231 0.0819602 0.312754
1127 2 0.346782 0.0860081 0.312999
1129 4 0.382332 0.0900561 0.313244
835 4 0.464442 0.0595052 0.24867
711 4 0.49132 0.0961571 0.356188
948 4 0.408012 0.0961555 0.318985
949 4 0.478522 0.103342 0.329341
947 2 0.443267 0.0997489 0.324163
351 4 0.028972 0.221056 0.283251
350 2 0.0615731 0.231335 0.274056
345 4 0.00119689 0.232222 0.283134
352 4 0.0941742 0.241613 0.26486
652 4 0.273658 0.159232 0.262618
650 2 0.308406 0.147018 0.261012
651 4 0.343153 0.134805 0.259405
1132 4 0.37085 0.221412 0.328615
1130 2 0.402056 0.235155 0.337382
750 4 0.448931 0.267328 0.359476
1131 4 0.433262 0.248898 0.346148
749 2 0.473607 0.277829 0.336142
927 4 0.0698285 0.386924 0.256491
926 2 0.0952543 0.398519 0.278346
219 3 0.169319 0.499688 0.252826
928 4 0.12068 0.410113 0.300202
336 4 0.132052 0.41891 0.324069
335 2 0.15741 0.436408 0.341028
337 4 0.182769 0.453906 0.357987
1436 2 0.219274 0.47765 0.366925
1189 4 0.273406 0.499586 0.345173
1437 4 0.246191 0.492313 0.349472
1427 2 0.496055 0.450242 0.366039
315 4 0.0587133 0.0282885 0.386437
732 4 0.0304483 0.0288801 0.385143
782 2 0.0332064 0.0630938 0.473483
783 4 0.0682383 0.0523717 0.470278
402 4 0.0948931 0.0652789 0.471475
401 2 0.125502 0.0818124 0.467228
403 4 0.15611 0.0983459 0.46298
1027 4 0.176104 0.104317 0.442519
845 2 0.355103 0.0208292 0.490557
847 4 0.387639 0.0341384 0.488742
1150 4 0.414601 0.0427216 0.485056
1149 4 0.484332 0.0567267 0.482691
1148 2 0.449467 0.0497242 0.483874
482 2 0.0126127 0.229345 0.410646
483 4 0.0461657 0.24019 0.412996
102 3 0.112113 0.211807 0.480478
241 1 0.106444 0.242314 0.412251
243 3 0.12025 0.210976 0.413975
245 3 0.0738699 0.24245 0.416541
1026 4 0.188357 0.136305 0.379523
1025 2 0.182231 0.120311 0.411021
1461 4 0.479069 0.244058 0.441465
242 3 0.112707 0.254766 0.382339
244 3 0.119793 0.261238 0.435628
159 3 0.237479 0.267016 0.487342
1483 4 0.146987 0.265582 0.442111
1481 2 0.178254 0.265738 0.460059
1482 4 0.209521 0.265894 0.478006
160 3 0.289696 0.249574 0.493977
1438 4 0.192357 0.462987 0.384378
1573 4 0.468023 0.447501 0.411222
997 4 0.491609 0.3889 0.47125
1428 4 0.490464 0.431734 0.396213
1572 4 0.466332 0.405504 0.469674
1571 2 0.467177 0.426502 0.440448
836 2 0.0764926 0.0451219 0.621219
837 4 0.0945403 0.0655582 0.598782
478 4 0.121551 0.0611373 0.588945
476 2 0.146876 0.0817535 0.576337
477 4 0.172201 0.10237 0.56373
757 4 0.231177 0.106616 0.515186
54 3 0.227939 0.0273859 0.580901
1297 4 0.242349 0.0524643 0.589634
53 3 0.175176 0.0188623 0.571697
51 1 0.205229 0.00441465 0.579929
755 2 0.263093 0.11464 0.528651
1295 2 0.275975 0.0378215 0.594445
756 4 0.295008 0.122665 0.542116
1296 4 0.309602 0.0231786 0.599256
846 4 0.322567 0.00751991 0.492372
396 4 0.0316719 0.226292 0.602816
395 2 0.0513449 0.218106 0.573344
397 4 0.071018 0.209919 0.543872
104 3 0.0821157 0.19635 0.522114
101 1 0.111988 0.192007 0.507055
105 3 0.117383 0.160757 0.497462
496 4 0.0482835 0.226285 0.625498
103 3 0.136216 0.20012 0.528014
295 4 0.157344 0.200937 0.508771
293 2 0.193402 0.200942 0.508313
294 4 0.22946 0.200947 0.507855
158 3 0.250683 0.217537 0.508826
858 4 0.306844 0.146472 0.549926
857 2 0.325894 0.142194 0.580432
702 4 0.32886 0.241498 0.609467
955 4 0.303504 0.226471 0.613447
701 2 0.362363 0.226126 0.613026
859 4 0.344944 0.137917 0.610938
953 2 0.281403 0.244419 0.590126
1565 2 0.349932 0.246561 0.520131
1566 4 0.316679 0.244924 0.506554
703 4 0.395866 0.210755 0.616585
388 4 0.49497 0.14406 0.555435
1567 4 0.383185 0.248199 0.533709
156 1 0.259412 0.249087 0.506601
954 4 0.259303 0.262367 0.566805
157 3 0.25908 0.262397 0.536985
582 4 0.410348 0.25663 0.540743
581 2 0.445955 0.25937 0.544118
583 4 0.481562 0.262111 0.547493
1559 2 0.0359726 0.432723 0.612618
1561 4 0.0700725 0.421733 0.620905
232 3 0.161127 0.495806 0.602738
1278 4 0.273283 0.482777 0.55273
525 4 0.362441 0.481059 0.594678
1397 2 0.306945 0.47897 0.608692
1398 4 0.339542 0.492209 0.607521
457 4 0.247931 0.469576 0.620715
523 4 0.0540224 0.999749 0.655166
838 4 0.0584449 0.0246857 0.643656
110 3 0.0471334 0.0431733 0.725187
107 3 0.0689943 0.0861933 0.704495
106 1 0.0611598 0.0709126 0.732565
510 4 0.0969161 0.0869594 0.697464
108 3 0.0891752 0.0638838 0.750256
509 2 0.122011 0.0868974 0.671561
511 4 0.147106 0.0868353 0.645659
1039 4 0.17124 0.0799335 0.629097
1037 2 0.196675 0.102519 0.636872
418 4 0.244611 0.135718 0.63123
974 2 0.0224129 0.178117 0.687902
975 4 0.0468455 0.181023 0.714077
494 2 0.0717474 0.228542 0.652652
5 3 0.0715641 0.176447 0.72911
495 4 0.0952112 0.230798 0.679807
1 1 0.0984056 0.19285 0.723972
3 3 0.090237 0.220944 0.706878
4 3 0.121276 0.173663 0.706991
1038 4 0.222111 0.125106 0.644646
1239 4 0.148493 0.180495 0.702099
1238 2 0.178738 0.196179 0.693609
1240 4 0.208984 0.211864 0.685119
502 4 0.23423 0.20996 0.699015
904 4 0.120976 0.247177 0.678889
416 2 0.27079 0.157565 0.638677
417 4 0.296968 0.179413 0.646124
500 2 0.268097 0.220129 0.697856
501 4 0.301964 0.230298 0.696696
1501 4 0.43385 0.237593 0.738653
1205 2 0.496128 0.21817 0.739243
1206 4 0.461155 0.224396 0.747543
1467 4 0.0106228 0.300164 0.656547
558 4 0.0409641 0.301062 0.661197
557 2 0.0653958 0.317422 0.680655
559 4 0.0898276 0.333782 0.700114
1086 4 0.117526 0.331429 0.706681
1085 2 0.118132 0.315603 0.739081
902 2 0.148753 0.267757 0.674066
903 4 0.176531 0.288337 0.669243
546 4 0.205702 0.287985 0.668867
545 2 0.226849 0.310434 0.685615
547 4 0.247996 0.332882 0.702362
1108 4 0.264598 0.330231 0.725164
1106 2 0.291149 0.35094 0.734522
1456 4 0.0980551 0.425879 0.62393
1454 2 0.132758 0.426577 0.633538
1455 4 0.16746 0.427275 0.643145
456 4 0.191047 0.440316 0.650256
455 2 0.219489 0.454946 0.635485
1399 4 0.274349 0.465732 0.609864
669 4 0.333827 0.501627 0.736534
668 2 0.363948 0.479823 0.739249
1107 4 0.3177 0.371649 0.743879
670 4 0.394069 0.458019 0.741964
848 2 0.453884 0.471941 0.728174
849 4 0.488083 0.481083 0.726414
850 4 0.419685 0.4628 0.729935
109 3 0.0397733 0.0912615 0.750096
1469 2 0.0668211 0.00565668 0.803079
1470 4 0.0820344 0.0349798 0.815018
1138 4 0.109057 0.0247953 0.823176
1287 4 0.0534516 0.0410164 0.878495
1136 2 0.136565 0.038647 0.805925
1137 4 0.164073 0.0524986 0.788673
2 3 0.111353 0.200842 0.753202
1196 2 0.000905314 0.157917 0.76842
1198 4 0.0367592 0.159734 0.770016
561 4 0.13075 0.210392 0.773244
560 2 0.135149 0.245726 0.77542
1499 2 0.416754 0.243049 0.770139
562 4 0.139548 0.28106 0.777596
1087 4 0.118737 0.299777 0.771481
1359 4 0.17811 0.326018 0.876892
907 4 0.374951 0.257654 0.815029
905 2 0.376995 0.245699 0.849031
177 3 0.300744 0.353214 0.883222
1500 4 0.399658 0.248504 0.801624
507 4 0.998974 0.41718 0.843538
691 4 0.0876116 0.442296 0.843161
689 2 0.0519113 0.440093 0.839985
690 4 0.0162111 0.437889 0.836809
24 3 0.101342 0.465323 0.852094
21 1 0.117548 0.492105 0.843391
25 3 0.139777 0.483917 0.820093
843 4 0.327176 0.391958 0.761385
842 2 0.353144 0.405751 0.781003
253 4 0.393219 0.461508 0.877472
844 4 0.379112 0.419544 0.800621
252 4 0.396764 0.441569 0.808192
251 2 0.394992 0.451538 0.842832
1288 4 0.989339 0.0212197 0.901299
1286 2 0.0213952 0.0311181 0.889897
1232 2 0.09291 0.0593295 0.989401
1234 4 0.113386 0.0875143 0.987939
1233 4 0.0724338 0.0311447 0.990863
1152 4 0.239232 0.0927076 0.994415
1170 4 0.141027 0.0787472 0.990529
1169 2 0.176757 0.0814313 0.988745
1171 4 0.212487 0.0841154 0.98696
1114 4 0.307166 0.0331897 0.873487
1151 2 0.266937 0.105893 0.976892
1112 2 0.32345 0.00946056 0.896368
708 4 0.317653 0.106439 0.970241
1153 4 0.294642 0.119078 0.959369
707 2 0.349097 0.121946 0.9716
134 3 0.475573 0.997581 0.948361
780 4 0.49945 0.995598 0.934842
1270 4 0.196062 0.222587 0.000988195
1510 4 0.224204 0.230408 0.999604
906 4 0.37904 0.233745 0.883032
1508 2 0.259708 0.231899 0.994106
709 4 0.380541 0.137453 0.972959
586 4 0.407341 0.2316 0.890089
584 2 0.438715 0.224163 0.907212
612 4 0.408206 0.145849 0.979692
585 4 0.470089 0.216725 0.924335
139 3 0.495588 0.226946 0.922508
611 2 0.444161 0.145102 0.983
613 4 0.480115 0.144356 0.986308
64 3 0.00635624 0.311179 0.988761
62 3 0.0475761 0.274206 0.997659
384 4 0.0687576 0.279689 0.979865
63 3 0.0569391 0.326818 0.998221
961 4 0.0707804 0.345142 0.982456
383 2 0.0871371 0.280906 0.948913
385 4 0.105517 0.282123 0.917961
959 2 0.0945122 0.358552 0.00508413
1360 4 0.132332 0.286862 0.91315
1358 2 0.155221 0.30644 0.895021
1126 4 0.200114 0.32206 0.897381
1124 2 0.229888 0.332415 0.913599
793 4 0.207808 0.363973 0.988382
791 2 0.17682 0.3623 0.0065509
1509 4 0.295213 0.233389 0.988609
180 3 0.335272 0.364424 0.922271
176 1 0.308727 0.348245 0.915124
179 3 0.315319 0.315454 0.92024
1125 4 0.259662 0.342769 0.929817
178 3 0.282844 0.359584 0.934147
1528 4 0.412032 0.356344 0.942303
1526 2 0.42913 0.383576 0.92824
393 4 0.443136 0.434837 0.897808
1527 4 0.446227 0.410808 0.914177
392 2 0.477083 0.443924 0.902493
288 4 0.103886 0.56241 0.11194
287 2 0.122372 0.589047 0.0986419
1317 4 0.0824536 0.55894 0.131384
289 4 0.140858 0.615685 0.0853442
357 4 0.444038 0.537103 0.0266628
356 2 0.45468 0.520506 0.0572422
883 4 0.0167216 0.672415 0.0250677
1530 4 0.103407 0.652551 0.0153361
1529 2 0.127404 0.644871 0.0416246
1327 4 0.025826 0.676764 0.998329
1531 4 0.151401 0.63719 0.0679132
1098 4 0.253066 0.713064 0.0113877
207 3 0.032934 0.883061 0.0156171
1005 4 0.207157 0.848931 0.0794092
636 4 0.216132 0.853279 0.106813
971 2 0.174023 0.77292 0.0134616
972 4 0.199013 0.785322 0.0353253
1004 2 0.174619 0.856116 0.0644898
1006 4 0.14208 0.8633 0.0495704
628 4 0.405652 0.824888 0.997849
626 2 0.438605 0.837352 0.996876
77 3 0.0985031 0.917895 0.00047566
76 1 0.119677 0.890922 0.00156124
79 3 0.1286 0.884977 0.0333764
1076 2 0.472916 0.952339 0.0877778
1077 4 0.443274 0.952166 0.108297
1318 4 0.0133239 0.547569 0.144908
191 1 0.023366 0.523695 0.219715
195 3 0.0107866 0.540556 0.193935
1316 2 0.0478888 0.553255 0.138146
192 3 0.0440752 0.54234 0.236099
218 3 0.154871 0.525679 0.206248
1496 2 0.259458 0.517661 0.203373
1498 4 0.224883 0.509575 0.203033
1497 4 0.294034 0.525748 0.203714
1030 4 0.312339 0.518242 0.182947
1028 2 0.345877 0.525983 0.174052
1029 4 0.379415 0.533724 0.165158
1413 4 0.405145 0.541583 0.175182
1412 2 0.434105 0.560886 0.178202
1414 4 0.463064 0.58019 0.181221
549 4 0.23409 0.72159 0.199661
1476 4 0.24112 0.718426 0.22753
548 2 0.214613 0.751772 0.190285
390 4 0.00431403 0.858712 0.133778
875 2 0.0511171 0.843376 0.223419
877 4 0.0244658 0.829287 0.205031
876 4 0.0777684 0.857466 0.241807
657 4 0.103462 0.869638 0.246818
550 4 0.195135 0.781955 0.180908
635 2 0.230831 0.876268 0.129307
389 2 0.0322262 0.879575 0.132205
391 4 0.0601383 0.900438 0.130631
474 4 0.0686791 0.918522 0.152381
473 2 0.0994011 0.935327 0.151617
475 4 0.130123 0.952131 0.150853
1222 4 0.240937 0.919074 0.171484
637 4 0.24553 0.899257 0.151802
1220 2 0.261851 0.941504 0.188568
182 3 0.346982 0.986337 0.195477
183 3 0.309411 0.98204 0.234022
1558 4 0.28274 0.986165 0.223806
1221 4 0.282764 0.963933 0.205652
1539 4 0.368195 0.993006 0.178205
552 4 0.451063 0.962719 0.134134
551 2 0.448484 0.985987 0.161669
1033 4 0.0140568 0.557263 0.37068
194 3 0.998723 0.516019 0.240378
1031 2 0.0317514 0.578455 0.348691
1032 4 0.0494459 0.599647 0.326701
165 3 0.0691022 0.597485 0.304297
162 3 0.121214 0.593833 0.290336
161 1 0.097426 0.612077 0.306494
163 3 0.106381 0.614588 0.338592
934 4 0.128185 0.628224 0.348925
1187 2 0.283546 0.525264 0.367502
368 2 0.473271 0.546898 0.310174
370 4 0.453294 0.568186 0.332658
1075 4 0.465133 0.586503 0.349628
369 4 0.493247 0.525611 0.287689
488 2 0.0103445 0.722039 0.313323
490 4 0.0456838 0.727141 0.313729
1506 4 0.0750934 0.701277 0.358321
1505 2 0.0852843 0.685788 0.327053
164 3 0.0940029 0.642482 0.292573
1507 4 0.0954752 0.6703 0.295786
610 4 0.0473715 0.755649 0.307183
1475 2 0.26632 0.726113 0.25159
1477 4 0.29152 0.733801 0.275649
1073 2 0.460672 0.620978 0.339248
599 2 0.501668 0.682076 0.296884
1074 4 0.456211 0.655453 0.328869
601 4 0.48012 0.658642 0.311499
1291 4 0.986098 0.81695 0.375181
1289 2 0.013034 0.83739 0.366347
608 2 0.0747078 0.7752 0.316891
609 4 0.102044 0.794752 0.326599
716 2 0.0934307 0.875196 0.356354
1290 4 0.0399698 0.857829 0.357514
656 2 0.11151 0.873658 0.281674
448 4 0.266175 0.855142 0.370394
1227 4 0.440813 0.829612 0.250036
1226 2 0.438987 0.865197 0.255841
897 4 0.47153 0.854229 0.336269
688 4 0.48596 0.771878 0.293898
686 2 0.487607 0.801945 0.313453
687 4 0.489254 0.832012 0.333008
896 2 0.454893 0.86225 0.367537
658 4 0.119559 0.877679 0.31653
718 4 0.12281 0.888712 0.342277
465 4 0.217379 0.96579 0.278633
464 2 0.198608 0.974251 0.308605
466 4 0.179837 0.982712 0.338578
924 4 0.171919 0.987157 0.365703
1557 4 0.240624 0.98233 0.282035
1556 2 0.261682 0.984247 0.25292
1417 4 0.470342 0.992802 0.271158
1416 4 0.441684 0.93012 0.25771
1228 4 0.437161 0.900782 0.261646
1415 2 0.456013 0.961461 0.264434
296 2 0.0253067 0.529871 0.462748
297 4 0.0535464 0.547523 0.451788
143 3 0.0796496 0.561504 0.450379
145 3 0.112408 0.573796 0.409543
141 1 0.111278 0.565875 0.441375
142 3 0.129811 0.537581 0.446485
144 3 0.123478 0.590033 0.459906
529 4 0.14784 0.604789 0.471249
1194 4 0.183321 0.52667 0.482353
1193 2 0.219087 0.525429 0.477261
1195 4 0.254853 0.524189 0.472169
527 2 0.177934 0.616957 0.485203
1110 4 0.283504 0.525887 0.477756
1109 2 0.292894 0.541416 0.446941
1188 4 0.293685 0.550942 0.389831
1111 4 0.302284 0.556945 0.416126
1321 4 0.441558 0.584604 0.471395
1319 2 0.475286 0.595073 0.47324
453 4 0.0109499 0.676051 0.419969
274 4 0.113121 0.645782 0.437572
454 4 0.0503343 0.70975 0.371763
452 2 0.0306421 0.6929 0.395866
272 2 0.0979349 0.650553 0.470085
933 4 0.135897 0.647093 0.417947
932 2 0.132041 0.637659 0.383436
528 4 0.208029 0.629126 0.499158
363 4 0.359853 0.747588 0.475459
717 4 0.0640515 0.86168 0.370431
1213 4 0.151652 0.837331 0.487516
1211 2 0.168565 0.837687 0.455682
1212 4 0.185479 0.838044 0.423848
447 4 0.209631 0.850631 0.414537
446 2 0.237903 0.852886 0.392465
1173 4 0.291367 0.86569 0.375791
362 2 0.348308 0.779212 0.490063
898 4 0.438257 0.870272 0.398805
923 2 0.201212 0.987603 0.386689
925 4 0.230504 0.988048 0.407676
1174 4 0.312962 0.932701 0.380325
967 4 0.295255 0.00249595 0.502664
1345 4 0.321381 0.959842 0.379227
1343 2 0.288003 0.974524 0.385418
1344 4 0.254625 0.989207 0.391608
1172 2 0.302164 0.899195 0.378058
459 4 0.0329442 0.534153 0.616522
660 4 0.0996134 0.576255 0.561209
1041 4 0.0507607 0.53547 0.59316
659 2 0.0918121 0.602738 0.537466
1040 2 0.0837445 0.546169 0.600099
1042 4 0.116728 0.556867 0.607038
247 3 0.15477 0.592654 0.545806
246 1 0.16967 0.562119 0.543483
248 3 0.173519 0.549257 0.574237
235 3 0.145253 0.54742 0.611849
231 1 0.170789 0.525006 0.613276
250 3 0.199063 0.563789 0.529158
867 4 0.214702 0.583744 0.539218
234 3 0.195577 0.534213 0.59357
1279 4 0.212775 0.51941 0.575142
866 2 0.246489 0.592917 0.552049
249 3 0.150434 0.543168 0.525098
1277 2 0.243029 0.501093 0.563936
868 4 0.278277 0.60209 0.564879
775 4 0.30525 0.606908 0.570368
773 2 0.340638 0.611436 0.568112
774 4 0.376027 0.615964 0.565856
524 2 0.392679 0.498658 0.595294
526 4 0.422917 0.516256 0.595911
890 2 0.477318 0.53661 0.616277
891 4 0.443065 0.530947 0.608042
1219 4 0.0142454 0.677725 0.573236
1464 4 0.0391868 0.671941 0.557907
766 4 0.07336 0.757973 0.616194
1463 2 0.0737878 0.679636 0.555358
661 4 0.0840107 0.629221 0.513722
273 4 0.0827483 0.655323 0.502597
1465 4 0.108389 0.68733 0.552809
1314 4 0.127867 0.66754 0.540594
1315 4 0.185882 0.635579 0.573293
865 4 0.118457 0.709113 0.539524
1313 2 0.156874 0.65156 0.556943
863 2 0.146099 0.730242 0.537063
604 4 0.225993 0.648241 0.511992
602 2 0.254645 0.666003 0.521546
603 4 0.283296 0.683765 0.531101
479 2 0.338962 0.701621 0.552549
480 4 0.311844 0.690612 0.532512
481 4 0.36608 0.712629 0.572586
1453 4 0.376874 0.7077 0.600382
1204 4 0.396453 0.635907 0.567803
1202 2 0.431431 0.64158 0.563695
1366 4 0.487394 0.660643 0.574557
1203 4 0.46641 0.647253 0.559586
1451 2 0.404164 0.725114 0.613964
1452 4 0.431454 0.742528 0.627546
764 2 0.0398032 0.747044 0.617939
765 4 0.00624644 0.736115 0.619684
864 4 0.173741 0.75137 0.534602
1361 2 0.179813 0.839969 0.536211
1362 4 0.203857 0.827238 0.560753
1363 4 0.15577 0.8527 0.511669
1458 4 0.225994 0.812912 0.572192
1457 2 0.249162 0.822924 0.597301
1459 4 0.272331 0.832936 0.622411
685 4 0.282001 0.859088 0.620321
364 4 0.336764 0.810836 0.504667
880 4 0.434097 0.79026 0.511339
818 2 0.408104 0.814996 0.620937
467 2 0.407721 0.878677 0.55619
820 4 0.401305 0.78646 0.600719
879 4 0.419627 0.773288 0.579666
878 2 0.426862 0.781774 0.545502
1311 4 0.45771 0.872274 0.544041
468 4 0.440123 0.892361 0.555563
1236 4 0.0772805 0.876242 0.594941
347 2 0.035801 0.962702 0.535018
1235 2 0.0542636 0.901379 0.580221
1237 4 0.0312467 0.926516 0.565501
349 4 0.0017235 0.955106 0.528312
348 4 0.0698785 0.970297 0.541724
648 4 0.106512 0.875231 0.601506
647 2 0.137885 0.88942 0.594323
649 4 0.169257 0.903608 0.58714
760 4 0.199325 0.907355 0.585343
55 3 0.214361 0.981074 0.55807
758 2 0.231296 0.919671 0.57693
52 3 0.203198 0.990685 0.609984
469 4 0.37532 0.864993 0.556818
966 4 0.240897 0.985207 0.545268
965 2 0.268076 0.993851 0.523966
759 4 0.263267 0.931986 0.568517
1515 4 0.288875 0.929201 0.584133
1514 2 0.301641 0.961424 0.59018
1516 4 0.314407 0.993646 0.596227
1310 2 0.490113 0.885454 0.540019
1546 4 0.119356 0.577881 0.62614
233 3 0.181655 0.52165 0.64483
1544 2 0.140703 0.594203 0.649125
1545 4 0.16205 0.610525 0.672109
915 4 0.190894 0.610175 0.681305
940 4 0.0992826 0.744422 0.706915
914 2 0.221741 0.617849 0.697325
1119 4 0.33492 0.667511 0.633565
916 4 0.252587 0.625523 0.713345
1118 2 0.308292 0.659423 0.655824
1120 4 0.281663 0.651335 0.678084
631 4 0.450738 0.741817 0.648522
938 2 0.0962262 0.75518 0.672574
1260 4 0.0198662 0.751488 0.722439
939 4 0.0931698 0.765938 0.638232
1259 2 0.0345736 0.779286 0.738264
1261 4 0.049281 0.807083 0.75409
439 4 0.179078 0.848871 0.701831
437 2 0.164922 0.8824 0.695766
426 4 0.155036 0.849296 0.743745
683 2 0.309202 0.875886 0.634916
629 2 0.474796 0.746539 0.674663
819 4 0.414904 0.843532 0.641155
1591 4 0.417775 0.864244 0.660294
630 4 0.498855 0.75126 0.700804
343 4 0.00909936 0.876289 0.752274
95 3 0.0249012 0.963033 0.727463
521 2 0.0464497 0.975618 0.680314
522 4 0.0388769 0.951488 0.705462
438 4 0.150766 0.915928 0.689701
420 4 0.19737 0.980573 0.636348
419 2 0.215761 0.976816 0.667295
421 4 0.234152 0.973059 0.698242
1590 4 0.359537 0.909645 0.649859
684 4 0.336403 0.892685 0.649511
1589 2 0.388656 0.886945 0.655077
555 4 0.00905565 0.512321 0.819536
1008 4 0.0211545 0.533446 0.806042
1007 2 0.0571908 0.533692 0.806779
1009 4 0.093227 0.533938 0.807516
22 3 0.0955019 0.51546 0.831616
286 4 0.107727 0.619832 0.773117
23 3 0.13274 0.504242 0.870136
1178 2 0.0787087 0.728127 0.803397
1179 4 0.10968 0.707871 0.799314
285 4 0.124266 0.687955 0.783465
284 2 0.115996 0.653894 0.778291
40 3 0.0233714 0.73683 0.860861
1180 4 0.0477372 0.748384 0.80748
175 3 0.99591 0.818896 0.78708
270 4 0.0737185 0.804924 0.767088
1367 2 0.0461175 0.847045 0.815535
38 3 0.0319996 0.770361 0.81958
36 1 0.0222945 0.768292 0.851496
1368 4 0.0200979 0.829418 0.799818
799 4 0.066518 0.798446 0.863238
269 2 0.104876 0.817194 0.755913
1369 4 0.072137 0.864672 0.831251
39 3 0.042239 0.785292 0.871099
271 4 0.136033 0.829464 0.744737
425 2 0.176043 0.848051 0.773092
993 4 0.211162 0.8212 0.796023
427 4 0.19705 0.846806 0.802439
992 2 0.229315 0.806072 0.823941
994 4 0.247468 0.790944 0.851859
1283 2 0.286633 0.761088 0.86462
1284 4 0.254161 0.761726 0.848856
74 3 0.508855 0.857838 0.838526
91 1 0.00982569 0.978827 0.752646
1471 4 0.0516077 0.976334 0.791141
92 3 0.0325849 0.992073 0.771731
1254 4 0.0931457 0.881774 0.833958
1253 2 0.119804 0.903405 0.840195
1348 4 0.208184 0.976876 0.837956
1346 2 0.175727 0.965352 0.845775
1347 4 0.143269 0.953828 0.853594
1255 4 0.146462 0.925036 0.846432
1245 4 0.23857 0.975174 0.796884
1244 2 0.274237 0.977912 0.799557
1246 4 0.309904 0.980649 0.80223
577 4 0.338814 0.978225 0.805218
575 2 0.363887 0.986322 0.82925
338 2 0.498517 0.93624 0.867989
339 4 0.492575 0.967594 0.850572
576 4 0.388959 0.994419 0.853282
1062 4 0.326601 0.53969 0.945552
1061 2 0.351652 0.549772 0.922413
1063 4 0.376702 0.559854 0.899274
1133 2 0.492276 0.57028 0.947143
1135 4 0.492171 0.600572 0.966605
1134 4 0.492381 0.539988 0.927682
1325 2 0.059932 0.663368 0.993761
1326 4 0.094038 0.649973 0.989193
1097 2 0.272511 0.735919 0.993078
797 2 0.0962973 0.807456 0.880399
206 1 0.0214236 0.867389 0.989233
830 2 0.0214305 0.767515 0.934943
210 3 0.0457575 0.847781 0.976305
832 4 0.0526424 0.781146 0.925997
1488 4 0.0807274 0.769074 0.93163
1487 2 0.110925 0.758539 0.949563
80 3 0.104913 0.865288 0.989412
736 4 0.14569 0.810345 0.875759
798 4 0.126077 0.816466 0.89756
1489 4 0.141122 0.748004 0.967495
734 2 0.173914 0.826971 0.888427
735 4 0.202137 0.843596 0.901095
795 4 0.214039 0.835176 0.927227
973 4 0.149032 0.760518 0.991598
1285 4 0.319104 0.760451 0.880385
794 2 0.246048 0.819017 0.936493
1099 4 0.291957 0.758773 0.974768
796 4 0.278057 0.802857 0.945759
941 2 0.314089 0.772144 0.935759
942 4 0.3329 0.758053 0.907757
943 4 0.295277 0.786236 0.963761
627 4 0.471559 0.849816 0.995903
531 4 0.498644 0.842038 0.00862198
209 3 0.0102509 0.890174 0.966672
1525 4 0.11814 0.938949 0.994941
1524 4 0.124492 0.977275 0.934515
1523 2 0.121316 0.958112 0.964728
853 4 0.160268 0.889065 0.956807
851 2 0.194897 0.894574 0.963452
78 3 0.146735 0.896503 0.983248
852 4 0.229525 0.900082 0.970097
1113 4 0.339733 0.985731 0.919249
292 4 0.248233 0.91907 0.981232
291 4 0.31673 0.936899 0.985659
290 2 0.282482 0.927985 0.983446
982 4 0.33812 0.953283 0.97681
131 1 0.465469 0.968596 0.959879
133 3 0.47865 0.962104 0.990142
980 2 0.371808 0.963501 0.973272
1444 4 0.500655 0.927063 0.944605
135 3 0.432598 0.970049 0.961578
132 3 0.475969 0.944274 0.939101
981 4 0.405496 0.973719 0.969735
18 3 0.596863 0.0458178 0.0629519
16 1 0.609485 0.0187359 0.0464774
17 3 0.612712 0.993199 0.067608
20 3 0.589191 0.0114635 0.0221209
1293 4 0.585107 0.99421 0.076087
19 3 0.639691 0.0242705 0.0340943
573 4 0.664748 0.0305854 0.0199042
572 2 0.698442 0.0224467 0.0316078
574 4 0.732136 0.014308 0.0433113
1384 4 0.761576 0.0138656 0.043024
1382 2 0.794888 0.0253966 0.0411903
1383 4 0.828201 0.0369275 0.0393567
945 4 0.853136 0.0474966 0.035903
944 2 0.88144 0.0486655 0.0581141
1146 4 0.794423 0.103181 0.119897
671 2 0.840844 0.123352 0.12264
673 4 0.874496 0.122813 0.109592
946 4 0.909743 0.0498344 0.0803252
754 4 0.929683 0.0442414 0.102832
752 2 0.965096 0.0345564 0.1025
753 4 0.000509873 0.0248715 0.102167
1083 4 0.90007 0.109296 0.0990871
1064 2 0.533709 0.245032 0.022308
1066 4 0.55774 0.250425 0.0482996
1304 2 0.598475 0.246898 0.0929495
1000 4 0.586824 0.12785 0.0130625
1306 4 0.627874 0.236471 0.11218
988 4 0.835505 0.152492 0.0163233
592 4 0.856513 0.169534 0.0059266
1082 2 0.931054 0.121434 0.0872649
590 2 0.882744 0.182077 0.0261328
1084 4 0.962038 0.133571 0.0754427
591 4 0.908975 0.19462 0.046339
45 3 0.927044 0.252194 0.096439
44 3 0.926343 0.215546 0.0564991
41 1 0.937878 0.244561 0.0661983
42 3 0.971126 0.241434 0.0663683
230 3 0.988233 0.144098 0.0685629
229 3 0.985503 0.198173 0.0636972
227 3 0.987891 0.16656 0.0196624
226 1 0.99835 0.169171 0.0509775
1305 4 0.569077 0.257325 0.0737193
645 4 0.647514 0.370268 0.0318624
644 2 0.668736 0.371596 0.00280433
695 2 0.752455 0.374218 0.117367
1123 4 0.996978 0.23965 0.0821385
43 3 0.927722 0.268849 0.0447861
1140 4 0.6056 0.457991 0.0494828
1139 2 0.616026 0.423259 0.043988
311 2 0.518013 0.50415 0.102859
1350 4 0.612169 0.471332 0.0746734
1141 4 0.626453 0.388527 0.0384932
1349 2 0.629946 0.498732 0.087394
696 4 0.746855 0.387422 0.0841368
638 2 0.760054 0.397608 0.026802
639 4 0.76352 0.395687 0.0626579
414 4 0.879099 0.386215 0.0115319
491 2 0.880587 0.438624 0.0263946
492 4 0.879336 0.473732 0.0182493
493 4 0.881839 0.403515 0.03454
1147 4 0.770133 0.0398891 0.139162
1145 2 0.782278 0.0715352 0.129529
672 4 0.807192 0.123892 0.135689
1164 4 0.795866 0.998858 0.235453
936 4 0.987574 0.00260564 0.223224
935 2 0.992582 0.0241024 0.195012
937 4 0.997589 0.0455992 0.166799
1003 4 0.497191 0.208699 0.143304
957 4 0.507931 0.277161 0.233787
697 4 0.758056 0.361013 0.150597
623 2 0.872906 0.316239 0.223318
1072 4 0.897474 0.350633 0.175571
624 4 0.890741 0.335299 0.199449
1423 4 0.538674 0.427612 0.169158
715 4 0.679211 0.431288 0.142665
713 2 0.710186 0.447581 0.140768
676 4 0.721863 0.446527 0.246325
714 4 0.741161 0.463875 0.13887
674 2 0.694114 0.471516 0.246435
1424 2 0.615442 0.492187 0.248483
1426 4 0.647865 0.477316 0.258203
675 4 0.666365 0.496505 0.246546
1201 4 0.748896 0.44946 0.244025
405 4 0.766274 0.453159 0.127926
404 2 0.798365 0.462078 0.140198
1199 2 0.775473 0.471437 0.238826
406 4 0.830456 0.470996 0.15247
901 4 0.858738 0.469694 0.147303
1200 4 0.80205 0.493414 0.233626
154 3 0.00180269 0.433859 0.245005
1070 2 0.891864 0.384498 0.18753
1071 4 0.886253 0.418364 0.19949
899 2 0.891025 0.48272 0.141949
153 3 0.00876825 0.392716 0.209016
1299 4 0.872974 0.405981 0.220678
833 2 0.498387 0.0467991 0.255476
963 4 0.560425 0.0253857 0.270519
834 4 0.532333 0.0340931 0.262282
710 2 0.527049 0.0977419 0.352524
712 4 0.562778 0.0993267 0.34886