ITEM: TIMESTEP
763500
ITEM: NUMBER OF ATOMS
4590
ITEM: BOX BOUNDS xy xz yz pp pp pp
-9.9985700000000008e+00 1.5397797800000006e+01 5.3992278000000056e+00
-9.9985700000000008e+00 9.9985700000000008e+00 0.0000000000000000e+00
-9.9985700000000008e+00 9.9985700000000008e+00 0.0000000000000000e+00
ITEM: ATOMS id type xs ys zs
4233 4 0.0414753 0.0976842 0.0151271
2856 4 0.114191 0.166579 0.0513425
573 4 0.130772 0.151404 0.0553979
571 2 0.149806 0.152852 0.0710756
1783 2 0.208987 0.159277 0.0784833
3048 4 0.320226 0.140374 0.0204243
3046 2 0.333151 0.157209 0.0143762
2640 4 0.405684 0.144119 0.0226978
1404 4 0.410619 0.0960617 0.0740627
2714 4 0.394995 0.161146 0.031123
2638 2 0.42954 0.134114 0.0138896
2639 4 0.453395 0.124109 0.00508142
932 4 0.465761 0.131076 0.017916
931 2 0.486277 0.129863 0.00321464
2855 4 0.0629481 0.172492 0.0523189
2854 2 0.0885695 0.169535 0.0518307
832 2 0.0236205 0.222701 0.0732199
834 4 0.0487045 0.218641 0.0674512
2472 4 0.0683311 0.219667 0.0691306
2470 2 0.0883887 0.229819 0.0706687
2807 4 0.048413 0.203227 0.00342156
2471 4 0.108446 0.239971 0.0722068
2858 4 0.12592 0.242787 0.0777927
563 4 0.213845 0.231625 0.0193155
562 2 0.225853 0.226017 0.0413065
1784 4 0.228546 0.168575 0.0712952
911 4 0.238917 0.239825 0.0659741
564 4 0.237861 0.220409 0.0632976
461 4 0.247555 0.170173 0.076711
3047 4 0.346075 0.174043 0.00832808
460 2 0.271489 0.171301 0.0706766
462 4 0.295423 0.172428 0.0646422
624 4 0.313218 0.177587 0.0717648
622 2 0.329704 0.192 0.0702715
623 4 0.34619 0.206412 0.0687781
2820 4 0.353629 0.220914 0.0743986
2818 2 0.371459 0.233243 0.0794483
2713 2 0.396832 0.177294 0.0491793
2715 4 0.398669 0.193442 0.0672356
476 4 0.416591 0.184577 0.0779612
1253 4 0.359689 0.183432 0.00208741
865 2 0.435014 0.217785 0.00274258
3343 2 0.424318 0.236316 0.0801937
867 4 0.456244 0.224265 0.0101668
770 4 0.469587 0.235314 0.00910246
769 2 0.492401 0.240811 0.0112362
2902 2 0.0667925 0.309981 0.0352428
2903 4 0.0584559 0.320906 0.0134073
2520 4 0.0645904 0.287836 0.0663824
2904 4 0.0751292 0.299056 0.0570784
2857 2 0.145188 0.252359 0.0703053
2859 4 0.164455 0.261931 0.0628179
2567 4 0.184974 0.264529 0.0667087
2566 2 0.205693 0.273798 0.0668863
2568 4 0.226412 0.283068 0.067064
13 3 0.246833 0.279675 0.069944
11 1 0.270819 0.273642 0.0684832
15 3 0.277606 0.281286 0.0489412
3259 2 0.294257 0.27103 0.0178924
2912 4 0.313457 0.2838 0.0472539
3261 4 0.297804 0.274296 0.042283
12 3 0.278577 0.250699 0.0690465
2911 2 0.333981 0.293349 0.047811
2913 4 0.354505 0.302898 0.0483681
330 4 0.372441 0.307095 0.0433545
3344 4 0.402538 0.254269 0.0761749
328 2 0.394265 0.303864 0.0300976
329 4 0.41609 0.300633 0.0168408
4188 4 0.0225032 0.382489 0.0430999
537 4 0.0151232 0.38412 0.061287
4186 2 0.0291867 0.398688 0.0275905
1117 2 0.218539 0.377414 0.0139887
1119 4 0.23896 0.377267 0.0284716
2652 4 0.498262 0.395517 0.0813
4187 4 0.0358703 0.414886 0.0120812
2891 4 0.284306 0.439459 0.0328997
2890 2 0.280918 0.444899 0.0572287
2892 4 0.277531 0.45034 0.0815578
318 4 0.0111247 0.00290649 0.149493
3906 4 0.138406 0.00962025 0.153862
3904 2 0.114591 0.00739168 0.15877
3905 4 0.0907771 0.00516312 0.163678
2781 4 0.15675 0.0143047 0.155905
2553 4 0.283279 0.0555042 0.147247
2551 2 0.298695 0.0604299 0.129344
3957 4 0.309984 0.997743 0.13345
2552 4 0.314112 0.0653555 0.111442
1533 4 0.326321 0.0788408 0.106679
1531 2 0.350411 0.0800317 0.111955
3955 2 0.330496 0.00548861 0.126081
3956 4 0.351007 0.0132338 0.118711
1827 4 0.385497 0.00120552 0.0845057
2768 4 0.383782 0.0329565 0.141514
1532 4 0.374501 0.0812226 0.117232
2767 2 0.408688 0.0332507 0.142397
2769 4 0.433595 0.033545 0.143281
2523 4 0.446926 0.0427197 0.136021
1403 4 0.394027 0.0797485 0.116415
2521 2 0.468881 0.0497733 0.13354
2522 4 0.490836 0.0568269 0.131059
572 4 0.168839 0.154299 0.0867532
1785 4 0.189429 0.149978 0.0856714
3502 2 0.189392 0.162975 0.151301
3503 4 0.21007 0.146981 0.141215
732 4 0.227096 0.148523 0.152596
730 2 0.247481 0.158282 0.152864
1402 2 0.402323 0.0879051 0.0952388
16 1 0.417869 0.164624 0.162022
3521 4 0.460262 0.113778 0.0955168
364 2 0.478619 0.149185 0.161042
3522 4 0.486358 0.131957 0.130287
3520 2 0.47331 0.122868 0.112902
366 4 0.496631 0.133603 0.147193
765 4 0.121591 0.186485 0.117538
763 2 0.134405 0.186172 0.139056
3504 4 0.168714 0.178968 0.161387
764 4 0.147219 0.18586 0.160574
910 2 0.248286 0.235151 0.0891601
731 4 0.267865 0.168041 0.153133
912 4 0.257656 0.230476 0.112346
24 3 0.281546 0.176841 0.161309
2819 4 0.389289 0.245571 0.084498
17 3 0.415696 0.171051 0.139939
475 2 0.410708 0.185041 0.102288
477 4 0.404824 0.185504 0.126615
3345 4 0.446098 0.218363 0.0842125
3941 4 0.48996 0.188126 0.0939764
2518 2 0.0491252 0.281482 0.0834012
2519 4 0.03366 0.275128 0.10042
558 4 0.171631 0.2923 0.163557
556 2 0.167736 0.297917 0.139309
557 4 0.163841 0.303534 0.115061
14 3 0.280214 0.282406 0.0864636
2717 4 0.286802 0.291435 0.100985
2716 2 0.311242 0.290204 0.107501
2718 4 0.335683 0.288973 0.114018
2673 4 0.34558 0.295088 0.12858
2671 2 0.366649 0.30291 0.123419
2672 4 0.387718 0.310732 0.118258
429 4 0.432834 0.28118 0.150869
427 2 0.448576 0.293641 0.161107
2583 4 0.0620988 0.386991 0.134439
2581 2 0.0799285 0.399018 0.140464
2582 4 0.0977581 0.411045 0.146489
3406 2 0.214108 0.362128 0.161524
3407 4 0.234444 0.366618 0.149662
3608 4 0.245743 0.354699 0.135013
3607 2 0.26614 0.362569 0.142497
3609 4 0.286537 0.37044 0.14998
660 4 0.2969 0.354938 0.162806
658 2 0.322231 0.353045 0.165168
2705 4 0.406851 0.351478 0.152624
387 4 0.415228 0.352552 0.134616
385 2 0.428293 0.366791 0.122932
386 4 0.441358 0.38103 0.111249
2650 2 0.47854 0.387643 0.0905641
2651 4 0.458817 0.379769 0.0998283
2813 4 0.100735 0.421609 0.130715
2812 2 0.122227 0.427955 0.123898
2814 4 0.143718 0.434301 0.117081
362 4 0.164895 0.429293 0.119196
361 2 0.188525 0.426493 0.109495
363 4 0.212155 0.423692 0.0997933
2357 4 0.232973 0.419188 0.103462
2356 2 0.250742 0.431696 0.108109
2358 4 0.268511 0.444203 0.112757
4310 4 0.333004 0.498875 0.115548
2689 2 0.494527 0.456116 0.150194
3661 2 0.0374545 0.0205096 0.177643
3663 4 0.0524074 0.0313886 0.19131
4508 4 0.0585884 0.0391498 0.208281
3662 4 0.0225017 0.00963059 0.163977
4507 2 0.0692268 0.0553024 0.220084
4509 4 0.0798652 0.0714549 0.231887
2547 4 0.0968872 0.0739792 0.222933
2545 2 0.120994 0.0675711 0.213801
2546 4 0.145101 0.0611629 0.204668
2779 2 0.156233 0.0298617 0.175129
2780 4 0.155716 0.0454188 0.194354
2945 4 0.343383 0.0419482 0.16825
2944 2 0.356741 0.0363007 0.189539
2946 4 0.3701 0.0306531 0.210828
350 4 0.386017 0.0315684 0.220409
349 2 0.389021 0.0360889 0.244635
400 2 0.0364687 0.164987 0.238234
402 4 0.0542472 0.143026 0.239819
2670 4 0.296854 0.134005 0.189969
22 3 0.302014 0.150962 0.184998
2668 2 0.315858 0.114264 0.196932
2669 4 0.334862 0.0945237 0.203896
2634 4 0.340061 0.0910808 0.223607
2632 2 0.349088 0.0926882 0.246695
744 4 0.335771 0.168354 0.172238
18 3 0.414691 0.143286 0.163802
365 4 0.460607 0.164767 0.174891
19 3 0.439863 0.164639 0.169403
2597 4 0.999836 0.200356 0.234137
401 4 0.0186902 0.186947 0.236648
2844 4 0.168069 0.22389 0.210218
2842 2 0.153436 0.229161 0.230783
2850 4 0.173534 0.23732 0.198708
21 1 0.296801 0.173218 0.179238
25 3 0.286859 0.185814 0.197049
23 3 0.317089 0.178648 0.173265
742 2 0.358957 0.172919 0.175082
743 4 0.382143 0.177485 0.177926
20 3 0.401574 0.179272 0.174343
531 4 0.469835 0.170286 0.192714
529 2 0.485508 0.182621 0.203293
530 4 0.50118 0.194955 0.213873
2849 4 0.182598 0.274697 0.171565
2848 2 0.178066 0.256009 0.185137
2497 2 0.356352 0.294002 0.250906
2499 4 0.375045 0.300749 0.238303
2513 4 0.391189 0.297828 0.226616
428 4 0.464319 0.306103 0.171345
2512 2 0.413915 0.302546 0.221423
2514 4 0.436641 0.307263 0.216229
105 3 0.449312 0.316046 0.223888
103 3 0.478399 0.300551 0.200279
101 1 0.469628 0.318052 0.214968
104 3 0.485517 0.318027 0.231885
518 4 0.481773 0.296513 0.181524
3408 4 0.193772 0.357639 0.173386
560 4 0.235051 0.361971 0.248208
659 4 0.347562 0.351151 0.16753
2706 4 0.36174 0.359119 0.176898
1912 2 0.370954 0.363575 0.228265
1914 4 0.361874 0.383321 0.213392
1913 4 0.380034 0.343828 0.243138
2704 2 0.384295 0.355299 0.164761
443 4 0.37425 0.394774 0.211897
749 4 0.444075 0.36278 0.216188
102 3 0.465703 0.337912 0.203449
748 2 0.456887 0.377213 0.204453
750 4 0.4697 0.391645 0.192718
569 4 0.491705 0.390172 0.19286
442 2 0.359645 0.41836 0.210881
444 4 0.34504 0.441945 0.209864
1626 4 0.411796 0.497314 0.228107
738 4 0.488855 0.465838 0.233615
2690 4 0.482754 0.452966 0.171545
737 4 0.471185 0.459471 0.187962
736 2 0.48002 0.462655 0.210789
354 4 0.146783 0.0349361 0.330129
2557 2 0.367893 0.00479124 0.304177
2558 4 0.3899 0.00725206 0.293924
2559 4 0.345886 0.00233041 0.314431
351 4 0.392024 0.0406095 0.268861
3498 4 0.399873 0.0613376 0.323918
2663 4 0.377777 0.0830927 0.268759
2662 2 0.380982 0.0795639 0.293409
2664 4 0.384187 0.0760351 0.31806
2633 4 0.358116 0.0942955 0.269783
760 2 0.0031108 0.16695 0.302757
306 4 0.0124354 0.204647 0.290538
761 4 0.00663383 0.18857 0.294382
2843 4 0.138804 0.234433 0.251347
3852 4 0.130008 0.21335 0.330866
3850 2 0.152192 0.220148 0.332302
647 4 0.333885 0.186007 0.258794
2905 2 0.306951 0.241887 0.309192
2906 4 0.325665 0.241749 0.325816
2907 4 0.288236 0.242025 0.292569
646 2 0.346331 0.186038 0.280475
648 4 0.358777 0.18607 0.302156
2600 4 0.3756 0.190313 0.309313
1464 4 0.338039 0.248503 0.314427
2599 2 0.366613 0.201694 0.330777
2738 4 0.074827 0.263469 0.326624
2737 2 0.09108 0.276324 0.318202
2739 4 0.107333 0.289179 0.309781
2637 4 0.114975 0.29413 0.292062
2635 2 0.12181 0.315686 0.29144
2837 4 0.275022 0.283272 0.285697
2836 2 0.296413 0.289063 0.277649
2838 4 0.317804 0.294853 0.269601
2498 4 0.33766 0.287255 0.263509
1463 4 0.37322 0.265576 0.289407
1462 2 0.355629 0.257039 0.301917
291 4 0.422111 0.318115 0.277522
287 4 0.432989 0.304051 0.263638
286 2 0.453475 0.31288 0.268561
289 2 0.398488 0.330896 0.270112
288 4 0.47396 0.32171 0.273484
1697 4 0.481115 0.326085 0.290632
2636 4 0.128644 0.337242 0.290818
1586 4 0.134575 0.353579 0.291787
1585 2 0.155833 0.361206 0.286958
1587 4 0.177091 0.368833 0.282129
561 4 0.196511 0.360172 0.279425
559 2 0.215781 0.361071 0.263817
290 4 0.374865 0.343677 0.262702
1486 2 0.487197 0.402569 0.254307
1488 4 0.468416 0.396519 0.267415
1696 2 0.481493 0.347738 0.301476
1698 4 0.481872 0.369391 0.31232
3536 4 0.405627 0.432557 0.295321
3535 2 0.408214 0.454403 0.286608
3537 4 0.410802 0.476249 0.277895
119 3 0.391545 0.489801 0.276634
117 3 0.424113 0.499011 0.266684
3716 4 0.4787 0.476425 0.25158
3717 4 0.440059 0.469865 0.280294
3715 2 0.45938 0.473145 0.265937
5 3 0.490954 0.484668 0.262521
705 4 0.137033 0.0288118 0.345096
703 2 0.129187 0.00779068 0.345781
352 2 0.169911 0.0347181 0.33977
353 4 0.193039 0.0345002 0.349411
389 4 0.213155 0.0301306 0.355381
388 2 0.238671 0.0260696 0.358896
390 4 0.264188 0.0220086 0.362411
468 4 0.284087 0.0220163 0.365485
466 2 0.295768 0.0384888 0.375165
467 4 0.30745 0.0549613 0.384846
3496 2 0.407239 0.0643894 0.347344
3497 4 0.414605 0.0674412 0.370771
2777 4 0.421398 0.0511236 0.383465
2776 2 0.438753 0.061946 0.393308
369 4 0.45483 0.00124271 0.367557
1772 4 0.473606 0.00500788 0.371062
2778 4 0.456109 0.0727684 0.40315
1771 2 0.471544 0.00962552 0.395622
432 4 0.152184 0.107572 0.377221
954 4 0.140161 0.147698 0.41424
430 2 0.170418 0.119476 0.382068
431 4 0.188652 0.13138 0.386914
3207 4 0.144633 0.162762 0.403103
257 4 0.207754 0.129454 0.39331
256 2 0.231367 0.133426 0.393525
258 4 0.25498 0.137398 0.393739
900 4 0.275584 0.135701 0.395181
898 2 0.298724 0.140715 0.394842
899 4 0.321864 0.145729 0.394502
473 4 0.340234 0.149154 0.397058
938 4 0.407886 0.0856455 0.397788
472 2 0.356143 0.163059 0.403785
939 4 0.362119 0.117335 0.387216
937 2 0.385002 0.10149 0.392502
2910 4 0.469364 0.0845205 0.405374
2908 2 0.467004 0.10883 0.409447
2542 2 0.0721306 0.246487 0.360466
2921 4 0.0862853 0.229986 0.399361
2544 4 0.0814639 0.232759 0.380591
2920 2 0.103222 0.235985 0.415009
3851 4 0.174376 0.226945 0.333737
3205 2 0.1578 0.179671 0.408085
3888 4 0.179858 0.242548 0.337157
1212 4 0.18877 0.192678 0.404057
1210 2 0.208501 0.192073 0.388504
1211 4 0.228233 0.191467 0.372951
599 4 0.247323 0.184965 0.369692
598 2 0.26777 0.193093 0.37651
600 4 0.288218 0.20122 0.383328
347 4 0.308062 0.195257 0.387744
346 2 0.322658 0.206224 0.373721
348 4 0.337255 0.217191 0.359698
474 4 0.372051 0.176963 0.410511
2601 4 0.357626 0.213074 0.352241
1035 4 0.363906 0.240284 0.406239
803 4 0.392835 0.176946 0.412108
802 2 0.414384 0.184643 0.414881
471 4 0.380681 0.244881 0.398577
2543 4 0.0627974 0.260216 0.34034
2901 4 0.000424441 0.327995 0.338737
3058 2 0.150454 0.262073 0.415308
3060 4 0.168544 0.274496 0.411985
3886 2 0.178574 0.263736 0.349668
3887 4 0.17729 0.284924 0.36218
2685 4 0.178723 0.286716 0.419802
2683 2 0.188759 0.306296 0.417155
1151 4 0.351765 0.309643 0.358849
1150 2 0.371937 0.317674 0.366698
1033 2 0.341223 0.254214 0.414788
469 2 0.400985 0.254228 0.394493
3437 4 0.485512 0.251805 0.369835
1152 4 0.392108 0.325705 0.374547
470 4 0.42129 0.263575 0.390409
3438 4 0.441226 0.256675 0.394943
3436 2 0.463369 0.25424 0.382389
371 4 0.496127 0.25205 0.353937
3071 4 0.0169464 0.334225 0.342579
583 2 0.00724352 0.382288 0.398298
3070 2 0.0228901 0.354534 0.351643
585 4 0.0257358 0.379051 0.380853
3072 4 0.0288337 0.374843 0.360706
459 4 0.409711 0.332831 0.376703
457 2 0.432932 0.33767 0.376295
458 4 0.456152 0.34251 0.375887
1494 4 0.433296 0.412379 0.393191
1492 2 0.45676 0.401638 0.402513
452 4 0.474294 0.344673 0.383807
1493 4 0.480225 0.390897 0.411836
2877 4 0.493111 0.396989 0.398388
451 2 0.49586 0.352526 0.382222
2345 4 0.046964 0.447996 0.358823
2344 2 0.0463522 0.458928 0.381188
2346 4 0.0457405 0.46986 0.403554
1161 4 0.0544505 0.483359 0.411849
2622 4 0.172809 0.45511 0.340209
3605 4 0.141713 0.432372 0.384979
3604 2 0.147405 0.44247 0.363711
3606 4 0.153097 0.452567 0.342442
2620 2 0.194303 0.46313 0.341272
263 4 0.12367 0.487759 0.393238
2621 4 0.215796 0.47115 0.342334
1472 4 0.226318 0.461381 0.358917
1471 2 0.250924 0.453545 0.366531
1473 4 0.275529 0.445709 0.374146
1736 4 0.291283 0.453161 0.381547
1735 2 0.315672 0.454539 0.384738
1737 4 0.340061 0.455917 0.387929
308 4 0.354781 0.466058 0.392012
307 2 0.375106 0.469829 0.404479
2473 2 0.431755 0.454551 0.391846
2474 4 0.433447 0.430686 0.386093
309 4 0.395432 0.4736 0.416945
2475 4 0.430063 0.478415 0.397599
2657 4 0.120334 0.0434635 0.486979
3138 4 0.29664 0.022954 0.434537
3136 2 0.319106 0.00898102 0.443509
606 4 0.296631 0.0729561 0.504933
2333 4 0.345192 0.00233769 0.471391
2332 2 0.353381 0.0130792 0.491058
1773 4 0.469482 0.0142432 0.420182
299 4 0.46814 0.0322843 0.428984
298 2 0.482874 0.0480965 0.432726
300 4 0.497609 0.0639088 0.436469
953 4 0.0893994 0.159555 0.424145
952 2 0.11478 0.153627 0.419192
2655 4 0.262847 0.1304 0.451211
2653 2 0.250269 0.154147 0.45603
3623 4 0.412803 0.0835132 0.498051
2909 4 0.464643 0.133138 0.41352
3206 4 0.170966 0.196581 0.413067
2922 4 0.120159 0.241984 0.430656
1489 2 0.250526 0.210533 0.439213
1491 4 0.244312 0.193842 0.454434
2654 4 0.23769 0.177894 0.460849
1490 4 0.256739 0.227224 0.423992
399 4 0.263688 0.242608 0.422454
397 2 0.286864 0.247539 0.422946
891 4 0.339351 0.189478 0.481325
728 4 0.281378 0.245269 0.492873
889 2 0.357653 0.200296 0.473725
890 4 0.375956 0.211113 0.466125
695 4 0.384909 0.220237 0.4795
694 2 0.407851 0.224771 0.474959
696 4 0.430794 0.229305 0.470418
1179 4 0.444761 0.222779 0.48723
804 4 0.435933 0.192341 0.417654
513 4 0.449164 0.202334 0.425486
1177 2 0.465139 0.226769 0.499434
511 2 0.47186 0.20623 0.432272
512 4 0.494556 0.210125 0.439059
3059 4 0.132365 0.24965 0.418631
2533 2 0.113245 0.273426 0.458729
2534 4 0.114198 0.249064 0.458637
2535 4 0.112292 0.297789 0.458821
2684 4 0.198796 0.325876 0.414507
727 2 0.303901 0.251463 0.494083
398 4 0.310041 0.25247 0.423438
1034 4 0.31854 0.268144 0.423338
729 4 0.326423 0.257656 0.495292
709 2 0.366617 0.267297 0.502199
710 4 0.386858 0.276882 0.505686
711 4 0.346375 0.257713 0.498712
806 4 0.407129 0.275593 0.502136
805 2 0.429945 0.280861 0.498986
807 4 0.452762 0.28613 0.495836
3821 4 0.470055 0.288571 0.486718
4083 4 0.412725 0.332163 0.448718
3820 2 0.493206 0.293534 0.485858
2823 4 0.423363 0.338046 0.435397
4082 4 0.392017 0.335294 0.494504
4081 2 0.402371 0.333729 0.471611
2821 2 0.444874 0.345983 0.43375
3434 4 0.497808 0.351083 0.484781
3433 2 0.492584 0.350356 0.460383
2822 4 0.466385 0.353919 0.432103
3435 4 0.487359 0.349629 0.435985
540 4 0.175505 0.493083 0.424358
768 4 0.241191 0.497621 0.43852
538 2 0.200404 0.493418 0.425157
539 4 0.225302 0.493754 0.425956
766 2 0.264576 0.482289 0.44296
4485 4 0.333182 0.456086 0.483654
767 4 0.287961 0.466958 0.4474
4483 2 0.321929 0.474425 0.499437
2108 4 0.352943 0.456043 0.481817
2107 2 0.370408 0.464789 0.469343
2502 4 0.404335 0.485763 0.426677
2109 4 0.387873 0.473535 0.456869
2501 4 0.445186 0.496457 0.448434
326 4 0.447015 0.49292 0.466958
2500 2 0.42476 0.49111 0.437555
327 4 0.496788 0.483908 0.480319
325 2 0.471902 0.488414 0.473639
3158 4 0.0206409 0.0336715 0.563484
1025 4 0.0387454 0.0212036 0.556273
1024 2 0.0529093 0.0296114 0.539409
1026 4 0.0670732 0.0380193 0.522544
2658 4 0.0742122 0.0455778 0.507505
2656 2 0.0972733 0.0445207 0.497242
4284 4 0.14071 0.0530149 0.552814
4282 2 0.150447 0.0622395 0.572577
1994 4 0.288847 0.0261008 0.576004
4136 4 0.229515 0.0480415 0.577755
4137 4 0.274728 0.0132662 0.574921
4135 2 0.252122 0.0306539 0.576338
605 4 0.300012 0.0241721 0.49993
3714 4 0.221111 0.0677359 0.576453
604 2 0.298321 0.0485641 0.502431
2334 4 0.361571 0.0238207 0.510726
2931 4 0.372957 0.0305831 0.52384
2206 2 0.336298 0.080671 0.514065
2208 4 0.317872 0.0740723 0.5009
2929 2 0.39516 0.0369146 0.527485
2930 4 0.417363 0.0432461 0.53113
3104 4 0.432192 0.0472211 0.518411
3103 2 0.450478 0.0255831 0.516954
3105 4 0.468764 0.00394513 0.515497
2603 4 0.400972 0.0256901 0.581569
3412 2 0.27672 0.121268 0.568279
3414 4 0.294757 0.118318 0.550412
3031 2 0.287613 0.150329 0.522229
3033 4 0.292657 0.127645 0.532689
2207 4 0.354724 0.0872697 0.527229
3624 4 0.367677 0.0984021 0.522327
3622 2 0.39024 0.0909576 0.510189
801 4 0.19726 0.241309 0.518434
374 4 0.216948 0.242369 0.518579
373 2 0.239923 0.244526 0.510481
3032 4 0.28257 0.173014 0.511768
375 4 0.262898 0.246684 0.502383
1178 4 0.485517 0.230758 0.511637
3162 4 0.493406 0.245915 0.517963
799 2 0.193047 0.2485 0.542273
800 4 0.188834 0.25569 0.566112
499 2 0.0200709 0.410196 0.559888
501 4 0.0453402 0.403534 0.554418
3114 4 0.0622922 0.397325 0.565523
3323 4 0.288639 0.348625 0.571416
1167 4 0.269254 0.359599 0.576208
3322 2 0.310348 0.351172 0.582236
3421 2 0.335639 0.398985 0.568475
3422 4 0.336549 0.413344 0.548573
1173 4 0.403297 0.344003 0.510614
1171 2 0.423875 0.342449 0.525324
1172 4 0.444453 0.340895 0.540035
663 4 0.463461 0.338202 0.535274
661 2 0.476882 0.348232 0.519013
662 4 0.490303 0.358262 0.502751
3771 4 0.0113155 0.466996 0.566353
3769 2 0.0275614 0.480975 0.571733
2046 4 0.00198758 0.452655 0.560417
4263 4 0.0599508 0.497419 0.565245
3770 4 0.0438074 0.494955 0.577112
3511 2 0.24002 0.442438 0.566605
3513 4 0.257324 0.449822 0.552525
3512 4 0.222716 0.435053 0.580686
3447 4 0.275529 0.451818 0.548334
3445 2 0.300368 0.440641 0.543427
3446 4 0.325207 0.429465 0.53852
4484 4 0.310675 0.492765 0.515221
1188 4 0.495676 0.490259 0.567278
1186 2 0.473665 0.493606 0.580258
3271 2 0.0246864 0.0801137 0.650428
3272 4 0.00804778 0.0704922 0.663178
2257 2 0.143023 0.0485321 0.641365
2259 4 0.136159 0.057539 0.664265
1469 4 0.0994604 0.0798471 0.641398
4283 4 0.160184 0.071464 0.59234
2258 4 0.149886 0.0395253 0.618465
3712 2 0.198728 0.0717865 0.588924
3713 4 0.176344 0.0758372 0.601394
1993 2 0.310833 0.0276995 0.586962
1995 4 0.332819 0.0292983 0.59792
2604 4 0.350242 0.0321386 0.589263
2602 2 0.375607 0.0289144 0.585416
3462 4 0.417894 0.0250596 0.594076
3460 2 0.422435 0.0377596 0.614085
3461 4 0.426977 0.0504597 0.634094
3273 4 0.041325 0.0897353 0.637678
1470 4 0.0505708 0.104528 0.63098
1468 2 0.0750156 0.0921878 0.636189
3022 2 0.0821922 0.164261 0.65439
3218 4 0.0455477 0.165484 0.630182
961 2 0.252384 0.120987 0.629605
962 4 0.258377 0.117588 0.605359
963 4 0.246391 0.124385 0.653851
3413 4 0.258683 0.124218 0.586147
3237 4 0.214316 0.107706 0.658039
959 4 0.382556 0.119216 0.635255
958 2 0.407575 0.118809 0.63312
960 4 0.432594 0.118402 0.630984
1394 4 0.450001 0.121784 0.637977
1393 2 0.465885 0.136629 0.640998
1395 4 0.481769 0.151473 0.644019
1263 4 0.49546 0.162969 0.644949
3217 2 0.0225548 0.18149 0.634696
3219 4 0.999562 0.197495 0.63921
3023 4 0.0587312 0.16626 0.644603
810 4 0.119317 0.173094 0.662133
808 2 0.137288 0.182356 0.651163
809 4 0.155259 0.191617 0.640193
3143 4 0.188656 0.200715 0.656959
1523 4 0.195794 0.212771 0.642975
1522 2 0.206971 0.231728 0.64243
3142 2 0.205563 0.181378 0.66767
3011 4 0.321378 0.175035 0.669174
2916 4 0.346683 0.199281 0.609883
1283 4 0.403569 0.170686 0.621069
1282 2 0.380238 0.177322 0.610241
2914 2 0.340203 0.222747 0.618515
1284 4 0.356908 0.183958 0.599414
2915 4 0.333723 0.246212 0.627147
864 4 0.351682 0.245718 0.638094
3097 2 0.439481 0.237853 0.66313
3099 4 0.452742 0.242595 0.64335
669 4 0.465643 0.248245 0.631188
2120 4 0.0769914 0.304016 0.601956
2119 2 0.0891811 0.280354 0.59633
2121 4 0.101371 0.256692 0.590703
3380 4 0.184293 0.254974 0.585432
1524 4 0.218148 0.250684 0.641884
3379 2 0.186769 0.27262 0.6016
3381 4 0.189245 0.290265 0.617768
816 4 0.188618 0.296371 0.636252
814 2 0.213643 0.292692 0.642096
815 4 0.238667 0.289014 0.64794
1136 4 0.25702 0.29059 0.644074
1135 2 0.280633 0.292879 0.649802
1137 4 0.304245 0.295168 0.65553
862 2 0.336209 0.264254 0.651209
667 2 0.481167 0.258554 0.617632
668 4 0.496691 0.268863 0.604076
3370 2 0.00736231 0.397229 0.630597
1007 4 0.0614138 0.350572 0.635047
10 3 0.0573668 0.405225 0.621757
3112 2 0.0659853 0.393051 0.590028
3113 4 0.0696784 0.388777 0.614532
1006 2 0.0816556 0.359308 0.64122
4315 2 0.103015 0.409279 0.653802
4317 4 0.128441 0.407468 0.653722
796 2 0.140326 0.358434 0.650675
798 4 0.117144 0.361915 0.661553
1008 4 0.101897 0.368044 0.647392
929 4 0.134287 0.416185 0.636727
797 4 0.163508 0.354952 0.639796
1165 2 0.253112 0.353818 0.592891
1166 4 0.236969 0.348036 0.609575
3324 4 0.332057 0.35372 0.593057
3330 4 0.315196 0.374108 0.643678
3328 2 0.329255 0.379318 0.624735
3329 4 0.343315 0.384527 0.605792
3423 4 0.334729 0.384627 0.588377
3371 4 0.0194295 0.415527 0.629547
8 3 0.0260113 0.431783 0.633044
2215 2 0.00478637 0.480016 0.662132
6 1 0.049969 0.424257 0.634058
4316 4 0.077588 0.411089 0.653882
9 3 0.0599214 0.440617 0.626042
7 3 0.0564971 0.419782 0.655986
3353 4 0.0697827 0.450023 0.613586
3352 2 0.0875526 0.460755 0.622689
3354 4 0.105322 0.471487 0.631793
928 2 0.14774 0.422947 0.618125
4131 4 0.127095 0.469859 0.627855
4129 2 0.125507 0.491981 0.63865
3239 4 0.179755 0.426292 0.60633
930 4 0.161193 0.429708 0.599523
3238 2 0.204629 0.423035 0.600101
3240 4 0.229504 0.419777 0.593871
2039 4 0.373661 0.459721 0.657432
2038 2 0.384628 0.475759 0.645857
2040 4 0.395594 0.491798 0.634283
1815 4 0.414136 0.496074 0.637797
1187 4 0.451654 0.496954 0.593238
841 2 0.0426832 0.011093 0.737791
1133 4 0.0411886 0.0799373 0.740777
842 4 0.067893 0.00879574 0.733884
2458 2 0.0162661 0.078427 0.705289
2460 4 0.00586274 0.0748783 0.6833
843 4 0.0174733 0.0133902 0.741697
2375 4 0.0865374 0.0119561 0.739268
1132 2 0.0669838 0.0745307 0.738847
2374 2 0.11044 0.0135707 0.733769
1134 4 0.0927791 0.0691241 0.736917
3377 4 0.0971768 0.0768169 0.719157
2376 4 0.134342 0.0151854 0.72827
3376 2 0.111395 0.0734375 0.69826
3378 4 0.125614 0.0700581 0.677362
1128 4 0.15008 0.0241017 0.726305
1126 2 0.169476 0.0335653 0.733636
918 4 0.207908 0.0377036 0.734126
1127 4 0.188873 0.0430288 0.740967
916 2 0.226662 0.0484643 0.740473
3234 4 0.262848 0.043331 0.748056
917 4 0.245416 0.0592251 0.746821
3232 2 0.285981 0.0483555 0.748453
3087 4 0.357448 0.00452816 0.747273
3130 2 0.348688 0.0647168 0.742519
3131 4 0.371734 0.0661117 0.73388
2256 4 0.382535 0.0733804 0.720266
2254 2 0.400392 0.0779765 0.704795
1295 4 0.480402 0.0196581 0.739332
1294 2 0.501037 0.0289424 0.737477
2459 4 0.0266694 0.0819757 0.727277
2321 4 0.0136742 0.167358 0.731161
3024 4 0.105653 0.162263 0.664178
976 2 0.160448 0.110125 0.723878
978 4 0.165588 0.0976913 0.702258
3235 2 0.193833 0.106519 0.671859
3236 4 0.173351 0.105332 0.685679
977 4 0.155309 0.122558 0.745498
3016 2 0.254912 0.149269 0.690552
3018 4 0.231767 0.144454 0.68845
3144 4 0.22247 0.162042 0.678381
3010 2 0.299875 0.167209 0.671666
3017 4 0.278058 0.154084 0.692654
3012 4 0.278372 0.159383 0.674157
2255 4 0.418248 0.0825727 0.689324
1079 4 0.481684 0.16566 0.718502
3117 4 0.0106492 0.243838 0.675449
3294 4 0.0331496 0.166815 0.736936
3292 2 0.0578406 0.16649 0.741381
3293 4 0.0825316 0.166165 0.745827
3415 2 0.219072 0.195008 0.743067
3417 4 0.221195 0.198394 0.71848
3244 2 0.274415 0.19608 0.718912
3246 4 0.285927 0.182651 0.699351
3245 4 0.262904 0.209509 0.738474
4078 2 0.35313 0.19975 0.748069
4079 4 0.371111 0.208841 0.736889
1308 4 0.382339 0.205806 0.71973
1306 2 0.395409 0.215275 0.702662
1307 4 0.408478 0.224745 0.685594
3098 4 0.426219 0.233111 0.682909
3452 4 0.0194408 0.258247 0.667067
3451 2 0.0334168 0.270169 0.680757
3453 4 0.0473929 0.282091 0.694446
3108 4 0.0442652 0.301864 0.699122
3106 2 0.0563708 0.300584 0.721151
3107 4 0.0684764 0.299305 0.743179
3249 4 0.290093 0.278581 0.706541
3247 2 0.308817 0.283606 0.720565
863 4 0.320737 0.282791 0.664324
3248 4 0.327542 0.288632 0.734589
1272 4 0.345599 0.295084 0.729693
1270 2 0.369366 0.298634 0.72858
1271 4 0.393132 0.302184 0.727467
894 4 0.410327 0.307835 0.723895
892 2 0.4325 0.313423 0.729652
893 4 0.454673 0.319011 0.735409
3077 4 0.471993 0.321076 0.746069
3076 2 0.494151 0.327954 0.747147
2216 4 0.0206184 0.482254 0.680841
3075 4 0.0389052 0.469515 0.685097
3073 2 0.0598325 0.475834 0.693639
3074 4 0.0807599 0.482153 0.702181
3653 4 0.102031 0.477321 0.70042
2128 2 0.202634 0.435488 0.747299
3176 4 0.232738 0.45853 0.741106
2130 4 0.224386 0.443023 0.74568
3175 2 0.251574 0.470357 0.741342
3223 2 0.310937 0.466128 0.736153
3224 4 0.334575 0.464201 0.726823
3225 4 0.287298 0.468055 0.745482
3177 4 0.270409 0.482183 0.741578
4200 4 0.378349 0.501181 0.706666
4199 4 0.350989 0.468832 0.718976
1937 4 0.38917 0.44745 0.724159
1936 2 0.409841 0.442165 0.739224
4198 2 0.364669 0.485006 0.712821
2014 2 0.498757 0.447313 0.691959
2015 4 0.49773 0.453982 0.667873
2999 4 0.0285209 0.0671428 0.818924
129 3 0.0139775 0.0680897 0.832436
3020 4 0.125211 0.0204426 0.811827
3019 2 0.14668 0.0248725 0.802243
3485 4 0.104932 0.020048 0.81142
3484 2 0.103885 0.00105312 0.826461
3021 4 0.168149 0.0293024 0.79266
3053 4 0.187495 0.0235621 0.797614
3052 2 0.211731 0.0122129 0.80455
3054 4 0.235968 0.000863633 0.811486
1049 4 0.240742 0.0176851 0.816422
1048 2 0.262732 0.0246136 0.813622
1050 4 0.284722 0.0315422 0.810822
3233 4 0.309115 0.0533799 0.74885
3132 4 0.325642 0.063322 0.751158
868 2 0.407278 0.0222359 0.798038
870 4 0.412929 0.0296655 0.775425
689 4 0.43081 0.0334243 0.769796
869 4 0.401627 0.0148063 0.820652
688 2 0.449501 0.043303 0.778249
2263 2 0.497991 0.0719151 0.7918
690 4 0.468191 0.0531816 0.786702
2265 4 0.474275 0.0700882 0.785824
2998 2 0.0123773 0.0827034 0.803418
4354 2 0.117499 0.136546 0.756518
845 4 0.0833714 0.149129 0.811153
844 2 0.105663 0.155426 0.808003
4355 4 0.0952748 0.154528 0.756855
4356 4 0.139724 0.118564 0.75618
846 4 0.127955 0.161722 0.804853
3386 4 0.229593 0.155375 0.797066
3385 2 0.253711 0.157836 0.794831
3387 4 0.277828 0.160296 0.792597
1196 4 0.296676 0.161885 0.785959
3063 4 0.473039 0.121406 0.813147
3061 2 0.469947 0.141805 0.827403
4140 4 0.14863 0.161079 0.802589
4138 2 0.164078 0.176292 0.805961
4139 4 0.179526 0.191504 0.809333
902 4 0.198488 0.196826 0.807539
901 2 0.216685 0.209424 0.807667
3416 4 0.216949 0.191621 0.767653
903 4 0.234881 0.222021 0.807795
57 3 0.25447 0.223657 0.801556
56 1 0.277344 0.221159 0.807044
60 3 0.288377 0.198971 0.807988
1140 4 0.282585 0.183071 0.816272
58 3 0.287491 0.231539 0.790827
1195 2 0.305804 0.179825 0.77556
4080 4 0.33515 0.19066 0.75925
1094 4 0.305659 0.235041 0.789279
1197 4 0.314932 0.197765 0.765161
59 3 0.278456 0.231022 0.827705
1093 2 0.330132 0.236234 0.786281
1095 4 0.354604 0.237427 0.783282
3008 4 0.371864 0.236923 0.772408
3007 2 0.394725 0.241244 0.767008
3009 4 0.417587 0.245565 0.761608
2985 4 0.414316 0.24064 0.824852
4250 4 0.0708785 0.302876 0.763471
3241 2 0.019138 0.308791 0.815519
3243 4 0.0358527 0.30769 0.834345
3242 4 0.00242342 0.309892 0.796692
3188 4 0.0557502 0.309809 0.831067
1028 4 0.0714936 0.322192 0.766398
4249 2 0.0942648 0.286665 0.762457
2981 4 0.10116 0.30396 0.818043
2980 2 0.123985 0.299512 0.806304
4251 4 0.117651 0.270455 0.761443
2982 4 0.14681 0.295063 0.794566
897 4 0.156617 0.299167 0.811189
895 2 0.179942 0.290642 0.821703
2001 4 0.223748 0.282054 0.825857
1999 2 0.247451 0.285143 0.822173
2000 4 0.271155 0.288231 0.81849
1130 4 0.314345 0.293431 0.750399
396 4 0.288179 0.29347 0.82117
1129 2 0.329968 0.29885 0.76783
1131 4 0.345592 0.304269 0.785262
1040 4 0.361224 0.289483 0.778442
1039 2 0.38357 0.294256 0.785061
837 4 0.348564 0.288779 0.835547
1043 4 0.436943 0.250192 0.762216
1041 4 0.405916 0.299029 0.791679
947 4 0.424517 0.300314 0.792652
946 2 0.423387 0.319262 0.808471
1042 2 0.460234 0.254565 0.759531
1044 4 0.483525 0.258938 0.756845
1226 4 0.497791 0.263991 0.766156
3040 2 0.0235565 0.39658 0.812842
3041 4 0.0435017 0.399963 0.799476
3042 4 0.00361135 0.393198 0.826209
1027 2 0.0829131 0.336625 0.779898
3491 4 0.0539978 0.404456 0.782282
1029 4 0.0943327 0.351059 0.793399
3490 2 0.0760083 0.406457 0.792896
3492 4 0.0980189 0.408458 0.803509
1097 4 0.108484 0.362394 0.792598