ITEM: TIMESTEP
676500
ITEM: NUMBER OF ATOMS
4590
ITEM: BOX BOUNDS xy xz yz pp pp pp
-1.9397225800000001e+01 9.9985700000000008e+00 -9.3986558000000002e+00
-9.9985700000000008e+00 9.9985700000000008e+00 0.0000000000000000e+00
-9.9985700000000008e+00 9.9985700000000008e+00 0.0000000000000000e+00
ITEM: ATOMS id type xs ys zs
4232 4 0.997638 0.074513 0.0139006
2948 4 0.0336797 0.02282 0.0518791
2947 2 0.0195336 0.00139307 0.0641045
1661 4 0.191956 0.00122011 0.0121251
1660 2 0.218778 0.00899255 0.0174132
1662 4 0.2456 0.016765 0.0227013
1784 4 0.000271129 0.169097 0.0675558
3048 4 0.109598 0.139339 0.0217251
3046 2 0.133065 0.145675 0.00887124
3047 4 0.156533 0.152011 0.996017
933 4 0.302017 0.135054 0.0217931
931 2 0.32219 0.14505 0.00488713
1402 2 0.312081 0.114078 0.0733768
1404 4 0.322631 0.109863 0.0521551
3361 2 0.416596 0.165069 0.0208824
3362 4 0.428513 0.153106 0.00767676
564 4 0.00970019 0.228727 0.0560701
911 4 0.00161657 0.22965 0.0744125
461 4 0.0232275 0.178737 0.0705117
460 2 0.0502008 0.1929 0.073953
462 4 0.077174 0.207063 0.0773943
866 4 0.110232 0.225221 0.0159319
865 2 0.134607 0.232545 0.0274804
867 4 0.158982 0.239869 0.0390289
770 4 0.178319 0.237255 0.0413729
769 2 0.197519 0.236446 0.0258438
3083 4 0.239116 0.245101 0.0116556
771 4 0.216719 0.235638 0.0103148
2640 4 0.230212 0.170703 0.0172893
2714 4 0.227284 0.175767 0.0354308
2713 2 0.246066 0.190088 0.0520102
2715 4 0.264847 0.20441 0.0685896
476 4 0.258522 0.186472 0.0783364
3100 2 0.389649 0.17608 0.0674936
3101 4 0.401454 0.166148 0.0515179
3363 4 0.404679 0.177032 0.034088
3988 2 0.420453 0.43149 0.425673
3261 4 0.0176535 0.294889 0.0280276
15 3 0.999724 0.284343 0.0564075
2912 4 0.0379927 0.305489 0.0342096
2911 2 0.0645437 0.311084 0.0388637
2913 4 0.0910947 0.316679 0.0435179
330 4 0.110088 0.316846 0.0387265
328 2 0.127752 0.31147 0.0249932
329 4 0.145417 0.306094 0.0112599
324 4 0.279362 0.321768 0.994966
3345 4 0.257394 0.284717 0.076658
273 4 0.316375 0.308691 0.0469519
271 2 0.337565 0.303723 0.0538169
322 2 0.290325 0.31509 0.0145034
323 4 0.301288 0.308411 0.0340408
272 4 0.358754 0.298756 0.0606819
2094 4 0.377048 0.29884 0.0700344
2092 2 0.3993 0.317759 0.0794573
2805 4 0.416705 0.254187 0.0273237
2803 2 0.416882 0.266053 0.00598844
2829 4 0.475002 0.33646 0.0372099
3990 4 0.447385 0.439798 0.430767
1071 4 0.490492 0.291335 0.0421174
1069 2 0.486561 0.275563 0.0230312
1070 4 0.48263 0.259791 0.00394512
28 3 0.497141 0.317545 0.0779225
2164 2 0.00644646 0.383325 0.0211008
2165 4 0.0233622 0.380895 0.0382237
1594 2 0.147942 0.377758 0.0774491
1595 4 0.166503 0.383837 0.058966
4547 4 0.174871 0.398811 0.0453188
4546 2 0.190905 0.410707 0.0259637
546 4 0.219884 0.366532 0.0463349
544 2 0.243133 0.382633 0.0353778
545 4 0.266382 0.398734 0.0244207
2660 4 0.259525 0.352155 0.0504651
3405 4 0.287596 0.404573 0.0305984
2659 2 0.284361 0.355062 0.0423476
3403 2 0.314021 0.413222 0.0376969
3139 2 0.36482 0.364375 0.0486941
3140 4 0.371186 0.365557 0.0244041
665 4 0.3821 0.366558 0.00558428
3141 4 0.358453 0.363193 0.0729841
2661 4 0.309197 0.357969 0.0342302
625 2 0.362849 0.400638 0.998312
626 4 0.388924 0.412919 0.00619805
3404 4 0.340447 0.421871 0.0447954
1234 2 0.423944 0.402005 0.0246573
1236 4 0.444839 0.39882 0.0353168
1223 4 0.466126 0.402364 0.0374996
1222 2 0.466379 0.387114 0.0558716
1235 4 0.403049 0.40519 0.0139977
1224 4 0.466631 0.371863 0.0742437
29 3 0.492461 0.338021 0.0492781
2827 2 0.472937 0.341614 0.0131586
4548 4 0.206939 0.422604 0.00660874
3657 4 0.360816 0.426237 0.0473487
3655 2 0.388001 0.43495 0.0513685
3656 4 0.415185 0.443663 0.0553884
4532 4 0.435047 0.449513 0.0642237
2577 4 0.0843619 0.0194163 0.0858784
2779 2 0.108977 0.0718335 0.158503
2781 4 0.093576 0.0476338 0.163333
3906 4 0.0975167 0.0326989 0.158806
3904 2 0.101378 0.0147737 0.146439
912 4 0.00192279 0.240521 0.122987
2553 4 0.18893 0.0338032 0.172123
2551 2 0.206494 0.0450917 0.153482
2552 4 0.224059 0.0563802 0.134841
1533 4 0.244107 0.0679301 0.128571
1531 2 0.264214 0.0857892 0.115569
1036 2 0.249706 0.0137416 0.145988
1037 4 0.276411 0.0293879 0.148415
3957 4 0.291934 0.0252038 0.158138
3955 2 0.317152 0.0293538 0.14998
3956 4 0.342371 0.0335039 0.141823
2768 4 0.364821 0.0393452 0.143299
2767 2 0.39126 0.0433714 0.140759
2769 4 0.417698 0.0473977 0.138219
2523 4 0.424838 0.0363395 0.147371
2521 2 0.452306 0.0475848 0.144788
2522 4 0.479774 0.05883 0.142205
3503 4 0.0157833 0.165613 0.144548
732 4 0.0365606 0.168899 0.14663
730 2 0.0575074 0.163057 0.152081
731 4 0.0784541 0.157215 0.157532
24 3 0.0980939 0.15743 0.159322
21 1 0.119307 0.164591 0.172306
2780 4 0.124379 0.0960332 0.153673
18 3 0.247101 0.152011 0.146402
365 4 0.261005 0.144164 0.14989
364 2 0.286157 0.14692 0.14293
366 4 0.311309 0.149676 0.13597
1532 4 0.28432 0.103648 0.102566
1403 4 0.301531 0.118294 0.0945985
3941 4 0.330515 0.148372 0.13232
3522 4 0.31915 0.110241 0.135482
3940 2 0.349771 0.164478 0.117179
3521 4 0.338823 0.0863072 0.10431
3520 2 0.328987 0.0982741 0.119896
3992 4 0.470126 0.117891 0.147388
3991 2 0.49109 0.111497 0.144262
910 2 0.00176968 0.235085 0.0986996
624 4 0.0944893 0.218226 0.0862513
622 2 0.119121 0.2177 0.0886977
623 4 0.143752 0.217175 0.0911442
2820 4 0.159537 0.213394 0.100091
743 4 0.207635 0.174761 0.157496
742 2 0.183913 0.17701 0.155019
23 3 0.140037 0.175235 0.158973
2818 2 0.182865 0.229498 0.11093
744 4 0.16019 0.179258 0.152542
20 3 0.225496 0.170347 0.159365
17 3 0.263235 0.189548 0.145233
16 1 0.24848 0.170991 0.157415
475 2 0.257114 0.183775 0.103194
477 4 0.255706 0.181079 0.128051
2765 4 0.36205 0.245196 0.159168
3942 4 0.369026 0.180583 0.102038
2764 2 0.384669 0.241192 0.156203
3102 4 0.377845 0.186011 0.0834694
2766 4 0.407289 0.237187 0.153237
2762 4 0.459876 0.225252 0.162139
756 4 0.47281 0.216787 0.167994
11 1 0.00587241 0.286488 0.0784896
12 3 0.00563855 0.266758 0.0861154
14 3 0.0293964 0.303474 0.0813869
2717 4 0.0469482 0.300518 0.0880808
2716 2 0.0709374 0.299307 0.0926186
2718 4 0.0949267 0.298096 0.0971564
2673 4 0.118108 0.30889 0.0966009
2672 4 0.170991 0.323447 0.0835991
2671 2 0.14455 0.316168 0.0901
427 2 0.185755 0.279088 0.159464
2819 4 0.206193 0.245603 0.12177
429 4 0.188477 0.259331 0.149943
3344 4 0.226533 0.258173 0.114844
3343 2 0.241964 0.271445 0.095751
3593 4 0.351427 0.344365 0.162438
387 4 0.0564374 0.414313 0.164451
385 2 0.0673358 0.410543 0.143228
386 4 0.0782341 0.406774 0.122005
2651 4 0.0826681 0.403207 0.103409
2650 2 0.100243 0.392563 0.101948
1596 4 0.129381 0.371679 0.0959323
2652 4 0.117817 0.381919 0.100488
4366 2 0.149049 0.415314 0.15523
2783 4 0.2192 0.411862 0.11772
3882 4 0.218185 0.395934 0.126904
3880 2 0.233956 0.386313 0.137897
3881 4 0.249726 0.376692 0.148891
3801 4 0.255058 0.370824 0.132148
3799 2 0.271384 0.358944 0.134143
3800 4 0.287711 0.347064 0.136139
3592 2 0.37508 0.36077 0.152342
1760 4 0.352108 0.369891 0.089207
2951 4 0.307076 0.344935 0.139436
2950 2 0.312151 0.346051 0.163997
1761 4 0.32988 0.395483 0.115136
1759 2 0.340994 0.382687 0.102172
3594 4 0.398732 0.377174 0.142246
2093 4 0.421551 0.336678 0.0888802
495 4 0.441909 0.343792 0.0829858
493 2 0.466614 0.346061 0.090811
494 4 0.49132 0.34833 0.0986362
2689 2 0.0163282 0.449253 0.152815
2691 4 0.0357252 0.445543 0.139989
3518 4 0.0526721 0.459777 0.148801
3517 2 0.07873 0.47129 0.140656
3519 4 0.104788 0.482803 0.13251
3258 4 0.110918 0.469317 0.126923
3256 2 0.135848 0.469411 0.12935
3257 4 0.160777 0.469505 0.131776
3534 4 0.177407 0.4682 0.118878
4367 4 0.168503 0.427196 0.138152
2784 4 0.18991 0.431566 0.142743
3532 2 0.201903 0.487109 0.113978
2782 2 0.204555 0.421714 0.130232
1558 2 0.315447 0.492087 0.132591
1559 4 0.312217 0.475201 0.15042
612 4 0.408973 0.478354 0.118219
610 2 0.401679 0.467053 0.140435
611 4 0.394385 0.455752 0.162651
4533 4 0.472087 0.459718 0.10106
2563 2 0.471867 0.448349 0.139148
2564 4 0.460422 0.450032 0.117409
4531 2 0.453567 0.454615 0.0826419
2547 4 0.0650165 0.0435493 0.208658
4509 4 0.0409487 0.0317943 0.209753
4507 2 0.0151683 0.0273048 0.203063
2545 2 0.0915285 0.0491463 0.213511
2546 4 0.11804 0.0547433 0.218363
2945 4 0.297568 0.012928 0.23379
2944 2 0.322258 0.0163092 0.224843
2946 4 0.346949 0.0196903 0.215895
350 4 0.361941 0.0357597 0.208077
349 2 0.377677 0.0247463 0.19992
351 4 0.393413 0.013733 0.191762
22 3 0.120513 0.14629 0.182208
2670 4 0.224636 0.116672 0.193682
2668 2 0.227973 0.103319 0.212509
2669 4 0.23131 0.0899661 0.231336
2634 4 0.248696 0.103953 0.241214
25 3 0.118618 0.17882 0.188485
19 3 0.258832 0.172337 0.178442
531 4 0.272042 0.187493 0.191144
529 2 0.288381 0.187285 0.209985
2802 4 0.315031 0.246816 0.217499
530 4 0.30472 0.187078 0.228826
2478 4 0.3251 0.20138 0.235153
2476 2 0.345283 0.224596 0.234674
2763 4 0.412336 0.228805 0.170289
2761 2 0.436106 0.227029 0.166214
344 4 0.400919 0.176607 0.212663
343 2 0.4244 0.185287 0.225832
345 4 0.447882 0.193966 0.239001
2955 4 0.461295 0.195599 0.25505
2499 4 0.0550115 0.28849 0.249886
2514 4 0.129531 0.318801 0.234055
2512 2 0.102461 0.309649 0.238854
2513 4 0.0753909 0.300498 0.243652
103 3 0.158252 0.327058 0.194267
517 2 0.202113 0.304034 0.210459
518 4 0.19107 0.298083 0.187617
428 4 0.183033 0.298845 0.168985
105 3 0.150698 0.327712 0.231083
2936 4 0.232846 0.32278 0.23282
519 4 0.213156 0.309985 0.233302
2800 2 0.306119 0.254477 0.237745
2477 4 0.365467 0.247812 0.234194
2616 4 0.378228 0.263004 0.246858
1912 2 0.0251965 0.404852 0.216615
1914 4 0.00570216 0.408086 0.203457
287 4 0.0553267 0.348984 0.253222
749 4 0.0632764 0.374986 0.176979
1486 2 0.0788421 0.400209 0.237943
587 4 0.0607954 0.420885 0.182768
291 4 0.0395759 0.34876 0.240852
2705 4 0.0485793 0.38141 0.168391
1488 4 0.0512797 0.388821 0.239432
1913 4 0.0446909 0.401619 0.229773
2704 2 0.0210289 0.372494 0.168478
289 2 0.016654 0.352282 0.237896
4368 4 0.129596 0.403433 0.172308
568 2 0.145825 0.380477 0.198664
569 4 0.129509 0.391934 0.20346
109 3 0.136206 0.406954 0.215231
750 4 0.117229 0.392732 0.187247
748 2 0.0902526 0.383859 0.182113
620 4 0.207342 0.356608 0.207528
104 3 0.189953 0.343882 0.218665
3208 2 0.207975 0.400313 0.185685
3209 4 0.183791 0.383287 0.194256
102 3 0.163673 0.35921 0.211147
570 4 0.162142 0.369021 0.193868
101 1 0.165564 0.339328 0.2139
811 2 0.287005 0.361889 0.205718
2935 2 0.243392 0.343526 0.246752
812 4 0.266129 0.367089 0.21309
621 4 0.261969 0.379468 0.200281
619 2 0.234655 0.368038 0.203904
2952 4 0.317226 0.347166 0.188558
813 4 0.307881 0.35669 0.198346
2963 4 0.407382 0.39576 0.219865
2962 2 0.425222 0.385365 0.220663
2964 4 0.443063 0.37497 0.221461
2556 4 0.431225 0.358417 0.23322
267 4 0.404373 0.399144 0.238736
443 4 0.00884699 0.420132 0.187903
4 3 0.0097917 0.465516 0.236998
737 4 0.00800335 0.464332 0.181449
736 2 0.998793 0.460071 0.205009
1788 4 0.126495 0.45627 0.206034
588 4 0.105849 0.454867 0.205133
643 2 0.111037 0.456168 0.244474
1487 4 0.106405 0.411597 0.236455
586 2 0.0833223 0.437876 0.193951
644 4 0.0860807 0.451105 0.234994
1743 4 0.189488 0.441839 0.231265
108 3 0.167025 0.434917 0.233941
1787 4 0.179772 0.486481 0.198223
1786 2 0.153134 0.471376 0.202129
110 3 0.127218 0.426339 0.241957
106 1 0.143379 0.41784 0.235619
1741 2 0.212821 0.448685 0.244445
3210 4 0.232158 0.41734 0.177114
412 2 0.422343 0.461703 0.189134
413 4 0.396351 0.449541 0.181001
2565 4 0.483312 0.446667 0.160888
414 4 0.448335 0.473865 0.197267
2633 4 0.266025 0.0825204 0.277137
2663 4 0.258002 0.0803229 0.295924
2662 2 0.280928 0.0809431 0.30653
2664 4 0.303853 0.0815632 0.317136
3498 4 0.317414 0.0724472 0.314505
498 4 0.364364 0.00612318 0.318828
2559 4 0.365266 0.999778 0.300497
647 4 0.14224 0.142686 0.262097
646 2 0.144259 0.154633 0.283765
2632 2 0.257361 0.0932366 0.259176
1198 2 0.425835 0.161956 0.310972
1199 4 0.443663 0.155833 0.298366
1518 4 0.461787 0.161994 0.310774
1516 2 0.48734 0.163227 0.310828
2905 2 0.0835969 0.23743 0.287618
2907 4 0.057846 0.228557 0.278632
1463 4 0.159572 0.231092 0.316252
1462 2 0.134811 0.229663 0.309704
2906 4 0.109348 0.246303 0.296604
1464 4 0.110051 0.228234 0.303157
2600 4 0.158329 0.173838 0.323484
2599 2 0.164509 0.197592 0.317475
2601 4 0.170688 0.221345 0.311467
648 4 0.146277 0.16658 0.305433
1200 4 0.408006 0.16808 0.323578
792 4 0.408946 0.185626 0.326035
2953 2 0.482131 0.218202 0.258209
2497 2 0.0339353 0.294193 0.255203
2498 4 0.0128591 0.299896 0.26052
2852 4 0.240621 0.337779 0.332135
372 4 0.247496 0.251279 0.319987
260 4 0.269247 0.261221 0.317875
259 2 0.2864 0.253489 0.329422
2801 4 0.297206 0.262138 0.257992
2614 2 0.405327 0.272697 0.251656
2223 4 0.468238 0.444894 0.43206
3791 4 0.483778 0.288432 0.303594
3790 2 0.463298 0.287436 0.288638
3792 4 0.442817 0.286439 0.273681
2615 4 0.432427 0.282389 0.256453
1330 2 0.154657 0.36743 0.266792
1697 4 0.15139 0.382258 0.309779
1332 4 0.130603 0.366563 0.258712
1696 2 0.126666 0.382019 0.314184
288 4 0.108429 0.360996 0.263438
1698 4 0.101943 0.381781 0.318589
286 2 0.0818778 0.35499 0.25833
107 3 0.143443 0.402738 0.251423
269 4 0.252379 0.410177 0.268945
268 2 0.224984 0.397215 0.270771
270 4 0.197588 0.384253 0.272598
1331 4 0.178711 0.368298 0.274872
3195 4 0.283575 0.339132 0.260061
1529 4 0.303057 0.384264 0.287473
2937 4 0.253938 0.364273 0.260685
274 2 0.270828 0.366136 0.333334
1530 4 0.270423 0.406518 0.275288
276 4 0.279527 0.390916 0.334888
1528 2 0.28674 0.395391 0.281381
265 2 0.407103 0.4112 0.260443
2578 2 0.319619 0.340801 0.332614
2579 4 0.298782 0.330405 0.316408
3193 2 0.298692 0.339088 0.279962
3194 4 0.313809 0.339045 0.299863
2555 4 0.42397 0.329245 0.27332
2554 2 0.427597 0.343831 0.25327
4362 4 0.0249368 0.442518 0.256427
2 3 0.0110791 0.44724 0.26832
3 3 0.020309 0.483914 0.2702
1 1 0.00543552 0.463868 0.259864
602 4 0.068522 0.451021 0.320098
4360 2 0.0507092 0.444432 0.254736
4361 4 0.0764815 0.446345 0.253045
3542 4 0.148953 0.474552 0.269524
645 4 0.135993 0.46123 0.253954
1820 4 0.245574 0.430721 0.308751
249 4 0.264226 0.448751 0.306713
247 2 0.255644 0.459614 0.288829
248 4 0.247062 0.470477 0.270946
1742 4 0.236154 0.455531 0.257624
315 4 0.410887 0.464126 0.307907
313 2 0.424108 0.480043 0.326316
266 4 0.409833 0.423256 0.282151
596 4 0.397275 0.471862 0.301752
595 2 0.376595 0.450157 0.295098
597 4 0.355914 0.428452 0.288445
613 2 0.428098 0.431946 0.311623
615 4 0.430079 0.426113 0.287773
1182 4 0.0356497 0.996566 0.392018
703 2 0.127348 0.00492145 0.403937
352 2 0.19446 0.0154801 0.385417
354 4 0.171914 0.0126624 0.398336
705 4 0.15164 0.0036377 0.405868
390 4 0.27047 0.0217182 0.358455
388 2 0.248567 0.0171002 0.3731
939 4 0.260103 0.0744462 0.364307
389 4 0.226663 0.0124821 0.387745
353 4 0.217006 0.0182979 0.372498
2778 4 0.366421 0.0727175 0.397459
2910 4 0.381019 0.0771984 0.412328
467 4 0.34298 0.0348228 0.350016
466 2 0.317483 0.0333712 0.35272
468 4 0.291986 0.0319197 0.355424
258 4 0.0354111 0.136045 0.384788
256 2 0.00794878 0.124688 0.382196
899 4 0.111047 0.164595 0.392311
898 2 0.0834668 0.153676 0.390885
900 4 0.0558863 0.142757 0.389459
938 4 0.273313 0.121199 0.379736
937 2 0.266708 0.0978225 0.372022
2776 2 0.361855 0.0892809 0.383378
2777 4 0.357288 0.105844 0.369297
3497 4 0.350582 0.100592 0.350712
3496 2 0.333998 0.0865197 0.332608
599 4 0.0578552 0.204393 0.382803
1211 4 0.0356982 0.198093 0.3872
1210 2 0.00869909 0.187049 0.381945
346 2 0.161097 0.23043 0.399055
473 4 0.132443 0.173881 0.392341
347 4 0.134132 0.222549 0.394362
600 4 0.111407 0.216126 0.390256
598 2 0.0846312 0.210259 0.386529
803 4 0.205642 0.185543 0.406527
474 4 0.184881 0.182947 0.402217
2882 4 0.211738 0.251439 0.405129
472 2 0.158662 0.178414 0.397279
348 4 0.188062 0.238312 0.403747
804 4 0.257691 0.191647 0.413213
261 4 0.303552 0.245758 0.340969
802 2 0.231667 0.188595 0.40987
337 2 0.345332 0.24774 0.347261
339 4 0.318759 0.237778 0.340424
2528 4 0.432118 0.207443 0.388839
791 4 0.424155 0.209322 0.369883
790 2 0.416551 0.197474 0.347959
677 4 0.491508 0.194516 0.378033
2529 4 0.477518 0.19914 0.389858
2527 2 0.454818 0.203291 0.389349
457 2 0.0370636 0.291875 0.397481
459 4 0.0104341 0.28762 0.398158
471 4 0.112649 0.263556 0.405836
451 2 0.112541 0.310197 0.391733
452 4 0.0866817 0.307459 0.395457
458 4 0.0636931 0.29613 0.396805
3436 2 0.171928 0.264852 0.350693
3438 4 0.155245 0.26099 0.370421
470 4 0.162104 0.269631 0.388739
469 2 0.137377 0.266594 0.397287
2550 4 0.155938 0.329164 0.393848
453 4 0.138401 0.312935 0.388009
2881 2 0.237981 0.255631 0.40084
370 2 0.235326 0.261326 0.335442
2853 4 0.226561 0.290288 0.345442
2851 2 0.233591 0.314034 0.338789
3437 4 0.188611 0.268715 0.330964
371 4 0.223156 0.271374 0.350897
424 2 0.313724 0.27377 0.395844
426 4 0.286968 0.268423 0.398828
2883 4 0.264225 0.259822 0.39655
1194 4 0.416084 0.297946 0.379646
507 4 0.394124 0.260708 0.350017
1192 2 0.389629 0.29165 0.385434
1193 4 0.363174 0.285353 0.391221
425 4 0.34048 0.279117 0.392859
338 4 0.371905 0.257701 0.354098
4299 4 0.465105 0.265189 0.365605
3455 4 0.488925 0.317882 0.361872
506 4 0.445866 0.266739 0.358533
3454 2 0.46375 0.312146 0.371199
3456 4 0.438575 0.30641 0.380526
505 2 0.419995 0.263723 0.354275
4297 2 0.491237 0.26938 0.370483
2474 4 0.0267541 0.421782 0.418129
2875 2 0.0853412 0.378764 0.411754
1492 2 0.034108 0.384817 0.411735
2877 4 0.0583818 0.363523 0.412761
1493 4 0.041018 0.365945 0.40726
4023 4 0.170025 0.420581 0.386199
4021 2 0.148235 0.403358 0.398074
2876 4 0.112301 0.394006 0.410748
4022 4 0.126445 0.386136 0.409948
2549 4 0.208909 0.33857 0.401277
2548 2 0.182424 0.333867 0.397563
142 3 0.282165 0.349078 0.384382
141 1 0.278357 0.362063 0.400577
143 3 0.278539 0.381096 0.390609
275 4 0.262128 0.341355 0.33178
2957 4 0.230556 0.340343 0.405011
144 3 0.25564 0.349854 0.410631
3595 2 0.288843 0.414429 0.375454
3596 4 0.266594 0.404326 0.360728
2923 2 0.379198 0.360832 0.413981
2570 4 0.337615 0.330107 0.402574
2580 4 0.340457 0.351197 0.348821
2925 4 0.358582 0.342306 0.402143
2569 2 0.320605 0.340339 0.395912
2571 4 0.303594 0.350571 0.389249
4001 4 0.131366 0.499028 0.349448
603 4 0.112898 0.481026 0.346251
601 2 0.0907102 0.466023 0.333175
1756 2 0.252642 0.494406 0.355506
1758 4 0.250619 0.48849 0.379788
1819 2 0.253245 0.424605 0.330581
651 4 0.324333 0.431285 0.374554
3597 4 0.311092 0.424531 0.39018
1821 4 0.260915 0.418488 0.352412
314 4 0.437328 0.49596 0.344725
1429 2 0.43602 0.493977 0.389057
871 2 0.404425 0.434702 0.361392
1430 4 0.430919 0.494299 0.413501
873 4 0.388856 0.444858 0.371796
650 4 0.372851 0.428934 0.380269
649 2 0.348592 0.430109 0.377411
872 4 0.419994 0.424546 0.350989
614 4 0.426118 0.437779 0.335474
2657 4 0.0518202 0.0383158 0.485577
2656 2 0.032 0.0446468 0.493667
2208 4 0.222113 0.0734367 0.490169
606 4 0.201468 0.0681201 0.492801
604 2 0.187809 0.0454757 0.482636
605 4 0.174149 0.0228314 0.472471
2908 2 0.389084 0.0685117 0.432382
2909 4 0.397148 0.059825 0.452436
300 4 0.473257 0.0297353 0.492521
298 2 0.466338 0.0234927 0.468639
1773 4 0.438074 0.00569372 0.43721
299 4 0.45942 0.01725 0.444757
2654 4 0.0301624 0.148563 0.464451
1491 4 0.0269049 0.164981 0.464934
2653 2 0.055492 0.155682 0.454899
397 2 0.00880908 0.228342 0.443466
1034 4 0.0425625 0.248037 0.427618
1489 2 0.0116135 0.177893 0.463462
1490 4 0.996322 0.190806 0.461991
889 2 0.125701 0.185397 0.454877
891 4 0.100903 0.177823 0.444073
2655 4 0.0808216 0.162801 0.445347
696 4 0.210634 0.182283 0.454121
694 2 0.186659 0.182624 0.460646
695 4 0.162684 0.182964 0.467172
890 4 0.1505 0.19297 0.465682
511 2 0.304216 0.211619 0.42804
1178 4 0.279274 0.193856 0.479557
513 4 0.280376 0.201617 0.415436
1177 2 0.253332 0.188484 0.472633
1179 4 0.227389 0.183112 0.465709
1431 4 0.441121 0.493655 0.364613
576 4 0.34889 0.235088 0.443586
512 4 0.328056 0.22162 0.440643
2719 2 0.445723 0.236955 0.494799
2720 4 0.421095 0.233805 0.485886
3049 2 0.499949 0.189534 0.442913
3050 4 0.474341 0.188077 0.444287
729 4 0.0273127 0.275641 0.497411
2355 4 0.404353 0.453779 0.433976
806 4 0.109908 0.288574 0.462118
710 4 0.092191 0.275449 0.470637
1035 4 0.0929477 0.252978 0.414723
2821 2 0.0914967 0.329059 0.438547
709 2 0.0701799 0.274867 0.48298
1033 2 0.0677551 0.250507 0.421171
4081 2 0.0591094 0.323372 0.487038
2823 4 0.0652117 0.322865 0.44491
711 4 0.0481688 0.274284 0.495322
4083 4 0.059445 0.314561 0.464071
398 4 0.0242392 0.251033 0.434106
3820 2 0.208252 0.328468 0.479823
3821 4 0.182727 0.310415 0.482807
807 4 0.16205 0.310556 0.478532
805 2 0.135979 0.299565 0.470325
3127 2 0.210354 0.271867 0.439119
3128 4 0.211068 0.29114 0.452687
2958 4 0.222319 0.308958 0.443394
2956 2 0.226437 0.32465 0.424203
3129 4 0.20964 0.252594 0.425551
1221 4 0.401757 0.322056 0.43113
575 4 0.402612 0.266144 0.441243
574 2 0.375751 0.250616 0.442414
2726 4 0.47035 0.309948 0.4643
2725 2 0.445915 0.296901 0.453348
2727 4 0.421479 0.283853 0.442396
1494 4 0.027198 0.403688 0.41621
3434 4 0.162042 0.372755 0.483136
3433 2 0.144943 0.360605 0.464485
3435 4 0.127844 0.348456 0.445833
2822 4 0.117782 0.335253 0.432184
662 4 0.17036 0.390019 0.491864
982 2 0.277541 0.346884 0.484776
3696 4 0.318404 0.376798 0.417981
145 3 0.296712 0.367906 0.416098
3822 4 0.233777 0.346521 0.476838
984 4 0.251591 0.344583 0.48357
983 4 0.303491 0.349184 0.485983
2973 4 0.325227 0.357205 0.487003
3694 2 0.345145 0.392778 0.418157
3695 4 0.371886 0.408759 0.418332
2919 4 0.425332 0.39347 0.477623
1219 2 0.425846 0.336447 0.441989
2917 2 0.421312 0.384485 0.454291
2918 4 0.417291 0.3755 0.430959
2924 4 0.399814 0.379359 0.42582
2959 2 0.491698 0.352387 0.449662
2961 4 0.469646 0.354495 0.459136
1220 4 0.449936 0.350839 0.452848
2221 2 0.495235 0.45868 0.428298
325 2 0.00611082 0.495751 0.481435
3704 4 0.128259 0.473727 0.428872
1390 2 0.212428 0.487777 0.454359
1392 4 0.188286 0.469825 0.446855
3705 4 0.180607 0.479971 0.433345
3703 2 0.154433 0.476849 0.431109
1976 4 0.305741 0.420597 0.49335
1975 2 0.3326 0.433457 0.488197
3989 4 0.393522 0.423182 0.420579
2354 4 0.375397 0.461111 0.471354
2353 2 0.389875 0.457445 0.452665
1977 4 0.359459 0.446317 0.483044
4122 4 0.183489 0.0473814 0.000541822
2638 2 0.247075 0.171363 0.998561
1024 2 0.00946067 0.0532601 0.541418
1026 4 0.0232305 0.056627 0.519847
2658 4 0.0121797 0.0509777 0.501757
2206 2 0.241915 0.0757622 0.506593
2207 4 0.261717 0.0780878 0.523018
3624 4 0.275648 0.0713533 0.531201
3622 2 0.29969 0.0766794 0.519673
3461 4 0.428635 0.0531968 0.582746
3104 4 0.410884 0.00306442 0.539376
3103 2 0.431137 0.0252659 0.545365
3105 4 0.451391 0.0474674 0.551354
2930 4 0.390691 0.997815 0.546651
2929 2 0.370306 0.00138355 0.535439
441 4 0.487201 0.0343308 0.508868
439 2 0.497316 0.0252051 0.527155
3031 2 0.133663 0.128495 0.537231
3032 4 0.125561 0.109905 0.520522
3414 4 0.158691 0.164741 0.559224
3033 4 0.141765 0.147085 0.55394
3623 4 0.323732 0.0820056 0.508145
3160 2 0.303513 0.216121 0.509561
3161 4 0.322212 0.236602 0.520669
3221 4 0.341597 0.246244 0.511746
2721 4 0.470352 0.240105 0.503711
3026 4 0.471984 0.235353 0.522566
4082 4 0.0587738 0.332183 0.510006
1173 4 0.0771352 0.331755 0.516496
3494 4 0.231938 0.326087 0.57393
668 4 0.242845 0.26054 0.578374
4513 2 0.320328 0.302714 0.519486
4515 4 0.344954 0.302642 0.523617
1260 4 0.307233 0.278906 0.586511
4514 4 0.295702 0.302786 0.515354
3222 4 0.359784 0.295419 0.519382
3220 2 0.35069 0.270832 0.515564
2751 4 0.385284 0.251843 0.55023
2749 2 0.406915 0.273972 0.54717
2750 4 0.428546 0.296101 0.544111
3266 4 0.449827 0.297487 0.549566
3265 2 0.474847 0.298298 0.545385
3267 4 0.499867 0.29911 0.541205
1171 2 0.10142 0.345703 0.52728
1172 4 0.125705 0.359651 0.538065
663 4 0.14049 0.378177 0.533933
661 2 0.155425 0.384098 0.512898
3493 2 0.218744 0.338941 0.583413
3580 2 0.307574 0.389894 0.559149
3581 4 0.301279 0.365437 0.559066
3582 4 0.313869 0.414351 0.559233
3873 4 0.36432 0.362562 0.565516
2971 2 0.32877 0.355314 0.511538
3871 2 0.343184 0.3561 0.581513
2972 4 0.332314 0.353423 0.536073
3182 4 0.303558 0.340624 0.586073
1239 4 0.383724 0.366835 0.575491
1237 2 0.410435 0.371538 0.57716
1238 4 0.437146 0.376241 0.578829
327 4 0.017595 0.498844 0.504129
1837 2 0.0282101 0.49274 0.540798
1838 4 0.0281534 0.477745 0.559546
878 4 0.0394668 0.476743 0.57609
2678 4 0.309362 0.482003 0.517798
3986 4 0.287502 0.468239 0.515696
3985 2 0.293996 0.44904 0.51173
3987 4 0.30049 0.42984 0.507764
3384 4 0.376708 0.492587 0.534513
3382 2 0.391112 0.491856 0.554691
3383 4 0.405516 0.491124 0.574868
4066 2 0.447215 0.445984 0.550725
4067 4 0.461104 0.437615 0.566137
2045 4 0.483089 0.441979 0.563321
4068 4 0.433327 0.454352 0.535313
2138 4 0.436473 0.472723 0.538537
2137 2 0.450364 0.490172 0.521556
1469 4 0.0871166 0.082543 0.61795
3273 4 0.0166542 0.066158 0.629497
1470 4 0.0339178 0.0601701 0.631305
1468 2 0.0605172 0.0713565 0.624628
4284 4 0.0893918 0.0660703 0.617108
2258 4 0.0751098 0.0189685 0.651949
3713 4 0.129459 0.0439527 0.595636
4282 2 0.107107 0.0555527 0.616035
4283 4 0.124821 0.0450351 0.614962
3712 2 0.153993 0.0433327 0.59272
3714 4 0.178527 0.0427126 0.589804
4136 4 0.196372 0.0440872 0.603224
4135 2 0.219093 0.040032 0.604714
4137 4 0.241815 0.0359768 0.606204
1994 4 0.250783 0.0320482 0.590796
1993 2 0.276272 0.04685 0.598711
1995 4 0.301762 0.0616517 0.606625
2604 4 0.321025 0.060089 0.603681
2602 2 0.341316 0.0548384 0.594757
2603 4 0.361607 0.0495878 0.585832
3462 4 0.383638 0.0613317 0.589894
3460 2 0.406137 0.0572642 0.58632
3237 4 0.0888087 0.127865 0.665703
963 4 0.103098 0.119007 0.663835
962 4 0.136206 0.117412 0.627068
959 4 0.158231 0.125813 0.628453
958 2 0.185846 0.137137 0.62843
961 2 0.119652 0.118209 0.645451
960 4 0.213461 0.148461 0.628407
1394 4 0.234074 0.152391 0.632879
1393 2 0.260577 0.156367 0.634476
1263 4 0.307872 0.163148 0.640041
1395 4 0.287079 0.160344 0.636074
1261 2 0.331141 0.159977 0.641489
1262 4 0.35441 0.156805 0.642937
1086 4 0.376448 0.166288 0.638588
864 4 0.0665659 0.238636 0.638083
2915 4 0.0505681 0.222175 0.630986
2914 2 0.0619459 0.206616 0.625177
2916 4 0.0733236 0.191057 0.619368
1284 4 0.0952543 0.195052 0.618917
1282 2 0.122229 0.209792 0.621378
1283 4 0.149204 0.224531 0.62384
3097 2 0.200547 0.243086 0.642487
3412 2 0.163612 0.176177 0.581455
3413 4 0.168534 0.187613 0.603685
1084 2 0.401167 0.167612 0.632048
1085 4 0.425887 0.168937 0.625508
2508 4 0.448329 0.17584 0.626538
2506 2 0.469986 0.174313 0.615482
2507 4 0.491643 0.172785 0.604427
1136 4 0.00654245 0.297085 0.616011
1135 2 0.0215844 0.284657 0.621895
1137 4 0.0366264 0.27223 0.627779
862 2 0.0608253 0.258557 0.637645
863 4 0.0550848 0.278478 0.637206
1259 4 0.25258 0.251472 0.588608
3183 4 0.251093 0.334531 0.584261
667 2 0.218561 0.256143 0.58897
669 4 0.194278 0.251746 0.599565
3099 4 0.189704 0.241036 0.61961
1258 2 0.279907 0.265189 0.587559
336 4 0.313489 0.267295 0.597421
334 2 0.339996 0.276221 0.604327
335 4 0.366503 0.285147 0.611234
3264 4 0.383308 0.27796 0.613602
3262 2 0.408569 0.279932 0.618998
3263 4 0.433831 0.281904 0.624393
2846 4 0.454079 0.297762 0.623827
2845 2 0.47758 0.296649 0.630666
3959 4 0.205314 0.4026 0.583354
3958 2 0.196018 0.37834 0.589028
3960 4 0.186722 0.35408 0.594702
3495 4 0.205551 0.351796 0.592897
3181 2 0.277325 0.337578 0.585167
3872 4 0.322048 0.349638 0.597509
4197 4 0.366543 0.41792 0.594911
4195 2 0.385801 0.41623 0.609751
138 3 0.0116568 0.442833 0.665408
877 2 0.0438686 0.485008 0.599682
2016 4 0.0204083 0.439759 0.647318
2014 2 0.0363181 0.428162 0.653184
879 4 0.0482705 0.493273 0.623275
2015 4 0.0522278 0.416565 0.65905
2310 4 0.0707149 0.415532 0.663398
4091 4 0.128193 0.496577 0.591005
3123 4 0.214934 0.415691 0.597276
3121 2 0.241972 0.426005 0.602415
3122 4 0.26901 0.436318 0.607553
3630 4 0.316389 0.488098 0.625794
3628 2 0.343653 0.495961 0.622986
809 4 0.000323051 0.150974 0.671314
4086 4 0.42643 0.422473 0.627942
4084 2 0.451745 0.43352 0.637852
4085 4 0.477061 0.444567 0.647761
2217 4 0.495755 0.450474 0.658361
4196 4 0.405059 0.414539 0.62459
1334 4 0.464154 0.489569 0.615475
1333 2 0.454403 0.500147 0.632695
2459 4 0.0030841 0.0727884 0.716001
1134 4 0.0700144 0.0703143 0.729436
3377 4 0.0864229 0.0701132 0.738993
1133 4 0.0197407 0.0694394 0.725739
1132 2 0.0448776 0.0698768 0.727587
2257 2 0.0936504 0.0322994 0.669177
3376 2 0.0936611 0.058784 0.720581
2259 4 0.112191 0.0456304 0.686404
3378 4 0.100899 0.0474547 0.702169
1127 4 0.12776 0.0118029 0.722208
1126 2 0.100599 0.00122579 0.717631
918 4 0.145637 0.00787827 0.720257
916 2 0.169618 0.0168809 0.732671
917 4 0.193599 0.0258835 0.745084
3234 4 0.214452 0.0316525 0.738608
3232 2 0.240237 0.0370283 0.746045
3233 4 0.266023 0.0424041 0.753483
3132 4 0.284406 0.0545747 0.74347
3130 2 0.311348 0.0608414 0.740298
3131 4 0.33829 0.0671081 0.737125
2256 4 0.360175 0.0724959 0.7383
2254 2 0.361451 0.0535965 0.725463
4049 4 0.341253 0.02703 0.711299
4048 2 0.337036 0.00663468 0.697869
2255 4 0.362726 0.0346972 0.712626
3087 4 0.411348 0.0492899 0.720952
3085 2 0.399239 0.0259625 0.729879
3086 4 0.38713 0.00263511 0.738806
1154 4 0.442779 0.0387599 0.675157
1153 2 0.470059 0.0526217 0.673805
1155 4 0.49734 0.0664835 0.672453
1296 4 0.486435 0.00802211 0.738
3415 2 0.015188 0.166762 0.731996
3143 4 0.0149468 0.170308 0.671583
977 4 0.0406612 0.137929 0.747298
976 2 0.0423955 0.131467 0.72362
978 4 0.0441297 0.125005 0.699942
3236 4 0.0375225 0.115779 0.682279
3235 2 0.0631656 0.121822 0.673991
3011 4 0.173551 0.167265 0.698292
3247 2 0.00622532 0.211781 0.717234
3249 4 0.01419 0.208531 0.740136
3417 4 0.042075 0.179017 0.726643
3245 4 0.0632427 0.18981 0.727882
3142 2 0.0395728 0.16953 0.671628
3144 4 0.0641988 0.168753 0.671674
3244 2 0.0897319 0.204022 0.733432
3018 4 0.0819582 0.180945 0.680408
3246 4 0.116221 0.218234 0.738982
3016 2 0.109432 0.189165 0.68079
4080 4 0.132825 0.215839 0.748834
4078 2 0.1604 0.226063 0.747343
3017 4 0.136907 0.197385 0.681173
3098 4 0.211391 0.245136 0.665364
1308 4 0.19769 0.245757 0.728174
3012 4 0.153576 0.194016 0.671355
4079 4 0.187975 0.236288 0.745852
3010 2 0.163564 0.180641 0.684824