ITEM: TIMESTEP
2180500
ITEM: NUMBER OF ATOMS
4590
ITEM: BOX BOUNDS xy xz yz pp pp pp
-1.7797454600000002e+01 9.9985700000000008e+00 -7.7988846000000009e+00
-9.9985700000000008e+00 9.9985700000000008e+00 0.0000000000000000e+00
-9.9985700000000008e+00 9.9985700000000008e+00 0.0000000000000000e+00
ITEM: ATOMS id type xs ys zs
1931 4 0.0056823 0.00101058 0.0558668
1825 2 0.0396932 0.0714518 0.0700056
1827 4 0.0593875 0.0725245 0.0541163
2552 4 0.0748511 0.0680689 0.0438023
2551 2 0.0888354 0.0629167 0.0252858
2553 4 0.10282 0.0577644 0.00676936
4400 4 0.12328 0.0559208 0.0101846
832 2 0.143538 0.0803741 0.0764843
4399 2 0.149618 0.0613836 0.0132365
1566 4 0.194528 0.0696174 0.00620831
4401 4 0.175957 0.0668463 0.0162885
1564 2 0.220451 0.0730808 0.00314197
1124 4 0.287537 0.0343903 0.0122921
1123 2 0.3115 0.0496131 0.00401548
1533 4 0.411672 0.025035 0.023698
1531 2 0.422614 0.0379879 0.00313781
2639 4 0.414369 0.0135187 0.03803
2638 2 0.432043 0.0182527 0.0567993
2640 4 0.449716 0.0229867 0.0755685
2713 2 0.488505 0.0161493 0.0795045
2714 4 0.469182 0.0256361 0.081766
833 4 0.164948 0.092238 0.0622449
765 4 0.185775 0.10266 0.0629208
1232 4 0.192978 0.117873 0.0199943
763 2 0.1971 0.123046 0.0770005
697 2 0.351655 0.147728 0.0745444
3553 2 0.0253882 0.24362 0.0293385
3554 4 0.0238963 0.221948 0.0396857
739 2 0.0103594 0.18682 0.0450243
741 4 0.0314856 0.207558 0.0400137
345 4 0.0977653 0.232485 0.999807
2717 4 0.213755 0.189035 0.0510934
664 2 0.218633 0.182846 0.0151802
665 4 0.206588 0.190328 0.0337629
2716 2 0.202043 0.18311 0.073492
1785 4 0.283911 0.215744 0.0431033
1783 2 0.309315 0.221157 0.0357974
1784 4 0.334718 0.226569 0.0284916
933 4 0.331421 0.208339 0.0343319
699 4 0.356124 0.165797 0.0574541
931 2 0.346762 0.197975 0.04625
932 4 0.362104 0.18761 0.058168
1253 4 0.483962 0.244204 0.0639103
294 4 0.482366 0.226821 0.0722005
292 2 0.482599 0.212907 0.0522118
3125 4 0.466272 0.19473 0.0205446
293 4 0.482833 0.198992 0.0322231
3124 2 0.479634 0.190049 0.00124078
3555 4 0.0268801 0.265291 0.0189914
522 4 0.0476065 0.270178 0.0747238
4032 4 0.0633005 0.285858 0.0671222
4030 2 0.087568 0.289613 0.0575772
4031 4 0.111835 0.293368 0.0480323
330 4 0.132956 0.301407 0.0434922
328 2 0.157859 0.309836 0.0341685
329 4 0.182761 0.318266 0.0248449
912 4 0.201187 0.326587 0.0177081
1139 4 0.299465 0.30993 0.0386722
1138 2 0.297778 0.303604 0.0628499
837 4 0.31262 0.307063 0.0231228
2518 2 0.0165673 0.382729 0.0438639
2519 4 0.0348503 0.394491 0.0611635
2903 4 0.0435029 0.38871 0.0780431
2094 4 0.119316 0.401104 0.0706217
569 4 0.109813 0.384159 0.0808823
2092 2 0.13609 0.407612 0.0511229
362 4 0.280497 0.369086 0.03356
361 2 0.28832 0.387768 0.0501698
363 4 0.296142 0.406449 0.0667797
4188 4 0.383262 0.410205 0.0328616
4186 2 0.385299 0.387778 0.0352943
4187 4 0.387337 0.365351 0.037727
1674 4 0.397179 0.353089 0.0341651
1672 2 0.408286 0.350484 0.0124528
2093 4 0.152863 0.414119 0.0316241
956 4 0.155494 0.422204 0.0145729
3338 4 0.229936 0.435229 0.0149889
4547 4 0.249915 0.440416 0.00877864
4546 2 0.275544 0.453784 0.0142288
3337 2 0.208361 0.432782 0.00106172
4548 4 0.301173 0.467151 0.019679
3140 4 0.330357 0.421649 0.00256894
3139 2 0.350616 0.442189 0.00986944
3141 4 0.370874 0.462729 0.0171699
1760 4 0.372291 0.452082 0.0355886
1759 2 0.391982 0.458178 0.0525669
1761 4 0.411673 0.464274 0.0695452
4366 2 0.445222 0.451135 0.0796811
4368 4 0.421469 0.453894 0.0807232
4367 4 0.468974 0.448375 0.0786389
1664 4 0.480594 0.450959 0.0620229
1826 4 0.019999 0.070379 0.085895
834 4 0.122127 0.0685101 0.0907238
2470 2 0.134144 0.0505109 0.154425
2472 4 0.147296 0.0402019 0.139458
558 4 0.164139 0.0376215 0.145398
556 2 0.188634 0.0554338 0.14551
557 4 0.213128 0.073246 0.145623
3905 4 0.339125 0.00694102 0.139161
3904 2 0.344261 0.0198432 0.160579
2766 4 0.0519782 0.136697 0.150546
3497 4 0.0707256 0.150739 0.146662
3496 2 0.0968559 0.158948 0.140998
3498 4 0.122986 0.167157 0.135334
764 4 0.208424 0.143431 0.0910801
2664 4 0.204656 0.142822 0.111275
2662 2 0.226426 0.160582 0.120733
3503 4 0.315972 0.128767 0.140583
3504 4 0.325855 0.118252 0.0937362
3502 2 0.320913 0.123509 0.11716
732 4 0.32821 0.127329 0.156019
698 4 0.347185 0.12966 0.0916348
521 4 0.0465901 0.233819 0.106433
3047 4 0.064429 0.232562 0.115605
3046 2 0.089643 0.246643 0.121765
2672 4 0.140891 0.176611 0.143499
2671 2 0.160737 0.175061 0.129197
2718 4 0.190331 0.177185 0.0958906
2673 4 0.180583 0.173511 0.114895
2476 2 0.229166 0.219712 0.15786
2477 4 0.24863 0.230327 0.141196
1766 4 0.25817 0.225666 0.124674
2663 4 0.248195 0.178342 0.130191
1765 2 0.284788 0.237581 0.125365
1767 4 0.311406 0.249495 0.126055
2768 4 0.267364 0.179277 0.13662
2767 2 0.28328 0.181448 0.156454
520 2 0.0470983 0.251999 0.0905782
3048 4 0.114857 0.260724 0.127924
563 4 0.117347 0.270115 0.145892
813 4 0.163804 0.332205 0.143071
562 2 0.144004 0.277302 0.148009
2950 2 0.1416 0.328488 0.118966
2763 4 0.207731 0.248502 0.122622
2952 4 0.163104 0.323088 0.125179
564 4 0.170662 0.284488 0.150126
756 4 0.189861 0.292852 0.142467
754 2 0.194223 0.276062 0.127493
755 4 0.198584 0.259271 0.112519
356 4 0.234092 0.316744 0.146172
2761 2 0.231119 0.250467 0.112155
1140 4 0.296091 0.297279 0.0870276
2762 4 0.254508 0.252432 0.101688
2892 4 0.311947 0.263431 0.110882
2890 2 0.332069 0.282278 0.100545
2891 4 0.352191 0.301125 0.0902082
1046 4 0.367566 0.319944 0.0930632
1252 2 0.477062 0.251839 0.0855741
1254 4 0.470162 0.259474 0.107238
1438 2 0.0207807 0.388735 0.156185
2904 4 0.0235299 0.344462 0.101182
2902 2 0.0335164 0.366586 0.0896126
1440 4 0.0291076 0.375778 0.139503
568 2 0.109759 0.365105 0.095294
570 4 0.109704 0.346051 0.109706
2951 4 0.120097 0.333889 0.112753
3541 2 0.186824 0.394012 0.161754
3543 4 0.160167 0.383869 0.16439
3542 4 0.213482 0.404156 0.159119
3213 4 0.231334 0.409248 0.147214
357 4 0.229883 0.359466 0.130682
355 2 0.231987 0.338105 0.138427
3211 2 0.245113 0.414493 0.125767
3212 4 0.258892 0.419739 0.10432
811 2 0.173977 0.336794 0.166176
2661 4 0.325284 0.384586 0.14588
2659 2 0.338664 0.373238 0.132488
1045 2 0.369244 0.341965 0.102682
2660 4 0.352044 0.36189 0.119096
1047 4 0.370923 0.363985 0.112301
2706 4 0.408101 0.401095 0.138971
2704 2 0.410736 0.380845 0.149178
2705 4 0.41337 0.360596 0.159386
3532 2 0.0135001 0.421632 0.0891619
3534 4 0.0274532 0.438526 0.10606
4533 4 0.0572674 0.474382 0.112747
4531 2 0.0761357 0.489674 0.0977528
1745 4 0.242915 0.495222 0.116847
3342 4 0.351592 0.493742 0.153736
385 2 0.479049 0.449907 0.142228
387 4 0.494714 0.457886 0.12213
386 4 0.463384 0.441927 0.162327
450 4 0.0296139 0.0353581 0.190705
448 2 0.00625495 0.0388622 0.189461
2465 4 0.0332597 0.01966 0.184724
2471 4 0.120993 0.0608198 0.169392
2858 4 0.128939 0.0591085 0.186567
2857 2 0.142232 0.0761279 0.203632
297 4 0.204864 0.000647558 0.208578
305 4 0.25303 0.00376999 0.233677
3906 4 0.349397 0.0327454 0.181996
2546 4 0.349323 0.0491177 0.225558
2545 2 0.347916 0.0286636 0.23835
2781 4 0.360318 0.0521337 0.177464
2779 2 0.382876 0.0721127 0.174632
2764 2 0.0499709 0.121127 0.169682
2765 4 0.0479635 0.105556 0.188819
692 4 0.0558112 0.104587 0.207562
691 2 0.0782206 0.120568 0.217961
278 4 0.156827 0.168264 0.249525
277 2 0.132237 0.150706 0.248063
693 4 0.10063 0.136548 0.228359
279 4 0.107646 0.133149 0.246601
2859 4 0.155526 0.0931472 0.220698
19 3 0.162595 0.089135 0.239386
2758 2 0.226705 0.142783 0.247407
2759 4 0.247162 0.162194 0.238332
17 3 0.200102 0.103578 0.253101
730 2 0.3503 0.126084 0.166694
731 4 0.37239 0.124839 0.17737
2598 4 0.386931 0.130259 0.192276
2597 4 0.429326 0.168269 0.175075
2596 2 0.408129 0.149264 0.183675
2780 4 0.405433 0.0920918 0.1718
2893 2 0.174414 0.204499 0.246333
2894 4 0.172268 0.181721 0.238526
2478 4 0.209701 0.209097 0.174524
548 4 0.253526 0.176131 0.224394
547 2 0.275197 0.182683 0.209668
549 4 0.296868 0.189234 0.194942
2769 4 0.299196 0.183618 0.176287
3407 4 0.00160385 0.318431 0.245353
2786 4 0.0247753 0.308756 0.189568
2785 2 0.0506465 0.323341 0.19183
658 2 0.165407 0.327917 0.230587
613 2 0.289714 0.261478 0.247665
615 4 0.313118 0.280688 0.245936
2555 4 0.327887 0.291035 0.232079
2554 2 0.354289 0.299974 0.22759
2556 4 0.380692 0.308913 0.2231
3209 4 0.401179 0.321339 0.218339
2954 4 0.387421 0.265567 0.241859
266 4 0.407913 0.269118 0.233807
265 2 0.429466 0.275181 0.218966
267 4 0.451019 0.281243 0.204125
560 4 0.457082 0.295582 0.188926
559 2 0.48062 0.312212 0.196533
1439 4 0.0124538 0.401692 0.172866
2787 4 0.0765177 0.337926 0.194093
4385 4 0.0973633 0.347155 0.200129
4384 2 0.12003 0.361544 0.188847
4386 4 0.142697 0.375933 0.177565
659 4 0.173354 0.335024 0.20718
812 4 0.184149 0.341384 0.189282
3208 2 0.423157 0.340172 0.210829
3210 4 0.445134 0.359005 0.203318
3800 4 0.460068 0.368388 0.217288
3799 2 0.485722 0.381901 0.222494
1583 4 0.0581173 0.487706 0.176915
3644 4 0.0704741 0.476581 0.180292
3717 4 0.128749 0.476543 0.197778
3645 4 0.108834 0.465331 0.203677
3643 2 0.0896541 0.470956 0.191985
3715 2 0.15431 0.478331 0.19972
1779 4 0.182759 0.490643 0.217602
3716 4 0.179871 0.480118 0.201662
443 4 0.450994 0.471258 0.221175
275 4 0.438135 0.456633 0.231968
444 4 0.498982 0.4723 0.205826
442 2 0.474988 0.471779 0.2135
1428 4 0.0847197 0.0155084 0.280162
1182 4 0.0697744 0.00122962 0.270668
1426 2 0.109328 0.0302541 0.287385
20 3 0.180996 0.0665568 0.252335
1427 4 0.133936 0.0449998 0.294607
704 4 0.151092 0.0462123 0.308122
705 4 0.204066 0.069837 0.302856
703 2 0.177579 0.0580247 0.305489
304 2 0.271325 0.0169573 0.250359
1701 4 0.351502 0.0393915 0.320795
762 4 0.331252 0.0326555 0.321966
760 2 0.314134 0.0284033 0.30278
761 4 0.297016 0.024151 0.283595
306 4 0.28962 0.0301446 0.267041
2547 4 0.346508 0.00820956 0.251143
708 4 0.384469 0.00151188 0.318406
706 2 0.410323 0.00401987 0.318662
487 2 0.465454 0.00338922 0.317067
707 4 0.436178 0.00652787 0.318918
488 4 0.488556 0.012629 0.304433
3888 4 0.488275 0.0711673 0.292967
3480 4 0.128725 0.0966828 0.324653
2932 2 0.164491 0.155489 0.324914
3478 2 0.140179 0.0924663 0.303777
18 3 0.169338 0.0874309 0.276624
3479 4 0.151634 0.0882498 0.282901
743 4 0.22161 0.0848696 0.298221
2760 4 0.206248 0.123372 0.256482
16 1 0.178196 0.0864987 0.255352
742 2 0.246546 0.101196 0.30194
354 4 0.289893 0.113281 0.310231
744 4 0.271483 0.117522 0.305658
352 2 0.315908 0.116396 0.310921
2614 2 0.378207 0.120719 0.304596
2616 4 0.351766 0.109053 0.301452
353 4 0.341922 0.119512 0.311611
676 2 0.450881 0.144145 0.307865
677 4 0.42466 0.135028 0.31319
2615 4 0.404647 0.132386 0.307741
678 4 0.477102 0.153263 0.30254
3887 4 0.495947 0.119248 0.301108
3886 2 0.492111 0.0952077 0.297038
2600 4 0.00377938 0.219247 0.331361
648 4 0.0228124 0.228289 0.321694
646 2 0.0494582 0.239865 0.32288
647 4 0.0761041 0.251442 0.324065
2895 4 0.17656 0.227277 0.254139
3975 4 0.190268 0.246919 0.253514
2900 4 0.167735 0.230885 0.303475
2899 2 0.151748 0.225805 0.323555
3973 2 0.182834 0.249694 0.276858
2933 4 0.155885 0.171519 0.31277
614 4 0.266309 0.242269 0.249394
519 4 0.348366 0.207453 0.296854
517 2 0.364497 0.194726 0.292596
518 4 0.380629 0.181998 0.288337
1332 4 0.0148465 0.326981 0.260266
585 4 0.0579376 0.296676 0.331666
1330 2 0.0258068 0.328161 0.282927
1331 4 0.036767 0.329341 0.305589
660 4 0.157461 0.320811 0.253994
1463 4 0.0974736 0.257606 0.323487
507 4 0.139962 0.324981 0.258511
1462 2 0.124104 0.26378 0.324076
3974 4 0.1754 0.252468 0.300202
1464 4 0.150734 0.269953 0.324665
2114 4 0.221179 0.323891 0.331894
2964 4 0.290782 0.324488 0.331036
248 4 0.309365 0.323933 0.326047
872 4 0.371033 0.32911 0.318165
247 2 0.335183 0.327771 0.330396
2540 4 0.321108 0.330415 0.25648
2955 4 0.376733 0.258578 0.290731
2953 2 0.382077 0.262072 0.266295
1493 4 0.395938 0.266456 0.301015
1494 4 0.440882 0.286277 0.327904
1492 2 0.41841 0.276366 0.314459
1529 4 0.001621 0.375731 0.283995
1528 2 0.0167027 0.398673 0.291819
270 4 0.0449587 0.342359 0.322185
505 2 0.122393 0.336471 0.261154
506 4 0.104824 0.34796 0.263796
2539 2 0.325394 0.346864 0.275191
2541 4 0.329679 0.363313 0.293901
871 2 0.397791 0.337197 0.316538
873 4 0.424549 0.345284 0.314912
649 2 0.465046 0.347584 0.3077
650 4 0.439617 0.343662 0.301484
651 4 0.490474 0.351506 0.313915
1530 4 0.0317844 0.421616 0.299642
1756 2 0.0253919 0.453306 0.289673
1758 4 0.00962605 0.465576 0.282443
1757 4 0.0411578 0.441036 0.296903
2463 4 0.300128 0.466576 0.327536
2694 4 0.338911 0.467993 0.262084
1577 4 0.321391 0.453181 0.269371
1576 2 0.316561 0.463833 0.290131
1578 4 0.311731 0.474484 0.310892
2692 2 0.360388 0.461506 0.25948
2693 4 0.381864 0.455018 0.256876
276 4 0.401073 0.456138 0.265749
274 2 0.419604 0.456385 0.248859
1199 4 0.262937 0.0841179 0.360787
1518 4 0.269011 0.0814707 0.380105
1699 2 0.368222 0.0329261 0.335394
3850 2 0.388252 0.0115754 0.377313
3852 4 0.397762 0.0337837 0.365856
1700 4 0.384942 0.0264607 0.349993
2643 4 0.491552 0.0615397 0.361189
2641 2 0.479962 0.0736099 0.346566
3157 2 0.0218768 0.0898269 0.411049
938 4 0.0414788 0.14555 0.398385
3159 4 0.0483601 0.0960236 0.408296
576 4 0.0675636 0.0960678 0.408593
574 2 0.0900211 0.114953 0.414979
791 4 0.191858 0.141022 0.347593
2934 4 0.173098 0.139459 0.337058
792 4 0.210441 0.103623 0.348965
1200 4 0.214984 0.0885728 0.357365
790 2 0.201149 0.122322 0.348279
1198 2 0.238961 0.0863454 0.359076
1517 4 0.308701 0.117515 0.403441
1516 2 0.288856 0.0994929 0.391773
503 4 0.32026 0.121671 0.386653
504 4 0.373727 0.136424 0.389215
502 2 0.346993 0.129048 0.387934
2642 4 0.468371 0.0856801 0.331942
4297 2 0.15686 0.237286 0.377238
2901 4 0.135761 0.220725 0.343636
4299 4 0.154028 0.22664 0.354653
4298 4 0.159692 0.247932 0.399823
803 4 0.327834 0.178347 0.386542
474 4 0.326535 0.192905 0.375197
472 2 0.321114 0.213877 0.375848
473 4 0.315694 0.234849 0.376499
802 2 0.350629 0.181781 0.398912
3051 4 0.428909 0.248051 0.410979
804 4 0.373424 0.185214 0.411283
583 2 0.0321615 0.293225 0.335721
2836 2 0.022111 0.290506 0.406498
2837 4 0.00899874 0.290565 0.385223
584 4 0.0063854 0.289774 0.339776
1683 4 0.064808 0.285519 0.342543
1682 4 0.0939784 0.278714 0.380512
1681 2 0.0793932 0.282117 0.361527
3963 4 0.0916982 0.279492 0.400163
2637 4 0.169191 0.26746 0.329938
2635 2 0.191447 0.286698 0.336054
2636 4 0.213704 0.305936 0.342171
2973 4 0.171343 0.262979 0.413327
2963 4 0.255051 0.286545 0.355994
2962 2 0.272916 0.305517 0.343515
249 4 0.361002 0.331609 0.334745
954 4 0.382852 0.316646 0.366798
3060 4 0.460609 0.296221 0.336543
952 2 0.396807 0.302581 0.373823
953 4 0.410763 0.288515 0.380848
1396 2 0.443435 0.284987 0.383061
1397 4 0.421066 0.278656 0.369309
1398 4 0.465804 0.291319 0.396813
3058 2 0.486626 0.308121 0.341707
2611 2 0.49247 0.286283 0.411
2613 4 0.478498 0.30144 0.411239
268 2 0.0640421 0.349009 0.339764
269 4 0.0831255 0.35566 0.357344
2345 4 0.14843 0.40362 0.34595
2344 2 0.126314 0.383629 0.350482
2346 4 0.104199 0.363638 0.355014
2113 2 0.230015 0.336291 0.353235
308 4 0.238787 0.407913 0.401877
2115 4 0.238851 0.34869 0.374576
1737 4 0.223912 0.415562 0.403093
459 4 0.383901 0.391488 0.361268
457 2 0.410106 0.396904 0.365194
458 4 0.436311 0.402321 0.369121
452 4 0.454435 0.39889 0.365317
451 2 0.476815 0.415283 0.355272
2501 4 0.0720738 0.490686 0.346387
326 4 0.0519415 0.480495 0.343904
325 2 0.0260867 0.466094 0.346775
1914 4 0.110433 0.456396 0.357345
2502 4 0.10994 0.473769 0.3618
2500 2 0.0910067 0.482228 0.354093
1912 2 0.136824 0.465948 0.361843
1913 4 0.163215 0.475501 0.366342
307 2 0.259877 0.421093 0.387837
309 4 0.280966 0.434274 0.373797
2462 4 0.296806 0.451507 0.37515
2461 2 0.298467 0.459041 0.351343
453 4 0.499196 0.431675 0.345228
2195 4 0.0920474 0.0779901 0.43553
2194 2 0.104778 0.0645807 0.446611
2196 4 0.117509 0.0511713 0.457692
441 4 0.165847 0.0133993 0.44402
439 2 0.18414 0.00273607 0.441304
3714 4 0.295342 0.0528794 0.484461
886 2 0.322907 0.0339226 0.48071
888 4 0.300382 0.0385003 0.477071
887 4 0.345431 0.0293448 0.484349
3623 4 0.348451 0.011037 0.489642
937 2 0.0431806 0.143902 0.423224
939 4 0.0448824 0.142253 0.448062
899 4 0.0569617 0.152302 0.463061
575 4 0.112479 0.133837 0.421365
2498 4 0.153888 0.15646 0.467714
2497 2 0.131766 0.144652 0.454338
2499 4 0.109644 0.132844 0.440961
2120 4 0.424618 0.158665 0.500923
3373 2 0.454282 0.1664 0.470117
3374 4 0.436912 0.1541 0.487888
3026 4 0.436961 0.138855 0.497903
806 4 0.00783349 0.233101 0.461813
2627 4 0.0429649 0.234811 0.499298
900 4 0.0815926 0.201855 0.467194
2628 4 0.0648389 0.206976 0.47371
2626 2 0.0539019 0.220894 0.486504
898 2 0.0692772 0.177078 0.465127
3266 4 0.277088 0.243467 0.487323
331 2 0.351581 0.247051 0.442996
513 4 0.391236 0.186236 0.419438
333 4 0.375057 0.244591 0.438301
511 2 0.416081 0.197784 0.428273
3049 2 0.412075 0.249747 0.428762
3050 4 0.395242 0.251444 0.446544
512 4 0.440927 0.209332 0.437108
1011 4 0.453675 0.218721 0.422148
1010 4 0.495949 0.223277 0.451132
1009 2 0.474812 0.220999 0.43664
3375 4 0.471653 0.178701 0.452347
805 2 0.0221407 0.252463 0.447508
2838 4 0.0352233 0.290446 0.427774
335 4 0.0383686 0.324309 0.486513
3264 4 0.0176336 0.321367 0.489817
807 4 0.036448 0.271826 0.433203
3962 4 0.105439 0.25492 0.436945
2972 4 0.128127 0.258679 0.440837
263 4 0.114178 0.309559 0.438557
3961 2 0.0985685 0.267206 0.418554
262 2 0.14017 0.312831 0.440458
2971 2 0.149735 0.260829 0.427082
1220 4 0.184197 0.327189 0.430257
264 4 0.166162 0.316104 0.442359
3265 2 0.297471 0.252531 0.471224
3267 4 0.317855 0.261594 0.455126
332 4 0.328105 0.249511 0.44769
3872 4 0.00234878 0.38588 0.481822
710 4 0.0219463 0.384736 0.475651
709 2 0.0365062 0.387477 0.496524
1486 2 0.147207 0.399744 0.457527
1487 4 0.124421 0.394538 0.470462
1488 4 0.169992 0.40495 0.444592
1219 2 0.205613 0.346301 0.438319
1735 2 0.206384 0.415869 0.420802
1221 4 0.227029 0.365412 0.446381
2960 4 0.240066 0.364184 0.43159
2961 4 0.293246 0.384917 0.437709
2959 2 0.266656 0.37455 0.434649
3989 4 0.329596 0.395561 0.499666
2385 4 0.00810948 0.422358 0.475869
1160 4 0.0232605 0.46922 0.423662
3431 4 0.0372638 0.460565 0.429612
1159 2 0.00368831 0.47621 0.432555
3430 2 0.0628421 0.475977 0.431792
3770 4 0.101296 0.48408 0.444287
3432 4 0.0884205 0.49139 0.433972
1736 4 0.188856 0.416177 0.438512
3845 4 0.385908 0.488472 0.446064
3830 4 0.382402 0.49951 0.430244
3844 2 0.371181 0.464023 0.446745
3846 4 0.356453 0.439574 0.447427
3696 4 0.419641 0.488099 0.456886
3695 4 0.441792 0.457681 0.436428
3694 2 0.430717 0.47289 0.446657
480 4 0.00665868 0.00560083 0.582989
723 4 0.0277028 0.0140466 0.577119
4554 4 0.174568 0.0180012 0.575124
4552 2 0.190482 0.0400216 0.565817
4553 4 0.206397 0.0620419 0.55651
1925 4 0.205401 0.0791401 0.548884
217 3 0.226026 0.0621116 0.557443
219 3 0.247016 0.0749483 0.52594
216 1 0.238139 0.0810605 0.545285
3713 4 0.303369 0.0775759 0.527915
3712 2 0.299355 0.0652277 0.506188
3087 4 0.0945683 0.0948517 0.580071
4048 2 0.18564 0.139153 0.558535
4050 4 0.188234 0.118575 0.567966
1926 4 0.172401 0.101081 0.565983
1924 2 0.188901 0.0901108 0.557433
220 3 0.222775 0.0915932 0.539943
4049 4 0.183047 0.159731 0.549104
218 3 0.256927 0.0950759 0.558112
4284 4 0.278136 0.0994478 0.564894
4282 2 0.297276 0.093253 0.553844
4283 4 0.316417 0.0870582 0.542793
2119 2 0.409184 0.165719 0.516567
798 4 0.387443 0.165319 0.550463
240 4 0.403411 0.104461 0.550873
238 2 0.41519 0.119254 0.570115
3027 4 0.419038 0.108133 0.536911
3025 2 0.428 0.123494 0.517407
2750 4 0.276755 0.231288 0.502991
2749 2 0.290292 0.232519 0.524279
4514 4 0.298487 0.241054 0.561758
958 2 0.283997 0.174759 0.57277
2751 4 0.303829 0.233749 0.545567
4513 2 0.310932 0.235182 0.581085
959 4 0.303644 0.183648 0.555906
796 2 0.38417 0.178901 0.569626
2121 4 0.39375 0.172773 0.53221
334 2 0.0589499 0.326527 0.501729
336 4 0.0795311 0.328744 0.516944
3129 4 0.0113402 0.343889 0.563433
3127 2 0.0241954 0.358251 0.544294
711 4 0.0510661 0.390217 0.517397
3128 4 0.0370507 0.372613 0.525155
3959 4 0.101926 0.333652 0.512256
3958 2 0.1225 0.349485 0.525185
3960 4 0.143074 0.365318 0.538114
3495 4 0.152663 0.360737 0.552512
3493 2 0.173379 0.354862 0.560342
3494 4 0.194095 0.348986 0.568172
3990 4 0.279345 0.391427 0.510525
3988 2 0.30447 0.393494 0.505095
2039 4 0.279313 0.406722 0.571301
2928 4 0.0317704 0.498034 0.571169
7 3 0.0312529 0.46414 0.560784
3240 4 0.0677215 0.480462 0.581614
663 4 0.0722165 0.422146 0.558363
661 2 0.0978135 0.425056 0.562644
662 4 0.123411 0.427966 0.566925
3384 4 0.243808 0.501969 0.541049
3382 2 0.246502 0.489627 0.561457
2038 2 0.304453 0.422274 0.566884
2040 4 0.329593 0.437825 0.562467
2129 4 0.342649 0.446784 0.547125
2128 2 0.351809 0.464223 0.529361
2130 4 0.36097 0.481661 0.511598
2150 4 0.380497 0.49298 0.517968
4196 4 0.433284 0.495357 0.566824
3175 2 0.413646 0.45131 0.578346
3176 4 0.425276 0.475505 0.572432
3177 4 0.402017 0.427115 0.58426
721 2 0.0511549 0.0154636 0.587059
722 4 0.0746069 0.0168806 0.596998
2019 4 0.0926758 0.0285614 0.587243
2017 2 0.114717 0.0425358 0.59968
2018 4 0.136758 0.0565102 0.612116
689 4 0.158268 0.0624099 0.61605
688 2 0.18466 0.0679893 0.613279
690 4 0.211051 0.0735687 0.610509
1218 4 0.221186 0.063666 0.6222
1216 2 0.244507 0.0601411 0.620501
1217 4 0.267827 0.0566161 0.618802
1059 4 0.276782 0.0432782 0.614996
1057 2 0.280114 0.0219593 0.609077
734 4 0.305063 0.0090703 0.597758
733 2 0.329903 0.00978077 0.593142
3145 2 0.358593 0.0601127 0.646285
735 4 0.354744 0.0104912 0.588527
3147 4 0.372598 0.0611078 0.625339
4356 4 0.391968 0.067575 0.637082
1062 4 0.369479 0.00992997 0.601989
4354 2 0.416783 0.0745033 0.646473
1060 2 0.389822 0.0113757 0.617217
1061 4 0.410165 0.0128215 0.632445
2202 4 0.431283 0.0233859 0.637923
2200 2 0.456249 0.0333059 0.628885
2201 4 0.481216 0.043226 0.619847
2657 4 0.498346 0.0562358 0.628894
1601 4 0.00997083 0.149278 0.608247
669 4 0.0308705 0.157113 0.605813
667 2 0.0576555 0.164868 0.606515
3085 2 0.101665 0.0996226 0.60405
3086 4 0.108762 0.104393 0.628028
1126 2 0.0850778 0.0892339 0.663449
1127 4 0.101849 0.10428 0.646718
1308 4 0.203154 0.106389 0.593872
1306 2 0.225687 0.126649 0.593086
1307 4 0.248221 0.146909 0.592301
960 4 0.264351 0.16587 0.589634
239 4 0.426968 0.134047 0.589357
1032 4 0.445382 0.146647 0.596172
4355 4 0.441599 0.0814315 0.655863
1197 4 0.453684 0.100957 0.659697
3315 4 0.429934 0.167088 0.615509
1195 2 0.478484 0.106158 0.668619
668 4 0.0844404 0.172623 0.607218
373 2 0.0798921 0.229145 0.66155
3122 4 0.0577453 0.195086 0.659046
374 4 0.0951195 0.2497 0.649275
1262 4 0.104365 0.170578 0.604858
1261 2 0.128197 0.171356 0.613282
1263 4 0.152029 0.172134 0.621707
4080 4 0.167267 0.187675 0.612298
4078 2 0.183154 0.211399 0.61658
4079 4 0.199042 0.235124 0.620862
4515 4 0.323377 0.22931 0.600413
1136 4 0.345693 0.233665 0.600039
1135 2 0.35697 0.216346 0.600318
3314 4 0.388015 0.181186 0.62283
797 4 0.380896 0.192484 0.58879
1137 4 0.368248 0.199027 0.600598
3313 2 0.408975 0.174137 0.619169
1030 2 0.465308 0.168203 0.60145
1031 4 0.485234 0.189758 0.606728
889 2 0.0475274 0.298715 0.637251
891 4 0.0329562 0.294801 0.65822
890 4 0.0620986 0.302628 0.616282
3108 4 0.115064 0.263496 0.645068
3106 2 0.139437 0.279267 0.638401
3107 4 0.163809 0.295038 0.631733
1044 4 0.1799 0.288348 0.626763
1042 2 0.203738 0.285721 0.627125
1043 4 0.227576 0.283094 0.627487
1131 4 0.244585 0.281158 0.639391
1129 2 0.247118 0.267864 0.659112
728 4 0.441193 0.303142 0.622882
3323 4 0.423552 0.289824 0.631112
727 2 0.46113 0.322526 0.61307
3322 2 0.438749 0.282664 0.646932
3007 2 0.496821 0.283588 0.663694
4084 2 0.00688447 0.38006 0.637904
4086 4 0.0189841 0.379767 0.65972
696 4 0.0595653 0.358029 0.652288
694 2 0.080336 0.373601 0.639378
695 4 0.101107 0.389173 0.626467
2154 4 0.123058 0.396768 0.620407
2152 2 0.148406 0.397699 0.620131
2153 4 0.173755 0.398631 0.619855
3183 4 0.192777 0.350461 0.588121
3181 2 0.210566 0.362069 0.605857
567 4 0.221867 0.392869 0.630798
565 2 0.230581 0.393889 0.654356
3182 4 0.228356 0.373676 0.623593
3372 4 0.249248 0.386659 0.624588
3370 2 0.273342 0.385831 0.619266
3371 4 0.297436 0.385003 0.613944
1988 4 0.311587 0.395656 0.627676
1987 2 0.332134 0.393709 0.640615
1989 4 0.352681 0.391762 0.653555
2535 4 0.367749 0.343206 0.668365
2533 2 0.389469 0.360891 0.658735
2534 4 0.411189 0.378575 0.649104
3075 4 0.41557 0.421017 0.594303
3073 2 0.436518 0.41355 0.593929
1239 4 0.428005 0.374325 0.643361
1237 2 0.448612 0.376217 0.6283
3074 4 0.457465 0.406083 0.593555
1008 4 0.477303 0.406778 0.598962
1238 4 0.469219 0.378109 0.613239
3434 4 0.484976 0.350501 0.586235
729 4 0.481067 0.341909 0.603259
6 1 0.0277186 0.468264 0.582822
9 3 0.0185737 0.485256 0.58379
10 3 0.0119153 0.44931 0.592236
8 3 0.0495503 0.474734 0.593946
3238 2 0.083558 0.479034 0.60044
3239 4 0.0993946 0.477607 0.619266
1272 4 0.0966418 0.46979 0.637422
1270 2 0.122472 0.472989 0.640686
1271 4 0.148301 0.476187 0.643949
3441 4 0.250789 0.464206 0.595309
3439 2 0.255873 0.466433 0.619854
3383 4 0.249196 0.477284 0.581866
3440 4 0.260957 0.468661 0.644399
3367 2 0.488281 0.486065 0.610546
3369 4 0.48703 0.46479 0.599459
3130 2 0.0142831 0.0794763 0.713497
3031 2 0.0746971 0.0492339 0.701486
3032 4 0.0580889 0.0562461 0.687278
1128 4 0.0683069 0.0741875 0.68018
2997 4 0.106755 0.037385 0.721163
3033 4 0.0913052 0.0422216 0.715694
2995 2 0.131243 0.0512074 0.729496
2996 4 0.155731 0.0650299 0.737829
1259 4 0.164695 0.0509772 0.736275
1258 2 0.187966 0.0656749 0.746353
3146 4 0.344588 0.0591175 0.667232
224 3 0.347749 0.073843 0.719087
222 3 0.353899 0.0720698 0.682172
917 4 0.406547 0.0402278 0.710416
916 2 0.427229 0.0592523 0.719764
918 4 0.44791 0.0782767 0.729112
2511 4 0.468924 0.0156467 0.737011
2270 4 0.45561 0.998828 0.730434
1166 4 0.00158538 0.148684 0.690052
3123 4 0.0216162 0.157082 0.683593
3131 4 0.0393269 0.0905629 0.722038
2458 2 0.0755462 0.118729 0.739028
2459 4 0.0598258 0.0967257 0.729537
2460 4 0.0912666 0.140733 0.748519
223 3 0.361342 0.105586 0.698224
221 1 0.362227 0.0844648 0.701234
225 3 0.385264 0.0861457 0.705091
4227 4 0.402781 0.0938153 0.694727
4225 2 0.419565 0.117654 0.69565
4226 4 0.436349 0.141494 0.696574
726 4 0.454754 0.152805 0.686348
724 2 0.481152 0.161452 0.690847
4163 4 0.464835 0.0857074 0.743133
3121 2 0.0396807 0.176084 0.671319
375 4 0.0646647 0.208589 0.673825
3019 2 0.0675348 0.241985 0.728656
3021 4 0.0731789 0.223399 0.73931
1395 4 0.0904776 0.217905 0.741174
1393 2 0.111651 0.217442 0.728174
1394 4 0.132824 0.216979 0.715175
3011 4 0.148786 0.233153 0.707173
3185 4 0.463221 0.18337 0.74547
894 4 0.0174904 0.283326 0.669133
1399 2 0.00947232 0.31971 0.671761
1205 4 0.0112444 0.299154 0.720407
3057 4 0.00828159 0.260846 0.731294
893 4 0.0207282 0.269576 0.716439
892 2 0.0191093 0.276451 0.692786
3380 4 0.0659625 0.333508 0.693532
1401 4 0.0225933 0.325094 0.693549
2289 4 0.0779151 0.272532 0.706767
3020 4 0.0618906 0.260571 0.718001
2288 4 0.122042 0.313871 0.709512
2287 2 0.0999787 0.293202 0.708139
3010 2 0.165672 0.256896 0.708991
3012 4 0.182558 0.280639 0.71081
555 4 0.201843 0.296395 0.736875
553 2 0.222522 0.301846 0.721024
554 4 0.243202 0.307298 0.705173
1130 4 0.24965 0.254571 0.678832
3169 2 0.306033 0.323285 0.73778
3171 4 0.304881 0.315319 0.71416
2742 4 0.309055 0.311927 0.695508
2740 2 0.329925 0.328777 0.683811
3324 4 0.453946 0.275504 0.662753
3247 2 0.400751 0.292649 0.748589
2607 4 0.432933 0.325156 0.735608
3248 4 0.425966 0.306 0.74176
3008 4 0.471415 0.275591 0.671727
1282 2 0.0151959 0.37435 0.694021
1283 4 0.0307152 0.374221 0.674457
3379 2 0.0917584 0.342593 0.700422
3350 4 0.0577253 0.367059 0.735037
2914 2 0.10439 0.410749 0.727136
2915 4 0.0804849 0.413239 0.727538
3381 4 0.117554 0.351678 0.707313
2916 4 0.128295 0.408259 0.726734
566 4 0.239295 0.394909 0.677914
2741 4 0.350794 0.345628 0.672114
2010 4 0.43259 0.420116 0.723854
991 2 0.464004 0.409044 0.706822
992 4 0.475558 0.398846 0.69009
2605 2 0.437102 0.347191 0.746566
1335 4 0.0333351 0.457646 0.669766
1333 2 0.0467928 0.459219 0.691161
1334 4 0.0602505 0.460792 0.712555
2590 2 0.0716958 0.455632 0.737961
2592 4 0.0813856 0.469324 0.717497
1112 4 0.210204 0.425488 0.680479
1111 2 0.229755 0.441854 0.694042
1113 4 0.249306 0.458221 0.707605
1905 4 0.262676 0.467937 0.721953
1903 2 0.268756 0.461256 0.744427
2008 2 0.430775 0.428385 0.746906
993 4 0.45245 0.419243 0.723553
2244 4 0.49355 0.443577 0.692976
1955 4 0.489868 0.457438 0.703909
3412 2 0.0224578 0.0254552 0.76752
1065 4 0.068834 0.0388918 0.776405
3413 4 0.047542 0.0349781 0.776341
1063 2 0.0908445 0.0343884 0.782733
1064 4 0.112855 0.0298851 0.789061
3197 4 0.130604 0.0262152 0.788996
3196 2 0.1483 0.0472159 0.798681
3198 4 0.165996 0.0682166 0.808366
1260 4 0.211238 0.0803727 0.756431
2258 4 0.221595 0.0221601 0.750713
3293 4 0.207708 0.0567459 0.805188
1085 4 0.230784 0.0800132 0.757958
1084 2 0.254823 0.0794047 0.763912
3292 2 0.221545 0.0810336 0.809218
1902 4 0.31645 0.0167797 0.825668
1900 2 0.339014 0.0261327 0.812255
3096 4 0.296313 0.00913039 0.825163
1901 4 0.361579 0.0354856 0.798843
3415 2 0.398418 0.0623468 0.795942
3416 4 0.408445 0.0441473 0.79511
3386 4 0.429251 0.0511178 0.792087
3417 4 0.388391 0.0805463 0.796774
3385 2 0.45573 0.0562985 0.792425
3387 4 0.48221 0.0614793 0.792762
4193 4 0.502245 0.0638097 0.801141
2510 4 0.449299 0.0124858 0.783406
2509 2 0.459111 0.0140663 0.760208
4139 4 0.0811769 0.153186 0.800731
4138 2 0.0598636 0.132931 0.794817
4140 4 0.0385503 0.112676 0.788903
641 4 0.0678596 0.16217 0.811715
3003 4 0.103 0.167133 0.799895
1132 2 0.177572 0.156443 0.767733
4500 4 0.172467 0.11964 0.764879
1133 4 0.186285 0.138176 0.761356
4498 2 0.172101 0.103146 0.782665
4499 4 0.171734 0.0866511 0.80045
1086 4 0.278863 0.0787961 0.769867
3294 4 0.235383 0.105321 0.813248
88 3 0.289852 0.0923527 0.785057
87 3 0.315457 0.125981 0.773839
2033 4 0.317803 0.103638 0.825573
90 3 0.317818 0.114401 0.808646
86 1 0.313127 0.107716 0.786975
89 3 0.329304 0.0982311 0.77967
2276 4 0.349224 0.0976776 0.775861
2275 2 0.372516 0.0985193 0.785716