ITEM: TIMESTEP
2237000
ITEM: NUMBER OF ATOMS
1600
ITEM: BOX BOUNDS xy xz yz pp pp pp
-1.0537521600000163e+01 6.9325799999999997e+00 -3.6049416000001635e+00
-6.9325799999999997e+00 6.9325799999999997e+00 0.0000000000000000e+00
-6.9325799999999997e+00 6.9325799999999997e+00 0.0000000000000000e+00
ITEM: ATOMS id type xs ys zs
1082 2 0.0181253 0.189219 0.0930613
1084 4 0.0550907 0.202204 0.0949632
230 3 0.0848353 0.19986 0.0904055
226 1 0.107142 0.221865 0.0725296
227 3 0.102762 0.213819 0.0404247
1036 4 0.131005 0.213172 0.0344578
228 3 0.139392 0.221816 0.0814233
1306 4 0.151446 0.217718 0.0565339
1305 4 0.225348 0.233269 0.0654651
1304 2 0.188397 0.225494 0.0609995
913 4 0.205014 0.133021 0.99596
911 2 0.232009 0.163649 0.99551
1003 4 0.252566 0.236944 0.0725065
912 4 0.259004 0.194277 0.99506
1384 4 0.389417 0.147723 0.0666235
1382 2 0.425938 0.153012 0.072726
65 3 0.464578 0.224242 0.0150453
463 4 0.476889 0.23367 0.0407481
1383 4 0.46246 0.158302 0.0788285
945 4 0.486259 0.164094 0.0625384
461 2 0.492767 0.244261 0.0726238
1066 4 0.0245604 0.32063 0.0143184
1064 2 0.0359587 0.31616 0.0478247
1065 4 0.0473571 0.31169 0.081331
229 3 0.102037 0.252362 0.0769947
1389 4 0.221045 0.303504 0.0677417
1388 2 0.248638 0.313137 0.0917874
1390 4 0.276231 0.322771 0.115833
1001 2 0.285109 0.256537 0.0852778
1431 4 0.304599 0.323521 0.119195
1430 2 0.340535 0.340742 0.115416
1002 4 0.317653 0.27613 0.0980491
1105 4 0.348329 0.281964 0.101132
1432 4 0.376472 0.357964 0.111636
873 4 0.401125 0.367752 0.128925
1103 2 0.384395 0.286551 0.0931768
1104 4 0.42046 0.291137 0.0852219
267 4 0.447105 0.30806 0.0873229
266 2 0.472904 0.337147 0.0762829
961 4 0.501734 0.292225 0.994986
268 4 0.498703 0.366233 0.0652428
1374 4 0.365844 0.501923 0.0773787
1373 2 0.342522 0.496392 0.105503
872 2 0.436794 0.383923 0.121933
900 4 0.470639 0.474651 0.091752
899 2 0.494457 0.476227 0.119138
874 4 0.472463 0.400095 0.11494
83 3 0.192378 0.0118182 0.179577
82 3 0.203147 0.0356718 0.131114
81 1 0.193787 0.00642041 0.146669
834 4 0.365707 0.0144078 0.213216
963 4 0.381163 0.0185637 0.237456
833 2 0.32987 0.00057353 0.204867
962 2 0.415182 0.0338881 0.250246
605 2 0.0185581 0.187275 0.203814
607 4 0.0527966 0.209364 0.203068
721 4 0.0798334 0.21594 0.215216
719 2 0.116236 0.223527 0.207635
745 4 0.178165 0.223529 0.203407
720 4 0.152639 0.231114 0.200054
743 2 0.214558 0.230318 0.210841
744 4 0.250952 0.237107 0.218275
652 4 0.278172 0.245992 0.205358
935 2 0.421764 0.16946 0.219911
937 4 0.435995 0.171746 0.186605
741 4 0.462632 0.165607 0.194531
151 1 0.11605 0.362781 0.215507
152 3 0.143113 0.359515 0.197873
153 3 0.0872472 0.344219 0.201345
154 3 0.118961 0.352234 0.24676
337 4 0.262815 0.33236 0.235628
625 4 0.233239 0.320601 0.237359
335 2 0.299329 0.343746 0.228922
650 2 0.313593 0.265229 0.207617
651 4 0.349014 0.284465 0.209876
336 4 0.335843 0.355132 0.222216
1044 4 0.360264 0.362649 0.239261
155 3 0.115282 0.394373 0.215793
1060 4 0.155432 0.380769 0.149504
1437 4 0.166373 0.455081 0.238816
1059 4 0.193655 0.449092 0.138757
1058 2 0.174543 0.414931 0.144131
1375 4 0.319201 0.490861 0.133628
282 4 0.289778 0.488669 0.135918
281 2 0.253497 0.475516 0.129016
283 4 0.217217 0.462362 0.122114
1200 4 0.310168 0.417159 0.205285
1426 4 0.304359 0.421079 0.2307
1201 4 0.379027 0.429367 0.178112
1199 2 0.344597 0.423263 0.191698
1043 2 0.391523 0.389001 0.236048
405 4 0.387747 0.458281 0.180297
404 2 0.404948 0.488727 0.197247
1045 4 0.422782 0.415353 0.232835
1600 4 0.999878 0.0190464 0.283999
1598 2 0.034091 0.0246174 0.297994
1599 4 0.0683042 0.0301885 0.311988
238 3 0.0349447 0.0757545 0.353648
237 3 0.0835987 0.0684235 0.371769
1127 2 0.123559 0.0323896 0.302021
1128 4 0.0869189 0.0210484 0.295959
1129 4 0.1602 0.0437307 0.308083
948 4 0.184106 0.0665153 0.309152
710 2 0.259798 0.0111045 0.365552
949 4 0.240941 0.0571557 0.34917
947 2 0.212524 0.0618355 0.329161
711 4 0.261556 0.043235 0.350567
768 4 0.472919 0.0723848 0.26838
964 4 0.4492 0.0492125 0.263037
936 4 0.407534 0.167174 0.253217
751 4 0.00921389 0.253916 0.29662
1070 2 0.00946816 0.338175 0.256754
1072 4 0.035775 0.333986 0.279826
724 4 0.0263687 0.348032 0.299376
722 2 0.0381449 0.364348 0.33064
749 2 0.0397617 0.27607 0.310593
1131 4 0.095223 0.289087 0.329546
750 4 0.0703096 0.298224 0.324567
1130 2 0.126942 0.290028 0.311969
1132 4 0.158662 0.290969 0.294392
623 2 0.209743 0.31743 0.265223
624 4 0.186247 0.314259 0.293088
346 4 0.287628 0.340189 0.3116
345 4 0.349047 0.320211 0.330718
344 2 0.318337 0.3302 0.321159
351 4 0.376819 0.333837 0.339011
350 2 0.413071 0.349294 0.334261
126 1 0.496023 0.35861 0.338139
130 3 0.475204 0.330313 0.347984
352 4 0.449323 0.364752 0.32951
928 4 0.00763776 0.415386 0.2669
723 4 0.0499211 0.380664 0.361904
926 2 0.0443183 0.429664 0.270022
927 4 0.0809988 0.443942 0.273144
1436 2 0.134299 0.441715 0.256249
1438 4 0.102224 0.428348 0.273682
1425 4 0.259656 0.401267 0.287666
1424 2 0.282007 0.411173 0.259183
1216 4 0.359627 0.469769 0.268133
1429 4 0.35478 0.503987 0.360054
1215 4 0.352326 0.489246 0.336469
985 4 0.403623 0.444997 0.320813
1214 2 0.355977 0.479507 0.302301
195 3 0.502346 0.448455 0.264927
983 2 0.437996 0.466778 0.319467
129 3 0.478639 0.382292 0.33592
984 4 0.472369 0.488559 0.31812
239 3 0.035679 0.0345808 0.387976
236 1 0.0509505 0.0662882 0.379903
240 3 0.0500626 0.0859665 0.405507
1341 4 0.489042 0.0786445 0.473815
784 4 0.469499 0.067141 0.494314
402 4 0.439918 0.129682 0.473284
782 2 0.45122 0.0929126 0.49782
1015 4 0.010001 0.196876 0.472656
1013 2 0.0287025 0.183604 0.497827
102 3 0.166034 0.195207 0.468965
1353 4 0.164166 0.194349 0.441317
101 1 0.153851 0.210528 0.493553
103 3 0.134932 0.229843 0.480372
1354 4 0.16962 0.149492 0.387498
1352 2 0.166893 0.17192 0.414408
757 4 0.167802 0.130101 0.50983
1143 4 0.307423 0.235674 0.461416
1142 2 0.290864 0.225077 0.493001
417 4 0.320929 0.156015 0.485378
1460 2 0.437994 0.23461 0.489875
361 4 0.44798 0.239311 0.391035
403 4 0.437539 0.184724 0.429769
401 2 0.438728 0.157203 0.451527
1462 4 0.405142 0.210366 0.492685
10 3 0.497182 0.212083 0.388007
7 3 0.467988 0.241729 0.413634
6 1 0.486468 0.219436 0.417425
9 3 0.466607 0.191912 0.431601
294 4 0.0300684 0.285544 0.490369
295 4 0.0854232 0.301805 0.442167
293 2 0.0577458 0.293675 0.466268
1572 4 0.369811 0.36631 0.435497
1434 4 0.315373 0.261134 0.447316
583 4 0.278686 0.298859 0.478598
1433 2 0.35251 0.267352 0.447001
359 2 0.425764 0.25717 0.407162
360 4 0.403549 0.27503 0.423289
1435 4 0.389648 0.273569 0.446687
1461 4 0.470846 0.258853 0.487064
1427 2 0.358098 0.478071 0.383025
428 2 0.355299 0.482239 0.479236
1573 4 0.365045 0.434366 0.427391
429 4 0.341389 0.446562 0.476751
1571 2 0.367428 0.400338 0.431444
1428 4 0.361416 0.452155 0.405997
859 4 0.00667726 0.051544 0.531914
857 2 0.0430565 0.0666728 0.536261
858 4 0.0794358 0.0818016 0.540608
756 4 0.108653 0.0819526 0.536462
755 2 0.138227 0.106027 0.523146
847 4 0.304639 0.992971 0.524029
845 2 0.336891 0.992331 0.539811
472 4 0.297051 0.00351169 0.619472
349 4 0.324767 0.0147127 0.630071
783 4 0.432941 0.118684 0.501325
1014 4 0.0474039 0.170331 0.522998
367 4 0.0596427 0.183548 0.546798
365 2 0.0937027 0.178296 0.542565
366 4 0.127763 0.173045 0.538332
104 3 0.134179 0.187438 0.513551
105 3 0.179828 0.22898 0.510578
930 4 0.27158 0.205487 0.552255
1144 4 0.274306 0.21448 0.524586
929 2 0.286196 0.234028 0.57309
416 2 0.351398 0.180611 0.496146
418 4 0.381867 0.205207 0.506915
954 4 0.0309607 0.242684 0.530424
156 1 0.0169889 0.322019 0.531399
157 3 0.0175155 0.311338 0.562634
160 3 0.0449654 0.345996 0.525807
158 3 0.0159424 0.296435 0.510567
953 2 0.0674451 0.255792 0.536309
1565 2 0.105605 0.357944 0.544169
1567 4 0.136835 0.361642 0.56342
1566 4 0.0743749 0.354246 0.524919
166 1 0.150094 0.352626 0.610012
169 3 0.159078 0.357499 0.577815
955 4 0.10393 0.2689 0.542193
702 4 0.132824 0.276875 0.53623
170 3 0.12902 0.322871 0.613961
379 4 0.108883 0.298244 0.610041
168 3 0.134818 0.376194 0.620323
701 2 0.168921 0.293795 0.53931
703 4 0.205018 0.310714 0.542391
167 3 0.178352 0.354661 0.628113
582 4 0.23357 0.317832 0.526939
581 2 0.256128 0.308346 0.502769
931 4 0.300812 0.262569 0.593925
1522 4 0.310185 0.265906 0.621894
1020 4 0.500575 0.339255 0.617075
995 2 0.471912 0.371554 0.536113
997 4 0.440881 0.369408 0.555276
785 2 0.00721512 0.0799032 0.678038
787 4 0.0424742 0.0996043 0.680068
310 4 0.0654711 0.115837 0.697206
308 2 0.0878852 0.129509 0.724736
439 4 0.28064 0.0377616 0.712675
437 2 0.268391 0.00795486 0.732468
1245 4 0.299508 0.0575484 0.69597
1244 2 0.330988 0.0815792 0.705261
1246 4 0.362469 0.10561 0.714553
347 2 0.360411 0.021235 0.640339
353 2 0.411284 0.107437 0.738204
348 4 0.396055 0.0277574 0.650607
55 3 0.456068 0.00583238 0.626682
53 3 0.426217 0.033737 0.654847
51 1 0.449336 0.0153525 0.65674
54 3 0.478415 0.0331416 0.671075
975 4 0.0264409 0.216048 0.687304
5 3 0.0566017 0.224487 0.685314
1 1 0.0819134 0.236282 0.706407
2 3 0.0850602 0.212054 0.727009
4 3 0.111604 0.247359 0.689719
1239 4 0.136983 0.243987 0.701346
1238 2 0.17181 0.240084 0.70056
1240 4 0.206637 0.236181 0.699774
354 4 0.39166 0.122851 0.715746
596 2 0.0143407 0.259375 0.742379
1394 2 0.0539216 0.336136 0.68779
1396 4 0.0670876 0.369866 0.699765
3 3 0.0750215 0.261159 0.724366
1395 4 0.0407555 0.302405 0.675816
597 4 0.0472473 0.252435 0.735491
378 4 0.0517439 0.28779 0.656204
377 2 0.0803137 0.293017 0.633122
502 4 0.235503 0.244438 0.713411
1492 4 0.260715 0.345577 0.672062
1490 2 0.227856 0.341838 0.65564
1491 4 0.194997 0.338098 0.639217
222 3 0.269758 0.347504 0.698994
501 4 0.309938 0.259374 0.712368
500 2 0.272721 0.251906 0.712889
1520 2 0.316891 0.298015 0.638227
221 1 0.296114 0.33453 0.705965
224 3 0.318122 0.340106 0.680155
225 3 0.311736 0.34875 0.733065
1521 4 0.323597 0.330125 0.654559
223 3 0.284102 0.301613 0.710916
1500 4 0.336412 0.278004 0.710203
1499 2 0.373227 0.289223 0.715252
1596 4 0.477858 0.341274 0.635696
1501 4 0.410043 0.300443 0.720301
1207 4 0.434378 0.323402 0.724488
1205 2 0.47122 0.329635 0.719901
1595 2 0.474802 0.374184 0.644781
15 3 0.0765983 0.425561 0.700404
12 3 0.120635 0.413309 0.72315
669 4 0.141828 0.433226 0.649408
668 2 0.162757 0.467158 0.64781
11 1 0.102785 0.412393 0.695049
13 3 0.123526 0.42988 0.671557
14 3 0.091242 0.380528 0.685357
265 4 0.331486 0.372924 0.735125
1106 2 0.408158 0.365428 0.716137
1108 4 0.408824 0.363544 0.680143
1597 4 0.471746 0.407094 0.653866
1372 4 0.491512 0.42577 0.667443
299 2 0.0103151 0.066019 0.862994
92 3 0.00855181 0.0256612 0.795059
1471 4 0.0341726 0.0219669 0.785597
300 4 0.0344834 0.0853975 0.83935
1117 4 0.0613276 0.0966122 0.829103
1115 2 0.08351 0.117287 0.804802
1469 2 0.0700616 0.0395797 0.782437
1138 4 0.133624 0.0507736 0.781026
1470 4 0.105951 0.0571925 0.779277
1136 2 0.166952 0.0695002 0.792853
1137 4 0.20028 0.0882268 0.804679
1347 4 0.2297 0.102865 0.804816
1346 2 0.266886 0.113991 0.805596
1255 4 0.244942 0.0433392 0.871144
1348 4 0.304073 0.125118 0.806376
1253 2 0.280881 0.0448646 0.865243
1112 2 0.354392 0.00697407 0.856863
1114 4 0.338211 0.034237 0.8529
1198 4 0.403836 0.998661 0.762711
1254 4 0.316821 0.0463899 0.859341
1197 4 0.422337 0.0690716 0.778339
1196 2 0.413087 0.0338664 0.770525
355 4 0.430909 0.0920228 0.760661
309 4 0.110299 0.143182 0.752265
1116 4 0.105692 0.137962 0.780501
905 2 0.334287 0.240803 0.853019
906 4 0.299312 0.24426 0.851744
576 4 0.330468 0.121141 0.8017
575 2 0.364075 0.132892 0.816832
577 4 0.397682 0.144643 0.831965
907 4 0.369261 0.237346 0.854293
586 4 0.280627 0.245707 0.873073
843 4 0.403764 0.386924 0.772056
251 2 0.467246 0.347433 0.861184
1528 4 0.454417 0.274043 0.875291
1101 4 0.0829352 0.448406 0.809186
1100 2 0.0761151 0.478316 0.7953
514 4 0.0956659 0.441569 0.785094
262 4 0.179219 0.434926 0.772842
513 4 0.153943 0.412408 0.781361
512 2 0.124805 0.426989 0.783228
260 2 0.214743 0.448417 0.78251
261 4 0.250267 0.461908 0.792177
554 2 0.309123 0.492585 0.797005
556 4 0.272253 0.485866 0.792345
264 4 0.349206 0.382292 0.804985
555 4 0.345993 0.499304 0.801665
263 2 0.340346 0.377608 0.770055
1107 4 0.407493 0.367312 0.752131
252 4 0.453993 0.376476 0.856272
842 2 0.419857 0.385008 0.804018
844 4 0.43595 0.383092 0.83598
1357 4 0.0161232 0.181117 0.960783
1034 2 0.135424 0.211296 0.998781
137 3 0.159708 0.231906 0.952277
1035 4 0.139843 0.209419 0.963105
140 3 0.15367 0.233503 0.898861
139 3 0.199816 0.222805 0.919849
136 1 0.17608 0.240312 0.923488
1508 2 0.313236 0.232083 0.979969
1510 4 0.288141 0.204732 0.995101
1281 4 0.350792 0.199839 0.932941
1280 2 0.382525 0.205558 0.951726
64 3 0.43883 0.231842 0.968975
1282 4 0.414259 0.211277 0.970511
61 1 0.467647 0.24167 0.987243
62 3 0.494071 0.236653 0.96973
1141 4 0.00474889 0.296653 0.970051
1139 2 0.0344195 0.283038 0.973535
492 4 0.00402721 0.356897 0.911419
1140 4 0.0640902 0.269424 0.977019
585 4 0.22177 0.247348 0.914118
325 4 0.220345 0.27125 0.928895
138 3 0.191416 0.273072 0.923944
323 2 0.240519 0.300755 0.945438
324 4 0.260693 0.330259 0.96198
584 2 0.251198 0.246527 0.893596
1509 4 0.33833 0.259434 0.964837
619 4 0.285001 0.344022 0.973799
617 2 0.317574 0.366377 0.964599
253 4 0.480498 0.31839 0.866097
63 3 0.473555 0.274275 0.994327
1526 2 0.484036 0.283184 0.89708
491 2 0.0398686 0.370092 0.92013
493 4 0.0757099 0.383287 0.92884
415 4 0.129993 0.424373 0.994105
414 4 0.0871497 0.373763 0.952158
413 2 0.108571 0.399068 0.973131
855 4 0.389938 0.480693 0.900361
618 4 0.350146 0.388732 0.955399
1326 4 0.0808799 0.51432 0.0774538
1325 2 0.0984421 0.516259 0.0457408
1530 4 0.0979719 0.516986 0.102385
1048 4 0.144253 0.536919 0.00980241
1327 4 0.116004 0.518198 0.0140277
1046 2 0.17927 0.547438 0.997653
1316 2 0.319178 0.572908 0.117229
1318 4 0.351676 0.576803 0.100085
1266 4 0.381974 0.583901 0.0991851
713 2 0.358653 0.517903 0.0289997
715 4 0.35305 0.521326 0.0643063
1265 2 0.418033 0.585211 0.103973
1267 4 0.454091 0.586521 0.108761
639 4 0.480302 0.584655 0.0977995
356 2 0.307592 0.709881 0.101699
358 4 0.335961 0.698837 0.0874671
357 4 0.279224 0.720924 0.11593
1401 4 0.363988 0.701049 0.0941714
1400 2 0.385278 0.700032 0.0652777
1402 4 0.406569 0.699014 0.0363841
208 3 0.423572 0.724136 0.02717
882 4 0.482074 0.682735 0.0637171
1486 4 0.285371 0.761584 0.0657765
1484 2 0.32167 0.776534 0.0606332
1485 4 0.357968 0.791484 0.0554899
1023 4 0.383364 0.805075 0.0425734
1022 2 0.418009 0.813664 0.0293
1024 4 0.452654 0.822254 0.0160266
78 3 0.481743 0.836926 0.0215972
1377 4 0.0481685 0.994135 0.107406
1376 2 0.0110192 0.984592 0.104659
1011 4 0.0783609 0.00581321 0.117325
1010 2 0.114377 0.00564106 0.117167
1012 4 0.150394 0.00546892 0.11701
808 4 0.281382 0.905108 0.0235671
806 2 0.252092 0.905562 0.00270024
667 4 0.306033 0.926835 0.0195965
665 2 0.336109 0.935795 0.0408171
666 4 0.366186 0.944756 0.0620377
80 3 0.495246 0.886935 0.000435322
1405 4 0.0039789 0.559486 0.140838
1403 2 0.0258241 0.577703 0.166835
1404 4 0.0476693 0.595921 0.192833
676 4 0.045122 0.610331 0.217491
674 2 0.041333 0.584711 0.242706
1529 2 0.127119 0.526354 0.124727
1531 4 0.156267 0.535723 0.147069
289 4 0.184651 0.530254 0.152642
1317 4 0.286679 0.569013 0.134374
288 4 0.258087 0.557489 0.145068
287 2 0.221369 0.543871 0.148855
406 4 0.422148 0.519172 0.214197
688 4 0.444167 0.706761 0.202219
686 2 0.435916 0.734145 0.219948
112 3 0.00887629 0.859667 0.179835
549 4 0.446213 0.803863 0.233456
548 2 0.446681 0.834468 0.215915
550 4 0.447149 0.865073 0.198373
687 4 0.427665 0.761529 0.237677
876 4 0.0636594 0.915012 0.219091
875 2 0.0408282 0.899823 0.192385
877 4 0.0179969 0.884633 0.165679
657 4 0.0572845 0.926828 0.245149
84 3 0.162655 0.989811 0.135484
85 3 0.21657 0.989196 0.140426
910 4 0.236089 0.906925 0.148826
835 4 0.294034 0.986739 0.196517
909 4 0.28051 0.963957 0.181592
908 2 0.258299 0.935441 0.165209
1540 4 0.431126 0.913051 0.147932
1538 2 0.432091 0.910154 0.183836
1539 4 0.433057 0.907257 0.21974
1077 4 0.448188 0.910317 0.124678
1076 2 0.485392 0.9205 0.123072
182 3 0.459996 0.920472 0.231165
675 4 0.0375439 0.55909 0.267922
1300 4 0.48917 0.509034 0.337094
205 3 0.0159276 0.69262 0.281399
1324 4 0.0431583 0.693987 0.272121
1322 2 0.0594827 0.700457 0.304435
1323 4 0.0758072 0.706927 0.336748
1242 4 0.0769708 0.684711 0.353961
1337 2 0.1798 0.714859 0.317193
1331 2 0.1232 0.635028 0.352095
1339 4 0.166938 0.680169 0.326265
1333 4 0.153622 0.653549 0.334723
1477 4 0.468489 0.710683 0.291881
1475 2 0.500982 0.708965 0.306457
1290 4 0.022443 0.818203 0.316697
885 4 0.0969819 0.841352 0.270234
884 2 0.125035 0.827038 0.279501
886 4 0.153089 0.812723 0.288768
1338 4 0.192663 0.749549 0.308121
32 3 0.20415 0.77769 0.300028
31 1 0.19503 0.797279 0.322721
33 3 0.176927 0.778144 0.346834
35 3 0.176022 0.815044 0.308403
34 3 0.223591 0.817547 0.335629
489 4 0.243439 0.840198 0.343584
488 2 0.278936 0.842489 0.352368
490 4 0.314432 0.84478 0.361151
610 4 0.333883 0.826323 0.358507
1330 4 0.448437 0.789416 0.337526
1328 2 0.464336 0.808575 0.36606
1164 4 0.420008 0.866545 0.360706
656 2 0.0286874 0.930985 0.265209
658 4 9.02885e-05 0.935143 0.285268
1163 2 0.44547 0.886453 0.338511
1165 4 0.470933 0.906362 0.316317
181 1 0.478643 0.935582 0.256772
184 3 0.488782 0.968415 0.250495
185 3 0.459718 0.930225 0.284026
1558 4 0.482758 0.889046 0.298807
272 2 0.00478995 0.58637 0.45965
1309 4 0.0794528 0.606377 0.396013
1308 4 0.00901887 0.604892 0.378899
660 4 0.0672094 0.625015 0.45814
1307 2 0.0442358 0.605635 0.387456
273 4 0.0381042 0.609782 0.462968
659 2 0.089888 0.604026 0.466406
1332 4 0.0927788 0.616507 0.369468
97 3 0.192916 0.579465 0.479218
99 3 0.137787 0.574206 0.483759
661 4 0.112567 0.583037 0.474671
298 4 0.199551 0.569767 0.455435
96 1 0.168778 0.588995 0.496581
98 3 0.174423 0.622254 0.494395
1321 4 0.289591 0.605331 0.420719
297 4 0.272187 0.598444 0.44398
296 2 0.235869 0.584105 0.449707
1264 4 0.387457 0.609302 0.48998
1263 4 0.356821 0.539227 0.478273
1262 2 0.372139 0.574265 0.484126
430 4 0.36921 0.517916 0.481721
1319 2 0.326481 0.618864 0.418774
527 2 0.0225427 0.696238 0.473809
1243 4 0.0609661 0.692394 0.423378
529 4 0.0450619 0.702502 0.44509
1241 2 0.0689685 0.688553 0.388669
1204 4 0.238296 0.676329 0.495623
1203 4 0.260442 0.667545 0.428332
1202 2 0.249369 0.671937 0.461978
1320 4 0.36337 0.632397 0.416829
1080 4 0.437073 0.7082 0.473384
1279 4 0.440359 0.696779 0.447791
1277 2 0.416836 0.670095 0.430089
1278 4 0.393313 0.643411 0.412386
608 2 0.357635 0.850151 0.379109
1329 4 0.480235 0.827733 0.394595
898 4 0.409797 0.828678 0.470873
896 2 0.395002 0.796433 0.485692
1148 2 0.163955 0.929919 0.487219
1149 4 0.173145 0.937211 0.452663
918 4 0.177405 0.964167 0.445877
917 2 0.208347 0.969479 0.425918
712 4 0.25804 0.978974 0.380537
919 4 0.239289 0.97479 0.405959
609 4 0.381387 0.873979 0.399712
304 4 0.485219 0.932204 0.452664
892 4 0.0284963 0.507811 0.611714
248 3 0.0636789 0.60429 0.566295
247 3 0.0164879 0.61119 0.544129
1585 4 0.0563515 0.514671 0.612122
100 3 0.170291 0.580128 0.527975
816 4 0.196988 0.579003 0.536197
815 2 0.222931 0.589932 0.561639
817 4 0.248874 0.60086 0.587081
1365 4 0.277335 0.613859 0.591044
604 4 0.00999531 0.70852 0.524026
376 4 0.00895765 0.726288 0.612453
374 2 0.0461947 0.734404 0.613294
250 3 0.037379 0.639294 0.587981
246 1 0.0453167 0.62655 0.559877
249 3 0.0634973 0.650912 0.540227
867 4 0.0890932 0.651525 0.556222
1546 4 0.0752604 0.639542 0.631988
866 2 0.122151 0.674457 0.562585
868 4 0.155208 0.697388 0.568947
775 4 0.182236 0.706729 0.554664
773 2 0.201341 0.686761 0.537018
1364 2 0.311262 0.629386 0.603927
774 4 0.220446 0.666793 0.519372
1574 2 0.2719 0.710038 0.604555
1575 4 0.297897 0.727399 0.58137
1576 4 0.245903 0.692677 0.62774
1366 4 0.345189 0.644912 0.616811
1578 4 0.373051 0.663025 0.608397
1577 2 0.386877 0.689957 0.585406
1579 4 0.400704 0.716889 0.562415
1081 4 0.397037 0.714039 0.532044
1079 2 0.417055 0.711119 0.502714
375 4 0.0834317 0.742519 0.614135
1581 4 0.0625483 0.827493 0.628931
1580 2 0.0995854 0.839593 0.626597
1563 4 0.111743 0.75337 0.607264
1562 2 0.142543 0.771564 0.59024
1564 4 0.173344 0.789757 0.573217
765 4 0.18043 0.789396 0.545602
764 2 0.214227 0.784359 0.539076
766 4 0.248024 0.779323 0.532549
1260 4 0.2147 0.746402 0.603201
939 4 0.272895 0.794957 0.544685
938 2 0.301604 0.815279 0.563089
879 4 0.343156 0.847545 0.604121
940 4 0.330312 0.835601 0.581493
878 2 0.373909 0.864676 0.62188
897 4 0.380207 0.764187 0.50051
537 4 0.0353287 0.948966 0.537106
536 2 0.0670723 0.956878 0.55599
862 4 0.00583254 0.943897 0.529289
538 4 0.0988159 0.96479 0.574873
1555 4 0.123291 0.960518 0.586714
1150 4 0.154765 0.922627 0.521774
1553 2 0.160224 0.969921 0.591473
1554 4 0.197156 0.979323 0.596233
470 2 0.260017 0.993871 0.615548
471 4 0.222983 0.984231 0.611624
819 4 0.215687 0.883849 0.614083
967 4 0.384154 0.971649 0.562462
965 2 0.406512 0.981135 0.591007
846 4 0.369144 0.991692 0.555592
966 4 0.42887 0.990622 0.619552
1119 4 0.0226311 0.591802 0.636844
1118 2 0.0152368 0.621532 0.650548
1583 2 0.0795967 0.523291 0.64014
887 2 0.0862472 0.522943 0.725654
888 4 0.107501 0.526073 0.69611
1584 4 0.102842 0.531911 0.668158
670 4 0.183686 0.50109 0.646211
850 4 0.211588 0.516946 0.640781
848 2 0.23707 0.534009 0.66458
849 4 0.262552 0.551072 0.688378
629 2 0.0158472 0.673459 0.709194
1544 2 0.107895 0.634013 0.642427
630 4 0.0411696 0.692392 0.732126
1274 2 0.0883033 0.73819 0.720913
1276 4 0.0613266 0.708885 0.712729
1545 4 0.14053 0.628485 0.652866
916 4 0.154194 0.653286 0.640446
914 2 0.186308 0.673965 0.627877
269 2 0.224995 0.749813 0.730148
915 4 0.218423 0.694644 0.615308
1160 2 0.0412323 0.866007 0.686047
1162 4 0.00723764 0.871218 0.690915
1582 4 0.136622 0.851692 0.624264
820 4 0.153049 0.845419 0.644961
1275 4 0.11528 0.767495 0.729097
621 4 0.0808643 0.844424 0.702852
1161 4 0.0752269 0.860796 0.681179
620 2 0.0986104 0.846271 0.734458
818 2 0.184368 0.864634 0.629522
270 4 0.220454 0.752301 0.694547
1261 4 0.220736 0.769041 0.67168
1259 2 0.217718 0.757721 0.63744
1542 4 0.272201 0.837382 0.720025
1541 2 0.302042 0.843957 0.741611
438 4 0.256142 0.978148 0.752261
419 2 0.403659 0.968327 0.717282
421 4 0.387838 0.973336 0.748622
880 4 0.404662 0.881807 0.639639
420 4 0.41948 0.963317 0.685943
52 3 0.436301 0.988541 0.675316
442 4 0.485423 0.929286 0.735938
1102 4 0.069295 0.508225 0.781415
889 4 0.0649932 0.519812 0.755198
1007 2 0.398174 0.537697 0.820367
1008 4 0.372097 0.519078 0.797944
1009 4 0.424252 0.556316 0.842791
22 3 0.428219 0.579108 0.860023
24 3 0.470769 0.555967 0.866667
25 3 0.476067 0.607651 0.881201
433 4 0.0808645 0.704743 0.832578
431 2 0.117905 0.717253 0.834093
271 4 0.229536 0.747325 0.765748
432 4 0.154946 0.729763 0.835607
1180 4 0.132514 0.852832 0.790147
622 4 0.116356 0.848118 0.766063
1178 2 0.146681 0.826447 0.802879
1179 4 0.160848 0.800061 0.81561
1543 4 0.331882 0.850533 0.763196
426 4 0.255456 0.761904 0.777188
425 2 0.278048 0.77738 0.803949
73 3 0.363268 0.835615 0.855982
993 4 0.290171 0.79515 0.8604
71 1 0.341766 0.805088 0.853981
427 4 0.300639 0.792857 0.83071
74 3 0.329387 0.799453 0.822851
72 3 0.359069 0.782547 0.861471
663 4 0.387248 0.801022 0.863963
662 2 0.420808 0.804223 0.878766
1113 4 0.370572 0.979711 0.860827
342 4 0.404701 0.92353 0.781166
343 4 0.475372 0.93765 0.758503
341 2 0.440037 0.93059 0.769835
1391 2 0.277207 0.583999 0.96974
1392 4 0.243425 0.561822 0.974619
1047 4 0.214288 0.557957 0.985504
1393 4 0.310989 0.606176 0.964862
541 4 0.328174 0.594668 0.94793
854 2 0.390937 0.515301 0.906585
856 4 0.391935 0.549908 0.912808
540 4 0.381195 0.572418 0.912597
539 2 0.354685 0.583543 0.930263
714 4 0.364257 0.514479 0.993693
691 4 0.49962 0.558799 0.872105
21 1 0.454651 0.577824 0.879584
23 3 0.442677 0.567894 0.910132
209 3 0.415404 0.695435 0.980475
206 1 0.430603 0.72491 0.994417
210 3 0.464166 0.73171 0.989758
516 4 0.0046338 0.762694 0.940662
627 4 0.00821719 0.864016 0.951001
531 4 0.0347118 0.865565 0.941196
515 2 0.0416844 0.770899 0.944392
682 4 0.107613 0.778376 0.951757
517 4 0.0787351 0.779105 0.948122
680 2 0.144861 0.788334 0.951955
992 2 0.260957 0.790458 0.882644
994 4 0.231742 0.785766 0.904887
830 2 0.248301 0.828936 0.960871
831 4 0.211879 0.812721 0.960285
681 4 0.18211 0.798293 0.952153
832 4 0.284723 0.84515 0.961457
1489 4 0.384483 0.891321 0.978701
1488 4 0.314543 0.852065 0.969069
1487 2 0.349513 0.871693 0.973885
75 3 0.31618 0.802477 0.875234
655 4 0.481112 0.806673 0.882722
664 4 0.454368 0.807424 0.893568
207 3 0.418317 0.748535 0.980173
853 4 0.487916 0.745037 0.969301
530 2 0.0684298 0.88076 0.954742
532 4 0.102148 0.895956 0.968289
1069 4 0.129986 0.894769 0.960972
1067 2 0.166351 0.896021 0.961224
1068 4 0.202716 0.897274 0.961476
807 4 0.222802 0.906016 0.981833
971 2 0.440017 0.912917 0.993012
972 4 0.47153 0.939205 0.992357
973 4 0.408504 0.886629 0.993667
1233 4 0.657138 0.0646893 0.0298354
574 4 0.626922 0.0582126 0.0322621
572 2 0.625781 0.0313522 0.0556036
1232 2 0.683236 0.0938842 0.0195575
19 3 0.651888 0.00521799 0.0888325
1234 4 0.709333 0.123079 0.00927961
1517 2 0.82901 0.00853495 0.117122
1519 4 0.794761 0.0133894 0.121098
944 2 0.519969 0.16849 0.0773891
946 4 0.553678 0.172887 0.0922398
840 4 0.574764 0.199135 0.0986327
839 2 0.606705 0.192709 0.0872558
841 4 0.638646 0.186284 0.0758788
1170 4 0.651134 0.200035 0.051337
1169 2 0.643329 0.19098 0.0168584
999 4 0.781246 0.252898 0.0275316
580 4 0.792276 0.246572 0.0519843
998 2 0.769057 0.234993 0.997149
673 4 0.982595 0.193531 0.112545
1083 4 0.98116 0.176234 0.0911594
462 4 0.508645 0.254852 0.1045
1056 4 0.539308 0.256913 0.105938
1055 2 0.559558 0.290821 0.110404
320 2 0.632731 0.346221 0.107231
321 4 0.66087 0.354932 0.0836706
1057 4 0.579807 0.324729 0.11487
319 4 0.74578 0.347003 0.0577551
1050 4 0.741364 0.353354 0.0294494
317 2 0.71725 0.353948 0.0759742
318 4 0.68872 0.360894 0.0941933
578 2 0.78305 0.253741 0.0855417
579 4 0.773824 0.26091 0.119099
1473 4 0.824928 0.297129 0.0404712
1472 2 0.81817 0.309589 0.00814064
646 4 0.92156 0.255209 0.0499857
644 2 0.925931 0.26347 0.014953
1422 4 0.500377 0.397241 0.120038
565 4 0.581577 0.465571 0.020949
1421 2 0.53651 0.413035 0.125072
563 2 0.61403 0.486627 0.03232
564 4 0.646482 0.507684 0.043691
697 4 0.672991 0.501289 0.049165
87 3 0.956635 0.998525 0.245088
740 2 0.495598 0.159589 0.186058
43 3 0.527735 0.225221 0.156019
45 3 0.557806 0.229311 0.201743
41 1 0.559496 0.230217 0.168942
44 3 0.574524 0.206774 0.157798
742 4 0.528565 0.153571 0.177586
334 4 0.551613 0.141635 0.174595
332 2 0.581941 0.147893 0.153676
333 4 0.612268 0.154152 0.132757
754 4 0.701663 0.129408 0.14376
753 4 0.634417 0.143111 0.143293
752 2 0.66804 0.136259 0.143526
671 2 0.948072 0.192052 0.124069
1147 4 0.845246 0.152682 0.16052
1145 2 0.869695 0.17882 0.143036
1146 4 0.894144 0.204957 0.125552
672 4 0.913548 0.190572 0.135593
606 4 0.98432 0.165186 0.204561
68 3 0.552796 0.340988 0.165456
42 3 0.578226 0.260004 0.15931
322 4 0.604592 0.33751 0.130791
66 1 0.580296 0.367195 0.163166
67 3 0.606758 0.356829 0.151204
1123 4 0.603827 0.276685 0.149417
1121 2 0.640097 0.277842 0.151733
1122 4 0.676367 0.278999 0.154049
958 4 0.797048 0.341084 0.251853
895 4 0.951698 0.370265 0.195508
1071 4 0.983161 0.342363 0.233682
70 3 0.573512 0.389707 0.14286
1423 4 0.572643 0.42883 0.130107
518 2 0.569876 0.407159 0.230491
901 4 0.518275 0.477803 0.146525
519 4 0.594381 0.408046 0.203837
69 3 0.58865 0.380583 0.193446
219 3 0.600448 0.440237 0.139922
220 3 0.632729 0.480263 0.169389
370 4 0.682041 0.457069 0.149679
218 3 0.653026 0.438595 0.153789
217 3 0.612831 0.431693 0.191422
216 1 0.624847 0.447942 0.163566
1498 4 0.651246 0.490189 0.145682
368 2 0.71679 0.461252 0.161925
369 4 0.751538 0.465434 0.17417
124 3 0.780717 0.475629 0.17431
121 1 0.795436 0.504485 0.189647
1073 2 0.827889 0.430153 0.244508
1074 4 0.846552 0.431999 0.21342
122 3 0.827726 0.504695 0.197489
893 2 0.965877 0.386985 0.22591
769 4 0.542219 0.0732491 0.247649
1411 4 0.561109 0.0618783 0.262981
767 2 0.507569 0.072817 0.258015
1409 2 0.597903 0.0655523 0.264573
1166 2 0.679089 0.0851602 0.313828
1168 4 0.653397 0.0781539 0.287721
1410 4 0.634697 0.0692263 0.266165
1167 4 0.704781 0.0921664 0.339935
731 2 0.817813 0.999842 0.351827
314 2 0.875631 0.0189893 0.296227
315 4 0.847965 0.0307304 0.311023
732 4 0.821504 0.0202973 0.322172
316 4 0.903298 0.00724815 0.28143
89 3 0.972746 0.0177936 0.294525
86 1 0.945479 0.00591759 0.274668
90 3 0.927928 0.0285884 0.270771
443 2 0.542491 0.187746 0.364972
409 4 0.593624 0.197598 0.36217
445 4 0.571603 0.182387 0.346501
407 2 0.624932 0.198666 0.380513
127 3 0.508687 0.354346 0.308259
128 3 0.522225 0.368088 0.359741
1537 4 0.641257 0.341452 0.30473
748 4 0.629176 0.330207 0.329922
746 2 0.606343 0.297625 0.335635
747 4 0.583509 0.265044 0.341347
1535 2 0.675214 0.360031 0.315072
1536 4 0.709171 0.378611 0.325414
957 4 0.849861 0.338362 0.300122
956 2 0.823455 0.339723 0.275987
1094 2 0.919925 0.271251 0.254871
1095 4 0.947099 0.258574 0.240335
1096 4 0.89275 0.283928 0.269407
192 3 0.551921 0.478463 0.249053
1335 4 0.534414 0.394783 0.371122
193 3 0.548187 0.430043 0.271759
191 1 0.53549 0.457076 0.271969
194 3 0.54051 0.471846 0.301974
1299 4 0.544909 0.476522 0.332207
1298 2 0.517039 0.492778 0.33465
520 4 0.545372 0.406272 0.257144
1017 4 0.730794 0.377499 0.305737
1016 2 0.756115 0.405414 0.291773
1018 4 0.781436 0.433328 0.27781
1075 4 0.809226 0.428308 0.275595
894 4 0.980056 0.403706 0.256311
1340 2 0.5065 0.0812945 0.442
762 4 0.529263 0.0729348 0.383752
1342 4 0.523959 0.0839445 0.410184
761 2 0.550395 0.0512097 0.3943
763 4 0.571527 0.0294845 0.404848
1026 4 0.573586 0.0246191 0.433628
1025 2 0.581187 0.0369014 0.467246
1027 4 0.588788 0.0491837 0.500864
777 4 0.628813 0.997365 0.471494
1440 4 0.653732 0.0138053 0.486913
330 4 0.791488 0.0123963 0.48651
1420 4 0.797862 0.00197773 0.462413
444 4 0.513379 0.193105 0.383443
8 3 0.513584 0.232506 0.437087
388 4 0.536307 0.233493 0.45368