ITEM: TIMESTEP
2049000
ITEM: NUMBER OF ATOMS
4590
ITEM: BOX BOUNDS xy xz yz pp pp pp
-9.9985700000000008e+00 9.9985700000000008e+00 0.0000000000000000e+00
-9.9985700000000008e+00 9.9985700000000008e+00 0.0000000000000000e+00
-9.9985700000000008e+00 9.9985700000000008e+00 0.0000000000000000e+00
ITEM: ATOMS id type xs ys zs
2552 4 0.0281634 0.0249866 0.0810178
2551 2 0.0418187 0.0321894 0.061349
2553 4 0.0554739 0.0393923 0.0416803
4400 4 0.0718182 0.0486627 0.048626
1827 4 0.0134583 0.0358173 0.0759152
4399 2 0.0903716 0.0557 0.0334133
4401 4 0.108925 0.0627373 0.0182006
1566 4 0.121108 0.0473009 0.0122682
1564 2 0.139946 0.0628052 0.00679496
1565 4 0.158783 0.0783096 0.00132168
833 4 0.10561 0.0742524 0.0846645
1125 4 0.223062 0.0491814 0.0164154
1123 2 0.225835 0.0706688 0.0288962
1531 2 0.371698 0.0552008 0.0153213
2638 2 0.401753 0.013923 0.05358
1533 4 0.376011 0.0370293 0.0319459
2639 4 0.38286 0.0193968 0.0381433
1532 4 0.367385 0.0733724 0.998697
2640 4 0.420645 0.00844929 0.0690168
2522 4 0.436921 0.0409491 0.0153857
55 3 0.458602 0.0877216 0.030197
51 1 0.448088 0.0679251 0.0342229
52 3 0.463627 0.0522948 0.0408102
3291 4 0.474054 0.0641154 0.0539717
53 3 0.437642 0.0604372 0.0149045
54 3 0.432457 0.0705652 0.0511669
3289 2 0.489012 0.07719 0.069154
2714 4 0.434823 0.0243363 0.0705508
1232 4 0.0490593 0.124386 0.00900105
1231 2 0.0687314 0.125638 0.993618
3411 4 0.155913 0.096763 0.993216
699 4 0.195303 0.175728 0.0522381
697 2 0.189681 0.157995 0.0689453
1124 4 0.228607 0.0921563 0.0413771
2400 4 0.394292 0.139992 0.0516505
2398 2 0.398315 0.130527 0.0288599
2399 4 0.402338 0.121063 0.00606921
1248 4 0.36603 0.0868588 0.013845
671 4 0.412738 0.14683 0.0535693
1785 4 0.0794624 0.192748 0.0527591
664 2 0.0508792 0.218115 0.00916419
665 4 0.0749957 0.217438 0.00259751
3633 4 0.00837395 0.224769 0.00734063
2717 4 0.0764217 0.186252 0.0705922
2716 2 0.0566479 0.173631 0.0792455
1784 4 0.113984 0.226814 0.0405732
1783 2 0.0967234 0.209781 0.0466661
933 4 0.128761 0.224167 0.0289857
931 2 0.150733 0.212274 0.0299932
932 4 0.172704 0.200381 0.0310008
1254 4 0.18074 0.212889 0.0449775
1252 2 0.205141 0.208929 0.048731
1253 4 0.229542 0.204969 0.0524846
294 4 0.230462 0.217881 0.035832
292 2 0.249959 0.22114 0.0205205
293 4 0.269456 0.2244 0.00520906
3125 4 0.278326 0.207536 0.0117539
670 2 0.418811 0.170434 0.0591515
672 4 0.424884 0.194038 0.0647336
3100 2 0.447986 0.226213 0.063583
3101 4 0.430709 0.209842 0.0559218
3102 4 0.465262 0.242584 0.0712442
2788 2 0.219034 0.306467 0.0171805
2790 4 0.197788 0.316039 0.00811781
2789 4 0.24028 0.296894 0.0262432
627 4 0.25776 0.288755 0.0212492
625 2 0.27233 0.303299 0.00705726
1586 4 0.395939 0.305843 0.0564102
702 4 0.388399 0.307052 0.0380845
700 2 0.374872 0.307039 0.0170562
1585 2 0.391731 0.284435 0.068624
2855 4 0.416122 0.324983 0.0280061
701 4 0.361345 0.307026 0.996028
2854 2 0.428058 0.31572 0.0080835
2856 4 0.439994 0.306457 0.988161
1672 2 0.0322583 0.400499 0.010779
1674 4 0.0155388 0.39754 0.0291333
4187 4 0.00451758 0.380864 0.0241584
2227 2 0.164154 0.347765 0.0230143
2228 4 0.167046 0.353107 0.047269
2229 4 0.161262 0.342422 0.998759
2453 4 0.181257 0.355146 0.0625543
2452 2 0.205935 0.358048 0.0597714
2454 4 0.230614 0.360951 0.0569884
324 4 0.232388 0.37453 0.0712266
2449 2 0.361852 0.373778 0.060359
2450 4 0.378201 0.368901 0.0420805
2451 4 0.345502 0.378655 0.0786375
1069 2 0.490461 0.398894 0.0249048
1071 4 0.505811 0.379623 0.0206423
4366 2 0.0119948 0.446574 0.0414481
4367 4 0.036385 0.444599 0.0465842
1664 4 0.0443357 0.43395 0.0617756
1663 2 0.0664173 0.445423 0.0593397
1559 4 0.0914314 0.471651 0.0710055
1558 2 0.116123 0.471289 0.0670842
1560 4 0.140815 0.470927 0.0631629
1665 4 0.0884989 0.456897 0.0569039
1774 2 0.20432 0.485431 0.0571302
1775 4 0.191649 0.4905 0.0361789
1776 4 0.216991 0.480362 0.0780814
1794 4 0.230843 0.473924 0.0913513
3646 2 0.317354 0.49794 0.0744811
1792 2 0.255021 0.474745 0.0850329
1234 2 0.326763 0.487897 0.0161132
1235 4 0.329953 0.481428 0.040054
132 3 0.405356 0.431417 0.051689
133 3 0.429481 0.425302 0.0235246
134 3 0.415081 0.459997 0.0292985
131 1 0.422614 0.440598 0.0395638
135 3 0.439893 0.445435 0.0535884
1224 4 0.466582 0.433887 0.0194068
3258 4 0.442157 0.433884 0.0711327
1222 2 0.476617 0.456781 0.0200267
1070 4 0.47511 0.418164 0.0291674
1223 4 0.486652 0.479674 0.0206465
834 4 0.102824 0.0334832 0.113489
832 2 0.104217 0.0538678 0.0990768
312 4 0.226056 0.0401793 0.15097
310 2 0.214207 0.0181681 0.150425
3781 2 0.40153 0.0119037 0.139495
2715 4 0.468254 0.0536159 0.0934799
2713 2 0.451539 0.0389761 0.0820154
476 4 0.481722 0.0495028 0.107989
3782 4 0.421076 0.00774457 0.124467
1038 4 0.43985 0.0012265 0.128724
475 2 0.500665 0.0542479 0.123605
2470 2 0.0497539 0.0816331 0.154233
2673 4 0.0260227 0.145726 0.0941647
2671 2 0.0142317 0.14649 0.1162
2672 4 0.00244072 0.147253 0.138236
2472 4 0.0723011 0.0815984 0.143425
765 4 0.118637 0.0866666 0.0902834
763 2 0.125209 0.105296 0.105611
764 4 0.131781 0.123925 0.120939
3504 4 0.148439 0.117256 0.130856
558 4 0.0870509 0.0912653 0.153512
2768 4 0.112766 0.166785 0.126792
3502 2 0.168203 0.121947 0.145437
556 2 0.094696 0.111233 0.166475
698 4 0.184059 0.140263 0.0856525
732 4 0.230722 0.0825175 0.135081
730 2 0.248642 0.0997682 0.132541
3503 4 0.187966 0.126638 0.160018
731 4 0.266563 0.117019 0.13
2596 2 0.304881 0.110563 0.146146
2598 4 0.287349 0.120231 0.131168
2597 4 0.322413 0.100894 0.161124
3992 4 0.403162 0.128271 0.151904
3991 2 0.412952 0.141695 0.170589
2944 2 0.467929 0.117715 0.154587
2945 4 0.478572 0.121145 0.132223
2946 4 0.457286 0.114284 0.176951
1497 4 0.485761 0.137989 0.125175
2718 4 0.036874 0.161009 0.0878988
1765 2 0.0644886 0.231764 0.130899
1766 4 0.0708291 0.223973 0.153796
2767 2 0.12132 0.169099 0.150173
2820 4 0.374664 0.202714 0.108945
2818 2 0.377193 0.226191 0.100722
913 2 0.374202 0.184148 0.161569
828 4 0.386438 0.212993 0.153479
826 2 0.402123 0.231424 0.159763
2819 4 0.379722 0.249668 0.0925003
915 4 0.376934 0.198624 0.141366
1767 4 0.0581481 0.239556 0.108002
2891 4 0.0481352 0.308718 0.108204
2890 2 0.0493661 0.283912 0.105318
2892 4 0.0505971 0.259107 0.102432
1046 4 0.0428676 0.323736 0.0970349
3209 4 0.0342963 0.323204 0.168039
2556 4 0.020751 0.337472 0.165235
1587 4 0.387523 0.263027 0.0808379
3791 4 0.470644 0.277206 0.162683
3790 2 0.448692 0.266751 0.156853
3792 4 0.42674 0.256296 0.151022
1047 4 0.0434169 0.366187 0.123461
1045 2 0.0431422 0.344961 0.110248
2705 4 0.00982841 0.426531 0.170387
322 2 0.248113 0.38057 0.0897041
323 4 0.263839 0.38661 0.108182
3405 4 0.259405 0.391526 0.127091
3403 2 0.284061 0.387603 0.128449
3404 4 0.308718 0.383681 0.129807
3657 4 0.323373 0.394715 0.136916
3655 2 0.33584 0.394144 0.11525
3656 4 0.348306 0.393573 0.093583
103 3 0.398954 0.395208 0.163378
749 4 0.416887 0.404033 0.159986
101 1 0.403871 0.372532 0.163414
104 3 0.387588 0.360878 0.151689
102 3 0.424187 0.369311 0.153117
1573 2 0.458284 0.381588 0.132083
1575 4 0.48226 0.384389 0.125563
1574 4 0.434309 0.378786 0.138603
1017 4 0.483955 0.40451 0.126292
385 2 0.0120364 0.430651 0.128752
386 4 0.0203948 0.427218 0.152066
1680 4 0.0970046 0.494461 0.129327
3647 4 0.297941 0.482187 0.0749522
1793 4 0.279199 0.475566 0.0787144
748 2 0.419353 0.42182 0.142587
750 4 0.421819 0.439606 0.125187
3972 4 0.429193 0.481545 0.159984
3257 4 0.434523 0.451329 0.117372
3256 2 0.43834 0.442607 0.0942526
1015 2 0.489786 0.427571 0.118588
2471 4 0.0272067 0.0816679 0.165041
1180 2 0.0220954 0.0167188 0.212139
1182 4 0.0291413 0.0221186 0.235514
1181 4 0.0150496 0.011319 0.188764
2858 4 0.0368721 0.0801186 0.181991
2857 2 0.0319144 0.0797592 0.206496
450 4 0.00382951 0.0215749 0.175167
2859 4 0.0269568 0.0793998 0.231001
1428 4 0.0366296 0.0235083 0.252916
305 4 0.256488 0.0571549 0.194401
304 2 0.251222 0.0734804 0.212592
3906 4 0.324184 0.0062888 0.171249
2781 4 0.31102 0.0196941 0.178371
2779 2 0.311674 0.0246196 0.202876
2780 4 0.312327 0.0295451 0.227381
2546 4 0.323551 0.0301765 0.243835
306 4 0.245956 0.089806 0.230783
2545 2 0.346325 0.036522 0.251977
2547 4 0.369098 0.0428675 0.260118
350 4 0.451935 0.0532766 0.230667
349 2 0.47244 0.064988 0.222446
351 4 0.492946 0.0766993 0.214225
2662 2 0.0360405 0.147501 0.174141
2663 4 0.0588492 0.138035 0.170223
19 3 0.0289337 0.0962765 0.241536
2759 4 0.0907707 0.156592 0.233924
557 4 0.102341 0.1312 0.179439
548 4 0.102028 0.170309 0.226346
914 4 0.371471 0.169672 0.181773
3278 4 0.508483 0.0840739 0.20306
3993 4 0.422741 0.155119 0.189275
2670 4 0.439107 0.166879 0.196515
2664 4 0.0132318 0.156966 0.178058
2477 4 0.0570714 0.227447 0.168062
2478 4 0.0175503 0.239237 0.196344
2476 2 0.0373108 0.233342 0.182203
2895 4 0.0222588 0.205115 0.230283
549 4 0.132496 0.183413 0.18892
2769 4 0.129873 0.171413 0.173553
547 2 0.117262 0.176861 0.207633
2668 2 0.44334 0.190881 0.190933
2634 4 0.466127 0.220517 0.181038
2669 4 0.447573 0.214883 0.185351
2632 2 0.481278 0.235953 0.193583
615 4 0.0169561 0.287269 0.238726
613 2 0.994076 0.277412 0.240858
3208 2 0.0558482 0.323313 0.180716
3210 4 0.0774002 0.323423 0.193392
2955 4 0.0868603 0.284785 0.231284
2953 2 0.110869 0.287089 0.224692
2954 4 0.134878 0.289392 0.218099
266 4 0.150215 0.285832 0.231123
265 2 0.174135 0.282608 0.224594
267 4 0.198055 0.279385 0.218065
560 4 0.208166 0.295478 0.210021
559 2 0.219242 0.316483 0.217849
2684 4 0.268715 0.257453 0.211934
2683 2 0.266403 0.275624 0.228954
3455 4 0.308262 0.294013 0.229547
3454 2 0.330737 0.301593 0.221634
3456 4 0.353212 0.309173 0.213722
288 4 0.365389 0.32359 0.206897
827 4 0.417808 0.249855 0.166047
2554 2 0.998776 0.339548 0.176981
2706 4 0.0166288 0.397996 0.210886
2704 2 0.0132286 0.412263 0.190636
3800 4 0.0802868 0.342915 0.191553
3799 2 0.0963871 0.357757 0.203623
3801 4 0.112487 0.372599 0.215693
3608 4 0.116906 0.391308 0.208816
561 4 0.230319 0.337488 0.225677
3195 4 0.223031 0.346753 0.24235
286 2 0.372934 0.34329 0.22032
105 3 0.405014 0.364862 0.184827
287 4 0.380478 0.36299 0.233744
291 4 0.386496 0.376318 0.244057
3818 4 0.498419 0.406993 0.176412
3819 4 0.450724 0.421909 0.178288
3817 2 0.474571 0.414451 0.17735
443 4 0.0173278 0.48686 0.229349
442 2 0.040991 0.488397 0.22142
3607 2 0.129131 0.41312 0.208823
3609 4 0.141356 0.434932 0.20883
428 4 0.158877 0.433283 0.202182
427 2 0.160888 0.451592 0.185272
429 4 0.1629 0.469901 0.168363
4361 4 0.248207 0.510391 0.18687
1626 4 0.354183 0.42662 0.244895
3881 4 0.393656 0.454002 0.205497
4434 4 0.404026 0.46508 0.217616
3880 2 0.373538 0.449144 0.219528
3882 4 0.353419 0.444287 0.233559
4432 2 0.428901 0.46273 0.216653
4433 4 0.453775 0.460381 0.21569
2564 4 0.473699 0.458345 0.220204
2563 2 0.488568 0.476378 0.211322
1426 2 0.0549835 0.0293539 0.268858
1427 4 0.0733373 0.0351995 0.2848
20 3 0.0631946 0.0867817 0.253934
704 4 0.0831532 0.0507657 0.295857
703 2 0.0979828 0.0698103 0.302383
1700 4 0.331468 0.043098 0.325564
1699 2 0.31108 0.0527278 0.314756
1701 4 0.290693 0.0623577 0.303949
3852 4 0.345428 0.0421992 0.340773
4509 4 0.386403 0.0313909 0.257775
4507 2 0.390722 0.0156013 0.276675
3887 4 0.397874 0.0756349 0.30957
2642 4 0.394469 0.0624311 0.324773
4508 4 0.39504 0.999812 0.295576
706 2 0.414845 0.0133515 0.333045
707 4 0.435311 0.0276037 0.331254
487 2 0.480431 0.0312915 0.33003
489 4 0.455609 0.0284856 0.328942
3479 4 0.015788 0.0841252 0.283869
2758 2 0.0702108 0.146795 0.244244
17 3 0.0478381 0.119048 0.264704
16 1 0.0436337 0.0970454 0.259473
2760 4 0.049651 0.136998 0.254564
18 3 0.0341731 0.0866256 0.277921
705 4 0.112812 0.0888548 0.308909
743 4 0.121837 0.101755 0.297696
742 2 0.14119 0.117545 0.298849
744 4 0.160543 0.133334 0.300001
354 4 0.173929 0.147368 0.30459
352 2 0.197482 0.140077 0.308744
353 4 0.221036 0.132785 0.312897
2616 4 0.238908 0.127153 0.319564
761 4 0.257345 0.0859031 0.247761
2614 2 0.257585 0.111285 0.324521
762 4 0.279436 0.0645669 0.287225
760 2 0.268391 0.075235 0.267493
677 4 0.326809 0.139179 0.309633
2615 4 0.276261 0.0954162 0.329478
3886 2 0.402083 0.0873843 0.287904
3888 4 0.406291 0.0991337 0.266237
517 2 0.176434 0.234382 0.263386
473 4 0.144607 0.205065 0.333446
518 4 0.181079 0.21096 0.25597
1493 4 0.0874488 0.314352 0.282314
248 4 0.000743108 0.341678 0.285364
519 4 0.171788 0.257804 0.270802
1492 2 0.103194 0.331949 0.290537
2685 4 0.26409 0.293795 0.245973
372 4 0.32148 0.284156 0.306951
3206 4 0.278125 0.28515 0.25674
3205 2 0.291747 0.280956 0.277283
3207 4 0.30537 0.276762 0.297827
2529 4 0.294481 0.344913 0.310774
2486 4 0.383298 0.277913 0.339666
371 4 0.364216 0.276065 0.331626
370 2 0.342848 0.280111 0.319288
2485 2 0.400573 0.279265 0.32164
1035 4 0.49293 0.269776 0.327948
1034 4 0.49614 0.292001 0.283266
1033 2 0.494535 0.280889 0.305607
471 4 0.478383 0.255987 0.327707
2487 4 0.417849 0.280616 0.303615
247 2 0.0196944 0.347832 0.30047
249 4 0.0386456 0.353985 0.315575
872 4 0.0581822 0.361521 0.322404
871 2 0.0813367 0.37035 0.325737
1494 4 0.118939 0.349546 0.29876
2580 4 0.137402 0.350848 0.304417
2578 2 0.160524 0.347439 0.295533
873 4 0.104491 0.379179 0.32907
3193 2 0.212885 0.34724 0.265198
2579 4 0.183646 0.34403 0.28665
3194 4 0.20274 0.347727 0.288046
2474 4 0.224682 0.385574 0.325521
2528 4 0.253126 0.334813 0.284533
2473 2 0.248217 0.387005 0.3172
2527 2 0.273803 0.339863 0.297654
2475 4 0.271753 0.388436 0.30888
3596 4 0.29006 0.394454 0.309897
3595 2 0.314626 0.399094 0.309486
3597 4 0.339193 0.403734 0.309076
289 2 0.405965 0.391711 0.247089
1625 4 0.343157 0.408558 0.290205
2513 4 0.443261 0.415302 0.254311
1750 2 0.0733583 0.477356 0.295757
458 4 0.0275933 0.420935 0.334558
1752 4 0.0709598 0.454175 0.304818
452 4 0.0361901 0.43782 0.326424
1698 4 0.134091 0.44165 0.341526
2622 4 0.147241 0.434109 0.327836
2620 2 0.170016 0.443259 0.332608
1472 4 0.206992 0.452238 0.323215
1471 2 0.229721 0.453346 0.312854
1473 4 0.25245 0.454454 0.302494
644 4 0.256254 0.469669 0.290425
643 2 0.277807 0.472671 0.27811
4001 4 0.312233 0.459067 0.26999
645 4 0.29936 0.475673 0.265795
1624 2 0.34867 0.417589 0.26755
4000 2 0.332756 0.47314 0.272429
4002 4 0.353278 0.487214 0.274869
595 2 0.386443 0.491186 0.291393
596 4 0.363116 0.499081 0.287071
597 4 0.409771 0.483291 0.295714
290 4 0.425434 0.407104 0.250121
2514 4 0.492349 0.415646 0.263851
2512 2 0.467805 0.415474 0.259081
1631 4 0.446801 0.44532 0.294825
1630 2 0.434318 0.465322 0.303147
1632 4 0.421835 0.485324 0.311468
1199 4 0.16722 0.0843301 0.371055
3851 4 0.332959 0.0224839 0.385006
708 4 0.394379 0.999099 0.334837
2641 2 0.401065 0.0700375 0.34766
3850 2 0.339194 0.0323416 0.362889
2643 4 0.407662 0.077644 0.370547
2830 2 0.495204 0.060114 0.413553
2943 4 0.413009 0.0641124 0.384067
2942 4 0.457952 0.0658157 0.40593
2941 2 0.435481 0.0649641 0.394999
2831 4 0.472444 0.0511744 0.408333
2934 4 0.0626988 0.133521 0.332368
791 4 0.0816387 0.130158 0.337304
2932 2 0.0518113 0.153454 0.342825
790 2 0.0973209 0.116408 0.351095
1198 2 0.142898 0.0880892 0.375468
1200 4 0.118575 0.0918482 0.379881
792 4 0.113003 0.102658 0.364886
1518 4 0.186282 0.0790718 0.372753
1516 2 0.200738 0.0993554 0.374943
1517 4 0.215194 0.119639 0.377133
503 4 0.232824 0.11777 0.37029
502 2 0.242046 0.14054 0.374944
504 4 0.251269 0.16331 0.379598
676 2 0.334032 0.144243 0.333029
678 4 0.341255 0.149307 0.356425
2933 4 0.0409237 0.173387 0.353282
954 4 0.0496491 0.252871 0.410657
803 4 0.148694 0.209229 0.388264
802 2 0.16767 0.208958 0.404543
474 4 0.137283 0.222949 0.379569
472 2 0.140945 0.214007 0.356508
717 4 0.392776 0.189537 0.377496
715 2 0.372405 0.177651 0.369194
716 4 0.352033 0.165765 0.360893
952 2 0.0696051 0.250659 0.395757
1397 4 0.100594 0.260735 0.370227
953 4 0.089561 0.248448 0.380856
1396 2 0.123065 0.268719 0.377743
1398 4 0.145536 0.276704 0.38526
2613 4 0.153449 0.277398 0.403871
3060 4 0.142939 0.334053 0.341254
3058 2 0.163635 0.327094 0.353437
2611 2 0.177141 0.271452 0.409215
1210 2 0.240244 0.264953 0.395352
2569 2 0.211456 0.326605 0.381762
2570 4 0.224223 0.316565 0.400772
2612 4 0.200832 0.265506 0.41456
1211 4 0.216032 0.267095 0.401217
3059 4 0.184332 0.320135 0.36562
2925 4 0.242414 0.326502 0.403168
1212 4 0.264456 0.262811 0.389488
423 4 0.284695 0.262317 0.39036
421 2 0.303354 0.278187 0.395376
422 4 0.322013 0.294057 0.400392
260 4 0.341418 0.287039 0.401386
259 2 0.365308 0.287399 0.408759
261 4 0.389197 0.287759 0.416133
1193 4 0.406393 0.280839 0.418643
469 2 0.462488 0.260006 0.346585
1192 2 0.422243 0.274064 0.40053
470 4 0.446593 0.264025 0.365464
1150 2 0.485822 0.312515 0.391971
1194 4 0.438093 0.267288 0.382418
1151 4 0.479558 0.290364 0.401732
1152 4 0.492086 0.334667 0.382211
457 2 0.00742338 0.410898 0.345403
650 4 0.124123 0.384848 0.328619
649 2 0.146357 0.382319 0.339775
651 4 0.16859 0.37979 0.350931
2571 4 0.198689 0.336645 0.362752
142 3 0.207906 0.381198 0.338354
145 3 0.18176 0.38614 0.364524
143 3 0.202806 0.354921 0.364739
144 3 0.218185 0.388483 0.373765
141 1 0.202524 0.377722 0.360447
2957 4 0.231723 0.400834 0.382338
2956 2 0.248437 0.402916 0.400817
2958 4 0.265152 0.404998 0.419296
2852 4 0.400613 0.391194 0.344737
2851 2 0.413094 0.379968 0.363269
3513 4 0.330033 0.417043 0.413942
3447 4 0.346207 0.403181 0.413162
2853 4 0.425575 0.368743 0.3818
768 4 0.443832 0.37522 0.37492
766 2 0.466509 0.385293 0.377995
767 4 0.489186 0.395367 0.381071
2156 4 0.495977 0.412709 0.388082
453 4 0.0782835 0.431276 0.352618
451 2 0.0572368 0.434548 0.339521
636 4 0.0512875 0.476317 0.404583
3687 4 0.0649869 0.487481 0.397697
3685 2 0.079287 0.492153 0.377726
1696 2 0.111425 0.443489 0.351921
1697 4 0.0887583 0.445328 0.362316
3686 4 0.0935871 0.496826 0.357754
2621 4 0.192791 0.45241 0.33738
3512 4 0.281155 0.408316 0.407976
3511 2 0.305594 0.41268 0.410959
2922 4 0.469644 0.460142 0.4042
1642 2 0.428087 0.466047 0.417874
1643 4 0.452461 0.46964 0.413609
2195 4 0.0775967 0.0114542 0.421767
2194 2 0.06474 0.0196416 0.441588
2196 4 0.0518832 0.0278289 0.461409
2499 4 0.99796 0.118242 0.435361
3437 4 0.303774 0.159 0.453637
258 4 0.410812 0.11305 0.427661
256 2 0.418374 0.136848 0.428931
3027 4 0.342823 0.168384 0.491194
257 4 0.425937 0.160647 0.430201
3265 2 0.0395682 0.231586 0.48249
3267 4 0.0451746 0.230893 0.458133
332 4 0.0590503 0.232785 0.44417
331 2 0.0833187 0.237861 0.447405
333 4 0.107587 0.242938 0.45064
3050 4 0.121258 0.25421 0.46078
3374 4 0.253141 0.19477 0.443432
804 4 0.186647 0.208686 0.420821
513 4 0.193536 0.220834 0.436516
511 2 0.214794 0.207908 0.434019
512 4 0.236051 0.194982 0.431522
3375 4 0.284312 0.155965 0.44825
3436 2 0.325416 0.168471 0.445445
3373 2 0.268727 0.175368 0.445841
1009 2 0.259512 0.229473 0.471864
1010 4 0.266118 0.248171 0.487093
1011 4 0.252906 0.210774 0.456635
2457 4 0.36029 0.189605 0.4285
3438 4 0.347058 0.177942 0.437253
2456 4 0.361587 0.231598 0.455622
2455 2 0.360939 0.210602 0.442061
3080 4 0.43608 0.176345 0.439154
3081 4 0.482575 0.170801 0.421593
3079 2 0.459327 0.173573 0.430374
3822 4 0.450373 0.223923 0.470973
3820 2 0.473786 0.215223 0.472125
2537 4 0.436516 0.229713 0.458096
3821 4 0.497199 0.206523 0.473277
3049 2 0.144553 0.24722 0.466585
3051 4 0.167847 0.240229 0.47239
2923 2 0.265222 0.326142 0.413407
2655 4 0.294081 0.341722 0.489823
984 4 0.354425 0.250132 0.456017
982 2 0.369559 0.25199 0.475833
983 4 0.384693 0.253847 0.495649
2881 2 0.416272 0.315693 0.48046
2538 4 0.407597 0.268439 0.445261
2536 2 0.422056 0.249076 0.451679
2883 4 0.435496 0.329574 0.472523
2221 2 0.168237 0.415129 0.474721
2653 2 0.294009 0.338652 0.465008
2654 4 0.293937 0.335582 0.440194
2924 4 0.28803 0.325783 0.423647
3445 2 0.369375 0.407154 0.421684
3446 4 0.392543 0.411127 0.430206
3422 4 0.40832 0.406354 0.441676
4023 4 0.439638 0.32812 0.453142
4021 2 0.455537 0.347275 0.45549
4022 4 0.471436 0.366429 0.457838
2876 4 0.48773 0.369177 0.447555
634 2 0.0625977 0.476296 0.426883
3119 4 0.0775759 0.493032 0.461664
635 4 0.0739079 0.476275 0.449182
3120 4 0.125837 0.482639 0.469635
3118 2 0.101707 0.487835 0.46565
2222 4 0.165735 0.433991 0.458499
4066 2 0.154748 0.488741 0.443117
4068 4 0.130776 0.488056 0.450192
4067 4 0.17872 0.489426 0.436042
1173 4 0.23761 0.47401 0.434097
4082 4 0.203496 0.427816 0.442415
1839 4 0.189135 0.50654 0.463475
1977 4 0.241742 0.494517 0.439138
4083 4 0.178667 0.469748 0.431188
4081 2 0.191082 0.448782 0.436802
1172 4 0.281063 0.451072 0.4248
3703 2 0.314706 0.478533 0.432758
1171 2 0.259336 0.462541 0.429448
3704 4 0.295478 0.464903 0.424409
1390 2 0.370708 0.479406 0.443882
1644 4 0.403713 0.462454 0.422139
1392 4 0.350427 0.491732 0.451753
3705 4 0.333934 0.492163 0.441107
1391 4 0.390989 0.467081 0.43601
2920 2 0.487577 0.461193 0.421592
3423 4 0.440138 0.436258 0.466049
2921 4 0.50551 0.462245 0.438984
3113 4 0.456327 0.443999 0.474557
3421 2 0.424229 0.421306 0.453863
3112 2 0.466995 0.445503 0.49712
721 2 0.0157616 0.0201764 0.575843
2019 4 0.0582163 0.0305641 0.580999
722 4 0.0405611 0.0229109 0.577484
1924 2 0.104506 0.0827494 0.515467
1925 4 0.127391 0.080414 0.525266
216 1 0.153469 0.0588032 0.542221
220 3 0.139057 0.0642236 0.525442
4553 4 0.132207 0.996729 0.532861
217 3 0.141663 0.0495326 0.559652
219 3 0.169009 0.043338 0.534623
888 4 0.287564 0.0617299 0.525468
886 2 0.305041 0.0443443 0.521291
3714 4 0.270987 0.0597172 0.534569
887 4 0.322519 0.0269587 0.517114
733 2 0.282592 0.00686678 0.575152
1062 4 0.325081 0.991998 0.580835
3623 4 0.340562 0.0172134 0.518231
3622 2 0.362766 0.0094152 0.526677
3624 4 0.384971 0.00161698 0.535124
4048 2 0.0484141 0.10096 0.51839
4050 4 0.0674357 0.099607 0.502218
4049 4 0.0293925 0.102312 0.534561
3087 4 0.00989408 0.111086 0.533638
3085 2 0.997642 0.10271 0.55376
1926 4 0.0816212 0.0850849 0.505669
218 3 0.164316 0.0778614 0.549806
4283 4 0.222739 0.103837 0.530924
4282 2 0.203676 0.0916387 0.541554
4284 4 0.184614 0.0794406 0.552184
3713 4 0.242183 0.100303 0.529685
3712 2 0.256585 0.0800103 0.532127
3025 2 0.326859 0.156193 0.506085
4135 2 0.347548 0.156929 0.576909
4137 4 0.346374 0.132265 0.58084
2749 2 0.0367312 0.209757 0.539545
2751 4 0.0473191 0.197592 0.558652
4514 4 0.0687244 0.197745 0.556827
2750 4 0.0261433 0.221922 0.520437
3266 4 0.0339617 0.232279 0.506847
4513 2 0.0918611 0.206737 0.553825
1136 4 0.131234 0.205909 0.558388
4515 4 0.114998 0.215729 0.550824
1135 2 0.149342 0.194253 0.545683
1137 4 0.16745 0.182597 0.532978
797 4 0.187207 0.177652 0.530273
796 2 0.206672 0.191611 0.523101
798 4 0.226137 0.205571 0.515929
3026 4 0.310896 0.144003 0.520976
2121 4 0.26787 0.226044 0.524176
2119 2 0.273467 0.222681 0.548312
2120 4 0.279065 0.219317 0.572448
3236 4 0.330127 0.187013 0.575762
3235 2 0.337214 0.210834 0.573014
4136 4 0.348722 0.181594 0.572978
729 4 0.138446 0.309403 0.562743
3434 4 0.141084 0.328295 0.562939
799 2 0.318882 0.331766 0.522473
800 4 0.337589 0.324631 0.53745
1490 4 0.358493 0.321206 0.536256
1489 2 0.37636 0.319846 0.518818
1491 4 0.394227 0.318485 0.50138
2882 4 0.397049 0.301812 0.488396
3222 4 0.448092 0.27276 0.506648
3220 2 0.472194 0.269876 0.512646
3221 4 0.496296 0.266993 0.518645
3433 2 0.141905 0.353083 0.559769
3435 4 0.142725 0.377872 0.556599
2822 4 0.157783 0.375538 0.54435
2823 4 0.182385 0.396712 0.50631
2821 2 0.170084 0.386125 0.52533
2223 4 0.170738 0.396267 0.490943
801 4 0.300175 0.338901 0.507496
3707 4 0.183346 0.458735 0.57714
3706 2 0.194402 0.457172 0.554768
3708 4 0.205457 0.45561 0.532396
1544 4 0.214177 0.446674 0.515157
1543 2 0.237155 0.451707 0.506679
1545 4 0.260133 0.456741 0.4982
4316 4 0.343318 0.431076 0.565788
4315 2 0.365724 0.428658 0.576619
3114 4 0.477662 0.447008 0.519684
501 4 0.493377 0.438732 0.527396
2928 4 0.515906 0.478729 0.575887
3033 4 0.0185521 0.0708978 0.672615
2017 2 0.0784517 0.035789 0.594726
2018 4 0.098687 0.0410138 0.608453
689 4 0.115602 0.0514398 0.609472
688 2 0.137757 0.0626733 0.60661
1218 4 0.179359 0.0747117 0.594487
1057 2 0.242884 0.0262286 0.61131
1059 4 0.243236 0.0373059 0.633723
1058 4 0.242532 0.0151512 0.588896
3146 4 0.251772 0.0485359 0.648555
4323 4 0.174633 0.0126161 0.663088
734 4 0.258099 0.0118447 0.574461
3145 2 0.275074 0.0571482 0.645722
3147 4 0.298376 0.0657605 0.642889
4356 4 0.314713 0.0748423 0.648743
4354 2 0.336943 0.0840845 0.641991
1060 2 0.338446 0.0121843 0.587088
1061 4 0.35181 0.0323705 0.593341
2202 4 0.365509 0.0310852 0.607681
2200 2 0.387423 0.0230002 0.616603
2201 4 0.409338 0.0149152 0.625524
4355 4 0.359173 0.0933266 0.635239
2656 2 0.454108 0.0183662 0.620824
962 4 0.492292 0.0284144 0.629556
2658 4 0.478835 0.0203393 0.617685
2657 4 0.429381 0.0163931 0.623964
4080 4 0.00336889 0.134542 0.657598
4078 2 0.0277967 0.139614 0.659261
4079 4 0.0522244 0.144686 0.660924
1308 4 0.0716887 0.13759 0.654735
690 4 0.159911 0.0739068 0.603748
1306 2 0.088086 0.155126 0.647749
1307 4 0.104483 0.172662 0.640763
1216 2 0.196026 0.0918514 0.60181
1217 4 0.212693 0.108991 0.609132
240 4 0.227545 0.105533 0.623976
238 2 0.250264 0.101311 0.614426
223 3 0.213749 0.141839 0.668392
1031 4 0.339311 0.116752 0.593238
3314 4 0.24796 0.151351 0.59591
1032 4 0.291427 0.103514 0.598951
239 4 0.272984 0.0970898 0.604875
1030 2 0.315369 0.110133 0.596095
3313 2 0.250214 0.163062 0.617886
726 4 0.309967 0.164659 0.652696
724 2 0.332026 0.159336 0.663197
1197 4 0.367162 0.0907172 0.653243
1195 2 0.383832 0.104362 0.665936
959 4 0.155348 0.162894 0.611075
960 4 0.109625 0.179334 0.622899
958 2 0.132486 0.171114 0.616987
3315 4 0.252469 0.174773 0.639862
4226 4 0.297172 0.164125 0.668464
3237 4 0.3443 0.234654 0.570266
831 4 0.405622 0.180747 0.589939
1203 4 0.38536 0.225439 0.64369
829 2 0.422997 0.197942 0.595195
830 4 0.440371 0.215138 0.600452
727 2 0.146725 0.307087 0.586222
728 4 0.155005 0.304772 0.609701
3323 4 0.149738 0.287628 0.617998
3322 2 0.170083 0.286834 0.632511
3324 4 0.190428 0.28604 0.647024
3008 4 0.19525 0.305482 0.647194
3007 2 0.21184 0.323918 0.644025
3116 4 0.311103 0.268099 0.646488
4213 2 0.260684 0.328023 0.617215
3115 2 0.286325 0.268411 0.649828
3117 4 0.261547 0.268723 0.653168
3064 2 0.31302 0.311029 0.610759
3066 4 0.294335 0.310769 0.594146
4215 4 0.280861 0.315134 0.610006
2048 4 0.31595 0.26865 0.666939
3065 4 0.331705 0.311288 0.627371
821 4 0.341703 0.319777 0.642784
3986 4 0.458352 0.290709 0.609477
3985 2 0.451424 0.314723 0.608768
1239 4 0.0725028 0.356109 0.654895
1238 4 0.107103 0.373668 0.623348
1237 2 0.0898029 0.364889 0.639121
2678 4 0.13407 0.414346 0.593991
3009 4 0.228431 0.342355 0.640855
4214 4 0.240507 0.340912 0.624424
2309 4 0.263889 0.358907 0.618535
2308 2 0.272662 0.382155 0.615747
2310 4 0.281435 0.405402 0.612959
3330 4 0.30179 0.408548 0.612545
4317 4 0.38813 0.426239 0.58745
820 2 0.342862 0.327088 0.666667
929 4 0.399949 0.411551 0.592903
3987 4 0.444495 0.338736 0.608058
2845 2 0.446232 0.371931 0.604298
2847 4 0.451615 0.352942 0.619648
2846 4 0.440849 0.39092 0.588948
1008 4 0.0757225 0.445662 0.606291
3074 4 0.0611495 0.450644 0.618356
3075 4 0.0118614 0.443329 0.622584
3073 2 0.0365054 0.446986 0.62047
2588 4 0.0729623 0.481536 0.657064
2243 4 0.0605392 0.465422 0.65729
2587 2 0.0899824 0.499813 0.65826
1007 4 0.122396 0.428329 0.601618
2677 2 0.152043 0.428557 0.583982
1006 2 0.0990595 0.436995 0.603955
1268 4 0.133272 0.497451 0.605058
3318 4 0.147612 0.510315 0.610992
2679 4 0.170016 0.442768 0.573972
3316 2 0.165972 0.514434 0.594526
3328 2 0.316702 0.421671 0.597359
3329 4 0.331615 0.434793 0.582174
928 2 0.418794 0.427395 0.597266
930 4 0.437638 0.443239 0.601628
3353 4 0.451947 0.456 0.600949
3352 2 0.475976 0.451086 0.596086
3354 4 0.500005 0.446172 0.591223
2995 2 0.0609262 0.0693138 0.682645
2997 4 0.0369062 0.0656977 0.676717
2996 4 0.0849461 0.0729298 0.688574
4321 2 0.14965 0.0133511 0.663793
1259 4 0.100928 0.0617746 0.682254
1085 4 0.160063 0.0618907 0.710287
1260 4 0.14324 0.0721522 0.706805
1258 2 0.122084 0.0669634 0.694529
1084 2 0.180909 0.0716694 0.720035
916 2 0.392892 0.0626 0.704884
917 4 0.415579 0.0520907 0.704773
918 4 0.370204 0.0731093 0.704995
2271 4 0.458092 0.00337618 0.700078
3002 4 0.045198 0.11469 0.708997
3001 2 0.0209648 0.118031 0.71417
222 3 0.211158 0.104695 0.673523
1086 4 0.201754 0.0814481 0.729783
225 3 0.244135 0.119886 0.664881
221 1 0.224741 0.123037 0.676395
224 3 0.229279 0.125542 0.699012
88 3 0.214045 0.0958024 0.737187
87 3 0.222446 0.131741 0.744295
89 3 0.247121 0.104934 0.753526
4225 2 0.277766 0.14846 0.670248
4227 4 0.25836 0.132794 0.672033
1196 4 0.400503 0.118007 0.678629
4163 4 0.359076 0.0901897 0.705545
4164 4 0.364782 0.133944 0.729074
4162 2 0.361929 0.112067 0.717309
2317 2 0.409835 0.143688 0.701471
2318 4 0.405737 0.13816 0.677433
725 4 0.354084 0.154013 0.673697
2319 4 0.413933 0.149216 0.725509
2980 2 0.30376 0.208301 0.720463
2981 4 0.283411 0.204694 0.734538
2982 4 0.324108 0.211908 0.706388
1201 2 0.380947 0.213404 0.665158
3558 4 0.343487 0.213 0.710783
3556 2 0.366118 0.207754 0.72003
3557 4 0.388749 0.202508 0.729278
1202 4 0.376535 0.201369 0.686626
3753 4 0.415071 0.168277 0.728721
3751 2 0.41984 0.192471 0.732855
3752 4 0.424609 0.216665 0.736989
1130 4 0.0162896 0.286815 0.687188
2047 2 0.327182 0.261483 0.688096
3245 4 0.281656 0.307747 0.739809
815 4 0.295377 0.312226 0.726779
814 2 0.315825 0.315127 0.712685
816 4 0.336273 0.318029 0.69859
2049 4 0.338414 0.254316 0.709254
992 4 0.0166985 0.394411 0.718214
2535 4 0.0199546 0.347328 0.676709
2741 4 0.00087159 0.344112 0.669241
2534 4 0.0683762 0.339768 0.666761
2533 2 0.0441654 0.343548 0.671735
991 2 0.00362982 0.392976 0.739482
822 4 0.344021 0.3344 0.690549
1955 4 0.00170867 0.462346 0.692023
2242 2 0.0412606 0.462523 0.672947
2244 4 0.0219821 0.459625 0.688604
2396 4 0.0885421 0.497576 0.734635
1053 4 0.100154 0.485666 0.724504
1051 2 0.106474 0.470427 0.743292
1281 4 0.170974 0.460141 0.690434
1176 4 0.225103 0.461507 0.720881
1280 4 0.212129 0.445606 0.714842
1279 2 0.191551 0.452873 0.702638
1174 2 0.247057 0.45182 0.713855
1175 4 0.269011 0.442134 0.706829
882 4 0.282813 0.438796 0.69299
880 2 0.297313 0.456618 0.683124