ITEM: TIMESTEP
1861500
ITEM: NUMBER OF ATOMS
4800
ITEM: BOX BOUNDS xy xz yz pp pp pp
-9.9985700000000008e+00 1.4597912199999996e+01 4.5993421999999953e+00
-9.9985700000000008e+00 9.9985700000000008e+00 0.0000000000000000e+00
-9.9985700000000008e+00 9.9985700000000008e+00 0.0000000000000000e+00
ITEM: ATOMS id type xs ys zs
3306 4 0.0311038 0.0174235 0.073273
2319 4 0.0664047 0.0647559 0.00578631
3948 4 0.136004 0.0571761 0.0604425
3946 2 0.154867 0.0574552 0.0767797
2922 4 0.395802 0.00187574 0.0630091
2042 4 0.409962 0.0103126 0.0557698
2041 2 0.435205 0.00913749 0.0562019
3014 4 0.114675 0.144216 0.0036521
3992 4 0.126088 0.156893 0.0129323
1108 2 0.197072 0.107619 0.020166
3991 2 0.148134 0.161985 0.0206956
1278 4 0.158571 0.129495 0.0685153
1937 4 0.221744 0.0904023 0.0558141
1110 4 0.211636 0.0973298 0.0394152
1936 2 0.240524 0.0934256 0.0712009
3514 2 0.292044 0.103281 0.0734756
3516 4 0.310092 0.100211 0.0557267
1439 4 0.32629 0.0959696 0.0686755
1438 2 0.349095 0.097855 0.0596424
1440 4 0.3719 0.0997404 0.0506094
405 3 0.380328 0.114685 0.0585059
3243 4 0.379229 0.153785 0.0204864
404 3 0.386831 0.142442 0.036571
401 1 0.396678 0.12509 0.05082
403 3 0.407154 0.133313 0.0686491
402 3 0.413011 0.10995 0.0392111
1716 4 0.417414 0.148687 0.0676133
1046 4 0.433195 0.117284 0.0903829
1714 2 0.440325 0.152439 0.0608373
1715 4 0.463235 0.156192 0.0540614
3310 2 0.472811 0.157167 0.0121689
3312 4 0.475143 0.156506 0.0370685
4052 4 0.185452 0.174442 0.0370151
3993 4 0.170179 0.167077 0.0284588
4051 2 0.202545 0.188867 0.0377302
4053 4 0.219638 0.203292 0.0384452
1128 4 0.233931 0.21472 0.0375811
1126 2 0.244384 0.211502 0.0147665
3030 4 0.29004 0.1861 0.0102935
3028 2 0.313394 0.175192 0.00182789
1758 4 0.311708 0.210392 0.0464448
1756 2 0.324642 0.194353 0.0632512
3320 4 0.32212 0.22548 0.045252
3319 2 0.312399 0.249843 0.0414213
1757 4 0.337575 0.178314 0.0800577
1094 4 0.38294 0.200973 0.0698715
1093 2 0.381857 0.195819 0.04551
1095 4 0.380774 0.190665 0.0211485
2837 4 0.467361 0.236401 0.0605191
2836 2 0.487779 0.234781 0.0753757
904 2 0.287355 0.302608 0.0207286
905 4 0.300155 0.29354 0.0414201
3321 4 0.302677 0.274206 0.0375905
906 4 0.274555 0.311677 3.703e-05
2060 4 0.45082 0.24909 0.0680728
2059 2 0.435343 0.265161 0.0831763
2993 4 0.434788 0.319015 0.0494386
4403 4 0.0144199 0.35878 0.0312463
4402 2 0.0318076 0.369264 0.0201441
4404 4 0.0491954 0.379748 0.00904193
878 4 0.125599 0.342078 0.0230081
3749 4 0.141302 0.342082 0.0372237
877 2 0.124159 0.362163 0.0084595
2625 4 0.18975 0.333761 0.0709393
3748 2 0.157558 0.345928 0.0550172
3750 4 0.173814 0.349774 0.0728106
179 3 0.146762 0.412233 0.0128833
2623 2 0.212618 0.339598 0.073159
2624 4 0.235487 0.345435 0.0753786
4059 4 0.251814 0.350075 0.0244836
1821 4 0.253801 0.335271 0.0663359
1819 2 0.271952 0.345072 0.0769527
1820 4 0.290104 0.354873 0.0875696
2145 4 0.296604 0.362573 0.0118227
2143 2 0.320375 0.349075 0.0158083
2144 4 0.344146 0.335577 0.0197939
2992 2 0.448637 0.334135 0.0396219
2994 4 0.462485 0.349255 0.0298052
939 4 0.464094 0.358116 0.0123935
1990 2 0.0113525 0.440578 0.0267958
1992 4 0.0321635 0.435605 0.0121788
785 4 0.045474 0.447685 0.0100308
784 2 0.0676948 0.439744 0.0221213
786 4 0.0899157 0.431802 0.0342118
1449 4 0.0952411 0.480966 0.0534223
1447 2 0.10863 0.484064 0.0738364
434 3 0.449943 0.415839 0.0755477
1810 2 0.0579927 0.0201011 0.139241
1811 4 0.0630468 0.0103659 0.116383
3304 2 0.0126262 0.0282056 0.0891789
1812 4 0.0529386 0.0298363 0.162099
220 3 0.195242 0.002704 0.141148
1721 4 0.178983 0.00137602 0.127889
3947 4 0.173729 0.0577343 0.0931169
216 1 0.209803 0.0128955 0.152506
217 3 0.208459 0.0338629 0.143708
3998 4 0.237824 0.00193179 0.169603
3195 4 0.219588 0.046061 0.15327
3193 2 0.231247 0.0560011 0.135051
2981 4 0.306557 0.998692 0.150389
3194 4 0.242905 0.0659412 0.116833
2980 2 0.319949 0.0163797 0.153119
2982 4 0.333341 0.0340679 0.155849
1276 2 0.168226 0.133702 0.0907556
1277 4 0.177882 0.137909 0.112996
1938 4 0.259304 0.0964488 0.0865877
3515 4 0.273996 0.10635 0.0912246
1000 2 0.303719 0.103808 0.145605
1001 4 0.307222 0.122032 0.130311
1002 4 0.300217 0.0855848 0.160899
3760 2 0.359584 0.159422 0.116074
3761 4 0.373759 0.144736 0.133189
4319 4 0.403928 0.130334 0.141613
1047 4 0.417849 0.140968 0.133299
1045 2 0.425522 0.129126 0.111841
4318 2 0.413426 0.127014 0.164805
1382 4 0.146727 0.178336 0.12307
1381 2 0.166242 0.175939 0.139189
1383 4 0.185757 0.173542 0.155308
3091 2 0.261703 0.175342 0.148935
3093 4 0.274245 0.174834 0.127243
3200 4 0.288925 0.184221 0.127666
3199 2 0.305786 0.197591 0.120669
3201 4 0.322648 0.210961 0.113672
1740 4 0.329014 0.215931 0.131506
3762 4 0.345409 0.174107 0.0989582
1738 2 0.352182 0.221339 0.131341
1739 4 0.37535 0.226747 0.131176
927 4 0.393801 0.215105 0.139319
925 2 0.404831 0.228492 0.155032
1194 4 0.480474 0.181737 0.142406
1192 2 0.492131 0.199186 0.151074
4036 2 0.0319759 0.328614 0.164026
2047 2 0.285306 0.326119 0.156289
2048 4 0.296296 0.304627 0.145033
4163 4 0.30616 0.290046 0.156516
4162 2 0.330694 0.280608 0.150518
4164 4 0.355229 0.271171 0.144521
420 3 0.376989 0.268133 0.148019
418 3 0.384402 0.298854 0.131764
416 1 0.386236 0.286255 0.15122
417 3 0.374494 0.299279 0.168044
419 3 0.409108 0.279362 0.157367
2061 4 0.419867 0.281233 0.0982797
802 2 0.490614 0.309121 0.143064
803 4 0.472807 0.330176 0.146778
4037 4 0.0548725 0.334607 0.164013
2887 2 0.0103922 0.348403 0.109092
2889 4 0.0172442 0.370366 0.108034
3327 4 0.0378999 0.368585 0.104289
3325 2 0.0484997 0.3791 0.122868
3326 4 0.0590995 0.389614 0.141446
3674 4 0.426486 0.408924 0.119302
3673 2 0.425835 0.388173 0.132155
3675 4 0.425185 0.367422 0.145007
432 3 0.457594 0.413416 0.112378
55 3 0.494604 0.412046 0.13594
4071 4 0.0137311 0.466475 0.11582
4260 4 0.0319163 0.471244 0.116283
4258 2 0.0518976 0.480273 0.12384
4259 4 0.0718789 0.489303 0.131396
1448 4 0.122019 0.487162 0.0942505
435 3 0.421693 0.416108 0.100508
69 3 0.45212 0.49662 0.135569
433 3 0.437713 0.445921 0.0981581
1035 4 0.434894 0.467896 0.0959393
3255 4 0.43796 0.48302 0.0838573
1034 4 0.440215 0.483528 0.142596
1033 2 0.437555 0.475712 0.119268
431 1 0.441563 0.422815 0.0966148
3215 4 0.436115 0.485387 0.164081
1074 4 0.0748367 0.0225962 0.167827
1072 2 0.0913408 0.033933 0.179291
1073 4 0.107845 0.0452698 0.190755
2900 4 0.127623 0.0426124 0.185911
2899 2 0.147447 0.044643 0.200379
2901 4 0.167271 0.0466736 0.214847
4007 4 0.17777 0.0528823 0.229911
219 3 0.203658 0.0150062 0.17491
3294 4 0.223983 0.00899165 0.183337
3292 2 0.225932 0.00803055 0.208262
3293 4 0.227882 0.00706944 0.233187
1142 4 0.244113 0.0140951 0.241408
4196 4 0.24802 0.0772101 0.203193
4195 2 0.266797 0.0821186 0.188879
3036 4 0.187062 0.158898 0.169853
4244 4 0.121227 0.157132 0.257893
3034 2 0.211205 0.161645 0.171808
3035 4 0.235348 0.164392 0.173764
4197 4 0.285573 0.0870272 0.174566
3854 4 0.337411 0.140783 0.217214
3853 2 0.357707 0.151252 0.216872
3855 4 0.378003 0.161721 0.216531
4320 4 0.422925 0.123694 0.187997
4577 4 0.436953 0.107105 0.187623
4576 2 0.462109 0.0975997 0.184936
4578 4 0.487265 0.088094 0.182249
1362 4 0.0062617 0.245774 0.204581
1360 2 0.0212216 0.230115 0.220423
1361 4 0.0361816 0.214456 0.236264
3486 4 0.0559053 0.200672 0.237635
3092 4 0.24916 0.17585 0.170626
1169 4 0.284508 0.201303 0.247146
1168 2 0.306261 0.209433 0.24613
1170 4 0.328015 0.217564 0.245115
926 4 0.41586 0.241879 0.170746
3003 4 0.428406 0.239181 0.186248
3001 2 0.453569 0.236977 0.18977
3002 4 0.478732 0.234773 0.193292
358 3 0.498711 0.236946 0.19577
4038 4 0.00907933 0.322621 0.16404
860 4 0.380857 0.308238 0.183172
1158 4 0.373391 0.26359 0.24907
859 2 0.398394 0.304582 0.201422
861 4 0.41593 0.300927 0.219672
3867 4 0.434354 0.300953 0.22828
3865 2 0.457397 0.288351 0.220498
3257 4 0.491627 0.2907 0.209668
3866 4 0.480439 0.275749 0.212715
2826 4 0.471205 0.318527 0.213806
1176 4 0.0947627 0.374684 0.209357
1174 2 0.112098 0.387732 0.215786
1175 4 0.129434 0.400781 0.222215
3033 4 0.144943 0.385138 0.221564
3031 2 0.166264 0.380932 0.235464
3032 4 0.187585 0.376726 0.249365
2049 4 0.274316 0.347612 0.167545
1038 4 0.287575 0.371857 0.224867
1037 4 0.27861 0.362679 0.176973
1036 2 0.283093 0.367268 0.20092
1983 4 0.289172 0.387217 0.237704
3410 4 0.41931 0.381294 0.183303
3411 4 0.371636 0.373702 0.184199
3409 2 0.395473 0.377498 0.183751
1365 4 0.421074 0.39059 0.201534
1363 2 0.436927 0.405571 0.196217
2824 2 0.465019 0.339812 0.226863
2825 4 0.458833 0.361097 0.239919
2935 2 0.256786 0.445521 0.229886
2936 4 0.273302 0.429135 0.215951
3117 4 0.279096 0.42679 0.196704
2937 4 0.24027 0.461906 0.243822
3116 4 0.321769 0.437157 0.177646
3939 4 0.340163 0.439625 0.184175
3115 2 0.300433 0.431973 0.187175
3937 2 0.361047 0.4491 0.1823
3938 4 0.381931 0.458575 0.180425
3216 4 0.391552 0.473856 0.175849
3214 2 0.413834 0.479621 0.169965
775 2 0.488239 0.415779 0.205024
1364 4 0.452781 0.420552 0.190899
776 4 0.462862 0.422481 0.208508
67 3 0.454264 0.490021 0.172565
1862 4 0.116168 0.0436015 0.321763
1861 2 0.141624 0.0354573 0.320112
4006 2 0.187037 0.0432152 0.251868
1863 4 0.167079 0.027313 0.31846
84 3 0.183365 0.0130052 0.315612
82 3 0.185466 0.0198968 0.278848
4008 4 0.196305 0.0335481 0.273825
3138 4 0.212025 0.0394082 0.282197
81 1 0.191035 0.00370708 0.295086
3136 2 0.225085 0.0554388 0.291565
1143 4 0.230032 0.00532936 0.287935
1141 2 0.237073 0.00971224 0.264672
2939 4 0.23857 0.0793428 0.319014
3137 4 0.238145 0.0714694 0.300933
2973 4 0.352036 0.0379262 0.28533
2971 2 0.362944 0.0553597 0.295266
2972 4 0.373852 0.0727933 0.305202
4477 2 0.413857 0.0777543 0.304268
4479 4 0.439304 0.0722913 0.307453
1883 4 0.464812 0.0308892 0.257856
1884 4 0.443891 0.0556155 0.298565
1882 2 0.454351 0.0432524 0.27821
394 3 0.500667 0.0593018 0.273131
4119 4 0.059229 0.154806 0.287278
4117 2 0.0812926 0.153654 0.275085
4118 4 0.103356 0.152502 0.262891
1053 4 0.282662 0.086884 0.249861
3915 4 0.25816 0.123927 0.296508
1052 4 0.253309 0.109683 0.287272
1051 2 0.267986 0.0982837 0.268566
3913 2 0.27394 0.132885 0.311565
3914 4 0.28972 0.141842 0.326621
3152 4 0.297987 0.158919 0.329533
4478 4 0.38841 0.0832173 0.301084
800 4 0.396126 0.160441 0.3047
3484 2 0.0573909 0.209128 0.260914
3485 4 0.0588765 0.217584 0.284193
4243 2 0.140635 0.168677 0.260158
4245 4 0.160043 0.180221 0.262424
924 4 0.170928 0.179333 0.245153
922 2 0.19283 0.180167 0.25683
1732 2 0.248106 0.182876 0.254356
1734 4 0.229114 0.170786 0.256588
923 4 0.214732 0.181001 0.268506
1733 4 0.267097 0.194967 0.252125
885 4 0.365439 0.210845 0.272828
801 4 0.36523 0.20376 0.291062
883 2 0.37601 0.228908 0.263767
799 2 0.380678 0.1821 0.297881
884 4 0.38658 0.246971 0.254707
1160 4 0.499583 0.190852 0.283719
1029 4 0.0791103 0.335574 0.331918
577 3 0.369447 0.323222 0.265029
1157 4 0.384739 0.306527 0.263453
1156 2 0.379065 0.285058 0.256262
578 3 0.381296 0.325177 0.300492
981 4 0.487879 0.275174 0.301957
3044 4 0.016375 0.361966 0.300661
3043 2 0.0396113 0.352979 0.310472
3045 4 0.0628476 0.343993 0.320283
2228 4 0.0916936 0.414556 0.290434
2969 4 0.222806 0.363661 0.283506
2968 2 0.239071 0.370598 0.29957
2970 4 0.255336 0.377535 0.315635
833 4 0.259703 0.392126 0.326491
832 2 0.273157 0.40934 0.331555
1982 4 0.296972 0.354767 0.275752
1981 2 0.293072 0.370992 0.256728
2274 4 0.350157 0.358408 0.304699
580 3 0.355201 0.353614 0.285439
2272 2 0.347867 0.382455 0.310734
2273 4 0.345577 0.406502 0.316768
576 1 0.374348 0.337396 0.281205
3381 4 0.375257 0.34147 0.314257
579 3 0.391824 0.346994 0.273532
3140 4 0.411113 0.349425 0.272591
3139 2 0.427357 0.364171 0.277301
3141 4 0.443602 0.378917 0.282011
1856 4 0.495826 0.342352 0.325174
4025 4 0.448546 0.394463 0.289671
4024 2 0.457545 0.406686 0.30801
4026 4 0.466543 0.418908 0.326348
1394 4 0.497574 0.34474 0.304734
2227 2 0.108496 0.427816 0.282999
2229 4 0.125298 0.441075 0.275564
3297 4 0.141179 0.452358 0.275586
3295 2 0.160423 0.463296 0.281253
3296 4 0.179667 0.474233 0.286921
2963 4 0.19335 0.442674 0.308806
3869 4 0.187078 0.485825 0.29941
2962 2 0.214295 0.432541 0.322073
3096 4 0.344954 0.425035 0.321774
3094 2 0.3218 0.432533 0.332251
1090 2 0.479519 0.492465 0.306969
1091 4 0.478484 0.479498 0.285971
62 3 0.214129 0.0776668 0.394767
2940 4 0.264445 0.0688061 0.361906
2938 2 0.251508 0.0740745 0.34046
4081 2 0.349611 0.0801804 0.350116
4083 4 0.327765 0.0874475 0.337258
3918 4 0.388104 0.0778141 0.356356
4082 4 0.371457 0.0729132 0.362973
230 3 0.459098 0.0828492 0.413673
2214 4 0.164491 0.111721 0.377767
2212 2 0.174079 0.105956 0.354883
2213 4 0.183667 0.100191 0.331999
61 1 0.211402 0.096708 0.407567
63 3 0.202617 0.115137 0.394221
65 3 0.232134 0.098253 0.416027
3916 2 0.409155 0.0841431 0.365222
1471 2 0.388272 0.121461 0.407747
1473 4 0.371205 0.136123 0.392825
3917 4 0.430206 0.0904721 0.374088
227 3 0.448159 0.0961096 0.37969
226 1 0.456979 0.100869 0.399895
229 3 0.442168 0.119253 0.409297
228 3 0.478317 0.105614 0.396312
3224 4 0.496427 0.111804 0.398269
870 4 0.0322306 0.186729 0.403789
3378 4 0.017042 0.17901 0.412983
868 2 0.0496897 0.195666 0.390964
869 4 0.0671489 0.204604 0.378138
815 4 0.0879481 0.205289 0.381816
814 2 0.104634 0.207447 0.36378
816 4 0.12132 0.209606 0.345744
3084 4 0.134264 0.217904 0.355604
3082 2 0.155541 0.226695 0.357857
3083 4 0.176818 0.235485 0.36011
3143 4 0.195476 0.227401 0.365359
3142 2 0.215371 0.233029 0.37738
3144 4 0.235266 0.238657 0.389401
3151 2 0.311512 0.170258 0.344906
3153 4 0.325038 0.181597 0.360279
908 4 0.336173 0.191898 0.370349
907 2 0.343518 0.210643 0.382094
909 4 0.350864 0.229387 0.39384
3054 4 0.345345 0.241506 0.409813
1076 4 0.455452 0.183784 0.360287
1075 2 0.47504 0.183247 0.375971
1077 4 0.494629 0.18271 0.391656
2155 2 0.159614 0.32798 0.399265
2156 4 0.169185 0.333194 0.37731
1355 4 0.230399 0.297029 0.357777
1354 2 0.248622 0.3097 0.353551
3006 4 0.283508 0.309083 0.359168
1356 4 0.266844 0.322371 0.349325
3004 2 0.299834 0.324131 0.36185
3380 4 0.39124 0.321408 0.358631
3379 2 0.383249 0.331439 0.336444
1670 4 0.400489 0.310289 0.373426
1669 2 0.420953 0.307531 0.388405
1671 4 0.441417 0.304772 0.403384
3435 4 0.456726 0.313567 0.395727
3433 2 0.479035 0.320186 0.392065
596 1 0.0208327 0.39023 0.411372
599 3 0.0269824 0.399431 0.39174
3062 4 0.0396222 0.410902 0.389436
600 3 0.0240847 0.367648 0.409154
4254 4 0.131807 0.351091 0.331367
1027 2 0.0973513 0.34731 0.338914
1028 4 0.115592 0.359046 0.34591
4252 2 0.155023 0.354264 0.337826
4253 4 0.178239 0.357437 0.344285
1139 4 0.182781 0.37119 0.356976
3230 4 0.183959 0.388231 0.413423
1138 2 0.204285 0.379548 0.359535
1140 4 0.225788 0.387906 0.362094
1743 4 0.239181 0.389587 0.376499
1741 2 0.258708 0.389339 0.392184
1742 4 0.278235 0.38909 0.407869
1008 4 0.284911 0.406322 0.406791
3005 4 0.31616 0.33918 0.364533
1704 4 0.328127 0.349094 0.375116
1702 2 0.349945 0.357149 0.374919
1703 4 0.371762 0.365205 0.374721
1006 2 0.302864 0.419414 0.410577
3354 4 0.391579 0.366552 0.374479
3352 2 0.416274 0.362249 0.367791
3353 4 0.440968 0.357947 0.361103
1857 4 0.460832 0.347437 0.361654
1855 2 0.478329 0.344895 0.343414
3061 2 0.0480232 0.432002 0.38736
3063 4 0.0564242 0.453103 0.385285
2964 4 0.23524 0.422409 0.33534
834 4 0.286611 0.426555 0.336619
1007 4 0.320816 0.432505 0.414362
4628 4 0.339974 0.434842 0.410902
3095 4 0.298646 0.44003 0.342727
4627 2 0.364578 0.427019 0.404275
4629 4 0.389182 0.419195 0.397649
780 4 0.103215 0.0133833 0.475587
3569 4 0.111795 0.0292202 0.477179
3568 2 0.123626 0.0467591 0.485294
3570 4 0.135458 0.0642979 0.49341
778 2 0.0892195 0.00291597 0.491289
3126 4 0.134921 0.0828482 0.500328
1826 4 0.419942 0.0456055 0.441545
1825 2 0.431724 0.0631101 0.433243
1827 4 0.443505 0.0806147 0.424941
3249 4 0.00517049 0.130302 0.468527
3247 2 0.00807625 0.153675 0.465307
64 3 0.196283 0.09547 0.424876
2149 2 0.223208 0.118681 0.482497
2150 4 0.241967 0.120671 0.466625
130 3 0.254049 0.133747 0.47212
126 1 0.275423 0.123105 0.465253
127 3 0.276223 0.100642 0.462906
2151 4 0.204448 0.11669 0.498368
129 3 0.28034 0.131591 0.444778
128 3 0.291588 0.125874 0.481014
1575 4 0.286373 0.14573 0.485518
1472 4 0.405339 0.1068 0.422668
3248 4 0.010982 0.177047 0.462088
3281 4 0.00193267 0.186322 0.479732
3376 2 0.00639132 0.199037 0.426679
849 4 0.276021 0.236411 0.45493
848 4 0.318642 0.200362 0.459678
847 2 0.297331 0.218386 0.457304
2894 4 0.359683 0.21169 0.50202
3073 2 0.344767 0.250504 0.489788
2157 4 0.150044 0.322766 0.42122
3052 2 0.364003 0.250776 0.420158
3075 4 0.329749 0.270062 0.478299
3053 4 0.382661 0.260047 0.430504
3981 4 0.0460828 0.407404 0.4352
597 3 0.0343531 0.394933 0.428513
3229 2 0.201273 0.401739 0.418493
4594 2 0.00583678 0.488752 0.47259
3979 2 0.0502655 0.426232 0.44928
4595 4 0.0174672 0.506492 0.48057
10 3 0.0562641 0.448725 0.48348
3980 4 0.0544483 0.445059 0.46336
2846 4 0.265315 0.436687 0.463184
2847 4 0.229012 0.427958 0.432251
2845 2 0.247164 0.432322 0.447718
3231 4 0.218586 0.415247 0.423563
2247 4 0.364779 0.481793 0.469048
1454 4 0.362001 0.472993 0.486261
4113 4 0.202064 0.0497506 0.520894
4111 2 0.215978 0.0598989 0.536963
4112 4 0.229891 0.0700471 0.553032
3773 4 0.227892 0.0679516 0.571708
4785 4 0.33973 0.0292712 0.580695
3119 4 0.4241 0.0066201 0.532548
4358 4 0.457099 0.0262865 0.502228
4357 2 0.476369 0.0379276 0.505057
4359 4 0.495639 0.0495687 0.507885
3252 4 0.00691291 0.163558 0.526746
3125 4 0.135675 0.128395 0.517652
3124 2 0.135298 0.105621 0.50899
1323 4 0.149053 0.14114 0.51794
1321 2 0.139841 0.162598 0.530041
212 3 0.212644 0.11842 0.568589
213 3 0.236729 0.0880433 0.554535
214 3 0.227558 0.120172 0.534312
211 1 0.231866 0.111218 0.555599
215 3 0.249841 0.118176 0.564929
2805 4 0.269615 0.11225 0.571929
1573 2 0.293644 0.154144 0.507189
2803 2 0.294659 0.111158 0.568884
960 4 0.340752 0.102101 0.563227
2804 4 0.319704 0.110065 0.56584
1574 4 0.300916 0.162558 0.52886
958 2 0.363919 0.0981063 0.552539
959 4 0.387086 0.0941115 0.541851
4524 4 0.40575 0.100074 0.542308
4522 2 0.42534 0.111523 0.541824
4523 4 0.44493 0.122972 0.541341
3479 4 0.461122 0.131112 0.53936
3478 2 0.467317 0.136939 0.562478
3480 4 0.473511 0.142765 0.585597
1322 4 0.130628 0.184056 0.542142
519 3 0.190837 0.226019 0.563414
516 1 0.182606 0.247887 0.570482
3431 4 0.237202 0.171074 0.57372
2706 4 0.255137 0.177409 0.574675
2705 4 0.292684 0.177972 0.541798
2704 2 0.273911 0.17769 0.558237
2893 2 0.36719 0.202428 0.524613
2895 4 0.374696 0.193167 0.547207
174 3 0.385105 0.20547 0.556823
171 1 0.387795 0.216852 0.576335
173 3 0.391677 0.237746 0.571203
1623 4 0.400795 0.23073 0.553284
3074 4 0.359786 0.230945 0.501276
1621 2 0.41871 0.236382 0.538316
1622 4 0.436625 0.242034 0.523349
3356 4 0.456062 0.243707 0.520039
838 2 0.446714 0.216494 0.586357
840 4 0.424134 0.209859 0.586153
3355 2 0.478954 0.249401 0.517386
1104 4 0.0109543 0.327238 0.527322
1102 2 0.0311879 0.327581 0.541898
1103 4 0.0514216 0.327924 0.556474
2943 4 0.097957 0.265346 0.546959
2941 2 0.12335 0.263244 0.547468
2942 4 0.148743 0.261142 0.547977
520 3 0.166936 0.259035 0.555563
518 3 0.200612 0.258606 0.572593
813 4 0.210357 0.272258 0.562549
811 2 0.231939 0.276829 0.572142
595 3 0.272979 0.280112 0.574414
592 3 0.276919 0.314665 0.582013
812 4 0.253521 0.2814 0.581734
3511 2 0.342615 0.277826 0.583376
3513 4 0.362162 0.28012 0.568647
3660 4 0.375355 0.290393 0.561201
3658 2 0.394308 0.293113 0.576513
4509 4 0.00141237 0.347244 0.524866
2925 4 0.0623545 0.335631 0.569322
2923 2 0.0720992 0.355723 0.565432
2924 4 0.0818438 0.375815 0.561543
1043 4 0.397026 0.391949 0.561757
1042 2 0.406566 0.369679 0.551281
1044 4 0.416105 0.347409 0.540806
500 3 0.398299 0.397606 0.582396
2566 2 0.00194832 0.479017 0.581182
8 3 0.0417329 0.471838 0.511737
6 1 0.0467632 0.449871 0.504265
7 3 0.0267704 0.442357 0.503328
9 3 0.0617816 0.436485 0.518984
634 3 0.208016 0.496737 0.545557
1218 4 0.320732 0.477083 0.579161
1455 4 0.36232 0.476382 0.536142
1453 2 0.36216 0.474687 0.511202
499 3 0.376611 0.431047 0.572226
2136 4 0.484592 0.462966 0.571855
3573 4 0.468201 0.453327 0.572484
3571 2 0.447964 0.445939 0.58194
2134 2 0.502886 0.475702 0.568312
1300 2 0.0172937 0.0652666 0.651484
1302 4 0.00906094 0.0461956 0.641372
1301 4 0.0255264 0.0843377 0.661595
3183 4 0.113441 0.055905 0.59607
3181 2 0.132819 0.06479 0.605416
2665 2 0.109745 0.0109657 0.663832
2667 4 0.13172 0.0187416 0.663725
2666 4 0.0877691 0.00318974 0.66394
3182 4 0.152197 0.073675 0.614763
1744 2 0.172842 0.0246367 0.66042
1745 4 0.198162 0.021362 0.657113
1620 4 0.214878 0.0259792 0.664829
1384 2 0.190495 0.0816529 0.616274
1386 4 0.215677 0.0758607 0.621051
3772 2 0.234142 0.0506085 0.589576
1618 2 0.235718 0.0356382 0.664542
3774 4 0.240393 0.0332653 0.607445
1619 4 0.256557 0.0452972 0.664255
325 3 0.275917 0.0474693 0.66802
722 3 0.272714 0.00987733 0.626011
4410 4 0.25433 0.0154905 0.614896
4408 2 0.235147 0.00382028 0.618184
723 3 0.309507 0.00441932 0.636965
324 3 0.295041 0.0638126 0.642982
4781 4 0.316275 0.0551866 0.640884
4780 2 0.325274 0.0498176 0.617731
4782 4 0.334273 0.0444486 0.594578
4453 2 0.346778 0.00223349 0.655353
4783 2 0.346322 0.00553632 0.588477
321 1 0.295038 0.0556085 0.664604
4455 4 0.36933 0.00724977 0.661523
1644 4 0.440743 0.073141 0.615337
1385 4 0.165313 0.0874452 0.611496
3329 4 0.149454 0.122476 0.594386
3328 2 0.162009 0.140984 0.594465
3330 4 0.174563 0.159493 0.594545
3830 4 0.15203 0.112428 0.665398
2790 4 0.220158 0.0900913 0.634298
3564 4 0.219997 0.152234 0.661812
2788 2 0.242015 0.0969523 0.639675
3562 2 0.241588 0.153762 0.649923
2789 4 0.263871 0.103813 0.645052
3563 4 0.26318 0.15529 0.638034
3677 4 0.281689 0.109124 0.638737
3676 2 0.298873 0.123257 0.641546
3678 4 0.316056 0.13739 0.644354
3800 4 0.325509 0.153902 0.652743
3799 2 0.344051 0.144397 0.636393
4730 4 0.42587 0.0889541 0.665279
3801 4 0.362593 0.134892 0.620044
3714 4 0.379272 0.140324 0.614932
3712 2 0.391564 0.157807 0.622243
1642 2 0.459993 0.085043 0.615653
3346 2 0.444142 0.166902 0.611142
1643 4 0.479242 0.096945 0.615968
3347 4 0.466279 0.157112 0.599571
2997 4 0.170744 0.240182 0.609184
2995 2 0.163183 0.22737 0.627909
2996 4 0.155622 0.214559 0.646634
3432 4 0.222106 0.166159 0.620766
3430 2 0.229654 0.168616 0.597243
4031 4 0.220547 0.208764 0.666183
364 3 0.2752 0.164929 0.625755
3507 4 0.269465 0.193728 0.642011
365 3 0.266614 0.182988 0.593015
362 3 0.266442 0.202495 0.62454
361 1 0.277033 0.183468 0.613203
363 3 0.299968 0.183741 0.610134
3505 2 0.270686 0.203678 0.66468
1668 4 0.31419 0.194176 0.611472
514 3 0.337142 0.163839 0.662162
1666 2 0.333619 0.201793 0.600584
175 3 0.368686 0.219134 0.5893
1667 4 0.353048 0.209411 0.589696
3454 2 0.367377 0.216905 0.643537
3455 4 0.368711 0.23672 0.629472
3456 4 0.366042 0.197089 0.657601
3713 4 0.403855 0.17529 0.629553
761 4 0.331815 0.243874 0.651031
512 3 0.345419 0.197785 0.663399
172 3 0.406418 0.204833 0.587875
839 4 0.469294 0.223129 0.586561
3348 4 0.422005 0.176692 0.622714
2556 4 0.41832 0.246799 0.640182
3389 4 0.488286 0.225159 0.585707
3873 4 0.00105187 0.308662 0.642141
517 3 0.172259 0.247624 0.590994
2528 4 0.13087 0.326498 0.598406
2527 2 0.14314 0.313139 0.617435
2529 4 0.15541 0.29978 0.636464
3129 4 0.235832 0.276574 0.646701
760 2 0.307495 0.25442 0.656911
1515 4 0.248095 0.261101 0.655894
3127 2 0.244357 0.281489 0.624167
3128 4 0.252882 0.286404 0.601632
594 3 0.268789 0.292987 0.609775
591 1 0.280633 0.293067 0.589833
593 3 0.303969 0.285113 0.593377
3512 4 0.323069 0.275532 0.598105
2554 2 0.415843 0.262085 0.620422
2555 4 0.413367 0.27737 0.600662
3659 4 0.413262 0.295832 0.591825
1450 2 0.48454 0.324219 0.64717
3862 2 0.0767594 0.346453 0.617915
3864 4 0.0800831 0.343924 0.642639
3863 4 0.0734358 0.348982 0.593192
3047 4 0.0962951 0.349918 0.649719
3046 2 0.100281 0.371234 0.659301
1339 2 0.283517 0.368849 0.661133
162 3 0.27339 0.408388 0.641015
1340 4 0.305379 0.374356 0.653395
1568 4 0.316562 0.382952 0.639959
1567 2 0.33318 0.395867 0.631318
1569 4 0.349798 0.408783 0.622677
2458 2 0.439108 0.370579 0.66343
733 3 0.477976 0.364933 0.590354
734 3 0.505 0.364434 0.617188
3314 4 0.471479 0.372057 0.663083
1451 4 0.474135 0.34828 0.642426
2460 4 0.460897 0.3645 0.650299
1593 4 0.472516 0.419293 0.624965
731 1 0.500226 0.367026 0.594512
1479 4 0.0487702 0.418531 0.65009
2465 4 0.00664486 0.427567 0.601821
2464 2 0.0314386 0.428408 0.602182
2466 4 0.0562322 0.429248 0.602544
2568 4 0.0146794 0.494584 0.59199
1435 2 0.0591513 0.4919 0.656574
1477 2 0.0690267 0.429047 0.649417
1437 4 0.0595532 0.492888 0.631597
1478 4 0.0892832 0.439563 0.648745
2814 4 0.103028 0.451637 0.649067
2812 2 0.12281 0.461007 0.656559
3721 2 0.164107 0.498599 0.661453
2813 4 0.142593 0.470377 0.664052
164 3 0.264755 0.43577 0.666656
2859 4 0.252878 0.422585 0.663772
161 1 0.282363 0.422643 0.654277
163 3 0.292432 0.43608 0.640688
3360 4 0.308411 0.44552 0.637238
3358 2 0.310583 0.456168 0.615091
3359 4 0.312754 0.466817 0.592945
3384 4 0.368977 0.415748 0.62227
3383 4 0.364988 0.445657 0.662243
3382 2 0.366982 0.430703 0.642256
3572 4 0.427726 0.438551 0.591395
498 3 0.382173 0.4221 0.608996
496 1 0.392037 0.419678 0.587879
497 3 0.411188 0.428598 0.588028
1591 2 0.49423 0.427318 0.627367
1136 4 0.0457587 0.0790178 0.666898
1640 4 0.0938229 0.00115556 0.734648
1746 4 0.147522 0.0279114 0.663728
323 3 0.295706 0.0724593 0.679895
322 3 0.314205 0.038642 0.667481
4412 4 0.372667 0.0221935 0.729722
105 3 0.372648 0.0182768 0.676641
103 3 0.363369 0.0550097 0.684867
1533 4 0.310446 0.0820508 0.678069
4411 2 0.361516 0.00273507 0.73126
102 3 0.376066 0.0295914 0.711693
101 1 0.378157 0.0346379 0.689487
104 3 0.400641 0.0359826 0.685359
4731 4 0.402803 0.0514595 0.674798
4729 2 0.414337 0.0702068 0.670038
4725 4 0.421574 0.0392476 0.740599
4723 2 0.445417 0.0254408 0.743325
4724 4 0.469259 0.0116341 0.746052
342 3 0.0316606 0.145795 0.7012
341 1 0.0339565 0.161237 0.717215
344 3 0.0417381 0.150057 0.736868
1135 2 0.067932 0.0859737 0.67031
3831 4 0.105879 0.102163 0.671881
1137 4 0.0901053 0.0929295 0.673722
3829 2 0.128955 0.107296 0.668639
1499 4 0.0641437 0.162466 0.698074
3477 4 0.0558472 0.160122 0.744576
2266 2 0.188646 0.128255 0.667902
2267 4 0.171061 0.114743 0.671704
3374 4 0.135985 0.143996 0.718143
3373 2 0.159151 0.14928 0.716463
3375 4 0.182317 0.154565 0.714782
2268 4 0.206231 0.141767 0.664101
1531 2 0.331306 0.0883831 0.687399
1532 4 0.352166 0.0947154 0.69673
1736 4 0.276115 0.156437 0.725471
3363 4 0.366638 0.0882408 0.711681
3361 2 0.374778 0.104925 0.725941
3362 4 0.382918 0.121609 0.740201
343 3 0.0127378 0.175535 0.720749
345 3 0.0493002 0.17307 0.709983
692 3 0.0475474 0.223998 0.721678
1498 2 0.0846035 0.169888 0.689198
1500 4 0.105063 0.177309 0.680323
693 3 0.0596179 0.246656 0.746185
691 1 0.0503442 0.245399 0.725081
3768 4 0.114719 0.189497 0.691451
3766 2 0.136454 0.19766 0.690448
3767 4 0.158189 0.205823 0.689444
4032 4 0.176191 0.197654 0.679476
123 3 0.177289 0.176351 0.714193
124 3 0.178855 0.20057 0.742599
4030 2 0.198369 0.203209 0.672829
122 3 0.210041 0.174175 0.73337
125 3 0.197553 0.202937 0.710323
121 1 0.190905 0.188643 0.725006
3369 4 0.209193 0.209087 0.725123
1737 4 0.22646 0.179566 0.72521
1735 2 0.251287 0.168002 0.725341
3367 2 0.22713 0.22193 0.720241
3368 4 0.245067 0.234772 0.715359
3506 4 0.271906 0.213628 0.687349
944 4 0.287567 0.169825 0.727755
943 2 0.299614 0.180368 0.710303
945 4 0.311661 0.190911 0.69285
513 3 0.33243 0.183976 0.694394
511 1 0.34585 0.178568 0.675396
515 3 0.36789 0.169163 0.681322
3552 4 0.376238 0.179575 0.669503
3550 2 0.401585 0.17448 0.67335
3551 4 0.426931 0.169385 0.677197
1326 4 0.46625 0.224693 0.744254
3171 4 0.486576 0.220366 0.744954
1700 4 0.0097454 0.264257 0.728455
695 3 0.0295672 0.259986 0.723564
694 3 0.0650879 0.250312 0.708886
4137 4 0.0759928 0.265783 0.707971
4135 2 0.100374 0.266218 0.713036
4136 4 0.124755 0.266654 0.718101
1392 4 0.138632 0.276058 0.716899
1390 2 0.159206 0.284354 0.724038
1391 4 0.179779 0.292649 0.731176
3695 4 0.196984 0.297 0.738609
3694 2 0.220858 0.292469 0.729482
762 4 0.283175 0.264967 0.662791
3696 4 0.244733 0.287938 0.720354
1514 4 0.248213 0.283908 0.700074
1513 2 0.248154 0.272504 0.677984
1146 4 0.121225 0.395509 0.677488
3048 4 0.104266 0.392549 0.668884
1144 2 0.125331 0.413344 0.692972
3802 2 0.181493 0.342443 0.733219
3803 4 0.188518 0.354633 0.713726
1518 4 0.199105 0.354125 0.69647
1516 2 0.222116 0.356308 0.688253
1341 4 0.261654 0.363341 0.66887
2857 2 0.237755 0.409261 0.674583
2858 4 0.222632 0.395938 0.685395
1517 4 0.245128 0.358491 0.680036
165 3 0.298377 0.410415 0.668236
2897 4 0.386012 0.380883 0.722463
2896 2 0.405233 0.383008 0.707225
2459 4 0.417318 0.376658 0.676561
2898 4 0.424454 0.385133 0.691987
3313 2 0.491648 0.382709 0.6627
822 4 0.490374 0.40419 0.710453
3795 4 0.0156599 0.466056 0.702524
329 3 0.0330993 0.465305 0.713791
330 3 0.0397176 0.487767 0.685965
326 1 0.0392883 0.485188 0.70857
327 3 0.0234045 0.502675 0.717661
328 3 0.0606969 0.485194 0.717515
1436 4 0.0587494 0.490912 0.68155
1664 4 0.0689593 0.490151 0.699059
1663 2 0.0915791 0.495506 0.704312
1145 4 0.129438 0.431178 0.708456
3722 4 0.144639 0.488425 0.668238
3429 4 0.217189 0.482745 0.696559
484 3 0.225586 0.489417 0.680882
3427 2 0.224876 0.458585 0.702636
3428 4 0.232562 0.434425 0.708714
3521 4 0.246789 0.420462 0.717973
3520 2 0.268878 0.421994 0.728893
3522 4 0.290966 0.423526 0.739813
2730 4 0.309965 0.424259 0.732462
2728 2 0.313237 0.444286 0.719732
2729 4 0.316509 0.464313 0.707003
2811 4 0.335454 0.467262 0.713535
2809 2 0.339316 0.486036 0.699188
3706 2 0.131434 0.067061 0.775543
3707 4 0.14933 0.0479142 0.784291
4770 4 0.346429 0.03832 0.761506
4768 2 0.353409 0.0568569 0.773963
4769 4 0.360389 0.0753939 0.78642
3588 4 0.401963 0.0260318 0.790763
3586 2 0.412195 0.0383686 0.808147
3587 4 0.422427 0.0507055 0.825531
1524 4 0.490871 0.023371 0.790463
1522 2 0.496123 0.0460049 0.788584
3708 4 0.113537 0.0862077 0.766795
2531 4 0.126087 0.112005 0.825977