ITEM: TIMESTEP
1659500
ITEM: NUMBER OF ATOMS
4800
ITEM: BOX BOUNDS xy xz yz pp pp pp
-9.9985700000000008e+00 1.3798026600000014e+01 3.7994566000000134e+00
-9.9985700000000008e+00 9.9985700000000008e+00 0.0000000000000000e+00
-9.9985700000000008e+00 9.9985700000000008e+00 0.0000000000000000e+00
ITEM: ATOMS id type xs ys zs
850 2 0.0761133 0.0142113 0.0346319
852 4 0.0837677 0.0361353 0.0368254
3461 4 0.43188 0.999982 0.0185814
2848 2 0.0769857 0.162417 0.0120717
2850 4 0.0622431 0.146311 0.00508305
3015 4 0.435811 0.147823 0.0565182
3013 2 0.453879 0.161152 0.0613326
899 4 0.496029 0.130655 0.0741537
917 4 0.111232 0.171192 0.0217092
2849 4 0.0917282 0.178523 0.0190603
916 2 0.134984 0.172717 0.0284075
918 4 0.158736 0.174242 0.0351059
1305 4 0.175474 0.182788 0.0359698
1303 2 0.199338 0.184801 0.0417357
1304 4 0.223202 0.186814 0.0475016
3159 4 0.243114 0.182316 0.0492058
3157 2 0.24945 0.198691 0.0328405
3158 4 0.255786 0.215065 0.0164752
905 4 0.34445 0.223941 0.0148912
3319 2 0.376334 0.243858 0.0141714
3321 4 0.354555 0.238011 0.00598387
3014 4 0.471946 0.174481 0.0661471
1758 4 0.467298 0.192731 0.0751596
1756 2 0.490594 0.197882 0.0720927
803 4 0.486862 0.250933 0.0773253
830 4 0.0030727 0.323536 0.0332032
2994 4 0.0215723 0.312937 0.0413826
3716 4 0.0165944 0.2956 0.0141001
2992 2 0.0396386 0.325672 0.0479648
809 4 0.325764 0.33084 0.029251
3320 4 0.398113 0.249705 0.0223589
3843 4 0.39762 0.328975 0.0748653
765 4 0.00952338 0.3679 0.0851596
2993 4 0.0577048 0.338407 0.0545471
2162 4 0.136724 0.415215 0.00440435
2161 2 0.112523 0.412138 0.00321399
2163 4 0.0883224 0.409062 0.00202363
1308 4 0.155312 0.401059 0.00569095
1991 4 0.294584 0.387129 0.0518971
810 4 0.293671 0.367748 0.0518223
808 2 0.309717 0.349294 0.0405366
1990 2 0.305503 0.404551 0.0409785
1416 4 0.342218 0.339894 0.0292083
1414 2 0.358454 0.347665 0.0133632
672 3 0.414613 0.363441 0.00247263
1447 2 0.151761 0.472949 0.077876
1449 4 0.169985 0.469971 0.0604262
742 3 0.170928 0.483483 0.0471271
1306 2 0.165843 0.421488 0.00541015
3339 4 0.195933 0.443836 0.00577673
744 3 0.204153 0.495689 0.0476656
1307 4 0.176375 0.441918 0.00512934
786 4 0.213322 0.486036 0.063592
784 2 0.237236 0.48691 0.0569142
3338 4 0.241049 0.457755 0.0108736
785 4 0.261149 0.487784 0.0502364
3337 2 0.218491 0.450795 0.00832514
1992 4 0.316423 0.421972 0.0300598
3156 4 0.335832 0.423693 0.0266386
3154 2 0.359549 0.427818 0.0294539
3155 4 0.383266 0.431942 0.0322692
1349 4 0.401951 0.431758 0.0295165
1348 2 0.425861 0.435625 0.0278145
1350 4 0.44977 0.439492 0.0261125
178 3 0.46932 0.431606 0.0244896
176 1 0.473661 0.452617 0.0192478
177 3 0.480306 0.462234 0.0383497
180 3 0.49063 0.450752 0.00378464
179 3 0.454086 0.466057 0.0109974
2900 4 0.0122197 0.0277453 0.16516
220 3 0.102702 0.0536681 0.15646
218 3 0.133901 0.0693772 0.154919
216 1 0.110911 0.072767 0.160169
678 3 0.286746 0.999401 0.113936
4328 4 0.221193 0.0110089 0.120337
4327 2 0.237701 0.0266048 0.122031
4329 4 0.254208 0.0422007 0.123726
4223 4 0.266418 0.0517375 0.134429
4222 2 0.281832 0.0673893 0.140916
2909 4 0.351236 0.0809233 0.120695
4224 4 0.297246 0.0830412 0.147403
2908 2 0.371027 0.0634947 0.127755
2910 4 0.390818 0.0460661 0.134814
377 3 0.400125 0.0406172 0.152614
376 1 0.414543 0.0497563 0.166203
379 3 0.419783 0.0685354 0.155802
1030 2 0.428645 0.0244006 0.111597
1031 4 0.416724 0.00805139 0.100105
1032 4 0.440566 0.0407498 0.12309
1638 4 0.451185 0.0476762 0.136462
1636 2 0.459674 0.0692639 0.135668
217 3 0.0994084 0.0895483 0.146812
59 3 0.344812 0.0829476 0.140358
60 3 0.309053 0.0979152 0.150855
56 1 0.331313 0.0941442 0.157202
58 3 0.338017 0.114295 0.16183
1637 4 0.468163 0.0908516 0.134874
3386 4 0.496947 0.13562 0.167709
763 2 0.0234006 0.373797 0.104278
764 4 0.0372778 0.379693 0.123396
2914 2 0.0563521 0.37978 0.15412
2916 4 0.0473056 0.365593 0.137207
2325 4 0.17569 0.390624 0.161003
1171 2 0.211023 0.391216 0.142632
1172 4 0.195348 0.390428 0.161975
2323 2 0.154627 0.382146 0.167267
1173 4 0.226697 0.392004 0.12329
3985 2 0.25877 0.416332 0.122587
3986 4 0.24025 0.403348 0.126606
509 3 0.321783 0.406654 0.123598
1412 4 0.317696 0.353399 0.163889
3842 4 0.393125 0.356219 0.116794
3841 2 0.395373 0.342597 0.0958298
3326 4 0.461524 0.368019 0.116265
3325 2 0.479747 0.381274 0.111871
1448 4 0.133537 0.475926 0.0953257
4260 4 0.15747 0.499911 0.124451
4070 4 0.167681 0.434494 0.1444
4071 4 0.165238 0.480041 0.124711
4069 2 0.166459 0.457267 0.134555
3987 4 0.277291 0.429316 0.118568
507 3 0.328932 0.426701 0.093753
508 3 0.29467 0.43487 0.110364
510 3 0.325835 0.442486 0.127571
506 1 0.317812 0.427767 0.113972
69 3 0.424592 0.493109 0.152748
1033 2 0.460159 0.496078 0.142461
1035 4 0.485315 0.491849 0.146241
2899 2 0.0332296 0.031854 0.176713
2901 4 0.0542395 0.0359627 0.188266
4007 4 0.0481508 0.04219 0.208713
4006 2 0.0514635 0.0265588 0.228225
3879 4 0.00612269 0.0766286 0.20916
4008 4 0.0547761 0.0109276 0.247738
219 3 0.107661 0.0791562 0.182383
3294 4 0.126251 0.0762072 0.19087
3292 2 0.122349 0.079964 0.215383
3293 4 0.118447 0.0837209 0.239895
3998 4 0.137668 0.0663137 0.175632
3997 2 0.162817 0.0601846 0.179145
2981 4 0.192085 0.0505151 0.202033
3999 4 0.187967 0.0540555 0.182658
2980 2 0.200552 0.0288523 0.213736
2982 4 0.209018 0.00718953 0.225439
57 3 0.333924 0.0811473 0.176181
1835 4 0.34001 0.0643912 0.185624
378 3 0.434242 0.0340232 0.169617
1834 2 0.364518 0.0599201 0.192365
1836 4 0.389027 0.055449 0.199107
380 3 0.404063 0.0555844 0.186123
1166 4 0.400483 0.0530537 0.215763
1165 2 0.424285 0.0403876 0.2184
1167 4 0.448088 0.0277216 0.221037
4173 4 0.468194 0.025588 0.22692
4171 2 0.482808 0.0422427 0.232556
4172 4 0.497422 0.0588974 0.238193
437 3 0.0187858 0.0890087 0.210474
3287 4 0.0290019 0.135017 0.23809
438 3 0.0214856 0.118849 0.231739
440 3 0.022726 0.121057 0.194188
436 1 0.0288179 0.107522 0.212162
439 3 0.0522738 0.100594 0.21264
888 4 0.0691201 0.108605 0.215343
886 2 0.0852772 0.123364 0.208428
887 4 0.101434 0.138124 0.201513
882 4 0.12115 0.14227 0.201201
880 2 0.145291 0.137208 0.193309
3101 4 0.175713 0.14015 0.167476
881 4 0.169432 0.132146 0.185417
3100 2 0.199561 0.139376 0.175402
3576 4 0.212777 0.104267 0.242221
3102 4 0.22341 0.138602 0.183328
3164 4 0.231669 0.122799 0.19689
3163 2 0.23142 0.115886 0.220868
3165 4 0.231171 0.108973 0.244846
1596 4 0.352175 0.122661 0.171715
1594 2 0.359581 0.140569 0.185414
1595 4 0.366988 0.158477 0.199113
1229 4 0.383479 0.164912 0.205215
4245 4 0.447637 0.116967 0.177242
4243 2 0.462462 0.116499 0.197437
4244 4 0.477287 0.116032 0.217632
4118 4 0.479792 0.115141 0.237623
2271 4 0.0103342 0.187884 0.200595
2269 2 0.0298182 0.18658 0.216515
2270 4 0.0493021 0.185277 0.232435
4548 4 0.0619138 0.18883 0.246983
1228 2 0.399232 0.180266 0.211608
1230 4 0.414985 0.195619 0.218001
924 4 0.43132 0.202949 0.223915
922 2 0.451694 0.212582 0.230189
923 4 0.472068 0.222215 0.236463
1734 4 0.482585 0.236917 0.240266
2049 4 0.0112515 0.330715 0.202931
2047 2 0.0189856 0.306329 0.198357
2048 4 0.0267197 0.281943 0.193783
4163 4 0.04457 0.269276 0.189227
4162 2 0.0656685 0.270462 0.20223
4164 4 0.086767 0.271649 0.215233
419 3 0.110033 0.265773 0.185365
420 3 0.10547 0.265195 0.222721
416 1 0.118883 0.270465 0.205896
418 3 0.120239 0.292947 0.207041
2826 4 0.139687 0.294825 0.209354
417 3 0.140408 0.257889 0.208096
860 4 0.159585 0.261591 0.210143
2824 2 0.149596 0.315623 0.208636
859 2 0.179639 0.267152 0.222333
861 4 0.199693 0.272713 0.234523
3867 4 0.216671 0.278673 0.240729
3865 2 0.231242 0.296072 0.242431
884 4 0.320878 0.260154 0.242022
3866 4 0.245812 0.313471 0.244133
3257 4 0.261504 0.322564 0.241214
3256 2 0.285509 0.325001 0.24575
3258 4 0.309514 0.327437 0.250287
883 2 0.345402 0.261886 0.244148
885 4 0.369926 0.263618 0.246275
1785 4 0.328945 0.327498 0.248282
799 2 0.410239 0.262545 0.242158
800 4 0.432651 0.259473 0.230357
3234 4 0.439916 0.297038 0.20026
3232 2 0.436427 0.318957 0.188248
2934 4 0.407526 0.314319 0.247119
777 4 0.0076932 0.408828 0.187881
2915 4 0.0653986 0.393968 0.171032
2825 4 0.159506 0.336422 0.207917
2324 4 0.133564 0.373669 0.173531
4077 4 0.176643 0.341554 0.211994
4075 2 0.188924 0.347948 0.232048
4076 4 0.201205 0.354342 0.252102
1411 2 0.326225 0.373277 0.172757
1413 4 0.334754 0.393155 0.181625
2412 4 0.33858 0.40376 0.197194
2410 2 0.359206 0.408298 0.185242
2808 4 0.364727 0.417408 0.238369
3527 4 0.39663 0.403296 0.170059
3528 4 0.422983 0.356607 0.166153
3526 2 0.409807 0.379952 0.168106
3233 4 0.432939 0.340877 0.176237
2411 4 0.379832 0.412836 0.17329
2128 2 9.61873e-05 0.488586 0.206983
2129 4 0.0244004 0.490832 0.209901
2207 4 0.0431344 0.492441 0.205407
2206 2 0.0671328 0.496188 0.20467
2806 2 0.340295 0.418321 0.244359
3600 4 0.350167 0.478256 0.207345
3598 2 0.366456 0.487363 0.192593
3599 4 0.382744 0.496469 0.177841
70 3 0.401559 0.486389 0.180704
1197 4 0.382643 0.425214 0.235262
1195 2 0.403755 0.423843 0.221532
1196 4 0.424868 0.422472 0.207803
2935 2 0.463206 0.478521 0.245397
3138 4 0.0354606 0.0104942 0.315739
4082 4 0.0093488 0.0664948 0.267268
3136 2 0.0135924 0.0173012 0.32821
81 1 0.0557082 0.00749659 0.282574
84 3 0.036515 0.00728419 0.295552
82 3 0.0495442 0.0206496 0.264061
2973 4 0.0263194 0.0735504 0.271024
83 3 0.0716722 0.0163944 0.294721
1143 4 0.0816769 0.0322112 0.29649
1141 2 0.104469 0.0352109 0.288101
1142 4 0.127262 0.0382106 0.279712
4479 4 0.107462 0.0704772 0.313138
1883 4 0.143683 0.0369163 0.267654
1882 2 0.158993 0.0524522 0.260561
1884 4 0.174304 0.0679882 0.253468
4228 2 0.319319 0.0104411 0.311569
4229 4 0.332007 0.0292619 0.309028
392 3 0.344405 0.0391541 0.299175
394 3 0.363215 0.0592087 0.276842
391 1 0.360496 0.0526148 0.298731
395 3 0.353391 0.0708968 0.311816
393 3 0.38091 0.0405842 0.306794
1877 4 0.417653 0.0671759 0.323642
3286 2 0.00862142 0.146692 0.250699
2971 2 0.0424391 0.0876086 0.279654
2972 4 0.0585589 0.101667 0.288283
4478 4 0.0767665 0.108706 0.290998
4477 2 0.0921144 0.0895916 0.302068
3575 4 0.170743 0.0876947 0.255814
3574 2 0.19176 0.0959808 0.249018
1362 4 0.180933 0.159692 0.290516
2948 4 0.229599 0.119177 0.326514
1164 4 0.342666 0.131729 0.292987
1162 2 0.353477 0.108149 0.298382
3626 4 0.422958 0.0819985 0.313107
1163 4 0.364288 0.0845701 0.303777
3625 2 0.445641 0.0853222 0.304709
3627 4 0.468325 0.0886459 0.29631
4117 2 0.474988 0.101379 0.257137
4119 4 0.470185 0.0876174 0.27665
4546 2 0.0740878 0.206045 0.256487
4547 4 0.0862619 0.223259 0.265991
3084 4 0.166255 0.243148 0.261998
1360 2 0.201189 0.169503 0.284218
3082 2 0.189048 0.238548 0.273116
3083 4 0.21184 0.233948 0.284233
1361 4 0.221445 0.179313 0.277921
3143 4 0.216705 0.238248 0.30177
3486 4 0.226048 0.197148 0.284224
3484 2 0.244809 0.209887 0.280447
3142 2 0.229218 0.249295 0.318788
3485 4 0.263569 0.222627 0.276669
814 2 0.286433 0.210428 0.322441
1157 4 0.302188 0.221433 0.29342
816 4 0.30061 0.226245 0.313509
1156 2 0.311131 0.235081 0.275931
815 4 0.272255 0.194611 0.331373
3379 2 0.00349443 0.288956 0.306871
3354 4 0.0110272 0.336814 0.335144
3380 4 0.0280083 0.290863 0.308524
1670 4 0.0483112 0.293093 0.308037
1669 2 0.0698293 0.29435 0.320295
1671 4 0.0913473 0.295606 0.332553
3144 4 0.24173 0.260343 0.335807
1158 4 0.320074 0.248729 0.258442
1893 4 0.282631 0.334794 0.307171
801 4 0.387827 0.265616 0.253959
793 2 0.373699 0.305649 0.318929
794 4 0.35648 0.295624 0.331536
980 4 0.344135 0.28236 0.330376
795 4 0.390919 0.315674 0.306322
2933 4 0.403721 0.325056 0.295927
2932 2 0.405623 0.319688 0.271523
841 2 0.496608 0.274307 0.325316
3352 2 0.0333823 0.343713 0.33096
967 2 0.0340938 0.414217 0.287946
3353 4 0.0557375 0.350612 0.326776
1857 4 0.07075 0.35978 0.322726
968 4 0.0590586 0.406627 0.284169
372 3 0.0727308 0.404839 0.298759
1855 2 0.0950612 0.359582 0.31673
375 3 0.0920329 0.41187 0.32905
1856 4 0.119372 0.359384 0.310735
4709 4 0.118169 0.406838 0.282695
1394 4 0.137799 0.364513 0.305289
891 4 0.112627 0.404886 0.329732
567 3 0.207837 0.370593 0.255293
1395 4 0.185597 0.364905 0.290839
1393 2 0.161698 0.364709 0.298064
570 3 0.205927 0.363779 0.291847
569 3 0.208518 0.398316 0.279966
566 1 0.215243 0.375555 0.276146
3071 4 0.213892 0.411645 0.291808
568 3 0.2388 0.369735 0.276818
1892 4 0.259786 0.37284 0.278721
1891 2 0.271209 0.353817 0.292946
3135 4 0.27835 0.380498 0.278364
3133 2 0.295429 0.394509 0.272107
3134 4 0.312509 0.408521 0.26585
1783 2 0.336876 0.346565 0.259603
1784 4 0.344808 0.365632 0.270923
875 4 0.41346 0.391138 0.302193
79 3 0.414425 0.390522 0.321161
874 2 0.432237 0.392644 0.286083
876 4 0.451015 0.39415 0.269974
4294 2 0.00698373 0.464397 0.305277
969 4 0.00912903 0.421807 0.291722
4295 4 0.0322292 0.459252 0.302151
4274 4 0.0425999 0.473823 0.298203
4273 2 0.0631091 0.484263 0.294997
371 1 0.0860396 0.418712 0.307842
374 3 0.0736862 0.440404 0.308159
4275 4 0.0836183 0.494702 0.291791
373 3 0.105381 0.417697 0.294776
2264 4 0.101285 0.482418 0.297656
4708 2 0.139142 0.416283 0.286893
2263 2 0.122767 0.477764 0.284266
4710 4 0.160115 0.425727 0.291091
2265 4 0.144248 0.473111 0.270877
4134 4 0.161611 0.479482 0.27253
3072 4 0.168193 0.438785 0.302781
4132 2 0.18543 0.482787 0.276603
3070 2 0.191042 0.425215 0.297295
4133 4 0.20925 0.486092 0.280676
978 4 0.219022 0.498831 0.290432
1081 2 0.316309 0.421203 0.330803
2807 4 0.315864 0.419234 0.250348
1082 4 0.333677 0.428187 0.315739
3296 4 0.341022 0.444886 0.315286
3295 2 0.364372 0.444762 0.324289
2892 4 0.338383 0.488127 0.331649
2229 4 0.393697 0.453391 0.317934
2227 2 0.4185 0.450062 0.323401
2936 4 0.476156 0.456905 0.254325
2963 4 0.462107 0.446357 0.322274
2962 2 0.46666 0.450259 0.298151
2964 4 0.471213 0.45416 0.274027
2228 4 0.443304 0.446733 0.328868
2187 4 0.47578 0.433796 0.331651
3218 4 0.0368347 0.0197546 0.361558
3217 2 0.0584281 0.0286933 0.363221
3219 4 0.0800215 0.037632 0.364885
3224 4 0.0918493 0.0757784 0.414707
228 3 0.145011 0.0235052 0.380982
993 4 0.154123 0.0394738 0.378754
991 2 0.167862 0.040068 0.357946
992 4 0.181601 0.0406622 0.337139
3667 2 0.34525 0.0622369 0.351698
3668 4 0.322281 0.0769914 0.352589
1876 2 0.418617 0.0466498 0.337615
3669 4 0.36822 0.0474823 0.350807
1878 4 0.419581 0.0261238 0.351588
1079 4 0.425302 0.00945607 0.362416
2209 2 0.0137724 0.167511 0.359117
2949 4 0.196965 0.0903599 0.341279
2947 2 0.213282 0.104769 0.333896
3975 4 0.311535 0.143811 0.368103
3973 2 0.314329 0.120416 0.359434
3974 4 0.317122 0.0970217 0.350766
2211 4 0.0278247 0.184409 0.352664
868 2 0.260046 0.190928 0.408098
869 4 0.269983 0.189473 0.385082
3053 4 0.347452 0.216525 0.415865
3052 2 0.362956 0.228549 0.403053
3054 4 0.37846 0.240574 0.39024
849 4 0.440053 0.244607 0.39761
3435 4 0.107757 0.301428 0.335843
3433 2 0.127534 0.31191 0.34228
3434 4 0.147312 0.322392 0.348716
4304 4 0.1675 0.32159 0.348812
4303 2 0.183674 0.332951 0.361462
19 3 0.249571 0.329333 0.362351
981 4 0.30577 0.2647 0.35155
979 2 0.324952 0.27353 0.340963
909 4 0.374389 0.260511 0.385547
907 2 0.393465 0.267031 0.372509
908 4 0.412541 0.273552 0.359471
3153 4 0.429803 0.258452 0.358213
3151 2 0.451386 0.267508 0.358593
842 4 0.490206 0.268439 0.34843
3152 4 0.472969 0.276563 0.358973
1187 4 0.00142072 0.397645 0.365943
3809 4 0.0195989 0.405046 0.369355
3808 2 0.0412751 0.412492 0.3754
889 2 0.132305 0.398852 0.345396
890 4 0.151982 0.392818 0.361061
1847 4 0.171694 0.393818 0.36718
1846 2 0.195166 0.395341 0.359547
4305 4 0.199848 0.344311 0.374112
1848 4 0.218638 0.396865 0.351915
18 3 0.218528 0.346804 0.381601
16 1 0.2391 0.349281 0.372142
17 3 0.234998 0.365556 0.355918
20 3 0.252922 0.355515 0.388097
2829 4 0.27374 0.351799 0.392824
4362 4 0.238998 0.39376 0.349045
4360 2 0.259031 0.405237 0.349244
4361 4 0.279064 0.416714 0.349443
2827 2 0.294132 0.361336 0.399243
920 4 0.351703 0.360917 0.334788
1083 4 0.298942 0.414219 0.345867
2828 4 0.314524 0.370873 0.405663
902 4 0.332693 0.376317 0.405485
919 2 0.366567 0.37473 0.346127
901 2 0.354652 0.381647 0.413795
921 4 0.381431 0.388542 0.357466
80 3 0.403407 0.391178 0.357196
76 1 0.421575 0.390184 0.343253
78 3 0.432331 0.408112 0.347306
77 3 0.436775 0.370623 0.347081
2220 4 0.45079 0.379715 0.354062
2218 2 0.471828 0.363504 0.360379
2219 4 0.492866 0.347293 0.366697
2186 4 0.45216 0.399207 0.351472
3810 4 0.0629514 0.419939 0.381445
2238 4 0.0684845 0.485085 0.378822
4236 4 0.0786099 0.429853 0.377141
4234 2 0.0993977 0.439756 0.373507
4235 4 0.120185 0.449659 0.369873
3131 4 0.133681 0.462342 0.373033
3130 2 0.153694 0.473593 0.370208
3132 4 0.173706 0.484845 0.367383
4265 4 0.187008 0.497161 0.365951
3297 4 0.387723 0.444639 0.333291
3981 4 0.45127 0.474436 0.414237
2185 2 0.46397 0.416501 0.341561
597 3 0.470193 0.468324 0.408546
1481 4 0.047501 0.0669333 0.465356
3225 4 0.0593353 0.0735097 0.452259
3223 2 0.0755923 0.0746441 0.433483
3283 2 0.358684 0.00819767 0.430687
3284 4 0.344612 0.996572 0.445685
3285 4 0.372756 0.0198237 0.415688
267 3 0.492991 0.00306754 0.498986
1480 2 0.0336901 0.0900123 0.467276
1482 4 0.0198793 0.113091 0.469195
4469 4 0.0329327 0.123183 0.478405
4468 2 0.0507386 0.137012 0.482457
4470 4 0.0685446 0.150842 0.486508
388 3 0.0694194 0.162417 0.471547
3377 4 0.238646 0.165719 0.477263
4597 2 0.0104413 0.191359 0.459163
4599 4 0.0300616 0.197987 0.447108
390 3 0.0478478 0.185958 0.44765
3775 2 0.0629274 0.241144 0.464893
3776 4 0.0682481 0.217322 0.472445
386 1 0.0661256 0.183385 0.461635
389 3 0.0626829 0.199876 0.477955
387 3 0.0852483 0.185257 0.449541
2984 4 0.103538 0.18887 0.451278
2983 2 0.120964 0.195535 0.466489
2985 4 0.138389 0.202201 0.4817
1538 4 0.157222 0.193562 0.487707
3376 2 0.251897 0.17259 0.45813
870 4 0.250109 0.192384 0.431115
3378 4 0.265149 0.179461 0.438996
3687 4 0.329092 0.170999 0.44946
3686 4 0.353827 0.18122 0.490504
3685 2 0.34146 0.176109 0.469982
848 4 0.456122 0.216936 0.437835
847 2 0.448088 0.230771 0.417722
3777 4 0.0576067 0.264966 0.45734
3357 4 0.499202 0.259179 0.442596
3356 4 0.474641 0.283287 0.481588
1622 4 0.477634 0.276199 0.500015
3355 2 0.486922 0.271233 0.462092
903 4 0.376611 0.386977 0.422105
1107 4 0.393596 0.394107 0.425015
1105 2 0.414309 0.401906 0.433487
1106 4 0.435022 0.409705 0.441959
3812 4 0.448046 0.417982 0.454336
1948 2 0.0643202 0.464093 0.490655
1950 4 0.0702731 0.443261 0.476972
4595 4 0.0878515 0.444768 0.46724
4594 2 0.113099 0.442609 0.469146
4596 4 0.138347 0.440449 0.471052
1602 4 0.15688 0.442852 0.477037
1600 2 0.167069 0.4575 0.492605
1453 2 0.324647 0.495806 0.446754
1454 4 0.338496 0.478982 0.461875
2247 4 0.357795 0.480073 0.456594
2246 4 0.403188 0.45095 0.448618
3980 4 0.409764 0.463299 0.436006
2245 2 0.380491 0.465512 0.452606
3979 2 0.430517 0.468867 0.425122
600 3 0.498987 0.48285 0.422195
3811 2 0.464567 0.433538 0.456303
596 1 0.490514 0.463696 0.419938
3813 4 0.481088 0.449093 0.45827
598 3 0.486725 0.45523 0.440857
778 2 0.000254063 0.0366521 0.535186
779 4 0.0124864 0.0245479 0.515692
4359 4 0.477856 0.0685222 0.51142
4357 2 0.488234 0.0443373 0.508805
1975 2 0.436144 0.0788066 0.507343
4358 4 0.498612 0.0201523 0.50619
1976 4 0.4602 0.0676193 0.502976
2724 4 0.220881 0.0951129 0.558916
2722 2 0.241038 0.1056 0.553955
2723 4 0.261195 0.116088 0.548993
1613 4 0.264899 0.134709 0.544449
1612 2 0.282318 0.141523 0.529331
1614 4 0.299737 0.148336 0.514212
1977 4 0.412088 0.0899938 0.51171
3248 4 0.413643 0.157839 0.510247
3247 2 0.434762 0.140258 0.510251
3249 4 0.455882 0.122677 0.510255
1041 4 0.458703 0.128692 0.529803
1039 2 0.481184 0.122947 0.541407
1539 4 0.149375 0.220154 0.529965
1537 2 0.153298 0.206858 0.508836
3711 4 0.158558 0.214185 0.548049
3709 2 0.17437 0.20277 0.565619
813 4 0.145712 0.249922 0.577479
2943 4 0.252972 0.173495 0.577529
3282 4 0.197397 0.172032 0.580733
1697 4 0.295726 0.167195 0.517935
1696 2 0.305116 0.188298 0.518482
518 3 0.318098 0.218477 0.564894
1698 4 0.314506 0.209401 0.519029
2941 2 0.275159 0.180134 0.583122
3124 2 0.425622 0.193466 0.530029
3125 4 0.436715 0.210077 0.54212
3126 4 0.41453 0.176854 0.517937
173 3 0.481619 0.242061 0.545919
595 3 0.194303 0.273775 0.576579
593 3 0.23206 0.273171 0.577134
592 3 0.207284 0.305423 0.582102
3512 4 0.252188 0.273173 0.575948
3511 2 0.273366 0.270513 0.562136
3513 4 0.294543 0.267852 0.548324
3660 4 0.298497 0.282727 0.536076
3658 2 0.31372 0.298188 0.543583
3659 4 0.328943 0.313648 0.551091
2874 4 0.345819 0.320515 0.555581
2872 2 0.368304 0.310952 0.545259
762 4 0.414403 0.251165 0.580331
2873 4 0.39079 0.301389 0.534938
4674 4 0.408482 0.305971 0.526828
4672 2 0.426754 0.318687 0.520871
760 2 0.435917 0.259655 0.576062
4673 4 0.445026 0.331403 0.514914
761 4 0.457432 0.268145 0.571792
3756 4 0.457337 0.285318 0.56297
3754 2 0.456456 0.309532 0.567972
1623 4 0.471705 0.285886 0.548904
1621 2 0.47467 0.281043 0.524459
2560 2 0.0868317 0.389148 0.576574
2562 4 0.107451 0.39287 0.564064
1652 4 0.12589 0.381898 0.563924
1651 2 0.148681 0.377375 0.552801
1653 4 0.171472 0.372852 0.541678
1353 4 0.184865 0.383043 0.549511
1351 2 0.206074 0.389405 0.558577
1352 4 0.227282 0.395766 0.567642
1767 4 0.246787 0.396918 0.569178
1765 2 0.257327 0.415713 0.577714
3426 4 0.341438 0.369406 0.564895
3424 2 0.358204 0.36601 0.583704
3755 4 0.455574 0.333746 0.572974
1104 4 0.470195 0.400006 0.55503
4508 4 0.457671 0.340087 0.526134
4507 2 0.46243 0.361371 0.535866
4509 4 0.467189 0.382655 0.545599
1102 2 0.49049 0.394228 0.569972
1949 4 0.0583673 0.484926 0.504338
2595 4 0.0563582 0.49446 0.521705
2593 2 0.0779394 0.491773 0.534896
2594 4 0.0995207 0.489085 0.548087
2567 4 0.140375 0.459023 0.575353
1469 4 0.155493 0.449718 0.564845
1468 2 0.165419 0.462134 0.546953
1470 4 0.175346 0.47455 0.529062
1601 4 0.177257 0.472148 0.508173
9 3 0.193181 0.478765 0.533031
6 1 0.192346 0.494605 0.516216
2504 4 0.144125 0.498637 0.580012
10 3 0.177731 0.490722 0.499849
8 3 0.213912 0.49383 0.507324
2665 2 0.0366561 0.00828498 0.668054
2667 4 0.0561428 0.0202932 0.665381
2511 4 0.310161 0.00953677 0.600463
4784 4 0.317164 0.0155178 0.617483
4783 2 0.333981 0.0288752 0.625978
4785 4 0.350798 0.0422327 0.634472
1947 4 0.125003 0.112263 0.632999
1945 2 0.130222 0.119141 0.656136
4780 2 0.188278 0.124049 0.640922
4781 4 0.180396 0.128568 0.664489
4782 4 0.196161 0.119531 0.617354
3281 4 0.247267 0.160103 0.590345
1499 4 0.366365 0.157092 0.618796
1498 2 0.378863 0.163116 0.638865
1500 4 0.391361 0.16914 0.658935
2996 4 0.463577 0.158746 0.596471
3432 4 0.482977 0.158606 0.600138
2995 2 0.439519 0.167104 0.603572
3240 4 0.176468 0.196422 0.667093
3280 2 0.222332 0.166067 0.585539
3710 4 0.190182 0.191355 0.583189
2526 4 0.189858 0.203022 0.653786
2524 2 0.210822 0.213105 0.653961
2525 4 0.231786 0.223189 0.654137
3741 4 0.242921 0.232119 0.640175
517 3 0.30188 0.233174 0.596775
516 1 0.317903 0.216206 0.587977
3739 2 0.262997 0.243212 0.643344
2942 4 0.297346 0.186773 0.588716
520 3 0.312459 0.196161 0.593565
519 3 0.339077 0.217718 0.59667
3507 4 0.357098 0.223441 0.595593
3505 2 0.377566 0.23347 0.590689
2997 4 0.415461 0.175463 0.610672
2554 2 0.426628 0.226918 0.649614
2555 4 0.405084 0.24039 0.658739
3506 4 0.398034 0.243499 0.585785
2556 4 0.448172 0.213446 0.64049
1668 4 0.455911 0.207274 0.62327
1666 2 0.469973 0.223266 0.614492
1667 4 0.484035 0.239258 0.605714
811 2 0.165936 0.258808 0.585606
591 1 0.21116 0.282791 0.586196
3129 4 0.188077 0.268007 0.660266
812 4 0.186161 0.267695 0.593733
3128 4 0.191556 0.276683 0.611285
3127 2 0.189816 0.272345 0.635775
594 3 0.211332 0.279325 0.609134
3740 4 0.283073 0.254304 0.646513
3759 4 0.302108 0.251454 0.642735
3757 2 0.326633 0.248773 0.649154
3758 4 0.351159 0.246092 0.655573
2439 4 0.0111344 0.361505 0.611398
2561 4 0.0662126 0.385427 0.589085
2437 2 0.0311763 0.372158 0.606421
2438 4 0.0512182 0.382812 0.601444
1451 4 0.0474039 0.376685 0.663965
3425 4 0.37497 0.362614 0.602512
3270 4 0.390023 0.35523 0.614535
3268 2 0.407895 0.369418 0.613618
3269 4 0.425766 0.383607 0.6127
2858 4 0.445244 0.374185 0.614895
2857 2 0.465943 0.383636 0.62036
2859 4 0.486643 0.393087 0.625824
2568 4 0.123285 0.425688 0.60435
2566 2 0.13183 0.442356 0.589852
2466 4 0.19278 0.498003 0.594788
2464 2 0.217978 0.491164 0.597477
2465 4 0.243177 0.484325 0.600166
1830 4 0.263268 0.48469 0.601415
1828 2 0.269262 0.459808 0.603529
1829 4 0.275255 0.434926 0.605642
1766 4 0.267867 0.434508 0.58625
483 3 0.339278 0.479516 0.64574
2421 4 0.351052 0.473143 0.628284
2419 2 0.366886 0.484854 0.615561
2420 4 0.382721 0.496565 0.602837
1217 4 0.396314 0.495324 0.58669
1216 2 0.416404 0.477069 0.590645
3360 4 0.436238 0.442351 0.660951
3359 4 0.431626 0.458195 0.613547
3358 2 0.433932 0.450273 0.637249
1218 4 0.436493 0.458813 0.5946
1706 4 0.488661 0.471689 0.661863
1561 2 0.0334405 0.00213449 0.743653
1562 4 0.0568533 0.00727836 0.74169
1746 4 0.075453 0.0244779 0.665841
3414 4 0.076602 0.007358 0.738056
1744 2 0.0907017 0.0386026 0.676045
1745 4 0.10595 0.0527274 0.686249
1620 4 0.12454 0.0568297 0.688884
3412 2 0.096857 0.0179928 0.73407
3413 4 0.117112 0.0286275 0.730083
1640 4 0.129493 0.00997664 0.735021
1618 2 0.137491 0.0750139 0.693923
1639 2 0.154802 0.00540864 0.737657
103 3 0.339047 0.057281 0.738577
105 3 0.337011 0.0228423 0.726005
101 1 0.351153 0.0359099 0.734461
4455 4 0.330204 0.00457504 0.722122
104 3 0.368683 0.0368587 0.719499
4731 4 0.386818 0.0278625 0.728881
4729 2 0.411239 0.0302944 0.72918
4730 4 0.435661 0.0327263 0.72948
1560 4 0.438772 0.0483542 0.740878
1494 4 0.0903577 0.145236 0.726442
1492 2 0.102221 0.138301 0.704858
1493 4 0.114083 0.131366 0.683274
1946 4 0.13544 0.126019 0.679273
1619 4 0.150441 0.0931982 0.698962
323 3 0.159344 0.146743 0.698775
325 3 0.157515 0.110254 0.701854
321 1 0.171829 0.125174 0.700458
324 3 0.185955 0.120349 0.682001
322 3 0.185024 0.123676 0.719438
3239 4 0.15704 0.156537 0.680534
3349 2 0.409996 0.0972052 0.741183
3350 4 0.42713 0.0994365 0.723522
2743 2 0.440965 0.13312 0.720418
2744 4 0.442018 0.109535 0.727981
3399 4 0.488381 0.0963639 0.707133
2745 4 0.439911 0.156704 0.712856
122 3 0.496746 0.138721 0.719921
1701 4 0.10292 0.194033 0.738516
1179 4 0.0827283 0.201733 0.743368
1177 2 0.0583754 0.20349 0.750089
1699 2 0.126453 0.198986 0.739817
1700 4 0.149986 0.203939 0.741118
3238 2 0.166754 0.176479 0.673813
695 3 0.169392 0.207308 0.744882
1515 4 0.150047 0.243361 0.676134
691 1 0.185463 0.213129 0.731109
692 3 0.194943 0.194927 0.718397
694 3 0.175551 0.230282 0.71697
693 3 0.202475 0.219877 0.743686
1233 4 0.217532 0.231114 0.744075
3768 4 0.399836 0.168143 0.67811
343 3 0.372988 0.202685 0.748142
3767 4 0.448758 0.172729 0.678635
3766 2 0.424297 0.170436 0.678372
3496 2 0.410353 0.182244 0.736631
3498 4 0.430112 0.174965 0.721318
4032 4 0.467392 0.162827 0.678895
4030 2 0.484376 0.175966 0.670348
4135 2 0.0120128 0.298611 0.721563
4137 4 0.000664803 0.279524 0.727614
4136 4 0.0233608 0.317699 0.715512
1392 4 0.0426394 0.318648 0.721424
1390 2 0.0660798 0.321689 0.715174
1717 2 0.108513 0.281973 0.750489
1719 4 0.119627 0.293051 0.732385
1513 2 0.16303 0.261757 0.680039
1391 4 0.0895201 0.32473 0.708924
1514 4 0.176012 0.280154 0.683943
3368 4 0.186393 0.284533 0.69954
3367 2 0.203544 0.292393 0.714231
3369 4 0.220695 0.300252 0.728921
170 3 0.471922 0.333248 0.70781
3695 4 0.0102353 0.363672 0.718532
1452 4 0.0266143 0.362959 0.705975
1450 2 0.0370091 0.369822 0.68497
648 3 0.0751685 0.400092 0.70881
4614 4 0.104766 0.410664 0.716781
4612 2 0.110482 0.404747 0.740636
1479 4 0.170247 0.371252 0.687309
1477 2 0.187686 0.385592 0.683709
1478 4 0.205125 0.399933 0.680108
1616 4 0.258405 0.343436 0.72963
1615 2 0.276133 0.357236 0.73417
1617 4 0.293862 0.371036 0.73871
3420 4 0.30425 0.384065 0.729875
3418 2 0.321078 0.392599 0.744433
3785 4 0.378967 0.38023 0.699732
3784 2 0.401397 0.365307 0.704039
3786 4 0.423827 0.350384 0.708345
168 3 0.453074 0.345124 0.676167
167 3 0.440092 0.35903 0.709519
166 1 0.459408 0.351261 0.697249
169 3 0.47198 0.368171 0.69543
3798 4 0.489785 0.361848 0.685566
646 1 0.0605113 0.420017 0.713623
3463 2 0.00419032 0.425223 0.704286
152 3 0.0105502 0.474506 0.728035
3464 4 0.0233709 0.4342 0.693875
151 1 0.0287417 0.481464 0.738033
650 3 0.0420935 0.422622 0.699816
154 3 0.0487181 0.469988 0.728546
649 3 0.05352 0.420089 0.735753
3027 4 0.0428803 0.422771 0.754181
3794 4 0.113733 0.420499 0.702493
1665 4 0.0643483 0.478762 0.724859
647 3 0.071852 0.437453 0.710389
1663 2 0.0885881 0.481551 0.722897
1664 4 0.112828 0.48434 0.720936
3793 2 0.133065 0.432812 0.700514
328 3 0.130897 0.489196 0.714963
327 3 0.153308 0.490578 0.685019
3795 4 0.152397 0.445125 0.698536
326 1 0.152993 0.483679 0.706903
329 3 0.160398 0.460691 0.707766
330 3 0.167046 0.494105 0.719266
2814 4 0.208504 0.418303 0.677168
1436 4 0.186888 0.497132 0.718194
2812 2 0.232268 0.422736 0.677409
2813 4 0.256033 0.427169 0.67765
3722 4 0.267227 0.441264 0.678287
1435 2 0.209934 0.50308 0.715884
3721 2 0.285058 0.455478 0.677032
3723 4 0.302889 0.469692 0.675776
485 3 0.320282 0.477001 0.677867
481 1 0.340801 0.471325 0.66745
484 3 0.347595 0.448249 0.667213
482 3 0.356751 0.480534 0.678899
3429 4 0.4268 0.427104 0.666854
4428 4 0.376226 0.482683 0.681189
4426 2 0.401649 0.477067 0.680563
3427 2 0.438824 0.425461 0.688884
4427 4 0.427073 0.471451 0.679937
2811 4 0.502453 0.482653 0.667951
3428 4 0.450848 0.423817 0.710914
1707 4 0.445737 0.469879 0.686871
1705 2 0.467199 0.470784 0.674367
3521 4 0.469758 0.425962 0.713109
3520 2 0.49439 0.427617 0.713403
3586 2 0.130434 0.0112843 0.814518
3588 4 0.108072 0.00365554 0.814401
3587 4 0.152796 0.018913 0.814636
1524 4 0.171374 0.0278628 0.816048
1522 2 0.194004 0.0349075 0.815019
1523 4 0.216634 0.0419521 0.81399
4586 4 0.237413 0.0369823 0.80914
4585 2 0.259949 0.0442643 0.809209
4587 4 0.282485 0.0515464 0.809279
2774 4 0.2998 0.0478094 0.797914
102 3 0.360331 0.026833 0.754239
2773 2 0.321184 0.055825 0.803932
2775 4 0.342568 0.0638406 0.809949
143 3 0.366732 0.0160787 0.832348
4725 4 0.366526 0.00549281 0.775498
142 3 0.368674 0.0517476 0.824322
3560 4 0.362037 0.0665895 0.811869