ITEM: TIMESTEP
314500
ITEM: NUMBER OF ATOMS
4800
ITEM: BOX BOUNDS xy xz yz pp pp pp
-9.9985700000000008e+00 1.5797740599999997e+01 5.7991705999999965e+00
-9.9985700000000008e+00 9.9985700000000008e+00 0.0000000000000000e+00
-9.9985700000000008e+00 9.9985700000000008e+00 0.0000000000000000e+00
ITEM: ATOMS id type xs ys zs
3853 2 0.0243129 0.0332575 0.0747232
1817 4 0.0591515 0.0340645 0.0515001
3855 4 0.0460373 0.0248962 0.0612033
1816 2 0.0825556 0.0336412 0.042391
1818 4 0.10596 0.0332179 0.0332819
33 3 0.125269 0.0332733 0.0386645
35 3 0.137452 0.0153497 0.0710314
31 1 0.142004 0.0159808 0.0487643
3245 4 0.0901737 0.015642 0.0833995
32 3 0.163487 0.0196099 0.0459109
3186 4 0.183349 0.0216263 0.0467727
3184 2 0.207437 0.0241468 0.0484597
3185 4 0.231525 0.0266673 0.0501467
770 4 0.301512 0.0195915 0.0462318
769 2 0.285225 0.00544563 0.049292
917 4 0.30511 0.037278 0.0433556
916 2 0.301811 0.0619052 0.0413764
3306 4 0.469795 0.00791792 0.0285522
3304 2 0.487106 0.017672 0.0173958
1277 4 0.0719878 0.141186 0.0278317
1276 2 0.0917404 0.147585 0.0386632
1278 4 0.111493 0.153984 0.0494947
1203 4 0.120624 0.156614 0.0679135
965 4 0.134022 0.148564 0.0174189
964 2 0.159295 0.146069 0.0133856
966 4 0.184568 0.143575 0.00935222
1329 4 0.194133 0.154234 0.0191401
1439 4 0.148964 0.116454 0.0859056
1327 2 0.216159 0.158926 0.0116408
1328 4 0.238185 0.163618 0.00414144
918 4 0.298511 0.0865325 0.0393972
1332 4 0.311027 0.0981467 0.0406176
1330 2 0.323833 0.115581 0.0391252
1331 4 0.336638 0.133014 0.0376328
1733 4 0.0128811 0.209842 0.061465
3201 4 0.0020755 0.199035 0.0544554
1732 2 0.0385602 0.206492 0.0595968
1734 4 0.0642392 0.203142 0.0577286
3264 4 0.0803932 0.205588 0.0271691
3262 2 0.0944419 0.209411 0.00765435
1201 2 0.130164 0.171896 0.0819286
926 4 0.195296 0.198042 0.0258853
925 2 0.210449 0.205874 0.0420176
927 4 0.225602 0.213705 0.0581499
1739 4 0.235311 0.228554 0.0629808
1457 4 0.249701 0.173983 0.995732
1738 2 0.258438 0.232512 0.067484
1740 4 0.281564 0.23647 0.0719872
3762 4 0.300698 0.234167 0.0809565
1127 4 0.0584466 0.302447 0.014593
1126 2 0.0367754 0.303751 0.00155163
1184 4 0.0736533 0.308013 0.00398351
1183 2 0.0942587 0.303903 0.0191953
1185 4 0.114864 0.299793 0.0344071
1151 4 0.112255 0.316186 0.0451303
1150 2 0.136706 0.312761 0.0530773
1152 4 0.161158 0.309335 0.0610243
1208 4 0.22213 0.320349 0.0597269
1207 2 0.197787 0.319116 0.0560467
1209 4 0.173445 0.317883 0.0523665
1010 4 0.241182 0.325374 0.0616698
1009 2 0.254583 0.317804 0.0827011
2145 4 0.311551 0.261567 0.0186968
2144 4 0.288284 0.276266 0.0625542
2143 2 0.299918 0.268916 0.0406255
3411 4 0.36477 0.326065 0.0665105
300 3 0.430858 0.267014 0.00675738
791 4 0.443286 0.310191 0.0838203
790 2 0.446378 0.329283 0.0701736
764 4 0.1013 0.394974 0.0697398
3242 4 0.162458 0.407729 0.0727516
3241 2 0.182101 0.402468 0.0563419
3243 4 0.201743 0.397208 0.0399322
4034 4 0.214302 0.401629 0.0253492
4033 2 0.228253 0.405595 0.00582
775 2 0.298984 0.34984 0.00439449
776 4 0.305877 0.347448 0.0284989
3409 2 0.375164 0.335661 0.0475507
3410 4 0.385559 0.345256 0.028591
1119 4 0.460445 0.346503 0.0385838
792 4 0.44947 0.348375 0.056527
1117 2 0.46888 0.349179 0.015493
1913 4 0.00318992 0.497249 0.0581427
2249 4 0.124439 0.425953 0.0695931
2248 2 0.125825 0.429712 0.044998
423 3 0.128915 0.435094 0.00091017
2250 4 0.127211 0.433471 0.0204029
3086 4 0.188267 0.468979 0.0663689
3085 2 0.213098 0.469535 0.0658829
3087 4 0.23793 0.470092 0.0653968
2879 4 0.254115 0.464708 0.0529659
3271 2 0.215281 0.495959 0.00630682
2878 2 0.275843 0.471585 0.049075
2880 4 0.297571 0.478461 0.0451841
2111 4 0.312483 0.481125 0.032493
2110 2 0.331853 0.491968 0.0333446
315 3 0.404861 0.483571 0.0287058
1952 4 0.394871 0.475321 0.0440029
1951 2 0.409761 0.45184 0.0410844
1953 4 0.42465 0.428359 0.038166
1364 4 0.473067 0.452146 0.0712423
1363 2 0.475342 0.460973 0.0483537
1365 4 0.477616 0.469801 0.0254651
2103 4 0.46067 0.455092 0.085207
3854 4 0.0025885 0.0416187 0.088243
3190 2 0.0388817 0.0153409 0.143319
3192 4 0.0545023 0.0294412 0.149476
3191 4 0.0232612 0.00124066 0.137163
4488 4 0.0695264 0.0347403 0.160637
3244 2 0.105827 0.0236007 0.0988672
3246 4 0.12148 0.0315594 0.114335
404 3 0.130971 0.045607 0.112545
4487 4 0.113074 0.0455584 0.146347
4486 2 0.0913003 0.0401494 0.153492
405 3 0.121908 0.0616183 0.146335
401 1 0.139472 0.0536572 0.131417
402 3 0.156273 0.0364641 0.14111
403 3 0.149384 0.0705107 0.125471
1440 4 0.163945 0.0740239 0.112234
3859 2 0.239877 0.073623 0.160212
3860 4 0.255304 0.0713122 0.14016
984 4 0.275563 0.0669725 0.137782
982 2 0.301008 0.0652326 0.138124
983 4 0.326453 0.0634926 0.138467
2922 4 0.34107 0.0741617 0.141264
2920 2 0.362583 0.0672782 0.155295
376 1 0.424367 0.0588452 0.163442
378 3 0.427643 0.041186 0.148504
377 3 0.428284 0.0769013 0.152518
2850 4 0.441454 0.079761 0.139064
1030 2 0.0240315 0.158915 0.109432
1031 4 0.0125439 0.152644 0.129651
1032 4 0.035519 0.165186 0.0892128
1438 2 0.156454 0.0952392 0.0990699
3098 4 0.3494 0.164191 0.159462
2848 2 0.452835 0.0973569 0.132442
2849 4 0.464216 0.114953 0.125819
3178 2 0.0165048 0.239624 0.111587
3180 4 0.0374908 0.248088 0.109565
1202 4 0.139705 0.187178 0.0959438
956 4 0.157085 0.192022 0.0985593
955 2 0.179734 0.197739 0.0998555
957 4 0.202382 0.203456 0.101152
1716 4 0.210506 0.215207 0.113484
1714 2 0.231446 0.222097 0.120665
1715 4 0.252386 0.228986 0.127845
1670 4 0.273292 0.225125 0.130207
1669 2 0.292128 0.233376 0.140522
3760 2 0.316737 0.24385 0.0942322
1671 4 0.310965 0.241628 0.150837
803 4 0.325681 0.247865 0.162498
3097 2 0.353785 0.183383 0.146899
3099 4 0.35817 0.202574 0.134335
802 2 0.3511 0.245907 0.164429
1047 4 0.461885 0.244038 0.161296
829 2 0.0180511 0.292679 0.145713
3155 4 0.0526623 0.255683 0.101691
3154 2 0.0691044 0.268958 0.10779
830 4 0.0383726 0.290429 0.160986
3156 4 0.0855464 0.282233 0.113889
906 4 0.0924753 0.296726 0.122335
904 2 0.114366 0.294803 0.135233
905 4 0.136257 0.29288 0.148132
2060 4 0.227898 0.279985 0.145401
1709 4 0.2474 0.277241 0.147959
1011 4 0.267983 0.310235 0.103732
1708 2 0.259434 0.292016 0.136102
1710 4 0.271467 0.306792 0.124245
3761 4 0.332775 0.253533 0.107508
2877 4 0.347925 0.261602 0.0982659
2875 2 0.364008 0.273782 0.107862
2876 4 0.380091 0.285963 0.117457
810 4 0.397092 0.290898 0.118697
808 2 0.411899 0.303395 0.107327
809 4 0.426707 0.315893 0.0959577
763 2 0.0958579 0.376661 0.0829384
1173 4 0.0894367 0.347489 0.112216
765 4 0.0904161 0.358348 0.096137
1171 2 0.0977129 0.352553 0.134678
1172 4 0.105989 0.357618 0.157141
3140 4 0.166315 0.356875 0.161403
3139 2 0.187066 0.361455 0.150598
3141 4 0.207816 0.366035 0.139793
577 3 0.148351 0.370507 0.157104
2324 4 0.226394 0.368649 0.138487
2323 2 0.230837 0.384001 0.156104
4093 2 0.355882 0.390186 0.161463
4095 4 0.334436 0.382927 0.165687
4094 4 0.377328 0.397445 0.157239
1785 4 0.0198871 0.451403 0.145578
1783 2 0.00746791 0.454846 0.123603
2825 4 0.0392209 0.451007 0.145182
2824 2 0.0624104 0.452356 0.136977
2826 4 0.0855998 0.453705 0.128773
4076 4 0.104953 0.452062 0.121446
4075 2 0.121126 0.466203 0.117681
4077 4 0.1373 0.480344 0.113917
2834 4 0.150885 0.48081 0.12821
2833 2 0.159741 0.498174 0.139642
4618 2 0.342578 0.4496 0.15842
3987 4 0.413964 0.423394 0.100418
4620 4 0.366903 0.442953 0.149512
2468 4 0.386031 0.498117 0.109083
3986 4 0.38001 0.431256 0.138308
3985 2 0.396987 0.427325 0.119363
2467 2 0.411833 0.490148 0.105949
2102 4 0.432327 0.42339 0.094524
2469 4 0.437636 0.482179 0.102816
1675 2 0.469424 0.487991 0.115894
2101 2 0.446498 0.439241 0.0898655
1677 4 0.494758 0.485966 0.112947
1676 4 0.44409 0.490016 0.118841
1872 4 0.00530924 0.0541746 0.202429
1870 2 0.0197302 0.055265 0.222598
1871 4 0.0341512 0.0563553 0.242768
1595 4 0.182578 0.0252812 0.208049
2199 4 0.201465 0.0239575 0.213442
2197 2 0.225643 0.0227585 0.220914
1594 2 0.171689 0.00935235 0.196606
3861 4 0.22445 0.0759338 0.180263
4172 4 0.256539 0.00119577 0.234995
2198 4 0.249822 0.0215596 0.228387
2921 4 0.384097 0.0603947 0.169326
380 3 0.402134 0.0645135 0.171355
379 3 0.439979 0.052904 0.181054
3261 4 0.458125 0.0564918 0.17866
3259 2 0.476356 0.0665516 0.18742
3260 4 0.494587 0.0766114 0.19618
2901 4 0.235352 0.108279 0.23348
385 3 0.335115 0.1619 0.172287
3287 4 0.297544 0.0920401 0.213104
3286 2 0.303934 0.112293 0.205066
3288 4 0.310325 0.132546 0.197027
382 3 0.327985 0.133579 0.19114
381 1 0.34367 0.145789 0.187908
383 3 0.346965 0.155585 0.208028
3002 4 0.381005 0.115865 0.182013
3001 2 0.403787 0.121319 0.180647
384 3 0.364591 0.131546 0.180587
3003 4 0.426569 0.126773 0.17928
2886 4 0.447762 0.122681 0.183555
2884 2 0.473082 0.121459 0.182936
2885 4 0.498402 0.120238 0.182317
418 3 0.246713 0.206935 0.214711
416 1 0.245957 0.228281 0.222008
419 3 0.241021 0.24314 0.204198
417 3 0.228638 0.234899 0.237762
420 3 0.26673 0.228242 0.231368
781 2 0.293817 0.234892 0.248996
783 4 0.283687 0.21672 0.241392
804 4 0.37652 0.243949 0.16636
3312 4 0.396892 0.237808 0.175091
3311 4 0.443467 0.245965 0.168841
3310 2 0.42018 0.241886 0.171966
3254 4 0.0709107 0.308466 0.220257
1241 4 0.0849559 0.298529 0.205923
3253 2 0.0735296 0.324897 0.237597
1240 2 0.110121 0.288837 0.20031
1242 4 0.135287 0.279145 0.194698
981 4 0.143676 0.290979 0.207301
979 2 0.160721 0.289957 0.225838
2061 4 0.229806 0.255173 0.188495
980 4 0.177766 0.288936 0.244375
2059 2 0.228852 0.267579 0.166948
2046 4 0.316613 0.254318 0.240361
2044 2 0.337072 0.260298 0.230519
2045 4 0.357532 0.266278 0.220677
1059 4 0.369751 0.276499 0.212839
1057 2 0.380232 0.295235 0.217408
1058 4 0.390712 0.313972 0.221977
1045 2 0.468087 0.258775 0.178566
1046 4 0.474289 0.273511 0.195837
434 3 0.0119841 0.370171 0.221853
3842 4 0.0112144 0.392562 0.178591
3033 4 0.0132723 0.38408 0.234179
3841 2 0.0259529 0.408382 0.179771
3031 2 0.0369452 0.38763 0.235717
578 3 0.119735 0.358001 0.171825
3032 4 0.0606181 0.39118 0.237256
2887 2 0.0810196 0.408918 0.178282
580 3 0.121809 0.392843 0.179272
2888 4 0.104127 0.395359 0.186862
2916 4 0.11808 0.413342 0.235123
2914 2 0.0981438 0.40393 0.239903
2915 4 0.0782075 0.394518 0.244683
576 1 0.134502 0.371307 0.175627
579 3 0.148605 0.363365 0.19396
1028 4 0.228083 0.350781 0.241273
2325 4 0.235279 0.399354 0.173722
785 4 0.233883 0.419159 0.178359
3865 2 0.252443 0.400432 0.238938
3867 4 0.266738 0.378141 0.230756
358 3 0.285415 0.372576 0.238996
4051 2 0.311216 0.410731 0.195423
4053 4 0.329487 0.392079 0.184846
2933 4 0.38735 0.407813 0.170594
2932 2 0.388522 0.415942 0.193974
876 4 0.00955841 0.450278 0.240379
3843 4 0.0406915 0.424203 0.180951
2889 4 0.0579119 0.422477 0.169701
1981 2 0.108294 0.454452 0.238685
1982 4 0.0847344 0.461328 0.249307
1983 4 0.131853 0.447576 0.228062
3258 4 0.151541 0.438452 0.22388
3256 2 0.17362 0.434403 0.236987
3866 4 0.238148 0.422724 0.24712
786 4 0.264642 0.44961 0.175896
784 2 0.249262 0.434385 0.177127
372 3 0.26784 0.465197 0.18435
4052 4 0.292946 0.429382 0.206
375 3 0.304381 0.467145 0.180843
4619 4 0.318253 0.456246 0.167328
371 1 0.287404 0.466445 0.195777
374 3 0.294887 0.447728 0.209337
373 3 0.281837 0.485674 0.208762
2934 4 0.389693 0.424072 0.217354
2168 4 0.396735 0.493485 0.241252
2150 4 0.0446737 0.0479043 0.259488
2149 2 0.0626807 0.0572518 0.269908
4577 4 0.0889753 0.080379 0.285157
4576 2 0.10301 0.0684438 0.304416
2151 4 0.0806878 0.0665993 0.280328
3908 4 0.132982 0.0395857 0.326649
4578 4 0.117045 0.0565086 0.323676
3953 4 0.114965 0.00124497 0.265332
887 4 0.0153267 0.167156 0.295981
2899 2 0.241666 0.0966663 0.255427
3914 4 0.250201 0.137467 0.252172
2900 4 0.247981 0.0850538 0.277373
3913 2 0.263369 0.154124 0.257046
1786 2 0.254051 0.0991977 0.318916
1788 4 0.25085 0.0904451 0.296209
4319 4 0.292612 0.156519 0.269657
4318 2 0.306853 0.163594 0.287255
439 3 0.0169598 0.185105 0.291721
3147 4 0.0452021 0.221095 0.271177
436 1 0.034539 0.195351 0.295053
440 3 0.0395294 0.204177 0.275464
437 3 0.0271314 0.212219 0.310491
438 3 0.0543145 0.179938 0.303212
3145 2 0.0544005 0.240457 0.276734
1161 4 0.212417 0.182925 0.313607
3675 4 0.220927 0.242311 0.256727
1159 2 0.238256 0.176859 0.31653
1160 4 0.264095 0.170794 0.319454
4320 4 0.321093 0.170669 0.304853
3915 4 0.276537 0.170781 0.261921
20 3 0.000345357 0.336245 0.296622
18 3 0.00735996 0.312586 0.325911
3146 4 0.0635989 0.259819 0.282292
932 4 0.126546 0.274896 0.285979
931 2 0.130595 0.292447 0.270695
933 4 0.134645 0.309998 0.25541
3674 4 0.191958 0.289939 0.258319
3673 2 0.206442 0.266125 0.257523
889 2 0.201279 0.314051 0.328112
890 4 0.217484 0.328496 0.32732
891 4 0.185074 0.299607 0.328903
782 4 0.303947 0.253064 0.2566
3143 4 0.465689 0.327053 0.306709
3142 2 0.490622 0.325814 0.302263
1158 4 0.0133863 0.359365 0.325333
3255 4 0.0761484 0.341329 0.254937
861 4 0.0969139 0.338429 0.252862
859 2 0.111477 0.352297 0.262215
860 4 0.126039 0.366165 0.271567
3020 4 0.141911 0.368236 0.283286
3019 2 0.158609 0.381752 0.279116
3021 4 0.175308 0.395269 0.274945
602 3 0.188187 0.403461 0.284645
1847 4 0.234675 0.332832 0.328783
1027 2 0.250232 0.34243 0.254168
601 1 0.211915 0.396136 0.281683
603 3 0.220122 0.37493 0.290874
604 3 0.21675 0.395402 0.258956
605 3 0.22203 0.410521 0.292057
1846 2 0.232798 0.35506 0.318284
1029 4 0.272381 0.334079 0.267063
1848 4 0.230922 0.377288 0.307785
1743 4 0.234931 0.394557 0.302945
1741 2 0.253767 0.401328 0.315058
357 3 0.28476 0.34453 0.262424
356 1 0.296371 0.360062 0.25711
359 3 0.295781 0.373889 0.275427
1742 4 0.272602 0.4081 0.32717
360 3 0.31884 0.349283 0.251793
3270 4 0.339012 0.342785 0.256904
3268 2 0.351997 0.352678 0.273516
3269 4 0.364981 0.362571 0.290129
1037 4 0.0253739 0.441372 0.251473
1036 2 0.0454707 0.451235 0.250527
1038 4 0.0655675 0.461097 0.249581
3257 4 0.195698 0.430354 0.250094
1116 4 0.245876 0.468922 0.282663
1114 2 0.260049 0.484035 0.289908
2936 4 0.28827 0.416184 0.332413
1115 4 0.274222 0.499148 0.297153
1130 4 0.293815 0.485971 0.29226
1129 2 0.317913 0.487549 0.287824
2935 2 0.307722 0.42648 0.32845
2937 4 0.327173 0.436777 0.324487
795 4 0.338308 0.449881 0.328014
1131 4 0.342012 0.489127 0.283388
2169 4 0.360006 0.491878 0.274639
2167 2 0.37837 0.492682 0.257946
793 2 0.355226 0.463455 0.330471
4233 4 0.494813 0.424731 0.26746
4232 4 0.485969 0.424795 0.316682
4231 2 0.490391 0.424763 0.292071
3228 4 0.477949 0.440871 0.329475
3285 4 0.0358228 0.0358022 0.377532
3283 2 0.0174047 0.0302823 0.363606
4170 4 0.0409516 0.0501769 0.38674
4168 2 0.053822 0.0557331 0.406351
1579 2 0.0204011 0.0768374 0.340724
1580 4 0.0427654 0.0822227 0.345595
3909 4 0.139235 0.0147653 0.370052
3907 2 0.136108 0.0271755 0.34835
3204 4 0.144392 0.00903877 0.388458
3202 2 0.145501 0.0285642 0.402532
1166 4 0.0635082 0.0761864 0.351172
3203 4 0.14661 0.0480896 0.416606
1062 4 0.212529 0.0588572 0.343615
23 3 0.157757 0.0612879 0.407823
1061 4 0.256928 0.0224472 0.338154
1060 2 0.234729 0.0406522 0.340884
4553 4 0.267864 0.00514615 0.374506
2306 4 0.275966 0.019877 0.374036
2305 2 0.291417 0.0337539 0.381341
2307 4 0.306867 0.0476307 0.388646
1101 4 0.419407 0.0210007 0.411315
1099 2 0.44133 0.0231344 0.400709
1100 4 0.463254 0.0252681 0.390103
3183 4 0.480488 0.0261369 0.399245
397 3 0.0209943 0.125541 0.404458
1854 4 0.00977176 0.125958 0.387526
399 3 0.0460108 0.146577 0.405834
1016 4 0.0583175 0.160943 0.399918
1472 4 0.0802663 0.161849 0.40168
1165 2 0.0801558 0.0892203 0.357339
1167 4 0.0968034 0.102254 0.363505
999 4 0.0946976 0.110919 0.381795
997 2 0.110139 0.107096 0.401923
1471 2 0.103704 0.165016 0.406363
1787 4 0.257251 0.10795 0.341624
1798 2 0.408646 0.0986575 0.401754
1799 4 0.401387 0.107876 0.378969
3006 4 0.00356411 0.188893 0.371054
1017 4 0.0235213 0.189704 0.368716
1015 2 0.0409194 0.175323 0.384317
1473 4 0.127142 0.168183 0.411045
3353 4 0.145519 0.171258 0.405354
3352 2 0.168461 0.176265 0.403121
3354 4 0.191404 0.181273 0.400888
840 4 0.209842 0.1816 0.404574
838 2 0.231607 0.187174 0.411462
1076 4 0.266152 0.183541 0.334105
1075 2 0.287118 0.186405 0.346018
1077 4 0.308083 0.189269 0.357931
1322 4 0.330038 0.189413 0.413638
1321 2 0.328387 0.190108 0.388686
1323 4 0.326736 0.190803 0.363734
4467 4 0.352364 0.189004 0.414867
992 4 0.0138776 0.247595 0.35079
991 2 0.0362639 0.25265 0.356331
993 4 0.0586502 0.257705 0.361871
1051 2 0.0449511 0.3155 0.410001
3138 4 0.062402 0.27164 0.348911
1052 4 0.0570799 0.332734 0.404096
3136 2 0.0833424 0.280248 0.350256
3137 4 0.104283 0.288856 0.351602
4083 4 0.115416 0.302101 0.355632
4081 2 0.133697 0.310576 0.366735
4082 4 0.151977 0.319052 0.377837
3356 4 0.202064 0.263641 0.413023
1621 2 0.189325 0.293605 0.39355
1623 4 0.169979 0.314076 0.38842
1622 4 0.208671 0.273135 0.39868
1499 4 0.293599 0.317219 0.400104
4628 4 0.303739 0.326144 0.389676
1498 2 0.272835 0.330614 0.412786
1156 2 0.0213758 0.376926 0.337404
1157 4 0.0293653 0.394486 0.349474
3233 4 0.0421153 0.404521 0.355267
923 4 0.0728234 0.342087 0.402735
3232 2 0.0671165 0.402387 0.360379
922 2 0.0914762 0.352816 0.396702
924 4 0.110129 0.363546 0.39067
3153 4 0.132216 0.362544 0.386293
3234 4 0.0921177 0.400253 0.36549
3151 2 0.156724 0.360284 0.379141
3152 4 0.181231 0.358025 0.37199
843 4 0.19799 0.362814 0.378733
841 2 0.223688 0.359512 0.377268
842 4 0.249387 0.35621 0.375804
1140 4 0.26479 0.362989 0.382075
1138 2 0.272584 0.381829 0.391795
1139 4 0.280378 0.400669 0.401516
4627 2 0.323905 0.33579 0.391872
4629 4 0.344072 0.345436 0.394069
3054 4 0.356181 0.350664 0.406497
2238 4 0.0137192 0.454643 0.376546
2236 2 0.0343605 0.463616 0.378645
2237 4 0.0550018 0.47259 0.380744
1922 4 0.0707933 0.480702 0.38834
1921 2 0.0943784 0.484159 0.391285
599 3 0.167363 0.480263 0.381429
597 3 0.133246 0.496405 0.39833
1923 4 0.117964 0.487616 0.394231
596 1 0.154421 0.499335 0.392372
814 2 0.401537 0.494013 0.350924
3869 4 0.4003 0.4679 0.409339
3868 2 0.417526 0.454828 0.392792
794 4 0.372143 0.47703 0.332927
816 4 0.379195 0.489861 0.343607
3870 4 0.434752 0.441757 0.376245
3227 4 0.453356 0.444931 0.373474
3226 2 0.465652 0.442901 0.351474
86 1 0.0290547 0.00236864 0.424793
758 4 0.0634235 0.999549 0.447173
90 3 0.0159165 0.0237912 0.421365
88 3 0.0515492 0.00215347 0.430722
4169 4 0.0666924 0.0612894 0.425962
3725 4 0.0778158 0.0723435 0.434953
3107 4 0.123131 0.0228443 0.463125
3724 2 0.103671 0.0638884 0.432505
3106 2 0.142333 0.0185932 0.479984
3726 4 0.129525 0.0554334 0.430056
24 3 0.139948 0.0660839 0.441762
21 1 0.154985 0.0731575 0.42775
22 3 0.176305 0.0692336 0.438067
3074 4 0.178092 0.00869815 0.483473
3570 4 0.172119 0.0807634 0.489642
3108 4 0.161534 0.014342 0.496843
1284 4 0.259695 0.052611 0.483613
1282 2 0.284646 0.0400537 0.479956
1283 4 0.309598 0.0274964 0.476299
64 3 0.328257 0.0296372 0.470473
61 1 0.348419 0.0131271 0.465047
63 3 0.348975 0.00884923 0.442251
1287 4 0.362141 0.0121772 0.429199
65 3 0.36745 0.019723 0.47109
1285 2 0.387336 0.00931172 0.424363
1286 4 0.41253 0.00644622 0.419527
3182 4 0.495536 0.0494021 0.437773
3181 2 0.488012 0.0377695 0.418509
4511 4 0.477564 0.0667611 0.494953
4512 4 0.48281 0.0444699 0.450205
4510 2 0.480187 0.0556155 0.472579
396 1 0.0354103 0.13333 0.418258
400 3 0.0225734 0.145591 0.435056
398 3 0.0521571 0.115215 0.427098
998 4 0.125581 0.103272 0.422051
25 3 0.146433 0.0954504 0.423589
3569 4 0.147317 0.123208 0.466339
3568 2 0.159718 0.101986 0.47799
3240 4 0.269532 0.105611 0.459117
3238 2 0.280301 0.11569 0.477451
175 3 0.304753 0.15494 0.425677
3239 4 0.29107 0.125769 0.495785
1800 4 0.415905 0.0894389 0.424539
2997 4 0.0908431 0.23428 0.493034
2995 2 0.10543 0.216962 0.477744
2996 4 0.120018 0.199645 0.462454
387 3 0.0961198 0.251976 0.491663
3249 4 0.133233 0.207884 0.454595
3247 2 0.15418 0.214752 0.447399
3248 4 0.175128 0.22162 0.440203
839 4 0.253371 0.192748 0.41835
3357 4 0.17431 0.242031 0.442627
172 3 0.310154 0.187952 0.416795
174 3 0.273785 0.184812 0.420407
173 3 0.296861 0.18283 0.450971
171 1 0.296388 0.177466 0.428488
2864 4 0.303701 0.195293 0.463134
2863 2 0.313356 0.214397 0.46855
2865 4 0.323011 0.233501 0.473966
4465 2 0.36919 0.199528 0.425787
4466 4 0.386017 0.210052 0.436708
2211 4 0.405495 0.210983 0.437362
3425 4 0.390235 0.246025 0.479864
2209 2 0.430057 0.209123 0.444042
2210 4 0.454619 0.207264 0.450721
869 4 0.475011 0.201691 0.447148
868 2 0.489848 0.214822 0.457402
1053 4 0.0328223 0.298267 0.415906
4253 4 0.0100794 0.298617 0.468617
4252 2 0.0160148 0.291806 0.444887
4254 4 0.0219502 0.284996 0.421157
3513 4 0.0169858 0.298033 0.487672
3511 2 0.0423201 0.293121 0.493091
3512 4 0.0676544 0.288209 0.49851
390 3 0.0841975 0.289003 0.487132
386 1 0.101751 0.271701 0.495016
389 3 0.122238 0.270749 0.483657
3871 2 0.152011 0.278168 0.498436
3355 2 0.188187 0.252836 0.427825
3872 4 0.176621 0.278489 0.494587
3424 2 0.40448 0.25863 0.491942
3053 4 0.387151 0.331338 0.445017
1500 4 0.252071 0.34401 0.425467
1238 4 0.214866 0.397669 0.428936
1237 2 0.235119 0.377932 0.433888
1239 4 0.255372 0.358195 0.43884
3052 2 0.371666 0.341001 0.425757
2220 4 0.0135675 0.469107 0.460712
2218 2 0.00507669 0.449064 0.465057
3980 4 0.319115 0.468982 0.436927
3979 2 0.314337 0.468165 0.461409
4115 4 0.336356 0.466673 0.426785
3981 4 0.309559 0.467348 0.485891
4114 2 0.361787 0.46415 0.42383
2842 2 0.425068 0.470628 0.489776
2844 4 0.399457 0.481431 0.487983
4116 4 0.387219 0.461626 0.420876
2843 4 0.450678 0.459825 0.491569
2451 4 0.46437 0.470721 0.49239
2481 4 0.0339536 0.0378613 0.560156
2479 2 0.0179544 0.0298456 0.575162
3075 4 0.213758 0.00483781 0.519423
3073 2 0.195925 0.00676798 0.501448
3741 4 0.246903 0.0650155 0.529672
3739 2 0.262292 0.0764043 0.541758
1533 4 0.426277 0.0596344 0.55122
1531 2 0.431404 0.0698921 0.572535
1495 2 0.440332 0.00382043 0.549625
1496 4 0.434064 0.022728 0.565967
3365 4 0.437514 0.0666537 0.537716
3364 2 0.45805 0.0703437 0.525685
3366 4 0.478587 0.0740338 0.513655
2666 4 0.103024 0.0856074 0.563075
3740 4 0.277681 0.0877932 0.553845
3551 4 0.299563 0.0867802 0.556519
3550 2 0.322223 0.0905944 0.563288
3552 4 0.344883 0.0944086 0.570056
958 2 0.33514 0.118135 0.513084
959 4 0.358782 0.115987 0.522607
364 3 0.362749 0.101775 0.571496
960 4 0.311498 0.120282 0.503561
365 3 0.363672 0.136949 0.563967
363 3 0.372682 0.110906 0.536815
361 1 0.373849 0.114933 0.559547
362 3 0.396856 0.109514 0.565895
4031 4 0.413366 0.11609 0.562504
4030 2 0.43533 0.122325 0.567108
4032 4 0.457294 0.12856 0.571713
3767 4 0.474097 0.135036 0.575843
2894 4 0.418235 0.183091 0.558227
2893 2 0.430888 0.200492 0.555215
2895 4 0.443542 0.217894 0.552202
3390 4 0.458616 0.221026 0.539172
3388 2 0.472347 0.237583 0.541931
1539 4 0.0154497 0.314628 0.528162
3282 4 0.0309095 0.311207 0.543419
3280 2 0.0462464 0.301641 0.562806
3281 4 0.0615833 0.292076 0.582193
388 3 0.104776 0.274396 0.517746
4599 4 0.116179 0.286105 0.521808
4597 2 0.117278 0.291307 0.546125
4598 4 0.118376 0.296509 0.570442
3873 4 0.1274 0.277847 0.502284
3389 4 0.486078 0.254139 0.544689
3124 2 0.447407 0.284313 0.506878
3125 4 0.473405 0.27803 0.507991
3426 4 0.418724 0.271236 0.50402
3126 4 0.42141 0.290596 0.505765
1186 2 0.0383963 0.386652 0.503575
1187 4 0.0167195 0.381032 0.496476
1188 4 0.0600731 0.392272 0.510674
3023 4 0.0783768 0.400052 0.509796
3022 2 0.0974999 0.409268 0.51787
4508 4 0.176916 0.385141 0.577106
1289 4 0.384089 0.411388 0.572012
1288 2 0.40349 0.400329 0.556499
1290 4 0.42289 0.389271 0.540986
1355 4 0.430623 0.397772 0.526497
1354 2 0.454383 0.393469 0.516503
1356 4 0.478143 0.389167 0.506509
1652 4 0.00593234 0.45588 0.559398
1651 2 0.0261291 0.464739 0.554066
3024 4 0.116623 0.418485 0.525944
1653 4 0.0463259 0.473597 0.548734
1353 4 0.0639005 0.481146 0.54894
1351 2 0.0876965 0.481942 0.542065
1352 4 0.111492 0.482738 0.535191
1007 4 0.136033 0.421948 0.52937
2085 4 0.131158 0.484585 0.532885
1006 2 0.155679 0.432421 0.530372
1008 4 0.175324 0.442894 0.531374
2083 2 0.153432 0.490963 0.531283
2084 4 0.175706 0.497341 0.529682
1950 4 0.1946 0.445115 0.538799
1948 2 0.219356 0.445063 0.542417
1949 4 0.244112 0.44501 0.546035
1455 4 0.261955 0.45199 0.545849
1453 2 0.284662 0.45748 0.547994
1454 4 0.307369 0.462971 0.550139
2247 4 0.325036 0.468346 0.547887
1022 4 0.340843 0.451901 0.582558
2245 2 0.348885 0.471535 0.54677
1766 4 0.39087 0.479916 0.546601
2246 4 0.372735 0.474724 0.545654
1765 2 0.409191 0.492076 0.546445
2449 2 0.485185 0.47468 0.503665
2480 4 0.00195519 0.0218298 0.590167
1947 4 0.0362695 0.0776704 0.65792
1945 2 0.0560473 0.0803698 0.64395
3692 4 0.382865 0.00335346 0.651343
1532 4 0.436531 0.0801499 0.59385
2495 4 0.45141 0.0793372 0.608114
2494 2 0.477437 0.0729031 0.607972
1683 4 0.0110642 0.141817 0.625201
1681 2 0.0235007 0.150085 0.643552
2665 2 0.107729 0.0924903 0.58616
1682 4 0.0359372 0.158354 0.661903
1946 4 0.0758251 0.0830693 0.62998
2373 4 0.0815275 0.0942779 0.64399
2371 2 0.0953147 0.110921 0.645312
2667 4 0.112434 0.0993733 0.609244
2372 4 0.109102 0.127563 0.646634
147 3 0.125564 0.128369 0.635673
2704 2 0.176486 0.0856957 0.651645
2706 4 0.159492 0.088385 0.632803
149 3 0.131186 0.103401 0.607625
146 1 0.137506 0.12163 0.616077
150 3 0.132019 0.138787 0.60111
148 3 0.161214 0.115658 0.620526
1179 4 0.180172 0.115775 0.632026
1177 2 0.201223 0.124273 0.632049
1178 4 0.222274 0.13277 0.632072
527 3 0.23353 0.145595 0.634177
526 1 0.251824 0.139082 0.648927
530 3 0.251353 0.156252 0.663193
529 3 0.272516 0.133523 0.636949
528 3 0.249651 0.12065 0.66085
3766 2 0.49505 0.14266 0.581367
3361 2 0.0234525 0.223594 0.620998
3362 4 0.0492911 0.219438 0.619948
4602 4 0.0683352 0.215029 0.628514
4600 2 0.0925019 0.216077 0.633541
4601 4 0.116669 0.217125 0.638569
513 3 0.136741 0.22021 0.640132
511 1 0.160286 0.208921 0.640068
515 3 0.165596 0.195707 0.621579
512 3 0.165347 0.19577 0.658899
514 3 0.17341 0.224119 0.640358
3414 4 0.193985 0.218343 0.638601
3412 2 0.211702 0.224868 0.652674
1311 4 0.403123 0.21184 0.658398
1309 2 0.381537 0.206577 0.666354
1691 4 0.423999 0.203821 0.66178
1690 2 0.446429 0.209486 0.658098
1692 4 0.468859 0.215152 0.654416
130 3 0.480959 0.227238 0.652153
127 3 0.491237 0.240369 0.620183
126 1 0.498892 0.231826 0.640904
1145 4 0.370035 0.320817 0.601881
1144 2 0.392746 0.326284 0.599638
1146 4 0.415456 0.33175 0.597395
3723 4 0.0177818 0.400556 0.622939
497 3 0.0355844 0.387801 0.614198
496 1 0.0594045 0.380489 0.61639
499 3 0.0650963 0.380715 0.638867
500 3 0.067193 0.359319 0.608158
3129 4 0.0707152 0.381081 0.658373
498 3 0.0692261 0.394717 0.604497
3383 4 0.0872408 0.36137 0.60956
3522 4 0.0872868 0.398908 0.608316
3382 2 0.1131 0.355267 0.606802
3384 4 0.13896 0.349165 0.604044
3520 2 0.100382 0.410229 0.623442
4509 4 0.150219 0.362512 0.606812
4507 2 0.163567 0.373827 0.591959
165 3 0.427424 0.331757 0.613513
1340 4 0.374234 0.406196 0.587153
162 3 0.433968 0.343056 0.6477
1341 4 0.393699 0.382704 0.629446
1339 2 0.383967 0.39445 0.608299
1617 4 0.394085 0.375045 0.648463
163 3 0.410458 0.367256 0.624141
161 1 0.430295 0.349311 0.625642
164 3 0.449449 0.355495 0.617807
1615 2 0.376576 0.375814 0.666512
1106 4 0.459534 0.369147 0.614033
1105 2 0.48488 0.357907 0.610718
3721 2 0.0148983 0.424463 0.629041
3722 4 0.0120148 0.44837 0.635144
3864 4 0.0265229 0.453986 0.624245
3862 2 0.0397209 0.469953 0.617007
3863 4 0.0529189 0.48592 0.609768
3521 4 0.113477 0.421549 0.638568
593 3 0.130279 0.423564 0.64737
1021 2 0.34786 0.463094 0.602422
1023 4 0.354877 0.474287 0.622286
1391 4 0.374796 0.471215 0.626726
1390 2 0.399448 0.471739 0.629837
1392 4 0.4241 0.472264 0.632948
1828 2 0.453484 0.495855 0.632847
1829 4 0.436943 0.482343 0.637752
3629 4 0.47015 0.463319 0.655858
3628 2 0.491968 0.448572 0.645857
3324 4 0.147382 0.0152178 0.698842
3322 2 0.163544 0.0295996 0.70106
3323 4 0.179707 0.0439814 0.703278
522 3 0.197995 0.0668735 0.68153
524 3 0.19301 0.0509694 0.714204
521 1 0.19669 0.0698657 0.704333
525 3 0.217011 0.0730552 0.711889
3431 4 0.233875 0.0728942 0.702146
4524 4 0.0479092 0.151045 0.676075
4522 2 0.0685589 0.148361 0.691011
4523 4 0.0892085 0.145677 0.705948
2775 4 0.104855 0.138702 0.718172
2773 2 0.109271 0.140018 0.742676
2705 4 0.19348 0.0830065 0.670487
523 3 0.17829 0.0884482 0.709213
1620 4 0.18637 0.115176 0.737041
3432 4 0.244196 0.106378 0.670868
3430 2 0.239035 0.0896361 0.686507
3399 4 0.240957 0.164776 0.689627
3659 4 0.0360249 0.240152 0.675538
1515 4 0.0664526 0.229916 0.726886
1513 2 0.0451548 0.231835 0.740717
3785 4 0.0787577 0.229432 0.742957
1745 4 0.177714 0.194112 0.675509
3413 4 0.22942 0.231393 0.666748
1746 4 0.22793 0.168136 0.673488
1640 4 0.244939 0.234964 0.677521
1744 2 0.202822 0.181124 0.674498
3397 2 0.265115 0.166829 0.692496
1639 2 0.267023 0.24177 0.677288
3398 4 0.289273 0.168881 0.695366
2874 4 0.301856 0.180249 0.688914
2872 2 0.323973 0.186104 0.684038
1641 4 0.289108 0.248576 0.677056
3351 4 0.308909 0.247091 0.684331
2873 4 0.346089 0.191959 0.679162
1559 4 0.362323 0.193194 0.709335
1310 4 0.35995 0.201314 0.67431
1558 2 0.367232 0.197447 0.733196
3735 4 0.00987396 0.316907 0.725138
3658 2 0.0120586 0.25459 0.680587
813 4 0.0977424 0.319527 0.704926
3349 2 0.324499 0.254124 0.700608
3350 4 0.340089 0.261156 0.716885
3678 4 0.355276 0.268887 0.724489
3676 2 0.374954 0.278977 0.728012
3677 4 0.394632 0.289068 0.731534
3733 2 0.0179067 0.333958 0.738024
3127 2 0.0900329 0.388557 0.668749
811 2 0.098141 0.335991 0.723019
3128 4 0.109351 0.396033 0.679125
594 3 0.119333 0.409272 0.679188
167 3 0.108129 0.366028 0.747252
168 3 0.108853 0.401493 0.741444
812 4 0.0985395 0.352455 0.741111
591 1 0.138128 0.411257 0.666569
3360 4 0.125748 0.409835 0.740137
3358 2 0.151562 0.403956 0.737076
592 3 0.15133 0.390238 0.660498
3359 4 0.177376 0.398077 0.734014
1268 4 0.179215 0.414877 0.744218
1267 2 0.203761 0.415972 0.74182
1269 4 0.228308 0.417067 0.739422
1616 4 0.359066 0.376583 0.684561
3558 4 0.470086 0.335328 0.74838
3556 2 0.48642 0.342702 0.733227
595 3 0.151448 0.421419 0.678848
4614 4 0.452368 0.464121 0.664745
4613 4 0.453349 0.46134 0.714675
4612 2 0.452858 0.46273 0.68971
2225 4 0.0210597 0.101778 0.830329