ITEM: TIMESTEP
3009000
ITEM: NUMBER OF ATOMS
1600
ITEM: BOX BOUNDS xy xz yz pp pp pp
-6.9325800000002165e+00 6.9325799999999997e+00 -2.1671553440683056e-13
-6.9325799999999997e+00 6.9325799999999997e+00 0.0000000000000000e+00
-6.9325799999999997e+00 6.9325799999999997e+00 0.0000000000000000e+00
ITEM: ATOMS id type xs ys zs
321 4 0.177797 0.0510105 0.108959
320 2 0.174497 0.0162948 0.0997746
17 3 0.357713 0.0234756 0.0447854
20 3 0.311631 0.0507532 0.0393273
16 1 0.327497 0.0231983 0.0310883
1539 4 0.289324 0.107727 0.118521
190 3 0.465386 0.0213382 0.0229245
578 2 0.0798819 0.19704 0.0498483
579 4 0.0778819 0.207976 0.0841538
334 4 0.0538686 0.221138 0.0917539
580 4 0.0818818 0.186103 0.0155429
612 4 0.0973251 0.200978 0.997973
332 2 0.0495126 0.24413 0.119191
1374 4 0.154915 0.244315 0.0613696
1538 2 0.302184 0.141402 0.117483
1540 4 0.315043 0.175078 0.116446
360 4 0.374372 0.243998 0.119801
672 4 0.422168 0.220389 0.0870321
1146 4 0.440653 0.199615 0.0965161
671 2 0.422452 0.226794 0.0515446
673 4 0.422736 0.233198 0.0160571
1145 2 0.467743 0.18868 0.117658
899 2 0.112645 0.34174 0.0799421
900 4 0.0906277 0.361361 0.100695
1375 4 0.120222 0.303887 0.0401716
901 4 0.134663 0.322119 0.0591888
1373 2 0.137568 0.274101 0.0507706
913 4 0.288374 0.312623 0.0392195
1121 2 0.321762 0.328739 0.0906359
1122 4 0.308827 0.315846 0.0595405
911 2 0.292433 0.308919 0.00357917
1123 4 0.334697 0.341632 0.121731
697 4 0.394707 0.339414 0.0514451
695 2 0.428902 0.350186 0.0553382
696 4 0.463097 0.360958 0.0592313
42 3 0.48451 0.35509 0.0400953
1426 4 0.106936 0.478179 0.0960834
714 4 0.0830841 0.492514 0.0865869
1424 2 0.130823 0.479265 0.123079
1271 2 0.18089 0.457968 0.0611615
1273 4 0.192349 0.431752 0.0831121
1272 4 0.169431 0.484184 0.0392108
1388 2 0.490033 0.444611 0.0118251
1389 4 0.497713 0.474772 0.030039
1006 4 0.0188515 0.0852289 0.130171
1005 4 0.031429 0.0241891 0.166473
1103 2 0.112526 0.0848506 0.172933
1004 2 0.0251403 0.054709 0.148322
1104 4 0.098134 0.0819533 0.205871
552 4 0.231948 0.0040896 0.209203
1105 4 0.126919 0.0877478 0.139995
1292 2 0.212188 0.035322 0.167527
1293 4 0.221573 0.0647635 0.186118
1035 4 0.308941 0.0762931 0.24298
1034 2 0.32647 0.107542 0.238903
606 4 0.460234 0.09286 0.188385
605 2 0.45781 0.092979 0.224365
83 3 0.474447 0.111169 0.172023
740 2 0.0352154 0.243854 0.206681
741 4 0.0278151 0.228968 0.238682
1036 4 0.344 0.138792 0.234827
651 4 0.367876 0.1471 0.250643
1147 4 0.494834 0.177744 0.138799
745 4 0.446126 0.17027 0.235174
82 3 0.497586 0.149481 0.141441
742 4 0.0426156 0.258739 0.17468
333 4 0.0451565 0.267123 0.146629
359 2 0.380341 0.277636 0.131349
361 4 0.38631 0.311274 0.142896
625 4 0.371383 0.358972 0.147047
1070 2 0.458418 0.341986 0.226447
623 2 0.403509 0.365702 0.161983
1072 4 0.438702 0.357508 0.200548
1299 4 0.500902 0.319146 0.234417
674 2 0.00220322 0.478855 0.251429
406 4 0.0243488 0.481909 0.196425
675 4 0.00502936 0.486779 0.216362
1425 4 0.15471 0.480352 0.150074
893 2 0.206972 0.464654 0.172404
894 4 0.241971 0.468742 0.180074
895 4 0.171973 0.460566 0.164733
312 4 0.247641 0.497371 0.176897
311 2 0.282751 0.489143 0.176761
313 4 0.317861 0.480915 0.176625
1043 2 0.351033 0.445513 0.195664
1044 4 0.335736 0.459485 0.166147
1045 4 0.36633 0.431541 0.225181
624 4 0.435635 0.372432 0.17692
873 4 0.445265 0.488497 0.212607
872 2 0.46234 0.468228 0.237061
282 4 0.425276 0.48296 0.193369
315 4 0.0496423 0.0339135 0.297475
314 2 0.0733924 0.0608827 0.300487
316 4 0.0971426 0.0878519 0.303499
732 4 0.0486387 0.00810661 0.285031
769 4 0.116573 0.107203 0.312082
767 2 0.148994 0.0952567 0.301754
1533 4 0.205731 0.0706015 0.283121
768 4 0.181415 0.0833105 0.291427
1532 2 0.228729 0.0983747 0.282641
89 3 0.329971 0.116022 0.338301
86 1 0.312612 0.0894393 0.327717
90 3 0.327554 0.0617821 0.33724
88 3 0.309947 0.0900758 0.294364
1342 4 0.334513 0.0338819 0.342661
87 3 0.282199 0.0905365 0.340928
1340 2 0.36924 0.0343338 0.352375
607 4 0.455386 0.093098 0.260344
533 2 0.449222 0.0582401 0.382056
535 4 0.413415 0.0539803 0.38161
1341 4 0.403966 0.0347858 0.362088
948 4 0.478536 0.0814237 0.269236
351 4 0.0419945 0.207915 0.250652
350 2 0.0408434 0.224636 0.282582
346 4 0.0178766 0.233187 0.332972
352 4 0.0396922 0.241357 0.314512
344 2 0.0170868 0.243899 0.367398
1534 4 0.251727 0.126148 0.28216
650 2 0.403928 0.14638 0.25109
743 2 0.477229 0.177235 0.252044
652 4 0.43998 0.14566 0.251537
1071 4 0.478133 0.326464 0.252347
676 4 0.999377 0.47093 0.286496
1199 2 0.00744564 0.452171 0.324135
1200 4 0.025217 0.463681 0.353327
1427 2 0.0854738 0.477651 0.350765
1429 4 0.118721 0.486454 0.339918
1428 4 0.0522271 0.468848 0.361611
1215 4 0.13384 0.465259 0.329015
1214 2 0.164233 0.459991 0.310333
1216 4 0.194626 0.454723 0.291652
1231 4 0.222722 0.446848 0.291218
1229 2 0.249322 0.470288 0.284628
1230 4 0.275923 0.493729 0.278039
154 3 0.361923 0.388748 0.252791
153 3 0.359154 0.44348 0.251589
155 3 0.346601 0.416392 0.296949
151 1 0.366136 0.416801 0.270547
933 4 0.36152 0.484383 0.368822
927 4 0.474389 0.468047 0.28206
204 3 0.386343 0.491313 0.355005
201 1 0.408634 0.48598 0.33062
1423 4 0.480726 0.372404 0.292003
1421 2 0.451588 0.393622 0.293128
926 2 0.48979 0.478352 0.312997
152 3 0.397768 0.418617 0.280385
1422 4 0.422451 0.414839 0.294254
205 3 0.397221 0.463319 0.309762
203 3 0.4377 0.475823 0.343733
874 4 0.479415 0.44796 0.261516
761 2 0.210655 0.0547615 0.431777
386 2 0.13749 0.0108226 0.462982
387 4 0.165548 0.0324723 0.456312
762 4 0.17859 0.038262 0.432074
763 4 0.242719 0.0712609 0.431481
783 4 0.262515 0.0896629 0.421522
782 2 0.292898 0.0724594 0.430543
784 4 0.32328 0.0552559 0.439564
1296 4 0.341597 0.0376228 0.453327
1295 2 0.369138 0.0211112 0.469739
534 4 0.485029 0.0624998 0.382502
1297 4 0.396679 0.0045996 0.48615
345 4 0.016297 0.254612 0.401823
102 3 0.500672 0.202078 0.431355
421 4 0.412701 0.15082 0.489036
105 3 0.492972 0.237897 0.391921
1433 2 0.122931 0.430529 0.499191
1144 4 0.195581 0.441772 0.437848
1434 4 0.158108 0.438218 0.497194
1456 4 0.180504 0.454079 0.4913
1142 2 0.227059 0.426615 0.428912
1143 4 0.258536 0.411458 0.419976
367 4 0.035688 0.0153159 0.498064
1014 4 0.00915431 0.0302083 0.499829
522 4 0.197308 0.0144876 0.611221
521 2 0.224213 0.0125358 0.587288
523 4 0.251117 0.010584 0.563354
397 4 0.350711 0.0655173 0.560006
395 2 0.346453 0.100101 0.550718
837 4 0.334289 0.00463654 0.574428
51 1 0.424734 0.040715 0.526443
53 3 0.419549 0.0403066 0.559502
55 3 0.456897 0.0386244 0.520117
52 3 0.412998 0.0691844 0.514097
54 3 0.408579 0.0151962 0.512029
420 4 0.435152 0.0870179 0.514076
476 2 0.384712 0.0101517 0.587957
862 4 0.44106 0.00371409 0.580841
477 4 0.418017 0.0215508 0.580125
419 2 0.423926 0.118919 0.501556
966 4 0.467137 0.0217883 0.49929
485 2 0.0234775 0.176053 0.614704
396 4 0.342195 0.134684 0.541429
496 4 0.343918 0.164963 0.546488
494 2 0.373206 0.183044 0.557248
495 4 0.402493 0.201125 0.568008
378 4 0.0236814 0.301822 0.509271
1394 2 0.115506 0.335494 0.521289
1395 4 0.084834 0.316889 0.524968
1396 4 0.146178 0.354099 0.517609
11 1 0.18249 0.359761 0.558153
12 3 0.199757 0.333853 0.569613
13 3 0.155769 0.364471 0.577743
15 3 0.172864 0.35358 0.527363
1468 4 0.220486 0.330463 0.619978
1467 4 0.28638 0.320065 0.592557
558 4 0.309067 0.336238 0.58604
1466 2 0.253433 0.325264 0.606268
557 2 0.316088 0.370829 0.578648
1087 4 0.420379 0.351658 0.589105
903 4 0.396762 0.335241 0.587085
902 2 0.398007 0.302563 0.602287
904 4 0.399252 0.269886 0.61749
930 4 0.0246125 0.41951 0.551581
929 2 0.0578732 0.413795 0.538873
931 4 0.091134 0.408079 0.526165
1560 4 0.0721312 0.424736 0.614329
1435 4 0.0877552 0.422839 0.501189
14 3 0.202037 0.386917 0.558772
1454 2 0.184361 0.487914 0.503165
430 4 0.24668 0.450167 0.537123
559 4 0.323108 0.40542 0.571256
96 1 0.351325 0.444578 0.579192
100 3 0.331799 0.453045 0.554175
429 4 0.313403 0.429868 0.555505
98 3 0.349147 0.411647 0.584735
99 3 0.342529 0.461409 0.606747
428 2 0.280041 0.440017 0.546314
97 3 0.382726 0.452119 0.571583
296 2 0.430471 0.461704 0.538467
298 4 0.399863 0.446514 0.549995
1085 2 0.44312 0.377057 0.600863
297 4 0.461079 0.476895 0.526938
143 3 0.467361 0.498676 0.540687
460 4 0.468688 0.431002 0.614942
145 3 0.465089 0.503504 0.594728
1086 4 0.465861 0.402455 0.612622
859 4 0.0486248 0.0272483 0.668734
857 2 0.0319192 0.0591983 0.667953
858 4 0.0152137 0.0911484 0.667171
95 3 0.179934 0.0273957 0.632427
94 3 0.167116 0.0307851 0.685087
1471 4 0.145653 0.0235097 0.702363
1469 2 0.124312 0.00904917 0.72758
91 1 0.172252 0.0101095 0.659278
569 2 0.341342 0.0810026 0.665373
571 4 0.313676 0.0783147 0.642399
570 4 0.369009 0.0836906 0.688347
107 3 0.458187 0.0215999 0.733168
1037 2 0.481766 0.119958 0.661378
511 4 0.442367 0.0702479 0.668254
1039 4 0.458392 0.0924973 0.661585
509 2 0.453829 0.0360742 0.66712
416 2 0.0766306 0.179345 0.674292
417 4 0.0410033 0.174297 0.671905
486 4 0.0449266 0.170502 0.643157
418 4 0.112258 0.184393 0.676679
757 4 0.173128 0.232627 0.632499
756 4 0.134632 0.197775 0.682552
755 2 0.15388 0.215201 0.657525
3 3 0.331639 0.204527 0.727069
502 4 0.349164 0.191914 0.706436
1 1 0.32909 0.237809 0.72946
5 3 0.30462 0.248574 0.710376
561 4 0.359315 0.243502 0.692283
955 4 0.493168 0.243956 0.687943
703 4 0.481152 0.237306 0.713626
500 2 0.384334 0.185089 0.702322
701 2 0.460309 0.208048 0.716784
501 4 0.419503 0.178264 0.698208
702 4 0.439466 0.178789 0.719943
265 4 0.0668553 0.288332 0.669827
225 3 0.0415598 0.285079 0.681281
221 1 0.0249695 0.307928 0.698058
222 3 0.0260452 0.300662 0.730412
1584 4 0.0271325 0.32859 0.738498
224 3 0.0388908 0.337978 0.69325
263 2 0.102749 0.290905 0.672176
1156 4 0.0392957 0.357599 0.670662
49 3 0.208704 0.313375 0.639805
264 4 0.138642 0.293478 0.674524
48 3 0.164788 0.288135 0.660756
46 1 0.187933 0.311732 0.665993
47 3 0.172772 0.341031 0.669513
50 3 0.204861 0.304959 0.693314
976 4 0.23384 0.301832 0.699625
2 3 0.3576 0.251496 0.719434
975 4 0.285682 0.260942 0.728648
974 2 0.259761 0.281387 0.714136
560 2 0.36676 0.260377 0.661294
562 4 0.374205 0.277252 0.630306
1155 4 0.0777553 0.402955 0.62985
1559 2 0.0873879 0.451965 0.632391
1561 4 0.102645 0.479194 0.650452
1154 2 0.0585255 0.380277 0.650256
1372 4 0.239548 0.477864 0.682091
816 4 0.352755 0.469189 0.705616
1597 4 0.266654 0.472631 0.690936
1596 4 0.283988 0.403759 0.678366
1595 2 0.275321 0.438195 0.684651
555 4 0.364756 0.493621 0.71536
554 2 0.366318 0.478819 0.748208
815 2 0.362783 0.443624 0.682243
817 4 0.372812 0.418059 0.658871
1240 4 0.158656 0.00790568 0.825033
1239 4 0.181544 0.0652472 0.78775
1238 2 0.1701 0.0365764 0.806391
999 4 0.238187 0.0508064 0.866062
1113 4 0.364981 0.0211194 0.84195
1116 4 0.341723 0.0106176 0.829566
108 3 0.422617 0.0448785 0.766805
106 1 0.450667 0.0267076 0.765075
110 3 0.475359 0.0428047 0.779568
1112 2 0.389871 0.0292098 0.866759
4 3 0.323473 0.246581 0.761263
1528 4 0.248993 0.24597 0.81093
1583 2 0.0244838 0.353793 0.764155
507 4 0.110716 0.324272 0.880486
842 2 0.147442 0.323334 0.790332
844 4 0.151431 0.299232 0.816859
843 4 0.143453 0.347436 0.763805
253 4 0.230667 0.258583 0.831074
252 4 0.179066 0.307833 0.820421
251 2 0.204866 0.283208 0.825747
1107 4 0.144697 0.36642 0.742221
1527 4 0.295153 0.249362 0.755616
1526 2 0.272073 0.247666 0.783273
1585 4 0.021835 0.378996 0.789811
643 4 0.00697982 0.369612 0.814851
888 4 0.231649 0.485342 0.821054
545 2 0.192411 0.458058 0.79166
1106 2 0.146535 0.401519 0.750292
1108 4 0.148374 0.436618 0.758362
547 4 0.158079 0.452273 0.78226
546 4 0.226743 0.463844 0.80106
512 2 0.288794 0.395002 0.862108
513 4 0.299901 0.418272 0.836896
262 4 0.300525 0.404058 0.812501
260 2 0.322764 0.425551 0.793955
261 4 0.345003 0.447043 0.775408
556 4 0.36788 0.464018 0.781055
25 3 0.493866 0.457664 0.827815
1443 4 0.034818 0.998202 0.940573
1000 4 0.198028 0.100277 0.899852
998 2 0.218107 0.0755419 0.882957
1588 4 0.193992 0.0964096 0.927881
1586 2 0.171965 0.119006 0.945336
982 4 0.253482 0.0419571 0.889515
980 2 0.271726 0.0155935 0.906025
18 3 0.330712 0.0213834 0.997828
186 1 0.480471 0.00941936 0.996293
188 3 0.460298 0.0118422 0.969702
1114 4 0.414761 0.0373002 0.891567
780 4 0.426494 0.0579261 0.910076
779 2 0.450211 0.0465665 0.934753
781 4 0.473928 0.0352069 0.95943
613 4 0.123552 0.153298 0.950639
611 2 0.110439 0.177138 0.974306
1587 4 0.149939 0.141603 0.962791
585 4 0.485897 0.150673 0.980529
1011 4 0.465672 0.167341 0.965093
1010 2 0.448391 0.196608 0.977146
1012 4 0.43111 0.225875 0.9892
393 4 0.0860455 0.312568 0.893849
394 4 0.0160678 0.295661 0.898247
392 2 0.0510566 0.304114 0.896048
1102 4 0.195095 0.332283 0.930413
508 4 0.176937 0.33467 0.907103
506 2 0.143827 0.329471 0.893794
1100 2 0.226724 0.343638 0.917331
689 2 0.302514 0.293652 0.909769
691 4 0.292338 0.291805 0.875221
690 4 0.312689 0.295499 0.944317
912 4 0.296493 0.305214 0.967939
1101 4 0.258353 0.354994 0.904249
514 4 0.277688 0.371732 0.887319
356 2 0.3026 0.479512 0.969853
358 4 0.305301 0.450067 0.990497
1432 4 0.394652 0.386462 0.982901
1390 4 0.482353 0.41445 0.993611
1431 4 0.459083 0.418647 0.979056
1430 2 0.426867 0.402555 0.980979
540 4 0.454339 0.498972 0.892743
715 4 0.0715396 0.528422 0.0251123
713 2 0.0773118 0.510468 0.0558496
493 4 0.0872812 0.540048 0.00442491
1317 4 0.158656 0.621492 0.0415508
856 4 0.170121 0.514038 0.0315586
488 2 0.310069 0.585509 0.0670195
490 4 0.278018 0.56925 0.0640508
1059 4 0.3491 0.56591 0.115649
489 4 0.342121 0.601768 0.0699882
1327 4 0.34545 0.617621 0.0939261
1318 4 0.0954629 0.655346 0.0494468
1266 4 0.079109 0.655246 0.072724
1265 2 0.0630549 0.636803 0.09923
1316 2 0.127059 0.638419 0.0454988
288 4 0.175615 0.645394 0.0453151
287 2 0.208066 0.655032 0.0577489
423 4 0.16667 0.7281 0.0609869
422 2 0.150458 0.713767 0.0898342
1594 4 0.168471 0.711244 0.0381938
424 4 0.134246 0.699434 0.118682
289 4 0.240517 0.66467 0.0701828
1592 2 0.162882 0.701659 0.00388151
1531 4 0.267425 0.676427 0.0662929
1529 2 0.277524 0.709828 0.0571923
1530 4 0.287624 0.743229 0.0480917
1325 2 0.348146 0.645182 0.117025
881 2 0.450438 0.713955 0.0628999
883 4 0.440149 0.707012 0.0290413
1401 4 0.459929 0.69171 0.015858
882 4 0.460727 0.720897 0.0967584
1351 4 0.485571 0.719103 0.112218
1416 4 0.00398638 0.862353 0.120041
1097 2 0.202751 0.808448 0.0118865
1098 4 0.229013 0.815454 0.0355861
870 4 0.226581 0.808699 0.107933
614 2 0.371577 0.872934 0.0203032
389 2 0.33851 0.862811 0.111655
869 2 0.256001 0.828944 0.112939
390 4 0.31191 0.838878 0.116142
871 4 0.285421 0.849188 0.117945
615 4 0.395284 0.846918 0.0281524
942 4 0.420057 0.842977 0.0145563
941 2 0.449479 0.862057 0.00614161
182 3 0.0425836 0.891795 0.107185
1221 4 0.115041 0.902879 0.0820029
183 3 0.0936433 0.908331 0.0995728
181 1 0.0710924 0.899088 0.122507
667 4 0.0910291 0.968129 0.00331553
1220 2 0.134203 0.933265 0.0788458
1222 4 0.153366 0.96365 0.0756887
322 4 0.171197 0.981579 0.0905902
616 4 0.34787 0.898951 0.0124541
811 4 0.32966 0.920705 0.00679738
809 2 0.318125 0.945245 0.0305722
810 4 0.306591 0.969785 0.0543471
19 3 0.310727 0.996544 0.042415
391 4 0.365111 0.886744 0.107168
210 3 0.383284 0.908543 0.107019
208 3 0.432377 0.92999 0.098138
573 4 0.421644 0.950038 0.0792377
572 2 0.435698 0.975599 0.0580346
574 4 0.449752 0.00115972 0.0368315
206 1 0.410922 0.919007 0.121355
943 4 0.4789 0.881136 0.997727
795 4 0.488465 0.895592 0.0200871
1267 4 0.0470007 0.618361 0.125736
405 4 0.00413066 0.543653 0.165109
404 2 0.0142397 0.512781 0.180767
1058 2 0.38045 0.565692 0.133471
498 4 0.492209 0.589002 0.192556
1060 4 0.4118 0.565473 0.151294
283 4 0.418777 0.552913 0.177055
281 2 0.422026 0.517936 0.185212
497 2 0.462771 0.586807 0.21327
499 4 0.433333 0.584611 0.233984
688 4 0.211904 0.693208 0.229441
1326 4 0.350842 0.672743 0.140124
885 4 0.35126 0.70055 0.134998
886 4 0.289464 0.724965 0.163053
884 2 0.320362 0.712758 0.149026
738 4 0.262428 0.726623 0.154301
1350 4 0.493588 0.668142 0.162624
1349 2 0.48958 0.693622 0.137421
185 3 0.0817753 0.872569 0.138676
739 4 0.234344 0.785997 0.124506
737 2 0.248386 0.75631 0.139404
1377 4 0.256674 0.829533 0.244238
1376 2 0.284388 0.806665 0.241154
1378 4 0.312102 0.783798 0.23807
637 4 0.078513 0.937684 0.167952
184 3 0.0657156 0.92417 0.144
635 2 0.0588059 0.967443 0.162804
636 4 0.0390988 0.997202 0.157656
114 3 0.150511 0.887539 0.192934
113 3 0.133305 0.876694 0.142033
1076 2 0.207241 0.951229 0.133636
1078 4 0.213442 0.986617 0.130522
1294 4 0.202803 0.00588046 0.148936
1077 4 0.201041 0.915842 0.136749
115 3 0.132164 0.927527 0.161102
112 3 0.179368 0.904097 0.150137
111 1 0.148633 0.899112 0.161589
551 2 0.218921 0.971264 0.216495
553 4 0.205893 0.938438 0.223788
875 2 0.196981 0.887494 0.239504
876 4 0.220453 0.914417 0.234538
209 3 0.424817 0.894121 0.138892
207 3 0.40375 0.943969 0.141997
1513 4 0.26517 0.520953 0.277351
1511 2 0.263553 0.551466 0.296503
165 3 0.270972 0.581983 0.342928
1512 4 0.261936 0.581979 0.315656
932 2 0.340444 0.513561 0.366626
934 4 0.319368 0.54274 0.364431
1405 4 0.418285 0.569636 0.25426
1403 2 0.408897 0.554231 0.285485
1404 4 0.39951 0.538826 0.31671
202 3 0.41361 0.514395 0.314234
1331 2 0.393739 0.625558 0.357296
1332 4 0.422411 0.606501 0.368029
686 2 0.216028 0.694018 0.265257
687 4 0.220152 0.694828 0.301074
897 4 0.21428 0.682093 0.325946
896 2 0.247783 0.676226 0.337928
1032 4 0.296639 0.663386 0.324792
1031 2 0.33236 0.658903 0.322701
898 4 0.281287 0.670359 0.34991
1033 4 0.36808 0.65442 0.320609
1333 4 0.365067 0.644616 0.346563
1242 4 0.488919 0.716586 0.276637
1241 2 0.460292 0.723402 0.297481
1243 4 0.431664 0.730218 0.318324
727 4 0.103258 0.864962 0.316848
877 4 0.173508 0.860572 0.244471
725 2 0.1272 0.861722 0.290075
1328 2 0.215841 0.815691 0.278742
1329 4 0.188196 0.794399 0.287844
726 4 0.151141 0.858482 0.263302
657 4 0.171191 0.870472 0.343425
1330 4 0.243486 0.836983 0.26964
362 2 0.362059 0.804947 0.354967
1309 4 0.315871 0.767766 0.364839
363 4 0.346096 0.772938 0.359553
364 4 0.378023 0.836955 0.350381
880 4 0.378313 0.864255 0.360964
1168 4 0.0427146 0.903533 0.359579
1166 2 0.0287236 0.871612 0.368839
1291 4 0.0588142 0.924522 0.369856
733 4 0.0147016 0.985362 0.344469
1289 2 0.0839191 0.925255 0.343978
731 2 0.0316702 0.996734 0.31475
1290 4 0.109024 0.925989 0.3181
909 4 0.112532 0.953369 0.309259
656 2 0.203689 0.883098 0.33421
908 2 0.142711 0.969692 0.320363
658 4 0.236187 0.895725 0.324996
910 4 0.172889 0.986015 0.331468
718 4 0.26079 0.900311 0.309513
716 2 0.274183 0.933692 0.306908
1600 4 0.306768 0.990445 0.306006
717 4 0.287577 0.967073 0.304304
1598 2 0.338673 0.988167 0.289353
1599 4 0.370577 0.98589 0.272701
963 4 0.397517 0.980065 0.27994
239 3 0.477621 0.928352 0.301385
964 4 0.450716 0.939525 0.306925
962 2 0.424117 0.959795 0.293432
868 4 0.0244008 0.503282 0.463352
866 2 0.0131312 0.535746 0.474284
867 4 0.00186164 0.568211 0.485216
1506 4 0.180405 0.555296 0.449766
1505 2 0.209445 0.55209 0.428628
1507 4 0.238486 0.548884 0.40749
164 3 0.256991 0.560269 0.390698
162 3 0.278344 0.610035 0.388272
161 1 0.27899 0.579767 0.374703
163 3 0.30983 0.567158 0.377847
400 4 0.29156 0.623201 0.410527
661 4 0.211654 0.69261 0.45678
659 2 0.20818 0.717812 0.43122
660 4 0.204706 0.743014 0.40566
398 2 0.302804 0.654788 0.397248
399 4 0.314048 0.686376 0.38397
1308 4 0.255275 0.738366 0.390637
1307 2 0.285573 0.753066 0.377738
1339 4 0.475292 0.718056 0.403216
952 4 0.46228 0.72594 0.430995
950 2 0.469113 0.699793 0.45487
775 4 0.496138 0.658945 0.463907
951 4 0.475947 0.673645 0.478746
1167 4 0.0147327 0.839691 0.3781
878 2 0.40862 0.868546 0.380031
818 2 0.474654 0.847053 0.445866
820 4 0.454688 0.86145 0.419511
819 4 0.494619 0.832655 0.47222
365 2 0.0603618 0.000518677 0.476322
1093 4 0.0508623 0.891009 0.485897
1091 2 0.0366158 0.899098 0.453771
366 4 0.0850356 0.985721 0.454581
388 4 0.109432 0.989173 0.469652
1092 4 0.0223693 0.907187 0.421645
402 4 0.231713 0.940923 0.485565
879 4 0.438927 0.872838 0.399098
455 2 0.2196 0.537841 0.565563
456 4 0.208351 0.523026 0.53467
1455 4 0.188217 0.521749 0.515031
457 4 0.230849 0.552656 0.596456
233 3 0.250724 0.573681 0.597163
1019 2 0.337841 0.54353 0.612094
1020 4 0.31519 0.544929 0.584068
279 4 0.373874 0.626146 0.583053
142 3 0.481681 0.545061 0.56481
259 4 0.475747 0.56851 0.58204
141 1 0.481807 0.512017 0.567766
280 4 0.418987 0.682414 0.583866
278 2 0.39643 0.65428 0.58346
621 4 0.459541 0.746772 0.608423
197 3 0.0892888 0.867855 0.550844
1459 4 0.471632 0.843597 0.5656
683 2 0.481652 0.796429 0.602479
685 4 0.486657 0.82763 0.585103
684 4 0.476648 0.765229 0.619854
1516 4 0.0105953 0.879182 0.548624
196 1 0.0640761 0.88893 0.546283
199 3 0.0611193 0.895343 0.513572
200 3 0.0364064 0.875305 0.557579
198 3 0.0704905 0.917238 0.56294
836 2 0.300903 0.996033 0.563854
838 4 0.267518 0.98743 0.553279
478 4 0.351407 0.998753 0.59579
401 2 0.257204 0.92327 0.503978
403 4 0.282695 0.905618 0.522391
860 2 0.472508 0.993164 0.59499
1398 4 0.141869 0.618527 0.638336
232 3 0.218942 0.562654 0.63967
1397 2 0.168889 0.596108 0.646566
1399 4 0.19591 0.573689 0.654796
234 3 0.244896 0.6102 0.637622
231 1 0.24698 0.577639 0.630182
1370 2 0.241354 0.513284 0.688614
1021 4 0.360491 0.542131 0.64012
235 3 0.272371 0.564123 0.646039
1546 4 0.289863 0.575979 0.699872
1544 2 0.323457 0.587058 0.692856
1371 4 0.243159 0.548705 0.695137
1545 4 0.35705 0.598138 0.68584
212 3 0.28852 0.575724 0.728021
915 4 0.380977 0.588066 0.673955
914 2 0.401844 0.615472 0.684631
1463 2 0.103383 0.65908 0.645299
1464 4 0.072802 0.672835 0.658569
1219 4 0.0551371 0.676576 0.633628
1217 2 0.0195291 0.671831 0.630459
1465 4 0.133964 0.645324 0.632029
1118 2 0.492246 0.696246 0.706074
916 4 0.422711 0.642879 0.695306
622 4 0.454077 0.702315 0.664952
620 2 0.456809 0.724544 0.636688
1120 4 0.459448 0.694665 0.691166
269 2 0.0259273 0.795095 0.731396
271 4 0.0519111 0.806882 0.753451
270 4 0.999943 0.783308 0.709342
1236 4 0.477355 0.843813 0.719125
173 3 0.463818 0.828783 0.740446
1235 2 0.47768 0.870887 0.695307
505 4 0.101758 0.91933 0.671818
1470 4 0.10297 0.994589 0.752797
503 2 0.128937 0.94262 0.667424
504 4 0.156117 0.965911 0.663029
93 3 0.144784 0.991846 0.65363
577 4 0.184377 0.96298 0.663616
92 3 0.19735 0.989721 0.6667
575 2 0.213391 0.941694 0.661249
576 4 0.242404 0.920408 0.658883
343 4 0.448698 0.983645 0.680344
342 4 0.450009 0.91175 0.674746
341 2 0.449354 0.947698 0.677545
1237 4 0.478006 0.897962 0.671489
510 4 0.465291 0.00190058 0.665985
669 4 0.00899455 0.551851 0.832057
1063 4 0.237708 0.584465 0.754334
214 3 0.251433 0.561237 0.764806
1061 2 0.215102 0.611169 0.763067
887 2 0.236808 0.520919 0.823905
889 4 0.241966 0.556496 0.826756
215 3 0.302465 0.543033 0.768447
211 1 0.283718 0.568674 0.760082
1175 2 0.3377 0.540625 0.825393
213 3 0.292087 0.595396 0.778407
1176 4 0.302175 0.543211 0.831031
435 4 0.317751 0.601835 0.789448
434 2 0.314631 0.621883 0.81926
1177 4 0.373224 0.538038 0.819754
1392 4 0.496097 0.599107 0.793006
1391 2 0.479894 0.616077 0.820392
594 4 0.391652 0.560104 0.821352
593 2 0.417683 0.571815 0.84339
595 4 0.443714 0.583526 0.865429
682 4 0.00768147 0.673381 0.777321
681 4 0.0704312 0.645469 0.79935
680 2 0.0390563 0.659425 0.788335
1495 4 0.0990854 0.64339 0.796434
971 2 0.0664826 0.736447 0.86444
1062 4 0.192496 0.637874 0.7718
1494 4 0.163765 0.645156 0.764572
1493 2 0.131425 0.644273 0.780503
516 4 0.32728 0.629274 0.8682
436 4 0.31151 0.641932 0.849072
1503 4 0.480265 0.72012 0.855773
1502 2 0.472077 0.685607 0.862273
1504 4 0.46389 0.651094 0.868772
802 4 0.462645 0.725041 0.832644
1393 4 0.463692 0.633047 0.847777
800 2 0.454399 0.74628 0.804692
973 4 0.0638989 0.756762 0.834756
1178 2 0.0774722 0.792514 0.789495
1180 4 0.0739396 0.819925 0.766331
1179 4 0.0810047 0.765102 0.81266
38 3 0.237721 0.84035 0.815411
804 4 0.251691 0.86406 0.804825
37 3 0.255362 0.789671 0.823083
36 1 0.262696 0.821709 0.827605
40 3 0.290649 0.828736 0.811854
39 3 0.266298 0.827463 0.860375
993 4 0.270528 0.77106 0.837267
1369 4 0.282504 0.854483 0.794068
799 4 0.285661 0.848968 0.867806
992 2 0.280241 0.759058 0.869857
427 4 0.360895 0.877915 0.780382
1367 2 0.310676 0.872026 0.779958
801 4 0.446152 0.76752 0.776739
172 3 0.489243 0.838767 0.787269
171 1 0.462704 0.824298 0.773591
175 3 0.43544 0.837923 0.785834
174 3 0.463326 0.791608 0.780723
426 4 0.411772 0.830153 0.798609
425 2 0.386333 0.854034 0.789495
1137 4 0.0265571 0.919831 0.792143
1136 2 0.0212035 0.955204 0.787606
1138 4 0.0158499 0.990576 0.78307
147 3 0.114785 0.943968 0.796995
805 4 0.195285 0.907172 0.817534
150 3 0.167524 0.947648 0.786871
146 1 0.143625 0.95648 0.807599
149 3 0.150027 0.94449 0.83818
148 3 0.141199 0.98984 0.808682
301 4 0.220905 0.942291 0.804894
803 2 0.223488 0.885616 0.811179
285 4 0.141028 0.917072 0.844686
284 2 0.121388 0.890758 0.859597
299 2 0.235909 0.970094 0.822283
1368 4 0.338847 0.889569 0.765847
1117 4 0.274299 0.985171 0.826674
300 4 0.250914 0.997896 0.839673
1115 2 0.308011 0.997894 0.82812
734 2 0.398528 0.876633 0.869636
736 4 0.415966 0.900302 0.848751
1196 2 0.419622 0.946253 0.805031
1198 4 0.412114 0.915803 0.822834
1197 4 0.42713 0.976702 0.787228
109 3 0.446036 0.997101 0.779971
492 4 0.0717936 0.554269 0.935435
491 2 0.0795374 0.547159 0.96993
1135 4 0.12627 0.549136 0.895542
1133 2 0.153253 0.540857 0.917987
1134 4 0.180237 0.532579 0.940432
855 4 0.187783 0.512139 0.961658
854 2 0.178952 0.513088 0.996608
1249 4 0.312044 0.534497 0.946278
357 4 0.299899 0.508956 0.949209
1247 2 0.343017 0.54474 0.930909
1248 4 0.37399 0.554983 0.91554
276 4 0.490836 0.597364 0.953278
566 2 0.484796 0.604256 0.906501
567 4 0.46135 0.600371 0.879378
539 2 0.426053 0.517983 0.904528
541 4 0.397767 0.536994 0.916313
972 4 0.0690663 0.716132 0.894123
307 4 0.0811563 0.700674 0.912958
305 2 0.112763 0.702486 0.930226
306 4 0.144371 0.704297 0.947493
1593 4 0.157292 0.692074 0.969569
515 2 0.360201 0.626653 0.882685
994 4 0.289953 0.747055 0.902446
517 4 0.393121 0.624033 0.897169
1402 4 0.454598 0.68361 0.944389
1400 2 0.457263 0.68766 0.980123
286 4 0.101747 0.864444 0.874507
1256 2 0.0635097 0.865346 0.941869
1258 4 0.0890453 0.847919 0.960436
1486 4 0.0919527 0.821201 0.970555
1484 2 0.125272 0.807572 0.968436
75 3 0.0109022 0.873992 0.916576
1485 4 0.158592 0.793943 0.966317
1099 4 0.176489 0.801442 0.988187
797 2 0.319575 0.849798 0.880038
1284 4 0.307657 0.767504 0.916411
1283 2 0.327895 0.778741 0.944062
1285 4 0.348133 0.789979 0.971713
798 4 0.353488 0.850628 0.892271
735 4 0.38109 0.852964 0.89052
1442 2 0.0586697 0.995968 0.967528
1257 4 0.0379741 0.882773 0.923302
1244 2 0.0176134 0.969884 0.902128
1444 4 0.0825213 0.993733 0.994483
1245 4 0.0406338 0.99541 0.913036
665 2 0.123521 0.958321 0.991128
969 4 0.227121 0.928071 0.962423
666 4 0.156013 0.948513 0.97894
981 4 0.28997 0.98923 0.922535
135 3 0.31696 0.998015 0.922349
133 3 0.306037 0.955697 0.954578
132 3 0.346211 0.953012 0.918283
134 3 0.351893 0.98485 0.961786
970 4 0.28403 0.964231 0.936818
131 1 0.330142 0.973109 0.939225
968 2 0.255575 0.946151 0.94962
189 3 0.488949 0.977439 0.0013251
627 4 0.616386 0.0569355 0.0214258
1153 4 0.606586 0.0835393 0.0350275
1151 2 0.584659 0.111971 0.0383803
626 2 0.618706 0.0274194 0.042015
628 4 0.621025 0.997903 0.0626043
1001 2 0.68398 0.0875564 0.0657457
1002 4 0.682882 0.0515137 0.0661781
1382 2 0.693865 0.0194774 0.105546
1383 4 0.668811 0.0327832 0.0832813
1003 4 0.685079 0.123599 0.0653132
936 4 0.832134 0.0582765 0.0210495
935 2 0.832673 0.0228797 0.0279245
590 2 0.824227 0.11754 0.00587384
591 4 0.832502 0.0824414 0.00621665
1269 4 0.899716 0.105041 0.0940769
1268 2 0.897274 0.0975089 0.0588944
1270 4 0.894832 0.0899766 0.023712
1152 4 0.562732 0.140404 0.0417332
1232 2 0.603523 0.188933 0.032269
1233 4 0.584428 0.158683 0.0368291
1234 4 0.622617 0.219183 0.0277089
1096 4 0.696223 0.151675 0.0674838
1094 2 0.703088 0.16618 0.0997787
1095 4 0.709952 0.180686 0.132074
563 2 0.852286 0.242996 0.00692928
564 4 0.865659 0.216804 0.0277996
1065 4 0.869653 0.18943 0.0336704
228 3 0.903428 0.129711 0.111112
1064 2 0.879672 0.194945 0.0678707
1066 4 0.88969 0.20046 0.102071
230 3 0.898448 0.182403 0.123264
45 3 0.534303 0.334798 0.0425885
318 4 0.52376 0.327939 0.0700408
43 3 0.519536 0.364968 0.99992
41 1 0.516434 0.36062 0.0329565
317 2 0.525521 0.30912 0.100753
1057 4 0.719756 0.311952 0.0354246
1055 2 0.70914 0.336831 0.0592725
1056 4 0.698525 0.361711 0.0831205
1356 4 0.72717 0.303598 0.00847521
1049 2 0.831363 0.322598 0.00198586
793 4 0.807322 0.373032 0.0117413
1051 4 0.838283 0.28795 0.00920493
1414 4 0.953269 0.350586 0.119749
639 4 0.522583 0.471405 0.0430248
638 2 0.55169 0.487262 0.0572321
44 3 0.526521 0.388145 0.0490988
462 4 0.703225 0.386239 0.097741
1139 2 0.631196 0.480831 0.0906001
461 2 0.677461 0.40962 0.107229
463 4 0.651698 0.433001 0.116718
1141 4 0.652376 0.461335 0.11232
960 4 0.723366 0.420427 0.0282338
959 2 0.698899 0.406822 0.00550216
792 4 0.751036 0.410411 0.0369667
791 2 0.779179 0.391722 0.024354
1412 2 0.94295 0.383993 0.110924
1413 4 0.93263 0.417401 0.102098
1029 4 0.935456 0.442165 0.115677
835 4 0.552609 0.0275386 0.178095
833 2 0.553671 0.0622627 0.168421
834 4 0.554734 0.0969868 0.158748
84 3 0.52861 0.110948 0.163602
694 4 0.55458 0.0172854 0.149712
1384 4 0.718919 0.0061717 0.127812
1084 4 0.742543 0.0226524 0.131852
1082 2 0.773987 0.0354228 0.144043
1305 4 0.864574 0.117383 0.149234
1306 4 0.828301 0.0591345 0.171442
1304 2 0.846437 0.0882587 0.160338
1083 4 0.805431 0.0481932 0.156235
81 1 0.501663 0.130259 0.168172
70 3 0.527503 0.187147 0.246724
85 3 0.505855 0.149267 0.194629
67 3 0.551778 0.235139 0.244474
1518 4 0.721965 0.179145 0.200889
1517 2 0.69558 0.181438 0.225364
1519 4 0.669196 0.18373 0.249839
229 3 0.87091 0.14566 0.152256
226 1 0.899298 0.15202 0.135713
227 3 0.924785 0.149564 0.15681
839 2 0.938984 0.166989 0.213252
841 4 0.935873 0.167193 0.177325
840 4 0.942095 0.166785 0.249178
319 4 0.527282 0.2903 0.131464
1298 2 0.517248 0.288156 0.242952
984 4 0.947684 0.312179 0.205454