ITEM: TIMESTEP
2768500
ITEM: NUMBER OF ATOMS
4800
ITEM: BOX BOUNDS xy xz yz pp pp pp
-9.9985700000000008e+00 9.9985700000000008e+00 0.0000000000000000e+00
-9.9985700000000008e+00 9.9985700000000008e+00 0.0000000000000000e+00
-9.9985700000000008e+00 9.9985700000000008e+00 0.0000000000000000e+00
ITEM: ATOMS id type xs ys zs
4288 2 0.0144608 0.985995 0.0414618
770 4 0.135472 0.00793695 0.0151838
4769 4 0.110168 0.0618089 0.996509
4348 2 0.3227 0.993223 0.029378
4350 4 0.305465 0.00630128 0.0419123
3030 4 0.409307 0.015712 0.0101135
3028 2 0.431881 0.00983005 0.0191128
3029 4 0.454455 0.00394808 0.0281121
1398 4 0.462415 0.0157534 0.0409985
1396 2 0.483751 0.0108867 0.0530931
4052 4 0.449569 0.075998 0.049393
4051 2 0.44107 0.0613276 0.0677707
3993 4 0.466495 0.0747944 0.0403184
3991 2 0.474787 0.0903738 0.0226065
4053 4 0.432571 0.0466572 0.0861484
1110 4 0.114434 0.0790169 0.00642666
1108 2 0.123147 0.0871958 0.0283901
1109 4 0.131859 0.0953747 0.0503535
1938 4 0.133931 0.129973 0.0368516
1936 2 0.147161 0.141413 0.0547194
2922 4 0.135608 0.0896874 0.0696478
1937 4 0.160391 0.152854 0.0725872
4222 2 0.246402 0.149649 0.0126624
4223 4 0.258114 0.128972 0.0204399
3387 4 0.489181 0.143425 0.06529
3385 2 0.492498 0.152242 0.0421288
1722 4 0.49593 0.137278 0.0827817
3264 4 0.477176 0.160236 0.00880728
880 2 0.0173179 0.184628 0.0754497
882 4 0.032829 0.180301 0.0563216
403 3 0.0483868 0.192339 0.0535149
401 1 0.0709654 0.196618 0.0567266
404 3 0.0748017 0.219501 0.0565028
405 3 0.0831892 0.18653 0.0403727
966 4 0.0785459 0.235827 0.0463211
1278 4 0.102512 0.187495 0.0317402
1276 2 0.125203 0.194495 0.0395695
402 3 0.077289 0.188217 0.077186
1277 4 0.147895 0.201494 0.0473988
1382 4 0.157842 0.218763 0.0404199
1381 2 0.181755 0.211463 0.0400767
1383 4 0.205667 0.204163 0.0397335
3681 4 0.218422 0.196357 0.0275705
3679 2 0.238195 0.19954 0.0425387
4224 4 0.234691 0.170325 0.00488481
3680 4 0.257969 0.202723 0.057507
2802 4 0.263921 0.218902 0.066936
3386 4 0.495814 0.161058 0.0189677
964 2 0.0994974 0.248364 0.0517132
91 1 0.123976 0.326108 0.00932551
965 4 0.120449 0.2609 0.0571052
1305 4 0.138062 0.253572 0.065991
1303 2 0.141152 0.266676 0.0870605
94 3 0.10611 0.324408 0.0240342
92 3 0.143494 0.32731 0.0214394
1821 4 0.244687 0.349227 0.0352435
4353 4 0.30871 0.283316 0.0755381
3123 4 0.414956 0.294656 0.00625199
4095 4 0.428986 0.295116 0.0201533
4093 2 0.424115 0.307773 0.0411596
4094 4 0.419245 0.32043 0.0621659
1552 2 0.0388644 0.366654 0.0290267
1553 4 0.0528944 0.354515 0.0457896
1554 4 0.0248344 0.378793 0.0122638
2145 4 0.146058 0.346722 0.0217563
95 3 0.121844 0.34491 0.996652
3180 4 0.1332 0.370723 0.0887547
810 4 0.239994 0.344914 0.0160215
2143 2 0.168659 0.348644 0.0322778
2144 4 0.19126 0.350565 0.0427993
1820 4 0.201456 0.357957 0.0588144
1819 2 0.223071 0.353592 0.0470289
1306 2 0.34171 0.383648 0.0685542
1307 4 0.360593 0.381629 0.0522884
1991 4 0.480603 0.387348 0.0447703
2078 4 0.0322202 0.457946 0.0151995
1901 4 0.0526129 0.459715 0.0200624
2077 2 0.0160743 0.450707 0.0328658
1900 2 0.0749743 0.456568 0.00932742
2079 4 0.999929 0.443468 0.050532
3503 4 0.0761229 0.483355 0.0871392
3753 4 0.306978 0.457524 0.01188
3751 2 0.30472 0.437258 0.99741
4422 4 0.405663 0.501265 0.0185465
3934 2 0.325823 0.491219 0.0529312
3936 4 0.3388 0.499509 0.0332323
4420 2 0.384358 0.49533 0.00688119
792 4 0.4547 0.49043 0.025244
790 2 0.470073 0.474312 0.0366048
791 4 0.485445 0.458194 0.0479656
4195 2 0.00107086 0.0138688 0.154992
1835 4 0.160719 0.080413 0.166861
1836 4 0.141115 0.0356739 0.156141
1834 2 0.150917 0.0580434 0.161501
1030 2 0.201692 0.0241601 0.158
1031 4 0.205842 0.0349519 0.18017
3847 2 0.282343 0.0671219 0.166869
3848 4 0.291154 0.0464375 0.155928
2885 4 0.0062489 0.0921715 0.135923
2886 4 0.0499483 0.116319 0.138755
2884 2 0.0280986 0.104245 0.137339
2183 4 0.992664 0.169814 0.132593
2920 2 0.153391 0.0859523 0.086823
219 3 0.166662 0.123712 0.13683
2921 4 0.171174 0.0822171 0.103998
217 3 0.168105 0.0885483 0.150023
216 1 0.178985 0.104053 0.13697
218 3 0.180843 0.0957151 0.115396
220 3 0.199696 0.107925 0.145614
2850 4 0.231517 0.171364 0.11265
984 4 0.218511 0.112515 0.142275
982 2 0.23972 0.105658 0.153604
2952 4 0.17244 0.162629 0.086371
983 4 0.26093 0.0988023 0.164933
3878 4 0.355578 0.145621 0.137878
3102 4 0.349111 0.16151 0.12688
3877 2 0.36377 0.126411 0.151626
3879 4 0.371961 0.1072 0.165374
4329 4 0.458258 0.0952466 0.145507
2866 2 0.49313 0.0875075 0.130687
2867 4 0.472902 0.102121 0.132247
2182 2 0.0168843 0.175717 0.130665
2184 4 0.041105 0.181619 0.128738
3516 4 0.0952315 0.189428 0.0867404
3514 2 0.109772 0.201097 0.103401
3515 4 0.124313 0.212767 0.120062
3842 4 0.137385 0.222562 0.109115
3841 2 0.157834 0.224723 0.12334
2950 2 0.194877 0.170739 0.0938548
2951 4 0.217314 0.178849 0.101339
3843 4 0.178283 0.226884 0.137566
2848 2 0.247145 0.177523 0.131171
3459 4 0.189532 0.242358 0.140637
2800 2 0.265627 0.237176 0.0839165
2849 4 0.262772 0.183682 0.149693
2801 4 0.267332 0.25545 0.100897
4424 4 0.296784 0.243176 0.147284
4423 2 0.318778 0.249731 0.137361
1119 4 0.269764 0.199567 0.159848
3101 4 0.328643 0.200898 0.149908
3100 2 0.338877 0.181204 0.138394
1360 2 0.496662 0.209922 0.134185
1361 4 0.483368 0.221076 0.152187
1758 4 0.0176026 0.323532 0.097021
1756 2 0.041721 0.326423 0.0910921
1304 4 0.144243 0.27978 0.10813
3214 2 0.0979693 0.318792 0.17
3987 4 0.228235 0.298808 0.091616
3986 4 0.196366 0.261929 0.0804322
3985 2 0.2123 0.280369 0.0860241
2412 4 0.236014 0.314089 0.0804421
2410 2 0.243835 0.333402 0.0942649
4352 4 0.302782 0.31427 0.114364
4351 2 0.305746 0.298793 0.0949511
4425 4 0.340773 0.256287 0.127437
1129 2 0.406455 0.339531 0.165976
4199 4 0.443632 0.33323 0.149355
1131 4 0.430677 0.342782 0.160692
1757 4 0.0658393 0.329314 0.0851632
2994 4 0.0840377 0.330321 0.0766538
3215 4 0.120625 0.328869 0.166784
2993 4 0.121517 0.363248 0.073224
2992 2 0.102777 0.346784 0.0749389
1968 4 0.136532 0.335461 0.157801
3178 2 0.153581 0.380982 0.0989791
3179 4 0.173963 0.391241 0.109203
2411 4 0.251655 0.352714 0.108088
3528 4 0.249709 0.360819 0.127028
3526 2 0.239684 0.362094 0.149898
1308 4 0.322828 0.385666 0.0848199
432 3 0.295718 0.392343 0.111798
433 3 0.322753 0.395988 0.137653
431 1 0.315732 0.402635 0.11656
434 3 0.331389 0.396315 0.100644
4198 2 0.463356 0.344387 0.138786
4200 4 0.483079 0.355544 0.128216
264 3 0.487015 0.371094 0.140841
263 3 0.481672 0.40838 0.145903
261 1 0.49658 0.392125 0.138697
3502 2 0.0915838 0.48316 0.106789
3504 4 0.107045 0.482965 0.126439
435 3 0.312853 0.425221 0.116087
2700 4 0.311106 0.444381 0.107505
2698 2 0.326958 0.457428 0.121777
2699 4 0.34281 0.470475 0.136049
4295 4 0.356613 0.478881 0.146759
4294 2 0.381598 0.47818 0.146105
4296 4 0.406584 0.477478 0.145451
4071 4 0.469824 0.474179 0.139592
2115 4 0.487077 0.467397 0.13555
4069 2 0.446116 0.469755 0.146189
4070 4 0.422408 0.465332 0.152787
4197 4 0.0111295 0.0301658 0.171068
1778 4 0.0307476 0.0269713 0.177164
3164 4 0.0273935 0.0705355 0.216504
1779 4 0.0262904 0.0515288 0.220498
1777 2 0.028519 0.03925 0.198831
1637 4 0.225617 0.0416279 0.183757
1638 4 0.210832 0.0380937 0.231398
4547 4 0.223851 0.0422128 0.245007
1636 2 0.218224 0.0398608 0.207577
3849 4 0.273532 0.0878063 0.17781
4577 4 0.348222 0.0801209 0.244756
1052 4 0.362263 0.0654662 0.249959
3165 4 0.0515348 0.109245 0.236986
3163 2 0.0394641 0.0898904 0.226745
4171 2 0.120856 0.120789 0.249341
4172 4 0.143657 0.111968 0.254586
2949 4 0.150875 0.11101 0.235481
4173 4 0.0980549 0.12961 0.244096
2947 2 0.170698 0.096955 0.241371
2948 4 0.19052 0.0829004 0.247262
926 4 0.30545 0.155092 0.167064
927 4 0.296762 0.130404 0.209676
2971 2 0.266837 0.123243 0.235133
2973 4 0.277177 0.124925 0.21243
925 2 0.301106 0.142748 0.18837
4576 2 0.347728 0.102195 0.233022
4578 4 0.347235 0.124268 0.221288
4327 2 0.453735 0.103047 0.168829
377 3 0.463471 0.114134 0.205894
378 3 0.469075 0.120159 0.242567
4328 4 0.449213 0.110847 0.192151
376 1 0.477513 0.123897 0.221278
379 3 0.498577 0.114363 0.219318
380 3 0.478702 0.146272 0.217208
4187 4 0.997289 0.242334 0.222881
781 2 0.12226 0.202731 0.233157
782 4 0.145182 0.212711 0.232741
4245 4 0.161877 0.209143 0.242111
783 4 0.0993385 0.19275 0.233574
3457 2 0.206128 0.241762 0.15933
3458 4 0.222724 0.241167 0.178022
1118 4 0.240021 0.232851 0.182391
4243 2 0.175809 0.189064 0.247395
1117 2 0.254892 0.216209 0.171119
756 4 0.340299 0.20101 0.164904
754 2 0.353307 0.218593 0.177022
755 4 0.366315 0.236175 0.189141
3002 4 0.380396 0.236305 0.203632
3001 2 0.405219 0.233485 0.202622
578 3 0.384323 0.242267 0.243891
359 3 0.471113 0.218048 0.168937
3003 4 0.430043 0.230665 0.201612
2269 2 0.483898 0.206669 0.2383
358 3 0.438156 0.230588 0.183113
2271 4 0.464495 0.204204 0.222723
356 1 0.460023 0.224724 0.188195
360 3 0.460188 0.20786 0.203499
357 3 0.470783 0.243051 0.196998
3216 4 0.0753134 0.308714 0.173216
450 3 0.00672958 0.29715 0.210662
4026 4 0.0260119 0.293149 0.213773
4024 2 0.0454693 0.303411 0.201886
4025 4 0.0649267 0.313674 0.19
3915 4 0.0855034 0.278125 0.241502
4710 4 0.119975 0.261402 0.190412
4708 2 0.142462 0.269138 0.198138
4709 4 0.164948 0.276875 0.205864
3234 4 0.171461 0.288342 0.2222
3232 2 0.186599 0.301062 0.206896
3233 4 0.201738 0.313781 0.191591
569 3 0.220929 0.30734 0.191627
567 3 0.2549 0.312932 0.206704
566 1 0.24318 0.311956 0.186935
4075 2 0.259219 0.282742 0.229695
568 3 0.252146 0.29512 0.173722
4076 4 0.258731 0.293538 0.207147
2963 4 0.265171 0.289326 0.188616
2962 2 0.28883 0.284589 0.18206
2964 4 0.312489 0.279853 0.175503
1157 4 0.324182 0.294604 0.244307
1130 4 0.382234 0.33628 0.17126
1156 2 0.340499 0.30138 0.262001
3141 4 0.469411 0.273934 0.238532
2901 4 0.47449 0.289994 0.225043
2899 2 0.499184 0.293772 0.223983
1966 2 0.156244 0.348987 0.165125
1967 4 0.175957 0.362513 0.17245
1733 4 0.261974 0.363261 0.197788
29 3 0.228329 0.351744 0.240861
1732 2 0.246211 0.367659 0.216693
570 3 0.24487 0.331978 0.176216
3527 4 0.229659 0.363369 0.172769
1734 4 0.230448 0.372058 0.235597
75 3 0.317684 0.386824 0.235865
4235 4 0.367572 0.370377 0.242773
4234 2 0.391667 0.364541 0.239525
4236 4 0.415762 0.358706 0.236277
374 3 0.435231 0.362881 0.239477
372 3 0.471673 0.354552 0.243383
968 4 0.490102 0.353576 0.235924
4283 4 0.325976 0.454928 0.229963
4282 2 0.343564 0.453915 0.247706
3901 2 0.476901 0.455141 0.216869
3902 4 0.46467 0.447796 0.237403
3903 4 0.489133 0.462486 0.196336
1848 4 0.461573 0.437439 0.255057
4546 2 0.22101 0.0274956 0.26502
4548 4 0.218169 0.0127784 0.285033
1976 4 0.361833 0.998346 0.320354
1051 2 0.370626 0.0731369 0.27224
1053 4 0.378988 0.0808077 0.29452
85 3 0.0561049 0.103976 0.25576
84 3 0.0615229 0.13863 0.26945
602 3 0.0534987 0.148518 0.302969
81 1 0.0699023 0.117021 0.268334
83 3 0.0718669 0.108175 0.289694
605 3 0.0802987 0.171123 0.315764
1893 4 0.0846516 0.171601 0.296744
601 1 0.0592308 0.163363 0.319581
82 3 0.0907301 0.117615 0.258586
3726 4 0.195392 0.151418 0.244865
1166 4 0.199086 0.0757439 0.26406
1165 2 0.215589 0.0906184 0.275532
3725 4 0.239369 0.13335 0.260366
1167 4 0.232091 0.105493 0.287004
439 3 0.237577 0.137668 0.279366
3724 2 0.21738 0.142384 0.252615
440 3 0.250251 0.10659 0.296431
2972 4 0.256498 0.121562 0.257837
437 3 0.271832 0.124271 0.271641
436 1 0.256168 0.127009 0.288262
438 3 0.265371 0.139944 0.305186
3084 4 0.381534 0.0925402 0.312174
3082 2 0.396798 0.106978 0.32573
801 4 0.50201 0.176923 0.300971
1170 4 0.0613442 0.227156 0.282729
1168 2 0.0483489 0.212385 0.298161
1169 4 0.0353537 0.197614 0.313592
603 3 0.0441488 0.180996 0.319416
3914 4 0.0660114 0.242324 0.27047
1891 2 0.0870428 0.177697 0.272613
1892 4 0.0894341 0.183794 0.248481
63 3 0.149311 0.206049 0.327238
61 1 0.1648 0.189306 0.331505
65 3 0.158928 0.170285 0.320442
4244 4 0.189741 0.168986 0.25268
64 3 0.185928 0.196164 0.324799
885 4 0.201208 0.255462 0.283996
795 4 0.257057 0.224587 0.306265
793 2 0.278359 0.233949 0.315418
2968 2 0.366728 0.233994 0.321139
580 3 0.385535 0.238273 0.28131
579 3 0.417662 0.238177 0.261675
3140 4 0.438112 0.239589 0.257013
407 3 0.489664 0.243359 0.272771
3913 2 0.0757574 0.260224 0.255986
2934 4 0.174186 0.303177 0.306963
883 2 0.223497 0.260753 0.273975
884 4 0.245786 0.266044 0.263955
2932 2 0.184083 0.313744 0.286578
2933 4 0.193979 0.324312 0.266193
30 3 0.21428 0.323304 0.261146
4077 4 0.259708 0.271945 0.252242
1158 4 0.356815 0.308156 0.279694
576 1 0.396259 0.247006 0.263216
2969 4 0.37675 0.230098 0.298565
875 4 0.34436 0.326418 0.337817
577 3 0.397787 0.269834 0.265603
777 4 0.375544 0.316565 0.278466
775 2 0.399406 0.322136 0.283441
3139 2 0.453761 0.256762 0.247772
776 4 0.423268 0.327707 0.288416
3070 2 0.457778 0.318216 0.296141
3072 4 0.47355 0.306412 0.311539
1196 4 0.003112 0.356473 0.301791
2238 4 0.0172652 0.366603 0.290969
2236 2 0.0420429 0.36329 0.290438
2237 4 0.0668205 0.359976 0.289906
2220 4 0.0786737 0.365503 0.275487
2218 2 0.101847 0.368829 0.284268
2219 4 0.125021 0.372156 0.29305
3939 4 0.141509 0.365436 0.284587
3937 2 0.164943 0.365222 0.275868
3938 4 0.188376 0.365007 0.267149
28 3 0.206795 0.358757 0.271381
26 1 0.222585 0.344487 0.262139
27 3 0.241397 0.344638 0.275377
71 1 0.327167 0.379673 0.255297
72 3 0.314622 0.362446 0.263958
73 3 0.32772 0.397026 0.270691
2825 4 0.258477 0.352338 0.28351
2824 2 0.281527 0.361964 0.282396
2826 4 0.304577 0.371591 0.281282
4128 4 0.31324 0.390972 0.282977
4126 2 0.307015 0.413229 0.292519
74 3 0.348682 0.371987 0.251248
876 4 0.362517 0.360866 0.30644
874 2 0.353439 0.343642 0.322128
2265 4 0.359993 0.380323 0.30708
2263 2 0.378204 0.393296 0.295887
2264 4 0.396414 0.406269 0.284693
3071 4 0.442007 0.33002 0.280743
371 1 0.452753 0.361279 0.254605
1846 2 0.468153 0.414924 0.263713
375 3 0.447741 0.345975 0.270708
1082 4 0.494712 0.397771 0.274619
373 3 0.45675 0.38197 0.264317
1847 4 0.474733 0.392408 0.272369
4127 4 0.300789 0.435486 0.302061
2245 2 0.345088 0.497172 0.33478
1880 4 0.366092 0.466037 0.280107
1879 2 0.386956 0.477156 0.271968
1881 4 0.40782 0.488275 0.263828
4284 4 0.361153 0.452901 0.265449
2247 4 0.360687 0.496148 0.315267
2168 4 0.425487 0.492613 0.271671
2167 2 0.449938 0.487752 0.273605
2169 4 0.474388 0.48289 0.27554
2852 4 0.493133 0.473831 0.277621
229 3 0.00230197 0.0473469 0.364905
3053 4 0.0184695 0.0510193 0.354147
3052 2 0.0432926 0.048437 0.352625
3054 4 0.0681157 0.0458546 0.351103
909 4 0.11387 0.0726672 0.405291
1482 4 0.0993331 0.0620554 0.4146
1473 4 0.247957 0.0204622 0.394386
3261 4 0.26558 0.0102556 0.395473
3259 2 0.288818 0.0192884 0.393574
3260 4 0.312055 0.0283213 0.391675
3107 4 0.309812 0.044871 0.379315
3106 2 0.334473 0.0439534 0.37529
1975 2 0.363757 0.0166265 0.337305
3108 4 0.359134 0.0430359 0.371265
1977 4 0.365681 0.0349068 0.354255
1826 4 0.99873 0.137155 0.382848
1825 2 0.00324313 0.131345 0.406745
604 3 0.0584057 0.152424 0.340027
907 2 0.136815 0.081829 0.409136
908 4 0.159761 0.0909909 0.412981
400 3 0.3196 0.128195 0.410414
1697 4 0.375776 0.106868 0.386365
4478 4 0.359602 0.166789 0.404246
1698 4 0.364621 0.155537 0.389129
1696 2 0.370199 0.131202 0.387747
3083 4 0.412062 0.121416 0.339285
3143 4 0.423487 0.138135 0.342566
3142 2 0.44702 0.129687 0.342422
3144 4 0.470552 0.121238 0.342278
870 4 0.062519 0.205181 0.391488
2001 4 0.0725468 0.222144 0.392376
868 2 0.0410368 0.202846 0.404068
1999 2 0.0830326 0.244799 0.393779
62 3 0.165173 0.185109 0.354119
2000 4 0.0935183 0.267455 0.395181
1798 2 0.202314 0.249947 0.391541
1799 4 0.212712 0.232495 0.40612
1355 4 0.22157 0.222781 0.391373
1354 2 0.241095 0.208834 0.384341
794 4 0.29966 0.24331 0.324571
1356 4 0.260619 0.194887 0.377309
3006 4 0.276591 0.192878 0.364463
3004 2 0.294625 0.198543 0.380829
3005 4 0.312659 0.204208 0.397196
4479 4 0.324979 0.201822 0.412889
2970 4 0.356707 0.237889 0.343713
1139 4 0.341098 0.238533 0.358832
4477 2 0.342291 0.184306 0.408568
1395 4 0.00726276 0.273754 0.389915
1393 2 0.0025056 0.277371 0.365636
1785 4 0.224786 0.289874 0.33056
1783 2 0.211745 0.287375 0.351747
1800 4 0.191917 0.267398 0.376963
1784 4 0.198704 0.284877 0.372933
1669 2 0.301991 0.318558 0.353046
1670 4 0.303096 0.294576 0.360035
1075 2 0.314863 0.280864 0.413845
1140 4 0.312381 0.278343 0.368382
1076 4 0.32148 0.304611 0.409667
1138 2 0.32674 0.258438 0.363607
1856 4 0.339754 0.310844 0.41209
1855 2 0.353083 0.323979 0.395506
1857 4 0.366412 0.337113 0.378923
3777 4 0.13334 0.326643 0.390004
3775 2 0.148284 0.333858 0.3713
3776 4 0.163227 0.341074 0.352597
4303 2 0.198012 0.364019 0.343177
4304 4 0.220463 0.374936 0.344558
3434 4 0.236023 0.363308 0.349386
4305 4 0.17556 0.353102 0.341797
3980 4 0.215534 0.378131 0.394956
3979 2 0.217476 0.356098 0.406616
1671 4 0.300886 0.342539 0.346058
3433 2 0.25896 0.354239 0.345282
3435 4 0.281897 0.34517 0.341177
3062 4 0.277747 0.368907 0.365693
3061 2 0.298969 0.376056 0.376815
3063 4 0.320192 0.383206 0.387937
4254 4 0.339022 0.372746 0.388737
4252 2 0.35846 0.386473 0.381062
4253 4 0.377899 0.400199 0.373387
890 4 0.396046 0.393641 0.378391
889 2 0.406349 0.400858 0.356781
891 4 0.416652 0.408075 0.335171
4627 2 0.395381 0.429424 0.425155
4629 4 0.415857 0.443455 0.422148
833 4 0.493513 0.499234 0.413896
832 2 0.500873 0.490214 0.391767
3223 2 0.019121 0.0582053 0.454279
3225 4 0.04298 0.0656842 0.45428
1481 4 0.0585676 0.0627477 0.443556
1480 2 0.0789504 0.0624015 0.429078
1471 2 0.236362 0.0340644 0.411872
2722 2 0.189463 0.0723381 0.433523
2724 4 0.210264 0.058783 0.436486
1472 4 0.224768 0.0476667 0.429357
1535 4 0.227849 0.0784729 0.485052
1534 2 0.215202 0.0596186 0.495529
3686 4 0.245156 0.0789491 0.476656
563 3 0.186707 0.0321888 0.500266
1536 4 0.202556 0.0407643 0.506006
3685 2 0.267789 0.0683965 0.475387
3687 4 0.290421 0.0578439 0.474119
88 3 0.309682 0.053363 0.474107
86 1 0.324161 0.0631611 0.489363
90 3 0.345696 0.0579757 0.484072
3973 2 0.997646 0.111896 0.464476
3974 4 0.0137639 0.120278 0.447296
1827 4 0.00775647 0.125536 0.430641
2723 4 0.168663 0.0858931 0.43056
214 3 0.2396 0.169058 0.500136
399 3 0.304403 0.124154 0.444624
89 3 0.321323 0.0861905 0.489315
398 3 0.296735 0.0990475 0.417141
396 1 0.3129 0.113088 0.426083
397 3 0.330961 0.100426 0.432611
3711 4 0.347204 0.106251 0.442269
3709 2 0.363673 0.124873 0.444945
3710 4 0.380142 0.143495 0.447622
3282 4 0.383246 0.155211 0.462953
1016 4 0.502341 0.115654 0.433929
848 4 0.491276 0.117336 0.4502
847 2 0.478128 0.10708 0.468831
849 4 0.464981 0.0968236 0.487463
3329 4 0.0154214 0.179218 0.475544
869 4 0.0195546 0.200512 0.416648
3328 2 0.0278258 0.196865 0.48819
212 3 0.240759 0.192468 0.470755
211 1 0.253273 0.182947 0.487544
215 3 0.270239 0.17087 0.478326
213 3 0.261923 0.199807 0.500935
2214 4 0.282893 0.179156 0.465227
2213 4 0.328725 0.195647 0.453902
2212 2 0.305809 0.187402 0.459565
3280 2 0.374943 0.176415 0.473281
3281 4 0.366641 0.197618 0.483609
3377 4 0.358065 0.195897 0.502534
3353 4 0.181985 0.286844 0.434963
3352 2 0.198346 0.30575 0.435242
3354 4 0.214708 0.324656 0.43552
1077 4 0.308246 0.257116 0.418023
1703 4 0.289633 0.326452 0.426785
3981 4 0.219418 0.334065 0.418277
7 3 0.285672 0.411762 0.472422
9 3 0.254702 0.395547 0.458618
6 1 0.273942 0.407306 0.453143
1704 4 0.28346 0.375987 0.429776
1702 2 0.286546 0.35122 0.428281
8 3 0.287258 0.39458 0.439032
1743 4 0.29967 0.397572 0.471905
1741 2 0.316342 0.378945 0.472363
4361 4 0.378839 0.319862 0.44749
4360 2 0.360819 0.336351 0.452835
3230 4 0.358552 0.427886 0.429985
4362 4 0.342799 0.352841 0.458179
1742 4 0.333015 0.360318 0.472822
3046 2 0.477436 0.407059 0.504317
3047 4 0.484237 0.39225 0.485353
915 4 0.234509 0.511643 0.452194
4559 4 0.21124 0.457763 0.483055
4558 2 0.216289 0.477036 0.467947
4560 4 0.221339 0.49631 0.45284
2066 4 0.197202 0.445128 0.494338
2847 4 0.24778 0.422605 0.444064
2846 4 0.198685 0.432006 0.445492
2845 2 0.223233 0.427306 0.444778
3231 4 0.314786 0.441589 0.449922
10 3 0.268429 0.426942 0.443009
4628 4 0.374906 0.415392 0.428163
3229 2 0.336669 0.434737 0.439954
2655 4 0.0162377 0.0320167 0.522632
3395 4 0.0231559 0.0503413 0.525541
2653 2 0.00140897 0.0119333 0.521235
2956 2 0.0760886 0.0181013 0.569707
147 3 0.0781661 0.0216907 0.492532
146 1 0.0926816 0.0114383 0.507138
2957 4 0.0831642 0.0140188 0.546075
149 3 0.11158 0.0246962 0.509476
561 1 0.189141 0.010089 0.506906
564 3 0.210601 0.00656743 0.514997
562 3 0.174047 0.00566072 0.52369
3251 4 0.289028 0.995757 0.566855
87 3 0.319376 0.0551222 0.510378
4523 4 0.464883 0.0752059 0.549035
4112 4 0.444287 0.0753626 0.557461
4522 2 0.482866 0.0806806 0.532547
4524 4 0.500848 0.0861553 0.51606
3341 4 0.478967 0.160649 0.563702
4111 2 0.45127 0.0904344 0.576151
3269 4 0.0690036 0.180243 0.582215
3330 4 0.0402302 0.214512 0.500835
2151 4 0.308825 0.239246 0.522271
2149 2 0.28801 0.228809 0.513164
3378 4 0.324434 0.226938 0.522687
2150 4 0.267194 0.218371 0.504057
3376 2 0.34125 0.211418 0.512611
3340 2 0.483166 0.174963 0.543635
3342 4 0.487366 0.189277 0.523569
3357 4 0.0596747 0.289033 0.545378
3355 2 0.0750648 0.307259 0.552873
3356 4 0.0904548 0.325485 0.560367
731 1 0.120573 0.405961 0.569226
733 3 0.11243 0.390428 0.554034
734 3 0.143696 0.407158 0.567708
726 1 0.0287152 0.494968 0.571262
730 3 0.0387428 0.489161 0.551657
4436 4 0.0887069 0.496352 0.504462
4437 4 0.0785195 0.471968 0.546916
732 3 0.111715 0.426595 0.564234
4435 2 0.0836132 0.48416 0.525689
1237 2 0.104232 0.46729 0.578103
1238 4 0.0822007 0.4664 0.566312
2067 4 0.153917 0.468164 0.504163
3424 2 0.165011 0.489236 0.543524
3425 4 0.160655 0.481613 0.520113
2065 2 0.17556 0.456646 0.49925
3426 4 0.169367 0.49686 0.566935
3048 4 0.470635 0.421868 0.523281
1103 4 0.452801 0.431816 0.529464
1102 2 0.463047 0.450043 0.543174
1104 4 0.473293 0.468271 0.556884
4509 4 0.482508 0.484135 0.547494
1629 4 0.00588461 0.061615 0.616523
4784 4 0.0239975 0.0716299 0.619227
4783 2 0.0480421 0.0758167 0.613794
4785 4 0.0720867 0.0800035 0.60836
4782 4 0.0888854 0.0658611 0.607479
2739 4 0.0612288 0.0215185 0.611738
2958 4 0.0690131 0.0221837 0.593339
4780 2 0.108687 0.0554254 0.596337
4781 4 0.128489 0.0449897 0.585195
3183 4 0.226217 0.0452237 0.641246
3181 2 0.221922 0.0653228 0.655486
3478 2 0.249408 0.0257174 0.623427
3480 4 0.255136 0.00235475 0.616604
3479 4 0.243679 0.0490801 0.63025
343 3 0.287084 0.080271 0.650625
342 3 0.314446 0.0601385 0.634546
2996 4 0.313211 0.0746321 0.597002
344 3 0.315642 0.0664836 0.671572
38 3 0.273327 0.00549672 0.609534
341 1 0.30979 0.0755101 0.651012
521 1 0.389781 0.997355 0.634046
1049 4 0.358778 0.00889074 0.641802
522 3 0.377825 0.0107478 0.648429
524 3 0.404682 0.0105645 0.622135
3677 4 0.418744 0.0274116 0.614775
1048 2 0.348468 0.0180231 0.662671
3712 2 0.502427 0.0222113 0.596059
3347 4 0.423995 0.007862 0.611464
3676 2 0.425954 0.0490757 0.624966
3678 4 0.433164 0.0707398 0.635158
3713 4 0.484645 0.00511756 0.591961
1511 4 0.454806 0.0673379 0.63663
3346 2 0.447086 0.99996 0.606027
1333 2 0.242288 0.116821 0.652785
1335 4 0.25373 0.138087 0.646304
1334 4 0.230846 0.0955541 0.659267
2997 4 0.274918 0.10594 0.589643
2995 2 0.294064 0.0902859 0.593323
345 3 0.321776 0.0944884 0.647164
1301 4 0.326519 0.108143 0.632783
1300 2 0.348111 0.118975 0.639236
1302 4 0.369703 0.129807 0.64569
514 3 0.375152 0.134577 0.663785
511 1 0.389885 0.149561 0.653944
513 3 0.407799 0.13811 0.644651
512 3 0.397797 0.163903 0.670095
1510 2 0.475606 0.0810694 0.634638
3660 4 0.420414 0.147992 0.632124
3658 2 0.437235 0.134991 0.618964
3659 4 0.454057 0.12199 0.605804
4113 4 0.458253 0.105506 0.59484
1512 4 0.496407 0.0948008 0.632646
2437 2 0.00882727 0.200921 0.612647
2439 4 0.0168463 0.210097 0.63448
3268 2 0.062022 0.181603 0.606186
3270 4 0.0550405 0.182962 0.630156
3368 4 0.0614832 0.185131 0.647484
3367 2 0.0773159 0.192868 0.665223
1514 4 0.998793 0.229055 0.645794
2874 4 0.204601 0.205779 0.642631
2872 2 0.219464 0.19184 0.62814
4674 4 0.248959 0.17672 0.599101
2873 4 0.234327 0.177901 0.61365
2562 4 0.319351 0.241317 0.590939
4672 2 0.271413 0.187275 0.596004
4673 4 0.293868 0.19783 0.592908
1496 4 0.300032 0.18845 0.610359
1495 2 0.324217 0.189599 0.616602
2561 4 0.272827 0.237781 0.60893
2560 2 0.296089 0.239549 0.599934
1497 4 0.348402 0.190748 0.622845
1040 4 0.359035 0.209452 0.621156
1039 2 0.383561 0.21188 0.625373
1041 4 0.408087 0.214308 0.629589
515 3 0.379151 0.161577 0.637849
3390 4 0.42678 0.21718 0.633549
3388 2 0.449847 0.226607 0.631484
3389 4 0.472913 0.236035 0.629418
839 4 0.488616 0.248782 0.627076
1513 2 0.00495486 0.245158 0.663903
3872 4 0.00973143 0.319585 0.645755
3419 4 0.229122 0.273079 0.670257
2556 4 0.244338 0.276522 0.657228
2554 2 0.255132 0.264939 0.637876
2555 4 0.265925 0.253357 0.618524
3315 4 0.0491952 0.41417 0.6002
3313 2 0.0725415 0.405297 0.599017
735 3 0.114468 0.400092 0.590367
3314 4 0.0958878 0.396424 0.597834
163 3 0.21968 0.396229 0.595123
3359 4 0.208983 0.413863 0.593743
3358 2 0.185267 0.411714 0.586119
164 3 0.233114 0.38704 0.629467
2859 4 0.227326 0.371999 0.639791
161 1 0.231979 0.403679 0.613334
2857 2 0.236344 0.367615 0.662696
2557 2 0.2925 0.404083 0.594328
2559 4 0.312973 0.393606 0.584516
729 3 0.0269262 0.476389 0.585047
3360 4 0.161551 0.409566 0.578495
1239 4 0.126263 0.468179 0.589894
1569 4 0.132002 0.471146 0.609007
1567 2 0.147763 0.478994 0.62676
1568 4 0.163525 0.486842 0.644512
1830 4 0.162032 0.479258 0.661763
162 3 0.253305 0.408724 0.606342
165 3 0.222343 0.422359 0.622101
2558 4 0.272027 0.414559 0.60414
2580 4 0.319043 0.491122 0.667366
2578 2 0.341343 0.50169 0.663338
3000 4 0.461764 0.454978 0.606112
2998 2 0.48087 0.441183 0.597752
4439 4 0.455436 0.488423 0.636587
4438 2 0.446396 0.486631 0.659831
321 1 0.99757 0.00961922 0.698085
325 3 0.00260179 0.0305678 0.690704
1619 4 0.049528 0.0230215 0.706353
3693 4 0.0518756 0.0208699 0.726369
3691 2 0.0397352 0.0351736 0.742898
1618 2 0.0730507 0.0253985 0.698215
762 4 0.115899 0.0329641 0.685941
761 4 0.131938 0.0792149 0.675721
760 2 0.123919 0.0560895 0.680831
1620 4 0.0965734 0.0277755 0.690076
1273 2 0.156963 0.99914 0.728016
1274 4 0.175605 0.0149728 0.72282
3182 4 0.217627 0.0854219 0.669726
1533 4 0.180589 0.0338087 0.728009
1531 2 0.182691 0.0587067 0.727073
3497 4 0.31268 0.0711059 0.746899
3706 2 0.308612 0.00448676 0.697105
3707 4 0.331485 0.00879753 0.687972
1746 4 0.266187 0.00339543 0.707729
1385 4 0.326454 0.0800932 0.679622
1384 2 0.325793 0.076785 0.704397
1050 4 0.338158 0.0271554 0.683539
3767 4 0.0257164 0.104437 0.680624
3477 4 0.0285163 0.150589 0.715207
2268 4 0.0416191 0.0967409 0.670563
3766 2 0.0179162 0.122499 0.696054
3475 2 0.0495198 0.162205 0.722215
2266 2 0.0665407 0.0985596 0.669667
3476 4 0.0705233 0.173822 0.729223
3768 4 0.0101159 0.140561 0.711485
1232 4 0.0793926 0.168064 0.748151
2267 4 0.0914623 0.100378 0.668772
3363 4 0.0890698 0.107102 0.687659
3361 2 0.109097 0.109765 0.702389
3362 4 0.129124 0.112427 0.71712
1311 4 0.143352 0.118564 0.704508
1309 2 0.163294 0.110753 0.717412
1231 2 0.103373 0.161008 0.747552
1233 4 0.127353 0.153951 0.746953
1532 4 0.184793 0.0836046 0.726136
1310 4 0.183236 0.102943 0.730317
3448 2 0.218237 0.118796 0.749606
3449 4 0.241911 0.125438 0.754147
1386 4 0.325133 0.0734767 0.729172
1523 4 0.297387 0.124319 0.767362
1487 4 0.0892028 0.196485 0.703469
3369 4 0.0931486 0.200605 0.682961
1486 2 0.0822295 0.216736 0.716371
1488 4 0.0752562 0.236986 0.729273
3577 2 0.156856 0.184954 0.733758
3578 4 0.138109 0.16974 0.740263
3579 4 0.175602 0.200168 0.727253
1688 4 0.181876 0.216214 0.737054
1325 4 0.350575 0.200019 0.725734
1324 2 0.369964 0.213465 0.734005
3871 2 0.0290383 0.31806 0.66157
1515 4 0.0111168 0.26126 0.682011
3873 4 0.0483452 0.316536 0.677384
1700 4 0.0203855 0.268903 0.698421
3128 4 0.050203 0.333757 0.68952
1699 2 0.0406512 0.277602 0.710204
1701 4 0.060917 0.286302 0.721986
3786 4 0.0627671 0.300072 0.737042
3081 4 0.122616 0.281227 0.67233
3079 2 0.13085 0.270602 0.693413
3080 4 0.139084 0.259976 0.714496
170 3 0.154775 0.269387 0.723698
1346 4 0.162694 0.310469 0.72506
1345 2 0.143845 0.317583 0.739869
3784 2 0.0845011 0.309236 0.745339
3785 4 0.106235 0.3184 0.753637
1731 4 0.19545 0.258284 0.761173
167 3 0.177685 0.298071 0.730428
166 1 0.176597 0.275581 0.725718
169 3 0.186601 0.263801 0.743025
168 3 0.18785 0.271529 0.705835
3420 4 0.187724 0.256025 0.69253
3418 2 0.208423 0.264552 0.681394
2741 4 0.483077 0.320098 0.678818
3613 2 0.452667 0.27837 0.735177
3614 4 0.459361 0.280457 0.711176
2742 4 0.449682 0.286252 0.69431
2740 2 0.46638 0.303175 0.686564
4614 4 0.474639 0.350091 0.732853
3465 4 0.0234017 0.420697 0.722647
3463 2 0.0303574 0.398425 0.731632
3127 2 0.0486447 0.348794 0.709435
3129 4 0.0470864 0.363832 0.729351
3464 4 0.0373131 0.376152 0.740617
2858 4 0.245362 0.363232 0.685601
2567 4 0.264021 0.368562 0.683277
2566 2 0.284446 0.373431 0.696853
2568 4 0.30487 0.378299 0.710429
2415 4 0.312783 0.363434 0.721734
2413 2 0.336653 0.370253 0.718749
1312 2 0.401324 0.380954 0.737225
2414 4 0.360523 0.377072 0.715763
1313 4 0.379631 0.378715 0.724995
3557 4 0.0180718 0.438007 0.71523
1517 4 0.196208 0.424677 0.732221
1828 2 0.180201 0.472529 0.677568
1829 4 0.198371 0.465799 0.693373
1340 4 0.214468 0.460571 0.703946
1339 2 0.236033 0.468328 0.693948
1516 2 0.220346 0.430861 0.734292
1590 4 0.261737 0.441975 0.724779
1341 4 0.257597 0.476085 0.68395
649 3 0.276295 0.470131 0.683053
647 3 0.303112 0.468385 0.70933
646 1 0.29073 0.482658 0.69621
650 3 0.278821 0.496718 0.709593
648 3 0.305145 0.49487 0.682738
2607 4 0.450532 0.479646 0.697038
4440 4 0.437356 0.48484 0.683074
2605 2 0.461849 0.483761 0.718951
2606 4 0.473165 0.487876 0.740863
4240 2 0.0115901 0.0567566 0.795026
4242 4 0.0239582 0.0629846 0.774207
3692 4 0.0275948 0.0494773 0.759427
4489 2 0.227737 0.0161539 0.786983
4490 4 0.233175 0.0349305 0.802573
1887 4 0.234023 0.0449903 0.819685
3496 2 0.329502 0.0579682 0.759924
3498 4 0.346323 0.0448305 0.772948
3791 4 0.392084 0.0311481 0.82742
2532 4 0.103091 0.138977 0.861341
3450 4 0.194564 0.112153 0.745066