ITEM: TIMESTEP
259000
ITEM: NUMBER OF ATOMS
1600
ITEM: BOX BOUNDS xy xz yz pp pp pp
-6.9325799999999997e+00 9.4283087999999768e+00 2.4957287999999771e+00
-6.9325799999999997e+00 6.9325799999999997e+00 0.0000000000000000e+00
-6.9325799999999997e+00 6.9325799999999997e+00 0.0000000000000000e+00
ITEM: ATOMS id type xs ys zs
384 4 0.021899 0.0372197 0.0523229
383 2 0.0101306 0.0459715 0.0188573
468 4 0.455895 0.0176677 0.0978808
1011 4 0.465781 0.0266529 0.0729409
1010 2 0.484304 0.03836 0.045778
44 3 0.442484 0.227358 0.0739762
1442 2 0.00135758 0.324933 0.0431761
1444 4 0.0195325 0.324908 0.0743253
1122 4 0.0201784 0.29655 0.0774311
1121 2 0.0439237 0.27777 0.100518
1123 4 0.067669 0.258989 0.123605
63 3 0.292938 0.33376 0.0250336
750 4 0.278707 0.273704 0.113296
501 4 0.303253 0.282786 0.112639
502 4 0.374621 0.267239 0.096566
61 1 0.318077 0.308622 0.0170941
500 2 0.338937 0.275013 0.104602
62 3 0.331347 0.294284 0.0450381
64 3 0.342341 0.320384 0.000193186
43 3 0.400861 0.269163 0.0836796
1268 2 0.391206 0.325339 0.0131031
42 3 0.420476 0.259467 0.0334287
41 1 0.428868 0.258751 0.0655519
1269 4 0.41247 0.341519 0.0344139
1054 4 0.439358 0.330169 0.0428326
1052 2 0.462704 0.351941 0.0337172
45 3 0.451017 0.278564 0.0705521
672 4 0.48002 0.280918 0.0690799
1053 4 0.48605 0.373712 0.0246018
1231 4 0.0221741 0.47109 0.0577766
1229 2 0.0333165 0.436743 0.0479714
1230 4 0.0444589 0.402397 0.0381662
122 3 0.048651 0.477785 0.0493449
942 4 0.149734 0.48293 0.0981049
282 4 0.125846 0.468817 0.106714
941 2 0.177969 0.499591 0.0912286
1000 4 0.0458738 0.102183 0.144566
998 2 0.0110464 0.100773 0.152798
710 2 0.0856828 0.0652731 0.179342
712 4 0.0656748 0.0959806 0.167186
711 4 0.105691 0.0345656 0.191499
467 2 0.449816 0.0147182 0.133208
469 4 0.443736 0.0117687 0.168536
483 4 0.481486 0.0644964 0.242791
1002 4 0.0372623 0.181111 0.209987
945 4 0.067086 0.171162 0.207748
1001 2 0.00592308 0.169744 0.217513
944 2 0.091364 0.188152 0.191483
946 4 0.115642 0.205142 0.175219
520 4 0.141358 0.2128 0.171729
518 2 0.174422 0.22132 0.166175
519 4 0.207487 0.229839 0.160622
751 4 0.229877 0.243231 0.149671
1131 4 0.409801 0.123922 0.20205
1130 2 0.412304 0.141252 0.233171
274 4 0.0888819 0.372551 0.194189
1349 2 0.197662 0.360932 0.206631
1351 4 0.226607 0.339622 0.221321
749 2 0.254292 0.258468 0.131483
288 4 0.254379 0.333212 0.228682
287 2 0.284664 0.347887 0.22768
289 4 0.314948 0.362561 0.226678
1071 4 0.341446 0.362804 0.214627
1051 4 0.0120634 0.405514 0.186266
1049 2 0.0392563 0.412967 0.165514
272 2 0.12007 0.381581 0.182265
676 4 0.076419 0.394504 0.210434
1050 4 0.0664492 0.420421 0.144761
674 2 0.0616501 0.401362 0.243148
273 4 0.151259 0.39061 0.170341
281 2 0.105283 0.453189 0.129292
283 4 0.0847188 0.437562 0.15187
1350 4 0.168716 0.382242 0.191941
1070 2 0.367822 0.380265 0.225772
1072 4 0.394199 0.397725 0.236916
1048 4 0.486334 0.388113 0.176393
1064 2 0.444565 0.411219 0.245373
1066 4 0.476217 0.420625 0.235369
963 4 0.00447957 0.0673185 0.283964
962 2 0.037022 0.0771619 0.289072
964 4 0.0695643 0.0870052 0.294181
948 4 0.0968841 0.0886028 0.297251
947 2 0.100528 0.12041 0.311428
876 4 0.258254 0.0614011 0.338847
875 2 0.280214 0.0619992 0.310332
877 4 0.302174 0.0625974 0.281818
579 4 0.332766 0.0646746 0.274654
578 2 0.364077 0.0735248 0.286464
580 4 0.395387 0.0823751 0.298275
484 4 0.418889 0.0809403 0.279869
550 4 0.39171 0.00351321 0.332583
482 2 0.450188 0.0727183 0.26133
949 4 0.104172 0.152217 0.325605
666 4 0.166197 0.201407 0.340731
665 2 0.185607 0.209207 0.312335
667 4 0.205018 0.217007 0.283938
1132 4 0.414807 0.158581 0.264292
164 3 0.438289 0.171691 0.262284
162 3 0.424634 0.206928 0.302822
163 3 0.437655 0.154006 0.314026
161 1 0.444511 0.178496 0.294193
165 3 0.47644 0.181686 0.297681
583 4 0.445754 0.218657 0.314964
581 2 0.449519 0.24952 0.33112
724 4 0.0444727 0.31279 0.295982
722 2 0.00798921 0.317466 0.293112
702 4 0.0703715 0.311011 0.311119
701 2 0.10622 0.310011 0.305905
703 4 0.142069 0.309011 0.300692
996 4 0.168706 0.31217 0.307471
995 2 0.176641 0.324516 0.339795
997 4 0.184576 0.336862 0.37212
582 4 0.453283 0.280384 0.347276
900 4 0.0151309 0.45936 0.281658
194 3 0.0362976 0.477432 0.286502
675 4 0.0468812 0.408221 0.275863
195 3 0.085801 0.453953 0.267859
191 1 0.0696739 0.477889 0.286996
193 3 0.0814043 0.473934 0.318347
952 4 0.100047 0.48692 0.332551
336 4 0.100526 0.428973 0.281532
950 2 0.1321 0.490105 0.347579
335 2 0.136134 0.414663 0.279416
951 4 0.164153 0.49329 0.362606
337 4 0.171743 0.400353 0.2773
1065 4 0.412913 0.401813 0.255377
1167 4 0.0595342 0.118999 0.422299
1149 4 0.255247 0.0455227 0.46603
1148 2 0.265849 0.0770966 0.47222
1150 4 0.276452 0.108671 0.47841
416 2 0.447961 0.0109667 0.48046
418 4 0.47977 0.0229938 0.48171
1166 2 0.0771951 0.143083 0.406918
1168 4 0.0948561 0.167167 0.391537
1389 4 0.113056 0.183841 0.384222
1390 4 0.161475 0.226446 0.399742
1388 2 0.137265 0.205144 0.391982
1362 4 0.186953 0.149932 0.459326
1033 4 0.1868 0.232381 0.41047
1361 2 0.206556 0.162923 0.484826
1031 2 0.221899 0.236102 0.407787
748 4 0.285015 0.23925 0.404259
1032 4 0.256998 0.239824 0.405105
366 4 0.349107 0.167538 0.499084
159 3 0.0210112 0.278906 0.3868
158 3 0.0244931 0.292377 0.439603
156 1 0.0236593 0.303692 0.408132
160 3 0.0513339 0.315792 0.401705
259 4 0.0790801 0.321543 0.405184
257 2 0.111446 0.329929 0.41427
258 4 0.143812 0.338315 0.423357
127 3 0.172618 0.347726 0.427184
126 1 0.198411 0.360502 0.415006
130 3 0.197806 0.359178 0.382198
129 3 0.227496 0.342654 0.426493
1341 4 0.258228 0.341922 0.432088
1340 2 0.292151 0.34205 0.444257
746 2 0.301968 0.267535 0.408069
747 4 0.318922 0.295819 0.411878
1342 4 0.326074 0.342178 0.456426
1014 4 0.350726 0.353903 0.460413
1013 2 0.384997 0.359191 0.466056
705 4 0.443838 0.370593 0.479846
1015 4 0.419268 0.364478 0.4717
128 3 0.195372 0.392301 0.425085
1566 4 0.219026 0.405919 0.423577
1565 2 0.251883 0.415153 0.428435
932 2 0.342945 0.439502 0.451081
933 4 0.314992 0.427105 0.435729
1567 4 0.28474 0.424388 0.433294
934 4 0.370897 0.451899 0.466432
1177 4 0.393838 0.462293 0.479022
704 2 0.475486 0.380726 0.488647
270 4 0.205742 0.00292193 0.610125
269 2 0.241456 0.00107992 0.616845
471 4 0.412599 0.0723079 0.583564
470 2 0.387805 0.071122 0.60952
523 4 0.437328 0.0568354 0.571736
521 2 0.449495 0.0817676 0.5517
522 4 0.461663 0.1067 0.531664
445 4 0.00652956 0.133743 0.600104
443 2 0.0161032 0.156431 0.624582
367 4 0.277974 0.164416 0.506283
1363 4 0.226159 0.175914 0.510326
365 2 0.313541 0.165977 0.502683
349 4 0.373335 0.154065 0.510844
347 2 0.405208 0.151928 0.528291
348 4 0.43708 0.149791 0.545737
954 4 0.463832 0.131221 0.547087
953 2 0.486997 0.145059 0.525857
1107 4 0.466119 0.217287 0.604389
1106 2 0.474165 0.250139 0.609524
1108 4 0.482212 0.28299 0.61466
1561 4 0.055324 0.481596 0.623616
479 2 0.497623 0.488314 0.544587
1176 4 0.446817 0.464807 0.5274
480 4 0.468246 0.478039 0.52976
1175 2 0.420327 0.46355 0.503211
1144 4 0.0721231 0.12168 0.732372
1259 2 0.175262 0.0669927 0.744368
1260 4 0.19096 0.0833413 0.718183
1135 4 0.218429 0.0650935 0.711372
1133 2 0.251356 0.0739919 0.716755
1134 4 0.284284 0.0828903 0.722139
48 3 0.31767 0.0113158 0.640272
47 3 0.341876 0.0356363 0.679388
46 1 0.344859 0.0248165 0.648042
472 4 0.363011 0.069936 0.635475
50 3 0.372619 0.00225863 0.645161
49 3 0.346584 0.0507333 0.627857
444 4 0.0256769 0.179119 0.64906
1193 2 0.00712094 0.207673 0.68797
1195 4 0.0353777 0.198641 0.665394
1142 2 0.0990686 0.141032 0.732173
1143 4 0.126014 0.160384 0.731974
1303 4 0.133198 0.174326 0.708876
1302 4 0.188965 0.206239 0.688882
1301 2 0.161081 0.190282 0.698879
1522 4 0.257993 0.363971 0.744294
558 4 0.475097 0.310736 0.628596
1492 4 0.435158 0.330438 0.710302
557 2 0.465733 0.311674 0.663453
559 4 0.456369 0.312613 0.69831
1490 2 0.426527 0.313885 0.740162
1559 2 0.020707 0.49066 0.635028
1520 2 0.247432 0.390541 0.720607
1521 4 0.236872 0.417111 0.69692
757 4 0.259411 0.42801 0.686807
755 2 0.279551 0.452687 0.696145
756 4 0.299691 0.477365 0.705484
1042 4 0.326458 0.480179 0.692294
1040 2 0.359524 0.488559 0.698199
1041 4 0.39259 0.496938 0.704104
37 3 0.0203782 0.123237 0.839666
1261 4 0.159563 0.0506441 0.770554
174 3 0.322678 0.0870486 0.861044
1449 4 0.370044 0.0664819 0.847945
1448 2 0.395557 0.0708657 0.823668
1450 4 0.421071 0.0752495 0.79939
562 4 0.444944 0.0704507 0.783974
560 2 0.476552 0.0777785 0.771226
36 1 0.0106974 0.155667 0.845516
40 3 0.0376323 0.170024 0.846676
1126 4 0.0623791 0.177125 0.861008
1124 2 0.0914132 0.191691 0.851725
1516 4 0.147399 0.202796 0.854936
1514 2 0.161604 0.232995 0.85329
1125 4 0.120447 0.206257 0.842442
1348 4 0.402632 0.156761 0.851085
168 3 0.424254 0.158639 0.832283
166 1 0.454403 0.16725 0.838688
169 3 0.47066 0.170788 0.810018
170 3 0.47282 0.144315 0.85736
167 3 0.449376 0.196202 0.854888
1237 4 0.492347 0.186977 0.804335
1272 4 0.0152704 0.343104 0.759612
1587 4 0.0370045 0.291899 0.84352
379 4 0.0637763 0.299003 0.856334
1586 2 0.00324117 0.284023 0.84268
377 2 0.0909696 0.317966 0.858362
378 4 0.118163 0.336929 0.860389
597 4 0.132963 0.357229 0.851318
1515 4 0.17581 0.263194 0.851645
596 2 0.166259 0.365749 0.847486
279 4 0.279674 0.361303 0.763564
598 4 0.199556 0.37427 0.843653
1205 2 0.347233 0.312778 0.86926
1206 4 0.371329 0.325862 0.848533
264 4 0.358377 0.344899 0.829828
263 2 0.38672 0.361739 0.835531
1491 4 0.417895 0.297332 0.770022
669 4 0.0263436 0.448536 0.858717
1062 4 0.0478473 0.449271 0.841066
1061 2 0.0798064 0.449719 0.85761
1063 4 0.111765 0.450167 0.874154
460 4 0.131276 0.460189 0.856945
458 2 0.163188 0.459876 0.840045
459 4 0.195099 0.459562 0.823145
222 3 0.222497 0.38741 0.83776
223 3 0.220458 0.440074 0.827291
221 1 0.240714 0.411678 0.836467
225 3 0.265302 0.403746 0.814567
224 3 0.253772 0.415321 0.866775
278 2 0.307191 0.377408 0.774332
280 4 0.334708 0.393513 0.7851
546 4 0.355915 0.400574 0.768197
545 2 0.391771 0.401624 0.76854
547 4 0.427627 0.402673 0.768884
1479 4 0.44086 0.388522 0.845872
261 4 0.451502 0.414838 0.772837
265 4 0.415063 0.378579 0.841234
1478 2 0.473958 0.397066 0.85114
260 2 0.479897 0.432314 0.772337
611 2 0.00910732 0.0232153 0.910735
612 4 0.0387383 0.0135053 0.931439
1089 4 0.0411682 0.0979808 0.939243
607 4 0.0571114 0.029931 0.920594
605 2 0.0853567 0.0428667 0.934678
1088 2 0.0118476 0.124202 0.942012
606 4 0.113602 0.0558025 0.948762
1473 4 0.129111 0.0667541 0.92752
1472 2 0.162242 0.0742094 0.920006
1474 4 0.195374 0.0816648 0.912492
1282 4 0.200935 0.11028 0.914018
172 3 0.331479 0.0683741 0.911642
173 3 0.373705 0.0632009 0.876909
171 1 0.344828 0.0828823 0.886433
175 3 0.351115 0.112023 0.896268
1280 2 0.228432 0.128765 0.916961
1281 4 0.255929 0.147249 0.919904
1246 4 0.274182 0.165651 0.926564
1244 2 0.310374 0.160431 0.921046
1346 2 0.38369 0.144773 0.877759
1347 4 0.364749 0.132786 0.904434
1245 4 0.346566 0.155211 0.915528
1501 4 0.319516 0.275657 0.974011
65 3 0.306148 0.286373 0.99893
1207 4 0.323137 0.299694 0.889986
1500 4 0.316207 0.274638 0.90198
1499 2 0.317861 0.275148 0.937995
1270 4 0.369941 0.309159 0.991792
1318 4 0.015082 0.481249 0.957031
913 4 0.302888 0.419906 0.91764
619 4 0.378528 0.453554 0.907892
912 4 0.358956 0.454211 0.929919
911 2 0.330922 0.437058 0.92378
307 4 0.314458 0.496716 0.954775
873 4 0.467212 0.483654 0.903615
618 4 0.442277 0.476124 0.898199
617 2 0.410402 0.464839 0.903045
872 2 0.496533 0.495872 0.891058
124 3 0.0405138 0.522469 0.0800338
123 3 0.048151 0.526003 0.0259634
121 1 0.05705 0.50769 0.0534076
652 4 0.0437945 0.599701 0.0842181
369 4 0.0221336 0.539804 0.0957613
650 2 0.0272516 0.603939 0.116366
1326 4 0.0291675 0.540443 0.00742029
125 3 0.0899988 0.50416 0.0581212
1414 4 0.142578 0.573119 0.0539718
1412 2 0.168989 0.560222 0.0304391
943 4 0.206204 0.516253 0.0843522
433 4 0.214931 0.564143 0.00734633
1413 4 0.1954 0.547325 0.00690632
268 4 0.227326 0.532486 0.0888064
266 2 0.257302 0.547138 0.0841056
267 4 0.287279 0.56179 0.0794049
1035 4 0.299408 0.585569 0.0884705
1034 2 0.335769 0.581455 0.0846385
1036 4 0.372131 0.57734 0.0808065
886 4 0.401516 0.570917 0.0879488
884 2 0.434704 0.580122 0.0866887
885 4 0.467891 0.589326 0.0854286
978 4 0.487132 0.604761 0.074474
692 2 0.0455409 0.72084 0.030025
1415 2 0.0447039 0.700718 0.122248
1417 4 0.01483 0.687331 0.113359
694 4 0.0103189 0.717429 0.0278832
693 4 0.0807628 0.724252 0.0321667
1332 4 0.109706 0.725019 0.0341985
1331 2 0.138019 0.742414 0.0311646
922 4 0.196191 0.69028 0.00232522
1447 4 0.289233 0.707877 0.00935241
1445 2 0.256985 0.696658 0.00878738
1446 4 0.224737 0.685439 0.00822235
832 4 0.31486 0.71858 0.00722893
94 3 0.0617505 0.792349 0.0776382
664 4 0.0442187 0.822824 0.0389653
662 2 0.030432 0.809435 0.00965914
1333 4 0.166331 0.759809 0.0281307
93 3 0.10142 0.761274 0.107264
91 1 0.0925023 0.790543 0.0914544
95 3 0.114978 0.793704 0.0682636
92 3 0.0913218 0.81512 0.113503
727 4 0.111858 0.826955 0.101067
1197 4 0.123362 0.818708 0.0732473
1196 2 0.14675 0.816842 0.0455794
1198 4 0.170139 0.814977 0.0179115
682 4 0.18943 0.769947 0.019706
680 2 0.222635 0.778741 0.0161129
830 2 0.301651 0.753943 0.00897703
681 4 0.25584 0.787535 0.0125198
831 4 0.288443 0.789306 0.0107251
75 3 0.353874 0.828418 0.00463928
798 4 0.37631 0.828866 0.0217505
797 2 0.406759 0.841836 0.0141704
799 4 0.437209 0.854806 0.00659038
133 3 0.012601 0.991496 0.0789057
615 4 0.0786259 0.87837 0.0169678
614 2 0.0922214 0.908639 0.0216111
616 4 0.105817 0.938909 0.0262545
1306 4 0.134375 0.929607 0.0335111
1304 2 0.169631 0.924752 0.0237807
1305 4 0.204888 0.919897 0.0140502
1517 2 0.266486 0.912568 0.0156675
1518 4 0.231143 0.924911 0.00852419
972 4 0.321048 0.918138 0.0228684
971 2 0.349264 0.935731 0.0204056
973 4 0.37748 0.953324 0.0179427
1519 4 0.30183 0.900225 0.0228108
586 4 0.499172 0.96147 0.0158098
1024 4 0.399009 0.960049 0.035134
1022 2 0.434345 0.959578 0.0275445
1023 4 0.46968 0.959108 0.019955
651 4 0.0107087 0.608178 0.148513
358 4 0.108893 0.608311 0.154557
356 2 0.133602 0.591616 0.178023
357 4 0.15831 0.574921 0.201489
1314 4 0.45272 0.577726 0.244563
1593 4 0.46386 0.59912 0.230517
1416 4 0.0745778 0.714105 0.131137
1532 2 0.0217752 0.664239 0.223848
1534 4 0.0567449 0.654352 0.213793
1293 4 0.0689716 0.678223 0.219575
1292 2 0.0873847 0.704935 0.212666
1539 4 0.104017 0.712233 0.134638
1294 4 0.105798 0.731646 0.205757
1538 2 0.134512 0.726349 0.137772
1540 4 0.165007 0.740465 0.140906
733 4 0.127698 0.729031 0.224505
1429 4 0.230342 0.662364 0.187665
1427 2 0.233881 0.690795 0.208091
1428 4 0.237421 0.719225 0.228516
143 3 0.257492 0.737723 0.218099
145 3 0.305951 0.726111 0.243866
141 1 0.273553 0.73872 0.247343
1556 2 0.366888 0.728229 0.231645
1558 4 0.399702 0.734348 0.221029
1557 4 0.334073 0.72211 0.242262
1017 4 0.421326 0.668303 0.19291
1592 2 0.480741 0.627534 0.227473
1018 4 0.465719 0.71704 0.192894
1016 2 0.443523 0.692672 0.192902
1594 4 0.497623 0.655948 0.224429
688 4 0.0346192 0.751459 0.227691
686 2 0.0360394 0.78317 0.212068
687 4 0.0374597 0.81488 0.196445
315 4 0.0122591 0.752932 0.24413
725 2 0.126824 0.845853 0.125683
1098 4 0.188925 0.751645 0.150373
731 2 0.144854 0.754925 0.212096
732 4 0.16201 0.78082 0.199688
1477 4 0.168425 0.807552 0.199461
726 4 0.141789 0.864751 0.150299
1097 2 0.222038 0.761064 0.150657
1475 2 0.192046 0.830325 0.195798
1476 4 0.215667 0.853099 0.192135
1099 4 0.255151 0.770484 0.150941
1291 4 0.274063 0.786764 0.157548
552 4 0.420706 0.7519 0.22552
1289 2 0.307649 0.795065 0.158491
1290 4 0.341236 0.803366 0.159435
88 3 0.369724 0.805458 0.163914
90 3 0.379773 0.82634 0.212102
86 1 0.387418 0.825528 0.180134
87 3 0.379493 0.856136 0.167563
1243 4 0.407302 0.825832 0.219808
551 2 0.453521 0.761697 0.228491
89 3 0.420748 0.814595 0.176037
1600 4 0.428109 0.826369 0.20087
1598 2 0.461132 0.835891 0.199088
553 4 0.486336 0.771493 0.231462
1599 4 0.494155 0.845412 0.197306
970 4 0.246545 0.924423 0.142835
968 2 0.263533 0.907093 0.171257
969 4 0.280521 0.889763 0.199678
657 4 0.432117 0.997071 0.187168
656 2 0.431951 0.992816 0.222966
753 4 0.0997123 0.520469 0.275182
192 3 0.0748916 0.507211 0.275558
405 4 0.192009 0.539227 0.27412
752 2 0.13197 0.529929 0.267593
754 4 0.164228 0.53939 0.260003
1057 4 0.180642 0.516097 0.362376
404 2 0.199327 0.572558 0.277605
406 4 0.206645 0.605888 0.28109
1573 4 0.413651 0.566728 0.320343
1315 4 0.408243 0.55867 0.294997
1571 2 0.424327 0.546334 0.349247
1313 2 0.430482 0.568198 0.26978
589 4 0.152523 0.653497 0.326065
587 2 0.148515 0.686637 0.311981
1330 4 0.173115 0.722935 0.294051
588 4 0.144508 0.719777 0.297897
1328 2 0.202675 0.726958 0.274891
1329 4 0.232236 0.730981 0.25573
142 3 0.259928 0.720781 0.269587
766 4 0.490825 0.727346 0.368114
144 3 0.269893 0.770306 0.258214
699 4 0.259633 0.782783 0.31363
698 2 0.288502 0.784725 0.334677
700 4 0.31737 0.786667 0.355724
1311 4 0.345152 0.791622 0.352213
1310 2 0.369418 0.801652 0.329407
183 3 0.383644 0.862868 0.293971
1312 4 0.393684 0.811681 0.3066
1242 4 0.39443 0.834497 0.290509
184 3 0.337093 0.85304 0.317913
1241 2 0.400866 0.830165 0.255159
924 4 0.351419 0.870411 0.35568
448 4 0.479563 0.807819 0.322988
765 4 0.469322 0.783512 0.324327
446 2 0.481039 0.834337 0.346615
764 2 0.480074 0.755429 0.34622
447 4 0.482514 0.860854 0.370242
1158 4 0.165004 0.982354 0.360496
1157 2 0.200047 0.968778 0.35319
1159 4 0.235091 0.955202 0.345883
919 4 0.252429 0.972911 0.354973
879 4 0.238157 0.891941 0.370372
303 4 0.264244 0.875077 0.373375
878 2 0.204587 0.883983 0.37383
917 2 0.287923 0.974967 0.351811
302 2 0.293385 0.885709 0.358443
918 4 0.323417 0.977023 0.348649
549 4 0.34706 0.962301 0.36073
304 4 0.322527 0.896342 0.343512
182 3 0.354135 0.900169 0.326026
181 1 0.352198 0.876403 0.303727
185 3 0.334361 0.889566 0.277913
548 2 0.369385 0.982907 0.346656
658 4 0.431786 0.988562 0.258763
1410 4 0.45651 0.987158 0.271683
1411 4 0.421272 0.995041 0.334897
1409 2 0.438891 0.991099 0.30329
1055 2 0.183028 0.547855 0.377417
1056 4 0.185415 0.579613 0.392458
1552 4 0.186925 0.573553 0.421185
1550 2 0.217392 0.579152 0.437871
1551 4 0.247859 0.584752 0.454557
372 4 0.296757 0.568125 0.382489
371 2 0.302714 0.56622 0.41806
1404 4 0.24411 0.601163 0.478425
373 4 0.308672 0.564315 0.453631
1572 4 0.435003 0.525939 0.37815
601 4 0.442261 0.520214 0.40581
599 2 0.455166 0.528241 0.437905
915 4 0.491725 0.619902 0.469284
600 4 0.46807 0.536269 0.47
660 4 0.47416 0.608883 0.453233
197 3 0.188514 0.711897 0.453889
200 3 0.1991 0.674884 0.492773
819 4 0.18783 0.651933 0.498988
196 1 0.200206 0.706023 0.484761
198 3 0.232289 0.711271 0.486009
1578 4 0.256824 0.700823 0.47103
1577 2 0.286363 0.704938 0.451881
1579 4 0.315901 0.709053 0.432732
659 2 0.444251 0.629246 0.439196
661 4 0.414342 0.649609 0.425159
1081 4 0.345098 0.699802 0.425728
1079 2 0.379685 0.685559 0.434215
1080 4 0.414273 0.671315 0.442702
1434 4 0.0956368 0.846871 0.374236
1433 2 0.121052 0.865732 0.384947
1461 4 0.359319 0.867455 0.496338
571 4 0.474137 0.861167 0.397201
777 4 5.33135e-05 0.891958 0.491933
1435 4 0.146467 0.884593 0.395658
880 4 0.171018 0.876024 0.377289
923 2 0.370003 0.881982 0.382873
1462 4 0.333898 0.924578 0.454992
925 4 0.388587 0.893552 0.410066
1353 4 0.346867 0.947553 0.449084
1352 2 0.373987 0.962853 0.462269
1460 2 0.346609 0.896016 0.475665
417 4 0.416152 0.99894 0.479209
569 2 0.442489 0.875712 0.41289
1354 4 0.401108 0.978154 0.475453
570 4 0.410842 0.890257 0.42858
897 4 0.0523233 0.61521 0.620638
896 2 0.0840514 0.621458 0.607143
452 2 0.201548 0.607019 0.591856
454 4 0.185489 0.586785 0.614282
1403 2 0.23085 0.606051 0.51194
1405 4 0.217589 0.610938 0.545456
863 2 0.0172774 0.634782 0.564375
864 4 0.0413594 0.657172 0.567352
24 3 0.0594303 0.675488 0.567149
22 3 0.0665399 0.679658 0.513677
21 1 0.0823944 0.676247 0.542948
25 3 0.104632 0.648266 0.542993
23 3 0.0982335 0.702275 0.547556
898 4 0.11578 0.627706 0.593648
820 4 0.120613 0.64437 0.520005
604 4 0.125131 0.705048 0.559405
602 2 0.159159 0.712088 0.557133
818 2 0.154222 0.648152 0.509496
199 3 0.180779 0.726846 0.50575
603 4 0.193186 0.719129 0.554862
453 4 0.217607 0.627253 0.569431
1309 4 0.218954 0.729303 0.558206
1307 2 0.255138 0.720337 0.553215
1308 4 0.291323 0.711371 0.548224
825 4 0.312173 0.710876 0.567926
824 2 0.342884 0.722123 0.557808
826 4 0.373595 0.73337 0.54769
1366 4 0.397342 0.715771 0.537656
1364 2 0.43195 0.721071 0.540426
1365 4 0.466558 0.726371 0.543196
678 4 0.376846 0.872311 0.518644
421 4 0.400199 0.874058 0.6124
677 2 0.409683 0.872658 0.533407
679 4 0.44252 0.873004 0.54817
847 4 0.0153579 0.967499 0.578574
1439 2 0.0238979 0.914129 0.533188
52 3 0.0438012 0.968305 0.585055
1441 4 0.0519249 0.928385 0.545888
51 1 0.0719907 0.965734 0.567019
53 3 0.0762302 0.937059 0.549789
55 3 0.0979661 0.965926 0.587076
441 4 0.126216 0.968922 0.595188
54 3 0.0689622 0.991678 0.545944
440 2 0.154687 0.981974 0.608614
442 4 0.183157 0.995026 0.622039
271 4 0.277169 0.999238 0.623565
455 2 0.354513 0.913354 0.602821
457 4 0.366396 0.934278 0.577967
1161 4 0.386459 0.941511 0.559631
1160 2 0.409001 0.963113 0.571259
1582 4 0.446389 0.898679 0.536852
1580 2 0.476166 0.905649 0.55385
1162 4 0.431544 0.984716 0.582886
419 2 0.434189 0.877553 0.621873
248 3 0.0352002 0.562456 0.678354
246 1 0.0529605 0.585825 0.6688
249 3 0.0456739 0.594558 0.637003
247 3 0.0444416 0.612558 0.688096
250 3 0.0856454 0.574375 0.671946
1155 4 0.00744321 0.555293 0.680881
1398 4 0.115236 0.562528 0.667925
1397 2 0.146375 0.567175 0.651912
1399 4 0.177514 0.571822 0.635899
1575 4 0.41086 0.505137 0.72262
1574 2 0.439447 0.519932 0.732869
1576 4 0.468033 0.534727 0.743119
204 3 0.490024 0.552752 0.744815
889 4 0.0565725 0.680002 0.729636
1458 4 0.0805877 0.686787 0.738444
760 4 0.0841018 0.692038 0.638849
758 2 0.0970359 0.71926 0.654387
1457 2 0.113662 0.694238 0.730663
1459 4 0.146735 0.701688 0.722882
759 4 0.10997 0.746481 0.669924
256 4 0.478902 0.733094 0.73023
1555 4 0.0226274 0.838233 0.715996
1553 2 0.0473731 0.811709 0.701923
1554 4 0.0721189 0.785185 0.687851
621 4 0.142073 0.782935 0.666581
620 2 0.17069 0.800015 0.66868
110 3 0.220698 0.846577 0.624579
622 4 0.199307 0.817094 0.67078
107 3 0.222244 0.829644 0.675652
106 1 0.232054 0.851387 0.654685
109 3 0.266031 0.846735 0.654433
691 4 0.292143 0.832037 0.662472
689 2 0.318208 0.849274 0.650119
770 2 0.35039 0.814509 0.732965
771 4 0.353747 0.79972 0.700082
690 4 0.344273 0.86651 0.637765
709 4 0.293182 0.873632 0.73959
1469 2 0.00537444 0.88635 0.718049
1471 4 0.0144899 0.918975 0.714663
511 4 0.0464772 0.910913 0.719601
509 2 0.0805225 0.906897 0.706413
510 4 0.114568 0.902881 0.693225
965 2 0.156521 0.889735 0.660775
967 4 0.12036 0.895052 0.666509
108 3 0.219368 0.882396 0.665073
966 4 0.192681 0.884417 0.65504
708 4 0.275878 0.933594 0.700043
456 4 0.34263 0.892431 0.627676
707 2 0.28453 0.903613 0.719816
1381 4 0.298508 0.992472 0.645672
1379 2 0.300518 0.963527 0.666942
1380 4 0.302529 0.934583 0.688213
420 4 0.468179 0.881049 0.631345
118 3 0.487705 0.896655 0.643647
435 4 0.00838466 0.587205 0.781476
1279 4 0.0357711 0.59606 0.776645
1277 2 0.0627182 0.605397 0.796488
1493 2 0.0394546 0.531463 0.839659
1494 4 0.0686281 0.547014 0.845692
1180 4 0.0964085 0.548674 0.84463
1278 4 0.0896654 0.614734 0.81633
1495 4 0.0102812 0.515913 0.833626
1178 2 0.123047 0.568348 0.843025
1179 4 0.149686 0.588022 0.841421
1201 4 0.174441 0.530649 0.865175
1527 4 0.177699 0.527971 0.83616
790 4 0.172209 0.592342 0.858386
1528 4 0.2151 0.551493 0.782169
1526 2 0.1964 0.539732 0.809164
788 2 0.203828 0.6047 0.859931
1360 4 0.228251 0.554279 0.755726
1358 2 0.264551 0.552483 0.757423
1359 4 0.300852 0.550686 0.75912
209 3 0.263955 0.608288 0.851451
840 4 0.326333 0.543147 0.772095
208 3 0.31476 0.617421 0.864499
789 4 0.235446 0.617059 0.861477
800 2 0.363761 0.58775 0.854453
839 2 0.356106 0.551555 0.787934
841 4 0.38588 0.559964 0.803773
801 4 0.387814 0.570818 0.830526
203 3 0.494389 0.598155 0.77285
888 4 0.00811324 0.698397 0.782787
887 2 0.0323429 0.6892 0.756212
994 4 0.10779 0.632632 0.805525
992 2 0.142214 0.638115 0.801469
993 4 0.176638 0.643598 0.797413
210 3 0.295552 0.626323 0.813906
206 1 0.287183 0.627618 0.845702
207 3 0.274086 0.658911 0.853806
781 4 0.369451 0.723947 0.834366
779 2 0.403893 0.72992 0.832562
714 4 0.352359 0.744492 0.851129
780 4 0.438336 0.735893 0.830758
1257 4 0.486353 0.745509 0.758873
856 4 0.355631 0.752731 0.763388
772 4 0.347034 0.829298 0.765847
1153 4 0.303087 0.833518 0.798296
855 4 0.310699 0.757501 0.820279
854 2 0.333165 0.755116 0.791834
1151 2 0.328233 0.854308 0.804102
1543 4 0.370617 0.871821 0.832569
1258 4 0.453052 0.756931 0.822866
1256 2 0.469702 0.75122 0.79087
1152 4 0.353379 0.875097 0.809909
1541 2 0.397243 0.886618 0.817614
1408 4 0.498737 0.970011 0.799413
1542 4 0.423868 0.901415 0.802659
1327 4 0.0211263 0.50583 0.945776
1325 2 0.0251469 0.523136 0.976598
1464 4 0.0679107 0.625959 0.946147
1199 2 0.201873 0.525641 0.889082
1200 4 0.229304 0.520632 0.912988
306 4 0.255256 0.528133 0.918068
431 2 0.230184 0.59064 0.993293
432 4 0.245437 0.617137 0.979241
305 2 0.284857 0.512424 0.936422
1393 4 0.330716 0.517988 0.959979
638 2 0.297218 0.602072 0.957482
639 4 0.271278 0.621972 0.977595
640 4 0.323158 0.582172 0.937369
802 4 0.339708 0.604682 0.87838
1391 2 0.363946 0.525083 0.952277
1392 4 0.397177 0.532179 0.944574
1008 4 0.414171 0.552369 0.937433
1007 2 0.448424 0.555724 0.946045
1570 4 0.494417 0.585307 0.962468
1009 4 0.482678 0.559079 0.954656
1463 2 0.0918127 0.647277 0.954896
1465 4 0.115715 0.668595 0.963644
921 4 0.142368 0.674503 0.960586
920 2 0.16928 0.682391 0.981456
424 4 0.432233 0.640926 0.935213
422 2 0.458523 0.651011 0.914992
423 4 0.484812 0.661095 0.89477
663 4 0.0166452 0.796046 0.980353
77 3 0.160256 0.841967 0.938421
78 3 0.166289 0.828155 0.990719
76 1 0.182386 0.836172 0.96337
79 3 0.207068 0.810818 0.954862
1503 4 0.222939 0.826135 0.938263
1502 2 0.254886 0.805304 0.929813
1504 4 0.286833 0.784474 0.921363
80 3 0.195318 0.8632 0.968993
713 2 0.332377 0.759509 0.878993
853 4 0.328824 0.86945 0.959841
73 3 0.313513 0.852048 0.971674
715 4 0.312395 0.774526 0.906856
72 3 0.346121 0.805774 0.957261
71 1 0.33085 0.822937 0.982907
74 3 0.309572 0.805139 0.997184
729 4 0.407075 0.817127 0.916322
734 2 0.495448 0.864805 0.989344
728 2 0.442614 0.819443 0.917836
730 4 0.478152 0.82176 0.91935
736 4 0.462772 0.855243 0.994433
852 4 0.322185 0.929103 0.919511
851 2 0.325504 0.899276 0.939676
849 4 0.517533 0.0716573 0.0102511
1012 4 0.502826 0.0500671 0.018615
334 4 0.66438 0.0486472 0.0637595
332 2 0.646018 0.0539171 0.0948954
115 3 0.678205 0.0468234 0.0360939
111 1 0.699269 0.0185393 0.0409631
113 3 0.716287 0.0199632 0.0695901
114 3 0.721084 0.0125913 0.0153854
937 4 0.727968 0.0276903 0.0937449
935 2 0.763058 0.020142 0.104023
338 2 0.773303 0.0224779 0.00362039
340 4 0.802418 0.0379811 0.0101131
310 4 0.813534 0.108354 0.120567
936 4 0.798149 0.0125937 0.1143
308 2 0.837872 0.117349 0.0972057
139 3 0.89012 0.094181 0.00984519
532 4 0.879491 0.0611737 0.0782054
530 2 0.908728 0.0348038 0.0759122
227 3 0.926484 0.0982321 0.108157
531 4 0.937965 0.00843386 0.0736189
134 3 0.961509 0.0140838 0.0620884
137 3 0.857936 0.123957 0.0463459
136 1 0.868704 0.123005 0.0149214
645 4 0.684426 0.198206 0.0733463
644 2 0.708579 0.178079 0.0515791
646 4 0.732732 0.157951 0.0298118
1267 4 0.768872 0.193667 0.107368
1265 2 0.802647 0.201459 0.108874
508 4 0.754429 0.144971 0.0129554
463 4 0.755617 0.174564 0.120847
506 2 0.787928 0.126969 0.00516159
309 4 0.862211 0.126345 0.0738448
138 3 0.884704 0.148816 0.00967962
1266 4 0.836422 0.209252 0.110379
325 4 0.912631 0.141606 0.00299082
671 2 0.511533 0.290468 0.0793204
673 4 0.543047 0.300017 0.0895609
177 3 0.556197 0.365136 0.119736
180 3 0.561825 0.313911 0.103597
178 3 0.57618 0.351295 0.0703295
176 1 0.575184 0.341169 0.102101
179 3 0.606575 0.335306 0.114958
1095 4 0.709161 0.341957 0.103805
1094 2 0.740509 0.32155 0.0929366
1096 4 0.771856 0.301144 0.0820686
1059 4 0.783549 0.326225 0.0761979
1045 4 0.726402 0.35567 0.122452
1058 2 0.813433 0.341333 0.0792351
1060 4 0.843317 0.356441 0.0822724
1216 4 0.866571 0.363952 0.0964096
1214 2 0.895544 0.360622 0.118416
68 3 0.81826 0.37276 0.0227772
1423 4 0.839883 0.370607 0.00398607
1443 4 0.983183 0.324958 0.0120269
737 2 0.615452 0.490488 0.0308463
739 4 0.6358 0.4621 0.0146496
67 3 0.76916 0.401655 0.00949574
66 1 0.801228 0.403527 0.0163589
70 3 0.802164 0.422832 0.0425645
322 4 0.824955 0.438929 0.0482927
320 2 0.813122 0.473609 0.0564438
1105 4 0.935554 0.473371 0.999871
1103 2 0.944913 0.463549 0.0337284
1104 4 0.954273 0.453727 0.0675859
494 2 0.528223 0.0944476 0.238717
496 4 0.554501 0.111167 0.251491
495 4 0.501946 0.0777281 0.225943
333 4 0.627656 0.0591871 0.126031
19 3 0.761274 0.0835274 0.140373
16 1 0.779569 0.102189 0.157773
17 3 0.790777 0.123317 0.137061
20 3 0.805627 0.0829463 0.171847
18 3 0.760153 0.119712 0.181191
960 4 0.827584 0.0978189 0.176555
959 2 0.858022 0.0762377 0.16517
961 4 0.888459 0.0546565 0.153785
229 3 0.902462 0.0776141 0.149921
226 1 0.923997 0.0978712 0.141233
230 3 0.954119 0.0869242 0.154137
999 4 0.976219 0.0993632 0.16103
395 2 0.594618 0.134211 0.238216
397 4 0.605756 0.160727 0.219663
360 4 0.623227 0.150494 0.193913
359 2 0.654124 0.159708 0.181436
361 4 0.685021 0.168923 0.168958
462 4 0.699113 0.223654 0.143642
461 2 0.727365 0.199109 0.132244
1508 2 0.77411 0.248323 0.226351
1510 4 0.795189 0.215901 0.230461
228 3 0.912259 0.128974 0.15195
147 3 0.835288 0.21429 0.182538
150 3 0.856279 0.211138 0.132835
146 1 0.863676 0.211704 0.164809
149 3 0.884437 0.183397 0.173365
148 3 0.878471 0.238042 0.171491
276 4 0.913139 0.131614 0.180092
275 2 0.929898 0.145789 0.207048
319 4 0.899428 0.249509 0.161408
277 4 0.946657 0.159965 0.234004
1003 4 0.974584 0.158376 0.225039
1047 4 0.535133 0.352706 0.130045
1046 2 0.510733 0.37041 0.153219
1074 4 0.621654 0.358046 0.127585
300 4 0.583598 0.279394 0.21732