ITEM: TIMESTEP
504000
ITEM: NUMBER OF ATOMS
4800
ITEM: BOX BOUNDS xy xz yz pp pp pp
-9.9985700000000008e+00 1.1598341199999993e+01 1.5997711999999922e+00
-9.9985700000000008e+00 9.9985700000000008e+00 0.0000000000000000e+00
-9.9985700000000008e+00 9.9985700000000008e+00 0.0000000000000000e+00
ITEM: ATOMS id type xs ys zs
115 3 0.0415986 0.0722738 0.00429356
3189 4 0.0448707 0.0517389 0.999537
112 3 0.0504512 0.0703717 0.0405369
111 1 0.0572812 0.0769421 0.0197552
114 3 0.0776759 0.0653814 0.0146885
852 4 0.0980763 0.0608999 0.00938133
1818 4 0.152156 0.032471 0.0458302
33 3 0.156493 0.0163963 0.0585831
1817 4 0.16267 0.0637922 0.00908488
1816 2 0.157413 0.0481316 0.0274576
35 3 0.190065 0.00588218 0.0739392
31 1 0.172955 0.998967 0.0613349
3205 2 0.194436 0.0832396 0.00852702
3244 2 0.22724 0.0236237 0.0803542
3245 4 0.21001 0.00730315 0.0764484
32 3 0.181066 0.992356 0.0406477
3246 4 0.24447 0.0399442 0.08426
2530 2 0.373641 0.0128569 0.062286
2532 4 0.385752 0.0150133 0.0406146
113 3 0.059667 0.0997569 0.0201557
1278 4 0.00975959 0.162838 0.0835124
3536 4 0.137587 0.0945023 0.0608943
3535 2 0.157959 0.0864971 0.0739997
3206 4 0.207754 0.101865 0.0162085
3300 4 0.201666 0.109581 0.0345808
3298 2 0.21066 0.10248 0.0570252
3299 4 0.219654 0.0953784 0.0794697
926 4 0.0774445 0.221928 0.0389042
925 2 0.0994183 0.216562 0.0504027
927 4 0.121392 0.211197 0.0619012
1739 4 0.138304 0.218457 0.0685431
1738 2 0.160267 0.222816 0.0581322
1740 4 0.18223 0.227175 0.0477213
1128 4 0.200411 0.220723 0.042952
1126 2 0.214463 0.236747 0.0314065
1758 4 0.283931 0.178618 0.0231585
1756 2 0.306285 0.184259 0.0317185
1757 4 0.328639 0.1899 0.0402784
3761 4 0.341927 0.202989 0.0343837
3760 2 0.348695 0.215636 0.0545008
2145 4 0.335759 0.254038 0.0171293
3762 4 0.355464 0.228283 0.0746179
3198 4 0.407664 0.176922 0.0256657
1215 4 0.406515 0.193119 0.0131447
3196 2 0.416671 0.176023 0.0490012
3197 4 0.425677 0.175125 0.0723367
2877 4 0.480059 0.239976 0.0226523
43 3 0.495909 0.195797 0.0828327
3156 4 0.0136619 0.290342 0.080289
906 4 0.0328489 0.286339 0.0727832
1990 2 0.0452683 0.324512 0.0157865
1991 4 0.0238727 0.321848 0.0280806
1406 4 0.0708489 0.258012 0.00975028
904 2 0.0573466 0.281541 0.0682361
905 4 0.0818443 0.276743 0.063689
1405 2 0.094145 0.262567 0.0164299
3992 4 0.132895 0.27789 0.0265545
1407 4 0.117441 0.267122 0.0231095
1379 4 0.0821927 0.321331 0.0153709
1378 2 0.104457 0.315814 0.00448423
1992 4 0.066664 0.327176 0.00349239
3991 2 0.139776 0.279969 0.0504543
3993 4 0.146656 0.282048 0.0743542
797 4 0.183277 0.295291 0.0142979
830 4 0.202325 0.324832 0.0763244
1127 4 0.228515 0.252771 0.0198611
1184 4 0.238038 0.267018 0.0094066
1183 2 0.259714 0.274952 0.0174356
1185 4 0.28139 0.282886 0.0254646
2143 2 0.315286 0.269739 0.0140711
2144 4 0.294812 0.28544 0.0110128
4379 4 0.411118 0.319169 0.0857854
3327 4 0.0236982 0.390154 0.0847947
3325 2 0.0319123 0.374821 0.0663219
3326 4 0.0401264 0.359488 0.0478492
510 3 0.158534 0.33762 0.0564886
506 1 0.168604 0.346526 0.0744632
3444 4 0.180691 0.374163 0.0646148
3442 2 0.183578 0.393119 0.0489165
507 3 0.163257 0.369252 0.07492
3443 4 0.186464 0.412076 0.0332182
508 3 0.191719 0.342507 0.0728134
1151 4 0.406993 0.365758 0.00631241
4215 4 0.390333 0.37819 0.00498273
1150 2 0.432058 0.364715 0.00638721
1507 2 0.48366 0.375773 0.00321896
1509 4 0.493475 0.397707 0.00641604
1152 4 0.457123 0.363673 0.00646202
3337 2 0.030174 0.491441 0.0131638
3339 4 0.0105417 0.478471 0.00771095
3338 4 0.0498064 0.50441 0.0186167
2879 4 0.216936 0.492267 0.0374403
2878 2 0.236036 0.482259 0.0512291
2880 4 0.255136 0.472251 0.0650179
1364 4 0.265424 0.48814 0.0678425
3307 2 0.382572 0.475459 0.0208917
3308 4 0.398545 0.475749 0.0401068
4085 4 0.409506 0.467026 0.0555029
4084 2 0.433022 0.457671 0.0598952
4086 4 0.456538 0.448317 0.0642875
937 2 0.483894 0.433254 0.0779218
2412 4 0.48991 0.496244 0.0709783
4487 4 0.162786 0.0138128 0.104924
4486 2 0.171073 0.0335475 0.116688
4488 4 0.17936 0.0532822 0.128452
3854 4 0.194011 0.0658815 0.124018
3853 2 0.210793 0.0733374 0.10766
3537 4 0.178331 0.078492 0.0871051
404 3 0.264364 0.0406418 0.0899789
1596 4 0.255586 0.0405401 0.142175
1594 2 0.266449 0.0304926 0.162742
405 3 0.263898 0.0767838 0.100252
401 1 0.26985 0.0553418 0.10665
402 3 0.258407 0.0506829 0.12583
403 3 0.292707 0.052694 0.110961
3855 4 0.227576 0.0807932 0.0913028
1440 4 0.307563 0.065745 0.11301
2531 4 0.36153 0.0107006 0.0839574
1438 2 0.326951 0.0489183 0.108945
1439 4 0.346339 0.0320917 0.104881
4329 4 0.351469 0.0125471 0.103088
4250 4 0.483088 2.64453e-05 0.131492
3194 4 0.273961 0.092299 0.107315
3193 2 0.290311 0.109806 0.109217
3195 4 0.306661 0.127313 0.111119
1108 2 0.332288 0.144261 0.116628
1109 4 0.324707 0.121182 0.118541
1110 4 0.339869 0.167341 0.114715
3015 4 0.484366 0.104351 0.0994143
1201 2 0.0456317 0.182526 0.0979539
1203 4 0.0277464 0.167975 0.0908419
1202 4 0.063517 0.197077 0.105066
956 4 0.0824862 0.204771 0.111005
955 2 0.103705 0.214411 0.117985
957 4 0.124923 0.224051 0.124964
1716 4 0.143453 0.230337 0.130634
1714 2 0.166189 0.23848 0.134085
1715 4 0.188925 0.246622 0.137537
2059 2 0.233042 0.250049 0.139174
1886 4 0.24196 0.176346 0.084333
1885 2 0.252896 0.189158 0.102165
1887 4 0.263831 0.20197 0.119997
1670 4 0.273763 0.244109 0.149826
2061 4 0.258113 0.248783 0.138935
900 4 0.283233 0.205137 0.118846
1208 4 0.337243 0.230421 0.0812602
898 2 0.305652 0.192695 0.122222
1669 2 0.298336 0.242936 0.144867
899 4 0.328071 0.180253 0.125598
1383 4 0.338442 0.190175 0.17614
3213 4 0.4327 0.17178 0.0908331
3211 2 0.456107 0.178074 0.0871112
3212 4 0.479515 0.184368 0.0833893
3154 2 0.00269804 0.273461 0.0940214
4548 4 0.0621265 0.28474 0.122093
4546 2 0.0798942 0.300914 0.122585
4547 4 0.0976619 0.317089 0.123076
4074 4 0.107378 0.319259 0.104569
2060 4 0.20797 0.251316 0.139412
4072 2 0.129943 0.327453 0.108912
829 2 0.218773 0.33232 0.0930126
1671 4 0.322909 0.241763 0.139909
803 4 0.339893 0.250783 0.134444
1209 4 0.317463 0.274911 0.0973303
1207 2 0.327353 0.252666 0.0892953
802 2 0.364063 0.254186 0.138467
804 4 0.388232 0.257589 0.142491
3312 4 0.406479 0.265035 0.145219
3310 2 0.429507 0.270722 0.15165
1394 4 0.414061 0.333171 0.161888
3311 4 0.452536 0.27641 0.158081
1047 4 0.471195 0.284602 0.159993
2993 4 0.0121993 0.407036 0.0904967
4073 4 0.152508 0.335646 0.113255
509 3 0.161065 0.337254 0.0940554
4058 4 0.246592 0.355053 0.105811
831 4 0.235222 0.339809 0.109701
4057 2 0.261142 0.373942 0.109041
4059 4 0.275691 0.392831 0.112272
756 4 0.288326 0.38734 0.126545
754 2 0.31014 0.392038 0.137067
755 4 0.331954 0.396736 0.147589
4362 4 0.34699 0.404004 0.158775
4360 2 0.370944 0.40942 0.159822
4361 4 0.394898 0.414837 0.160869
4378 2 0.427134 0.335384 0.0936923
1708 2 0.487983 0.341351 0.14978
1710 4 0.483863 0.355573 0.129432
4380 4 0.44315 0.351599 0.101599
434 3 0.488525 0.407668 0.147432
435 3 0.484142 0.375862 0.128509
431 1 0.497776 0.39273 0.131609
2835 4 0.00942879 0.466946 0.112916
3938 4 0.0929532 0.489387 0.146145
4187 4 0.0678351 0.444977 0.122796
4186 2 0.0853213 0.45984 0.130249
4188 4 0.102808 0.474702 0.137701
3986 4 0.14673 0.451625 0.159386
3985 2 0.156523 0.454541 0.136667
3987 4 0.166316 0.457457 0.113948
2102 4 0.18447 0.462069 0.107422
2101 2 0.1992 0.479696 0.114771
2103 4 0.21393 0.497322 0.12212
1363 2 0.274424 0.500342 0.0872536
968 4 0.302417 0.432243 0.134469
967 2 0.309944 0.453402 0.144087
969 4 0.317471 0.47456 0.153705
1677 4 0.329579 0.483701 0.143381
1675 2 0.351006 0.494936 0.142672
4069 2 0.407289 0.465702 0.149413
4071 4 0.385612 0.464044 0.161528
3095 4 0.375835 0.480834 0.165968
938 4 0.460271 0.441147 0.0837734
4070 4 0.428967 0.46736 0.137299
1413 4 0.437206 0.48424 0.130586
1411 2 0.455893 0.499382 0.130553
1937 4 0.0144443 0.0285158 0.174237
1002 4 0.0194227 0.0227258 0.193
1000 2 0.0340501 0.0131328 0.211467
3293 4 0.0308125 0.0768247 0.223399
392 3 0.0918061 0.0346803 0.225304
391 1 0.107151 0.0361246 0.242275
393 3 0.124808 0.0476675 0.234534
1872 4 0.144875 0.0452479 0.230425
1870 2 0.158522 0.0260924 0.219868
1871 4 0.172169 0.00693695 0.20931
2199 4 0.26402 0.0178751 0.197276
1595 4 0.277313 0.0204451 0.18331
4431 4 0.330947 0.0788244 0.210955
3219 4 0.325532 0.0640753 0.222811
3217 2 0.310827 0.071962 0.241913
4429 2 0.35253 0.0687603 0.201355
4430 4 0.374114 0.0586962 0.191756
3098 4 0.00305653 0.165499 0.185289
382 3 0.0235818 0.149638 0.21482
3292 2 0.00697166 0.0863404 0.224797
3288 4 0.00607353 0.148467 0.22479
384 3 0.0548314 0.160589 0.198674
381 1 0.0318442 0.165295 0.200911
3002 4 0.0745834 0.16169 0.195617
1878 4 0.0989675 0.153612 0.231116
3001 2 0.0981828 0.167756 0.192734
4224 4 0.254526 0.111839 0.200226
4222 2 0.268478 0.108615 0.220896
4223 4 0.28243 0.10539 0.241566
1244 4 0.425989 0.155917 0.182062
1243 2 0.433293 0.162591 0.204848
1162 2 0.478552 0.149067 0.241068
1163 4 0.457678 0.156657 0.228546
385 3 0.0217431 0.164413 0.180554
383 3 0.0273384 0.186341 0.210266
3003 4 0.121782 0.173823 0.189851
2886 4 0.139617 0.181233 0.193189
2884 2 0.164464 0.182635 0.193721
2885 4 0.18931 0.184037 0.194253
3101 4 0.208067 0.182185 0.198165
3100 2 0.232314 0.185778 0.194954
3102 4 0.256562 0.189371 0.191742
3164 4 0.276387 0.193166 0.19561
419 3 0.289383 0.247809 0.21114
3163 2 0.298178 0.194562 0.18363
3165 4 0.319969 0.195957 0.171651
1381 2 0.359363 0.200618 0.18268
783 4 0.343334 0.259695 0.201326
1382 4 0.380285 0.211061 0.189219
800 4 0.399861 0.211594 0.185526
1245 4 0.440597 0.169265 0.227634
799 2 0.424406 0.213931 0.188357
801 4 0.448952 0.216269 0.191188
3575 4 0.458181 0.201269 0.203566
3574 2 0.479334 0.212229 0.208007
3576 4 0.500488 0.223189 0.212449
4025 4 0.00823199 0.265275 0.236674
420 3 0.325763 0.251276 0.203273
418 3 0.313838 0.254722 0.238911
416 1 0.30828 0.258645 0.21665
417 3 0.303665 0.281264 0.213546
3673 2 0.295078 0.323659 0.241375
3675 4 0.303314 0.332228 0.219646
980 4 0.352533 0.300688 0.254634
781 2 0.368258 0.257194 0.204089
1393 2 0.406125 0.334327 0.185601
782 4 0.393183 0.254692 0.206851
2046 4 0.404598 0.265218 0.219311
2044 2 0.42707 0.271593 0.226819
1709 4 0.492103 0.327129 0.170127
2045 4 0.449542 0.277968 0.234327
1059 4 0.464409 0.286268 0.221393
1057 2 0.48792 0.286597 0.229823
1045 2 0.491616 0.290353 0.172486
4196 4 0.107636 0.342508 0.16917
4197 4 0.0597152 0.33749 0.181023
4195 2 0.0836756 0.339999 0.175097
1395 4 0.398189 0.335482 0.209314
1197 4 0.382947 0.405588 0.21438
1195 2 0.388356 0.380938 0.211988
1196 4 0.393766 0.356287 0.209597
1081 2 0.422952 0.418508 0.190055
1083 4 0.436396 0.414071 0.210892
4620 4 0.15601 0.454918 0.177672
4618 2 0.174484 0.467895 0.186394
4619 4 0.192958 0.480872 0.195115
3599 4 0.2098 0.483102 0.186363
3598 2 0.228045 0.496786 0.178369
1082 4 0.409509 0.422945 0.169218
568 3 0.358367 0.464231 0.229959
3096 4 0.362019 0.462224 0.209788
3094 2 0.368927 0.471529 0.187878
3135 4 0.401516 0.468059 0.24981
3133 2 0.425362 0.473414 0.252512
4164 4 0.477496 0.468965 0.203738
4163 4 0.450126 0.429817 0.209885
78 3 0.488435 0.479227 0.219082
4162 2 0.463811 0.449391 0.206811
76 1 0.489109 0.481852 0.242119
3997 2 0.0122114 0.0413052 0.283328
3998 4 0.0367923 0.0377743 0.28805
3066 4 0.0564853 0.0327124 0.29184
394 3 0.0967356 0.0474832 0.260136
3064 2 0.0810101 0.0356538 0.293702
3065 4 0.105535 0.0385952 0.295563
3953 4 0.108397 0.00588235 0.263776
395 3 0.114858 0.0151352 0.248737
2966 4 0.123083 0.0400789 0.309818
83 3 0.141108 0.0506888 0.312849
2965 2 0.131793 0.0176183 0.318356
82 3 0.13616 0.0839639 0.295523
81 1 0.151561 0.0694659 0.306299
84 3 0.169008 0.0633603 0.291686
1143 4 0.186398 0.063232 0.282193
1141 2 0.208937 0.0723182 0.281031
85 3 0.159565 0.0798153 0.324562
3908 4 0.219731 0.0193648 0.329484
59 3 0.250826 0.0840983 0.281293
57 3 0.287021 0.0715874 0.27711
3218 4 0.296121 0.0798488 0.261015
2150 4 0.349216 0.0658903 0.254714
2149 2 0.369972 0.0700009 0.267509
2151 4 0.390728 0.0741116 0.280304
4577 4 0.405779 0.0663637 0.291855
4576 2 0.427156 0.0709217 0.303332
4578 4 0.448532 0.0754798 0.314809
1166 4 0.46673 0.0808404 0.308004
1876 2 0.105661 0.161627 0.253636
826 2 0.0918564 0.0918793 0.325645
827 4 0.106428 0.102482 0.309062
4243 2 0.115525 0.11775 0.28342
4245 4 0.118535 0.0953851 0.294533
4244 4 0.112514 0.140115 0.272307
1883 4 0.180695 0.0830491 0.324869
1882 2 0.187814 0.104292 0.334675
1142 4 0.231475 0.0814045 0.279868
58 3 0.273832 0.102736 0.258999
56 1 0.272459 0.0904738 0.278557
60 3 0.278227 0.102917 0.296391
999 4 0.498245 0.138347 0.31866
1167 4 0.492669 0.120608 0.316445
1164 4 0.499427 0.141477 0.25359
1165 2 0.4797 0.100724 0.312224
4007 4 0.491134 0.138569 0.271745
991 2 0.0147621 0.231984 0.307387
993 4 0.0358759 0.239601 0.317148
3138 4 0.0502008 0.251122 0.322307
1877 4 0.112354 0.169642 0.276156
928 2 0.115196 0.169045 0.308961
929 4 0.126341 0.177045 0.288411
930 4 0.10405 0.161045 0.32951
933 4 0.296463 0.315861 0.28107
3674 4 0.286843 0.315089 0.263105
931 2 0.306564 0.310818 0.303558
932 4 0.316665 0.305775 0.326046
979 2 0.375233 0.308383 0.259364
981 4 0.397933 0.316079 0.264093
1242 4 0.414487 0.310706 0.273941
1240 2 0.43612 0.320305 0.268352
1241 4 0.457754 0.329904 0.262763
18 3 0.295741 0.373314 0.299956
16 1 0.305006 0.372103 0.321237
17 3 0.320509 0.353917 0.322258
20 3 0.315377 0.391019 0.325666
1156 2 0.352241 0.342691 0.328015
19 3 0.288376 0.369465 0.33698
1158 4 0.328648 0.341425 0.335898
1157 4 0.375835 0.343957 0.320132
3233 4 0.395248 0.344182 0.313282
3232 2 0.397585 0.367229 0.304535
3234 4 0.399923 0.390277 0.295788
3254 4 0.468952 0.342069 0.252655
3253 2 0.484018 0.357642 0.263453
2892 4 0.231197 0.436823 0.321609
2890 2 0.25402 0.434142 0.311273
2891 4 0.276844 0.43146 0.300937
3822 4 0.215589 0.432669 0.331975
1893 4 0.29253 0.443349 0.297699
1891 2 0.31239 0.450642 0.285288
1892 4 0.332251 0.457936 0.272877
567 3 0.346513 0.4685 0.265482
566 1 0.364659 0.461948 0.252227
569 3 0.381869 0.475459 0.256848
4232 4 0.36049 0.433367 0.32585
4231 2 0.366446 0.436617 0.30185
4233 4 0.372403 0.439867 0.277851
570 3 0.371472 0.440203 0.256703
3134 4 0.449207 0.478769 0.255215
80 3 0.46787 0.484802 0.250416
367 3 0.0587288 0.0217944 0.340897
1863 4 0.00638062 0.0176801 0.33232
369 3 0.0220404 0.0301521 0.334161
368 3 0.0439117 0.0570065 0.346258
2940 4 0.0579179 0.0713449 0.345306
366 1 0.039897 0.0345968 0.347835
370 3 0.0352812 0.0293745 0.369423
828 4 0.0772848 0.0812761 0.342228
1580 4 0.206278 0.00625982 0.336469
3907 2 0.233222 0.0320582 0.345411
3909 4 0.246712 0.0447516 0.361337
3204 4 0.264771 0.0412075 0.366353
3202 2 0.286764 0.0315114 0.375352
21 1 0.330251 0.00331662 0.394594
23 3 0.315307 0.00237856 0.376932
3726 4 0.310011 0.0390925 0.400699
3203 4 0.308757 0.0218153 0.384351
24 3 0.330163 0.0250915 0.402438
3724 2 0.325409 0.0568722 0.405811
3725 4 0.340807 0.0746519 0.410923
1062 4 0.405383 0.00200371 0.38159
2306 4 0.418559 0.0162108 0.376985
2305 2 0.416969 0.0408923 0.380967
2307 4 0.415379 0.0655739 0.384948
1100 4 0.496577 0.000496702 0.387106
1099 2 0.492154 0.0252162 0.384253
1101 4 0.48773 0.0499357 0.3814
3669 4 0.00732433 0.108501 0.356788
2939 4 0.0247576 0.10611 0.364519
2938 2 0.0413378 0.0887277 0.354913
2211 4 0.104484 0.141089 0.41809
1884 4 0.194934 0.125534 0.344482
1076 4 0.00888536 0.185902 0.333262
1075 2 0.0209383 0.19283 0.353713
1077 4 0.0329912 0.199758 0.374164
1323 4 0.0383262 0.214718 0.385285
1321 2 0.0435016 0.200967 0.405766
4083 4 0.109815 0.250873 0.347865
4081 2 0.123343 0.243402 0.367919
4082 4 0.136871 0.235931 0.387973
1623 4 0.155749 0.24397 0.396341
3083 4 0.00770025 0.32948 0.382756
3082 2 0.0299152 0.324526 0.393917
3084 4 0.0521302 0.319571 0.405079
3136 2 0.0715823 0.256542 0.333258
3132 4 0.0699601 0.327877 0.409256
3472 2 0.0925681 0.287166 0.407417
3474 4 0.10628 0.305434 0.399591
1856 4 0.114501 0.310478 0.381238
1855 2 0.12987 0.321904 0.366089
3137 4 0.0929639 0.261962 0.344208
3473 4 0.0788567 0.268898 0.415243
1857 4 0.14524 0.33333 0.350941
849 4 0.165312 0.333031 0.347238
847 2 0.188466 0.3406 0.349073
848 4 0.211621 0.348168 0.350909
919 2 0.250565 0.357586 0.351979
3821 4 0.210202 0.400285 0.369236
921 4 0.226982 0.356329 0.359898
2186 4 0.214541 0.393423 0.386556
2185 2 0.236139 0.397079 0.398071
920 4 0.274148 0.358842 0.344061
2187 4 0.257738 0.400734 0.409586
3820 2 0.212896 0.416477 0.350605
4303 2 0.291699 0.393448 0.396295
4305 4 0.307766 0.379711 0.38172
4266 4 0.229584 0.481652 0.378844
4264 2 0.245471 0.486123 0.397319
4265 4 0.261358 0.490594 0.415793
3228 4 0.347068 0.433155 0.341106
3227 4 0.351474 0.46875 0.375473
3226 2 0.349271 0.450953 0.358289
3870 4 0.351629 0.483813 0.387776
4236 4 0.413061 0.480299 0.41043
3868 2 0.372973 0.478898 0.400507
3869 4 0.394317 0.473983 0.413239
4234 2 0.435866 0.488316 0.413776
1181 4 0.054741 0.083146 0.424634
88 3 0.0466862 0.0123504 0.422966
89 3 0.029246 0.997992 0.452844
1180 2 0.0417105 0.0632493 0.428571
87 3 0.0155231 0.0303467 0.437293
86 1 0.0261065 0.00960971 0.43288
1182 4 0.02868 0.0433525 0.432508
757 2 0.114095 0.00674409 0.442478
758 4 0.121137 0.023045 0.425454
1647 4 0.138595 0.0328049 0.425387
1645 2 0.152898 0.0456813 0.440363
1646 4 0.167201 0.0585576 0.455339
3252 4 0.178884 0.0737752 0.458431
3250 2 0.182132 0.074349 0.48321
1481 4 0.214063 0.00917601 0.489872
4554 4 0.216972 0.0273347 0.48462
4552 2 0.240987 0.0313183 0.480474
4553 4 0.265002 0.0353019 0.476328
2209 2 0.126962 0.149896 0.421284
4465 2 0.0692862 0.149424 0.419981
4466 4 0.0878328 0.131464 0.416844
1040 4 0.115725 0.135015 0.495985
2210 4 0.14944 0.158702 0.424479
3108 4 0.292979 0.0966704 0.460279
3106 2 0.271829 0.0919097 0.472065
3107 4 0.250678 0.0871489 0.483851
3283 2 0.363703 0.138933 0.421263
3074 4 0.31188 0.0961924 0.465871
3075 4 0.333993 0.124741 0.432849
3073 2 0.322937 0.110467 0.44936
3285 4 0.338697 0.139619 0.419794
3284 4 0.388709 0.138248 0.422732
4170 4 0.396541 0.149372 0.437348
4168 2 0.421222 0.147369 0.432887
4169 4 0.445903 0.145366 0.428426
4467 4 0.0507395 0.167385 0.423118
1322 4 0.048677 0.187216 0.426248
175 3 0.00407847 0.183615 0.430968
173 3 0.0039904 0.202034 0.463778
2864 4 0.0134927 0.219771 0.466731
2863 2 0.0382051 0.216876 0.470913
2865 4 0.0629174 0.213981 0.475094
3357 4 0.0815042 0.218785 0.46589
3355 2 0.10042 0.231846 0.458398
3356 4 0.119336 0.244907 0.450905
869 4 0.161834 0.169144 0.434742
1622 4 0.137143 0.249032 0.442642
868 2 0.16462 0.176104 0.458523
870 4 0.167406 0.183063 0.482305
1621 2 0.146446 0.246501 0.419491
909 4 0.293101 0.190027 0.446121
907 2 0.307754 0.209027 0.444502
908 4 0.322408 0.228027 0.442884
3389 4 0.426413 0.212982 0.503578
3045 4 0.237556 0.315281 0.486799
3511 2 0.308482 0.278909 0.485342
3513 4 0.309189 0.282296 0.460588
4253 4 0.317984 0.292896 0.446571
4252 2 0.340719 0.298576 0.439142
4254 4 0.363454 0.304256 0.431714
1053 4 0.377204 0.316933 0.430646
1051 2 0.402103 0.31747 0.432319
1052 4 0.427001 0.318007 0.433993
3153 4 0.499298 0.336156 0.448569
3425 4 0.489062 0.303597 0.494079
923 4 0.444775 0.320134 0.427283
922 2 0.468027 0.319385 0.436596
924 4 0.49128 0.318635 0.445908
1355 4 0.0549456 0.369703 0.446889
3434 4 0.12576 0.361308 0.423884
3130 2 0.0881454 0.342227 0.415999
3131 4 0.106331 0.356578 0.422743
1354 2 0.0736956 0.382188 0.455794
3981 4 0.110889 0.400328 0.462524
1356 4 0.0924456 0.394672 0.4647
3433 2 0.150613 0.361414 0.426544
3435 4 0.175466 0.361519 0.429205
472 3 0.193377 0.36395 0.435819
975 4 0.195256 0.388371 0.487471
475 3 0.193806 0.379939 0.469499
474 3 0.208948 0.396578 0.440013
471 1 0.205494 0.376317 0.450119
473 3 0.225945 0.36454 0.45449
3043 2 0.235809 0.339284 0.479797
3044 4 0.234062 0.363287 0.472796
4304 4 0.275633 0.407185 0.410871
3605 4 0.252377 0.37152 0.466659
3604 2 0.27648 0.376427 0.465613
4673 4 0.315913 0.391098 0.457335
3606 4 0.300583 0.381334 0.464568
4672 2 0.339449 0.387922 0.448789
4674 4 0.362985 0.384746 0.440243
3231 4 0.37635 0.369697 0.449326
3229 2 0.395238 0.379812 0.460939
3230 4 0.414127 0.389927 0.472553
1043 4 0.428097 0.376893 0.467106
1042 2 0.451995 0.37621 0.474604
1044 4 0.475893 0.375528 0.482102
2246 4 0.00302167 0.440511 0.489853
3979 2 0.128489 0.415859 0.467904
3980 4 0.146088 0.43139 0.473283
4115 4 0.165898 0.428864 0.479715
4114 2 0.186629 0.441106 0.481709
2842 2 0.249937 0.461358 0.488571
4116 4 0.207361 0.453347 0.483704
2844 4 0.226136 0.456515 0.484487
2843 4 0.273737 0.466202 0.492655
600 3 0.280237 0.498093 0.418701
2451 4 0.291376 0.474764 0.492855
1019 4 0.352463 0.465389 0.455513
2924 4 0.377359 0.414956 0.495155
1020 4 0.377492 0.430331 0.4834
1018 2 0.364977 0.44786 0.469456
1570 2 0.0472453 0.0783934 0.561721
2958 4 0.0582776 0.0474094 0.525392
1571 4 0.0337612 0.0632941 0.575187
2956 2 0.0808676 0.0508768 0.515892
1428 4 0.0802303 0.0383843 0.581925
4111 2 0.140034 0.0271386 0.513811
953 4 0.126979 0.0750107 0.541931
2957 4 0.103458 0.0543442 0.506393
4113 4 0.118093 0.0409611 0.5137
4112 4 0.161975 0.0133162 0.513923
3251 4 0.18538 0.0749229 0.507989
1480 2 0.192707 0.00239081 0.499851
952 2 0.149994 0.0772067 0.532848
2804 4 0.241062 0.997734 0.577137
1572 4 0.0607295 0.0934928 0.548255
3552 4 0.0130391 0.132398 0.564845
495 3 0.0777808 0.0988743 0.557545
494 3 0.109865 0.103456 0.576082
491 1 0.0998736 0.10241 0.555206
492 3 0.101693 0.122369 0.544291
493 3 0.110695 0.0853065 0.542696
4030 2 0.141213 0.143163 0.574933
1039 2 0.137811 0.12387 0.503181
362 3 0.0976339 0.154015 0.574411
4031 4 0.116258 0.14508 0.577464
361 1 0.0757914 0.153117 0.581347
365 3 0.0706862 0.1314 0.581797
954 4 0.17301 0.0794028 0.523764
1041 4 0.159896 0.112726 0.510377
4032 4 0.166167 0.141245 0.572402
3766 2 0.201862 0.159439 0.575449
3767 4 0.177374 0.156958 0.57235
3768 4 0.22635 0.16192 0.578548
3801 4 0.246674 0.157715 0.580387
3776 4 0.326866 0.128516 0.510638
3775 2 0.349439 0.129335 0.521222
3777 4 0.372011 0.130153 0.531806
779 4 0.377634 0.140542 0.547347
778 2 0.398508 0.147216 0.558406
780 4 0.419383 0.15389 0.569466
1232 4 0.436523 0.144287 0.574678
1231 2 0.458164 0.131854 0.581334
760 2 0.042349 0.237255 0.523531
761 4 0.048507 0.217381 0.538
364 3 0.0617497 0.165231 0.566489
3249 4 0.0575473 0.205953 0.523885
3247 2 0.0646521 0.185293 0.53687
3248 4 0.0717569 0.164633 0.549855
2995 2 0.113667 0.252019 0.575611
2997 4 0.138251 0.245879 0.572961
4598 4 0.16953 0.169522 0.513719
4599 4 0.186213 0.205891 0.541899
4597 2 0.177871 0.187706 0.527809
389 3 0.186659 0.225047 0.547851
386 1 0.173184 0.244977 0.548055
387 3 0.152954 0.241299 0.557769
3799 2 0.267354 0.169441 0.575874
2893 2 0.372695 0.248386 0.552712
3390 4 0.385463 0.236557 0.524044
3388 2 0.405938 0.224769 0.513811
3047 4 0.444544 0.222456 0.503704
2894 4 0.372684 0.242932 0.57711
3046 2 0.463391 0.223418 0.520017
3048 4 0.482238 0.224379 0.536331
2827 2 0.0113916 0.320697 0.560666
3506 4 0.0230769 0.273113 0.50435
762 4 0.0361911 0.257129 0.509062
1698 4 0.052567 0.332732 0.556672
3505 2 0.000524779 0.277828 0.514896
1696 2 0.0775997 0.329421 0.557547
1697 4 0.102632 0.32611 0.558423
1538 4 0.1099 0.325315 0.577471
1537 2 0.133421 0.32044 0.585617
2996 4 0.0890833 0.258159 0.57826
390 3 0.169574 0.252446 0.526753
3282 4 0.173092 0.320461 0.581653
3280 2 0.183615 0.297416 0.577325
388 3 0.183348 0.260889 0.560481
3281 4 0.194138 0.27437 0.572996
3871 2 0.304122 0.312743 0.52991
3873 4 0.311669 0.29382 0.514721
3512 4 0.307775 0.275523 0.510096
2895 4 0.372707 0.253839 0.528315
2828 4 0.0349962 0.325093 0.555014
1289 4 0.103537 0.4142 0.55583
1340 4 0.121781 0.419439 0.563624
1339 2 0.145376 0.41653 0.572044
974 4 0.235414 0.392243 0.516593
2990 4 0.248131 0.391779 0.532546
2989 2 0.266532 0.389936 0.549534
973 2 0.215335 0.390307 0.502032
3872 4 0.296575 0.331666 0.545098
2991 4 0.284933 0.388093 0.566522
2528 4 0.283191 0.394357 0.584913
1703 4 0.342811 0.386189 0.571287
1702 2 0.367723 0.38213 0.56925
1704 4 0.392635 0.378071 0.567212
2923 2 0.393262 0.412772 0.514469
2925 4 0.409165 0.410588 0.533783
2568 4 0.00748682 0.439041 0.538229
2566 2 0.0304731 0.429659 0.531693
2567 4 0.0534595 0.420278 0.525157
1290 4 0.072043 0.424836 0.517769
1288 2 0.0877898 0.419518 0.5368
2449 2 0.303626 0.484234 0.511995
2450 4 0.315876 0.493703 0.531134
2896 2 0.326434 0.486273 0.565938
2897 4 0.3262 0.501884 0.546433
1593 4 0.414348 0.413396 0.55259
1592 4 0.462296 0.42377 0.556312
3542 4 0.473925 0.429138 0.540287
1591 2 0.438322 0.418583 0.554451
1390 2 0.471727 0.489078 0.557107
1391 4 0.482188 0.480275 0.578378
40 3 0.0363063 0.0472987 0.58688
39 3 0.0409339 0.0331029 0.621578
36 1 0.0494408 0.0468095 0.605505
37 3 0.0495881 0.0680956 0.614028
38 3 0.0712425 0.0390309 0.60009
1426 2 0.103787 0.0296686 0.58709
1427 4 0.127343 0.0209529 0.592254
1512 4 0.214032 0.0516836 0.617613
1510 2 0.229747 0.0695552 0.621054
1511 4 0.245463 0.0874267 0.624495
1946 4 0.31749 0.0656289 0.644171
2373 4 0.330057 0.0750368 0.632741
1945 2 0.306642 0.0497676 0.659231
2371 2 0.35416 0.0785615 0.628487
2704 2 0.403079 0.0719849 0.657315
2706 4 0.39579 0.077846 0.633985
2372 4 0.378264 0.0820861 0.624232
725 3 0.459291 0.017708 0.645734
1649 4 0.0554119 0.0862683 0.619603
1650 4 0.0573141 0.130315 0.596555
1648 2 0.056363 0.108292 0.608079
1493 4 0.0882811 0.0953713 0.664787
1233 4 0.479805 0.11942 0.58799
1700 4 0.490254 0.131867 0.598834
3349 2 0.015436 0.191795 0.656198
3350 4 0.0387964 0.19189 0.665092
363 3 0.0735237 0.162341 0.602584
3676 2 0.0753154 0.198224 0.65718
3677 4 0.0933137 0.201308 0.640363
2874 4 0.187118 0.165304 0.622094
2872 2 0.206017 0.177639 0.630901
3800 4 0.288034 0.181166 0.571361
1310 4 0.238753 0.176489 0.645824
2873 4 0.224916 0.189975 0.639709
1309 2 0.252272 0.19468 0.654193
1311 4 0.265791 0.212871 0.662562
3377 4 0.304738 0.186911 0.580783
3376 2 0.328932 0.183587 0.587231
1690 2 0.307423 0.220055 0.658569
3378 4 0.353126 0.180264 0.593679
127 3 0.357016 0.219053 0.621268
130 3 0.345986 0.239607 0.650972
1692 4 0.328783 0.230374 0.653421
126 1 0.361078 0.237463 0.633901
2985 4 0.371296 0.187401 0.595532
2983 2 0.396169 0.186749 0.598476
128 3 0.382705 0.23457 0.642402
1385 4 0.394256 0.241177 0.628564
2984 4 0.421042 0.186097 0.60142
1384 2 0.416721 0.228929 0.624886
1386 4 0.439186 0.216681 0.621208
1574 4 0.442174 0.18575 0.603745
2268 4 0.453458 0.225344 0.630707
2266 2 0.470096 0.22829 0.648921
1573 2 0.466728 0.183639 0.608853
1575 4 0.491282 0.181528 0.613961
2267 4 0.486735 0.231236 0.667135
3659 4 0.0611135 0.274581 0.640849
3658 2 0.0628628 0.276996 0.66566
1539 4 0.156942 0.315565 0.593763
1216 2 0.237605 0.333429 0.655287
1218 4 0.261379 0.326893 0.648819
129 3 0.358899 0.256312 0.620385
1341 4 0.168972 0.41362 0.580464
3719 4 0.276653 0.340787 0.646539
2527 2 0.308035 0.389781 0.587168
3718 2 0.297385 0.352434 0.651036
2529 4 0.332878 0.385205 0.589423
3720 4 0.318117 0.364081 0.655534
4550 4 0.336394 0.35352 0.654904
4549 2 0.354841 0.365676 0.64489
4551 4 0.373289 0.377833 0.634877
1469 4 0.393243 0.378375 0.628682
1468 2 0.418009 0.379551 0.626279
1470 4 0.442775 0.380727 0.623875
1602 4 0.457543 0.393337 0.617636
1600 2 0.475986 0.404747 0.606667
1601 4 0.49443 0.416158 0.595698
2898 4 0.326668 0.470661 0.585442
4767 4 0.321501 0.464353 0.603371
4765 2 0.328535 0.46699 0.627156
4766 4 0.33557 0.469626 0.650941
3313 2 0.462996 0.48063 0.615673
3684 4 0.472903 0.48703 0.652159
3315 4 0.468834 0.474484 0.592034
3369 4 0.480176 0.446731 0.657554
3314 4 0.457159 0.486775 0.639313
2961 4 0.0123117 0.011449 0.732318
3713 4 0.045549 0.079269 0.717653
3712 2 0.0690703 0.0730879 0.725186
4724 4 0.00509833 0.000238131 0.744774
3714 4 0.0925915 0.0669069 0.732718
3342 4 0.110891 0.0707937 0.729827
3340 2 0.135092 0.0701739 0.723383
4011 4 0.13035 0.00356965 0.743642
3341 4 0.159292 0.0695541 0.716939
1135 2 0.168069 0.00858529 0.74612
462 3 0.173676 0.074349 0.729906
1137 4 0.187824 0.0222949 0.747688
1527 4 0.202621 0.0331686 0.743882
1525 2 0.225935 0.0320149 0.734685
1526 4 0.249249 0.0308612 0.725488
477 3 0.267733 0.0387325 0.722814
480 3 0.289468 0.0320129 0.692841
479 3 0.291675 0.00790527 0.721762
476 1 0.288495 0.0302088 0.715516
1947 4 0.295794 0.0339063 0.67429
478 3 0.304789 0.0422631 0.725277
3324 4 0.323801 0.0486757 0.724443
3830 4 0.369386 0.00272201 0.670892
3322 2 0.348584 0.0483986 0.727905
4781 4 0.353373 0.00913438 0.681842
3323 4 0.373367 0.0481215 0.731368
524 3 0.392207 0.044512 0.724629
521 1 0.40708 0.053837 0.710224
522 3 0.395055 0.0668534 0.694762
2705 4 0.410368 0.0661237 0.680646
525 3 0.419805 0.0373583 0.699408
523 3 0.420787 0.0671916 0.722129
3431 4 0.434553 0.0433451 0.689643
1620 4 0.438942 0.0711113 0.729191
3829 2 0.394043 0.998644 0.674957
724 3 0.434022 0.00245914 0.667721
3432 4 0.479676 0.045863 0.668664
3430 2 0.457114 0.044604 0.679153
1618 2 0.461095 0.0791471 0.722792
1619 4 0.483249 0.0871828 0.716393
944 4 0.0264605 0.0718247 0.715951
943 2 0.00334266 0.081542 0.721577
1492 2 0.0987571 0.112516 0.678603
1494 4 0.109233 0.129662 0.692418
1628 4 0.128954 0.128542 0.689046
1627 2 0.149424 0.120099 0.701777
465 3 0.168309 0.111099 0.735942
461 1 0.18323 0.0928442 0.73799
1629 4 0.169894 0.111656 0.714507
3707 4 0.190955 0.108169 0.712887
464 3 0.202433 0.0959339 0.725721
3706 2 0.206347 0.120724 0.698791
3708 4 0.221739 0.133279 0.684695
3329 4 0.240587 0.133041 0.6905
3328 2 0.264991 0.13685 0.690073
3330 4 0.289394 0.140659 0.689645
3804 4 0.366645 0.149947 0.66451
3564 4 0.305728 0.148558 0.698662
3562 2 0.327094 0.149305 0.685796
3563 4 0.34846 0.150051 0.672929
1737 4 0.350935 0.102759 0.720345
1735 2 0.37303 0.112285 0.723811
3802 2 0.386647 0.133713 0.66795
3803 4 0.406648 0.11748 0.671391
1736 4 0.395124 0.121811 0.727277
1376 4 0.408411 0.132408 0.733002
1375 2 0.432567 0.13709 0.731769
2774 4 0.502236 0.0915475 0.713502
1377 4 0.456723 0.141771 0.730536
1325 4 0.465823 0.153917 0.742697
1324 2 0.489323 0.147443 0.75012
3678 4 0.0573171 0.195141 0.673997
3784 2 0.0821282 0.244023 0.740271
3593 4 0.158066 0.178846 0.731032
3592 2 0.143596 0.169767 0.748691