ITEM: TIMESTEP
3142500
ITEM: NUMBER OF ATOMS
4800
ITEM: BOX BOUNDS xy xz yz pp pp pp
-9.9985700000000008e+00 9.9985700000000008e+00 0.0000000000000000e+00
-9.9985700000000008e+00 9.9985700000000008e+00 0.0000000000000000e+00
-9.9985700000000008e+00 9.9985700000000008e+00 0.0000000000000000e+00
ITEM: ATOMS id type xs ys zs
3482 4 0.0242271 0.0340116 0.993349
2639 4 0.00618755 0.0409389 0.997632
1110 4 0.140265 0.0379325 0.0333072
1108 2 0.149556 0.05821 0.044607
1109 4 0.158848 0.0784875 0.0559068
4769 4 0.13451 0.0427358 0.0139898
4768 2 0.112611 0.0451997 0.00217478
2922 4 0.153222 0.0959019 0.0629779
4222 2 0.300048 0.0676442 0.0678123
4224 4 0.319778 0.0802702 0.0765587
4223 4 0.280318 0.0550182 0.0590659
3877 2 0.382939 0.0738695 0.0351256
3878 4 0.369079 0.0854822 0.0178567
3879 4 0.396798 0.0622569 0.0523944
4052 4 0.413349 0.063633 0.0628404
881 4 0.0514779 0.133499 0.00440067
880 2 0.0547427 0.147889 0.0245864
882 4 0.0580075 0.162279 0.0447721
1936 2 0.23155 0.124808 0.051767
1938 4 0.225502 0.127829 0.0276945
1937 4 0.237597 0.121788 0.0758395
403 3 0.0684618 0.178707 0.0470921
966 4 0.0314271 0.214088 0.0584071
401 1 0.0715118 0.198731 0.0584138
404 3 0.0512272 0.209793 0.0605488
964 2 0.00965604 0.218234 0.0468301
405 3 0.0863615 0.211833 0.0471678
1757 4 0.0458965 0.256097 0.0632153
402 3 0.0797684 0.194221 0.0794052
1278 4 0.173418 0.22045 0.0308762
1276 2 0.191323 0.203853 0.0254763
1383 4 0.234985 0.228908 0.0678692
3681 4 0.217158 0.177566 0.0357397
1277 4 0.209227 0.187256 0.0200765
3679 2 0.240932 0.182102 0.0294649
2802 4 0.28171 0.192335 0.0170484
3680 4 0.264707 0.186638 0.0231901
3263 4 0.433084 0.186649 0.0634598
1758 4 0.0175753 0.289863 0.0395799
1756 2 0.0317359 0.27298 0.0513976
3312 4 0.0132587 0.309089 0.0377931
94 3 0.0758351 0.293787 0.0483658
93 3 0.092039 0.300709 0.0146924
92 3 0.112847 0.28913 0.0437714
1303 2 0.150038 0.294854 0.0509646
91 1 0.0947499 0.301968 0.0377025
1304 4 0.126094 0.302058 0.0509827
95 3 0.0984483 0.323561 0.0439217
2145 4 0.102049 0.33866 0.0563534
1553 4 0.0912934 0.282726 0.00594077
1305 4 0.173981 0.287649 0.0509465
3985 2 0.205694 0.301889 0.030161
3986 4 0.187892 0.28607 0.037781
3987 4 0.223495 0.317708 0.022541
2412 4 0.231866 0.326974 0.0395757
4094 4 0.483479 0.261934 0.995808
4093 2 0.464431 0.268426 0.010648
3121 2 0.437789 0.317565 0.0193478
4095 4 0.445383 0.274919 0.0254878
3123 4 0.442513 0.293088 0.0174147
994 2 0.488661 0.333401 0.0698313
2143 2 0.124174 0.350035 0.0588562
2144 4 0.1463 0.36141 0.0613591
1820 4 0.164753 0.354501 0.061391
1819 2 0.183545 0.359236 0.0455914
1821 4 0.202336 0.363972 0.0297917
810 4 0.213046 0.376937 0.0183453
808 2 0.233169 0.362133 0.0172889
2410 2 0.241562 0.333687 0.061624
809 4 0.253292 0.347329 0.0162325
2411 4 0.251257 0.340401 0.0836722
3751 2 0.341666 0.407885 0.0356428
3753 4 0.344162 0.383013 0.0362317
1308 4 0.357772 0.38411 0.0514717
1307 4 0.395376 0.354402 0.0657574
1306 2 0.376574 0.369256 0.0586145
3633 4 0.414295 0.339011 0.0160491
3122 4 0.433065 0.342043 0.0212809
995 4 0.491807 0.351889 0.053294
1990 2 0.47118 0.400986 0.0144526
1991 4 0.489433 0.403926 0.0312867
1900 2 0.0469252 0.423012 0.0614424
1902 4 0.0562467 0.424202 0.0382719
2356 2 0.0542854 0.482772 0.010005
2357 4 0.0750409 0.487203 0.0232259
3503 4 0.0214576 0.465139 0.0870538
753 4 0.130774 0.495108 0.0454509
4068 4 0.14686 0.483494 0.0486865
4067 4 0.188345 0.488657 0.0761269
4066 2 0.167603 0.486076 0.0624067
3752 4 0.339169 0.432757 0.0350539
3442 2 0.329214 0.466138 0.0575422
3443 4 0.336383 0.442933 0.0515994
3444 4 0.322045 0.489343 0.063485
4713 4 0.373372 0.496303 0.0130708
4711 2 0.391818 0.490513 0.0289265
4712 4 0.410265 0.484723 0.0447822
792 4 0.422622 0.49818 0.0383163
4195 2 0.00256024 0.0433499 0.12322
4196 4 0.999671 0.068031 0.120446
4197 4 0.00544934 0.0186688 0.125993
1030 2 0.118677 0.00466729 0.148733
1031 4 0.138796 0.0194113 0.146993
1836 4 0.138655 0.0234259 0.166945
3849 4 0.204926 0.071021 0.155036
983 4 0.191512 0.0837427 0.14812
3847 2 0.213492 0.0509214 0.167193
4051 2 0.40872 0.0715209 0.0861117
2883 4 0.00533871 0.0873681 0.119884
2920 2 0.150561 0.102639 0.0869093
219 3 0.126244 0.150851 0.131433
217 3 0.115791 0.11781 0.145983
216 1 0.131244 0.128217 0.13249
2921 4 0.1479 0.109377 0.110841
218 3 0.130185 0.118871 0.111279
220 3 0.152055 0.125258 0.141255
984 4 0.160715 0.115636 0.124988
3515 4 0.114786 0.147592 0.113642
2886 4 0.112406 0.125587 0.165214
982 2 0.176113 0.0996893 0.136554
2952 4 0.23308 0.111454 0.0921052
2950 2 0.223801 0.128918 0.107406
2951 4 0.214522 0.146382 0.122706
2850 4 0.201921 0.160921 0.123492
2848 2 0.204439 0.161453 0.148363
2868 4 0.410661 0.0979582 0.112705
4053 4 0.404091 0.0794089 0.109383
2866 2 0.42531 0.116222 0.121483
2867 4 0.439958 0.134485 0.13026
4329 4 0.44161 0.120702 0.145627
2836 2 0.0297453 0.175774 0.103751
2838 4 0.0516223 0.167576 0.11266
2837 4 0.00786825 0.183973 0.0948418
3516 4 0.0961978 0.184396 0.0853443
3514 2 0.105492 0.165994 0.0994933
3842 4 0.115005 0.197812 0.157065
3841 2 0.139082 0.204397 0.158532
2184 4 0.103898 0.211231 0.168993
1381 2 0.225659 0.216922 0.0877325
1117 2 0.199478 0.220187 0.136686
1119 4 0.182383 0.218732 0.154874
1382 4 0.216333 0.204935 0.107596
1118 4 0.216574 0.221642 0.118498
3843 4 0.163159 0.210981 0.159999
4425 4 0.307174 0.229969 0.143228
3101 4 0.297231 0.218701 0.156745
4423 2 0.293731 0.245826 0.129334
754 2 0.367684 0.207791 0.154924
756 4 0.353587 0.187255 0.152734
755 4 0.38178 0.228327 0.157114
3264 4 0.455264 0.196155 0.10726
3262 2 0.444174 0.191402 0.0853597
1362 4 0.440907 0.194113 0.121149
1360 2 0.458516 0.194938 0.138882
1361 4 0.476124 0.195763 0.156614
4186 2 0.0574749 0.293611 0.132473
4187 4 0.0809075 0.294602 0.123807
2993 4 0.0869631 0.276846 0.131455
4188 4 0.0340422 0.292619 0.141139
2994 4 0.117757 0.237772 0.126395
2992 2 0.10236 0.257309 0.128925
1967 4 0.142113 0.299597 0.159457
3459 4 0.166356 0.254391 0.15508
569 3 0.23892 0.311498 0.16406
2963 4 0.235773 0.302086 0.147423
2962 2 0.250671 0.284216 0.138266
4424 4 0.280288 0.261682 0.11544
2964 4 0.26557 0.266345 0.129109
4353 4 0.388574 0.297556 0.145396
1130 4 0.391574 0.301832 0.125754
1129 2 0.402378 0.323642 0.120029
996 4 0.485515 0.314912 0.0863686
3180 4 0.0797856 0.395857 0.0883689
3178 2 0.0932018 0.38065 0.102996
3179 4 0.106618 0.365443 0.117623
570 3 0.252795 0.345904 0.17049
3527 4 0.252166 0.345454 0.151211
3528 4 0.259415 0.342191 0.101839
3526 2 0.255791 0.343823 0.126525
1131 4 0.413182 0.345452 0.114303
4199 4 0.42709 0.349638 0.129818
4198 2 0.447094 0.353337 0.144357
261 1 0.491074 0.388174 0.158621
4200 4 0.467098 0.357037 0.158895
264 3 0.479291 0.396123 0.14028
3903 4 0.485684 0.40874 0.125832
1901 4 0.0376038 0.421822 0.084613
2078 4 0.0174567 0.417474 0.0913107
3504 4 0.0501857 0.498326 0.111013
3502 2 0.0358217 0.481732 0.0990336
2077 2 0.99609 0.4279 0.0990525
434 3 0.271098 0.455609 0.136776
431 1 0.275885 0.450679 0.158938
435 3 0.296062 0.440218 0.160388
433 3 0.259278 0.437111 0.167801
2700 4 0.313674 0.44769 0.159773
4294 2 0.37894 0.493804 0.131065
4296 4 0.385612 0.471618 0.140469
4070 4 0.405767 0.473659 0.142907
4069 2 0.417147 0.465557 0.163644
2113 2 0.476933 0.494383 0.138528
3901 2 0.482926 0.433021 0.131125
3902 4 0.480169 0.457302 0.136419
2114 4 0.465752 0.472119 0.136407
1834 2 0.156889 0.0405063 0.167926
1835 4 0.175124 0.0575866 0.168908
2949 4 0.18108 0.0664212 0.186624
2947 2 0.183155 0.0639808 0.211422
3848 4 0.222058 0.0308218 0.179351
1637 4 0.219091 0.0338185 0.198942
1636 2 0.236588 0.0250043 0.214477
1638 4 0.254085 0.0161901 0.230013
2948 4 0.185229 0.0615403 0.236219
1166 4 0.179859 0.0796468 0.243538
4547 4 0.253483 0.0109353 0.249462
4546 2 0.27841 0.0112861 0.247541
4548 4 0.303338 0.011637 0.24562
1052 4 0.401599 0.087904 0.209291
1051 2 0.41625 0.068301 0.214414
1053 4 0.430901 0.048698 0.219536
3084 4 0.432431 0.0294507 0.221023
3082 2 0.440148 0.0216722 0.243498
2885 4 0.0796479 0.110023 0.199644
2884 2 0.0960268 0.117805 0.182429
781 2 0.131448 0.151299 0.243995
782 4 0.143315 0.153576 0.222105
4245 4 0.136736 0.140308 0.208239
4243 2 0.154069 0.124507 0.199576
4244 4 0.171403 0.108705 0.190914
3725 4 0.234219 0.105113 0.213792
3724 2 0.21096 0.111013 0.206765
3726 4 0.187701 0.116912 0.199738
2849 4 0.206956 0.161984 0.173235
2972 4 0.249257 0.0934303 0.207324
2971 2 0.268117 0.109847 0.207282
925 2 0.310645 0.146706 0.200448
927 4 0.305721 0.122451 0.204001
2973 4 0.286976 0.126264 0.20724
4577 4 0.384547 0.0874694 0.22046
4576 2 0.361129 0.0949853 0.224966
4578 4 0.337712 0.102501 0.229472
4327 2 0.451595 0.124969 0.168151
377 3 0.470302 0.120158 0.207107
4328 4 0.461579 0.129235 0.190674
376 1 0.484115 0.134745 0.218312
378 3 0.494846 0.123287 0.235399
380 3 0.471651 0.151723 0.226973
2183 4 0.0611725 0.197906 0.191304
2182 2 0.082535 0.204569 0.180148
3100 2 0.299048 0.197446 0.169787
926 4 0.315568 0.170961 0.196894
3102 4 0.300865 0.17619 0.182828
3002 4 0.388739 0.22068 0.175399
3001 2 0.411274 0.224088 0.18568
359 3 0.47216 0.191223 0.175613
3003 4 0.43381 0.227495 0.195962
358 3 0.449019 0.218846 0.187689
357 3 0.48506 0.218239 0.198336
356 1 0.466822 0.205111 0.193417
360 3 0.461432 0.192614 0.211677
2271 4 0.453644 0.195468 0.230603
4024 2 0.0193761 0.329255 0.207867
3216 4 0.053076 0.332331 0.208304
3214 2 0.0772405 0.325915 0.208615
1966 2 0.127018 0.312089 0.174991
3215 4 0.101405 0.319499 0.208926
1968 4 0.111923 0.32458 0.190525
566 1 0.246184 0.326428 0.180269
3457 2 0.175805 0.268706 0.173273
3458 4 0.185254 0.283021 0.191466
3234 4 0.201751 0.299764 0.237897
3232 2 0.213901 0.317993 0.225844
3233 4 0.22605 0.336222 0.213792
4709 4 0.181501 0.299067 0.242294
568 3 0.263798 0.317193 0.192222
4076 4 0.260235 0.318494 0.211757
4075 2 0.26623 0.298703 0.225813
4077 4 0.272225 0.278911 0.239868
884 4 0.251695 0.278668 0.245031
4351 2 0.385607 0.303871 0.169406
4352 4 0.38264 0.310187 0.193417
72 3 0.363291 0.324555 0.234949
75 3 0.376574 0.328231 0.200266
2901 4 0.486829 0.277057 0.24335
4025 4 0.0390474 0.329897 0.192446
1195 2 0.0533242 0.406242 0.239207
567 3 0.228823 0.330726 0.194735
29 3 0.256686 0.394295 0.245802
1734 4 0.261656 0.426033 0.18409
1732 2 0.261579 0.415087 0.20657
2825 4 0.294091 0.346837 0.200703
2824 2 0.315131 0.351657 0.213324
1733 4 0.261503 0.404141 0.229051
2826 4 0.336171 0.356476 0.225945
71 1 0.368149 0.339515 0.218164
73 3 0.348671 0.35057 0.212099
74 3 0.383796 0.354754 0.225995
4235 4 0.385187 0.350206 0.245122
1157 4 0.37562 0.332698 0.249052
263 3 0.479979 0.370036 0.167912
375 3 0.463057 0.3851 0.239799
262 3 0.492486 0.404888 0.174364
371 1 0.451847 0.400804 0.251897
374 3 0.430675 0.393002 0.25731
1197 4 0.0361945 0.42098 0.228503
2208 4 0.00388493 0.49925 0.221545
2206 2 0.998468 0.479819 0.23632
432 3 0.276643 0.470299 0.170924
2698 2 0.330052 0.44829 0.178657
2699 4 0.34643 0.44889 0.19754
4283 4 0.352463 0.444012 0.215453
4282 2 0.37468 0.453734 0.221545
4284 4 0.396897 0.463455 0.227637
1880 4 0.405825 0.47405 0.243955
372 3 0.449727 0.419958 0.239335
1847 4 0.455759 0.437009 0.23242
4071 4 0.428527 0.457455 0.184382
1846 2 0.450889 0.450828 0.212159
1848 4 0.446018 0.464647 0.191899
83 3 0.0450574 0.0639383 0.265775
84 3 0.0454723 0.0273287 0.25558
3163 2 0.0122953 0.00355449 0.30894
3165 4 0.0252351 0.0204708 0.295841
85 3 0.0348028 0.037268 0.290294
81 1 0.0488254 0.0422291 0.273048
82 3 0.0706035 0.0404718 0.280246
4173 4 0.0893322 0.0353583 0.283104
4172 4 0.12083 0.0257334 0.245473
4171 2 0.105081 0.0305458 0.264289
437 3 0.159771 0.0762057 0.331663
439 3 0.181341 0.0528584 0.311606
3083 4 0.447864 0.0138938 0.265974
3142 2 0.469061 0.0390554 0.294423
3144 4 0.477294 0.05074 0.314938
3143 4 0.460827 0.0273708 0.273908
799 2 0.499878 0.0719838 0.332852
800 4 0.493622 0.0487924 0.32591
604 3 0.0444844 0.153173 0.307435
783 4 0.119581 0.149021 0.265885
1892 4 0.112413 0.141281 0.283522
1891 2 0.0994545 0.158883 0.295666
1167 4 0.171493 0.102417 0.287268
1165 2 0.175676 0.0910317 0.265403
436 1 0.179408 0.0744777 0.319807
440 3 0.179083 0.0893351 0.302549
793 2 0.327868 0.158051 0.272324
795 4 0.312295 0.140411 0.280778
601 1 0.0476217 0.175892 0.310952
605 3 0.067866 0.182306 0.302726
602 3 0.0310005 0.187469 0.300049
1893 4 0.086496 0.176484 0.307809
4479 4 0.318246 0.226216 0.323773
3005 4 0.303077 0.213821 0.326037
4477 2 0.331649 0.21274 0.307526
794 4 0.343442 0.175692 0.26387
1696 2 0.379417 0.188547 0.301564
1698 4 0.377824 0.173226 0.321261
4478 4 0.345051 0.199264 0.291279
1697 4 0.38101 0.203867 0.281868
2968 2 0.400522 0.231658 0.336432
577 3 0.407906 0.246398 0.276809
2969 4 0.415795 0.221815 0.319256
578 3 0.399119 0.209893 0.275122
1074 4 0.500135 0.224371 0.298616
2269 2 0.466735 0.199698 0.251482
580 3 0.423171 0.222587 0.30116
576 1 0.416063 0.22508 0.279668
2270 4 0.479826 0.203929 0.27236
408 3 0.480315 0.185286 0.280295
579 3 0.433774 0.221802 0.265041
3140 4 0.447715 0.235614 0.267367
409 3 0.497983 0.20613 0.30671
3133 2 0.999462 0.278273 0.275316
3134 4 0.0229828 0.27711 0.283717
1170 4 0.0341564 0.293194 0.282019
1168 2 0.049277 0.309639 0.270789
1169 4 0.0643976 0.326085 0.259559
3914 4 0.0829839 0.325757 0.266537
4710 4 0.144895 0.300678 0.276326
3915 4 0.130146 0.314225 0.278518
3913 2 0.106565 0.319991 0.272528
4708 2 0.163198 0.299873 0.25931
1783 2 0.22376 0.274595 0.319501
1785 4 0.227847 0.274043 0.29484
885 4 0.228231 0.257326 0.283692
2934 4 0.232377 0.324128 0.269632
3938 4 0.222161 0.335619 0.282691
883 2 0.239963 0.267997 0.264362
1671 4 0.279261 0.32413 0.31337
1669 2 0.291056 0.303721 0.321708
1670 4 0.302851 0.283312 0.330047
1158 4 0.380112 0.300378 0.286948
1156 2 0.377866 0.316538 0.268
777 4 0.486368 0.327815 0.26888
3141 4 0.48184 0.271891 0.262862
3071 4 0.496413 0.321417 0.285912
3139 2 0.464777 0.253753 0.265115
1196 4 0.0704539 0.391504 0.24991
2238 4 0.0720523 0.379444 0.267264
2236 2 0.0944768 0.375286 0.277513
2237 4 0.116901 0.371127 0.287762
2218 2 0.156043 0.369228 0.300834
2220 4 0.131095 0.368991 0.302486
2219 4 0.180991 0.369465 0.299182
3937 2 0.206896 0.347788 0.298315
3939 4 0.191632 0.359956 0.313938
28 3 0.25218 0.405343 0.281885
2933 4 0.271433 0.354818 0.263844
2932 2 0.251905 0.339473 0.266738
26 1 0.265975 0.394012 0.267063
30 3 0.268844 0.372512 0.274003
27 3 0.286412 0.404548 0.266389
4234 2 0.399384 0.368274 0.254979
4236 4 0.413581 0.386343 0.264835
776 4 0.472174 0.372567 0.251658
775 2 0.479271 0.350191 0.260269
373 3 0.463638 0.405792 0.271249
1879 2 0.411819 0.481204 0.267151
1081 2 0.490236 0.470006 0.294105
1082 4 0.47686 0.490834 0.297634
1083 4 0.503612 0.449178 0.290576
3971 4 0.0470216 0.0120476 0.385061
3099 4 0.0535437 0.0320152 0.388455
3097 2 0.074236 0.0458716 0.386212
909 4 0.149281 0.997414 0.335553
3098 4 0.0949283 0.059728 0.38397
907 2 0.157854 0.010103 0.355319
2724 4 0.165807 0.0813714 0.406687
908 4 0.166428 0.0227924 0.375084
2723 4 0.173855 0.0355391 0.388376
2722 2 0.169831 0.0584553 0.397531
304 3 0.496394 0.027994 0.401541
302 3 0.49082 0.0281894 0.364372
1472 4 0.176941 0.0971129 0.401689
438 3 0.197167 0.0791907 0.333978
398 3 0.291616 0.155663 0.369318
2213 4 0.279896 0.123555 0.404854
400 3 0.325614 0.140964 0.362558
396 1 0.314517 0.159244 0.370388
2212 2 0.276917 0.147044 0.41289
3261 4 0.27572 0.106191 0.413817
603 3 0.04643 0.180636 0.333634
2000 4 0.0526431 0.191371 0.349689
1999 2 0.0507368 0.195028 0.374351
2001 4 0.0488305 0.198684 0.399012
870 4 0.0394383 0.215102 0.403491
1355 4 0.226676 0.234632 0.393894
212 3 0.260853 0.209329 0.414303
1354 2 0.247064 0.224622 0.38344
3004 2 0.282034 0.214319 0.339533
399 3 0.320207 0.177928 0.35786
397 3 0.320455 0.162899 0.392309
1356 4 0.267452 0.214611 0.372987
3006 4 0.260991 0.214817 0.353029
3711 4 0.329382 0.179568 0.397831
3709 2 0.337157 0.190297 0.419036
3775 2 0.169282 0.311936 0.400412
3777 4 0.147675 0.300562 0.405791
1799 4 0.218638 0.252524 0.391345
3776 4 0.19089 0.323309 0.395033
1784 4 0.219673 0.275147 0.344163
1800 4 0.202473 0.280678 0.353308
1798 2 0.210556 0.266601 0.372327
2970 4 0.385249 0.241501 0.353609
1140 4 0.352371 0.298057 0.344764
1139 4 0.369842 0.251206 0.34548
1138 2 0.361106 0.274632 0.345122
875 4 0.348852 0.317117 0.350512
4304 4 0.218185 0.345182 0.351158
4305 4 0.171382 0.362685 0.353096
4303 2 0.194784 0.353934 0.352127
3434 4 0.238069 0.348871 0.351301
3981 4 0.19666 0.344006 0.4028
3979 2 0.194279 0.364274 0.417248
3433 2 0.254074 0.357229 0.368599
1855 2 0.309077 0.345947 0.390613
1856 4 0.284997 0.352674 0.390308
3435 4 0.270078 0.365586 0.385897
1857 4 0.333157 0.33922 0.390919
874 2 0.356317 0.338099 0.361881
2263 2 0.379671 0.390579 0.382724
2265 4 0.379525 0.369944 0.368605
876 4 0.363782 0.35908 0.37325
2264 4 0.379818 0.411214 0.396844
3473 4 0.199293 0.479379 0.358986
914 4 0.199836 0.472373 0.377375
3472 2 0.202528 0.496028 0.340614
913 2 0.194906 0.487647 0.396548
10 3 0.19046 0.429417 0.418927
4254 4 0.299662 0.433088 0.401479
2847 4 0.273465 0.458371 0.361435
2845 2 0.264994 0.480066 0.352338
4253 4 0.276677 0.43992 0.357596
4252 2 0.288169 0.436504 0.379537
2846 4 0.256524 0.501761 0.343241
891 4 0.327988 0.434859 0.35536
4127 4 0.406743 0.465995 0.406389
890 4 0.377687 0.43967 0.352593
2247 4 0.357129 0.473897 0.363694
889 2 0.352837 0.437265 0.353976
4126 2 0.391479 0.457422 0.388538
4128 4 0.376214 0.44885 0.370686
3295 2 0.494207 0.452424 0.371427
3297 4 0.471904 0.463121 0.375078
834 4 0.469331 0.454958 0.393929
2905 2 0.0711519 0.0134432 0.450849
2906 4 0.0739834 0.0304981 0.468913
1481 4 0.0759797 0.0512024 0.468896
1480 2 0.0572709 0.0660523 0.461504
1482 4 0.0385621 0.0809022 0.454111
3544 2 0.134783 0.00218184 0.478059
3545 4 0.150426 0.0189276 0.488062
1534 2 0.211693 0.0195146 0.480391
1535 4 0.236233 0.0190864 0.475613
1536 4 0.187154 0.0199428 0.485169
563 3 0.180621 0.0332414 0.49777
3686 4 0.252165 0.0299034 0.479931
3108 4 0.286586 0.0181178 0.432832
3260 4 0.28918 0.0752975 0.450766
3685 2 0.27121 0.0221209 0.465722
3687 4 0.290255 0.0143384 0.451513
930 4 0.385116 0.0816609 0.412375
928 2 0.396012 0.0654394 0.427974
993 4 0.405115 0.035528 0.457779
929 4 0.406908 0.0492178 0.443573
991 2 0.403675 0.0105676 0.457487
1980 4 0.335901 0.0805606 0.483895
847 2 0.485375 0.0611538 0.49601
849 4 0.488539 0.0443228 0.477793
3224 4 0.0231867 0.104467 0.465425
1471 2 0.184111 0.104403 0.424506
1473 4 0.191281 0.111694 0.447323
3259 2 0.28245 0.090744 0.432291
1978 2 0.340181 0.0819169 0.459298
1979 4 0.344462 0.0832732 0.434701
89 3 0.338097 0.0919592 0.500895
868 2 0.0317642 0.214062 0.427266
815 4 0.00491901 0.212031 0.457892
869 4 0.0240901 0.213023 0.45104
3329 4 0.0693579 0.177654 0.488038
214 3 0.235835 0.192302 0.436593
1076 4 0.314469 0.240893 0.429103
2214 4 0.273939 0.170533 0.420926
211 1 0.257661 0.200035 0.435101
215 3 0.272234 0.182761 0.437914
2150 4 0.251472 0.228697 0.462578
213 3 0.26143 0.21628 0.451235
2149 2 0.263637 0.242895 0.479178
3376 2 0.316806 0.24427 0.491544
3282 4 0.363817 0.199143 0.444982
3710 4 0.344931 0.201025 0.44024
3280 2 0.359617 0.215346 0.463556
3281 4 0.355417 0.231549 0.48213
3377 4 0.341441 0.245003 0.487323
1537 2 0.474789 0.216499 0.458469
1538 4 0.451103 0.21421 0.450793
65 3 0.142735 0.300968 0.424722
63 3 0.126706 0.275222 0.447036
64 3 0.147967 0.302967 0.461955
61 1 0.145255 0.288781 0.443795
62 3 0.163935 0.275495 0.441884
3354 4 0.220803 0.308661 0.448381
3353 4 0.179703 0.280636 0.453494
3352 2 0.200253 0.294649 0.450937
2151 4 0.275802 0.257094 0.495779
1075 2 0.330117 0.257867 0.438706
1077 4 0.345764 0.274841 0.448309
1703 4 0.356542 0.289568 0.441072
1702 2 0.379653 0.297933 0.445665
1704 4 0.402764 0.306298 0.450259
3062 4 0.408115 0.317452 0.466605
3061 2 0.42243 0.332128 0.452291
3063 4 0.436746 0.346803 0.437976
3355 2 0.0233774 0.39808 0.44944
3356 4 0.0452004 0.387291 0.443734
3980 4 0.191898 0.384542 0.431696
9 3 0.200618 0.400662 0.44101
6 1 0.207856 0.419773 0.43002
2559 4 0.307748 0.376348 0.460434
2557 2 0.29094 0.368367 0.477137
2558 4 0.274132 0.360386 0.49384
3231 4 0.294068 0.413507 0.456877
162 3 0.258052 0.357379 0.505649
3048 4 0.475184 0.404986 0.483876
1104 4 0.491297 0.389272 0.418871
1102 2 0.485826 0.396956 0.442028
1103 4 0.480356 0.404639 0.465185
4436 4 0.0611963 0.446807 0.481329
4435 2 0.0713887 0.458841 0.500733
2067 4 0.155829 0.49294 0.495157
1741 2 0.235673 0.440483 0.473001
1743 4 0.224099 0.450381 0.453171
8 3 0.224767 0.414389 0.415073
7 3 0.216099 0.434608 0.445546
1742 4 0.247247 0.430585 0.492831
3230 4 0.286842 0.439581 0.414822
3229 2 0.290455 0.426544 0.435849
4362 4 0.264941 0.42414 0.500433
3046 2 0.463939 0.42243 0.497821
1006 2 0.459372 0.482394 0.469599
833 4 0.467443 0.47329 0.440417
1008 4 0.476154 0.487474 0.451774
1007 4 0.442589 0.477314 0.487424
832 2 0.468387 0.464124 0.417173
147 3 0.0613702 0.0355509 0.547159
3395 4 0.0191418 0.0622831 0.517934
2655 4 0.0293991 0.0443118 0.517372
2653 2 0.022359 0.0205748 0.513882
146 1 0.0771846 0.0325902 0.563599
148 3 0.0965707 0.0242595 0.553945
4784 4 0.0878336 0.0718128 0.573707
149 3 0.0814971 0.0530626 0.573632
2538 4 0.0955187 0.0124302 0.536966
564 3 0.151089 0.0115396 0.507833
565 3 0.16338 0.0387364 0.530788
561 1 0.169704 0.0230558 0.515531
562 3 0.184076 0.00812966 0.525521
4542 4 0.193023 0.0128524 0.543108
4540 2 0.191312 0.00581844 0.567041
1334 4 0.192967 0.0840461 0.584962
2995 2 0.300942 0.0360652 0.518694
2997 4 0.27697 0.0310763 0.51363
2996 4 0.324914 0.041054 0.523758
87 3 0.333373 0.0594394 0.519139
848 4 0.482212 0.0779848 0.514228
4783 2 0.10352 0.0903739 0.567823
4780 2 0.148827 0.125695 0.54257
4785 4 0.119206 0.108935 0.561939
4782 4 0.127222 0.126266 0.555142
4781 4 0.170432 0.125124 0.529997
90 3 0.31175 0.0886613 0.527589
86 1 0.332704 0.0823307 0.521306
4523 4 0.423358 0.102025 0.562115
88 3 0.348094 0.0887917 0.537426
4522 2 0.411865 0.0887823 0.57994
2705 4 0.485298 0.088478 0.531268
363 3 0.486033 0.154933 0.580338
3330 4 0.0565916 0.18665 0.535544
3328 2 0.0629747 0.182152 0.511791
3378 4 0.292172 0.243538 0.495764
3341 4 0.500271 0.170066 0.577769
732 3 0.0970238 0.39596 0.57238
163 3 0.232604 0.384376 0.511666
3359 4 0.220828 0.399296 0.505584
161 1 0.253688 0.376621 0.517474
165 3 0.269408 0.392289 0.512372
2859 4 0.26856 0.369834 0.554478
164 3 0.254383 0.371803 0.540162
2857 2 0.284456 0.368286 0.573716
4628 4 0.348243 0.36211 0.50716
4627 2 0.354274 0.383215 0.519134
4629 4 0.360305 0.404321 0.531109
4437 4 0.0815811 0.470875 0.520136
1238 4 0.082768 0.490498 0.518289
3424 2 0.164789 0.468148 0.518338
3425 4 0.146463 0.483039 0.510116
1568 4 0.152649 0.479197 0.577358
3426 4 0.183115 0.453257 0.52656
3358 2 0.208845 0.418514 0.516181
3360 4 0.196862 0.437732 0.526777
4360 2 0.282891 0.440563 0.506203
4361 4 0.300841 0.456985 0.511973
3047 4 0.452694 0.439874 0.511766
4508 4 0.446437 0.490408 0.561692
4439 4 0.458586 0.494735 0.578063
2957 4 0.0673593 0.00522428 0.593703
150 3 0.0692605 0.017872 0.579066
323 3 0.0109778 0.00834441 0.665079
3363 4 0.135431 0.0804228 0.65371
2267 4 0.115902 0.0782873 0.656706
3361 2 0.150181 0.0623786 0.662766
758 4 0.170964 0.00103127 0.598214
2266 2 0.0921954 0.0862049 0.6574
759 4 0.172589 0.0177377 0.645322
757 2 0.171777 0.00938446 0.621768
3183 4 0.240588 0.0354558 0.604428
3181 2 0.223843 0.0523444 0.596708
3182 4 0.207099 0.0692329 0.588988
4541 4 0.189601 0.998784 0.590975
3479 4 0.260558 0.0281256 0.608962
3478 2 0.262644 0.0113548 0.590534
343 3 0.323807 0.0641564 0.667606
3678 4 0.361981 0.0302963 0.646215
3676 2 0.38531 0.0214683 0.644492
3677 4 0.40864 0.0126403 0.642768
4524 4 0.400372 0.0755399 0.597766
2987 4 0.425289 0.0176198 0.653212
2986 2 0.437505 0.0361253 0.664767
1512 4 0.455123 0.086345 0.632223
525 3 0.439652 0.00340543 0.650765
2268 4 0.0684884 0.0941225 0.658095
1333 2 0.198547 0.104359 0.598432
1335 4 0.204127 0.124671 0.611902
3081 4 0.178211 0.175542 0.651073
2874 4 0.264831 0.162685 0.577348
1301 4 0.322127 0.103489 0.652787
3660 4 0.34015 0.162734 0.621818
1300 2 0.326816 0.124171 0.639542
345 3 0.339173 0.0977811 0.660469
1302 4 0.331505 0.144854 0.626297
4111 2 0.424367 0.161501 0.608313
365 3 0.48185 0.125894 0.603938
4112 4 0.444153 0.146213 0.608348
1511 4 0.445546 0.12626 0.603662
364 3 0.49786 0.15763 0.616355
1510 2 0.450334 0.106303 0.617942
361 1 0.481792 0.148606 0.602256
362 3 0.461132 0.156609 0.608441
3079 2 0.193976 0.18061 0.632339
1310 4 0.190881 0.171676 0.666498
2873 4 0.226648 0.173586 0.607745
3080 4 0.209741 0.185679 0.613606
2872 2 0.24574 0.168135 0.592546
169 3 0.242868 0.243183 0.652923
170 3 0.24944 0.208585 0.666242
1495 2 0.327268 0.229146 0.635232
1497 4 0.317064 0.225938 0.612632
4113 4 0.404582 0.17679 0.608278
3390 4 0.410098 0.228924 0.583935
3658 2 0.364484 0.168455 0.621283
1496 4 0.337471 0.232354 0.657833
1041 4 0.392416 0.235957 0.589264
3659 4 0.388818 0.174176 0.620748
1325 4 0.399995 0.240996 0.654746
2898 4 0.407193 0.248213 0.637622
839 4 0.472139 0.239484 0.612748
3389 4 0.457038 0.235751 0.599777
838 2 0.493801 0.236919 0.62497
3388 2 0.433568 0.232337 0.591856
3873 4 0.0149636 0.316131 0.602968
3420 4 0.252105 0.258065 0.640792
3418 2 0.233984 0.26959 0.627986
3419 4 0.215863 0.281114 0.61518
2562 4 0.274811 0.278467 0.602372
2561 4 0.309251 0.242212 0.602636
2560 2 0.292031 0.26034 0.602504
1039 2 0.381777 0.257449 0.596341
1040 4 0.371138 0.278942 0.603418
2896 2 0.428925 0.260109 0.641001
2897 4 0.450657 0.272004 0.644379
2741 4 0.461237 0.276588 0.661486
3558 4 0.0466183 0.413448 0.65433
3315 4 0.108127 0.349387 0.626825
731 1 0.105109 0.413355 0.585075
735 3 0.11627 0.404958 0.603064
3314 4 0.111968 0.399028 0.622164
3313 2 0.110047 0.374208 0.624494
734 3 0.0872681 0.42637 0.592197
2568 4 0.320934 0.342645 0.646783
2566 2 0.306857 0.34784 0.626783
2858 4 0.300353 0.366739 0.592954
2567 4 0.292779 0.353035 0.606782
1569 4 0.137222 0.431816 0.58157
733 3 0.119502 0.426081 0.572063
1567 2 0.144936 0.455507 0.579464
1830 4 0.152749 0.495081 0.635013
1517 4 0.20018 0.450053 0.664445
1765 2 0.306529 0.479491 0.649198
1766 4 0.310885 0.458136 0.636942
4440 4 0.462147 0.510483 0.625392
2605 2 0.480565 0.477964 0.646557
4438 2 0.460367 0.502609 0.601728
325 3 0.011895 0.0221606 0.700092
3540 4 0.0196454 0.0531068 0.685426
324 3 0.00755791 0.0457221 0.671046
3693 4 0.0180861 0.0408989 0.702016
321 1 0.00271099 0.0246238 0.679399
3691 2 0.0276277 0.0383544 0.724987
3766 2 0.081964 0.0481691 0.72323
3767 4 0.0816449 0.0236208 0.718493
3538 2 0.0376373 0.0691487 0.678783
3114 4 0.0650268 0.0130772 0.71589
3768 4 0.0822831 0.0727175 0.727968
1618 2 0.149418 0.0395833 0.730146
1619 4 0.127875 0.0475073 0.740061
3362 4 0.164932 0.0443343 0.671821
1620 4 0.170961 0.0316592 0.720231
1532 4 0.178296 0.015457 0.708682
1745 4 0.22587 0.0365919 0.72223
1531 2 0.19593 0.997735 0.708252
1744 2 0.248697 0.0315665 0.713351
3706 2 0.295457 0.0163032 0.687021
1746 4 0.271525 0.0265411 0.704471
1384 2 0.298062 0.0674928 0.716576
1385 4 0.319841 0.075394 0.707172
1386 4 0.276283 0.0595916 0.72598
3708 4 0.279046 0.0351636 0.686618
341 1 0.33662 0.0814966 0.676183
342 3 0.3573 0.0732824 0.682011
2988 4 0.449721 0.0546308 0.676322
4405 2 0.475348 0.0765897 0.675125
4407 4 0.450565 0.0742283 0.677449
3368 4 0.0177353 0.13422 0.673624
3539 4 0.0556292 0.0851906 0.67214
3367 2 0.00523092 0.138908 0.694763
3477 4 0.0906444 0.0889094 0.734433
3475 2 0.113317 0.0993188 0.736111
344 3 0.326432 0.0902715 0.695094
514 3 0.421707 0.141917 0.721388
512 3 0.415677 0.116901 0.748782
511 1 0.428157 0.12135 0.729978
515 3 0.450229 0.12184 0.735567
513 3 0.424326 0.104668 0.714311
3128 4 0.998772 0.203334 0.734553
1487 4 0.0918617 0.250172 0.733517
1688 4 0.133134 0.213358 0.741801
1687 2 0.141318 0.233418 0.729319
1689 4 0.149503 0.253479 0.716837
1309 2 0.202915 0.174198 0.688271
3450 4 0.215773 0.191615 0.722265
1311 4 0.214948 0.17672 0.710043
3448 2 0.225068 0.193409 0.745407
168 3 0.213911 0.220312 0.662021
166 1 0.235576 0.226613 0.667436
167 3 0.235764 0.234909 0.688891
4674 4 0.305058 0.185371 0.655977
4673 4 0.290657 0.178604 0.703386
4672 2 0.297858 0.181987 0.679682
1326 4 0.390727 0.205222 0.688436
3171 4 0.388811 0.208381 0.707738
1324 2 0.395361 0.223109 0.671591
3169 2 0.409264 0.207038 0.722058
3613 2 0.459168 0.236555 0.728104
3170 4 0.429718 0.205694 0.736377
3615 4 0.444831 0.219761 0.739834
1345 2 0.154431 0.286977 0.708748
1346 4 0.163345 0.26383 0.705595
1347 4 0.145517 0.310124 0.711901
2556 4 0.322064 0.257837 0.668589
2554 2 0.31148 0.26694 0.689332
2555 4 0.300897 0.276043 0.710076
1731 4 0.313016 0.286573 0.724598
1729 2 0.319608 0.279004 0.747499
3614 4 0.473506 0.253349 0.716373
2740 2 0.472879 0.265034 0.680358
2742 4 0.484521 0.253479 0.69923
3556 2 0.0592992 0.413234 0.675879
2460 4 0.00546403 0.334866 0.669425
3557 4 0.07198 0.413021 0.697428
2415 4 0.322254 0.332956 0.663994
2413 2 0.342077 0.339674 0.677671
2414 4 0.3619 0.346393 0.691349
1313 4 0.36346 0.358946 0.706366
1312 2 0.373179 0.348489 0.726894
3464 4 0.0379191 0.456302 0.739979
4742 4 0.032446 0.475305 0.734411
4741 2 0.0088351 0.482559 0.730528
3463 2 0.0627593 0.459104 0.740522
1212 4 0.153963 0.492929 0.737653
3465 4 0.0875995 0.461907 0.741065
3785 4 0.0992681 0.446388 0.73476
3784 2 0.108401 0.423875 0.740673
789 4 0.144058 0.476485 0.732033
1518 4 0.178459 0.42006 0.698051
1516 2 0.189319 0.435056 0.681248
1585 2 0.262177 0.476839 0.750166
1586 4 0.285675 0.481581 0.743057
648 3 0.323693 0.509418 0.742145
2580 4 0.343559 0.504288 0.74267
2606 4 0.486546 0.455597 0.655998
2489 4 0.48048 0.458979 0.7172
697 3 0.482873 0.437614 0.66404
2488 2 0.466751 0.46469 0.737302
4240 2 0.0469894 0.0400873 0.779742
4242 4 0.0349689 0.0501969 0.760287
3692 4 0.0371694 0.0358098 0.747958
4241 4 0.0590098 0.0299777 0.799197
3566 4 0.0632979 0.0438663 0.812441
3565 2 0.086205 0.0380479 0.820602
1275 4 0.0921304 0.0043179 0.779361
1274 4 0.115172 0.0397559 0.752639
1273 2 0.103651 0.0220369 0.766
3536 4 0.158559 0.02369 0.803041