ITEM: TIMESTEP
2440000
ITEM: NUMBER OF ATOMS
4590
ITEM: BOX BOUNDS xy xz yz pp pp pp
-1.3997997999999995e+01 9.9985700000000008e+00 -3.9994279999999947e+00
-9.9985700000000008e+00 9.9985700000000008e+00 0.0000000000000000e+00
-9.9985700000000008e+00 9.9985700000000008e+00 0.0000000000000000e+00
ITEM: ATOMS id type xs ys zs
3982 2 0.00864509 0.0638096 0.0664934
1168 2 0.0295272 0.0747826 0.012859
1169 4 0.0129504 0.067375 0.0313645
622 2 0.243795 0.00266592 0.00684213
2785 2 0.478026 0.0283565 0.0661481
2787 4 0.452669 0.0223971 0.0637548
3232 2 0.127903 0.125765 0.00924527
3234 4 0.148792 0.128554 0.0235297
2502 4 0.157424 0.116377 0.0336269
2500 2 0.177339 0.106942 0.0258273
2501 4 0.197254 0.0975074 0.0180276
4184 4 0.462826 0.105705 0.00739171
1898 4 0.467387 0.116754 0.023809
1897 2 0.490598 0.12251 0.013542
3909 4 0.0134613 0.202891 0.0625781
2012 4 0.226625 0.297662 0.00864442
2975 4 0.246202 0.295461 0.0136046
2967 4 0.227447 0.337226 0.0690135
2968 2 0.323426 0.278303 0.0807643
2969 4 0.298014 0.272109 0.0823364
2974 2 0.268893 0.310508 0.0102251
2976 4 0.291583 0.325555 0.00684548
4437 4 0.300893 0.330306 0.0250609
4435 2 0.325448 0.336731 0.0315741
2970 4 0.348839 0.284498 0.0791923
966 4 0.367495 0.295665 0.0733324
964 2 0.381193 0.297683 0.0522527
965 4 0.394891 0.299702 0.031173
1293 4 0.413988 0.296828 0.0352087
4436 4 0.350003 0.343156 0.0380874
3074 4 0.37915 0.259676 0.00203624
1369 2 0.312068 0.00231678 0.315825
256 2 0.423782 0.00179343 0.0409806
973 2 0.494788 0.325834 0.0183478
1291 2 0.434731 0.315048 0.036121
974 4 0.472195 0.32553 0.029182
3218 4 0.0233028 0.356591 0.0837203
3102 4 0.00459346 0.349733 0.0774124
2771 4 0.079158 0.396659 0.0255447
2770 2 0.100826 0.40861 0.0150228
2965 2 0.248232 0.355425 0.068923
2966 4 0.269017 0.373624 0.0688325
326 4 0.282011 0.373547 0.0534127
325 2 0.307156 0.382367 0.0543014
327 4 0.3323 0.391187 0.0551901
782 4 0.348526 0.386985 0.0470115
671 4 0.319114 0.376942 0.00628641
1029 4 0.342658 0.352926 0.0698258
781 2 0.373719 0.395264 0.045366
783 4 0.398911 0.403544 0.0437205
638 4 0.419503 0.409254 0.0483056
755 4 0.411444 0.359745 0.99775
1292 4 0.455474 0.333268 0.0370334
637 2 0.443557 0.406969 0.0526835
2459 4 0.487197 0.413199 0.0501914
639 4 0.467612 0.404684 0.0570614
555 4 0.480311 0.338108 0.065306
2772 4 0.122495 0.420562 0.00450089
323 4 0.211796 0.441666 0.0621348
2616 4 0.15561 0.445916 0.0798786
322 2 0.237166 0.447355 0.0645119
324 4 0.262536 0.453044 0.066889
860 4 0.283 0.455327 0.0657502
1132 2 0.25094 0.435603 0.00477988
1133 4 0.267646 0.435784 0.0234155
859 2 0.307723 0.465992 0.0646782
861 4 0.332445 0.476657 0.0636062
559 2 0.431696 0.496281 0.0838224
560 4 0.427121 0.47135 0.0819644
257 4 0.44698 0.00701855 0.0513318
3983 4 0.00517103 0.0751541 0.0880228
486 4 0.333243 0.0122389 0.115363
484 2 0.354668 0.029599 0.116583
1925 4 0.437547 0.0708531 0.0889057
758 4 0.360707 0.0259461 0.151732
485 4 0.376094 0.0469591 0.117803
1926 4 0.389261 0.0528717 0.102334
1924 2 0.413404 0.0618624 0.0956199
1437 4 0.456188 0.081707 0.0934106
1007 4 0.0225587 0.0900869 0.0924185
1006 2 0.0356083 0.113006 0.0977363
1008 4 0.0486578 0.135924 0.103054
632 4 0.0658432 0.137693 0.111471
631 2 0.0878894 0.154211 0.110428
1435 2 0.471521 0.0870901 0.113234
2942 4 0.468442 0.161531 0.165783
2941 2 0.489787 0.162482 0.152489
1436 4 0.486854 0.0924733 0.133057
2774 4 0.053576 0.216272 0.100118
2773 2 0.0761641 0.231023 0.104803
2707 2 0.106364 0.174754 0.163473
633 4 0.109936 0.170728 0.109385
2709 4 0.114678 0.196951 0.152635
2775 4 0.0987521 0.245774 0.109489
300 4 0.306367 0.214424 0.147953
762 4 0.325184 0.25557 0.157634
2621 4 0.343256 0.237667 0.0906424
298 2 0.329762 0.209472 0.145505
299 4 0.353157 0.204519 0.143057
294 4 0.372659 0.208129 0.148366
292 2 0.390151 0.216147 0.130802
293 4 0.407643 0.224165 0.113239
3509 4 0.45882 0.169851 0.153164
284 4 0.104178 0.262759 0.120612
283 2 0.128503 0.274753 0.121379
285 4 0.152828 0.286748 0.122146
707 4 0.172471 0.293737 0.12279
1102 2 0.123942 0.322366 0.152757
1104 4 0.142442 0.317012 0.167369
706 2 0.197633 0.296694 0.11922
708 4 0.222794 0.299652 0.11565
2633 4 0.247546 0.285834 0.12094
1511 4 0.191056 0.333994 0.147248
2632 2 0.262895 0.278005 0.104273
2634 4 0.278244 0.270177 0.0876064
2620 2 0.364329 0.253131 0.0985653
760 2 0.333042 0.271588 0.139007
761 4 0.340901 0.287605 0.120379
2622 4 0.385402 0.268595 0.106488
2670 4 0.384023 0.26601 0.12565
2668 2 0.398568 0.283717 0.139453
2669 4 0.413113 0.301425 0.153256
4089 4 0.411373 0.320241 0.11897
3217 2 0.0471451 0.368137 0.0890308
3219 4 0.0709873 0.379683 0.0943414
704 4 0.0858514 0.395916 0.0968375
703 2 0.109175 0.404383 0.106092
688 2 0.0927191 0.363532 0.154936
690 4 0.09666 0.341601 0.146284
1103 4 0.105442 0.32772 0.138144
705 4 0.132499 0.412851 0.115346
689 4 0.0887783 0.385464 0.163588
3519 4 0.152743 0.413649 0.115245
3517 2 0.175111 0.414358 0.126676
1510 2 0.204461 0.348646 0.164592
3222 4 0.339294 0.344738 0.155226
3958 2 0.304725 0.354817 0.159597
3959 4 0.319908 0.339315 0.152485
3960 4 0.289541 0.370318 0.16671
1027 2 0.362211 0.359277 0.0856554
1028 4 0.381765 0.365628 0.101485
4088 4 0.401433 0.364424 0.104967
4087 2 0.406403 0.342333 0.111968
1802 4 0.415026 0.41208 0.15143
287 4 0.493013 0.348222 0.162079
286 2 0.496949 0.351644 0.137525
1560 4 0.0619641 0.451066 0.0995655
1558 2 0.0688263 0.464664 0.120135
2043 4 0.0841137 0.474339 0.157319
1559 4 0.0756884 0.478261 0.140705
3882 4 0.149798 0.468972 0.139987
2615 4 0.141156 0.4593 0.124914
3880 2 0.145038 0.475507 0.163346
2614 2 0.148383 0.452608 0.102396
3518 4 0.197479 0.415068 0.138107
2781 4 0.219123 0.454945 0.155967
1737 4 0.216381 0.417782 0.134085
1735 2 0.237363 0.419308 0.148061
1736 4 0.258345 0.420834 0.162037
1413 4 0.275909 0.420682 0.169227
1801 2 0.435142 0.431011 0.151851
1803 4 0.455257 0.449942 0.152271
2741 4 0.473888 0.445786 0.152569
2740 2 0.498123 0.455467 0.146716
1405 2 0.111042 0.0804508 0.229725
1406 4 0.0857792 0.0788865 0.230201
1407 4 0.136306 0.0820152 0.229248
2472 4 0.155174 0.084969 0.21906
2470 2 0.164914 0.0824395 0.241727
4155 4 0.260883 0.0727043 0.182459
4153 2 0.276581 0.0626997 0.197014
4154 4 0.292278 0.052695 0.211569
1127 4 0.309053 0.0626239 0.222552
546 4 0.331961 0.0100662 0.240588
2645 4 0.347986 0.00305218 0.239002
1126 2 0.309448 0.075028 0.244162
759 4 0.359494 0.031373 0.201391
757 2 0.3601 0.0286595 0.176561
2644 2 0.373095 0.0107309 0.235765
1688 4 0.417647 0.021773 0.226623
2646 4 0.398205 0.0184096 0.232529
1687 2 0.442574 0.0272631 0.221404
1689 4 0.467501 0.0327533 0.216185
3555 4 0.488588 0.0400297 0.213111
654 4 0.0595319 0.130864 0.236682
652 2 0.0651293 0.108096 0.238606
2708 4 0.0980494 0.152557 0.174312
2838 4 0.0935195 0.131893 0.17796
2836 2 0.115599 0.12737 0.186703
2514 4 0.146522 0.141611 0.19087
2837 4 0.137679 0.122846 0.195445
653 4 0.0707267 0.085327 0.240531
2512 2 0.170714 0.140299 0.195913
53 3 0.207473 0.156943 0.194555
2513 4 0.194906 0.138986 0.200956
51 1 0.225821 0.161261 0.209186
55 3 0.227563 0.142283 0.220491
1475 4 0.227624 0.12355 0.22868
1474 2 0.24518 0.126433 0.246806
3510 4 0.416943 0.165307 0.18148
2945 4 0.0386978 0.231363 0.201357
621 4 0.11175 0.236987 0.217192
619 2 0.116725 0.225203 0.237989
2534 4 0.239544 0.23313 0.241279
2533 2 0.230308 0.208506 0.241833
52 3 0.222364 0.177352 0.224208
2535 4 0.221072 0.183883 0.242388
474 4 0.294948 0.212625 0.16488
54 3 0.245793 0.169134 0.197441
713 4 0.253305 0.236072 0.226361
712 2 0.2748 0.237399 0.213218
473 4 0.254936 0.184621 0.187953
472 2 0.274942 0.198623 0.176416
714 4 0.296296 0.238725 0.200076
931 2 0.390283 0.247755 0.180125
3508 2 0.437881 0.167579 0.167322
933 4 0.409752 0.235873 0.177522
2537 4 0.427646 0.239022 0.188339
1763 4 0.00559486 0.318805 0.223918
2909 4 0.0237384 0.316061 0.230864
2908 2 0.0386332 0.300057 0.224415
2944 2 0.0536541 0.253217 0.207322
2910 4 0.053528 0.284053 0.217965
2946 4 0.0686103 0.27507 0.213287
3108 4 0.100034 0.312969 0.199217
684 4 0.112875 0.301391 0.193868
683 4 0.117825 0.255457 0.207685
682 2 0.11535 0.278424 0.200777
4076 4 0.307803 0.255674 0.193863
932 4 0.370814 0.259637 0.182728
4075 2 0.332453 0.254184 0.194591
4077 4 0.357103 0.252693 0.195318
4510 2 0.361869 0.329846 0.236357
2580 4 0.424662 0.306732 0.228881
2536 2 0.446141 0.259385 0.18675
3632 4 0.482876 0.291254 0.196917
2538 4 0.464637 0.279748 0.185162
2578 2 0.433538 0.329523 0.238214
3106 2 0.103072 0.337509 0.203632
3905 4 0.10367 0.393581 0.175815
3904 2 0.122032 0.410567 0.186431
3107 4 0.10611 0.362048 0.208048
417 4 0.256873 0.344797 0.24185
1512 4 0.217866 0.363298 0.181935
2511 4 0.236143 0.367533 0.176472
2509 2 0.260104 0.377986 0.170338
2510 4 0.284065 0.388438 0.164204
4511 4 0.371266 0.339184 0.214418
3221 4 0.368588 0.338277 0.194258
3220 2 0.353941 0.341508 0.174742
2041 2 0.0872633 0.46165 0.1781
2042 4 0.090413 0.448961 0.198881
2817 4 0.0804281 0.446908 0.217235
2815 2 0.0966674 0.44461 0.235702
2816 4 0.112907 0.442313 0.25417
3881 4 0.140277 0.482041 0.186706
3906 4 0.140395 0.427554 0.197047
2779 2 0.196829 0.451587 0.168066
2780 4 0.174535 0.448229 0.180165
3786 4 0.177324 0.491224 0.235624
3784 2 0.164895 0.481442 0.215135
3785 4 0.152465 0.47166 0.194645
2140 2 0.22951 0.445359 0.236897
2141 4 0.242537 0.44793 0.215403
1412 4 0.324136 0.433889 0.184986
1411 2 0.300022 0.427286 0.177107
1847 4 0.344055 0.441905 0.187696
854 4 0.344068 0.477745 0.247702
1846 2 0.368601 0.449814 0.193638
1388 4 0.410295 0.456334 0.208479
1848 4 0.393146 0.457724 0.199581
1387 2 0.431887 0.448576 0.213901
1389 4 0.453478 0.440818 0.219323
2657 4 0.453136 0.430903 0.237693
3646 2 0.1215 0.0792468 0.3334
2127 4 0.169167 0.00744957 0.309895
2125 2 0.192539 0.0205219 0.314738
2471 4 0.174654 0.0799099 0.264394
2262 4 0.157588 0.00661255 0.326608
1675 2 0.258084 0.049371 0.318483
1676 4 0.235711 0.0352449 0.311886
2126 4 0.215911 0.0335943 0.319581
1677 4 0.280458 0.0634972 0.325079
1695 4 0.290382 0.0822143 0.323509
544 2 0.314679 0.000413879 0.257802
1864 2 0.391776 0.0578855 0.294883
1865 4 0.411039 0.0750273 0.285905
1866 4 0.372513 0.0407437 0.303861
14 3 0.456649 0.0679739 0.276518
15 3 0.444427 0.0826911 0.307681
726 4 0.455237 0.072729 0.320117
2612 4 0.0941199 0.138443 0.322597
3648 4 0.135396 0.0892232 0.313803
1476 4 0.262736 0.129315 0.264933
747 4 0.281456 0.129353 0.259952
3235 2 0.266825 0.164433 0.319224
1693 2 0.30479 0.0880051 0.303111
1128 4 0.309842 0.087432 0.265771
745 2 0.30607 0.131338 0.254053
746 4 0.330684 0.133323 0.248154
1694 4 0.319199 0.0937958 0.282714
13 3 0.425615 0.0842983 0.275293
11 1 0.446766 0.0849575 0.285099
2462 4 0.475423 0.134688 0.282857
2461 2 0.484675 0.157818 0.274563
12 3 0.460624 0.105206 0.280309
2846 4 0.480549 0.116316 0.27992
3454 2 0.0152421 0.231903 0.279152
3897 4 0.0462668 0.205484 0.298148
3456 4 0.04027 0.235743 0.274474
3895 2 0.0594288 0.187022 0.298648
3896 4 0.0725908 0.16856 0.299147
620 4 0.121701 0.213418 0.258787
253 2 0.115201 0.197519 0.294973
254 4 0.107847 0.208655 0.274741
255 4 0.122556 0.186384 0.315206
3708 4 0.198327 0.245935 0.296654
3236 4 0.261386 0.173283 0.296979
1795 2 0.487003 0.210991 0.323392
3684 4 0.468936 0.469097 0.490915
1797 4 0.473201 0.187737 0.32258
2463 4 0.493927 0.180948 0.266269
3019 2 0.156052 0.308147 0.28141
3021 4 0.133076 0.304434 0.29223
3020 4 0.179028 0.31186 0.270591
269 4 0.192954 0.330299 0.26918
270 4 0.238999 0.338024 0.247713
3706 2 0.21114 0.261357 0.313762
268 2 0.215976 0.334162 0.258446
3707 4 0.223953 0.27678 0.330869
438 4 0.241088 0.289888 0.327847
109 3 0.302123 0.324228 0.285383
108 3 0.327661 0.304492 0.299004
106 1 0.324927 0.322558 0.2859
110 3 0.332507 0.320042 0.264758
416 4 0.286433 0.329529 0.276548
3014 4 0.391757 0.253913 0.304454
4512 4 0.352472 0.320508 0.258296
3013 2 0.41301 0.259197 0.290692
3059 4 0.453171 0.276873 0.276984
3015 4 0.434263 0.264481 0.27693
3058 2 0.476518 0.289699 0.282348
3060 4 0.499866 0.302526 0.287712
415 2 0.271653 0.337163 0.259199
107 3 0.337418 0.3418 0.295075
2660 4 0.341657 0.408268 0.287785
1862 4 0.358685 0.401415 0.287755
1861 2 0.378283 0.391907 0.279237
582 4 0.412681 0.373536 0.263845
1863 4 0.397881 0.3824 0.27072
580 2 0.419603 0.364592 0.285509
581 4 0.426524 0.355649 0.307173
2579 4 0.442415 0.352314 0.247546
3818 4 0.433921 0.345094 0.321003
3817 2 0.458492 0.356059 0.323048
3819 4 0.483063 0.367024 0.325093
669 4 0.123 0.458207 0.262857
667 2 0.145802 0.472868 0.266786
1401 4 0.159362 0.425524 0.320658
278 4 0.177408 0.428078 0.311849
277 2 0.187306 0.434816 0.289339
1574 4 0.497818 0.403775 0.371293
668 4 0.168604 0.487529 0.270714
279 4 0.197205 0.441554 0.26683
2142 4 0.216483 0.442787 0.258392
2659 2 0.331909 0.420124 0.306163
853 2 0.354867 0.493445 0.265591
2661 4 0.322161 0.43198 0.324541
2656 2 0.465859 0.423866 0.257084
2658 4 0.478582 0.416828 0.276474
3647 4 0.107603 0.0692704 0.352997
3323 4 0.50025 0.287599 0.414213
1371 4 0.324813 0.00454176 0.33748
724 2 0.475756 0.0802748 0.334501
2671 2 0.0209874 0.142602 0.347536
2673 4 0.0419561 0.146792 0.361762
2613 4 0.0621984 0.143873 0.359769
2611 2 0.0781592 0.141158 0.341183
365 4 0.27901 0.141751 0.352692
3237 4 0.272263 0.155582 0.34147
364 2 0.300153 0.150027 0.365993
366 4 0.321297 0.158303 0.379294
428 4 0.445162 0.148947 0.336504
512 4 0.440085 0.132684 0.347727
513 4 0.389299 0.121411 0.352011
511 2 0.414692 0.127048 0.349869
2237 4 0.393964 0.104189 0.396307
429 4 0.49528 0.15995 0.345651
427 2 0.470221 0.154449 0.341077
249 4 0.475867 0.142185 0.413113
1851 4 0.492749 0.15315 0.405561
725 4 0.496274 0.0878206 0.348886
2448 4 0.0190364 0.238043 0.345792
527 4 0.0228481 0.168645 0.406391
2446 2 0.0394703 0.248588 0.359141
894 4 0.0373988 0.177532 0.393943
892 2 0.0626598 0.179128 0.393203
722 4 0.10563 0.188213 0.399717
893 4 0.0879208 0.180724 0.392463
695 4 0.102442 0.225199 0.403549
721 2 0.127287 0.184679 0.410325
723 4 0.148944 0.181146 0.420933
649 2 0.237044 0.214877 0.406402
651 4 0.254965 0.214364 0.389079
383 4 0.337716 0.166426 0.369294
382 2 0.35618 0.184942 0.361265
384 4 0.374644 0.203458 0.353235
2447 4 0.0599043 0.259134 0.372489
2652 4 0.0758302 0.253393 0.362839
231 4 0.181221 0.25608 0.397175
229 2 0.16269 0.258801 0.381241
2650 2 0.100668 0.252714 0.361811
2651 4 0.125505 0.252036 0.360782
230 4 0.144159 0.261523 0.365307
2667 4 0.188732 0.324453 0.366474
436 2 0.254797 0.302707 0.346195
437 4 0.268507 0.315525 0.364542
345 4 0.280635 0.308887 0.37997
343 2 0.30422 0.321093 0.385371
344 4 0.327804 0.3333 0.390772
1143 4 0.429025 0.271192 0.418694
1756 2 0.100887 0.377632 0.382072
1758 4 0.0813457 0.373302 0.398125
1757 4 0.120429 0.381963 0.36602
1400 4 0.130807 0.39308 0.351662
1399 2 0.145085 0.409302 0.33616
2665 2 0.201129 0.342974 0.380848
2666 4 0.213525 0.361495 0.395221
2850 4 0.32437 0.411239 0.346867
2848 2 0.329956 0.396532 0.365202
2849 4 0.335541 0.381824 0.383536
2492 4 0.344749 0.382084 0.400724
3 3 0.343557 0.367072 0.372806
2 3 0.35277 0.368183 0.409283
5 3 0.348445 0.335878 0.390716
1 1 0.355894 0.358402 0.389092
4 3 0.378934 0.363139 0.383811
4068 4 0.391171 0.36076 0.368248
4066 2 0.416593 0.364663 0.36991
494 4 0.497358 0.3731 0.338109
1575 4 0.450753 0.381489 0.357557
4067 4 0.442015 0.368567 0.371571
1573 2 0.474285 0.392632 0.364425
3127 2 0.0420274 0.418325 0.403245
3128 4 0.0632005 0.425232 0.389615
599 4 0.124097 0.455682 0.376863
598 2 0.0995053 0.44945 0.383291
600 4 0.0749131 0.443217 0.38972
3167 4 0.137889 0.473385 0.377995
3168 4 0.179528 0.49278 0.35156
3166 2 0.158709 0.483083 0.364777
3615 4 0.287236 0.443535 0.385836
3613 2 0.309215 0.445373 0.373395
3771 4 0.347552 0.448017 0.350721
3614 4 0.331194 0.447211 0.360954
3769 2 0.370336 0.46336 0.351776
3770 4 0.39312 0.478703 0.35283
1998 4 0.0103703 0.00872921 0.486614
2672 4 1.86886e-05 0.138413 0.333309
2962 2 0.310891 0.0181762 0.481184
2964 4 0.323394 0.0383934 0.49322
1977 4 0.417552 0.0133119 0.470958
4389 4 0.430424 0.0201531 0.456223
1975 2 0.395166 0.00197275 0.480543
2721 4 0.498284 0.0368306 0.491023
4387 2 0.451108 0.0375219 0.450994
2719 2 0.490847 0.0169633 0.476242
4013 4 0.491392 0.0562532 0.443739
4388 4 0.471792 0.0548907 0.445766
526 2 0.00915935 0.161371 0.426949
2695 2 0.064855 0.129359 0.475453
2697 4 0.0411181 0.128091 0.483946
2826 4 0.0227583 0.124951 0.493019
2696 4 0.0885918 0.130628 0.46696
4001 4 0.104732 0.126093 0.455692
4000 2 0.128405 0.137358 0.449409
4002 4 0.152078 0.148624 0.443126
3327 4 0.169989 0.162936 0.442025
1181 4 0.335052 0.148608 0.450662
1180 2 0.356297 0.139311 0.452891
1182 4 0.377541 0.130014 0.455119
2238 4 0.379732 0.125643 0.437506
2236 2 0.386848 0.114916 0.416906
828 4 0.431452 0.15008 0.452839
826 2 0.433177 0.156483 0.477005
248 4 0.437513 0.159812 0.433995
247 2 0.45669 0.150999 0.423554
3354 4 0.0162487 0.235117 0.437347
694 2 0.109403 0.234944 0.426024
934 2 0.0975563 0.241356 0.487835
4466 4 0.132244 0.19191 0.497166
696 4 0.116364 0.244689 0.448498
4465 2 0.155324 0.191134 0.487963
650 4 0.219123 0.21539 0.423725
3325 2 0.189561 0.181972 0.438242
3326 4 0.209133 0.201008 0.43446
4467 4 0.178404 0.190358 0.47876
2736 4 0.380196 0.247757 0.493399
355 2 0.440081 0.217939 0.486237
357 4 0.462121 0.23084 0.477287
356 4 0.418042 0.205037 0.495188
4096 2 0.297068 0.000733785 0.022957
3805 2 0.49877 0.217425 0.474384
3806 4 0.482061 0.2324 0.477945
936 4 0.106363 0.247323 0.464778
2376 4 0.383139 0.308021 0.481263
1821 4 0.403909 0.310002 0.480749
2374 2 0.370781 0.326301 0.487139
1141 2 0.454392 0.27407 0.41717
1142 4 0.479759 0.276947 0.415646
2734 2 0.404677 0.257647 0.497982
1819 2 0.426345 0.319517 0.491383
4098 4 0.276843 0.00266068 0.0369813
899 4 0.442858 0.279479 0.491032
2162 4 0.343893 0.493253 0.0562203
898 2 0.458931 0.272325 0.474674
900 4 0.475005 0.265172 0.458315
570 4 0.00364344 0.347178 0.465687
377 4 0.00360948 0.408391 0.428094
4433 4 0.00830498 0.342885 0.485615
3129 4 0.0208543 0.411419 0.416874
4432 2 0.0304984 0.355866 0.494137
376 2 0.0158427 0.410077 0.450022
4269 4 0.0996427 0.415182 0.472904
4268 4 0.101481 0.367762 0.461773
4267 2 0.100562 0.391472 0.467338
3425 4 0.220159 0.349426 0.495072
930 4 0.2363 0.360323 0.485485
928 2 0.254485 0.378107 0.47574
929 4 0.27267 0.39589 0.465995
2493 4 0.333495 0.41512 0.433743
2491 2 0.339122 0.398602 0.417233
981 4 0.341726 0.404784 0.500185
3984 4 0.0121191 0.052465 0.044964
2375 4 0.358423 0.344582 0.493016
508 2 0.49172 0.339513 0.49063
509 4 0.46646 0.33765 0.492158
3696 4 0.481344 0.404917 0.48435
2456 4 0.0429655 0.426816 0.478203
378 4 0.0280759 0.411764 0.471949
2457 4 0.0919733 0.425696 0.486903
2455 2 0.0674694 0.426256 0.482553
3024 4 0.334634 0.42756 0.448417
3022 2 0.338453 0.42603 0.473031
3023 4 0.342272 0.4245 0.497645
2845 2 0.497651 0.108726 0.265059
875 4 0.410038 0.49449 0.494884
3695 4 0.472857 0.451576 0.481883
3694 2 0.4771 0.428246 0.483116
113 3 0.0591697 0.0988147 0.999837
3563 4 0.13605 0.43908 0.000205453
3774 4 0.00788358 0.051441 0.53758
3772 2 0.0271512 0.0689216 0.545999
1997 4 0.00194752 0.0359161 0.52623
1996 2 0.00615889 0.0223226 0.506422
912 4 0.338039 0.0431978 0.508876
910 2 0.363214 0.0445168 0.510571
911 4 0.388389 0.0458357 0.512267
3146 4 0.405872 0.0591785 0.507199
3145 2 0.420744 0.0736364 0.52371
3147 4 0.435617 0.0880942 0.540222
1742 4 0.409819 0.0861971 0.557732
2588 4 0.463693 0.0722275 0.569519
3773 4 0.0464188 0.0864022 0.554418
2811 4 0.0766417 0.157067 0.518313
3462 4 0.349483 0.15019 0.583807
3460 2 0.365383 0.134295 0.580893
514 2 0.417578 0.152466 0.539153
516 4 0.42864 0.165105 0.519338
515 4 0.406515 0.139827 0.558967
1741 2 0.390571 0.0933393 0.569841
827 4 0.434903 0.162885 0.50117
3461 4 0.381284 0.118399 0.577979
1743 4 0.371322 0.100482 0.581951
2587 2 0.477711 0.0951161 0.573008
2589 4 0.491729 0.118005 0.576497
282 4 0.448691 0.476845 0.948229
1145 4 0.0400595 0.165276 0.566015
1144 2 0.0494767 0.16437 0.542945
1146 4 0.0588939 0.163464 0.519875
935 4 0.0887497 0.235388 0.510892
2699 4 0.0850104 0.242823 0.576351
2809 2 0.100461 0.165216 0.510164
2698 2 0.109788 0.241818 0.576854
2778 4 0.150308 0.23518 0.586242
2810 4 0.124281 0.173365 0.502015
2700 4 0.134566 0.240814 0.577357
3525 4 0.338939 0.165235 0.582295
3523 2 0.344698 0.178491 0.561323
3524 4 0.350457 0.191747 0.540351
575 4 0.36745 0.18414 0.538082
574 2 0.384867 0.187819 0.519824
939 4 0.371199 0.235535 0.575755
3038 4 0.45009 0.237272 0.564732
3037 2 0.472495 0.230648 0.560468
1952 4 0.00700484 0.302543 0.562561
2174 4 0.0203735 0.319556 0.556084
2173 2 0.0450378 0.318178 0.55722
2175 4 0.0697021 0.316799 0.558356
2172 4 0.0850402 0.310041 0.568826
3426 4 0.236685 0.327458 0.534827
2346 4 0.0649369 0.365361 0.517731
2344 2 0.0865557 0.379943 0.525654
2345 4 0.108175 0.394526 0.533578
4434 4 0.0526919 0.368847 0.502659
1362 4 0.129284 0.396339 0.535407
1360 2 0.14835 0.400272 0.552008
1361 4 0.167416 0.404205 0.568609
1250 4 0.242485 0.340688 0.548032
3496 2 0.223961 0.387651 0.573186
3497 4 0.23793 0.389851 0.552274
1040 4 0.252718 0.404519 0.543333
3424 2 0.228422 0.338442 0.514949
1039 2 0.276277 0.41554 0.536427
1249 2 0.265948 0.34172 0.557157
1251 4 0.289411 0.342752 0.566281
3701 4 0.312862 0.418819 0.542495
980 4 0.350529 0.358196 0.501596
3177 4 0.450228 0.366352 0.560201
558 4 0.450067 0.377183 0.543761
3175 2 0.457782 0.37792 0.58174
556 2 0.460566 0.388813 0.523191
557 4 0.471066 0.400442 0.502621
1041 4 0.299836 0.426562 0.52952
3700 2 0.336315 0.419542 0.551517
3702 4 0.359767 0.420265 0.560538
2927 4 0.380251 0.426786 0.558985
2926 2 0.398474 0.437586 0.543157
2928 4 0.416697 0.448386 0.527329
3683 4 0.423918 0.46444 0.514055
3682 2 0.446427 0.466768 0.502485
2308 2 0.49522 0.47016 0.577907
3869 4 0.0226096 0.0725733 0.64387
3870 4 0.0382016 0.0618969 0.598345
3868 2 0.0304056 0.0672351 0.621108
4163 4 0.041038 0.0733369 0.653587
341 4 0.1599 0.0432301 0.616627
340 2 0.149612 0.0236624 0.630827
346 2 0.200627 0.0694451 0.644404
348 4 0.19631 0.0800011 0.622669
3308 4 0.207435 0.0772338 0.605801
3935 4 0.340159 0.0785597 0.637592
3934 2 0.325939 0.0556215 0.640089
3936 4 0.311718 0.0326832 0.642586
458 4 0.417868 0.0707057 0.659197
2277 4 0.492834 0.0634711 0.620162
2275 2 0.493884 0.0749979 0.642315
319 2 0.00620984 0.10948 0.585194
4581 4 0.04273 0.162736 0.58532
320 4 0.0291215 0.109512 0.59522
4579 2 0.0466056 0.163713 0.610032
1097 4 0.047489 0.114637 0.602789
1096 2 0.0716919 0.122102 0.595459
4580 4 0.0504812 0.164691 0.634745
1098 4 0.0958949 0.129567 0.58813
3305 4 0.108597 0.144599 0.596483
3304 2 0.128927 0.162725 0.600681
3309 4 0.24345 0.116207 0.592182
3307 2 0.225443 0.0967203 0.598991
3095 4 0.348644 0.0895411 0.653517
3094 2 0.357358 0.107795 0.637197
3096 4 0.366072 0.126049 0.620876
1184 4 0.305162 0.145034 0.655543
98 3 0.384367 0.128971 0.629565
97 3 0.410164 0.16094 0.625797
99 3 0.418876 0.128725 0.613749
96 1 0.407447 0.138406 0.63006
100 3 0.416217 0.135378 0.650593
457 2 0.429033 0.0897657 0.644781
459 4 0.440198 0.108826 0.630364
2831 4 0.453653 0.125651 0.626177
2830 2 0.477759 0.135497 0.619998
1590 4 0.389307 0.445539 0.977634
2230 2 0.000539874 0.204432 0.613148
2231 4 0.0255323 0.208273 0.618008
3116 4 0.037204 0.209623 0.601205
3115 2 0.0556315 0.229458 0.596443
4346 4 0.0578655 0.183171 0.639932
4345 2 0.047238 0.177536 0.662364
3117 4 0.074059 0.249293 0.591681
3306 4 0.149256 0.180851 0.604879
2776 2 0.157671 0.213647 0.591272
2777 4 0.165033 0.192113 0.596302
2264 4 0.267329 0.231273 0.643193
2263 2 0.247762 0.216851 0.654979
3197 4 0.284076 0.232355 0.633527
3196 2 0.305438 0.228026 0.622926
1183 2 0.324706 0.164341 0.658099
3198 4 0.3268 0.223697 0.612326
938 4 0.344816 0.219507 0.617067
937 2 0.358008 0.227521 0.596411
1185 4 0.34425 0.183647 0.660655
4224 4 0.422247 0.174203 0.613643
4222 2 0.442366 0.187927 0.602025
4223 4 0.462485 0.201652 0.590406
2499 4 0.00752885 0.273374 0.656682
1206 4 0.0116325 0.261728 0.641763
1204 2 0.0338043 0.267922 0.629571
1205 4 0.055976 0.274116 0.617379
2171 4 0.074613 0.278686 0.60756
2170 2 0.0798266 0.294364 0.588193
2415 4 0.234129 0.297197 0.623069
2413 2 0.257579 0.304531 0.632458
2414 4 0.281029 0.311864 0.641847
1080 4 0.299239 0.319057 0.633589
1078 2 0.322585 0.32037 0.643109
1079 4 0.34593 0.321684 0.652629
3025 2 0.392058 0.327545 0.654346
3026 4 0.366877 0.324478 0.657835
3158 4 0.436421 0.326564 0.64662
1179 4 0.0827569 0.387642 0.6146
1177 2 0.0928595 0.402142 0.633654
3119 4 0.155539 0.377381 0.630229
3118 2 0.161235 0.39081 0.609353
3120 4 0.166932 0.404238 0.588477
3498 4 0.209992 0.38545 0.594097
3027 4 0.41724 0.330612 0.650857
3176 4 0.465335 0.389487 0.603279
944 4 0.460366 0.402257 0.614676
3157 2 0.459842 0.339291 0.641385
943 2 0.48222 0.41117 0.626631
3159 4 0.483264 0.352018 0.636149
10 3 0.0411518 0.4403 0.636721
6 1 0.0569053 0.44102 0.653288
2324 4 0.0199595 0.435382 0.636108
9 3 0.0631876 0.462675 0.661391
1178 4 0.102962 0.416642 0.652709
7 3 0.0759155 0.434385 0.644831
3738 4 0.0902866 0.448184 0.633898
3736 2 0.114645 0.458932 0.629848
3737 4 0.139004 0.469681 0.625798
2016 4 0.12211 0.415398 0.646703
2157 4 0.185487 0.430938 0.58899
2014 2 0.143525 0.423491 0.659657
2216 4 0.159491 0.474402 0.618392
2215 2 0.18282 0.479162 0.608303
2217 4 0.206149 0.483922 0.598214
2155 2 0.208227 0.435076 0.600299
2015 4 0.164939 0.431584 0.672611
4536 4 0.226019 0.492279 0.592853
2156 4 0.230967 0.439215 0.611608
2684 4 0.294882 0.435081 0.638466
1167 4 0.234613 0.436293 0.631062
1165 2 0.259848 0.443285 0.633918
1166 4 0.285083 0.450277 0.636774
4534 2 0.251298 0.498941 0.590142
2683 2 0.316629 0.428389 0.631579
2685 4 0.338376 0.421696 0.624691
903 4 0.35526 0.429594 0.614604
901 2 0.37849 0.44006 0.622905
902 4 0.401719 0.450525 0.631207
1325 4 0.411623 0.464737 0.619001
4061 4 0.428113 0.495393 0.663691
1324 2 0.433791 0.463707 0.607886
1018 2 0.469574 0.491949 0.663273
1326 4 0.455959 0.462676 0.596772
2310 4 0.47438 0.460375 0.591056
1020 4 0.491862 0.485153 0.658828
2594 4 0.497214 0.486746 0.639673
4162 2 0.0600048 0.0746217 0.670124
4164 4 0.0789717 0.0759064 0.686661
634 2 0.0694545 0.0505007 0.7245
636 4 0.0700876 0.064629 0.703987
635 4 0.0688215 0.0363724 0.745012
347 4 0.204944 0.058889 0.666139
770 4 0.159496 0.0432146 0.729885
3826 2 0.181465 0.0643334 0.700939
3827 4 0.165733 0.0614616 0.720616
3828 4 0.197197 0.0672052 0.681262
3002 4 0.283111 0.0704653 0.69126
3314 4 0.275843 0.0513388 0.694621
3313 2 0.279779 0.0281777 0.698538
3315 4 0.283715 0.00501658 0.702455
3408 4 0.337915 0.0263465 0.747847
2076 4 0.336503 0.0284868 0.727619
2074 2 0.350355 0.0297557 0.706674
2075 4 0.364207 0.0310246 0.68573
3579 4 0.361739 0.0125317 0.6784
2276 4 0.494934 0.0865248 0.664468
3364 2 0.22716 0.166388 0.689186
1194 4 0.29169 0.137294 0.669282
1192 2 0.269286 0.139372 0.679288
3365 4 0.22922 0.143462 0.696632
1193 4 0.246882 0.14145 0.689295
3001 2 0.306459 0.0808952 0.68324
3003 4 0.329808 0.0913251 0.675219
1991 4 0.346945 0.0823272 0.671802
1990 2 0.363966 0.0899442 0.689885
1992 4 0.380987 0.0975613 0.707969
2193 4 0.394729 0.113824 0.703907
2191 2 0.418821 0.12573 0.70043
2192 4 0.442913 0.137635 0.696952
443 4 0.459516 0.129258 0.696582
442 2 0.482991 0.132234 0.70622
3142 2 0.000823725 0.167755 0.695153
4347 4 0.0366105 0.1719 0.684795
3144 4 0.0219586 0.182117 0.685911
3366 4 0.2251 0.189313 0.68174
2265 4 0.228195 0.20243 0.666765
289 2 0.245631 0.336944 0.743119
291 4 0.249728 0.329098 0.720064
4308 4 0.268515 0.323629 0.720298
3263 4 0.429456 0.278581 0.731275
3262 2 0.441051 0.296091 0.715366
3264 4 0.452645 0.313601 0.699456
2034 4 0.472906 0.317105 0.697196
3337 2 0.00731927 0.353626 0.731927
3339 4 0.0317809 0.352814 0.727662
3205 2 0.0752696 0.347492 0.726703
3206 4 0.0507214 0.349194 0.725011
3207 4 0.0998178 0.34579 0.728396
2984 4 0.114935 0.3616 0.732179
2985 4 0.164721 0.360743 0.730083
2983 2 0.139828 0.361171 0.731131
4521 4 0.181828 0.371852 0.721562
4519 2 0.206473 0.382769 0.720326
4520 4 0.231118 0.393686 0.71909
1191 4 0.250901 0.394843 0.726067
1189 2 0.273394 0.402752 0.737262
4306 2 0.28986 0.330763 0.706973
4307 4 0.311204 0.337896 0.693647
2037 4 0.328449 0.34303 0.683311
2035 2 0.34977 0.360126 0.686838
1190 4 0.295888 0.410661 0.748458
3091 2 0.399886 0.404898 0.704006
3093 4 0.391298 0.38684 0.687443
2036 4 0.371091 0.377223 0.690365
2032 2 0.490228 0.338426 0.696945
2435 4 0.00086326 0.475752 0.683775
3070 2 0.019049 0.423823 0.706213
3071 4 0.0340508 0.426823 0.685995
8 3 0.0480017 0.426644 0.670476
2434 2 0.0169437 0.496899 0.67765
888 4 0.0686901 0.465086 0.680293
2769 4 0.0017308 0.124844 0.888326
886 2 0.0831391 0.485569 0.690215
4413 4 0.125104 0.466843 0.708149
4411 2 0.116992 0.442164 0.705698
4412 4 0.10888 0.417484 0.703246
4485 4 0.144892 0.475884 0.711643
3449 4 0.111966 0.497836 0.708555
4484 4 0.189457 0.484908 0.687336
4483 2 0.167174 0.480396 0.69949
4349 4 0.19087 0.46734 0.679689
4348 2 0.2103 0.45535 0.681925
4350 4 0.22973 0.443361 0.684162
536 4 0.31689 0.410302 0.751744
535 2 0.33166 0.424374 0.734885
537 4 0.346429 0.438447 0.718025
3092 4 0.408474 0.422957 0.720569
2091 4 0.0694567 0.0375124 0.764948
2089 2 0.0749943 0.0433941 0.788856
2090 4 0.080532 0.0492758 0.812763
1004 4 0.0968252 0.0598476 0.822895
1003 2 0.120864 0.071932 0.819484
456 4 0.11956 0.000976235 0.752862
769 2 0.16583 0.0520373 0.752829
771 4 0.172164 0.06086 0.775774
1305 4 0.182453 0.0784903 0.776253
1303 2 0.173352 0.0853579 0.797893
2184 4 0.196607 0.00346635 0.776565
2182 2 0.207869 0.0237472 0.789291
2183 4 0.219131 0.044028 0.802017
2564 4 0.235171 0.0501595 0.81285
2563 2 0.257882 0.0509578 0.823617
2437 2 0.268622 0.0100454 0.789216
3406 2 0.313549 0.019832 0.754976
2565 4 0.280594 0.0517562 0.834385
3407 4 0.289182 0.0133174 0.762105
4336 2 0.314651 0.0380726 0.825735
2439 4 0.272511 0.0223561 0.7675
4338 4 0.338447 0.0390885 0.817518
2321 4 0.357826 0.0418458 0.825306
2320 2 0.382208 0.0494519 0.831994
2724 4 0.0336674 0.143595 0.807552
2722 2 0.0415216 0.132623 0.787457