ITEM: TIMESTEP
452500
ITEM: NUMBER OF ATOMS
1600
ITEM: BOX BOUNDS xy xz yz pp pp pp
-6.9325799999999997e+00 7.6258379999999679e+00 6.9325799999996818e-01
-6.9325799999999997e+00 6.9325799999999997e+00 0.0000000000000000e+00
-6.9325799999999997e+00 6.9325799999999997e+00 0.0000000000000000e+00
ITEM: ATOMS id type xs ys zs
134 3 0.0123162 0.0328707 0.0327841
532 4 0.0379826 0.0148287 0.0339497
530 2 0.0617663 0.0131278 0.00682189
1039 4 0.2818 0.015482 0.0119119
385 4 0.349201 0.0936143 0.0203886
383 2 0.374557 0.0675359 0.0139202
17 3 0.361793 0.123686 0.107194
712 4 0.367716 0.0455953 0.116528
998 2 0.430449 0.0616077 0.112682
999 4 0.464837 0.0701992 0.108893
230 3 0.491794 0.075476 0.1154
1000 4 0.396061 0.0530162 0.116472
384 4 0.399913 0.0414574 0.00745189
1023 4 0.465155 0.99614 0.0687684
586 4 0.483872 0.00670884 0.0871678
323 2 0.467976 0.0911011 0.999462
325 4 0.441625 0.116991 0.000988607
324 4 0.494326 0.0652114 0.997936
1442 2 0.172362 0.21143 0.0239921
1444 4 0.149241 0.200296 0.0488075
645 4 0.252572 0.148265 0.0160079
644 2 0.281964 0.167651 0.0143064
310 4 0.37412 0.143 0.0910999
646 4 0.311355 0.187037 0.0126049
508 4 0.321895 0.210709 0.000977864
308 2 0.384824 0.141181 0.0566835
309 4 0.395528 0.139363 0.022267
139 3 0.414896 0.158973 0.0185806
1214 2 0.182134 0.271162 0.121102
1216 4 0.196444 0.286796 0.0923225
1060 4 0.199816 0.315471 0.0861329
1058 2 0.210536 0.347881 0.0960181
1423 4 0.385259 0.366533 0.00303292
1059 4 0.221256 0.380292 0.105903
1096 4 0.229746 0.400118 0.121989
619 4 0.320533 0.490631 0.0237229
68 3 0.366163 0.386541 0.0154928
67 3 0.38413 0.435272 0.00335171
1035 4 0.429829 0.481959 0.120803
320 2 0.40855 0.43459 0.10213
66 1 0.389405 0.408433 0.0224531
322 4 0.404123 0.409154 0.0772111
70 3 0.387359 0.417304 0.0540377
69 3 0.419939 0.394788 0.0159253
1384 4 0.00965886 0.0393801 0.205625
1382 2 0.0379962 0.060056 0.202414
360 4 0.0065372 0.116403 0.242426
1383 4 0.0663336 0.0807318 0.199204
636 4 0.0943298 0.0773145 0.201625
635 2 0.128082 0.0772114 0.214335
637 4 0.161835 0.0771083 0.227045
963 4 0.188101 0.0859096 0.232665
962 2 0.221331 0.0886827 0.246055
711 4 0.310285 0.0134125 0.142613
710 2 0.339001 0.0295039 0.12957
19 3 0.365757 0.100486 0.156106
227 3 0.497498 0.125855 0.13248
550 4 0.471481 0.0370363 0.202132
548 2 0.44617 0.027132 0.225292
1411 4 0.49627 0.0373269 0.192357
549 4 0.420859 0.0172276 0.248452
361 4 0.055857 0.162624 0.222432
359 2 0.0311971 0.139513 0.232429
16 1 0.361214 0.129571 0.139843
18 3 0.331483 0.14417 0.147951
20 3 0.385271 0.149398 0.147481
961 4 0.482861 0.149491 0.126755
960 4 0.4121 0.146962 0.139809
959 2 0.447481 0.148226 0.133282
719 2 0.02518 0.280034 0.162751
720 4 0.0578708 0.292612 0.16841
1044 4 0.0709616 0.313744 0.153724
1043 2 0.0957554 0.338154 0.159005
1045 4 0.120549 0.362564 0.164287
1122 4 0.189381 0.266645 0.167736
1215 4 0.167825 0.255528 0.149882
1121 2 0.201478 0.266904 0.201702
1123 4 0.213574 0.267163 0.235669
520 4 0.349493 0.282583 0.197941
750 4 0.497408 0.333343 0.199844
518 2 0.385355 0.284644 0.196286
519 4 0.421216 0.286706 0.194631
751 4 0.438616 0.29839 0.217595
749 2 0.468012 0.315866 0.208719
752 2 0.112307 0.457643 0.240659
754 4 0.136345 0.442303 0.217779
405 4 0.151184 0.416285 0.21365
404 2 0.181081 0.41562 0.233852
1094 2 0.232223 0.405778 0.157496
1095 4 0.2347 0.411438 0.193004
282 4 0.121677 0.495487 0.146685
321 4 0.412977 0.460026 0.127049
964 4 0.254561 0.0914557 0.259444
948 4 0.281828 0.101225 0.264993
947 2 0.313137 0.105678 0.281914
1158 4 0.367836 0.0958808 0.312273
949 4 0.344447 0.110131 0.298835
31 1 0.3858 0.999769 0.284805
34 3 0.386943 0.0178673 0.31288
408 4 0.404032 0.0121035 0.337787
32 3 0.393041 0.0189862 0.259034
1157 2 0.394665 0.0807227 0.2925
1159 4 0.421494 0.0655646 0.272728
917 2 0.485093 0.0705259 0.286802
919 4 0.449698 0.068777 0.280607
407 2 0.414809 0.0350062 0.362963
245 3 0.0117087 0.309331 0.351104
499 4 0.0363665 0.324925 0.352197
497 2 0.0671316 0.341468 0.357554
498 4 0.0978966 0.358012 0.362911
8 3 0.155429 0.314685 0.35647
958 4 0.159415 0.290461 0.341209
956 2 0.194207 0.287453 0.33165
10 3 0.128194 0.362209 0.364978
7 3 0.181913 0.358862 0.369264
957 4 0.228999 0.284445 0.322092
533 2 0.245795 0.351769 0.371989
534 4 0.210636 0.352102 0.363906
722 2 0.284019 0.286409 0.341808
723 4 0.25562 0.277474 0.322097
724 4 0.312417 0.295345 0.36152
702 4 0.357305 0.307048 0.346893
159 3 0.333062 0.312656 0.361649
701 2 0.385994 0.285394 0.355227
997 4 0.489379 0.304853 0.366878
995 2 0.463552 0.282397 0.375241
703 4 0.414682 0.26374 0.363562
335 2 0.0127044 0.459959 0.29412
753 4 0.0882682 0.472984 0.26354
191 1 0.0909081 0.477552 0.317658
195 3 0.06991 0.454083 0.323702
336 4 0.0470696 0.460651 0.304919
192 3 0.0849775 0.490063 0.287393
193 3 0.122416 0.464664 0.318779
951 4 0.212267 0.493002 0.342011
950 2 0.182159 0.477818 0.331189
952 4 0.15205 0.462634 0.320367
406 4 0.210979 0.414954 0.254055
1057 4 0.234987 0.48445 0.358864
373 4 0.306238 0.443285 0.330201
371 2 0.33078 0.454155 0.353718
372 4 0.355321 0.465025 0.377235
1055 2 0.265279 0.498209 0.371169
642 4 0.479989 0.407484 0.278021
329 2 0.12282 0.0748295 0.492563
331 4 0.146522 0.0510213 0.477503
538 4 0.166749 0.0302787 0.470843
409 4 0.425585 0.0579088 0.388138
1033 4 0.00605694 0.246837 0.439358
1031 2 0.0383862 0.258906 0.430977
1032 4 0.0707154 0.270974 0.422596
748 4 0.0982863 0.259511 0.434701
746 2 0.116582 0.288937 0.428081
6 1 0.154048 0.342953 0.374383
9 3 0.151652 0.335834 0.406967
747 4 0.134877 0.318363 0.421461
535 4 0.280954 0.351436 0.380071
156 1 0.333125 0.337301 0.384251
160 3 0.361427 0.352514 0.382593
157 3 0.307898 0.35911 0.377734
158 3 0.329097 0.32488 0.414977
996 4 0.437725 0.259942 0.383604
257 2 0.422932 0.365313 0.395173
259 4 0.388996 0.355175 0.391804
258 4 0.456869 0.37545 0.398541
127 3 0.482961 0.363351 0.405961
380 2 0.0440783 0.495412 0.423978
381 4 0.00881487 0.493786 0.430945
382 4 0.0793418 0.497039 0.41701
330 4 0.0991175 0.0986376 0.507623
47 3 0.197017 0.0260056 0.592341
46 1 0.18107 0.0212763 0.620914
1461 4 0.205243 0.0168325 0.567256
1460 2 0.235665 0.0129036 0.547984
1462 4 0.266087 0.0089748 0.528712
1353 4 0.290718 0.0207622 0.534849
1354 4 0.362542 0.0245954 0.533925
1352 2 0.32663 0.0226788 0.534387
417 4 0.384676 0.0305451 0.548164
416 2 0.419039 0.0394 0.551416
418 4 0.453403 0.0482548 0.554667
523 4 0.481601 0.0535175 0.559665
347 2 0.0020175 0.180315 0.535333
348 4 0.0369743 0.173566 0.542841
954 4 0.0479587 0.148769 0.555475
953 2 0.0706167 0.137527 0.529287
955 4 0.0932747 0.126285 0.503099
364 4 0.149946 0.371747 0.591004
1336 4 0.250228 0.378792 0.599325
1108 4 0.433098 0.291317 0.591683
1106 2 0.409855 0.287113 0.618752
815 2 0.0726959 0.418532 0.525253
817 4 0.10611 0.43026 0.522634
816 4 0.0392815 0.406804 0.527872
784 4 0.0107945 0.405451 0.524913
362 2 0.123103 0.380197 0.614047
1483 4 0.122879 0.441572 0.542579
1481 2 0.158904 0.437372 0.542357
1482 4 0.19493 0.433173 0.542134
1335 4 0.220142 0.427762 0.554161
1334 2 0.235185 0.403277 0.576743
933 4 0.346258 0.491071 0.51586
932 2 0.373298 0.474951 0.534631
934 4 0.400338 0.458831 0.553401
1177 4 0.426582 0.46392 0.56461
1175 2 0.456695 0.459136 0.544987
1176 4 0.486809 0.454352 0.525364
480 4 0.497581 0.478832 0.515503
821 2 0.0468848 0.0815766 0.713545
838 4 0.0409603 0.0229709 0.70034
823 4 0.0513806 0.0490617 0.698216
271 4 0.11252 0.999442 0.657487
822 4 0.0423889 0.114091 0.728875
50 3 0.163855 0.0488714 0.629074
49 3 0.203622 0.013362 0.644714
1381 4 0.12901 0.00722096 0.678976
814 4 0.270612 0.0901405 0.737269
1287 4 0.394709 0.107181 0.653298
1288 4 0.416714 0.170413 0.62942
558 4 0.44074 0.183114 0.637698
1286 2 0.405712 0.138797 0.641359
557 2 0.462037 0.206704 0.65315
559 4 0.483334 0.230295 0.668601
262 4 0.0787172 0.366279 0.637477
1272 4 0.176853 0.268202 0.746323
1107 4 0.386612 0.282909 0.645821
363 4 0.0962602 0.388646 0.63709
1560 4 0.0372446 0.474202 0.706586
261 4 0.032824 0.388872 0.689318
260 2 0.0557706 0.377576 0.663397
1559 2 0.0119113 0.496315 0.721568
547 4 0.0780544 0.452289 0.732142
545 2 0.111771 0.462402 0.737341
546 4 0.145487 0.472515 0.742541
278 2 0.20416 0.486723 0.739148
280 4 0.17405 0.468363 0.73837
1395 4 0.254641 0.427291 0.746775
1396 4 0.293724 0.449974 0.691368
1394 2 0.274182 0.438633 0.719071
1041 4 0.473031 0.475015 0.677261
1575 4 0.499153 0.476927 0.665463
1260 4 0.219246 0.0318874 0.779412
1489 4 0.346885 0.0120606 0.875891
812 2 0.286133 0.077048 0.767402
813 4 0.301654 0.0639556 0.797535
613 4 0.359316 0.0300728 0.856698
439 4 0.36117 0.119632 0.862824
1144 4 0.495678 0.0351036 0.765109
611 2 0.394885 0.0254783 0.862215
1134 4 0.467832 0.0383243 0.775717
1135 4 0.398052 0.06027 0.77738
1133 2 0.432942 0.0492972 0.776549
37 3 0.484035 0.081865 0.819798
36 1 0.458279 0.100495 0.831519
39 3 0.442265 0.0828551 0.854394
612 4 0.430454 0.0208838 0.867733
38 3 0.437612 0.108711 0.806179
607 4 0.457763 0.0123865 0.866053
605 2 0.490112 0.0255506 0.872195
931 4 0.0461531 0.127996 0.755348
930 4 0.0250478 0.142395 0.823015
929 2 0.0356004 0.135196 0.789182
1237 4 0.0508139 0.158106 0.835904
1235 2 0.0817725 0.164329 0.852754
1236 4 0.112731 0.170553 0.869603
1171 4 0.165753 0.237283 0.86549
40 3 0.469314 0.127654 0.845219
437 2 0.38648 0.136773 0.844883
438 4 0.411791 0.153915 0.826942
976 4 0.402604 0.170343 0.805561
974 2 0.436549 0.176089 0.795784
975 4 0.470494 0.181835 0.786007
5 3 0.489206 0.199127 0.774498
1126 4 0.488534 0.140794 0.862116
1271 2 0.181913 0.299357 0.763235
252 4 0.179953 0.342968 0.804472
1273 4 0.186972 0.330512 0.780147
251 2 0.197208 0.373341 0.799417
1102 4 0.22948 0.425652 0.801802
253 4 0.214463 0.403713 0.794362
1100 2 0.238104 0.451282 0.825157
1101 4 0.246727 0.476912 0.848511
1374 4 0.296547 0.411226 0.862784
1373 2 0.324972 0.413825 0.840915
1527 4 0.267192 0.489524 0.863052
1375 4 0.353398 0.416425 0.819045
1526 2 0.302208 0.496039 0.866044
478 4 0.275436 0.3912 0.858544
568 4 0.491514 0.417355 0.847361
379 4 0.396205 0.395826 0.760449
377 2 0.432308 0.393774 0.759973
378 4 0.46841 0.391722 0.759498
566 2 0.466626 0.437849 0.864995
597 4 0.477362 0.417442 0.764348
1359 4 0.409785 0.50089 0.815271
909 4 0.0470411 0.111468 0.922724
1376 2 0.104702 0.0361951 0.925564
531 4 0.08555 0.0114268 0.979694
1377 4 0.0969766 0.0275681 0.959615
908 2 0.0816903 0.116052 0.914792
1378 4 0.112428 0.0448222 0.891513
910 4 0.11634 0.120637 0.90686
1487 2 0.312275 0.0143604 0.886149
1488 4 0.277665 0.0166602 0.896407
354 4 0.358895 0.105899 0.887608
355 4 0.33006 0.0640113 0.937514
1037 2 0.300909 0.0295542 0.985269
1038 4 0.320019 0.0436264 0.958625
353 2 0.344478 0.0849551 0.912561
793 4 0.434923 0.081236 0.881183
792 4 0.426077 0.0695183 0.951721
791 2 0.4305 0.0753771 0.916452
138 3 0.423946 0.12243 0.97837
833 2 0.00997872 0.126136 0.965164
835 4 0.0288422 0.132047 0.93519
1587 4 0.0314713 0.230214 0.894605
1170 4 0.123254 0.185401 0.887324
1169 2 0.144503 0.211342 0.876407
1083 4 0.180888 0.237344 0.978284
1443 4 0.195484 0.222564 0.999177
506 2 0.356076 0.198917 0.995233
140 3 0.401387 0.171664 0.967374
507 4 0.390256 0.187124 0.989488
136 1 0.423157 0.154918 0.986354
137 3 0.453333 0.166377 0.981463
1082 2 0.204344 0.25566 0.959022
1084 4 0.227799 0.273976 0.939761
393 4 0.250078 0.282009 0.955296
392 2 0.2783 0.30061 0.965527
394 4 0.306521 0.31921 0.975757
1422 4 0.331288 0.331151 0.973997
1421 2 0.358273 0.348842 0.988515
894 4 0.254224 0.369702 0.993378
217 3 0.484957 0.369908 0.955183
563 2 0.435138 0.367247 0.971972
565 4 0.461135 0.355506 0.949236
1327 4 0.00648039 0.418083 0.951745
1318 4 0.0132318 0.445517 0.944887
1317 4 0.025886 0.494971 0.894615
1316 2 0.0195589 0.470244 0.919751
477 4 0.214565 0.377387 0.893488
913 4 0.219504 0.488762 0.930258
911 2 0.224154 0.471055 0.961447
912 4 0.228805 0.453347 0.992635
893 2 0.275458 0.388295 0.971849
1496 2 0.335761 0.436699 0.964901
1497 4 0.304006 0.434733 0.948111
895 4 0.296692 0.406888 0.95032
476 2 0.245001 0.384293 0.876016
874 4 0.454567 0.483408 0.882414
567 4 0.441737 0.458343 0.882628
1498 4 0.367517 0.438666 0.981692
564 4 0.409142 0.378988 0.994708
1050 4 0.0298316 0.516916 0.118726
617 2 0.337933 0.516151 0.00639122
268 4 0.447833 0.606126 0.0914985
943 4 0.428902 0.599954 0.11269
1392 4 0.439498 0.578974 0.00674851
266 2 0.454661 0.595692 0.0575603
267 4 0.461489 0.585258 0.0236221
1036 4 0.462766 0.544294 0.116769
1034 2 0.446297 0.513126 0.118786
475 4 0.0340531 0.701281 0.0795605
1417 4 0.0532466 0.723758 0.0862354
473 2 0.00411771 0.685323 0.0694976
1415 2 0.0889501 0.727186 0.084937
1416 4 0.124654 0.730614 0.0836386
1539 4 0.145224 0.739947 0.101067
1400 2 0.448411 0.70726 0.110734
1401 4 0.460645 0.678824 0.091372
391 4 0.479215 0.656601 0.101441
1538 2 0.17094 0.755074 0.0818104
1331 2 0.199594 0.816926 0.0208697
1540 4 0.196657 0.770201 0.0625541
1098 4 0.222467 0.774605 0.0745285
1333 4 0.230955 0.828476 0.032994
1097 2 0.235777 0.786913 0.105432
1332 4 0.168234 0.805375 0.00874536
829 4 0.257366 0.842611 0.0309969
827 2 0.29023 0.850337 0.0426235
828 4 0.323094 0.858063 0.0542502
663 4 0.349407 0.861974 0.0456281
680 2 0.429735 0.794584 0.0155867
682 4 0.44167 0.81204 0.0444264
92 3 0.486259 0.857698 0.0677688
968 2 0.443387 0.787196 0.100011
969 4 0.446978 0.809662 0.0721987
91 1 0.461033 0.860305 0.0462264
93 3 0.4583 0.830854 0.0309001
94 3 0.432827 0.868557 0.0629417
831 4 0.393105 0.777067 0.00357344
662 2 0.379927 0.870259 0.0622092
664 4 0.410446 0.878544 0.0787904
1304 2 0.0592822 0.969712 0.0749091
1305 4 0.077965 0.946797 0.096537
1306 4 0.0405993 0.992627 0.0532813
132 3 0.0135661 0.982771 0.0534453
1518 4 0.245647 0.927538 0.00806302
1517 2 0.277062 0.932124 0.0247379
1519 4 0.308478 0.936709 0.0414128
972 4 0.303642 0.962488 0.0573093
971 2 0.336884 0.972225 0.0655593
973 4 0.370125 0.981962 0.0738093
1022 2 0.430455 0.989265 0.0637587
1024 4 0.395755 0.98239 0.0587489
95 3 0.466964 0.883534 0.0241141
283 4 0.0507929 0.509836 0.138172
281 2 0.086235 0.502662 0.142428
1018 4 0.0429374 0.609007 0.223674
1425 4 0.0159087 0.59586 0.231639
625 4 0.0154218 0.56871 0.239584
1016 2 0.0753254 0.619336 0.213136
1530 4 0.129621 0.589893 0.212595
652 4 0.143987 0.510265 0.154492
1529 2 0.152095 0.602999 0.236962
650 2 0.167235 0.519633 0.179991
651 4 0.190483 0.529002 0.20549
312 4 0.209194 0.540402 0.223277
941 2 0.411266 0.611832 0.142167
942 4 0.393629 0.62371 0.171644
1017 4 0.107713 0.629666 0.202598
1477 4 0.244364 0.748457 0.202751
610 4 0.266288 0.635155 0.229327
608 2 0.299791 0.646686 0.226857
609 4 0.333293 0.658217 0.224387
1029 4 0.349133 0.671657 0.205065
1028 2 0.376686 0.692589 0.198405
1402 4 0.436177 0.735696 0.130097
1344 4 0.495042 0.718397 0.230197
1030 4 0.40424 0.713521 0.191746
1345 4 0.432237 0.718322 0.194745
1343 2 0.463639 0.718359 0.212471
1292 2 0.0954209 0.826973 0.237726
1293 4 0.0608182 0.828497 0.248023
1294 4 0.130024 0.825448 0.227429
733 4 0.157955 0.830862 0.223336
731 2 0.169289 0.796149 0.22514
1475 2 0.238523 0.777578 0.181938
1476 4 0.232683 0.806699 0.161125
732 4 0.180624 0.761435 0.226945
551 2 0.314421 0.765313 0.222149
1099 4 0.249087 0.799222 0.136336
553 4 0.335277 0.754603 0.194349
552 4 0.293566 0.776023 0.249948
970 4 0.439796 0.764731 0.127823
725 2 0.416729 0.837664 0.243539
726 4 0.443658 0.844878 0.221096
1291 4 0.445639 0.830385 0.197153
1289 2 0.480825 0.829892 0.18916
194 3 0.0867332 0.502119 0.34019
623 2 0.0333505 0.546922 0.262868
901 4 0.00798068 0.557138 0.340479
624 4 0.0512793 0.525134 0.286152
899 2 0.0402931 0.541026 0.347416
900 4 0.0726056 0.524913 0.354353
1531 4 0.174568 0.616106 0.261329
311 2 0.215619 0.540817 0.258755
1299 4 0.204533 0.549858 0.314003
1298 2 0.194996 0.552237 0.348732
313 4 0.222045 0.541231 0.294233
984 4 0.243944 0.620942 0.332613
358 4 0.498883 0.624446 0.277025
1330 4 0.07678 0.680795 0.280903
1328 2 0.0694398 0.692592 0.314306
1329 4 0.0620997 0.704388 0.347708
1221 4 0.218721 0.629809 0.322458
1220 2 0.208692 0.630252 0.287815
143 3 0.159864 0.707632 0.273216
687 4 0.151741 0.744225 0.332892
142 3 0.168709 0.748163 0.30753
141 1 0.175453 0.73617 0.277214
1222 4 0.198663 0.630695 0.253173
145 3 0.207947 0.730538 0.274133
1557 4 0.226075 0.708509 0.263173
686 2 0.143275 0.732411 0.365738
1556 2 0.254168 0.729628 0.260994
983 2 0.276732 0.633376 0.338055
1188 4 0.334919 0.64453 0.360495
767 2 0.367834 0.739607 0.317772
1187 2 0.353645 0.674301 0.362843
985 4 0.309521 0.645811 0.343497
768 4 0.338254 0.726894 0.302743
1189 4 0.372371 0.704072 0.365191
1324 4 0.480109 0.726247 0.36197
450 4 0.460153 0.709056 0.374212
316 4 0.0365873 0.759991 0.299398
314 2 0.0485763 0.780488 0.326062
315 4 0.0605653 0.800985 0.352726
144 3 0.164442 0.758648 0.254478
1172 2 0.180421 0.859123 0.324542
1549 4 0.24302 0.859847 0.312871
1173 4 0.214838 0.868167 0.322859
1174 4 0.146004 0.85008 0.326224
1558 4 0.282262 0.750748 0.258814
1547 2 0.270876 0.838063 0.323329
1548 4 0.298732 0.816278 0.333787
769 4 0.397414 0.75232 0.3328
1311 4 0.493229 0.762258 0.310527
727 4 0.3898 0.830449 0.265982
699 4 0.395359 0.827798 0.358185
1312 4 0.42587 0.753796 0.333674
1310 2 0.459549 0.758027 0.322101
570 4 0.274675 0.993454 0.328545
569 2 0.308759 0.989483 0.316867
571 4 0.342844 0.985512 0.305188
35 3 0.355662 0.988777 0.28077
1165 4 0.326881 0.912706 0.349862
489 4 0.423923 0.982234 0.31053
33 3 0.408359 0.973973 0.286265
488 2 0.459161 0.98348 0.317794
490 4 0.494399 0.984726 0.325058
376 4 0.105046 0.507866 0.415731
1300 4 0.185459 0.554616 0.383461
374 2 0.13474 0.524919 0.406981
375 4 0.164433 0.541973 0.398231
1056 4 0.295571 0.511967 0.383474
1552 4 0.316569 0.514391 0.403425
1550 2 0.349735 0.526743 0.405981
897 4 0.359351 0.580327 0.475131
896 2 0.353974 0.546612 0.485801
1320 4 0.375832 0.60434 0.46967
898 4 0.348597 0.512896 0.496471
1551 4 0.382902 0.539096 0.408537
1405 4 0.456421 0.571998 0.454343
1403 2 0.42469 0.559649 0.444268
1404 4 0.392958 0.547299 0.434194
453 4 0.481735 0.575769 0.436903
1579 4 0.0599054 0.694574 0.432594
1577 2 0.0376574 0.693888 0.46094
1081 4 0.0744483 0.670171 0.427007
1079 2 0.107834 0.682223 0.427001
1578 4 0.0154093 0.693202 0.489285
661 4 0.160999 0.689778 0.450231
1080 4 0.14122 0.694275 0.426996
659 2 0.196456 0.693553 0.454173
660 4 0.231914 0.697327 0.458114
688 4 0.134809 0.720597 0.398584
915 4 0.255893 0.711246 0.46053
914 2 0.284586 0.711151 0.482379
1319 2 0.386984 0.637739 0.474203
449 2 0.424888 0.708887 0.381708
451 4 0.389622 0.708717 0.389204
1321 4 0.398136 0.671139 0.478736
99 3 0.424934 0.671902 0.467734
96 1 0.432622 0.695714 0.489508
97 3 0.435975 0.724097 0.473006
765 4 0.449946 0.732693 0.448673
525 4 0.385079 0.685856 0.500947
862 4 0.0753564 0.803488 0.377338
716 2 0.049907 0.842905 0.486838
717 4 0.0600408 0.841599 0.452235
861 4 0.0854929 0.831774 0.442669
860 2 0.0804246 0.817631 0.410003
698 2 0.418926 0.821945 0.385101
700 4 0.442493 0.816092 0.412017
764 2 0.437942 0.764486 0.435213
766 4 0.425937 0.796278 0.421752
304 4 0.0282824 0.926986 0.393982
924 4 0.0498289 0.908039 0.399367
923 2 0.0852883 0.901569 0.394464
536 2 0.1592 0.998438 0.456592
1385 2 0.175095 0.909337 0.39964
925 4 0.120748 0.895099 0.389562
529 4 0.217221 0.919233 0.446312
1386 4 0.201768 0.921258 0.420005
537 4 0.151651 0.966598 0.442341
1387 4 0.148422 0.897416 0.379275
528 4 0.288402 0.908221 0.436734
527 2 0.252812 0.913727 0.441523
1163 2 0.306686 0.915675 0.379691
1164 4 0.286492 0.918644 0.40952
904 4 0.438021 0.932296 0.491218
902 2 0.473432 0.932625 0.497943
1154 2 0.240349 0.520995 0.601586
1155 4 0.255546 0.523144 0.569004
297 4 0.279611 0.537488 0.573034
296 2 0.28471 0.559064 0.544807
298 4 0.289809 0.580641 0.516581
250 3 0.446064 0.599558 0.576023
249 3 0.4944 0.620942 0.583151
1398 4 0.425512 0.578298 0.5845
1397 2 0.425504 0.568285 0.61914
248 3 0.475504 0.612204 0.53261
246 1 0.467006 0.620746 0.563944
196 1 0.0171404 0.723492 0.537269
198 3 0.0246186 0.697373 0.517278
199 3 0.0451749 0.734758 0.550505
1309 4 0.0738965 0.733022 0.546891
1307 2 0.108856 0.737006 0.55385
200 3 0.996879 0.714653 0.561187
825 4 0.170241 0.736421 0.549204
1308 4 0.143815 0.74099 0.56081
824 2 0.203488 0.746902 0.542125
526 4 0.324571 0.713515 0.531622
524 2 0.354825 0.699685 0.516285
916 4 0.313279 0.711056 0.504229
98 3 0.40806 0.700252 0.512027
247 3 0.452334 0.651205 0.563708
1512 4 0.478099 0.708825 0.502862
100 3 0.46091 0.687204 0.504678
718 4 0.0397732 0.84421 0.52144
1581 4 0.0367852 0.863849 0.543405
1451 2 0.0183113 0.816091 0.615526
1452 4 0.0435412 0.83979 0.609116
120 3 0.0716349 0.838363 0.616976
826 4 0.236736 0.757382 0.535047
1583 2 0.174537 0.855186 0.600651
1585 4 0.198628 0.863058 0.575373
119 3 0.125965 0.83699 0.618628
1366 4 0.261317 0.7663 0.545042
1364 2 0.297103 0.769194 0.544012
1365 4 0.332888 0.772088 0.542981
1580 2 0.0145456 0.893046 0.547425
270 4 0.0472687 0.99979 0.626727
440 2 0.0054014 0.987831 0.601481
442 4 0.0414767 0.986282 0.602961
679 4 0.112462 0.99451 0.551692
677 2 0.13574 0.969297 0.538278
678 4 0.159019 0.944083 0.524864
1203 4 0.225529 0.875065 0.573756
48 3 0.160414 0.996291 0.616934
1202 2 0.260078 0.883444 0.576496
1204 4 0.294626 0.891823 0.579236
427 4 0.322899 0.893444 0.579489
425 2 0.344481 0.921131 0.582026
426 4 0.366063 0.948818 0.584562
1545 4 0.392442 0.946634 0.597471
1544 2 0.427664 0.942917 0.60516
1546 4 0.462886 0.939199 0.612849
1027 4 0.484725 0.954871 0.611509
1156 4 0.225152 0.518846 0.634168
631 4 0.193764 0.603853 0.717761
544 4 0.195771 0.585051 0.696536
543 4 0.226455 0.543938 0.644652
542 2 0.211113 0.564494 0.670594
629 2 0.174298 0.599506 0.747663
279 4 0.234271 0.505083 0.739926
1520 2 0.289505 0.529163 0.725983
1521 4 0.317382 0.54586 0.711937
755 2 0.376988 0.537949 0.722566
757 4 0.345631 0.547765 0.706712
1522 4 0.261627 0.512466 0.740028
434 2 0.388342 0.618841 0.729935
435 4 0.415205 0.614228 0.706063
1278 4 0.490201 0.619099 0.680138
1399 4 0.425497 0.558272 0.65378
1042 4 0.435553 0.538286 0.672684
1279 4 0.4183 0.616567 0.677428
1277 2 0.45425 0.617833 0.678783
1040 2 0.454292 0.50665 0.674973
889 4 0.500059 0.562259 0.743712
756 4 0.408345 0.528133 0.738421
887 2 0.468727 0.546557 0.738981
888 4 0.437395 0.530854 0.73425
648 4 0.0238605 0.747 0.681043
255 4 0.303251 0.682135 0.725593
254 2 0.329995 0.700938 0.739028
1119 4 0.451395 0.717081 0.724772
1118 2 0.475001 0.724248 0.698795
1120 4 0.498607 0.731415 0.672819
595 4 0.456259 0.701132 0.751504
891 4 0.0495584 0.759568 0.679034
890 2 0.0669332 0.789992 0.674815
116 1 0.0976795 0.851075 0.63131
892 4 0.0843081 0.820415 0.670595
117 3 0.0968383 0.844968 0.6639
1584 4 0.150446 0.847314 0.625929
1555 4 0.231159 0.787072 0.641943
787 4 0.255433 0.796542 0.727962
1553 2 0.249396 0.794966 0.671793
1554 4 0.267633 0.802859 0.701642
1257 4 0.464036 0.811413 0.730314
836 2 0.0482228 0.993474 0.720261
421 4 0.0115512 0.918807 0.649852
419 2 0.0469233 0.913857 0.643356
118 3 0.0968739 0.884186 0.626531
420 4 0.0822953 0.908907 0.63686
837 4 0.0554852 0.963977 0.740183
269 2 0.0798944 0.999616 0.642107
472 4 0.209179 0.98907 0.659469
1379 2 0.147005 0.976084 0.686765
707 2 0.189143 0.930832 0.743895
708 4 0.167944 0.925254 0.715469
1380 4 0.165001 0.944947 0.694555
470 2 0.243286 0.981874 0.64899
471 4 0.277392 0.974678 0.638511
1454 2 0.00422122 0.54065 0.792685
1455 4 0.0203046 0.557203 0.819896
1251 4 0.0253889 0.556898 0.848146
1250 2 0.0496786 0.582263 0.850116
1252 4 0.0739683 0.607628 0.852085
327 4 0.101898 0.617877 0.851315
630 4 0.154833 0.595158 0.777566
907 4 0.292308 0.594281 0.811561
905 2 0.313238 0.611695 0.788715
1360 4 0.359013 0.521456 0.863274
1528 4 0.337224 0.502554 0.869036
1358 2 0.384399 0.511173 0.839273
1495 4 0.395935 0.623251 0.849061
920 2 0.0241259 0.680707 0.873891
856 4 0.246486 0.731284 0.850774
436 4 0.36148 0.623454 0.753808
906 4 0.334168 0.629108 0.765868
256 4 0.356739 0.719742 0.752463
854 2 0.260299 0.697994 0.844093
855 4 0.274111 0.664704 0.837412
714 4 0.365511 0.72804 0.866866
594 4 0.384687 0.711953 0.757767
1178 2 0.500081 0.643413 0.843012
593 2 0.420473 0.706543 0.754635
1493 2 0.422727 0.645984 0.85098
781 4 0.384935 0.730811 0.845291
1494 4 0.449518 0.668718 0.852898
1180 4 0.473459 0.657073 0.864012
779 2 0.41259 0.741102 0.825266
628 4 0.247478 0.752734 0.870814
785 2 0.23831 0.806565 0.758355
786 4 0.221187 0.816587 0.788747
1562 2 0.316545 0.851543 0.872294
1563 4 0.340457 0.87643 0.865351
780 4 0.440245 0.751394 0.805241
1256 2 0.45851 0.78933 0.758042
1258 4 0.452985 0.767247 0.785769
709 4 0.210342 0.93641 0.772321
1261 4 0.223199 0.959789 0.781261
1259 2 0.221222 0.995838 0.780336
1369 4 0.361924 0.879974 0.844929
1367 2 0.365246 0.899842 0.815146
1368 4 0.368567 0.919711 0.785362
1589 2 0.492738 0.954403 0.775841
1591 4 0.482909 0.927369 0.796928
540 4 0.0100285 0.623237 0.981966
1201 4 0.351693 0.56618 0.882241
618 4 0.355334 0.541671 0.989059
1393 4 0.374475 0.562392 0.982452
1199 2 0.385355 0.568849 0.894537
872 2 0.450429 0.505001 0.911134
1391 2 0.406987 0.570683 0.9946
873 4 0.446291 0.526595 0.939853
1200 4 0.419017 0.571517 0.906833
306 4 0.446884 0.573792 0.896381
305 2 0.478025 0.584688 0.909713
326 2 0.121555 0.634797 0.875683
922 4 0.0552448 0.696682 0.879044
1446 4 0.0701534 0.714242 0.897011
1445 2 0.102724 0.724459 0.886927
422 2 0.0649475 0.653114 0.985692
423 4 0.0979485 0.665514 0.989731
291 4 0.117606 0.679122 0.97562
424 4 0.0319466 0.640713 0.981653
794 2 0.0240538 0.739137 0.992918
1447 4 0.135295 0.734675 0.876843
290 2 0.139055 0.672401 0.947168
292 4 0.160505 0.66568 0.918717
328 4 0.141213 0.651716 0.900051
72 3 0.481975 0.747726 0.975746
694 4 0.0834493 0.761745 0.982993
796 4 0.0563584 0.753613 0.993101
692 2 0.11407 0.778584 0.988186
693 4 0.144691 0.795424 0.993379
715 4 0.372068 0.778515 0.917577
626 2 0.268218 0.778357 0.883423
627 4 0.288959 0.80398 0.896031
1564 4 0.292633 0.826655 0.879238
713 2 0.368789 0.753277 0.892222
830 2 0.360605 0.765262 0.995438
832 4 0.328106 0.753458 0.987302
74 3 0.488166 0.791631 0.94508
1504 4 0.399268 0.785052 0.912428
1502 2 0.429617 0.792882 0.929578
1503 4 0.459967 0.800712 0.946729
681 4 0.4178 0.777129 0.986747
228 3 0.535684 0.101858 0.100943
276 4 0.560883 0.0989871 0.0840641
584 2 0.518416 0.0103032 0.0962119
585 4 0.55296 0.0138976 0.105256
226 1 0.51353 0.0969319 0.125313
275 2 0.594684 0.109724 0.0815983
1356 4 0.577105 0.0176216 0.119527
277 4 0.628485 0.120462 0.0791325
468 4 0.736569 0.0700212 0.123322
1010 2 0.782727 0.088935 0.0844263
1011 4 0.761373 0.0783757 0.111075
1012 4 0.80408 0.0994942 0.0577773
849 4 0.825238 0.115569 0.0630712
848 2 0.857131 0.121795 0.048088
133 3 0.976384 0.0197377 0.0714277
131 1 0.993589 0.00871423 0.0445754
850 4 0.889025 0.128022 0.0331049
85 3 0.912113 0.123425 0.0167065
84 3 0.964992 0.128011 0.00634405
1003 4 0.649697 0.13412 0.0617951
1001 2 0.684095 0.142519 0.0659946
1002 4 0.718493 0.150918 0.070194
945 4 0.735175 0.16244 0.0885052
301 4 0.665047 0.207105 0.1192
462 4 0.684351 0.22718 0.119931
461 2 0.712486 0.248124 0.116731
944 2 0.767404 0.174822 0.0967604
946 4 0.799633 0.187203 0.105016
318 4 0.8257 0.197382 0.111142
1053 4 0.70019 0.270908 0.0416011
1268 2 0.635124 0.344436 0.0314137
1052 2 0.672913 0.272979 0.0179837
1269 4 0.640189 0.337509 0.0664879
463 4 0.740621 0.269068 0.11353
178 3 0.785557 0.345206 0.0966883
176 1 0.791836 0.36489 0.12276
177 3 0.796633 0.395505 0.111651
1046 2 0.855179 0.399292 0.0872288
1047 4 0.821263 0.393055 0.0967163
122 3 0.916587 0.432951 0.0143088
1048 4 0.889094 0.405529 0.0777414
125 3 0.914148 0.413303 0.0643052
121 1 0.934456 0.420929 0.0399603
123 3 0.952334 0.393571 0.0300163
124 3 0.954972 0.444238 0.0502814
368 2 0.973359 0.494482 0.0379862
369 4 0.979148 0.459891 0.0473347
1326 4 0.972258 0.406358 0.0138146
1409 2 0.529724 0.0298171 0.180114
229 3 0.529423 0.0854468 0.15276
1410 4 0.563177 0.0223073 0.167871
658 4 0.592128 0.0255889 0.163307
656 2 0.624831 0.0389638 0.160491
657 4 0.657533 0.0523387 0.157676
469 4 0.677562 0.03679 0.143739
467 2 0.707065 0.0534056 0.13353
580 4 0.710254 0.0884734 0.248059
482 2 0.770892 0.10854 0.243754
483 4 0.803519 0.119857 0.235352
1232 2 0.959498 0.00876541 0.193351
1233 4 0.983622 0.0291086 0.209307
300 4 0.600057 0.217926 0.149713
299 2 0.632552 0.212515 0.134456
148 3 0.850358 0.231189 0.178864
317 2 0.848416 0.213788 0.132989
319 4 0.871133 0.230195 0.154836
494 2 0.858263 0.136884 0.22406
495 4 0.830127 0.125179 0.242459
397 4 0.980344 0.124682 0.232006
395 2 0.947662 0.132702 0.218076
496 4 0.886399 0.14859 0.205661
396 4 0.91498 0.140722 0.204147
1510 4 0.896421 0.245429 0.158454
500 2 0.546653 0.327155 0.176481
502 4 0.58231 0.331001 0.177155
501 4 0.510996 0.323309 0.175807
43 3 0.602412 0.313371 0.191029
42 3 0.616635 0.345357 0.150224
41 1 0.625015 0.317541 0.166901
44 3 0.625354 0.291678 0.145684
45 3 0.654847 0.320092 0.180121
672 4 0.680654 0.326386 0.172284
671 2 0.710524 0.34232 0.16198
673 4 0.740394 0.358253 0.151677
1267 4 0.759355 0.257928 0.1333
149 3 0.869356 0.256617 0.22299
180 3 0.766297 0.365941 0.143452
1265 2 0.788734 0.26849 0.150459
179 3 0.819521 0.353317 0.13861
1266 4 0.818114 0.279053 0.167618
1074 4 0.840908 0.36148 0.156287
150 3 0.835848 0.283318 0.188337
1073 2 0.87454 0.346783 0.157779
146 1 0.86025 0.260264 0.190943
155 3 0.983996 0.318127 0.136377
1508 2 0.931761 0.250818 0.156615
1075 4 0.908172 0.332087 0.159272
147 3 0.886375 0.269525 0.173393
154 3 0.931771 0.334466 0.142629
721 4 0.992489 0.267456 0.157091
151 1 0.962671 0.335505 0.15531
153 3 0.963302 0.323199 0.186431
743 2 0.974179 0.30734 0.232023
744 4 0.975603 0.298358 0.197112
1509 4 0.967101 0.256206 0.154776
152 3 0.971243 0.367076 0.156255
674 2 0.609345 0.437614 0.161772
676 4 0.59836 0.428828 0.194828
675 4 0.62033 0.4464 0.128715
1349 2 0.708345 0.399792 0.225402
1351 4 0.731944 0.393523 0.198589
288 4 0.75771 0.395367 0.210966
287 2 0.786858 0.415058 0.213141
289 4 0.816007 0.434748 0.215315
1071 4 0.837595 0.443387 0.233306