ITEM: TIMESTEP
3093000
ITEM: NUMBER OF ATOMS
4800
ITEM: BOX BOUNDS xy xz yz pp pp pp
-9.9985700000000008e+00 9.9985700000000008e+00 0.0000000000000000e+00
-9.9985700000000008e+00 9.9985700000000008e+00 0.0000000000000000e+00
-9.9985700000000008e+00 9.9985700000000008e+00 0.0000000000000000e+00
ITEM: ATOMS id type xs ys zs
3482 4 0.0225556 0.0356107 0.0132482
2639 4 0.00419966 0.036821 0.00872448
4769 4 0.12586 0.0406001 0.0257829
1110 4 0.137239 0.0385395 0.0435571
1108 2 0.126705 0.038022 0.0662284
4768 2 0.1064 0.0417567 0.010125
4052 4 0.42362 0.080515 0.0632441
3993 4 0.491884 0.0271131 0.0348551
3879 4 0.424065 0.0757129 0.0435023
1715 4 0.993051 0.162985 0.00534641
1936 2 0.209912 0.122169 0.0594185
1938 4 0.209207 0.127471 0.0349937
4224 4 0.330088 0.0940138 0.0380334
4222 2 0.340205 0.107914 0.0561887
3878 4 0.42101 0.111378 0.00858448
3877 2 0.422538 0.0935456 0.0260434
3386 4 0.493945 0.132769 0.105334
3385 2 0.498685 0.11526 0.0881264
882 4 0.0549966 0.172674 0.0138288
403 3 0.0644167 0.181065 0.0294908
966 4 0.0373229 0.197841 0.0646622
401 1 0.073092 0.195002 0.0458898
404 3 0.0563892 0.200998 0.0608385
964 2 0.0201395 0.216002 0.0649343
402 3 0.0895723 0.183708 0.0572912
965 4 0.00295609 0.234164 0.0652065
405 3 0.0820157 0.213643 0.0363226
3516 4 0.0915868 0.169673 0.0701845
1278 4 0.177631 0.19521 0.034619
1276 2 0.184939 0.209691 0.053648
1277 4 0.192248 0.224171 0.0726771
1383 4 0.249131 0.230733 0.0629711
3681 4 0.257437 0.215767 0.0746157
1381 2 0.237135 0.244971 0.079662
3679 2 0.268892 0.196258 0.063969
2802 4 0.297901 0.177845 0.0437256
2800 2 0.294001 0.17438 0.019272
3680 4 0.280346 0.176748 0.0533224
3263 4 0.426002 0.187377 0.0520382
3262 2 0.43763 0.18337 0.0738077
1756 2 0.0253726 0.319415 0.0809367
1758 4 0.0250651 0.312186 0.0570026
3312 4 0.0155398 0.300799 0.0457636
3310 2 0.00378801 0.310222 0.0258068
1553 4 0.106113 0.302464 0.00787843
94 3 0.0846837 0.290536 0.0614593
93 3 0.0974297 0.299311 0.0267474
92 3 0.119025 0.279834 0.0505577
1303 2 0.156116 0.283176 0.0319981
91 1 0.10332 0.296572 0.0490229
1304 4 0.134655 0.273566 0.0404995
95 3 0.112158 0.315919 0.0571598
2145 4 0.131771 0.318632 0.0612355
1305 4 0.177576 0.292787 0.0234967
3985 2 0.208996 0.311871 0.036809
3986 4 0.195595 0.291591 0.0309542
3987 4 0.222398 0.332152 0.0426639
2412 4 0.236221 0.347236 0.0413935
3122 4 0.423724 0.327337 0.00996001
4093 2 0.477565 0.26815 0.018309
3121 2 0.440231 0.308616 0.0114364
4095 4 0.460813 0.281978 0.0306912
3123 4 0.456739 0.289894 0.0129127
4094 4 0.494317 0.254321 0.00592676
3179 4 0.084997 0.347972 0.0685468
2078 4 0.019443 0.409425 0.0814894
2143 2 0.141444 0.341222 0.0566165
2144 4 0.151116 0.363811 0.0519975
1820 4 0.166889 0.376445 0.0539458
1819 2 0.189217 0.370879 0.0441669
1821 4 0.211546 0.365313 0.0343881
810 4 0.220484 0.380813 0.0237411
2410 2 0.251332 0.353159 0.0604137
808 2 0.243988 0.387386 0.0183048
809 4 0.267492 0.39396 0.0128684
1220 4 0.280386 0.409121 0.0150576
3752 4 0.29062 0.407359 0.0562128
2411 4 0.266443 0.359082 0.079434
3751 2 0.30343 0.386147 0.0595491
3753 4 0.31624 0.364935 0.0628855
1307 4 0.376975 0.339232 0.0816721
1308 4 0.334347 0.358249 0.0637294
1306 2 0.355661 0.348741 0.0727007
3631 2 0.392847 0.353363 0.00637792
3632 4 0.379909 0.374758 0.00657672
4734 4 0.373769 0.394033 0.00196737
1901 4 0.0344785 0.412841 0.0665839
1900 2 0.0448844 0.432323 0.0548639
1902 4 0.0552903 0.451804 0.0431439
2358 4 0.0720155 0.460899 0.0501458
867 4 0.0135317 0.454699 0.99878
2356 2 0.0836847 0.482534 0.0455673
2357 4 0.0953538 0.504169 0.0409889
3442 2 0.307515 0.444555 0.0630069
3443 4 0.291635 0.427298 0.0543351
3444 4 0.323396 0.461812 0.0716787
4422 4 0.361408 0.512463 0.0227043
792 4 0.432737 0.498355 0.041737
790 2 0.45347 0.495354 0.0553877
791 4 0.474202 0.492352 0.0690383
1777 2 0.023272 0.00702101 0.131859
1030 2 0.132145 0.00737636 0.139284
1109 4 0.116172 0.0375045 0.0888997
1031 4 0.13688 0.0305884 0.147283
2922 4 0.104864 0.0492121 0.100954
2920 2 0.115291 0.0699711 0.110202
1836 4 0.132714 0.0496834 0.153075
3849 4 0.195463 0.0595236 0.156651
983 4 0.182878 0.0690878 0.143203
4051 2 0.430723 0.0765328 0.0868847
4053 4 0.437827 0.0725506 0.110525
2868 4 0.435281 0.0651695 0.128196
2866 2 0.442068 0.0822822 0.145116
2837 4 0.00604298 0.181749 0.150037
2886 4 0.100961 0.120717 0.152677
219 3 0.135343 0.139169 0.114068
217 3 0.106143 0.127818 0.134833
216 1 0.125074 0.120787 0.123819
2921 4 0.125719 0.0907301 0.11945
218 3 0.118992 0.105505 0.107452
220 3 0.139223 0.110983 0.13873
984 4 0.143698 0.0951819 0.126327
3515 4 0.119813 0.148753 0.105772
982 2 0.163288 0.0821348 0.134765
1937 4 0.210616 0.116866 0.0838433
2952 4 0.202873 0.131752 0.0958421
2950 2 0.217695 0.145924 0.110147
2951 4 0.232518 0.160096 0.124453
2850 4 0.225593 0.160369 0.143379
4223 4 0.350322 0.121814 0.074344
2867 4 0.448855 0.0993949 0.162035
2836 2 0.0130802 0.201313 0.136148
2838 4 0.0201175 0.220877 0.122258
4188 4 0.0663708 0.257303 0.170317
3514 2 0.1057 0.159213 0.0879784
3843 4 0.136521 0.248908 0.166349
2848 2 0.215045 0.181235 0.152244
1117 2 0.213373 0.23268 0.13016
1119 4 0.203045 0.217243 0.146899
1118 4 0.223701 0.248116 0.113421
2849 4 0.204498 0.2021 0.161109
4425 4 0.316013 0.22734 0.131497
3101 4 0.3129 0.223201 0.151192
4423 2 0.298649 0.239668 0.118394
3100 2 0.316827 0.19971 0.158803
754 2 0.372922 0.194586 0.138856
755 4 0.37956 0.200496 0.162227
3002 4 0.399823 0.199657 0.15753
756 4 0.366283 0.188676 0.115485
3264 4 0.449258 0.179363 0.0955773
1362 4 0.46298 0.188841 0.105104
3001 2 0.422446 0.209282 0.162087
1360 2 0.46382 0.187493 0.130057
1361 4 0.46466 0.186145 0.155011
1757 4 0.0256801 0.326645 0.104871
2993 4 0.0906173 0.31138 0.12124
3180 4 0.0775418 0.319422 0.108921
2994 4 0.121574 0.272817 0.113803
2992 2 0.106096 0.292099 0.117522
1382 4 0.22514 0.259209 0.096353
569 3 0.22711 0.305198 0.137064
566 1 0.230878 0.313971 0.158212
2963 4 0.244912 0.296764 0.132875
2962 2 0.256782 0.281549 0.116976
4424 4 0.281284 0.251997 0.105291
2964 4 0.268651 0.266333 0.101077
4353 4 0.353 0.328306 0.163585
1130 4 0.361012 0.316736 0.149816
1129 2 0.382579 0.326811 0.142165
994 2 0.486088 0.311709 0.0774297
996 4 0.461877 0.313538 0.0834046
3178 2 0.0812694 0.333697 0.088734
570 3 0.243916 0.332582 0.156694
3527 4 0.251981 0.334739 0.13776
3526 2 0.254724 0.348705 0.117202
3528 4 0.257467 0.362672 0.096645
1131 4 0.404146 0.336886 0.134515
4199 4 0.421937 0.348114 0.135137
4198 2 0.43392 0.369415 0.140414
263 3 0.466054 0.391506 0.149366
261 1 0.487753 0.398197 0.154136
4200 4 0.445903 0.390717 0.145691
264 3 0.493647 0.416154 0.140673
265 3 0.502148 0.380881 0.150734
3502 2 0.0619046 0.489255 0.143652
3503 4 0.0594735 0.468177 0.130423
4067 4 0.168438 0.477113 0.102294
434 3 0.274314 0.43521 0.150911
4294 2 0.389291 0.48646 0.140109
4296 4 0.397494 0.462983 0.142698
4070 4 0.417261 0.465045 0.1468
4069 2 0.423825 0.446347 0.162047
3903 4 0.483438 0.4305 0.149931
3901 2 0.477962 0.453886 0.156878
3902 4 0.472485 0.477272 0.163825
2114 4 0.487339 0.487743 0.155955
1834 2 0.13181 0.0582271 0.176556
1835 4 0.130905 0.0667709 0.200038
2949 4 0.146968 0.0575855 0.207589
2947 2 0.161403 0.0754413 0.217488
3847 2 0.201564 0.0404437 0.171615
3848 4 0.207665 0.0213637 0.186579
1637 4 0.214365 0.017947 0.205577
1636 2 0.233424 0.00924643 0.219223
1638 4 0.252484 0.000545823 0.232869
4578 4 0.350456 0.0719624 0.213586
4576 2 0.357723 0.0513535 0.225736
4577 4 0.364989 0.0307445 0.237887
1052 4 0.363276 0.0108066 0.232309
2885 4 0.0624724 0.111491 0.183242
2884 2 0.0817169 0.116104 0.167959
781 2 0.125049 0.14373 0.224401
783 4 0.117788 0.13828 0.247698
782 4 0.132309 0.14918 0.201103
4245 4 0.147026 0.153086 0.188474
2948 4 0.175838 0.093297 0.227387
4243 2 0.172009 0.153732 0.189244
4244 4 0.196993 0.154378 0.190013
3725 4 0.237362 0.116828 0.211116
3724 2 0.220611 0.127416 0.195869
3726 4 0.203859 0.138003 0.180623
2972 4 0.248097 0.100263 0.208554
1166 4 0.181842 0.103953 0.24352
2971 2 0.272684 0.104737 0.20774
925 2 0.303615 0.151478 0.194116
927 4 0.295152 0.129965 0.203642
2973 4 0.297271 0.109212 0.206927
926 4 0.312079 0.172991 0.184589
4329 4 0.461364 0.111855 0.17052
4327 2 0.458499 0.115803 0.195044
377 3 0.471133 0.119983 0.232612
4328 4 0.455634 0.11975 0.219568
376 1 0.488931 0.130655 0.242536
380 3 0.489287 0.152428 0.235868
2183 4 0.0461107 0.200587 0.198107
2182 2 0.0672494 0.209611 0.188262
2184 4 0.0883882 0.218634 0.178417
448 3 0.00695218 0.244138 0.207547
3459 4 0.15523 0.246355 0.157498
3841 2 0.121108 0.23238 0.177048
3842 4 0.105696 0.215852 0.187747
3102 4 0.320754 0.176219 0.166414
794 4 0.323752 0.185672 0.235676
359 3 0.480261 0.182103 0.167182
3003 4 0.445068 0.218907 0.166644
358 3 0.45887 0.211666 0.177805
357 3 0.496037 0.212127 0.183378
356 1 0.47736 0.198701 0.183135
360 3 0.4746 0.189315 0.2037
2271 4 0.474009 0.185252 0.222783
2269 2 0.475461 0.185879 0.247737
450 3 0.000361589 0.276284 0.189085
4187 4 0.0189621 0.269087 0.181007
4186 2 0.0426665 0.263195 0.175662
4024 2 0.0421002 0.313038 0.201143
4026 4 0.0342171 0.290812 0.192832
4025 4 0.0499833 0.335263 0.209454
447 3 0.997204 0.275243 0.226259
1967 4 0.12829 0.297096 0.185505
3457 2 0.165381 0.262492 0.173676
3458 4 0.175532 0.278629 0.189855
1966 2 0.120182 0.319346 0.193529
4708 2 0.154639 0.325354 0.241617
4709 4 0.169808 0.338169 0.226423
567 3 0.210666 0.319627 0.167626
3234 4 0.188191 0.345974 0.221296
3232 2 0.20009 0.342281 0.199617
568 3 0.241231 0.298124 0.171632
4076 4 0.259937 0.298565 0.178008
4075 2 0.265565 0.290511 0.201
4077 4 0.271193 0.282456 0.223992
884 4 0.26146 0.297823 0.232377
4352 4 0.324961 0.3123 0.201773
4351 2 0.338981 0.320303 0.182679
72 3 0.37866 0.33981 0.250826
3141 4 0.484604 0.27473 0.245687
3216 4 0.0593452 0.338762 0.226779
3214 2 0.0832147 0.344872 0.222523
3215 4 0.107084 0.350981 0.218268
1968 4 0.112074 0.341596 0.201552
3233 4 0.211989 0.338589 0.177938
433 3 0.281381 0.421011 0.185448
1734 4 0.282869 0.401271 0.188811
1732 2 0.272454 0.397443 0.211218
2825 4 0.304156 0.343656 0.228542
2824 2 0.326168 0.355461 0.229682
1733 4 0.262039 0.393615 0.233625
29 3 0.256961 0.377836 0.245263
75 3 0.372837 0.331496 0.214911
2826 4 0.348181 0.367266 0.230822
71 1 0.380281 0.347565 0.22923
73 3 0.367291 0.366676 0.227127
74 3 0.402486 0.352541 0.224694
4235 4 0.411176 0.350408 0.243952
375 3 0.491918 0.381005 0.240915
1847 4 0.458861 0.421291 0.230836
371 1 0.476364 0.396734 0.246328
372 3 0.463667 0.40154 0.227758
262 3 0.488845 0.404743 0.176161
435 3 0.306211 0.443972 0.168897
431 1 0.284059 0.439396 0.171548
432 3 0.273668 0.457542 0.181134
2700 4 0.317057 0.442049 0.185938
2698 2 0.337239 0.44914 0.198884
2699 4 0.35742 0.45623 0.211831
4283 4 0.358248 0.440607 0.224255
4282 2 0.380532 0.448205 0.232676
4284 4 0.402816 0.455803 0.241096
4071 4 0.43039 0.427649 0.177295
1846 2 0.446769 0.430447 0.210958
1848 4 0.434678 0.439603 0.19108
1879 2 0.432753 0.471587 0.247567
1881 4 0.45655 0.475195 0.240796
3163 2 0.0185032 0.0202867 0.319807
3165 4 0.0394312 0.0273266 0.308074
85 3 0.0547227 0.022474 0.297733
81 1 0.0605212 0.0198662 0.275865
83 3 0.0444549 0.0295456 0.262206
4172 4 0.121089 0.0700217 0.262733
4173 4 0.092276 0.0296531 0.256332
82 3 0.0807106 0.0302264 0.272093
4171 2 0.106683 0.0498374 0.259532
3142 2 0.446217 0.00892401 0.314615
3144 4 0.449024 0.0281917 0.330301
799 2 0.48617 0.0506237 0.324817
1892 4 0.121707 0.132847 0.266721
440 3 0.155045 0.104223 0.304059
1891 2 0.105126 0.14673 0.279273
1167 4 0.170419 0.109359 0.291905
1165 2 0.17613 0.106656 0.267712
436 1 0.164991 0.107665 0.324256
439 3 0.186729 0.11518 0.321199
795 4 0.302413 0.150408 0.263992
378 3 0.486485 0.129472 0.26558
605 3 0.0787764 0.163225 0.308875
604 3 0.0434499 0.174396 0.302174
601 1 0.0637492 0.180072 0.311876
602 3 0.0716962 0.199189 0.301848
1893 4 0.0885456 0.160614 0.291825
793 2 0.313083 0.16804 0.249834
1696 2 0.38553 0.210765 0.280119
1698 4 0.366225 0.197049 0.28814
4478 4 0.347812 0.190693 0.285114
1697 4 0.404836 0.224482 0.272099
4477 2 0.335442 0.203907 0.302365
2969 4 0.390919 0.245003 0.31326
580 3 0.406701 0.252191 0.30323
4479 4 0.323072 0.21712 0.319615
578 3 0.416846 0.240146 0.269031
576 1 0.4221 0.254371 0.286594
2270 4 0.476914 0.186505 0.272691
408 3 0.491877 0.184904 0.288134
3140 4 0.45702 0.251212 0.280137
579 3 0.443274 0.249452 0.294711
3134 4 0.0166312 0.30733 0.282234
1170 4 0.0273784 0.314681 0.296603
1168 2 0.0520978 0.311435 0.294704
1169 4 0.0768172 0.308188 0.292805
3914 4 0.093442 0.297183 0.286575
4710 4 0.13947 0.312539 0.256811
3915 4 0.13938 0.314409 0.276897
3913 2 0.116411 0.305796 0.281736
1800 4 0.208184 0.260528 0.332425
1784 4 0.215789 0.265247 0.313491
1785 4 0.246788 0.29882 0.293179
1783 2 0.231288 0.282033 0.303335
2934 4 0.241399 0.313711 0.306113
883 2 0.265048 0.30627 0.255635
1671 4 0.288728 0.290425 0.300791
885 4 0.268636 0.314717 0.278894
1669 2 0.29982 0.277705 0.319239
1670 4 0.310913 0.264985 0.337687
2968 2 0.367821 0.252562 0.319136
1158 4 0.388948 0.342586 0.307226
2970 4 0.344722 0.260121 0.325011
3071 4 0.510607 0.332183 0.288324
577 3 0.421935 0.276052 0.278909
3139 2 0.470812 0.262971 0.262912
777 4 0.499451 0.325525 0.273393
1197 4 0.00828216 0.360132 0.281222
1195 2 0.0260966 0.377402 0.28432
1196 4 0.0439111 0.394672 0.287417
2238 4 0.0619897 0.405032 0.289571
2236 2 0.0840164 0.396837 0.298106
2237 4 0.106043 0.388642 0.306642
2218 2 0.147032 0.392001 0.301822
2220 4 0.122565 0.394994 0.297623
2219 4 0.171498 0.389007 0.306021
2932 2 0.241949 0.336456 0.295743
3937 2 0.202626 0.375348 0.283791
3938 4 0.226377 0.369811 0.278276
28 3 0.234289 0.388042 0.274007
3939 4 0.178874 0.380885 0.289305
2933 4 0.242498 0.359202 0.285374
26 1 0.255747 0.381432 0.268154
30 3 0.261327 0.362382 0.279319
27 3 0.270489 0.398146 0.273848
1156 2 0.393251 0.342847 0.282597
1157 4 0.397553 0.343107 0.257967
776 4 0.482745 0.363047 0.244865
4234 2 0.42836 0.367989 0.248513
4236 4 0.445543 0.38557 0.253075
374 3 0.462443 0.388674 0.263051
373 3 0.486885 0.416149 0.253452
775 2 0.491098 0.344286 0.259129
1082 4 0.492917 0.416396 0.272548
1880 4 0.408955 0.467979 0.254337
890 4 0.359057 0.447487 0.324269
889 2 0.381164 0.443789 0.335352
2169 4 0.498645 0.501376 0.278828
3099 4 0.0540241 0.999579 0.372001
3164 4 0.997575 0.0132467 0.331539
3097 2 0.0735417 0.014919 0.37499
3224 4 0.0495705 0.0917041 0.395622
3223 2 0.0297305 0.0765198 0.394624
3098 4 0.0930593 0.0302593 0.37798
3225 4 0.00989055 0.0613355 0.393627
907 2 0.149789 0.0178913 0.367767
908 4 0.158495 0.0373939 0.380769
2723 4 0.167081 0.0389457 0.398473
2722 2 0.187493 0.0533668 0.39922
2724 4 0.207905 0.067788 0.399966
1472 4 0.223732 0.0799951 0.399874
3106 2 0.288558 0.0204528 0.396734
3107 4 0.272279 0.00195409 0.392492
3259 2 0.300485 0.0777026 0.418712
3108 4 0.304837 0.0389514 0.400977
3260 4 0.307536 0.0545761 0.412337
4338 4 0.505737 0.0141968 0.370282
800 4 0.468218 0.033733 0.329012
930 4 0.391572 0.0607978 0.411554
301 1 0.465947 0.0106915 0.381319
303 3 0.485423 0.016406 0.370076
304 3 0.45906 0.0283451 0.39471
302 3 0.449492 0.00620796 0.365882
3975 4 0.0201363 0.127956 0.426996
437 3 0.165546 0.0878362 0.335904
438 3 0.152881 0.123219 0.336497
1471 2 0.221212 0.103261 0.391069
1473 4 0.218693 0.126527 0.382265
396 1 0.312081 0.134871 0.385746
397 3 0.312036 0.149411 0.403572
400 3 0.324057 0.116298 0.391245
398 3 0.290184 0.128996 0.380804
3711 4 0.327899 0.159704 0.41046
399 3 0.321766 0.145418 0.367488
603 3 0.0608373 0.18414 0.334533
2000 4 0.0613459 0.180619 0.354242
1999 2 0.0544728 0.176212 0.377875
2001 4 0.0475996 0.171804 0.401508
870 4 0.0382661 0.189532 0.406712
868 2 0.0237975 0.205538 0.419349
1355 4 0.225624 0.211574 0.379199
1354 2 0.250517 0.211604 0.381544
1799 4 0.220697 0.224315 0.364562
1798 2 0.21444 0.242421 0.348494
1356 4 0.27541 0.211634 0.383889
3006 4 0.279163 0.221511 0.366392
3004 2 0.295711 0.22618 0.348238
3005 4 0.312259 0.230848 0.330084
3775 2 0.143395 0.283094 0.396891
3777 4 0.142135 0.266814 0.415826
3776 4 0.144655 0.299374 0.377956
4305 4 0.160435 0.30573 0.367429
4303 2 0.181375 0.319387 0.367076
3354 4 0.207778 0.299805 0.413535
1855 2 0.287569 0.32407 0.365603
1857 4 0.299367 0.319804 0.343974
1856 4 0.275771 0.328336 0.387231
1140 4 0.344158 0.284618 0.388326
1139 4 0.350923 0.261764 0.344365
1138 2 0.347541 0.273191 0.366345
3433 2 0.23447 0.343459 0.38036
3434 4 0.211843 0.349945 0.371923
4304 4 0.202316 0.333045 0.366722
3980 4 0.206321 0.391089 0.410514
3435 4 0.257097 0.336974 0.388797
875 4 0.333992 0.325136 0.365892
874 2 0.35694 0.333805 0.361048
2263 2 0.399713 0.370933 0.369365
2265 4 0.392857 0.347006 0.371748
876 4 0.379888 0.342474 0.356204
2264 4 0.40657 0.39486 0.366983
10 3 0.231564 0.442281 0.398576
2846 4 0.272407 0.460571 0.358869
2847 4 0.251589 0.444122 0.401257
2845 2 0.261998 0.452346 0.380063
4127 4 0.355868 0.412977 0.40827
4126 2 0.364879 0.429168 0.391482
891 4 0.40327 0.44009 0.346435
4128 4 0.37389 0.445358 0.374693
3297 4 0.481177 0.46374 0.385422
832 2 0.452902 0.446952 0.396554
834 4 0.464501 0.457302 0.37697
2654 4 0.00874388 0.0219573 0.489288
1480 2 0.0769124 0.0585655 0.43139
1481 4 0.0843535 0.0384264 0.444206
2906 4 0.0802263 0.0194586 0.443426
3546 4 0.180968 0.00772832 0.486695
1536 4 0.195972 0.0131664 0.498294
3686 4 0.251089 0.0499789 0.499075
3685 2 0.267136 0.0501886 0.479902
1978 2 0.320232 0.0701163 0.468549
1979 4 0.30216 0.0582251 0.456011
3687 4 0.283184 0.0503984 0.460729
1980 4 0.338304 0.0820074 0.481087
89 3 0.350261 0.0755449 0.496209
928 2 0.391433 0.045279 0.431158
993 4 0.406792 0.0192924 0.458131
929 4 0.391295 0.0297602 0.450763
991 2 0.399976 0.996469 0.465733
1482 4 0.0694713 0.0787046 0.418575
3261 4 0.293434 0.100829 0.425086
2213 4 0.29426 0.120157 0.430993
2212 2 0.275347 0.135271 0.437241
2214 4 0.256433 0.150385 0.443489
3709 2 0.340765 0.171221 0.428544
815 4 0.996151 0.214451 0.445629
869 4 0.00932898 0.221543 0.431985
63 3 0.153152 0.231885 0.459802
214 3 0.223768 0.192524 0.433823
211 1 0.246837 0.190031 0.433726
215 3 0.252271 0.167944 0.434859
212 3 0.255192 0.198898 0.414214
2150 4 0.257372 0.20804 0.470739
213 3 0.256108 0.201398 0.451705
2149 2 0.271755 0.20906 0.491166
3282 4 0.353996 0.202234 0.441763
3710 4 0.35363 0.182738 0.446627
3280 2 0.351927 0.2134 0.464039
3281 4 0.349858 0.224566 0.486315
3377 4 0.346489 0.222703 0.506064
65 3 0.144112 0.251836 0.429176
64 3 0.132347 0.263532 0.462976
61 1 0.14948 0.253149 0.45127
62 3 0.168706 0.265548 0.453672
3353 4 0.180244 0.265082 0.436708
3352 2 0.194011 0.282444 0.425121
1076 4 0.287133 0.280694 0.462995
1075 2 0.310975 0.275903 0.457184
1077 4 0.334818 0.271112 0.451372
1703 4 0.351599 0.260873 0.450062
1702 2 0.368039 0.279588 0.452225
1704 4 0.384479 0.298303 0.454388
3062 4 0.386369 0.319267 0.45402
3061 2 0.384654 0.335372 0.47307
3356 4 0.0157226 0.383319 0.489109
3981 4 0.182392 0.347265 0.407745
9 3 0.216622 0.408705 0.406765
3979 2 0.194357 0.369177 0.40913
8 3 0.245677 0.42226 0.427171
2559 4 0.295575 0.354982 0.494972
3063 4 0.382939 0.351478 0.492119
2065 2 0.130767 0.497246 0.486952
6 1 0.226456 0.427849 0.415437
4558 2 0.197297 0.496116 0.470981
4559 4 0.216712 0.491035 0.485895
4560 4 0.177882 0.501197 0.456066
1741 2 0.238031 0.45238 0.461358
1743 4 0.224249 0.438585 0.445709
7 3 0.211631 0.437956 0.429831
3230 4 0.315609 0.439041 0.450009
1742 4 0.251813 0.466176 0.477008
4253 4 0.259654 0.433311 0.416331
3229 2 0.333048 0.456948 0.449388
4252 2 0.27884 0.430712 0.432152
4254 4 0.298026 0.428114 0.447973
4362 4 0.266968 0.456199 0.487602
3231 4 0.350487 0.474856 0.448767
833 4 0.441302 0.436602 0.416137
1007 4 0.445064 0.47824 0.462913
1008 4 0.450243 0.43661 0.435693
1006 2 0.447654 0.457425 0.449303
147 3 0.0767647 0.0564771 0.574292
3395 4 0.00818508 0.0330979 0.545419
2655 4 0.0251104 0.0308918 0.535689
3394 2 0.00128273 0.0525764 0.559494
2653 2 0.0169271 0.0264246 0.512488
2538 4 0.0875259 0.0126513 0.539291
148 3 0.0902106 0.0283002 0.553366
146 1 0.0921456 0.0393845 0.573659
149 3 0.113434 0.0483679 0.57578
565 3 0.144217 0.0344143 0.511402
561 1 0.144288 0.016443 0.525391
4784 4 0.128084 0.0619678 0.572108
4542 4 0.151196 0.0301597 0.555652
562 3 0.135042 0.0225072 0.545562
4540 2 0.157397 0.0286297 0.579826
4783 2 0.127099 0.0804744 0.555323
564 3 0.131696 0.999236 0.516238
563 3 0.166067 0.00928248 0.528971
1534 2 0.213857 0.030349 0.501467
1535 4 0.231742 0.0475317 0.50464
3480 4 0.243771 0.00337288 0.570614
2995 2 0.303265 0.048065 0.541464
2997 4 0.286597 0.0294332 0.541939
2996 4 0.319933 0.0666968 0.54099
87 3 0.322962 0.0727664 0.521894
86 1 0.343739 0.0816656 0.517619
88 3 0.35881 0.0733409 0.533175
848 4 0.501089 0.0668062 0.503214
4780 2 0.141193 0.134083 0.543112
4781 4 0.139569 0.158872 0.540276
4785 4 0.126115 0.0989811 0.538538
4782 4 0.142817 0.109294 0.545949
90 3 0.342655 0.104357 0.519223
2705 4 0.50483 0.0778733 0.520411
2704 2 0.508695 0.0797855 0.54504
3328 2 0.0251323 0.188048 0.514309
3329 4 0.0428735 0.183133 0.497389
3330 4 0.00739116 0.192964 0.531228
3378 4 0.299518 0.219206 0.522867
3376 2 0.323003 0.220955 0.514466
2151 4 0.286137 0.210081 0.511593
2562 4 0.265875 0.305453 0.580871
3357 4 0.0411347 0.406989 0.525092
3355 2 0.0284287 0.395154 0.507101
163 3 0.229336 0.40188 0.550581
161 1 0.247332 0.395352 0.537469
162 3 0.244687 0.373245 0.531686
2859 4 0.277561 0.389856 0.564055
2557 2 0.276577 0.356499 0.511158
2558 4 0.257579 0.358016 0.527343
164 3 0.26709 0.397668 0.549413
165 3 0.248158 0.408006 0.518552
3047 4 0.448629 0.42518 0.550186
3046 2 0.467631 0.422474 0.534162
4437 4 0.0649168 0.465132 0.537773
1238 4 0.0692151 0.485109 0.536801
4435 2 0.0705631 0.451995 0.517262
1237 2 0.0788497 0.500236 0.554223
4436 4 0.0762094 0.438857 0.496751
3425 4 0.153523 0.48596 0.512025
3424 2 0.16551 0.471953 0.528916
2067 4 0.133484 0.489804 0.510668
3359 4 0.22885 0.420293 0.545277
3426 4 0.177497 0.457946 0.545806
3358 2 0.213231 0.439778 0.544007
3360 4 0.197613 0.459262 0.542738
3683 4 0.215374 0.498818 0.502644
4628 4 0.314209 0.432371 0.516073
4361 4 0.295504 0.431164 0.520153
4360 2 0.281236 0.443682 0.503877
4627 2 0.333172 0.432782 0.532366
4629 4 0.352134 0.433193 0.548658
4439 4 0.463747 0.484137 0.579231
1103 4 0.500813 0.430286 0.509521
3048 4 0.486633 0.419769 0.518137
4508 4 0.464754 0.489543 0.559662
2957 4 0.0731311 0.0121014 0.587988
2268 4 0.081402 0.086692 0.665405
150 3 0.0880508 0.0249699 0.590809
758 4 0.166511 0.0392157 0.619398
2266 2 0.106301 0.086887 0.663129
3363 4 0.148983 0.0946836 0.655475
2267 4 0.131201 0.087082 0.660854
4541 4 0.163597 0.0270998 0.604001
757 2 0.172368 0.0217159 0.63627
3183 4 0.225391 0.0475498 0.614715
759 4 0.178224 0.00421613 0.653142
3181 2 0.218703 0.0710016 0.620235
3478 2 0.232482 0.0178277 0.587608
3479 4 0.221192 0.0322826 0.604601
345 3 0.328753 0.0769311 0.651953
3707 4 0.304779 0.00913733 0.670169
3676 2 0.395034 0.0277761 0.63352
3678 4 0.391479 0.052491 0.632211
342 3 0.344039 0.0505072 0.673424
3677 4 0.398589 0.0030613 0.634828
4524 4 0.405147 0.0518016 0.584106
4522 2 0.416821 0.0728455 0.590893
3346 2 0.472843 0.0143166 0.60427
3347 4 0.452734 0.999907 0.607901
3348 4 0.492951 0.0287264 0.600639
2437 2 0.0162905 0.152418 0.590853
2439 4 0.0298513 0.162505 0.572427
2438 4 0.00272979 0.14233 0.609279
1334 4 0.198898 0.106172 0.636277
1333 2 0.195734 0.126909 0.62267
1335 4 0.192569 0.147646 0.609062
3182 4 0.212015 0.0944535 0.625756
1300 2 0.318193 0.117097 0.644208
1302 4 0.319563 0.141125 0.637431
1301 4 0.316823 0.093068 0.650985
4112 4 0.423061 0.112023 0.601886
4113 4 0.391357 0.148638 0.614335
3658 2 0.352853 0.155583 0.616236
3660 4 0.330774 0.155466 0.62797
3659 4 0.374932 0.1557 0.604503
4111 2 0.407209 0.13033 0.608111
4523 4 0.428495 0.0938894 0.59768
1370 4 0.499761 0.159005 0.637353
1511 4 0.441583 0.122896 0.632019
364 3 0.487442 0.15097 0.623788
1510 2 0.446665 0.11275 0.654299
362 3 0.475574 0.146841 0.588366
361 1 0.493895 0.14542 0.602202
365 3 0.502008 0.124145 0.601745
3079 2 0.215047 0.185695 0.649939
2873 4 0.248323 0.183726 0.62
3080 4 0.230148 0.186692 0.630036
169 3 0.239046 0.2433 0.662065
168 3 0.231298 0.207016 0.670301
2872 2 0.258797 0.204988 0.612036
170 3 0.266855 0.218052 0.664685
2874 4 0.269272 0.226249 0.604072
1495 2 0.31859 0.238027 0.620572
1496 4 0.331273 0.219911 0.632242
3390 4 0.401272 0.22469 0.615669
1041 4 0.390077 0.239885 0.615312
1325 4 0.391199 0.245059 0.653508
839 4 0.458108 0.202982 0.615567
3389 4 0.445555 0.206688 0.630361
838 2 0.482263 0.202905 0.609112
3388 2 0.423413 0.215689 0.623015
1497 4 0.305908 0.256142 0.608902
2561 4 0.297309 0.269819 0.596452
2560 2 0.281592 0.287636 0.588662
2568 4 0.319745 0.32728 0.642894
2415 4 0.321983 0.326892 0.662706
1040 4 0.380019 0.28854 0.609629
1039 2 0.385048 0.264213 0.612471
2898 4 0.407181 0.2574 0.647523
2896 2 0.429652 0.268199 0.64942
2897 4 0.452124 0.278998 0.651317
734 3 0.153783 0.401625 0.581952
731 1 0.145013 0.399863 0.603362
735 3 0.129153 0.38353 0.603942
3314 4 0.120372 0.36691 0.596167
3313 2 0.108368 0.353466 0.613497
3315 4 0.096364 0.340022 0.630827
732 3 0.161981 0.394468 0.617927
2566 2 0.302634 0.341368 0.631323
2858 4 0.272551 0.360463 0.604201
2567 4 0.285522 0.355456 0.619752
2857 2 0.275056 0.375159 0.584128
1569 4 0.137603 0.439 0.604176
733 3 0.135745 0.420131 0.60982
1567 2 0.155528 0.456379 0.605547
1568 4 0.173452 0.473757 0.606918
1830 4 0.192918 0.473276 0.609695
1828 2 0.19656 0.493165 0.624404
2607 4 0.45091 0.453969 0.637878
4440 4 0.460376 0.469411 0.626902
2605 2 0.463865 0.453917 0.659264
4438 2 0.462062 0.476774 0.603066
3539 4 0.0697563 0.0714467 0.671912
323 3 0.00264332 0.0221848 0.715659
3540 4 0.0231374 0.0625789 0.687684
3538 2 0.0464469 0.0670128 0.679798
324 3 0.0177944 0.0554757 0.705336
3768 4 0.0780152 0.0599674 0.716796
3766 2 0.0645599 0.0412753 0.726529
3477 4 0.077002 0.0787143 0.723101
3693 4 0.00556172 0.0562674 0.744752
3767 4 0.0511046 0.0225831 0.736262
3114 4 0.0540806 0.00410628 0.740526
1618 2 0.141011 0.0257568 0.731164
1620 4 0.153504 0.021298 0.709968
762 4 0.151821 0.00339395 0.700158
1745 4 0.231011 0.0519419 0.72045
343 3 0.308394 0.0469148 0.662062
341 1 0.324701 0.062031 0.668693
1744 2 0.240897 0.0328025 0.707756
1746 4 0.250783 0.013663 0.695062
344 3 0.317798 0.0732614 0.687789
1384 2 0.307502 0.0579421 0.722763
1385 4 0.302619 0.0648971 0.699247
2986 2 0.461461 0.0139663 0.674044
2988 4 0.482496 0.027474 0.67459
2987 4 0.440427 0.000458683 0.673498
3368 4 0.0101548 0.150541 0.713844
3475 2 0.0912284 0.0925546 0.738308
3361 2 0.164613 0.0953781 0.674978
3362 4 0.180243 0.0960726 0.694482
3450 4 0.198307 0.147228 0.745269
1311 4 0.190201 0.160581 0.732497
515 3 0.409147 0.121416 0.727216
1512 4 0.451747 0.102605 0.676579
511 1 0.428267 0.123898 0.739336
513 3 0.44422 0.135104 0.726753
514 3 0.436367 0.103104 0.745693
512 3 0.423715 0.136199 0.758233
3367 2 0.020888 0.171421 0.722446
1486 2 0.0483662 0.214607 0.744815
1488 4 0.0498626 0.239518 0.74327
3577 2 0.13447 0.180475 0.732672
1688 4 0.147525 0.219187 0.72127
3579 4 0.148266 0.200357 0.726383
3081 4 0.199945 0.184697 0.669842
166 1 0.246581 0.224267 0.672991
1310 4 0.195948 0.184388 0.688896
1309 2 0.193075 0.172485 0.710696
1687 2 0.167718 0.231736 0.729012
1689 4 0.187912 0.244285 0.736754
167 3 0.248682 0.22891 0.695423
4674 4 0.314178 0.186868 0.686992
4673 4 0.271551 0.212903 0.684562
4672 2 0.292864 0.199886 0.685777
2556 4 0.26867 0.231067 0.695027
2554 2 0.278973 0.248393 0.709819
1326 4 0.38647 0.245893 0.703284
3171 4 0.39552 0.229828 0.711648
1324 2 0.388835 0.245476 0.678396
3169 2 0.414163 0.235632 0.727266
3170 4 0.432805 0.241436 0.742884
3615 4 0.448808 0.247339 0.753264
1347 4 0.151421 0.274052 0.670965
1345 2 0.16081 0.283974 0.691908
1346 4 0.170198 0.293896 0.712851
3420 4 0.23605 0.258893 0.675332
3418 2 0.217286 0.274094 0.681815
3419 4 0.198521 0.289294 0.688297
2555 4 0.289276 0.26572 0.724612
1731 4 0.297682 0.283083 0.722193
1729 2 0.319496 0.284136 0.734368
1730 4 0.34131 0.285188 0.746543
2413 2 0.335957 0.323503 0.683162
2414 4 0.349931 0.320114 0.703617
1313 4 0.363819 0.31496 0.71643
1312 2 0.370267 0.33816 0.723167
3613 2 0.468017 0.254024 0.73872
2741 4 0.468089 0.270071 0.661093
2740 2 0.476577 0.271604 0.684562
3614 4 0.487226 0.260709 0.724177
2742 4 0.485064 0.273137 0.708031
3558 4 0.0558683 0.368178 0.671012
3556 2 0.0642043 0.390146 0.679563
3557 4 0.0725403 0.412113 0.688114
3221 4 0.105783 0.376397 0.727563
3785 4 0.118949 0.410748 0.678458
3784 2 0.117851 0.401451 0.701643
3786 4 0.116753 0.392153 0.724828
3220 2 0.0966754 0.370038 0.749964
1314 4 0.376715 0.361359 0.729903
3463 2 0.0653304 0.438064 0.721843
3464 4 0.0631163 0.447837 0.744751
3465 4 0.0675445 0.428291 0.698935
4741 2 0.0261501 0.464736 0.751604
4742 4 0.0501459 0.45899 0.75565
1518 4 0.218918 0.455322 0.664121
1516 2 0.209744 0.46806 0.683582
1517 4 0.200569 0.480799 0.703043
1590 4 0.239415 0.449646 0.742956
1587 4 0.254265 0.459612 0.733081
1585 2 0.261832 0.482084 0.741014
650 3 0.323765 0.48705 0.748386
1838 4 0.33996 0.495176 0.740474
1839 4 0.367551 0.453577 0.743491
1837 2 0.353756 0.474376 0.741983
697 3 0.489408 0.440085 0.684037
2606 4 0.47682 0.453864 0.680649
4240 2 0.053149 0.0447055 0.803918
4242 4 0.0457169 0.0620042 0.787465
3692 4 0.0422814 0.0750405 0.773035
3691 2 0.0239216 0.0656539 0.758894
4241 4 0.0605811 0.0274069 0.820371
1619 4 0.128518 0.0302156 0.752359
1274 4 0.131106 0.0287467 0.773734
1273 2 0.120637 0.00830031 0.783611
1386 4 0.312384 0.0509871 0.746278
3792 4 0.404506 0.0397248 0.812977
3790 2 0.417035 0.0567664 0.799644
112 3 0.348742 0.0304115 0.825301
3791 4 0.429564 0.0738081 0.78631
3497 4 0.388547 0.0894097 0.781643
1403 4 0.046455 0.13931 0.824736
1404 4 0.0518698 0.146304 0.775517
1402 2 0.0491624 0.142807 0.800127
2532 4 0.0404675 0.159035 0.830297
1232 4 0.0695396 0.145885 0.766235
3476 4 0.105455 0.106395 0.753515
1231 2 0.0932525 0.152867 0.762473