ITEM: TIMESTEP
1160000
ITEM: NUMBER OF ATOMS
4590
ITEM: BOX BOUNDS xy xz yz pp pp pp
-9.9985700000000008e+00 1.3997997999999995e+01 3.9994279999999947e+00
-9.9985700000000008e+00 9.9985700000000008e+00 0.0000000000000000e+00
-9.9985700000000008e+00 9.9985700000000008e+00 0.0000000000000000e+00
ITEM: ATOMS id type xs ys zs
3509 4 0.0591612 0.0791351 0.0763261
3685 2 0.168683 0.49766 0.270786
1633 2 0.249512 0.0473282 0.063437
1634 4 0.262471 0.0515963 0.0430367
2480 4 0.275209 0.0615477 0.0355718
2479 2 0.273409 0.081295 0.0203865
68 3 0.378935 0.0769959 0.0231459
2556 4 0.387664 0.0586874 0.0256765
2554 2 0.398891 0.0430807 0.04345
2555 4 0.410118 0.027474 0.0612236
660 4 0.415466 0.0402053 0.074209
1169 4 0.00792556 0.112601 0.0478413
1168 2 0.00563172 0.0997703 0.0687442
1296 4 0.15194 0.121885 0.016642
1294 2 0.175882 0.120335 0.00862177
2481 4 0.27161 0.101042 0.0052013
923 4 0.256457 0.116681 0.00494728
1148 4 0.312456 0.133081 0.0796477
1147 2 0.318628 0.131647 0.0553889
2936 4 0.335461 0.134602 0.0162426
1149 4 0.3248 0.130213 0.03113
3556 2 0.0096757 0.176449 0.00921819
3557 4 0.0309312 0.184898 0.00398906
2912 4 0.0491177 0.189507 4.04035e-05
3687 4 0.147545 0.497354 0.257532
3883 2 0.117306 0.498672 0.242992
1094 4 0.389982 0.247273 0.0133137
2975 4 0.485704 0.246714 0.0517687
2570 4 0.269675 0.278084 0.027905
2569 2 0.280681 0.266116 0.00771164
959 4 0.402741 0.259618 0.0174347
958 2 0.399366 0.274321 0.0376535
3041 4 0.419806 0.324514 0.0200423
1028 4 0.422837 0.313571 0.00361415
960 4 0.395991 0.289025 0.0578722
3040 2 0.398489 0.332739 0.0331009
3006 4 0.0188818 0.385418 0.0346007
525 4 0.123762 0.395282 0.0562009
3149 4 0.131429 0.376313 0.0609107
3148 2 0.155562 0.364842 0.0649947
3150 4 0.179694 0.353371 0.0690787
2770 2 0.344822 0.339171 0.0142565
2772 4 0.361303 0.340924 0.0326632
3042 4 0.377172 0.340964 0.0461595
639 4 0.473292 0.34283 0.0788732
323 4 0.448758 0.398952 0.0391152
637 2 0.485829 0.341365 0.057122
322 2 0.468111 0.407615 0.0288412
638 4 0.498367 0.339901 0.0353708
524 4 0.0934634 0.438376 0.069378
1290 4 0.0765475 0.453656 0.0731642
4436 4 0.0665665 0.447802 0.00346862
523 2 0.108613 0.416829 0.0627894
3350 4 0.173108 0.458678 0.0115158
324 4 0.487464 0.416278 0.0185671
3742 2 0.481617 0.419319 0.0872824
3744 4 0.494766 0.437651 0.0847638
281 4 0.493908 0.433114 0.0107105
1926 4 0.0444751 0.035975 0.139132
1924 2 0.0285668 0.0229778 0.128468
1925 4 0.0126586 0.00998058 0.117804
3510 4 0.0482737 0.0498974 0.113284
3508 2 0.0537174 0.0645162 0.0948049
1475 4 0.0429829 0.0375324 0.158949
1437 4 0.00917439 0.0804925 0.148049
2728 2 0.143297 0.00674929 0.131392
2730 4 0.150067 0.016027 0.152949
1635 4 0.236552 0.0430601 0.0838374
1572 4 0.258772 0.00186394 0.140471
3503 4 0.266208 0.0115004 0.154836
566 4 0.413342 0.0779967 0.122001
658 2 0.417013 0.0488099 0.0974567
659 4 0.41856 0.0574144 0.120704
2793 4 0.468907 0.00501792 0.14224
2792 4 0.484887 0.0432744 0.16412
2791 2 0.476897 0.0241462 0.15318
1170 4 0.00333788 0.0869395 0.089647
1435 2 0.00468662 0.100082 0.163576
2753 4 0.225372 0.12505 0.153216
2752 2 0.233689 0.106607 0.13698
31 1 0.241798 0.160372 0.157417
34 3 0.238837 0.138378 0.156719
2754 4 0.242006 0.0881634 0.120745
1232 4 0.262323 0.0844162 0.120066
33 3 0.257477 0.163767 0.141314
1231 2 0.285135 0.0902417 0.116026
1233 4 0.307948 0.0960672 0.111985
395 4 0.308967 0.113514 0.120758
394 2 0.331916 0.106616 0.131358
396 4 0.354865 0.0997175 0.141957
633 4 0.366731 0.0982643 0.158946
565 2 0.422109 0.0966567 0.132991
567 4 0.430877 0.115317 0.14398
125 3 0.438025 0.123764 0.160374
124 3 0.457634 0.145513 0.141124
121 1 0.456078 0.134323 0.161094
931 2 0.0186795 0.234536 0.126589
933 4 0.0415271 0.234042 0.116224
381 4 0.107251 0.186871 0.147157
379 2 0.124031 0.170804 0.160684
35 3 0.22149 0.174531 0.153845
2590 2 0.192871 0.308351 0.113915
2591 4 0.184024 0.304831 0.0910775
2592 4 0.201718 0.311872 0.136753
554 4 0.405869 0.307949 0.157921
553 2 0.424542 0.30621 0.140999
555 4 0.443215 0.304472 0.124077
2609 4 0.461093 0.295867 0.116665
2608 2 0.459889 0.31663 0.103047
2497 2 0.461997 0.482375 0.480778
4511 4 0.00454011 0.33258 0.15716
2527 2 0.00202458 0.362713 0.101121
2579 4 0.0234807 0.331109 0.150804
2529 4 0.0255899 0.367446 0.0997229
2578 2 0.0397632 0.346801 0.149482
2580 4 0.0560457 0.362494 0.14816
326 4 0.0760321 0.363863 0.14707
325 2 0.0849977 0.362652 0.123668
327 4 0.0939633 0.36144 0.100267
4277 4 0.185196 0.361839 0.0848208
4276 2 0.202376 0.376144 0.0891693
4278 4 0.219557 0.390449 0.0935178
4587 4 0.26539 0.37219 0.161171
4585 2 0.279821 0.368399 0.140583
4586 4 0.294252 0.364608 0.119996
1047 4 0.313148 0.361708 0.112862
1045 2 0.334426 0.370741 0.109594
1046 4 0.355705 0.379773 0.106325
335 4 0.362548 0.368948 0.122802
334 2 0.387772 0.366234 0.125743
336 4 0.412996 0.363521 0.128683
2966 4 0.42539 0.370259 0.115821
303 4 0.447748 0.338438 0.154641
2965 2 0.440668 0.379713 0.100295
2610 4 0.458684 0.337392 0.0894299
3743 4 0.468468 0.400986 0.0898009
2967 4 0.455945 0.389168 0.0847698
1288 2 0.0922022 0.465422 0.08591
1289 4 0.107857 0.477188 0.0986559
753 4 0.473905 0.452568 0.150105
287 4 0.490898 0.441655 0.142188
751 2 0.456591 0.442905 0.162809
2498 4 0.447745 0.47196 0.496585
1474 2 0.0508672 0.0382538 0.182617
1476 4 0.0587515 0.0389752 0.206286
2939 4 0.0339901 0.0128279 0.244251
545 4 0.0197095 0.0896155 0.252169
2938 2 0.0161529 0.0138656 0.22655
2463 4 0.00956628 0.0858641 0.234535
2757 4 0.0665029 0.0373909 0.224661
2755 2 0.0911579 0.0341348 0.230857
2756 4 0.115813 0.0308786 0.237053
3502 2 0.277102 0.0209105 0.174159
1406 4 0.293921 0.0418528 0.207015
3504 4 0.287996 0.0303205 0.193483
1405 2 0.301359 0.0405561 0.23093
664 2 0.0556351 0.160099 0.218287
13 3 0.0545526 0.123918 0.235327
665 4 0.0609864 0.141998 0.235449
1464 4 0.0865607 0.0916943 0.226846
1462 2 0.108909 0.0990275 0.228909
15 3 0.0736233 0.0889395 0.242278
1463 4 0.131258 0.106361 0.230972
489 4 0.146267 0.116912 0.230596
487 2 0.148159 0.129038 0.20916
380 4 0.140812 0.154738 0.174211
488 4 0.150051 0.141163 0.187724
32 3 0.249975 0.164544 0.178166
632 4 0.345355 0.106179 0.204182
617 4 0.354271 0.113225 0.219045
616 2 0.357906 0.129391 0.23684
631 2 0.356043 0.102222 0.181564
123 3 0.453533 0.149324 0.17879
122 3 0.47582 0.118715 0.164147
1583 4 0.487983 0.112038 0.179862
666 4 0.0502837 0.178199 0.201125
311 4 0.0946451 0.22631 0.224646
310 2 0.114616 0.237306 0.228218
312 4 0.134587 0.248302 0.23179
3237 4 0.187985 0.239901 0.216337
713 4 0.192887 0.238388 0.234619
712 2 0.215583 0.234092 0.246016
4154 4 0.309531 0.171625 0.237303
579 4 0.299659 0.178692 0.219677
578 4 0.259446 0.173007 0.192135
577 2 0.279552 0.17585 0.205906
2944 2 0.0495542 0.261449 0.231405
2946 4 0.0707694 0.265575 0.220342
1104 4 0.087129 0.269624 0.21042
1102 2 0.0937217 0.291255 0.216589
1103 4 0.100314 0.312886 0.222759
3235 2 0.164006 0.252333 0.219277
3236 4 0.140026 0.264766 0.222217
2841 4 0.120322 0.314839 0.222358
2839 2 0.142212 0.32194 0.227962
2840 4 0.164102 0.32904 0.233567
1454 4 0.413056 0.312027 0.176218
1453 2 0.389622 0.325133 0.180719
2614 2 0.217401 0.386312 0.230479
2616 4 0.224211 0.38197 0.206583
145 3 0.220732 0.382715 0.186592
144 3 0.251804 0.363174 0.16933
141 1 0.243387 0.381506 0.182738
143 3 0.246818 0.400965 0.172435
142 3 0.254883 0.379109 0.202788
2784 4 0.318415 0.413531 0.243311
2774 4 0.36555 0.398342 0.214798
2773 2 0.361527 0.376489 0.206012
2775 4 0.357504 0.354636 0.197227
1455 4 0.366188 0.338238 0.18522
3542 4 0.429946 0.340992 0.234209
3541 2 0.443667 0.358032 0.240644
301 2 0.462886 0.345753 0.171847
302 4 0.478025 0.353069 0.189053
2910 4 0.486912 0.356579 0.206024
3893 4 0.0971573 0.488228 0.193256
3884 4 0.142211 0.495617 0.237929
1559 4 0.249315 0.419759 0.165348
1558 2 0.26868 0.424338 0.179236
1560 4 0.288046 0.428916 0.193124
2783 4 0.305883 0.432838 0.198003
2782 2 0.312149 0.423184 0.220657
752 4 0.439277 0.433242 0.175513
249 4 0.0339646 0.0531751 0.307622
544 2 0.0212139 0.0738299 0.271489
546 4 0.0227182 0.0580442 0.290809
247 2 0.056632 0.0409934 0.315836
248 4 0.0792994 0.0288117 0.32405
3054 4 0.0872778 0.0229907 0.306498
3052 2 0.105695 0.028238 0.29171
3053 4 0.124112 0.0334854 0.276921
2846 4 0.143025 0.0344451 0.27555
2845 2 0.162541 0.0455946 0.270261
2847 4 0.182057 0.0567441 0.264972
17 3 0.187657 0.0662025 0.303972
18 3 0.19912 0.0653741 0.268135
16 1 0.201433 0.0744939 0.289066
20 3 0.223501 0.0688248 0.296013
1518 4 0.228516 0.0777654 0.313196
1407 4 0.308797 0.0392595 0.254846
2646 4 0.320629 0.0524263 0.259374
2644 2 0.336281 0.0660259 0.269508
1623 4 0.435243 0.00362365 0.30344
1621 2 0.458374 0.00409315 0.31269
1622 4 0.481504 0.00456265 0.321941
12 3 0.0363299 0.0981052 0.24945
2339 4 0.00727021 0.0961879 0.311858
2338 2 0.0298275 0.0960361 0.322707
2340 4 0.0523847 0.0958843 0.333556
11 1 0.0565676 0.105621 0.249501
14 3 0.0610816 0.111801 0.271114
513 4 0.0773644 0.119301 0.273241
511 2 0.0966475 0.131577 0.274641
512 4 0.115931 0.143852 0.27604
429 4 0.114001 0.102643 0.324742
427 2 0.0924286 0.097479 0.334097
1850 4 0.131189 0.106015 0.317951
1849 2 0.153598 0.104731 0.306427
1851 4 0.176007 0.103446 0.294902
19 3 0.194745 0.0975885 0.288194
401 4 0.287271 0.143759 0.292268
4155 4 0.299563 0.144789 0.276614
400 2 0.298202 0.124154 0.306112
4153 2 0.304547 0.158207 0.256959
2645 4 0.351933 0.0796254 0.279643
402 4 0.309133 0.104549 0.319956
2808 4 0.347862 0.144955 0.319567
618 4 0.361541 0.145558 0.254635
2806 2 0.356976 0.146767 0.2965
2807 4 0.366091 0.14858 0.273433
2674 2 0.00851682 0.178317 0.283368
2676 4 0.0298408 0.187592 0.281992
1865 4 0.0420533 0.201044 0.286116
1864 2 0.0660598 0.204078 0.289303
1866 4 0.0900662 0.207112 0.29249
519 4 0.107027 0.20889 0.284358
517 2 0.130077 0.209682 0.293626
518 4 0.153127 0.210474 0.302895
734 4 0.257648 0.232385 0.258284
714 4 0.238279 0.229796 0.257412
2156 4 0.430477 0.465313 0.4973
1758 4 0.0064245 0.311656 0.304812
2945 4 0.0283389 0.257324 0.242469
1756 2 0.0179353 0.325843 0.290044
1757 4 0.0294462 0.340029 0.275277
733 2 0.270581 0.250919 0.256094
735 4 0.283515 0.269452 0.253904
914 4 0.401372 0.324796 0.283656
415 2 0.0180159 0.390977 0.256494
3900 4 0.0487969 0.341983 0.27899
416 4 0.0419971 0.393916 0.260089
3898 2 0.0726838 0.343873 0.27326
3221 4 0.0599499 0.401181 0.259667
3059 4 0.112885 0.331981 0.27123
3899 4 0.0965707 0.345763 0.26753
3220 2 0.0825515 0.407767 0.256551
3060 4 0.153361 0.341722 0.295848
3058 2 0.133123 0.336851 0.283539
2457 4 0.13471 0.392279 0.309989
3222 4 0.105153 0.414353 0.253435
3896 4 0.139687 0.382065 0.327507
2455 2 0.158962 0.39222 0.303861
2657 4 0.161989 0.347605 0.312706
2656 2 0.187333 0.342327 0.315423
2456 4 0.183215 0.392162 0.297732
2615 4 0.21059 0.390654 0.254375
3632 4 0.209826 0.397676 0.273071
2658 4 0.212677 0.33705 0.31814
1863 4 0.225547 0.349411 0.313562
3631 2 0.233232 0.398196 0.281567
1862 4 0.25851 0.338642 0.275674
1861 2 0.242028 0.344026 0.294618
3633 4 0.256639 0.398717 0.290062
3596 4 0.275825 0.395201 0.29043
3595 2 0.290994 0.404601 0.27474
1766 4 0.320174 0.398462 0.327444
3597 4 0.306164 0.414001 0.259051
913 2 0.411312 0.339316 0.299447
915 4 0.421252 0.353837 0.315239
3543 4 0.457389 0.375072 0.247078
1574 4 0.0767091 0.478684 0.324526
264 4 0.123826 0.423192 0.254274
262 2 0.144738 0.43198 0.260108
263 4 0.16565 0.440768 0.265943
3686 4 0.189822 0.497965 0.284041
2403 4 0.184453 0.444358 0.264398
1652 4 0.202943 0.501874 0.297997
2401 2 0.207259 0.450592 0.267186
1653 4 0.24656 0.493008 0.323905
1651 2 0.224751 0.497441 0.310951
2402 4 0.230065 0.456827 0.269974
2741 4 0.243883 0.467818 0.267079
2740 2 0.264372 0.478233 0.269765
593 4 0.265316 0.486056 0.330363
4199 4 0.30033 0.499058 0.276354
2742 4 0.284861 0.488648 0.27245
3129 4 0.330504 0.452076 0.319341
3615 4 0.405172 0.450895 0.327671
3613 2 0.414709 0.45763 0.306191
3614 4 0.424245 0.464364 0.284712
2630 4 0.429946 0.478152 0.272775
2629 2 0.454456 0.468138 0.268496
2631 4 0.478966 0.458125 0.264216
1401 4 0.491886 0.465958 0.276005
1670 4 0.227214 0.00283013 0.415772
2505 4 0.203264 0.0351756 0.395261
2503 2 0.209908 0.0530472 0.38107
1516 2 0.229097 0.0798643 0.338091
2504 4 0.216552 0.0709187 0.366879
3063 4 0.345416 0.0029213 0.34502
3061 2 0.365446 0.0134716 0.349892
3062 4 0.385475 0.0240218 0.354763
2499 4 0.476249 0.49279 0.46497
2654 4 0.0187757 0.144028 0.377392
2612 4 0.0295981 0.144471 0.393966
2611 2 0.0510968 0.151987 0.400261
428 4 0.0708561 0.0923147 0.343452
2613 4 0.0725955 0.159502 0.406556
1517 4 0.229679 0.0819631 0.362986
2695 2 0.272015 0.16632 0.399886
1060 2 0.0259786 0.236138 0.360853
1062 4 0.0134548 0.23674 0.382555
1061 4 0.0385024 0.235536 0.339151
528 4 0.0740461 0.175665 0.394138
526 2 0.0900932 0.180333 0.376389
527 4 0.10614 0.185002 0.358639
1780 2 0.117156 0.222907 0.348061
1782 4 0.107344 0.202409 0.351452
1781 4 0.126967 0.243405 0.344669
2448 4 0.189606 0.240142 0.413286
2696 4 0.280997 0.171391 0.377535
1799 4 0.481155 0.21021 0.331003
1800 4 0.477318 0.244831 0.366956
1798 2 0.479236 0.22752 0.348979
568 2 0.0206164 0.28673 0.405629
570 4 0.0434447 0.292848 0.402586
722 4 0.0638468 0.339958 0.38973
3474 4 0.0548385 0.304265 0.413175
679 2 0.129055 0.331004 0.407673
892 2 0.211296 0.287934 0.344725
894 4 0.188129 0.282145 0.344794
893 4 0.234462 0.293723 0.344656
2660 4 0.231754 0.313498 0.341782
2446 2 0.205164 0.256068 0.417784
2659 2 0.254274 0.314797 0.352006
2661 4 0.276795 0.316097 0.36223
678 4 0.295199 0.317296 0.369642
446 4 0.483973 0.325418 0.370084
230 4 0.4949 0.319936 0.353652
721 2 0.077767 0.343614 0.369801
723 4 0.0916872 0.34727 0.349873
681 4 0.149707 0.340746 0.403256
3897 4 0.102715 0.362441 0.348558
3895 2 0.121201 0.372253 0.338032
3501 4 0.166642 0.34495 0.413315
3499 2 0.189701 0.350849 0.411615
3500 4 0.21276 0.356747 0.409915
1765 2 0.323987 0.37958 0.343835
676 2 0.302267 0.33948 0.368816
677 4 0.309335 0.361664 0.367989
1767 4 0.3278 0.360698 0.360225
3708 4 0.374549 0.338973 0.38913
3706 2 0.361453 0.333232 0.408861
3626 4 0.358868 0.394703 0.40155
3625 2 0.367921 0.414177 0.392701
447 4 0.433407 0.338516 0.364582
445 2 0.45869 0.331967 0.367333
1573 2 0.0808691 0.457888 0.338408
1575 4 0.085029 0.437091 0.352289
599 4 0.269722 0.41552 0.407211
592 2 0.280995 0.495927 0.345063
598 2 0.285424 0.426149 0.393267
548 4 0.100634 0.498959 0.422802
2508 4 0.3154 0.49775 0.36528
600 4 0.301125 0.436778 0.379323
376 2 0.0729079 0.469954 0.486494
3128 4 0.309907 0.437373 0.36094
3127 2 0.320205 0.444725 0.34014
1775 4 0.419642 0.453019 0.339955
1776 4 0.395121 0.433203 0.375964
3627 4 0.376975 0.433651 0.383852
1774 2 0.407382 0.443111 0.35796
2825 4 0.172335 0.0933565 0.426363
811 2 0.204171 0.0788585 0.447918
813 4 0.215393 0.0636916 0.46603
459 4 0.23196 0.0615565 0.478501
2642 4 0.3713 0.0482877 0.481444
2641 2 0.392903 0.0510482 0.470186
3009 4 0.369155 0.0392408 0.498244
2643 4 0.414505 0.0538087 0.458929
2931 4 0.415111 0.0736993 0.462152
2520 4 0.481165 0.0443674 0.472006
2518 2 0.493192 0.0611858 0.482277
613 2 0.02874 0.125962 0.466918
614 4 0.0383976 0.137039 0.447905
615 4 0.0190824 0.114885 0.485931
2735 4 0.00536176 0.111307 0.497998
2826 4 0.121967 0.0967439 0.430844
2824 2 0.147151 0.0950502 0.428604
812 4 0.192948 0.0940255 0.429805
3015 4 0.167257 0.148877 0.490874
3013 2 0.180641 0.158461 0.473575
912 4 0.150455 0.139473 0.493004
3456 4 0.196155 0.159616 0.437503
3455 4 0.243903 0.159009 0.422271
3454 2 0.220029 0.159312 0.429887
2697 4 0.263033 0.161249 0.422237
2929 2 0.423379 0.0918704 0.474535
2930 4 0.431648 0.110041 0.486918
2238 4 0.444281 0.123014 0.485597
238 2 0.304114 0.488736 0.495958
383 4 0.00535088 0.180643 0.454296
382 2 0.0290322 0.184963 0.452281
384 4 0.0527135 0.189282 0.450266
4002 4 0.069767 0.196261 0.452124
4000 2 0.0900696 0.207101 0.45379
4001 4 0.110372 0.21794 0.455456
2132 4 0.129513 0.219602 0.458352
2131 2 0.138778 0.234239 0.474548
2133 4 0.148043 0.248875 0.490743
3014 4 0.194024 0.168044 0.456277
266 4 0.315888 0.240347 0.488934
3200 4 0.00825305 0.255165 0.473885
1383 4 0.0154774 0.271765 0.473692
1381 2 0.0386471 0.276464 0.478364
1382 4 0.0618169 0.281163 0.483036
3472 2 0.0778699 0.308095 0.419824
680 4 0.108403 0.321262 0.41209
3473 4 0.100901 0.311925 0.426474
1700 4 0.114396 0.273369 0.470124
1699 2 0.110021 0.295247 0.482228
2585 4 0.118535 0.269416 0.450549
1701 4 0.105645 0.317126 0.494333
2584 2 0.138517 0.275614 0.43887
2977 2 0.143923 0.329332 0.490989
2586 4 0.158499 0.281811 0.42719
374 4 0.174988 0.292363 0.428433
373 2 0.176637 0.306734 0.448388
375 4 0.178286 0.321105 0.468343
2979 4 0.168082 0.330206 0.485306
3276 4 0.239746 0.259768 0.422176
2447 4 0.220722 0.271994 0.422282
3274 2 0.262948 0.264332 0.426954
3275 4 0.28615 0.268896 0.431732
3489 4 0.318232 0.259469 0.481652
3488 4 0.305526 0.272866 0.434527
3487 2 0.311879 0.266168 0.45809
3320 4 0.169366 0.369715 0.451519
3319 2 0.183346 0.373631 0.471314
4433 4 0.216959 0.344787 0.425239
3321 4 0.197326 0.377548 0.49111
2927 4 0.217311 0.368757 0.495566
4432 2 0.240851 0.345017 0.432458
4434 4 0.264743 0.345248 0.439676
436 2 0.307446 0.340182 0.428843
437 4 0.28432 0.347 0.439094
438 4 0.330572 0.333364 0.418592
3707 4 0.348356 0.327491 0.428592
2801 4 0.377708 0.355794 0.495764
1361 4 0.462097 0.407725 0.4871
1360 2 0.475622 0.404662 0.465908
1362 4 0.489146 0.401599 0.444717
549 4 0.0513413 0.495916 0.423946
3166 2 0.00771946 0.486377 0.423767
3167 4 0.029618 0.494614 0.422057
378 4 0.0626211 0.449801 0.490244
547 2 0.0759877 0.497438 0.423374
377 4 0.0831946 0.490106 0.482743
1570 2 0.240908 0.000819682 0.123223
938 4 0.343693 0.117416 0.498317
265 2 0.294557 0.236118 0.499681
2978 4 0.119764 0.328459 0.496673
2157 4 0.4445 0.415471 0.497029
2155 2 0.437488 0.440392 0.497164
957 4 0.267326 0.4676 0.00611977
4569 4 0.497717 0.436782 0.909075
3800 4 0.303201 0.476488 0.914802
457 2 0.229019 0.0717721 0.501304
605 4 0.352483 0.0792268 0.576633
3008 4 0.382818 0.0491483 0.544696
3007 2 0.375986 0.0441945 0.52147
48 3 0.385274 0.0696803 0.544343
341 4 0.479059 0.0520402 0.570422
1131 4 0.456442 0.997457 0.567176
340 2 0.482656 0.0755751 0.568893
2962 2 0.145252 0.125995 0.576489
2964 4 0.141865 0.141254 0.556684
911 4 0.129809 0.143378 0.53873
910 2 0.140132 0.141425 0.515867
458 4 0.226077 0.0819878 0.524108
2589 4 0.225776 0.0912863 0.541554
2587 2 0.230352 0.0997366 0.564237
770 4 0.196107 0.0035176 0.85739
937 2 0.353874 0.133443 0.51207
47 3 0.363832 0.0917916 0.569524
939 4 0.364056 0.149469 0.525822
97 3 0.377237 0.159691 0.534084
46 1 0.380352 0.0910418 0.55338
49 3 0.372189 0.106494 0.53683
99 3 0.375505 0.147371 0.569344
50 3 0.399435 0.096095 0.562833
96 1 0.386201 0.160155 0.555224
2720 4 0.414095 0.0908314 0.548692
100 3 0.40901 0.151619 0.554533
2719 2 0.431163 0.104495 0.555506
2721 4 0.448231 0.118159 0.562321
2236 2 0.451469 0.128614 0.508505
2237 4 0.458657 0.134215 0.531413
342 4 0.486252 0.0991099 0.567363
2809 2 0.0164446 0.173158 0.577888
2811 4 0.0284556 0.19167 0.57192
1818 4 0.0425319 0.19377 0.558395
1816 2 0.0612195 0.190422 0.541386
1817 4 0.0799071 0.187074 0.524377
731 4 0.09015 0.202954 0.526897
730 2 0.114111 0.19282 0.520467
732 4 0.138072 0.182685 0.514037
1211 4 0.150718 0.189632 0.527525
1210 2 0.167221 0.18074 0.545671
1212 4 0.183724 0.171848 0.563816
1743 4 0.25533 0.177677 0.536338
1741 2 0.257858 0.197875 0.523143
3309 4 0.267297 0.175338 0.552609
1742 4 0.260385 0.218072 0.509948
267 4 0.273225 0.231888 0.510427
3307 2 0.279378 0.171581 0.57458
2116 2 0.498058 0.499331 0.672045
2990 4 0.32445 0.235354 0.567391
2989 2 0.341545 0.220072 0.581338
98 3 0.382394 0.182129 0.562653
2832 4 0.403059 0.182775 0.565923
3525 4 0.415318 0.169297 0.552943
3523 2 0.439308 0.169866 0.54632
3524 4 0.463298 0.170436 0.539697
2376 4 0.455385 0.229275 0.539321
2374 2 0.445437 0.230176 0.56232
2982 4 0.480268 0.17287 0.549252
2980 2 0.49301 0.191594 0.547576
3801 4 0.331075 0.496868 0.947431
504 4 0.0486718 0.333063 0.558036
2849 4 0.0567061 0.313577 0.555269
2848 2 0.0810076 0.303296 0.56023
2850 4 0.105309 0.293014 0.565191
2172 4 0.117467 0.306336 0.5722
2170 2 0.135529 0.309585 0.555936
2171 4 0.15359 0.312835 0.539673
3329 4 0.244903 0.448812 0.93495
3021 4 0.00889108 0.362453 0.518061
503 4 0.0269232 0.35098 0.515028
502 2 0.0377975 0.342021 0.536532
3390 4 0.0969818 0.382308 0.559424
3339 4 0.0931757 0.385524 0.579698
3388 2 0.105194 0.403355 0.554141
2926 2 0.234343 0.375674 0.511
414 4 0.266813 0.384462 0.538684
2037 4 0.25435 0.386779 0.565427
2928 4 0.251376 0.382591 0.526433
412 2 0.289011 0.377362 0.526725
2035 2 0.274585 0.380307 0.580412
413 4 0.311209 0.370261 0.514765
2800 2 0.390687 0.362999 0.514878
2802 4 0.403667 0.370205 0.533991
431 4 0.404571 0.371437 0.554923
430 2 0.405979 0.386533 0.574357
3333 4 0.263924 0.436562 0.937092
4307 4 0.0180262 0.451926 0.57373
4306 2 0.0403177 0.459275 0.571166
4308 4 0.0626091 0.466625 0.568602
1191 4 0.0620771 0.477163 0.551497
1189 2 0.0795747 0.491562 0.553118
3389 4 0.113407 0.424402 0.548857
239 4 0.296037 0.468521 0.504302
3056 4 0.322549 0.473788 0.537119
3055 2 0.342361 0.485269 0.539277
3057 4 0.362172 0.496749 0.541434
2175 4 0.381873 0.488137 0.54046
2173 2 0.403107 0.483347 0.554284
2174 4 0.424342 0.478558 0.568108
2685 4 0.444558 0.480697 0.572341
2683 2 0.467093 0.46628 0.566759
2684 4 0.489627 0.451864 0.561176
3328 2 0.220092 0.459199 0.934281
4182 4 0.215306 0.0451625 0.664269
1098 4 0.279049 0.0750951 0.659528
604 2 0.329384 0.0822819 0.587125
2017 2 0.30616 0.045528 0.658898
2018 4 0.317691 0.0590893 0.643458
435 4 0.479219 0.0383681 0.58583
147 3 0.448476 0.0140639 0.635253
434 4 0.456612 0.0305648 0.628909
433 2 0.467916 0.0344664 0.60737
3402 4 0.467485 0.0465814 0.636442
3400 2 0.474477 0.0609804 0.654341
3401 4 0.481469 0.0753794 0.672241
2963 4 0.148638 0.110736 0.596294
3130 2 0.128435 0.0895494 0.665528
2973 4 0.155255 0.094901 0.606814
2971 2 0.17348 0.102453 0.620179
2972 4 0.191706 0.110005 0.633545
3132 4 0.150024 0.091398 0.653712
467 4 0.211121 0.108637 0.637568
466 2 0.22477 0.115219 0.618649
2588 4 0.234929 0.108187 0.586919
468 4 0.238418 0.121801 0.59973
878 4 0.277369 0.0915072 0.648642
879 4 0.290989 0.100282 0.601873
877 2 0.284179 0.0958944 0.625258
606 4 0.306284 0.085337 0.597618
3461 4 0.297555 0.14837 0.597033
3460 2 0.316172 0.136717 0.612005
3462 4 0.334789 0.125065 0.626977
3308 4 0.291458 0.167824 0.59655
2991 4 0.358641 0.20479 0.595285
2275 2 0.367509 0.197964 0.631677
2277 4 0.366564 0.205674 0.655454
2276 4 0.368454 0.190253 0.607899
822 4 0.349721 0.202767 0.666144
2830 2 0.406733 0.195082 0.586805
443 4 0.418628 0.172317 0.633263
2831 4 0.410407 0.207389 0.607687
442 2 0.439547 0.170479 0.647385
2375 4 0.435489 0.231078 0.585319
444 4 0.460466 0.16864 0.661508
275 4 0.321593 0.276708 0.662917
936 4 0.32236 0.288605 0.646297
935 4 0.355336 0.274561 0.608969
934 2 0.338848 0.281583 0.627633
261 4 0.447331 0.26797 0.649526
944 4 0.487598 0.295861 0.635402
943 2 0.477863 0.31111 0.654056
1951 2 0.0763234 0.34366 0.654038
1953 4 0.0743104 0.359745 0.634933
3338 4 0.0700107 0.375288 0.621654
3337 2 0.0815932 0.380406 0.600676
3263 4 0.283651 0.339601 0.601645
2036 4 0.29482 0.373835 0.595396
3262 2 0.304238 0.340617 0.615499
3264 4 0.324825 0.341634 0.629352
1214 4 0.332079 0.356936 0.637526
1213 2 0.3546 0.363958 0.639382
1215 4 0.377121 0.37098 0.641239
432 4 0.407388 0.40163 0.593791
4249 2 0.0148377 0.461651 0.633855
4250 4 0.0398903 0.459437 0.637682
3425 4 0.261545 0.442375 0.617397
3424 2 0.269025 0.460734 0.604599
3426 4 0.276505 0.479093 0.591801
1907 4 0.261938 0.439072 0.637198
1906 2 0.276856 0.439984 0.657105
1139 4 0.296163 0.481051 0.58852
1138 2 0.312236 0.49698 0.589269
2810 4 0.00443364 0.154647 0.583855
3700 2 0.36916 0.478177 0.66282
4062 4 0.366281 0.436782 0.661516
3702 4 0.372901 0.453209 0.663308
634 2 0.0148978 0.00823103 0.744426
635 4 0.0374895 0.0112617 0.735602
4336 2 0.109575 0.0373149 0.747441
2241 4 0.134537 0.0182388 0.716094
4338 4 0.128407 0.0347808 0.73062
2239 2 0.155461 0.0246975 0.70661
4180 2 0.196527 0.0480067 0.681165
2240 4 0.176384 0.0311562 0.697126
4181 4 0.177748 0.0508509 0.698062
955 2 0.246317 0.472218 0.991963
4439 4 0.277373 0.0236704 0.675086
4438 2 0.259455 0.00971555 0.673821
2019 4 0.294628 0.0319668 0.674338
2193 4 0.483953 0.0754957 0.691999
3131 4 0.106847 0.0877007 0.677345
844 2 0.098988 0.153891 0.718718
846 4 0.0988223 0.138199 0.737902
2995 2 0.146278 0.106396 0.739009
2626 2 0.193882 0.108371 0.697047
2996 4 0.159069 0.115545 0.720907
2628 4 0.173152 0.122232 0.707562
2627 4 0.214612 0.0945101 0.686532
1097 4 0.233692 0.0898736 0.681537
1096 2 0.25637 0.0824843 0.670533
2198 4 0.243534 0.136372 0.757877
1259 4 0.230073 0.127314 0.751129
1073 4 0.483449 0.141631 0.713587
1072 2 0.497155 0.120866 0.703451
780 4 0.480191 0.160994 0.719769
778 2 0.455181 0.169346 0.716498
845 4 0.0991537 0.169584 0.699535
2264 4 0.127971 0.207364 0.727389
3197 4 0.204802 0.182166 0.738447
1944 4 0.213752 0.197716 0.731903
1942 2 0.223758 0.187067 0.710696
1943 4 0.233764 0.176417 0.689489
858 4 0.251895 0.179492 0.682763
856 2 0.274787 0.185685 0.680633
857 4 0.297679 0.191879 0.678504
821 4 0.300537 0.212022 0.679361
820 2 0.325129 0.207394 0.672752
779 4 0.430171 0.177697 0.713227
4520 4 0.417074 0.194564 0.707497
4521 4 0.403196 0.224692 0.668364
4519 2 0.410135 0.209628 0.68793
3380 4 0.00996831 0.302395 0.705758
1166 4 0.0235919 0.315455 0.705863
1165 2 0.0448064 0.315211 0.692553
1167 4 0.0660209 0.314968 0.679244
274 2 0.32089 0.291622 0.682856
276 4 0.320188 0.306536 0.702795
3174 4 0.326899 0.324406 0.700752
3165 4 0.365345 0.275268 0.731754
3163 2 0.386258 0.267846 0.717876
260 4 0.423792 0.25841 0.691497
259 2 0.435561 0.26319 0.670511
3164 4 0.407171 0.260424 0.703997
945 4 0.468127 0.326358 0.67271
1952 4 0.0783365 0.327575 0.673143
951 4 0.00402304 0.395176 0.711372
902 4 0.0230969 0.395998 0.719788
901 2 0.0401699 0.405143 0.733362
903 4 0.0572429 0.414288 0.746937
3120 4 0.155647 0.364332 0.721778
2153 4 0.163959 0.381495 0.719201
2152 2 0.183367 0.383643 0.704133
2154 4 0.202774 0.385791 0.689064
3170 4 0.300413 0.397587 0.750841
3172 2 0.334864 0.336952 0.719675
3169 2 0.303759 0.391594 0.726661
3171 4 0.307104 0.385601 0.702482
3173 4 0.342829 0.349498 0.738598
4061 4 0.357039 0.406986 0.69869
1064 4 0.422889 0.343685 0.725699
1063 2 0.406361 0.340258 0.707891
1065 4 0.389833 0.336832 0.690083
3206 4 0.438433 0.352422 0.730987
3205 2 0.460625 0.353502 0.719946
3207 4 0.482817 0.354582 0.708905
918 4 0.0100877 0.453445 0.693401
916 2 0.0247036 0.469978 0.698937
917 4 0.0393195 0.48651 0.704473
2121 4 0.0502112 0.484165 0.720864
2119 2 0.0741196 0.482381 0.729069
990 4 0.0753712 0.421472 0.752254
2120 4 0.098028 0.480597 0.737273
1044 4 0.117623 0.482466 0.738391
535 2 0.162955 0.440048 0.746824
536 4 0.186194 0.444227 0.741521
4112 4 0.204001 0.449516 0.737446
4111 2 0.22909 0.448899 0.736201
4113 4 0.254178 0.448282 0.734957
2325 4 0.271909 0.454323 0.735399
1908 4 0.291773 0.440897 0.677013
2323 2 0.293254 0.46357 0.736693
2324 4 0.3146 0.472817 0.737987
10 3 0.332444 0.480071 0.735098
4060 2 0.36166 0.421884 0.680103
6 1 0.353502 0.479075 0.744184
7 3 0.366719 0.488436 0.72956
2414 4 0.395118 0.425043 0.702165
2413 2 0.388923 0.435035 0.724697
8 3 0.363866 0.456966 0.747962
2118 4 0.483284 0.485746 0.683651
2106 4 0.475904 0.46962 0.689453
2104 2 0.49532 0.450713 0.694277
4337 4 0.0907436 0.039849 0.764262
4027 2 0.10502 0.061069 0.819712
4029 4 0.117392 0.047189 0.801261
3579 4 0.175883 0.0232167 0.805241
3577 2 0.200316 0.0212767 0.798664
3578 4 0.224749 0.0193367 0.792088
3002 4 0.243719 0.013595 0.793798
3001 2 0.260756 0.0228822 0.780309
3003 4 0.277793 0.0321695 0.766821
1971 4 0.294308 0.0390749 0.773831
1969 2 0.309815 0.0459416 0.790951
1970 4 0.325323 0.0528083 0.808071
3467 4 0.3415 0.0378207 0.808135
3466 2 0.352597 0.0529263 0.822194
3362 4 0.0985625 0.111482 0.814088
3361 2 0.113247 0.109512 0.793665
210 3 0.0987832 0.127828 0.823802
207 3 0.120204 0.152716 0.832558
3363 4 0.127931 0.107542 0.773242
2997 4 0.133486 0.0972472 0.757112
3135 4 0.138518 0.154194 0.827334
3133 2 0.153542 0.16197 0.810308
3198 4 0.180634 0.165859 0.776949
1260 4 0.20893 0.0971516 0.780326
1258 2 0.219501 0.112233 0.765728
2197 2 0.263585 0.147552 0.759737
2199 4 0.283637 0.158733 0.761596
3134 4 0.168565 0.169745 0.793282
2263 2 0.140049 0.210366 0.74873
2265 4 0.152126 0.213368 0.770072
3196 2 0.192718 0.174013 0.757698
2063 4 0.241893 0.222969 0.832109
2062 2 0.265707 0.226307 0.828274
2064 4 0.289521 0.229644 0.824439
1154 4 0.295612 0.223028 0.80577
1153 2 0.314114 0.22432 0.78929
1155 4 0.332615 0.225611 0.77281
3374 4 0.488544 0.179187 0.83064
1088 4 0.383642 0.336116 0.76138
2526 4 0.136312 0.396917 0.848688
3118 2 0.161284 0.361614 0.746106
3119 4 0.16692 0.358896 0.770434
3153 4 0.156972 0.357688 0.788672
3151 2 0.173816 0.35466 0.807442
3152 4 0.19066 0.351633 0.826212
2999 4 0.207666 0.358436 0.82194
2998 2 0.229264 0.363028 0.812087
3271 2 0.26571 0.389227 0.772418
3000 4 0.250863 0.36762 0.802235
3272 4 0.24969 0.38176 0.788626
4414 2 0.245001 0.410129 0.82902
3273 4 0.28173 0.396694 0.75621
4416 4 0.269265 0.409635 0.82262
4415 4 0.220736 0.410623 0.83542
1087 2 0.370247 0.353591 0.776272
1089 4 0.356851 0.371066 0.791163
3410 4 0.355983 0.359228 0.807619
3409 2 0.36568 0.362856 0.830055
1039 2 0.473467 0.40184 0.762943
1040 4 0.494167 0.388653 0.774125
988 2 0.0994514 0.42459 0.754533
989 4 0.123532 0.427707 0.756813
1042 2 0.132753 0.490232 0.755319
1043 4 0.147883 0.497998 0.772247
537 4 0.139716 0.435868 0.752127
2010 4 0.27378 0.422254 0.807065
2008 2 0.294706 0.430495 0.800159
2009 4 0.315631 0.438736 0.793252
1122 4 0.335104 0.428062 0.789805
9 3 0.351656 0.490938 0.764119
1120 2 0.35433 0.43133 0.774996
2415 4 0.382729 0.445028 0.74723
1121 4 0.373556 0.434598 0.760187
2377 2 0.41592 0.433393 0.829836
2378 4 0.425878 0.443969 0.810664