ITEM: TIMESTEP
1516000
ITEM: NUMBER OF ATOMS
4800
ITEM: BOX BOUNDS xy xz yz pp pp pp
-9.9985700000000008e+00 1.6397654799999998e+01 6.3990847999999971e+00
-9.9985700000000008e+00 9.9985700000000008e+00 0.0000000000000000e+00
-9.9985700000000008e+00 9.9985700000000008e+00 0.0000000000000000e+00
ITEM: ATOMS id type xs ys zs
3184 2 0.123639 0.003298 0.0135714
3186 4 0.134627 0.0167484 0.999066
4329 4 0.190921 0.00861079 0.0616988
898 2 0.267125 0.0845126 0.0641489
900 4 0.24441 0.08147 0.0567469
3536 4 0.237812 0.0813401 0.0384135
1739 4 0.108642 0.0904223 0.0873609
1738 2 0.130687 0.0964617 0.0836472
1740 4 0.152732 0.102501 0.0799336
3201 4 0.160929 0.116651 0.0841193
899 4 0.28984 0.0875552 0.071551
3535 2 0.231555 0.0850437 0.0142115
1277 4 0.305322 0.133298 0.0306269
1276 2 0.317724 0.144778 0.0459558
1278 4 0.330125 0.156258 0.0612847
1110 4 0.347837 0.160664 0.0666802
1108 2 0.371996 0.16164 0.0717197
404 3 0.410794 0.156603 0.0624191
1109 4 0.396155 0.162616 0.0767592
401 1 0.427948 0.165303 0.0704953
405 3 0.443784 0.165117 0.0540724
3243 4 0.454412 0.16092 0.0152297
2877 4 0.167632 0.186174 0.0530146
768 4 0.158857 0.171893 0.0538646
766 2 0.140362 0.178466 0.0715646
2875 2 0.190265 0.190861 0.0484478
2876 4 0.212897 0.195548 0.043881
3765 4 0.21089 0.200941 0.0245983
3763 2 0.225385 0.19703 0.00375423
3242 4 0.406663 0.194129 0.0107831
402 3 0.417443 0.186976 0.0773275
1095 4 0.401674 0.20725 0.995464
3241 2 0.430538 0.177525 0.0130064
1440 4 0.458455 0.170443 0.0636972
1438 2 0.476626 0.180647 0.0715438
1439 4 0.494796 0.190851 0.0793904
2993 4 0.0381533 0.30918 0.0793727
3326 4 0.364883 0.325093 0.0363513
1709 4 0.452922 0.321314 0.0724853
1708 2 0.469333 0.316581 0.052969
1710 4 0.485744 0.311849 0.0334526
315 3 0.0145873 0.364832 0.00870619
3155 4 0.121978 0.403998 0.0582624
1349 4 0.131257 0.411244 0.0437735
3154 2 0.134876 0.38585 0.0739324
1991 4 0.211357 0.349831 0.071609
1990 2 0.18838 0.351259 0.0823789
810 4 0.214008 0.367543 0.0612716
808 2 0.224057 0.377753 0.0427337
809 4 0.234106 0.387962 0.0241958
1416 4 0.226817 0.407422 0.0210717
434 3 0.336796 0.409331 0.07305
3325 2 0.36155 0.338209 0.0576212
3327 4 0.358217 0.351325 0.0788911
431 1 0.357988 0.404798 0.0843698
448 3 0.423618 0.366125 0.0688844
435 3 0.376114 0.399523 0.0695171
4037 4 0.497845 0.399818 0.077015
510 3 0.071831 0.449934 0.0704219
178 3 0.0920216 0.495041 0.024452
506 1 0.0914247 0.434997 0.0791434
507 3 0.106863 0.425943 0.0621177
176 1 0.107117 0.476588 0.0138021
179 3 0.113154 0.458414 0.0282256
1348 2 0.145499 0.419739 0.0274838
1350 4 0.159742 0.428234 0.011194
673 3 0.169027 0.441837 0.0173753
671 1 0.185299 0.445908 0.00278246
672 3 0.177551 0.467961 0.996277
180 3 0.126795 0.481329 0.00694948
675 3 0.206464 0.44177 0.0131685
2674 2 0.227391 0.476684 0.0740564
2676 4 0.232667 0.49087 0.0559566
1952 4 0.351391 0.434913 0.0802435
4222 2 0.0502105 0.0631353 0.15504
4224 4 0.0581435 0.0382378 0.15734
4176 4 0.128997 0.00257747 0.148942
59 3 0.105848 0.0597267 0.129648
56 1 0.117687 0.0589182 0.149739
60 3 0.12087 0.0387451 0.159787
57 3 0.139225 0.0617245 0.145508
1835 4 0.145823 0.00924218 0.141925
2909 4 0.135496 0.0764398 0.131651
2908 2 0.161487 0.0718192 0.12993
1834 2 0.167341 0.0161931 0.145552
1836 4 0.18886 0.0231441 0.149179
2910 4 0.187478 0.0671985 0.128208
380 3 0.205522 0.0284399 0.154829
377 3 0.206866 0.057858 0.134537
376 1 0.217151 0.0437965 0.151798
378 3 0.240442 0.0330794 0.146408
1032 4 0.258861 0.0358456 0.146123
1030 2 0.278097 0.0445828 0.15409
1031 4 0.297332 0.05332 0.162058
255 3 0.317976 0.0467097 0.159422
251 1 0.338401 0.0476853 0.150058
252 3 0.33512 0.0515022 0.127467
253 3 0.355937 0.0275652 0.153284
254 3 0.344999 0.0650408 0.15952
4486 2 0.372962 0.0791803 0.156159
4488 4 0.39396 0.0803964 0.143262
4223 4 0.0422775 0.0880328 0.15274
926 4 0.0684811 0.147139 0.119492
925 2 0.0816069 0.125076 0.109414
927 4 0.0947328 0.103012 0.0993358
2837 4 0.0700856 0.152877 0.138998
3199 2 0.168321 0.130477 0.101277
3200 4 0.175713 0.144304 0.118435
3093 4 0.194025 0.14599 0.122414
3091 2 0.204158 0.151091 0.143879
3387 4 0.297479 0.109677 0.154574
3193 2 0.376239 0.164179 0.146361
3195 4 0.399849 0.155267 0.135644
1001 4 0.416442 0.1382 0.139453
1000 2 0.431639 0.117022 0.149737
403 3 0.439253 0.152826 0.0886407
1002 4 0.446835 0.0958431 0.160022
3311 4 0.0194536 0.236646 0.140253
2836 2 0.0817728 0.1708 0.138383
3310 2 0.0409294 0.238332 0.128521
3312 4 0.0624052 0.240019 0.116788
2838 4 0.0934601 0.188724 0.137768
767 4 0.121868 0.185039 0.0892646
1047 4 0.111893 0.190848 0.131681
1045 2 0.116626 0.212878 0.13269
1046 4 0.12136 0.234907 0.133698
3020 4 0.123514 0.24857 0.145014
4197 4 0.333778 0.182822 0.16462
3194 4 0.352629 0.173092 0.157078
28 3 0.0371379 0.313548 0.137684
2992 2 0.0307328 0.317399 0.102496
2994 4 0.0233123 0.325619 0.125619
27 3 0.0435148 0.27775 0.147949
26 1 0.0494083 0.296884 0.152264
30 3 0.0729349 0.292658 0.149248
3021 4 0.0864799 0.291511 0.134322
3019 2 0.104997 0.270041 0.139668
2824 2 0.164386 0.319742 0.165715
3842 4 0.31736 0.332074 0.154978
3841 2 0.33315 0.334301 0.136326
3234 4 0.464105 0.284056 0.15145
1171 2 0.0453776 0.380521 0.165427
1173 4 0.068178 0.379074 0.154286
3986 4 0.0769074 0.392378 0.149495
3985 2 0.0821379 0.403898 0.129174
4076 4 0.11518 0.387932 0.138023
3987 4 0.0873685 0.415417 0.108852
4075 2 0.136247 0.374678 0.150922
3156 4 0.147775 0.367701 0.0896023
1992 4 0.165403 0.352688 0.0931488
2825 4 0.164281 0.342705 0.158975
4077 4 0.157315 0.361425 0.163822
3527 4 0.238006 0.381978 0.0848794
3526 2 0.24934 0.400073 0.0870151
3843 4 0.348939 0.336529 0.117674
2889 4 0.351923 0.35495 0.114927
433 3 0.36039 0.387233 0.0991856
2887 2 0.377273 0.352842 0.111488
447 3 0.444725 0.335119 0.0869462
446 1 0.433412 0.357632 0.0892853
2888 4 0.402624 0.350735 0.108048
449 3 0.41591 0.360614 0.105276
450 3 0.449187 0.368106 0.0958492
4038 4 0.464171 0.377436 0.0952421
4036 2 0.481008 0.388627 0.0861286
508 3 0.0854805 0.417926 0.0899538
509 3 0.102198 0.44571 0.0940422
1880 4 0.0671228 0.485694 0.117736
4573 2 0.184018 0.459455 0.0916285
3255 4 0.147887 0.489106 0.154409
3253 2 0.149491 0.475998 0.133275
4574 4 0.15799 0.468849 0.0942655
3254 4 0.151094 0.46289 0.11214
1196 4 0.160324 0.47149 0.162056
4575 4 0.210045 0.45006 0.0889914
3528 4 0.260673 0.418167 0.0891509
2675 4 0.222115 0.462498 0.0921562
1953 4 0.336229 0.483834 0.0906011
1951 2 0.34381 0.459373 0.0854223
432 3 0.358232 0.423492 0.0962397
2834 4 0.350802 0.481694 0.155919
4006 2 0.0256649 0.0123033 0.215655
4008 4 0.0452346 0.00790151 0.232267
83 3 0.0403093 0.0499513 0.247708
2901 4 0.0029465 0.0114768 0.179945
4007 4 0.00609515 0.0167051 0.199042
58 3 0.105036 0.0759855 0.163718
1594 2 0.116154 0.0743964 0.20777
1596 4 0.1086 0.0744808 0.183926
1595 4 0.123707 0.074312 0.231615
85 3 0.0768097 0.0266466 0.253279
4308 4 0.245266 0.993623 0.228875
379 3 0.215897 0.0563649 0.171106
1638 4 0.219162 0.0707709 0.183206
1167 4 0.287821 0.0678671 0.236879
4487 4 0.351964 0.0779642 0.169055
1098 4 0.425247 0.0737451 0.249131
3097 2 0.467277 0.0728477 0.23489
3099 4 0.442988 0.0783358 0.244237
3855 4 0.494077 0.0717845 0.185086
3098 4 0.491565 0.0673595 0.225544
3092 4 0.21429 0.156192 0.165344
1636 2 0.233573 0.0863636 0.185592
3386 4 0.254889 0.117302 0.183394
1637 4 0.247983 0.101956 0.187979
3036 4 0.237755 0.156098 0.224909
1383 4 0.255809 0.153498 0.235405
1165 2 0.292193 0.0878369 0.226364
3385 2 0.276184 0.113489 0.168984
3034 2 0.226388 0.162586 0.202621
407 3 0.277624 0.157662 0.193055
409 3 0.276062 0.150857 0.229829
1166 4 0.296565 0.107807 0.215849
406 1 0.283165 0.163607 0.213993
4578 4 0.315712 0.103182 0.207443
410 3 0.306798 0.159783 0.215353
4576 2 0.340536 0.101525 0.201766
4196 4 0.323868 0.163 0.207558
4577 4 0.365361 0.0998678 0.19609
4319 4 0.369535 0.115627 0.186223
4318 2 0.392124 0.111793 0.198639
4320 4 0.414713 0.107959 0.211054
3854 4 0.442065 0.0889628 0.178613
1871 4 0.461301 0.121969 0.185083
1870 2 0.455155 0.140377 0.202003
3853 2 0.468071 0.0803736 0.18185
1872 4 0.449008 0.158784 0.218923
2271 4 0.46252 0.167518 0.207765
1192 2 0.0179222 0.192695 0.21967
1193 4 0.0217673 0.175369 0.237617
1229 4 0.00384837 0.17386 0.244685
1194 4 0.014077 0.210022 0.201723
3035 4 0.215022 0.169074 0.180332
4195 2 0.328823 0.172911 0.186089
2184 4 0.268369 0.237885 0.186112
2182 2 0.267606 0.222308 0.204807
408 3 0.271548 0.18613 0.217406
2183 4 0.266844 0.20673 0.223502
2270 4 0.477751 0.206537 0.222259
2269 2 0.470136 0.187028 0.215012
4548 4 0.46828 0.226059 0.226586
4546 2 0.486416 0.237839 0.224025
756 4 0.00423648 0.272508 0.194112
754 2 0.0149726 0.286153 0.208635
29 3 0.0434151 0.30341 0.174186
755 4 0.0257087 0.299798 0.223158
2049 4 0.0472721 0.296269 0.225653
2047 2 0.0569611 0.31512 0.230418
4162 2 0.110856 0.31271 0.230657
4163 4 0.0852837 0.318726 0.236116
419 3 0.156826 0.255757 0.205316
420 3 0.141245 0.292775 0.211095
4164 4 0.136429 0.306694 0.225199
2048 4 0.0666501 0.33397 0.235184
2826 4 0.16449 0.296779 0.172456
416 1 0.159706 0.276646 0.202061
418 3 0.161363 0.280576 0.179379
417 3 0.180107 0.277109 0.212389
860 4 0.187961 0.28895 0.224307
859 2 0.209237 0.293997 0.233006
861 4 0.230514 0.299044 0.241705
3867 4 0.248099 0.282891 0.2427
3865 2 0.271305 0.284804 0.235335
3866 4 0.29451 0.286718 0.227971
3257 4 0.287285 0.30605 0.221444
3256 2 0.301819 0.32145 0.224495
3232 2 0.463649 0.300168 0.169984
2934 4 0.470692 0.312387 0.207078
2932 2 0.470437 0.303052 0.230046
3233 4 0.463193 0.316279 0.188518
2325 4 0.0065047 0.375808 0.183023
1172 4 0.0225771 0.381967 0.176568
1411 2 0.180344 0.389095 0.22889
1413 4 0.193442 0.384797 0.207227
1412 4 0.167245 0.393394 0.250553
2412 4 0.214785 0.377993 0.206258
2411 4 0.258811 0.388429 0.19408
2410 2 0.236798 0.383211 0.200169
3258 4 0.316352 0.336849 0.227546
1785 4 0.317531 0.35535 0.228223
1783 2 0.337862 0.364425 0.229951
1784 4 0.358193 0.3735 0.231679
1176 4 0.36672 0.388517 0.228264
1174 2 0.386477 0.398039 0.224463
1175 4 0.406235 0.407562 0.220662
3032 4 0.458716 0.414868 0.234487
3938 4 0.470727 0.397096 0.227933
3937 2 0.493668 0.400942 0.222821
1195 2 0.171547 0.460279 0.183061
2808 4 0.171484 0.455339 0.221586
1197 4 0.182769 0.449068 0.204066
2806 2 0.170249 0.457357 0.246502
3031 2 0.432878 0.420312 0.230621
3033 4 0.407041 0.425757 0.226756
3166 2 0.472408 0.47048 0.22164
3168 4 0.470056 0.47019 0.196758
2852 4 0.473803 0.464418 0.177314
3167 4 0.47476 0.470771 0.246522
82 3 0.0465907 0.0129109 0.250814
2980 2 0.0113852 0.0784166 0.255758
1142 4 0.0180528 0.0627727 0.326425
1141 2 0.0281293 0.0571751 0.303508
2982 4 0.0334567 0.0615278 0.26364
1143 4 0.0382058 0.0515774 0.280591
84 3 0.0503717 0.0325858 0.281212
81 1 0.0536799 0.0305634 0.258251
4245 4 0.13681 0.075376 0.247752
303 3 0.0953175 0.048868 0.324056
301 1 0.0956817 0.0268185 0.321323
302 3 0.101621 0.0205024 0.299554
304 3 0.0736312 0.0248194 0.325745
3916 2 0.154841 0.00740135 0.334734
1861 2 0.210219 0.0190949 0.33453
1863 4 0.224975 0.0344643 0.333155
1862 4 0.195463 0.00372545 0.335904
4173 4 0.286503 0.0560454 0.252783
4171 2 0.309204 0.0502983 0.26531
4172 4 0.331905 0.0445511 0.277838
999 4 0.351807 0.0315783 0.275522
997 2 0.362905 0.049204 0.281385
998 4 0.374003 0.0668297 0.287247
3972 4 0.386795 0.0189661 0.325538
1097 4 0.389718 0.0745074 0.28456
1096 2 0.407482 0.0741262 0.266845
3970 2 0.407287 0.0157794 0.31018
3971 4 0.427779 0.0125928 0.294822
4277 4 0.438004 0.0190295 0.281548
4243 2 0.152694 0.086728 0.258496
4244 4 0.168578 0.0980801 0.26924
4118 4 0.175922 0.108967 0.256773
4117 2 0.197298 0.115559 0.262265
1381 2 0.243761 0.143713 0.252698
4119 4 0.218674 0.122152 0.267756
3627 4 0.214352 0.108515 0.299085
3625 2 0.225777 0.094904 0.318832
1382 4 0.231714 0.133927 0.26999
2044 2 0.00428575 0.238262 0.261057
2046 4 0.0291957 0.237001 0.265854
782 4 0.0408722 0.221433 0.275296
781 2 0.0640998 0.225657 0.27351
783 4 0.0873274 0.229881 0.271723
1052 4 0.096475 0.24124 0.259566
1051 2 0.11259 0.251384 0.271708
1579 2 0.21168 0.243963 0.31895
794 4 0.489058 0.242202 0.279635
1669 2 0.0249969 0.285126 0.329057
1670 4 0.00422446 0.278358 0.321762
1053 4 0.128704 0.261528 0.283851
1581 4 0.202114 0.244725 0.295762
3143 4 0.31536 0.292266 0.318407
3142 2 0.334935 0.297502 0.306318
3144 4 0.354511 0.302738 0.294228
981 4 0.360668 0.319167 0.289389
979 2 0.372931 0.332805 0.302146
2933 4 0.470182 0.293717 0.253014
795 4 0.460145 0.288871 0.268358
793 2 0.474602 0.265537 0.273996
1856 4 0.0876475 0.371967 0.3165
1394 4 0.10719 0.359957 0.310215
1393 2 0.129649 0.360879 0.299889
1855 2 0.0690612 0.371165 0.332916
1395 4 0.152107 0.361801 0.289564
570 3 0.167818 0.368268 0.297421
567 3 0.172217 0.389456 0.268803
566 1 0.176688 0.384931 0.291154
569 3 0.166078 0.404149 0.303368
568 3 0.200783 0.378304 0.29456
1892 4 0.208067 0.382778 0.277699
1891 2 0.233798 0.378826 0.274384
1893 4 0.259528 0.374874 0.271069
875 4 0.287484 0.403893 0.305858
79 3 0.290952 0.400727 0.324748
980 4 0.385194 0.346443 0.314904
3096 4 0.407797 0.400767 0.320261
3295 2 0.0434311 0.430288 0.327611
3297 4 0.0580784 0.44115 0.31424
2229 4 0.0699547 0.445093 0.300448
2227 2 0.0801348 0.460931 0.288539
2228 4 0.090315 0.47677 0.276631
2963 4 0.0925646 0.494897 0.271587
3135 4 0.172342 0.417466 0.313962
2807 4 0.169013 0.459375 0.271417
3134 4 0.177063 0.457626 0.289897
3133 2 0.174703 0.437546 0.301929
874 2 0.298741 0.420974 0.298523
876 4 0.309998 0.438055 0.291188
3094 2 0.42503 0.413588 0.317889
3095 4 0.442263 0.426409 0.315516
4283 4 0.490924 0.462138 0.259208
1922 4 0.46219 0.427444 0.318992
1921 2 0.483192 0.43519 0.322716
4140 4 0.0615051 0.0143885 0.332961
3218 4 0.999273 0.0687491 0.335403
3219 4 0.0157233 0.036589 0.373197
3217 2 0.00749818 0.0526691 0.3543
305 3 0.111865 0.0133091 0.335304
3917 4 0.129374 0.0185796 0.330143
3975 4 0.116546 0.0780934 0.34432
3973 2 0.141368 0.0762444 0.350208
3974 4 0.16619 0.0743954 0.356096
3668 4 0.180379 0.0717841 0.370698
3667 2 0.201969 0.0766594 0.362607
228 3 0.173612 0.00877474 0.39667
3669 4 0.223559 0.0815347 0.354515
395 3 0.240332 0.0714122 0.365208
391 1 0.262208 0.0687377 0.356863
394 3 0.260681 0.0753833 0.334639
392 3 0.275205 0.0465397 0.358148
4229 4 0.286816 0.0292083 0.348666
4228 2 0.298193 0.00458558 0.346087
1080 4 0.388463 0.0271436 0.34354
929 4 0.324441 0.0577407 0.417714
3284 4 0.335923 0.0695183 0.41102
3283 2 0.355479 0.0783658 0.417783
1078 2 0.383499 0.0489173 0.355668
1079 4 0.378536 0.070691 0.367795
393 3 0.273305 0.0812394 0.36928
3626 4 0.237202 0.0812931 0.338578
1877 4 0.283553 0.0942463 0.375
1876 2 0.306435 0.0989559 0.377857
1878 4 0.329318 0.103665 0.380714
3285 4 0.375034 0.0872133 0.424546
1075 2 0.0207055 0.17653 0.396003
1076 4 0.0449054 0.178634 0.39744
1471 2 0.0646297 0.200848 0.399449
1472 4 0.0796838 0.21182 0.386795
3914 4 0.0885319 0.227026 0.388891
3913 2 0.111687 0.219507 0.400643
1159 2 0.176862 0.216229 0.411399
1161 4 0.152472 0.21497 0.414386
3915 4 0.134842 0.211987 0.412395
1160 4 0.201251 0.217489 0.408411
1580 4 0.221247 0.2432 0.342139
826 2 0.223397 0.228922 0.378208
827 4 0.21303 0.227794 0.400765
828 4 0.233765 0.23005 0.355651
1015 2 0.417138 0.177701 0.404797
1017 4 0.426222 0.184937 0.383752
2210 4 0.43895 0.187552 0.371093
2209 2 0.456575 0.193559 0.356705
2211 4 0.4742 0.199566 0.342316
1671 4 0.0457694 0.291893 0.336353
3435 4 0.0603424 0.303101 0.336168
1703 4 0.0216929 0.326776 0.412224
3433 2 0.0770275 0.316496 0.338613
3434 4 0.0937126 0.32989 0.341057
3083 4 0.304634 0.300405 0.334519
3082 2 0.285508 0.321052 0.34101
605 3 0.444399 0.315679 0.359827
601 1 0.457823 0.298077 0.371996
602 3 0.447291 0.297634 0.392368
604 3 0.459863 0.278201 0.360831
603 3 0.479904 0.300379 0.375532
3044 4 0.492386 0.311175 0.376047
3354 4 0.0351685 0.335454 0.403837
3352 2 0.0398014 0.348609 0.3845
3353 4 0.0444343 0.361764 0.365162
1082 4 0.0145029 0.415943 0.352193
4304 4 0.108808 0.335812 0.349145
1857 4 0.0504749 0.370362 0.349332
4303 2 0.129539 0.343748 0.353691
4305 4 0.15027 0.351685 0.358238
18 3 0.165462 0.359147 0.363388
17 3 0.173614 0.389781 0.375712
20 3 0.184238 0.358545 0.396128
16 1 0.181646 0.366801 0.374904
19 3 0.203095 0.360251 0.363906
920 4 0.212759 0.374658 0.367061
919 2 0.231038 0.385728 0.361913
921 4 0.249317 0.396798 0.356765
3084 4 0.266382 0.341699 0.347501
80 3 0.271072 0.395844 0.35531
76 1 0.289926 0.401705 0.34792
77 3 0.31014 0.38703 0.356463
2220 4 0.326755 0.393053 0.36252
2218 2 0.330774 0.387209 0.386737
2219 4 0.334794 0.381366 0.410953
3043 2 0.49855 0.332403 0.373461
4254 4 0.499206 0.371521 0.361713
3296 4 0.0287839 0.419426 0.340982
3303 4 0.0406157 0.48518 0.354843
3519 4 0.060937 0.473601 0.357252
3517 2 0.0684703 0.466898 0.38073
3518 4 0.0760035 0.460195 0.404208
599 3 0.065235 0.475521 0.417059
914 4 0.225064 0.463747 0.400085
2187 4 0.341099 0.450324 0.351437
4233 4 0.270264 0.48285 0.368156
78 3 0.288264 0.423146 0.355107
2186 4 0.30673 0.424296 0.350937
2185 2 0.323914 0.43731 0.351187
4231 2 0.28189 0.496105 0.354094
928 2 0.306517 0.0460267 0.421989
951 4 0.269868 0.0313411 0.427235
930 4 0.288593 0.0343127 0.426264
949 2 0.263782 0.00999539 0.425589
993 4 0.00410954 0.120412 0.438986
398 3 0.437282 0.153969 0.470078
1473 4 0.0495755 0.189875 0.412103
1321 2 0.0676314 0.208087 0.496169
1322 4 0.0807454 0.20925 0.475147
1016 4 0.408054 0.170465 0.425842
396 1 0.419075 0.173551 0.466565
397 3 0.401121 0.174152 0.48117
1800 4 0.383898 0.176863 0.491227
399 3 0.410774 0.174083 0.444839
400 3 0.426693 0.191592 0.470293
4599 4 0.498601 0.173412 0.455878
4598 4 0.447634 0.184545 0.467262
4597 2 0.473118 0.178979 0.46157
1704 4 0.999611 0.297307 0.437509
1702 2 0.0106519 0.312041 0.424867
2829 4 0.195519 0.361109 0.41219
2827 2 0.211032 0.365781 0.429912
2828 4 0.226545 0.370454 0.447634
902 4 0.235307 0.366885 0.466082
901 2 0.252444 0.37186 0.481883
4629 4 0.227423 0.412725 0.438594
3229 2 0.35746 0.401214 0.491908
3979 2 0.00886045 0.478564 0.453833
3981 4 0.0286402 0.48777 0.448936
597 3 0.0486354 0.487905 0.450219
600 3 0.0819604 0.494403 0.440357
596 1 0.0696815 0.479386 0.439221
598 3 0.0823117 0.459486 0.449378
3813 4 0.0975719 0.45274 0.462724
3811 2 0.121348 0.455857 0.461409
3812 4 0.145124 0.458975 0.460095
3062 4 0.159119 0.451174 0.473998
3061 2 0.172116 0.463606 0.460489
3063 4 0.185113 0.476038 0.446981
915 4 0.201301 0.482079 0.443031
913 2 0.213182 0.472913 0.421558
4628 4 0.272467 0.421996 0.449072
4627 2 0.249945 0.41736 0.443833
1007 4 0.268619 0.438248 0.438076
2845 2 0.340808 0.43843 0.450093
2846 4 0.326092 0.440357 0.429534
1006 2 0.290402 0.440132 0.427098
1008 4 0.312184 0.442016 0.41612
2847 4 0.355524 0.436503 0.470652
3231 4 0.364571 0.418157 0.478453
1238 4 0.441364 0.467069 0.42154
1237 2 0.452845 0.484802 0.41749
1976 4 0.415389 0.00876408 0.507717
4359 4 0.414371 0.00921596 0.52733
4357 2 0.429034 0.0228588 0.536104
4358 4 0.443697 0.0365016 0.544878
3249 4 0.00514368 0.154732 0.536918
2373 4 0.345719 0.0871472 0.575482
2371 2 0.364081 0.0986483 0.578138
3252 4 0.325586 0.0868679 0.578162
2372 4 0.382442 0.11015 0.580794
1041 4 0.0153755 0.168119 0.532926
1039 2 0.0247435 0.186859 0.526767
1040 4 0.0341114 0.205599 0.520607
1323 4 0.0545173 0.206923 0.517191
1799 4 0.369293 0.175419 0.538889
1798 2 0.376596 0.176141 0.515058
3426 4 0.118369 0.28889 0.53216
3424 2 0.130673 0.293111 0.552676
3425 4 0.142976 0.297333 0.573192
3270 4 0.156056 0.307651 0.57078
3268 2 0.180492 0.308892 0.56814
3269 4 0.204927 0.310133 0.5655
2858 4 0.224135 0.31206 0.561107
2857 2 0.24547 0.319067 0.565608
2859 4 0.266804 0.326073 0.570109
3512 4 0.326804 0.285688 0.577627
3511 2 0.333963 0.298887 0.559698
3513 4 0.341121 0.312085 0.54177
3660 4 0.342967 0.317546 0.52245
3658 2 0.367061 0.318065 0.516419
3659 4 0.391155 0.318585 0.510388
593 3 0.337781 0.26607 0.58003
2872 2 0.420316 0.323805 0.529071
2873 4 0.444496 0.325959 0.527632
2874 4 0.396136 0.321651 0.53051
4674 4 0.457959 0.325572 0.541251
4672 2 0.480903 0.32788 0.533569
164 3 0.281999 0.33552 0.568139
2990 4 0.232974 0.403636 0.56424
2989 2 0.249907 0.40985 0.549122
165 3 0.287601 0.367896 0.557429
1107 4 0.282732 0.384355 0.50903
161 1 0.293852 0.350917 0.572585
903 4 0.269581 0.376836 0.497684
1105 2 0.306516 0.387529 0.509318
163 3 0.317904 0.340519 0.571715
1103 4 0.328755 0.353722 0.568704
1106 4 0.330301 0.390703 0.509605
1102 2 0.334701 0.375042 0.571466
1104 4 0.340646 0.396362 0.574229
3230 4 0.350349 0.384271 0.505363
4508 4 0.358894 0.397441 0.570565
3573 4 0.488817 0.376961 0.531539
1352 4 0.0196201 0.421972 0.556088
1767 4 0.0324125 0.429747 0.544584
1765 2 0.0417786 0.4489 0.54031
1766 4 0.0511447 0.468054 0.536037
2991 4 0.26684 0.416064 0.534005
2135 4 0.279416 0.422187 0.547356
2134 2 0.283288 0.443618 0.540233
2136 4 0.287161 0.46505 0.533109
2925 4 0.303953 0.469285 0.525404
2923 2 0.328631 0.463044 0.533877
4507 2 0.360253 0.41975 0.563129
2924 4 0.353309 0.456804 0.542351
4509 4 0.361612 0.442059 0.555693
1020 4 0.363788 0.50182 0.528152
1018 2 0.387323 0.494629 0.539225
1019 4 0.410857 0.487438 0.550299
728 3 0.424882 0.495575 0.550217
729 3 0.45687 0.488064 0.527574
2695 2 0.491532 0.488073 0.50235
2697 4 0.468173 0.494509 0.513754
1048 2 0.0942077 0.00772492 0.663576
4783 2 0.230985 0.00480553 0.627452
4785 4 0.239434 0.0165804 0.609087
1512 4 0.244243 0.0339343 0.609856
1510 2 0.258631 0.0463048 0.598213
1511 4 0.273019 0.0586753 0.586571
3251 4 0.288301 0.066247 0.590399
3398 4 0.273236 0.0571568 0.665759
4601 4 0.341125 0.00793301 0.615689
4600 2 0.346244 0.0150223 0.6385
4602 4 0.351364 0.0221116 0.661311
3250 2 0.306944 0.0765575 0.584281
1546 2 0.496837 0.0211226 0.645379
1547 4 0.502407 0.02005 0.620951
3552 4 0.198077 0.148597 0.649791
515 3 0.2118 0.154359 0.659602
3800 4 0.266843 0.130272 0.663705
3712 2 0.350811 0.150728 0.649685
3714 4 0.329505 0.144982 0.657202
3801 4 0.311148 0.14124 0.654
3799 2 0.288996 0.135756 0.658852
2706 4 0.403537 0.108043 0.579531
3348 4 0.384056 0.165827 0.631726
2704 2 0.428194 0.101195 0.588109
3713 4 0.372116 0.156475 0.642168
3346 2 0.409122 0.165591 0.632513
3347 4 0.434188 0.165354 0.633301
2705 4 0.452851 0.0943466 0.596686
1574 4 0.467872 0.104095 0.599578
1573 2 0.491127 0.108098 0.596896
3562 2 0.0103153 0.200093 0.639332
3564 4 0.0351689 0.197589 0.645689
3330 4 0.0518902 0.193759 0.657895
3328 2 0.0743651 0.197722 0.651131
3329 4 0.0968399 0.201686 0.644368
3456 4 0.105709 0.207554 0.659964
3550 2 0.184013 0.170048 0.639153
3551 4 0.169949 0.1915 0.628515
3454 2 0.1319 0.200849 0.661385
3455 4 0.158092 0.194144 0.662807
592 3 0.339205 0.249627 0.613609
3480 4 0.45014 0.164952 0.62148
3478 2 0.471716 0.171587 0.617063
3479 4 0.493292 0.178222 0.612647
3871 2 0.0645875 0.260903 0.650544
3872 4 0.0445411 0.255038 0.66104
3873 4 0.0846338 0.266767 0.640047
2528 4 0.0820898 0.277597 0.622154
2527 2 0.0966028 0.290843 0.632059
2529 4 0.111116 0.304089 0.641963
595 3 0.370027 0.259429 0.601624
594 3 0.336912 0.285994 0.611923
591 1 0.346145 0.265301 0.601754
3128 4 0.35776 0.286044 0.614871
3127 2 0.353267 0.304958 0.631151
812 4 0.376258 0.274147 0.607536
3129 4 0.348774 0.323871 0.647431
811 2 0.402087 0.270657 0.609053
813 4 0.427916 0.267168 0.61057
3358 2 0.112083 0.406379 0.657262
162 3 0.287965 0.359458 0.59371
3383 4 0.287088 0.364553 0.612142
3382 2 0.30834 0.366908 0.623778
3384 4 0.329592 0.369263 0.635414
2897 4 0.329029 0.387517 0.640002
2896 2 0.33682 0.396288 0.660881
1488 4 0.411955 0.354907 0.65998
1568 4 0.427666 0.362234 0.654366
1567 2 0.44738 0.368671 0.643894
497 3 0.495829 0.367882 0.592694
500 3 0.485455 0.404236 0.601043
498 3 0.463772 0.383084 0.613722
1569 4 0.467093 0.375107 0.633421
496 1 0.486274 0.383632 0.60884
3863 4 0.487633 0.371795 0.640017
3862 2 0.497666 0.37333 0.662646
1043 4 0.495774 0.411756 0.588152
1218 4 0.0899555 0.434917 0.629011
1216 2 0.102308 0.444982 0.612238
3359 4 0.0975523 0.415813 0.63717
1217 4 0.114661 0.455046 0.595464
2810 4 0.147053 0.491498 0.662212
4458 4 0.1605 0.501169 0.667854
4640 4 0.362149 0.425745 0.644351
4639 2 0.361837 0.432782 0.620436
4641 4 0.361525 0.43982 0.596522
2224 2 0.00308277 0.0198046 0.724732
2225 4 0.0282568 0.018692 0.727562
1744 2 0.00991922 0.0646992 0.688267
1563 4 0.0384896 0.0212541 0.742954
1746 4 0.0301142 0.0727352 0.694771
2667 4 0.0503884 0.0707461 0.699177
1561 2 0.0620011 0.017959 0.732465
2665 2 0.0732613 0.0572922 0.689206
1562 4 0.0855126 0.0146639 0.721977
2666 4 0.0961342 0.0438384 0.679236
1050 4 0.102911 0.0272477 0.668106
3351 4 0.114907 0.0472831 0.734717
3349 2 0.133978 0.0577222 0.730978
3350 4 0.153048 0.0681613 0.727239
528 3 0.169428 0.0738529 0.718666
526 1 0.185178 0.0771076 0.734347
527 3 0.206471 0.0743105 0.724088
1639 2 0.170647 0.00529687 0.743514
1335 4 0.218787 0.0857472 0.718794
3397 2 0.287376 0.061626 0.684806
4730 4 0.287849 0.0632464 0.718622
4410 4 0.302278 0.00915319 0.674016
3399 4 0.301516 0.0660952 0.703852
4729 2 0.289055 0.0464085 0.736628
104 3 0.29846 0.0155869 0.74134
477 3 0.309171 0.0865957 0.748711
725 3 0.357126 0.0211264 0.681344
721 1 0.365995 0.00215324 0.693625
723 3 0.374586 0.00723487 0.713829
1560 4 0.3576 0.0612255 0.741674
462 3 0.373778 0.0597868 0.729668
463 3 0.412139 0.0403355 0.730899
461 1 0.394642 0.0578283 0.740428
464 3 0.40005 0.0776788 0.737961
1629 4 0.411673 0.0816881 0.721424
3692 4 0.443125 0.0117454 0.7192
3691 2 0.453258 0.0249034 0.734893
3693 4 0.463392 0.0380614 0.750587
1548 4 0.491268 0.0221953 0.669807
3363 4 0.493741 0.0358568 0.682867
2745 4 0.0324044 0.113552 0.72785
3498 4 0.016557 0.126968 0.737118
3496 2 0.00197258 0.114805 0.725461
2743 2 0.0556 0.117956 0.727238
2744 4 0.0787957 0.12236 0.726626
122 3 0.0945324 0.127966 0.718429
123 3 0.0960415 0.145344 0.68586
121 1 0.104713 0.141948 0.707524
124 3 0.0991535 0.162174 0.718859
125 3 0.12843 0.132334 0.707112
3341 4 0.145567 0.12519 0.695843
3340 2 0.169826 0.124367 0.688861
3342 4 0.194084 0.123544 0.68188
530 3 0.17714 0.0981948 0.742851
3448 2 0.154805 0.165265 0.744322
514 3 0.247348 0.131997 0.670159
512 3 0.214457 0.125955 0.682942
511 1 0.224336 0.142209 0.676813
513 3 0.223891 0.156012 0.695037
1333 2 0.238707 0.0931506 0.72737
945 4 0.222826 0.167785 0.711041
1334 4 0.258628 0.100554 0.735945
478 3 0.274844 0.108604 0.735153
480 3 0.300379 0.0840566 0.712736
476 1 0.298361 0.0983819 0.730253
479 3 0.309157 0.114438 0.725082
3374 4 0.329052 0.112214 0.730676
3373 2 0.351718 0.116071 0.73693
1627 2 0.433962 0.0864695 0.715508
1628 4 0.456251 0.091251 0.709593
3375 4 0.374384 0.119929 0.743185
2415 4 0.000411854 0.233948 0.688049
2414 4 0.0455032 0.242038 0.675325
2413 2 0.0229575 0.237993 0.681687
2917 2 0.176006 0.191228 0.704792
2918 4 0.170022 0.193561 0.680455
2919 4 0.18199 0.188895 0.72913
3450 4 0.167919 0.179109 0.733109
943 2 0.245146 0.173452 0.714307
944 4 0.267465 0.179119 0.717574
2494 2 0.413847 0.187898 0.751576
2496 4 0.433742 0.192692 0.739617
1178 4 0.448572 0.198987 0.729317
1177 2 0.469599 0.207025 0.731229
1179 4 0.490626 0.215062 0.733141
3369 4 0.187252 0.331968 0.666014
3367 2 0.21199 0.3191 0.671881
1719 4 0.257973 0.256226 0.730723
3368 4 0.236727 0.306232 0.677748
1717 2 0.27939 0.260444 0.740162
168 3 0.306373 0.280244 0.743474
3594 4 0.364605 0.269555 0.747005
3798 4 0.338421 0.310597 0.727759
169 3 0.321017 0.309104 0.737044
3796 2 0.35429 0.318525 0.712807
3797 4 0.370159 0.326453 0.697855
1487 4 0.384923 0.33207 0.688265
4137 4 0.0707861 0.385478 0.737656
4135 2 0.0894689 0.375481 0.720759
4136 4 0.108152 0.365484 0.703863
1392 4 0.120489 0.356777 0.687719
3360 4 0.126614 0.396944 0.677353
1390 2 0.144774 0.357836 0.691934
1391 4 0.169058 0.358894 0.696149
3429 4 0.184773 0.367077 0.69039
3427 2 0.182202 0.390807 0.684319
3420 4 0.18857 0.37006 0.739859
3428 4 0.179632 0.414537 0.678249
1617 4 0.167777 0.370488 0.743056
2898 4 0.344611 0.405059 0.68176
822 4 0.36591 0.398537 0.676314
1486 2 0.398439 0.343488 0.674122
820 2 0.388337 0.40133 0.684888
3557 4 0.427099 0.398913 0.706904
821 4 0.410765 0.404123 0.693461
1289 4 0.486569 0.349933 0.722424
3556 2 0.445654 0.409039 0.71381
3558 4 0.464208 0.419164 0.720716
4426 2 0.0148434 0.442631 0.690694
4427 4 0.0314831 0.456221 0.690594
1707 4 0.0470125 0.464523 0.690037
1705 2 0.0710125 0.467043 0.688177
1706 4 0.0950125 0.469564 0.686316
2811 4 0.114364 0.471455 0.686087
2809 2 0.130709 0.481476 0.67415
1589 4 0.182583 0.462093 0.741425
3521 4 0.197389 0.41899 0.672781
2729 4 0.231841 0.483536 0.738878
3520 2 0.215429 0.423467 0.687814
3522 4 0.233469 0.427944 0.702846
1838 4 0.233244 0.494795 0.723753
2728 2 0.2092 0.479845 0.745515
2643 4 0.31725 0.454883 0.723787
2641 2 0.309135 0.478526 0.71567
3000 4 0.483373 0.422102 0.721115
1524 4 0.0666319 0.0323847 0.810601
3587 4 0.0527189 0.025595 0.820046
1522 2 0.0838672 0.0453102 0.811772
1523 4 0.101103 0.0582358 0.812943
4586 4 0.112709 0.0698967 0.819987
4585 2 0.131125 0.0814422 0.81826
529 3 0.188161 0.0615423 0.751439
4257 4 0.193976 0.0083922 0.779175
1641 4 0.183434 0.0133049 0.761555
4731 4 0.290262 0.0295707 0.754633
3559 2 0.304504 0.0118164 0.810558
1526 4 0.303661 0.0543206 0.798759
3560 4 0.300224 0.0275757 0.829955
1525 2 0.315508 0.0630392 0.817061
1559 4 0.330367 0.0394993 0.771002
1558 2 0.343983 0.0503624 0.756338
1527 4 0.327354 0.0717578 0.835363
465 3 0.39236 0.0536371 0.762518
3113 4 0.451549 0.0539953 0.758284
3112 2 0.470039 0.0655307 0.757915
3114 4 0.488528 0.0770661 0.757547
2774 4 0.156486 0.108838 0.818366
2773 2 0.180127 0.112329 0.818495
2775 4 0.203768 0.11582 0.818623
4587 4 0.149542 0.0929878 0.816534
3449 4 0.141691 0.151421 0.755535
1605 4 0.26221 0.136436 0.806968
1603 2 0.241832 0.127828 0.81097
3578 4 0.281431 0.136874 0.803533
1604 4 0.221455 0.119221 0.814972
3577 2 0.302235 0.143902 0.796869
3579 4 0.323039 0.150929 0.790206
1688 4 0.338474 0.158675 0.783154
1737 4 0.386323 0.125753 0.757716
1735 2 0.410558 0.127737 0.75937
1736 4 0.434793 0.129721 0.761025