ITEM: TIMESTEP
1141000
ITEM: NUMBER OF ATOMS
4800
ITEM: BOX BOUNDS xy xz yz pp pp pp
-1.3598055200000005e+01 9.9985700000000008e+00 -3.5994852000000037e+00
-9.9985700000000008e+00 9.9985700000000008e+00 0.0000000000000000e+00
-9.9985700000000008e+00 9.9985700000000008e+00 0.0000000000000000e+00
ITEM: ATOMS id type xs ys zs
3331 2 0.0134416 0.0111381 0.0291858
3332 4 0.0362625 0.0224138 0.037295
3834 4 0.0430207 0.00593874 0.0305881
35 3 0.185216 0.0011513 0.0276529
32 3 0.200524 0.0368849 0.0215501
31 1 0.205129 0.015908 0.0258933
34 3 0.217164 0.016564 0.0457924
33 3 0.218011 0.0096717 0.00847539
679 3 0.443452 0.0180359 0.0813516
852 4 0.00374148 0.133985 0.00471063
3277 2 0.0455013 0.131941 0.082843
3279 4 0.0611261 0.125629 0.0653956
2837 4 0.149547 0.163545 0.0151489
3304 2 0.176527 0.108454 0.0831262
3305 4 0.200352 0.120428 0.0796297
1491 4 0.214482 0.124136 0.0654647
3306 4 0.152703 0.0964789 0.0866228
1489 2 0.2319 0.143696 0.0584291
1490 4 0.249318 0.163255 0.0513936
42 3 0.484792 0.158796 0.0399119
1183 2 0.119712 0.212991 0.036319
1185 4 0.0973985 0.197962 0.0324672
1184 4 0.142025 0.22802 0.0401709
4403 4 0.160046 0.222166 0.0430411
4402 2 0.176683 0.243303 0.0393394
2836 2 0.169315 0.177921 0.0262551
2838 4 0.189083 0.192297 0.0373614
766 2 0.21952 0.213194 0.0474464
767 4 0.194811 0.212641 0.0430585
768 4 0.244229 0.213747 0.0518343
2877 4 0.256745 0.230387 0.0466046
2875 2 0.277822 0.222713 0.038738
2876 4 0.2989 0.215038 0.0308713
3764 4 0.313652 0.180191 0.00199036
3763 2 0.323433 0.19992 0.0160301
3765 4 0.333215 0.21965 0.0300698
1094 4 0.411316 0.23407 0.0244452
3029 4 0.498661 0.197192 0.0783394
44 3 0.493732 0.189684 0.0610582
3131 4 0.156614 0.488078 0.417071
3821 4 0.0111567 0.496985 0.310975
2846 4 0.114298 0.420196 0.448168
877 2 0.19325 0.291964 0.0154485
4404 4 0.19332 0.264441 0.0356376
879 4 0.20514 0.282749 0.0343344
3320 4 0.302015 0.295268 0.0259319
3319 2 0.288268 0.289856 0.00512951
1991 4 0.370858 0.309435 0.0536571
810 4 0.390194 0.316738 0.0569104
1990 2 0.35788 0.322545 0.0684238
808 2 0.413846 0.320891 0.066039
1093 2 0.422081 0.258221 0.0235935
1095 4 0.432846 0.282373 0.0227418
809 4 0.437498 0.325044 0.0751675
4379 4 0.484537 0.307708 0.0109681
1509 4 0.104931 0.389032 0.00576759
3154 2 0.0937395 0.404665 0.0692116
3156 4 0.10987 0.4041 0.0502011
1507 2 0.0865416 0.402727 0.00411953
314 3 0.126386 0.399056 0.0049185
315 3 0.119676 0.361737 0.00990614
763 2 0.170304 0.393398 0.0539964
764 4 0.161683 0.398259 0.0313822
313 3 0.145753 0.383248 0.0313962
311 1 0.135921 0.380525 0.0103317
765 4 0.178924 0.388538 0.0766106
1407 4 0.27171 0.358537 0.025982
434 3 0.27729 0.38267 0.066584
1405 2 0.289539 0.370651 0.0106991
431 1 0.298186 0.396184 0.0704405
432 3 0.312579 0.383466 0.0798793
433 3 0.307472 0.40498 0.0503982
1709 4 0.454612 0.387467 0.0529559
447 3 0.450835 0.386149 0.0328756
1708 2 0.453424 0.398716 0.0750541
446 1 0.461923 0.387281 0.0126415
449 3 0.462664 0.408448 0.00364684
450 3 0.483415 0.38334 0.0158354
1952 4 0.0595615 0.472022 0.00834982
1508 4 0.0681522 0.416421 0.00247147
2409 4 0.078526 0.483834 0.00827548
1009 2 0.0995221 0.477683 0.0692133
1951 2 0.0668797 0.450267 0.0134185
1953 4 0.0741979 0.428512 0.0184873
1010 4 0.120718 0.490044 0.0586073
823 2 0.212154 0.450514 0.00362092
824 4 0.233317 0.462964 0.0142107
744 3 0.265933 0.46712 0.0608459
742 3 0.249991 0.46383 0.0266962
741 1 0.269527 0.472058 0.0383355
743 3 0.274681 0.495044 0.0353337
745 3 0.286823 0.462347 0.0304839
4037 4 0.295935 0.495452 0.0375619
3752 4 0.302504 0.479129 0.0301474
3751 2 0.31778 0.477147 0.0107341
1936 2 0.0109253 0.0581895 0.13007
1937 4 0.0340492 0.0622966 0.140425
252 3 0.0518917 0.054946 0.142747
1031 4 0.0457782 0.0130409 0.149031
251 1 0.0712495 0.0463102 0.146899
255 3 0.0656375 0.0237072 0.149218
253 3 0.0861192 0.0515085 0.129088
3948 4 0.0985541 0.0619715 0.113993
3946 2 0.122128 0.0724633 0.107295
3861 4 0.453589 0.0236168 0.0981589
3859 2 0.476297 0.0382094 0.101155
1054 2 0.492759 0.00778449 0.152771
3860 4 0.499006 0.052802 0.104151
1055 4 0.490829 0.00151625 0.128579
3278 4 0.0298765 0.138253 0.10029
4044 4 0.0230209 0.156491 0.098044
3947 4 0.145702 0.0829551 0.100597
3165 4 0.16337 0.153473 0.146299
2184 4 0.300447 0.107718 0.149124
2182 2 0.322552 0.123393 0.151885
410 3 0.360188 0.154704 0.160378
406 1 0.377071 0.142536 0.157777
408 3 0.367968 0.120993 0.150924
2183 4 0.344658 0.139068 0.154646
407 3 0.392039 0.152449 0.141743
3092 4 0.470579 0.142975 0.159177
3091 2 0.48001 0.167151 0.163036
4042 2 0.0330117 0.174442 0.114083
4043 4 0.0430025 0.192393 0.130122
3100 2 0.0924546 0.182491 0.151432
3102 4 0.116491 0.193453 0.147162
3163 2 0.148287 0.170545 0.148322
3164 4 0.133205 0.187616 0.150345
4196 4 0.362105 0.174085 0.153682
4195 2 0.376078 0.196424 0.148474
3036 4 0.402905 0.168754 0.133686
4197 4 0.39005 0.218763 0.143266
4548 4 0.403874 0.232754 0.152061
4546 2 0.420766 0.243274 0.135044
3034 2 0.428103 0.174175 0.130674
3035 4 0.453301 0.179596 0.127663
4547 4 0.437658 0.253794 0.118028
3030 4 0.468607 0.192605 0.118655
3028 2 0.483634 0.194899 0.0984974
3675 4 0.144542 0.331984 0.137192
3673 2 0.126936 0.322705 0.154079
3411 4 0.187276 0.280136 0.145952
3409 2 0.199324 0.277262 0.124527
3410 4 0.211372 0.274388 0.103101
776 4 0.232849 0.275878 0.103172
775 2 0.253931 0.292475 0.107898
777 4 0.275012 0.309073 0.112624
3748 2 0.346214 0.290489 0.144085
3750 4 0.345414 0.281078 0.120937
2993 4 0.420359 0.326425 0.144171
3749 4 0.347013 0.299899 0.167233
3242 4 0.44901 0.322118 0.0905652
3243 4 0.431813 0.296763 0.131776
3241 2 0.440411 0.30944 0.11117
2061 4 0.45783 0.262076 0.115638
2059 2 0.48296 0.267654 0.112178
3155 4 0.0776094 0.405231 0.0882221
4188 4 0.05645 0.389301 0.13648
4187 4 0.0653503 0.384266 0.0877024
4186 2 0.0609001 0.386783 0.112091
2916 4 0.0569767 0.373172 0.146898
1173 4 0.167833 0.402153 0.082779
2323 2 0.137194 0.388096 0.15606
2325 4 0.136234 0.394833 0.132079
1172 4 0.14664 0.412398 0.125965
1171 2 0.157237 0.407276 0.104372
435 3 0.295666 0.413048 0.0847025
3033 4 0.341861 0.394557 0.15425
3842 4 0.352264 0.380448 0.14892
1992 4 0.344903 0.335655 0.0831905
3841 2 0.37614 0.392991 0.149614
3843 4 0.400017 0.405535 0.150307
2887 2 0.430365 0.39933 0.132315
2889 4 0.412148 0.390437 0.148747
2992 2 0.423466 0.349408 0.153963
2888 4 0.448582 0.408222 0.115882
1710 4 0.452236 0.409964 0.0971522
3178 2 0.0437229 0.444153 0.09136
3180 4 0.0185552 0.437633 0.0887206
3003 4 0.00214865 0.143976 0.197778
1011 4 0.0783259 0.465323 0.0798193
3179 4 0.0688906 0.450674 0.0939994
786 4 0.218374 0.476301 0.157741
2411 4 0.207119 0.435584 0.150433
67 3 0.242902 0.466801 0.121551
66 1 0.256933 0.487353 0.121625
70 3 0.278413 0.48469 0.127045
68 3 0.256771 0.496757 0.100494
3385 2 0.000662292 0.0140431 0.23316
2238 4 0.132427 0.430771 0.446924
1871 4 0.0117268 0.0531548 0.165043
3387 4 0.0180572 0.0344912 0.228802
4320 4 0.0321981 0.0408663 0.215457
4318 2 0.0514453 0.0288529 0.210715
254 3 0.0812062 0.0557271 0.166431
4487 4 0.0967423 0.0690156 0.179755
2253 4 0.114003 0.0730745 0.193635
4319 4 0.0706925 0.0168395 0.205973
4577 4 0.0907572 0.0197389 0.2127
4576 2 0.11188 0.0239432 0.226583
2251 2 0.133545 0.0805068 0.20908
4578 4 0.133003 0.0281475 0.240467
1056 4 0.494689 0.0140527 0.176963
4430 4 0.486873 0.00775222 0.194189
2886 4 0.00628708 0.147845 0.17821
3855 4 0.0109477 0.0944286 0.175533
2884 2 0.0286126 0.161181 0.171115
3853 2 0.0329698 0.101335 0.187604
3854 4 0.0549919 0.108242 0.199676
4488 4 0.0698279 0.105316 0.187768
4486 2 0.0832851 0.0871656 0.183762
2252 4 0.153087 0.0879392 0.224525
3879 4 0.173262 0.0920439 0.22409
3877 2 0.195479 0.0969187 0.236175
409 3 0.388695 0.141856 0.177777
1383 4 0.391307 0.139646 0.197164
1381 2 0.41214 0.152808 0.207701
3101 4 0.0684179 0.171529 0.155702
2885 4 0.0509381 0.174516 0.16402
887 4 0.125629 0.166607 0.247556
1382 4 0.432974 0.165971 0.218237
800 4 0.437524 0.18144 0.230257
799 2 0.455416 0.196961 0.24276
3093 4 0.489441 0.191327 0.166895
3200 4 0.490201 0.203226 0.183751
832 2 0.0667802 0.265278 0.235036
834 4 0.0824629 0.273897 0.216295
3141 4 0.103807 0.314916 0.189922
3139 2 0.108235 0.329391 0.210228
4026 4 0.0975833 0.28095 0.229075
3674 4 0.109331 0.313425 0.170966
4024 2 0.120617 0.275608 0.233642
4025 4 0.143651 0.270266 0.238209
1734 4 0.163102 0.277035 0.230377
1732 2 0.187957 0.28578 0.232972
1733 4 0.212812 0.294526 0.235567
1169 4 0.233567 0.301512 0.23222
1168 2 0.25818 0.30421 0.226237
1170 4 0.282792 0.306907 0.220254
1983 4 0.304043 0.311364 0.218905
1981 2 0.329246 0.312774 0.219755
1982 4 0.35445 0.314184 0.220606
756 4 0.375686 0.320637 0.219919
754 2 0.400856 0.321781 0.219116
755 4 0.426027 0.322925 0.218313
2826 4 0.445788 0.330888 0.217927
1195 2 0.0251777 0.38423 0.229206
1197 4 0.00252046 0.388915 0.222067
1196 4 0.047835 0.379545 0.236344
1395 4 0.0676838 0.385366 0.237296
2914 2 0.0689622 0.372012 0.168696
1393 2 0.0768002 0.409841 0.235307
2915 4 0.0809477 0.370851 0.190493
577 3 0.121548 0.341109 0.248056
3140 4 0.112664 0.343866 0.230534
2324 4 0.138153 0.38136 0.180041
1412 4 0.14513 0.379792 0.198545
1411 2 0.169389 0.390257 0.202423
1413 4 0.193647 0.400723 0.206302
2412 4 0.202161 0.416336 0.196563
2049 4 0.288325 0.364462 0.236615
3938 4 0.322303 0.399201 0.215495
3032 4 0.31622 0.392728 0.197339
3031 2 0.32904 0.393643 0.175794
2047 2 0.312901 0.36253 0.236121
2048 4 0.337477 0.360597 0.235626
4164 4 0.349813 0.356504 0.221781
4162 2 0.369551 0.366407 0.236089
4163 4 0.389289 0.37631 0.250397
2824 2 0.470464 0.331105 0.21367
2994 4 0.426574 0.372391 0.163755
2825 4 0.495141 0.331321 0.209413
3167 4 0.0118928 0.495023 0.22855
1394 4 0.0859166 0.434316 0.233317
2852 4 0.0999242 0.493441 0.23132
785 4 0.176883 0.480963 0.183955
784 2 0.197628 0.478632 0.170848
2410 2 0.20464 0.42596 0.173498
1449 4 0.245107 0.489512 0.174989
4069 2 0.227328 0.445208 0.248599
4070 4 0.24701 0.458743 0.236575
1447 2 0.249623 0.478728 0.196604
1448 4 0.254138 0.467944 0.218219
3937 2 0.328365 0.422892 0.223283
3939 4 0.334427 0.446584 0.231072
3116 4 0.352906 0.453379 0.227281
3115 2 0.376372 0.460377 0.218167
3117 4 0.399838 0.467376 0.209052
3600 4 0.406618 0.487726 0.202759
4171 2 0.110767 0.0296749 0.332122
4173 4 0.129892 0.0181907 0.325475
4172 4 0.091642 0.041159 0.338769
1167 4 0.136038 0.0198365 0.305487
1165 2 0.135538 0.0273939 0.281725
1166 4 0.135037 0.0349513 0.257964
302 3 0.143355 0.00471629 0.302543
4306 2 0.274758 0.0213992 0.290674
4307 4 0.279903 0.0458364 0.295914
2947 2 0.410232 0.088052 0.290009
2949 4 0.390309 0.0832063 0.30546
440 3 0.0385648 0.125927 0.270718
436 1 0.0492042 0.146338 0.278036
437 3 0.0394848 0.151319 0.297826
438 3 0.0468124 0.162605 0.262368
1360 2 0.0175003 0.161845 0.31443
439 3 0.0720647 0.146045 0.281682
3287 4 0.0314281 0.168649 0.2552
1362 4 0.0407728 0.170244 0.305423
888 4 0.0913877 0.143813 0.280311
886 2 0.108509 0.15521 0.263934
3878 4 0.217696 0.101793 0.24826
2973 4 0.234175 0.108253 0.25939
2971 2 0.254621 0.110719 0.274189
2972 4 0.275067 0.113184 0.288988
4478 4 0.296313 0.1172 0.290676
4477 2 0.320126 0.123501 0.29911
4479 4 0.34394 0.129802 0.307544
3575 4 0.363229 0.128064 0.308001
2948 4 0.430155 0.0928976 0.274557
3574 2 0.387511 0.137959 0.312582
3576 4 0.411793 0.147854 0.317162
1163 4 0.43075 0.156129 0.317008
1162 2 0.452869 0.156347 0.328738
3286 2 0.0084095 0.174376 0.258942
1580 4 0.121527 0.22786 0.333311
828 4 0.124527 0.227623 0.31371
826 2 0.14926 0.237559 0.313628
882 4 0.1404 0.162678 0.259333
827 4 0.173993 0.247495 0.313545
881 4 0.191067 0.175217 0.259506
880 2 0.165734 0.168947 0.259419
841 2 0.291797 0.215127 0.318167
843 4 0.278897 0.19265 0.311717
842 4 0.304696 0.237604 0.324616
3152 4 0.320538 0.25314 0.323104
923 4 0.413688 0.24299 0.289136
801 4 0.473308 0.212483 0.255263
885 4 0.493159 0.213276 0.248501
833 4 0.0510975 0.256659 0.253777
1038 4 0.167879 0.326497 0.272196
1160 4 0.194984 0.249894 0.314057
3153 4 0.371059 0.265109 0.327358
3151 2 0.345798 0.259124 0.325231
924 4 0.387981 0.269971 0.318093
922 2 0.400834 0.25648 0.303615
2807 4 0.0202852 0.395598 0.29435
3134 4 0.0383304 0.406012 0.292313
2450 4 0.151128 0.491954 0.477903
579 3 0.149475 0.369052 0.258428
578 3 0.151414 0.333047 0.267211
872 4 0.129807 0.339691 0.299501
580 3 0.125772 0.350491 0.28409
576 1 0.137041 0.348463 0.264618
871 2 0.134227 0.356577 0.31789
1036 2 0.190964 0.33962 0.277048
1037 4 0.214049 0.352743 0.281899
876 4 0.230548 0.36061 0.27209
874 2 0.252397 0.358534 0.260818
875 4 0.274245 0.356459 0.249546
3867 4 0.415419 0.353235 0.290438
3865 2 0.437995 0.351464 0.300331
3257 4 0.471467 0.346319 0.326486
3866 4 0.460571 0.349693 0.310224
3256 2 0.495362 0.358764 0.327657
3820 2 0.0320213 0.489843 0.301834
3822 4 0.0528858 0.482701 0.292694
2892 4 0.0663097 0.494091 0.305812
3133 2 0.0604132 0.419668 0.299633
570 3 0.0981343 0.420933 0.274306
568 3 0.129563 0.417478 0.293761
569 3 0.103086 0.435664 0.308881
1891 2 0.136619 0.48898 0.278674
3135 4 0.0824961 0.433323 0.306952
566 1 0.113795 0.43112 0.289262
567 3 0.124921 0.45092 0.280323
3096 4 0.143958 0.428937 0.28223
1892 4 0.14232 0.466101 0.276368
4071 4 0.207646 0.431673 0.260623
3094 2 0.16803 0.434743 0.274405
3095 4 0.192103 0.440549 0.26658
997 2 0.0770699 0.0660596 0.331672
999 4 0.0723018 0.0411436 0.333744
303 3 0.129718 0.00236659 0.33765
3917 4 0.174426 0.00866215 0.340383
3916 2 0.19866 0.0196345 0.343444
1862 4 0.240125 0.0288702 0.337627
3918 4 0.222893 0.0306068 0.346504
1861 2 0.262832 0.0336959 0.348808
1863 4 0.285538 0.0385215 0.359989
929 4 0.295999 0.0478813 0.375106
928 2 0.303717 0.0345386 0.393674
930 4 0.311434 0.021196 0.412241
241 1 0.475007 0.00027125 0.365527
245 3 0.467001 0.0173183 0.375794
1979 4 0.468667 0.00937498 0.394763
1978 2 0.463671 0.0263336 0.411279
243 3 0.497098 0.00758815 0.358224
3073 2 0.0100762 0.162239 0.405574
998 4 0.081838 0.0909756 0.3296
1473 4 0.112104 0.147675 0.4051
1471 2 0.129562 0.165422 0.394766
993 4 0.39962 0.147504 0.400241
991 2 0.415321 0.134231 0.389208
992 4 0.431023 0.120958 0.378176
3138 4 0.492383 0.155874 0.351396
1164 4 0.474988 0.156565 0.340468
3075 4 0.0214019 0.17568 0.386463
1581 4 0.0803869 0.221802 0.362638
1579 2 0.100957 0.224831 0.347974
1472 4 0.14702 0.183169 0.384433
3914 4 0.165711 0.189599 0.392556
3913 2 0.186408 0.200727 0.380232
1159 2 0.20092 0.23894 0.335097
3915 4 0.207105 0.211856 0.367908
1161 4 0.206856 0.227986 0.356136
3356 4 0.295733 0.233487 0.406068
847 2 0.22844 0.321807 0.410816
849 4 0.203544 0.321681 0.408272
848 4 0.253336 0.321934 0.41336
3355 2 0.294457 0.257787 0.407732
3357 4 0.293181 0.282087 0.409396
4236 4 0.0121587 0.386201 0.333032
3810 4 0.0291111 0.386104 0.344305
3808 2 0.0516962 0.381925 0.352248
3809 4 0.0742813 0.377747 0.36019
1187 4 0.0869053 0.370236 0.374197
1186 2 0.10901 0.376952 0.362221
1188 4 0.131115 0.383667 0.350244
873 4 0.138647 0.373463 0.336278
1856 4 0.1962 0.377522 0.375819
1857 4 0.197618 0.339333 0.40702
1855 2 0.196909 0.358428 0.391419
18 3 0.335528 0.38402 0.396312
4305 4 0.38102 0.367663 0.409917
4303 2 0.400504 0.355557 0.412975
4304 4 0.419987 0.343452 0.416033
3433 2 0.460909 0.347498 0.409757
3435 4 0.483937 0.341122 0.410067
79 3 0.0199204 0.469988 0.347658
76 1 0.00462984 0.449955 0.346914
2218 2 0.0181211 0.468911 0.398876
77 3 0.0162004 0.432639 0.350597
1238 4 0.0363546 0.43248 0.343837
3870 4 0.0368139 0.475261 0.358944
2219 4 0.0324306 0.474504 0.378457
1237 2 0.05846 0.442588 0.354396
3868 2 0.05288 0.497117 0.358367
1921 2 0.125471 0.466614 0.358526
1922 4 0.100564 0.458562 0.361704
1239 4 0.0805654 0.452697 0.364954
2237 4 0.150687 0.468501 0.416174
1923 4 0.150378 0.474666 0.355348
1240 2 0.195469 0.482903 0.353322
1241 4 0.170694 0.474227 0.356644
1242 4 0.220244 0.49158 0.349999
4296 4 0.238939 0.499515 0.344479
2236 2 0.141557 0.449636 0.431549
958 2 0.0416919 0.0567164 0.477162
959 4 0.0245687 0.0701366 0.485119
960 4 0.058815 0.0432963 0.469205
4466 4 0.189005 0.0764972 0.456172
4169 4 0.295314 0.0147111 0.424208
4470 4 0.468983 0.00755074 0.491467
1853 4 0.487359 0.0191006 0.489159
1980 4 0.458675 0.0432922 0.427796
4767 4 0.133333 0.496765 0.484219
1076 4 0.122462 0.140595 0.419207
1075 2 0.135776 0.127229 0.433328
1077 4 0.14909 0.113863 0.447448
4467 4 0.148678 0.0946989 0.439797
4465 2 0.168842 0.085598 0.447984
3225 4 0.480637 0.0977098 0.482481
1622 4 0.298642 0.223472 0.42249
1621 2 0.312273 0.222625 0.443334
1623 4 0.325904 0.221778 0.464178
3756 4 0.344636 0.224296 0.470271
3754 2 0.362682 0.236875 0.485034
2211 4 0.416932 0.171638 0.494786
2209 2 0.42611 0.180565 0.472691
2210 4 0.435289 0.189492 0.450597
869 4 0.451386 0.185079 0.440147
3686 4 0.441262 0.235562 0.456788
868 2 0.474131 0.199792 0.442358
870 4 0.496875 0.214504 0.44457
3776 4 0.49837 0.195227 0.498325
3353 4 0.190662 0.299119 0.460667
3352 2 0.195296 0.283155 0.478386
4628 4 0.20672 0.31442 0.463383
3354 4 0.19993 0.267192 0.496105
2863 2 0.30091 0.289813 0.451947
2865 4 0.297092 0.283413 0.427924
2864 4 0.304728 0.296213 0.475971
175 3 0.2937 0.281091 0.486384
1703 4 0.316938 0.31196 0.483741
1702 2 0.33575 0.330305 0.476806
3687 4 0.446011 0.28535 0.458811
3685 2 0.443637 0.260456 0.4578
2845 2 0.116118 0.402895 0.465532
2847 4 0.117937 0.385594 0.482896
3231 4 0.134264 0.389279 0.495083
1007 4 0.0134581 0.465296 0.482845
921 4 0.263197 0.340055 0.416998
4629 4 0.245 0.351053 0.475822
4627 2 0.22586 0.332736 0.469603
2829 4 0.25545 0.368986 0.482629
2827 2 0.279509 0.367777 0.476763
16 1 0.346068 0.381395 0.416566
919 2 0.287296 0.34882 0.423412
19 3 0.330179 0.371201 0.431961
920 4 0.311396 0.357585 0.429827
2828 4 0.303567 0.366568 0.470898
902 4 0.322101 0.375816 0.468136
901 2 0.345164 0.387591 0.475059
20 3 0.356455 0.401677 0.424433
903 4 0.368226 0.399366 0.481982
1704 4 0.354562 0.34865 0.46987
17 3 0.362094 0.368021 0.413329
1107 4 0.387223 0.405956 0.489641
1355 4 0.371685 0.361145 0.471977
1354 2 0.393471 0.352921 0.476006
1356 4 0.415257 0.344698 0.480035
3434 4 0.437882 0.353873 0.409447
2594 4 0.433391 0.355422 0.473252
2595 4 0.481944 0.377232 0.479037
2593 2 0.457668 0.366327 0.476145
1008 4 0.010772 0.475135 0.434018
2220 4 0.00381161 0.463318 0.419296
1006 2 0.012115 0.470215 0.458431
2371 2 0.0317652 0.0581339 0.570886
2373 4 0.0512293 0.0527154 0.557542
3252 4 0.0700982 0.0518354 0.560982
3250 2 0.0954641 0.0552236 0.561904
3251 4 0.12083 0.0586118 0.562825
954 4 0.136447 0.0646978 0.575225
2804 4 0.317687 0.0730434 0.579102
2803 2 0.338502 0.0696121 0.56669
2805 4 0.359317 0.0661808 0.554279
214 3 0.390282 0.0613247 0.540183
4112 4 0.370575 0.0526942 0.545224
4111 2 0.370869 0.0311981 0.557298
4113 4 0.371162 0.00970211 0.569371
1572 4 0.38791 0.0111785 0.581865
1570 2 0.413028 0.0136248 0.585058
40 3 0.456529 0.019783 0.581451
36 1 0.463938 0.00640165 0.565856
38 3 0.486789 0.0139003 0.561397
4468 2 0.452162 0.00579417 0.510167
4469 4 0.435342 0.0040376 0.528868
361 1 0.0502052 0.15414 0.578539
365 3 0.064297 0.140346 0.571215
363 3 0.0413383 0.164024 0.560445
3248 4 0.0806397 0.151542 0.565693
3247 2 0.104603 0.161809 0.560151
1041 4 0.145682 0.168658 0.544615
4511 4 0.374497 0.170685 0.551078
4510 2 0.349318 0.168986 0.549168
4512 4 0.324139 0.167287 0.547259
213 3 0.406794 0.0919277 0.55985
211 1 0.390275 0.0838203 0.54417
212 3 0.369364 0.0861773 0.552439
215 3 0.394271 0.0956106 0.524776
778 2 0.408472 0.169279 0.524754
780 4 0.386581 0.16556 0.537442
3249 4 0.128566 0.172076 0.554609
1039 2 0.158976 0.184318 0.528176
1040 4 0.17227 0.199978 0.511738
1323 4 0.190489 0.206025 0.502462
1321 2 0.213627 0.199974 0.503735
1322 4 0.236764 0.193922 0.505008
2942 4 0.391257 0.243179 0.515154
3755 4 0.380727 0.249453 0.499796
779 4 0.430363 0.172999 0.512066
2941 2 0.410965 0.240859 0.52981
2943 4 0.430672 0.23854 0.544465
3777 4 0.449528 0.174553 0.504441
518 3 0.4416 0.243097 0.560124
3775 2 0.473949 0.18489 0.501383
3741 4 0.0998618 0.301898 0.541796
3739 2 0.123068 0.302497 0.532241
3740 4 0.146273 0.303096 0.522686
838 2 0.235291 0.280963 0.516632
840 4 0.212183 0.26804 0.511503
839 4 0.258399 0.293887 0.521761
174 3 0.277365 0.294735 0.516023
171 1 0.297726 0.291706 0.506422
173 3 0.308978 0.279243 0.520598
172 3 0.311144 0.312292 0.503103
761 4 0.319765 0.281904 0.539328
760 2 0.343689 0.294039 0.54164
762 4 0.367612 0.306173 0.543951
3506 4 0.384118 0.297098 0.543512
3505 2 0.397711 0.284776 0.558457
3507 4 0.411304 0.272453 0.573402
516 1 0.447471 0.259452 0.576321
517 3 0.463951 0.27602 0.567807
520 3 0.428939 0.268397 0.582061
2555 4 0.47948 0.279465 0.579304
2991 4 0.0924047 0.388976 0.534556
2990 4 0.0648083 0.344312 0.523445
2989 2 0.0786065 0.366644 0.529
2135 4 0.104023 0.408576 0.531606
1043 4 0.200132 0.408863 0.51904
3230 4 0.181133 0.406449 0.512095
1105 2 0.405943 0.403163 0.505384
1106 4 0.424663 0.40037 0.521128
973 2 0.376251 0.412594 0.582329
164 3 0.436221 0.397245 0.536066
165 3 0.448387 0.42168 0.563639
162 3 0.439916 0.385176 0.571174
161 1 0.448975 0.400845 0.555531
163 3 0.471264 0.398574 0.551277
1103 4 0.490182 0.403611 0.559125
1018 2 0.0380104 0.470393 0.509184
1020 4 0.0620506 0.478776 0.516058
1019 4 0.0139701 0.46201 0.50231
2924 4 0.0657449 0.490385 0.53314
2925 4 0.107553 0.471018 0.54174
2923 2 0.0866491 0.480701 0.53744
2136 4 0.117314 0.456624 0.544667
2134 2 0.110668 0.4326 0.538136
2084 4 0.167799 0.434151 0.525323
2083 2 0.187656 0.452044 0.520011
2085 4 0.207514 0.469938 0.514699
1042 2 0.225175 0.409121 0.518508
1593 4 0.26849 0.42153 0.51582
1044 4 0.250218 0.409379 0.517976
3024 4 0.27236 0.48877 0.529941
1591 2 0.293637 0.427558 0.518968
1592 4 0.318783 0.433586 0.522115
3542 4 0.338386 0.433263 0.524997
3541 2 0.361188 0.434052 0.535535
3543 4 0.383991 0.434841 0.546073
974 4 0.387486 0.427103 0.563882
159 3 0.402867 0.440723 0.535835
160 3 0.406283 0.43284 0.572333
156 1 0.414356 0.447247 0.555569
158 3 0.411685 0.468788 0.561185
2505 4 0.42243 0.486231 0.56394
157 3 0.437101 0.44697 0.55249
1601 4 0.457132 0.450339 0.556952
1600 2 0.481755 0.458394 0.561777
2372 4 0.012301 0.0635524 0.584229
952 2 0.156262 0.0620705 0.589601
953 4 0.176078 0.0594432 0.603977
4600 2 0.170995 0.0510496 0.647807
4601 4 0.174906 0.0553776 0.62338
1511 4 0.203907 0.0304671 0.599254
1510 2 0.204333 0.00836331 0.610079
2723 4 0.291705 0.0570231 0.63381
1644 4 0.296747 0.0543718 0.653169
2724 4 0.298516 0.0675244 0.585166
2722 2 0.29511 0.0622737 0.609488
3430 2 0.394481 0.0303261 0.661216
3431 4 0.390096 0.00607041 0.655146
1571 4 0.438147 0.016071 0.588251
3323 4 0.492949 0.071113 0.63964
3322 2 0.498434 0.0557098 0.657521
4031 4 0.0162868 0.135763 0.602717
362 3 0.0325994 0.141848 0.590417
1049 4 0.0177005 0.111288 0.662448
1048 2 0.0393718 0.126629 0.656767
1050 4 0.0610432 0.141969 0.651086
3563 4 0.0701978 0.164483 0.608093
2336 4 0.480224 0.495723 0.957903
3800 4 0.213494 0.151461 0.651445
3799 2 0.195084 0.165076 0.649293
2495 4 0.231221 0.149411 0.644967
2494 2 0.251211 0.138145 0.648633
2496 4 0.271201 0.126878 0.652298
1178 4 0.288573 0.139093 0.64938
1177 2 0.308857 0.150236 0.6623
1386 4 0.330919 0.107677 0.654121
1384 2 0.351027 0.116991 0.640025
1385 4 0.371135 0.126305 0.625929
3551 4 0.39107 0.137563 0.628001
3550 2 0.416288 0.140638 0.625291
3552 4 0.441507 0.143712 0.622581
515 3 0.449645 0.156984 0.637762
364 3 0.0620091 0.17049 0.592415
3562 2 0.0736927 0.166927 0.632789
3330 4 0.0871778 0.187333 0.663514
3564 4 0.0771876 0.169371 0.657485
3801 4 0.176674 0.178691 0.647141
3758 4 0.2354 0.229807 0.65802
2525 4 0.302293 0.226837 0.663419
514 3 0.447845 0.190599 0.652796
519 3 0.456058 0.250322 0.595039
511 1 0.462128 0.176173 0.646064
512 3 0.476403 0.18642 0.629643
513 3 0.475112 0.171279 0.664014
1145 4 0.121986 0.284286 0.646961
1144 2 0.142974 0.298988 0.655485
1146 4 0.163961 0.313689 0.664008
2554 2 0.500375 0.291523 0.590669
3428 4 0.0274088 0.388771 0.589472
3427 2 0.0481296 0.406604 0.58874
975 4 0.365015 0.398085 0.600776
3383 4 0.437502 0.37236 0.58632
3864 4 0.48919 0.377955 0.661691
2897 4 0.492202 0.342518 0.604834
3382 2 0.457362 0.363227 0.595227
3384 4 0.477222 0.354093 0.604133
3429 4 0.0688504 0.424437 0.588008
1390 2 0.00317657 0.449569 0.644831
1391 4 0.0124461 0.447064 0.667732
4707 4 0.492053 0.478314 0.642132
3350 4 0.0194212 0.0810903 0.681143
529 3 0.00205644 0.0758223 0.672921
1562 4 0.00813594 0.0316656 0.715954
3351 4 0.026723 0.0431368 0.710477
3349 2 0.0230721 0.0621135 0.69581
3363 4 0.125966 0.0570414 0.716927
3361 2 0.136801 0.0516829 0.695544
4602 4 0.167084 0.0467216 0.672233
3362 4 0.147636 0.0463244 0.674161
463 3 0.144604 0.0618109 0.725419
461 1 0.14617 0.0682548 0.747706
3789 4 0.00532957 0.247793 0.883081
4242 4 0.24168 0.0580693 0.736478
4240 2 0.261231 0.0708972 0.723698
3688 2 0.226296 0.0155543 0.731307
3689 4 0.207038 0.00663885 0.716007
2267 4 0.297571 0.0774506 0.70383
3690 4 0.245555 0.0244697 0.746606
1642 2 0.290235 0.0339378 0.667298
1643 4 0.283723 0.0135039 0.681426
3692 4 0.298437 0.013601 0.695737
3691 2 0.318293 0.0198503 0.711075
3693 4 0.33815 0.0260996 0.726413
3831 4 0.35852 0.0309122 0.724095
1502 4 0.498322 0.350495 0.799668
108 3 0.373785 0.00817525 0.727574
3432 4 0.398866 0.0545819 0.667287
3829 2 0.381691 0.0437682 0.719105
3830 4 0.404862 0.0566241 0.714115
4781 4 0.423557 0.0612591 0.72191
4780 2 0.44507 0.0538863 0.728918
4782 4 0.466584 0.0465135 0.735926
1639 2 0.0242641 0.100852 0.735346
1641 4 0.0482477 0.102825 0.727409
4241 4 0.280783 0.0837252 0.710918
2268 4 0.330995 0.105969 0.674045
2266 2 0.314283 0.0917097 0.688938
3341 4 0.413232 0.131686 0.720818
3340 2 0.425921 0.128309 0.699914
3342 4 0.43861 0.124932 0.67901
125 3 0.408814 0.145701 0.73303
3714 4 0.459144 0.127277 0.679203
3712 2 0.482504 0.131678 0.689026
3328 2 0.108851 0.201212 0.671568
3456 4 0.110976 0.213429 0.710358
3454 2 0.131441 0.227884 0.720214
3455 4 0.151907 0.242338 0.73007
3329 4 0.130525 0.215091 0.679622
2918 4 0.17092 0.23634 0.732136
2524 2 0.295513 0.236932 0.684617
2526 4 0.288733 0.247028 0.705815
3804 4 0.28994 0.178516 0.731395
3803 4 0.305918 0.191463 0.685061
3802 2 0.297929 0.18499 0.708228
1296 4 0.306422 0.249088 0.71762
3593 4 0.287378 0.184083 0.750587
1179 4 0.32914 0.161379 0.67522
1701 4 0.335904 0.170393 0.69285
1699 2 0.353722 0.185055 0.706259
1700 4 0.371541 0.199716 0.719669
1233 4 0.389014 0.207731 0.728745
1231 2 0.410335 0.220434 0.73882
121 1 0.419803 0.16589 0.740576
123 3 0.428851 0.179075 0.722686
944 4 0.448333 0.176061 0.725113
943 2 0.458677 0.178948 0.702302
1689 4 0.452659 0.165936 0.742547
945 4 0.46902 0.181836 0.679491
3722 4 0.177949 0.305423 0.67381
3759 4 0.222736 0.272315 0.674783
2917 2 0.194642 0.24877 0.729121
3757 2 0.229068 0.251061 0.666401
2919 4 0.218365 0.2612 0.726106
3721 2 0.192699 0.319475 0.690495
694 3 0.235474 0.263778 0.714825
3723 4 0.207449 0.333526 0.70718
2813 4 0.261158 0.321296 0.735741
1294 2 0.321727 0.251776 0.737577
692 3 0.267486 0.249916 0.709369
691 1 0.25901 0.268491 0.716035
693 3 0.267376 0.286151 0.701908
695 3 0.265669 0.273732 0.737448
1477 2 0.296106 0.29877 0.75235
1478 4 0.3195 0.312445 0.752457
119 3 0.385227 0.440026 0.930866
1341 4 0.025008 0.381718 0.673463
3557 4 0.00708287 0.406228 0.718983
1517 4 0.043938 0.378162 0.671615
1518 4 0.093393 0.37556 0.672883
1516 2 0.0686655 0.376861 0.672249
2812 2 0.246183 0.33775 0.74146
2814 4 0.231208 0.354203 0.747179
1615 2 0.485752 0.353879 0.695083
1616 4 0.478139 0.365818 0.675402
1617 4 0.493366 0.341939 0.714763
2426 4 0.462868 0.397709 0.74008
2425 2 0.487576 0.406796 0.736867
3420 4 0.498295 0.343585 0.734271
3556 2 0.0319959 0.415162 0.720486
3558 4 0.0569089 0.424096 0.72199
1421 4 0.0214251 0.492043 0.733995
3000 4 0.0768658 0.434147 0.720708
2998 2 0.102101 0.440267 0.723004
2999 4 0.127337 0.446387 0.7253
1446 4 0.147794 0.45161 0.732029
1444 2 0.173018 0.458518 0.730491
1445 4 0.198243 0.465425 0.728953
3629 4 0.218483 0.477216 0.72923
3628 2 0.243495 0.48577 0.730264
3630 4 0.268508 0.494323 0.731299
327 3 0.288036 0.496627 0.737451
326 1 0.307051 0.488915 0.744757
329 3 0.315915 0.478335 0.727136
3793 2 0.360436 0.476628 0.722817
3795 4 0.336721 0.481173 0.72444
3794 4 0.384151 0.472084 0.721193
152 3 0.388268 0.462544 0.738649
3422 4 0.444218 0.475141 0.692609
3561 4 0.0508539 0.0284233 0.802482
1560 4 0.104875 0.0577636 0.76122
1559 4 0.0684974 0.0361215 0.792482
1558 2 0.0866861 0.0469426 0.776851
3559 2 0.0647514 0.0200062 0.82028
462 3 0.125179 0.0622683 0.757542
3112 2 0.204413 0.0588489 0.758844
3113 4 0.180664 0.0582269 0.766974
465 3 0.161423 0.0578274 0.758499
2790 4 0.206623 0.0577852 0.801715
2788 2 0.20593 0.0428825 0.821693
3114 4 0.228162 0.0594709 0.750714
4257 4 0.232009 0.00569476 0.795621
2789 4 0.205237 0.0279799 0.841671
3773 4 0.225617 0.0638194 0.796137
105 3 0.248858 0.0095522 0.783309
104 3 0.256265 0.0390749 0.760035
101 1 0.264598 0.0276422 0.777347
103 3 0.269901 0.0417096 0.795591
3772 2 0.247764 0.079356 0.793072
102 3 0.284011 0.0205526 0.770215
3491 4 0.290788 0.042671 0.794176
1235 4 0.344255 0.01928 0.772994
1234 2 0.321892 0.0267961 0.775493
1236 4 0.299529 0.0343122 0.777991
3490 2 0.301133 0.0617671 0.808764
3492 4 0.311478 0.0808633 0.823352
1464 4 0.362667 0.0126125 0.772307
1463 4 0.406261 0.0230443 0.797836
1462 2 0.384464 0.0178284 0.785072
4725 4 0.423863 0.0183239 0.804835
4723 2 0.443003 0.0299958 0.818929
1640 4 0.000280469 0.0988792 0.743282
464 3 0.152823 0.0912704 0.749253
3594 4 0.274837 0.137851 0.769175
3497 4 0.280243 0.112542 0.790694
3774 4 0.26991 0.0948926 0.790007
3592 2 0.281107 0.160967 0.759881
2720 4 0.330551 0.0807671 0.828454
3496 2 0.304747 0.123296 0.790226
3498 4 0.329251 0.134051 0.789758
2745 4 0.348751 0.138682 0.783602
2743 2 0.368036 0.153845 0.772593
124 3 0.436986 0.162881 0.755245
2744 4 0.38732 0.169007 0.761584
3448 2 0.177088 0.212841 0.804095
3450 4 0.190099 0.215891 0.782634
3449 4 0.164077 0.209791 0.825556
1232 4 0.431657 0.233136 0.748894