ITEM: TIMESTEP
803000
ITEM: NUMBER OF ATOMS
4590
ITEM: BOX BOUNDS xy xz yz pp pp pp
-9.9985700000000008e+00 1.1198398400000002e+01 1.1998284000000012e+00
-9.9985700000000008e+00 9.9985700000000008e+00 0.0000000000000000e+00
-9.9985700000000008e+00 9.9985700000000008e+00 0.0000000000000000e+00
ITEM: ATOMS id type xs ys zs
484 2 0.0230174 0.0516816 0.0179906
486 4 0.0144681 0.0330414 0.00441631
485 4 0.0315667 0.0703218 0.0315649
311 4 0.0106156 0.0219447 0.0195839
1566 4 0.0232547 0.0848266 0.0444409
4231 2 0.113171 0.0823583 0.00684483
1233 4 0.340431 0.0534192 0.00491241
4122 4 0.437519 0.0804137 0.0105023
1564 2 0.00138784 0.0978503 0.0411318
4233 4 0.10844 0.097096 0.0266735
698 4 0.165506 0.154027 0.084756
2855 4 0.241602 0.143715 0.053635
2854 2 0.262112 0.155222 0.0602153
2856 4 0.282623 0.166729 0.0667956
573 4 0.301024 0.163576 0.059232
571 2 0.324911 0.155654 0.063019
572 4 0.348797 0.147733 0.0668059
1785 4 0.364478 0.148977 0.0783517
526 2 0.0695955 0.213514 0.0206945
527 4 0.0683299 0.23134 0.0382271
528 4 0.0708612 0.195689 0.00316184
1124 4 0.182193 0.165778 0.0844498
1123 2 0.202575 0.178871 0.0820639
833 4 0.242203 0.199232 0.0797656
832 2 0.263463 0.211068 0.0782104
834 4 0.284722 0.222905 0.0766552
1125 4 0.222957 0.191963 0.0796779
2472 4 0.302943 0.230592 0.0756906
2470 2 0.326244 0.237604 0.0720421
2471 4 0.349545 0.244616 0.0683935
911 4 0.462943 0.218355 0.0446067
910 2 0.468875 0.225529 0.0676986
562 2 0.477617 0.230604 0.013081
564 4 0.479221 0.214885 0.0325143
624 4 0.487809 0.165612 0.079995
462 4 0.469229 0.166235 0.0736727
1070 4 0.0393658 0.272886 0.0170573
1069 2 0.0587876 0.284038 0.0269137
2805 4 0.0210875 0.267158 0.0141583
1071 4 0.0782093 0.295191 0.0367702
30 3 0.0987369 0.298118 0.0369205
26 1 0.118078 0.296956 0.049
28 3 0.116906 0.312955 0.0658046
27 3 0.121012 0.276116 0.0585937
29 3 0.136148 0.300312 0.0350979
2829 4 0.154608 0.305134 0.0393965
2827 2 0.172606 0.311126 0.0235134
2828 4 0.190604 0.317118 0.00763028
522 4 0.228676 0.295921 0.0671072
520 2 0.244905 0.29167 0.0483471
521 4 0.261134 0.28742 0.0295869
4277 4 0.264866 0.303002 0.0169836
4032 4 0.233833 0.307883 0.0815125
4276 2 0.286741 0.302298 0.00481761
2520 4 0.352469 0.305875 0.0691425
2518 2 0.335298 0.297301 0.0845992
2904 4 0.37015 0.304217 0.0585847
2858 4 0.366592 0.252249 0.0755885
2902 2 0.383626 0.318425 0.0438198
2857 2 0.388316 0.263253 0.0773435
2859 4 0.410039 0.274258 0.0790986
2903 4 0.397101 0.332634 0.0290549
2567 4 0.431667 0.277238 0.0779836
2566 2 0.45648 0.279168 0.0778387
2568 4 0.481293 0.281099 0.0776937
3882 4 0.00805765 0.36928 0.0815206
2661 4 0.0830865 0.399254 0.0339944
2659 2 0.0932016 0.385611 0.0527718
2660 4 0.103317 0.371967 0.0715491
546 4 0.142411 0.410769 0.0126513
544 2 0.147291 0.406333 0.0368221
545 4 0.152171 0.401898 0.0609929
1235 4 0.180062 0.384301 0.00887767
3405 4 0.202206 0.415583 0.0464192
1234 2 0.202245 0.394502 0.00764736
1223 4 0.240071 0.397585 0.017611
1222 2 0.244959 0.391727 0.0414914
1236 4 0.224428 0.404703 0.00641706
1224 4 0.249847 0.385869 0.0653719
536 4 0.378323 0.392213 0.0707894
535 2 0.383074 0.401374 0.0481363
4188 4 0.405243 0.409444 0.0165773
2450 4 0.367105 0.408873 0.0760847
537 4 0.387825 0.410535 0.0254831
4186 2 0.428322 0.416693 0.0210196
3403 2 0.209785 0.436884 0.0560629
3404 4 0.217364 0.458185 0.0657067
3657 4 0.23224 0.469917 0.073844
3655 2 0.256932 0.464422 0.0750516
3656 4 0.281624 0.458927 0.0762591
4533 4 0.344697 0.468664 0.0827913
4187 4 0.451401 0.423941 0.0254618
3906 4 0.156992 0.0405602 0.154851
3904 2 0.153383 0.0162828 0.158035
2781 4 0.175885 0.0456226 0.157859
2553 4 0.349688 0.0561943 0.132056
2551 2 0.368394 0.0583076 0.115745
2552 4 0.3871 0.060421 0.0994336
1533 4 0.402491 0.0548674 0.112654
2945 4 0.384048 0.0050431 0.141324
2944 2 0.383834 0.0139956 0.164668
1531 2 0.423907 0.063879 0.104787
1532 4 0.445322 0.0728907 0.0969199
1403 4 0.461374 0.0759849 0.0844831
2767 2 0.468639 0.0467993 0.141158
2769 4 0.472308 0.0565965 0.118551
1402 2 0.48179 0.0845073 0.0951869
2768 4 0.46497 0.037002 0.163765
2932 2 0.0182926 0.125816 0.144956
914 4 0.0391896 0.100097 0.0913873
2934 4 0.0422468 0.128262 0.151148
875 4 0.0545434 0.112399 0.0950319
913 2 0.0182337 0.0879001 0.0938518
874 2 0.0784151 0.11814 0.0926257
876 4 0.102287 0.123881 0.0902195
699 4 0.12122 0.133614 0.0883509
697 2 0.143363 0.14382 0.0865534
1784 4 0.406629 0.164686 0.0982749
1783 2 0.385554 0.156831 0.0883133
1404 4 0.502207 0.0930297 0.105891
302 4 0.00418123 0.211142 0.121606
765 4 0.283036 0.185617 0.139939
763 2 0.303403 0.187574 0.154142
3504 4 0.336456 0.190566 0.153748
3502 2 0.359018 0.187771 0.142985
461 4 0.422573 0.172186 0.0916091
732 4 0.3937 0.176368 0.146244
730 2 0.418005 0.179367 0.150328
3503 4 0.381581 0.184976 0.132221
731 4 0.44231 0.182365 0.154411
460 2 0.445901 0.16921 0.0826409
912 4 0.474807 0.232703 0.0907904
24 3 0.462753 0.181061 0.160067
2094 4 0.0120572 0.286228 0.106703
2092 2 0.0341385 0.295239 0.112381
2093 4 0.0562199 0.30425 0.118059
495 4 0.075648 0.298648 0.11589
493 2 0.0913209 0.309371 0.10027
494 4 0.106994 0.320094 0.0846501
4031 4 0.191297 0.297026 0.104265
4030 2 0.212565 0.302455 0.0928888
2519 4 0.318127 0.288728 0.100056
2849 4 0.416102 0.276216 0.152584
557 4 0.40732 0.272011 0.0989566
556 2 0.4142 0.282196 0.120528
558 4 0.421079 0.292382 0.1421
2783 4 0.0106162 0.382193 0.0963994
2782 2 0.0288566 0.395929 0.104946
2784 4 0.047097 0.409665 0.113493
3140 4 0.102869 0.364836 0.0895392
3139 2 0.125056 0.352241 0.0868511
3594 4 0.0863903 0.367894 0.167977
3141 4 0.147242 0.339645 0.084163
1760 4 0.15878 0.396847 0.0958333
1759 2 0.169058 0.383201 0.114528
1761 4 0.179335 0.369555 0.133223
2451 4 0.326748 0.400418 0.103641
2449 2 0.346926 0.404645 0.089863
2583 4 0.49621 0.381118 0.0991278
1794 4 0.0227326 0.500809 0.0828585
3517 2 0.0145867 0.461759 0.120698
3519 4 0.0362342 0.473012 0.120195
3258 4 0.0481766 0.47484 0.104156
4366 2 0.0667751 0.444285 0.165035
3256 2 0.0730792 0.474744 0.106462
3257 4 0.0979818 0.474649 0.108768
3534 4 0.117258 0.48069 0.107977
4368 4 0.0780778 0.465851 0.166238
4367 4 0.0554724 0.42272 0.163833
3532 2 0.142265 0.480303 0.108896
3533 4 0.167272 0.479916 0.109816
3893 4 0.182423 0.489583 0.100386
3892 2 0.206696 0.494293 0.100169
3894 4 0.230969 0.499002 0.0999531
4532 4 0.297384 0.4562 0.0887547
4531 2 0.321041 0.462432 0.085773
2564 4 0.397017 0.424644 0.153294
2563 2 0.415271 0.438258 0.144569
2565 4 0.433526 0.451872 0.135844
3662 4 0.044056 0.00915476 0.184548
3661 2 0.05819 0.0144803 0.204243
3663 4 0.072324 0.0198059 0.223938
4508 4 0.0919588 0.0206407 0.21855
4507 2 0.111345 0.0343166 0.224012
4509 4 0.130732 0.0479924 0.229474
2547 4 0.138985 0.0647158 0.237819
2545 2 0.160722 0.0711625 0.228114
2546 4 0.182458 0.0776091 0.218408
2779 2 0.181706 0.057188 0.179048
2780 4 0.187526 0.0687533 0.200238
1850 4 0.188824 0.00463278 0.223839
2946 4 0.383621 0.0229481 0.188011
349 2 0.381721 0.0423579 0.228028
350 4 0.380036 0.0308156 0.205975
2743 2 0.458051 0.00997277 0.234731
2744 4 0.46655 0.00511026 0.211619
400 2 0.190123 0.160905 0.235036
402 4 0.181255 0.138605 0.239907
2669 4 0.42402 0.105121 0.215286
2634 4 0.430149 0.10062 0.232669
2668 2 0.433731 0.120064 0.198276
23 3 0.490278 0.155444 0.170688
2632 2 0.450623 0.090635 0.244091
2670 4 0.443443 0.135007 0.181265
22 3 0.45426 0.146663 0.170928
21 1 0.46841 0.163567 0.174598
1765 2 0.0118893 0.202578 0.196889
1767 4 0.0214553 0.190858 0.217119
1766 4 0.00232328 0.214299 0.176659
2491 2 0.00408802 0.228137 0.24724
2597 4 0.196303 0.196216 0.243236
2596 2 0.189026 0.217399 0.231388
401 4 0.198992 0.183205 0.230165
2598 4 0.181749 0.238582 0.219539
764 4 0.32377 0.189531 0.168345
2842 2 0.401014 0.245788 0.228305
2844 4 0.421788 0.245424 0.214362
2843 4 0.38024 0.246153 0.242248
25 3 0.466199 0.170695 0.196154
2492 4 0.0129595 0.250587 0.251336
2787 4 0.0241487 0.266296 0.248306
2850 4 0.4252 0.253443 0.196428
2848 2 0.420651 0.264829 0.174506
3593 4 0.0506317 0.404667 0.172741
3592 2 0.068511 0.386281 0.170359
587 4 0.0848777 0.469312 0.185377
586 2 0.0960046 0.490683 0.181566
612 4 0.313774 0.490157 0.166501
610 2 0.337712 0.48912 0.173852
611 4 0.36165 0.488084 0.181204
412 2 0.394156 0.496509 0.200858
414 4 0.41786 0.491596 0.208143
3741 4 0.27576 0.00871722 0.273152
2558 4 0.34666 0.00309791 0.317628
2745 4 0.449551 0.0148353 0.257843
351 4 0.383406 0.0539001 0.25008
3680 4 0.429035 0.0152903 0.255392
2664 4 0.465637 0.0722662 0.319139
3498 4 0.452621 0.0643527 0.329736
2662 2 0.464075 0.0699643 0.2943
2663 4 0.462513 0.0676623 0.269461
2633 4 0.471096 0.0806497 0.255513
3250 2 0.128953 0.140169 0.328391
3251 4 0.14911 0.129548 0.316931
762 4 0.164043 0.140959 0.311635
760 2 0.176105 0.161972 0.314109
2611 2 0.0292346 0.209924 0.313169
2613 4 0.0421529 0.205136 0.292129
423 4 0.0569007 0.197333 0.280269
421 2 0.0799844 0.195888 0.270561
422 4 0.103068 0.194443 0.260854
1700 4 0.115073 0.21046 0.262169
1699 2 0.130467 0.220476 0.278571
1701 4 0.145861 0.230492 0.294973
305 4 0.164567 0.228345 0.286387
304 2 0.180314 0.214161 0.300604
761 4 0.188168 0.182985 0.316582
306 4 0.196061 0.199978 0.31482
3850 2 0.414886 0.228294 0.335073
3851 4 0.427998 0.247112 0.32681
3888 4 0.446133 0.24283 0.31951
3790 2 0.0226251 0.308717 0.319838
3791 4 0.0201818 0.311684 0.295115
2786 4 0.0258005 0.29375 0.289972
2785 2 0.0249746 0.280023 0.269139
2555 4 0.0899648 0.331728 0.257042
2738 4 0.357061 0.269479 0.322438
2737 2 0.373383 0.287392 0.321136
2739 4 0.389704 0.305305 0.319835
2637 4 0.404559 0.309947 0.309072
2635 2 0.428797 0.311046 0.303299
2636 4 0.453034 0.312144 0.297526
3886 2 0.46759 0.252895 0.325609
3887 4 0.489047 0.262959 0.331709
1585 2 0.495528 0.314567 0.284588
1586 4 0.472863 0.309894 0.293356
1530 4 0.0414782 0.372751 0.266366
269 4 0.0243901 0.383532 0.261143
268 2 0.00552541 0.378493 0.276388
276 4 0.0478791 0.397644 0.328041
274 2 0.0247637 0.39018 0.331814
1821 4 0.0619412 0.409241 0.331891
1528 2 0.065166 0.377248 0.260799
1529 4 0.0888538 0.381746 0.255233
2554 2 0.110326 0.342913 0.264641
2556 4 0.130687 0.354097 0.27224
2964 4 0.147414 0.346844 0.263213
2963 4 0.195249 0.356646 0.270945
2962 2 0.171332 0.351745 0.267079
265 2 0.210007 0.392175 0.270161
267 4 0.210156 0.367562 0.265963
266 4 0.209857 0.416788 0.274359
644 4 0.00662348 0.454203 0.324755
248 4 0.00986815 0.417458 0.254014
3 3 0.000165106 0.489846 0.252297
247 2 0.0304755 0.426241 0.264083
2539 2 0.0424133 0.480105 0.260769
2541 4 0.020476 0.49282 0.256875
1819 2 0.0630018 0.422276 0.310633
2540 4 0.0643505 0.46739 0.264662
249 4 0.0510829 0.435023 0.274153
1820 4 0.0640624 0.43531 0.289375
1788 4 0.0808421 0.47841 0.265882
1786 2 0.0938217 0.497582 0.258269
3542 4 0.172286 0.485026 0.272783
614 4 0.227377 0.442783 0.328112
613 2 0.227383 0.431437 0.305841
615 4 0.227388 0.420091 0.28357
1757 4 0.283297 0.487093 0.29531
596 4 0.400655 0.493353 0.321162
595 2 0.395418 0.496455 0.296872
704 4 0.109612 0.00933639 0.335495
703 2 0.133972 0.00622139 0.341074
705 4 0.158332 0.00310638 0.346653
352 2 0.202495 0.00558997 0.349771
354 4 0.179154 0.00160007 0.342476
389 4 0.243642 0.0185576 0.358604
353 4 0.225836 0.00957986 0.357066
388 2 0.266533 0.0270182 0.356132
390 4 0.289424 0.0354788 0.353659
468 4 0.29481 0.0531916 0.357557
466 2 0.318708 0.0586183 0.360554
467 4 0.342606 0.064045 0.36355
3497 4 0.481244 0.0387263 0.363058
3496 2 0.466933 0.0515395 0.346397
1771 2 0.4905 0.00033537 0.396073
2830 2 0.0115834 0.115797 0.339602
2832 4 0.0315532 0.124668 0.350835
2627 4 0.0444169 0.121253 0.366923
2626 2 0.0564305 0.124276 0.388541
2628 4 0.0684441 0.127299 0.410159
3252 4 0.108795 0.150791 0.339851
430 2 0.323992 0.111639 0.380642
432 4 0.311341 0.105467 0.360209
431 4 0.336643 0.117812 0.401076
257 4 0.353074 0.127137 0.39583
256 2 0.374165 0.139192 0.39383
258 4 0.395257 0.151246 0.39183
900 4 0.405899 0.142481 0.376314
898 2 0.429308 0.135565 0.383288
899 4 0.452717 0.12865 0.390262
939 4 0.467408 0.121349 0.4025
2612 4 0.0163163 0.214713 0.33421
1397 4 0.00641705 0.203134 0.348648
4299 4 0.013172 0.24125 0.357299
4297 2 0.0310923 0.248217 0.372802
2457 4 0.068742 0.248186 0.39126
953 4 0.251235 0.187211 0.384747
952 2 0.276183 0.184982 0.382644
954 4 0.301132 0.182753 0.38054
3207 4 0.321017 0.182832 0.380787
3205 2 0.344457 0.186918 0.373892
3852 4 0.401773 0.209476 0.343335
3206 4 0.367896 0.191004 0.366997
1212 4 0.387711 0.189004 0.371158
1210 2 0.412015 0.190326 0.37653
3059 4 0.42512 0.236267 0.414536
1211 4 0.43632 0.191648 0.381902
599 4 0.441469 0.195702 0.400832
347 4 0.493737 0.227192 0.377512
600 4 0.48446 0.20985 0.381372
598 2 0.462965 0.202776 0.391102
3792 4 0.0250684 0.305751 0.344562
425 4 0.0160466 0.273491 0.394319
1193 4 0.0497054 0.295752 0.349982
4298 4 0.0490126 0.255184 0.388306
2570 4 0.0626785 0.332439 0.379401
1192 2 0.0700125 0.30914 0.350535
2455 2 0.0861561 0.255512 0.407159
1011 4 0.122686 0.265111 0.415482
1194 4 0.0903196 0.322528 0.351089
3454 2 0.130411 0.32964 0.34847
3456 4 0.109722 0.317073 0.351196
1009 2 0.142706 0.276208 0.40687
1010 4 0.162725 0.287305 0.398258
2485 2 0.192173 0.326722 0.350552
3963 4 0.176608 0.279324 0.409123
2486 4 0.168927 0.333266 0.3428
2487 4 0.215419 0.320179 0.358303
3975 4 0.22768 0.322833 0.343429
3973 2 0.249325 0.321422 0.356012
3974 4 0.270971 0.320011 0.368595
2544 4 0.33136 0.250638 0.383133
2921 4 0.347487 0.257194 0.393613
2900 4 0.284068 0.329725 0.378764
2542 2 0.342806 0.258622 0.362658
2543 4 0.354253 0.266606 0.342184
2683 2 0.490182 0.286265 0.413375
2685 4 0.465917 0.288812 0.407269
143 3 0.0226047 0.404304 0.386851
141 1 0.0147167 0.391287 0.403992
2571 4 0.0169662 0.354667 0.385499
142 3 0.0199387 0.369128 0.3992
3596 4 0.0414251 0.405762 0.392589
2569 2 0.0398224 0.343553 0.38245
3595 2 0.0642084 0.408765 0.383163
2925 4 0.0730613 0.334961 0.397014
2923 2 0.0897878 0.348857 0.408138
3597 4 0.0869918 0.411768 0.373737
3455 4 0.151101 0.342207 0.345744
3990 4 0.141683 0.404526 0.406726
2221 2 0.176187 0.411048 0.4056
2222 4 0.199722 0.401099 0.405788
1220 4 0.170258 0.332884 0.418703
1219 2 0.146268 0.34126 0.416875
2960 4 0.231653 0.341097 0.411614
2959 2 0.207041 0.344012 0.416035
2899 2 0.302928 0.336549 0.364366
2901 4 0.321788 0.343373 0.349967
3071 4 0.341608 0.339331 0.351465
2463 4 0.285916 0.369113 0.42146
2536 2 0.316132 0.389086 0.41591
2537 4 0.340151 0.393143 0.420387
3070 2 0.357395 0.355367 0.360817
583 2 0.372547 0.390621 0.399994
585 4 0.386644 0.383967 0.380162
3072 4 0.373183 0.371404 0.37017
4023 4 0.0109992 0.438159 0.396128
643 2 0.0110822 0.473883 0.339112
645 4 0.015541 0.493562 0.353468
651 4 0.103455 0.422403 0.371743
649 2 0.127695 0.426027 0.36802
650 4 0.151935 0.429651 0.364297
2223 4 0.152652 0.420998 0.405412
873 4 0.169569 0.430911 0.354518
871 2 0.190719 0.440471 0.346654
872 4 0.21187 0.450032 0.33879
315 4 0.398693 0.491697 0.340962
1428 4 0.018044 0.0496222 0.458459
2657 4 0.142213 0.0385211 0.497737
3138 4 0.294498 0.00567547 0.438986
2333 4 0.342981 0.0129695 0.471485
2332 2 0.365593 0.0218909 0.474619
604 2 0.361175 0.0804206 0.489362
2334 4 0.388205 0.0308123 0.477752
2931 4 0.393919 0.0352289 0.496711
606 4 0.383605 0.0843788 0.479579
2777 4 0.498153 0.0759866 0.424059
938 4 0.451821 0.0838291 0.430335
715 2 0.0621465 0.144247 0.483334
716 4 0.0407468 0.152923 0.494009
717 4 0.0835461 0.135571 0.472658
504 4 0.0894451 0.143114 0.454276
502 2 0.109772 0.155227 0.448342
503 4 0.130099 0.16734 0.442409
3032 4 0.420652 0.159317 0.498294
2208 4 0.388567 0.0922868 0.496375
3623 4 0.497397 0.0947749 0.471975
937 2 0.459615 0.102589 0.416418
3622 2 0.475431 0.0919429 0.483253
3624 4 0.453466 0.089111 0.494531
383 4 0.149789 0.170497 0.44406
382 2 0.169241 0.18449 0.43986
384 4 0.188693 0.198483 0.43566
2920 2 0.344726 0.249086 0.417042
2922 4 0.341964 0.240978 0.44047
2655 4 0.400369 0.177961 0.451862
2653 2 0.424179 0.182154 0.457212
2534 4 0.435019 0.245546 0.473376
2654 4 0.44799 0.186347 0.462562
1491 4 0.449124 0.203092 0.451306
1489 2 0.467843 0.218295 0.44836
1490 4 0.486561 0.233499 0.445413
399 4 0.501078 0.245031 0.449606
2456 4 0.10357 0.262837 0.423058
3961 2 0.194476 0.272654 0.425724
1122 4 0.209583 0.265281 0.499091
3962 4 0.212344 0.265985 0.442324
1120 2 0.219309 0.262922 0.476118
1121 4 0.229034 0.260563 0.453145
2535 4 0.406561 0.282085 0.495185
2533 2 0.42079 0.263816 0.48428
3058 2 0.439715 0.255648 0.415654
3060 4 0.454311 0.275029 0.416771
145 3 0.0245452 0.3966 0.423676
3696 4 0.0368707 0.392172 0.439046
3694 2 0.0594716 0.401503 0.437732
1221 4 0.122278 0.349637 0.415047
2924 4 0.106514 0.362753 0.419261
3695 4 0.0820725 0.410833 0.436417
3989 4 0.100144 0.401722 0.434174
3988 2 0.120913 0.403124 0.42045
2961 4 0.18243 0.346928 0.420455
2462 4 0.241323 0.349206 0.424286
2918 4 0.267093 0.351907 0.491953
2917 2 0.273461 0.373518 0.481983
2461 2 0.263619 0.35916 0.422873
2538 4 0.292112 0.385029 0.411433
2919 4 0.279828 0.395129 0.472013
584 4 0.35845 0.397275 0.419825
3704 4 0.153349 0.488485 0.436112
3703 2 0.175601 0.496504 0.442753
1977 4 0.255025 0.465123 0.452394
1976 4 0.245326 0.440618 0.49453
2354 4 0.273954 0.470679 0.446735
1975 2 0.250176 0.452871 0.473462
2355 4 0.301181 0.49779 0.416185
2353 2 0.287568 0.484235 0.43146
3157 2 0.0224097 0.0323435 0.566868
3158 4 0.0470374 0.0339429 0.563498
1025 4 0.0628395 0.0319396 0.550877
1024 2 0.0830114 0.045032 0.547062
1026 4 0.103183 0.0581244 0.543246
2658 4 0.110855 0.066477 0.526688
2656 2 0.126534 0.0524991 0.512212
4136 4 0.283823 0.0459481 0.5684
3714 4 0.280908 0.0648414 0.560773
3712 2 0.265928 0.0767395 0.577509
4135 2 0.285085 0.0244229 0.581122
1993 2 0.343696 0.0127393 0.583498
1994 4 0.322772 0.000742219 0.57992
605 4 0.338745 0.0764624 0.499144
2929 2 0.414371 0.0357119 0.511046
2930 4 0.434823 0.0361948 0.525382
3104 4 0.449791 0.0221722 0.521864
2603 4 0.430192 0.0291755 0.581717
3414 4 0.406227 0.138834 0.563917
3033 4 0.409546 0.147529 0.545435
3031 2 0.415099 0.153423 0.521864
2206 2 0.413056 0.0933628 0.500972
2207 4 0.437545 0.0944387 0.505569
1030 2 0.0161198 0.208783 0.515603
1032 4 0.0360672 0.193963 0.509098
239 4 0.047675 0.194434 0.524434
238 2 0.0705777 0.201465 0.518801
240 4 0.0934803 0.208495 0.513169
3065 4 0.112012 0.214431 0.521126
3064 2 0.122128 0.234529 0.530775
2121 4 0.388007 0.229097 0.553496
2119 2 0.382812 0.251879 0.563062
3380 4 0.445886 0.250102 0.580597
800 4 0.449588 0.249101 0.561295
3266 4 0.0139429 0.293983 0.530315
3265 2 0.0355121 0.297298 0.518469
3267 4 0.0570814 0.300613 0.506622
3066 4 0.132243 0.254626 0.540425
821 4 0.0767132 0.301542 0.50629
4213 2 0.108429 0.270746 0.573651
4215 4 0.121262 0.25959 0.554869
820 2 0.0990059 0.288839 0.506771
822 4 0.121299 0.276136 0.507253
2120 4 0.377617 0.274661 0.572628
799 2 0.469326 0.256319 0.548403
801 4 0.489063 0.263538 0.535511
3582 4 0.0850998 0.361222 0.524559
3580 2 0.106195 0.373141 0.527288
3581 4 0.12729 0.38506 0.530017
3872 4 0.145602 0.377587 0.529945
3871 2 0.162034 0.379802 0.548543
3873 4 0.178466 0.382017 0.567141
1239 4 0.198295 0.377974 0.565104
500 4 0.409905 0.357123 0.57913
499 2 0.4241 0.374158 0.56896
501 4 0.438296 0.391193 0.55879
3114 4 0.453839 0.402379 0.561811
1269 4 0.239417 0.461147 0.562784
1267 2 0.237447 0.483219 0.574514
3987 4 0.257885 0.450866 0.505291
3985 2 0.266129 0.458879 0.527309
3986 4 0.274374 0.466893 0.549328
2678 4 0.28936 0.479468 0.550716
2677 2 0.308228 0.493514 0.544444
4068 4 0.339138 0.444667 0.518773
4066 2 0.360472 0.439251 0.5312
4067 4 0.381807 0.433834 0.543626
2045 4 0.400594 0.440812 0.549175
2044 2 0.425108 0.443747 0.546533
3112 2 0.467144 0.417814 0.575392
2046 4 0.449622 0.446681 0.543891
3771 4 0.456336 0.464863 0.550764
3769 2 0.474294 0.480962 0.547946
3770 4 0.492251 0.49706 0.545127
225 3 0.056273 0.0687807 0.667692
3271 2 0.0876234 0.0739555 0.655258
3273 4 0.100912 0.0758422 0.634234
1468 2 0.142143 0.0781679 0.634963
1470 4 0.12005 0.0710615 0.626743
4284 4 0.188456 0.0690911 0.593025
4282 2 0.21269 0.0736182 0.595068
2257 2 0.212666 0.0558486 0.657142
4137 4 0.286346 0.00289768 0.593844
4283 4 0.236923 0.0781452 0.59711
2258 4 0.229503 0.0582263 0.638942
1995 4 0.36462 0.0247363 0.587077
3237 4 0.307396 0.0432051 0.659147
1926 4 0.345945 0.000779146 0.657152
2602 2 0.405826 0.0317781 0.5874
2604 4 0.38146 0.0343808 0.593083
3462 4 0.438699 0.0331746 0.599368
3460 2 0.462842 0.0317459 0.606032
3461 4 0.486984 0.0303172 0.612695
1218 4 0.998984 0.135746 0.622058
3374 4 0.1168 0.170514 0.640762
1469 4 0.164236 0.0852742 0.643182
3713 4 0.250948 0.0886377 0.594245
963 4 0.357276 0.0886092 0.638466
809 4 0.339315 0.16325 0.610445
3412 2 0.401047 0.129368 0.586334
961 2 0.373426 0.0950387 0.620848
962 4 0.389577 0.101468 0.60323
3413 4 0.395866 0.119901 0.60875
3556 2 0.0134396 0.201343 0.624564
3557 4 0.0381502 0.201453 0.620793
2319 4 0.0562438 0.191257 0.621262
2317 2 0.0771323 0.182342 0.632726
2318 4 0.0980209 0.173427 0.64419
3373 2 0.139778 0.177668 0.635651
3375 4 0.162755 0.184822 0.630539
3219 4 0.169195 0.183012 0.612121
3217 2 0.192668 0.177107 0.619593
3218 4 0.216142 0.171203 0.627065
3023 4 0.23239 0.167965 0.616143
3022 2 0.256537 0.172174 0.619625
3024 4 0.280684 0.176384 0.623107
810 4 0.297177 0.188574 0.624917
808 2 0.318246 0.175912 0.617681
1524 4 0.460886 0.24321 0.63644
1522 2 0.451583 0.22321 0.647156
1523 4 0.442279 0.203209 0.657873
2845 2 0.00312409 0.268328 0.625753
2847 4 0.0261356 0.261065 0.633675
3057 4 0.0437532 0.260774 0.62483
3055 2 0.0586016 0.271232 0.608208
3056 4 0.07345 0.281691 0.591586
4214 4 0.0955968 0.281902 0.592434
3381 4 0.4253 0.255932 0.625953
3379 2 0.435593 0.253017 0.603275
798 4 0.456977 0.315371 0.656135
816 4 0.500963 0.314903 0.603682
3958 2 0.00807781 0.393608 0.602968
3959 4 0.0314709 0.401007 0.601469
1237 2 0.212421 0.37859 0.5857
1238 4 0.226547 0.379206 0.606296
4197 4 0.245615 0.38243 0.614682
4195 2 0.269595 0.383712 0.621376
3384 4 0.311719 0.416912 0.580936
4196 4 0.293575 0.384995 0.62807
4086 4 0.313581 0.38052 0.629259
4084 2 0.32388 0.394897 0.646403
3318 4 0.359661 0.362008 0.633754
4085 4 0.334179 0.409274 0.663548
3316 2 0.377998 0.375381 0.624808
3317 4 0.396336 0.388753 0.615862
3372 4 0.408307 0.403451 0.623932
1007 4 0.41418 0.361357 0.638732
3370 2 0.430291 0.413844 0.621466
1008 4 0.454886 0.335389 0.655873
1006 2 0.434533 0.348373 0.647303
3123 4 0.0435412 0.415908 0.60367
3121 2 0.0645823 0.42809 0.605343
3122 4 0.0856233 0.440271 0.607017
4091 4 0.141776 0.478502 0.644646
4090 2 0.13107 0.492215 0.626221
3383 4 0.276191 0.439769 0.609424
2385 4 0.212172 0.495838 0.649017
3382 2 0.293955 0.42834 0.59518
3113 4 0.480448 0.433248 0.588973
3371 4 0.452275 0.424237 0.619
1334 4 0.446556 0.500457 0.596813
1333 2 0.462282 0.491437 0.614511
1335 4 0.478008 0.482416 0.63221
8 3 0.46545 0.438687 0.622876
2217 4 0.469615 0.475799 0.648423
10 3 0.496208 0.430662 0.601982
6 1 0.488693 0.437108 0.622628
7 3 0.496184 0.421436 0.63814
9 3 0.496862 0.457576 0.628215
2589 4 0.43058 0.504072 0.584652
3003 4 0.0129248 0.0706248 0.671547
223 3 0.0242357 0.0797939 0.685351
222 3 0.0373054 0.0438448 0.686464
221 1 0.0434351 0.0656106 0.6861
224 3 0.0555411 0.0696411 0.705327
2460 4 0.0736737 0.0715905 0.697439
3272 4 0.0743346 0.0720688 0.676282
841 2 0.0856376 0.00558101 0.749277
2458 2 0.0948367 0.0694979 0.710789
2459 4 0.116 0.0674053 0.724139
1133 4 0.120753 0.0788127 0.741981
2374 2 0.152592 0.00860986 0.746346
842 4 0.108725 0.00423198 0.739578
2375 4 0.128358 0.0112868 0.740142
2259 4 0.19583 0.0534709 0.675342
3376 2 0.187281 0.0712471 0.706029
1128 4 0.187273 0.019938 0.742156
3378 4 0.205181 0.0611728 0.691045
1126 2 0.211684 0.0210043 0.737157
3377 4 0.169381 0.0813215 0.721014
1127 4 0.236096 0.0220706 0.732157
918 4 0.252443 0.0299886 0.739257
916 2 0.275458 0.0383466 0.737731
4049 4 0.344135 0.0017825 0.72679
3235 2 0.301349 0.0603148 0.676675
3234 4 0.317947 0.053105 0.74052
917 4 0.298473 0.0467046 0.736206
3236 4 0.295303 0.0774244 0.694203
3232 2 0.341263 0.060071 0.744173
4050 4 0.345845 0.00550848 0.676959
4048 2 0.34499 0.00364549 0.701875
3233 4 0.364579 0.0670371 0.747826
3132 4 0.380276 0.0632793 0.734039
3130 2 0.404797 0.0649978 0.73802
3131 4 0.429319 0.0667162 0.742001
1295 4 0.499483 0.00438973 0.733462
1146 4 0.0376191 0.129026 0.745137
1144 2 0.062635 0.127213 0.743899
1132 2 0.141017 0.0896988 0.733666
2322 4 0.099515 0.141103 0.747126
2320 2 0.122793 0.148126 0.750898
1145 4 0.0876509 0.125401 0.742661
3294 4 0.163642 0.147893 0.745362
1134 4 0.161282 0.100585 0.72535
3292 2 0.183031 0.162089 0.741622
4354 2 0.237395 0.151332 0.72982
977 4 0.248599 0.121491 0.71238
4356 4 0.255751 0.138096 0.717923
976 2 0.265354 0.106407 0.700281
978 4 0.282109 0.0913215 0.688181
4355 4 0.219039 0.164568 0.741718
3017 4 0.355543 0.150651 0.675794
3018 4 0.382262 0.136844 0.716287
3417 4 0.395066 0.147423 0.727575
3016 2 0.368903 0.143748 0.696041
3415 2 0.413442 0.148366 0.744443
3011 4 0.498146 0.154932 0.668922
2254 2 0.45635 0.0857215 0.742931
2255 4 0.477937 0.089887 0.731486
3358 2 0.0235466 0.185416 0.702562
3360 4 0.0472691 0.19191 0.701285
830 4 0.0628708 0.192659 0.688897
829 2 0.0793956 0.207322 0.699254
831 4 0.0959204 0.221985 0.709611
3314 4 0.117215 0.223217 0.709657
3313 2 0.140468 0.226737 0.717547
3315 4 0.16372 0.230257 0.725437
3293 4 0.20242 0.176285 0.737882
3116 4 0.225481 0.24413 0.699832
3115 2 0.249548 0.235787 0.700267
3117 4 0.273615 0.227444 0.700701
3452 4 0.291729 0.234852 0.707515
3144 4 0.387683 0.208075 0.695289
3142 2 0.410759 0.20929 0.685916
3143 4 0.433834 0.210505 0.676543
3244 2 0.465288 0.174743 0.731552
3246 4 0.468178 0.1874 0.7103
3010 2 0.487671 0.1744 0.681553
3012 4 0.477195 0.193867 0.694185
2049 4 0.217961 0.306918 0.711451
2047 2 0.218729 0.284218 0.700986
2048 4 0.219497 0.261517 0.690521
4320 4 0.232175 0.319937 0.714693
3451 2 0.301677 0.256988 0.704681
3453 4 0.311625 0.279124 0.701848
3108 4 0.319666 0.297429 0.70138
3106 2 0.333332 0.310662 0.716904
3107 4 0.346997 0.323895 0.732429
796 2 0.476173 0.320654 0.67085
797 4 0.495369 0.325936 0.685564
1067 4 0.126911 0.339581 0.726264
1066 2 0.151636 0.342071 0.726738
1068 4 0.176362 0.344561 0.727212
4319 4 0.193855 0.347126 0.735073
4318 2 0.213015 0.333531 0.724883
1207 2 0.217323 0.404746 0.749165
1208 4 0.210815 0.416232 0.727732
2590 2 0.32342 0.408589 0.743445
2591 4 0.322518 0.384899 0.7511
773 4 0.0253305 0.415977 0.682099
3325 2 0.033217 0.493147 0.711699
772 2 0.0382887 0.427001 0.699936
3327 4 0.0129516 0.490464 0.725868
3326 4 0.0534824 0.495829 0.697531
3038 4 0.0620768 0.448789 0.728852
774 4 0.0512468 0.438024 0.717774
3037 2 0.0786352 0.463936 0.738373
3039 4 0.0951935 0.479083 0.747894
2244 4 0.147925 0.4263 0.721971
2242 2 0.172815 0.426141 0.719502
2243 4 0.197706 0.425981 0.717033
2592 4 0.324322 0.432278 0.735791
2215 2 0.487562 0.479786 0.665114
843 4 0.0625504 0.00693003 0.758976
1064 4 0.000715952 0.0733611 0.778173
2999 4 0.0646753 0.0561058 0.82936
2998 2 0.056539 0.0789001 0.821628
3484 2 0.119816 0.00863546 0.819511
3020 4 0.14575 0.0187419 0.812258
3485 4 0.13276 0.0280671 0.826476
2376 4 0.176826 0.00593289 0.75255
3019 2 0.166161 0.0315791 0.80883
3021 4 0.186572 0.0444163 0.805403
3053 4 0.202996 0.0345612 0.811705
3052 2 0.224216 0.0313931 0.798556
3054 4 0.245436 0.028225 0.785406
1049 4 0.262853 0.0253858 0.795661
1048 2 0.280609 0.0345367 0.810026
1050 4 0.298365 0.0436875 0.824391
2256 4 0.434764 0.081556 0.754377
868 2 0.440924 0.0518333 0.821007
870 4 0.460381 0.0488885 0.805361
689 4 0.474295 0.0335442 0.805795
688 2 0.492381 0.0413292 0.790949
44 3 0.0268004 0.133181 0.816389
41 1 0.0164301 0.11616 0.805483
45 3 0.010471 0.122787 0.784417
42 3 0.0311792 0.0976776 0.804258
3000 4 0.0484027 0.101694 0.813895
2321 4 0.146071 0.155149 0.75467
845 4 0.313573 0.126361 0.813118
844 2 0.324714 0.148016 0.814336
3416 4 0.431819 0.149308 0.761311
3386 4 0.433398 0.138418 0.777493
3385 2 0.454596 0.149657 0.782021
3387 4 0.475793 0.160896 0.786549
1196 4 0.495266 0.159783 0.784605
3245 4 0.462397 0.162085 0.752804
846 4 0.335854 0.169672 0.815553
4140 4 0.352547 0.179564 0.817364
4138 2 0.375315 0.188312 0.814888
4139 4 0.398082 0.19706 0.812412
902 4 0.416259 0.200201 0.80317
901 2 0.438625 0.210047 0.8043
903 4 0.46099 0.219893 0.805431
57 3 0.47698 0.221054 0.795129
60 3 0.497175 0.199687 0.819183
56 1 0.498143 0.215987 0.803398
1111 2 0.189394 0.334204 0.795693
1112 4 0.212059 0.323193 0.791251
2386 2 0.213195 0.293626 0.824566
2387 4 0.211962 0.310367 0.805996
3347 4 0.26733 0.285136 0.795731
3346 2 0.288449 0.29022 0.783883
3348 4 0.309567 0.295304 0.772035
3242 4 0.324242 0.29606 0.785132
3241 2 0.339713 0.306267 0.801328
3243 4 0.355184 0.316474 0.817524
4251 4 0.37866 0.278266 0.763649
4249 2 0.394552 0.296101 0.768056
4250 4 0.410444 0.313935 0.772462
3188 4 0.368734 0.314833 0.833149
1028 4 0.418874 0.331476 0.775938
895 2 0.498224 0.282781 0.831901
897 4 0.475017 0.27546 0.828376
884 4 0.00676097 0.354412 0.796371
883 2 0.0315421 0.356228 0.794831
885 4 0.0563232 0.358044 0.793291
1983 4 0.0720621 0.344095 0.796325
1981 2 0.0955258 0.34944 0.801887
1982 4 0.118989 0.354784 0.807449
3443 4 0.132884 0.369276 0.808962
3442 2 0.155347 0.375857 0.816668
1113 4 0.166729 0.345216 0.800135
3351 4 0.198166 0.387343 0.820642
3444 4 0.17781 0.382439 0.824373
3349 2 0.215645 0.392673 0.80391
1209 4 0.223832 0.393259 0.770598
3350 4 0.233124 0.398003 0.787178
1054 2 0.369942 0.366543 0.825264
1056 4 0.38843 0.377434 0.813425
3042 4 0.405383 0.379004 0.804153
3040 2 0.427526 0.385136 0.813143
1027 2 0.441725 0.335818 0.784434
3041 4 0.449669 0.391268 0.822133
3491 4 0.461107 0.406016 0.816363
1029 4 0.464577 0.34016 0.79293
1097 4 0.467791 0.343907 0.811955
1096 2 0.487759 0.35687 0.806781
137 3 0.00341373 0.455681 0.755276
3192 4 0.110032 0.490743 0.756171
2147 4 0.0966143 0.489532 0.803611
3191 4 0.156934 0.500113 0.768823
3190 2 0.133483 0.495428 0.762497