ITEM: TIMESTEP
2545000
ITEM: NUMBER OF ATOMS
4590
ITEM: BOX BOUNDS xy xz yz pp pp pp
-1.1998284000000012e+01 9.9985700000000008e+00 -1.9997140000000115e+00
-9.9985700000000008e+00 9.9985700000000008e+00 0.0000000000000000e+00
-9.9985700000000008e+00 9.9985700000000008e+00 0.0000000000000000e+00
ITEM: ATOMS id type xs ys zs
256 2 0.414152 0.0140702 0.0484758
257 4 0.434486 0.0303176 0.0518153
2787 4 0.451482 0.03426 0.0605333
2785 2 0.472093 0.0243913 0.0683657
2786 4 0.492703 0.0145226 0.076198
1108 2 0.016663 0.120433 0.0605361
1110 4 0.0387657 0.120251 0.0488824
67 3 0.0522118 0.123255 0.0334049
66 1 0.0646347 0.131148 0.0151976
69 3 0.0513964 0.143363 0.00177707
70 3 0.0830061 0.144442 0.0223729
4505 4 0.0971055 0.154429 0.0333585
4504 2 0.119896 0.160776 0.0430561
68 3 0.0713215 0.113109 0.00332646
958 2 0.177207 0.149422 0.063654
959 4 0.201415 0.146014 0.0669557
960 4 0.152998 0.152829 0.0603524
3984 4 0.249781 0.0968306 0.0784314
1169 4 0.244721 0.100324 0.0591903
1168 2 0.252002 0.103983 0.0354421
1170 4 0.259283 0.107642 0.0116938
113 3 0.276438 0.0994108 0.00644121
3233 4 0.347528 0.138145 0.0068902
3232 2 0.36736 0.130067 0.0184635
3234 4 0.387192 0.121988 0.0300369
2502 4 0.395552 0.116801 0.0468143
2500 2 0.419918 0.122209 0.0521322
2501 4 0.444284 0.127618 0.05745
4506 4 0.142686 0.167123 0.0527537
307 2 0.146563 0.230406 0.00695461
308 4 0.166901 0.230397 0.0214987
3215 4 0.207674 0.163255 0.0781342
3214 2 0.230207 0.175746 0.0821572
3908 4 0.268918 0.19399 0.0761208
966 4 0.00477241 0.2762 0.0581072
964 2 0.0213771 0.295794 0.0529361
965 4 0.0379817 0.315389 0.047765
1293 4 0.0509332 0.301641 0.0436718
1291 2 0.0753273 0.307393 0.0486458
1292 4 0.0997213 0.313146 0.0536198
2529 4 0.274669 0.312475 0.0674776
2527 2 0.260689 0.291097 0.0727651
2528 4 0.246709 0.269719 0.0780526
3195 4 0.303712 0.264673 0.0455824
3193 2 0.318496 0.272846 0.0646438
616 2 0.370485 0.30625 0.0846331
1592 4 0.369421 0.324099 0.0219269
3239 4 0.359344 0.321004 0.00423323
618 4 0.353186 0.286781 0.0878718
617 4 0.387784 0.325719 0.0813945
2610 4 0.500749 0.307509 0.0156076
1200 4 0.459551 0.265047 0.0348477
1198 2 0.479101 0.277264 0.0230148
1199 4 0.498651 0.28948 0.0111819
3347 4 0.0380894 0.395933 0.0146041
2967 4 0.0495006 0.393112 0.0307342
974 4 0.102824 0.331878 0.0583594
2965 2 0.0704585 0.39545 0.0445262
2966 4 0.0914164 0.397787 0.0583182
326 4 0.106676 0.392921 0.069282
973 2 0.124444 0.339178 0.046718
325 2 0.130227 0.399552 0.0617055
975 4 0.146064 0.346478 0.0350765
3336 4 0.199564 0.335208 0.0247916
3334 2 0.176517 0.333458 0.0347424
3335 4 0.153471 0.331708 0.0446932
781 2 0.193415 0.416815 0.0519918
327 4 0.153777 0.406184 0.054129
783 4 0.217682 0.41292 0.0505586
755 4 0.204426 0.372188 0.00271984
638 4 0.236127 0.412811 0.0418968
3744 4 0.314297 0.333253 0.0498512
3042 4 0.327839 0.341833 0.0351439
143 3 0.316321 0.403568 0.077474
3742 2 0.3178 0.342539 0.0729231
2460 4 0.328576 0.415842 0.0657258
3040 2 0.330025 0.352353 0.0124894
1591 2 0.390902 0.33913 0.0222755
1593 4 0.412384 0.354161 0.0226241
905 4 0.431196 0.36048 0.0251811
904 2 0.452471 0.372872 0.0335603
906 4 0.473745 0.385264 0.0419396
4586 4 0.474369 0.404808 0.0385466
913 2 0.499656 0.364761 0.0725664
334 2 0.0166829 0.446207 0.0185719
2616 4 0.0462896 0.438017 0.0484226
336 4 0.0369618 0.445842 0.0331434
2614 2 0.052264 0.450746 0.0694239
1132 2 0.105372 0.475713 0.00824252
1133 4 0.0925681 0.479499 0.0291489
782 4 0.169147 0.420709 0.053425
637 2 0.260242 0.420992 0.0379551
2162 4 0.303974 0.486758 0.0785215
639 4 0.284357 0.429173 0.0340134
2088 4 0.307991 0.464602 0.00803898
608 4 0.319773 0.48233 0.00806562
2459 4 0.303114 0.435395 0.028756
861 4 0.28368 0.488972 0.0774933
2086 2 0.283457 0.465272 0.00362466
2458 2 0.315845 0.425618 0.0472409
4585 2 0.487156 0.419954 0.0549393
758 4 0.369718 0.0196174 0.11408
757 2 0.386456 0.00590244 0.124526
3982 2 0.266371 0.112753 0.0905455
3983 4 0.282961 0.128675 0.10266
1007 4 0.303888 0.128723 0.10429
1006 2 0.321114 0.136608 0.121403
632 4 0.355784 0.151826 0.14649
1008 4 0.338339 0.144493 0.138517
631 2 0.378302 0.164744 0.149271
485 4 0.49399 0.0835899 0.110458
484 2 0.482837 0.0882117 0.132112
486 4 0.471684 0.0928336 0.153766
3216 4 0.25274 0.188238 0.0861803
3907 2 0.292963 0.191097 0.0810831
3909 4 0.317009 0.188203 0.0860453
633 4 0.400821 0.177661 0.152053
1028 4 0.0247374 0.333445 0.0893407
596 4 0.0934579 0.267588 0.131549
595 2 0.116443 0.262806 0.138745
3221 4 0.103399 0.329967 0.165933
597 4 0.139428 0.258024 0.14594
3285 4 0.15718 0.268455 0.143422
3283 2 0.168383 0.280914 0.162678
237 4 0.284493 0.290553 0.161846
3194 4 0.333279 0.281019 0.0837051
235 2 0.307996 0.299955 0.156579
236 4 0.331498 0.309357 0.151313
2782 2 0.362498 0.30689 0.150278
2784 4 0.345769 0.323124 0.155259
2783 4 0.379228 0.290656 0.145298
2574 4 0.398409 0.292076 0.149169
2572 2 0.419873 0.291946 0.161973
2403 4 0.46411 0.332567 0.154591
4088 4 0.0435041 0.334055 0.0965594
3960 4 0.0423007 0.408468 0.145974
3958 2 0.0566462 0.38948 0.146837
1736 4 0.0249934 0.402136 0.14094
2510 4 0.00992949 0.342742 0.158817
3959 4 0.0709917 0.370492 0.1477
3222 4 0.0702866 0.352487 0.138676
4087 2 0.0660245 0.346524 0.100702
3220 2 0.0868427 0.341227 0.152304
4089 4 0.0885449 0.358994 0.104844
554 4 0.156705 0.347687 0.114212
553 2 0.169669 0.367615 0.103832
555 4 0.182633 0.387542 0.093453
286 2 0.202971 0.353748 0.162518
288 4 0.225961 0.356527 0.152436
525 4 0.238042 0.359482 0.137437
523 2 0.258052 0.368754 0.124206
524 4 0.278062 0.378026 0.110974
144 3 0.296868 0.381734 0.103348
141 1 0.314368 0.398368 0.100042
3743 4 0.321303 0.351825 0.095995
2718 4 0.337612 0.352775 0.107222
142 3 0.334061 0.390687 0.107218
2716 2 0.361818 0.361576 0.109131
2717 4 0.386023 0.370376 0.111039
4314 4 0.398849 0.386454 0.113931
4312 2 0.42077 0.394843 0.124434
4313 4 0.442692 0.403233 0.134937
2897 4 0.459696 0.405545 0.146044
507 4 0.454811 0.346988 0.163581
505 2 0.43812 0.362901 0.169721
915 4 0.484775 0.354122 0.0904844
2896 2 0.483829 0.408692 0.15297
2401 2 0.48501 0.346802 0.148016
2615 4 0.0582384 0.463476 0.0904252
3882 4 0.0531681 0.462736 0.11
3880 2 0.0472179 0.462803 0.134284
3881 4 0.0412678 0.46287 0.158567
1413 4 0.136559 0.44531 0.134785
2781 4 0.103668 0.469318 0.0909791
2779 2 0.122306 0.463188 0.105711
1411 2 0.150046 0.449314 0.155712
2780 4 0.140943 0.457057 0.120443
860 4 0.234765 0.486627 0.0886965
323 4 0.157882 0.469171 0.11685
322 2 0.177796 0.480119 0.104553
324 4 0.197709 0.491068 0.0922565
859 2 0.259222 0.487799 0.0830949
2161 2 0.325992 0.499643 0.0839497
145 3 0.310589 0.416942 0.111953
1802 4 0.385218 0.443359 0.152282
1801 2 0.398805 0.44453 0.13125
1803 4 0.412393 0.445701 0.110217
2741 4 0.425784 0.444037 0.095159
2740 2 0.447013 0.457713 0.101767
2742 4 0.468242 0.471389 0.108376
1319 4 0.485728 0.464509 0.112263
1318 2 0.500149 0.450381 0.099039
2472 4 0.315516 0.0730705 0.213176
2470 2 0.325275 0.0753845 0.236178
545 4 0.402442 0.00705237 0.24746
4155 4 0.417475 0.0723677 0.207477
4153 2 0.405472 0.066991 0.229037
4154 4 0.393469 0.0616143 0.250596
544 2 0.424436 0.0172345 0.23843
2644 2 0.472891 0.0550026 0.21603
2646 4 0.496384 0.0658659 0.213763
2645 4 0.449399 0.0441392 0.218296
546 4 0.446429 0.0274166 0.2294
654 4 0.213995 0.0947046 0.170108
652 2 0.23694 0.102483 0.17867
653 4 0.259884 0.110261 0.187232
1407 4 0.314287 0.0924182 0.210065
1356 4 0.340152 0.154235 0.182544
1406 4 0.279437 0.117245 0.187915
1405 2 0.296862 0.104832 0.19899
1231 2 0.00191444 0.214764 0.246848
311 4 0.00196757 0.166343 0.181994
310 2 0.023675 0.180732 0.1847
312 4 0.0453825 0.19512 0.187406
530 4 0.0527091 0.202232 0.205974
529 2 0.0724168 0.204043 0.221485
531 4 0.0921244 0.205854 0.236997
2960 4 0.212426 0.236457 0.212192
737 4 0.27614 0.236513 0.180732
736 2 0.300477 0.243405 0.185028
1354 2 0.338389 0.173955 0.197454
1355 4 0.336626 0.193676 0.212365
1220 4 0.351353 0.202669 0.224486
738 4 0.324815 0.250297 0.189324
1219 2 0.369799 0.200361 0.24095
3454 2 0.429207 0.213049 0.243685
2708 4 0.495378 0.193791 0.183922
2838 4 0.481148 0.176031 0.181301
3897 4 0.466325 0.211247 0.243693
3456 4 0.451919 0.219964 0.23407
2537 4 0.0692904 0.280299 0.192489
2536 2 0.0926738 0.28946 0.186449
2538 4 0.116057 0.298622 0.18041
3632 4 0.13431 0.308725 0.178443
3626 4 0.164308 0.285373 0.195101
3625 2 0.163367 0.276704 0.218554
3284 4 0.179586 0.293374 0.181933
3627 4 0.162425 0.268034 0.242007
3631 2 0.149865 0.329383 0.182503
1799 4 0.182529 0.265293 0.24395
2959 2 0.222356 0.256158 0.199011
2961 4 0.232286 0.275858 0.185831
2573 4 0.441337 0.291816 0.174777
245 4 0.45893 0.293062 0.18302
244 2 0.464978 0.275021 0.198449
246 4 0.471026 0.256981 0.213879
338 4 0.462494 0.262197 0.231035
2140 2 0.0116875 0.405246 0.238836
107 3 0.0391031 0.367481 0.250376
2141 4 0.0310391 0.406872 0.222888
4510 2 0.0919746 0.371866 0.220609
4511 4 0.0978791 0.35569 0.203089
4512 4 0.0860701 0.388043 0.238129
287 4 0.179982 0.35097 0.1726
3633 4 0.165421 0.35004 0.186563
506 4 0.421429 0.378814 0.17586
2691 4 0.484599 0.40173 0.214798
3785 4 0.0463134 0.460136 0.179004
3784 2 0.0429688 0.440477 0.194393
3786 4 0.0396243 0.420818 0.209781
1412 4 0.163533 0.453318 0.176638
1847 4 0.167185 0.47264 0.182974
1846 2 0.187607 0.46706 0.19538
1848 4 0.208028 0.46148 0.207785
1388 4 0.215579 0.456883 0.226614
1387 2 0.240125 0.455124 0.223307
1389 4 0.26467 0.453366 0.219999
2657 4 0.286228 0.455768 0.213231
2656 2 0.308348 0.467819 0.219752
2658 4 0.330468 0.47987 0.226273
855 4 0.343285 0.479299 0.241965
2262 4 0.147768 0.00507409 0.32094
2127 4 0.168866 0.00771223 0.321646
2125 2 0.19389 0.011968 0.320232
1676 4 0.236966 0.0234088 0.314721
2126 4 0.218915 0.0162237 0.318817
1675 2 0.258663 0.0380985 0.31518
1677 4 0.280361 0.0527881 0.315639
1693 2 0.320387 0.0636147 0.308959
1491 4 0.328441 0.00398375 0.267941
1695 4 0.299514 0.0487452 0.314277
1489 2 0.31715 0.999467 0.290016
1694 4 0.341259 0.0784841 0.30364
1371 4 0.342038 0.017539 0.260053
2471 4 0.335033 0.0776986 0.259179
1369 2 0.362856 0.00810638 0.252138
1127 4 0.393099 0.0659026 0.269009
1126 2 0.387203 0.0885495 0.275768
1766 4 0.00890442 0.134041 0.330761
2679 4 0.0260223 0.0936089 0.319808
17 3 0.00599404 0.0907767 0.315686
2677 2 0.050696 0.0991979 0.323334
2678 4 0.0753697 0.104787 0.32686
1517 4 0.0839431 0.122915 0.326665
1516 2 0.105219 0.135691 0.33454
2612 4 0.318501 0.120479 0.274909
2611 2 0.323052 0.125164 0.299128
2613 4 0.327603 0.129849 0.323347
2673 4 0.312869 0.132122 0.33562
1128 4 0.381307 0.111196 0.282527
1233 4 0.012196 0.213509 0.269548
677 4 0.0224803 0.222284 0.28549
676 2 0.0388917 0.22996 0.303421
665 4 0.10029 0.210844 0.256015
678 4 0.0553031 0.237635 0.321353
664 2 0.123192 0.212327 0.266276
2918 4 0.071702 0.233365 0.332162
1601 4 0.150722 0.225838 0.290729
666 4 0.146093 0.21381 0.276537
1600 2 0.164965 0.237087 0.3088
1602 4 0.179208 0.248336 0.326871
453 4 0.355553 0.24903 0.277686
1221 4 0.388244 0.198053 0.257413
3455 4 0.406495 0.206135 0.2533
2490 4 0.411227 0.251973 0.316655
3895 2 0.488378 0.210021 0.255181
3058 2 0.999146 0.267094 0.291671
3059 4 0.016741 0.286123 0.287567
2579 4 0.0336891 0.293053 0.294823
2578 2 0.0472431 0.312469 0.284177
2580 4 0.0607971 0.331885 0.27353
3543 4 0.103028 0.286146 0.25771
3541 2 0.11947 0.306581 0.257169
3542 4 0.135912 0.327015 0.256628
1798 2 0.202954 0.255798 0.25279
2840 4 0.235335 0.250879 0.277435
1800 4 0.223379 0.246303 0.26163
2839 2 0.256644 0.257114 0.29002
2841 4 0.277954 0.26335 0.302605
2798 4 0.297283 0.262728 0.307737
2797 2 0.317492 0.258409 0.294302
2799 4 0.337701 0.254091 0.280867
451 2 0.374368 0.251744 0.294238
452 4 0.393183 0.254458 0.31079
2488 2 0.432376 0.262156 0.305873
2489 4 0.453525 0.272339 0.295091
339 4 0.461326 0.280015 0.277668
337 2 0.46191 0.271106 0.254351
416 4 0.0249678 0.350677 0.252379
110 3 0.0584034 0.388134 0.276247
106 1 0.0583409 0.369603 0.26313
108 3 0.058734 0.350704 0.276397
415 2 0.00145559 0.353417 0.259583
109 3 0.0768494 0.371633 0.249016
582 4 0.203363 0.407761 0.273596
580 2 0.214866 0.393471 0.289525
581 4 0.226369 0.37918 0.305453
3818 4 0.235733 0.367916 0.29308
3817 2 0.259891 0.364909 0.288851
3819 4 0.28405 0.361902 0.284622
494 4 0.301901 0.370459 0.281192
493 2 0.325126 0.369761 0.272136
495 4 0.348352 0.369064 0.263079
410 4 0.365011 0.364038 0.274277
409 2 0.38899 0.372495 0.278579
446 4 0.42112 0.389269 0.30027
411 4 0.412969 0.380953 0.282881
445 2 0.415789 0.396927 0.323278
669 4 0.0428492 0.479067 0.284874
2816 4 0.0278862 0.480674 0.270689
2815 2 0.00568132 0.471864 0.261053
667 2 0.0679525 0.482481 0.284257
2506 2 0.124277 0.484047 0.311402
2507 4 0.102089 0.477895 0.300358
668 4 0.0930559 0.485896 0.283641
2508 4 0.146464 0.490199 0.322446
2661 4 0.124755 0.422212 0.305303
2659 2 0.144531 0.434917 0.294288
1861 2 0.189926 0.435712 0.263019
2660 4 0.164307 0.447622 0.283273
1862 4 0.169686 0.448442 0.262507
1863 4 0.210167 0.422981 0.263532
853 2 0.353744 0.484117 0.26438
854 4 0.364203 0.488934 0.286796
3647 4 0.264707 0.0602635 0.355639
3646 2 0.288618 0.0699105 0.353275
3648 4 0.31253 0.0795576 0.350912
1765 2 0.0288117 0.147543 0.340687
1767 4 0.048719 0.161045 0.350613
1518 4 0.126495 0.148466 0.342416
1781 4 0.145818 0.157737 0.339336
266 4 0.148628 0.141704 0.404718
1780 2 0.170094 0.161993 0.34552
1782 4 0.19437 0.166249 0.351705
296 4 0.251185 0.121446 0.403669
295 2 0.249429 0.129537 0.38015
297 4 0.247673 0.137628 0.356631
2672 4 0.265376 0.140013 0.345976
2671 2 0.289123 0.136067 0.340798
894 4 0.415287 0.165262 0.342454
892 2 0.4402 0.164491 0.342726
893 4 0.465113 0.163719 0.342999
661 2 0.0227386 0.192624 0.399764
663 4 0.0101309 0.173988 0.412511
662 4 0.0353464 0.211259 0.387017
2917 2 0.0870692 0.228357 0.350825
2919 4 0.102436 0.223349 0.369488
1697 4 0.179592 0.24223 0.346024
1696 2 0.196241 0.236471 0.36321
2354 4 0.178033 0.240703 0.413713
306 4 0.203076 0.170981 0.368459
1698 4 0.21289 0.230711 0.380395
304 2 0.22605 0.183298 0.369326
1383 4 0.226756 0.243061 0.389395
305 4 0.249024 0.195616 0.370194
2132 4 0.26621 0.198826 0.377853
2131 2 0.286549 0.214616 0.382746
2133 4 0.306889 0.230405 0.387639
3353 4 0.32674 0.228085 0.390459
3352 2 0.347452 0.240006 0.400562
528 4 0.39537 0.184146 0.405272
526 2 0.40655 0.178846 0.383826
527 4 0.41773 0.173545 0.362379
722 4 0.47719 0.177115 0.352551
3066 4 0.467789 0.237696 0.344105
3064 2 0.490733 0.232884 0.336806
721 2 0.488939 0.182999 0.374138
723 4 0.500689 0.188883 0.395725
3323 4 0.184507 0.274811 0.380533
3322 2 0.197026 0.297503 0.382808
3324 4 0.209545 0.320196 0.385084
1446 4 0.228859 0.319421 0.378212
1381 2 0.249455 0.2526 0.397227
1382 4 0.272154 0.262139 0.405059
1444 2 0.248109 0.332325 0.389879
2992 2 0.353914 0.31366 0.393978
2994 4 0.36995 0.303052 0.379135
2993 4 0.337878 0.324268 0.408822
1415 4 0.381072 0.319308 0.374204
3354 4 0.368164 0.251926 0.410664
1414 2 0.4036 0.32777 0.365066
1061 4 0.435109 0.319585 0.350939
680 4 0.435994 0.32692 0.417391
1060 2 0.459604 0.323619 0.3456
1062 4 0.484099 0.327654 0.34026
679 2 0.460801 0.332284 0.414681
343 2 0.0146512 0.350226 0.371568
344 4 0.0373566 0.358971 0.380062
5 3 0.0548937 0.355254 0.375868
2 3 0.0857509 0.368183 0.394621
2849 4 0.0894187 0.3951 0.377191
3 3 0.0755392 0.386401 0.364028
1 1 0.0761427 0.365515 0.37377
2492 4 0.0941319 0.386337 0.394074
4 3 0.0890173 0.352497 0.36081
4068 4 0.107609 0.355952 0.36879
4066 2 0.132283 0.363016 0.36786
1575 4 0.16778 0.387225 0.374255
4067 4 0.156957 0.370079 0.36693
1573 2 0.191989 0.39363 0.379611
1574 4 0.216198 0.400035 0.384968
2517 4 0.234347 0.407188 0.389108
1445 4 0.26736 0.34523 0.401546
2515 2 0.258426 0.412958 0.382821
3473 4 0.284897 0.349202 0.390636
2516 4 0.282505 0.418728 0.376534
3472 2 0.303965 0.341108 0.403465
3812 4 0.379625 0.404375 0.397355
1416 4 0.426128 0.336231 0.355928
3811 2 0.389413 0.396045 0.376308
3813 4 0.399201 0.387715 0.35526
447 4 0.410457 0.404585 0.346286
681 4 0.485609 0.337647 0.41197
599 4 0.0403588 0.480971 0.353649
598 2 0.0188046 0.468805 0.361621
3167 4 0.056144 0.470658 0.344995
2848 2 0.0949752 0.419349 0.371958
3168 4 0.0982112 0.463325 0.369797
3166 2 0.0771776 0.466991 0.357396
2850 4 0.100532 0.443598 0.366725
3770 4 0.217014 0.452761 0.342886
3769 2 0.240702 0.455962 0.351184
3613 2 0.272963 0.502539 0.366988
3614 4 0.268398 0.477626 0.366513
3771 4 0.264391 0.459162 0.359482
1998 4 0.0400398 0.0451953 0.48498
1996 2 0.060638 0.0373619 0.495307
812 4 0.33416 0.0034309 0.486839
2963 4 0.351317 0.0165629 0.486943
2962 2 0.37451 0.024124 0.494979
4389 4 0.477782 0.00960515 0.489772
3489 4 0.0109864 0.116655 0.490845
3487 2 0.03408 0.126848 0.496679
2519 4 0.0745397 0.141392 0.492887
2518 2 0.0992928 0.144724 0.497102
265 2 0.158009 0.140332 0.427799
267 4 0.16739 0.138961 0.45088
3957 4 0.183583 0.131006 0.457791
2520 4 0.124046 0.148055 0.501317
3955 2 0.208428 0.131437 0.46093
3956 4 0.233273 0.131868 0.464069
2825 4 0.251233 0.133235 0.455742
2824 2 0.274227 0.139433 0.465024
2826 4 0.297221 0.145632 0.474306
2697 4 0.312312 0.157237 0.482618
2695 2 0.331278 0.144369 0.489648
2696 4 0.350243 0.1315 0.496678
3275 4 0.353853 0.168525 0.452407
4001 4 0.365534 0.121495 0.48998
4000 2 0.386369 0.137239 0.492502
4002 4 0.407204 0.152983 0.495024
2811 4 0.447526 0.120498 0.498102
2809 2 0.459358 0.142448 0.490994
2353 2 0.154196 0.240591 0.421298
2355 4 0.13036 0.240479 0.428883
3274 2 0.37467 0.175428 0.439275
3276 4 0.395487 0.182331 0.426142
2810 4 0.471191 0.164398 0.483885
4466 4 0.483054 0.179183 0.491156
1143 4 0.0309626 0.284786 0.426354
1141 2 0.043516 0.289635 0.447709
1142 4 0.0560694 0.294484 0.469064
1821 4 0.0672603 0.293698 0.485576
509 4 0.147676 0.315862 0.498553
711 4 0.259051 0.326457 0.490633
2338 2 0.343827 0.321881 0.463413
2340 4 0.330202 0.299893 0.460065
2491 2 0.102601 0.384778 0.417491
3024 4 0.118301 0.391866 0.456592
2493 4 0.111071 0.383218 0.440908
3022 2 0.119744 0.388021 0.481231
710 4 0.291561 0.362459 0.471427
709 2 0.275306 0.344458 0.48103
3474 4 0.323033 0.333014 0.416293
2339 4 0.357451 0.343868 0.46676
1568 4 0.065822 0.473041 0.482994
1567 2 0.0481926 0.487186 0.475093
2137 2 0.424929 0.493924 0.473011
2139 4 0.40964 0.484343 0.4549
1997 4 0.0812361 0.0295284 0.505634
3774 4 0.0958878 0.0442052 0.506609
3772 2 0.106572 0.0647402 0.517967
3306 4 0.369521 0.068592 0.530965
2964 4 0.397704 0.031685 0.503015
912 4 0.414528 0.0418075 0.509877
910 2 0.43964 0.0449488 0.510509
911 4 0.464751 0.0480901 0.511142
3146 4 0.481957 0.0601991 0.508997
3936 4 0.49085 0.0151296 0.555064
3488 4 0.0571736 0.137041 0.502513
3414 4 0.103628 0.157705 0.546988
3773 4 0.117257 0.0852751 0.529325
1473 4 0.144107 0.151576 0.50097
1471 2 0.162352 0.16375 0.514645
319 2 0.244154 0.121389 0.571501
1097 4 0.277339 0.106806 0.547996
320 4 0.261815 0.118065 0.554462
1096 2 0.299089 0.0981195 0.554168
1098 4 0.32084 0.0894334 0.56034
3305 4 0.332757 0.0961712 0.544312
3304 2 0.351139 0.0823816 0.537639
1146 4 0.415678 0.15626 0.512138
1144 2 0.410415 0.159192 0.536339
1145 4 0.405153 0.162125 0.560541
2777 4 0.460559 0.151021 0.571594
3412 2 0.0902617 0.165548 0.566051
1472 4 0.180597 0.175925 0.528321
3463 2 0.310833 0.214067 0.561992
3465 4 0.293795 0.230375 0.558717
3464 4 0.327871 0.19776 0.565267
503 4 0.34302 0.204129 0.552429
502 2 0.365495 0.203342 0.541664
4581 4 0.422627 0.170111 0.568481
504 4 0.38797 0.202554 0.530899
3131 4 0.397643 0.219621 0.53645
3130 2 0.42049 0.227598 0.545131
3132 4 0.443338 0.235574 0.553812
2231 4 0.44414 0.223385 0.569822
2776 2 0.472217 0.174057 0.57425
2778 4 0.483874 0.197092 0.576907
2700 4 0.493979 0.206015 0.562158
3038 4 0.00304058 0.275137 0.560663
2376 4 0.0178813 0.304856 0.502337
2374 2 0.0367994 0.323105 0.502274
2105 4 0.104662 0.275259 0.526777
1820 4 0.106361 0.291199 0.516335
2104 2 0.10022 0.275469 0.551378
2106 4 0.0957779 0.275679 0.57598
3140 4 0.113123 0.273463 0.583431
1819 2 0.0868106 0.292449 0.500955
508 2 0.168269 0.32631 0.510126
3501 4 0.24112 0.324961 0.499173
732 4 0.296529 0.249361 0.562786
2991 4 0.389691 0.32796 0.518261
2989 2 0.413403 0.328381 0.526306
2990 4 0.437115 0.328803 0.534352
928 2 0.0132551 0.374093 0.511924
929 4 0.0375514 0.381212 0.507647
980 4 0.0585051 0.353695 0.517888
2375 4 0.0557175 0.341353 0.502211
979 2 0.0802542 0.368038 0.515282
981 4 0.102003 0.38238 0.512676
3023 4 0.121188 0.384176 0.50587
510 4 0.188861 0.336757 0.5217
3500 4 0.205483 0.350449 0.518998
1041 4 0.168587 0.415257 0.54849
3499 2 0.223301 0.337705 0.509085
3177 4 0.25486 0.375685 0.549846
3175 2 0.237374 0.377927 0.567354
558 4 0.262938 0.392036 0.559001
556 2 0.283617 0.403493 0.548402
557 4 0.304297 0.41495 0.537802
3497 4 0.105345 0.428798 0.565767
1040 4 0.121025 0.417168 0.563212
1039 2 0.144806 0.416212 0.555851
3496 2 0.0911408 0.420791 0.585297
3701 4 0.187715 0.417882 0.554969
3700 2 0.206566 0.433334 0.545646
3702 4 0.225416 0.448787 0.536322
2927 4 0.242839 0.462365 0.539184
2926 2 0.262901 0.477609 0.546194
2928 4 0.282964 0.492853 0.553204
3682 2 0.317009 0.495435 0.557639
3684 4 0.338805 0.487199 0.55088
3696 4 0.32246 0.424587 0.538846
3694 2 0.333153 0.448151 0.539512
3695 4 0.343846 0.471714 0.540178
2801 4 0.416262 0.426667 0.536644
2800 2 0.435405 0.440919 0.526244
2802 4 0.454548 0.45517 0.515843
1227 4 0.467557 0.464576 0.527733
1225 2 0.490776 0.468458 0.518303
4163 4 0.152426 0.0479178 0.663133
3869 4 0.147225 0.0339879 0.647734
3868 2 0.136255 0.0461396 0.629594
3870 4 0.125285 0.0582913 0.611454
2144 4 0.193554 0.0235895 0.65038
342 4 0.206685 0.0146945 0.638229
340 2 0.214179 0.0311537 0.620338
341 4 0.221673 0.0476128 0.602448
3826 2 0.339456 0.0439701 0.656048
3827 4 0.326099 0.0224556 0.66211
3828 4 0.352813 0.0654846 0.649985
347 4 0.367004 0.0734675 0.637399
2241 4 0.0337066 0.143754 0.636808
2568 4 0.0838537 0.136759 0.625144
2566 2 0.102549 0.125451 0.614934
2567 4 0.121245 0.114143 0.604725
2078 4 0.183693 0.0887882 0.619487
879 4 0.184325 0.10513 0.632279
877 2 0.187453 0.118382 0.653405
321 4 0.226492 0.124712 0.588541
2079 4 0.217215 0.10662 0.585203
2077 2 0.200454 0.0977042 0.602345
346 2 0.37925 0.0891707 0.621132
348 4 0.391496 0.104874 0.604865
3308 4 0.409921 0.108547 0.595896
3307 2 0.429667 0.125082 0.590948
3309 4 0.449412 0.141616 0.586
2239 2 0.0429921 0.167174 0.631469
2240 4 0.0522776 0.190593 0.62613
3413 4 0.0768952 0.173392 0.585115
4420 2 0.240962 0.250525 0.617213
4421 4 0.219886 0.242324 0.629363
4345 2 0.39636 0.174701 0.648588
4580 4 0.414836 0.190985 0.612837
4579 2 0.418732 0.180548 0.590659
4346 4 0.406306 0.178901 0.625855
2230 2 0.452146 0.230614 0.592624
2232 4 0.460151 0.237842 0.615425
1078 2 0.00496001 0.330706 0.615505
3157 2 0.0956499 0.30774 0.653431
3159 4 0.0990233 0.284031 0.647944
3141 4 0.096227 0.286003 0.628308
3139 2 0.104675 0.279733 0.605869
3158 4 0.0922766 0.331448 0.658917
730 2 0.289175 0.256675 0.585287
4422 4 0.262039 0.258727 0.605062
731 4 0.28182 0.26399 0.607788
1017 4 0.330238 0.328365 0.626622
4111 2 0.440561 0.323513 0.663959
1079 4 0.0266383 0.336857 0.603517
3026 4 0.0406985 0.341443 0.618353
3025 2 0.0613019 0.341528 0.632531
3027 4 0.0819054 0.341613 0.646709
3498 4 0.0769362 0.412784 0.604826
2157 4 0.0846705 0.418428 0.622728
3176 4 0.219888 0.380168 0.584862
944 4 0.217141 0.371536 0.603423
943 2 0.222118 0.374406 0.627815
945 4 0.227095 0.377277 0.652206
3183 4 0.244568 0.38023 0.662243
1015 2 0.354885 0.335567 0.625701
1016 4 0.379532 0.342768 0.624781
3536 4 0.391842 0.360268 0.620941
3535 2 0.415983 0.358283 0.626314
3537 4 0.440123 0.356298 0.631688
4112 4 0.442609 0.343019 0.648318
10 3 0.0213458 0.468374 0.643689
7 3 0.0539222 0.457552 0.655642
6 1 0.038348 0.472647 0.658711
9 3 0.0487599 0.494088 0.655493
2324 4 0.0127593 0.449661 0.646113
2155 2 0.10467 0.419964 0.637859
2156 4 0.124669 0.4215 0.65299
888 4 0.140658 0.48022 0.656117
1167 4 0.137267 0.426042 0.637696
3738 4 0.15471 0.489361 0.645048
1166 4 0.184196 0.431653 0.619825
1165 2 0.160732 0.428847 0.628761
2684 4 0.200006 0.421446 0.621368
3736 2 0.177874 0.495145 0.636014
2683 2 0.222953 0.433835 0.622085
2215 2 0.243073 0.491599 0.630143
2685 4 0.245899 0.446224 0.622801
2217 4 0.264749 0.481302 0.628254
903 4 0.262469 0.444724 0.611241
4536 4 0.277461 0.497842 0.625967
901 2 0.286529 0.454262 0.610676
902 4 0.310589 0.463801 0.610111
1325 4 0.331459 0.465195 0.616496
1324 2 0.356585 0.467903 0.616208
1326 4 0.38171 0.470611 0.615919
2310 4 0.392123 0.45398 0.620315
2308 2 0.41475 0.453042 0.609919
2309 4 0.437376 0.452103 0.599523
4061 4 0.448608 0.50042 0.657074
2143 2 0.177486 0.0158257 0.668576
4164 4 0.1367 0.0628929 0.707628
4162 2 0.144563 0.0554054 0.68538
636 4 0.146278 0.0581731 0.723815
634 2 0.153217 0.0633361 0.747421
2145 4 0.161419 0.00806179 0.686773
3315 4 0.310541 0.0329695 0.670199
3313 2 0.289359 0.0177391 0.672799
769 2 0.339944 0.0492494 0.730099
771 4 0.32617 0.0406483 0.749706
3314 4 0.268177 0.00250874 0.675399
770 4 0.353719 0.0578504 0.710492
3002 4 0.39261 0.0454927 0.696283
3001 2 0.413612 0.0378538 0.686635
3003 4 0.434613 0.0302148 0.676986
878 4 0.19058 0.131634 0.674532
3458 4 0.209556 0.129512 0.681011
3457 2 0.230524 0.138023 0.69318
3459 4 0.251491 0.146534 0.705349
2906 4 0.268269 0.15697 0.698088
2905 2 0.292218 0.152044 0.699971
2907 4 0.316168 0.147119 0.701854
3143 4 0.333248 0.155193 0.694387
3142 2 0.356845 0.153186 0.686984
3144 4 0.380442 0.151179 0.679581
4347 4 0.386414 0.170501 0.671322
2626 2 0.422633 0.240007 0.742945
2627 4 0.444171 0.242335 0.730066
2628 4 0.401096 0.237678 0.755824
2153 4 0.0161042 0.323017 0.721659
2152 2 0.0288781 0.303281 0.717395
2154 4 0.0416521 0.283546 0.71313
3263 4 0.0577253 0.296609 0.706
3262 2 0.0790494 0.285559 0.706048
3264 4 0.100374 0.274509 0.706096
3103 2 0.281692 0.285399 0.731051
3104 4 0.262495 0.283235 0.747184
3105 4 0.300889 0.287563 0.714919
3380 4 0.315604 0.278805 0.722451
3379 2 0.339858 0.278408 0.716552
3381 4 0.364113 0.278012 0.710652
992 4 0.379713 0.28474 0.69966
991 2 0.40115 0.28845 0.686711
4113 4 0.438512 0.304006 0.679601
993 4 0.422587 0.292159 0.673762
3477 4 0.459028 0.254917 0.71915
3475 2 0.471313 0.274975 0.708325
3476 4 0.483599 0.295034 0.697501
2036 4 0.0206405 0.337215 0.707095
2035 2 0.00492053 0.349755 0.693685
536 4 0.0540344 0.387684 0.706083
535 2 0.0769725 0.382094 0.712549
537 4 0.0999106 0.376504 0.719015
3093 4 0.112698 0.373426 0.704661
3091 2 0.131736 0.36522 0.717448
3092 4 0.150774 0.357015 0.730235
2034 4 0.167468 0.365664 0.720004
2032 2 0.192013 0.373127 0.71825
2033 4 0.216559 0.38059 0.716495
3182 4 0.235752 0.385959 0.711025
3181 2 0.24016 0.383094 0.686634
3642 4 0.44621 0.370904 0.717554
1214 4 0.458222 0.386535 0.709641
3640 2 0.456745 0.35521 0.732798
3641 4 0.46728 0.339517 0.748043
1213 2 0.478292 0.402296 0.703748
1215 4 0.498362 0.418058 0.697855
4413 4 0.0605725 0.434946 0.718372
4411 2 0.0427586 0.447595 0.708313
4412 4 0.0249447 0.460243 0.698253
8 3 0.02998 0.470461 0.680326
4483 2 0.137845 0.456797 0.714684
4485 4 0.117876 0.44093 0.720643
886 2 0.13567 0.49626 0.67413
4484 4 0.157814 0.472664 0.708725
4348 2 0.193771 0.47246 0.717285
4349 4 0.17122 0.459889 0.713575
4350 4 0.216321 0.485031 0.720995
1155 4 0.261479 0.463004 0.742608
1153 2 0.285386 0.458205 0.745337
1154 4 0.309293 0.453406 0.748065
4060 2 0.429125 0.497013 0.672794
4062 4 0.409641 0.493606 0.688515
635 4 0.160157 0.0684991 0.771028
2091 4 0.167251 0.0553237 0.784156
2089 2 0.182337 0.0513031 0.803369
2182 2 0.205292 0.0025777 0.781259
2090 4 0.197423 0.0472824 0.822581
1004 4 0.21579 0.0494041 0.813341
2183 4 0.218797 0.0162993 0.764239
1003 2 0.237782 0.0453803 0.823708
1005 4 0.259775 0.0413564 0.834074
1305 4 0.336245 0.0528292 0.814148
2564 4 0.285143 0.0141206 0.784699
2563 2 0.304597 0.0254862 0.797367
2565 4 0.32405 0.0368518 0.810036
1303 2 0.336194 0.0771864 0.809075
2688 4 0.363618 0.0296623 0.825586
4336 2 0.366032 0.00366269 0.794954
4337 4 0.358134 0.0240729 0.805433
448 2 0.453431 0.0110134 0.832603
3373 2 0.0215928 0.166715 0.823927
1092 4 0.261167 0.104485 0.827739
1304 4 0.336144 0.101544 0.804001
3411 4 0.343106 0.151034 0.803979
2723 4 0.35315 0.114969 0.800357
3409 2 0.325779 0.163387 0.815294
2722 2 0.366648 0.134617 0.790055
2724 4 0.380146 0.154265 0.779753
2199 4 0.43735 0.147128 0.772968
4221 4 0.427516 0.114089 0.835627
1944 4 0.367658 0.167294 0.826793
3416 4 0.409667 0.107353 0.828062
2197 2 0.453103 0.139598 0.790173
2198 4 0.468856 0.132067 0.807379
1259 4 0.483877 0.13241 0.820846
1258 2 0.501227 0.123441 0.806295
3374 4 0.0380788 0.181195 0.810165
1235 4 0.0483191 0.192965 0.795851
1234 2 0.0641547 0.212723 0.789315
1236 4 0.0799903 0.232481 0.782779
471 4 0.0903939 0.228133 0.765357
469 2 0.115473 0.229522 0.764236
470 4 0.140551 0.230911 0.763114
3032 4 0.142736 0.233258 0.819106
3386 4 0.159885 0.236479 0.757575
3385 2 0.184756 0.239489 0.761103
3387 4 0.209627 0.242498 0.76463
1422 4 0.215506 0.20744 0.826749
2987 4 0.270196 0.241432 0.805935
1230 4 0.272424 0.224869 0.816538
1228 2 0.288625 0.207522 0.814933
3410 4 0.308451 0.175739 0.826608
1229 4 0.304825 0.190175 0.813328
3357 4 0.419728 0.212775 0.794891
3355 2 0.432457 0.195149 0.805115
3356 4 0.445186 0.177524 0.815338
779 4 0.463567 0.17776 0.824698
778 2 0.488111 0.1851 0.826797
4091 4 0.0311245 0.303496 0.789327
1280 4 0.0122645 0.296048 0.788934
4090 2 0.0551596 0.30907 0.795878
4092 4 0.0791947 0.314644 0.802429
2760 4 0.100189 0.263544 0.790252
2758 2 0.116169 0.282512 0.782063
2759 4 0.132148 0.301481 0.773873
1613 4 0.0987534 0.325314 0.805955
1612 2 0.122462 0.334547 0.810512
3825 4 0.145888 0.295995 0.762337
3823 2 0.16283 0.315501 0.766807
2570 4 0.19006 0.311844 0.831146
3824 4 0.179772 0.335007 0.771277
2569 2 0.209017 0.301512 0.820245
2571 4 0.227974 0.29118 0.809345
2048 4 0.246385 0.288998 0.802417
2047 2 0.257543 0.294747 0.780505
2986 2 0.261675 0.257115 0.822591
2049 4 0.2687 0.300496 0.758593
842 4 0.339716 0.303636 0.769641