ITEM: TIMESTEP
2761000
ITEM: NUMBER OF ATOMS
4590
ITEM: BOX BOUNDS xy xz yz pp pp pp
-9.9985700000000008e+00 9.9985700000000008e+00 0.0000000000000000e+00
-9.9985700000000008e+00 9.9985700000000008e+00 0.0000000000000000e+00
-9.9985700000000008e+00 9.9985700000000008e+00 0.0000000000000000e+00
ITEM: ATOMS id type xs ys zs
4159 2 0.0143223 0.0370321 0.0106882
4161 4 0.0321998 0.0540785 0.0145614
1373 4 0.0414985 0.0611963 0.0940263
2337 4 0.0451641 0.03964 0.00945316
2335 2 0.0694807 0.0338267 0.00915725
2336 4 0.0937972 0.0280134 0.00886134
354 4 0.281571 0.129503 0.0749214
21 1 0.314414 0.13396 0.0718626
23 3 0.313197 0.131565 0.0488151
2894 4 0.330091 0.130516 0.0375912
22 3 0.315677 0.113088 0.0814504
25 3 0.332965 0.145923 0.0774634
2893 2 0.346616 0.141159 0.022136
2895 4 0.36314 0.151802 0.00668075
3347 4 0.381459 0.15065 0.0135831
2889 4 0.419637 0.0850732 0.0397064
2887 2 0.440861 0.0982908 0.0395802
2888 4 0.462085 0.111508 0.0394541
2783 4 0.473452 0.127398 0.0340012
2782 2 0.497864 0.13192 0.0310331
278 4 0.0613985 0.235624 0.00227634
277 2 0.0778996 0.226874 0.0188998
279 4 0.0944007 0.218125 0.0355233
4470 4 0.110732 0.223799 0.0243547
4468 2 0.134014 0.22405 0.03347
4469 4 0.157296 0.2243 0.0425852
915 4 0.416933 0.234664 0.0821715
2726 4 0.0421891 0.296441 0.0343893
2725 2 0.0478359 0.317482 0.0221192
2876 4 0.235715 0.269743 0.0668446
3197 4 0.190161 0.282059 0.0265661
3196 2 0.205625 0.270501 0.0424552
933 4 0.195502 0.298287 0.0162487
3198 4 0.221089 0.258942 0.0583443
2875 2 0.259449 0.267427 0.0593234
2877 4 0.283183 0.265112 0.0518021
102 3 0.492973 0.253257 0.034576
2760 4 0.436393 0.31721 0.0805034
2758 2 0.452942 0.316762 0.0617661
103 3 0.48018 0.288291 0.0392207
2759 4 0.469492 0.316314 0.0430288
101 1 0.483431 0.267806 0.049623
2835 4 0.478453 0.30539 0.0295006
104 3 0.463063 0.259127 0.0565666
2833 2 0.479737 0.305525 0.00453019
2727 4 0.0534827 0.338524 0.00984913
3230 4 0.0178066 0.401779 0.0755224
2906 4 0.999387 0.402838 0.0695827
3543 4 0.451939 0.392277 0.0442025
3541 2 0.456616 0.410962 0.0282598
1466 4 0.45601 0.373774 0.053566
1465 2 0.476382 0.373965 0.068063
1467 4 0.496753 0.374157 0.08256
1567 2 0.210072 0.496996 0.0613373
1569 4 0.18789 0.497563 0.0498123
1568 4 0.232254 0.496429 0.0728623
242 4 0.313056 0.454891 0.0507847
241 2 0.326556 0.474546 0.0432635
3542 4 0.461293 0.429647 0.0123171
1551 4 0.482128 0.432217 0.014159
1372 2 0.065325 0.0648838 0.100652
1541 4 0.0145013 0.0267702 0.133851
2465 4 0.0237554 0.0665411 0.0865531
1540 2 0.0388398 0.021136 0.13282
1542 4 0.0631783 0.0155019 0.13179
1873 2 0.018252 0.0624718 0.166667
2464 2 0.00276771 0.055088 0.079237
1374 4 0.0891515 0.0685713 0.107278
582 4 0.0983361 0.072701 0.0904927
580 2 0.11996 0.0601832 0.0914305
581 4 0.141584 0.0476655 0.0923682
331 2 0.146879 0.0775886 0.161243
2780 4 0.184181 0.0795846 0.150143
2779 2 0.201295 0.0635901 0.141399
2781 4 0.218409 0.0475955 0.132655
2703 4 0.228809 0.0582478 0.118921
2701 2 0.252892 0.0516886 0.12039
2702 4 0.276976 0.0451294 0.12186
1274 4 0.287899 0.0608631 0.116081
1273 2 0.298699 0.0777679 0.101155
332 4 0.166907 0.0906344 0.153901
353 4 0.236162 0.12152 0.0942862
692 4 0.233704 0.106542 0.151663
691 2 0.227607 0.110228 0.127695
693 4 0.22151 0.113915 0.103728
2520 4 0.225765 0.155048 0.147402
2930 4 0.209013 0.144471 0.154013
2929 2 0.188855 0.139903 0.168083
352 2 0.258867 0.125511 0.0846038
24 3 0.295402 0.144689 0.0797271
1275 4 0.309499 0.0946727 0.0862302
810 4 0.352882 0.141415 0.0819884
808 2 0.374408 0.131811 0.0903263
809 4 0.395935 0.122206 0.0986642
2679 4 0.405989 0.132981 0.111702
2677 2 0.427588 0.140147 0.122062
2678 4 0.449187 0.147313 0.132423
506 4 0.464643 0.135703 0.138694
505 2 0.483045 0.146351 0.151853
2614 2 0.0306871 0.180193 0.122585
2615 4 0.00995264 0.181231 0.13652
2616 4 0.0514215 0.179156 0.10865
2517 4 0.0686061 0.174955 0.116975
2515 2 0.0879163 0.187926 0.126143
2516 4 0.107226 0.200897 0.135311
387 4 0.124981 0.206793 0.127652
385 2 0.147295 0.206299 0.11638
386 4 0.169608 0.205806 0.105108
743 4 0.183687 0.218364 0.10457
742 2 0.207895 0.217278 0.110732
744 4 0.232103 0.216192 0.116895
2518 2 0.249182 0.163515 0.145128
522 4 0.29089 0.177836 0.149236
2519 4 0.272599 0.171982 0.142854
2600 4 0.251135 0.22447 0.116294
2599 2 0.275732 0.221369 0.113046
2601 4 0.300329 0.218268 0.109798
450 4 0.317183 0.226771 0.117345
520 2 0.315567 0.179591 0.14561
448 2 0.341633 0.227286 0.112137
521 4 0.340245 0.181346 0.141985
624 4 0.356492 0.181973 0.131252
914 4 0.367553 0.228016 0.0864312
449 4 0.366084 0.227801 0.10693
622 2 0.379742 0.184825 0.122507
913 2 0.392243 0.23134 0.0843013
623 4 0.402993 0.187677 0.113762
845 4 0.427785 0.23633 0.0986352
455 4 0.419829 0.196642 0.120712
454 2 0.444736 0.19609 0.122836
456 4 0.469644 0.195538 0.124961
491 4 0.483873 0.207082 0.120784
250 2 0.0180549 0.32588 0.112141
728 4 0.0251128 0.258164 0.142213
251 4 0.0372317 0.330124 0.127614
2538 4 0.0466185 0.259782 0.142107
287 4 0.0532798 0.320925 0.122193
2536 2 0.0712145 0.258851 0.137707
286 2 0.0769941 0.322774 0.129899
2537 4 0.0958105 0.257919 0.133307
2445 4 0.11465 0.252804 0.133356
2443 2 0.138513 0.259599 0.136451
713 4 0.118708 0.322949 0.128782
712 2 0.138754 0.31626 0.142146
2444 4 0.162376 0.266394 0.139546
714 4 0.158801 0.30957 0.155509
288 4 0.100708 0.324623 0.137606
767 4 0.182692 0.264738 0.139151
766 2 0.205584 0.271287 0.131518
768 4 0.228475 0.277836 0.123884
2094 4 0.247168 0.276555 0.129338
2092 2 0.272026 0.279105 0.128495
2861 4 0.272832 0.329466 0.139848
2093 4 0.296885 0.281654 0.127651
528 4 0.310634 0.29097 0.116739
526 2 0.335503 0.289837 0.114407
527 4 0.360372 0.288705 0.112075
2651 4 0.377558 0.294078 0.101355
2650 2 0.398244 0.306944 0.0957197
844 2 0.446652 0.251696 0.104388
2652 4 0.41893 0.319809 0.0900844
2476 2 0.44837 0.256034 0.159939
2477 4 0.460633 0.255957 0.138149
846 4 0.46552 0.267063 0.11014
3229 2 0.0388135 0.412755 0.0834865
610 2 0.186935 0.327086 0.167815
612 4 0.206024 0.342209 0.16215
2799 4 0.216494 0.33585 0.14618
2798 4 0.231169 0.350825 0.100781
2797 2 0.223832 0.343338 0.12348
2860 2 0.289492 0.346142 0.148187
2862 4 0.306153 0.362818 0.156526
3231 4 0.0598205 0.423732 0.0914507
1122 4 0.0732513 0.426485 0.105926
1673 4 0.109698 0.496077 0.100237
2161 2 0.0936983 0.483476 0.140372
1120 2 0.0968734 0.434593 0.104717
1121 4 0.120495 0.442701 0.103508
3552 4 0.141868 0.444146 0.102554
2163 4 0.101665 0.491925 0.118229
3550 2 0.166681 0.445871 0.105106
2162 4 0.0857314 0.475027 0.162515
3551 4 0.191495 0.447596 0.107658
3819 4 0.204569 0.455226 0.120592
1544 4 0.213835 0.492458 0.167398
3817 2 0.225826 0.449522 0.132457
4511 4 0.20085 0.497878 0.152394
3818 4 0.247083 0.443818 0.144322
677 4 0.25631 0.443691 0.126686
676 2 0.2804 0.439604 0.131992
678 4 0.30449 0.435517 0.137297
4005 4 0.307312 0.443488 0.15507
1874 4 0.0404477 0.0517794 0.170933
3677 4 0.0583533 0.0616942 0.168271
3503 4 0.00377685 0.0037301 0.189747
3676 2 0.0830725 0.0637864 0.1714
333 4 0.126852 0.0645428 0.168584
3678 4 0.107792 0.0658787 0.174528
3808 2 0.411193 0.0620746 0.239498
2756 4 0.406609 0.00629279 0.192193
786 4 0.399396 0.00422191 0.210506
3809 4 0.432009 0.0593974 0.225909
2755 2 0.418741 0.0281438 0.191458
606 4 0.443525 0.0747811 0.229988
2757 4 0.430874 0.0499948 0.190723
2738 4 0.474219 0.0270968 0.202432
2737 2 0.48754 0.00606915 0.20479
418 2 0.156826 0.132546 0.217173
419 4 0.157845 0.124655 0.193469
420 4 0.155808 0.140438 0.240877
1566 4 0.238329 0.116349 0.16918
2931 4 0.168696 0.135335 0.182153
1564 2 0.249464 0.128099 0.188237
1565 4 0.2606 0.139849 0.207293
458 4 0.27749 0.144438 0.215821
457 2 0.299452 0.143844 0.227759
459 4 0.321414 0.143249 0.239697
1749 4 0.336034 0.155722 0.238346
1747 2 0.358852 0.155682 0.248571
604 2 0.455274 0.0962484 0.22486
605 4 0.467024 0.117716 0.219732
2880 4 0.473395 0.135246 0.211821
2878 2 0.497331 0.142251 0.213617
1479 4 0.032905 0.179312 0.202957
750 4 0.0182045 0.166093 0.196351
651 4 0.0220534 0.234423 0.20481
3159 4 0.0412025 0.235958 0.198847
3157 2 0.0646748 0.235076 0.207418
1477 2 0.0572342 0.18003 0.197233
1478 4 0.0815633 0.180749 0.191509
649 2 0.00208989 0.2247 0.193316
2778 4 0.098196 0.188438 0.186045
3158 4 0.0881472 0.234194 0.215988
579 4 0.106694 0.24134 0.212418
577 2 0.129612 0.24934 0.218411
2776 2 0.123095 0.187241 0.184101
2777 4 0.147995 0.186044 0.182156
2453 4 0.169239 0.187492 0.185587
535 2 0.17522 0.209165 0.248611
2452 2 0.190249 0.201017 0.186505
537 4 0.198937 0.212074 0.241249
509 4 0.21645 0.216008 0.234364
2454 4 0.211259 0.214541 0.187422
1200 4 0.230293 0.212214 0.182138
236 4 0.168981 0.256079 0.213507
1198 2 0.253001 0.218138 0.190767
1199 4 0.275708 0.224062 0.199396
731 4 0.379579 0.255321 0.210087
730 2 0.402057 0.249031 0.201124
2951 4 0.468782 0.237342 0.23486
2950 2 0.474439 0.230466 0.211496
2952 4 0.480095 0.22359 0.188131
732 4 0.424536 0.242742 0.192161
477 4 0.496857 0.233345 0.180412
611 4 0.167846 0.311964 0.17348
578 4 0.152531 0.257339 0.224405
235 2 0.193903 0.25806 0.213076
2969 4 0.23481 0.272546 0.216805
237 4 0.218825 0.26004 0.212646
2968 2 0.258386 0.273449 0.225086
2970 4 0.281961 0.274353 0.233368
2853 4 0.297238 0.286319 0.240332
2851 2 0.312306 0.288328 0.220479
2852 4 0.327375 0.290336 0.200627
2478 4 0.436108 0.25611 0.181729
3694 2 0.00286317 0.388029 0.233022
3696 4 0.0186135 0.391333 0.213885
3830 4 0.0275828 0.372902 0.211424
3829 2 0.049804 0.380711 0.203032
3831 4 0.0720252 0.388521 0.19464
2592 4 0.3225 0.370876 0.165215
1857 4 0.258925 0.401696 0.219518
2591 4 0.367354 0.391741 0.17254
2590 2 0.344927 0.381309 0.168877
3990 4 0.015388 0.43848 0.247188
3988 2 0.0387765 0.4299 0.245055
3599 4 0.0788623 0.4852 0.178725
3989 4 0.062165 0.42132 0.242922
3598 2 0.0948777 0.475488 0.19529
3600 4 0.110893 0.465775 0.211854
3921 4 0.126118 0.454398 0.219186
3919 2 0.149899 0.458334 0.212543
1677 4 0.138728 0.495427 0.250314
3920 4 0.173681 0.462269 0.2059
1545 4 0.18554 0.48011 0.206739
1543 2 0.199688 0.486284 0.187069
1855 2 0.2788 0.416806 0.21816
1856 4 0.298676 0.431917 0.216802
4004 4 0.308969 0.445671 0.205003
4003 2 0.30814 0.444579 0.180036
1784 4 0.0123153 0.0146096 0.324461
1783 2 0.0162202 0.0205336 0.300485
1611 4 0.0276827 0.0155273 0.261574
1785 4 0.0201251 0.0264576 0.27651
162 3 0.202407 0.0719257 0.306154
164 3 0.169995 0.0758235 0.324782
161 1 0.192865 0.0796644 0.325601
3810 4 0.390376 0.0647519 0.253088
1127 4 0.400469 0.00904342 0.293725
707 4 0.398659 0.0213837 0.30962
530 4 0.123763 0.0884927 0.295551
1704 4 0.123916 0.104791 0.285169
1702 2 0.107207 0.120626 0.275412
1703 4 0.090497 0.136462 0.265655
529 2 0.138642 0.085204 0.315375
257 4 0.142814 0.147565 0.254734
256 2 0.1614 0.15761 0.268107
258 4 0.179987 0.167654 0.28148
515 4 0.197426 0.158543 0.283399
163 3 0.197013 0.102418 0.327455
180 3 0.401527 0.158444 0.259926
1748 4 0.381671 0.155642 0.258796
401 4 0.391598 0.177911 0.319107
178 3 0.43398 0.150513 0.277292
285 4 0.45034 0.152218 0.287321
283 2 0.47424 0.148225 0.281154
284 4 0.49814 0.144232 0.274988
589 2 0.00855283 0.175261 0.291713
591 4 0.0331752 0.177891 0.295179
404 4 0.0465001 0.192608 0.290645
403 2 0.0654073 0.208105 0.285397
536 4 0.151502 0.206255 0.255973
405 4 0.0843145 0.223603 0.280149
30 3 0.104768 0.221225 0.281074
28 3 0.120113 0.249811 0.261968
26 1 0.124344 0.230294 0.273783
29 3 0.135547 0.215122 0.260265
27 3 0.137592 0.235298 0.29191
726 4 0.156621 0.241267 0.294208
724 2 0.181134 0.245649 0.291957
514 2 0.201647 0.172271 0.303866
508 2 0.237784 0.209978 0.245925
516 4 0.205867 0.186 0.324333
510 4 0.259119 0.203949 0.257487
1190 4 0.285737 0.172981 0.307286
1189 2 0.309292 0.18077 0.304168
1191 4 0.332846 0.188558 0.30105
402 4 0.345871 0.172419 0.299624
400 2 0.368735 0.175165 0.309366
176 1 0.421133 0.167188 0.267531
2179 2 0.392908 0.230383 0.318894
2954 4 0.404928 0.191832 0.324064
2181 4 0.400252 0.244226 0.29941
2790 4 0.42067 0.239807 0.292774
179 3 0.416855 0.18396 0.282985
2788 2 0.438862 0.225984 0.282618
177 3 0.432789 0.176166 0.249848
2789 4 0.457054 0.212161 0.272462
2953 2 0.429793 0.189406 0.32306
2672 4 0.466613 0.194688 0.269368
2671 2 0.489636 0.204307 0.267761
2955 4 0.454659 0.186981 0.322056
716 4 0.144809 0.311722 0.269018
715 2 0.133106 0.289636 0.268339
717 4 0.121404 0.26755 0.26766
725 4 0.205647 0.250032 0.289707
1031 4 0.223807 0.249603 0.28461
1030 2 0.24805 0.25454 0.288224
1032 4 0.272294 0.259477 0.291837
1395 4 0.289575 0.255744 0.284288
1393 2 0.311666 0.265883 0.278425
1394 4 0.333758 0.276021 0.272561
2753 4 0.35137 0.286002 0.276501
2556 4 0.40574 0.332046 0.301312
2754 4 0.400779 0.27837 0.275365
2752 2 0.376075 0.282186 0.275933
2554 2 0.39983 0.329524 0.325476
3935 4 0.0759787 0.378672 0.258714
3934 2 0.0835732 0.385517 0.281531
2611 2 0.00861125 0.360488 0.334519
261 4 0.0872864 0.411745 0.310599
3936 4 0.0911678 0.392363 0.304349
375 4 0.185004 0.334958 0.304847
374 4 0.20068 0.332248 0.257439
373 2 0.192842 0.333603 0.281143
339 4 0.421541 0.341894 0.294394
1801 2 0.359611 0.425295 0.315723
669 4 0.399062 0.409762 0.321234
1803 4 0.383684 0.418994 0.313278
3318 4 0.332653 0.354694 0.33066
337 2 0.445374 0.346733 0.288585
338 4 0.469208 0.351572 0.282775
291 4 0.472281 0.370793 0.286586
289 2 0.495873 0.365381 0.280314
2824 2 0.0457576 0.498336 0.260864
1391 4 0.00842338 0.488327 0.253419
2826 4 0.0705613 0.495335 0.261843
1676 4 0.0905005 0.49405 0.263467
1675 2 0.114614 0.494739 0.256891
1187 4 0.283533 0.435524 0.275167
1186 2 0.301491 0.430134 0.291709
1188 4 0.319449 0.424743 0.308251
1802 4 0.335538 0.431597 0.318167
667 2 0.419328 0.418238 0.30929
668 4 0.439594 0.426714 0.297347
1436 4 0.452117 0.438416 0.30579
1435 2 0.477013 0.440366 0.307032
842 4 0.995801 0.028794 0.404924
425 4 0.0117561 0.00183443 0.365855
424 2 0.0353223 0.00993583 0.367901
426 4 0.0588885 0.0180372 0.369948
2645 4 0.0734761 0.0236804 0.357201
2644 2 0.0919752 0.0236826 0.374023
2646 4 0.110474 0.0236847 0.390844
2663 4 0.125749 0.0288252 0.377608
2892 4 0.130768 0.0835373 0.402052
2662 2 0.149832 0.0355482 0.377555
2664 4 0.173916 0.0422713 0.377503
1967 4 0.191362 0.0452701 0.387492
1966 2 0.193838 0.0330859 0.409185
165 3 0.201966 0.0686373 0.343327
722 4 0.215897 0.0816607 0.351056
2871 4 0.185931 0.00134884 0.392643
2502 4 0.276741 0.06079 0.415847
1349 4 0.292496 0.0649055 0.403447
1348 2 0.2886 0.0533324 0.381629
1057 2 0.315176 0.0106739 0.355265
1058 4 0.30027 0.0285731 0.364354
1350 4 0.284703 0.0417592 0.35981
1059 4 0.330082 0.992775 0.346175
706 2 0.394091 0.032168 0.331711
618 4 0.348355 0.0201319 0.40054
3395 4 0.338442 0.00816889 0.413032
708 4 0.389523 0.0429523 0.353803
617 4 0.385659 0.0403192 0.374052
616 2 0.367007 0.0302255 0.387296
2683 2 0.0419855 0.165405 0.409672
635 4 0.149941 0.0898054 0.353201
531 4 0.153521 0.0819153 0.335199
636 4 0.136231 0.102237 0.399657
634 2 0.143086 0.0960212 0.376429
721 2 0.240683 0.08196 0.354342
723 4 0.265468 0.0822592 0.357628
2714 4 0.423259 0.113774 0.400713
2684 4 0.0622111 0.179786 0.40662
765 4 0.0827778 0.183139 0.408516
763 2 0.103808 0.196573 0.410071
764 4 0.124838 0.210008 0.411626
2802 4 0.144123 0.21145 0.405859
2800 2 0.162953 0.206117 0.421422
2483 4 0.220126 0.206373 0.406044
2482 2 0.240088 0.203598 0.391245
2484 4 0.26005 0.200823 0.376446
8 3 0.277888 0.199252 0.368398
9 3 0.282553 0.23693 0.36663
7 3 0.293916 0.217776 0.396906
6 1 0.291786 0.216965 0.374016
10 3 0.312338 0.213982 0.364671
2957 4 0.32827 0.208192 0.376302
3080 4 0.336237 0.215399 0.393302
2956 2 0.349739 0.211256 0.363857
2180 4 0.385564 0.21654 0.338379
2958 4 0.371208 0.21432 0.351413
1952 4 0.473869 0.180812 0.388201
1951 2 0.464769 0.180623 0.364913
1953 4 0.45567 0.180433 0.341624
2699 4 0.0202191 0.249866 0.378487
479 4 0.0391929 0.258467 0.37658
478 2 0.0624364 0.266521 0.372099
480 4 0.0856798 0.274574 0.367618
3462 4 0.0835095 0.311187 0.395696
3460 2 0.107484 0.3162 0.390669
3461 4 0.131458 0.321213 0.385643
411 4 0.135833 0.335845 0.374256
409 2 0.158702 0.325766 0.375059
410 4 0.181571 0.315688 0.375862
1034 4 0.196893 0.312432 0.363942
1033 2 0.217985 0.313524 0.377326
1035 4 0.239077 0.314615 0.39071
585 4 0.256969 0.309719 0.384754
583 2 0.280446 0.302259 0.380471
584 4 0.303923 0.294798 0.376188
893 4 0.31185 0.311109 0.383672
892 2 0.331472 0.321745 0.394943
569 4 0.371125 0.337155 0.402616
2555 4 0.393921 0.327003 0.34964
365 4 0.465407 0.317013 0.425551
2612 4 0.0273461 0.344119 0.332018
593 4 0.131757 0.337641 0.353823
259 2 0.0934494 0.405246 0.333943
260 4 0.0996124 0.398746 0.357288
594 4 0.109752 0.382271 0.348872
592 2 0.120755 0.359956 0.351348
446 4 0.296002 0.405986 0.394649
2561 4 0.293485 0.403888 0.413457
3317 4 0.303705 0.32283 0.356106
3316 2 0.318179 0.338762 0.343383
894 4 0.351094 0.332381 0.406214
568 2 0.395862 0.335797 0.399237
570 4 0.4206 0.33444 0.395858
547 2 0.49588 0.382849 0.36363
549 4 0.481302 0.37098 0.380115
812 4 0.476954 0.373322 0.399852
811 2 0.459811 0.38816 0.410392
1418 4 0.21157 0.508268 0.377159
445 2 0.295429 0.425037 0.378465
447 4 0.294856 0.444088 0.362281
4323 4 0.311182 0.457535 0.364999
4321 2 0.32261 0.478865 0.371294
4322 4 0.334038 0.500196 0.377589
2891 4 0.103311 0.0702839 0.441691
3797 4 0.111229 0.0107048 0.435054
2890 2 0.117039 0.0769106 0.421872
3796 2 0.135984 0.010898 0.438558
3798 4 0.16074 0.0110912 0.442063
1968 4 0.196314 0.0209017 0.430879
1490 4 0.181731 0.0108862 0.441402
220 3 0.19727 0.0315356 0.458873
218 3 0.230992 0.0275271 0.442612
2558 4 0.22077 0.0743916 0.474476
219 3 0.226039 0.0180658 0.479086
216 1 0.219762 0.0327336 0.462238
217 3 0.225349 0.0541369 0.468548
1523 4 0.245127 0.000688313 0.435667
2557 2 0.244699 0.0805019 0.478379
2500 2 0.271008 0.0449148 0.434295
2501 4 0.265276 0.0290396 0.452742
1181 4 0.255831 0.0102153 0.450573
4341 4 0.278719 0.0366621 0.464947
4339 2 0.294602 0.0371406 0.484253
4340 4 0.310484 0.0376191 0.503559
4551 4 0.318879 0.0562862 0.500776
3394 2 0.351385 0.00525755 0.434226
2504 4 0.383037 0.0569841 0.492128
4550 4 0.366561 0.0701157 0.494778
90 3 0.351805 0.997816 0.469592
3396 4 0.364328 0.00234621 0.45542
4549 2 0.34272 0.063201 0.497777
3033 4 0.00248303 0.150172 0.418617
2685 4 0.02176 0.151024 0.412724
3327 4 0.0110041 0.126635 0.475
3325 2 0.031341 0.141121 0.473673
982 2 0.087587 0.156238 0.472787
3326 4 0.0516779 0.155608 0.472346
2580 4 0.098297 0.079281 0.458924
2579 4 0.0944118 0.127816 0.470325
2578 2 0.0963544 0.103549 0.464624
983 4 0.108693 0.14285 0.472114
2559 4 0.268629 0.0866121 0.482282
1061 4 0.287371 0.0911147 0.489442
1060 2 0.30498 0.10886 0.488982
1062 4 0.32259 0.126605 0.488521
2713 2 0.407105 0.120062 0.418731
683 4 0.340764 0.123802 0.478755
2715 4 0.39095 0.126351 0.43675
682 2 0.362431 0.126863 0.466656
684 4 0.384098 0.129924 0.454558
984 4 0.0664812 0.169627 0.473461
320 4 0.155509 0.182245 0.466152
319 2 0.155938 0.176861 0.490565
2801 4 0.181783 0.200784 0.436984
938 4 0.19927 0.191759 0.435881
937 2 0.222835 0.192786 0.444176
939 4 0.2464 0.193812 0.45247
3079 2 0.327622 0.212575 0.416605
642 4 0.26399 0.188603 0.459931
640 2 0.288444 0.193531 0.458222
641 4 0.312897 0.19846 0.456513
3081 4 0.319006 0.20975 0.439907
2817 4 0.467133 0.212341 0.40656
2815 2 0.486762 0.201018 0.417128
1238 4 0.19161 0.30538 0.500049
663 4 0.198362 0.309045 0.482338
2527 2 0.327333 0.268057 0.429125
2529 4 0.305942 0.255336 0.431528
2528 4 0.348725 0.280778 0.426721
2496 4 0.366529 0.281419 0.41765
3498 4 0.352107 0.259542 0.473796
2494 2 0.387992 0.284687 0.430054
3496 2 0.375686 0.264955 0.480113
2495 4 0.409456 0.287955 0.442457
3497 4 0.399266 0.270367 0.48643
366 4 0.428013 0.285653 0.436459
364 2 0.44671 0.301333 0.431005
3056 4 0.476412 0.318247 0.442922
3055 2 0.491965 0.328707 0.459471
1452 4 0.112702 0.408705 0.450408
1450 2 0.135371 0.403152 0.459377
310 2 0.117022 0.348091 0.487927
312 4 0.122051 0.367702 0.473253
1451 4 0.158041 0.397599 0.468346
3455 4 0.208304 0.403826 0.417294
3454 2 0.210522 0.387105 0.435751
661 2 0.20094 0.330898 0.470464
662 4 0.203518 0.35275 0.458589
3456 4 0.212741 0.370384 0.454209
2847 4 0.171775 0.38449 0.479942
2845 2 0.186473 0.387107 0.5
2560 2 0.311774 0.390257 0.423699
2562 4 0.330062 0.376626 0.433941
348 4 0.337082 0.383019 0.452447
346 2 0.357674 0.396829 0.455674
3594 4 0.385927 0.358444 0.496236
267 4 0.398199 0.411145 0.462897
3592 2 0.404842 0.371372 0.486223
3057 4 0.507518 0.339167 0.47602
813 4 0.442668 0.402999 0.420932
3593 4 0.423758 0.3843 0.476211
4044 4 0.441067 0.38488 0.465574
4042 2 0.464014 0.385929 0.475451
4043 4 0.486961 0.386978 0.485328
1171 2 0.0294388 0.466914 0.434711
1172 4 0.0415679 0.462036 0.456025
1173 4 0.0173097 0.471792 0.413397
560 4 0.0945874 0.416782 0.446064
561 4 0.102669 0.462337 0.427085
559 2 0.098628 0.439559 0.436575
3423 4 0.135489 0.498914 0.470254
3421 2 0.118509 0.488101 0.455424
3422 4 0.101529 0.477287 0.440594
3857 4 0.154744 0.502323 0.473486
2927 4 0.162275 0.417817 0.467363
3856 2 0.179266 0.499179 0.469754
2926 2 0.177873 0.437133 0.470327
2928 4 0.193471 0.45645 0.473292
2648 4 0.212993 0.450621 0.471197
2647 2 0.235732 0.459048 0.477289
1981 2 0.290186 0.500747 0.451314
2649 4 0.258471 0.467475 0.483382
1983 4 0.313509 0.493261 0.456333
1982 4 0.266864 0.508234 0.446295
4057 2 0.36816 0.457751 0.454668
1443 4 0.357117 0.462311 0.489961
4059 4 0.352788 0.45202 0.473538
347 4 0.378267 0.41064 0.458902
4058 4 0.383531 0.463482 0.435799
1644 4 0.396609 0.478998 0.439264
1642 2 0.411512 0.497264 0.447596
266 4 0.438451 0.417988 0.434023
265 2 0.418325 0.414567 0.44846
4251 4 0.493532 0.403982 0.479179
2960 4 0.398947 0.47171 0.479226
2314 2 0.0375315 0.0815177 0.583042
2315 4 0.0620631 0.0835581 0.587424
2196 4 0.0735311 0.0703063 0.577897
2194 2 0.0967131 0.0671721 0.569067
2195 4 0.119895 0.064038 0.560238
2553 4 0.129657 0.080486 0.556268
3021 4 0.260927 0.0867133 0.548518
1141 2 0.361909 0.0297449 0.538963
1143 4 0.373187 0.0399461 0.558811
1142 4 0.350632 0.0195437 0.519115
88 3 0.34629 0.0199628 0.499539
2503 2 0.406576 0.0602441 0.499906
574 2 0.408632 0.00461706 0.525107
575 4 0.388936 0.995652 0.512581
2505 4 0.430114 0.0635041 0.507684
3620 4 0.484158 0.00812831 0.514923
576 4 0.428328 0.0135821 0.537632
3621 4 0.444151 0.00231706 0.544357
3619 2 0.464154 0.00522268 0.52964
2320 2 0.0521595 0.156029 0.553647
2321 4 0.0637964 0.155324 0.531528
2322 4 0.0405225 0.156734 0.575766
2551 2 0.154008 0.0859212 0.557914
3237 4 0.0836306 0.15907 0.531206
321 4 0.156367 0.171477 0.514979
2552 4 0.178358 0.0913564 0.559561
1282 2 0.193489 0.164981 0.52953
762 4 0.194265 0.0950995 0.548335
1283 4 0.172557 0.160144 0.516736
760 2 0.218972 0.0936991 0.551909
761 4 0.243679 0.0922987 0.555484
2317 2 0.278632 0.144884 0.549883
2319 4 0.267532 0.147148 0.527594
3019 2 0.28394 0.0875785 0.558257
3020 4 0.306952 0.0884438 0.567996
1107 4 0.3231 0.0993544 0.558944
2318 4 0.289732 0.14262 0.572173
1105 2 0.347826 0.10303 0.558394
1106 4 0.372552 0.106706 0.557844
3387 4 0.388486 0.11225 0.567587
3385 2 0.413238 0.113979 0.564502
3386 4 0.43799 0.115709 0.561417
2243 4 0.455647 0.113045 0.57191
2242 2 0.480168 0.108155 0.571779
3235 2 0.0941945 0.181041 0.525651
3236 4 0.104758 0.203012 0.520096
1284 4 0.21442 0.169818 0.542324
2603 4 0.222614 0.185592 0.549164
2602 2 0.238953 0.186135 0.568083
3419 4 0.0460868 0.285351 0.564449
3418 2 0.0662738 0.297208 0.555667
83 3 0.103315 0.310267 0.573233
3420 4 0.0864608 0.309065 0.546886
890 4 0.10422 0.314439 0.553362
889 2 0.125673 0.311975 0.540757
891 4 0.147126 0.309511 0.528152
1239 4 0.161765 0.31768 0.538244
1237 2 0.176688 0.31153 0.519146
2548 2 0.116928 0.415803 0.523906
2549 4 0.135112 0.401957 0.513766
311 4 0.111992 0.328481 0.502601
3044 4 0.221894 0.39205 0.518119
3043 2 0.245624 0.395417 0.510995
2846 4 0.20117 0.389724 0.520058
3045 4 0.269354 0.398785 0.503872
1641 4 0.289852 0.404926 0.50138
1639 2 0.31316 0.403484 0.510315
1640 4 0.336469 0.402041 0.51925
1911 4 0.35245 0.413407 0.512343
1909 2 0.376591 0.41451 0.518762
3962 4 0.0868592 0.487594 0.588547
2550 4 0.0987437 0.42965 0.534046
4177 2 0.0918535 0.451889 0.563259
4178 4 0.0918764 0.429463 0.552202
4179 4 0.0918307 0.474315 0.574316
1446 4 0.161019 0.457739 0.56365
1444 2 0.181835 0.451606 0.576069
215 3 0.226163 0.425658 0.549373
211 1 0.235185 0.440943 0.563642
213 3 0.220311 0.445428 0.580878
214 3 0.240162 0.460498 0.552185
1488 4 0.252732 0.470927 0.502878
1486 2 0.269439 0.481135 0.518429
212 3 0.254588 0.432425 0.572592
325 2 0.321337 0.49487 0.546957
1487 4 0.286147 0.491343 0.533981
326 4 0.344438 0.485607 0.549347
1441 2 0.356971 0.468155 0.514272
1442 4 0.356826 0.473999 0.538583
1910 4 0.400731 0.415613 0.525181
2961 4 0.421778 0.479225 0.523077
2959 2 0.410362 0.475467 0.501151
3453 4 0.419956 0.422607 0.528985
3451 2 0.443569 0.430816 0.529412
3452 4 0.467183 0.439026 0.529839
1698 4 0.486122 0.442369 0.525062
3309 4 0.179771 0.0307338 0.616758
4284 4 0.19071 0.0326144 0.633265
4282 2 0.191398 0.0299578 0.658117
3307 2 0.20172 0.0251355 0.60617
3308 4 0.223668 0.0195373 0.595582
3049 2 0.28301 0.057407 0.611512
3051 4 0.283881 0.0324435 0.610387
2507 4 0.302218 0.0277272 0.614843
2506 2 0.307234 0.0133411 0.634669
2282 4 0.395431 0.0691217 0.638083
2281 2 0.419795 0.063999 0.635771
3083 4 0.38176 0.0646052 0.652172
2283 4 0.444158 0.0588763 0.633459
2979 4 0.45228 0.0754974 0.644033
2977 2 0.473836 0.0711175 0.655922
2316 4 0.0129998 0.0794774 0.57866
3300 4 0.01582 0.126959 0.648415
3360 4 0.0334207 0.122966 0.65637
965 4 0.0425281 0.157657 0.596206
3358 2 0.057771 0.117598 0.654521
3298 2 0.998399 0.135635 0.664112
3359 4 0.0821212 0.112229 0.652673
4370 4 0.10212 0.1107 0.647306
4369 2 0.125795 0.106968 0.65443
3062 4 0.196279 0.128564 0.63147
3002 4 0.18459 0.143737 0.633987
3061 2 0.217222 0.133006 0.618553
3063 4 0.238165 0.137448 0.605636
3125 4 0.250439 0.141009 0.589719
3001 2 0.167331 0.15838 0.623363
3124 2 0.267811 0.150278 0.60513
3126 4 0.285184 0.159547 0.620541
3050 4 0.282139 0.0823705 0.612637
3007 2 0.279484 0.136358 0.658658
270 4 0.298104 0.087834 0.62359
268 2 0.314404 0.0906845 0.642334
3008 4 0.280658 0.147246 0.63618
269 4 0.330704 0.0935351 0.661079
3084 4 0.349794 0.100937 0.664772
3082 2 0.365777 0.0827712 0.658472
964 2 0.0600842 0.163815 0.612911
966 4 0.0776403 0.169972 0.629616
2175 4 0.0880162 0.183242 0.617758
2173 2 0.111918 0.183124 0.610418
2174 4 0.135819 0.183006 0.603077
3003 4 0.150071 0.173023 0.612738
2604 4 0.255291 0.186677 0.587002
3238 2 0.032836 0.269793 0.648768
3239 4 0.00907183 0.269514 0.640998
3240 4 0.0566001 0.270072 0.656539
904 2 0.0573106 0.320249 0.631417
3093 4 0.077964 0.271126 0.655893
906 4 0.0682403 0.307465 0.612916
84 3 0.087862 0.307402 0.607836
960 4 0.003443 0.268504 0.621366
82 3 0.121291 0.323962 0.603265
81 1 0.100594 0.320746 0.593756
3091 2 0.101664 0.264322 0.660041
3092 4 0.125364 0.257519 0.664188
3434 4 0.192039 0.257026 0.658666
905 4 0.046381 0.333032 0.649918
3445 2 0.00239647 0.369747 0.601315
3447 4 0.0259914 0.377627 0.603839
2721 4 0.0463045 0.37464 0.606357
2719 2 0.0700733 0.38215 0.604394
3220 2 0.125148 0.389638 0.590081
3222 4 0.147392 0.378219 0.590147
3491 4 0.165542 0.370641 0.594393
85 3 0.0904381 0.340927 0.590891
3221 4 0.102905 0.401058 0.590014
2720 4 0.0938422 0.38966 0.602432
3490 2 0.190024 0.365805 0.595942
3492 4 0.214507 0.36097 0.597491
3379 2 0.284395 0.336727 0.663576
3381 4 0.30484 0.342948 0.650596
1040 4 0.313789 0.341916 0.632786
1041 4 0.360101 0.325301 0.641723
998 4 0.37936 0.323786 0.650105
1039 2 0.336945 0.333608 0.637254
1445 4 0.202651 0.445472 0.588489
3120 4 0.200875 0.460159 0.668549
3118 2 0.225793 0.460887 0.666616
1204 2 0.289146 0.476146 0.653356
1206 4 0.269321 0.461425 0.657288
1205 4 0.308971 0.490866 0.649425
879 4 0.406879 0.479384 0.613363
877 2 0.430746 0.486756 0.614475
878 4 0.454613 0.494127 0.615587
1280 4 0.4616 0.491503 0.597403
1279 2 0.484286 0.498773 0.589808
3132 4 0.00365917 0.0405101 0.703495
1083 4 0.0215842 0.0496048 0.699984
1081 2 0.0456769 0.053549 0.705385
1082 4 0.0697697 0.0574933 0.710786
1023 4 0.0882476 0.0645834 0.712979
1021 2 0.112521 0.0685879 0.708513
1022 4 0.136795 0.0725924 0.704047
2256 4 0.15559 0.0782785 0.697509
1036 2 0.227536 0.00480103 0.69512
4283 4 0.192087 0.0273011 0.68297
2254 2 0.17819 0.0857039 0.689811
2255 4 0.20079 0.0931293 0.682112
1038 4 0.204905 0.0151395 0.692645
2133 4 0.28582 0.00704976 0.745307
4386 4 0.2777 0.0236353 0.738623
2978 4 0.495392 0.0667376 0.66781
3294 4 0.0486013 0.119799 0.715825
3292 2 0.0712902 0.130306 0.71569
3293 4 0.0939791 0.140812 0.715556
954 4 0.104169 0.141679 0.69831
952 2 0.128131 0.146447 0.703628
4371 4 0.14947 0.103236 0.661555
953 4 0.152092 0.151215 0.708946
1077 4 0.163675 0.136327 0.714188
1075 2 0.184693 0.137387 0.727691
1076 4 0.205711 0.138447 0.741193
3146 4 0.216479 0.122754 0.738068
3145 2 0.240989 0.12179 0.742924
1004 4 0.220383 0.0939032 0.680778
1003 2 0.242558 0.103912 0.686548
3147 4 0.265498 0.120826 0.747781
1005 4 0.264733 0.113921 0.692317
3009 4 0.27831 0.125471 0.681136
3441 4 0.382218 0.15303 0.73649
2628 4 0.402728 0.151293 0.735493
2626 2 0.426274 0.144607 0.7406
3356 4 0.462866 0.143706 0.732063
1134 4 0.0347645 0.30527 0.741861
3435 4 0.143613 0.255449 0.671042
3433 2 0.167826 0.256238 0.664854
383 4 0.206088 0.25187 0.672528
384 4 0.245887 0.266174 0.699215
382 2 0.225988 0.259022 0.685871
1297 2 0.229823 0.326276 0.695123
1299 4 0.205742 0.332306 0.698109
1298 4 0.253904 0.320245 0.692137
3383 4 0.284061 0.319684 0.717066
3382 2 0.299319 0.299884 0.717655
3384 4 0.314576 0.280084 0.718243
921 4 0.32886 0.27965 0.732509
3380 4 0.26395 0.330507 0.676555
919 2 0.351829 0.288546 0.736807
920 4 0.374798 0.297442 0.741105
867 4 0.392091 0.292253 0.750918
3114 4 0.393073 0.328917 0.715686
999 4 0.385198 0.319573 0.699592
4208 4 0.0308201 0.409947 0.716081
4207 2 0.0508985 0.400198 0.704811
4209 4 0.0709768 0.390449 0.693542
4362 4 0.0181074 0.412691 0.731338