ITEM: TIMESTEP
1432000
ITEM: NUMBER OF ATOMS
4590
ITEM: BOX BOUNDS xy xz yz pp pp pp
-1.7197540400000001e+01 9.9985700000000008e+00 -7.1989704000000003e+00
-9.9985700000000008e+00 9.9985700000000008e+00 0.0000000000000000e+00
-9.9985700000000008e+00 9.9985700000000008e+00 0.0000000000000000e+00
ITEM: ATOMS id type xs ys zs
1760 4 0.0160454 0.0549534 0.0412373
356 4 0.202158 0.0615564 0.0792779
1822 2 0.231906 0.0710524 0.000243823
1823 4 0.248148 0.0760149 0.0200333
1874 4 0.370176 0.0471626 0.0659986
1873 2 0.389613 0.0397533 0.0569603
1875 4 0.409049 0.032344 0.0479219
1653 4 0.427269 0.0462642 0.0546743
1651 2 0.453588 0.054649 0.0512125
1652 4 0.479907 0.0630339 0.0477506
2469 4 0.49639 0.0561269 0.0467052
3260 4 0.0686788 0.0967362 0.0319399
3259 2 0.0879942 0.117538 0.0246873
3261 4 0.10731 0.13834 0.0174348
2895 4 0.243315 0.140028 0.0806508
2600 4 0.259195 0.14321 0.0680567
2599 2 0.285091 0.151098 0.0736586
2601 4 0.310987 0.158986 0.0792605
359 4 0.0178428 0.227545 0.0131017
282 4 0.0386516 0.230548 0.0156181
1251 4 0.0550028 0.169857 0.000428077
280 2 0.0623384 0.227498 0.0168764
281 4 0.0860253 0.224448 0.0181347
1249 2 0.0812718 0.179468 0.00397286
2876 4 0.108156 0.233696 0.0167161
1250 4 0.107541 0.189079 0.00751764
2875 2 0.134606 0.241902 0.0191302
1246 2 0.150315 0.193381 0.0103486
1248 4 0.175124 0.200704 0.0192895
2650 2 0.202095 0.24881 0.032011
2441 4 0.193267 0.200337 0.0251159
2877 4 0.161056 0.250108 0.0215444
2440 2 0.218716 0.201688 0.0246545
2976 4 0.20582 0.197479 0.0856739
527 4 0.23844 0.236293 0.0351222
2651 4 0.22327 0.244919 0.0420294
2442 4 0.244166 0.203039 0.0241931
526 2 0.260703 0.243749 0.0487699
492 4 0.261807 0.204652 0.0345815
528 4 0.282967 0.251204 0.0624177
490 2 0.286538 0.204204 0.0368942
491 4 0.311269 0.203756 0.0392069
845 4 0.330061 0.203191 0.0330176
844 2 0.355564 0.204785 0.0341005
846 4 0.381068 0.20638 0.0351833
456 4 0.399214 0.207856 0.0445092
454 2 0.423897 0.209674 0.0378379
455 4 0.44858 0.211493 0.0311665
102 3 0.466301 0.204283 0.0298533
104 3 0.474335 0.18444 0.00177295
101 1 0.483549 0.203293 0.01508
105 3 0.49026 0.222014 0.00211164
460 2 0.035289 0.314877 0.0128303
2521 2 0.0511679 0.305754 0.0752006
2523 4 0.0516986 0.292811 0.0544468
461 4 0.0606334 0.322048 0.0202879
3339 4 0.0717832 0.296535 0.0476037
462 4 0.00994462 0.307705 0.00537276
3337 2 0.0879658 0.299884 0.0278636
3338 4 0.104148 0.303233 0.00812353
293 4 0.123472 0.314911 0.00381537
292 2 0.149992 0.324849 0.00357978
2652 4 0.180919 0.2527 0.0219927
2829 4 0.1864 0.322752 0.00998993
2827 2 0.212441 0.329519 0.00527507
2828 4 0.238482 0.336286 0.000560203
450 4 0.421701 0.27402 0.0141821
448 2 0.447091 0.278949 0.00761265
449 4 0.472482 0.283877 0.00104324
915 4 0.488688 0.276866 0.00331875
2727 4 0.0518744 0.412175 0.0624249
2725 2 0.0744937 0.412166 0.0730735
2726 4 0.097113 0.412156 0.0837222
670 2 0.129434 0.408599 0.0723199
672 4 0.147605 0.413731 0.054089
4303 2 0.200464 0.406549 0.0538802
4305 4 0.218775 0.395416 0.0556303
597 4 0.238199 0.402766 0.0650956
595 2 0.261544 0.398972 0.0646775
1293 4 0.297916 0.336704 0.0159574
2639 4 0.246156 0.34573 0.0181301
596 4 0.284889 0.395179 0.0642595
2638 2 0.27101 0.347718 0.0243397
2640 4 0.295865 0.349705 0.0305494
1291 2 0.319123 0.339695 0.00143108
1550 4 0.294647 0.410757 0.0524774
2514 4 0.0987505 0.464125 0.0215527
903 4 0.0892548 0.462937 0.00320142
2512 2 0.110483 0.469015 0.0439546
2513 4 0.122215 0.473906 0.0663565
1871 4 0.138505 0.487391 0.075654
4304 4 0.182152 0.417682 0.0521301
4052 4 0.217176 0.482835 0.0119258
4051 2 0.206241 0.499474 0.0040576
2564 4 0.205208 0.465854 0.00391783
1549 2 0.319651 0.426334 0.0549911
1551 4 0.344656 0.441911 0.0575047
3542 4 0.360063 0.434367 0.0511843
3541 2 0.379073 0.446772 0.0673015
2913 4 0.459324 0.494323 0.056025
759 4 0.144351 0.0797799 0.0958527
758 4 0.181172 0.0602825 0.0817613
757 2 0.162762 0.0700312 0.088807
2745 4 0.12117 0.00332728 0.153746
355 2 0.219095 0.0769288 0.0953669
2702 4 0.233968 0.0415773 0.153839
2701 2 0.247825 0.0328872 0.137678
2781 4 0.260809 0.0235127 0.101561
2703 4 0.261682 0.0241971 0.121517
2779 2 0.282153 0.018637 0.0933267
2780 4 0.303498 0.0137614 0.0850923
2679 4 0.315678 0.0211883 0.102145
2677 2 0.339842 0.0342949 0.0934693
1374 4 0.367264 0.0724581 0.102904
2678 4 0.364006 0.0474016 0.0847935
1372 2 0.393813 0.0807912 0.101799
2180 4 0.0402321 0.106775 0.160268
654 4 0.124075 0.162712 0.140586
652 2 0.135654 0.158785 0.119588
653 4 0.147233 0.154858 0.0985885
2975 4 0.167386 0.153404 0.092668
22 3 0.145919 0.125818 0.118706
25 3 0.168032 0.136342 0.0879429
21 1 0.16337 0.122261 0.105837
24 3 0.155472 0.100224 0.0985714
23 3 0.183703 0.126382 0.118727
2894 4 0.2033 0.138927 0.111145
2893 2 0.223307 0.139477 0.0958979
697 2 0.230641 0.127381 0.161037
698 4 0.243491 0.149525 0.150499
378 4 0.325526 0.168566 0.0930669
357 4 0.236033 0.0923012 0.111456
623 4 0.255251 0.107 0.115756
622 2 0.276874 0.114619 0.130271
624 4 0.298497 0.122238 0.144786
521 4 0.314109 0.116994 0.154706
1373 4 0.420361 0.0891243 0.100693
505 2 0.0169428 0.206403 0.163028
2783 4 0.0162995 0.22213 0.102941
506 4 0.0372551 0.202039 0.151747
836 4 0.0574895 0.212725 0.149996
835 2 0.0823994 0.219329 0.141401
837 4 0.107309 0.225932 0.132807
2615 4 0.128543 0.231924 0.130116
558 4 0.126626 0.169207 0.158753
2614 2 0.146792 0.225833 0.143163
2616 4 0.165041 0.219743 0.156209
2717 4 0.174763 0.206924 0.15002
2716 2 0.18831 0.19106 0.148411
2974 2 0.186603 0.175441 0.089171
2718 4 0.201857 0.175195 0.146802
350 4 0.338063 0.243725 0.157817
376 2 0.349299 0.18658 0.0944124
377 4 0.373073 0.204593 0.0957578
110 3 0.0381945 0.255521 0.11117
2522 4 0.0506371 0.318697 0.0959545
106 1 0.0610492 0.260773 0.118352
109 3 0.0727517 0.28365 0.11661
2771 4 0.063471 0.329518 0.109967
107 3 0.0725813 0.249891 0.105236
108 3 0.0613642 0.253998 0.140373
2705 4 0.124171 0.30967 0.162159
2704 2 0.113002 0.327442 0.161306
2470 2 0.205746 0.312816 0.163185
2472 4 0.180864 0.296625 0.163363
608 4 0.250303 0.33097 0.161657
607 2 0.273037 0.327864 0.168485
349 2 0.345075 0.268548 0.155525
351 4 0.352087 0.293372 0.153232
518 4 0.351092 0.308289 0.164713
671 4 0.111262 0.403466 0.0905508
2770 2 0.0891945 0.332634 0.113165
4007 4 0.085552 0.352096 0.159861
2772 4 0.114918 0.335751 0.116364
1103 4 0.13049 0.349373 0.107118
2706 4 0.101833 0.345214 0.160454
1102 2 0.156213 0.352368 0.104148
1104 4 0.181937 0.355363 0.101178
1786 2 0.0119586 0.493325 0.134332
2619 4 0.0397031 0.498002 0.105001
1870 2 0.162492 0.500479 0.0847304
4211 4 0.30152 0.447663 0.158834
4210 2 0.32305 0.460854 0.145812
3671 4 0.35373 0.48035 0.113543
4212 4 0.344581 0.474044 0.13279
3543 4 0.398083 0.459177 0.0834187
3800 4 0.388084 0.49459 0.160733
1467 4 0.37855 0.442196 0.143275
1465 2 0.386134 0.454988 0.122
1466 4 0.393718 0.467781 0.100724
1504 2 0.00263873 0.0668236 0.226367
1505 4 0.0265871 0.0715505 0.215977
255 4 0.0466662 0.072923 0.220115
689 4 0.147855 0.0764937 0.170081
2743 2 0.103309 0.999731 0.172126
253 2 0.0723301 0.0750934 0.221268
254 4 0.097994 0.0772639 0.222421
3956 4 0.0675346 0.998302 0.183094
249 4 0.00405039 0.123456 0.244236
3209 4 0.0369388 0.13651 0.206479
1749 4 0.0224192 0.120682 0.196915
247 2 0.0280814 0.122188 0.24913
3208 2 0.0579234 0.155276 0.198077
2179 2 0.0649454 0.113817 0.169419
632 4 0.117347 0.0823092 0.230915
2181 4 0.0896587 0.120859 0.17857
2790 4 0.111395 0.128545 0.176872
2788 2 0.135927 0.133314 0.185922
2789 4 0.160459 0.138084 0.194973
631 2 0.143112 0.0847552 0.230866
605 4 0.131429 0.142579 0.247828
699 4 0.21779 0.105238 0.171576
688 2 0.174248 0.0829402 0.172127
633 4 0.168876 0.0872013 0.230816
690 4 0.20064 0.0893867 0.174174
2879 4 0.189927 0.0916813 0.231095
2673 4 0.180206 0.137002 0.197853
2671 2 0.206155 0.147502 0.202697
2672 4 0.232105 0.158001 0.207542
2878 2 0.215307 0.0927967 0.23096
2880 4 0.240687 0.093912 0.230825
420 4 0.25745 0.106461 0.223516
418 2 0.28277 0.108144 0.226914
419 4 0.308091 0.109827 0.230312
581 4 0.271693 0.160181 0.24348
520 2 0.332768 0.130201 0.170751
2837 4 0.325019 0.120761 0.243474
522 4 0.351427 0.143409 0.186795
749 4 0.345276 0.158647 0.192466
591 4 0.0226512 0.18025 0.246706
557 4 0.0985963 0.17762 0.197032
3210 4 0.0789081 0.174041 0.189676
556 2 0.112611 0.173413 0.177893
2952 4 0.247763 0.166263 0.194744
2945 4 0.283613 0.25032 0.243138
2950 2 0.268184 0.184763 0.204417
2951 4 0.288605 0.203264 0.21409
2452 2 0.306085 0.222279 0.241288
2454 4 0.308938 0.21334 0.21874
582 4 0.324755 0.175401 0.245709
580 2 0.298224 0.167791 0.244594
748 2 0.344456 0.169136 0.214693
750 4 0.343636 0.179624 0.23692
2536 2 0.00917888 0.332636 0.194322
4008 4 0.0426522 0.321874 0.183569
2753 4 0.0103981 0.295637 0.20855
2730 4 0.0264542 0.29441 0.219657
2728 2 0.0525591 0.300238 0.223514
2729 4 0.0786639 0.306065 0.22737
525 4 0.117506 0.298736 0.179043
523 2 0.139959 0.293684 0.175796
2955 4 0.118026 0.276907 0.245499
389 4 0.0971709 0.262918 0.242685
2953 2 0.144034 0.284688 0.240392
2471 4 0.230628 0.329008 0.163007
300 4 0.185014 0.31114 0.237464
524 4 0.162412 0.288632 0.172549
2954 4 0.170043 0.292469 0.235285
298 2 0.202722 0.302605 0.248441
2533 2 0.284384 0.275317 0.203538
2534 4 0.27636 0.256227 0.187432
2535 4 0.292407 0.294407 0.219645
519 4 0.315827 0.332178 0.167148
609 4 0.295771 0.324759 0.175312
517 2 0.33346 0.320234 0.165931
2591 4 0.0107875 0.363161 0.224208
2537 4 0.0344635 0.335335 0.189146
2862 4 0.0326951 0.370044 0.22378
2860 2 0.0585808 0.378453 0.218126
2861 4 0.0844664 0.386862 0.212472
3990 4 0.0942552 0.399667 0.198636
4006 2 0.0641021 0.336985 0.171715
3988 2 0.113276 0.394066 0.186338
3989 4 0.132298 0.388465 0.17404
1802 4 0.028106 0.430588 0.226813
3695 4 0.00944138 0.42245 0.236649
3705 4 0.00441843 0.47259 0.205574
3703 2 0.0154526 0.470748 0.227596
3704 4 0.0264868 0.468907 0.249617
1801 2 0.053575 0.435125 0.232852
1803 4 0.079044 0.439662 0.23889
1158 4 0.100373 0.442448 0.237187
1156 2 0.124349 0.448804 0.22649
501 4 0.165343 0.480365 0.243687
1157 4 0.148325 0.455161 0.215793
4368 4 0.179645 0.459084 0.216487
4366 2 0.205475 0.471527 0.212678
4367 4 0.231306 0.483969 0.20887
1382 4 0.251972 0.488233 0.215505
314 4 0.260439 0.432756 0.212553
1381 2 0.278292 0.497451 0.212165
313 2 0.271236 0.437354 0.18974
315 4 0.282033 0.441952 0.166926
231 4 0.233306 0.458274 0.243733
1436 4 0.424088 0.425906 0.244971
1435 2 0.43894 0.423278 0.22577
1437 4 0.453793 0.420649 0.206569
681 4 0.470843 0.428841 0.217683
679 2 0.496587 0.433473 0.222588
2692 2 0.999253 0.0480572 0.285727
2694 4 0.0220052 0.0450593 0.27878
512 4 0.0429942 0.0461538 0.27829
2871 4 0.0031357 0.0822957 0.330324
511 2 0.0690167 0.0583052 0.275307
513 4 0.0950393 0.0704567 0.272324
1271 4 0.112254 0.0744265 0.282704
1270 2 0.135784 0.0716772 0.286755
1272 4 0.159314 0.0689278 0.290806
4307 4 0.174676 0.0609323 0.295998
3926 4 0.168503 0.0429238 0.285645
3925 2 0.17995 0.0255902 0.289095
4306 2 0.194022 0.0832063 0.296858
3927 4 0.191396 0.00825663 0.292545
3698 4 0.249081 0.00240319 0.291246
3740 4 0.307051 0.0148437 0.254517
3739 2 0.282726 0.0064283 0.26456
1523 4 0.0756156 0.0938495 0.323613
248 4 0.0521124 0.120921 0.254023
27 3 0.0717293 0.121619 0.252302
544 2 0.0684389 0.143844 0.308951
545 4 0.057776 0.135545 0.331253
546 4 0.0791018 0.152143 0.286649
30 3 0.0895363 0.140487 0.282561
1522 2 0.0499236 0.089569 0.32847
29 3 0.111603 0.136094 0.253594
1058 4 0.0942195 0.0883562 0.32511
26 1 0.0911915 0.126255 0.266125
28 3 0.0916604 0.106424 0.275466
1057 2 0.120122 0.0967962 0.330696
604 2 0.157151 0.145934 0.25143
606 4 0.182873 0.149289 0.255031
731 4 0.204068 0.148328 0.250973
730 2 0.229045 0.148479 0.252987
4308 4 0.213367 0.10548 0.297718
732 4 0.254021 0.148629 0.255001
2838 4 0.374834 0.138677 0.260773
2836 2 0.349927 0.129719 0.252124
283 2 0.00694905 0.241432 0.271189
2850 4 0.0353043 0.24008 0.32399
2848 2 0.0484285 0.23315 0.305736
2849 4 0.0615527 0.22622 0.287483
590 4 0.0573462 0.205773 0.281329
589 2 0.0399987 0.193012 0.264017
2946 4 0.231832 0.230614 0.253882
2944 2 0.257723 0.240467 0.24851
2930 4 0.302306 0.238409 0.281831
2453 4 0.303233 0.231218 0.263837
2929 2 0.322945 0.245958 0.297549
2566 2 0.000606715 0.310968 0.285827
284 4 0.0331093 0.251767 0.27504
290 4 0.0434453 0.320476 0.273827
2568 4 0.0226531 0.309032 0.27562
390 4 0.050452 0.25926 0.263326
289 2 0.0698546 0.328183 0.271145
388 2 0.0738114 0.261089 0.253006
299 4 0.220429 0.29407 0.259419
2524 2 0.210544 0.288396 0.320489
2525 4 0.228076 0.302144 0.30382
2526 4 0.193012 0.274647 0.337157
2493 4 0.233841 0.284724 0.260821
2491 2 0.260368 0.294085 0.259676
2492 4 0.286895 0.303445 0.25853
2463 4 0.29921 0.272298 0.302033
2931 4 0.343583 0.253508 0.313267
2461 2 0.308335 0.28884 0.283553
2462 4 0.317461 0.305382 0.265073
1953 4 0.364394 0.257555 0.315209
1951 2 0.384109 0.269439 0.330883
2852 4 0.00256688 0.34715 0.321244
2450 4 0.0164587 0.364596 0.319884
2449 2 0.0405757 0.368394 0.329539
291 4 0.0962638 0.33589 0.268464
1575 4 0.487036 0.39162 0.312072
5 3 0.470588 0.388637 0.324428
1 1 0.461572 0.404204 0.332338
2 3 0.437513 0.39433 0.33569
1573 2 0.500869 0.384129 0.294871
230 4 0.20067 0.425317 0.275088
500 4 0.184054 0.496321 0.289272
499 2 0.174698 0.488343 0.26648
229 2 0.216988 0.441795 0.25941
1310 4 0.273591 0.478604 0.309499
1309 2 0.295677 0.48676 0.323355
645 4 0.432192 0.426384 0.262299
3 3 0.46538 0.421385 0.316925
644 4 0.469531 0.42512 0.295021
643 2 0.450861 0.425752 0.27866
752 4 0.488915 0.426134 0.308835
2115 4 0.0180199 0.0407901 0.360137
1128 4 0.0353366 0.0365262 0.351399
1126 2 0.0595242 0.0357304 0.346343
707 4 0.104623 0.0445767 0.344598
1127 4 0.0837119 0.0349346 0.341286
706 2 0.129126 0.0449971 0.350257
708 4 0.153628 0.0454175 0.355915
616 2 0.178389 0.0383384 0.372489
617 4 0.174082 0.0544354 0.356241
618 4 0.182696 0.0222415 0.388738
1062 4 0.154318 0.0017464 0.411425
530 4 1.37767e-05 0.127372 0.348784
1524 4 0.0242316 0.0852884 0.333327
531 4 0.0529939 0.146637 0.345698
529 2 0.0265038 0.137005 0.347241
1059 4 0.146024 0.105236 0.336283
2643 4 0.161516 0.103668 0.348935
369 4 0.222544 0.108992 0.385688
2642 4 0.203983 0.107037 0.376998
2641 2 0.18275 0.105352 0.362967
367 2 0.242353 0.113747 0.402274
726 4 0.998375 0.219441 0.417304
3572 4 0.02613 0.226218 0.336322
473 4 0.0595855 0.2432 0.414676
365 4 0.0821245 0.317783 0.333229
584 4 0.0457703 0.294934 0.391807
2832 4 0.028173 0.29536 0.383665
2830 2 0.0095428 0.288969 0.365841
583 2 0.0717515 0.303101 0.386554
366 4 0.115366 0.292179 0.326725
364 2 0.0987453 0.304981 0.329977
585 4 0.0977328 0.311268 0.381302
2494 2 0.160156 0.319272 0.33954
2923 2 0.157156 0.324691 0.395145
2925 4 0.153729 0.314981 0.372105
2495 4 0.136181 0.301964 0.336258
1035 4 0.175414 0.258716 0.340689
1033 2 0.169584 0.265646 0.363224
1034 4 0.163754 0.272576 0.38576
2496 4 0.184131 0.33658 0.342822
2509 2 0.253109 0.325012 0.405624
1952 4 0.403824 0.281323 0.346557
2766 4 0.446519 0.292883 0.389921
2764 2 0.434319 0.285089 0.368099
2765 4 0.422119 0.277295 0.346277
2928 4 0.44857 0.331089 0.370851
2598 4 0.00436349 0.406893 0.388042
2596 2 0.00833414 0.389874 0.403325
2451 4 0.0646926 0.372191 0.339193
3317 4 0.0561713 0.342021 0.408185
3316 2 0.081367 0.357076 0.405453
3632 4 0.0835438 0.376025 0.346393
3631 2 0.0900638 0.355414 0.343948
3318 4 0.106563 0.37213 0.402722
592 2 0.146186 0.380399 0.410112
593 4 0.124211 0.370072 0.396502
3633 4 0.0965838 0.334802 0.341504
2511 4 0.238873 0.334354 0.39052
2957 4 0.203028 0.343768 0.349365
2956 2 0.224637 0.345787 0.362968
2958 4 0.246246 0.347806 0.37657
3885 4 0.353369 0.415839 0.394796
3883 2 0.352857 0.392626 0.389814
1452 4 0.369451 0.373451 0.368626
3884 4 0.352344 0.369414 0.384831
261 4 0.387702 0.336956 0.404025
1450 2 0.395679 0.37853 0.366622
1451 4 0.421908 0.383608 0.364618
2926 2 0.441083 0.351217 0.369118
2927 4 0.433595 0.371344 0.367385
4 3 0.472258 0.412687 0.352542
1418 4 0.230265 0.494022 0.407985
2960 4 0.239067 0.4953 0.390218
1173 4 0.264322 0.442106 0.393394
2961 4 0.278361 0.482488 0.370001
2959 2 0.258714 0.488894 0.380109
2649 4 0.298805 0.487081 0.364721
1311 4 0.317762 0.494915 0.33721
2532 4 0.352059 0.432111 0.387082
2530 2 0.374244 0.446249 0.375546
1433 4 0.411816 0.478055 0.366986
2531 4 0.396428 0.460387 0.364011
1432 2 0.433968 0.48715 0.380629
1434 4 0.456119 0.496245 0.394272
416 4 0.451333 0.46269 0.371867
415 2 0.459545 0.442998 0.370058
2826 4 0.489195 0.487274 0.39056
570 4 0.485068 0.430847 0.379614
417 4 0.467757 0.423306 0.368248
4239 4 0.0549724 0.0440069 0.430077
4237 2 0.0593046 0.0684967 0.432382
2504 4 0.0754898 0.0464489 0.437148
2505 4 0.0975092 0.0241596 0.470334
2503 2 0.0864995 0.0353042 0.453741
1152 4 0.112829 0.0111498 0.420509
1150 2 0.129863 0.0136405 0.439444
1151 4 0.146897 0.0161311 0.45838
2314 2 0.198185 0.0723773 0.490785
1060 2 0.178052 0.00289387 0.420371
2315 4 0.219092 0.0787476 0.475354
1061 4 0.201785 0.00404134 0.429316
682 2 0.246673 0.0178688 0.438773
684 4 0.222266 0.0142234 0.429912
683 4 0.271081 0.0215143 0.447634
843 4 0.341386 0.0383067 0.449978
841 2 0.315014 0.0289064 0.447083
842 4 0.288642 0.0195061 0.444187
3747 4 0.363269 0.04134 0.446508
3746 4 0.41424 0.0696413 0.452565
3745 2 0.388755 0.0554906 0.449536
4238 4 0.0636368 0.0929865 0.434686
3850 2 0.107611 0.120466 0.433508
3851 4 0.081517 0.107746 0.432792
3852 4 0.133704 0.133186 0.434225
368 4 0.262161 0.118501 0.41886
2196 4 0.237013 0.0915868 0.474462
2195 4 0.288938 0.103822 0.4841
6 1 0.301829 0.128086 0.432226
9 3 0.300751 0.107809 0.441635
7 3 0.299987 0.14224 0.44898
10 3 0.283582 0.124909 0.417529
2194 2 0.262975 0.0977046 0.479281
641 4 0.31503 0.160664 0.454057
2553 4 0.306957 0.104776 0.494397
8 3 0.323393 0.13766 0.42134
2484 4 0.341506 0.141032 0.431343
2551 2 0.332733 0.110277 0.499751
2483 4 0.393259 0.14937 0.438723
2482 2 0.367383 0.145201 0.435033
760 2 0.401016 0.128044 0.495484
2801 4 0.413957 0.156602 0.439619
3172 2 0.461023 0.121431 0.479548
3173 4 0.439494 0.127491 0.484671
761 4 0.423616 0.133547 0.482454
2800 2 0.440503 0.166089 0.439217
2901 4 0.497143 0.131576 0.464857
3174 4 0.482553 0.115371 0.474424
472 2 0.0354217 0.226346 0.418374
474 4 0.011258 0.209492 0.422072
410 4 0.0138237 0.175901 0.439294
453 4 0.0580445 0.245951 0.472584
411 4 0.0593239 0.175877 0.460024
409 2 0.0365738 0.175889 0.449659
3461 4 0.0647903 0.173293 0.479381
3460 2 0.0905653 0.176073 0.481302
3497 4 0.113558 0.207174 0.481514
3462 4 0.11634 0.178852 0.483224
3498 4 0.163091 0.237432 0.491114
3496 2 0.138325 0.222303 0.486314
321 4 0.277051 0.178679 0.502239
640 2 0.304745 0.170316 0.472568
642 4 0.29446 0.179969 0.49108
764 4 0.48813 0.181857 0.438781
2802 4 0.467049 0.175575 0.438816
803 4 0.0870828 0.317494 0.485749
452 4 0.104141 0.282001 0.462369
3056 4 0.115997 0.339122 0.461369
451 2 0.0810928 0.263976 0.467477
487 2 0.143198 0.281679 0.462265
488 4 0.116866 0.270954 0.464545
489 4 0.16953 0.292403 0.459986
3079 2 0.197033 0.262911 0.49408
2510 4 0.267345 0.31567 0.420729
872 4 0.228429 0.277903 0.465999
871 2 0.248292 0.293207 0.4524
3080 4 0.221746 0.272647 0.485101
873 4 0.268156 0.308511 0.438801
2637 4 0.366098 0.328225 0.455907
260 4 0.3645 0.312301 0.445107
259 2 0.376101 0.324628 0.424566
2597 4 0.0123048 0.372855 0.418608
3333 4 0.0568637 0.348637 0.487461
3331 2 0.0758487 0.34226 0.475988
594 4 0.16816 0.390725 0.423722
3055 2 0.138031 0.338431 0.450047
3332 4 0.0948338 0.335883 0.464516
3057 4 0.160065 0.337739 0.438726
2924 4 0.160584 0.334402 0.418186
3455 4 0.215889 0.385469 0.4765
2561 4 0.221911 0.38322 0.458723
2560 2 0.205234 0.388808 0.443081
2562 4 0.188556 0.394395 0.427439
3454 2 0.229232 0.376969 0.493349
813 4 0.375699 0.408688 0.481035
2635 2 0.351421 0.336088 0.471932
3963 4 0.393669 0.407822 0.472765
2636 4 0.336744 0.343951 0.487958
2742 4 0.0569861 0.497325 0.441964
2740 2 0.0321311 0.492992 0.43398
2741 4 0.00727614 0.488659 0.425997
2170 2 0.132347 0.484966 0.494906
2171 4 0.141739 0.466184 0.491526
1983 4 0.201901 0.471741 0.464127
1981 2 0.176659 0.4635 0.471942
1417 2 0.214476 0.488415 0.428088
1419 4 0.198687 0.482807 0.448191
1982 4 0.151416 0.455259 0.479757
1172 4 0.252651 0.434742 0.442027
1027 2 0.251257 0.435759 0.477421
1029 4 0.246736 0.422165 0.498403
1028 4 0.255778 0.449353 0.456439
1171 2 0.258487 0.438424 0.41771
3961 2 0.417496 0.422779 0.46493
811 2 0.369329 0.42424 0.496529
662 4 0.489094 0.486772 0.496746
4177 2 0.47737 0.442907 0.479225
3962 4 0.441322 0.437735 0.457096
4179 4 0.458376 0.432579 0.462338
4178 4 0.496363 0.453236 0.496112
2501 4 0.0276857 0.00510398 0.539886
3032 4 0.0449679 0.0209059 0.536392
3031 2 0.0562634 0.0455962 0.539518
3033 4 0.0675589 0.0702865 0.542645
945 4 0.088454 0.0811072 0.540833
2316 4 0.177278 0.0660071 0.506217
1142 4 0.397448 0.057924 0.582607
943 2 0.111083 0.0959496 0.530533
944 4 0.133712 0.110792 0.520232
965 4 0.161154 0.144628 0.568263
3327 4 0.154657 0.122451 0.515811
2322 4 0.164105 0.163413 0.576509
3325 2 0.180664 0.135066 0.518104
3326 4 0.206672 0.147681 0.520398
320 4 0.225957 0.15388 0.512624
762 4 0.378416 0.122541 0.508513
2552 4 0.358509 0.115778 0.505105
2809 2 0.01653 0.172052 0.574937
319 2 0.251504 0.166279 0.507432
1082 4 0.232766 0.204632 0.57875
2321 4 0.212164 0.198812 0.577188
2320 2 0.188135 0.181113 0.576848
3237 4 0.366792 0.229867 0.565209
2241 4 0.467072 0.228952 0.538597
2239 2 0.471917 0.207455 0.540766
2240 4 0.476761 0.185958 0.542934
3180 4 0.493963 0.188206 0.553352
802 2 0.094984 0.310619 0.507434
1237 2 0.0936159 0.300065 0.564695
804 4 0.102885 0.303743 0.529119
1238 4 0.0992965 0.290302 0.543592
3081 4 0.17232 0.253176 0.503059
1107 4 0.29958 0.304037 0.57464
1076 4 0.305562 0.307732 0.55494
1105 2 0.274122 0.290111 0.578283
1106 4 0.248664 0.276185 0.581927
1075 2 0.328571 0.303324 0.555808
1077 4 0.35158 0.298915 0.556676
3267 4 0.372534 0.301024 0.560108
3418 2 0.00333348 0.358458 0.566569
3419 4 0.0240536 0.37175 0.552619
890 4 0.0530877 0.347646 0.577394
265 2 0.0642232 0.357679 0.528119
267 4 0.0721271 0.371076 0.549005
347 4 0.0868945 0.384619 0.559569
346 2 0.107704 0.405279 0.555146
266 4 0.0563193 0.344283 0.507233
1281 4 0.261966 0.407511 0.584913
3456 4 0.242576 0.368469 0.510197
239 4 0.257023 0.371607 0.524311
3368 4 0.248793 0.391431 0.576389
238 2 0.281645 0.37076 0.526084
240 4 0.306266 0.369914 0.527858
3045 4 0.455286 0.368814 0.566385
1641 4 0.440093 0.356281 0.577287
3043 2 0.465135 0.378125 0.544108
3044 4 0.474985 0.387436 0.521831
2846 4 0.482879 0.374218 0.513376
348 4 0.128514 0.425939 0.550723
1487 4 0.218912 0.454366 0.500477
1486 2 0.235977 0.477079 0.50598
1488 4 0.253042 0.499793 0.511483
1136 4 0.26845 0.470662 0.558777
1135 2 0.247716 0.457402 0.572729
4539 4 0.275436 0.466202 0.5406
1279 2 0.277633 0.422612 0.567811
4537 2 0.298045 0.483469 0.532963
1280 4 0.293301 0.437714 0.55071
878 4 0.31297 0.451797 0.550533
877 2 0.337886 0.460399 0.541866
879 4 0.362802 0.469002 0.533199
812 4 0.362959 0.439791 0.512023
796 2 0.487566 0.458983 0.56282
797 4 0.466932 0.466078 0.568918
954 4 0.0393779 0.0725115 0.590541
1263 4 0.0250461 0.00671076 0.598329
3612 4 0.0449343 0.00795636 0.591462
3610 2 0.0709335 0.012569 0.594859
3611 4 0.0969326 0.0171816 0.598256
4503 4 0.117754 0.0211496 0.598914
4501 2 0.144066 0.0266511 0.597206
4502 4 0.170378 0.0321526 0.595498
3104 4 0.192797 0.0369248 0.591243
3105 4 0.244832 0.0460919 0.584787
3050 4 0.265183 0.0522714 0.580575
3103 2 0.218814 0.0415083 0.588015
270 4 0.251528 0.0302267 0.641371
268 2 0.26049 0.0164162 0.656873
3049 2 0.291326 0.0563795 0.580574
3051 4 0.317469 0.0604876 0.580573
2507 4 0.338197 0.061837 0.582792
2506 2 0.358976 0.05466 0.588068
3123 4 0.343692 0.0117129 0.595483
1141 2 0.421933 0.0584956 0.588554
2508 4 0.379756 0.047483 0.593345
1004 4 0.449154 0.0808766 0.654326
1143 4 0.446418 0.0590671 0.594502
952 2 0.0536993 0.088155 0.608004
953 4 0.0680207 0.103798 0.625467
966 4 0.127277 0.120874 0.60425
964 2 0.144215 0.132751 0.586256
2175 4 0.136086 0.120363 0.621382
2173 2 0.148446 0.124532 0.643516
2174 4 0.160805 0.1287 0.66565
1023 4 0.38272 0.11934 0.662408
1021 2 0.394333 0.113215 0.64249
1022 4 0.405947 0.10709 0.622572
2256 4 0.42725 0.113054 0.627013
2254 2 0.441536 0.0982 0.631376
2255 4 0.455822 0.083346 0.635739
3111 4 0.0195242 0.178496 0.654942
3109 2 0.0319057 0.181423 0.632845
3110 4 0.0442871 0.18435 0.610748
2811 4 0.0342271 0.18231 0.592932
1971 4 0.100971 0.183247 0.657873
1257 4 0.0921311 0.241595 0.59412
3384 4 0.168689 0.207729 0.649088
3107 4 0.188301 0.219316 0.656858
3382 2 0.144076 0.196071 0.6576
3108 4 0.241233 0.239905 0.654694
3106 2 0.214767 0.22961 0.655776
1081 2 0.255581 0.214424 0.591288
3165 4 0.262063 0.246446 0.656298
1083 4 0.278397 0.224217 0.603825
3163 2 0.275981 0.243887 0.636338
3164 4 0.289899 0.241329 0.616377
145 3 0.341313 0.23578 0.627535
3236 4 0.352484 0.241016 0.610384
3235 2 0.359638 0.235442 0.587796
935 4 0.427643 0.201129 0.607503
934 2 0.451184 0.197902 0.605372
936 4 0.474725 0.194675 0.603242
1259 4 0.490459 0.192803 0.614898
1256 4 0.0515806 0.259022 0.59623
959 4 0.0323311 0.256524 0.603999
960 4 0.0183276 0.259874 0.651519
958 2 0.0253294 0.258199 0.627759
3435 4 0.0347453 0.27756 0.649904
891 4 0.0784509 0.319134 0.597848
889 2 0.0657693 0.33339 0.587621
1155 4 0.113106 0.250507 0.591901
1255 2 0.0718559 0.250309 0.595175
1239 4 0.0879352 0.309828 0.585797
1153 2 0.138513 0.259516 0.599169
3092 4 0.186025 0.324523 0.659845
1154 4 0.163919 0.268524 0.606438
1283 4 0.183448 0.267561 0.605379
1282 2 0.207438 0.275583 0.59463
1284 4 0.231427 0.283604 0.58388
144 3 0.310778 0.24892 0.626405
3265 2 0.36935 0.289429 0.582238
142 3 0.346945 0.26993 0.614034
141 1 0.335043 0.254371 0.629762
143 3 0.341158 0.263507 0.650904
3266 4 0.366166 0.277834 0.604369
2627 4 0.443613 0.270207 0.654177
3356 4 0.452658 0.278925 0.637931
3355 2 0.476765 0.279451 0.63066
2721 4 0.0168274 0.383628 0.663242
3447 4 0.0363793 0.394713 0.66338
3445 2 0.0607125 0.39438 0.658174
3446 4 0.0850456 0.394046 0.652967
3353 4 0.107011 0.39729 0.656517
539 4 0.223561 0.343113 0.621164
538 2 0.233453 0.354219 0.642776
3369 4 0.22526 0.350453 0.603675
3367 2 0.237027 0.370942 0.590032
540 4 0.243345 0.365325 0.664389
3114 4 0.319331 0.386587 0.66451
4215 4 0.311956 0.40146 0.659651
1639 2 0.433185 0.352129 0.601343
1640 4 0.426278 0.347977 0.625398
2214 4 0.167308 0.49494 0.597146
1137 4 0.226983 0.444142 0.58668
1040 4 0.275372 0.430161 0.645939
1039 2 0.28831 0.441484 0.625483
1041 4 0.301248 0.452806 0.605027
3492 4 0.3888 0.488382 0.593403
3490 2 0.413406 0.487778 0.590466
3491 4 0.438011 0.487174 0.587529
4196 4 0.485135 0.462375 0.650991
3487 2 0.162869 0.0403774 0.745204
3488 4 0.187411 0.0401172 0.740939
3489 4 0.138327 0.0406377 0.749469
1217 4 0.203767 0.034129 0.746966
269 4 0.269451 0.00260573 0.672374
1216 2 0.230022 0.0388661 0.746701
1218 4 0.256277 0.0436031 0.746436
2001 4 0.276675 0.0527862 0.745038
1003 2 0.447571 0.07424 0.678419
1005 4 0.445987 0.0676033 0.702512
3009 4 0.467046 0.0714526 0.707736
3007 2 0.489728 0.0664271 0.70796
1194 4 0.480646 0.0370446 0.75175
3765 4 0.0389798 0.152502 0.744351
3763 2 0.0394934 0.154128 0.7194
3764 4 0.0400069 0.155755 0.69445
3167 4 0.0756398 0.107363 0.749016
1970 4 0.0535186 0.167235 0.680379
3166 2 0.0910042 0.108336 0.729046
3168 4 0.106369 0.109309 0.709076
3002 4 0.157411 0.129353 0.73062
3001 2 0.161306 0.124648 0.706707
3003 4 0.1652 0.119943 0.682794
4442 4 0.487475 0.16326 0.732605
4441 2 0.489879 0.157197 0.708786
4443 4 0.492282 0.151134 0.684966
3351 4 0.0803775 0.243546 0.716847
3349 2 0.094702 0.233644 0.731238
3350 4 0.109026 0.223743 0.745629
1969 2 0.0772448 0.175241 0.669126
3383 4 0.119462 0.184413 0.666112
895 2 0.223486 0.220597 0.722213
897 4 0.23253 0.203254 0.712693
896 4 0.214441 0.23794 0.731734
1085 4 0.250832 0.213657 0.703142
1084 2 0.275171 0.213711 0.697334
1086 4 0.29951 0.213765 0.691525
2979 4 0.310249 0.21555 0.708621
2977 2 0.32635 0.202003 0.70988
2978 4 0.342451 0.188457 0.711139
3433 2 0.050318 0.290288 0.668408
3434 4 0.0658906 0.303017 0.686911
3240 4 0.125818 0.284336 0.667859
3272 4 0.0845074 0.309276 0.697496
3271 2 0.0924465 0.310384 0.72131
3273 4 0.100386 0.311492 0.745124
3239 4 0.0927999 0.25432 0.701122
3238 2 0.109309 0.269328 0.684491
3093 4 0.138137 0.299508 0.678902
3091 2 0.162081 0.312015 0.669373
922 2 0.18848 0.29749 0.74756
923 4 0.20922 0.308345 0.732592
3439 2 0.404915 0.251947 0.736569
3441 4 0.422177 0.253751 0.717969
2628 4 0.417513 0.254673 0.697059
2626 2 0.430563 0.26244 0.675618
1015 2 0.0620406 0.38239 0.735536
1016 4 0.0435429 0.392722 0.740517
1017 4 0.0805384 0.372058 0.730554
3374 4 0.0900595 0.361184 0.741864
3352 2 0.111676 0.380431 0.67154
3373 2 0.10767 0.364721 0.723269
3354 4 0.11634 0.363571 0.686563
3375 4 0.12528 0.368259 0.704673
4214 4 0.261976 0.374846 0.672319
4213 2 0.286966 0.388153 0.665985
3112 2 0.345328 0.392851 0.669234
998 4 0.389115 0.394464 0.680488
997 2 0.412782 0.391451 0.678635
3113 4 0.371324 0.399115 0.673957
1241 4 0.385264 0.417347 0.743808
999 4 0.436449 0.388438 0.676783
4494 4 0.165588 0.422881 0.721911
4492 2 0.188674 0.424866 0.7329
4493 4 0.21176 0.42685 0.743889
1096 2 0.255836 0.443359 0.739215
3262 2 0.235304 0.487089 0.741731
1098 4 0.231518 0.432415 0.748709
1097 4 0.280154 0.454304 0.72972
1278 4 0.300249 0.465091 0.732439
1276 2 0.325465 0.469533 0.725533
1277 4 0.350681 0.473975 0.718627
821 4 0.367593 0.47553 0.707906
1242 4 0.343811 0.433079 0.749575
820 2 0.391941 0.492676 0.708827
1240 2 0.364538 0.425213 0.746692
4361 4 0.404238 0.423118 0.737138
4360 2 0.42496 0.435584 0.722777
4362 4 0.445682 0.44805 0.708416
4197 4 0.456195 0.445492 0.692138
4195 2 0.470665 0.453934 0.671565
2062 2 0.0196301 0.999784 0.763874
2064 4 0.0455532 0.0128579 0.761841
3438 4 0.117674 0.0310477 0.751261
3437 4 0.0651293 0.0208152 0.754202
3436 2 0.0914016 0.0259315 0.752732
3282 4 0.209813 0.0846945 0.793598