ITEM: TIMESTEP
2921500
ITEM: NUMBER OF ATOMS
4590
ITEM: BOX BOUNDS xy xz yz pp pp pp
-9.9985700000000008e+00 9.9985700000000008e+00 0.0000000000000000e+00
-9.9985700000000008e+00 9.9985700000000008e+00 0.0000000000000000e+00
-9.9985700000000008e+00 9.9985700000000008e+00 0.0000000000000000e+00
ITEM: ATOMS id type xs ys zs
1372 2 0.0684827 0.0832055 0.0779479
4161 4 0.0388873 0.023395 0.994512
581 4 0.12541 0.0242888 0.0951745
2889 4 0.440833 0.0596819 0.0445038
2887 2 0.463451 0.0694951 0.0486654
2464 2 0.0125659 0.0833151 0.0687627
1373 4 0.055803 0.094638 0.0596797
2465 4 0.0360631 0.0896058 0.0629756
21 1 0.324172 0.124364 0.0769889
22 3 0.314189 0.106234 0.0870293
24 3 0.308437 0.141257 0.0746622
23 3 0.332079 0.117975 0.0561306
354 4 0.289513 0.142111 0.0668337
2894 4 0.33245 0.101935 0.0422327
2893 2 0.352828 0.110696 0.0306921
2895 4 0.373206 0.119456 0.0191516
3347 4 0.387229 0.134508 0.0178798
3346 2 0.410746 0.140504 0.0118627
25 3 0.341441 0.131564 0.0899735
2888 4 0.486069 0.0793082 0.0528269
2783 4 0.493334 0.0882843 0.0366108
3348 4 0.434263 0.146501 0.00584548
1052 4 0.450921 0.156919 0.012839
1051 2 0.472055 0.164475 0.00181679
277 2 0.0570299 0.218406 0.0413085
278 4 0.0349442 0.224246 0.051472
279 4 0.0791156 0.212566 0.0311449
4470 4 0.0923218 0.204391 0.0431276
4468 2 0.113609 0.216276 0.0375753
4469 4 0.134895 0.228161 0.0320231
2877 4 0.258648 0.237818 0.0545927
743 4 0.218598 0.180394 0.0795348
742 2 0.236159 0.198193 0.0794129
2599 2 0.288147 0.216313 0.0805966
450 4 0.319079 0.23064 0.060633
2601 4 0.308996 0.214687 0.0668905
913 2 0.406096 0.212224 0.0778363
914 4 0.382113 0.21155 0.0707964
448 2 0.343671 0.228607 0.0646709
449 4 0.368263 0.226575 0.0687088
104 3 0.479375 0.250844 0.0285597
915 4 0.430079 0.212898 0.0848762
770 4 0.1265 0.321556 0.0269799
1119 4 0.117587 0.308791 0.0141123
769 2 0.139282 0.337199 0.0122462
1117 2 0.114256 0.289845 0.998138
2875 2 0.242749 0.25707 0.0559346
2876 4 0.226851 0.276322 0.0572765
3196 2 0.2053 0.287195 0.0230422
3198 4 0.214237 0.274093 0.0423722
103 3 0.444605 0.263671 0.0369831
105 3 0.471206 0.262006 0.0635788
2759 4 0.455212 0.3167 0.0825657
101 1 0.467266 0.26584 0.0414783
2835 4 0.461297 0.321818 0.0653042
2833 2 0.464008 0.322929 0.0404729
102 3 0.473879 0.287231 0.0362029
2834 4 0.46672 0.324041 0.0156415
3543 4 0.474328 0.392376 0.0308135
3541 2 0.483633 0.406992 0.0127864
1466 4 0.487701 0.395742 0.0464948
1465 2 0.500422 0.384488 0.0648445
1122 4 0.100846 0.411032 0.0829903
1121 4 0.148174 0.415493 0.0674659
3552 4 0.163995 0.417133 0.0786511
1120 2 0.12451 0.413263 0.0752281
242 4 0.308343 0.478548 0.0359722
1873 2 0.0458459 0.0575721 0.144074
1874 4 0.0655039 0.0722769 0.13933
1875 4 0.026188 0.0428673 0.148819
3768 4 0.00639815 0.0447961 0.146614
3677 4 0.0774738 0.0849896 0.131101
582 4 0.0849518 0.0531848 0.100543
580 2 0.105181 0.0387368 0.0978585
1374 4 0.0811625 0.071773 0.096216
333 4 0.142694 0.0890438 0.14014
331 2 0.162712 0.0831408 0.153909
692 4 0.221517 0.0770045 0.109206
2703 4 0.269317 0.00649112 0.101812
1273 2 0.321923 0.0722617 0.0966214
2701 2 0.287367 0.0232226 0.106221
2702 4 0.305418 0.039954 0.11063
1274 4 0.316706 0.0478475 0.0952385
2615 4 0.0594175 0.143007 0.0918903
2614 2 0.0621708 0.140087 0.11657
2616 4 0.064924 0.137167 0.141249
3676 2 0.102133 0.0818701 0.133819
3678 4 0.126793 0.0787505 0.136537
2517 4 0.121462 0.14489 0.142704
2515 2 0.134977 0.163161 0.132277
332 4 0.182731 0.0772378 0.167679
691 2 0.224525 0.100325 0.100703
693 4 0.227532 0.123646 0.0922001
353 4 0.243014 0.133218 0.0829418
352 2 0.266263 0.137665 0.0748878
1275 4 0.32714 0.0966759 0.0980043
2677 2 0.411369 0.104432 0.131935
2679 4 0.389086 0.11353 0.138711
810 4 0.339597 0.113734 0.100704
808 2 0.354434 0.115994 0.120701
809 4 0.369272 0.118253 0.140699
2678 4 0.433651 0.0953348 0.125159
506 4 0.442934 0.0871825 0.141941
505 2 0.46525 0.0970819 0.136541
650 4 0.993454 0.224323 0.149165
649 2 0.0178932 0.223834 0.154428
728 4 0.0121593 0.248938 0.0990711
651 4 0.042332 0.223344 0.15969
2516 4 0.148492 0.181432 0.121851
387 4 0.165544 0.186366 0.114372
385 2 0.18819 0.188831 0.104063
386 4 0.210836 0.191297 0.0937543
1198 2 0.226529 0.215754 0.159511
1199 4 0.244704 0.199817 0.153118
1200 4 0.208354 0.231692 0.165904
2454 4 0.198316 0.24776 0.172691
2519 4 0.294176 0.173931 0.176189
2518 2 0.274901 0.179116 0.16113
2520 4 0.255626 0.184301 0.14607
2600 4 0.267298 0.217939 0.0943027
520 2 0.330302 0.167066 0.153183
744 4 0.25372 0.215991 0.0792909
522 4 0.309796 0.162852 0.166856
521 4 0.350808 0.171279 0.13951
624 4 0.359067 0.189621 0.140393
622 2 0.38038 0.201874 0.144954
623 4 0.401693 0.214127 0.149516
491 4 0.478688 0.194106 0.151336
456 4 0.459875 0.195416 0.157343
455 4 0.418421 0.223362 0.156166
845 4 0.43962 0.226037 0.0970936
454 2 0.439148 0.209389 0.156755
844 2 0.443624 0.245304 0.11252
2538 4 0.0304626 0.249066 0.10933
2536 2 0.0546355 0.252065 0.114976
2537 4 0.0788084 0.255063 0.120621
286 2 0.0792803 0.338298 0.11801
2445 4 0.094238 0.26431 0.128192
2444 4 0.144013 0.260039 0.125954
767 4 0.15772 0.273516 0.123473
2443 2 0.119126 0.262174 0.127073
288 4 0.0894024 0.319714 0.131327
713 4 0.0987221 0.32416 0.147634
712 2 0.121312 0.326747 0.158035
714 4 0.143902 0.329334 0.168437
611 4 0.157533 0.329101 0.153547
766 2 0.180505 0.263484 0.125794
768 4 0.20329 0.253452 0.128114
2094 4 0.221768 0.264469 0.128837
610 2 0.180358 0.329373 0.143341
2092 2 0.24456 0.27167 0.121503
2093 4 0.267353 0.278872 0.114169
528 4 0.284192 0.277419 0.103959
526 2 0.306458 0.288791 0.103609
527 4 0.328724 0.300162 0.103259
2651 4 0.343568 0.299061 0.0898487
2650 2 0.368287 0.300675 0.093246
2652 4 0.393006 0.302288 0.0966434
2760 4 0.411171 0.306724 0.104049
2758 2 0.433192 0.311712 0.0933075
2476 2 0.473343 0.26397 0.154898
846 4 0.447628 0.264571 0.127946
2477 4 0.453111 0.253593 0.144496
287 4 0.0691581 0.356882 0.104692
252 4 0.0016253 0.337357 0.110217
250 2 0.0249522 0.345947 0.107523
251 4 0.0482791 0.354536 0.104829
3229 2 0.0768407 0.40801 0.102997
3230 4 0.0567871 0.393681 0.107211
2906 4 0.0417099 0.406917 0.108699
518 4 0.994309 0.335885 0.128996
612 4 0.203182 0.329645 0.133135
2799 4 0.204524 0.34904 0.132852
2798 4 0.227684 0.392175 0.122675
2797 2 0.216104 0.370607 0.127763
2592 4 0.325494 0.35044 0.140789
2590 2 0.330741 0.367957 0.123735
2591 4 0.335988 0.385474 0.106681
2862 4 0.342454 0.343401 0.147267
2728 2 0.484274 0.350442 0.145562
2730 4 0.482163 0.363808 0.124536
2729 4 0.486384 0.337077 0.166587
2905 2 0.0218128 0.421589 0.104957
2907 4 0.00191568 0.436262 0.101215
3231 4 0.0968943 0.422338 0.0987833
2161 2 0.0872418 0.47414 0.159596
2163 4 0.0938147 0.497286 0.152797
1673 4 0.0863522 0.501504 0.134417
3550 2 0.182338 0.432247 0.0864171
3551 4 0.20068 0.447361 0.0941831
3819 4 0.212927 0.433721 0.105394
3817 2 0.232151 0.442679 0.118638
3818 4 0.251374 0.451637 0.131882
4510 2 0.210604 0.495461 0.152415
677 4 0.270529 0.448469 0.127535
676 2 0.283229 0.439512 0.147122
1542 4 0.065362 0.0154712 0.160192
785 4 0.37677 0.989412 0.183791
2756 4 0.385123 0.0442207 0.21866
2755 2 0.399134 0.0644622 0.223039
786 4 0.37278 0.0300418 0.21267
784 2 0.374775 0.00972671 0.19823
2757 4 0.413144 0.0847037 0.227419
750 4 0.0330339 0.148634 0.185711
748 2 0.0189085 0.128179 0.183022
749 4 0.00478313 0.107723 0.180333
1477 2 0.0757654 0.15368 0.176068
1479 4 0.0513878 0.148157 0.176719
2930 4 0.116649 0.149282 0.170549
2929 2 0.134051 0.138325 0.184771
2931 4 0.151454 0.127367 0.198994
418 2 0.145438 0.11234 0.229289
419 4 0.159197 0.11118 0.208444
420 4 0.131679 0.113501 0.250134
2780 4 0.186252 0.0806433 0.187944
2779 2 0.20433 0.0977953 0.189992
2781 4 0.222407 0.114947 0.19204
1566 4 0.241806 0.119866 0.198016
1564 2 0.266312 0.124827 0.198155
1565 4 0.290818 0.129788 0.198295
458 4 0.298672 0.140043 0.213676
457 2 0.312241 0.153736 0.229601
606 4 0.429903 0.0896819 0.239325
604 2 0.43611 0.113886 0.238436
605 4 0.442318 0.138091 0.237548
2880 4 0.443216 0.146649 0.218638
2878 2 0.462915 0.148468 0.203345
2879 4 0.482613 0.150287 0.188052
3159 4 0.0431826 0.215734 0.177386
3157 2 0.0609674 0.222122 0.193759
3158 4 0.0787522 0.22851 0.210132
1478 4 0.100143 0.159202 0.175417
2777 4 0.15896 0.205615 0.18591
2778 4 0.115791 0.193027 0.207792
2776 2 0.137375 0.199321 0.196851
2453 4 0.155024 0.223276 0.17789
537 4 0.166779 0.208679 0.241655
579 4 0.0833826 0.244991 0.200458
510 4 0.213477 0.171626 0.233573
2452 2 0.17667 0.235518 0.175291
509 4 0.186412 0.213085 0.240609
508 2 0.199945 0.192356 0.237091
459 4 0.32581 0.167429 0.245525
1749 4 0.342251 0.173067 0.2358
730 2 0.411406 0.220767 0.215121
732 4 0.396163 0.219422 0.195347
731 4 0.426649 0.222112 0.234896
2673 4 0.49371 0.228621 0.219391
2672 4 0.446689 0.228848 0.236412
2671 2 0.470199 0.228735 0.227902
577 2 0.10349 0.257086 0.209095
578 4 0.123598 0.269181 0.217731
236 4 0.133812 0.284462 0.207828
235 2 0.153916 0.284587 0.222694
2968 2 0.213265 0.27158 0.224498
2969 4 0.193386 0.280387 0.236846
237 4 0.17402 0.284713 0.23756
2970 4 0.233143 0.262772 0.212149
2853 4 0.249883 0.272044 0.20921
2851 2 0.274511 0.271566 0.204917
2852 4 0.299139 0.271088 0.200624
2861 4 0.322872 0.333431 0.192188
3694 2 0.0212735 0.37416 0.241589
3696 4 0.0424679 0.365197 0.23181
3830 4 0.0627395 0.361571 0.230151
3829 2 0.064571 0.345546 0.211045
3695 4 7.90802e-05 0.383123 0.251369
3831 4 0.0664026 0.329521 0.191939
3935 4 0.0864989 0.390184 0.236039
3600 4 0.114801 0.403406 0.195878
3921 4 0.132974 0.405877 0.203839
3919 2 0.155862 0.410328 0.19481
3920 4 0.178749 0.41478 0.185781
2860 2 0.332663 0.338416 0.169728
1856 4 0.310808 0.392491 0.233652
4004 4 0.312412 0.395254 0.214066
4003 2 0.313078 0.408273 0.192729
337 2 0.405305 0.32921 0.246084
338 4 0.423936 0.336801 0.231236
291 4 0.443977 0.341717 0.227825
289 2 0.462906 0.35766 0.23139
2162 4 0.080669 0.450994 0.166395
3988 2 0.0233841 0.465206 0.237831
3599 4 0.0798115 0.432583 0.175255
3598 2 0.097306 0.417994 0.185566
4511 4 0.200091 0.479372 0.168409
1544 4 0.196446 0.481731 0.187218
1545 4 0.181061 0.434569 0.193524
1543 2 0.188753 0.45815 0.190371
4005 4 0.313743 0.421291 0.171392
678 4 0.295929 0.430555 0.16671
1611 4 0.0184377 0.0108118 0.257615
1785 4 0.00463163 0.0180479 0.270775
425 4 0.0412253 0.0583377 0.318104
1783 2 0.0155602 0.0404391 0.272866
1784 4 0.0264888 0.0628303 0.274958
424 2 0.0528098 0.038658 0.328287
1806 4 0.151444 0.988643 0.327047
2870 4 0.162569 0.00467127 0.323947
722 4 0.215294 0.0660695 0.316223
163 3 0.171872 0.0832464 0.312783
721 2 0.239567 0.0648017 0.322089
1057 2 0.298637 0.00457744 0.33958
723 4 0.26384 0.0635338 0.327955
1127 4 0.417516 0.0295532 0.27978
3810 4 0.424516 0.0469523 0.273441
3808 2 0.416857 0.0705108 0.276835
1126 2 0.42293 0.0138515 0.29847
1703 4 0.0827813 0.116095 0.25951
1702 2 0.0965613 0.113901 0.280257
257 4 0.136264 0.121315 0.26979
530 4 0.112966 0.0923856 0.307378
1704 4 0.110341 0.111707 0.301005
529 2 0.128969 0.0936821 0.326547
256 2 0.158061 0.12533 0.281363
165 3 0.208751 0.0855864 0.319998
164 3 0.190266 0.116183 0.308172
161 1 0.18893 0.0967709 0.320814
515 4 0.19973 0.135386 0.304142
514 2 0.213821 0.14837 0.320206
258 4 0.179859 0.129346 0.292936
516 4 0.227911 0.161355 0.336269
3809 4 0.409197 0.0940692 0.280229
589 2 0.0118093 0.200702 0.290414
591 4 0.0363551 0.20542 0.29107
404 4 0.0554498 0.202333 0.289521
403 2 0.0764637 0.213956 0.296486
405 4 0.0974776 0.225579 0.30345
536 4 0.149794 0.242236 0.274612
29 3 0.130505 0.24222 0.270767
535 2 0.158286 0.225457 0.258134
30 3 0.109263 0.242428 0.301853
726 4 0.154584 0.249311 0.292075
27 3 0.14106 0.26195 0.300966
1030 2 0.236797 0.233046 0.310247
725 4 0.200527 0.249714 0.311818
724 2 0.177556 0.249512 0.301947
1031 4 0.212864 0.23752 0.30456
1395 4 0.276732 0.22253 0.304895
1189 2 0.326354 0.168978 0.328379
1032 4 0.260731 0.228572 0.315934
1393 2 0.295762 0.22959 0.290292
2753 4 0.330626 0.246028 0.283918
1394 4 0.314791 0.23665 0.27569
1747 2 0.364392 0.171625 0.247327
1748 4 0.386534 0.170182 0.258855
180 3 0.404281 0.179837 0.257476
1191 4 0.348872 0.177387 0.335266
400 2 0.385842 0.182529 0.321634
401 4 0.403714 0.185511 0.304404
2788 2 0.405437 0.238218 0.291386
179 3 0.413656 0.170888 0.292827
177 3 0.40649 0.206567 0.283429
178 3 0.43791 0.190214 0.270858
285 4 0.453279 0.181289 0.281358
2789 4 0.421529 0.219964 0.285636
283 2 0.475979 0.17921 0.291632
176 1 0.415551 0.186766 0.276013
2700 4 0.0164298 0.269642 0.321919
716 4 0.0609784 0.302578 0.258179
715 2 0.0843495 0.294808 0.262494
2698 2 0.0302464 0.289703 0.327559
479 4 0.0603209 0.298418 0.329478
26 1 0.122947 0.254946 0.288636
28 3 0.111534 0.273578 0.280825
717 4 0.107721 0.287039 0.266809
374 4 0.223275 0.320431 0.297924
373 2 0.207203 0.328207 0.315428
2790 4 0.389345 0.256471 0.297135
2754 4 0.372704 0.263446 0.304576
2752 2 0.351665 0.254737 0.294247
2554 2 0.395069 0.334085 0.303499
2555 4 0.397977 0.341142 0.327309
339 4 0.386674 0.321619 0.260932
2556 4 0.39216 0.327028 0.279689
3405 4 0.0091991 0.383354 0.270291
261 4 0.0970175 0.407361 0.292715
3936 4 0.0930007 0.419509 0.27602
3934 2 0.0897498 0.404847 0.256029
259 2 0.100276 0.395581 0.314528
375 4 0.191131 0.335984 0.332931
1855 2 0.312208 0.399608 0.257581
1857 4 0.313608 0.406725 0.28151
290 4 0.481835 0.373602 0.234955
3989 4 0.0459602 0.475923 0.237009
2826 4 0.0695096 0.501135 0.26508
1676 4 0.0820314 0.488627 0.275386
1675 2 0.106951 0.487666 0.277196
1677 4 0.131871 0.486705 0.279007
4025 4 0.147697 0.47519 0.275193
2690 4 0.244534 0.480392 0.335657
4024 2 0.172323 0.475858 0.279468
2530 2 0.214448 0.495337 0.323671
4026 4 0.19695 0.476526 0.283743
2532 4 0.1896 0.494059 0.321193
1188 4 0.325203 0.45788 0.297536
1187 4 0.281695 0.433395 0.300422
1186 2 0.303449 0.445638 0.298979
1802 4 0.340781 0.463758 0.309156
1803 4 0.389664 0.45347 0.311466
669 4 0.394332 0.435926 0.320002
1801 2 0.365222 0.458614 0.310311
667 2 0.418302 0.443043 0.320092
668 4 0.442271 0.45016 0.320182
1435 2 0.486138 0.450304 0.324539
1436 4 0.461584 0.454732 0.326163
426 4 0.0643943 0.0189783 0.33847
2645 4 0.0699163 0.0088 0.35555
2869 2 0.166472 0.0133046 0.347086
2644 2 0.089162 0.0152605 0.370146
2646 4 0.108408 0.021721 0.384742
2663 4 0.126147 0.0299641 0.38925
2662 2 0.144749 0.0455316 0.395317
2664 4 0.163352 0.0610992 0.401385
2871 4 0.170375 0.021938 0.370225
1967 4 0.183073 0.0593664 0.403717
1058 4 0.297455 0.0159338 0.361825
1349 4 0.312925 0.0588867 0.374557
1348 2 0.297811 0.0595006 0.354649
1350 4 0.282696 0.0601146 0.33474
4125 4 0.295426 0.0200535 0.408719
2502 4 0.277475 0.0299076 0.412194
706 2 0.39208 0.0556498 0.359679
708 4 0.377449 0.0425601 0.375164
618 4 0.346263 0.0018102 0.39585
617 4 0.357797 0.042801 0.36963
616 2 0.35203 0.0223056 0.38274
707 4 0.406711 0.0687395 0.344195
3031 2 0.0248604 0.155248 0.400743
3033 4 0.0350558 0.159715 0.378354
2685 4 0.053393 0.160709 0.386382
2892 4 0.116852 0.0918542 0.419293
636 4 0.129837 0.097329 0.405694
531 4 0.144971 0.0949786 0.345716
635 4 0.152272 0.105779 0.361808
634 2 0.141054 0.101554 0.383751
765 4 0.112732 0.153291 0.410402
162 3 0.184304 0.102408 0.342631
2483 4 0.245808 0.161575 0.342535
2482 2 0.270416 0.164795 0.339492
2713 2 0.397035 0.107789 0.378259
2715 4 0.372234 0.107872 0.381434
684 4 0.371729 0.102244 0.399975
2714 4 0.421837 0.107706 0.375083
3080 4 0.334864 0.164831 0.407571
1953 4 0.448481 0.157396 0.364902
1951 2 0.469068 0.163135 0.37788
2955 4 0.440326 0.174174 0.358946
2683 2 0.0775382 0.155422 0.390156
2684 4 0.101683 0.150134 0.39393
763 2 0.132457 0.1685 0.412583
1190 4 0.303837 0.160569 0.321492
2484 4 0.295024 0.168015 0.336449
8 3 0.261792 0.221601 0.334778
7 3 0.242176 0.20658 0.363103
6 1 0.258063 0.222303 0.35767
10 3 0.277358 0.217638 0.368831
9 3 0.250254 0.24328 0.363784
402 4 0.367971 0.179547 0.338864
2957 4 0.350741 0.17503 0.401224
2956 2 0.349119 0.195843 0.387463
2958 4 0.347498 0.216657 0.373703
2180 4 0.353428 0.234718 0.369606
2179 2 0.37438 0.24804 0.372562
2954 4 0.432328 0.209026 0.323987
2817 4 0.496759 0.186944 0.396586
1952 4 0.489655 0.168874 0.390858
2953 2 0.436327 0.1916 0.341466
2699 4 0.0440631 0.309765 0.3332
478 2 0.0829407 0.301108 0.339789
480 4 0.10556 0.303797 0.350099
3462 4 0.108344 0.297843 0.369394
3460 2 0.109626 0.311655 0.390197
3461 4 0.110909 0.325466 0.411
410 4 0.19394 0.340748 0.409216
1034 4 0.190562 0.320376 0.408621
1033 2 0.189501 0.296134 0.41465
3318 4 0.320801 0.299836 0.333522
3316 2 0.330634 0.283071 0.349253
584 4 0.285285 0.273567 0.426926
585 4 0.258771 0.311189 0.407373
583 2 0.272028 0.292378 0.41715
3317 4 0.340467 0.266306 0.364983
2181 4 0.395332 0.261362 0.375518
569 4 0.369175 0.316353 0.37919
568 2 0.38585 0.322998 0.361783
570 4 0.402524 0.329643 0.344375
894 4 0.360152 0.326472 0.393027
2495 4 0.40973 0.286707 0.419617
364 2 0.445104 0.295755 0.400109
365 4 0.465608 0.307912 0.392562
2612 4 0.000483349 0.329092 0.358926
593 4 0.154301 0.351734 0.359791
260 4 0.103535 0.3838 0.33634
594 4 0.119803 0.386488 0.349657
592 2 0.137052 0.369111 0.354724
411 4 0.155631 0.352409 0.379261
409 2 0.174785 0.346578 0.394238
893 4 0.357089 0.371674 0.414195
892 2 0.35862 0.349073 0.403611
547 2 0.492984 0.381838 0.37287
549 4 0.470941 0.376683 0.383486
812 4 0.475728 0.378027 0.402476
1419 4 0.1519 0.452491 0.357983
1417 2 0.16676 0.463969 0.341472
1418 4 0.18162 0.475448 0.324962
4322 4 0.298843 0.487194 0.368126
2691 4 0.288702 0.495741 0.353387
445 2 0.315302 0.433677 0.41827
4321 2 0.309181 0.464937 0.372918
2689 2 0.266618 0.488067 0.344522
447 4 0.312114 0.445567 0.396505
4323 4 0.31952 0.442681 0.377709
1644 4 0.419997 0.47363 0.41791
2899 2 0.0543114 0.00696416 0.430255
2900 4 0.0694488 0.0146153 0.448626
3797 4 0.0729178 0.0248922 0.464948
2580 4 0.0718967 0.0830413 0.456205
3796 2 0.096665 0.0180037 0.468662
3798 4 0.120412 0.0111152 0.472376
1966 2 0.204232 0.0593464 0.417041
1968 4 0.22539 0.0593264 0.430364
220 3 0.216177 0.0469933 0.480057
218 3 0.215457 0.0643697 0.446662
219 3 0.247894 0.0496784 0.459945
216 1 0.228008 0.0601482 0.465717
217 3 0.232845 0.0801403 0.476015
2501 4 0.243217 0.0531555 0.440242
2500 2 0.260346 0.0415316 0.426218
4339 2 0.273501 0.0445991 0.497553
4551 4 0.302531 0.0614503 0.475938
4340 4 0.282662 0.0586196 0.478987
4549 2 0.326883 0.0669693 0.477254
4550 4 0.351235 0.0724883 0.47857
88 3 0.346688 0.00911052 0.480725
2504 4 0.361697 0.0561146 0.483422
3396 4 0.362012 0.000785232 0.451552
3394 2 0.360813 0.994427 0.427399
3032 4 0.0146651 0.15078 0.423133
2578 2 0.0610795 0.087757 0.478249
2891 4 0.0871674 0.0959098 0.459332
2890 2 0.10201 0.093882 0.439312
2558 4 0.223076 0.0958421 0.468097
2557 2 0.240124 0.11337 0.462868
2559 4 0.257172 0.130898 0.457639
1061 4 0.270423 0.119219 0.4488
1060 2 0.294867 0.115887 0.444726
1062 4 0.31931 0.112556 0.440651
641 4 0.306493 0.165483 0.461174
3081 4 0.325702 0.163928 0.456724
3079 2 0.330283 0.164379 0.432148
2319 4 0.32667 0.130639 0.521186
683 4 0.331698 0.116209 0.426494
682 2 0.351713 0.109226 0.413235
3327 4 0.0109585 0.218506 0.494796
3325 2 0.0265695 0.199233 0.497973
3326 4 0.0421805 0.179961 0.50115
2802 4 0.157308 0.20237 0.419284
764 4 0.152183 0.18371 0.414764
3237 4 0.111912 0.178214 0.500886
937 2 0.229606 0.183421 0.454049
2800 2 0.181302 0.195518 0.420864
2801 4 0.205297 0.188666 0.422445
938 4 0.215681 0.197088 0.438414
939 4 0.243531 0.169754 0.469685
642 4 0.26016 0.179012 0.474251
640 2 0.283327 0.172248 0.467712
3496 2 0.319269 0.23606 0.487213
3497 4 0.331826 0.215426 0.480753
312 4 0.0969936 0.318045 0.422516
310 2 0.0960053 0.333939 0.441794
1035 4 0.18844 0.271891 0.420679
1237 2 0.176073 0.319769 0.497567
1238 4 0.172927 0.331188 0.475546
2527 2 0.323073 0.267606 0.421222
2529 4 0.300418 0.27486 0.413519
3455 4 0.263786 0.328215 0.417227
366 4 0.4246 0.283598 0.407657
2528 4 0.345728 0.260352 0.428925
2494 2 0.387706 0.274889 0.420287
2496 4 0.365682 0.263071 0.420957
3594 4 0.383459 0.331259 0.484656
3056 4 0.46908 0.318526 0.409669
3055 2 0.493228 0.322586 0.414724
311 4 0.0950171 0.349833 0.461071
662 4 0.227983 0.369487 0.460387
661 2 0.206725 0.357363 0.46552
3456 4 0.235022 0.358281 0.444965
663 4 0.185468 0.345239 0.470652
3454 2 0.249404 0.343248 0.431096
2560 2 0.314922 0.397761 0.470215
2562 4 0.307815 0.391877 0.493453
2561 4 0.32203 0.403645 0.446976
346 2 0.371828 0.389305 0.49075
267 4 0.399311 0.390121 0.472567
347 4 0.386734 0.404747 0.477923
811 2 0.458622 0.368835 0.418226
265 2 0.419435 0.382063 0.460106
813 4 0.441517 0.359644 0.433977
266 4 0.439559 0.374004 0.447645
4251 4 0.48919 0.369 0.476065
4043 4 0.474568 0.371923 0.488872
1173 4 0.0597096 0.492842 0.465546
1171 2 0.0371629 0.482737 0.469386
1172 4 0.0146163 0.472633 0.473226
3421 2 0.131972 0.492272 0.49546
560 4 0.0875389 0.442238 0.441187
2549 4 0.107964 0.426811 0.486524
1451 4 0.166932 0.416373 0.457213
559 2 0.0930656 0.457097 0.460522
1450 2 0.143003 0.417106 0.464427
1452 4 0.119074 0.417838 0.471641
3422 4 0.11782 0.475198 0.483911
561 4 0.0985923 0.471957 0.479857
2648 4 0.212754 0.456505 0.500636
2926 2 0.189875 0.445497 0.465534
2928 4 0.206883 0.454872 0.481284
2927 4 0.172868 0.436122 0.449784
446 4 0.31849 0.421788 0.440034
2961 4 0.387232 0.498291 0.476725
4058 4 0.399556 0.473775 0.416776
4057 2 0.38014 0.468473 0.431612
4059 4 0.360724 0.463172 0.446447
1642 2 0.431432 0.490217 0.432719
2315 4 0.0807064 0.0775394 0.54541
2314 2 0.058006 0.0687297 0.551089
2316 4 0.0353057 0.05992 0.556768
2553 4 0.143794 0.0617478 0.551546
4325 4 0.146967 0.999565 0.538003
2195 4 0.132516 0.0726753 0.564144
4324 2 0.166492 0.0114733 0.527896
2551 2 0.163192 0.0770346 0.547644
4326 4 0.186016 0.0233819 0.517789
917 4 0.200766 0.0303113 0.505506
762 4 0.202487 0.0882978 0.546649
916 2 0.224271 0.0250782 0.512237
918 4 0.247776 0.0198452 0.518967
1143 4 0.303896 0.0283869 0.522602
1141 2 0.318679 0.0144181 0.508058
4341 4 0.264341 0.0305785 0.516119
2505 4 0.376605 0.0290067 0.522712
2503 2 0.369151 0.0425606 0.503067
574 2 0.413924 0.00527678 0.51981
3621 4 0.448224 0.0143989 0.546968
3619 2 0.470817 0.0248487 0.549319
3620 4 0.493411 0.0352985 0.55167
576 4 0.431295 0.00729423 0.537681
982 2 0.043572 0.135475 0.505507
983 4 0.0474025 0.110992 0.508833
2579 4 0.0502624 0.0924728 0.500293
984 4 0.0397415 0.159958 0.50218
2196 4 0.0868313 0.0921074 0.558139
2194 2 0.109674 0.0823913 0.561142
2174 4 0.127356 0.124719 0.59119
2552 4 0.18259 0.0923215 0.543741
760 2 0.226154 0.0936965 0.55264
761 4 0.249822 0.0990951 0.558631
319 2 0.199661 0.148107 0.517197
320 4 0.21991 0.134879 0.523535
321 4 0.179413 0.161336 0.510858
3002 4 0.186697 0.137147 0.588607
3062 4 0.201858 0.124127 0.589162
3021 4 0.260518 0.115029 0.568694
3019 2 0.285501 0.115598 0.567863
3020 4 0.310484 0.116168 0.567031
1107 4 0.326591 0.110535 0.575775
2317 2 0.309117 0.148389 0.522617
1105 2 0.346518 0.112718 0.59072
2244 4 0.482954 0.133025 0.56563
2242 2 0.461601 0.134047 0.5786
965 4 0.0485307 0.178526 0.552762
2322 4 0.0652561 0.171356 0.54279
964 2 0.0573964 0.166535 0.572831
2320 2 0.0804251 0.180807 0.525304
2321 4 0.0955941 0.190258 0.507818
3235 2 0.13544 0.170762 0.504896
3236 4 0.158968 0.163309 0.508906
1283 4 0.195062 0.216523 0.570192
1282 2 0.208544 0.200227 0.556854
1284 4 0.222025 0.183931 0.543516
2603 4 0.23509 0.178112 0.555826
2318 4 0.291565 0.166138 0.524047
2602 2 0.256409 0.169011 0.546452
2604 4 0.277728 0.159911 0.537078
3419 4 0.0813521 0.252015 0.565657
3353 4 0.00748735 0.335261 0.584351
3418 2 0.0994574 0.267008 0.557135
3420 4 0.117563 0.282 0.548613
890 4 0.127024 0.27391 0.533397
889 2 0.149757 0.281612 0.526394
891 4 0.172491 0.289314 0.519391
1239 4 0.179219 0.30835 0.519587
3498 4 0.306712 0.256695 0.493673
3445 2 0.0336434 0.35678 0.548508
3446 4 0.0219164 0.348108 0.528199
3447 4 0.0453704 0.365452 0.568817
2847 4 0.210428 0.38586 0.58118
2845 2 0.22836 0.373163 0.569244
2846 4 0.246291 0.360467 0.557308
212 3 0.221069 0.409292 0.511787
3044 4 0.254607 0.368365 0.541446
3043 2 0.276676 0.37939 0.537373
1641 4 0.31372 0.400134 0.541389
3045 4 0.298745 0.390415 0.5333
1639 2 0.330694 0.414748 0.530274
3592 2 0.402607 0.343721 0.494815
348 4 0.356922 0.373864 0.503578
4042 2 0.455981 0.362711 0.502831
4044 4 0.437394 0.353499 0.516791
3593 4 0.421755 0.356184 0.504974
3962 4 0.0851891 0.488948 0.568956
4179 4 0.0849757 0.472954 0.581077
2548 2 0.110863 0.43268 0.510656
2550 4 0.113763 0.438548 0.534788
4177 2 0.0931665 0.454901 0.565839
4178 4 0.101357 0.436849 0.550601
211 1 0.216566 0.425519 0.527457
213 3 0.198426 0.418763 0.540251
1445 4 0.204137 0.423352 0.55836
214 3 0.235217 0.428265 0.540985
215 3 0.211727 0.445072 0.51683
2647 2 0.234453 0.468886 0.499598
1488 4 0.260142 0.483476 0.517336
2649 4 0.256151 0.481267 0.498559
1486 2 0.273607 0.485319 0.538324
325 2 0.319225 0.476029 0.57919
1487 4 0.287072 0.487161 0.559312
327 4 0.295235 0.475374 0.572174
1442 4 0.350939 0.493963 0.579437
1640 4 0.347667 0.429362 0.51916
1911 4 0.363097 0.434626 0.530721
1909 2 0.387123 0.428674 0.53426
1910 4 0.411149 0.422722 0.537799
2959 2 0.387987 0.50174 0.501478
326 4 0.343215 0.476685 0.586207
3453 4 0.41689 0.442007 0.532695
3451 2 0.441349 0.438997 0.528466
3452 4 0.465808 0.435986 0.524237
1698 4 0.478929 0.448849 0.530832
4371 4 0.115592 0.0631098 0.654099
3308 4 0.219934 0.0655026 0.640893
3309 4 0.214224 0.0200759 0.661007
3307 2 0.217079 0.0427892 0.65095
4284 4 0.199123 0.0248965 0.674875
3049 2 0.281695 0.00305859 0.636554
3050 4 0.275605 0.0262531 0.643634
270 4 0.263264 0.0421708 0.646217
268 2 0.280444 0.0584297 0.638112
269 4 0.297624 0.0746886 0.630008
2281 2 0.39856 0.0646202 0.621657
2282 4 0.375523 0.062764 0.631198
3083 4 0.359574 0.073822 0.639715
3082 2 0.335282 0.0679995 0.638631
2283 4 0.421597 0.0664764 0.612116
2977 2 0.447056 0.0656019 0.648043
2978 4 0.464141 0.0606909 0.665627
1086 4 0.483201 0.0544911 0.661808
2979 4 0.429972 0.0705128 0.630459
966 4 0.066262 0.154543 0.592901
3298 2 0.0136039 0.136891 0.652736
3300 4 0.0381336 0.138857 0.648308
3360 4 0.0585482 0.14164 0.648892
4369 2 0.11381 0.0868912 0.661613
2175 4 0.082599 0.1463 0.585546
4370 4 0.112028 0.110673 0.669128
3003 4 0.136974 0.142392 0.587686
2173 2 0.104977 0.135509 0.588368
3001 2 0.161835 0.139769 0.588147
3061 2 0.216763 0.142502 0.59725
3063 4 0.231668 0.160876 0.605338
3084 4 0.310991 0.0621771 0.637548
3385 2 0.397186 0.13557 0.590089
3387 4 0.373097 0.132179 0.595867
1106 4 0.366445 0.114901 0.605664
2243 4 0.440249 0.135069 0.591571
3386 4 0.421276 0.138961 0.58431
3126 4 0.22583 0.172062 0.663059
3125 4 0.246865 0.169431 0.617766
3124 2 0.236347 0.170747 0.640413
3238 2 0.0409639 0.27221 0.618092
3239 4 0.0171056 0.265342 0.621059
3240 4 0.0648223 0.279078 0.615125
3093 4 0.0748356 0.266778 0.627864
3091 2 0.0973267 0.277668 0.627005
3092 4 0.119818 0.288558 0.626147
3435 4 0.13804 0.283039 0.636179
82 3 0.122804 0.307574 0.624605
81 1 0.124409 0.33048 0.625962
3433 2 0.159412 0.271449 0.642017
84 3 0.103225 0.339292 0.629431
383 4 0.193716 0.258003 0.662737
3434 4 0.180784 0.259858 0.647855
382 2 0.217059 0.25829 0.671691
904 2 0.0658634 0.345063 0.611469
905 4 0.0425252 0.353401 0.60816
2721 4 0.0542168 0.383792 0.56602
2719 2 0.0770954 0.390685 0.573387
906 4 0.0892016 0.336724 0.614778
83 3 0.133195 0.338576 0.606071
85 3 0.138071 0.336026 0.643319
2720 4 0.0999739 0.397577 0.580755
3221 4 0.101019 0.410167 0.597001
3220 2 0.125952 0.408471 0.59782
3222 4 0.150884 0.406775 0.598639
3491 4 0.162135 0.401602 0.616119
3380 4 0.223395 0.346869 0.656604
1298 4 0.214237 0.328474 0.660796
3490 2 0.184321 0.397828 0.627014
3492 4 0.206507 0.394054 0.637909
3379 2 0.247756 0.345229 0.651215
1040 4 0.275753 0.356086 0.630213
3381 4 0.272117 0.343588 0.645826
1039 2 0.300137 0.352066 0.626408
1041 4 0.32452 0.348047 0.622602
998 4 0.338727 0.360562 0.632624
997 2 0.355881 0.346924 0.644663
999 4 0.373036 0.333287 0.656702
1821 4 0.0176482 0.501088 0.602555
1444 2 0.199805 0.43461 0.580262
1446 4 0.195472 0.445867 0.602163
3118 2 0.231276 0.485143 0.650583
3120 4 0.210422 0.496741 0.643113
4302 4 0.192647 0.49611 0.652678
3119 4 0.25213 0.473546 0.658052
1205 4 0.320735 0.484225 0.654776
1204 2 0.296455 0.478254 0.654712
877 2 0.442984 0.46633 0.623637
878 4 0.426348 0.45479 0.608966
879 4 0.459621 0.477871 0.638308
1081 2 0.01817 0.0505374 0.729084
1082 4 0.0426052 0.0556518 0.727686
1023 4 0.0561655 0.0657902 0.714993
1021 2 0.0803332 0.0721969 0.714713
1022 4 0.104501 0.0786036 0.714432
2256 4 0.122854 0.0704145 0.716269
2254 2 0.14734 0.0727051 0.72078
4282 2 0.181502 0.00870519 0.682123
2255 4 0.171826 0.0749957 0.72529
1004 4 0.192806 0.0738943 0.723698
1085 4 0.488323 0.0685094 0.709537
1084 2 0.485762 0.0615003 0.685672
3357 4 0.486272 0.0801003 0.727309
3358 2 0.0786033 0.132989 0.661063
3359 4 0.0986584 0.124338 0.673233
954 4 0.138497 0.168459 0.743046
952 2 0.160414 0.170733 0.731228
3293 4 0.128381 0.159619 0.727775
3292 2 0.105824 0.169535 0.723529
3008 4 0.229685 0.156493 0.673508
1003 2 0.203961 0.0897198 0.707877
1005 4 0.215117 0.105545 0.692056
3007 2 0.231325 0.13478 0.685797
3009 4 0.232964 0.113067 0.698086
3146 4 0.247679 0.167593 0.735332
1076 4 0.24232 0.185028 0.72546
2628 4 0.403717 0.128393 0.734808
3441 4 0.38563 0.1279 0.727245
3439 2 0.366335 0.131035 0.742836
3355 2 0.469609 0.0982685 0.723133
2626 2 0.425235 0.131847 0.722549
2627 4 0.446752 0.135301 0.710291
3356 4 0.452945 0.116437 0.718957
3294 4 0.0832661 0.17945 0.719283
1134 4 0.000326957 0.236617 0.717339
1075 2 0.219257 0.182288 0.716198
953 4 0.182331 0.173007 0.719411
1077 4 0.196194 0.179547 0.706935
1132 2 0.00109202 0.260155 0.725737
384 4 0.240403 0.258576 0.680644
794 4 0.241885 0.32008 0.701573
3383 4 0.316701 0.274121 0.692967
793 2 0.257113 0.325469 0.720659
3382 2 0.328729 0.268619 0.714186
795 4 0.27234 0.330858 0.739745
3384 4 0.340757 0.263117 0.735405
921 4 0.360665 0.266889 0.740301
919 2 0.385567 0.264694 0.740824
920 4 0.410469 0.2625 0.741346