ITEM: TIMESTEP
312000
ITEM: NUMBER OF ATOMS
4590
ITEM: BOX BOUNDS xy xz yz pp pp pp
-9.9985700000000008e+00 1.4797883600000006e+01 4.7993136000000050e+00
-9.9985700000000008e+00 9.9985700000000008e+00 0.0000000000000000e+00
-9.9985700000000008e+00 9.9985700000000008e+00 0.0000000000000000e+00
ITEM: ATOMS id type xs ys zs
3903 4 0.0327518 0.0674517 0.0240433
2885 4 0.0518088 0.0721002 0.0222291
3901 2 0.00840247 0.0653835 0.0221473
2884 2 0.0755532 0.0760369 0.0218676
2886 4 0.0992975 0.0799737 0.0215062
1662 4 0.139928 0.0399033 0.0278132
2688 4 0.12 0.0789088 0.0261282
1660 2 0.160431 0.0356209 0.0428973
1661 4 0.180935 0.0313384 0.0579813
1475 4 0.186638 0.0117599 0.0618598
2252 4 0.166042 0.00520637 0.0233148
2465 4 0.364783 0.0130424 0.0148115
2882 4 0.332543 0.0781172 0.00891306
2464 2 0.38987 0.00963833 0.00985903
2466 4 0.414958 0.00623423 0.00490655
2467 2 0.439389 6.37353e-05 0.0383687
2468 4 0.431899 0.00453468 0.01462
1652 4 0.450316 0.00591448 0.0780471
2440 2 0.112258 0.142312 0.0157207
2442 4 0.101359 0.126307 0.00340168
2686 2 0.142808 0.0840937 0.0216799
2441 4 0.123157 0.158317 0.0280397
1253 4 0.142038 0.15472 0.0353183
2687 4 0.165616 0.0892786 0.0172316
1252 2 0.166508 0.156531 0.0365973
2708 4 0.185383 0.0920019 0.0238516
1254 4 0.190979 0.158343 0.0378764
2707 2 0.207042 0.0996862 0.0275604
2709 4 0.2287 0.10737 0.0312693
2670 4 0.247956 0.104338 0.0246256
2668 2 0.265786 0.116603 0.0311968
2669 4 0.283617 0.128869 0.037768
2883 4 0.321324 0.120162 0.035963
2881 2 0.326933 0.0991395 0.022438
25 3 0.331695 0.134149 0.0402566
21 1 0.352064 0.140304 0.0421246
24 3 0.348257 0.163441 0.0419877
22 3 0.365899 0.13185 0.0242835
23 3 0.363075 0.131799 0.0617617
2894 4 0.379812 0.135771 0.070952
2893 2 0.398954 0.144526 0.080815
3285 4 0.0394619 0.200874 0.0483642
3284 4 0.036964 0.247917 0.0628707
3283 2 0.0382129 0.224395 0.0556175
2729 4 0.059257 0.190089 0.0435498
2728 2 0.0844085 0.184471 0.0487478
2730 4 0.10956 0.178853 0.0539458
2753 4 0.121472 0.189516 0.0457194
2752 2 0.132716 0.201945 0.0620993
2638 2 0.147454 0.236285 0.0142059
2754 4 0.143959 0.214375 0.0784793
2640 4 0.169748 0.23 0.00181067
2639 4 0.12516 0.242571 0.0266012
2975 4 0.3541 0.177479 0.0524033
2974 2 0.359015 0.193329 0.0696643
2976 4 0.36393 0.209179 0.0869254
461 4 0.000406293 0.326392 0.0241946
2829 4 0.0569547 0.248828 0.0610401
460 2 0.0250509 0.325578 0.0190221
2827 2 0.0770065 0.259377 0.0590662
969 4 0.069318 0.323244 0.00617392
665 4 0.0900762 0.256231 0.00667088
462 4 0.0496955 0.324763 0.0138496
2828 4 0.0970583 0.269925 0.0570922
3215 4 0.114477 0.275575 0.0603316
3214 2 0.136408 0.283268 0.0595621
3216 4 0.15834 0.290962 0.0587927
4305 4 0.177887 0.293657 0.0585885
4303 2 0.200196 0.299715 0.0634643
4304 4 0.222506 0.305773 0.0683401
2486 4 0.244034 0.30526 0.0669246
2485 2 0.266876 0.310867 0.0698779
2487 4 0.289718 0.316473 0.0728311
2747 4 0.309817 0.316791 0.0692154
2746 2 0.332395 0.323046 0.0717148
2840 4 0.388851 0.314376 0.0337468
2748 4 0.354973 0.329301 0.0742142
2839 2 0.412181 0.299182 0.036373
2841 4 0.43551 0.283988 0.0389992
309 4 0.446655 0.271499 0.0525893
307 2 0.46861 0.277732 0.0586208
308 4 0.490565 0.283965 0.0646523
2652 4 0.490568 0.300312 0.0767733
3727 2 0.00872936 0.380727 0.0777359
3543 4 0.0374189 0.400335 0.0753266
967 2 0.0834338 0.335526 0.0197081
968 4 0.0975496 0.347808 0.0332422
3542 4 0.0861328 0.403367 0.0821862
3541 2 0.0617759 0.401851 0.0787564
2563 2 0.276467 0.404948 0.0098984
1121 4 0.373002 0.335091 0.0741785
4051 2 0.339392 0.3919 0.0207844
4052 4 0.314461 0.391854 0.0225415
2564 4 0.295979 0.405536 0.025344
4053 4 0.364322 0.391947 0.0190273
1120 2 0.396738 0.338985 0.0730062
1122 4 0.420474 0.342879 0.0718339
1071 4 0.440697 0.347752 0.0695858
1069 2 0.463583 0.353197 0.0663918
1070 4 0.48647 0.358643 0.0631979
1742 4 0.0903308 0.422227 0.0797004
2401 2 0.314201 0.487368 0.0068308
2403 4 0.322782 0.501578 0.0235481
2767 2 0.0169309 0.0716473 0.139569
2768 4 0.00592611 0.0541137 0.130277
2733 4 0.0534524 0.0439924 0.168757
1474 2 0.188541 0.0031278 0.0853254
249 4 0.321684 0.0165549 0.156938
405 4 0.334236 0.0283299 0.15675
403 2 0.35507 0.0378529 0.156642
2181 4 0.391452 0.0570879 0.15968
404 4 0.375903 0.0473758 0.156534
2179 2 0.409952 0.0492521 0.142722
2180 4 0.428452 0.0414162 0.125764
1651 2 0.442088 0.0286106 0.0881627
1653 4 0.433859 0.0513067 0.0982784
1749 4 0.44841 0.0376002 0.132577
1747 2 0.47322 0.0362746 0.137432
1748 4 0.49803 0.034949 0.142287
2769 4 0.0279356 0.0891808 0.14886
699 4 0.031962 0.103136 0.16186
623 4 0.0937331 0.162908 0.104337
357 4 0.105095 0.154353 0.0883912
723 4 0.124445 0.112904 0.158033
2520 4 0.104246 0.118749 0.164733
355 2 0.129818 0.155224 0.090064
721 2 0.147019 0.11942 0.157773
356 4 0.154541 0.156095 0.0917369
722 4 0.169594 0.125936 0.157513
759 4 0.180552 0.13779 0.149385
757 2 0.176869 0.142836 0.125021
758 4 0.173187 0.147881 0.100657
2895 4 0.418096 0.153281 0.0906781
3809 4 0.465102 0.110657 0.155266
3808 2 0.487301 0.0964819 0.146845
2600 4 0.43251 0.161668 0.09872
622 2 0.0879099 0.176128 0.125394
624 4 0.0820867 0.189348 0.146451
506 4 0.0960318 0.187827 0.161188
2786 4 0.152303 0.208636 0.095796
2785 2 0.150648 0.22751 0.111942
2787 4 0.148992 0.246384 0.128087
2599 2 0.44781 0.17176 0.113186
2601 4 0.46311 0.181853 0.127651
378 4 0.469784 0.192677 0.143338
376 2 0.458868 0.206917 0.162474
524 4 0.0011721 0.294959 0.118286
288 4 0.00544229 0.309239 0.129824
286 2 0.0298038 0.311407 0.128656
287 4 0.0541653 0.313576 0.127487
252 4 0.0675421 0.32423 0.118542
250 2 0.0927454 0.323272 0.119312
251 4 0.117949 0.322314 0.120081
350 4 0.135579 0.323341 0.127186
349 2 0.15986 0.322447 0.120464
351 4 0.184141 0.321553 0.113743
297 4 0.203592 0.324498 0.116235
295 2 0.224989 0.332236 0.111281
2567 4 0.289979 0.275135 0.128752
2566 2 0.298228 0.283664 0.149882
296 4 0.246387 0.339974 0.106327
108 3 0.402355 0.287594 0.115347
109 3 0.429388 0.259247 0.100128
106 1 0.425673 0.277627 0.114274
110 3 0.433829 0.271166 0.135089
107 3 0.437092 0.292866 0.10593
3729 4 0.0246684 0.394243 0.0863696
2534 4 0.217827 0.337036 0.144298
1743 4 0.139297 0.413538 0.0947804
741 4 0.179574 0.424126 0.148936
2533 2 0.202684 0.344464 0.164084
902 4 0.266505 0.343527 0.101829
901 2 0.287663 0.351823 0.106353
903 4 0.308821 0.360119 0.110878
2513 4 0.329928 0.361997 0.111816
2512 2 0.352458 0.367667 0.107095
2514 4 0.374987 0.373338 0.102375
2445 4 0.392634 0.382891 0.100256
2443 2 0.415638 0.38753 0.0955614
2444 4 0.438641 0.392169 0.0908667
766 2 0.481556 0.401481 0.0892878
767 4 0.459912 0.393674 0.0926286
1741 2 0.114814 0.417882 0.0872404
315 4 0.0612403 0.501667 0.135773
739 2 0.204222 0.420892 0.14224
1863 4 0.189482 0.484571 0.164287
740 4 0.22887 0.417659 0.135545
1861 2 0.210817 0.481714 0.150481
1862 4 0.232152 0.478858 0.136674
1787 4 0.23837 0.492861 0.127019
587 4 0.229905 0.432658 0.148603
586 2 0.253369 0.43625 0.153132
1786 2 0.262814 0.485933 0.134647
588 4 0.276833 0.439842 0.157662
1788 4 0.287258 0.479004 0.142275
3818 4 0.332018 0.457147 0.156063
3817 2 0.313509 0.445177 0.161033
626 4 0.302105 0.489723 0.138933
625 2 0.324044 0.496471 0.133971
3552 4 0.402908 0.430886 0.159046
504 4 0.363197 0.494456 0.118507
1568 4 0.412177 0.433965 0.141595
1567 2 0.433174 0.439696 0.132013
1569 4 0.454171 0.445426 0.122431
3404 4 0.469355 0.438389 0.109175
3403 2 0.488987 0.447317 0.117623
128 3 0.999053 0.0269231 0.179137
2547 4 0.0100255 0.0336461 0.210016
2732 4 0.0150031 0.0285946 0.190836
2545 2 0.0167238 0.0387017 0.23319
2731 2 0.0342277 0.0362935 0.179796
1806 4 0.0723182 0.999808 0.179116
689 4 0.224318 0.0109815 0.216351
688 2 0.24931 0.00336967 0.221884
248 4 0.298029 0.0256571 0.201175
393 4 0.310448 0.0286603 0.216939
247 2 0.309857 0.021106 0.179057
391 2 0.327832 0.0372706 0.230081
392 4 0.345217 0.0458809 0.243223
428 4 0.364809 0.0454716 0.245397
427 2 0.389716 0.045796 0.244485
1868 4 0.43183 0.0493543 0.251289
429 4 0.414623 0.0461204 0.243574
697 2 0.0166366 0.106913 0.181935
2519 4 0.0735669 0.0896543 0.18009
2518 2 0.0889063 0.104202 0.172411
604 2 0.108001 0.137339 0.238172
606 4 0.116058 0.148744 0.218715
731 4 0.136127 0.145373 0.225881
730 2 0.160456 0.133996 0.220475
732 4 0.184785 0.122618 0.215068
581 4 0.196959 0.113031 0.228982
580 2 0.218831 0.120033 0.233611
582 4 0.240703 0.127035 0.238241
750 4 0.258784 0.117219 0.244005
748 2 0.26984 0.135591 0.237042
749 4 0.280896 0.153964 0.230079
2780 4 0.443609 0.0874142 0.213397
2779 2 0.449462 0.0985436 0.192693
2781 4 0.455315 0.109673 0.171989
2790 4 0.0296745 0.204525 0.168645
2788 2 0.00680388 0.200297 0.174712
505 2 0.115474 0.189341 0.176375
507 4 0.134916 0.190854 0.191562
578 4 0.15242 0.18081 0.202161
577 2 0.170404 0.189054 0.214758
579 4 0.188389 0.197299 0.227355
236 4 0.199563 0.208982 0.219247
235 2 0.220388 0.211492 0.231885
237 4 0.241214 0.214003 0.244523
457 2 0.278051 0.186518 0.241435
459 4 0.293975 0.164465 0.236355
458 4 0.262127 0.208571 0.246515
2516 4 0.399305 0.168884 0.243524
333 4 0.384524 0.167862 0.230543
331 2 0.384295 0.186087 0.213934
332 4 0.384066 0.204311 0.197325
630 4 0.394857 0.214812 0.208239
628 2 0.411726 0.224329 0.195288
629 4 0.428596 0.233847 0.182337
377 4 0.447952 0.221157 0.18161
497 4 0.278901 0.290065 0.228925
275 4 0.275654 0.292888 0.248424
496 2 0.287322 0.286286 0.205378
498 4 0.295742 0.282507 0.181832
2568 4 0.306477 0.292193 0.171011
299 4 0.436008 0.285969 0.235659
298 2 0.461307 0.276634 0.23315
2463 4 0.420996 0.288032 0.248806
300 4 0.486607 0.2673 0.230641
2526 4 0.00329501 0.378494 0.183238
2524 2 0.019697 0.382547 0.200755
2525 4 0.036099 0.386601 0.218272
2862 4 0.0500613 0.383075 0.233206
2860 2 0.0721404 0.390417 0.234899
2705 4 0.0767905 0.363998 0.19357
2861 4 0.0942195 0.39776 0.236592
2704 2 0.102475 0.359315 0.193556
3990 4 0.115445 0.390115 0.235314
2706 4 0.12816 0.354632 0.193543
2493 4 0.136897 0.342925 0.207394
3988 2 0.136726 0.398928 0.234904
2491 2 0.161839 0.341343 0.202994
2492 4 0.186781 0.339761 0.198593
2535 4 0.187541 0.351892 0.18387
3989 4 0.158006 0.40774 0.234494
3551 4 0.431163 0.402224 0.194007
519 4 0.4462 0.35882 0.201316
4007 4 0.439006 0.409172 0.209892
3550 2 0.417035 0.416555 0.176527
517 2 0.47061 0.36091 0.200854
518 4 0.49502 0.363001 0.200391
1437 4 0.998117 0.471629 0.197595
1435 2 0.0180931 0.482042 0.200998
1436 4 0.0380696 0.492456 0.204402
645 4 0.0425824 0.493914 0.224177
643 2 0.0581127 0.480673 0.241418
1471 2 0.113882 0.459067 0.236207
1473 4 0.132455 0.457971 0.219215
303 4 0.174922 0.477705 0.171098
3602 4 0.169732 0.420132 0.235737
302 4 0.144962 0.463192 0.205328
301 2 0.159942 0.470448 0.188213
3601 2 0.187383 0.433411 0.239564
3603 4 0.205034 0.44669 0.243392
3696 4 0.224142 0.451122 0.243095
3819 4 0.295 0.433206 0.166003
362 4 0.492395 0.437705 0.180774
4006 2 0.457883 0.420016 0.216693
4008 4 0.476759 0.430859 0.223493
3723 4 0.00633334 0.0682101 0.306189
3721 2 0.0209388 0.0539899 0.288936
2546 4 0.0234221 0.0437572 0.256364
3722 4 0.0355443 0.0397697 0.271682
1867 2 0.45448 0.0551261 0.255054
1869 4 0.47713 0.060898 0.25882
2850 4 0.495781 0.0660041 0.263353
27 3 0.0516319 0.160231 0.272444
28 3 0.0625779 0.128587 0.292447
605 4 0.0999429 0.125933 0.257629
26 1 0.0700107 0.143016 0.277903
29 3 0.078632 0.131737 0.258507
30 3 0.0865559 0.151553 0.287905
546 4 0.104757 0.153477 0.292314
1031 4 0.151637 0.129206 0.285222
1030 2 0.165076 0.115187 0.30331
1032 4 0.178514 0.101168 0.321397
544 2 0.122119 0.165598 0.30052
2945 4 0.36696 0.13478 0.297881
2944 2 0.388628 0.121756 0.287313
2946 4 0.410297 0.108731 0.276744
2678 4 0.426228 0.116643 0.273053
2677 2 0.449421 0.121866 0.272509
1376 4 0.451102 0.104841 0.328532
2870 4 0.469338 0.112271 0.32137
2679 4 0.472614 0.127089 0.271965
2837 4 0.491703 0.11722 0.265762
2869 2 0.491292 0.119013 0.316463
531 4 0.160331 0.175077 0.311061
545 4 0.139482 0.177718 0.308726
529 2 0.179555 0.184654 0.319442
2515 2 0.390597 0.172548 0.266986
2517 4 0.381888 0.176211 0.290448
2657 4 0.397478 0.180802 0.300108
2656 2 0.419563 0.181101 0.311692
2658 4 0.441647 0.181401 0.323275
2663 4 0.45686 0.17277 0.334376
344 4 0.0157367 0.312368 0.293632
2654 4 0.0316502 0.300806 0.305122
2653 2 0.0452722 0.31762 0.299581
2655 4 0.0588943 0.334434 0.294041
387 4 0.186011 0.263221 0.293891
385 2 0.198914 0.279912 0.286102
276 4 0.229403 0.291295 0.26641
386 4 0.211818 0.296603 0.278312
274 2 0.252528 0.292092 0.257417
2462 4 0.39098 0.256559 0.258743
2620 2 0.387836 0.312367 0.329242
2461 2 0.405988 0.272296 0.253774
2622 4 0.410087 0.318395 0.324018
2853 4 0.429426 0.317638 0.328862
2851 2 0.453801 0.309415 0.321397
2852 4 0.478176 0.301193 0.313931
2450 4 0.48181 0.303687 0.293819
2449 2 0.494171 0.308652 0.273401
366 4 0.343138 0.375712 0.263764
364 2 0.365741 0.382157 0.263096
365 4 0.388343 0.388601 0.262428
752 4 0.0105742 0.435279 0.27074
667 2 0.00763618 0.47041 0.321774
4 3 0.0279314 0.441357 0.270175
1 1 0.0450115 0.449411 0.28076
5 3 0.0357046 0.463672 0.297512
3 3 0.0559431 0.460358 0.26544
2 3 0.0609086 0.431673 0.28965
1472 4 0.0953084 0.460162 0.253198
644 4 0.0736429 0.467431 0.258658
1383 4 0.103651 0.489851 0.293638
1381 2 0.12692 0.492866 0.287278
2598 4 0.139868 0.438364 0.325374
264 4 0.157348 0.485545 0.26367
262 2 0.181762 0.487595 0.26285
1382 4 0.150189 0.49588 0.280918
263 4 0.206176 0.489645 0.262031
3694 2 0.242224 0.436712 0.257366
3695 4 0.260307 0.422303 0.271637
1386 4 0.221064 0.495371 0.27089
230 4 0.413544 0.47491 0.278019
231 4 0.363696 0.478681 0.268478
229 2 0.38862 0.476795 0.273248
1659 4 0.422295 0.478396 0.260562
1745 4 0.475935 0.491689 0.270975
1657 2 0.440201 0.49129 0.264792
4354 2 0.0321478 0.0171167 0.34557
4356 4 0.0557837 0.0208546 0.348626
4355 4 0.00851186 0.0133787 0.342513
1184 4 0.0356579 0.014025 0.412218
2817 4 0.0746946 0.0288224 0.351364
2815 2 0.0969839 0.0350418 0.355937
2816 4 0.119273 0.0412613 0.360511
2714 4 0.136634 0.0501248 0.356709
983 4 0.13574 0.0154007 0.408834
2713 2 0.158208 0.0580928 0.353532
2715 4 0.179781 0.0660608 0.350355
3477 4 0.199273 0.0709439 0.350841
3475 2 0.223025 0.0741939 0.347268
3476 4 0.246778 0.0774439 0.343695
1523 4 0.373825 0.0401125 0.409791
1522 2 0.379055 0.0447996 0.386067
1524 4 0.384284 0.0494868 0.362343
2643 4 0.404704 0.0473348 0.36027
2641 2 0.429945 0.0446613 0.356678
2642 4 0.455186 0.0419879 0.353086
480 4 0.475383 0.0387094 0.3609
478 2 0.494456 0.0506081 0.362551
4239 4 0.0149947 0.106075 0.391133
4237 2 0.0401076 0.105542 0.390328
4238 4 0.0652204 0.105009 0.389523
2559 4 0.0703379 0.0869262 0.397209
2557 2 0.0933075 0.0858202 0.407624
1244 4 0.265842 0.085111 0.343054
1243 2 0.290091 0.0876886 0.342699
1245 4 0.314341 0.0902662 0.342344
2667 4 0.333886 0.0941099 0.33868
2665 2 0.358871 0.0941392 0.339466
1375 2 0.427927 0.10083 0.333676
2666 4 0.383855 0.0941685 0.340252
1377 4 0.404752 0.0968186 0.338819
1199 4 0.109863 0.172158 0.355634
1198 2 0.108788 0.196575 0.358102
1200 4 0.107713 0.220993 0.360569
2766 4 0.125878 0.226188 0.358663
2764 2 0.142124 0.241316 0.35979
2586 4 0.162972 0.21095 0.41391
530 4 0.198779 0.194232 0.327823
3158 4 0.210194 0.197432 0.343903
2484 4 0.23413 0.221916 0.391735
2482 2 0.2316 0.243093 0.378689
3157 2 0.234563 0.187617 0.350553
2684 4 0.226157 0.213791 0.40698
3159 4 0.258933 0.177803 0.357203
2683 2 0.202397 0.215318 0.415673
651 4 0.275726 0.169804 0.369027
649 2 0.29935 0.172793 0.373898
650 4 0.322975 0.175781 0.378769
2503 2 0.319904 0.223695 0.408394
2504 4 0.29625 0.223006 0.415964
1191 4 0.341262 0.17661 0.386515
2505 4 0.343559 0.224384 0.400824
2822 4 0.3575 0.235117 0.403731
1189 2 0.363516 0.180613 0.394896
1190 4 0.385769 0.184617 0.403278
2821 2 0.374394 0.249548 0.405319
2664 4 0.501527 0.17917 0.352405
2662 2 0.479194 0.17597 0.343391
717 4 0.999038 0.269982 0.386419
715 2 0.0181491 0.281877 0.385323
716 4 0.0372599 0.293773 0.384227
2700 4 0.072496 0.332113 0.350472
2765 4 0.15837 0.256444 0.360916
2802 4 0.157288 0.275656 0.358826
2800 2 0.182629 0.273948 0.359649
2483 4 0.22907 0.26427 0.365643
2801 4 0.207971 0.272239 0.360473
118 3 0.222749 0.326617 0.401815
489 4 0.207759 0.318678 0.407906
117 3 0.251699 0.307704 0.380389
116 1 0.246153 0.316947 0.401189
1951 2 0.29456 0.278056 0.406692
1952 4 0.307 0.278414 0.385055
2682 4 0.32255 0.285924 0.37535
2680 2 0.342223 0.288573 0.361007
2681 4 0.361895 0.291222 0.346663
2823 4 0.391289 0.263978 0.406907
2621 4 0.365586 0.306339 0.334466
2543 4 0.410625 0.266289 0.409559
2699 4 0.0229745 0.346645 0.363525
2698 2 0.0477353 0.339379 0.356998
3642 4 0.0141047 0.397003 0.390978
3640 2 0.0378694 0.400879 0.390413
3641 4 0.061634 0.404755 0.389849
2904 4 0.0901657 0.336752 0.350876
2712 4 0.0810469 0.405691 0.394299
2902 2 0.108983 0.344311 0.362808
2903 4 0.1278 0.351871 0.374741
2874 4 0.143914 0.358972 0.375273
2872 2 0.154476 0.378435 0.371484
2597 4 0.173849 0.40492 0.351992
2873 4 0.165038 0.397897 0.367694
120 3 0.258279 0.332776 0.404997
873 4 0.280021 0.335935 0.404339
2924 4 0.297782 0.337372 0.390263
2923 2 0.320159 0.340038 0.380865
2925 4 0.342535 0.342704 0.371467
585 4 0.357767 0.350247 0.367639
583 2 0.376955 0.361477 0.363149
584 4 0.396144 0.372707 0.358659
668 4 0.0274255 0.467722 0.337631
374 4 0.0454323 0.460752 0.349149
2710 2 0.100761 0.415834 0.399933
373 2 0.0614317 0.464902 0.367013
375 4 0.077431 0.469053 0.384876
435 4 0.0814844 0.483973 0.397884
433 2 0.104249 0.489035 0.402836
1757 4 0.113332 0.495677 0.352861
2711 4 0.120476 0.425977 0.405566
2826 4 0.135937 0.436061 0.411238
2596 2 0.156858 0.421642 0.338683
1756 2 0.138813 0.486743 0.35374
1758 4 0.164293 0.477809 0.354619
2824 2 0.160112 0.43815 0.407792
2825 4 0.184288 0.440239 0.404346
776 4 0.180423 0.485587 0.350122
3593 4 0.204166 0.433426 0.402502
434 4 0.127014 0.494098 0.407787
615 4 0.145062 0.50047 0.412878
613 2 0.170174 0.499942 0.413686
3592 2 0.225678 0.441837 0.401635
3594 4 0.24719 0.450248 0.400768
2562 4 0.258391 0.447623 0.385642
2560 2 0.274174 0.463213 0.384684
614 4 0.195286 0.499414 0.414495
2561 4 0.289957 0.478804 0.383725
813 4 0.303498 0.425488 0.415282
2960 4 0.356373 0.461111 0.403402
2649 4 0.414244 0.459628 0.404996
2959 2 0.380304 0.457349 0.412387
2647 2 0.438147 0.463157 0.405358
2648 4 0.462051 0.466686 0.40572
2589 4 0.481339 0.46775 0.398305
2114 4 0.0176217 0.0147892 0.420503
1183 2 0.0558652 0.0148052 0.426662
1185 4 0.0760724 0.0155855 0.441106
218 3 0.12781 0.0800671 0.434703
982 2 0.138844 0.0296232 0.428339
984 4 0.141948 0.0438458 0.447843
216 1 0.143816 0.0786352 0.451762
217 3 0.150406 0.0567788 0.458808
2455 2 0.199182 0.0789467 0.466961
2457 4 0.177279 0.0760924 0.456627
2456 4 0.221086 0.081801 0.477295
3850 2 0.257736 0.082481 0.495805
3851 4 0.282095 0.0738332 0.503142
3326 4 0.298399 0.0788785 0.496853
1058 4 0.389904 0.0392928 0.422138
1057 2 0.406482 0.0494901 0.434757
1059 4 0.42306 0.0596873 0.447375
1152 4 0.439912 0.0567295 0.459242
842 4 0.491935 0.0107569 0.447358
1150 2 0.464776 0.0531336 0.453224
1151 4 0.489639 0.0495377 0.447205
683 4 0.489737 0.00307658 0.427891
371 4 0.0256869 0.145901 0.497614
2196 4 0.0722403 0.107063 0.490466
2194 2 0.0973565 0.105192 0.486831
2195 4 0.122473 0.10332 0.483196
2558 4 0.116277 0.0847143 0.418039
219 3 0.134101 0.0918937 0.469649
220 3 0.162606 0.085336 0.444166
2553 4 0.136699 0.113239 0.490339
2551 2 0.158178 0.121 0.485851
2552 4 0.179657 0.12876 0.481362
762 4 0.198246 0.121124 0.47481
760 2 0.219457 0.129226 0.479642
3852 4 0.233377 0.0911288 0.488467
761 4 0.240668 0.137329 0.484473
3173 4 0.257288 0.132749 0.471418
3172 2 0.280313 0.128957 0.460386
3174 4 0.303339 0.125164 0.449354
2901 4 0.306167 0.129725 0.430118
2899 2 0.331613 0.12742 0.429672
2900 4 0.357059 0.125115 0.429226
320 4 0.471921 0.155018 0.477438
319 2 0.461685 0.157735 0.500372
2611 2 0.0166394 0.178613 0.43455
2613 4 0.0391978 0.182395 0.44231
938 4 0.0583962 0.18333 0.445417
937 2 0.0819084 0.187247 0.441963
939 4 0.105421 0.191164 0.43851
472 2 0.104692 0.175212 0.500044
2585 4 0.122379 0.195347 0.430982
2584 2 0.142675 0.203148 0.422446
2685 4 0.178637 0.216846 0.424367
724 2 0.165821 0.190368 0.493073
474 4 0.129227 0.176364 0.497173
2498 4 0.20107 0.208132 0.480527
2497 2 0.20524 0.228139 0.468511
725 4 0.183013 0.201972 0.483507
2499 4 0.209411 0.248147 0.456495
10 3 0.249627 0.189775 0.490554
8 3 0.211682 0.191603 0.493299
368 4 0.265177 0.197437 0.49437
367 2 0.289872 0.198476 0.492987
369 4 0.314566 0.199515 0.491605
3462 4 0.335019 0.195941 0.490093
1394 4 0.390404 0.190185 0.42158
1393 2 0.412777 0.194302 0.429487
1395 4 0.435149 0.198419 0.437394
410 4 0.440116 0.199199 0.457366
409 2 0.461706 0.203276 0.467327
411 4 0.483296 0.207354 0.477288
3060 4 0.0209754 0.272328 0.447722
306 4 0.0405053 0.27637 0.4471
304 2 0.062618 0.28375 0.446554
305 4 0.0847307 0.291129 0.446008
453 4 0.100667 0.300829 0.438994
451 2 0.121732 0.309644 0.43581
452 4 0.142797 0.318458 0.432626
488 4 0.161176 0.31991 0.426793
2930 4 0.226248 0.25648 0.456149
487 2 0.184468 0.319294 0.41735
119 3 0.251683 0.300193 0.417171
2929 2 0.24683 0.263024 0.446577
696 4 0.259961 0.300798 0.489915
1953 4 0.282121 0.277699 0.428329
2931 4 0.267412 0.269568 0.437005
3057 4 0.2759 0.303335 0.499455
2810 4 0.370843 0.269259 0.496045
2809 2 0.393015 0.269868 0.484788
2811 4 0.415186 0.270478 0.47353
2542 2 0.418289 0.267379 0.433248
2544 4 0.425953 0.268469 0.456938
4177 2 0.0301168 0.392021 0.498774
4178 4 0.0511189 0.398609 0.490302
3072 4 0.070132 0.403992 0.492699
3070 2 0.0905343 0.413679 0.488849
3331 2 0.179489 0.361665 0.495785
2511 4 0.221396 0.364837 0.479614
3332 4 0.202524 0.364594 0.488497
871 2 0.279579 0.356981 0.417027
2509 2 0.240935 0.374376 0.472017
2510 4 0.260474 0.383915 0.46442
872 4 0.279137 0.378028 0.429714
408 4 0.277339 0.391528 0.466796
812 4 0.29848 0.379929 0.428347
811 2 0.300989 0.402708 0.421814
406 2 0.302215 0.382054 0.471753
407 4 0.32709 0.37258 0.476711
2549 4 0.34213 0.377896 0.465467
2548 2 0.36502 0.383355 0.462342
2550 4 0.387909 0.388815 0.459218
325 2 0.0107672 0.496652 0.495838
593 4 0.0125936 0.428714 0.447397
592 2 0.0337571 0.432279 0.458694
594 4 0.0549206 0.435844 0.469991
326 4 0.999896 0.492677 0.474169
3071 4 0.110937 0.423366 0.484999
3453 4 0.12587 0.423421 0.471952
2928 4 0.182059 0.447227 0.47593
3452 4 0.173166 0.431755 0.473026
3451 2 0.149518 0.427588 0.472489
2926 2 0.206352 0.449044 0.472719
2958 4 0.249216 0.44023 0.460814
2927 4 0.230646 0.450861 0.469509
2956 2 0.273897 0.441203 0.458953
2957 4 0.298579 0.442177 0.457092
2961 4 0.404235 0.453588 0.421371
4042 2 0.476125 0.462092 0.473235
4043 4 0.460096 0.466668 0.453708
663 4 0.455607 0.48624 0.450021
4044 4 0.492153 0.457515 0.492763
3023 4 0.00792382 0.026422 0.559965
2507 4 0.0315195 0.0756562 0.551119
3022 2 0.0298693 0.0330342 0.565227
2506 2 0.0541863 0.0706308 0.539314
3024 4 0.0518148 0.0396465 0.570489
89 3 0.010137 0.0782119 0.557222
2508 4 0.0768532 0.0656053 0.527509
2996 4 0.0671676 0.0443106 0.580081
3325 2 0.313575 0.0666252 0.51489
3327 4 0.32875 0.0543718 0.532928
944 4 0.337104 0.0422574 0.548251
943 2 0.36074 0.0378818 0.538457
945 4 0.384375 0.0335062 0.528663
3033 4 0.394837 0.0476592 0.53157
3031 2 0.404306 0.068063 0.529986
1162 2 0.451187 0.996834 0.576345
1967 4 0.488082 0.00854808 0.509765
575 4 0.020957 0.0941306 0.563459
574 2 0.0259337 0.116641 0.560184
576 4 0.0309105 0.139152 0.556908
2241 4 0.0342254 0.153468 0.544846
1263 4 0.0824727 0.0837885 0.528643
1261 2 0.0971923 0.0948181 0.542854
1262 4 0.111912 0.105848 0.557064
372 4 0.0674481 0.162891 0.508145
3308 4 0.124266 0.100897 0.573586
370 2 0.0465675 0.154396 0.50288
1141 2 0.255256 0.143148 0.532652
1142 4 0.266706 0.118868 0.530646
1143 4 0.243806 0.167428 0.534658
2502 4 0.287287 0.115686 0.530206
2500 2 0.311299 0.118 0.534242
2501 4 0.335311 0.120314 0.538278
900 4 0.332574 0.139908 0.53239
3032 4 0.413774 0.0884667 0.528402
898 2 0.355067 0.141374 0.522333
899 4 0.37756 0.14284 0.512275
640 2 0.410933 0.159638 0.526894
641 4 0.388349 0.155047 0.520329
321 4 0.45145 0.160453 0.523305
642 4 0.433517 0.164228 0.533459
2239 2 0.0102587 0.167589 0.543324
473 4 0.080157 0.17406 0.502915
726 4 0.14863 0.178765 0.502638
6 1 0.232046 0.189806 0.505039
7 3 0.236684 0.170084 0.516879
9 3 0.229848 0.207484 0.519929
917 4 0.260949 0.172001 0.540694
916 2 0.279592 0.184151 0.544268
3267 4 0.298245 0.228524 0.575941
3265 2 0.315711 0.239058 0.565244
918 4 0.298236 0.1963 0.547842
1077 4 0.279504 0.223556 0.580382
3460 2 0.356041 0.197455 0.502959
3266 4 0.333178 0.249592 0.554547
3461 4 0.377064 0.198969 0.515824
1211 4 0.408023 0.205642 0.546288
3111 4 0.354444 0.252898 0.551125
1210 2 0.424582 0.215369 0.559463
1212 4 0.441141 0.225097 0.572639
1258 2 0.480023 0.22966 0.582911
3419 4 0.00630249 0.30998 0.583481
347 4 0.00848028 0.31275 0.563621
346 2 0.0318171 0.315432 0.570171
83 3 0.0743962 0.274076 0.573656
348 4 0.0551539 0.318115 0.576722
1279 2 0.0909618 0.334156 0.576395
1640 4 0.124131 0.335869 0.559413
934 2 0.197254 0.333936 0.543324
695 4 0.214288 0.305498 0.51215
935 4 0.209404 0.323612 0.522707
694 2 0.237124 0.303148 0.501033
142 3 0.253365 0.270862 0.561058
3080 4 0.254485 0.258185 0.545087
3079 2 0.273806 0.258244 0.529234
3081 4 0.293128 0.258302 0.513381
3498 4 0.313523 0.259998 0.512807
3055 2 0.29465 0.315278 0.503363
3496 2 0.335495 0.267607 0.511849
3056 4 0.313401 0.327221 0.507271
3106 2 0.357563 0.317443 0.577654
3109 2 0.375997 0.260933 0.548089
3108 4 0.379614 0.324925 0.578372
3497 4 0.357467 0.275216 0.510891
3107 4 0.335512 0.30996 0.576935
3110 4 0.39755 0.268969 0.545052
889 2 0.418634 0.327898 0.511945
2813 4 0.415076 0.271767 0.539281
891 4 0.443368 0.327677 0.507948
2812 2 0.440611 0.268435 0.537792
2814 4 0.466147 0.265102 0.536303
890 4 0.3939 0.328119 0.515941
3165 4 0.389755 0.305799 0.581293
1239 4 0.461192 0.332254 0.510157
2963 4 0.483177 0.270194 0.52718
2846 4 0.0165422 0.336676 0.519725
261 4 0.0351671 0.332558 0.511343
259 2 0.0562544 0.340855 0.516216
4179 4 0.00911462 0.385433 0.507247
260 4 0.0773416 0.349151 0.521089
1280 4 0.109639 0.345929 0.571474
2637 4 0.0912024 0.354899 0.510431
1639 2 0.147127 0.339011 0.566574
2635 2 0.115141 0.35824 0.511822
2636 4 0.13908 0.36158 0.513212
3333 4 0.156454 0.358736 0.503073
1641 4 0.170122 0.342153 0.573735
936 4 0.185104 0.344259 0.56394
266 4 0.32665 0.338996 0.510651
265 2 0.350994 0.339066 0.516285
267 4 0.375337 0.339137 0.521919
2720 4 0.32009 0.410526 0.587045
1136 4 0.388069 0.378148 0.538158
1135 2 0.407927 0.382447 0.525108
1137 4 0.427785 0.386747 0.512057
774 4 0.424291 0.392329 0.578314
540 4 0.441318 0.39041 0.525125
1237 2 0.48482 0.336152 0.512736
538 2 0.461213 0.397511 0.514722
539 4 0.481109 0.404611 0.504319
2214 4 0.00817395 0.461898 0.573152
2212 2 0.0304021 0.464871 0.563664
327 4 0.0216379 0.500628 0.517507
2213 4 0.0526302 0.467843 0.554175
3369 4 0.107862 0.430529 0.579018
3367 2 0.131024 0.432185 0.570809
1910 4 0.0912564 0.423167 0.581651
3368 4 0.154186 0.433841 0.562599
240 4 0.163583 0.448822 0.558136
238 2 0.184619 0.45559 0.566255
239 4 0.205654 0.462358 0.574374
336 4 0.224334 0.463421 0.565167
334 2 0.246336 0.464108 0.553621
335 4 0.268338 0.464796 0.542075
2995 2 0.0876343 0.0505604 0.590259
2997 4 0.108101 0.0568102 0.600437
3309 4 0.124563 0.0640311 0.606274
953 4 0.41363 0.0254542 0.644798
952 2 0.433757 0.0125454 0.631815
1164 4 0.44406 0.000425445 0.600283
2307 4 0.496523 0.0525317 0.645005
1257 4 0.0264016 0.16291 0.612734
1255 2 0.00167295 0.164265 0.60746
3125 4 0.109306 0.0914117 0.661497
3307 2 0.124414 0.0824643 0.58993
1129 2 0.353343 0.160403 0.619072
1131 4 0.374747 0.156364 0.632902
858 4 0.389718 0.158535 0.620993
856 2 0.412076 0.16447 0.625932
857 4 0.434433 0.170405 0.630871
904 2 0.00431541 0.242004 0.658648
1155 4 0.0421776 0.171891 0.617309
1153 2 0.0648146 0.176139 0.610416
82 3 0.0670483 0.24767 0.596637
1154 4 0.0874516 0.180386 0.603523
1283 4 0.10684 0.184814 0.605469
3356 4 0.0821467 0.239181 0.639647
2627 4 0.102518 0.236372 0.63468
1282 2 0.130607 0.18854 0.603706
2626 2 0.127089 0.23796 0.634454
1284 4 0.154374 0.192266 0.601942
1106 4 0.167642 0.201511 0.592817
2628 4 0.15166 0.239548 0.634228
1105 2 0.19147 0.205229 0.592316
1076 4 0.235362 0.211088 0.591501
1107 4 0.215299 0.208946 0.591815
1130 4 0.331938 0.164441 0.605242
1075 2 0.257433 0.217322 0.585941
1259 4 0.454496 0.232624 0.583668
2318 4 0.441041 0.169963 0.610649
2317 2 0.460036 0.179068 0.600972
2319 4 0.479032 0.188173 0.591295
1082 4 0.462906 0.240512 0.652464
950 4 0.495016 0.173245 0.589297
3380 4 0.00179932 0.308786 0.667931
905 4 0.0169784 0.259073 0.651372
3355 2 0.0585128 0.249931 0.647792
3357 4 0.0348789 0.260681 0.655936
84 3 0.0447425 0.282532 0.59835
1281 4 0.0722851 0.322382 0.581316
81 1 0.0669663 0.269992 0.594893
85 3 0.0813448 0.275252 0.610589
807 4 0.109567 0.306544 0.638995
805 2 0.103411 0.293318 0.619937
806 4 0.0972539 0.280091 0.60088
978 4 0.114333 0.30924 0.657699
3441 4 0.156341 0.253559 0.622574
976 2 0.0945735 0.328402 0.663003
145 3 0.22542 0.281994 0.586162
3439 2 0.175335 0.265481 0.620253
3440 4 0.19433 0.277403 0.617932
896 4 0.20407 0.290799 0.609449
895 2 0.209405 0.310622 0.620868
897 4 0.21474 0.330445 0.632286
1085 4 0.226618 0.327557 0.649588
141 1 0.248521 0.274234 0.583452
143 3 0.255911 0.254074 0.594652
144 3 0.259993 0.289778 0.591556
3383 4 0.27962 0.284975 0.598463
3382 2 0.300544 0.292753 0.591735
1084 2 0.246246 0.329906 0.664146
3384 4 0.321468 0.300531 0.585007
3163 2 0.408052 0.291345 0.595307
3164 4 0.426348 0.276891 0.60932
1083 4 0.441814 0.278246 0.621935
1081 2 0.45236 0.259379 0.6372
3379 2 0.000526275 0.332093 0.659975
4213 2 0.0107548 0.397883 0.608517
4560 4 0.00997767 0.370413 0.646545
4214 4 0.0324126 0.401771 0.598532
4558 2 0.0342987 0.366086 0.654569
1911 4 0.0462543 0.413447 0.594522
879 4 0.185825 0.399766 0.628631
877 2 0.204779 0.403166 0.613706
878 4 0.223734 0.406566 0.598782