ITEM: TIMESTEP
2844000
ITEM: NUMBER OF ATOMS
4590
ITEM: BOX BOUNDS xy xz yz pp pp pp
-9.9985700000000008e+00 9.9985700000000008e+00 0.0000000000000000e+00
-9.9985700000000008e+00 9.9985700000000008e+00 0.0000000000000000e+00
-9.9985700000000008e+00 9.9985700000000008e+00 0.0000000000000000e+00
ITEM: ATOMS id type xs ys zs
4161 4 0.0188453 0.0486927 0.999705
2335 2 0.0510383 0.0683636 0.997661
4159 2 0.999903 0.0325259 0.00194755
2336 4 0.030138 0.0634376 0.0104705
2465 4 0.0317982 0.0637608 0.0615037
2464 2 0.00880626 0.0611135 0.0520411
1373 4 0.0506324 0.0651844 0.0670424
1372 2 0.0628632 0.0629376 0.0887349
2889 4 0.429355 0.0830552 0.0633586
353 4 0.253074 0.149533 0.0784631
693 4 0.233236 0.15031 0.0816603
1275 4 0.328835 0.0830047 0.0734907
354 4 0.295683 0.126415 0.0661863
21 1 0.330668 0.126254 0.0716299
22 3 0.324847 0.104038 0.0729377
352 2 0.274378 0.137974 0.0723247
24 3 0.311524 0.138817 0.0678788
23 3 0.345567 0.129083 0.0540675
2894 4 0.344853 0.143314 0.0385405
2893 2 0.361824 0.13718 0.021233
2895 4 0.378794 0.131046 0.00392549
3347 4 0.397644 0.125626 0.00337967
2887 2 0.449187 0.0886784 0.0492073
2888 4 0.46902 0.0943016 0.0350559
2783 4 0.485197 0.102106 0.0248169
279 4 0.0883759 0.246926 0.0240242
2615 4 0.0100285 0.178581 0.0821622
4470 4 0.0916649 0.229457 0.0346166
4468 2 0.10793 0.211995 0.0271529
4469 4 0.124196 0.194532 0.0196892
1841 4 0.284416 0.248079 0.00293613
913 2 0.397213 0.237872 0.0893771
914 4 0.37267 0.24078 0.0855816
2881 2 0.484987 0.245484 0.000306422
103 3 0.484976 0.245227 0.067516
915 4 0.421755 0.234963 0.0931726
2882 4 0.460457 0.240983 0.998522
277 2 0.0660432 0.254611 0.0322316
278 4 0.0437104 0.262297 0.040439
2726 4 0.0597956 0.274813 0.0021328
2876 4 0.231367 0.290916 0.0651226
3197 4 0.203091 0.286557 0.00727526
3196 2 0.20868 0.285835 0.0316356
3198 4 0.21427 0.285112 0.0559959
2875 2 0.255671 0.288028 0.0600046
2877 4 0.279975 0.285141 0.0548867
105 3 0.481117 0.265309 0.0359009
2759 4 0.468396 0.310774 0.0633467
101 1 0.476741 0.26484 0.0582456
2835 4 0.475756 0.314583 0.0452453
2833 2 0.483133 0.319494 0.021865
102 3 0.487045 0.282745 0.0683621
104 3 0.453869 0.26632 0.0618663
3231 4 0.0760079 0.420007 0.097812
1122 4 0.0926614 0.409175 0.099304
3543 4 0.476368 0.383219 0.0283589
3541 2 0.482442 0.406709 0.0223162
1466 4 0.474368 0.373507 0.0459163
1465 2 0.489922 0.371078 0.0653423
1120 2 0.110509 0.424156 0.0902377
1121 4 0.128357 0.439138 0.0811714
241 2 0.315725 0.488859 0.0429383
242 4 0.309646 0.469842 0.057991
3542 4 0.488516 0.430199 0.0162735
1873 2 0.0319439 0.0542628 0.145591
1874 4 0.0562656 0.0568925 0.140422
3677 4 0.0706805 0.0528525 0.128653
1875 4 0.00762218 0.051633 0.15076
1374 4 0.075094 0.0606908 0.110427
3676 2 0.0857222 0.0625605 0.146109
582 4 0.0910837 0.0523051 0.101296
580 2 0.115571 0.04864 0.0978189
581 4 0.140059 0.0449748 0.0943414
331 2 0.146016 0.0739358 0.158246
3678 4 0.100764 0.0722684 0.163565
333 4 0.121531 0.0733713 0.163285
332 4 0.1705 0.0745002 0.153207
2701 2 0.267798 0.0682642 0.120941
2702 4 0.2748 0.0565782 0.0999743
1274 4 0.295196 0.0549367 0.0976018
1273 2 0.312016 0.0689707 0.0855462
2780 4 0.181807 0.0920478 0.15514
2779 2 0.202669 0.0999909 0.166404
692 4 0.186737 0.144641 0.099169
691 2 0.209986 0.147475 0.0904146
2781 4 0.223531 0.107934 0.177668
2703 4 0.260795 0.0799501 0.141908
2520 4 0.260563 0.168632 0.115983
2518 2 0.27857 0.162752 0.132304
520 2 0.332674 0.162466 0.153706
2519 4 0.296578 0.156872 0.148625
25 3 0.340427 0.132617 0.091199
810 4 0.339339 0.119331 0.106955
808 2 0.362042 0.114313 0.116149
809 4 0.384746 0.109296 0.125343
2679 4 0.400501 0.102661 0.133641
521 4 0.354843 0.168811 0.144037
2677 2 0.42308 0.108473 0.142673
2678 4 0.44566 0.114286 0.151706
506 4 0.460425 0.108235 0.139144
505 2 0.483696 0.0993065 0.137168
2614 2 0.0335584 0.185756 0.0866395
2616 4 0.0570883 0.192931 0.0911168
2517 4 0.0657709 0.20014 0.105761
650 4 0.0190506 0.217542 0.169194
649 2 0.0440084 0.218251 0.167855
2515 2 0.0877157 0.198933 0.117684
2516 4 0.109661 0.197727 0.129607
387 4 0.12907 0.197492 0.128228
385 2 0.151001 0.19447 0.116607
386 4 0.172933 0.191448 0.104985
743 4 0.193017 0.189752 0.0979921
742 2 0.210786 0.206694 0.10273
744 4 0.228554 0.223637 0.107468
1198 2 0.240184 0.194442 0.163895
767 4 0.17386 0.252608 0.119551
522 4 0.310505 0.156121 0.163374
2600 4 0.243978 0.223811 0.0955075
2599 2 0.267338 0.225094 0.104331
2601 4 0.290698 0.226376 0.113154
450 4 0.310879 0.222354 0.112192
1199 4 0.261775 0.196659 0.15148
624 4 0.373163 0.175007 0.139421
448 2 0.3332 0.230617 0.104528
449 4 0.355521 0.238879 0.0968651
622 2 0.396478 0.184017 0.138757
623 4 0.419792 0.193027 0.138094
455 4 0.427894 0.174661 0.134261
845 4 0.441592 0.230715 0.0937137
454 2 0.451653 0.174293 0.126477
456 4 0.475411 0.173925 0.118693
491 4 0.486817 0.172127 0.135139
844 2 0.447293 0.248265 0.110587
728 4 0.0316684 0.243284 0.133539
727 2 0.00791559 0.243956 0.12576
2536 2 0.0740916 0.254586 0.128826
2538 4 0.0506193 0.250015 0.13613
251 4 0.0487512 0.318268 0.107729
287 4 0.0675695 0.311883 0.109038
250 2 0.0270765 0.327082 0.116543
286 2 0.081773 0.313766 0.129529
2537 4 0.0975639 0.259158 0.121522
2445 4 0.115692 0.25615 0.129513
2443 2 0.138952 0.262387 0.122785
2444 4 0.162212 0.268624 0.116056
288 4 0.0959764 0.31565 0.150021
713 4 0.107543 0.328575 0.160582
766 2 0.196735 0.262106 0.116125
768 4 0.219609 0.271604 0.1127
2094 4 0.240315 0.273948 0.111709
610 2 0.186483 0.328414 0.142374
612 4 0.203105 0.330046 0.123767
2092 2 0.262914 0.28238 0.118295
2093 4 0.285512 0.290812 0.124882
528 4 0.304524 0.296713 0.130795
526 2 0.325582 0.300449 0.117842
2652 4 0.416509 0.307049 0.10112
527 4 0.346641 0.304185 0.104889
2651 4 0.367504 0.297103 0.101706
2650 2 0.392007 0.302076 0.101413
2758 2 0.450907 0.314022 0.0809175
846 4 0.452993 0.265814 0.127461
2760 4 0.433417 0.31727 0.0984883
2476 2 0.456219 0.26073 0.164535
2477 4 0.452507 0.2748 0.144203
2728 2 0.482994 0.327881 0.152486
2730 4 0.473015 0.317242 0.132178
3229 2 0.0533018 0.410185 0.0941854
3230 4 0.0305957 0.400362 0.0905587
2906 4 0.012286 0.392664 0.089796
252 4 0.00540174 0.335897 0.125358
611 4 0.16986 0.326781 0.160981
2799 4 0.211918 0.346214 0.130374
2798 4 0.233386 0.391225 0.126652
2797 2 0.222652 0.36872 0.128513
2592 4 0.331884 0.347833 0.144419
2862 4 0.312741 0.349256 0.142033
2860 2 0.306249 0.341029 0.164734
2590 2 0.344044 0.367421 0.134741
2591 4 0.356204 0.387009 0.125064
2161 2 0.0941271 0.470669 0.146002
3552 4 0.143853 0.439571 0.0939623
2163 4 0.105312 0.472941 0.123755
1673 4 0.119257 0.486134 0.116251
3550 2 0.167377 0.446209 0.0992311
3551 4 0.190901 0.452846 0.1045
3819 4 0.19967 0.452688 0.121879
3817 2 0.219664 0.460405 0.134758
3818 4 0.239657 0.468123 0.147637
677 4 0.242603 0.449712 0.155848
1787 4 0.247652 0.509575 0.0887819
676 2 0.265019 0.441613 0.163406
678 4 0.287435 0.433514 0.170965
1542 4 0.0230869 0.999047 0.178311
2756 4 0.381983 0.0120456 0.216898
2755 2 0.3928 0.0345876 0.216693
2757 4 0.403617 0.0571296 0.216488
3809 4 0.444011 0.0837585 0.248726
606 4 0.443603 0.0858537 0.228987
750 4 0.0582817 0.130872 0.207054
1479 4 0.0569054 0.139481 0.189309
1477 2 0.074834 0.155261 0.181912
748 2 0.0344418 0.123499 0.20548
749 4 0.0106018 0.116126 0.203907
418 2 0.143933 0.117703 0.227353
419 4 0.157067 0.114419 0.206332
2931 4 0.167805 0.121627 0.190863
2930 4 0.181485 0.168322 0.179323
1566 4 0.241995 0.106787 0.179628
2929 2 0.174645 0.144975 0.185093
1564 2 0.255744 0.119174 0.196443
1565 4 0.269493 0.13156 0.213258
458 4 0.286075 0.135672 0.222945
457 2 0.309279 0.143079 0.228595
459 4 0.332483 0.150486 0.234244
1749 4 0.350302 0.143538 0.239296
604 2 0.448989 0.110052 0.225728
605 4 0.454375 0.13425 0.222469
2880 4 0.457094 0.141641 0.20417
2878 2 0.464766 0.164541 0.197696
177 3 0.422277 0.168115 0.245916
651 4 0.0689662 0.218959 0.166516
3159 4 0.0730261 0.214026 0.185715
3157 2 0.088236 0.230774 0.196361
1478 4 0.0927626 0.171042 0.174514
2778 4 0.108796 0.185383 0.175744
2776 2 0.129749 0.198908 0.173937
2777 4 0.150701 0.212433 0.172131
2453 4 0.165925 0.224653 0.178329
1200 4 0.218594 0.192226 0.176311
2452 2 0.189273 0.216682 0.182392
2454 4 0.212622 0.208711 0.186454
509 4 0.193066 0.202151 0.237711
537 4 0.182356 0.214997 0.24734
508 2 0.212498 0.18703 0.242062
510 4 0.231931 0.171908 0.246413
731 4 0.422953 0.239349 0.237194
2879 4 0.472438 0.187442 0.191221
1221 4 0.487412 0.225746 0.23856
2950 2 0.500133 0.250245 0.195947
2951 4 0.475131 0.2503 0.196216
2478 4 0.45993 0.24666 0.184868
2673 4 0.476834 0.209614 0.244334
2672 4 0.430979 0.227945 0.252211
2671 2 0.453907 0.218779 0.248272
3158 4 0.103446 0.247523 0.207007
579 4 0.110789 0.260874 0.219211
577 2 0.132894 0.272559 0.219242
578 4 0.154999 0.284245 0.219273
236 4 0.167494 0.275384 0.234073
2969 4 0.227034 0.251898 0.25627
235 2 0.189268 0.270661 0.245421
2968 2 0.245691 0.261981 0.243025
2970 4 0.264348 0.272064 0.229779
2853 4 0.272018 0.287794 0.221373
2851 2 0.296077 0.288939 0.214661
2852 4 0.320136 0.290084 0.20795
2861 4 0.299757 0.332802 0.187436
730 2 0.425008 0.260414 0.22388
732 4 0.427062 0.281478 0.210566
2729 4 0.492974 0.33852 0.172793
3694 2 0.019408 0.370738 0.230713
3696 4 0.0290748 0.352936 0.216056
3830 4 0.0300801 0.354165 0.194917
3829 2 0.0513146 0.341154 0.19268
3831 4 0.0725491 0.328143 0.190443
712 2 0.131242 0.326063 0.168148
714 4 0.15494 0.323551 0.175714
3935 4 0.106075 0.383198 0.238736
1855 2 0.272725 0.37684 0.229685
1856 4 0.296904 0.383175 0.230359
1857 4 0.248546 0.370505 0.229011
4004 4 0.299792 0.398732 0.21604
3599 4 0.0803944 0.456546 0.183871
3990 4 0.999623 0.430995 0.239917
2826 4 0.0862098 0.480705 0.253497
2162 4 0.0829421 0.468397 0.168248
3598 2 0.0921279 0.443333 0.201561
3600 4 0.103861 0.43012 0.219251
3921 4 0.118247 0.428241 0.233529
3919 2 0.142976 0.431522 0.23183
1676 4 0.102568 0.490818 0.247563
3920 4 0.167705 0.434803 0.23013
4511 4 0.203915 0.477464 0.167162
1544 4 0.196088 0.461117 0.17559
1545 4 0.181588 0.44548 0.220823
1543 2 0.188838 0.453299 0.198207
4005 4 0.300468 0.437738 0.184755
4003 2 0.30013 0.418235 0.200397
228 4 0.393358 0.489961 0.173501
1703 4 0.0783674 0.08433 0.272914
1611 4 0.00107481 0.0203853 0.262104
1785 4 0.00530264 0.0326349 0.276417
425 4 0.0676532 0.0258774 0.313465
162 3 0.190152 0.0641308 0.305122
1059 4 0.263288 0.0336198 0.316109
1057 2 0.28315 0.0311516 0.331094
707 4 0.396802 0.0494489 0.305346
706 2 0.377686 0.0418489 0.319559
708 4 0.35857 0.0342489 0.333772
1127 4 0.423693 0.0348533 0.28995
3810 4 0.42417 0.0450085 0.273332
3808 2 0.434091 0.0643835 0.261029
1126 2 0.428631 0.0140541 0.302918
420 4 0.130799 0.120987 0.248375
257 4 0.134017 0.137325 0.257431
530 4 0.126364 0.115488 0.292763
529 2 0.137636 0.109351 0.314222
1704 4 0.106667 0.120786 0.29217
1702 2 0.0925172 0.102558 0.282542
256 2 0.146176 0.155054 0.270197
164 3 0.170597 0.0958411 0.300146
722 4 0.225794 0.0916341 0.314285
161 1 0.19131 0.0857567 0.297368
165 3 0.20713 0.0971195 0.309168
163 3 0.196975 0.0853652 0.274871
516 4 0.219685 0.159858 0.308086
1191 4 0.324232 0.158647 0.317446
1747 2 0.369681 0.151779 0.252777
1748 4 0.38906 0.16002 0.266259
402 4 0.339567 0.1645 0.332026
400 2 0.364406 0.162581 0.329893
401 4 0.389244 0.160663 0.327761
180 3 0.405842 0.159395 0.27827
178 3 0.442857 0.166223 0.27731
283 2 0.486441 0.158885 0.277671
589 2 0.00148284 0.216737 0.313475
591 4 0.0219924 0.230372 0.317793
404 4 0.034294 0.236139 0.302659
403 2 0.0589946 0.239953 0.30194
258 4 0.158335 0.172784 0.282964
536 4 0.143284 0.214006 0.278535
405 4 0.0836952 0.243767 0.301221
30 3 0.101975 0.235122 0.299573
26 1 0.119394 0.242541 0.286917
29 3 0.127627 0.225225 0.27385
27 3 0.136168 0.250033 0.300763
535 2 0.16282 0.214502 0.262938
726 4 0.154844 0.257564 0.301385
515 4 0.171007 0.167793 0.299827
514 2 0.195346 0.163825 0.303956
1030 2 0.240177 0.23934 0.300396
2483 4 0.234208 0.172989 0.310885
1031 4 0.217194 0.233561 0.308368
1395 4 0.276216 0.238122 0.306754
2482 2 0.252378 0.185452 0.322705
1189 2 0.305416 0.17224 0.326742
2954 4 0.391074 0.179285 0.328709
2788 2 0.408254 0.237372 0.271749
2790 4 0.393898 0.257605 0.274867
285 4 0.461583 0.161169 0.279103
176 1 0.422147 0.172006 0.268588
179 3 0.417995 0.19453 0.272309
2789 4 0.42261 0.217139 0.268632
2953 2 0.415701 0.183506 0.329663
2955 4 0.440327 0.187727 0.330616
28 3 0.11245 0.260065 0.273386
716 4 0.0986154 0.314011 0.272843
715 2 0.104284 0.291166 0.264408
717 4 0.109953 0.26832 0.255973
237 4 0.211041 0.265938 0.25677
724 2 0.178722 0.251987 0.306273
725 4 0.202601 0.24641 0.311161
1032 4 0.26316 0.245119 0.292423
1393 2 0.294512 0.247155 0.292303
1394 4 0.312808 0.256188 0.277851
2753 4 0.33141 0.2556 0.270708
2181 4 0.393186 0.276128 0.312338
2754 4 0.380239 0.257925 0.260167
2752 2 0.355824 0.256763 0.265437
2179 2 0.383335 0.263031 0.331223
3934 2 0.0989474 0.391777 0.261114
261 4 0.107226 0.405141 0.294454
3936 4 0.0918203 0.400356 0.283492
259 2 0.0998727 0.398553 0.317426
375 4 0.171175 0.347506 0.308674
373 2 0.189701 0.332766 0.300632
374 4 0.208227 0.318027 0.292589
1188 4 0.324981 0.423179 0.314603
2556 4 0.402983 0.336502 0.300333
2554 2 0.41172 0.337881 0.32372
339 4 0.41154 0.331175 0.281482
337 2 0.433606 0.339069 0.272766
338 4 0.455672 0.346962 0.26405
291 4 0.474141 0.35197 0.257677
289 2 0.483787 0.365835 0.276113
3989 4 0.0192841 0.474998 0.253255
2825 4 0.0432777 0.504332 0.243528
3988 2 0.00945357 0.452997 0.246586
2824 2 0.0647438 0.492519 0.248512
4024 2 0.16517 0.49389 0.284172
4025 4 0.141325 0.500847 0.287036
1677 4 0.123986 0.512786 0.287053
1675 2 0.113277 0.501802 0.267308
4026 4 0.189015 0.486933 0.281308
1187 4 0.280794 0.429864 0.292162
1186 2 0.302888 0.426522 0.303383
1803 4 0.387512 0.418019 0.318526
669 4 0.407999 0.418084 0.322647
1801 2 0.364418 0.42541 0.312425
1802 4 0.341324 0.4328 0.306323
667 2 0.425999 0.432706 0.313298
668 4 0.443999 0.447328 0.30395
1436 4 0.463 0.455579 0.30438
1435 2 0.487974 0.454355 0.304301
2901 4 0.0372821 0.011054 0.410056
424 2 0.064759 0.0365083 0.33591
426 4 0.0618649 0.0471391 0.358356
2645 4 0.0784384 0.0478192 0.368533
2644 2 0.0954704 0.0516712 0.386429
2646 4 0.112502 0.0555232 0.404325
2663 4 0.130112 0.0476109 0.409604
2662 2 0.153317 0.0472354 0.400298
2869 2 0.157043 0.00260441 0.368849
2871 4 0.166058 0.00434121 0.392107
2664 4 0.176522 0.04686 0.390992
1967 4 0.195692 0.0478024 0.395022
721 2 0.235897 0.0773513 0.332149
1966 2 0.211246 0.0460847 0.414524
1349 4 0.282518 0.0769488 0.388483
1348 2 0.293795 0.0592443 0.374899
1058 4 0.303013 0.0286833 0.346079
1350 4 0.305073 0.0415398 0.361314
2502 4 0.282416 0.0730102 0.408523
723 4 0.246001 0.0630684 0.350013
3395 4 0.36429 0.0020765 0.397825
618 4 0.360038 0.016148 0.385472
617 4 0.346702 0.0185206 0.337334
616 2 0.35337 0.0173343 0.361403
3033 4 0.0368486 0.150501 0.388835
2685 4 0.0497725 0.144532 0.375663
3031 2 0.0190847 0.142915 0.404713
2683 2 0.0709519 0.1564 0.381645
531 4 0.148907 0.103213 0.335681
635 4 0.152472 0.104631 0.354953
636 4 0.131454 0.0877401 0.397067
634 2 0.141963 0.0961856 0.37601
2715 4 0.380071 0.113308 0.406813
2713 2 0.400303 0.108349 0.392983
2714 4 0.420534 0.103391 0.379152
2684 4 0.0921312 0.168268 0.387628
765 4 0.0972486 0.172816 0.40527
763 2 0.115062 0.171279 0.422748
1190 4 0.286601 0.185833 0.336037
2484 4 0.270547 0.197915 0.334526
8 3 0.272724 0.218941 0.33726
7 3 0.271577 0.217059 0.374781
6 1 0.284522 0.212756 0.356259
10 3 0.289371 0.190518 0.355498
9 3 0.304121 0.225085 0.357778
3079 2 0.328695 0.182982 0.400626
2957 4 0.334855 0.197788 0.367409
3080 4 0.342461 0.182803 0.379753
2956 2 0.347138 0.217008 0.357168
2958 4 0.359422 0.236229 0.346927
2180 4 0.373485 0.249934 0.350108
2815 2 0.501901 0.210801 0.408176
1952 4 0.490002 0.182096 0.374663
1951 2 0.470886 0.179034 0.358839
1953 4 0.451769 0.175972 0.343015
2817 4 0.494479 0.195866 0.389547
2698 2 0.0110591 0.290692 0.37129
2699 4 0.0324681 0.303367 0.368804
479 4 0.0425965 0.288093 0.360808
478 2 0.0672967 0.291905 0.360055
480 4 0.091997 0.295717 0.359302
3462 4 0.0977897 0.314019 0.365595
3460 2 0.10023 0.328356 0.385935
410 4 0.181232 0.329594 0.392426
1034 4 0.191568 0.320608 0.406024
1033 2 0.20779 0.303334 0.414004
1035 4 0.224011 0.286061 0.421983
3318 4 0.303156 0.306218 0.36097
3316 2 0.322627 0.290596 0.359552
2529 4 0.299159 0.261638 0.426301
2527 2 0.321995 0.26297 0.416203
3317 4 0.342099 0.274974 0.358135
2495 4 0.396784 0.296039 0.397802
2494 2 0.379572 0.277908 0.39735
2496 4 0.36236 0.259777 0.396898
569 4 0.376017 0.32684 0.393707
2528 4 0.34483 0.264303 0.406105
3461 4 0.10267 0.342692 0.406274
409 2 0.162884 0.346205 0.388868
411 4 0.144536 0.362815 0.38531
593 4 0.130279 0.373676 0.391924
260 4 0.0925193 0.391964 0.340397
594 4 0.0958105 0.390674 0.359931
592 2 0.113045 0.382175 0.375928
560 4 0.0940382 0.414495 0.414284
3455 4 0.23086 0.376322 0.407522
446 4 0.296516 0.408928 0.41644
570 4 0.412917 0.343986 0.364634
568 2 0.394467 0.335413 0.379171
894 4 0.356887 0.320556 0.391648
892 2 0.348036 0.330391 0.412864
2555 4 0.420457 0.339259 0.347106
549 4 0.478023 0.367864 0.380519
812 4 0.479719 0.374283 0.399782
811 2 0.463014 0.390967 0.408013
1419 4 0.142952 0.486157 0.374207
445 2 0.299893 0.427837 0.400432
447 4 0.30327 0.446745 0.384424
4323 4 0.316063 0.448102 0.368272
4321 2 0.312319 0.472815 0.367601
4322 4 0.308576 0.497528 0.366931
2580 4 0.0904416 0.0689317 0.464092
2891 4 0.104698 0.0758145 0.45181
1968 4 0.226799 0.0443671 0.434025
220 3 0.239401 0.0333417 0.481155
218 3 0.219247 0.0363912 0.449498
2558 4 0.22764 0.0838633 0.474294
219 3 0.251275 0.0563834 0.453847
216 1 0.232739 0.0475961 0.46469
217 3 0.220707 0.0648439 0.474012
2501 4 0.245096 0.0523633 0.434633
2500 2 0.263756 0.0626868 0.421578
4341 4 0.270789 0.0120981 0.461796
4339 2 0.286327 0.0271876 0.474289
4551 4 0.306649 0.0614119 0.490324
4340 4 0.301865 0.042277 0.486783
4549 2 0.328061 0.0741034 0.492694
90 3 0.349906 0.00372114 0.462627
88 3 0.352405 0.0151288 0.498422
4550 4 0.349474 0.0867949 0.495064
3394 2 0.363775 0.00199148 0.422824
575 4 0.425114 0.0118488 0.486067
3032 4 0.00132085 0.135329 0.42059
982 2 0.042713 0.138551 0.478794
984 4 0.028475 0.158136 0.485029
983 4 0.056951 0.118967 0.472558
2579 4 0.0531035 0.102197 0.463846
2578 2 0.0717725 0.0855642 0.463969
3326 4 0.0239076 0.175405 0.492687
2892 4 0.131224 0.0969256 0.415048
2890 2 0.117961 0.0863701 0.433429
320 4 0.174176 0.152249 0.485658
2557 2 0.243992 0.102759 0.473427
939 4 0.249481 0.168125 0.4604
2559 4 0.260345 0.121654 0.47256
1061 4 0.273691 0.110063 0.462386
1060 2 0.298689 0.109532 0.462433
1062 4 0.323687 0.109001 0.462479
642 4 0.267592 0.164208 0.451741
683 4 0.337978 0.103161 0.449112
682 2 0.353 0.114778 0.432846
684 4 0.368023 0.126395 0.41658
3325 2 0.00636206 0.183852 0.477002
2802 4 0.148818 0.179557 0.43431
764 4 0.132876 0.169741 0.440226
2800 2 0.171113 0.189081 0.440426
2801 4 0.193408 0.198605 0.446542
938 4 0.206789 0.184296 0.439991
937 2 0.228135 0.176211 0.450195
640 2 0.289098 0.175729 0.446265
641 4 0.310603 0.18725 0.440789
3081 4 0.314929 0.183161 0.421498
3498 4 0.337444 0.227874 0.5101
3496 2 0.347696 0.222976 0.487827
3497 4 0.357947 0.218078 0.465553
585 4 0.243498 0.293129 0.423175
661 2 0.221562 0.329944 0.468417
3456 4 0.230302 0.334986 0.435661
663 4 0.203575 0.334237 0.485247
1238 4 0.193744 0.32811 0.502385
583 2 0.261719 0.276008 0.422997
584 4 0.27994 0.258886 0.422819
366 4 0.410017 0.303659 0.411493
3057 4 0.50411 0.306908 0.44763
364 2 0.429208 0.314099 0.423653
365 4 0.4484 0.324539 0.435813
3055 2 0.48475 0.319897 0.438595
3056 4 0.465389 0.332887 0.42956
312 4 0.0942191 0.326829 0.417878
1452 4 0.120862 0.404816 0.486197
1450 2 0.135003 0.414205 0.467838
310 2 0.0998455 0.334462 0.441015
311 4 0.105472 0.342094 0.464151
2549 4 0.109425 0.40394 0.503148
1451 4 0.149145 0.423595 0.44948
3454 2 0.230581 0.355654 0.421592
2927 4 0.164618 0.423959 0.464029
662 4 0.239548 0.325652 0.451586
893 4 0.339184 0.340225 0.43408
2561 4 0.311711 0.401367 0.425456
2560 2 0.319552 0.396987 0.44879
2562 4 0.327394 0.392606 0.472125
348 4 0.340906 0.378622 0.478232
346 2 0.365357 0.383823 0.477686
267 4 0.395405 0.400043 0.461217
347 4 0.389808 0.389024 0.477141
265 2 0.415355 0.399455 0.446155
813 4 0.44631 0.407651 0.416243
266 4 0.435305 0.398868 0.431094
4251 4 0.500318 0.390566 0.484032
4042 2 0.461789 0.373723 0.491123
4043 4 0.484673 0.383739 0.492216
4044 4 0.438905 0.363707 0.49003
1171 2 0.0354806 0.491532 0.451611
1172 4 0.0495162 0.472132 0.44441
559 2 0.0961792 0.438211 0.421911
561 4 0.0983202 0.461927 0.429537
3421 2 0.12247 0.482156 0.446052
3857 4 0.159729 0.489618 0.467587
3423 4 0.144676 0.482155 0.457545
3422 4 0.100264 0.482157 0.434559
2928 4 0.211215 0.437418 0.476211
2926 2 0.187917 0.430688 0.47012
2647 2 0.224893 0.467743 0.498311
2648 4 0.212702 0.456066 0.479866
4058 4 0.416193 0.465599 0.433744
4057 2 0.400551 0.453914 0.449364
4059 4 0.384908 0.442229 0.464983
1644 4 0.431556 0.475395 0.445227
2961 4 0.433428 0.507176 0.472473
2959 2 0.420193 0.499067 0.492076
1642 2 0.449014 0.493178 0.447263
2194 2 0.103852 0.0649119 0.570575
2553 4 0.138764 0.059417 0.546508
2195 4 0.1235 0.0551917 0.558548
2551 2 0.160975 0.07086 0.545536
2196 4 0.0842042 0.0746321 0.582603
2552 4 0.183185 0.0823031 0.544563
3021 4 0.265245 0.0810379 0.562458
1143 4 0.342751 0.0381236 0.550709
1141 2 0.34167 0.0226148 0.531126
1142 4 0.340588 0.007106 0.511543
2503 2 0.383851 0.0695479 0.507865
2505 4 0.405995 0.0669534 0.519183
2504 4 0.361707 0.0721425 0.496547
574 2 0.429089 0.0159828 0.510405
576 4 0.433064 0.0201167 0.534742
3621 4 0.453463 0.0252833 0.535867
3619 2 0.47568 0.0159113 0.54248
965 4 0.0360138 0.149332 0.583398
761 4 0.243634 0.078876 0.559431
760 2 0.218986 0.0747332 0.558758
319 2 0.172516 0.157251 0.5101
762 4 0.194337 0.0705904 0.558084
321 4 0.170856 0.162253 0.534541
1107 4 0.331582 0.0737893 0.563663
3019 2 0.289671 0.0779377 0.558106
3020 4 0.314096 0.0748376 0.553753
1105 2 0.349781 0.0867015 0.574944
3385 2 0.405754 0.121576 0.577662
3386 4 0.428283 0.129926 0.570741
2243 4 0.445177 0.119084 0.565309
2242 2 0.469684 0.12196 0.561269
2244 4 0.494192 0.124835 0.557228
2322 4 0.0411041 0.161891 0.565285
2320 2 0.0569358 0.174482 0.550588
2321 4 0.0727675 0.187073 0.535891
3237 4 0.0922052 0.185623 0.530203
3235 2 0.113345 0.193128 0.519159
3236 4 0.134485 0.200633 0.508115
1283 4 0.19018 0.16207 0.540616
1282 2 0.200829 0.174961 0.559206
1284 4 0.211478 0.187853 0.577797
2319 4 0.318878 0.152549 0.535845
2317 2 0.301087 0.164283 0.548921
2318 4 0.283296 0.176016 0.561996
2604 4 0.27595 0.189283 0.577477
3419 4 0.0626537 0.272902 0.584128
3418 2 0.0835408 0.278094 0.571401
3420 4 0.104428 0.283286 0.558674
890 4 0.111317 0.275759 0.541694
889 2 0.135386 0.28253 0.541759
891 4 0.159456 0.2893 0.541824
1239 4 0.175793 0.29922 0.539044
1237 2 0.184769 0.313665 0.520714
3445 2 0.00484002 0.379383 0.582635
2721 4 0.0351718 0.406253 0.594724
2548 2 0.110724 0.415522 0.525269
2847 4 0.203861 0.366366 0.560028
2845 2 0.209444 0.383769 0.542964
2846 4 0.215027 0.401171 0.525901
3044 4 0.214692 0.413427 0.5103
3043 2 0.239367 0.412776 0.506313
1641 4 0.280016 0.423563 0.507466
3594 4 0.392048 0.325517 0.527134
3592 2 0.409043 0.339732 0.515545
3593 4 0.426038 0.353946 0.503957
3962 4 0.0862877 0.490213 0.580464
4179 4 0.082265 0.475364 0.568999
2550 4 0.112024 0.427105 0.547391
4177 2 0.0880056 0.452036 0.562068
4178 4 0.0937461 0.428708 0.555137
212 3 0.242108 0.427358 0.553726
211 1 0.225366 0.443051 0.552127
213 3 0.205868 0.43415 0.561015
1445 4 0.204232 0.44267 0.579051
215 3 0.222179 0.448414 0.530224
214 3 0.231619 0.461934 0.564073
2649 4 0.237083 0.47942 0.516757
1639 2 0.304687 0.421942 0.511199
1486 2 0.271636 0.477886 0.540153
325 2 0.328511 0.482366 0.552944
1487 4 0.289457 0.471017 0.556291
327 4 0.308617 0.467324 0.554714
1488 4 0.253816 0.484756 0.524015
1640 4 0.329357 0.420321 0.514932
3045 4 0.264042 0.412126 0.502326
1911 4 0.349904 0.422587 0.515645
1909 2 0.374511 0.426851 0.514425
1910 4 0.399119 0.431116 0.513206
326 4 0.348405 0.497409 0.551173
1441 2 0.380658 0.488265 0.533516
1442 4 0.355718 0.488931 0.535167
1443 4 0.405599 0.487598 0.531864
3453 4 0.418761 0.430127 0.510259
2960 4 0.406959 0.490957 0.511678
3451 2 0.442552 0.437138 0.51342
3452 4 0.466344 0.44415 0.516581
1698 4 0.486322 0.442644 0.518302
2315 4 0.0679106 0.0723888 0.59235
2314 2 0.0451959 0.0792182 0.60026
2316 4 0.0224811 0.0860476 0.60817
3308 4 0.224074 0.0291075 0.5926
3309 4 0.210473 0.013395 0.638086
4284 4 0.196057 0.00655579 0.649049
3307 2 0.217274 0.0212512 0.615343
3049 2 0.287145 0.0271691 0.599077
3051 4 0.28471 0.00340359 0.591696
3050 4 0.28958 0.0509346 0.606457
270 4 0.300052 0.0676014 0.599949
268 2 0.306761 0.0748136 0.62293
269 4 0.313469 0.0820258 0.645912
2281 2 0.410556 0.0813017 0.64869
2283 4 0.429879 0.0725411 0.635459
2979 4 0.446363 0.0712566 0.625278
2977 2 0.461471 0.0611297 0.642436
2978 4 0.476579 0.0510029 0.659593
3298 2 0.00288408 0.137597 0.660516
3300 4 0.0231596 0.131784 0.647089
3360 4 0.0359224 0.123948 0.660634
3358 2 0.0596758 0.116652 0.657856
964 2 0.055277 0.142804 0.597941
966 4 0.0745403 0.136276 0.612484
2175 4 0.0846993 0.154169 0.610259
3359 4 0.0834292 0.109357 0.655078
4369 2 0.122151 0.102742 0.63346
3001 2 0.164519 0.137953 0.607186
4371 4 0.144095 0.100736 0.621644
4370 4 0.100207 0.104748 0.645276
3003 4 0.139696 0.140803 0.608142
2173 2 0.109509 0.156827 0.611865
2174 4 0.134319 0.159486 0.613472
3062 4 0.196016 0.1439 0.589687
3002 4 0.189341 0.135103 0.60623
3061 2 0.219033 0.140089 0.598679
3063 4 0.242051 0.136278 0.607671
3125 4 0.258462 0.147252 0.611721
3124 2 0.259048 0.159279 0.633635
3084 4 0.333764 0.0852981 0.647089
3387 4 0.383225 0.113227 0.584583
1106 4 0.367981 0.0996138 0.586224
2282 4 0.391234 0.0900622 0.661922
3083 4 0.377853 0.0789152 0.669804
3082 2 0.355808 0.0821066 0.658447
2603 4 0.227146 0.199974 0.579628
3126 4 0.259635 0.171305 0.655549
2602 2 0.251548 0.194629 0.578553
960 4 0.00402307 0.254513 0.648257
3238 2 0.0395918 0.264036 0.636937
3239 4 0.0163494 0.269499 0.644362
3240 4 0.0628343 0.258573 0.629512
904 2 0.0450829 0.319981 0.605448
906 4 0.0700464 0.319421 0.604159
905 4 0.0201193 0.320541 0.606737
3093 4 0.0806751 0.251993 0.634862
83 3 0.124001 0.310172 0.595906
84 3 0.0895978 0.32163 0.607289
3091 2 0.10309 0.262227 0.63062
3092 4 0.125505 0.272462 0.626378
3435 4 0.138053 0.256465 0.624202
82 3 0.118181 0.320218 0.631653
81 1 0.112456 0.324705 0.609831
3433 2 0.159055 0.260911 0.63702
383 4 0.1941 0.25596 0.660243
3434 4 0.180057 0.265357 0.649839
382 2 0.217646 0.258931 0.652371
384 4 0.241191 0.261901 0.6445
3447 4 0.0264564 0.391358 0.586445
2719 2 0.0581363 0.401454 0.603373
3220 2 0.118093 0.384509 0.618222
3222 4 0.142888 0.384355 0.615003
85 3 0.117996 0.346238 0.6049
3221 4 0.0932979 0.384664 0.621441
2720 4 0.0811008 0.396655 0.612022
3491 4 0.158081 0.395872 0.620469
3490 2 0.180265 0.39328 0.631709
3492 4 0.202449 0.390688 0.642948
3380 4 0.229505 0.346503 0.653366
1040 4 0.293287 0.356643 0.634557
3381 4 0.278618 0.354478 0.648371
3379 2 0.254061 0.350491 0.650869
1039 2 0.318018 0.360005 0.63304
1041 4 0.342748 0.363366 0.631523
998 4 0.360699 0.354528 0.6304
997 2 0.379176 0.351036 0.64688
1446 4 0.157329 0.454 0.592184
4493 4 0.14494 0.437046 0.658743
4492 2 0.121838 0.446262 0.656181
4494 4 0.0987364 0.455478 0.653618
1444 2 0.180781 0.448335 0.585617
3119 4 0.245139 0.466555 0.647818
3118 2 0.223377 0.464508 0.659958
1206 4 0.258952 0.480269 0.649533
1204 2 0.280691 0.481009 0.661863
1205 4 0.30243 0.48175 0.674194
879 4 0.447525 0.469237 0.667236
877 2 0.446155 0.461992 0.643344
878 4 0.444786 0.454747 0.619452
1083 4 0.0114557 0.0497574 0.723622
1081 2 0.0357224 0.0546946 0.720166
1082 4 0.0599891 0.0596319 0.716711
1023 4 0.0790786 0.0643689 0.713572
1021 2 0.102845 0.0662453 0.706035
1022 4 0.126612 0.0681216 0.698497
2256 4 0.139466 0.07962 0.688025
4283 4 0.152037 0.0245883 0.664469
4282 2 0.174047 0.015572 0.656759
2132 4 0.294156 0.0101522 0.703687
2131 2 0.29951 0.0202454 0.725927
2133 4 0.304863 0.0303386 0.748168
1086 4 0.48642 0.0605237 0.672692
1084 2 0.489837 0.0699889 0.695581
3887 4 0.451009 0.0171295 0.738498
3292 2 0.0707944 0.138197 0.732458
2254 2 0.163221 0.0869322 0.69075
3293 4 0.0862294 0.142774 0.713327
954 4 0.104694 0.151624 0.712284
952 2 0.129369 0.154643 0.709598
953 4 0.154044 0.157662 0.706912
2255 4 0.186975 0.0942444 0.693476
1004 4 0.197345 0.0801863 0.703761
1077 4 0.166939 0.16447 0.721237
1075 2 0.19064 0.163424 0.729135
1076 4 0.21434 0.162378 0.737034
1003 2 0.216944 0.0948437 0.698641
1005 4 0.236543 0.109501 0.69352
3009 4 0.245971 0.125449 0.702024
3145 2 0.25174 0.148542 0.746731
3007 2 0.248285 0.145249 0.686933
3008 4 0.2506 0.16505 0.671842
3147 4 0.276615 0.149143 0.749188
193 3 0.294731 0.157986 0.75311
3441 4 0.403289 0.14842 0.73651
2628 4 0.412471 0.136226 0.723246
3439 2 0.380905 0.147337 0.747599
3355 2 0.485347 0.103838 0.742342
2626 2 0.433552 0.128266 0.734082
3357 4 0.503141 0.0961532 0.726546
1085 4 0.493255 0.0794541 0.718471
1134 4 0.0224349 0.280657 0.723807
1132 2 0.0160275 0.286498 0.747259
1692 4 0.208773 0.260482 0.744055
3383 4 0.312797 0.299802 0.701531
3382 2 0.321369 0.289617 0.722696
3384 4 0.329941 0.279431 0.743861
921 4 0.349462 0.275026 0.743712
919 2 0.374289 0.27281 0.745687
867 4 0.417591 0.276486 0.74413
920 4 0.399116 0.270595 0.747662
865 2 0.434704 0.293395 0.750942
3185 4 0.466719 0.315529 0.746566
3184 2 0.490468 0.30984 0.75193
4208 4 0.0248306 0.373404 0.720124
4207 2 0.0473607 0.372445 0.709324
4362 4 0.0239388 0.393095 0.716519
4209 4 0.0698909 0.371485 0.698523
4437 4 0.0864876 0.380511 0.694386
4435 2 0.11089 0.380709 0.699832
4436 4 0.135293 0.380907 0.705279
1299 4 0.180443 0.336503 0.694523
1297 2 0.199726 0.345273 0.681239
1298 4 0.219008 0.354044 0.667956