ITEM: TIMESTEP
844000
ITEM: NUMBER OF ATOMS
4590
ITEM: BOX BOUNDS xy xz yz pp pp pp
-1.2398226800000003e+01 9.9985700000000008e+00 -2.3996568000000025e+00
-9.9985700000000008e+00 9.9985700000000008e+00 0.0000000000000000e+00
-9.9985700000000008e+00 9.9985700000000008e+00 0.0000000000000000e+00
ITEM: ATOMS id type xs ys zs
4506 4 0.186145 0.00332572 0.00775111
1374 4 0.198693 0.0438051 0.0769737
1372 2 0.22097 0.0348673 0.0766135
1373 4 0.243246 0.0259296 0.0762532
2948 4 0.249486 0.00746247 0.076556
2947 2 0.267398 0.0158926 0.0601698
2949 4 0.285309 0.0243227 0.0437835
2465 4 0.289888 0.0317767 0.0258988
2464 2 0.312243 0.0243594 0.0313601
2466 4 0.334598 0.0169421 0.0368214
2670 4 0.307902 0.0724187 0.0356374
2468 4 0.333281 0.00213324 0.0502919
2885 4 0.476006 0.0310967 0.0580773
3903 4 0.480467 0.0124614 0.0647392
2884 2 0.45571 0.0359079 0.0709753
2442 4 0.110444 0.0873059 0.0124001
492 4 0.127703 0.0915148 0.0219778
490 2 0.150623 0.104511 0.0220084
491 4 0.173544 0.117507 0.022039
845 4 0.189325 0.127573 0.0122419
844 2 0.200152 0.150926 0.0161729
2709 4 0.222255 0.101599 0.055723
2707 2 0.241736 0.0916918 0.0657103
2708 4 0.261217 0.0817841 0.0756976
2668 2 0.317221 0.0964465 0.0331037
2669 4 0.32654 0.120474 0.03057
1253 4 0.344032 0.116426 0.0234992
1252 2 0.361232 0.125267 0.0065714
307 2 0.0133183 0.213133 0.0198322
2875 2 0.0174064 0.224268 0.0721742
2877 4 0.0415659 0.225345 0.0789991
308 4 0.0276172 0.195211 0.0140568
2841 4 0.998225 0.250081 0.0307186
2718 4 0.061053 0.229583 0.0762218
2652 4 0.0475696 0.201002 0.0157213
2650 2 0.0722198 0.201762 0.0203535
2716 2 0.0838998 0.234141 0.0658715
2717 4 0.106747 0.238699 0.0555211
2651 4 0.09687 0.202521 0.0249856
527 4 0.111763 0.214275 0.0354584
2616 4 0.126112 0.243292 0.0641402
526 2 0.132574 0.227553 0.0265394
455 4 0.190459 0.233677 0.00181488
454 2 0.197242 0.210919 0.00590184
102 3 0.204154 0.249207 0.010097
528 4 0.153386 0.240831 0.0176204
456 4 0.204025 0.188161 0.0099888
846 4 0.210979 0.174279 0.0201039
277 2 0.272356 0.246684 0.0310678
278 4 0.292556 0.236204 0.0384772
3141 4 0.31234 0.243079 0.0374217
657 4 0.31729 0.199702 0.00719175
3139 2 0.325817 0.241987 0.0583697
621 4 0.359363 0.241207 0.0822085
3140 4 0.339293 0.240895 0.0793178
655 2 0.293986 0.205422 0.00307981
619 2 0.377647 0.232938 0.0685994
620 4 0.395931 0.224668 0.0549903
2966 4 0.415313 0.227745 0.0488078
2965 2 0.437446 0.229071 0.0369532
354 4 0.39586 0.168874 0.0736643
2967 4 0.45958 0.230397 0.0250986
3242 4 0.47729 0.242401 0.0228517
2839 2 0.0148578 0.269066 0.0383812
2840 4 0.0314904 0.28805 0.0460438
525 4 0.0380871 0.296588 0.0630229
2640 4 0.0126345 0.330314 0.00642429
523 2 0.0608155 0.294806 0.0728035
294 4 0.128718 0.323873 0.00556977
914 4 0.146262 0.256259 0.00875245
105 3 0.217878 0.280769 0.0273593
967 2 0.230411 0.317355 0.0300115
968 4 0.224327 0.294804 0.0402676
101 1 0.223452 0.261876 0.0173481
103 3 0.234344 0.249433 0.0325202
104 3 0.23729 0.267477 0.99908
279 4 0.252155 0.257163 0.0236585
3215 4 0.429114 0.332246 0.0634025
3214 2 0.452037 0.324705 0.0626786
3216 4 0.47496 0.317163 0.0619547
4305 4 0.490706 0.316738 0.074378
3728 4 0.0454226 0.410169 0.0406573
1293 4 0.0177792 0.349023 0.0119608
1291 2 0.0423732 0.349977 0.0169637
3727 2 0.0666295 0.403438 0.0504164
3729 4 0.0878364 0.396708 0.0601756
1292 4 0.0669672 0.35093 0.0219667
2988 4 0.10292 0.385881 0.0524779
2986 2 0.113352 0.384198 0.0299111
2987 4 0.123784 0.382515 0.00734429
3543 4 0.125681 0.402327 0.0781263
1551 4 0.168255 0.378225 0.0651754
1549 2 0.192384 0.376325 0.0598562
293 4 0.162053 0.364936 0.00280858
461 4 0.181432 0.369145 0.00618673
1550 4 0.216514 0.374426 0.0545371
460 2 0.20289 0.35869 0.00636332
292 2 0.145386 0.344404 0.00418918
596 4 0.23245 0.376218 0.0427999
969 4 0.236496 0.339907 0.0197554
595 2 0.255531 0.372518 0.0504199
597 4 0.278613 0.368819 0.0580399
462 4 0.224347 0.348235 0.0065399
1104 4 0.292407 0.356901 0.0663089
1102 2 0.312089 0.374023 0.0709247
1103 4 0.331771 0.391145 0.0755406
2772 4 0.350002 0.390909 0.0670843
2770 2 0.366821 0.374421 0.0669593
2771 4 0.383639 0.357934 0.0668342
2522 4 0.399461 0.374584 0.0652206
2521 2 0.422863 0.384085 0.0714907
2523 4 0.446266 0.393585 0.0777609
3339 4 0.464482 0.403821 0.0809657
3337 2 0.487414 0.397804 0.0755379
3900 4 0.0197264 0.483446 0.00610905
3898 2 0.0414724 0.473523 0.00689263
672 4 0.0259197 0.433066 0.0758132
670 2 0.000811385 0.428281 0.0764133
1589 4 0.013397 0.492743 0.0789345
2934 4 0.0653032 0.448456 0.0193204
3899 4 0.0632184 0.463601 0.0076762
1588 2 0.0385794 0.495781 0.0791071
2932 2 0.086743 0.457597 0.0306257
2933 4 0.108183 0.466737 0.041931
3444 4 0.127654 0.464037 0.0402997
1871 4 0.104568 0.484364 0.073106
3442 2 0.149449 0.467034 0.027781
3443 4 0.171244 0.470031 0.0152622
4188 4 0.186925 0.459756 0.0198636
4186 2 0.211696 0.465676 0.0165117
4187 4 0.236466 0.471596 0.0131598
2582 4 0.253007 0.480641 0.00616705
2581 2 0.278083 0.485439 0.00754089
1440 4 0.29841 0.499887 0.0700755
2583 4 0.30316 0.490237 0.00891473
2912 4 0.320857 0.493564 0.0190886
3755 4 0.363461 0.46439 0.00314577
1565 4 0.00861547 0.0354487 0.153702
2745 4 0.00822342 0.00412622 0.103889
1564 2 0.0336157 0.0369468 0.151079
1566 4 0.0586159 0.0384449 0.148456
2701 2 0.05242 0.00880416 0.110124
2703 4 0.0775255 0.0136027 0.109448
1479 4 0.0795194 0.0390188 0.14637
2781 4 0.0924995 0.00480579 0.114848
2702 4 0.0273145 0.00400558 0.110801
1477 2 0.104065 0.0447761 0.151164
2779 2 0.106956 0.0211805 0.10067
1478 4 0.128611 0.0505333 0.155957
2780 4 0.121412 0.0375552 0.0864913
2679 4 0.135527 0.0527561 0.0802684
744 4 0.149294 0.0517477 0.1542
742 2 0.174087 0.0574888 0.15085
2677 2 0.159554 0.0498629 0.0850333
2678 4 0.18358 0.0469697 0.0897983
743 4 0.19888 0.06323 0.1475
3810 4 0.219397 0.0661568 0.145792
3808 2 0.244492 0.0684601 0.143808
3809 4 0.269586 0.0707635 0.141824
2519 4 0.289888 0.0746977 0.138129
1476 4 0.320543 0.0411368 0.0974438
2518 2 0.313872 0.082208 0.132131
1474 2 0.341784 0.0327345 0.10516
1475 4 0.363025 0.0243321 0.112876
1661 4 0.378691 0.0130426 0.107837
1660 2 0.401726 0.0166808 0.097773
2886 4 0.435415 0.0407191 0.0838734
1662 4 0.42476 0.020319 0.0877087
2601 4 0.00640621 0.144698 0.118747
378 4 0.0256641 0.152312 0.124299
376 2 0.0497076 0.157567 0.131328
377 4 0.0737511 0.162823 0.138357
629 4 0.0925257 0.168366 0.145093
1748 4 0.0952922 0.113379 0.160305
697 2 0.212241 0.136877 0.163144
699 4 0.236108 0.145225 0.157427
2769 4 0.255766 0.143459 0.162522
2767 2 0.28084 0.148186 0.161029
2520 4 0.337856 0.0897183 0.126132
693 4 0.359386 0.155084 0.125902
691 2 0.342152 0.156006 0.143889
2768 4 0.305915 0.152914 0.159535
692 4 0.324919 0.156929 0.161875
723 4 0.358087 0.09574 0.123333
721 2 0.383167 0.100579 0.122101
722 4 0.408248 0.105418 0.120868
759 4 0.428466 0.112752 0.119662
757 2 0.453216 0.113178 0.123534
758 4 0.477965 0.113605 0.127406
356 4 0.497757 0.118438 0.124998
578 4 0.0314501 0.206199 0.158919
577 2 0.00818715 0.195371 0.163972
507 4 0.0504684 0.201247 0.155976
505 2 0.0733342 0.211903 0.14922
506 4 0.0962001 0.22256 0.142465
836 4 0.111459 0.229235 0.155637
628 2 0.117057 0.168628 0.150081
835 2 0.125454 0.238707 0.136398
2614 2 0.14027 0.25005 0.0841746
630 4 0.141588 0.168889 0.155069
837 4 0.139449 0.24818 0.117159
332 4 0.160059 0.174402 0.165954
353 4 0.365994 0.170255 0.113626
2754 4 0.389072 0.248161 0.160194
352 2 0.380927 0.169565 0.0936452
519 4 0.0444358 0.329081 0.154221
524 4 0.0835439 0.293024 0.0825841
2470 2 0.102411 0.29852 0.119809
2472 4 0.0936708 0.287632 0.0985628
2471 4 0.111151 0.309408 0.141055
608 4 0.103511 0.32322 0.152836
607 2 0.0815109 0.331945 0.157063
2615 4 0.154428 0.256807 0.104209
109 3 0.20426 0.296117 0.132898
106 1 0.221429 0.291442 0.147117
110 3 0.241706 0.296007 0.136697
108 3 0.218134 0.269136 0.15348
349 2 0.291854 0.315913 0.151411
351 4 0.269199 0.309289 0.161583
350 4 0.314508 0.322537 0.14124
251 4 0.3344 0.321415 0.136626
2752 2 0.401414 0.259719 0.140917
2753 4 0.413756 0.271276 0.12164
2730 4 0.433443 0.273266 0.124016
2728 2 0.456794 0.277392 0.114753
2729 4 0.480144 0.281519 0.105491
609 4 0.0595107 0.34067 0.16129
3541 2 0.145225 0.398263 0.0925268
3542 4 0.164769 0.394198 0.106927
1742 4 0.266026 0.404666 0.08455
1741 2 0.285708 0.413079 0.0988946
250 2 0.350382 0.340218 0.127503
287 4 0.380288 0.374652 0.120668
252 4 0.366364 0.359022 0.118379
286 2 0.395699 0.392793 0.131667
288 4 0.411109 0.410934 0.142666
296 4 0.404463 0.415531 0.161819
1466 4 0.0431088 0.438155 0.0858123
1863 4 0.0464274 0.458387 0.142357
303 4 0.033367 0.452348 0.158197
1861 2 0.0547538 0.481877 0.135794
1465 2 0.0654431 0.445535 0.0963327
4212 4 0.0777705 0.431874 0.134461
1467 4 0.0877774 0.452915 0.106853
4210 2 0.0934499 0.443979 0.151082
1788 4 0.107579 0.451585 0.108265
1665 4 0.12694 0.457612 0.161312
1786 2 0.129898 0.464687 0.113069
1787 4 0.152218 0.47779 0.117872
72 3 0.171447 0.486508 0.120851
73 3 0.203735 0.4916 0.140429
1743 4 0.30539 0.421491 0.113239
1438 2 0.302006 0.499386 0.0948052
1439 4 0.305601 0.498886 0.119535
2093 4 0.323483 0.42812 0.122586
2092 2 0.32633 0.446408 0.139623
2094 4 0.329176 0.464696 0.156661
902 4 0.429255 0.457911 0.118541
901 2 0.451158 0.452378 0.109307
903 4 0.473061 0.446844 0.100073
2513 4 0.489634 0.443483 0.109443
685 2 0.0102739 0.0490021 0.235285
686 4 0.0328121 0.0457988 0.225825
3678 4 0.0528545 0.0473755 0.225561
3676 2 0.0765692 0.0432667 0.22084
3677 4 0.100284 0.0391578 0.21612
179 3 0.113516 0.0348857 0.203753
176 1 0.132019 0.049797 0.197695
180 3 0.129804 0.05652 0.176146
177 3 0.133218 0.0681242 0.21156
178 3 0.151606 0.0397613 0.200015
2573 4 0.169994 0.0440536 0.206046
2572 2 0.194652 0.0462755 0.211074
2733 4 0.205684 0.0118911 0.236814
2574 4 0.219311 0.0484974 0.216102
1506 4 0.232044 0.0480969 0.199807
2731 2 0.230791 0.0129364 0.236599
1504 2 0.256995 0.0539619 0.20149
2732 4 0.255897 0.0139817 0.236383
1505 4 0.281947 0.0598269 0.203173
2547 4 0.272237 0.0229913 0.244933
255 4 0.295349 0.0586349 0.188316
2545 2 0.295384 0.0353978 0.246404
253 2 0.319722 0.0552877 0.187903
2546 4 0.318532 0.0478044 0.247874
254 4 0.344096 0.0519405 0.18749
690 4 0.398742 0.0243728 0.172658
688 2 0.408761 0.0469857 0.180435
689 4 0.418781 0.0695986 0.188211
2693 4 0.493458 0.0677514 0.236171
2856 4 0.473533 0.0673098 0.240565
2179 2 0.0115318 0.088747 0.193942
2180 4 0.0348239 0.0863338 0.185987
1747 2 0.0739273 0.105305 0.172305
1749 4 0.0525625 0.09723 0.184305
2838 4 0.0532434 0.141115 0.237774
698 4 0.188374 0.128529 0.168861
631 2 0.135197 0.123776 0.242208
632 4 0.132235 0.118185 0.217946
522 4 0.130246 0.114264 0.198529
520 2 0.150077 0.123189 0.184616
521 4 0.169909 0.132114 0.170703
591 4 0.443088 0.129591 0.234165
2453 4 0.460978 0.138825 0.225825
2452 2 0.476184 0.150007 0.208278
2454 4 0.491391 0.161189 0.19073
1220 4 0.159907 0.235437 0.241208
1219 2 0.176785 0.222563 0.230252
1221 4 0.193663 0.209689 0.219296
331 2 0.184567 0.17888 0.171481
477 4 0.20663 0.226951 0.220999
475 2 0.229534 0.239156 0.216927
333 4 0.209075 0.183357 0.177007
2516 4 0.227357 0.188851 0.185107
2515 2 0.250077 0.183863 0.192627
2517 4 0.272796 0.178874 0.200148
2477 4 0.288002 0.172024 0.211428
2476 2 0.311928 0.175574 0.219196
2797 2 0.351769 0.240199 0.176231
2478 4 0.335853 0.179124 0.226964
2778 4 0.354187 0.185797 0.234928
2799 4 0.329581 0.245834 0.184637
2798 4 0.373957 0.234563 0.167825
2776 2 0.376417 0.196902 0.242999
518 4 0.0101367 0.330701 0.190392
517 2 0.0272863 0.329891 0.172306
291 4 0.0572686 0.327664 0.217454
290 4 0.0783749 0.285583 0.224215
289 2 0.0678217 0.306624 0.220835
2566 2 0.152541 0.29515 0.204387
2567 4 0.152914 0.306044 0.226873
345 4 0.138684 0.312905 0.236807
2568 4 0.152168 0.284256 0.181901
299 4 0.179183 0.294567 0.249631
476 4 0.252438 0.251361 0.212854
2491 2 0.224558 0.305566 0.242132
107 3 0.22114 0.304588 0.165902
2533 2 0.259233 0.324029 0.201887
2535 4 0.250693 0.328116 0.224842
2492 4 0.247796 0.309112 0.232529
755 4 0.271958 0.255364 0.21683
2534 4 0.267772 0.319943 0.178932
754 2 0.291474 0.253881 0.201496
756 4 0.31099 0.252398 0.186162
3572 4 0.460057 0.30698 0.246491
2526 4 0.476242 0.320116 0.243491
2524 2 0.492397 0.315211 0.22558
734 4 0.0256263 0.334499 0.20244
2862 4 0.0137348 0.396603 0.224222
1803 4 0.00501621 0.401242 0.241382
733 2 0.0288642 0.340356 0.226616
1423 2 0.223208 0.409585 0.190205
1424 4 0.227578 0.387503 0.199602
1437 4 0.239972 0.382387 0.213616
1435 2 0.262789 0.391173 0.222241
1436 4 0.285606 0.399959 0.230866
645 4 0.300716 0.391087 0.223009
643 2 0.320535 0.400602 0.23664
2569 2 0.48058 0.40637 0.20024
2570 4 0.480193 0.381869 0.204524
2969 4 0.485137 0.363624 0.20013
362 4 0.0545492 0.46089 0.219004
301 2 0.0364636 0.456441 0.182725
302 4 0.0395602 0.460533 0.207254
361 2 0.0663123 0.465035 0.240937
4211 4 0.109129 0.456083 0.167703
313 2 0.114468 0.461844 0.208997
315 4 0.0927467 0.455412 0.196957
314 4 0.136189 0.468275 0.221036
1663 2 0.150212 0.467704 0.167364
3960 4 0.197695 0.481955 0.234751
3958 2 0.1876 0.485432 0.212333
1664 4 0.173485 0.477796 0.173415
678 4 0.231331 0.448308 0.184655
1425 4 0.218838 0.431666 0.180808
3959 4 0.177505 0.488909 0.189914
681 4 0.227063 0.434605 0.24373
676 2 0.251491 0.460963 0.195498
677 4 0.27165 0.473619 0.20634
2918 4 0.290072 0.466465 0.200812
2917 2 0.311778 0.46567 0.188594
2919 4 0.333483 0.464875 0.176376
295 2 0.422675 0.433665 0.168082
297 4 0.440886 0.451799 0.174344
741 4 0.461782 0.452335 0.177598
2571 4 0.480966 0.430871 0.195957
739 2 0.486356 0.458858 0.181677
3722 4 0.337601 0.0524028 0.252129
123 3 0.405786 0.0422722 0.253605
3723 4 0.384959 0.0414303 0.255472
3721 2 0.36128 0.0469165 0.253801
125 3 0.403412 0.00469121 0.252747
3698 4 0.384081 0.00528556 0.260598
3876 4 0.366265 0.0139204 0.326674
3874 2 0.375588 0.0130433 0.303533
3875 4 0.384911 0.0121661 0.280391
121 1 0.411839 0.0233797 0.264199
122 3 0.403112 0.022404 0.285508
2854 2 0.464855 0.0483614 0.255569
124 3 0.435119 0.0245722 0.265504
2855 4 0.456177 0.029413 0.270573
2579 4 0.478552 0.0291304 0.277125
2837 4 0.029802 0.149157 0.280672
2836 2 0.0415227 0.145136 0.259223
633 4 0.13816 0.129368 0.266471
2879 4 0.139163 0.125683 0.286161
2878 2 0.162135 0.136718 0.292062
2880 4 0.185106 0.147753 0.297963
420 4 0.193679 0.146963 0.27906
418 2 0.217953 0.145557 0.284136
419 4 0.242227 0.144152 0.289211
589 2 0.434893 0.138838 0.255451
590 4 0.426699 0.148085 0.276737
300 4 0.161076 0.246732 0.257348
285 4 0.178411 0.240934 0.266631
283 2 0.186463 0.228701 0.286251
284 4 0.194514 0.216468 0.30587
390 4 0.213428 0.220334 0.2996
388 2 0.237049 0.230988 0.303138
2955 4 0.269267 0.246194 0.288036
389 4 0.26067 0.241641 0.306677
2787 4 0.317478 0.233788 0.270066
2529 4 0.334322 0.241817 0.327595
2953 2 0.293992 0.249358 0.283293
2785 2 0.34067 0.227738 0.274129
2786 4 0.363862 0.221689 0.278191
2777 4 0.398647 0.208008 0.251071
1198 2 0.384613 0.217512 0.321779
2940 4 0.425599 0.166559 0.284119
1200 4 0.404985 0.216426 0.307509
2939 4 0.414658 0.209651 0.26452
2938 2 0.420129 0.188105 0.27432
298 2 0.17013 0.270649 0.25349
343 2 0.140064 0.315786 0.261622
2654 4 0.151603 0.321175 0.302117
344 4 0.141444 0.318668 0.286437
2655 4 0.184192 0.295487 0.325957
2653 2 0.167897 0.308331 0.314037
2498 4 0.176714 0.27534 0.317733
2493 4 0.20132 0.302021 0.251735
2954 4 0.318716 0.252523 0.27855
1953 4 0.31012 0.304756 0.336451
536 4 0.420946 0.261475 0.329497
535 2 0.413848 0.269245 0.307129
537 4 0.406749 0.277015 0.284762
3573 4 0.421037 0.291199 0.276043
3571 2 0.440547 0.29909 0.261267
2621 4 0.444396 0.323608 0.331639
735 4 0.0321021 0.346212 0.250792
1801 2 0.000129748 0.406634 0.265162
1434 4 0.0225951 0.392647 0.318903
2530 2 0.10285 0.405248 0.331831
2532 4 0.126792 0.407759 0.324086
3695 4 0.138773 0.363648 0.260867
3885 4 0.144899 0.404635 0.326673
3694 2 0.163307 0.369389 0.26573
3696 4 0.187841 0.37513 0.270593
3883 2 0.158472 0.411114 0.306191
3602 4 0.20534 0.369609 0.267409
3601 2 0.230074 0.371768 0.272048
3603 4 0.254808 0.373927 0.276686
753 4 0.273722 0.382322 0.284685
751 2 0.295432 0.396323 0.289974
644 4 0.340354 0.410118 0.250272
752 4 0.317142 0.410325 0.295264
3 3 0.349444 0.401441 0.266056
1 1 0.354251 0.409066 0.287623
2 3 0.355114 0.390957 0.301478
363 4 0.0780754 0.469181 0.262871
262 2 0.117844 0.491012 0.272886
263 4 0.0976754 0.475307 0.266234
1386 4 0.157421 0.465406 0.278364
680 4 0.190325 0.420952 0.276628
1385 4 0.201029 0.473341 0.253498
1384 2 0.179225 0.469374 0.265931
3884 4 0.172044 0.417592 0.285709
500 4 0.220991 0.472126 0.254141
679 2 0.208694 0.427779 0.260179
499 2 0.242604 0.487403 0.254903
501 4 0.264216 0.502681 0.255665
4 3 0.337464 0.421272 0.295124
5 3 0.374524 0.422036 0.288019
1575 4 0.395652 0.430933 0.289769
1573 2 0.420708 0.43526 0.291868
1574 4 0.445764 0.439586 0.293967
543 4 0.466252 0.443559 0.289243
541 2 0.4914 0.447476 0.290163
1495 2 0.15669 0.00636607 0.399448
4124 4 0.111592 0.997278 0.399354
1496 4 0.131547 0.00201806 0.399742
2559 4 0.114924 0.0712255 0.416484
1497 4 0.181833 0.0107141 0.399155
1185 4 0.202925 0.00801996 0.397213
1184 4 0.252259 0.0233638 0.40033
1183 2 0.227592 0.0156919 0.398772
2114 4 0.272354 0.0317797 0.400591
2113 2 0.297206 0.0387157 0.400993
2115 4 0.322058 0.0456516 0.401395
1128 4 0.342352 0.0545341 0.4012
1126 2 0.367444 0.0583626 0.40315
707 4 0.413843 0.0667003 0.401731
1127 4 0.392535 0.0621911 0.405101
706 2 0.438834 0.0675709 0.403985
708 4 0.463825 0.0684415 0.406239
617 4 0.486986 0.0742998 0.401386
1245 4 0.000766742 0.088041 0.35036
2664 4 0.00854171 0.141424 0.400857
2667 4 0.0217436 0.0881251 0.354136
2662 2 0.0316104 0.135495 0.405809
2665 2 0.0455614 0.0951317 0.361076
2663 4 0.0546791 0.129566 0.410762
2666 4 0.0693791 0.102138 0.368015
2658 4 0.0751648 0.137171 0.412279
2656 2 0.0966719 0.150907 0.405785
1377 4 0.0897465 0.111741 0.363785
1375 2 0.114166 0.109187 0.366489
1376 4 0.138585 0.106634 0.369192
2870 4 0.156732 0.099056 0.372687
2869 2 0.181566 0.0985554 0.374966
2871 4 0.2064 0.0980548 0.377245
1524 4 0.224164 0.0926676 0.384383
1522 2 0.248002 0.0983479 0.391912
1523 4 0.27184 0.104028 0.399441
1058 4 0.291733 0.106815 0.394678
1057 2 0.316772 0.112239 0.393674
1059 4 0.341811 0.117663 0.39267
2823 4 0.315626 0.16648 0.39876
2643 4 0.358972 0.12442 0.384229
2641 2 0.383667 0.128636 0.388953
480 4 0.426742 0.129477 0.401534
2642 4 0.408362 0.132851 0.393676
478 2 0.450955 0.130108 0.408031
479 4 0.475167 0.130739 0.414528
2611 2 0.0385336 0.206866 0.404793
2612 4 0.0138377 0.202053 0.409302
371 4 0.0831039 0.220113 0.397651
2613 4 0.0632295 0.211679 0.400285
370 2 0.107123 0.226766 0.404109
2657 4 0.118179 0.164642 0.399292
372 4 0.131142 0.233419 0.410567
473 4 0.1522 0.237467 0.412011
2499 4 0.173011 0.25006 0.360874
2527 2 0.324744 0.24466 0.350371
2528 4 0.315166 0.247502 0.373146
1199 4 0.36424 0.218599 0.336049
2584 2 0.340888 0.216194 0.401607
2585 4 0.321477 0.228055 0.408707
2586 4 0.360299 0.204332 0.394508
2685 4 0.376423 0.196307 0.398522
2683 2 0.398245 0.202092 0.386466
2684 4 0.420066 0.207877 0.374409
765 4 0.435662 0.206751 0.38581
763 2 0.45576 0.224067 0.385021
2542 2 0.496881 0.174536 0.397083
764 4 0.475858 0.241382 0.384232
2543 4 0.479005 0.186649 0.407319
305 4 0.0154966 0.287356 0.396212
120 3 0.172541 0.292476 0.400806
2497 2 0.174863 0.2627 0.339303
119 3 0.157357 0.257472 0.409276
118 3 0.170888 0.26572 0.374361
116 1 0.173767 0.270364 0.396976
487 2 0.217154 0.321687 0.372633
117 3 0.194604 0.265202 0.403464
489 4 0.202882 0.318165 0.352115
2930 4 0.240396 0.289732 0.338601
488 4 0.231425 0.325209 0.393151
2931 4 0.289867 0.304902 0.338389
2929 2 0.265132 0.297317 0.338495
2831 4 0.304271 0.258129 0.38536
1951 2 0.334041 0.303784 0.343264
2830 2 0.312261 0.27299 0.404486
2682 4 0.377163 0.305315 0.346386
1952 4 0.357962 0.302811 0.350077
2680 2 0.401902 0.310371 0.342233
2681 4 0.426641 0.315427 0.338079
710 4 0.417687 0.271996 0.346585
709 2 0.44019 0.269412 0.356488
2620 2 0.469353 0.324826 0.334484
2622 4 0.494311 0.326045 0.33733
2802 4 0.492054 0.254058 0.380662
711 4 0.462693 0.266827 0.36639
636 4 0.478466 0.274549 0.35406
1432 2 0.0418906 0.398327 0.334601
1433 4 0.0611861 0.404007 0.3503
2531 4 0.0789074 0.402736 0.339576
452 4 0.241557 0.339129 0.406467
1450 2 0.00983611 0.464842 0.345484
1451 4 0.0347484 0.470607 0.347789
3582 4 0.122398 0.432139 0.363953
2588 4 0.11533 0.440159 0.380501
2587 2 0.120495 0.450504 0.402924
3580 2 0.144177 0.442298 0.353989
549 4 0.184197 0.456926 0.350584
3581 4 0.165956 0.452456 0.344026
547 2 0.204051 0.472112 0.358915
548 4 0.223906 0.487297 0.367246
3963 4 0.284703 0.449921 0.404652
3961 2 0.268206 0.463825 0.414744
3422 4 0.456699 0.424486 0.365045
3421 2 0.48074 0.426819 0.372469
3798 4 0.00799513 0.0706244 0.440144
220 3 0.0259676 0.0771976 0.449341
219 3 0.0442902 0.0532195 0.469172
216 1 0.0466217 0.0721701 0.455782
218 3 0.0595019 0.068632 0.437104
2457 4 0.0576066 0.0532003 0.485381
2558 4 0.0770383 0.0748255 0.448414
2455 2 0.0791098 0.043109 0.482661
2557 2 0.0959809 0.0730255 0.432449
2456 4 0.100613 0.0330177 0.479941
2459 4 0.109016 0.00554528 0.478302
1181 4 0.114811 0.0130964 0.461493
4238 4 0.128873 0.0734894 0.430999
1182 4 0.163659 0.0308216 0.463416
1180 2 0.139235 0.021959 0.462454
4237 2 0.153657 0.0807059 0.429973
2314 2 0.465707 0.0788265 0.488293
2315 4 0.487173 0.0726725 0.498002
7 3 0.0534994 0.151968 0.451907
10 3 0.0752087 0.157882 0.482188
217 3 0.0573595 0.0897635 0.467832
984 4 0.0750001 0.0943946 0.456309
983 4 0.0970877 0.141336 0.461457
982 2 0.0860439 0.117865 0.458883
725 4 0.11016 0.155846 0.471836
2196 4 0.0873393 0.0946446 0.501075
4239 4 0.178441 0.0879224 0.428946
2504 4 0.196017 0.0993446 0.426715
2503 2 0.207959 0.120031 0.437098
2505 4 0.2199 0.140717 0.447481
2552 4 0.200938 0.117148 0.492041
762 4 0.220717 0.125211 0.496709
3462 4 0.206524 0.161372 0.48309
760 2 0.241202 0.114235 0.491288
761 4 0.261686 0.103258 0.485866
3173 4 0.281443 0.099589 0.48446
410 4 0.304397 0.164181 0.453938
2822 4 0.295753 0.150256 0.442535
2821 2 0.305689 0.158368 0.420647
3172 2 0.306534 0.104569 0.485146
3174 4 0.331625 0.109548 0.485831
2901 4 0.339333 0.0997992 0.469264
2899 2 0.364205 0.106615 0.469585
2900 4 0.389077 0.113431 0.469906
1150 2 0.427553 0.115646 0.47403
1152 4 0.406321 0.126206 0.471306
1151 4 0.448785 0.105086 0.476754
2316 4 0.444241 0.0849804 0.478585
469 2 0.493118 0.119065 0.445167
470 4 0.473518 0.116373 0.429472
319 2 0.0111262 0.169755 0.486449
320 4 0.0331102 0.177813 0.475561
1035 4 0.00667748 0.210975 0.424167
6 1 0.0659418 0.167962 0.464659
8 3 0.0828085 0.179049 0.451464
9 3 0.0518591 0.182957 0.472489
726 4 0.139828 0.19538 0.454043
724 2 0.124994 0.175613 0.462939
474 4 0.150813 0.213923 0.456106
472 2 0.151507 0.225695 0.434058
3460 2 0.230535 0.169921 0.48797
3461 4 0.254545 0.17847 0.49285
411 4 0.27319 0.17843 0.488783
824 4 0.286338 0.226736 0.487092
409 2 0.288794 0.171306 0.471361
937 2 0.309462 0.224889 0.448877
938 4 0.295026 0.223138 0.469364
939 4 0.323898 0.22664 0.42839
2239 2 0.501217 0.177505 0.482359
694 2 0.216381 0.310089 0.486836
696 4 0.213245 0.311979 0.462131
453 4 0.225112 0.326775 0.452557
823 2 0.286584 0.250368 0.49484
451 2 0.233334 0.332952 0.429512
2832 4 0.320251 0.287851 0.423612
584 4 0.335696 0.296753 0.436317
583 2 0.358698 0.304971 0.444857
585 4 0.3817 0.31319 0.453398
2925 4 0.401923 0.315355 0.455296
2923 2 0.426764 0.321455 0.457887
873 4 0.455909 0.31487 0.446093
2924 4 0.451606 0.327555 0.460478
871 2 0.478301 0.310118 0.437413
1173 4 0.0513682 0.411624 0.478217
2561 4 0.137618 0.351285 0.428403
2562 4 0.16474 0.384335 0.457937
2560 2 0.151179 0.36781 0.44317
594 4 0.183686 0.380084 0.451143
592 2 0.204648 0.396131 0.448837
593 4 0.225609 0.412177 0.446531
2928 4 0.459461 0.415873 0.452259
2926 2 0.478471 0.403463 0.445119
2927 4 0.49748 0.391053 0.437978
1172 4 0.0141808 0.438628 0.489922
893 4 0.0628807 0.490896 0.445797
892 2 0.0519131 0.467567 0.442028
894 4 0.0409454 0.444238 0.438259
1171 2 0.0327745 0.425126 0.484069
569 4 0.0204153 0.439844 0.440102
602 4 0.0981056 0.459077 0.474856
601 2 0.0988693 0.482359 0.483745
2589 4 0.125659 0.460849 0.425346
2648 4 0.142649 0.468985 0.435109
2961 4 0.206162 0.497797 0.448231
2649 4 0.187147 0.496391 0.442285
3318 4 0.204504 0.437733 0.458419
2647 2 0.164898 0.482688 0.438697
3316 2 0.222076 0.455044 0.449176
4179 4 0.309224 0.424794 0.465593
3317 4 0.239649 0.472356 0.439934
3962 4 0.251709 0.477729 0.424836
4178 4 0.354079 0.449157 0.4778
1697 4 0.372489 0.455754 0.484661
4177 2 0.331652 0.436975 0.471697
1696 2 0.377109 0.479919 0.478473
3451 2 0.471856 0.432922 0.491352
3452 4 0.466389 0.418593 0.471206
3179 4 0.0914395 0.0432365 0.533621
3178 2 0.104902 0.0382073 0.553671
3852 4 0.126497 0.0603283 0.511653
3180 4 0.118365 0.0331781 0.573722
3395 4 0.134196 0.0438314 0.567543
3850 2 0.150587 0.0562006 0.513573
3851 4 0.174678 0.0520728 0.515493
3326 4 0.189985 0.0657473 0.522032
3325 2 0.213639 0.0613302 0.526595
3327 4 0.237292 0.0569131 0.531159
944 4 0.257453 0.0607775 0.535047
943 2 0.282445 0.066251 0.533297
945 4 0.307436 0.0717244 0.531547
2997 4 0.319696 0.0185696 0.582788
3309 4 0.327063 0.0165058 0.563522
3033 4 0.327402 0.0739316 0.530016
3031 2 0.352071 0.0795342 0.534253
1968 4 0.475678 0.0159104 0.580952
1966 2 0.46329 0.0139102 0.559189
1967 4 0.450903 0.01191 0.537426
1163 4 0.49233 0.0276468 0.576581
89 3 0.00815491 0.105655 0.51399
575 4 0.0254085 0.114983 0.507119
574 2 0.0465008 0.103917 0.507321
576 4 0.0675932 0.0928509 0.507522
368 4 0.0749204 0.157928 0.502582
367 2 0.0987727 0.155178 0.508312
369 4 0.122625 0.152427 0.514042
2553 4 0.154498 0.109038 0.511216
2194 2 0.112506 0.0985119 0.500891
2195 4 0.137672 0.102379 0.500707
2551 2 0.177718 0.113093 0.501628
3032 4 0.37674 0.0851368 0.538491
2501 4 0.395337 0.0849723 0.548325
2500 2 0.420476 0.0876649 0.549783
2502 4 0.445614 0.0903576 0.551242
1142 4 0.465063 0.0981653 0.552116
1141 2 0.490209 0.101667 0.550859
1259 4 0.0405676 0.230904 0.575325
1258 2 0.0640203 0.226625 0.569626
1260 4 0.087473 0.222345 0.563926
3038 4 0.104051 0.212979 0.56702
3037 2 0.125564 0.217533 0.57986
2240 4 0.496411 0.169745 0.50581
1283 4 0.49659 0.216935 0.582348
936 4 0.0425524 0.251784 0.572795
935 4 0.0169985 0.28932 0.559076
934 2 0.0297755 0.270552 0.565935
3045 4 0.0343446 0.318455 0.513847
695 4 0.219516 0.308199 0.51154
1641 4 0.219001 0.302369 0.530335
1639 2 0.227299 0.324698 0.540085
825 4 0.286829 0.273999 0.502587
1279 2 0.321071 0.328443 0.550911
1281 4 0.335256 0.31258 0.561621
348 4 0.354155 0.314111 0.565729
346 2 0.377243 0.324659 0.57187
3043 2 0.053956 0.335994 0.517176
2108 4 0.0699629 0.396876 0.545326
2107 2 0.0703312 0.410166 0.524182
3454 2 0.110731 0.362739 0.515427
1039 2 0.111967 0.410529 0.579867
3044 4 0.0735673 0.353533 0.520505
1041 4 0.136129 0.407274 0.583291
3455 4 0.133084 0.371214 0.525333
3456 4 0.0883776 0.354264 0.505521
879 4 0.145742 0.397398 0.56977
1040 4 0.0878046 0.413785 0.576443
877 2 0.149482 0.386898 0.547636
878 4 0.153221 0.376398 0.525502
1640 4 0.235597 0.347027 0.549834
773 4 0.308516 0.364002 0.534648
772 2 0.313967 0.3818 0.551893
774 4 0.319419 0.399599 0.569139
1280 4 0.306886 0.344306 0.540201
1910 4 0.336746 0.408282 0.576765
1909 2 0.360907 0.416449 0.581362
347 4 0.400331 0.335207 0.578012
2172 4 0.064681 0.496779 0.544526
1160 4 0.0468658 0.4886 0.534051
1159 2 0.0217883 0.487726 0.533162
2109 4 0.0706994 0.423455 0.503037
3492 4 0.249035 0.502207 0.572593
3072 4 0.370615 0.440542 0.529303
4130 4 0.391023 0.485694 0.520781
3070 2 0.39264 0.447587 0.54057
3071 4 0.414666 0.454631 0.551837
791 4 0.432912 0.465728 0.554293
790 2 0.449155 0.463143 0.535732
792 4 0.465398 0.460559 0.517172
3453 4 0.477322 0.447251 0.511497
3394 2 0.152004 0.0540548 0.583219
3123 4 0.109363 0.0133189 0.636703
3121 2 0.13012 0.0095981 0.623984
3396 4 0.169812 0.0642782 0.598894
3122 4 0.150876 0.00587727 0.611264
3065 4 0.164037 0.0157771 0.599196
3030 4 0.179389 0.0575379 0.61428
3028 2 0.18245 0.067166 0.637276
3029 4 0.185512 0.0767941 0.660273
3023 4 0.22278 0.00377204 0.587102
3022 2 0.245483 0.015837 0.592381
4074 4 0.252567 0.0360554 0.656177
3064 2 0.184343 0.00437268 0.594167
3024 4 0.268185 0.027902 0.59766
4072 2 0.268161 0.0199944 0.648418
2995 2 0.30099 0.031097 0.590522
2996 4 0.282284 0.0436243 0.598256
4073 4 0.283756 0.00393344 0.640658
3292 2 0.23902 0.115675 0.655917
3294 4 0.255542 0.104605 0.642354
3039 4 0.147077 0.222086 0.5927
3386 4 0.166338 0.230803 0.593727
3385 2 0.191344 0.230826 0.593824
3387 4 0.21635 0.23085 0.593921
384 4 0.234858 0.235602 0.600299
382 2 0.257436 0.242403 0.610563
383 4 0.280015 0.249204 0.620827
960 4 0.310626 0.23401 0.599966
958 2 0.330413 0.222004 0.605477
959 4 0.350201 0.209997 0.610987
1256 4 0.367486 0.220386 0.606803
2972 4 0.295662 0.249683 0.63358
1255 2 0.391439 0.225478 0.599428
1155 4 0.431442 0.22122 0.595404
1257 4 0.415393 0.23057 0.592053
1154 4 0.480491 0.226472 0.584054
1153 2 0.455967 0.223846 0.589729
3164 4 0.0153556 0.273462 0.6461
1083 4 0.0348017 0.273762 0.649066
1081 2 0.0503533 0.266101 0.666247
2971 2 0.304268 0.265064 0.652098
3435 4 0.331701 0.277785 0.668118
2721 4 0.116773 0.35676 0.636854
2719 2 0.141729 0.360311 0.633558
2720 4 0.166685 0.363861 0.630263
3447 4 0.174953 0.379965 0.636851
3445 2 0.194974 0.393868 0.646603
3446 4 0.214994 0.40777 0.656354
3353 4 0.224071 0.391518 0.660212
3352 2 0.248649 0.390125 0.663513
3354 4 0.273228 0.388733 0.666815
1205 4 0.302923 0.389531 0.598106
1204 2 0.315745 0.373902 0.610948
1206 4 0.328567 0.358273 0.623789
1139 4 0.345021 0.371378 0.62787
1138 2 0.368948 0.372781 0.635533
1140 4 0.392876 0.374183 0.643195
798 4 0.4017 0.393946 0.645027
3419 4 0.413611 0.351491 0.584147
796 2 0.426306 0.392087 0.642742
3418 2 0.437217 0.358451 0.591778
797 4 0.450913 0.390227 0.640458
82 3 0.462655 0.401841 0.627935
806 4 0.45652 0.379186 0.65493