ITEM: TIMESTEP
621500
ITEM: NUMBER OF ATOMS
4590
ITEM: BOX BOUNDS xy xz yz pp pp pp
-9.9985700000000008e+00 9.9985700000000008e+00 0.0000000000000000e+00
-9.9985700000000008e+00 9.9985700000000008e+00 0.0000000000000000e+00
-9.9985700000000008e+00 9.9985700000000008e+00 0.0000000000000000e+00
ITEM: ATOMS id type xs ys zs
3209 4 0.0815595 0.0403241 0.0393404
3208 2 0.0996716 0.0559553 0.0466065
3210 4 0.117784 0.0715864 0.0538726
557 4 0.131504 0.0826328 0.0621662
556 2 0.155864 0.0819336 0.0677606
558 4 0.180223 0.0812343 0.0733551
1759 2 0.3349 0.0613864 0.0322087
1760 4 0.341 0.0503001 0.0537739
1761 4 0.3288 0.0724727 0.0106436
1662 4 0.351521 0.0320266 0.0895902
2886 4 0.351803 0.0398111 0.0687759
2884 2 0.376035 0.0437558 0.0640404
2885 4 0.400267 0.0477004 0.059305
2466 4 0.369037 0.0036877 0.0502625
3903 4 0.419305 0.0516616 0.0540285
3901 2 0.419419 0.0584269 0.0299579
3269 4 0.463534 0.013906 0.9956
3413 4 0.107291 0.121405 0.00713798
3412 2 0.121844 0.122124 0.027457
3414 4 0.136398 0.122844 0.047776
3344 4 0.154834 0.124998 0.054568
3343 2 0.177078 0.135496 0.0500743
3345 4 0.199321 0.145995 0.0455806
654 4 0.200316 0.0868249 0.0714122
2882 4 0.217034 0.155652 0.0474775
652 2 0.224732 0.092064 0.0726876
2881 2 0.237635 0.156528 0.0616194
653 4 0.249147 0.097303 0.073963
2883 4 0.258237 0.157404 0.0757612
22 3 0.267513 0.106258 0.068389
21 1 0.279929 0.124946 0.0734655
24 3 0.288378 0.133907 0.0538007
2975 4 0.289619 0.153644 0.0524114
2974 2 0.309376 0.168946 0.0515589
2660 4 0.372322 0.136785 0.0163152
2661 4 0.40746 0.161746 0.0416738
2659 2 0.389891 0.149265 0.0289945
3393 4 0.418977 0.168879 0.0277347
2652 4 0.110339 0.229068 0.0558647
308 4 0.0953626 0.240465 0.0478887
2650 2 0.132132 0.241114 0.0581368
2976 4 0.329132 0.184248 0.0507063
3234 4 0.292199 0.202104 0.0134571
3232 2 0.316538 0.20733 0.0111061
278 4 0.307803 0.249012 0.0443931
454 2 0.259715 0.200865 0.998824
456 4 0.279966 0.188378 0.00651291
656 4 0.351127 0.19639 5.50363e-06
3233 4 0.340876 0.212556 0.00875509
3391 2 0.441088 0.175284 0.0374943
3392 4 0.4632 0.181689 0.047254
307 2 0.0780751 0.255127 0.0373382
968 4 0.0133118 0.2816 0.0245822
2839 2 0.0238588 0.266925 0.051239
2841 4 0.0417598 0.268051 0.0338187
309 4 0.0607876 0.26979 0.0267878
2840 4 0.00595782 0.2658 0.0686593
967 2 0.00249376 0.297749 0.00885477
2651 4 0.153924 0.25316 0.0604089
105 3 0.21319 0.249077 0.0152458
527 4 0.170235 0.262157 0.0532078
3215 4 0.191894 0.32623 0.0615187
3214 2 0.215683 0.321383 0.0675025
526 2 0.172275 0.266761 0.0287165
528 4 0.174315 0.271364 0.00422508
3216 4 0.239471 0.316536 0.0734862
103 3 0.249667 0.247562 0.0244549
101 1 0.234443 0.250032 0.0071188
4305 4 0.256426 0.315559 0.06413
4303 2 0.266373 0.294854 0.0740045
277 2 0.28604 0.254677 0.0334636
279 4 0.264277 0.260341 0.0225342
3141 4 0.325479 0.250025 0.0363928
3139 2 0.33864 0.270296 0.0428005
3140 4 0.351801 0.290567 0.0492082
621 4 0.370367 0.291745 0.0552762
619 2 0.394392 0.285037 0.0535466
2487 4 0.389072 0.326138 0.0452701
2747 4 0.402112 0.340774 0.0445098
620 4 0.418416 0.278328 0.051817
2725 2 0.33765 0.395251 0.0645568
2486 4 0.356369 0.358876 0.0642293
2485 2 0.372721 0.342507 0.0547497
2727 4 0.348057 0.374568 0.0739957
2746 2 0.426063 0.346034 0.0396207
2748 4 0.450013 0.351294 0.0347316
1121 4 0.46697 0.348865 0.046761
1120 2 0.489037 0.341711 0.0560915
3543 4 0.435013 0.422925 0.0826206
3542 4 0.483971 0.416796 0.0744782
3541 2 0.459492 0.419861 0.0785494
4548 4 0.497653 0.339876 0.000555462
3338 4 0.999377 0.422424 0.0675338
3899 4 0.125111 0.470876 0.0178798
2934 4 0.142217 0.46291 0.0186758
2932 2 0.166841 0.463569 0.014385
2933 4 0.191465 0.464227 0.0100942
2726 4 0.327243 0.415933 0.055118
671 4 0.310459 0.427508 0.0520629
670 2 0.307227 0.444053 0.0705297
2583 4 0.374982 0.484955 0.0240496
2912 4 0.384201 0.4757 0.0406417
2911 2 0.408614 0.480404 0.0433035
2581 2 0.355284 0.4827 0.00881619
2913 4 0.433026 0.485108 0.0459653
2677 2 0.0160431 0.0791185 0.116449
2679 4 0.00110594 0.0729318 0.135522
1660 2 0.33069 0.0190766 0.0944425
1661 4 0.309859 0.00612664 0.0992947
2678 4 0.0309802 0.0853053 0.0973755
758 4 0.061879 0.162879 0.144702
356 4 0.0818059 0.16596 0.147045
25 3 0.266603 0.140208 0.0838635
23 3 0.297355 0.11879 0.087495
2894 4 0.314684 0.130973 0.0876241
2893 2 0.335989 0.141916 0.0948055
2895 4 0.357293 0.152858 0.101987
759 4 0.0208836 0.167042 0.116369
757 2 0.0413813 0.164961 0.130535
722 4 0.0027438 0.172949 0.120139
2875 2 0.024864 0.23256 0.095759
2877 4 0.0493821 0.237416 0.0964477
2718 4 0.0647661 0.246517 0.0845592
355 2 0.106724 0.167726 0.148126
357 4 0.131642 0.169492 0.149206
623 4 0.14782 0.180926 0.151113
2615 4 0.159683 0.249362 0.129232
622 2 0.171829 0.187714 0.152749
837 4 0.170319 0.236856 0.142806
624 4 0.195838 0.194501 0.154385
835 2 0.189136 0.237243 0.126345
505 2 0.233349 0.200888 0.159124
836 4 0.207953 0.23763 0.109885
507 4 0.257272 0.200976 0.151853
578 4 0.272953 0.203498 0.138738
577 2 0.285756 0.185403 0.150306
2600 4 0.37064 0.168201 0.102584
2599 2 0.395215 0.172665 0.103725
2601 4 0.41979 0.17713 0.104867
2729 4 0.469723 0.226717 0.0938752
629 4 0.495739 0.175643 0.131909
2728 2 0.449904 0.238737 0.103251
378 4 0.436443 0.178667 0.116144
376 2 0.459229 0.170132 0.121897
377 4 0.482016 0.161597 0.12765
107 3 0.0230293 0.281197 0.140792
110 3 0.0464321 0.278427 0.111853
106 1 0.0451051 0.281719 0.134348
109 3 0.0565749 0.264912 0.145499
108 3 0.0540409 0.302411 0.139862
351 4 0.0835717 0.335871 0.130935
250 2 0.00272787 0.335094 0.129443
2716 2 0.0833542 0.258594 0.0961271
2717 4 0.101942 0.270671 0.107695
2534 4 0.090777 0.322526 0.144359
2616 4 0.114573 0.270338 0.124153
2614 2 0.137128 0.25985 0.126692
2463 4 0.17828 0.326149 0.154387
4304 4 0.27632 0.274148 0.083879
2752 2 0.412881 0.258485 0.141057
2706 4 0.345602 0.329306 0.154216
2730 4 0.430085 0.250757 0.112628
2753 4 0.429733 0.267066 0.124699
2783 4 0.488886 0.26339 0.114181
349 2 0.0591716 0.33657 0.12552
251 4 0.0177464 0.347989 0.114167
350 4 0.0347716 0.337269 0.120105
1569 4 0.0829344 0.402509 0.116414
2970 4 0.998923 0.38251 0.165597
3404 4 0.0971867 0.387208 0.115646
3403 2 0.118212 0.39373 0.127503
3405 4 0.139238 0.400251 0.139359
2704 2 0.344372 0.354269 0.15493
2705 4 0.343141 0.379232 0.155644
1742 4 0.499335 0.415498 0.086618
3801 4 0.0324126 0.487823 0.155918
1568 4 0.0408339 0.429418 0.114369
1567 2 0.0618842 0.415964 0.115391
3552 4 0.0201108 0.433163 0.117659
3550 2 0.015301 0.425107 0.140836
3551 4 0.0104911 0.417051 0.164012
303 4 0.127013 0.467158 0.149526
1863 4 0.146878 0.465258 0.14519
1861 2 0.171709 0.465885 0.142328
1862 4 0.196541 0.466513 0.139466
1787 4 0.215768 0.474279 0.139001
1786 2 0.239862 0.480718 0.140792
672 4 0.303996 0.460597 0.0889965
1788 4 0.263956 0.487157 0.142584
1466 4 0.313253 0.452872 0.104222
4211 4 0.304609 0.451451 0.162038
1465 2 0.312334 0.444404 0.12773
1467 4 0.311415 0.435937 0.151238
626 4 0.282471 0.493281 0.13983
625 2 0.306009 0.501672 0.138976
3729 4 0.417188 0.420395 0.090979
3728 4 0.372939 0.434007 0.109886
3727 2 0.395063 0.427201 0.100433
2919 4 0.479621 0.48496 0.159832
2094 4 0.495299 0.475317 0.153441
2733 4 0.0781084 0.99798 0.1735
2573 4 0.00411168 0.0383232 0.180406
2572 2 0.0264143 0.0493841 0.182737
126 1 0.0364948 0.0243995 0.230508
128 3 0.0278532 0.0458199 0.232721
129 3 0.0593871 0.0254309 0.226865
2732 4 0.0758333 0.0270562 0.214121
2574 4 0.0487169 0.0604451 0.185067
2731 2 0.0769708 0.0125179 0.193811
130 3 0.0263421 0.0136768 0.213171
1506 4 0.0672364 0.066843 0.185778
2547 4 0.0913678 0.0194026 0.223289
2545 2 0.111235 0.0289497 0.235094
1504 2 0.0901714 0.0741303 0.17899
2546 4 0.131102 0.0384969 0.246898
1505 4 0.113106 0.0814175 0.172203
3722 4 0.137176 0.0511112 0.232596
255 4 0.131452 0.0776314 0.165516
3721 2 0.160963 0.0579968 0.236054
253 2 0.15424 0.0675788 0.16771
254 4 0.177028 0.0575263 0.169904
3723 4 0.18475 0.0648824 0.239511
123 3 0.200633 0.0758085 0.242146
125 3 0.219436 0.0639106 0.211773
121 1 0.217139 0.0615099 0.234303
3875 4 0.206322 0.023846 0.251336
122 3 0.211062 0.0398338 0.239032
690 4 0.317053 0.015861 0.167987
732 4 0.0576877 0.163366 0.175732
581 4 0.0682806 0.160156 0.193199
730 2 0.0390778 0.172263 0.189863
580 2 0.0924296 0.157179 0.198955
582 4 0.116579 0.154202 0.20471
750 4 0.128195 0.139886 0.195496
748 2 0.149652 0.152711 0.194918
457 2 0.209891 0.148419 0.197327
458 4 0.234278 0.144189 0.193785
459 4 0.185504 0.15265 0.200869
237 4 0.252031 0.137391 0.198505
235 2 0.272729 0.14476 0.186568
236 4 0.293426 0.15213 0.174631
606 4 0.00742405 0.178656 0.219825
604 2 0.01805 0.168245 0.239922
731 4 0.020468 0.181161 0.203994
298 2 0.0818112 0.241381 0.222264
300 4 0.102553 0.229677 0.214649
1220 4 0.115773 0.219487 0.224444
1219 2 0.135175 0.229857 0.212561
1221 4 0.154577 0.240227 0.200677
506 4 0.209426 0.200801 0.166394
749 4 0.171108 0.165535 0.19434
579 4 0.298559 0.167308 0.161873
2786 4 0.399444 0.240964 0.174884
2785 2 0.399147 0.242266 0.199852
2787 4 0.398851 0.243568 0.22482
2493 4 0.0612182 0.273679 0.229542
299 4 0.0610694 0.253084 0.229878
2491 2 0.0706829 0.294799 0.220078
2492 4 0.0801475 0.315919 0.210615
2533 2 0.0906137 0.319588 0.169188
2535 4 0.0904505 0.31665 0.194018
477 4 0.174146 0.240311 0.194634
2461 2 0.184171 0.326709 0.178681
475 2 0.198266 0.246475 0.196952
2462 4 0.190063 0.327268 0.202974
476 4 0.222387 0.25264 0.19927
755 4 0.22589 0.269461 0.188501
2525 4 0.209521 0.325231 0.207376
754 2 0.250216 0.274878 0.18648
3571 2 0.290578 0.320998 0.210024
756 4 0.274542 0.280295 0.18446
2954 4 0.287247 0.294276 0.231715
2799 4 0.292849 0.277043 0.178206
2797 2 0.317315 0.281826 0.176281
3573 4 0.298778 0.297827 0.214613
2754 4 0.396029 0.249905 0.157414
2798 4 0.341782 0.286609 0.174356
1056 4 0.357318 0.297756 0.164846
1054 2 0.376913 0.307621 0.176842
1055 4 0.396508 0.317486 0.188838
2541 4 0.462059 0.30457 0.190582
2540 4 0.412164 0.30536 0.187343
2539 2 0.437112 0.304965 0.188963
729 4 0.0164617 0.376066 0.165421
727 2 0.0380047 0.380179 0.177428
728 4 0.0595476 0.384293 0.189435
2538 4 0.0780409 0.387677 0.197259
2536 2 0.102314 0.386316 0.191416
2537 4 0.126587 0.384954 0.185572
714 4 0.14614 0.385473 0.190564
712 2 0.166144 0.395459 0.20176
713 4 0.186147 0.405444 0.212956
2524 2 0.226433 0.342248 0.214417
2526 4 0.243345 0.359266 0.221458
338 4 0.251667 0.421298 0.21246
2554 2 0.273217 0.385164 0.214508
3572 4 0.282377 0.344168 0.205434
2555 4 0.282413 0.363032 0.207381
2556 4 0.264021 0.407296 0.221635
2862 4 0.428227 0.367901 0.223104
2860 2 0.446492 0.352796 0.215141
2861 4 0.464756 0.33769 0.207179
3990 4 0.485554 0.343727 0.204467
3988 2 0.50542 0.351145 0.217714
1803 4 0.428376 0.37618 0.240864
1801 2 0.435715 0.392019 0.258765
1158 4 0.0152585 0.491172 0.16407
4006 2 0.00604787 0.424055 0.204242
4008 4 0.0112701 0.424376 0.228692
1471 2 0.0632782 0.483582 0.213475
1472 4 0.0466831 0.485771 0.232049
1473 4 0.0798734 0.481392 0.194902
302 4 0.0866763 0.479232 0.176506
301 2 0.106844 0.473195 0.163016
363 4 0.139549 0.439999 0.234338
361 2 0.148402 0.446034 0.211746
362 4 0.157255 0.452069 0.189155
263 4 0.125613 0.447603 0.246248
339 4 0.201891 0.416573 0.213342
337 2 0.226779 0.418935 0.212901
315 4 0.174568 0.45854 0.198171
313 2 0.194965 0.472854 0.200229
314 4 0.215362 0.487168 0.202288
3960 4 0.234632 0.48212 0.208753
3958 2 0.257143 0.49272 0.206292
4210 2 0.303203 0.443535 0.185714
4212 4 0.301798 0.43562 0.20939
1440 4 0.440828 0.506756 0.169905
678 4 0.476185 0.426958 0.232769
1425 4 0.494968 0.427526 0.237687
2918 4 0.447896 0.466558 0.193828
677 4 0.446983 0.44676 0.197331
676 2 0.461584 0.436859 0.21505
2917 2 0.463758 0.475759 0.17683
127 3 0.0325776 0.012755 0.249956
2848 2 0.0788122 0.0718772 0.281975
2850 4 0.0647486 0.0791226 0.262612
2849 4 0.0928757 0.0646318 0.301337
1272 4 0.111765 0.0632223 0.309654
1270 2 0.134025 0.0707242 0.301086
1271 4 0.156285 0.0782262 0.292519
124 3 0.237284 0.0661241 0.244852
3876 4 0.17464 0.00623887 0.285789
3874 2 0.190481 0.0150425 0.268562
513 4 0.166871 0.0781024 0.310439
2579 4 0.27319 0.0671359 0.267609
2855 4 0.256758 0.0717623 0.251852
2578 2 0.297097 0.0604395 0.264651
2580 4 0.321005 0.053743 0.261694
2891 4 0.336267 0.0623343 0.269697
2890 2 0.354546 0.0772139 0.278043
2945 4 0.0390596 0.141831 0.254667
605 4 0.028676 0.157835 0.260019
1032 4 0.0198107 0.156694 0.278682
2946 4 0.0556554 0.0946591 0.254338
2944 2 0.0473575 0.118245 0.254503
30 3 0.0687376 0.159468 0.298596
28 3 0.0323383 0.166268 0.291777
29 3 0.0584091 0.172627 0.264865
544 2 0.102196 0.15387 0.314844
546 4 0.0772907 0.1517 0.31529
545 4 0.127101 0.156039 0.314399
511 2 0.186927 0.0924562 0.314551
512 4 0.206983 0.10681 0.318663
2694 4 0.21674 0.123769 0.313675
2692 2 0.229879 0.126579 0.292589
2693 4 0.243018 0.129388 0.271502
529 2 0.164889 0.160717 0.324049
530 4 0.187751 0.153054 0.330665
2856 4 0.255574 0.121494 0.256962
2854 2 0.256166 0.0966279 0.254407
2892 4 0.372825 0.0920935 0.286389
2837 4 0.456133 0.155197 0.264847
2836 2 0.475278 0.166351 0.253262
26 1 0.0541296 0.173098 0.287665
27 3 0.0567303 0.194649 0.295277
531 4 0.142027 0.16838 0.317434
285 4 0.186122 0.213865 0.298427
283 2 0.21007 0.207748 0.294652
284 4 0.234018 0.201631 0.290877
390 4 0.243091 0.218069 0.283527
388 2 0.267831 0.221121 0.285473
537 4 0.305179 0.23598 0.297918
389 4 0.292571 0.224173 0.287419
651 4 0.252321 0.19775 0.336146
2838 4 0.494423 0.177506 0.241678
2591 4 0.486198 0.254827 0.297999
2621 4 0.146855 0.323324 0.330895
2622 4 0.195957 0.317623 0.323326
2853 4 0.216429 0.315865 0.3263
2851 2 0.240128 0.321837 0.321019
2620 2 0.171406 0.320474 0.32711
2527 2 0.248515 0.265838 0.312377
2529 4 0.262106 0.270148 0.291837
535 2 0.324799 0.248582 0.306942
2955 4 0.272037 0.276692 0.275988
2852 4 0.263826 0.327809 0.315737
2450 4 0.283954 0.331717 0.317204
2953 2 0.279642 0.285484 0.253852
2449 2 0.306004 0.330105 0.305527
536 4 0.344419 0.261183 0.315967
710 4 0.343456 0.280587 0.320809
709 2 0.363263 0.277038 0.335651
417 4 0.0978534 0.361611 0.289498
415 2 0.0922438 0.385489 0.294349
416 4 0.0866341 0.409368 0.299199
2451 4 0.328055 0.328493 0.29385
2902 2 0.278437 0.376703 0.334478
2903 4 0.299111 0.390082 0.330147
2872 2 0.32417 0.405967 0.316884
2874 4 0.301336 0.410553 0.32598
2496 4 0.347354 0.324147 0.295343
2494 2 0.367967 0.337294 0.290104
2597 4 0.365807 0.402167 0.299475
2596 2 0.390343 0.398793 0.302903
2495 4 0.388581 0.350441 0.284865
2598 4 0.41488 0.395419 0.306331
366 4 0.407037 0.342916 0.286579
2873 4 0.347004 0.40138 0.307788
3631 2 0.492747 0.349341 0.309143
3633 4 0.467805 0.349582 0.310884
364 2 0.430606 0.349201 0.292071
1802 4 0.443054 0.407858 0.276666
365 4 0.454176 0.355487 0.297563
777 4 0.104759 0.413546 0.307676
775 2 0.108949 0.433915 0.321559
776 4 0.113138 0.454284 0.335441
264 4 0.135693 0.487996 0.273952
262 2 0.130653 0.4678 0.2601
1758 4 0.114616 0.47223 0.324574
1382 4 0.153864 0.49523 0.272697
1386 4 0.225788 0.477225 0.268524
1384 2 0.242455 0.4902 0.281905
231 4 0.327675 0.504465 0.295632
1385 4 0.259122 0.503175 0.295286
229 2 0.352441 0.503009 0.292515
681 4 0.396056 0.465262 0.274701
230 4 0.377207 0.501552 0.289399
1745 4 0.443116 0.508962 0.299696
679 2 0.419435 0.456721 0.272323
680 4 0.442814 0.44818 0.269944
3884 4 0.458225 0.445241 0.283146
3883 2 0.473023 0.455147 0.300699
3885 4 0.48782 0.465053 0.318252
2115 4 0.129535 0.0361244 0.407722
1128 4 0.148288 0.0425037 0.411438
1126 2 0.152618 0.0669942 0.414016
4354 2 0.440615 0.018318 0.352978
4356 4 0.462577 0.0294982 0.357203
2817 4 0.472185 0.0455651 0.351569
2815 2 0.494869 0.0510688 0.342606
707 4 0.158632 0.109761 0.422533
3158 4 0.20602 0.149045 0.337665
341 4 0.334177 0.102441 0.405193
340 2 0.353656 0.114343 0.394991
401 4 0.406545 0.0877622 0.341802
342 4 0.373136 0.126244 0.384789
402 4 0.383946 0.109134 0.380959
400 2 0.395246 0.0984479 0.36138
2935 2 0.495586 0.131024 0.386682
2936 4 0.475963 0.125318 0.40109
2915 4 0.466189 0.140439 0.410243
2612 4 0.155524 0.187014 0.40649
1035 4 0.137034 0.179116 0.405936
3157 2 0.222765 0.167165 0.333606
3159 4 0.239509 0.185284 0.329547
2611 2 0.179477 0.194181 0.406237
2613 4 0.203431 0.201348 0.405984
649 2 0.271788 0.195642 0.351696
650 4 0.291254 0.193535 0.367246
825 4 0.321942 0.227921 0.420865
1191 4 0.309619 0.202811 0.371292
1189 2 0.313748 0.191381 0.393143
635 4 0.417966 0.233147 0.370358
2931 4 0.00874705 0.288434 0.338643
1953 4 0.0269752 0.281553 0.340195
1951 2 0.0505858 0.284433 0.347904
1952 4 0.0741965 0.287314 0.355613
489 4 0.0314105 0.297073 0.408472
120 3 0.0828749 0.285093 0.385421
2682 4 0.0876315 0.301482 0.357454
117 3 0.072783 0.267594 0.416804
116 1 0.07259 0.287671 0.405576
118 3 0.050576 0.2943 0.402441
2680 2 0.110588 0.309387 0.35148
2681 4 0.133545 0.317292 0.345506
2925 4 0.146204 0.315113 0.399345
583 2 0.159312 0.289346 0.373508
585 4 0.14836 0.294151 0.395466
584 4 0.170263 0.284541 0.35155
2528 4 0.234924 0.261528 0.332917
2832 4 0.186824 0.282728 0.362349
2830 2 0.207017 0.280923 0.347715
2831 4 0.227211 0.279118 0.33308
711 4 0.38307 0.273489 0.350492
636 4 0.394465 0.277086 0.366144
634 2 0.406215 0.255116 0.368251
2700 4 0.240652 0.37102 0.341242
2699 4 0.195809 0.369554 0.363325
2698 2 0.218231 0.370287 0.352283
2904 4 0.257762 0.363324 0.33881
1434 4 0.402119 0.403806 0.371185
812 4 0.499161 0.334031 0.385838
811 2 0.48037 0.342323 0.400096
375 4 0.00160946 0.447129 0.355605
374 4 0.0448123 0.437685 0.332259
373 2 0.0232109 0.442407 0.343932
1756 2 0.112731 0.489683 0.342379
615 4 0.313874 0.500207 0.36073
3580 2 0.321579 0.472106 0.409037
434 4 0.302004 0.484465 0.356848
433 2 0.281176 0.490463 0.369313
435 4 0.260348 0.496462 0.381778
2588 4 0.285269 0.468054 0.422831
3581 4 0.342065 0.462216 0.39866
549 4 0.35722 0.449999 0.395513
547 2 0.375769 0.454947 0.379493
548 4 0.394318 0.459895 0.363473
1432 2 0.42255 0.418219 0.37118
2532 4 0.473909 0.463903 0.332895
1433 4 0.442982 0.432632 0.371175
2531 4 0.455914 0.445175 0.375629
2530 2 0.464911 0.454539 0.354262
2114 4 0.100895 0.00980158 0.439149
2237 4 0.141878 0.00725226 0.493762
1180 2 0.0860084 0.0626926 0.485801
1181 4 0.103922 0.0453251 0.48743
2236 2 0.120086 0.0191143 0.496857
2113 2 0.115215 0.022963 0.423435
480 4 0.0221272 0.0942409 0.421607
478 2 0.0459837 0.10163 0.420405
479 4 0.0698401 0.10902 0.419203
2642 4 0.00433552 0.0861215 0.426625
1150 2 0.0101248 0.142933 0.460686
1151 4 0.0331373 0.136416 0.467974
2316 4 0.0513734 0.129679 0.461496
2314 2 0.0664565 0.113039 0.472486
2315 4 0.0815396 0.0963985 0.483476
1182 4 0.0680949 0.08006 0.484172
470 4 0.0905568 0.11155 0.418092
469 2 0.115436 0.114 0.418556
471 4 0.140315 0.116449 0.41902
1127 4 0.156948 0.0914847 0.416595
706 2 0.182364 0.116301 0.426914
708 4 0.206096 0.122842 0.431295
617 4 0.221957 0.115652 0.441973
616 2 0.24632 0.12128 0.441952
165 3 0.328284 0.0998069 0.424797
618 4 0.270682 0.126908 0.441932
1395 4 0.29127 0.12832 0.450394
1393 2 0.297036 0.148615 0.436976
163 3 0.31141 0.120617 0.451251
161 1 0.327371 0.104294 0.447105
162 3 0.321549 0.0851494 0.458452
164 3 0.348137 0.111435 0.454601
426 4 0.361698 0.121631 0.444602
9 3 0.374913 0.161552 0.485463
424 2 0.386435 0.125251 0.444226
425 4 0.411172 0.128872 0.44385
319 2 0.334331 0.147863 0.499757
320 4 0.357685 0.152916 0.492392
2916 4 0.426148 0.14085 0.440197
2914 2 0.446169 0.140644 0.42522
1033 2 0.125175 0.191095 0.424403
1034 4 0.113316 0.203075 0.442871
371 4 0.205906 0.202868 0.42594
370 2 0.230652 0.206218 0.427203
1190 4 0.317876 0.17995 0.414994
1394 4 0.302803 0.16891 0.423558
372 4 0.255398 0.209567 0.428465
473 4 0.267809 0.215264 0.441533
472 2 0.287775 0.221543 0.455212
474 4 0.307741 0.227823 0.468891
726 4 0.323586 0.216301 0.473523
7 3 0.397277 0.184574 0.465907
823 2 0.343055 0.240631 0.425093
724 2 0.345837 0.214893 0.484839
938 4 0.374576 0.239961 0.441225
725 4 0.368089 0.213485 0.496155
8 3 0.378986 0.197859 0.495934
6 1 0.389735 0.179338 0.486998
937 2 0.397034 0.234291 0.431809
10 3 0.407459 0.173575 0.500087
824 4 0.364168 0.253342 0.429321
939 4 0.419492 0.228621 0.422392
368 4 0.424558 0.182822 0.492767
2585 4 0.428018 0.230907 0.440491
2584 2 0.451288 0.232449 0.431473
367 2 0.448479 0.18736 0.48708
369 4 0.472401 0.191898 0.481392
3462 4 0.491109 0.19104 0.478268
2586 4 0.474558 0.233992 0.422455
2685 4 0.493671 0.23159 0.430069
487 2 0.0135587 0.308976 0.42131
2923 2 0.153473 0.325389 0.420949
119 3 0.0838897 0.303472 0.418267
265 2 0.315694 0.323146 0.478072
266 4 0.296292 0.314861 0.491492
3056 4 0.27778 0.315664 0.483174
890 4 0.354859 0.324329 0.464937
889 2 0.378973 0.322985 0.471406
1239 4 0.412645 0.32239 0.460437
891 4 0.403087 0.32164 0.477876
1237 2 0.434748 0.330453 0.451974
2924 4 0.160741 0.335666 0.442554
873 4 0.180606 0.33673 0.442064
871 2 0.202645 0.34848 0.440874
872 4 0.224683 0.36023 0.439684
2510 4 0.236745 0.349829 0.449434
2511 4 0.286522 0.345384 0.451192
2509 2 0.261634 0.347607 0.450313
1027 2 0.329836 0.397049 0.493677
267 4 0.335095 0.331432 0.464652
1028 4 0.350056 0.384638 0.485786
1172 4 0.36847 0.389414 0.480912
1171 2 0.392676 0.395257 0.478651
1173 4 0.416882 0.401099 0.47639
813 4 0.461579 0.350616 0.414354
2108 4 0.423893 0.411011 0.492872
1238 4 0.456852 0.338516 0.443511
804 4 0.460976 0.347627 0.460624
802 2 0.484292 0.353477 0.467504
2741 4 0.0439777 0.490973 0.40696
892 2 0.0713808 0.502241 0.432695
894 4 0.0823691 0.502511 0.455153
569 4 0.100633 0.492871 0.453905
568 2 0.125108 0.493562 0.448836
2647 2 0.211999 0.487687 0.45039
2648 4 0.225194 0.46648 0.449233
2589 4 0.244285 0.463638 0.451142
3582 4 0.301093 0.481997 0.419414
1643 4 0.322297 0.47808 0.507412
2587 2 0.264777 0.465846 0.436987
3962 4 0.389481 0.446336 0.43931
3316 2 0.358813 0.438854 0.457026
3317 4 0.370496 0.448186 0.436986
3318 4 0.347129 0.429523 0.477066
4058 4 0.467339 0.50236 0.479345
3963 4 0.436648 0.459829 0.429618
3961 2 0.413064 0.453083 0.434464
4057 2 0.459234 0.490343 0.499718
2109 4 0.459302 0.444223 0.504869
2107 2 0.441597 0.427617 0.498871
2458 2 0.0233923 0.0154133 0.559888
2459 4 0.0452595 0.0234612 0.568957
3123 4 0.0579736 0.0214965 0.552917
3121 2 0.0761047 0.0342084 0.56453
2460 4 0.00152519 0.00736526 0.550819
3122 4 0.0942359 0.0469204 0.576142
3065 4 0.113821 0.0392962 0.574976
3064 2 0.138756 0.0375853 0.575685
3066 4 0.163691 0.0358745 0.576394
2238 4 0.098294 0.0309763 0.499951
3023 4 0.180511 0.0277088 0.570796
3022 2 0.204164 0.0226639 0.564448
2996 4 0.242709 0.0293125 0.553076
3024 4 0.227816 0.0176191 0.558099
2995 2 0.265659 0.0354311 0.560889
2997 4 0.288609 0.0415497 0.568701
3309 4 0.306613 0.0430836 0.564151
3307 2 0.327081 0.0304523 0.55732
3308 4 0.34755 0.0178209 0.550489
1262 4 0.364294 0.0290512 0.54743
1261 2 0.388132 0.0293522 0.539891
1263 4 0.41197 0.0296532 0.532351
2508 4 0.424378 0.0438198 0.540684
2506 2 0.448585 0.0485929 0.544737
2507 4 0.472792 0.053366 0.548791
1967 4 0.46908 0.00704088 0.535899
3051 4 0.488381 0.0598518 0.560056
2500 2 0.025245 0.101014 0.533505
2502 4 0.047354 0.112448 0.535878
1142 4 0.06721 0.115173 0.531802
2501 4 0.00313587 0.0895794 0.531133
1141 2 0.0898558 0.113897 0.542324
1143 4 0.112502 0.112622 0.552846
917 4 0.132155 0.107612 0.554538
916 2 0.156974 0.1106 0.555081
900 4 0.177142 0.107594 0.51448
918 4 0.181793 0.113587 0.555624
898 2 0.202043 0.109702 0.515287
1130 4 0.198458 0.125206 0.556941
899 4 0.226945 0.11181 0.516094
1129 2 0.2221 0.126713 0.564937
641 4 0.243101 0.12284 0.510806
1131 4 0.245743 0.128221 0.572933
640 2 0.267329 0.128968 0.509993
858 4 0.265331 0.12184 0.573958
642 4 0.291556 0.135096 0.509181
321 4 0.310977 0.14281 0.507122
2603 4 0.0035314 0.22096 0.508136
1212 4 0.0227087 0.230229 0.554465
1259 4 0.0230801 0.23187 0.574341
3037 2 0.110614 0.249963 0.574959
3039 4 0.132881 0.25688 0.565929
3038 4 0.0883479 0.243046 0.58399
960 4 0.33538 0.221497 0.577751
958 2 0.358171 0.219064 0.567761
959 4 0.380962 0.216631 0.55777
1256 4 0.391779 0.213034 0.574343
1255 2 0.41662 0.213283 0.577182
1257 4 0.44146 0.213532 0.580021
1280 4 0.00860039 0.325072 0.576401
3386 4 0.144195 0.262851 0.581088
3385 2 0.167873 0.259015 0.57403
3387 4 0.191551 0.255179 0.566972
382 2 0.230909 0.260413 0.572473
384 4 0.209158 0.248131 0.57359
3057 4 0.260759 0.304768 0.528915
3332 4 0.248643 0.315027 0.541397
3055 2 0.269269 0.310216 0.506045
383 4 0.252659 0.272696 0.571356
2972 4 0.272263 0.276415 0.565887
2847 4 0.0710664 0.364878 0.500868
1279 2 0.0258068 0.340903 0.585261
1281 4 0.0430132 0.356734 0.594122
2845 2 0.0899425 0.35318 0.512358
2846 4 0.108819 0.341482 0.523848
261 4 0.125472 0.350796 0.518292
259 2 0.146575 0.360882 0.527132
260 4 0.167677 0.370969 0.535972
2637 4 0.176429 0.384636 0.547343
3331 2 0.24368 0.338586 0.548144
2635 2 0.198377 0.37266 0.547098
2636 4 0.220325 0.360685 0.546854
3333 4 0.238717 0.362145 0.554891
1029 4 0.309615 0.40946 0.501567
540 4 0.00253009 0.440755 0.573696
1137 4 0.0229382 0.44517 0.572928
1135 2 0.0466092 0.440938 0.579781
603 4 0.309942 0.463549 0.51655
601 2 0.301338 0.442284 0.506601
4538 4 0.288181 0.457328 0.540122
4537 2 0.301888 0.463518 0.560096
602 4 0.292735 0.421019 0.496653
4059 4 0.451129 0.478325 0.520092
4131 4 0.464069 0.489037 0.533023
4129 2 0.475654 0.474552 0.549791
4130 4 0.487238 0.460067 0.566559
268 2 0.11384 0.0531601 0.658038
270 4 0.137257 0.0482771 0.665314
4074 4 0.150365 0.0355907 0.655646
269 4 0.0904221 0.058043 0.650761
4072 2 0.171593 0.0483289 0.659149
856 2 0.287457 0.127923 0.583887
857 4 0.309584 0.134007 0.593815
2318 4 0.326344 0.137751 0.605349
2317 2 0.350874 0.133107 0.606717
2319 4 0.375405 0.128463 0.608085
950 4 0.386326 0.130904 0.624158
949 2 0.406421 0.144981 0.62898
951 4 0.426515 0.159058 0.633801
1260 4 0.0689265 0.246407 0.588035
1258 2 0.0460033 0.239138 0.581188
1155 4 0.461074 0.207514 0.586136
1153 2 0.482048 0.219895 0.580482
3164 4 0.0242732 0.279655 0.630629
1083 4 0.0405681 0.266856 0.631826
1081 2 0.0576105 0.282991 0.640452
1082 4 0.0746529 0.299125 0.649079
2971 2 0.291714 0.287767 0.576748
2973 4 0.311166 0.299118 0.587609
3435 4 0.315926 0.281889 0.596535
3433 2 0.339473 0.281118 0.604908
3434 4 0.36302 0.280347 0.613282
807 4 0.00406603 0.33293 0.632805
978 4 0.0193672 0.34448 0.636212
976 2 0.0433087 0.34515 0.643391
348 4 0.0524736 0.372569 0.585322
346 2 0.0773836 0.372165 0.583198
977 4 0.0672503 0.34582 0.650569
347 4 0.102294 0.371762 0.581073
3419 4 0.108228 0.386149 0.591891
3418 2 0.129255 0.383274 0.605112
3420 4 0.150282 0.380399 0.618334
3222 4 0.457164 0.33483 0.660628
1136 4 0.0702802 0.436707 0.586634
4539 4 0.315595 0.469708 0.580071
3492 4 0.330151 0.485444 0.57961
3490 2 0.352118 0.492278 0.589405
1218 4 0.13327 0.014335 0.728638
4073 4 0.192822 0.0610671 0.662652
2320 2 0.211129 0.0738709 0.720638
2322 4 0.232981 0.0789194 0.731692
2321 4 0.189277 0.0688224 0.709585
1021 2 0.329503 0.0433745 0.726175
1023 4 0.316359 0.0248233 0.736582
2254 2 0.359557 0.0873638 0.71083
1022 4 0.342646 0.0619258 0.715769
2256 4 0.361097 0.0651703 0.722243
3168 4 0.018238 0.158444 0.721212
3003 4 0.0771157 0.168883 0.732066
3240 4 0.140773 0.148811 0.675694
3238 2 0.164716 0.155684 0.677862
2175 4 0.123664 0.147782 0.685272
2173 2 0.106042 0.15529 0.701344
2174 4 0.0884208 0.162797 0.717416
3239 4 0.188659 0.162556 0.680031
1971 4 0.190828 0.0866342 0.699221
1969 2 0.186561 0.100448 0.67882
3351 4 0.208022 0.162014 0.687263
1970 4 0.182295 0.114261 0.65842
965 4 0.252453 0.0780059 0.728805
964 2 0.263123 0.0952288 0.714152
966 4 0.273793 0.112452 0.699499
1005 4 0.291717 0.116165 0.691147
1003 2 0.316542 0.113566 0.689688
1004 4 0.341367 0.110966 0.688229
2255 4 0.358018 0.109557 0.699418
3002 4 0.0325478 0.168134 0.709396
3001 2 0.0548317 0.168509 0.720731
3349 2 0.232085 0.168542 0.689147
3350 4 0.256147 0.17507 0.691032
779 4 0.272816 0.184083 0.695633
778 2 0.274095 0.196494 0.717301
780 4 0.275374 0.208904 0.73897
3374 4 0.999696 0.271557 0.687022
3373 2 0.013307 0.2904 0.696233
3375 4 0.0269183 0.309244 0.705444
3227 4 0.494202 0.327563 0.742097
1308 4 0.478714 0.320755 0.753252
1306 2 0.457531 0.307714 0.755782
4559 4 0.0707307 0.349268 0.670461
4558 2 0.0920838 0.343396 0.682069
4560 4 0.113437 0.337525 0.693677
3381 4 0.131873 0.34056 0.701444
3379 2 0.15458 0.348115 0.694199
3380 4 0.177287 0.35567 0.686953
4209 4 0.331278 0.404036 0.746917
3221 4 0.458095 0.341345 0.7102
3220 2 0.457629 0.338087 0.685414
4090 2 0.0175109 0.489263 0.69748
4092 4 0.998624 0.479209 0.684543
993 4 0.402095 0.433691 0.680009
991 2 0.418659 0.451823 0.684703
992 4 0.435223 0.469955 0.689398
942 4 0.450802 0.462662 0.701081
940 2 0.470687 0.462617 0.71624
941 4 0.490571 0.462571 0.731399
4529 4 0.215851 0.0703007 0.822444
4528 2 0.240182 0.0749736 0.825815
4530 4 0.264513 0.0796465 0.829185
3305 4 0.281959 0.0895361 0.823243
4586 4 0.347736 0.0337442 0.824015
4585 2 0.369739 0.0294778 0.835099
194 3 0.42952 0.0708454 0.824366
3764 4 0.422678 0.062386 0.806837
3763 2 0.44433 0.0524576 0.799233
3765 4 0.465981 0.0425293 0.79163
1994 4 0.483559 0.0366367 0.799947
1993 2 0.503721 0.0498877 0.806513
1165 2 0.0503923 0.150393 0.826577
1166 4 0.0699869 0.165752 0.828889
3306 4 0.329135 0.0857693 0.839394
3304 2 0.305547 0.0876527 0.831319
192 3 0.413443 0.102117 0.811088
191 1 0.419811 0.091084 0.830242
195 3 0.434813 0.103882 0.841635
1618 2 0.039576 0.245277 0.803304
1620 4 0.0530682 0.242447 0.824164
3017 4 0.051042 0.22316 0.830928
3481 2 0.103008 0.195886 0.828725
3483 4 0.123024 0.210272 0.824531
3287 4 0.143075 0.209107 0.818195
3286 2 0.158202 0.190375 0.82494
3482 4 0.0829915 0.1815 0.832919
1067 4 0.317955 0.244206 0.764019
1179 4 0.402825 0.183632 0.820851
1177 2 0.420041 0.19236 0.836745
1208 4 0.00753098 0.243936 0.784279
1619 4 0.0260839 0.248107 0.782445
1066 2 0.340671 0.253379 0.769024
1068 4 0.363387 0.262551 0.774029
1298 4 0.380791 0.263139 0.785986
1297 2 0.401116 0.273007 0.775276
50 3 0.483069 0.286456 0.794763
1299 4 0.421441 0.282875 0.764566