ITEM: TIMESTEP
2806000
ITEM: NUMBER OF ATOMS
4590
ITEM: BOX BOUNDS xy xz yz pp pp pp
-9.9985700000000008e+00 9.9985700000000008e+00 0.0000000000000000e+00
-9.9985700000000008e+00 9.9985700000000008e+00 0.0000000000000000e+00
-9.9985700000000008e+00 9.9985700000000008e+00 0.0000000000000000e+00
ITEM: ATOMS id type xs ys zs
4161 4 0.0269256 0.0597077 0.00927015
2335 2 0.0657267 0.0612659 0.0133253
4159 2 0.00454168 0.0488629 0.00671307
2336 4 0.0426017 0.0597406 0.0227108
2465 4 0.037 0.0753641 0.0636733
2464 2 0.013022 0.0727485 0.070261
2337 4 0.0888516 0.0627912 0.00393973
1275 4 0.306845 0.0840005 0.0696568
1373 4 0.0514074 0.0776801 0.0769005
354 4 0.287001 0.118851 0.0708039
21 1 0.321121 0.121509 0.0726328
23 3 0.326205 0.132135 0.0526415
22 3 0.319588 0.0988728 0.0688418
352 2 0.264157 0.125062 0.0788517
24 3 0.300759 0.129157 0.080714
2889 4 0.42032 0.0778586 0.0478597
2894 4 0.340848 0.145646 0.0493592
2893 2 0.355341 0.144655 0.0290083
2895 4 0.369834 0.143663 0.00865746
3347 4 0.379619 0.129104 0.999235
3346 2 0.404541 0.131129 0.999234
2887 2 0.441207 0.080862 0.0344467
2888 4 0.462094 0.0838653 0.0210338
2783 4 0.466964 0.10277 0.0163264
2782 2 0.487769 0.110816 0.0276245
277 2 0.0520617 0.246665 0.0338464
279 4 0.0710603 0.230431 0.0346767
4470 4 0.0917764 0.228067 0.0338587
4468 2 0.113964 0.218536 0.0403463
4469 4 0.136151 0.209005 0.0468339
2882 4 0.45692 0.247106 0.996673
278 4 0.0330631 0.262899 0.0330162
2726 4 0.0562145 0.301552 0.00637942
2725 2 0.0624193 0.325567 0.00322787
2837 4 0.999923 0.293428 0.0204366
2876 4 0.240818 0.289045 0.0640951
3197 4 0.195056 0.281995 0.0254877
3196 2 0.213869 0.277577 0.0413541
3198 4 0.232682 0.273159 0.0572205
933 4 0.193958 0.296226 0.0113104
2875 2 0.264322 0.297412 0.065757
2877 4 0.287827 0.30578 0.0674188
1841 4 0.271559 0.264054 0.00671367
105 3 0.467636 0.259565 0.0454696
2760 4 0.423653 0.317227 0.076417
2758 2 0.439946 0.319312 0.0575658
2759 4 0.456239 0.321396 0.0387145
101 1 0.478106 0.277735 0.0543521
2835 4 0.474492 0.313407 0.0403194
104 3 0.465353 0.286572 0.071605
2833 2 0.478389 0.316824 0.015859
102 3 0.48065 0.293744 0.0380313
2881 2 0.479034 0.257492 0.00198972
2727 4 0.0686241 0.349583 7.63182e-05
1122 4 0.0957982 0.410503 0.0780576
3543 4 0.456112 0.388147 0.0262053
3541 2 0.46157 0.410914 0.0174262
1466 4 0.465598 0.379334 0.0409322
1465 2 0.488448 0.372729 0.0486429
3231 4 0.0796966 0.420156 0.0860929
1120 2 0.109993 0.430099 0.0843594
241 2 0.325585 0.476636 0.0402054
243 4 0.321792 0.5004 0.0334182
242 4 0.329378 0.452872 0.0469926
3542 4 0.467027 0.433681 0.0086471
1551 4 0.476982 0.450147 0.00931234
1873 2 0.0169642 0.0516183 0.142555
1874 4 0.0410726 0.0480545 0.136964
3676 2 0.0780172 0.0574551 0.147744
1542 4 0.0471711 0.0100026 0.160281
3677 4 0.054219 0.0627296 0.142174
582 4 0.104374 0.0611211 0.09536
580 2 0.116834 0.0411685 0.103834
581 4 0.129293 0.0212159 0.112308
331 2 0.135939 0.0579141 0.154644
333 4 0.117497 0.0410579 0.155637
1374 4 0.0919441 0.0730012 0.105809
3678 4 0.101815 0.0521806 0.153315
332 4 0.15438 0.0747704 0.153652
2779 2 0.196065 0.0715716 0.152272
2781 4 0.219522 0.0663244 0.159157
2703 4 0.223468 0.0740824 0.140604
2701 2 0.242254 0.0671137 0.125647
2780 4 0.172607 0.0768187 0.145388
2702 4 0.261041 0.0601449 0.110691
1274 4 0.279627 0.0597399 0.103881
1273 2 0.293236 0.0718702 0.0867691
1372 2 0.0716758 0.0753407 0.0913547
353 4 0.241314 0.131272 0.0868995
692 4 0.195411 0.139576 0.136826
691 2 0.211156 0.13984 0.117403
693 4 0.2269 0.140104 0.0979807
2520 4 0.242009 0.169081 0.134555
2518 2 0.263403 0.156392 0.137101
522 4 0.295898 0.154272 0.127206
520 2 0.319966 0.1607 0.125062
2519 4 0.284797 0.143702 0.139647
25 3 0.337528 0.125461 0.0879247
810 4 0.346518 0.132027 0.104251
808 2 0.3666 0.119306 0.112002
809 4 0.386681 0.106586 0.119754
2679 4 0.405916 0.107875 0.11413
521 4 0.344035 0.167127 0.122919
2677 2 0.425217 0.113163 0.12912
2678 4 0.444518 0.118451 0.144111
506 4 0.458073 0.127495 0.155137
505 2 0.479046 0.131108 0.142012
2615 4 0.00645536 0.164796 0.110199
2614 2 0.028375 0.176691 0.108411
2616 4 0.0502947 0.188587 0.106624
2517 4 0.0693785 0.195196 0.103144
2515 2 0.0921203 0.189424 0.111786
2516 4 0.114862 0.183652 0.120428
387 4 0.127012 0.200682 0.119416
385 2 0.150083 0.209079 0.12415
386 4 0.173154 0.217476 0.128884
743 4 0.192917 0.217721 0.133451
742 2 0.21466 0.221221 0.121611
744 4 0.236403 0.224722 0.109771
2600 4 0.251755 0.2231 0.0980908
2599 2 0.273881 0.222352 0.109712
2601 4 0.296007 0.221604 0.121334
450 4 0.309918 0.235679 0.118102
448 2 0.334472 0.239221 0.11498
624 4 0.364311 0.172584 0.125488
449 4 0.359026 0.242763 0.111858
622 2 0.38508 0.184331 0.132962
913 2 0.396289 0.242945 0.1091
623 4 0.405848 0.196078 0.140437
915 4 0.417436 0.230064 0.105619
845 4 0.432326 0.2348 0.0916738
455 4 0.423322 0.186212 0.141518
454 2 0.444947 0.188456 0.129168
456 4 0.466572 0.1907 0.116818
491 4 0.475719 0.179327 0.131294
844 2 0.450754 0.24439 0.10559
490 2 0.49903 0.185892 0.137515
728 4 0.0175504 0.254834 0.130086
2538 4 0.0370976 0.24878 0.131907
251 4 0.0279059 0.310847 0.126846
287 4 0.0459954 0.319742 0.125486
2536 2 0.061944 0.251408 0.132879
286 2 0.0701757 0.32609 0.125936
2445 4 0.10618 0.249389 0.140113
2537 4 0.0867903 0.254036 0.133851
2443 2 0.129444 0.258317 0.138045
2444 4 0.152708 0.267246 0.135978
288 4 0.094356 0.332437 0.126386
712 2 0.125829 0.331976 0.147801
714 4 0.150726 0.331352 0.150032
611 4 0.163739 0.317055 0.146618
767 4 0.169806 0.266851 0.12689
766 2 0.194281 0.271964 0.127008
768 4 0.218756 0.277077 0.127126
2094 4 0.238066 0.281961 0.12632
610 2 0.180623 0.328685 0.132305
2092 2 0.262858 0.282114 0.123078
2093 4 0.287649 0.282266 0.119836
528 4 0.302526 0.293614 0.111595
526 2 0.327258 0.29719 0.112434
2861 4 0.280298 0.328285 0.17526
914 4 0.375143 0.255826 0.112581
2652 4 0.419002 0.319661 0.0969512
527 4 0.351991 0.300767 0.113272
2651 4 0.372459 0.307294 0.110426
2650 2 0.39573 0.313478 0.103689
2729 4 0.469814 0.313034 0.159515
2476 2 0.452194 0.258597 0.160785
2477 4 0.464377 0.258672 0.13895
846 4 0.469182 0.25398 0.119506
2728 2 0.482022 0.331432 0.147782
3230 4 0.0371543 0.397626 0.0996343
250 2 0.0137487 0.330656 0.132536
2906 4 0.0180891 0.393469 0.0964778
3229 2 0.0584255 0.408891 0.0928636
252 4 0.999592 0.350465 0.138226
713 4 0.100933 0.3326 0.145569
612 4 0.197507 0.340316 0.117992
2799 4 0.21269 0.352672 0.117613
2798 4 0.217948 0.402002 0.123905
2797 2 0.215319 0.377337 0.120759
3551 4 0.168081 0.422606 0.132236
2860 2 0.300674 0.338684 0.165166
2862 4 0.321049 0.349084 0.155073
678 4 0.281463 0.420256 0.148204
2592 4 0.332741 0.364787 0.149519
2590 2 0.339876 0.388717 0.150808
2591 4 0.347011 0.412646 0.152098
2730 4 0.494229 0.34983 0.136049
1121 4 0.124187 0.449695 0.0906613
2162 4 0.0893861 0.45282 0.149407
2161 2 0.104027 0.470556 0.139597
3552 4 0.137756 0.451712 0.105143
2163 4 0.118668 0.488293 0.129787
3550 2 0.152919 0.437159 0.11869
3819 4 0.182782 0.438525 0.132369
3817 2 0.206705 0.436701 0.139409
3818 4 0.230627 0.434877 0.146449
677 4 0.240786 0.444217 0.131711
4511 4 0.191668 0.478644 0.167833
676 2 0.261124 0.432236 0.139958
4005 4 0.292391 0.415982 0.164678
2756 4 0.386406 0.0244255 0.195622
786 4 0.391287 0.00685953 0.205627
2755 2 0.389855 0.0488257 0.199857
2757 4 0.393303 0.0732259 0.204092
2546 4 0.500005 0.00742986 0.258688
2738 4 0.439648 0.0124196 0.212568
2737 2 0.454186 0.993689 0.204632
3809 4 0.420249 0.0735493 0.231741
750 4 0.0396106 0.135722 0.179602
1479 4 0.0553745 0.146894 0.182865
1477 2 0.0782618 0.153793 0.175533
748 2 0.0214359 0.152461 0.183429
418 2 0.147337 0.112493 0.219488
420 4 0.147468 0.110355 0.244399
419 4 0.147205 0.114632 0.194576
2931 4 0.158751 0.13074 0.190162
1703 4 0.0851928 0.11569 0.243046
257 4 0.155274 0.128002 0.252376
1566 4 0.238976 0.118896 0.177842
2930 4 0.19492 0.165178 0.192716
2929 2 0.176835 0.147959 0.191439
1564 2 0.256404 0.117013 0.195672
1565 4 0.273831 0.115131 0.213502
458 4 0.293135 0.115698 0.205161
457 2 0.311073 0.122963 0.220992
459 4 0.329011 0.130229 0.236823
1749 4 0.346117 0.140273 0.237137
1747 2 0.367733 0.151903 0.241901
1748 4 0.389349 0.163533 0.246665
606 4 0.431746 0.0900371 0.223426
604 2 0.44913 0.105966 0.215103
605 4 0.466513 0.121895 0.20678
2880 4 0.484026 0.12756 0.201063
2878 2 0.491793 0.149815 0.209407
651 4 0.0261596 0.229212 0.192339
3159 4 0.045649 0.232212 0.19431
649 2 0.0137646 0.208463 0.185933
1478 4 0.101149 0.160692 0.1682
2778 4 0.109916 0.178494 0.170661
2776 2 0.13274 0.188141 0.174014
2777 4 0.155563 0.197788 0.177366
2453 4 0.169634 0.2073 0.186657
2452 2 0.194058 0.204682 0.181991
2454 4 0.218483 0.202064 0.177325
1200 4 0.230202 0.196539 0.194534
1198 2 0.250174 0.203862 0.181393
509 4 0.203092 0.184601 0.245348
537 4 0.19612 0.20203 0.240524
535 2 0.174167 0.209529 0.249852
508 2 0.227548 0.189594 0.246826
1199 4 0.270146 0.211185 0.168252
177 3 0.434808 0.177117 0.239509
731 4 0.436309 0.216593 0.225605
730 2 0.430365 0.235688 0.210597
2673 4 0.495793 0.211143 0.248864
3157 2 0.0633044 0.246587 0.204646
3158 4 0.0809598 0.260962 0.214981
579 4 0.0998067 0.265089 0.207562
577 2 0.12474 0.26372 0.206286
578 4 0.149674 0.26235 0.205009
236 4 0.15949 0.274848 0.21655
237 4 0.206318 0.258019 0.221525
2969 4 0.223624 0.255462 0.232179
235 2 0.182904 0.266433 0.219038
2968 2 0.247381 0.262903 0.229849
2970 4 0.271138 0.270343 0.22752
2853 4 0.285371 0.276548 0.213572
2851 2 0.308139 0.286498 0.216367
2852 4 0.330907 0.296448 0.219162
732 4 0.42442 0.254782 0.195589
2950 2 0.486885 0.26541 0.203354
2951 4 0.463453 0.274089 0.204252
2478 4 0.440011 0.258523 0.182619
3694 2 0.0083693 0.36325 0.233873
3696 4 0.0243112 0.364376 0.214643
3830 4 0.044446 0.360573 0.207692
3829 2 0.0608523 0.370376 0.191569
3831 4 0.0772587 0.380179 0.175447
3935 4 0.101569 0.371004 0.24117
1855 2 0.285195 0.398 0.240327
1856 4 0.301612 0.405442 0.222998
3599 4 0.0929883 0.444674 0.167635
3598 2 0.0992467 0.44531 0.191835
3600 4 0.105505 0.445946 0.216035
3921 4 0.122107 0.440317 0.225252
3919 2 0.146824 0.443866 0.223945
3920 4 0.17154 0.447414 0.222638
1544 4 0.189975 0.458416 0.165223
1545 4 0.188684 0.455963 0.215154
1543 2 0.18933 0.457189 0.190189
4004 4 0.301693 0.422469 0.213383
4003 2 0.297042 0.419225 0.189031
228 4 0.392273 0.493877 0.17966
1783 2 0.00795415 0.0227422 0.29885
1611 4 0.0237169 0.0100408 0.265849
1785 4 0.028036 0.0172308 0.285011
425 4 0.0500808 0.0195075 0.324164
162 3 0.177818 0.0683603 0.314449
722 4 0.217706 0.0784075 0.333516
1127 4 0.408888 0.0125508 0.299231
707 4 0.403336 0.0322654 0.302012
706 2 0.390558 0.0407106 0.321775
3810 4 0.415994 0.0619365 0.280195
3808 2 0.418122 0.0677429 0.255968
1126 2 0.431296 0.0020445 0.30279
530 4 0.110073 0.0923581 0.299207
531 4 0.149501 0.10546 0.327039
529 2 0.129787 0.0989091 0.313123
1704 4 0.105666 0.08984 0.28064
1702 2 0.0954295 0.102765 0.261843
256 2 0.161358 0.149501 0.2636
258 4 0.167442 0.170999 0.274824
164 3 0.169148 0.10286 0.326586
161 1 0.184865 0.0902484 0.315082
165 3 0.204985 0.0913464 0.325695
163 3 0.186942 0.0980915 0.293344
515 4 0.176756 0.171663 0.291923
285 4 0.450033 0.158027 0.282526
283 2 0.475013 0.158405 0.283554
284 4 0.499992 0.158783 0.284582
178 3 0.433814 0.157127 0.271323
589 2 0.00463084 0.198325 0.309084
591 4 0.0291813 0.199115 0.304411
404 4 0.0490554 0.202417 0.302999
403 2 0.0716526 0.212235 0.298736
536 4 0.152214 0.217028 0.25918
405 4 0.0942498 0.222052 0.294474
30 3 0.111432 0.224408 0.28499
26 1 0.129904 0.231545 0.273743
29 3 0.132796 0.218951 0.254471
27 3 0.148411 0.228964 0.28716
726 4 0.151932 0.243143 0.300998
724 2 0.175745 0.250161 0.298019
514 2 0.200783 0.177503 0.295636
516 4 0.22481 0.183343 0.299349
725 4 0.199558 0.257179 0.295039
510 4 0.252004 0.194587 0.248304
1191 4 0.330388 0.168438 0.325112
180 3 0.402478 0.172927 0.25768
2954 4 0.405355 0.187067 0.315704
401 4 0.387399 0.180009 0.312008
402 4 0.337784 0.185566 0.314871
400 2 0.362592 0.182788 0.313439
2788 2 0.421209 0.235106 0.283372
176 1 0.424963 0.175489 0.260236
179 3 0.429414 0.194866 0.272197
2789 4 0.430172 0.221211 0.264617
2953 2 0.420813 0.192307 0.334645
2672 4 0.447821 0.211726 0.262974
2671 2 0.471807 0.211435 0.255919
28 3 0.12767 0.253985 0.268281
716 4 0.146331 0.317783 0.263035
715 2 0.140821 0.293446 0.261443
717 4 0.135311 0.269109 0.259851
1031 4 0.212365 0.264524 0.309314
1030 2 0.235973 0.260749 0.301993
1395 4 0.279528 0.258034 0.290062
1032 4 0.259581 0.256974 0.294672
1393 2 0.300145 0.255267 0.276188
1394 4 0.320761 0.2525 0.262313
3318 4 0.327754 0.33626 0.316903
2790 4 0.412246 0.249001 0.302128
2179 2 0.375777 0.26458 0.335139
2181 4 0.382419 0.280468 0.31701
2753 4 0.333929 0.262904 0.27325
2754 4 0.383643 0.268309 0.273145
2752 2 0.358786 0.265607 0.273198
2612 4 0.0154161 0.323906 0.326435
3934 2 0.0915733 0.385869 0.258614
261 4 0.0894026 0.399844 0.293646
3936 4 0.0815776 0.400734 0.276057
259 2 0.0973038 0.394945 0.316857
374 4 0.225595 0.362237 0.306497
375 4 0.177002 0.356516 0.296168
373 2 0.201299 0.359376 0.301332
1857 4 0.268778 0.390559 0.257657
1187 4 0.286512 0.400183 0.285536
1188 4 0.322534 0.412465 0.317975
1186 2 0.304523 0.406324 0.301755
2556 4 0.397993 0.341131 0.306601
2554 2 0.397092 0.338432 0.331443
339 4 0.412576 0.350705 0.297089
337 2 0.431928 0.340301 0.285152
338 4 0.451279 0.329896 0.273216
291 4 0.463864 0.346246 0.27493
289 2 0.478281 0.36554 0.268218
3990 4 0.995168 0.446795 0.257841
3988 2 0.0199816 0.448707 0.26025
3989 4 0.0447956 0.450619 0.262658
2826 4 0.0762887 0.48966 0.266745
1676 4 0.078743 0.477796 0.281262
2824 2 0.0536965 0.492714 0.256476
1677 4 0.12851 0.479297 0.276599
1675 2 0.103627 0.478547 0.278931
1802 4 0.338766 0.422948 0.325353
669 4 0.408435 0.426877 0.321836
1801 2 0.36359 0.424471 0.322774
1803 4 0.388414 0.425993 0.320195
667 2 0.425699 0.433676 0.305075
668 4 0.442963 0.440474 0.288315
1436 4 0.45974 0.449105 0.297837
1435 2 0.482468 0.442933 0.306234
424 2 0.0566556 0.0229692 0.348038
426 4 0.0632305 0.0264308 0.371912
2645 4 0.0812424 0.0344594 0.367973
2644 2 0.103251 0.0402557 0.378328
2646 4 0.125259 0.046052 0.388683
2663 4 0.138009 0.0488554 0.40311
2662 2 0.159544 0.0416011 0.392677
2664 4 0.181078 0.0343468 0.382243
1967 4 0.195407 0.0383629 0.395219
1966 2 0.211899 0.0355481 0.413801
721 2 0.232867 0.0826025 0.352952
723 4 0.248028 0.0867974 0.372388
1349 4 0.292257 0.0406674 0.413655
1348 2 0.291419 0.0395381 0.388691
1057 2 0.314381 0.0130822 0.336591
1058 4 0.300279 0.0314039 0.346111
1350 4 0.290582 0.0384088 0.363727
2502 4 0.277282 0.0545392 0.413352
618 4 0.346617 0.0260101 0.390252
3395 4 0.352598 0.015105 0.407906
708 4 0.37778 0.0491558 0.341538
617 4 0.361291 0.0385121 0.34411
616 2 0.353954 0.0322611 0.367181
3031 2 0.994603 0.136044 0.414265
3033 4 0.0109911 0.154925 0.413938
2683 2 0.0531448 0.163598 0.405298
765 4 0.0868555 0.156947 0.402955
2892 4 0.145904 0.0958478 0.408616
635 4 0.147237 0.110636 0.34599
636 4 0.13625 0.0930057 0.391477
634 2 0.141743 0.101821 0.368733
2483 4 0.23725 0.167946 0.329009
2713 2 0.414069 0.117322 0.415783
2714 4 0.430397 0.120374 0.397095
2684 4 0.0752441 0.172728 0.397986
763 2 0.10738 0.165554 0.41435
2802 4 0.146668 0.178602 0.424467
1190 4 0.296205 0.192267 0.352761
1189 2 0.313297 0.180353 0.338937
2482 2 0.256853 0.18126 0.336987
2484 4 0.276456 0.194574 0.344965
8 3 0.269919 0.204165 0.362296
7 3 0.288146 0.222474 0.389594
6 1 0.287812 0.218169 0.367
10 3 0.30734 0.208112 0.360991
9 3 0.285393 0.238222 0.355579
2957 4 0.334335 0.223718 0.389114
3080 4 0.344209 0.221546 0.406552
2956 2 0.345658 0.22949 0.367581
2958 4 0.356981 0.235262 0.346048
2955 4 0.436271 0.197546 0.353587
1952 4 0.479501 0.197436 0.382726
1951 2 0.465583 0.199562 0.362063
1953 4 0.451665 0.201688 0.341399
2817 4 0.484035 0.2025 0.400714
2698 2 0.00511987 0.275876 0.386944
2699 4 0.0277062 0.285505 0.382219
479 4 0.0398712 0.270114 0.382
478 2 0.0610653 0.279969 0.373118
480 4 0.0822595 0.289824 0.364235
3462 4 0.0893174 0.308048 0.364575
3460 2 0.104281 0.310771 0.384421
3461 4 0.119245 0.313494 0.404266
410 4 0.185476 0.327318 0.396219
1034 4 0.194358 0.319488 0.379417
1033 2 0.208932 0.299353 0.38213
1035 4 0.223505 0.279217 0.384844
585 4 0.239334 0.267532 0.384622
3316 2 0.329485 0.318206 0.334115
583 2 0.262452 0.268599 0.39409
584 4 0.285569 0.269667 0.403558
2529 4 0.292151 0.271205 0.423705
3317 4 0.331216 0.300151 0.351326
2180 4 0.369135 0.248691 0.353268
569 4 0.363813 0.330475 0.40136
568 2 0.384963 0.330836 0.388028
894 4 0.352159 0.344456 0.392619
2495 4 0.402268 0.273658 0.39657
2494 2 0.381294 0.275565 0.410047
366 4 0.423436 0.277172 0.399152
2611 2 0.00325382 0.34359 0.335912
409 2 0.162787 0.337825 0.396084
411 4 0.140098 0.348332 0.395949
593 4 0.126329 0.3554 0.381821
260 4 0.105205 0.390045 0.340068
594 4 0.115984 0.396602 0.35544
592 2 0.121156 0.376001 0.36863
3455 4 0.221812 0.359207 0.392917
3454 2 0.227668 0.349028 0.414992
893 4 0.304309 0.341594 0.378373
446 4 0.288151 0.406009 0.396186
2561 4 0.303004 0.399582 0.408069
892 2 0.328234 0.343025 0.385496
2555 4 0.396191 0.335734 0.356284
570 4 0.406113 0.331197 0.374696
547 2 0.489071 0.377343 0.356618
549 4 0.470131 0.36385 0.365805
812 4 0.462831 0.376564 0.380232
811 2 0.447424 0.386796 0.397057
813 4 0.432017 0.397028 0.413883
445 2 0.298712 0.419328 0.377848
447 4 0.309273 0.432646 0.35951
4323 4 0.319687 0.449471 0.359617
4321 2 0.318226 0.471123 0.372036
4322 4 0.316765 0.492776 0.384454
2900 4 0.079292 0.00237308 0.429153
3796 2 0.121999 0.00873552 0.440255
3798 4 0.146097 0.0081946 0.446899
1490 4 0.165181 0.00803183 0.453357
2580 4 0.111365 0.0771367 0.463912
1968 4 0.228391 0.0327333 0.432383
220 3 0.208457 0.026362 0.484964
218 3 0.216937 0.0236522 0.448379
2558 4 0.238725 0.072488 0.464994
219 3 0.244422 0.022284 0.474593
216 1 0.223893 0.0315719 0.469051
217 3 0.226148 0.0544342 0.46788
2501 4 0.246394 0.0523957 0.452622
2500 2 0.261838 0.0534675 0.432987
1181 4 0.275557 0.00624458 0.465489
4341 4 0.274729 0.0196066 0.479894
4339 2 0.288325 0.0399448 0.485062
4551 4 0.311616 0.0762538 0.483117
4340 4 0.301921 0.060283 0.490229
3394 2 0.35646 0.000880472 0.428103
4549 2 0.334783 0.0839308 0.488554
2503 2 0.382963 0.0587952 0.501025
2504 4 0.370254 0.079896 0.505319
2505 4 0.395672 0.0376944 0.496732
86 1 0.354307 0.000744195 0.488461
88 3 0.339055 0.0180082 0.491242
2685 4 0.0310456 0.154468 0.412609
982 2 0.058828 0.127477 0.489387
984 4 0.0443583 0.147708 0.486845
983 4 0.0732977 0.107245 0.491929
2579 4 0.0666009 0.0959269 0.475905
3326 4 0.0322714 0.163615 0.484685
2891 4 0.117323 0.0901641 0.449256
2890 2 0.131613 0.0930059 0.428936
2578 2 0.0889831 0.0865318 0.469909
320 4 0.153821 0.135474 0.494278
2557 2 0.24777 0.0953263 0.469662
2559 4 0.256816 0.118165 0.474331
1061 4 0.275192 0.114355 0.465366
1060 2 0.300102 0.116213 0.464264
1062 4 0.325013 0.118071 0.463162
642 4 0.258658 0.168413 0.441956
4550 4 0.35795 0.0916078 0.49399
683 4 0.344645 0.118531 0.468586
2715 4 0.397741 0.11427 0.434472
682 2 0.368354 0.11956 0.46071
684 4 0.392063 0.120589 0.452834
3325 2 0.0100573 0.173903 0.479595
764 4 0.127905 0.174161 0.425745
2800 2 0.168577 0.190652 0.424608
2801 4 0.190485 0.202702 0.424749
938 4 0.202249 0.186404 0.423275
937 2 0.22427 0.184741 0.435001
939 4 0.24629 0.183078 0.446727
3079 2 0.332021 0.20401 0.419559
640 2 0.282664 0.175187 0.443686
641 4 0.306671 0.181961 0.445415
3081 4 0.319833 0.186475 0.432565
3498 4 0.350401 0.244001 0.47452
3496 2 0.373458 0.247392 0.483578
3497 4 0.396515 0.250783 0.492637
2815 2 0.501661 0.203327 0.418429
1237 2 0.162623 0.313522 0.505371
1238 4 0.174015 0.328486 0.488894
2527 2 0.316914 0.273146 0.426576
2528 4 0.341676 0.275087 0.429447
2496 4 0.360319 0.277473 0.423523
365 4 0.447526 0.299006 0.437147
364 2 0.435481 0.288089 0.41815
3056 4 0.466955 0.299999 0.440449
3055 2 0.483414 0.317749 0.446711
1452 4 0.11733 0.399968 0.476871
1450 2 0.139541 0.403872 0.466074
310 2 0.109111 0.34906 0.454339
312 4 0.0964845 0.351515 0.432897
1451 4 0.161753 0.407776 0.455276
311 4 0.121737 0.346604 0.475781
2549 4 0.110896 0.384557 0.487871
663 4 0.186228 0.344621 0.483481
661 2 0.204899 0.347141 0.467042
662 4 0.223571 0.349661 0.450603
3456 4 0.233524 0.338849 0.437066
2927 4 0.180236 0.408801 0.464878
2560 2 0.318406 0.393448 0.426786
2562 4 0.333808 0.387315 0.445504
3045 4 0.277606 0.398209 0.499869
1641 4 0.291939 0.410721 0.490998
348 4 0.33666 0.396649 0.462993
346 2 0.360772 0.403203 0.462066
267 4 0.404371 0.410302 0.459832
347 4 0.384883 0.409757 0.461139
265 2 0.419458 0.413448 0.440142
4251 4 0.485492 0.392917 0.474796
266 4 0.434545 0.416594 0.420453
3593 4 0.425643 0.367355 0.492904
4042 2 0.462859 0.375708 0.484858
4043 4 0.484905 0.370468 0.474288
1171 2 0.0324311 0.478685 0.452834
1172 4 0.054251 0.46702 0.456445
1173 4 0.0106112 0.490349 0.449224
3423 4 0.144626 0.505564 0.470012
3422 4 0.103279 0.48454 0.451327
3421 2 0.123953 0.495052 0.46067
560 4 0.0964124 0.428044 0.448641
561 4 0.0858495 0.476615 0.443157
559 2 0.0911309 0.452329 0.445899
2647 2 0.235198 0.472761 0.491101
2926 2 0.192416 0.427081 0.476825
2928 4 0.204595 0.44536 0.488772
2648 4 0.21367 0.462599 0.483453
1488 4 0.268188 0.498651 0.500829
2649 4 0.256725 0.482923 0.49875
4058 4 0.399519 0.471393 0.449757
1644 4 0.410495 0.478246 0.4348
4057 2 0.380079 0.457779 0.457628
4059 4 0.360639 0.444166 0.4655
2959 2 0.430314 0.478017 0.493933
2961 4 0.442421 0.493804 0.478788
1642 2 0.427315 0.495288 0.441999
2316 4 0.0408514 0.0637322 0.584764
2194 2 0.10927 0.080526 0.565284
2553 4 0.145092 0.073442 0.543837
2196 4 0.089446 0.0768371 0.580069
2551 2 0.168901 0.0770539 0.550568
2552 4 0.192709 0.0806657 0.5573
761 4 0.251192 0.0721466 0.537472
3021 4 0.26831 0.0695969 0.547838
1143 4 0.332884 0.0488828 0.545109
1141 2 0.333446 0.031242 0.527398
1142 4 0.334008 0.0136013 0.509687
574 2 0.408413 0.0123403 0.514449
575 4 0.387638 0.0212445 0.503758
89 3 0.375353 0.00756301 0.495459
3620 4 0.480319 0.0502491 0.530401
576 4 0.429188 0.00343616 0.52514
3621 4 0.44598 0.0138981 0.530793
3619 2 0.463149 0.0320736 0.530597
2195 4 0.129094 0.0842149 0.550499
319 2 0.159433 0.155329 0.508402
760 2 0.2304 0.0805758 0.54851
762 4 0.209608 0.0890049 0.559547
1282 2 0.194269 0.165573 0.552422
1283 4 0.176655 0.164067 0.53474
3019 2 0.286798 0.081609 0.559632
2317 2 0.287088 0.168783 0.544304
2319 4 0.297183 0.164565 0.521822
3020 4 0.305285 0.0936212 0.571426
1107 4 0.325065 0.092089 0.568702
1105 2 0.34533 0.106712 0.567876
1106 4 0.365595 0.121335 0.567051
3385 2 0.402665 0.105044 0.562861
3387 4 0.378431 0.105679 0.568986
3386 4 0.426898 0.10441 0.556735
2243 4 0.445836 0.113065 0.561194
2242 2 0.469951 0.119601 0.560217
2244 4 0.494066 0.126136 0.559239
2322 4 0.0202855 0.173769 0.571342
2320 2 0.0354497 0.179162 0.552207
2321 4 0.0506138 0.184555 0.533072
3237 4 0.0701034 0.187532 0.53422
321 4 0.165045 0.175183 0.522526
3235 2 0.0914788 0.200426 0.532798
3236 4 0.112854 0.213321 0.531377
1284 4 0.211884 0.16708 0.570104
2603 4 0.217888 0.186573 0.568444
2602 2 0.242444 0.186256 0.573142
2318 4 0.276993 0.173002 0.566787
2604 4 0.267 0.185938 0.57784
3419 4 0.0552361 0.261967 0.555507
3418 2 0.0725119 0.279161 0.561086
83 3 0.108951 0.325222 0.576237
3420 4 0.0897877 0.296355 0.566665
890 4 0.101886 0.312101 0.562602
889 2 0.122693 0.303806 0.551492
891 4 0.1435 0.295512 0.540381
1239 4 0.151231 0.298559 0.521848
2550 4 0.0839137 0.416422 0.515391
3445 2 0.011424 0.36807 0.581776
3447 4 0.0345186 0.376319 0.5769
2548 2 0.097405 0.400489 0.501631
3044 4 0.228872 0.40409 0.509414
2847 4 0.184682 0.381793 0.533837
2845 2 0.203931 0.397298 0.530057
2846 4 0.22318 0.412802 0.526277
3043 2 0.253239 0.401149 0.504641
1911 4 0.351537 0.414984 0.507687
3594 4 0.404455 0.334702 0.524298
3592 2 0.415049 0.351029 0.508601
4044 4 0.440812 0.380948 0.495427
3962 4 0.081594 0.48355 0.567974
4179 4 0.0788012 0.471102 0.552726
4177 2 0.0832382 0.448877 0.542165
4178 4 0.0876753 0.426652 0.531603
1446 4 0.174234 0.437984 0.574178
212 3 0.244279 0.422783 0.554413
215 3 0.245507 0.446605 0.525709
211 1 0.250428 0.443935 0.547784
213 3 0.238718 0.459462 0.56044
1444 2 0.198304 0.444061 0.571199
1445 4 0.222374 0.450138 0.568219
1486 2 0.280125 0.488834 0.520485
1639 2 0.313094 0.416118 0.503187
214 3 0.273235 0.446527 0.551182
325 2 0.330506 0.477728 0.54479
1487 4 0.292062 0.479017 0.540141
327 4 0.307085 0.476731 0.553487
1909 2 0.375345 0.4205 0.512977
1910 4 0.399153 0.426016 0.518266
1640 4 0.334248 0.421514 0.515376
326 4 0.353927 0.478726 0.536093
1441 2 0.380766 0.475499 0.520069
1442 4 0.36037 0.489961 0.52008
1443 4 0.401163 0.461036 0.520058
3453 4 0.416839 0.425293 0.525706
2960 4 0.418208 0.462231 0.509079
3451 2 0.440389 0.433133 0.52872
3452 4 0.46394 0.440973 0.531734
1698 4 0.476079 0.454056 0.542283
1696 2 0.499062 0.4632 0.54594
2314 2 0.0650442 0.0651321 0.590921
2315 4 0.089237 0.066532 0.597079
3308 4 0.207816 0.0418963 0.584286
3309 4 0.188943 0.0297327 0.62897
4284 4 0.184113 0.0229155 0.646368
3307 2 0.198379 0.0358145 0.606628
3049 2 0.276706 0.039529 0.615012
3051 4 0.28815 0.0173066 0.615637
2507 4 0.303875 0.00503835 0.618593
3050 4 0.265261 0.0617514 0.614388
270 4 0.280168 0.0752353 0.623714
2282 4 0.39641 0.0825021 0.636531
3083 4 0.378508 0.0824959 0.643815
2281 2 0.418696 0.0718223 0.640334
2283 4 0.440982 0.0611425 0.644137
2979 4 0.448097 0.0414236 0.644011
2977 2 0.465868 0.0496061 0.65958
3298 2 0.00726308 0.11319 0.655305
3300 4 0.0284328 0.104911 0.64489
3360 4 0.0408005 0.111941 0.630096
3358 2 0.0643438 0.110781 0.638435
964 2 0.0465559 0.156968 0.603229
966 4 0.0594028 0.148127 0.622773
3359 4 0.0878871 0.109622 0.646774
2175 4 0.0746508 0.159802 0.628337
4369 2 0.120024 0.107342 0.655118
3001 2 0.159838 0.150413 0.619792
4371 4 0.143136 0.105212 0.645817
4370 4 0.0969122 0.109472 0.664419
3062 4 0.180921 0.120332 0.599605
3002 4 0.17605 0.139537 0.604169
3061 2 0.204961 0.126098 0.603347
3063 4 0.229002 0.131864 0.607089
3125 4 0.228687 0.150811 0.615486
3124 2 0.24311 0.150258 0.635904
3126 4 0.257533 0.149705 0.656322
268 2 0.300201 0.0855602 0.634544
269 4 0.320233 0.0958852 0.645373
3084 4 0.334714 0.104076 0.633001
3082 2 0.356611 0.0932858 0.638408
965 4 0.033709 0.16581 0.583685
960 4 0.00692821 0.259171 0.632809
3003 4 0.143626 0.161288 0.635415
2173 2 0.0990583 0.162161 0.633225
2174 4 0.123466 0.16452 0.638114
3238 2 0.0343316 0.280262 0.652271
3239 4 0.012715 0.267918 0.649914
3240 4 0.0559482 0.292605 0.654629
904 2 0.0445925 0.319002 0.612421
906 4 0.0690001 0.321773 0.607758
3093 4 0.0694459 0.277897 0.658942
905 4 0.0201849 0.316232 0.617084
84 3 0.0884335 0.328471 0.608063
82 3 0.125607 0.333973 0.608774
3091 2 0.094071 0.28129 0.656246
3092 4 0.118696 0.284683 0.653549
3435 4 0.13336 0.274564 0.660362
3433 2 0.152153 0.258098 0.659415
2721 4 0.0490238 0.386943 0.585837
2719 2 0.071954 0.380782 0.593677
81 1 0.106553 0.336802 0.596201
3220 2 0.1319 0.383507 0.617135
3222 4 0.156757 0.382209 0.619499
85 3 0.10356 0.358985 0.592007
3221 4 0.107042 0.384805 0.614771
2720 4 0.0948841 0.374622 0.601517
3491 4 0.167306 0.367539 0.612216
3490 2 0.192037 0.365202 0.609367
3492 4 0.216767 0.362865 0.606518
1040 4 0.305802 0.354682 0.653327
1039 2 0.330746 0.354268 0.651647
3380 4 0.243867 0.343338 0.662983
1041 4 0.35569 0.353853 0.649968
998 4 0.374305 0.350681 0.643267
272 4 0.0773288 0.458163 0.66839
4301 4 0.152661 0.429827 0.660093
4493 4 0.134451 0.438235 0.65221
4492 2 0.113578 0.451734 0.654905
4494 4 0.0927043 0.465233 0.6576
3119 4 0.241084 0.467014 0.649082
3118 2 0.220709 0.468019 0.66354
1204 2 0.281203 0.475407 0.65858
1206 4 0.258125 0.465792 0.658194
879 4 0.431195 0.496888 0.658692
877 2 0.442197 0.487035 0.638516
878 4 0.453199 0.477181 0.61834
1083 4 0.0100892 0.0503089 0.715477
1081 2 0.0300405 0.0623934 0.706471
1082 4 0.0499917 0.0744779 0.697465
1023 4 0.0689693 0.0709979 0.69675
1021 2 0.0931036 0.0759199 0.692448
2254 2 0.160801 0.0809116 0.683384
1038 4 0.21379 0.0145495 0.725736
4282 2 0.177442 0.00804617 0.665331
2255 4 0.184942 0.0748093 0.681114
1004 4 0.201492 0.0783178 0.671786
2131 2 0.294405 0.0123585 0.728413
2133 4 0.275972 0.0277335 0.735415
4386 4 0.269451 0.0458885 0.741785
2978 4 0.483639 0.0577886 0.67515
1086 4 0.49148 0.0604758 0.693259
3292 2 0.0781058 0.132029 0.737725
1022 4 0.117238 0.080842 0.688146
2256 4 0.13666 0.087014 0.685654
3293 4 0.0909996 0.143605 0.719698
954 4 0.106523 0.14896 0.709075
952 2 0.130702 0.151106 0.715072
953 4 0.154881 0.153251 0.721069
1077 4 0.162365 0.137413 0.7327
1075 2 0.185367 0.146319 0.728609
1076 4 0.20837 0.155226 0.724517
3146 4 0.221195 0.143925 0.737244
3145 2 0.245342 0.140036 0.742443
1003 2 0.219515 0.093792 0.67959
1005 4 0.237539 0.109266 0.687393
3009 4 0.245128 0.120787 0.702349
3008 4 0.272565 0.14253 0.66664
3007 2 0.258847 0.131659 0.684495
3441 4 0.3852 0.137817 0.722652
2628 4 0.404017 0.140003 0.728911
3439 2 0.369 0.133315 0.741158
3357 4 0.508679 0.131032 0.721184
1084 2 0.503589 0.0802489 0.702618
2626 2 0.4256 0.135895 0.740848
3355 2 0.486657 0.134063 0.732632
3356 4 0.464636 0.137094 0.74408
383 4 0.182423 0.246455 0.674225
382 2 0.202617 0.244326 0.688814
1134 4 0.054642 0.316751 0.746322
3434 4 0.170946 0.241633 0.658468
384 4 0.222811 0.242197 0.703404
1299 4 0.211945 0.316673 0.704919
1297 2 0.220018 0.32327 0.682192
1298 4 0.228091 0.329867 0.659466
3383 4 0.298425 0.286374 0.704593
3382 2 0.317745 0.296462 0.716847
3384 4 0.337064 0.30655 0.729102
921 4 0.346079 0.290566 0.73812
919 2 0.368663 0.280354 0.741419
920 4 0.391247 0.270142 0.744719
867 4 0.407949 0.2804 0.737752
3114 4 0.393421 0.326635 0.702336
865 2 0.426011 0.295758 0.745694
866 4 0.444073 0.311117 0.753637
4208 4 0.0380418 0.403355 0.712338
4207 2 0.0584797 0.389509 0.708366
4362 4 0.0178131 0.411678 0.715532
4209 4 0.0789176 0.375664 0.704394
4437 4 0.0929295 0.381347 0.69109
4435 2 0.115917 0.386781 0.68289