ITEM: TIMESTEP
47500
ITEM: NUMBER OF ATOMS
4590
ITEM: BOX BOUNDS xy xz yz pp pp pp
-1.0998427000000003e+01 9.9985700000000008e+00 -9.9985700000000222e-01
-9.9985700000000008e+00 9.9985700000000008e+00 0.0000000000000000e+00
-9.9985700000000008e+00 9.9985700000000008e+00 0.0000000000000000e+00
ITEM: ATOMS id type xs ys zs
2251 2 0.054502 0.0150206 0.0129239
2253 4 0.064967 0.0374892 0.00717218
1247 4 0.0747243 0.0552638 0.0107947
1476 4 0.255773 0.000583846 0.0282255
2467 2 0.466784 0.000388974 0.0299219
2468 4 0.488171 0.0138365 0.0260158
744 4 0.453794 0.065745 0.0810555
148 3 0.496495 0.0338412 0.0304589
2659 2 0.0273404 0.133089 0.0479751
2660 4 0.0517756 0.136658 0.0528793
2661 4 0.00290524 0.129519 0.0430709
3153 4 0.0676863 0.125453 0.0570337
3151 2 0.0870866 0.14155 0.0525298
3152 4 0.106487 0.157647 0.0480258
1667 4 0.125107 0.159912 0.0555527
722 4 0.405148 0.159118 0.069887
492 4 0.48502 0.0916428 0.00258468
2442 4 0.501021 0.100923 0.0114784
3285 4 0.011222 0.198967 0.0199686
2729 4 0.0222297 0.205147 0.0348969
2728 2 0.0416313 0.221258 0.0393483
2753 4 0.0762868 0.232114 0.0544957
2730 4 0.061033 0.237369 0.0437998
2752 2 0.0979282 0.236442 0.0666373
2754 4 0.11957 0.240771 0.0787788
1666 2 0.147719 0.169672 0.0491897
2786 4 0.140198 0.241009 0.0794632
1668 4 0.170331 0.179431 0.0428267
2967 4 0.25975 0.210938 0.00527646
705 4 0.264475 0.217059 0.0234688
703 2 0.260186 0.206084 0.0456215
704 4 0.255897 0.195109 0.0677742
623 4 0.239681 0.191044 0.0814649
1840 2 0.336275 0.18218 0.0169649
1841 4 0.355318 0.193278 0.0296212
450 4 0.359241 0.199616 0.048113
1842 4 0.317231 0.171082 0.00430848
721 2 0.426379 0.168432 0.0802431
448 2 0.380766 0.207795 0.0587167
449 4 0.40229 0.215973 0.0693204
915 4 0.414138 0.232018 0.0770768
1254 4 0.49799 0.181854 0.0370331
2785 2 0.160225 0.250422 0.0670484
2787 4 0.180252 0.259835 0.0546336
620 4 0.166732 0.310127 0.0857582
3140 4 0.218219 0.27528 0.0718524
2834 4 0.255673 0.327372 0.0149154
2563 2 0.315837 0.320186 0.0294015
2564 4 0.312114 0.297361 0.0392769
969 4 0.363582 0.304292 0.0274517
462 4 0.352237 0.293645 0.041539
460 2 0.362723 0.294616 0.0642391
967 2 0.380089 0.313267 0.0105174
455 4 0.391274 0.253477 0.0132072
3728 4 0.000506061 0.374577 0.0608387
3727 2 0.0174098 0.389343 0.072915
2725 2 0.187614 0.389077 0.0842505
2726 4 0.203568 0.398158 0.0668591
2842 2 0.192224 0.378404 0.026891
2844 4 0.197881 0.389964 0.048472
2843 4 0.186566 0.366844 0.00530998
2565 4 0.31956 0.343012 0.019526
3404 4 0.331036 0.359686 0.0143055
3403 2 0.342356 0.376622 0.0294276
3405 4 0.353675 0.393558 0.0445498
1466 4 0.373377 0.400786 0.0408872
286 2 0.500574 0.358205 0.0826063
2803 2 0.00417925 0.481812 0.0151605
2403 4 0.0397008 0.493571 0.997471
4053 4 0.160613 0.498111 0.00337927
2911 2 0.261719 0.478884 0.023907
2913 4 0.244901 0.492102 0.0118664
2912 4 0.278536 0.465667 0.0359477
2583 4 0.289671 0.452024 0.0422476
2581 2 0.311382 0.446847 0.0530043
2582 4 0.333093 0.441671 0.0637609
1465 2 0.379628 0.4167 0.0593845
1467 4 0.385879 0.432615 0.0778817
2521 2 0.498921 0.469618 0.0106735
380 4 0.013485 0.0527137 0.136656
379 2 0.0249337 0.0712402 0.12357
404 4 0.273886 0.00955005 0.156276
2181 4 0.290234 0.0164645 0.146424
2179 2 0.312982 0.026564 0.14109
2180 4 0.33573 0.0366634 0.135757
1749 4 0.352629 0.046497 0.134879
1747 2 0.374504 0.0521958 0.123629
743 4 0.406316 0.065446 0.0967998
1748 4 0.39638 0.0578945 0.112378
742 2 0.430055 0.0655955 0.0889277
557 4 0.480561 0.0526008 0.103233
556 2 0.492771 0.0314776 0.104962
253 2 0.494036 0.0829442 0.12219
254 4 0.496616 0.0643684 0.105825
381 4 0.0363824 0.0897668 0.110484
505 2 0.272884 0.158079 0.14364
507 4 0.278152 0.148907 0.166184
506 4 0.267616 0.167251 0.121095
357 4 0.301243 0.119595 0.0878029
355 2 0.320261 0.135922 0.0930309
356 4 0.339278 0.152249 0.0982588
757 2 0.371478 0.159489 0.0857001
759 4 0.394175 0.150206 0.0840901
255 4 0.491455 0.10152 0.138554
622 2 0.257925 0.187999 0.0981222
624 4 0.27617 0.184954 0.11478
758 4 0.348782 0.168772 0.0873101
913 2 0.429049 0.245149 0.0928752
723 4 0.44761 0.177746 0.0905991
2471 4 0.0214638 0.317252 0.131304
3632 4 0.00231239 0.31901 0.135484
2470 2 0.0393178 0.321918 0.148419
2472 4 0.0571718 0.326584 0.165534
2671 2 0.0188719 0.272736 0.163435
2672 4 0.00152436 0.267837 0.145866
619 2 0.185691 0.325623 0.093134
3139 2 0.224657 0.289115 0.0918717
836 4 0.231165 0.289743 0.128735
3141 4 0.231095 0.302949 0.111891
835 2 0.227754 0.275828 0.14933
754 2 0.278607 0.25752 0.158798
756 4 0.292193 0.274009 0.144997
2797 2 0.310375 0.315797 0.139443
2799 4 0.297735 0.293777 0.142116
461 4 0.373209 0.295587 0.0869392
293 4 0.389015 0.294062 0.0971148
292 2 0.409511 0.295763 0.111457
294 4 0.430006 0.297465 0.125799
104 3 0.433859 0.28412 0.141489
525 4 0.446228 0.309544 0.12311
101 1 0.45624 0.282221 0.136048
914 4 0.443959 0.25828 0.108674
523 2 0.454659 0.330395 0.111455
105 3 0.458266 0.266059 0.120255
102 3 0.464602 0.302352 0.127692
103 3 0.468307 0.277015 0.155004
3729 4 0.0343135 0.404109 0.0849912
3543 4 0.054498 0.407603 0.085872
2555 4 0.131681 0.334498 0.135662
2570 4 0.114625 0.337567 0.144756
2569 2 0.0943308 0.336873 0.159393
2554 2 0.142674 0.353395 0.122734
2727 4 0.171659 0.379996 0.101642
2556 4 0.153668 0.372293 0.109807
621 4 0.20465 0.341118 0.10051
2535 4 0.292302 0.394926 0.149328
2798 4 0.323015 0.337818 0.13677
1056 4 0.32898 0.357423 0.133607
1054 2 0.350527 0.359946 0.120959
2533 2 0.310832 0.412631 0.148714
1055 4 0.372074 0.362469 0.108311
2540 4 0.387417 0.376589 0.112819
2539 2 0.400853 0.396955 0.120316
2541 4 0.41429 0.417321 0.127813
288 4 0.482425 0.35842 0.0997926
524 4 0.463089 0.351246 0.0998003
3541 2 0.0719253 0.421111 0.0986039
1742 4 0.101958 0.441946 0.126289
1741 2 0.10352 0.466847 0.124042
1743 4 0.105082 0.491747 0.121795
3542 4 0.0893526 0.434619 0.111336
1568 4 0.112011 0.498106 0.103771
3552 4 0.164614 0.420318 0.138899
3550 2 0.161422 0.435507 0.158363
2534 4 0.329362 0.430336 0.148101
4211 4 0.394329 0.443158 0.0924279
4210 2 0.402084 0.459333 0.110185
4212 4 0.409838 0.475507 0.127943
3634 2 0.425872 0.494872 0.154336
3636 4 0.416094 0.493735 0.131328
516 4 0.300885 0.0507195 0.211377
514 2 0.323467 0.0507614 0.222118
515 4 0.346048 0.0508033 0.232859
2910 4 0.364724 0.0602044 0.230109
2908 2 0.386144 0.05415 0.24091
27 3 0.362782 0.0800122 0.227464
2909 4 0.407563 0.0480955 0.251711
2778 4 0.0197264 0.139749 0.243956
2776 2 0.00472565 0.144572 0.224731
511 2 0.075823 0.100341 0.229361
512 4 0.0800884 0.108011 0.205882
2694 4 0.0951942 0.121319 0.204255
2692 2 0.101017 0.145344 0.199097
579 4 0.254708 0.153899 0.221829
578 4 0.266994 0.137216 0.176549
236 4 0.270282 0.154476 0.230947
577 2 0.260851 0.145557 0.199189
30 3 0.347915 0.113194 0.23179
26 1 0.367366 0.102726 0.228616
29 3 0.377336 0.109872 0.208742
605 4 0.396347 0.115892 0.204107
28 3 0.381819 0.107262 0.246376
604 2 0.41313 0.132638 0.194593
606 4 0.429914 0.149383 0.185079
731 4 0.445434 0.160175 0.176724
1506 4 0.491684 0.0958745 0.199131
1504 2 0.495896 0.104686 0.176038
2693 4 0.10684 0.169369 0.193939
2856 4 0.0993104 0.192101 0.177772
2855 4 0.0782791 0.21623 0.215507
2579 4 0.0929744 0.212389 0.227816
2854 2 0.0887948 0.204166 0.196639
2718 4 0.124112 0.180477 0.195382
2717 4 0.155371 0.210404 0.168562
2614 2 0.197708 0.228991 0.169667
2616 4 0.176141 0.215248 0.169072
2716 2 0.139742 0.195441 0.181972
3573 4 0.175924 0.233916 0.228202
3571 2 0.185229 0.217065 0.243638
2954 4 0.18941 0.24898 0.229865
2615 4 0.219275 0.242734 0.170263
1221 4 0.239525 0.194583 0.22839
475 2 0.258507 0.213597 0.205778
477 4 0.259475 0.196687 0.224107
476 4 0.257539 0.230507 0.187449
755 4 0.265021 0.241032 0.172598
1219 2 0.22696 0.180232 0.245089
235 2 0.280979 0.172005 0.245828
459 4 0.336898 0.234273 0.244731
749 4 0.356272 0.23765 0.246295
748 2 0.372596 0.242631 0.227803
582 4 0.392865 0.237758 0.191444
580 2 0.416655 0.2312 0.190736
750 4 0.38892 0.247612 0.209311
581 4 0.440445 0.224642 0.190028
730 2 0.44781 0.185038 0.179118
732 4 0.450186 0.209901 0.181513
2673 4 0.0362194 0.277634 0.181005
2789 4 0.0519334 0.290077 0.188546
2788 2 0.0607801 0.311991 0.197762
2790 4 0.0696268 0.333904 0.206977
2526 4 0.136133 0.326685 0.171594
2968 2 0.124981 0.277197 0.249926
2969 4 0.14673 0.280195 0.237692
2955 4 0.186557 0.295393 0.247748
2953 2 0.187984 0.272187 0.238806
837 4 0.224342 0.261912 0.169925
279 4 0.482661 0.285097 0.169343
277 2 0.500876 0.299254 0.180217
2571 4 0.0740364 0.336178 0.17403
2524 2 0.153019 0.337876 0.186871
2525 4 0.169905 0.349068 0.202148
2705 4 0.222915 0.332214 0.231431
2704 2 0.242714 0.344908 0.221595
2706 4 0.262514 0.357603 0.211758
2493 4 0.281194 0.364331 0.206072
2491 2 0.290337 0.378687 0.187415
2492 4 0.29948 0.393043 0.168758
362 4 0.44937 0.336485 0.176951
361 2 0.472396 0.347398 0.176104
363 4 0.495422 0.358311 0.175257
3817 2 0.00894263 0.497803 0.17387
3551 4 0.15823 0.450696 0.177826
4007 4 0.171584 0.461219 0.189577
4006 2 0.193435 0.46121 0.20173
4008 4 0.215286 0.461201 0.213882
2818 2 0.342971 0.484627 0.244103
648 4 0.444736 0.494346 0.196939
3635 4 0.435651 0.496009 0.177344
3671 4 0.49719 0.41655 0.201724
679 2 0.489031 0.474359 0.235263
1867 2 0.105411 0.00319198 0.322972
2849 4 0.126878 0.0730287 0.29553
2848 2 0.132626 0.0498877 0.30201
1869 4 0.128201 0.0145208 0.321254
2850 4 0.138374 0.0267467 0.30849
470 4 0.200827 0.0198694 0.314103
469 2 0.21331 0.042124 0.314902
471 4 0.225793 0.0643785 0.315702
479 4 0.204947 0.00627029 0.328108
599 4 0.408072 0.0461851 0.312717
598 2 0.413802 0.0423684 0.288726
600 4 0.419532 0.0385516 0.264736
1518 4 0.419168 0.0330313 0.320848
2476 2 0.0172665 0.149721 0.277596
2477 4 0.0118493 0.143075 0.301158
2478 4 0.0226838 0.156367 0.254035
513 4 0.0715575 0.0926721 0.252841
1271 4 0.0715897 0.0904629 0.271841
1270 2 0.0943471 0.0897831 0.282101
1272 4 0.117105 0.0891032 0.292361
707 4 0.226151 0.0855044 0.317796
546 4 0.343786 0.107712 0.252259
545 4 0.346132 0.124862 0.299209
544 2 0.344959 0.116287 0.275734
531 4 0.356546 0.128386 0.315637
3158 4 0.41894 0.121376 0.332816
529 2 0.370648 0.140242 0.333018
2578 2 0.0941397 0.216584 0.252447
2890 2 0.113764 0.211943 0.314257
2580 4 0.095305 0.22078 0.277077
2891 4 0.106434 0.220962 0.292273
299 4 0.197572 0.210939 0.328874
298 2 0.196332 0.207974 0.304071
300 4 0.195091 0.205009 0.279267
3572 4 0.194533 0.200214 0.259074
1220 4 0.214395 0.165882 0.261789
458 4 0.309384 0.197867 0.267429
237 4 0.291677 0.189535 0.260709
457 2 0.323141 0.21607 0.25608
390 4 0.473175 0.241673 0.313725
283 2 0.482937 0.231636 0.277402
285 4 0.492864 0.216588 0.26053
284 4 0.47301 0.246685 0.294274
388 2 0.458534 0.247784 0.332815
2504 4 0.0821519 0.308547 0.292111
2503 2 0.0821104 0.304733 0.316821
2970 4 0.103233 0.274198 0.26216
2529 4 0.197885 0.307167 0.260233
2528 4 0.181124 0.317285 0.306061
2527 2 0.189505 0.312226 0.283147
2831 4 0.191525 0.307712 0.319859
535 2 0.307321 0.303199 0.294289
710 4 0.302054 0.281192 0.315862
536 4 0.300677 0.278799 0.294897
537 4 0.313964 0.3276 0.293681
3920 4 0.302609 0.402886 0.263453
414 4 0.321002 0.340181 0.306706
412 2 0.321742 0.340354 0.331698
395 4 0.356661 0.364831 0.277543
394 2 0.363862 0.387994 0.27032
396 4 0.371063 0.411156 0.263097
2653 2 0.492731 0.339447 0.285655
2655 4 0.483297 0.354302 0.303003
2824 2 0.0121062 0.418726 0.326409
2825 4 0.0306812 0.43402 0.317801
3593 4 0.0425169 0.439235 0.301379
3592 2 0.063067 0.453119 0.295201
2560 2 0.124112 0.477471 0.29239
2562 4 0.103006 0.464922 0.285435
3594 4 0.0836171 0.467003 0.289023
2561 4 0.145217 0.49002 0.299344
3779 4 0.163518 0.49358 0.303106
3921 4 0.319085 0.44973 0.253126
3919 2 0.310847 0.426308 0.25829
2820 4 0.333246 0.464572 0.256223
2532 4 0.450487 0.425618 0.325146
3885 4 0.463438 0.433608 0.312706
3883 2 0.464739 0.443524 0.289767
3884 4 0.46604 0.45344 0.266827
680 4 0.474984 0.466897 0.254821
2236 2 0.139639 0.0689213 0.395186
2238 4 0.139894 0.0709344 0.370264
478 2 0.204648 0.00230913 0.352795
1516 2 0.425922 0.0240331 0.343036
1517 4 0.432676 0.0150348 0.365224
1061 4 0.482403 0.0381355 0.405354
1060 2 0.465586 0.0316259 0.387723
1062 4 0.448769 0.0251163 0.370093
684 4 0.492088 0.0232177 0.413554
1198 2 0.0660901 0.151009 0.382131
1199 4 0.0661828 0.133497 0.399951
1035 4 0.0769646 0.145029 0.413378
706 2 0.240048 0.0985767 0.334497
618 4 0.236215 0.135978 0.406843
708 4 0.253945 0.111649 0.351197
616 2 0.248265 0.129681 0.386043
617 4 0.260315 0.123384 0.365244
341 4 0.238117 0.155331 0.412335
530 4 0.384751 0.152098 0.350399
651 4 0.400439 0.165026 0.351985
3157 2 0.441965 0.130982 0.337779
3159 4 0.464991 0.140587 0.342743
1032 4 0.469797 0.149206 0.361433
1030 2 0.489908 0.163263 0.3543
1200 4 0.0659973 0.168522 0.364311
2766 4 0.0787013 0.18318 0.371297
2764 2 0.0944127 0.203288 0.37344
2892 4 0.121095 0.202925 0.33624
2765 4 0.110124 0.223396 0.375583
2802 4 0.128922 0.223503 0.385743
2462 4 0.134454 0.191513 0.346915
2461 2 0.158534 0.19909 0.344454
2800 2 0.142756 0.242189 0.396215
2463 4 0.182613 0.206667 0.341993
2483 4 0.224074 0.168285 0.360203
2484 4 0.262866 0.200775 0.352222
2482 2 0.24347 0.18453 0.356212
634 2 0.301078 0.242827 0.382648
635 4 0.296044 0.22295 0.397267
649 2 0.412887 0.16778 0.373573
650 4 0.425336 0.170533 0.395161
1191 4 0.437376 0.171267 0.413916
2931 4 0.0238589 0.279973 0.415662
2823 4 0.0920075 0.296093 0.406722
2821 2 0.0848602 0.300262 0.383192
2505 4 0.0820688 0.300919 0.341532
2822 4 0.0777129 0.304431 0.359661
2801 4 0.156589 0.260875 0.406686
2830 2 0.183941 0.298778 0.342094
2832 4 0.176356 0.289843 0.364329
2684 4 0.168481 0.271646 0.394234
2683 2 0.191331 0.269362 0.403857
2685 4 0.214181 0.267078 0.413479
709 2 0.309744 0.267761 0.335223
711 4 0.317434 0.254329 0.354585
636 4 0.306113 0.262705 0.368028
389 4 0.443893 0.253896 0.351905
2960 4 0.0436305 0.370156 0.40415
2959 2 0.0578832 0.384822 0.389073
2961 4 0.0721358 0.399489 0.373996
2649 4 0.0887369 0.395808 0.366079
2647 2 0.105853 0.413654 0.372674
2598 4 0.191321 0.339178 0.365168
2596 2 0.205152 0.356728 0.352944
2603 4 0.206203 0.357017 0.397156
2597 4 0.218983 0.374277 0.34072
2873 4 0.233789 0.387472 0.340504
2872 2 0.249982 0.406613 0.345669
2700 4 0.317265 0.398604 0.380146
413 4 0.322481 0.340527 0.35669
2698 2 0.321508 0.374445 0.376709
2699 4 0.325751 0.350286 0.373272
2904 4 0.309573 0.409793 0.395583
2648 4 0.122969 0.4315 0.379268
2589 4 0.1274 0.451243 0.378219
2587 2 0.144273 0.468905 0.385806
3582 4 0.176673 0.498068 0.402049
2588 4 0.161146 0.486568 0.393393
2874 4 0.266175 0.425754 0.350833
2903 4 0.282796 0.433251 0.361389
2902 2 0.296184 0.421522 0.378486
1434 4 0.421446 0.445675 0.415176
1432 2 0.442947 0.443592 0.402764
2530 2 0.454103 0.435001 0.348108
2531 4 0.45772 0.444383 0.371069
1433 4 0.464449 0.44151 0.390353
164 3 0.109144 0.0804918 0.463888
165 3 0.12346 0.0728171 0.430085
2237 4 0.139384 0.0669082 0.420108
1180 2 0.259786 0.0343352 0.441885
1181 4 0.241505 0.0175902 0.43552
1182 4 0.278067 0.0510802 0.44825
2315 4 0.294639 0.0535911 0.459726
2316 4 0.315248 0.0250247 0.494353
2314 2 0.304943 0.0393079 0.477039
682 2 0.48996 0.0206003 0.43834
683 4 0.487832 0.0179829 0.463126
842 4 0.467334 0.0140119 0.467914
2915 4 0.0365714 0.130245 0.453425
2914 2 0.0404896 0.149721 0.468825
1033 2 0.0954512 0.133325 0.424535
162 3 0.103753 0.103175 0.434638
1034 4 0.113938 0.121621 0.435691
161 1 0.118695 0.0895019 0.444539
2612 4 0.133448 0.121144 0.443574
163 3 0.138101 0.102105 0.449739
2611 2 0.149586 0.139816 0.45031
2613 4 0.165724 0.158488 0.457046
725 4 0.263434 0.11404 0.497452
724 2 0.270596 0.106484 0.474841
726 4 0.277758 0.0989288 0.45223
474 4 0.297651 0.101733 0.451976
472 2 0.322129 0.107755 0.449876
473 4 0.346606 0.113776 0.447776
372 4 0.353555 0.110878 0.428192
370 2 0.378268 0.108694 0.430248
371 4 0.402982 0.10651 0.432304
2502 4 0.492646 0.138045 0.50379
2916 4 0.0444078 0.169198 0.484226
938 4 0.176792 0.173335 0.464083
937 2 0.197624 0.187241 0.458955
2584 2 0.226613 0.242359 0.439843
939 4 0.218457 0.201147 0.453826
2585 4 0.22478 0.220602 0.452142
340 2 0.2498 0.171575 0.427928
342 4 0.261484 0.187819 0.443521
402 4 0.280821 0.189943 0.443897
400 2 0.305108 0.196364 0.4408
367 2 0.323155 0.180576 0.497317
824 4 0.342105 0.218119 0.433683
401 4 0.329395 0.202785 0.437704
823 2 0.358117 0.238006 0.431631
3462 4 0.348646 0.205702 0.489631
369 4 0.346311 0.185931 0.488794
3460 2 0.371293 0.215761 0.483831
3461 4 0.39394 0.22582 0.478031
1189 2 0.442975 0.189409 0.430471
1190 4 0.448574 0.20755 0.447026
1394 4 0.442517 0.201779 0.465341
1393 2 0.451976 0.202838 0.488484
3496 2 0.00144866 0.259519 0.499182
2929 2 0.000637632 0.274149 0.423754
2810 4 0.0448491 0.261163 0.492129
2809 2 0.0656099 0.275843 0.489193
2543 4 0.0989071 0.294012 0.424788
2544 4 0.0976073 0.302723 0.474
2542 2 0.0982572 0.298368 0.449394
2811 4 0.0863707 0.290523 0.486258
2963 4 0.187926 0.303737 0.486353
2962 2 0.183288 0.319086 0.46737
2814 4 0.189702 0.32031 0.498511
2586 4 0.228446 0.264116 0.427544
259 2 0.362862 0.309323 0.487659
825 4 0.374128 0.257892 0.429579
260 4 0.377715 0.324345 0.473493
2637 4 0.396961 0.332437 0.469784
3456 4 0.00856943 0.350132 0.475564
3454 2 0.0177912 0.373809 0.475501
3455 4 0.0270129 0.397485 0.475438
4179 4 0.0363388 0.415112 0.479755
2957 4 0.0579426 0.367143 0.418509
2956 2 0.0668196 0.361047 0.440952
2958 4 0.0756966 0.354951 0.463396
3072 4 0.0919979 0.364625 0.467609
3070 2 0.113592 0.375485 0.475615
3071 4 0.135186 0.386345 0.483621
2964 4 0.178649 0.334434 0.448387
2602 2 0.199882 0.352223 0.42093
2604 4 0.193562 0.347429 0.444704
3451 2 0.170636 0.413617 0.495315
3453 4 0.150845 0.398597 0.489226
2510 4 0.290501 0.35946 0.499233
2509 2 0.304018 0.356006 0.478597
3332 4 0.318526 0.355545 0.439675
2511 4 0.317535 0.352553 0.457961
3331 2 0.340806 0.367866 0.437653
3333 4 0.363085 0.380187 0.43563
2636 4 0.377612 0.369347 0.443533
2635 2 0.387286 0.350892 0.456658
4042 2 0.025634 0.493533 0.434847
4043 4 0.00610728 0.479404 0.426399
4177 2 0.0427512 0.417993 0.455722
4178 4 0.0491637 0.420874 0.431689
2735 4 0.116678 0.482474 0.441263
2629 2 0.220468 0.494583 0.489891
2926 2 0.219229 0.433609 0.47447
2928 4 0.209535 0.434256 0.497495
3452 4 0.190427 0.428637 0.501404
2927 4 0.228922 0.432962 0.451444
4129 2 0.28698 0.495129 0.495875
4130 4 0.263913 0.484848 0.499171
2630 4 0.243446 0.486983 0.49456
2548 2 0.346914 0.435396 0.496132
2550 4 0.368263 0.439527 0.483439
547 2 0.383831 0.478515 0.478342
549 4 0.383757 0.453942 0.482815
3033 4 0.0742626 0.0686232 0.549703
944 4 0.124422 0.0140873 0.561726
943 2 0.12707 0.0313585 0.543734
945 4 0.129719 0.0486297 0.525742
959 4 0.319177 0.043684 0.57174
958 2 0.338415 0.0555797 0.560072
1151 4 0.327937 0.0130359 0.503145
1256 4 0.300024 0.0470873 0.575379
960 4 0.357652 0.0674754 0.548405
2240 4 0.370481 0.0714323 0.532782
2239 2 0.392408 0.0819879 0.525309
3032 4 0.0467237 0.104221 0.569038
3031 2 0.0604932 0.0864223 0.55937
9 3 0.255034 0.153243 0.530451
6 1 0.275048 0.147455 0.520823
8 3 0.27155 0.128409 0.507816
7 3 0.290006 0.143069 0.537542
10 3 0.283612 0.164638 0.508015
917 4 0.298143 0.160137 0.544451
916 2 0.315026 0.167379 0.561766
2241 4 0.414335 0.0925436 0.517837
1143 4 0.430834 0.102088 0.509935
1141 2 0.451756 0.116394 0.506436
857 4 0.496471 0.165049 0.580223
1142 4 0.472677 0.130699 0.502937
3107 4 0.0388901 0.223822 0.551621
3106 2 0.0529421 0.237311 0.567877
3265 2 0.159863 0.230771 0.566748
1077 4 0.1586 0.201351 0.580034
3267 4 0.154414 0.20669 0.561524
918 4 0.331908 0.174621 0.579081
368 4 0.3 0.17522 0.50584
411 4 0.432591 0.230134 0.560213
409 2 0.447991 0.218063 0.545267
1395 4 0.461434 0.203896 0.511627
410 4 0.46339 0.205991 0.530322
3497 4 0.0262503 0.263492 0.501203
3108 4 0.0669941 0.250801 0.584134
3266 4 0.165312 0.254851 0.571972
2812 2 0.202489 0.312093 0.518094
3109 2 0.201023 0.271984 0.563071
3111 4 0.186015 0.254338 0.573761
2813 4 0.215276 0.303877 0.537677
3110 4 0.216031 0.289631 0.552381
2847 4 0.329302 0.309933 0.561988
2845 2 0.330029 0.303766 0.53778
3236 4 0.313213 0.302362 0.57137
2846 4 0.330757 0.297598 0.513571
261 4 0.348009 0.294301 0.501824
3043 2 0.439158 0.27785 0.530399
3044 4 0.426584 0.266533 0.549185
3045 4 0.451733 0.289168 0.511614
443 4 0.468802 0.299473 0.512915
442 2 0.478822 0.322783 0.514778
348 4 0.458495 0.265376 0.580419
3380 4 0.144945 0.357063 0.580958
878 4 0.210732 0.378145 0.526334
3354 4 0.20912 0.397989 0.525749
877 2 0.220829 0.361593 0.54156
3352 2 0.226916 0.41605 0.52944
879 4 0.230927 0.345042 0.556787
383 4 0.246378 0.350072 0.569697
406 2 0.301081 0.401279 0.509224
408 4 0.296383 0.377141 0.503715
444 4 0.488842 0.346092 0.516641
1910 4 0.00732505 0.421924 0.546017
1909 2 0.024452 0.419664 0.563985
3353 4 0.244711 0.434111 0.533132
3446 4 0.255474 0.438298 0.549353
3445 2 0.280147 0.435651 0.551056
407 4 0.305779 0.425417 0.514733
3447 4 0.304819 0.433004 0.55276
2720 4 0.323572 0.430492 0.558879
2719 2 0.342582 0.440022 0.572694
2549 4 0.325565 0.431265 0.508826
1136 4 0.374791 0.41463 0.520346
1135 2 0.392746 0.420156 0.537142
1137 4 0.410701 0.425681 0.553939
540 4 0.425765 0.42717 0.566428
4433 4 0.446262 0.480681 0.548625
538 2 0.45045 0.428127 0.562269
4296 4 0.460195 0.478735 0.56255
4294 2 0.467078 0.491796 0.582941
539 4 0.475134 0.429084 0.558111
2243 4 0.492815 0.437584 0.553133
1155 4 0.260395 0.0647119 0.631096
1257 4 0.275894 0.059144 0.617136
1255 2 0.287959 0.0531156 0.596257
1106 4 0.148862 0.113503 0.640168
1105 2 0.153671 0.13181 0.623588
1107 4 0.15848 0.150117 0.607009
1076 4 0.172389 0.164733 0.610296
1284 4 0.216909 0.143676 0.64274
1282 2 0.240425 0.136518 0.640749
1283 4 0.263941 0.12936 0.638758
1153 2 0.264958 0.0882849 0.638714
1154 4 0.269522 0.111858 0.646332
2255 4 0.406782 0.158191 0.655758
1129 2 0.451051 0.116455 0.646706
858 4 0.466261 0.136745 0.609727
1131 4 0.464161 0.127493 0.628114
856 2 0.481366 0.150897 0.594975
1130 4 0.437942 0.105416 0.665297
2174 4 0.0901663 0.216193 0.666669
1075 2 0.165495 0.183042 0.595165
1211 4 0.336693 0.184589 0.59608
1210 2 0.350291 0.179248 0.616191
1212 4 0.363888 0.173907 0.636301
1260 4 0.37962 0.23255 0.666937
1258 2 0.377723 0.210907 0.654444
1259 4 0.375827 0.189264 0.64195
3434 4 0.0116659 0.314276 0.637007
3113 4 0.0206449 0.33156 0.639897
3165 4 0.0777697 0.259845 0.599144
1081 2 0.0782062 0.310473 0.663425
3164 4 0.0893785 0.283958 0.641701
3163 2 0.0835741 0.271902 0.620422
1083 4 0.0940095 0.302507 0.646127
3386 4 0.285964 0.275382 0.653168
3385 2 0.278542 0.292992 0.63748
3387 4 0.27112 0.310603 0.621792
3237 4 0.280712 0.317901 0.605307
3235 2 0.296963 0.310132 0.588339
3037 2 0.325432 0.27303 0.660654
3038 4 0.349852 0.270403 0.65672
3419 4 0.354915 0.273756 0.63755
3039 4 0.301012 0.275658 0.664588
3418 2 0.37552 0.283187 0.626108
3420 4 0.396124 0.292619 0.614666
1281 4 0.407709 0.306286 0.603856
1279 2 0.410803 0.330021 0.611483
346 2 0.480583 0.263673 0.59185
3112 2 0.0347609 0.348232 0.626828
3114 4 0.0488768 0.364904 0.613759
4213 2 0.0618282 0.397661 0.605614
4215 4 0.0650447 0.376405 0.618066
4560 4 0.110863 0.375173 0.626695
4558 2 0.121724 0.387615 0.645814
3381 4 0.108775 0.360104 0.615196
3379 2 0.12686 0.358583 0.598077
4559 4 0.132586 0.400057 0.664933
382 2 0.257865 0.351895 0.591878
384 4 0.269351 0.353718 0.614059
3264 4 0.289667 0.360053 0.614127
3262 2 0.306829 0.373673 0.62709
3263 4 0.323991 0.387294 0.640053
3432 4 0.318037 0.382079 0.659879
1641 4 0.39755 0.409733 0.631626
1280 4 0.413898 0.353757 0.619109
1639 2 0.410786 0.389254 0.630068
1640 4 0.424021 0.368775 0.628509
992 4 0.487869 0.389403 0.638203
1911 4 0.041579 0.417404 0.581953
4214 4 0.0586116 0.418916 0.593161
4362 4 0.115933 0.488983 0.607949
2721 4 0.361591 0.449553 0.58651
1040 4 0.37314 0.443811 0.602103
1039 2 0.37943 0.431318 0.622629
1041 4 0.38572 0.418826 0.643154
2458 2 0.0176555 0.0671694 0.680845
2459 4 0.0357154 0.0819446 0.691183
965 4 0.340548 0.0418941 0.749426
964 2 0.358649 0.0502168 0.733833
966 4 0.376751 0.0585395 0.71824
817 2 0.377867 0.00809328 0.687099
819 4 0.401307 0.0170483 0.683052
887 4 0.420508 0.0205352 0.681092
1005 4 0.389151 0.0710142 0.705533
888 4 0.469391 0.0324354 0.686327
1026 4 0.489524 0.0339251 0.683171
886 2 0.44495 0.0264853 0.68371
3077 4 0.0502557 0.0912297 0.701663
3076 2 0.0679191 0.10319 0.715481
3078 4 0.0855825 0.115149 0.729298
1179 4 0.100013 0.129906 0.735149
1177 2 0.12075 0.141021 0.744862
3589 2 0.188558 0.13962 0.73041
3591 4 0.176295 0.14711 0.710177
3590 4 0.20082 0.13213 0.750643
1003 2 0.406606 0.0818416 0.690638
1021 2 0.377891 0.165734 0.725402
1004 4 0.424061 0.092669 0.675743
1022 4 0.380586 0.143337 0.714961
2256 4 0.394665 0.140694 0.701235
2254 2 0.400724 0.149443 0.678497
3168 4 0.00834173 0.190218 0.690453
3002 4 0.0254982 0.193762 0.681831
3001 2 0.0484585 0.204433 0.678939
2173 2 0.11306 0.227404 0.665813
2175 4 0.135954 0.238615 0.664956
3003 4 0.0714189 0.215103 0.676047
1023 4 0.375196 0.188131 0.735842
3222 4 0.0494094 0.306701 0.732689
3221 4 0.0466425 0.304414 0.682804
3220 2 0.048026 0.305558 0.707746
1082 4 0.0624029 0.318439 0.680723
1307 4 0.0678625 0.305741 0.738813
3350 4 0.133197 0.286209 0.748782
1306 2 0.0806336 0.325409 0.748782
3240 4 0.151196 0.251989 0.673401
3238 2 0.163791 0.272288 0.682291
3349 2 0.143241 0.298223 0.728991
3351 4 0.153285 0.310237 0.7092
3075 4 0.159907 0.329676 0.710089
3239 4 0.176385 0.292588 0.691182
1299 4 0.373602 0.251673 0.668377
1297 2 0.387118 0.26166 0.687245
1298 4 0.400634 0.271647 0.706113
1068 4 0.404628 0.287352 0.718476
1066 2 0.417177 0.290354 0.73998
3374 4 0.136123 0.395586 0.6847
3373 2 0.139952 0.401176 0.708811
3375 4 0.143782 0.406766 0.732922
3073 2 0.16743 0.353867 0.709713
3074 4 0.174953 0.378057 0.709338
3091 2 0.197978 0.395362 0.737551
3092 4 0.184017 0.37655 0.727462
3093 4 0.211938 0.414174 0.74764
3430 2 0.338483 0.385212 0.674152
3431 4 0.358929 0.388344 0.688424
3275 4 0.371464 0.395717 0.703662
3274 2 0.388059 0.406067 0.719774
3276 4 0.404654 0.416417 0.735886
4494 4 0.415854 0.43396 0.73446
4587 4 0.00255669 0.0350944 0.820418
3131 4 0.0239242 0.0269662 0.760057
3129 4 0.0170311 0.0489314 0.815262
3127 2 0.0334311 0.0648229 0.826625
2049 4 0.0467924 0.014927 0.832984
3083 4 0.0439122 0.0257993 0.756244
2047 2 0.0467106 0.00605846 0.809609
3084 4 0.0768796 0.0610685 0.773071
3082 2 0.0603959 0.0434339 0.764657
2322 4 0.325704 0.0330618 0.761362
2321 4 0.283037 0.00817267 0.774226
2320 2 0.304371 0.0206172 0.767794
1178 4 0.141487 0.152137 0.754576
948 4 0.197091 0.129491 0.769109
946 2 0.218031 0.120842 0.778783
947 4 0.238972 0.112194 0.788456
851 4 0.25014 0.117603 0.805353
850 2 0.268766 0.12818 0.818984
35 3 0.303046 0.147108 0.821991
852 4 0.287392 0.138756 0.832616
833 4 0.15501 0.167653 0.761298
832 2 0.17552 0.179525 0.770656
834 4 0.19603 0.191397 0.780014
2981 4 0.160474 0.24348 0.826822
736 2 0.185649 0.216014 0.830429
738 4 0.204065 0.202275 0.821975
2270 4 0.219093 0.187982 0.822131
154 3 0.214665 0.200992 0.779876
153 3 0.215755 0.21862 0.813546
151 1 0.22761 0.205941 0.798657
155 3 0.233503 0.186684 0.808697
152 3 0.246648 0.218088 0.792182
924 4 0.263571 0.233107 0.786504
868 2 0.310088 0.216213 0.812518
869 4 0.298969 0.194419 0.819563
870 4 0.321206 0.238007 0.805472
863 4 0.334664 0.241553 0.789419
1090 2 0.419001 0.234781 0.832351
3228 4 0.134517 0.309865 0.802645
3226 2 0.137891 0.294007 0.783768
3227 4 0.141265 0.278149 0.764891
3036 4 0.150399 0.321367 0.809007
3034 2 0.169307 0.323734 0.825333
2982 4 0.17888 0.282205 0.799806
778 2 0.201306 0.289197 0.768035
779 4 0.183858 0.276666 0.781643
2980 2 0.169677 0.262842 0.813314
922 2 0.281175 0.251145 0.781937
780 4 0.218755 0.301728 0.754426
885 4 0.317039 0.279657 0.773927
923 4 0.29878 0.269182 0.77737
862 2 0.354678 0.255024 0.797765
883 2 0.334319 0.298098 0.76974
884 4 0.351599 0.316539 0.765552
1092 4 0.425155 0.257041 0.82214
815 4 0.371235 0.327252 0.767241
864 4 0.374692 0.268495 0.806111
1690 2 0.406144 0.295405 0.80172
1692 4 0.388535 0.278138 0.794893
1691 4 0.423753 0.312672 0.808547
1067 4 0.429727 0.293356 0.761484
1209 4 0.438952 0.324083 0.816745
839 4 0.444205 0.262433 0.821314
838 2 0.461637 0.281034 0.823931
840 4 0.47907 0.299635 0.826548
57 3 0.488195 0.317829 0.825318
4197 4 0.0160807 0.401085 0.7784
854 4 0.0283445 0.401313 0.794665
853 2 0.0408649 0.402308 0.816314
4195 2 0.00500832 0.413133 0.75986
1308 4 0.0934048 0.345078 0.758752
3312 4 0.106038 0.351892 0.772547
3310 2 0.130051 0.35847 0.777125
3311 4 0.154065 0.365048 0.781703
3027 4 0.173822 0.367575 0.785336
3025 2 0.187412 0.385553 0.797206
3026 4 0.201003 0.403531 0.809076
814 2 0.392195 0.341045 0.772145
816 4 0.413155 0.354838 0.777049
4209 4 0.430947 0.365781 0.78438
60 3 0.499914 0.340916 0.797963
4207 2 0.453542 0.375228 0.7912
4208 4 0.476137 0.384676 0.79802
58 3 0.480801 0.354223 0.827106
1170 4 0.483302 0.396063 0.812723
56 1 0.496364 0.33915 0.820402
1168 2 0.496382 0.40761 0.831041
4492 2 0.413443 0.440767 0.758361
1955 4 0.42222 0.484626 0.824185
1956 4 0.425121 0.443642 0.795962
1954 2 0.42367 0.464134 0.810074
4493 4 0.411032 0.447575 0.782262
2311 2 0.0421357 0.0293468 0.87411
2313 4 0.0380991 0.0173024 0.852469
3128 4 0.049831 0.0807145 0.837988
2312 4 0.0461723 0.0413913 0.89575
829 2 0.0736338 0.0035061 0.91556
1296 4 0.0556795 0.0422952 0.913397
2102 4 0.236768 0.00903456 0.889363
2101 2 0.253578 0.0283759 0.88967
2103 4 0.270389 0.0477173 0.889977
2000 4 0.287451 0.0584275 0.891015
1999 2 0.305528 0.076436 0.888591
808 2 0.485744 0.0247794 0.891322
809 4 0.468652 0.0362253 0.904818
533 4 0.453044 0.0332467 0.892688
532 2 0.43409 0.0372753 0.908246
1124 4 0.0225361 0.103418 0.886518
4128 4 0.00417319 0.102191 0.878066
1123 2 0.0399544 0.0968849 0.87016
1125 4 0.0573728 0.0903517 0.853801
2758 2 0.189477 0.13314 0.891776
2760 4 0.178796 0.124479 0.912875
2271 4 0.199695 0.151789 0.85182
2759 4 0.200158 0.141801 0.870677
1213 2 0.275479 0.133083 0.873987