ITEM: TIMESTEP
1435500
ITEM: NUMBER OF ATOMS
4590
ITEM: BOX BOUNDS xy xz yz pp pp pp
-1.5797740600000004e+01 9.9985700000000008e+00 -5.7991706000000036e+00
-9.9985700000000008e+00 9.9985700000000008e+00 0.0000000000000000e+00
-9.9985700000000008e+00 9.9985700000000008e+00 0.0000000000000000e+00
ITEM: ATOMS id type xs ys zs
1760 4 0.0179378 0.0474287 0.031017
356 4 0.201567 0.0690671 0.082102
1823 4 0.249461 0.0732197 0.013286
1874 4 0.368457 0.0449486 0.0634393
1873 2 0.390453 0.0397204 0.0567287
1875 4 0.412449 0.0344921 0.0500182
1653 4 0.431674 0.037406 0.0560949
1651 2 0.455819 0.0482687 0.0479465
1652 4 0.479964 0.0591314 0.039798
2469 4 0.493761 0.0583641 0.0539194
3260 4 0.0702393 0.104631 0.0399258
3259 2 0.0930127 0.116194 0.0292325
1251 4 0.0535216 0.164821 0.998144
3261 4 0.115786 0.127757 0.0185391
2743 2 0.102685 0.998586 0.178539
25 3 0.166279 0.133885 0.0855652
2895 4 0.238775 0.151032 0.0837405
2600 4 0.25876 0.151429 0.0782979
2599 2 0.284758 0.158605 0.0770023
2601 4 0.310756 0.165782 0.0757068
359 4 0.0156805 0.223499 0.00804399
282 4 0.0355433 0.22295 0.00778975
280 2 0.0601064 0.223965 0.0137202
281 4 0.0846695 0.224979 0.0196507
1249 2 0.0791636 0.173736 0.00189932
2876 4 0.106408 0.233798 0.0164348
1250 4 0.104806 0.18265 0.00565452
2875 2 0.131039 0.242752 0.0241503
1246 2 0.14909 0.192627 0.0112329
1248 4 0.172834 0.195179 0.0206939
2441 4 0.1934 0.195627 0.0244211
1247 4 0.125346 0.190075 0.00177185
2650 2 0.199438 0.250156 0.0318184
2440 2 0.219002 0.199287 0.0213285
527 4 0.234404 0.237416 0.047085
2651 4 0.222622 0.24611 0.0357579
2442 4 0.244603 0.202946 0.0182359
526 2 0.258736 0.247429 0.0551947
492 4 0.264355 0.2112 0.0237492
490 2 0.287834 0.210399 0.0316421
491 4 0.311313 0.209597 0.0395349
845 4 0.328397 0.202527 0.0421568
844 2 0.353736 0.206022 0.0375484
846 4 0.379076 0.209516 0.03294
456 4 0.400626 0.20996 0.0353683
454 2 0.426161 0.212119 0.0352353
455 4 0.451697 0.214277 0.0351023
102 3 0.468546 0.208217 0.0322561
104 3 0.474744 0.180158 0.0117669
101 1 0.483675 0.202475 0.0176228
105 3 0.486053 0.215584 0.999054
462 4 0.00786513 0.303779 0.999824
460 2 0.0314378 0.313457 0.00983799
2521 2 0.0517476 0.310351 0.0749634
2523 4 0.0533743 0.303173 0.0513012
461 4 0.0550106 0.323135 0.0198524
3339 4 0.0695221 0.294732 0.0465783
3337 2 0.0858164 0.301659 0.0272615
3338 4 0.102111 0.308586 0.00794477
293 4 0.12281 0.315221 0.00442642
292 2 0.148655 0.324158 0.00228902
2877 4 0.15567 0.251706 0.0318658
2652 4 0.176254 0.254202 0.0278788
2829 4 0.178788 0.320457 0.0142661
2827 2 0.204594 0.328897 0.0113801
528 4 0.283068 0.257443 0.0633043
450 4 0.426009 0.276972 0.0134638
448 2 0.451589 0.280283 0.0106163
915 4 0.494157 0.27728 0.0101167
449 4 0.477169 0.283595 0.00776881
913 2 0.493126 0.254998 0.000158315
1079 4 0.00223525 0.366475 0.0380729
2727 4 0.0508483 0.418148 0.0603068
2725 2 0.0709385 0.411648 0.0703065
671 4 0.108849 0.408295 0.071313
670 2 0.129822 0.408736 0.0575121
672 4 0.150795 0.409177 0.0437112
4304 4 0.188993 0.415634 0.0346583
2828 4 0.230401 0.337336 0.00849408
4303 2 0.204692 0.404393 0.0464637
4305 4 0.220391 0.393151 0.0582691
597 4 0.236844 0.409777 0.0534565
595 2 0.258433 0.404385 0.0612054
2639 4 0.241372 0.351873 0.0197223
1293 4 0.307535 0.345701 0.0164347
596 4 0.280023 0.398993 0.0689543
2638 2 0.265359 0.349177 0.0218326
2640 4 0.289345 0.346481 0.0239428
1550 4 0.292661 0.410593 0.0543341
2514 4 0.0918942 0.466699 0.0305302
903 4 0.0890571 0.4632 0.0105939
2512 2 0.107306 0.469928 0.0506603
2513 4 0.122719 0.473158 0.0707905
1871 4 0.142256 0.482796 0.0766652
4051 2 0.199278 0.493411 0.00649762
2564 4 0.208948 0.458124 0.00733925
4052 4 0.212372 0.476974 0.0124969
1549 2 0.318594 0.419568 0.0537633
1551 4 0.344527 0.428542 0.0531925
3542 4 0.363697 0.437442 0.0479564
3541 2 0.378594 0.451101 0.0658175
3543 4 0.393491 0.46476 0.0836787
2913 4 0.458928 0.498195 0.0518868
759 4 0.143644 0.0822134 0.0895692
689 4 0.151736 0.0786737 0.167818
758 4 0.182639 0.0608286 0.0903452
757 2 0.163142 0.071521 0.0899572
355 2 0.224491 0.078139 0.0935516
2702 4 0.225735 0.030598 0.157778
2701 2 0.239714 0.0253225 0.138888
2781 4 0.258291 0.0288255 0.102305
2703 4 0.253693 0.020047 0.119998
2779 2 0.280945 0.0252118 0.0952109
2678 4 0.36292 0.0536073 0.0797782
2780 4 0.303599 0.0215981 0.0881163
2679 4 0.320894 0.0194498 0.097165
2677 2 0.341907 0.0365286 0.0884716
1374 4 0.371857 0.0683087 0.103346
1372 2 0.397547 0.0790714 0.10344
654 4 0.128096 0.160636 0.147083
652 2 0.140907 0.158433 0.126121
653 4 0.153719 0.156231 0.105158
2975 4 0.161828 0.15166 0.0886205
22 3 0.14443 0.124954 0.116261
21 1 0.162622 0.12107 0.104392
24 3 0.157006 0.098601 0.0986714
23 3 0.18243 0.126599 0.117674
2894 4 0.203164 0.128086 0.117442
2893 2 0.220969 0.139559 0.100591
697 2 0.233594 0.127762 0.161271
698 4 0.245722 0.151931 0.157414
699 4 0.221466 0.103594 0.165129
357 4 0.247415 0.0872108 0.105001
623 4 0.253778 0.106759 0.110249
622 2 0.271668 0.113289 0.128323
624 4 0.289558 0.119818 0.146398
521 4 0.304999 0.116572 0.155055
1373 4 0.423237 0.0898342 0.103535
505 2 0.0154089 0.208898 0.161915
2783 4 0.0182588 0.233801 0.109083
506 4 0.0401173 0.211745 0.155082
836 4 0.0525828 0.207806 0.140099
835 2 0.0781074 0.213343 0.135364
837 4 0.103632 0.218881 0.130629
2615 4 0.121716 0.231859 0.139439
558 4 0.133908 0.17719 0.158918
2614 2 0.146225 0.230701 0.14201
2616 4 0.170733 0.229543 0.144581
2717 4 0.183821 0.217969 0.144239
2716 2 0.18815 0.195471 0.145354
2974 2 0.179712 0.173344 0.084086
2976 4 0.197596 0.195027 0.0795516
2718 4 0.192478 0.172973 0.14647
378 4 0.329139 0.170408 0.085299
376 2 0.350858 0.186119 0.0944528
377 4 0.372577 0.20183 0.103607
110 3 0.0427124 0.262669 0.108416
2522 4 0.0501209 0.317529 0.0986255
106 1 0.061529 0.267634 0.122274
109 3 0.0728572 0.290321 0.121203
2771 4 0.0664 0.329599 0.108551
108 3 0.0545023 0.26167 0.144064
107 3 0.0766963 0.255823 0.115643
2472 4 0.183463 0.295124 0.165178
350 4 0.348095 0.253871 0.157847
349 2 0.347459 0.276496 0.150007
351 4 0.346823 0.299122 0.142168
518 4 0.351718 0.314768 0.155638
517 2 0.331296 0.319963 0.166469
2770 2 0.0907946 0.339262 0.116649
2726 4 0.0910287 0.405147 0.0803062
4007 4 0.0855197 0.356667 0.16429
2772 4 0.115189 0.348925 0.124748
1103 4 0.126411 0.342071 0.111769
2706 4 0.0999387 0.346165 0.164023
1102 2 0.15074 0.355215 0.10616
1104 4 0.17507 0.368359 0.100551
3989 4 0.125075 0.393782 0.162907
1786 2 0.0142894 0.492158 0.129649
1787 4 0.00313634 0.495415 0.151287
1788 4 0.0254425 0.488901 0.10801
1870 2 0.16357 0.497407 0.0876239
72 3 0.228595 0.500704 0.0962496
4211 4 0.296359 0.451023 0.15381
4210 2 0.317975 0.462413 0.141157
3671 4 0.355383 0.481957 0.115525
4212 4 0.339591 0.473803 0.128505
1467 4 0.391764 0.441729 0.145496
1465 2 0.389547 0.453054 0.123893
1466 4 0.38733 0.464378 0.102291
1504 2 0.00568321 0.0624049 0.224221
1505 4 0.0304354 0.0723407 0.217283
255 4 0.0505474 0.0756442 0.222566
253 2 0.0751833 0.0754384 0.218659
254 4 0.0998192 0.0752326 0.214752
632 4 0.116933 0.0755863 0.225175
631 2 0.14288 0.0822603 0.227201
3740 4 0.30327 0.0249254 0.248766
1747 2 0.00283864 0.123125 0.189277
249 4 0.00232363 0.120187 0.244706
2180 4 0.0485598 0.102942 0.165857
3209 4 0.0385979 0.143755 0.204938
1749 4 0.0286908 0.130643 0.192162
247 2 0.0270905 0.123397 0.251541
3208 2 0.059653 0.159671 0.194857
2179 2 0.0726303 0.117219 0.170774
2181 4 0.0967008 0.131495 0.17569
2790 4 0.113669 0.138716 0.185384
2788 2 0.135322 0.133773 0.193614
2789 4 0.156976 0.12883 0.201845
605 4 0.13162 0.150896 0.246897
604 2 0.155319 0.147303 0.247271
688 2 0.177626 0.0852453 0.170415
633 4 0.168827 0.0889342 0.229227
690 4 0.203517 0.091817 0.173013
2879 4 0.187819 0.100702 0.233029
2673 4 0.177352 0.134606 0.204402
2671 2 0.200501 0.150558 0.199148
2672 4 0.223651 0.16651 0.193893
2878 2 0.211764 0.0988236 0.228348
2952 4 0.242937 0.166517 0.190923
2880 4 0.235709 0.0969452 0.223668
606 4 0.179018 0.14371 0.247645
420 4 0.252 0.09258 0.234461
418 2 0.278026 0.0998992 0.234967
419 4 0.304052 0.107218 0.235474
520 2 0.324797 0.128063 0.169956
2837 4 0.324058 0.118473 0.236822
522 4 0.344595 0.139553 0.184857
749 4 0.351775 0.152209 0.200835
591 4 0.0190743 0.181367 0.236993
557 4 0.0997128 0.180384 0.194372
3210 4 0.0807082 0.175587 0.184777
556 2 0.116811 0.178787 0.176645
2944 2 0.257942 0.237993 0.249017
2950 2 0.26407 0.181346 0.201966
2951 4 0.285202 0.196176 0.21301
2452 2 0.306911 0.21964 0.238154
2454 4 0.304613 0.207975 0.216065
750 4 0.331231 0.177184 0.234074
582 4 0.319885 0.179079 0.249966
748 2 0.341503 0.164697 0.217455
4008 4 0.0444242 0.32582 0.186996
2753 4 0.0064923 0.290354 0.207076
2730 4 0.0262937 0.290059 0.209348
2728 2 0.0504771 0.294409 0.218339
2729 4 0.0746605 0.29876 0.22733
2704 2 0.115319 0.331324 0.168204
2705 4 0.1307 0.316484 0.172385
525 4 0.118466 0.297111 0.179421
523 2 0.140479 0.291033 0.174631
2955 4 0.113822 0.269878 0.238558
2953 2 0.138656 0.283223 0.235801
2471 4 0.227989 0.328057 0.179072
2470 2 0.205726 0.31159 0.172125
300 4 0.178043 0.306952 0.245382
524 4 0.162492 0.284955 0.16984
2954 4 0.16349 0.296569 0.233044
298 2 0.199027 0.300123 0.252536
607 2 0.268196 0.331638 0.178172
2945 4 0.282919 0.250697 0.252242
2533 2 0.289303 0.275325 0.196788
2534 4 0.282043 0.256317 0.180638
2535 4 0.296563 0.294333 0.212938
609 4 0.289323 0.323275 0.178878
519 4 0.310873 0.325158 0.177301
2536 2 0.00776528 0.333147 0.195892
2591 4 0.0110769 0.364168 0.234966
2862 4 0.0294267 0.363476 0.227281
2537 4 0.0274169 0.330209 0.181887
2860 2 0.0533578 0.372789 0.217914
2861 4 0.0772889 0.382101 0.208548
3990 4 0.0957525 0.394313 0.2033
4006 2 0.064972 0.341244 0.175643
3988 2 0.110414 0.394048 0.183103
608 4 0.247068 0.340001 0.177466
1802 4 0.0307578 0.432885 0.238583
3695 4 0.0116127 0.420534 0.233756
3705 4 0.00161864 0.470324 0.210992
3703 2 0.0169602 0.469686 0.23058
1801 2 0.0566456 0.437318 0.238062
1803 4 0.0825335 0.441752 0.237541
1158 4 0.10195 0.443948 0.232335
1156 2 0.126985 0.448893 0.225721
501 4 0.169442 0.477642 0.238
1157 4 0.15202 0.453839 0.219107
4368 4 0.183795 0.472895 0.217572
4366 2 0.209454 0.475718 0.217162
4367 4 0.235113 0.478541 0.216753
1382 4 0.253777 0.492207 0.216115
314 4 0.256051 0.425982 0.210075
1381 2 0.2793 0.494312 0.21648
313 2 0.270429 0.434873 0.189903
231 4 0.243386 0.462801 0.240686
2805 4 0.322445 0.494348 0.224486
315 4 0.284806 0.443765 0.169731
3800 4 0.385869 0.492672 0.171522
1436 4 0.422215 0.425755 0.243159
1435 2 0.437095 0.420562 0.225001
1437 4 0.451976 0.41537 0.206843
681 4 0.471966 0.423677 0.211187
679 2 0.495108 0.430968 0.222583
2694 4 0.0250906 0.0443539 0.286334
512 4 0.0444486 0.0580014 0.279509
511 2 0.0701012 0.0655855 0.275312
513 4 0.0957537 0.0731697 0.271114
1271 4 0.109605 0.0802805 0.285728
1270 2 0.128586 0.068926 0.286062
1272 4 0.147568 0.0575715 0.286396
4307 4 0.185523 0.0590829 0.291704
3926 4 0.156823 0.0246362 0.27771
3925 2 0.177794 0.020255 0.288261
3927 4 0.198764 0.0158737 0.298811
3741 4 0.266732 0.0068841 0.283337
3739 2 0.285001 0.0159048 0.266052
2871 4 0.00650018 0.0826072 0.330337
1523 4 0.0793196 0.0996496 0.329074
248 4 0.0518574 0.126606 0.258377
27 3 0.0726048 0.128068 0.253715
544 2 0.0658849 0.148741 0.304984
545 4 0.0542854 0.142168 0.327075
546 4 0.0774845 0.155314 0.282893
30 3 0.0950933 0.149385 0.279649
1522 2 0.053453 0.095255 0.328025
26 1 0.0940111 0.133222 0.264016
1524 4 0.0275864 0.0908603 0.326976
28 3 0.0968249 0.114107 0.274174
29 3 0.111193 0.140877 0.248018
1058 4 0.0987018 0.100026 0.326271
1057 2 0.122058 0.0987233 0.334028
4306 2 0.196024 0.0838307 0.292993
731 4 0.198404 0.143938 0.253775
730 2 0.22406 0.147665 0.256493
4308 4 0.206524 0.108578 0.294282
732 4 0.249715 0.151391 0.25921
581 4 0.269216 0.15536 0.254493
580 2 0.294551 0.167219 0.25223
2836 2 0.348356 0.121838 0.245184
2838 4 0.372654 0.125203 0.253546
283 2 0.00419951 0.243376 0.271485
2850 4 0.0317554 0.241807 0.322982
2848 2 0.0423345 0.231805 0.30445
589 2 0.0349687 0.196477 0.253252
2849 4 0.0529136 0.221803 0.285919
590 4 0.0508631 0.211587 0.26951
2946 4 0.232964 0.22529 0.245792
2930 4 0.313785 0.233915 0.279833
2453 4 0.309209 0.231304 0.260244
2929 2 0.33279 0.247857 0.294219
2566 2 0.00200999 0.310361 0.287386
284 4 0.0300406 0.249779 0.274475
290 4 0.0453287 0.323263 0.281301
2568 4 0.0270601 0.310943 0.284984
390 4 0.0473121 0.25264 0.262214
289 2 0.0712919 0.331944 0.280942
365 4 0.0862809 0.318539 0.333583
389 4 0.0954464 0.258469 0.244615
388 2 0.0713792 0.255554 0.253414
366 4 0.11777 0.289839 0.323996
364 2 0.102026 0.304189 0.328789
299 4 0.22001 0.293293 0.259691
2524 2 0.202572 0.285406 0.320721
2525 4 0.207834 0.30087 0.301088
2493 4 0.236455 0.28537 0.264029
2491 2 0.261433 0.298312 0.261342
2492 4 0.28641 0.311254 0.258655
2463 4 0.301295 0.269279 0.296577
2931 4 0.351795 0.261799 0.308605
2461 2 0.307534 0.28683 0.278805
2462 4 0.313773 0.304381 0.261033
1953 4 0.36455 0.263833 0.323046
2852 4 0.00942495 0.348883 0.321523
2450 4 0.0205923 0.367433 0.325277
2449 2 0.0440189 0.372503 0.336113
291 4 0.097255 0.340625 0.280583
2 3 0.444974 0.390535 0.333247
1573 2 0.501084 0.380865 0.30189
1575 4 0.479841 0.378369 0.315958
5 3 0.482673 0.392361 0.330409
3704 4 0.0323017 0.469047 0.250168
500 4 0.187237 0.488019 0.284631
499 2 0.17834 0.482831 0.261315
230 4 0.209498 0.427997 0.26758
229 2 0.226442 0.445399 0.254133
1310 4 0.27591 0.477899 0.304723
1309 2 0.29685 0.482644 0.319553
645 4 0.439862 0.426972 0.256238
3 3 0.470874 0.423251 0.324703
644 4 0.47256 0.43264 0.295021
643 2 0.456211 0.429806 0.27563
752 4 0.492873 0.435629 0.299099
2115 4 0.0269 0.036998 0.362784
1128 4 0.0317346 0.0300871 0.345107
1126 2 0.057446 0.0354996 0.341491
707 4 0.102763 0.046514 0.346797
1127 4 0.0831573 0.0409121 0.337875
706 2 0.126318 0.0427555 0.348724
708 4 0.149872 0.0389971 0.350652
616 2 0.176678 0.0420765 0.37155
617 4 0.168692 0.0531064 0.352097
618 4 0.184663 0.0310466 0.391003
3962 4 0.439039 0.424123 0.46143
3158 4 0.997767 0.142135 0.366785
530 4 0.00421256 0.129798 0.354694
529 2 0.0294592 0.13243 0.350354
531 4 0.0547059 0.135063 0.346015
1059 4 0.145415 0.0974204 0.341785
2643 4 0.161052 0.104429 0.355672
369 4 0.224428 0.107088 0.383392
2642 4 0.203797 0.103075 0.380932
2641 2 0.182424 0.103752 0.368302
367 2 0.243964 0.111196 0.399878
3572 4 0.0186319 0.236289 0.338698
584 4 0.0401838 0.286957 0.388325
2832 4 0.0198964 0.282222 0.384631
2830 2 0.00574338 0.283261 0.364255
583 2 0.0661312 0.295218 0.386823
585 4 0.0920785 0.30348 0.385321
2494 2 0.16006 0.311643 0.33668
2923 2 0.156963 0.325903 0.398391
2925 4 0.148882 0.317262 0.3756
2495 4 0.135133 0.298466 0.334205
3633 4 0.096971 0.336727 0.339875
2526 4 0.19731 0.269942 0.340354
1035 4 0.182349 0.259601 0.352865
1033 2 0.164318 0.265203 0.367269
1034 4 0.146287 0.270805 0.381673
2496 4 0.184987 0.32482 0.339155
2509 2 0.258714 0.324176 0.402063
1951 2 0.386043 0.274696 0.336113
1952 4 0.407536 0.285559 0.349179
2766 4 0.437498 0.294803 0.404624
2764 2 0.431024 0.289585 0.380679
2765 4 0.424551 0.284367 0.356734
2928 4 0.453234 0.330185 0.36905
2598 4 0.00670806 0.410606 0.390351
2596 2 0.0121723 0.394121 0.406113
2451 4 0.0674454 0.377572 0.346948
3317 4 0.0631874 0.345565 0.410319
3316 2 0.0866728 0.359704 0.403283
3632 4 0.0845244 0.376751 0.357768
3631 2 0.0907477 0.356739 0.348821
3318 4 0.110158 0.373842 0.396247
592 2 0.14988 0.381244 0.415752
593 4 0.125896 0.369707 0.407618
2957 4 0.206699 0.333372 0.337172
2956 2 0.221681 0.338877 0.35756
2958 4 0.236663 0.344382 0.377949
2511 4 0.244981 0.329612 0.383057
3885 4 0.346032 0.414934 0.385778
3883 2 0.354935 0.395037 0.38204
1452 4 0.374322 0.376619 0.361039
3884 4 0.363838 0.37514 0.378303
261 4 0.388389 0.334138 0.409494
1450 2 0.40008 0.380212 0.359849
1 1 0.4673 0.403665 0.336966
1451 4 0.425837 0.383805 0.358659
2926 2 0.445235 0.35056 0.364972
2927 4 0.437237 0.370934 0.360894
4 3 0.470007 0.408592 0.359604
1418 4 0.216583 0.48858 0.400079
2960 4 0.234047 0.484369 0.391249
1173 4 0.265742 0.449556 0.394262
2961 4 0.277266 0.483558 0.366514
2959 2 0.255657 0.483964 0.378882
2647 2 0.320723 0.496012 0.382186
1311 4 0.31779 0.48739 0.334383
2649 4 0.296899 0.48918 0.372115
2532 4 0.362879 0.427917 0.376712
2530 2 0.382391 0.447495 0.369606
1433 4 0.412967 0.484874 0.369159
2531 4 0.401903 0.467073 0.362499
1432 2 0.431351 0.48541 0.386265
1434 4 0.449734 0.485945 0.403372
416 4 0.446391 0.460328 0.369606
415 2 0.459731 0.443296 0.368648
2826 4 0.494832 0.496902 0.38863
570 4 0.482271 0.426045 0.386201
417 4 0.473072 0.426264 0.36769
4239 4 0.0594863 0.0437823 0.421523
4237 2 0.0589541 0.0672172 0.426242
2504 4 0.0653049 0.0409204 0.440462
2505 4 0.0941546 0.0235236 0.472855
2503 2 0.0797297 0.032222 0.456658
1152 4 0.123759 0.0151004 0.417707
1150 2 0.133926 0.0143401 0.440437
1151 4 0.144093 0.0135798 0.463168
2314 2 0.196514 0.0790049 0.493276
1060 2 0.180672 0.00431052 0.415577
2315 4 0.219486 0.0825339 0.481831
1061 4 0.204295 0.0134346 0.425673
682 2 0.248475 0.0161277 0.4363
684 4 0.224592 0.0128878 0.426904
683 4 0.272359 0.0193676 0.445696
843 4 0.336516 0.0470747 0.440639
841 2 0.313206 0.0304706 0.443367
842 4 0.289896 0.0138665 0.446095
3747 4 0.356146 0.0545204 0.44582
3746 4 0.406761 0.0606444 0.454655
3745 2 0.381454 0.0575824 0.450237
4238 4 0.058422 0.0906522 0.430961
3851 4 0.0790074 0.0964298 0.426269
3850 2 0.102317 0.112858 0.429639
3852 4 0.125627 0.129286 0.433008
368 4 0.2635 0.115304 0.416363
2196 4 0.238956 0.0958265 0.479396
2195 4 0.290315 0.1088 0.487579
6 1 0.302582 0.122821 0.437348
9 3 0.300132 0.102823 0.44863
7 3 0.302343 0.139247 0.452654
10 3 0.284644 0.120679 0.422713
2194 2 0.264636 0.102313 0.483488
641 4 0.306533 0.158726 0.454632
2553 4 0.30887 0.110252 0.496827
8 3 0.323623 0.128815 0.42595
2484 4 0.343599 0.138176 0.428217
2483 4 0.394135 0.144596 0.437722
2482 2 0.368867 0.141386 0.43297
760 2 0.401782 0.126518 0.497283
2801 4 0.415103 0.15609 0.435492
3172 2 0.456339 0.11926 0.4792
3173 4 0.432613 0.119652 0.486731
761 4 0.42526 0.135678 0.486903
2800 2 0.440597 0.166376 0.439047
2901 4 0.493489 0.131629 0.460329
3174 4 0.480065 0.118867 0.471669
473 4 0.0444635 0.249524 0.429098
472 2 0.0226611 0.230655 0.427524
474 4 0.000858826 0.211785 0.42595
410 4 0.0159474 0.180057 0.441104
453 4 0.0568376 0.249541 0.469028
409 2 0.0375002 0.18028 0.453887
411 4 0.059053 0.180504 0.466671
3461 4 0.0685314 0.169356 0.477958
3460 2 0.0942683 0.179592 0.479378
3497 4 0.117863 0.225895 0.479986
3462 4 0.120005 0.189828 0.480798
3498 4 0.169716 0.235435 0.480519
3496 2 0.143789 0.230665 0.480253
640 2 0.294626 0.165988 0.474025
642 4 0.282719 0.17325 0.493419
321 4 0.266575 0.179761 0.498205
2802 4 0.466091 0.176663 0.442602
764 4 0.487492 0.185658 0.442316
803 4 0.0907134 0.322732 0.493179
452 4 0.105122 0.280279 0.471458
451 2 0.0809799 0.26491 0.470243
487 2 0.13848 0.279719 0.463338
488 4 0.116149 0.267611 0.47449
3056 4 0.1184 0.332966 0.462674
489 4 0.160812 0.291827 0.452185
3079 2 0.207588 0.258107 0.486355
3080 4 0.228428 0.27673 0.480028
2510 4 0.272447 0.31874 0.421069
872 4 0.245477 0.274752 0.469518
871 2 0.256628 0.288063 0.449648
873 4 0.267779 0.301374 0.429777
2637 4 0.349618 0.325829 0.451279
260 4 0.354816 0.309728 0.444178
259 2 0.371603 0.321933 0.426836
2597 4 0.0176365 0.377635 0.421875
3333 4 0.0642756 0.355293 0.485273
3331 2 0.0821464 0.345186 0.475771
594 4 0.173864 0.39278 0.423885
3055 2 0.141245 0.337371 0.450817
3332 4 0.100017 0.335078 0.46627
3057 4 0.164091 0.341776 0.43896
2924 4 0.165044 0.334544 0.421182
2562 4 0.193041 0.40077 0.430274
3455 4 0.221888 0.379651 0.479523
2561 4 0.226754 0.38629 0.459492
2560 2 0.209898 0.39353 0.444883
3454 2 0.240224 0.376275 0.495038
813 4 0.373517 0.416464 0.477601
2635 2 0.348778 0.339175 0.471891
3963 4 0.387504 0.408182 0.4682
2636 4 0.347938 0.352522 0.492503
2740 2 0.0300241 0.493696 0.433791
2741 4 0.005198 0.486938 0.426265
2170 2 0.127821 0.487311 0.487889
2171 4 0.129087 0.464303 0.482162
1983 4 0.196118 0.466073 0.465435
1981 2 0.170927 0.464278 0.46909
1417 2 0.20881 0.481253 0.423308
1419 4 0.201036 0.473926 0.446537
1982 4 0.145736 0.462483 0.472744
1172 4 0.256036 0.431813 0.440793
1027 2 0.24496 0.437017 0.474538
1028 4 0.25028 0.445781 0.451286
1171 2 0.260889 0.440685 0.417528
1487 4 0.219252 0.459442 0.48765
3961 2 0.413272 0.416152 0.464815
4179 4 0.457865 0.424789 0.469508
4178 4 0.49748 0.464646 0.48069
4177 2 0.477672 0.444718 0.475099
662 4 0.491216 0.480242 0.485072
2745 4 0.123467 0.00840103 0.164145
1383 4 0.304823 0.496417 0.216844
3956 4 0.0704776 4.51897e-05 0.185504
1486 2 0.233647 0.480827 0.497686
1029 4 0.239639 0.428254 0.49779
2501 4 0.0311378 0.00942081 0.533644
3032 4 0.0449554 0.0273976 0.536575
3031 2 0.058705 0.0514634 0.537
3033 4 0.0724546 0.0755292 0.537425
945 4 0.0922173 0.0796958 0.533007
2316 4 0.173542 0.0754759 0.504721
3050 4 0.263804 0.0476213 0.57747
3049 2 0.289743 0.0562566 0.578657
3051 4 0.315683 0.0648919 0.579843
2507 4 0.33644 0.0680793 0.584287
1142 4 0.390629 0.0592205 0.581841
943 2 0.114356 0.098172 0.531516
944 4 0.136496 0.116648 0.530024
965 4 0.159555 0.158378 0.571267
3327 4 0.154662 0.12845 0.519143
2322 4 0.174787 0.166574 0.586246
3325 2 0.180271 0.131163 0.517838
3326 4 0.205879 0.133876 0.516533
320 4 0.223989 0.146723 0.516091
319 2 0.245282 0.163242 0.507148
762 4 0.378304 0.117357 0.507664
2552 4 0.358969 0.11752 0.508857
2551 2 0.333919 0.113886 0.502842
2809 2 0.00797984 0.169273 0.575668
3081 4 0.186748 0.239485 0.492682
2320 2 0.196815 0.184285 0.581131
1082 4 0.238296 0.19981 0.57432
2321 4 0.218844 0.201996 0.576016
3237 4 0.369153 0.225978 0.56626
2241 4 0.464103 0.230333 0.544331
2239 2 0.473236 0.210457 0.541471
2240 4 0.48237 0.190581 0.538611
3180 4 0.494914 0.189086 0.555342
802 2 0.0940307 0.30987 0.513429
1237 2 0.0854561 0.292186 0.564685
804 4 0.097348 0.297009 0.53368
1238 4 0.0987058 0.283952 0.546998
1107 4 0.298573 0.296076 0.571434
1105 2 0.272545 0.289551 0.571683
1106 4 0.246516 0.283026 0.571932
1284 4 0.229906 0.275355 0.584146
1076 4 0.304287 0.309558 0.556815
1075 2 0.328625 0.308484 0.552761
1077 4 0.352963 0.30741 0.548708
3267 4 0.36137 0.295806 0.561816
3418 2 0.00535711 0.362838 0.565477
3419 4 0.0253594 0.3776 0.552823
890 4 0.0534227 0.347377 0.582207
265 2 0.0678854 0.357521 0.527968
267 4 0.0739898 0.365987 0.55121
347 4 0.0842177 0.386062 0.557564
346 2 0.101689 0.406957 0.549923
266 4 0.061781 0.349054 0.504726
3368 4 0.259233 0.393939 0.581604
1281 4 0.262007 0.414631 0.581445
3456 4 0.25856 0.3729 0.510554
239 4 0.256258 0.358368 0.52465
238 2 0.281756 0.365004 0.529693
240 4 0.307253 0.37164 0.534737
3045 4 0.448872 0.371257 0.566304
1641 4 0.448652 0.35499 0.577419
3043 2 0.461253 0.375321 0.544323
3044 4 0.473634 0.379385 0.522342
2846 4 0.475002 0.361064 0.519589
2845 2 0.496569 0.361655 0.506665
348 4 0.119161 0.427852 0.542283
3942 4 0.27024 0.00461267 0.915405
1136 4 0.269392 0.478203 0.560724
1135 2 0.251725 0.46378 0.576064
3084 4 0.292125 0.00361429 0.675608
1488 4 0.248042 0.502213 0.507722
4539 4 0.278463 0.469812 0.54655
1279 2 0.28131 0.428142 0.567094
4537 2 0.300172 0.481857 0.534374
1280 4 0.300613 0.441654 0.552743
878 4 0.31956 0.450995 0.559152
877 2 0.341407 0.457169 0.545558
4538 4 0.321881 0.493902 0.522197
879 4 0.363254 0.463342 0.531963
812 4 0.378384 0.439196 0.52211
811 2 0.375951 0.42783 0.499855
796 2 0.489246 0.457531 0.560134
797 4 0.482011 0.474239 0.574279
954 4 0.0495396 0.0670346 0.595304
1263 4 0.0281801 0.0145751 0.596225
3612 4 0.0487745 0.0147376 0.600016
1261 2 0.00313454 0.00908301 0.602933
3610 2 0.0742595 0.0166806 0.600584
3611 4 0.0997445 0.0186235 0.601152
4503 4 0.121294 0.024482 0.59822
4501 2 0.147057 0.0279606 0.597656
4502 4 0.17282 0.0314392 0.597093
3104 4 0.193456 0.0404641 0.592291
3103 2 0.218536 0.043353 0.586892
3105 4 0.243616 0.0462419 0.581493
270 4 0.249906 0.0206 0.627834
268 2 0.263871 0.0142052 0.646111
269 4 0.277836 0.00781032 0.664387
2506 2 0.357004 0.0600358 0.590305
914 4 0.492096 0.232716 0.9902
1141 2 0.414089 0.0568819 0.587929
2508 4 0.377569 0.0519922 0.596324
1004 4 0.444041 0.0760628 0.65891
1143 4 0.437549 0.0545432 0.594017
952 2 0.0579979 0.0880845 0.608591
953 4 0.0664562 0.109134 0.621878
966 4 0.136568 0.120179 0.601264
964 2 0.148062 0.139279 0.586266
2175 4 0.139051 0.11496 0.620284
2173 2 0.14629 0.118961 0.644206
1021 2 0.393626 0.115917 0.651369
1022 4 0.406932 0.110696 0.631919
2256 4 0.425599 0.112157 0.624337
2254 2 0.44096 0.0991769 0.63387
2255 4 0.456321 0.0861964 0.643403
3111 4 0.024348 0.170375 0.656972
3109 2 0.0312381 0.175296 0.633075
2811 4 0.0216343 0.180682 0.595365
3110 4 0.0381282 0.180218 0.609177
1971 4 0.0983498 0.184506 0.658666
1257 4 0.0920473 0.238146 0.592862
1255 2 0.0692283 0.243582 0.592167
1155 4 0.113488 0.24527 0.59579
3384 4 0.169573 0.213013 0.666717
3107 4 0.186041 0.222053 0.654962
3382 2 0.144048 0.201512 0.665992
3383 4 0.118522 0.190012 0.665268
3108 4 0.237897 0.2383 0.65873
3106 2 0.211969 0.230176 0.656846
1081 2 0.257963 0.211951 0.589054
3165 4 0.258917 0.245213 0.655627
3163 2 0.273286 0.241873 0.636164
1083 4 0.27763 0.224091 0.603788
3164 4 0.287655 0.238533 0.616702
145 3 0.338658 0.229379 0.627207
3236 4 0.352295 0.233225 0.611962
144 3 0.305515 0.239822 0.627639
141 1 0.329533 0.246943 0.630032
3235 2 0.360724 0.229602 0.589111
935 4 0.429545 0.201196 0.591031
934 2 0.45281 0.200948 0.600003
936 4 0.476075 0.200699 0.608976
1259 4 0.491981 0.196357 0.619871
1256 4 0.0464094 0.249018 0.591472
959 4 0.0279808 0.247019 0.60059
960 4 0.0228241 0.274687 0.640105
958 2 0.0254024 0.260853 0.620347
3435 4 0.0405993 0.27966 0.652586
891 4 0.0793041 0.314817 0.59609
1239 4 0.0722064 0.30042 0.582373
889 2 0.0663634 0.331097 0.589148
1153 2 0.138156 0.255068 0.603053
1154 4 0.162825 0.264866 0.610316
1283 4 0.181261 0.264826 0.601788
1282 2 0.205584 0.27009 0.592967
3265 2 0.359798 0.284888 0.584253
142 3 0.338583 0.262911 0.614074
143 3 0.335294 0.256296 0.651048
3266 4 0.358226 0.273969 0.60669
2627 4 0.443827 0.27716 0.655616
3356 4 0.448842 0.273184 0.637748
3355 2 0.473056 0.276847 0.629045
2721 4 0.0178676 0.382718 0.660152
3447 4 0.0378055 0.389081 0.657205
3445 2 0.0619766 0.392707 0.6484
3446 4 0.0861476 0.396333 0.639595
3353 4 0.103815 0.397503 0.650484
539 4 0.23411 0.348559 0.618923
538 2 0.24004 0.354737 0.642796
3369 4 0.225168 0.354516 0.602445
3367 2 0.2422 0.374228 0.592025
540 4 0.24597 0.360915 0.666668
3114 4 0.324587 0.390713 0.659694
4215 4 0.309369 0.400818 0.657058
4213 2 0.284651 0.389929 0.663523
3112 2 0.348405 0.389434 0.665895
1639 2 0.433585 0.349238 0.597731
1640 4 0.418518 0.343486 0.618043
990 4 0.497465 0.458362 0.910369
1137 4 0.234057 0.449357 0.591404
1040 4 0.276176 0.439891 0.649271
1039 2 0.281894 0.443123 0.624942
1041 4 0.287612 0.446356 0.600614
3492 4 0.402749 0.495221 0.597823
3490 2 0.423942 0.488623 0.590914
3491 4 0.445134 0.482025 0.584005
4196 4 0.478416 0.451394 0.654834
1008 4 0.492443 0.469478 0.657838
3489 4 0.139343 0.0337877 0.746444
3438 4 0.119493 0.0396363 0.751488
3487 2 0.163987 0.0329344 0.744227
3488 4 0.18863 0.0320811 0.742011
1217 4 0.208483 0.0349714 0.741518
1216 2 0.233831 0.0439255 0.746755
1218 4 0.259178 0.0528796 0.751991
2001 4 0.278454 0.0515534 0.747704
1003 2 0.450768 0.0755318 0.682942
1005 4 0.457495 0.0750008 0.706974
3009 4 0.471168 0.0738234 0.722368
3007 2 0.49311 0.0681208 0.716375
3765 4 0.0398823 0.154329 0.745613
3763 2 0.0392943 0.15479 0.720624
3764 4 0.0387064 0.155252 0.695635
3167 4 0.0743736 0.112436 0.73983
1970 4 0.0535223 0.164331 0.682636
3166 2 0.0946568 0.108451 0.727596
2174 4 0.153528 0.122963 0.668127
3168 4 0.11494 0.104466 0.715361
3002 4 0.160009 0.139539 0.723625
3001 2 0.16183 0.127497 0.702366
3003 4 0.163652 0.115455 0.681107
1023 4 0.38032 0.121138 0.670819
4442 4 0.483148 0.166173 0.724056
4441 2 0.490727 0.154291 0.705018
4443 4 0.498306 0.14241 0.685979
3351 4 0.0925304 0.245034 0.713566
3349 2 0.104224 0.234542 0.730827
3350 4 0.115917 0.22405 0.748088
1969 2 0.075936 0.174419 0.670651
895 2 0.231707 0.224104 0.722607
897 4 0.236802 0.205898 0.708965
896 4 0.226613 0.242309 0.736249
1085 4 0.252068 0.217632 0.697557
1084 2 0.273017 0.209865 0.692404
1086 4 0.293966 0.202098 0.687251
2979 4 0.300611 0.20362 0.706727
2977 2 0.322474 0.196743 0.709675
2978 4 0.344338 0.189867 0.712622
3433 2 0.054256 0.290126 0.672656
3434 4 0.0679128 0.300592 0.692727
3272 4 0.0869326 0.312516 0.692484
3240 4 0.131908 0.278401 0.667334
3271 2 0.0977037 0.310103 0.71457
3273 4 0.108475 0.307689 0.736655
3239 4 0.0936953 0.258668 0.699827
3238 2 0.112802 0.268534 0.68358
3093 4 0.136297 0.295372 0.677051
3091 2 0.157524 0.314951 0.677374
3092 4 0.178751 0.334529 0.677698
923 4 0.216276 0.312871 0.746603
922 2 0.191316 0.301008 0.751226
2628 4 0.419815 0.257134 0.697667
3439 2 0.398133 0.251428 0.734399
3441 4 0.41601 0.25967 0.716583
2626 2 0.431821 0.267147 0.676642
1015 2 0.0592937 0.383926 0.731901
1016 4 0.0371118 0.390008 0.735747
1017 4 0.0814755 0.377843 0.728055
3374 4 0.0929842 0.370133 0.739204
3352 2 0.111702 0.384964 0.668791
3373 2 0.106708 0.36405 0.720542
3354 4 0.11959 0.372425 0.687097
3375 4 0.120433 0.357967 0.701879
4214 4 0.259934 0.37904 0.669988
998 4 0.386294 0.40452 0.677033
3113 4 0.372223 0.388156 0.672096
997 2 0.408183 0.397379 0.677384
999 4 0.430072 0.390238 0.677736
4494 4 0.172969 0.437229 0.727979
4492 2 0.194879 0.432556 0.73586
4493 4 0.216788 0.427884 0.74374
1096 2 0.261795 0.447946 0.735649
3262 2 0.234014 0.491276 0.740346
1098 4 0.237807 0.437533 0.744428
52 3 0.00241212 0.148748 0.893382
1097 4 0.285784 0.458359 0.726871
1278 4 0.305034 0.461722 0.731541
1276 2 0.330268 0.470291 0.725688
1277 4 0.355502 0.478859 0.719835
1242 4 0.348042 0.438411 0.750922
1241 4 0.387632 0.41822 0.745656
821 4 0.37132 0.477042 0.707842
820 2 0.394495 0.49392 0.710324
1240 2 0.367837 0.428316 0.748289