ITEM: TIMESTEP
594000
ITEM: NUMBER OF ATOMS
4590
ITEM: BOX BOUNDS xy xz yz pp pp pp
-1.2398226800000003e+01 9.9985700000000008e+00 -2.3996568000000025e+00
-9.9985700000000008e+00 9.9985700000000008e+00 0.0000000000000000e+00
-9.9985700000000008e+00 9.9985700000000008e+00 0.0000000000000000e+00
ITEM: ATOMS id type xs ys zs
3209 4 0.0640557 0.0668779 0.0315042
3208 2 0.0873677 0.0619957 0.0370025
3210 4 0.11068 0.0571135 0.0425009
557 4 0.13093 0.0562518 0.0494863
556 2 0.150845 0.0712865 0.0579218
558 4 0.17076 0.0863211 0.0663573
1660 2 0.320018 0.0203856 0.0747965
2465 4 0.330691 0.0144899 0.0348342
1661 4 0.297757 0.00643703 0.0774043
2949 4 0.315399 0.00333255 0.0261601
1761 4 0.339358 0.0742154 0.00568649
1662 4 0.342279 0.0343341 0.0721887
1759 2 0.324643 0.0847256 0.0217946
2886 4 0.361592 0.036906 0.0656973
2884 2 0.385214 0.0435224 0.057933
2885 4 0.408836 0.0501387 0.0501688
3903 4 0.426066 0.0646498 0.0475332
2464 2 0.350479 0.00963238 0.0211733
2466 4 0.370266 0.00477483 0.00751235
3901 2 0.433976 0.0660446 0.0237995
1653 4 0.490696 0.0019235 0.0668968
3902 4 0.441886 0.0674394 6.58888e-05
3413 4 0.0788631 0.112604 0.00611384
3412 2 0.10264 0.114106 0.0142465
3414 4 0.126416 0.115607 0.0223792
3344 4 0.142227 0.128834 0.0270269
3343 2 0.164797 0.140276 0.0337347
3345 4 0.187366 0.151718 0.0404426
654 4 0.188423 0.094503 0.0725991
2882 4 0.206299 0.156391 0.0460917
652 2 0.212018 0.105945 0.0732703
2881 2 0.230932 0.154424 0.0477785
2883 4 0.255565 0.152457 0.0494653
25 3 0.268358 0.151426 0.0653836
22 3 0.25639 0.116758 0.0767886
653 4 0.235613 0.117387 0.0739415
21 1 0.274939 0.131163 0.0705631
24 3 0.284808 0.122394 0.0520637
2975 4 0.301105 0.132832 0.0486923
1760 4 0.309928 0.0952359 0.0379028
2974 2 0.312379 0.147685 0.0309585
2976 4 0.323653 0.162537 0.0132247
2660 4 0.394675 0.103044 0.0186413
2661 4 0.40299 0.152886 0.0219769
3393 4 0.421068 0.151957 0.0327093
2659 2 0.398833 0.127965 0.0203091
2652 4 0.108274 0.243509 0.0520231
2651 4 0.156934 0.242483 0.0629735
2650 2 0.132604 0.242996 0.0574983
527 4 0.174684 0.246904 0.0525284
105 3 0.209167 0.24512 0.00614915
3234 4 0.294956 0.200733 0.0114707
3232 2 0.316774 0.214763 0.00667638
656 4 0.358011 0.235311 0.0038839
3233 4 0.338592 0.228792 0.00188208
2729 4 0.448839 0.227568 0.0651844
3391 2 0.44229 0.167072 0.0282323
3392 4 0.463511 0.182188 0.0237553
968 4 0.0115859 0.276201 0.0328505
967 2 0.00518605 0.286852 0.0115718
2839 2 0.0454934 0.271883 0.0672054
2841 4 0.058189 0.271635 0.0456838
309 4 0.0659256 0.265546 0.0285228
307 2 0.0889347 0.258496 0.0310526
308 4 0.111944 0.251446 0.0335824
3215 4 0.184813 0.303507 0.068196
3214 2 0.209958 0.306785 0.0695365
526 2 0.179696 0.261921 0.0327963
528 4 0.184709 0.276939 0.0130642
3216 4 0.235103 0.310063 0.0708769
4305 4 0.251915 0.304689 0.077598
103 3 0.245453 0.26008 0.00408343
4303 2 0.272441 0.293523 0.0728683
4304 4 0.292967 0.282357 0.0681386
277 2 0.280477 0.259483 0.0277436
279 4 0.258602 0.265032 0.0184555
278 4 0.302353 0.253935 0.0370318
3141 4 0.316396 0.266722 0.0298728
3139 2 0.339368 0.271758 0.039849
3140 4 0.362339 0.276794 0.0498252
621 4 0.382104 0.285954 0.0568133
2747 4 0.404448 0.322481 0.0550526
2487 4 0.388898 0.329964 0.0625146
619 2 0.405427 0.280851 0.061933
620 4 0.42875 0.275747 0.0670527
2783 4 0.488861 0.264012 0.0803582
2726 4 0.342568 0.40521 0.0528633
671 4 0.335254 0.418706 0.0413679
2725 2 0.34674 0.388233 0.0701371
2485 2 0.370543 0.341662 0.0724112
3543 4 0.436995 0.414826 0.0800826
2746 2 0.425257 0.338685 0.052458
2748 4 0.446066 0.35489 0.0498633
1121 4 0.458791 0.343536 0.0582038
1120 2 0.4825 0.352133 0.0521197
3338 4 0.0214319 0.420338 0.0751254
3900 4 0.0879096 0.479702 0.0260849
3898 2 0.110074 0.471455 0.021498
3899 4 0.132239 0.463209 0.0169111
2934 4 0.136169 0.446878 0.00871281
3443 4 0.244729 0.482659 0.00545058
1466 4 0.304513 0.442788 0.0837342
4188 4 0.260371 0.473426 0.00619551
672 4 0.317252 0.452782 0.0705484
670 2 0.326253 0.435744 0.0559581
2583 4 0.369868 0.475625 0.0199245
2912 4 0.388573 0.471303 0.0252347
2581 2 0.348998 0.47242 0.0059512
2911 2 0.412641 0.472714 0.0324506
2913 4 0.436708 0.474125 0.0396665
2678 4 0.0284881 0.0793403 0.097142
2733 4 0.0614702 0.0302911 0.155329
1475 4 0.281054 0.00416752 0.0896045
759 4 0.0223396 0.153131 0.132496
2679 4 0.000606684 0.0891078 0.136654
722 4 0.00377237 0.156322 0.123229
2677 2 0.0145474 0.0842241 0.116898
757 2 0.0474603 0.155661 0.130796
758 4 0.0725811 0.158191 0.129096
356 4 0.0916136 0.163394 0.123457
254 4 0.188175 0.0956336 0.165366
23 3 0.290089 0.133399 0.0882249
2894 4 0.308684 0.13288 0.0956641
2893 2 0.331948 0.140281 0.104013
2895 4 0.355213 0.147683 0.112363
2600 4 0.375801 0.151167 0.108583
2599 2 0.400571 0.155085 0.11298
2601 4 0.425342 0.159004 0.117378
378 4 0.44624 0.164212 0.119985
2875 2 0.0233696 0.219381 0.0905477
107 3 0.0332076 0.249767 0.151697
2877 4 0.0463732 0.230211 0.0966171
2718 4 0.0658496 0.236974 0.0942751
355 2 0.115815 0.170607 0.128807
2716 2 0.0881737 0.247486 0.102705
357 4 0.140016 0.177819 0.134156
623 4 0.158663 0.182786 0.125605
622 2 0.181844 0.188957 0.134745
837 4 0.182884 0.245635 0.124285
624 4 0.205025 0.195129 0.143884
506 4 0.221967 0.205534 0.149729
505 2 0.247117 0.2082 0.150966
507 4 0.272267 0.210866 0.152203
578 4 0.291204 0.208295 0.152348
2728 2 0.436907 0.23761 0.0839387
2754 4 0.383963 0.229176 0.141743
2752 2 0.400385 0.244868 0.128799
2786 4 0.395827 0.2226 0.155952
2730 4 0.424974 0.247653 0.102693
376 2 0.470172 0.174725 0.120833
377 4 0.494105 0.185237 0.121681
110 3 0.0190476 0.278005 0.134741
2840 4 0.0327978 0.272131 0.088727
106 1 0.0367308 0.265703 0.135186
109 3 0.0385219 0.255083 0.114784
2616 4 0.12823 0.265799 0.116992
349 2 0.0583066 0.318385 0.13383
351 4 0.0684764 0.298179 0.141465
108 3 0.0565074 0.279444 0.139766
2534 4 0.0831104 0.304409 0.154449
2717 4 0.110498 0.257997 0.111135
2615 4 0.171747 0.255033 0.136409
835 2 0.207014 0.248895 0.131429
2614 2 0.149989 0.260416 0.126701
2463 4 0.198326 0.313392 0.149615
836 4 0.231143 0.252154 0.138574
2753 4 0.416808 0.26056 0.115855
2970 4 0.00488955 0.384442 0.154445
250 2 0.00843177 0.342537 0.120981
251 4 0.0332057 0.349624 0.1226
350 4 0.0481368 0.33859 0.126196
3404 4 0.107054 0.407329 0.133111
2486 4 0.352189 0.353361 0.0823078
2706 4 0.336246 0.335509 0.13372
2727 4 0.350912 0.371255 0.087411
2704 2 0.348217 0.354286 0.147069
3728 4 0.382019 0.389053 0.0888045
2705 4 0.360187 0.373063 0.160417
3727 2 0.403845 0.403469 0.0924796
3541 2 0.460394 0.414339 0.0887253
3542 4 0.483793 0.413852 0.0973679
1568 4 0.0482085 0.422868 0.107157
3552 4 0.0304478 0.422263 0.118523
3550 2 0.0190632 0.431707 0.137999
3551 4 0.00767866 0.441151 0.157474
1158 4 0.00273531 0.491899 0.155238
1569 4 0.0953815 0.419665 0.122282
1567 2 0.071795 0.421267 0.11472
303 4 0.130129 0.468676 0.157916
3403 2 0.123268 0.41945 0.149248
1863 4 0.148356 0.459886 0.158444
1861 2 0.172011 0.46494 0.150173
1862 4 0.195666 0.469994 0.141901
1787 4 0.216415 0.473653 0.146241
1786 2 0.241199 0.480562 0.144348
1788 4 0.265984 0.487471 0.142456
626 4 0.286676 0.487358 0.14379
4211 4 0.310326 0.43915 0.150149
1465 2 0.307347 0.444338 0.108549
1467 4 0.310181 0.445888 0.133363
625 2 0.310453 0.49614 0.138157
3729 4 0.425671 0.417885 0.0961547
1439 4 0.418524 0.493787 0.1332
2919 4 0.472059 0.46422 0.150188
2094 4 0.490247 0.475266 0.1534
2867 4 0.0051893 0.00846167 0.235842
2573 4 0.0132631 0.066911 0.203198
2633 4 0.00322245 0.0042306 0.214924
127 3 0.021427 0.0210458 0.242245
2572 2 0.0383163 0.0718073 0.204823
126 1 0.0348782 0.0166743 0.224505
128 3 0.0428826 0.0367212 0.214249
129 3 0.0527598 0.00621673 0.232432
2732 4 0.060672 0.0313318 0.205317
2574 4 0.0633695 0.0767035 0.206449
2731 2 0.0610711 0.0308115 0.180323
2547 4 0.0657725 0.0213658 0.221745
1506 4 0.0827792 0.0807396 0.19898
2545 2 0.090656 0.0268994 0.22457
130 3 0.02254 0.00309127 0.20969
1504 2 0.10664 0.0781039 0.193177
2546 4 0.115539 0.0324331 0.227395
1505 4 0.130502 0.0754681 0.187374
3722 4 0.13514 0.0331695 0.232415
255 4 0.149921 0.0726593 0.192066
3721 2 0.159263 0.0430913 0.233317
3723 4 0.183387 0.053013 0.234219
123 3 0.200718 0.0589368 0.242522
125 3 0.224624 0.0363997 0.228323
124 3 0.238526 0.0690896 0.244117
121 1 0.221563 0.0512547 0.244891
690 4 0.321862 0.0168711 0.182795
2579 4 0.280527 0.0683003 0.246494
606 4 0.0174935 0.159182 0.221461
604 2 0.0241192 0.160576 0.245576
731 4 0.0175416 0.162965 0.202335
2945 4 0.0339799 0.120622 0.249552
580 2 0.0926036 0.14907 0.19095
582 4 0.11044 0.134231 0.186463
581 4 0.0747671 0.163909 0.195437
253 2 0.169048 0.0841464 0.178716
750 4 0.130258 0.142295 0.186109
748 2 0.153014 0.148993 0.19603
749 4 0.175769 0.155692 0.20595
459 4 0.191648 0.157272 0.218194
457 2 0.206257 0.144691 0.203802
458 4 0.220865 0.13211 0.189411
237 4 0.241128 0.138468 0.194034
235 2 0.263543 0.152434 0.194156
732 4 0.0631271 0.171896 0.181371
730 2 0.0403344 0.167431 0.191853
298 2 0.0675618 0.245232 0.216759
300 4 0.0762056 0.226969 0.203559
1220 4 0.0956417 0.232187 0.202503
1219 2 0.120557 0.238711 0.203017
1221 4 0.145472 0.245236 0.20353
477 4 0.158228 0.244409 0.189184
236 4 0.285958 0.1664 0.194279
577 2 0.29684 0.193298 0.170921
579 4 0.302476 0.1783 0.189494
2785 2 0.405889 0.218304 0.178197
2787 4 0.415951 0.214007 0.200441
299 4 0.058918 0.263496 0.229958
2493 4 0.0673332 0.277056 0.241612
2533 2 0.0901832 0.308894 0.178163
2491 2 0.0795774 0.297549 0.231149
2492 4 0.0918216 0.318042 0.220685
2535 4 0.097256 0.313379 0.201877
2461 2 0.203846 0.318503 0.173594
475 2 0.182944 0.251727 0.191025
2462 4 0.209366 0.323613 0.197573
476 4 0.20766 0.259045 0.192866
755 4 0.228296 0.263384 0.190362
754 2 0.252508 0.272263 0.193619
3571 2 0.289683 0.325216 0.235884
756 4 0.276719 0.281142 0.196876
2799 4 0.29796 0.286137 0.19458
2797 2 0.321529 0.293706 0.187204
2798 4 0.345097 0.301276 0.179829
1056 4 0.36443 0.297491 0.184529
3573 4 0.300524 0.305584 0.243982
1054 2 0.38952 0.300297 0.182388
1055 4 0.41461 0.303102 0.180247
2540 4 0.42418 0.306426 0.196983
2539 2 0.444897 0.300328 0.185672
2541 4 0.465614 0.294229 0.174362
729 4 0.0223434 0.383478 0.167071
727 2 0.0427226 0.375372 0.177248
728 4 0.0631018 0.367267 0.187425
2538 4 0.0823882 0.368815 0.185178
2536 2 0.107523 0.372432 0.186577
2537 4 0.132658 0.376049 0.187976
2525 4 0.215358 0.339554 0.21093
714 4 0.151035 0.384266 0.181577
712 2 0.175053 0.388906 0.188873
713 4 0.199071 0.393546 0.196168
339 4 0.213716 0.407029 0.202382
2524 2 0.239599 0.33674 0.214553
2526 4 0.263841 0.333926 0.218176
2556 4 0.276666 0.419337 0.220147
2554 2 0.288187 0.401098 0.230373
3572 4 0.278843 0.344849 0.227787
2555 4 0.299708 0.382859 0.240598
337 2 0.238159 0.41546 0.204643
2862 4 0.413351 0.378612 0.233245
2860 2 0.428477 0.364245 0.221634
2861 4 0.443604 0.349878 0.210023
3990 4 0.462161 0.353827 0.20266
678 4 0.476145 0.416385 0.227846
3988 2 0.481115 0.34664 0.216107
1471 2 0.0513392 0.472808 0.191534
1472 4 0.0349086 0.488699 0.197565
1473 4 0.0677698 0.456917 0.185503
301 2 0.108095 0.467186 0.16997
302 4 0.0860602 0.465695 0.182024
3405 4 0.139482 0.431572 0.165385
361 2 0.146945 0.441138 0.201645
363 4 0.147169 0.43568 0.22603
263 4 0.142809 0.431506 0.244436
362 4 0.146722 0.446595 0.177261
315 4 0.176805 0.494236 0.182477
313 2 0.196173 0.497666 0.198416
3960 4 0.229112 0.494897 0.20224
338 4 0.262601 0.423891 0.206904
3958 2 0.254199 0.498179 0.200085
4210 2 0.322438 0.440562 0.172071
4212 4 0.334549 0.441974 0.193993
2918 4 0.443775 0.439702 0.185648
677 4 0.437572 0.423731 0.198013
2917 2 0.457917 0.451961 0.167918
676 2 0.456858 0.420058 0.212929
1425 4 0.494258 0.422714 0.233702
2850 4 0.059073 0.0755112 0.269318
2848 2 0.0790114 0.0663328 0.27923
2849 4 0.0989499 0.0571544 0.289142
1272 4 0.114901 0.0543612 0.2999
1270 2 0.134535 0.0661775 0.287501
1271 4 0.154169 0.0779937 0.275103
3876 4 0.163162 0.0103114 0.289332
3874 2 0.183065 0.0241632 0.279303
3875 4 0.202969 0.038015 0.269275
122 3 0.222322 0.0407902 0.265277
2855 4 0.261295 0.0751018 0.248192
2578 2 0.304965 0.0662773 0.249949
2580 4 0.329403 0.0642544 0.253403
2891 4 0.346825 0.0679666 0.264708
605 4 0.030745 0.16197 0.269691
2946 4 0.0645251 0.0946585 0.275886
30 3 0.0635617 0.160752 0.305261
2944 2 0.0492525 0.10764 0.262719
546 4 0.0766129 0.157812 0.319882
544 2 0.101756 0.162164 0.32014
29 3 0.0504948 0.165327 0.270456
513 4 0.167334 0.0920236 0.283796
545 4 0.126899 0.166515 0.320398
511 2 0.1852 0.104435 0.298043
531 4 0.141231 0.161039 0.332065
512 4 0.203065 0.116846 0.31229
2694 4 0.223018 0.121595 0.315953
2692 2 0.246578 0.119342 0.308727
2693 4 0.270138 0.117088 0.301501
2856 4 0.263398 0.110503 0.283446
2854 2 0.262347 0.0928027 0.265819
2890 2 0.363388 0.0872587 0.271778
2892 4 0.379952 0.106551 0.278848
2838 4 0.49946 0.149314 0.26608
1032 4 0.0189166 0.169711 0.283014
28 3 0.029866 0.173308 0.300701
27 3 0.0618164 0.195139 0.291995
26 1 0.0514684 0.173481 0.29218
285 4 0.187123 0.212798 0.29523
283 2 0.207977 0.218288 0.281547
390 4 0.242172 0.227797 0.283049
284 4 0.22883 0.223778 0.267864
388 2 0.266967 0.226943 0.280916
537 4 0.31135 0.23128 0.281945
389 4 0.291762 0.226088 0.278783
535 2 0.33115 0.245351 0.291905
2837 4 0.474702 0.187755 0.278741
2836 2 0.487081 0.168534 0.272411
2622 4 0.201249 0.320339 0.32979
2853 4 0.215037 0.309428 0.334466
2527 2 0.245266 0.258299 0.316684
2851 2 0.236843 0.312532 0.321972
2955 4 0.255157 0.265441 0.282427
2529 4 0.262025 0.258084 0.298152
2852 4 0.25865 0.315636 0.309477
2954 4 0.287084 0.298383 0.257267
2450 4 0.278804 0.321677 0.310249
2953 2 0.27112 0.281912 0.269847
2449 2 0.302574 0.320629 0.302964
2451 4 0.326345 0.319581 0.29568
536 4 0.350949 0.259421 0.301865
710 4 0.36518 0.274637 0.306693
2496 4 0.347009 0.322879 0.293803
2494 2 0.370996 0.333155 0.29518
709 2 0.377841 0.277504 0.328263
3631 2 0.483339 0.32108 0.291172
3632 4 0.497093 0.30302 0.284426
2591 4 0.483953 0.274342 0.316325
2590 2 0.49573 0.268966 0.295302
417 4 0.0996444 0.369858 0.271858
415 2 0.105191 0.394671 0.273552
2699 4 0.178957 0.363643 0.322729
2698 2 0.203835 0.369723 0.324976
2700 4 0.228714 0.375802 0.327223
2904 4 0.245704 0.36838 0.327234
2902 2 0.269538 0.378805 0.324679
2903 4 0.293372 0.38923 0.322124
2873 4 0.357133 0.407961 0.328989
2597 4 0.365526 0.394202 0.320568
2874 4 0.309582 0.386274 0.332172
2872 2 0.333357 0.397118 0.33058
2596 2 0.390211 0.393801 0.316924
1803 4 0.420864 0.390137 0.248864
2495 4 0.394982 0.343431 0.296557
2598 4 0.414897 0.3934 0.31328
366 4 0.406161 0.339688 0.313261
1801 2 0.435545 0.39453 0.269003
1802 4 0.450225 0.398924 0.289141
364 2 0.42834 0.338625 0.302016
365 4 0.45052 0.337563 0.290771
3633 4 0.469585 0.339141 0.297917
416 4 0.110739 0.419485 0.275247
777 4 0.0946606 0.431988 0.277506
775 2 0.0905613 0.441792 0.299894
776 4 0.0864619 0.451596 0.322282
1758 4 0.100761 0.464729 0.328025
264 4 0.144673 0.468479 0.278008
262 2 0.143741 0.449993 0.261222
1382 4 0.161777 0.479916 0.280357
1386 4 0.201609 0.485714 0.276505
1384 2 0.22615 0.492397 0.280622
231 4 0.325171 0.489113 0.300938
681 4 0.396629 0.465864 0.269053
1658 4 0.432669 0.499137 0.307761
679 2 0.421247 0.463544 0.269146
1745 4 0.447225 0.492841 0.295196
680 4 0.445864 0.461224 0.269238
3884 4 0.465393 0.456107 0.264325
3883 2 0.472959 0.462519 0.287517
2532 4 0.480705 0.465281 0.330826
3885 4 0.480524 0.468931 0.310709
2113 2 0.138124 0.004805 0.417472
2115 4 0.159922 0.0142325 0.407023
1128 4 0.170501 0.0303948 0.414789
4355 4 0.392927 0.0235148 0.3512
4354 2 0.418003 0.0275258 0.349157
4356 4 0.44308 0.0315369 0.347115
2817 4 0.454275 0.0498077 0.342995
2815 2 0.478777 0.0578481 0.345556
480 4 0.0115008 0.109217 0.399395
478 2 0.0357437 0.108108 0.40485
479 4 0.0599867 0.106998 0.410305
470 4 0.0785366 0.101947 0.407397
469 2 0.102946 0.110848 0.406334
471 4 0.127356 0.119749 0.40527
529 2 0.161233 0.16196 0.347187
707 4 0.149 0.119572 0.405318
706 2 0.173922 0.1221 0.408884
530 4 0.181234 0.162882 0.362309
3158 4 0.195513 0.149017 0.36415
3157 2 0.217398 0.16045 0.355566
708 4 0.198843 0.124627 0.41245
340 2 0.353822 0.106784 0.399547
342 4 0.371338 0.111856 0.381839
402 4 0.371046 0.113418 0.361659
400 2 0.390391 0.107043 0.348238
401 4 0.409736 0.100668 0.334817
2915 4 0.467433 0.136257 0.414896
2936 4 0.488314 0.135976 0.415839
1034 4 0.097912 0.170621 0.409666
1035 4 0.147827 0.181855 0.405691
1033 2 0.122869 0.176238 0.407679
2612 4 0.163958 0.176672 0.395314
2611 2 0.184871 0.184813 0.408021
3159 4 0.239283 0.171882 0.346982
651 4 0.256357 0.177897 0.357964
649 2 0.281444 0.181359 0.355839
650 4 0.306531 0.18482 0.353715
825 4 0.320822 0.23067 0.403785
1191 4 0.322118 0.192916 0.364844
1189 2 0.326466 0.191064 0.389357
1190 4 0.330813 0.189212 0.413869
823 2 0.341836 0.240816 0.415202
1953 4 0.0188984 0.288153 0.346594
1951 2 0.0439895 0.289042 0.346181
1952 4 0.0690807 0.289932 0.345768
116 1 0.0767478 0.295852 0.414437
2682 4 0.0880898 0.287291 0.338525
120 3 0.0826669 0.297765 0.392469
2680 2 0.111183 0.298643 0.343434
118 3 0.0613981 0.310665 0.419499
2681 4 0.134276 0.309994 0.348344
2620 2 0.176699 0.314696 0.334632
2621 4 0.15215 0.309052 0.339474
2925 4 0.154838 0.309775 0.401713
583 2 0.164471 0.274534 0.388815
585 4 0.157813 0.291179 0.405344
584 4 0.171129 0.257889 0.372287
2832 4 0.179209 0.259509 0.352064
2830 2 0.204216 0.265345 0.351484
2528 4 0.228508 0.258513 0.335215
2831 4 0.229222 0.271181 0.350904
711 4 0.390501 0.280371 0.349833
636 4 0.410347 0.288892 0.350371
634 2 0.427027 0.285017 0.368154
635 4 0.443707 0.281143 0.385936
813 4 0.461199 0.350009 0.393269
811 2 0.483403 0.341238 0.395985
375 4 0.034833 0.443107 0.358966
373 2 0.0176332 0.458859 0.355412
2741 4 0.0520433 0.49141 0.392633
1756 2 0.119624 0.478983 0.339331
1757 4 0.138487 0.493236 0.350637
2588 4 0.288221 0.470272 0.407118
3582 4 0.292899 0.451634 0.409556
3580 2 0.317097 0.451428 0.40336
3581 4 0.341294 0.451221 0.397163
549 4 0.355601 0.4613 0.387888
547 2 0.378172 0.470109 0.397095
1434 4 0.378493 0.415277 0.376231
548 4 0.400742 0.478918 0.406301
1432 2 0.402247 0.425464 0.372524
1433 4 0.426001 0.43565 0.368818
2531 4 0.440097 0.447329 0.357279
2530 2 0.460401 0.456305 0.344052
1180 2 0.0916066 0.0684015 0.462095
2238 4 0.0903909 0.0402475 0.476839
1181 4 0.090727 0.0439191 0.457453
2236 2 0.0922053 0.017815 0.486921
1127 4 0.176296 0.0788012 0.427341
1126 2 0.173399 0.054598 0.421065
1150 2 0.00325183 0.132348 0.465551
1151 4 0.0207243 0.116537 0.465577
2316 4 0.0385556 0.121309 0.4715
2314 2 0.0571 0.108238 0.464444
2315 4 0.0756444 0.0951668 0.457389
1182 4 0.0924863 0.0928839 0.466737
617 4 0.218496 0.121074 0.418501
616 2 0.24277 0.126112 0.424792
618 4 0.267043 0.131151 0.431083
1395 4 0.288804 0.132508 0.429565
1393 2 0.300174 0.155458 0.424642
341 4 0.336306 0.101712 0.417256
163 3 0.300985 0.122794 0.440519
161 1 0.315851 0.10831 0.447793
162 3 0.305156 0.0939253 0.463343
164 3 0.334487 0.120316 0.45772
165 3 0.322469 0.0962784 0.430217
320 4 0.352859 0.159146 0.497243
426 4 0.355796 0.121238 0.463815
9 3 0.373181 0.163119 0.496288
7 3 0.381842 0.163403 0.459708
424 2 0.37912 0.125078 0.454448
425 4 0.402443 0.128919 0.445081
2916 4 0.421916 0.13707 0.435375
2914 2 0.444675 0.136663 0.425135
2613 4 0.205784 0.192954 0.420729
371 4 0.205807 0.180538 0.435953
370 2 0.229286 0.176484 0.441817
372 4 0.252765 0.17243 0.447681
473 4 0.271612 0.185851 0.444496
1394 4 0.311544 0.178409 0.41972
472 2 0.288353 0.199208 0.459248
474 4 0.305094 0.212565 0.474
724 2 0.346839 0.211572 0.473448
726 4 0.323135 0.212574 0.480969
824 4 0.36285 0.250962 0.426619
938 4 0.374635 0.243153 0.44041
725 4 0.370543 0.210569 0.465926
8 3 0.375819 0.195543 0.476501
6 1 0.384583 0.175403 0.479289
937 2 0.395808 0.236363 0.430633
10 3 0.40693 0.179287 0.484268
939 4 0.416982 0.229573 0.420857
2585 4 0.437037 0.230129 0.418159
368 4 0.427954 0.175764 0.485843
2584 2 0.461616 0.236693 0.422169
367 2 0.452989 0.180305 0.48804
369 4 0.478023 0.184847 0.490236
3462 4 0.494426 0.197894 0.48563
2586 4 0.486195 0.243256 0.42618
489 4 0.0399166 0.310054 0.418464
487 2 0.0159767 0.299817 0.420605
117 3 0.0669208 0.274412 0.418546
119 3 0.0957287 0.300217 0.427805
2923 2 0.165516 0.324151 0.420107
2511 4 0.277963 0.329177 0.436361
265 2 0.322077 0.330001 0.496093
889 2 0.380727 0.319549 0.495958
890 4 0.3632 0.334927 0.49962
1239 4 0.418473 0.304573 0.488007
891 4 0.398253 0.304171 0.492297
1237 2 0.430804 0.315852 0.468579
1238 4 0.443135 0.327132 0.449151
873 4 0.184003 0.358103 0.441501
2924 4 0.176194 0.338528 0.438502
871 2 0.2074 0.354038 0.447679
872 4 0.230797 0.349973 0.453857
2509 2 0.262287 0.346145 0.441209
2510 4 0.24661 0.363114 0.446056
267 4 0.345312 0.342312 0.496576
1027 2 0.323274 0.406861 0.477283
1028 4 0.342426 0.39337 0.473862
1172 4 0.354524 0.403112 0.486811
1171 2 0.378975 0.401474 0.482941
2108 4 0.419354 0.391302 0.484891
1173 4 0.403426 0.399835 0.47907
2107 2 0.43203 0.411195 0.473773
804 4 0.453352 0.345307 0.448996
802 2 0.476403 0.354751 0.456452
1161 4 0.0303968 0.490529 0.493965
894 4 0.0888567 0.498405 0.44574
569 4 0.100856 0.484799 0.450828
568 2 0.121965 0.485433 0.437323
570 4 0.143074 0.486067 0.423819
2647 2 0.22825 0.48546 0.452059
1643 4 0.305864 0.495168 0.495195
602 4 0.292348 0.421233 0.495797
2648 4 0.238888 0.46503 0.446023
2587 2 0.2651 0.468783 0.416946
2589 4 0.241979 0.467295 0.426775
1029 4 0.304122 0.420353 0.480704
3317 4 0.389875 0.462712 0.463218
3318 4 0.340996 0.450847 0.452827
3316 2 0.365436 0.45678 0.458023
3961 2 0.42956 0.461505 0.450445
3962 4 0.407801 0.453245 0.461654
4057 2 0.457325 0.493679 0.492815
2109 4 0.444706 0.431088 0.462656
3963 4 0.45132 0.469766 0.439237
2458 2 0.0162749 0.0178501 0.56697
2459 4 0.0414522 0.0204312 0.567325
3123 4 0.0609509 0.0182129 0.566887
3121 2 0.0836431 0.030571 0.571645
3064 2 0.147707 0.0434392 0.574238
3066 4 0.171 0.0500759 0.565575
3065 4 0.124414 0.0368024 0.5829
3122 4 0.106335 0.0429292 0.576402
3023 4 0.189032 0.0501774 0.571006
3022 2 0.212813 0.0467155 0.57627
3024 4 0.236594 0.0432537 0.581534
2996 4 0.251899 0.0345916 0.575363
2995 2 0.274051 0.037167 0.56347
2997 4 0.296203 0.0397424 0.551577
3309 4 0.31284 0.0353858 0.561287
3307 2 0.337148 0.0352207 0.56706
3308 4 0.361455 0.0350556 0.572832
1262 4 0.373762 0.0371375 0.557077
1261 2 0.393786 0.0359566 0.542341
1263 4 0.41381 0.0347756 0.527606
2508 4 0.433551 0.0313648 0.533192
2506 2 0.457245 0.0421476 0.535868
2507 4 0.480939 0.0529303 0.538544
1967 4 0.494033 0.0143294 0.510421
1966 2 0.492607 0.00496732 0.533603
3051 4 0.501093 0.0587294 0.541439
2500 2 0.0196461 0.103306 0.535347
2502 4 0.0446462 0.103504 0.536496
1142 4 0.0651781 0.108524 0.531093
1141 2 0.0900111 0.109183 0.534556
1143 4 0.114844 0.109843 0.538019
917 4 0.13573 0.113424 0.534557
916 2 0.159705 0.116727 0.542193
918 4 0.183681 0.12003 0.549828
900 4 0.183615 0.0820963 0.531896
898 2 0.204666 0.0905328 0.519548
1130 4 0.205538 0.125244 0.552317
899 4 0.225716 0.0989694 0.5072
1129 2 0.230406 0.125927 0.555539
641 4 0.246028 0.108062 0.507303
1131 4 0.255273 0.12661 0.558761
640 2 0.266224 0.124615 0.511731
858 4 0.271247 0.128097 0.572442
642 4 0.28642 0.141168 0.516159
321 4 0.307278 0.142022 0.514934
319 2 0.330069 0.150584 0.506089
2603 4 0.00434441 0.221379 0.515344
1259 4 0.0153281 0.222835 0.568434
1258 2 0.040397 0.225416 0.566088
1260 4 0.0654659 0.227997 0.563743
3038 4 0.084733 0.2329 0.57123
3037 2 0.107626 0.244416 0.576692
958 2 0.331163 0.208666 0.579563
959 4 0.352217 0.197542 0.580006
960 4 0.31011 0.219789 0.579119
1256 4 0.37175 0.198203 0.572669
1255 2 0.396194 0.200969 0.578683
1155 4 0.438795 0.212561 0.580128
1153 2 0.463467 0.212175 0.576383
1154 4 0.488139 0.211788 0.572637
3039 4 0.130519 0.255933 0.582154
3385 2 0.17372 0.255332 0.579576
3387 4 0.19744 0.253728 0.57245
3331 2 0.231312 0.322556 0.54861
3332 4 0.235842 0.302881 0.534805
382 2 0.24202 0.273463 0.571533
3057 4 0.239451 0.30442 0.515808
384 4 0.218855 0.260997 0.57201
3055 2 0.262671 0.302905 0.507133
383 4 0.265186 0.28593 0.571055
2972 4 0.280949 0.295748 0.578943
3056 4 0.285891 0.301391 0.498459
266 4 0.298842 0.31769 0.495611
2847 4 0.081707 0.386099 0.530307
2845 2 0.0930645 0.365665 0.526196
2846 4 0.104422 0.345231 0.522085
261 4 0.122585 0.343716 0.51214
259 2 0.14488 0.357888 0.512597
260 4 0.167175 0.37206 0.513054
2637 4 0.186281 0.375636 0.524436
2635 2 0.197427 0.361578 0.54065
2636 4 0.208573 0.347521 0.556863
3333 4 0.226781 0.342231 0.562415
3455 4 0.495075 0.407971 0.5158
540 4 0.00277309 0.448991 0.558174
1137 4 0.0223349 0.444837 0.562234
1135 2 0.047226 0.444607 0.56428
1159 2 0.0133973 0.493546 0.511703
1136 4 0.0721171 0.444377 0.566326
603 4 0.297002 0.459713 0.527734
4538 4 0.306213 0.448613 0.540575
601 2 0.294675 0.440473 0.511766
4537 2 0.323759 0.448279 0.558346
4539 4 0.341304 0.447945 0.576117
4131 4 0.466165 0.469067 0.525708
4059 4 0.458699 0.484303 0.515859
4129 2 0.477108 0.462763 0.546888
4130 4 0.48805 0.456458 0.568067
269 4 0.104972 0.0426222 0.66461
268 2 0.125393 0.0362711 0.652945
270 4 0.145815 0.0299199 0.641279
4074 4 0.16586 0.034033 0.639861
4072 2 0.181565 0.0550468 0.642995
4073 4 0.197269 0.0760605 0.64613
856 2 0.293008 0.132515 0.58489
857 4 0.314769 0.136933 0.597337
2318 4 0.335137 0.1432 0.604444
2317 2 0.357553 0.13883 0.613377
2319 4 0.379969 0.13446 0.622311
950 4 0.396858 0.143933 0.627091
949 2 0.418981 0.153179 0.617184
951 4 0.441104 0.162424 0.607277
1212 4 0.00499436 0.223957 0.586449
1257 4 0.420637 0.203734 0.584697
3163 2 0.0156165 0.275153 0.638621
3164 4 0.0399296 0.275797 0.632506
1083 4 0.049317 0.277249 0.649982
1081 2 0.071991 0.287671 0.657572
1082 4 0.0946651 0.298093 0.665162
3386 4 0.15 0.256935 0.586703
2971 2 0.304455 0.302107 0.58716
2973 4 0.32796 0.308467 0.595377
3435 4 0.342675 0.303731 0.606929
3433 2 0.359406 0.28862 0.614207
3434 4 0.376136 0.273509 0.621484
1279 2 0.0216913 0.334762 0.587667
807 4 0.00743921 0.373236 0.651503
978 4 0.0171113 0.358144 0.657123
976 2 0.0404501 0.352581 0.661356
1281 4 0.0448926 0.343323 0.595426
348 4 0.059645 0.359665 0.588786
346 2 0.0841276 0.356969 0.590387
347 4 0.10861 0.354273 0.591987
3419 4 0.12466 0.357312 0.60386
3418 2 0.134383 0.381164 0.600828
3420 4 0.144106 0.405016 0.597795
3492 4 0.347572 0.465137 0.586635
3491 4 0.355077 0.488633 0.63053
3490 2 0.351324 0.476885 0.608582
1216 2 0.146085 0.0048941 0.71827
1218 4 0.147354 0.0173497 0.739949
2321 4 0.184968 0.0796502 0.721666
2320 2 0.202879 0.0719904 0.736224
965 4 0.237296 0.0738228 0.741264
1021 2 0.343466 0.0318614 0.744759
1022 4 0.362739 0.0411361 0.730289
2254 2 0.356105 0.0796951 0.711438
2256 4 0.358411 0.0560556 0.717755
3002 4 0.0177218 0.152456 0.72073
3168 4 0.00961745 0.166123 0.731937
3001 2 0.0427459 0.158115 0.721422
2174 4 0.0865359 0.162096 0.724208
2173 2 0.0996417 0.162596 0.702883
2175 4 0.112748 0.163096 0.681559
3003 4 0.0677701 0.163775 0.722113
3240 4 0.131149 0.157847 0.677542
3238 2 0.155152 0.155195 0.682705
3239 4 0.179154 0.152544 0.687867
1970 4 0.200284 0.131524 0.675971
1971 4 0.193556 0.0924243 0.70708
1969 2 0.19692 0.111974 0.691525
3351 4 0.198786 0.159146 0.685592
964 2 0.257686 0.0857217 0.730126
966 4 0.278075 0.0976206 0.718987
1005 4 0.290392 0.112963 0.711581
1003 2 0.315173 0.114782 0.70728
1004 4 0.339955 0.1166 0.702978
2255 4 0.3538 0.103335 0.705121
779 4 0.257686 0.171631 0.705805
3349 2 0.223835 0.164455 0.686614
3350 4 0.248884 0.169764 0.687635
778 2 0.279693 0.176272 0.717787
780 4 0.3017 0.180912 0.729768
3273 4 0.49409 0.227329 0.730601
3252 4 0.494843 0.214191 0.743942
3374 4 0.00402235 0.287061 0.701103
3373 2 0.0204903 0.307669 0.698948
3375 4 0.0369583 0.328277 0.696794
3222 4 0.426723 0.311169 0.68287
3220 2 0.439031 0.3337 0.687899
977 4 0.0637889 0.347018 0.665589
4559 4 0.0690962 0.352265 0.683159
885 4 0.0869172 0.345443 0.743914
4558 2 0.0938121 0.350854 0.681183
4560 4 0.118528 0.349442 0.679208
3381 4 0.138968 0.35028 0.685471
3379 2 0.16314 0.359995 0.686704
3380 4 0.187312 0.369711 0.687937
3221 4 0.451338 0.356232 0.692929
4090 2 0.0296351 0.490085 0.693412
4492 2 0.00554518 0.422851 0.741529
4493 4 0.030303 0.421311 0.742348
1956 4 0.0433109 0.432857 0.754576
4092 4 0.00952504 0.482864 0.679174
993 4 0.386428 0.446624 0.684286
991 2 0.40734 0.447 0.698056
992 4 0.428252 0.447376 0.711826
942 4 0.447118 0.453074 0.719506
940 2 0.471609 0.460439 0.71581
941 4 0.4961 0.467805 0.712114
2322 4 0.22079 0.0643306 0.750781
4529 4 0.202794 0.0593602 0.818584
4528 2 0.223922 0.0708869 0.828705
3306 4 0.31021 0.0738123 0.832173
1023 4 0.324193 0.0225868 0.759229
3304 2 0.287475 0.0814247 0.834992
2348 4 0.406682 0.00385687 0.778592
194 3 0.422663 0.0734976 0.819052
3764 4 0.412253 0.0548946 0.822017
2037 4 0.391033 0.0071409 0.787469
3763 2 0.431797 0.045266 0.811821
3765 4 0.451342 0.0356375 0.801624
1994 4 0.470496 0.0401096 0.796495
1993 2 0.491069 0.0535336 0.805739
3077 4 0.0203472 0.123634 0.826473
1166 4 0.0675384 0.156634 0.83173
191 1 0.417616 0.0937544 0.827547
192 3 0.412434 0.107094 0.810077
3018 4 0.017819 0.180641 0.830832
3016 2 0.0332853 0.200187 0.822408
3482 4 0.0844106 0.170275 0.827245
3017 4 0.0487515 0.219734 0.813984
1620 4 0.0625572 0.235999 0.814871
3481 2 0.105094 0.185657 0.821437
3483 4 0.125777 0.20104 0.815629
3287 4 0.145187 0.205745 0.812767
3286 2 0.163111 0.192426 0.82093
3288 4 0.181036 0.179107 0.829094
1067 4 0.303967 0.24709 0.77147
1179 4 0.39046 0.203187 0.780031
1177 2 0.406041 0.204616 0.79967
1178 4 0.421622 0.206046 0.819309
833 4 0.437939 0.197801 0.825736
832 2 0.462492 0.203731 0.830384
3251 4 0.499149 0.193466 0.788942
3250 2 0.496996 0.203829 0.766442
834 4 0.487045 0.209661 0.835033
1208 4 0.0163406 0.261469 0.794329
1619 4 0.0358572 0.266929 0.789987
800 4 0.00583233 0.33059 0.802704
1618 2 0.0492072 0.251464 0.802429
1066 2 0.328644 0.253738 0.768193
1068 4 0.353322 0.260386 0.764915
1298 4 0.373855 0.262867 0.763493