ITEM: TIMESTEP
2091000
ITEM: NUMBER OF ATOMS
4590
ITEM: BOX BOUNDS xy xz yz pp pp pp
-9.9985700000000008e+00 9.9985700000000008e+00 0.0000000000000000e+00
-9.9985700000000008e+00 9.9985700000000008e+00 0.0000000000000000e+00
-9.9985700000000008e+00 9.9985700000000008e+00 0.0000000000000000e+00
ITEM: ATOMS id type xs ys zs
1875 4 0.0773087 0.0729811 0.0777482
1651 2 0.119611 0.0665211 0.0656945
1652 4 0.14413 0.0620527 0.06368
1653 4 0.0950924 0.0709895 0.0677091
2469 4 0.157819 0.0584464 0.0775952
2467 2 0.175018 0.0765944 0.0777541
3269 4 0.402288 0.0277687 0.0262086
3068 4 0.392041 0.0227624 0.0100543
3067 2 0.370268 0.0129936 0.00259082
3268 2 0.424035 0.0276838 0.0138707
3270 4 0.445783 0.0275989 0.00153269
809 4 0.00721704 0.100947 0.0365713
1247 4 0.113075 0.154925 0.0772011
1250 4 0.108635 0.166214 0.0604403
2468 4 0.192218 0.0947424 0.0779129
2466 4 0.19949 0.112793 0.0819792
492 4 0.239689 0.182134 0.0683141
490 2 0.259656 0.168189 0.0626565
491 4 0.279624 0.154244 0.0569989
1759 2 0.477079 0.0968817 0.0371541
1761 4 0.467596 0.106126 0.015946
103 3 0.49401 0.158161 0.0444215
1760 4 0.486562 0.0876371 0.0583622
1251 4 0.0636171 0.182083 0.0753479
1249 2 0.0861262 0.174148 0.0678941
2442 4 0.219167 0.185284 0.0720929
2440 2 0.197671 0.174418 0.0788043
3198 4 0.262412 0.223066 0.0235291
2876 4 0.274461 0.231892 0.0382288
2875 2 0.290338 0.23648 0.0569919
2877 4 0.306216 0.241069 0.0757549
2652 4 0.325041 0.235257 0.0681201
526 2 0.397635 0.246355 0.0437458
527 4 0.374244 0.249177 0.0353752
2650 2 0.345316 0.233152 0.0536401
2651 4 0.365591 0.231047 0.0391601
102 3 0.472069 0.174887 0.0699448
528 4 0.421026 0.243532 0.0521164
456 4 0.431184 0.225715 0.0550351
454 2 0.445594 0.21562 0.0728009
101 1 0.481586 0.177184 0.0491292
104 3 0.464712 0.179718 0.0334045
105 3 0.495104 0.195512 0.0490426
670 2 0.0686224 0.314013 0.0312953
672 4 0.0622837 0.304661 0.00898991
671 4 0.074961 0.323366 0.0536007
2771 4 0.396448 0.301348 0.0662316
2522 4 0.403755 0.315193 0.0535774
2770 2 0.380032 0.315703 0.0784651
2521 2 0.42547 0.325119 0.0461527
2523 4 0.447185 0.335045 0.0387279
2726 4 0.0710143 0.340667 0.0638523
2725 2 0.0508969 0.355483 0.0648281
2727 4 0.0307795 0.370298 0.065804
2747 4 0.0166741 0.356944 0.0670205
2583 4 0.134813 0.42325 0.00903085
1550 4 0.305529 0.36688 0.0316357
596 4 0.30572 0.386401 0.0387687
595 2 0.315178 0.404543 0.0531434
1549 2 0.328485 0.358238 0.026785
597 4 0.324636 0.422684 0.0675181
1551 4 0.35144 0.349596 0.0219342
3542 4 0.359401 0.365178 0.032975
3541 2 0.383647 0.366493 0.0389422
3543 4 0.407892 0.367808 0.0449094
1466 4 0.418534 0.36696 0.0617216
3339 4 0.454541 0.32754 0.0213454
3337 2 0.471988 0.34542 0.0202871
1465 2 0.425075 0.389444 0.0704912
1467 4 0.431615 0.411927 0.0792609
3338 4 0.489434 0.3633 0.0192289
1871 4 0.0419475 0.456035 0.0141937
1870 2 0.0651633 0.452321 0.0227044
2933 4 0.0300263 0.467472 0.00329384
2932 2 0.0102505 0.461082 0.0171969
1872 4 0.0883791 0.448606 0.0312151
2582 4 0.0955727 0.432178 0.0387158
2581 2 0.115193 0.427714 0.0238733
75 3 0.131969 0.471682 0.0838677
73 3 0.155426 0.501039 0.0815053
3636 4 0.172177 0.444649 0.99645
3634 2 0.19372 0.438131 0.00733911
3635 4 0.215264 0.431614 0.018228
4304 4 0.221307 0.427555 0.0363831
4303 2 0.242901 0.42668 0.048957
1571 4 0.243401 0.48752 0.0548867
1570 2 0.224135 0.476051 0.0659547
1572 4 0.20487 0.464583 0.0770227
4305 4 0.264495 0.425804 0.061531
3709 2 0.279996 0.499555 0.0379976
3711 4 0.262488 0.484921 0.0482193
3390 4 0.36164 0.463506 0.0799464
3000 4 0.35522 0.481923 0.082734
243 4 0.435427 0.491988 0.0409576
123 3 0.0763993 0.0227928 0.0814523
2855 4 0.0739603 0.0213809 0.139604
124 3 0.0771368 0.0200052 0.119348
125 3 0.0906552 0.0507269 0.102287
121 1 0.0882488 0.0281383 0.100672
122 3 0.109042 0.0183646 0.099548
2745 4 0.237958 0.0432472 0.172247
3767 4 0.240576 0.0407267 0.152822
2949 4 0.298561 0.0283321 0.128843
3766 2 0.262727 0.0424002 0.141345
3768 4 0.284878 0.0440737 0.129868
2947 2 0.320604 0.0320783 0.117651
2948 4 0.342647 0.0358245 0.10646
377 4 0.360235 0.035278 0.0962095
376 2 0.373666 0.0552298 0.103046
378 4 0.387096 0.0751817 0.109882
2518 2 0.484839 0.060048 0.159782
2519 4 0.463767 0.0562193 0.146878
1873 2 0.0673427 0.0910589 0.0918568
333 4 0.0324372 0.105778 0.0860435
1874 4 0.0573767 0.109137 0.105965
331 2 0.0137812 0.119264 0.0958032
2516 4 0.0710173 0.111319 0.120318
332 4 0.995125 0.132751 0.105563
1246 2 0.137634 0.152522 0.0812334
2515 2 0.0877584 0.129085 0.12573
2517 4 0.1045 0.146851 0.131142
2478 4 0.125096 0.147131 0.127241
2476 2 0.142831 0.134512 0.139545
2477 4 0.160566 0.121893 0.15185
2616 4 0.102242 0.151495 0.150947
2441 4 0.176176 0.163551 0.0855157
2465 4 0.243637 0.115841 0.10527
2464 2 0.221563 0.114317 0.0936247
1248 4 0.162193 0.150119 0.0852657
1373 4 0.243501 0.127945 0.120049
1372 2 0.263483 0.124786 0.134744
1374 4 0.283464 0.121627 0.14944
582 4 0.286845 0.103897 0.15788
580 2 0.303307 0.0984159 0.175883
2838 4 0.330487 0.150216 0.136571
750 4 0.370229 0.0994067 0.134408
748 2 0.355846 0.0904194 0.15278
520 2 0.411925 0.12594 0.1428
2717 4 0.398316 0.0785884 0.0918219
522 4 0.389805 0.114849 0.146386
2836 2 0.341067 0.145234 0.158672
2718 4 0.437575 0.107963 0.101652
2716 2 0.417945 0.0932757 0.0967372
521 4 0.434045 0.137031 0.139213
624 4 0.439185 0.15385 0.128511
2976 4 0.0295403 0.200424 0.123536
836 4 0.0377372 0.216116 0.132394
835 2 0.051834 0.208548 0.151608
2974 2 0.00796664 0.20397 0.111403
2615 4 0.0851036 0.195459 0.167503
2614 2 0.093673 0.173477 0.159225
2776 2 0.236239 0.171659 0.160113
2777 4 0.216073 0.168248 0.14573
2453 4 0.201174 0.173656 0.157817
1479 4 0.257927 0.207545 0.121999
1477 2 0.278776 0.194043 0.124867
1478 4 0.299624 0.180541 0.127735
845 4 0.369992 0.179933 0.120136
844 2 0.384063 0.200596 0.119629
846 4 0.398134 0.221258 0.119122
517 2 0.344191 0.240781 0.153643
455 4 0.460003 0.205524 0.0905667
622 2 0.450537 0.173381 0.117794
623 4 0.46189 0.192912 0.107078
351 4 0.31168 0.256624 0.144845
350 4 0.295298 0.302164 0.132259
349 2 0.303489 0.279394 0.138552
524 4 0.310621 0.313104 0.124724
523 2 0.333154 0.3207 0.116995
518 4 0.332071 0.259362 0.142108
609 4 0.408505 0.265042 0.135351
607 2 0.392965 0.284583 0.136706
2569 2 0.356848 0.313952 0.166812
2570 4 0.373914 0.31947 0.149392
608 4 0.377425 0.304124 0.13806
729 4 0.473186 0.350562 0.127575
727 2 0.49612 0.342788 0.121348
4211 4 0.0483202 0.413478 0.143618
678 4 0.00647086 0.399817 0.150418
296 4 0.292719 0.35597 0.172508
2772 4 0.363617 0.330058 0.0906985
525 4 0.355687 0.328296 0.109266
2968 2 0.449565 0.33456 0.15414
2970 4 0.470937 0.337196 0.141433
4210 2 0.0670248 0.422486 0.129684
3671 4 0.0789969 0.439386 0.0975925
3672 4 0.119569 0.468617 0.0979904
2918 4 0.131655 0.42867 0.156662
3670 2 0.0992829 0.454002 0.0977915
4212 4 0.0857294 0.431495 0.115749
2917 2 0.14526 0.422118 0.136732
2919 4 0.158864 0.415566 0.116803
648 4 0.161357 0.436844 0.111585
74 3 0.1342 0.495902 0.112609
71 1 0.134995 0.493529 0.089541
647 4 0.186011 0.466982 0.0802049
646 2 0.173684 0.451913 0.0958949
4005 4 0.214517 0.498954 0.170674
3389 4 0.339093 0.418916 0.0819924
735 4 0.411562 0.445206 0.168058
3388 2 0.350366 0.441211 0.0809694
2998 2 0.349793 0.499884 0.0992603
1270 2 0.0460726 0.0830577 0.224041
1272 4 0.0683217 0.0757227 0.215302
2545 2 0.136438 0.0645398 0.255653
2546 4 0.115693 0.0507942 0.258079
3722 4 0.0961874 0.0518576 0.252562
2743 2 0.213814 0.0404138 0.178098
2737 2 0.188448 0.0510941 0.246253
2744 4 0.18967 0.0375805 0.183948
2738 4 0.211445 0.041322 0.245351
427 2 0.304257 0.0215151 0.25232
4353 4 0.357613 0.0696793 0.174721
4352 4 0.365896 0.0213019 0.184301
4351 2 0.361755 0.0454906 0.179511
722 4 0.389007 0.0592428 0.218214
721 2 0.409923 0.0653592 0.205952
1806 4 0.369564 0.000874463 0.24238
2909 4 0.465499 0.0147076 0.24087
1505 4 0.500008 0.00423854 0.161726
1504 2 0.476603 0.996273 0.165458
723 4 0.430838 0.0714756 0.193691
2574 4 0.00973273 0.0864112 0.219815
1271 4 0.0238235 0.0903927 0.23278
3677 4 0.0823637 0.0831459 0.227017
3676 2 0.100725 0.100084 0.228096
3678 4 0.119086 0.117023 0.229175
2879 4 0.13877 0.11477 0.230596
2878 2 0.161199 0.111706 0.241216
604 2 0.222338 0.1011 0.244101
605 4 0.201485 0.104733 0.257409
606 4 0.243191 0.0974664 0.230793
581 4 0.31977 0.0929346 0.193887
730 2 0.283186 0.119327 0.230412
731 4 0.262778 0.10557 0.226002
732 4 0.303594 0.133083 0.234821
749 4 0.341463 0.0814321 0.171152
2837 4 0.351646 0.140252 0.180772
419 4 0.355082 0.147254 0.198749
418 2 0.376396 0.138659 0.208601
420 4 0.397709 0.130064 0.218453
177 3 0.409146 0.13444 0.233171
176 1 0.423501 0.151819 0.23776
179 3 0.44392 0.1431 0.244502
1747 2 0.462129 0.1656 0.193358
1749 4 0.483755 0.160327 0.18197
459 4 0.497528 0.152272 0.170298
837 4 0.0659308 0.200979 0.170822
2671 2 0.0847868 0.204839 0.228252
2789 4 0.0404197 0.205832 0.23864
2673 4 0.0599838 0.20659 0.230885
2788 2 0.0174158 0.20006 0.246558
2950 2 0.133858 0.201785 0.204861
2951 4 0.152905 0.187478 0.197263
2454 4 0.1612 0.172628 0.187845
2952 4 0.114812 0.216091 0.21246
2672 4 0.10959 0.203088 0.22562
2452 2 0.181187 0.173142 0.172831
2778 4 0.256406 0.17507 0.174495
2930 4 0.258778 0.192393 0.182472
2929 2 0.280107 0.194344 0.195373
2931 4 0.301437 0.196295 0.208275
519 4 0.35631 0.2222 0.165178
413 4 0.401844 0.234701 0.214179
414 4 0.36995 0.217722 0.179608
412 2 0.385897 0.226211 0.196893
2462 4 0.416313 0.230889 0.19974
180 3 0.426251 0.164431 0.218997
1748 4 0.440502 0.170873 0.204747
2461 2 0.440815 0.235525 0.201576
2463 4 0.465317 0.240161 0.203411
1198 2 0.491587 0.240421 0.237705
297 4 0.32667 0.321882 0.186148
2705 4 0.286958 0.323246 0.235022
2571 4 0.339782 0.308434 0.184232
2969 4 0.428192 0.331924 0.166846
1199 4 0.474204 0.245496 0.220464
739 2 0.141317 0.369479 0.238614
741 4 0.142454 0.36493 0.214054
3705 4 0.160827 0.368607 0.205947
3703 2 0.185383 0.367978 0.20128
3704 4 0.209939 0.367349 0.196612
303 4 0.220446 0.367952 0.180551
301 2 0.235778 0.387652 0.179119
295 2 0.309694 0.338926 0.179328
2706 4 0.324989 0.355571 0.238119
2704 2 0.305973 0.339408 0.236571
302 4 0.251109 0.407351 0.177688
2472 4 0.396574 0.342468 0.224496
2470 2 0.412074 0.338316 0.205321
4008 4 0.384036 0.342138 0.239932
734 4 0.398164 0.397111 0.17091
4006 2 0.360031 0.345644 0.245988
3404 4 0.356971 0.367865 0.206457
3403 2 0.36766 0.383703 0.19033
3405 4 0.37835 0.399541 0.174204
2471 4 0.427574 0.334163 0.186145
777 4 0.119395 0.423921 0.172344
775 2 0.111979 0.428432 0.195792
776 4 0.104563 0.432943 0.219241
4003 2 0.215279 0.48116 0.188223
4004 4 0.216042 0.463365 0.205772
1856 4 0.233673 0.473332 0.211534
1664 4 0.241212 0.423092 0.16986
1855 2 0.247475 0.464386 0.230367
1663 2 0.260353 0.437478 0.177061
1665 4 0.279494 0.451864 0.184262
3830 4 0.29626 0.454379 0.193684
3829 2 0.315063 0.470528 0.190392
1857 4 0.261277 0.45544 0.2492
3831 4 0.333865 0.486678 0.187101
374 4 0.257085 0.436823 0.256262
733 2 0.404863 0.421158 0.169484
2874 4 0.463676 0.43271 0.2333
3696 4 0.472167 0.428436 0.215914
3694 2 0.492045 0.417109 0.205828
545 4 0.0114695 0.0101076 0.321332
546 4 0.0517073 0.0386701 0.313217
247 2 0.0523469 0.0758909 0.317177
249 4 0.0518356 0.0528623 0.326902
544 2 0.0315884 0.0243888 0.317275
2547 4 0.157183 0.0782853 0.253227
3723 4 0.0914595 0.00482157 0.268874
3721 2 0.0938235 0.0283396 0.260718
2739 4 0.165451 0.0608661 0.247156
2757 4 0.228388 0.0332388 0.253482
2113 2 0.237953 0.0308132 0.316172
2115 4 0.217214 0.0186462 0.323033
1128 4 0.201634 0.0194124 0.335099
405 4 0.173964 0.0735949 0.288856
403 2 0.197898 0.0787426 0.29394
429 4 0.295295 0.0448216 0.25361
2114 4 0.258691 0.0429802 0.309311
2755 2 0.252593 0.0388782 0.256218
2756 4 0.276799 0.0445176 0.258953
1184 4 0.27809 0.0414932 0.306534
1183 2 0.302505 0.0466808 0.305062
1185 4 0.326921 0.0518684 0.303591
342 4 0.341096 0.0651781 0.297005
3477 4 0.394276 0.0517787 0.301921
340 2 0.361441 0.051006 0.300234
341 4 0.381786 0.0368339 0.303464
3475 2 0.417559 0.0600461 0.298083
2908 2 0.461825 0.00816086 0.26472
3476 4 0.440843 0.0683136 0.294246
1244 4 0.448714 0.0852067 0.285956
1243 2 0.470787 0.0772613 0.277306
1245 4 0.492861 0.0693159 0.268655
2869 2 0.454471 0.0149615 0.330577
2910 4 0.458152 0.00161416 0.28857
4307 4 0.00354294 0.116604 0.271249
4306 2 0.0237097 0.114989 0.285941
4308 4 0.0438764 0.113374 0.300633
248 4 0.0528582 0.0989196 0.307451
28 3 0.12563 0.100896 0.296939
30 3 0.160356 0.0864849 0.294917
27 3 0.153672 0.115773 0.317063
26 1 0.14833 0.105703 0.297083
29 3 0.153458 0.120246 0.279745
2880 4 0.183627 0.108643 0.251836
591 4 0.238573 0.0911528 0.308197
404 4 0.221832 0.0838902 0.299024
2849 4 0.302167 0.0950647 0.314865
589 2 0.263289 0.0917812 0.30447
590 4 0.288005 0.0924096 0.300742
2848 2 0.326842 0.0955069 0.318881
3572 4 0.361288 0.106885 0.338701
3571 2 0.381718 0.119216 0.331234
3573 4 0.402148 0.131547 0.323768
685 2 0.407107 0.159373 0.296617
687 4 0.400221 0.150215 0.318841
1190 4 0.448932 0.156438 0.256417
1189 2 0.470505 0.149026 0.266657
1191 4 0.492077 0.141614 0.276897
402 4 0.482259 0.16785 0.303657
513 4 0.333554 0.224016 0.280978
178 3 0.414421 0.164764 0.254741
512 4 0.356414 0.179596 0.278731
511 2 0.344984 0.201806 0.279855
283 2 0.400825 0.209398 0.271339
285 4 0.402494 0.184653 0.274516
284 4 0.399157 0.234143 0.268162
686 4 0.413992 0.168531 0.274392
2568 4 0.273514 0.337978 0.312823
290 4 0.283782 0.324513 0.302885
289 2 0.306663 0.331887 0.296011
291 4 0.329544 0.33926 0.289137
2786 4 0.326565 0.277572 0.333142
118 3 0.468621 0.304414 0.331989
344 4 0.00913523 0.335054 0.32042
2540 4 0.0152477 0.382193 0.25826
2681 4 0.0242245 0.337104 0.308394
2680 2 0.0250301 0.352537 0.288739
2682 4 0.0258358 0.367971 0.269083
3601 2 0.999187 0.412796 0.325886
1757 4 0.0372309 0.41882 0.318412
1756 2 0.0593967 0.412843 0.308505
740 4 0.140181 0.374028 0.263175
375 4 0.267781 0.412794 0.298793
4007 4 0.336027 0.34915 0.252044
339 4 0.386468 0.348014 0.303551
338 4 0.338949 0.332682 0.306318
337 2 0.362708 0.340348 0.304934
2556 4 0.401564 0.345581 0.291821
5 3 0.405367 0.411504 0.300089
1575 4 0.385486 0.414302 0.298186
2851 2 0.481909 0.353773 0.30326
2852 4 0.46338 0.363395 0.317018
2554 2 0.422641 0.353315 0.302827
2555 4 0.443718 0.361049 0.313833
2873 4 0.441302 0.416746 0.275076
2 3 0.442203 0.409123 0.294581
1758 4 0.0815625 0.406865 0.298599
4368 4 0.300322 0.473487 0.277875
373 2 0.262433 0.424809 0.277528
4366 2 0.320876 0.476343 0.263926
1574 4 0.338742 0.431121 0.292446
1573 2 0.362114 0.422711 0.295316
4367 4 0.34143 0.479199 0.249978
1381 2 0.376857 0.486301 0.274931
1382 4 0.358833 0.4864 0.257602
1383 4 0.394882 0.486203 0.29226
1309 2 0.417104 0.493496 0.310831
2872 2 0.452489 0.424728 0.254188
4 3 0.425656 0.442861 0.29532
3997 2 0.488237 0.470264 0.302717
3 3 0.429101 0.422447 0.327192
1 1 0.425406 0.421469 0.304305
3999 4 0.479149 0.490483 0.291151
1310 4 0.436488 0.482363 0.322034
4032 4 0.451725 0.489746 0.331989
3998 4 0.497325 0.450045 0.314283
3797 4 0.0289028 0.00736895 0.40188
683 4 0.335751 0.0627109 0.3334
682 2 0.34422 0.0576723 0.35638
1060 2 0.404405 0.0163644 0.413974
1062 4 0.417242 0.0224896 0.393411
2715 4 0.366837 0.0589755 0.390947
684 4 0.352689 0.0526336 0.379361
2713 2 0.377323 0.0754109 0.406604
1524 4 0.438508 0.00833535 0.363093
162 3 0.42299 0.0397973 0.386677
165 3 0.446851 0.0564517 0.363306
161 1 0.437341 0.0575697 0.383969
164 3 0.453775 0.0564992 0.400316
2871 4 0.445719 0.0227603 0.352663
2646 4 0.471339 0.0610851 0.409765
2644 2 0.493234 0.073156 0.409447
163 3 0.425326 0.0773051 0.386098
2816 4 0.309396 0.114957 0.398577
2815 2 0.308229 0.103497 0.420769
2850 4 0.351517 0.0959492 0.322897
2714 4 0.387808 0.0918463 0.42226
2502 4 0.406889 0.0848407 0.421381
471 4 0.00502137 0.216611 0.397409
470 4 0.0385424 0.246119 0.374906
469 2 0.0217819 0.231365 0.386158
2450 4 0.14305 0.242915 0.367827
2449 2 0.118654 0.248381 0.367406
2700 4 0.157742 0.230399 0.369227
2698 2 0.178162 0.242087 0.360768
480 4 0.263551 0.256986 0.363279
1394 4 0.281459 0.247941 0.362284
726 4 0.46926 0.212953 0.342462
724 2 0.462303 0.236942 0.343602
2711 4 0.00375093 0.31857 0.402099
3631 2 0.0649443 0.266726 0.392083
3633 4 0.0467846 0.265433 0.409222
3632 4 0.083104 0.268019 0.374944
2451 4 0.0942594 0.253847 0.366986
2831 4 0.141001 0.334135 0.399565
2830 2 0.164801 0.329072 0.39381
2699 4 0.198583 0.253776 0.352308
479 4 0.215968 0.264951 0.350122
478 2 0.239759 0.260968 0.356701
2832 4 0.188601 0.324009 0.388056
2499 4 0.239533 0.316956 0.370441
2497 2 0.215642 0.311681 0.375593
2498 4 0.191751 0.306405 0.380745
2566 2 0.260742 0.329272 0.332476
2567 4 0.24797 0.320567 0.35213
1393 2 0.294132 0.262267 0.34618
1395 4 0.306805 0.276593 0.330076
410 4 0.331957 0.295969 0.395711
1034 4 0.34647 0.306861 0.40208
411 4 0.345481 0.248958 0.406102
409 2 0.338719 0.272464 0.400907
1032 4 0.391081 0.266981 0.339934
2787 4 0.372456 0.260392 0.343125
2785 2 0.34951 0.268982 0.338134
1033 2 0.350692 0.325752 0.386253
1030 2 0.41548 0.270282 0.344288
117 3 0.444162 0.291504 0.35744
372 4 0.493107 0.292055 0.378424
1031 4 0.439879 0.273583 0.348643
725 4 0.455347 0.260932 0.344742
120 3 0.473261 0.270388 0.347426
116 1 0.466325 0.291734 0.351285
119 3 0.478783 0.301123 0.368462
343 2 0.993892 0.327094 0.338571
3602 4 0.0212285 0.424435 0.327856
2710 2 0.020969 0.336457 0.405062
3594 4 0.0139924 0.387511 0.386394
3640 2 0.0615483 0.388627 0.393602
3641 4 0.0751638 0.382406 0.373574
2712 4 0.0381871 0.354343 0.408025
3592 2 0.00461298 0.399838 0.406021
3642 4 0.0479327 0.394847 0.413629
2925 4 0.307034 0.405382 0.424468
585 4 0.374562 0.340137 0.375903
1035 4 0.354914 0.344643 0.370425
583 2 0.388199 0.360072 0.369436
584 4 0.401835 0.380007 0.362968
893 4 0.407875 0.391261 0.378319
570 4 0.494291 0.402587 0.3504
568 2 0.472458 0.409969 0.340703
892 2 0.42355 0.403064 0.362821
4323 4 0.022479 0.464607 0.359392
4321 2 0.0056312 0.450815 0.371685
447 4 0.0373889 0.464044 0.372345
445 2 0.0614644 0.459635 0.367233
2825 4 0.148809 0.434315 0.374841
2824 2 0.126953 0.445428 0.369941
2826 4 0.105097 0.456541 0.365041
446 4 0.0855399 0.455227 0.362122
1418 4 0.296726 0.490932 0.386788
2532 4 0.412478 0.50379 0.367944
549 4 0.499712 0.457837 0.331933
569 4 0.450625 0.417351 0.331006
894 4 0.439224 0.414867 0.347324
3796 2 0.00608617 0.0107711 0.411524
2900 4 0.044345 0.00336162 0.413619
2899 2 0.06062 0.0182342 0.425413
1180 2 0.0130484 0.0789185 0.45513
1181 4 0.0311452 0.0693429 0.469482
2901 4 0.0768949 0.0331067 0.437207
3174 4 0.089783 0.0432823 0.448469
3173 4 0.120632 0.0507404 0.487114
3172 2 0.105207 0.0470113 0.467792
841 2 0.410817 0.00819345 0.467956
1061 4 0.391567 0.0102392 0.434538
842 4 0.395264 0.0196856 0.452107
2586 4 0.0890613 0.14681 0.483462
2683 2 0.0524981 0.166142 0.488634
2685 4 0.0716391 0.154305 0.477739
2584 2 0.110072 0.143137 0.49651
2817 4 0.307062 0.0920378 0.442962
2500 2 0.422805 0.101488 0.431114
3033 4 0.492392 0.12762 0.466228
2501 4 0.438722 0.118136 0.440847
3032 4 0.44381 0.132486 0.455419
3031 2 0.468101 0.130053 0.460823
765 4 0.022279 0.193567 0.493717
2684 4 0.0333571 0.17798 0.499528
3461 4 0.338064 0.238739 0.421203
3460 2 0.357723 0.22724 0.431521
3462 4 0.377382 0.215741 0.441839
3497 4 0.394532 0.225814 0.438151
3496 2 0.41603 0.219932 0.426819
3081 4 0.454498 0.2185 0.425317
3079 2 0.476918 0.20764 0.423166
3498 4 0.437528 0.21405 0.415487
3059 4 0.467912 0.256771 0.490686
364 2 0.0183805 0.28619 0.428486
365 4 0.041725 0.280952 0.421222
453 4 0.135168 0.323253 0.415154
451 2 0.114431 0.309463 0.412916
452 4 0.0936942 0.295673 0.410678
305 4 0.368394 0.28876 0.44298
304 2 0.387535 0.276109 0.452916
306 4 0.406677 0.263458 0.462852
311 4 0.486694 0.26218 0.486051
3058 2 0.443957 0.257253 0.483535
3060 4 0.420003 0.257736 0.476384
3423 4 0.0504088 0.408385 0.427228
408 4 0.0979418 0.354218 0.497754
488 4 0.212804 0.366413 0.4646
487 2 0.234409 0.364442 0.452169
489 4 0.256015 0.36247 0.439739
2923 2 0.290465 0.387962 0.431338
2924 4 0.273896 0.370542 0.438208
3421 2 0.0585889 0.429447 0.437936
3973 2 0.041404 0.464372 0.489354
3422 4 0.066769 0.450509 0.448643
3974 4 0.0347207 0.488419 0.487848
3975 4 0.0480873 0.440326 0.490861
4058 4 0.258733 0.488063 0.507282
2551 2 0.0763544 0.0169009 0.532568
2194 2 0.0178072 0.0119674 0.524522
2195 4 0.0427117 0.0112051 0.522431
2553 4 0.0611866 0.00716435 0.515238
2552 4 0.0915223 0.0266375 0.549898
762 4 0.0987431 0.0431251 0.557461
939 4 0.147844 0.139464 0.52084
2585 4 0.131083 0.139464 0.509558
937 2 0.167499 0.148301 0.50816
938 4 0.187153 0.157138 0.49548
2244 4 0.0759253 0.262384 0.582867
806 4 0.087597 0.278554 0.582975
803 4 0.144888 0.321102 0.531822
805 2 0.112061 0.283539 0.581623
807 4 0.136526 0.288525 0.580272
802 2 0.168116 0.313307 0.526836
804 4 0.191345 0.305512 0.521849
1238 4 0.209221 0.299397 0.516579
1237 2 0.220943 0.298158 0.53863
1239 4 0.232665 0.296918 0.560681
891 4 0.246167 0.310469 0.564564
889 2 0.270766 0.314119 0.567164
890 4 0.295365 0.317768 0.569765
82 3 0.313652 0.311328 0.562352
85 3 0.3326 0.295833 0.534178
81 1 0.334108 0.303196 0.555676
84 3 0.340136 0.285674 0.569642
83 3 0.34979 0.320237 0.557127
3420 4 0.365087 0.309607 0.562939
3418 2 0.389053 0.304501 0.567913
3419 4 0.41302 0.299395 0.572887
1696 2 0.0733948 0.409238 0.508981
3453 4 0.0790846 0.355346 0.569579
3451 2 0.0816847 0.376139 0.555938
1698 4 0.0862372 0.392814 0.522784
3452 4 0.0842848 0.396932 0.542297
407 4 0.129872 0.334072 0.530547
406 2 0.113907 0.344145 0.51415
3464 4 0.143241 0.386717 0.564378
3463 2 0.139158 0.405044 0.580891
3367 2 0.367595 0.403081 0.529809
3368 4 0.388012 0.389426 0.534486
1281 4 0.404677 0.40012 0.531931
539 4 0.329207 0.417526 0.531839
1279 2 0.422713 0.415778 0.539326
792 4 0.0132918 0.462133 0.542172
790 2 0.0341823 0.468805 0.554183
1137 4 0.0692418 0.482748 0.554359
791 4 0.0550728 0.475476 0.566195
1697 4 0.0605524 0.425661 0.495178
1135 2 0.0927735 0.483412 0.562785
1136 4 0.116305 0.484077 0.571212
4215 4 0.253475 0.430025 0.572387
540 4 0.305448 0.459333 0.545565
538 2 0.317327 0.438429 0.538702
4213 2 0.2718 0.445775 0.565956
4214 4 0.290124 0.461525 0.559525
3369 4 0.347178 0.416737 0.525133
1280 4 0.440749 0.431437 0.546722
878 4 0.439971 0.45186 0.548589
877 2 0.463345 0.460357 0.55117
879 4 0.486719 0.468854 0.55375
4324 2 0.0384887 0.062331 0.598405
4326 4 0.0232873 0.0442801 0.606668
3294 4 0.0123527 0.0755661 0.643259
3292 2 0.034527 0.0810439 0.653432
3360 4 0.00996878 0.0316876 0.597189
4116 4 0.00679424 0.0570501 0.641583
760 2 0.0900048 0.0469691 0.58057
761 4 0.0812664 0.0508131 0.603679
3021 4 0.0866215 0.0702784 0.610885
3105 4 0.310287 0.033051 0.643866
4227 4 0.333724 0.00284264 0.614975
2281 2 0.377878 0.0619941 0.63927
3083 4 0.412079 0.0638062 0.638
2282 4 0.397231 0.0716106 0.626695
2283 4 0.358524 0.0523776 0.651845
3082 2 0.435206 0.0574624 0.630924
3084 4 0.458333 0.0511185 0.623848
269 4 0.469644 0.0496078 0.639745
268 2 0.49172 0.0464939 0.628425
4325 4 0.05369 0.080382 0.590143
142 3 0.0106676 0.157798 0.647785
1107 4 0.06953 0.131764 0.625027
1105 2 0.0498284 0.145963 0.630977
3020 4 0.0766338 0.114418 0.63216
1106 4 0.0301268 0.160162 0.636928
3019 2 0.0816276 0.0923482 0.621523
3385 2 0.0427231 0.199635 0.62859
3387 4 0.0428349 0.174797 0.62572
3386 4 0.0426113 0.224473 0.63146
2243 4 0.0536449 0.230723 0.614521
2242 2 0.0647851 0.246554 0.598694
978 4 0.145268 0.30602 0.587627
976 2 0.139354 0.32423 0.603709
3380 4 0.327999 0.32914 0.628374
905 4 0.344438 0.317103 0.630979
904 2 0.345168 0.302632 0.610602
906 4 0.345897 0.28816 0.590226
977 4 0.133439 0.342439 0.61979
997 2 0.202641 0.352426 0.654697
999 4 0.178298 0.357956 0.656129
998 4 0.226983 0.346896 0.653265
1041 4 0.239388 0.355095 0.641823
4446 4 0.205865 0.411061 0.663005
3114 4 0.167228 0.341373 0.652363
1039 2 0.261025 0.367561 0.640536
3381 4 0.298046 0.367287 0.640551
1040 4 0.282661 0.380028 0.63925
3379 2 0.313022 0.348214 0.634463
798 4 0.123487 0.486894 0.590332
3465 4 0.135076 0.423371 0.597403
797 4 0.145748 0.442806 0.598164
796 2 0.134617 0.46485 0.594248
1205 4 0.478863 0.450318 0.593973
772 2 0.455171 0.479244 0.615706
773 4 0.468639 0.459665 0.607929
774 4 0.441704 0.498822 0.623482
3293 4 0.0567012 0.0865217 0.663604
2307 4 0.0310252 0.0752819 0.725146
2305 2 0.00696502 0.0719565 0.71921
3610 2 0.201967 0.00908913 0.692448
3611 4 0.22556 0.0173195 0.69153
4503 4 0.235188 0.00626272 0.707374
4501 2 0.257667 0.0150937 0.7009
3104 4 0.283886 0.0111324 0.680244
3103 2 0.297086 0.0220917 0.662055
4502 4 0.280146 0.0239246 0.694427
4228 2 0.495616 0.00883954 0.681652
4229 4 0.470786 0.00794119 0.684456
3063 4 0.488193 0.0906349 0.699908
954 4 0.0666492 0.0770936 0.677426
141 1 0.00534067 0.148928 0.66833
143 3 0.0245978 0.147774 0.681223
2978 4 0.0392222 0.139354 0.692157
2977 2 0.0636367 0.144032 0.694843
4441 2 0.0397618 0.115788 0.742085
4442 4 0.0372786 0.0931717 0.731717
2979 4 0.0880513 0.14871 0.69753
952 2 0.0842229 0.0814605 0.694667
953 4 0.101797 0.0858274 0.711909
1077 4 0.120781 0.0919223 0.712143
1075 2 0.142805 0.103428 0.714928
1084 2 0.130182 0.162586 0.705915
1086 4 0.106573 0.156785 0.70007
1076 4 0.164829 0.114933 0.717714
1013 4 0.226023 0.166965 0.73284
1012 2 0.231016 0.142468 0.732421
1014 4 0.236008 0.117972 0.732003
533 4 0.311279 0.11734 0.745932
3039 4 0.48962 0.167625 0.709788
1085 4 0.153791 0.168387 0.711759
897 4 0.159936 0.183706 0.723332
896 4 0.208661 0.176329 0.731827
895 2 0.184299 0.180017 0.72758
3252 4 0.230361 0.22635 0.696513
3250 2 0.24886 0.243047 0.698557
2973 4 0.214181 0.234822 0.701384
3038 4 0.491983 0.198715 0.670691
3357 4 0.478781 0.179001 0.721357
3037 2 0.490801 0.18317 0.690239
3355 2 0.471253 0.182651 0.74492
3091 2 0.0243795 0.296471 0.704366
3092 4 0.0464651 0.305716 0.711573
3435 4 0.0643801 0.3022 0.703703
3433 2 0.0857705 0.291041 0.710268
383 4 0.097887 0.27524 0.734621
3434 4 0.107161 0.279882 0.716833
2972 4 0.174777 0.264659 0.708991
2971 2 0.194479 0.24974 0.705187
3251 4 0.267359 0.259744 0.700601
738 4 0.278369 0.267711 0.685254
736 2 0.297427 0.278754 0.697087
2981 4 0.324187 0.307635 0.713964
737 4 0.316485 0.289797 0.70892
2980 2 0.337727 0.308088 0.734979
1299 4 0.0536404 0.336626 0.739629
1297 2 0.0623402 0.35546 0.725672
1068 4 0.0806027 0.381211 0.694364
1298 4 0.07104 0.374293 0.711715
1067 4 0.127263 0.363487 0.697436
3112 2 0.147731 0.346776 0.667055
1066 2 0.103933 0.372349 0.6959
3113 4 0.128235 0.352179 0.681748
4444 2 0.22892 0.410321 0.672651
4523 4 0.186216 0.410979 0.665843
2408 4 0.22297 0.350361 0.755385
1088 4 0.189875 0.405511 0.753363
4361 4 0.392772 0.393831 0.724773
4360 2 0.41406 0.394975 0.737839
2030 4 0.375811 0.394303 0.737531
4362 4 0.435348 0.39612 0.750905
820 2 0.0218587 0.493821 0.714488
822 4 0.034538 0.472342 0.712748
1235 4 0.0534356 0.468582 0.719257
1234 2 0.0734206 0.456554 0.728263
4524 4 0.156178 0.447382 0.682375
885 4 0.151092 0.445072 0.716879
1236 4 0.0934056 0.444526 0.737268
883 2 0.127903 0.437321 0.722111
884 4 0.104714 0.429571 0.727344
1087 2 0.183634 0.41733 0.732231
1089 4 0.177393 0.429149 0.711099
4522 2 0.171197 0.429181 0.674109
4207 2 0.242365 0.428118 0.743802
4209 4 0.256354 0.448585 0.740551
2287 2 0.216438 0.506185 0.728319
4445 4 0.251976 0.409581 0.682297
2061 4 0.258339 0.428326 0.684504
2059 2 0.270764 0.446818 0.695855
2060 4 0.283189 0.465309 0.707206
1170 4 0.302521 0.466782 0.707537
1168 2 0.319656 0.45535 0.721711
1169 4 0.336791 0.443919 0.735884
1904 4 0.347612 0.447518 0.752836
4197 4 0.502957 0.457105 0.73118
207 3 0.0160479 0.0366893 0.82045
817 2 0.15193 0.021205 0.794725
819 4 0.15773 0.0452219 0.790887
886 2 0.172179 0.0751377 0.80903
818 4 0.14613 0.997188 0.798564
887 4 0.173528 0.051233 0.801823
1217 4 0.272071 0.00722343 0.778909
1216 2 0.29502 0.0160622 0.774395
1218 4 0.31797 0.0249011 0.76988
2001 4 0.336642 0.0307023 0.76661
2000 4 0.362249 0.00755862 0.802795
3554 4 0.402262 0.0662006 0.784287
3553 2 0.416107 0.0458484 0.788679
1999 2 0.349445 0.0191305 0.784703
3077 4 0.499712 0.073508 0.800271
3555 4 0.429952 0.0254961 0.793071
3305 4 0.448917 0.0305218 0.80038
3304 2 0.470674 0.0428425 0.800288
3306 4 0.492432 0.0551631 0.800197
1125 4 0.0337874 0.0786893 0.818553
1208 4 0.0477576 0.15625 0.74496
4443 4 0.042245 0.138405 0.752454
888 4 0.17083 0.0990425 0.816236
532 2 0.314402 0.120091 0.770587
534 4 0.317526 0.122841 0.795242
1607 4 0.318136 0.130914 0.813595
1606 2 0.307986 0.141841 0.833664
3281 4 0.379463 0.0873676 0.770413
3280 2 0.371217 0.0956435 0.79252
3282 4 0.36297 0.103919 0.814627
4128 4 0.401883 0.113757 0.784972
4126 2 0.418744 0.12435 0.769851
4127 4 0.435606 0.134942 0.754729
3299 4 0.446149 0.136178 0.772725
3298 2 0.469122 0.139303 0.782088
3300 4 0.492094 0.142429 0.791452
1207 2 0.0279819 0.170659 0.750105
3151 2 0.0776895 0.18665 0.824447
1209 4 0.00820622 0.185069 0.755249
1691 4 0.00524564 0.174318 0.771381
384 4 0.0935531 0.248809 0.77685
3153 4 0.0980119 0.177276 0.813298
779 4 0.116502 0.183448 0.81267
778 2 0.134719 0.198333 0.821141
780 4 0.152936 0.213218 0.829612
1618 2 0.18781 0.194472 0.835789
56 1 0.243451 0.203827 0.824735
58 3 0.225895 0.189619 0.830057
747 4 0.241992 0.242411 0.819301
1620 4 0.207818 0.180785 0.829664
60 3 0.235342 0.224008 0.817982
57 3 0.255672 0.194466 0.807641
481 2 0.316844 0.251846 0.817615
3441 4 0.402784 0.188985 0.821247
924 4 0.366132 0.243938 0.787377
922 2 0.386906 0.236691 0.799257
482 4 0.338299 0.247083 0.829539
2628 4 0.407308 0.186553 0.80149
923 4 0.407679 0.229445 0.811138
2626 2 0.429683 0.181273 0.791656
2627 4 0.452057 0.175993 0.781822
3356 4 0.463725 0.1863 0.768483
3350 4 0.425116 0.233379 0.803291
3349 2 0.438618 0.253029 0.795757
382 2 0.0957201 0.262024 0.755736
1950 4 0.231308 0.3323 0.75797
745 2 0.261759 0.256419 0.813114
746 4 0.281525 0.270426 0.806928
483 4 0.295389 0.25661 0.805691
1132 2 0.324349 0.310061 0.82926
1948 2 0.25394 0.330206 0.768391
1949 4 0.276572 0.328113 0.778813