ITEM: TIMESTEP
2209500
ITEM: NUMBER OF ATOMS
4590
ITEM: BOX BOUNDS xy xz yz pp pp pp
-9.9985700000000008e+00 1.3798026600000000e+01 3.7994565999999992e+00
-9.9985700000000008e+00 9.9985700000000008e+00 0.0000000000000000e+00
-9.9985700000000008e+00 9.9985700000000008e+00 0.0000000000000000e+00
ITEM: ATOMS id type xs ys zs
809 4 0.0210654 0.0701225 0.0483566
123 3 0.0546072 0.0348441 0.0693114
1875 4 0.186983 0.0608466 0.0756505
1653 4 0.198417 0.063134 0.059459
1651 2 0.222386 0.0669839 0.0599868
2469 4 0.265796 0.0732188 0.0583783
2467 2 0.275643 0.084479 0.0772125
1652 4 0.246354 0.0708338 0.0605145
3067 2 0.379937 0.0148323 0.0207397
3068 4 0.401572 0.0231147 0.0164971
3069 4 0.358303 0.00654995 0.0249823
3902 4 0.465783 0.00989021 0.027671
3269 4 0.420702 0.0252446 0.0123016
3901 2 0.487316 0.0132848 0.016634
808 2 0.0389925 0.0816037 0.0577908
2844 4 0.0147344 0.144854 0.0323028
2842 2 0.0151654 0.157704 0.0535583
810 4 0.0569196 0.0930849 0.067225
2928 4 0.349714 0.478729 0.425896
1275 4 0.0675336 0.100893 0.0523279
1274 4 0.0710158 0.149268 0.0521118
1273 2 0.0692747 0.125081 0.0522198
332 4 0.16468 0.15722 0.0732076
2843 4 0.0155964 0.170553 0.0748138
2702 4 0.069534 0.169119 0.056291
2701 2 0.0841973 0.184646 0.0648861
2703 4 0.0988606 0.200174 0.0734813
2781 4 0.115477 0.203739 0.0828704
2779 2 0.138727 0.190278 0.0788904
2780 4 0.161976 0.176818 0.0749104
1247 4 0.330578 0.201943 0.06617
1246 2 0.349227 0.204315 0.0502086
1248 4 0.367876 0.206687 0.0342471
1250 4 0.325054 0.205979 0.0852404
2441 4 0.385888 0.211727 0.0282216
2440 2 0.397725 0.222862 0.0457297
2442 4 0.409563 0.233996 0.0632378
492 4 0.429902 0.225907 0.0661765
490 2 0.443424 0.209428 0.0818491
2640 4 0.102775 0.335882 0.0276768
1293 4 0.119083 0.323503 0.038181
1291 2 0.139068 0.334675 0.0415892
462 4 0.434421 0.335524 0.0331896
460 2 0.456058 0.333194 0.0201303
2638 2 0.0937616 0.353386 0.0107516
3935 4 0.0808331 0.498596 0.371066
1292 4 0.159053 0.345847 0.0449974
563 4 0.172744 0.345964 0.0296904
562 2 0.179948 0.360679 0.0121215
2748 4 0.288144 0.352514 0.0758435
3191 4 0.296396 0.411417 0.0302327
2727 4 0.347784 0.354285 0.081087
2746 2 0.309786 0.360431 0.0810147
3190 2 0.30041 0.397113 0.00976593
2747 4 0.331429 0.368348 0.0861859
3216 4 0.378821 0.348691 0.0183289
670 2 0.424653 0.354741 0.0635049
672 4 0.442034 0.346499 0.04598
2934 4 0.426185 0.404103 0.0128561
3214 2 0.368726 0.336699 0.000209697
2725 2 0.371071 0.35718 0.0880577
3899 4 0.414282 0.396396 0.999864
461 4 0.477695 0.330864 0.00707099
1559 4 0.128275 0.500851 0.0224426
1558 2 0.143596 0.481412 0.0330304
1560 4 0.158918 0.461974 0.0436183
2907 4 0.170839 0.427159 0.00751362
3576 4 0.172674 0.458925 0.0589873
2905 2 0.185728 0.425534 0.0277611
3574 2 0.191785 0.469905 0.0664286
2906 4 0.200616 0.423909 0.0480086
3230 4 0.217173 0.43201 0.0481444
3229 2 0.242371 0.426389 0.0447793
3575 4 0.210895 0.480884 0.0738699
1121 4 0.317575 0.425818 0.0820908
3231 4 0.267569 0.420767 0.0414141
1122 4 0.286831 0.424555 0.0428585
1120 2 0.302203 0.425186 0.0624746
3550 2 0.344012 0.447656 0.0818014
2514 4 0.387802 0.459717 0.0108778
903 4 0.386956 0.463176 0.0310204
901 2 0.405445 0.476594 0.0326204
3551 4 0.352153 0.467423 0.0721607
902 4 0.423933 0.490011 0.0342204
133 3 0.439761 0.493187 0.0229085
2932 2 0.444378 0.417865 0.0111604
2933 4 0.462571 0.431626 0.0094648
3100 2 0.467557 0.45418 0.0656068
134 3 0.46698 0.485348 0.0497592
3101 4 0.466712 0.466498 0.0438993
1871 4 0.479838 0.42713 0.0176495
3102 4 0.468403 0.441861 0.0873144
131 1 0.460159 0.497945 0.0307829
132 3 0.476517 0.492519 0.0145112
125 3 0.0551873 0.00434564 0.0907659
122 3 0.0506203 0.0380897 0.106604
121 1 0.0612669 0.0247949 0.089679
124 3 0.0846435 0.0225638 0.0922489
3766 2 0.32253 0.0399504 0.157943
3768 4 0.347 0.0383647 0.151733
2949 4 0.367425 0.035614 0.147983
2947 2 0.390935 0.0392914 0.142923
2948 4 0.414445 0.0429687 0.137862
377 4 0.430352 0.0533325 0.133163
376 2 0.448502 0.0616995 0.120298
378 4 0.466652 0.0700665 0.107432
2717 4 0.483744 0.0788165 0.104341
2679 4 0.0480362 0.0841053 0.110365
2677 2 0.0643648 0.0877902 0.128299
2678 4 0.0806933 0.0914751 0.146233
1873 2 0.173359 0.0797301 0.0886063
331 2 0.161669 0.134123 0.0792869
333 4 0.158658 0.111025 0.0853663
1874 4 0.159734 0.0986135 0.101562
2516 4 0.204462 0.0948728 0.121697
2515 2 0.206398 0.108047 0.14248
2517 4 0.208334 0.121222 0.163262
2616 4 0.217277 0.13589 0.155727
2614 2 0.239036 0.144462 0.157898
2615 4 0.260795 0.153035 0.160068
2478 4 0.281321 0.120415 0.14294
2468 4 0.28549 0.0957393 0.0960467
2476 2 0.299494 0.12758 0.156806
2466 4 0.30614 0.0967906 0.101487
2464 2 0.330712 0.0951963 0.107289
2465 4 0.355283 0.0936021 0.113091
1373 4 0.37343 0.0988326 0.108622
1372 2 0.388045 0.110102 0.123369
1374 4 0.402659 0.121371 0.138115
582 4 0.408135 0.107548 0.151575
1477 2 0.455738 0.154935 0.11776
1479 4 0.459935 0.133999 0.131428
750 4 0.469981 0.118877 0.141338
748 2 0.469811 0.104571 0.16164
2716 2 0.498646 0.091193 0.0911382
3285 4 0.00876669 0.182197 0.0900398
557 4 0.108309 0.210113 0.137984
3210 4 0.0930241 0.21917 0.14957
556 2 0.123599 0.222471 0.125279
558 4 0.138888 0.234828 0.112575
654 4 0.155221 0.236997 0.102809
652 2 0.170919 0.244833 0.119192
2975 4 0.206263 0.247088 0.131036
2974 2 0.229489 0.236066 0.138595
2976 4 0.252715 0.225044 0.146155
1251 4 0.293392 0.191579 0.11856
836 4 0.270919 0.215481 0.152363
835 2 0.270576 0.191391 0.156909
837 4 0.270233 0.167301 0.161455
1249 2 0.309223 0.198779 0.1019
2776 2 0.412687 0.200702 0.140744
2778 4 0.425615 0.207052 0.121121
2777 4 0.399758 0.194352 0.160367
1478 4 0.45154 0.175872 0.104092
491 4 0.456946 0.192949 0.0975218
2838 4 0.498928 0.205684 0.121746
2729 4 0.0496193 0.325859 0.154542
653 4 0.186617 0.252669 0.135576
287 4 0.273194 0.327364 0.0938592
252 4 0.286228 0.272292 0.128691
250 2 0.286489 0.291961 0.113781
251 4 0.28675 0.311631 0.0988705
766 2 0.00834328 0.375666 0.091402
768 4 0.028835 0.383291 0.100658
2094 4 0.0434208 0.368026 0.106954
2092 2 0.0501946 0.354469 0.127538
2093 4 0.0569683 0.340911 0.148123
2798 4 0.224831 0.400283 0.148921
2799 4 0.214447 0.361513 0.122795
2797 2 0.219639 0.380898 0.135858
288 4 0.227153 0.349865 0.109673
286 2 0.250174 0.338614 0.101766
671 4 0.407272 0.362983 0.0810299
2726 4 0.394357 0.360075 0.0950285
2861 4 0.234554 0.414967 0.151707
2860 2 0.256538 0.420296 0.143463
3552 4 0.335872 0.427889 0.091442
2862 4 0.278521 0.425626 0.135219
1863 4 0.312104 0.484714 0.12841
1861 2 0.328089 0.49472 0.114086
3948 4 0.320797 0.49104 0.145295
678 4 0.436386 0.442142 0.153423
315 4 0.454411 0.443873 0.147575
313 2 0.460488 0.43654 0.124134
314 4 0.466564 0.429206 0.100693
688 2 0.014991 0.0756177 0.217863
2573 4 0.0580398 0.0725455 0.230558
689 4 0.0382687 0.0765904 0.226452
2572 2 0.0813804 0.077956 0.232002
2574 4 0.104721 0.0833666 0.233446
1271 4 0.123519 0.0811269 0.225026
2546 4 0.178231 0.0339421 0.251462
2545 2 0.200749 0.0409918 0.248955
2737 2 0.257605 0.0654211 0.237393
2743 2 0.281977 0.0169603 0.18631
2738 4 0.275842 0.0735552 0.224444
2745 4 0.289251 0.038855 0.182426
2757 4 0.290614 0.0762216 0.21156
3767 4 0.29806 0.041536 0.164154
427 2 0.32186 0.00129653 0.228268
2755 2 0.310576 0.0575728 0.214359
429 4 0.327205 0.0204277 0.214907
2756 4 0.330538 0.038924 0.217157
4352 4 0.421223 0.0647772 0.187694
4351 2 0.445317 0.0682609 0.188095
723 4 0.451733 0.0677361 0.220028
4353 4 0.469412 0.0717446 0.188497
812 4 0.000908014 0.452606 0.467821
1270 2 0.146594 0.0868006 0.22813
1272 4 0.169669 0.0924744 0.231235
3677 4 0.186462 0.0996751 0.233954
3676 2 0.204837 0.110471 0.243515
2477 4 0.317667 0.134744 0.170672
731 4 0.359982 0.109706 0.240448
730 2 0.382044 0.111875 0.229705
721 2 0.443913 0.0790074 0.241613
732 4 0.404105 0.114044 0.218962
580 2 0.402847 0.107706 0.176019
581 4 0.397559 0.107864 0.200463
749 4 0.469641 0.0902641 0.181941
2929 2 0.497599 0.151089 0.17935
2930 4 0.472306 0.156662 0.176734
3208 2 0.0927029 0.219548 0.174569
630 4 0.111917 0.219596 0.205091
628 2 0.118861 0.239151 0.216457
3209 4 0.0923817 0.219926 0.199569
2180 4 0.134277 0.201533 0.236016
2179 2 0.156275 0.197149 0.248586
2788 2 0.213485 0.196797 0.248528
2789 4 0.230322 0.197028 0.230084
2673 4 0.251022 0.191621 0.22536
2671 2 0.276286 0.18588 0.222556
2672 4 0.30155 0.180139 0.219753
2952 4 0.315058 0.189978 0.216064
2950 2 0.336636 0.198212 0.211395
2951 4 0.358214 0.206447 0.206726
2454 4 0.361715 0.225816 0.203796
2453 4 0.399436 0.211382 0.171103
2452 2 0.380575 0.218599 0.18745
2728 2 0.0575622 0.321055 0.178051
2753 4 0.0637775 0.328172 0.216773
2730 4 0.0655052 0.316251 0.20156
388 2 0.104911 0.295449 0.241519
629 4 0.125805 0.258706 0.227823
389 4 0.123711 0.276229 0.236394
714 4 0.00701724 0.373139 0.222641
712 2 0.0249506 0.386171 0.216411
713 4 0.042884 0.399204 0.210181
2752 2 0.0773964 0.344828 0.224901
612 4 0.0578252 0.407619 0.201535
610 2 0.0824736 0.409218 0.201698
2754 4 0.0910154 0.361485 0.23303
611 4 0.107122 0.410816 0.201862
2592 4 0.120517 0.403365 0.188491
3990 4 0.259809 0.379168 0.255695
3989 4 0.214272 0.365633 0.253946
3988 2 0.237041 0.3724 0.25482
2903 4 0.29089 0.363467 0.18818
2902 2 0.306218 0.371072 0.205092
2541 4 0.325239 0.359393 0.228537
2904 4 0.321547 0.378677 0.222005
2539 2 0.342057 0.344474 0.242926
2590 2 0.135216 0.420708 0.187694
1746 4 0.1294 0.483539 0.242315
2591 4 0.149915 0.438051 0.186897
500 4 0.260483 0.42159 0.221708
499 2 0.246063 0.426288 0.242205
645 4 0.276796 0.429867 0.219753
3946 2 0.311969 0.492928 0.168744
643 2 0.293661 0.444787 0.215943
644 4 0.310525 0.459707 0.212133
753 4 0.32421 0.457002 0.225798
3947 4 0.30314 0.494817 0.192194
3819 4 0.350091 0.420575 0.169196
676 2 0.422219 0.438266 0.173122
751 2 0.340865 0.471008 0.233277
3817 2 0.369058 0.427957 0.181677
752 4 0.35752 0.485015 0.240755
3818 4 0.388024 0.43534 0.194158
677 4 0.408052 0.434389 0.192821
3699 4 0.0727587 0.0310794 0.316801
3697 2 0.0781498 0.0104309 0.302778
317 4 0.014948 0.0068812 0.260174
249 4 0.135402 0.0732759 0.32905
3723 4 0.134044 0.0272176 0.292233
546 4 0.12111 0.0615831 0.333564
544 2 0.102126 0.0487244 0.332707
3721 2 0.15652 0.0267992 0.281124
545 4 0.0831419 0.0358657 0.33185
2739 4 0.239368 0.057287 0.250342
3722 4 0.178996 0.0263808 0.270015
2547 4 0.223268 0.0480415 0.246448
1126 2 0.226503 0.0513178 0.329537
1128 4 0.240304 0.0656303 0.317395
2115 4 0.249609 0.0519152 0.304006
2113 2 0.273098 0.0471432 0.294391
2114 4 0.296588 0.0423712 0.284776
1184 4 0.31388 0.0473619 0.291027
1183 2 0.339304 0.0416184 0.291348
1185 4 0.364729 0.0358748 0.291669
342 4 0.379585 0.0448267 0.299563
340 2 0.401177 0.0536995 0.297409
341 4 0.422769 0.0625722 0.295255
3477 4 0.441658 0.0554844 0.287686
3475 2 0.460396 0.065061 0.298216
2910 4 0.482619 0.997496 0.308991
2908 2 0.492327 0.00476292 0.287792
3476 4 0.479133 0.0746376 0.308746
1244 4 0.490346 0.0701064 0.291888
1704 4 0.0184943 0.08663 0.299266
530 4 0.0361207 0.0917532 0.2966
529 2 0.0537327 0.104523 0.288815
531 4 0.0713446 0.117294 0.281031
4307 4 0.076364 0.133484 0.27301
4306 2 0.0996423 0.131277 0.282898
4308 4 0.122921 0.12907 0.292785
247 2 0.133481 0.0962831 0.319572
248 4 0.13156 0.11929 0.310094
3678 4 0.223211 0.121268 0.253076
28 3 0.247353 0.0814859 0.311937
2879 4 0.240658 0.121816 0.262592
29 3 0.23369 0.118911 0.311003
26 1 0.250072 0.102152 0.320132
2878 2 0.265745 0.113882 0.265095
30 3 0.271254 0.105857 0.315042
2880 4 0.290832 0.105949 0.267598
405 4 0.29118 0.104865 0.315128
605 4 0.3084 0.110156 0.259301
606 4 0.357214 0.115128 0.259157
403 2 0.311891 0.115342 0.315404
404 4 0.332601 0.125819 0.315681
604 2 0.332807 0.112642 0.259229
591 4 0.345236 0.134946 0.325282
589 2 0.367999 0.120363 0.328861
590 4 0.390762 0.10578 0.332441
722 4 0.436092 0.0902787 0.263198
2849 4 0.407734 0.110009 0.327934
2848 2 0.431546 0.1136 0.324419
2850 4 0.455357 0.11719 0.320904
3572 4 0.473124 0.114109 0.334381
3571 2 0.493375 0.124339 0.329098
2790 4 0.196648 0.196566 0.266972
2181 4 0.178273 0.192765 0.261157
2946 4 0.245994 0.219886 0.312579
2944 2 0.225528 0.237356 0.317673
479 4 0.479091 0.241296 0.332207
2953 2 0.0275015 0.258581 0.273363
2954 4 0.0023381 0.26414 0.269742
2955 4 0.0526649 0.253023 0.276985
1953 4 0.0659456 0.266014 0.274696
1951 2 0.0775824 0.262441 0.296885
717 4 0.0812741 0.308652 0.265151
715 2 0.0711587 0.322794 0.284387
390 4 0.0861111 0.31467 0.246645
1952 4 0.0892193 0.258868 0.319074
2765 4 0.0990586 0.273621 0.324687
2535 4 0.193 0.272693 0.325727
2945 4 0.205062 0.254827 0.322767
343 2 0.318921 0.311983 0.324761
344 4 0.33733 0.321747 0.313842
2681 4 0.355085 0.308783 0.30825
2680 2 0.363521 0.311421 0.285047
2682 4 0.371956 0.314059 0.261845
478 2 0.497205 0.252427 0.322611
716 4 0.0610433 0.336936 0.303623
1435 2 0.190152 0.410308 0.330229
2540 4 0.358875 0.329555 0.257315
264 4 0.280646 0.37404 0.257373
263 4 0.307776 0.410634 0.257446
262 2 0.294211 0.392337 0.25741
1433 4 0.346717 0.379809 0.317105
1432 2 0.326833 0.37508 0.33018
587 4 0.326479 0.408325 0.253872
3603 4 0.359472 0.390589 0.325938
3601 2 0.3821 0.397227 0.3227
3602 4 0.404727 0.403865 0.319462
1757 4 0.419548 0.412637 0.326121
1756 2 0.440051 0.415415 0.312884
1437 4 0.209668 0.420831 0.323048
501 4 0.231644 0.430987 0.262703
1576 2 0.211742 0.489579 0.320681
681 4 0.224962 0.431058 0.323896
9 3 0.000289915 0.142516 0.379093
1156 2 0.291417 0.465715 0.287092
1157 4 0.278874 0.466809 0.308814
1158 4 0.30396 0.464622 0.265369
586 2 0.345274 0.421048 0.257523
2741 4 0.364852 0.488774 0.430818
1801 2 0.347759 0.494561 0.280274
588 4 0.36407 0.433772 0.261173
1386 4 0.377113 0.446367 0.257301
1384 2 0.394245 0.460007 0.264381
1385 4 0.411376 0.473648 0.27146
1802 4 0.36138 0.486469 0.259935
1187 4 0.427777 0.482087 0.27849
1758 4 0.460553 0.418193 0.299648
1186 2 0.451514 0.486491 0.279873
1188 4 0.475251 0.490895 0.281257
1127 4 0.212702 0.0370052 0.341679
707 4 0.206504 0.0193509 0.345518
1058 4 0.352338 0.0031524 0.354406
1450 2 0.2785 0.436456 0.412221
2871 4 0.425641 0.00586771 0.328763
1062 4 0.412581 0.037068 0.402958
683 4 0.430776 0.0408007 0.404946
682 2 0.443975 0.0590337 0.401061
684 4 0.457175 0.0772667 0.397176
2715 4 0.476439 0.0835238 0.397881
165 3 0.483328 0.0615717 0.353422
162 3 0.488186 0.0842651 0.381596
161 1 0.493052 0.0792007 0.359499
6 1 0.0102759 0.159462 0.387861
8 3 0.030198 0.150358 0.399022
27 3 0.247462 0.102269 0.34299
163 3 0.484362 0.0977334 0.34653
2713 2 0.486339 0.0988471 0.412923
2957 4 0.0223714 0.190186 0.372262
10 3 0.0148721 0.173146 0.371139
2956 2 0.0325851 0.208796 0.362784
2958 4 0.0427987 0.227405 0.353307
2654 4 0.0561468 0.241482 0.354312
2822 4 0.106551 0.200145 0.38058
2821 2 0.131336 0.192942 0.375582
2823 4 0.156121 0.18574 0.370584
2543 4 0.174284 0.194121 0.369005
2542 2 0.197868 0.198841 0.3709
2544 4 0.221452 0.20356 0.372796
471 4 0.240722 0.205247 0.376455
469 2 0.261414 0.215337 0.379948
470 4 0.282106 0.225428 0.383441
3633 4 0.291909 0.238775 0.374658
3631 2 0.316464 0.234555 0.368088
2451 4 0.356951 0.238279 0.364917
3632 4 0.341019 0.230335 0.361518
2449 2 0.377545 0.248922 0.364237
2450 4 0.398138 0.259565 0.363558
2700 4 0.418398 0.251768 0.366419
2655 4 0.0262963 0.28479 0.341758
2524 2 0.00240999 0.30961 0.348268
2526 4 0.027757 0.303041 0.349392
2653 2 0.0412215 0.263136 0.348035
2764 2 0.117389 0.270415 0.342032
2534 4 0.152948 0.26119 0.349903
2766 4 0.13572 0.267209 0.359376
2533 2 0.172974 0.266942 0.337815
2494 2 0.248102 0.270142 0.405862
2496 4 0.246564 0.264259 0.381706
2528 4 0.255327 0.277547 0.372197
2527 2 0.273184 0.283 0.356754
345 4 0.300513 0.302219 0.33568
2529 4 0.291041 0.288453 0.34131
2712 4 0.359868 0.303611 0.394332
2698 2 0.44096 0.250308 0.355174
2710 2 0.365694 0.326046 0.389854
2699 4 0.463522 0.248847 0.34393
2648 4 0.386941 0.474572 0.418499
592 2 0.0167551 0.342416 0.388382
246 4 0.0482813 0.38862 0.334649
244 2 0.0240451 0.387937 0.34022
593 4 0.0393275 0.349521 0.38994
3318 4 0.0605601 0.348514 0.388729
3316 2 0.083111 0.352998 0.381153
3317 4 0.105662 0.357482 0.373578
1436 4 0.170637 0.399786 0.337411
2598 4 0.192889 0.338124 0.372942
669 4 0.119789 0.36852 0.365102
667 2 0.138761 0.378975 0.356349
668 4 0.157733 0.389431 0.347596
2596 2 0.198546 0.360271 0.36683
2597 4 0.204202 0.382419 0.360718
415 2 0.295029 0.392229 0.374397
417 4 0.293348 0.373311 0.358921
416 4 0.296711 0.411146 0.389872
1434 4 0.30695 0.370352 0.343255
1028 4 0.305294 0.350655 0.407961
3884 4 0.305915 0.37687 0.416
2711 4 0.37152 0.348482 0.385377
3593 4 0.367524 0.391137 0.418034
3592 2 0.371568 0.37824 0.396673
3594 4 0.375612 0.365343 0.375312
3641 4 0.431199 0.365196 0.402386
452 4 0.435053 0.359029 0.356259
451 2 0.457559 0.355767 0.367901
447 4 0.492516 0.409751 0.376966
453 4 0.480065 0.352505 0.379544
2831 4 0.493181 0.34722 0.393746
4323 4 0.473245 0.411774 0.385186
2691 4 0.0461818 0.450397 0.360316
2689 2 0.0599097 0.466842 0.368727
2690 4 0.0736376 0.483288 0.377137
4002 4 0.205514 0.488537 0.36005
1577 4 0.214547 0.478922 0.343287
4000 2 0.225174 0.481266 0.375483
4001 4 0.244834 0.473995 0.390917
679 2 0.243596 0.439877 0.335512
680 4 0.26223 0.448697 0.347127
3618 4 0.256203 0.481057 0.403393
1452 4 0.268468 0.416981 0.40465
614 4 0.279881 0.455557 0.35102
613 2 0.293525 0.473501 0.354537
615 4 0.30717 0.491445 0.358053
3616 2 0.273559 0.492783 0.4136
2647 2 0.40758 0.456816 0.415061
2649 4 0.428219 0.439061 0.411622
4322 4 0.424154 0.430597 0.393835
4321 2 0.4487 0.421186 0.389511
2899 2 0.0782127 0.00388174 0.451755
2457 4 0.00210527 0.0198104 0.440382
2455 2 0.0162938 0.0368137 0.446095
2456 4 0.0304823 0.0538171 0.451809
1182 4 0.0444039 0.0554755 0.467593
1180 2 0.0691016 0.0566787 0.466044
2901 4 0.0912796 0.0223807 0.454585
3174 4 0.106618 0.031361 0.458537
3172 2 0.126089 0.0431287 0.462476
1181 4 0.0937992 0.057882 0.464495
3173 4 0.14556 0.0548965 0.466416
1061 4 0.389914 0.013161 0.437438
1060 2 0.401247 0.0251145 0.420198
4043 4 0.290092 0.431446 0.494779
2484 4 0.0332417 0.157753 0.417783
2482 2 0.0512801 0.165508 0.43136
642 4 0.0059494 0.163553 0.465307
765 4 0.186591 0.154767 0.457525
2684 4 0.20125 0.164121 0.460912
763 2 0.162931 0.160584 0.466614
2584 2 0.289998 0.149534 0.48719
2683 2 0.224806 0.164731 0.468941
2685 4 0.248362 0.165342 0.476971
2586 4 0.265875 0.155151 0.479311
937 2 0.346562 0.158681 0.486339
938 4 0.366537 0.160547 0.471904
2815 2 0.445466 0.154017 0.475029
2817 4 0.457157 0.13024 0.472127
2714 4 0.496239 0.11417 0.427965
2483 4 0.0693185 0.173263 0.444937
2800 2 0.105415 0.182144 0.461382
2801 4 0.0848987 0.181849 0.447173
2802 4 0.125931 0.182438 0.47559
764 4 0.139271 0.166402 0.475702
365 4 0.303599 0.250226 0.460407
2816 4 0.433775 0.177793 0.477931
2560 2 0.0979394 0.327245 0.448602
2561 4 0.108894 0.309056 0.464034
3455 4 0.118117 0.316796 0.479548
3454 2 0.141509 0.319019 0.486835
3456 4 0.164902 0.321243 0.494122
1744 2 0.147912 0.496731 0.239247
240 4 0.22501 0.311709 0.491919
2636 4 0.238812 0.314038 0.478218
2635 2 0.242981 0.323722 0.455963
2495 4 0.249641 0.276026 0.430018
364 2 0.279887 0.25558 0.451383
366 4 0.256174 0.260934 0.442359
408 4 0.39547 0.316023 0.498134
266 4 0.0316152 0.415992 0.485808
265 2 0.0455811 0.41035 0.465141
267 4 0.059547 0.404708 0.444475
2562 4 0.0869848 0.345433 0.433171
347 4 0.0638624 0.404579 0.424583
346 2 0.0796946 0.38267 0.427585
348 4 0.0955267 0.360761 0.430587
2637 4 0.247151 0.333407 0.433709
1029 4 0.264763 0.340389 0.432263
1451 4 0.288532 0.455932 0.419792
1027 2 0.285029 0.345522 0.420112
3883 2 0.322963 0.386393 0.429375
3885 4 0.340011 0.395917 0.44275
663 4 0.279977 0.416763 0.500455
561 4 0.397766 0.4066 0.474269
3422 4 0.41286 0.415533 0.48111
560 4 0.357491 0.400422 0.446982
559 2 0.377629 0.403511 0.460626
3421 2 0.431656 0.402332 0.467486
3640 2 0.445245 0.373117 0.420291
3642 4 0.45929 0.381038 0.438197
3423 4 0.450453 0.389132 0.453862
1173 4 0.00998012 0.465846 0.47647
1171 2 0.0291346 0.472101 0.463346
1172 4 0.048289 0.478356 0.450222
4044 4 0.323471 0.447564 0.464564
2926 2 0.326956 0.471967 0.424678
2927 4 0.304199 0.465206 0.423459
4042 2 0.306781 0.439505 0.479671
2810 4 0.0278507 0.0940274 0.498034
2585 4 0.314121 0.143917 0.495068
3268 2 0.437207 0.0367216 0.000288548
2194 2 0.0251676 0.00372019 0.523921
2195 4 0.0500701 0.00422361 0.524098
2553 4 0.0599407 0.0190811 0.523044
2196 4 0.00026513 0.00321676 0.523743
2551 2 0.072686 0.0283999 0.541145
2552 4 0.0854312 0.0377188 0.559246
762 4 0.102242 0.0415057 0.565228
760 2 0.116536 0.0558425 0.57663
2811 4 0.0602008 0.0971465 0.535528
2809 2 0.0440257 0.095587 0.516781
335 4 0.471447 0.497923 0.544015
2321 4 0.0580757 0.159965 0.548169
3110 4 0.0712432 0.0992972 0.552154
3109 2 0.0787337 0.108628 0.573421
3237 4 0.0710625 0.172327 0.542234
4332 4 0.388776 0.480785 0.925323
939 4 0.326586 0.156815 0.500773
2322 4 0.0141738 0.189301 0.561249
2320 2 0.0361248 0.174633 0.554709
965 4 0.00114857 0.198192 0.575885
3236 4 0.114359 0.188002 0.531569
3235 2 0.0927106 0.180164 0.536901
1284 4 0.132848 0.17386 0.536069
1282 2 0.141829 0.174897 0.559304
2845 2 0.0344626 0.31403 0.518849
2847 4 0.0107323 0.318773 0.509821
2846 4 0.0581929 0.309287 0.527878
3044 4 0.0739291 0.313836 0.538137
3043 2 0.0869245 0.332342 0.534956
239 4 0.177566 0.312392 0.508094
407 4 0.440023 0.28471 0.503603
803 4 0.44211 0.289108 0.522816
406 2 0.417746 0.300366 0.500869
802 2 0.467133 0.284715 0.527376
804 4 0.492157 0.280323 0.531936
1238 4 0.496197 0.294504 0.54528
3963 4 0.0138111 0.415655 0.51084
3961 2 0.0339467 0.401356 0.521672
3045 4 0.0999199 0.350847 0.531774
3962 4 0.0540823 0.387058 0.532503
4179 4 0.0700836 0.395606 0.534843
4177 2 0.0901186 0.405403 0.527788
1641 4 0.119365 0.35413 0.531491
4178 4 0.110154 0.4152 0.520734
1639 2 0.139797 0.361742 0.522078
1640 4 0.160228 0.369355 0.512665
1911 4 0.17808 0.374254 0.508535
1909 2 0.196066 0.388116 0.505732
1910 4 0.214053 0.401978 0.502928
662 4 0.233245 0.406136 0.497114
3451 2 0.483044 0.401784 0.537644
3453 4 0.496515 0.379236 0.543332
1446 4 0.123972 0.42016 0.532903
1444 2 0.143277 0.429049 0.522636
1445 4 0.162583 0.437938 0.512369
3071 4 0.410744 0.479714 0.567003
3070 2 0.43219 0.486533 0.559162
3452 4 0.469573 0.424332 0.531956
1698 4 0.485282 0.429268 0.521287
3072 4 0.453637 0.493352 0.551322
3360 4 0.0177822 0.0127728 0.598429
4326 4 0.0265634 0.0295493 0.599441
4324 2 0.0445692 0.042869 0.604543
4325 4 0.062575 0.0561887 0.609645
3294 4 0.0740716 0.0654967 0.667309
761 4 0.130831 0.0701793 0.588033
3021 4 0.145579 0.0790932 0.597176
4227 4 0.274963 0.00532344 0.606196
2283 4 0.433775 0.056749 0.626056
2281 2 0.455722 0.0648192 0.62901
2282 4 0.477669 0.0728894 0.631964
3083 4 0.492049 0.0832446 0.626005
3111 4 0.0862241 0.117958 0.594689
3267 4 0.0939243 0.113214 0.612357
3265 2 0.111263 0.126126 0.620527
3266 4 0.128602 0.139038 0.628697
145 3 0.143811 0.135621 0.645241
141 1 0.15257 0.148214 0.660594
3019 2 0.16229 0.0945002 0.598642
1105 2 0.187236 0.143237 0.619991
3020 4 0.179 0.109907 0.600109
1107 4 0.188934 0.125823 0.60212
142 3 0.168092 0.158928 0.650293
1106 4 0.185538 0.16065 0.637861
1075 2 0.217549 0.1102 0.664261
1077 4 0.195461 0.102105 0.663037
1076 4 0.239636 0.118295 0.665485
966 4 0.0145633 0.203872 0.623407
964 2 0.00785592 0.201032 0.599646
2175 4 0.0315431 0.208351 0.63255
2173 2 0.0454259 0.20153 0.653049
1283 4 0.150809 0.175935 0.58254
3387 4 0.20032 0.172762 0.63671
3385 2 0.219664 0.183715 0.629913
3386 4 0.239008 0.194668 0.623115
2243 4 0.257824 0.202171 0.61876
2242 2 0.276506 0.215332 0.61695
2244 4 0.295188 0.228494 0.615141
806 4 0.309222 0.240364 0.610783
805 2 0.330817 0.248376 0.605624
1154 4 0.0074983 0.266164 0.651524
1153 2 0.0327129 0.264014 0.653806
1155 4 0.0579275 0.261865 0.656089
1255 2 0.101873 0.262914 0.66047
1257 4 0.0775969 0.262133 0.655175
959 4 0.143516 0.272438 0.662133
3093 4 0.265134 0.274723 0.651563
807 4 0.352412 0.256387 0.600464
978 4 0.368699 0.265616 0.601892
977 4 0.412076 0.283369 0.601958
976 2 0.390387 0.274493 0.601925
3446 4 0.0222257 0.371419 0.639319
3353 4 0.00692226 0.364112 0.647886
3352 2 0.0153662 0.344057 0.662082
800 4 0.0137682 0.409485 0.653253
3445 2 0.0450126 0.372957 0.629823
3447 4 0.0677995 0.374494 0.620328
2721 4 0.0778089 0.388741 0.628594
2719 2 0.086814 0.408338 0.619696
3491 4 0.167135 0.407955 0.585324
3490 2 0.190736 0.395948 0.59047
3492 4 0.214337 0.383942 0.595617
3113 4 0.481955 0.35889 0.665738
1067 4 0.464929 0.356334 0.655372
4560 4 0.00196086 0.427596 0.649919
3119 4 0.0111396 0.468541 0.623139
1206 4 0.00724052 0.478429 0.60629
3118 2 0.0341995 0.469701 0.632187
3120 4 0.0572595 0.470861 0.641236
4302 4 0.0758174 0.47536 0.645479
2720 4 0.0958191 0.427935 0.610799
3221 4 0.116671 0.419725 0.613219
4131 4 0.139164 0.482611 0.634897
4092 4 0.158537 0.485542 0.635466
3220 2 0.138711 0.42318 0.603315
3222 4 0.160752 0.426636 0.593411
4300 2 0.0945169 0.470492 0.662377
4090 2 0.176456 0.492428 0.621041
4091 4 0.194374 0.499314 0.606615
2138 4 0.212106 0.495344 0.597021
3308 4 0.0101787 0.0335605 0.671761
4115 4 0.0281042 0.0340026 0.679057
4114 2 0.0449514 0.0492051 0.681197
4116 4 0.0617986 0.0644077 0.683337
3292 2 0.0969794 0.0692454 0.674604
3293 4 0.119887 0.0729942 0.6819
954 4 0.133727 0.0792338 0.670582
2063 4 0.100865 0.012668 0.742808
3612 4 0.214255 0.0497996 0.679836
3610 2 0.235558 0.0336754 0.68554
3611 4 0.25686 0.0175512 0.691245
4503 4 0.273189 0.0108145 0.678464
4501 2 0.295116 0.0154219 0.687631
4502 4 0.317042 0.0200293 0.696799
3104 4 0.327935 0.00166886 0.695579
3488 4 0.306462 0.0121363 0.745324
1217 4 0.325087 0.0165714 0.744604
3487 2 0.286211 0.00115014 0.742971
3103 2 0.348859 0.0102166 0.688969
3105 4 0.369784 0.0187644 0.682358
1216 2 0.347432 0.024071 0.746577
1021 2 0.0124883 0.136484 0.686897
1023 4 0.0353417 0.141706 0.692312
1082 4 0.0546431 0.142494 0.6874
1081 2 0.0777838 0.148146 0.684772
1083 4 0.100924 0.153798 0.682144
3164 4 0.120708 0.156286 0.68282
144 3 0.135292 0.164145 0.669622
3163 2 0.1262 0.160634 0.706618
953 4 0.178043 0.0943233 0.66374
143 3 0.163508 0.134608 0.677431
2978 4 0.173089 0.140232 0.693101
952 2 0.155885 0.0867786 0.667161
2977 2 0.193545 0.147138 0.703283
2979 4 0.214 0.154044 0.713464
1084 2 0.253481 0.147968 0.725746
1086 4 0.229468 0.144283 0.724799
1085 4 0.277493 0.151654 0.726692
897 4 0.291261 0.164282 0.725794
895 2 0.313375 0.164021 0.737554
1013 4 0.346882 0.146394 0.742696
896 4 0.335488 0.163761 0.749314
1012 2 0.369957 0.136697 0.733733
1014 4 0.393031 0.127 0.72477
2174 4 0.0593087 0.194708 0.673548
3003 4 0.0674315 0.211138 0.671294
3001 2 0.0895557 0.205292 0.683518
3002 4 0.11168 0.199446 0.695743
3382 2 0.114039 0.238654 0.73878
3165 4 0.131692 0.164983 0.730416
3384 4 0.127175 0.250366 0.722904
3108 4 0.146656 0.169464 0.743243
921 4 0.142629 0.239972 0.71219
919 2 0.164754 0.247596 0.715559
384 4 0.277293 0.236379 0.749554
382 2 0.293709 0.249586 0.73993
2972 4 0.469144 0.205344 0.691938
2971 2 0.480003 0.224484 0.698919
2973 4 0.490862 0.243624 0.705899
3354 4 0.0238101 0.324001 0.676277
3375 4 0.0428405 0.323981 0.679089
3373 2 0.0603053 0.324546 0.696868
3374 4 0.0777701 0.325112 0.714647
1017 4 0.0969933 0.329535 0.716593
958 2 0.162585 0.284137 0.668051
960 4 0.181653 0.295835 0.673968
1256 4 0.126148 0.263696 0.665765
3239 4 0.200619 0.295931 0.673666
920 4 0.186879 0.25522 0.718928
867 4 0.202451 0.265317 0.723154
3238 2 0.225146 0.286078 0.66981
3240 4 0.249673 0.276224 0.665953
865 2 0.215653 0.280852 0.734241
866 4 0.228856 0.296388 0.745328
3091 2 0.284262 0.280622 0.664993
3092 4 0.30339 0.286522 0.678422
3435 4 0.318441 0.293744 0.685345
383 4 0.310124 0.262792 0.730306
3433 2 0.319898 0.285093 0.708804
3434 4 0.321355 0.276441 0.732262
1015 2 0.10638 0.350269 0.712382
799 2 0.0305825 0.415646 0.669494
1956 4 0.0961167 0.413633 0.730343
1016 4 0.115767 0.371002 0.708171
1008 4 0.113169 0.419799 0.736153
4492 2 0.322087 0.415465 0.709618
4493 4 0.344889 0.400397 0.70887
1098 4 0.360059 0.407463 0.699928
1299 4 0.375732 0.360488 0.731964
1297 2 0.397031 0.362922 0.719893
1298 4 0.41833 0.365356 0.707822
1068 4 0.433809 0.358173 0.694749
1066 2 0.449369 0.357254 0.67506
801 4 0.0473969 0.421807 0.685735
1955 4 0.0654194 0.426818 0.691201
1954 2 0.0807681 0.420226 0.710772
4301 4 0.113216 0.465624 0.679276
1006 2 0.13665 0.419592 0.74485
273 4 0.267185 0.4804 0.730669
271 2 0.285394 0.464269 0.719025
4494 4 0.299285 0.430533 0.710366
272 4 0.303603 0.448138 0.70738
4485 4 0.401792 0.498439 0.676067
4436 4 0.34346 0.499103 0.727106
1096 2 0.376319 0.418624 0.712686
1097 4 0.39258 0.429786 0.725443
4435 2 0.355293 0.500016 0.705193
2120 4 0.420503 0.501974 0.744301
1024 2 0.0117974 0.0631669 0.76851
210 3 0.0265522 0.0575091 0.806862
206 1 0.0373135 0.0538927 0.826963
1025 4 0.0336969 0.0714128 0.771066
207 3 0.0599782 0.0452293 0.823455
2306 4 0.0559956 0.0716801 0.770424
1125 4 0.0694677 0.0602966 0.820125
2305 2 0.0792286 0.0774066 0.771364
3340 2 0.491959 0.490797 0.982743
818 4 0.189542 0.0181509 0.787832
817 2 0.204086 0.0356364 0.787345
819 4 0.218631 0.0531219 0.786857
887 4 0.234341 0.064279 0.786935
3437 4 0.19748 0.00510372 0.749961
1218 4 0.369778 0.0315707 0.74855
2001 4 0.388477 0.0329745 0.756104
1999 2 0.409232 0.0423926 0.761417
2000 4 0.429986 0.0518106 0.76673
3282 4 0.447393 0.063126 0.76841
3280 2 0.467295 0.074748 0.76955
3554 4 0.487734 0.028255 0.778621
4488 4 0.0349159 0.122193 0.829496
2307 4 0.102462 0.083133 0.772304
4442 4 0.121433 0.0890196 0.770046
4441 2 0.139138 0.101678 0.777825
4443 4 0.156844 0.114336 0.785605
1208 4 0.173689 0.120758 0.795014
1207 2 0.183427 0.141667 0.794911
1209 4 0.193165 0.162576 0.794808
888 4 0.206067 0.110133 0.79087
886 2 0.220204 0.0872059 0.788902
533 4 0.431248 0.12753 0.803926
532 2 0.444473 0.143248 0.814665
534 4 0.457697 0.158966 0.825405
3281 4 0.487196 0.0863701 0.770691
3228 4 0.0960393 0.235168 0.772298
3226 2 0.107723 0.232159 0.794495