ITEM: TIMESTEP
2774500
ITEM: NUMBER OF ATOMS
4590
ITEM: BOX BOUNDS xy xz yz pp pp pp
-9.9985700000000008e+00 9.9985700000000008e+00 0.0000000000000000e+00
-9.9985700000000008e+00 9.9985700000000008e+00 0.0000000000000000e+00
-9.9985700000000008e+00 9.9985700000000008e+00 0.0000000000000000e+00
ITEM: ATOMS id type xs ys zs
4161 4 0.0321572 0.0458889 0.00143124
2337 4 0.046234 0.0486821 0.0165867
2335 2 0.0702336 0.0418364 0.0150601
2464 2 0.00172278 0.0605378 0.0781998
582 4 0.10317 0.0706853 0.0946305
1476 4 0.338567 0.00346865 0.038084
354 4 0.278252 0.134433 0.0700689
21 1 0.31368 0.129868 0.0779446
23 3 0.326108 0.140614 0.06156
2894 4 0.32112 0.146163 0.0429265
22 3 0.309387 0.108332 0.0710938
25 3 0.325381 0.129335 0.0974755
352 2 0.258628 0.122109 0.0794604
24 3 0.29351 0.140897 0.081098
2893 2 0.342475 0.14511 0.0299643
2895 4 0.363831 0.144057 0.0170022
3347 4 0.381173 0.136259 0.00680872
810 4 0.345133 0.125783 0.093853
2889 4 0.424526 0.0813421 0.0615971
2887 2 0.438141 0.0996377 0.0513458
2888 4 0.451756 0.117933 0.0410946
2783 4 0.468983 0.125005 0.0357174
2782 2 0.492637 0.13293 0.0340262
278 4 0.0357581 0.252144 0.021321
277 2 0.058495 0.245184 0.029052
279 4 0.081232 0.238224 0.0367829
4470 4 0.0994972 0.22999 0.0351661
4468 2 0.122086 0.230787 0.0458573
4469 4 0.144675 0.231584 0.0565486
915 4 0.409963 0.225063 0.0791139
2726 4 0.0523982 0.307253 0.0364434
2725 2 0.054026 0.318315 0.0140792
2876 4 0.225744 0.265197 0.0610741
3197 4 0.185249 0.27795 0.0133849
3196 2 0.200548 0.266682 0.0296388
933 4 0.195333 0.28673 0.997153
3198 4 0.215847 0.255415 0.0458927
931 2 0.209799 0.306769 0.993359
2875 2 0.248569 0.274094 0.0560632
2877 4 0.271393 0.282991 0.0510523
2760 4 0.434222 0.314327 0.0807416
2758 2 0.452462 0.31977 0.0645287
103 3 0.483848 0.294861 0.0443469
2759 4 0.470702 0.325212 0.0483158
101 1 0.485345 0.274322 0.05504
2835 4 0.475225 0.310273 0.0370515
104 3 0.465372 0.262733 0.0527671
2833 2 0.473871 0.308186 0.0121718
2652 4 0.418502 0.32315 0.0895933
2883 4 0.495571 0.244112 0.992269
2727 4 0.0556537 0.329377 0.991715
3230 4 0.0231506 0.405519 0.0777118
2906 4 0.00699398 0.411281 0.0679893
3543 4 0.457729 0.395466 0.0529639
3541 2 0.465612 0.415804 0.0407409
1466 4 0.459353 0.376333 0.0583092
1465 2 0.476187 0.373107 0.0765133
242 4 0.319867 0.454563 0.0627214
241 2 0.330565 0.46758 0.0442477
1302 4 0.334571 0.494037 0.0125184
3542 4 0.473494 0.436143 0.0285179
1551 4 0.48596 0.43285 0.0127504
1373 4 0.0465656 0.0608188 0.0816237
1372 2 0.0673147 0.0728861 0.0886279
1541 4 0.0174074 0.0159088 0.142791
2465 4 0.0266705 0.0621357 0.0786891
1540 2 0.0420485 0.013459 0.146253
1542 4 0.0666896 0.0110091 0.149714
1873 2 0.0189538 0.0684589 0.168823
1874 4 0.0437266 0.0679019 0.16548
580 2 0.116144 0.0512429 0.10351
581 4 0.129117 0.0318004 0.112389
331 2 0.139377 0.069933 0.157649
333 4 0.118544 0.0561646 0.158931
3678 4 0.106388 0.0419882 0.166549
2779 2 0.197402 0.0661188 0.145181
2781 4 0.215962 0.0548622 0.132772
2703 4 0.22086 0.0400821 0.120853
2701 2 0.245214 0.0415144 0.115372
2702 4 0.269568 0.0429466 0.109891
1274 4 0.283362 0.0578175 0.109447
1273 2 0.293139 0.0785299 0.099417
2615 4 0.0145782 0.165194 0.130388
1374 4 0.0880638 0.0849534 0.095632
332 4 0.160209 0.0837013 0.156366
2780 4 0.178842 0.0773755 0.15759
353 4 0.239004 0.109785 0.0888518
692 4 0.24003 0.112944 0.157279
691 2 0.236818 0.112819 0.132482
693 4 0.233606 0.112695 0.107686
2930 4 0.204186 0.158682 0.164678
1275 4 0.302915 0.0992423 0.0893872
808 2 0.367007 0.13186 0.104331
809 4 0.38888 0.137937 0.114809
2679 4 0.406338 0.134446 0.124632
2677 2 0.430635 0.129003 0.126924
2678 4 0.454932 0.123561 0.129216
506 4 0.465297 0.135515 0.141229
505 2 0.489569 0.139786 0.145449
2614 2 0.0308213 0.172369 0.112785
2616 4 0.0470645 0.179545 0.0951824
2517 4 0.0615953 0.183956 0.106555
2515 2 0.082915 0.195325 0.112992
2516 4 0.104235 0.206693 0.119428
387 4 0.119695 0.214907 0.108088
385 2 0.144116 0.210103 0.11048
2520 4 0.240593 0.164704 0.162034
386 4 0.168537 0.205299 0.112872
743 4 0.184798 0.213249 0.105383
742 2 0.2092 0.218654 0.104651
744 4 0.233602 0.224059 0.103918
2600 4 0.248593 0.213329 0.113141
2518 2 0.26347 0.171098 0.154227
522 4 0.294639 0.182999 0.129678
2519 4 0.286348 0.177492 0.146419
2599 2 0.273331 0.21593 0.115682
2601 4 0.298069 0.218531 0.118224
450 4 0.317474 0.214986 0.122823
520 2 0.319165 0.178215 0.130557
448 2 0.335723 0.230682 0.116054
521 4 0.343692 0.173432 0.131436
624 4 0.355704 0.18681 0.123092
914 4 0.366592 0.231574 0.103142
449 4 0.353971 0.246379 0.109285
622 2 0.380069 0.182704 0.126923
913 2 0.388277 0.228319 0.0911278
623 4 0.404434 0.178598 0.130754
455 4 0.408732 0.196034 0.121841
845 4 0.425691 0.238195 0.0799102
454 2 0.433508 0.199394 0.122096
456 4 0.458284 0.202754 0.122351
491 4 0.47835 0.204291 0.126552
844 2 0.439585 0.248989 0.0976767
250 2 0.00884017 0.323537 0.117586
728 4 0.0184222 0.255143 0.131506
251 4 0.0319809 0.314225 0.119309
2538 4 0.0365279 0.256706 0.135678
287 4 0.0501694 0.307443 0.123439
2536 2 0.0613222 0.258165 0.13856
286 2 0.0715559 0.318432 0.130299
2537 4 0.0861166 0.259625 0.141441
2445 4 0.104381 0.26454 0.136184
2443 2 0.129354 0.265777 0.136035
713 4 0.107463 0.317592 0.143373
712 2 0.128764 0.320037 0.156238
2444 4 0.154327 0.267014 0.135885
714 4 0.150064 0.322483 0.169103
288 4 0.0929423 0.32942 0.137158
767 4 0.174552 0.266417 0.137566
766 2 0.19923 0.269081 0.134553
768 4 0.223908 0.271745 0.13154
2094 4 0.240529 0.27707 0.120679
610 2 0.183684 0.326312 0.156654
612 4 0.198854 0.328905 0.136948
2799 4 0.217085 0.321828 0.135803
2092 2 0.264968 0.281849 0.118424
2093 4 0.289406 0.286629 0.116169
528 4 0.309004 0.286061 0.115476
526 2 0.333086 0.292789 0.115449
527 4 0.357168 0.299517 0.115422
2651 4 0.374936 0.307239 0.108291
2650 2 0.396719 0.315194 0.0989424
2729 4 0.48956 0.304014 0.151587
2476 2 0.454577 0.258122 0.159404
2477 4 0.454161 0.261358 0.134614
846 4 0.453479 0.259783 0.115443
3229 2 0.0430479 0.411394 0.0916685
3231 4 0.0629451 0.417269 0.105625
2798 4 0.233177 0.360674 0.108734
2797 2 0.225131 0.341251 0.122269
2861 4 0.273006 0.341482 0.148897
2860 2 0.292073 0.356942 0.153651
2862 4 0.311141 0.372402 0.158405
2591 4 0.372447 0.402564 0.168249
1467 4 0.493022 0.369881 0.0947173
1122 4 0.0817344 0.426141 0.10297
2162 4 0.0879821 0.460829 0.160761
1673 4 0.115233 0.499597 0.116342
2161 2 0.0953642 0.4725 0.139917
1120 2 0.103502 0.437172 0.0975199
1121 4 0.125269 0.448203 0.0920696
3552 4 0.137767 0.432673 0.0937515
2163 4 0.102746 0.484172 0.119074
3550 2 0.159006 0.438538 0.10557
3551 4 0.180246 0.444402 0.117389
3819 4 0.189065 0.46108 0.123086
3817 2 0.208503 0.44777 0.131462
4511 4 0.199073 0.501308 0.157246
3818 4 0.227942 0.434459 0.139837
677 4 0.243027 0.440122 0.129712
676 2 0.267542 0.437067 0.133566
678 4 0.292058 0.434012 0.13742
4005 4 0.308972 0.43809 0.146064
3677 4 0.0611343 0.0622057 0.173195
3676 2 0.0837611 0.052097 0.169872
3808 2 0.417355 0.0765388 0.246574
2756 4 0.395994 0.0236745 0.20678
786 4 0.382031 0.0100061 0.209613
2755 2 0.411115 0.0390237 0.194093
3809 4 0.431335 0.0957316 0.23874
2757 4 0.426236 0.0543729 0.181406
2738 4 0.469152 0.019698 0.207095
2737 2 0.484243 0.000505161 0.201703
750 4 0.0172313 0.158105 0.195989
418 2 0.156219 0.12878 0.218075
420 4 0.149577 0.134944 0.241379
2929 2 0.190372 0.139224 0.172145
419 4 0.162862 0.122617 0.19477
1566 4 0.240235 0.119861 0.175367
2931 4 0.176558 0.119766 0.179611
1564 2 0.252101 0.125312 0.19669
1565 4 0.263967 0.130764 0.218012
458 4 0.28053 0.122428 0.226116
457 2 0.298251 0.13489 0.238601
459 4 0.315971 0.147351 0.251087
1749 4 0.333367 0.146047 0.241324
1747 2 0.354708 0.156857 0.248597
606 4 0.439483 0.0865079 0.223198
604 2 0.456484 0.103527 0.216377
605 4 0.473485 0.120545 0.209556
2880 4 0.481613 0.138272 0.209286
177 3 0.420086 0.170982 0.239968
1479 4 0.0348323 0.151785 0.1917
651 4 0.0219555 0.229044 0.199682
3159 4 0.0379036 0.229133 0.210046
3157 2 0.0622974 0.233679 0.213121
1477 2 0.0568319 0.163254 0.188591
649 2 0.00366147 0.222086 0.184123
1478 4 0.0788315 0.174723 0.185482
2778 4 0.0984567 0.182569 0.183503
3158 4 0.0866912 0.238224 0.216197
579 4 0.106647 0.237828 0.215566
577 2 0.130876 0.243857 0.214213
2776 2 0.123383 0.181341 0.181972
2777 4 0.14831 0.180113 0.180441
2453 4 0.157886 0.197123 0.18441
2452 2 0.180453 0.207868 0.183715
537 4 0.195718 0.219042 0.241515
2454 4 0.20302 0.218612 0.18302
1200 4 0.223125 0.219433 0.190851
1198 2 0.24691 0.21955 0.183139
1199 4 0.270694 0.219667 0.175428
510 4 0.255571 0.20001 0.255778
731 4 0.406202 0.238211 0.229215
730 2 0.422807 0.241791 0.210868
2951 4 0.459292 0.252947 0.222174
2950 2 0.478826 0.248942 0.207088
2952 4 0.498359 0.244936 0.192002
578 4 0.155104 0.249885 0.21286
236 4 0.16934 0.264088 0.216751
611 4 0.168513 0.323719 0.17636
235 2 0.193409 0.257358 0.217515
2969 4 0.236462 0.247232 0.227184
237 4 0.217478 0.250628 0.218279
2968 2 0.258759 0.258263 0.22971
2970 4 0.281055 0.269295 0.232236
2853 4 0.289873 0.282074 0.218843
2851 2 0.307784 0.288758 0.202728
2852 4 0.325695 0.295443 0.186613
732 4 0.439412 0.24537 0.19252
2478 4 0.454992 0.254886 0.184193
3696 4 0.0163642 0.365971 0.20919
3830 4 0.0294372 0.37475 0.196587
3829 2 0.0537339 0.374535 0.190687
3831 4 0.0780307 0.374319 0.184787
2592 4 0.330531 0.375775 0.163127
1857 4 0.259442 0.397717 0.228945
1855 2 0.278208 0.410936 0.219032
2590 2 0.351489 0.38917 0.165688
3599 4 0.0761468 0.459505 0.176894
4025 4 0.131486 0.501776 0.250168
3598 2 0.0934448 0.456104 0.194626
3600 4 0.110743 0.452702 0.212358
3921 4 0.121633 0.441895 0.225146
3919 2 0.144765 0.448643 0.218471
1677 4 0.129683 0.48107 0.252504
3920 4 0.167897 0.45539 0.211796
1544 4 0.208777 0.490326 0.172527
1545 4 0.185418 0.459663 0.204386
1543 2 0.197097 0.474995 0.188456
1856 4 0.296975 0.424155 0.209118
4004 4 0.308148 0.434756 0.195954
4003 2 0.30856 0.436423 0.171009
1783 2 0.015003 0.0153848 0.302675
1611 4 0.0298401 0.00441149 0.262423
1785 4 0.0212874 0.0135691 0.278542
531 4 0.156669 0.0768105 0.326446
162 3 0.198613 0.064095 0.297683
164 3 0.172392 0.083892 0.315937
161 1 0.195131 0.079544 0.314367
165 3 0.202817 0.0711449 0.33409
3810 4 0.403375 0.057346 0.254409
1127 4 0.406977 0.0212219 0.312889
707 4 0.396498 0.0335925 0.29917
706 2 0.381322 0.0401504 0.317929
530 4 0.115979 0.0810538 0.297686
1704 4 0.115547 0.0901013 0.278911
1702 2 0.112184 0.114108 0.272783
1703 4 0.108822 0.138114 0.266655
529 2 0.136324 0.0789321 0.312066
257 4 0.147532 0.146212 0.258525
256 2 0.167136 0.160738 0.263993
515 4 0.192281 0.167182 0.288628
163 3 0.206571 0.0990209 0.309061
180 3 0.393059 0.161222 0.263784
1748 4 0.376049 0.167668 0.25587
401 4 0.383334 0.166591 0.308594
178 3 0.429145 0.156702 0.273534
285 4 0.444237 0.14453 0.28079
283 2 0.468491 0.14948 0.277269
284 4 0.492746 0.15443 0.273748
589 2 0.00801402 0.171306 0.306326
591 4 0.0319097 0.17744 0.310394
404 4 0.0461057 0.186951 0.300331
403 2 0.0666585 0.20092 0.297562
536 4 0.150844 0.210209 0.261741
405 4 0.0872112 0.214888 0.294794
30 3 0.10637 0.220822 0.291207
26 1 0.122503 0.232188 0.279842
29 3 0.132437 0.218269 0.264159
27 3 0.138573 0.239368 0.294652
726 4 0.157128 0.248762 0.29173
535 2 0.173281 0.214625 0.251628
509 4 0.207088 0.212241 0.255005
258 4 0.186739 0.175263 0.269461
724 2 0.18144 0.252057 0.296549
514 2 0.209299 0.181282 0.300323
508 2 0.231329 0.206125 0.255391
516 4 0.226317 0.195381 0.312019
1190 4 0.274134 0.19908 0.304984
1189 2 0.296526 0.189062 0.309825
1191 4 0.318918 0.179045 0.314666
402 4 0.335924 0.181718 0.303679
400 2 0.359629 0.174154 0.306137
176 1 0.413984 0.170059 0.262128
2179 2 0.395886 0.237366 0.316627
2954 4 0.401251 0.169336 0.31762
2181 4 0.412206 0.2428 0.29848
2790 4 0.414525 0.245984 0.279313
179 3 0.414217 0.19155 0.270873
2788 2 0.432243 0.229593 0.272785
2789 4 0.449961 0.213203 0.266258
2953 2 0.423176 0.180564 0.32191
2672 4 0.462072 0.1987 0.271262
2671 2 0.484939 0.208814 0.271425
2955 4 0.445101 0.191792 0.326201
28 3 0.113234 0.250661 0.269294
716 4 0.152748 0.306684 0.259962
715 2 0.136175 0.288308 0.263546
717 4 0.119602 0.269931 0.26713
725 4 0.205753 0.255352 0.301368
1031 4 0.22367 0.258779 0.291593
1030 2 0.247662 0.25269 0.295128
374 4 0.211465 0.316687 0.274847
1032 4 0.271653 0.2466 0.298663
1395 4 0.283787 0.258956 0.28575
1393 2 0.305015 0.26951 0.277801
1394 4 0.326244 0.280063 0.269853
2753 4 0.343456 0.272031 0.26631
2556 4 0.404364 0.328493 0.297793
2754 4 0.393028 0.274732 0.272318
2752 2 0.368242 0.273382 0.269314
2554 2 0.407446 0.327827 0.322597
339 4 0.42095 0.33658 0.291162
3935 4 0.0587486 0.368463 0.279796
3934 2 0.0710262 0.388367 0.288643
3936 4 0.0833039 0.408272 0.297489
259 2 0.0932084 0.405185 0.336958
375 4 0.207546 0.354767 0.307023
373 2 0.209505 0.335727 0.290935
1188 4 0.31911 0.424487 0.318985
3318 4 0.342019 0.348757 0.311217
337 2 0.44169 0.349314 0.285426
338 4 0.46243 0.362047 0.279689
291 4 0.473011 0.363155 0.262606
289 2 0.493594 0.366351 0.276437
3990 4 0.0053591 0.443272 0.253826
3988 2 0.0278043 0.435125 0.261244
3989 4 0.0502494 0.426979 0.268663
2824 2 0.0437888 0.496816 0.268529
2826 4 0.0664267 0.494899 0.258087
1676 4 0.0798842 0.480238 0.256995
261 4 0.0786802 0.406449 0.316647
1675 2 0.104784 0.480654 0.25475
1187 4 0.292071 0.427743 0.277044
1186 2 0.30559 0.426115 0.298015
1802 4 0.336299 0.41348 0.31879
1801 2 0.360446 0.419432 0.316212
669 4 0.396439 0.413384 0.302076
1803 4 0.384594 0.425385 0.313634
667 2 0.416234 0.428369 0.29911
668 4 0.436029 0.443354 0.296145
1436 4 0.453935 0.436508 0.291073
1435 2 0.476562 0.44104 0.300698
424 2 0.044452 0.00994323 0.359732
426 4 0.0491456 0.0340765 0.364286
2645 4 0.0692503 0.033359 0.370047
2644 2 0.093464 0.0361831 0.375606
2646 4 0.117678 0.0390073 0.381165
2663 4 0.127354 0.0224317 0.373511
2662 2 0.148634 0.0324388 0.382008
2664 4 0.169915 0.042446 0.390505
1967 4 0.187201 0.0379272 0.398839
1966 2 0.202346 0.0256317 0.414479
722 4 0.217642 0.0787572 0.347239
721 2 0.242263 0.0745195 0.346211
2502 4 0.279031 0.0495682 0.417806
1349 4 0.294868 0.0484697 0.404461
1348 2 0.291882 0.0474434 0.379658
1057 2 0.316611 0.0147484 0.342481
1058 4 0.299269 0.0296833 0.352549
1350 4 0.288896 0.046417 0.354855
723 4 0.266883 0.0702817 0.345182
618 4 0.359312 0.0259135 0.400744
3395 4 0.35687 0.00998728 0.413806
708 4 0.366146 0.0467083 0.336687
617 4 0.364366 0.0342219 0.351692
616 2 0.361839 0.0300677 0.376218
2683 2 0.0466232 0.15744 0.416346
3033 4 0.0042217 0.149765 0.416983
2892 4 0.126536 0.0809351 0.392711
635 4 0.1492 0.09043 0.33949
636 4 0.139322 0.0948042 0.388316
634 2 0.144261 0.0926171 0.363903
2714 4 0.417406 0.121924 0.391231
2684 4 0.0700254 0.163134 0.423062
765 4 0.0812009 0.179896 0.421768
763 2 0.104514 0.187074 0.416277
764 4 0.127827 0.194253 0.410785
2483 4 0.238691 0.180222 0.393742
2482 2 0.25457 0.189099 0.376588
2484 4 0.270449 0.197976 0.359435
8 3 0.282859 0.208971 0.368289
9 3 0.296326 0.243528 0.359983
7 3 0.306616 0.22625 0.391736
6 1 0.301296 0.223001 0.369593
10 3 0.319044 0.213521 0.358927
2957 4 0.334844 0.212394 0.370475
3080 4 0.335894 0.20457 0.390529
2956 2 0.356931 0.214449 0.358935
2180 4 0.379565 0.231931 0.334774
2958 4 0.379017 0.216504 0.347396
1952 4 0.495577 0.191167 0.371158
1951 2 0.474616 0.193307 0.357696
1953 4 0.453655 0.195446 0.344233
2817 4 0.47967 0.222684 0.405054
2815 2 0.488686 0.206053 0.421404
2699 4 0.0153605 0.277624 0.363152
479 4 0.0293637 0.269848 0.374052
478 2 0.053942 0.274142 0.375684
3462 4 0.0789017 0.288437 0.393737
480 4 0.0785204 0.278437 0.377315
3460 2 0.0928738 0.30899 0.39648
3461 4 0.106846 0.329543 0.399223
411 4 0.137523 0.330132 0.380358
409 2 0.155655 0.319043 0.367187
410 4 0.173787 0.307953 0.354016
1034 4 0.193441 0.314642 0.359408
1033 2 0.214407 0.308769 0.371702
1035 4 0.235372 0.302897 0.383995
585 4 0.25565 0.300457 0.378703
583 2 0.277583 0.291232 0.386385
584 4 0.299516 0.282007 0.394066
893 4 0.30944 0.326406 0.400218
3317 4 0.315516 0.31019 0.32885
892 2 0.33404 0.324785 0.40439
569 4 0.373187 0.335386 0.400232
2528 4 0.348631 0.274075 0.410295
2496 4 0.359422 0.280734 0.424784
2611 2 0.0113874 0.367713 0.343099
2612 4 0.0340544 0.364345 0.353102
593 4 0.132524 0.349687 0.376886
260 4 0.107737 0.403921 0.357269
594 4 0.119968 0.390451 0.350785
592 2 0.126246 0.370069 0.363836
446 4 0.301116 0.393818 0.384812
2561 4 0.295653 0.39814 0.402973
3316 2 0.328768 0.329473 0.320033
2555 4 0.410527 0.327161 0.347401
568 2 0.396276 0.335629 0.390636
570 4 0.419364 0.335871 0.381041
547 2 0.498544 0.380354 0.35965
549 4 0.481832 0.367237 0.372834
812 4 0.47214 0.375443 0.389239
811 2 0.45201 0.387571 0.397774
813 4 0.431879 0.399699 0.406309
445 2 0.301339 0.417125 0.375762
447 4 0.301563 0.440433 0.366712
4323 4 0.319463 0.447331 0.370713
4321 2 0.321475 0.46825 0.38426
4322 4 0.323487 0.489169 0.397808
2891 4 0.114787 0.0676001 0.439454
3797 4 0.101872 0.0196694 0.424125
2890 2 0.120662 0.0742676 0.416083
3796 2 0.124037 0.0144146 0.434433
3798 4 0.146202 0.00915985 0.444742
1490 4 0.166069 0.0101685 0.438946
2580 4 0.117901 0.0844252 0.451525
1968 4 0.217492 0.0133362 0.430119
220 3 0.203662 0.023641 0.48091
218 3 0.212762 0.0274031 0.444568
2558 4 0.227116 0.0656117 0.472724
219 3 0.236456 0.00986984 0.468559
216 1 0.22084 0.0268844 0.466314
217 3 0.231024 0.0469837 0.470945
2557 2 0.246343 0.0810308 0.476941
2500 2 0.262703 0.0486944 0.436722
2501 4 0.246374 0.0478205 0.455637
1181 4 0.27167 0.0132039 0.46683
4341 4 0.273454 0.0273821 0.480749
4339 2 0.294729 0.0383661 0.487956
4551 4 0.321243 0.0686989 0.497863
3394 2 0.361215 0.00977266 0.438428
2504 4 0.384282 0.0769233 0.483352
3396 4 0.36556 0.00955803 0.463051
4549 2 0.345581 0.0744051 0.497324
88 3 0.341116 0.0132499 0.496252
2685 4 0.0232209 0.151746 0.40963
3327 4 0.99834 0.140436 0.474935
3325 2 0.0195263 0.153594 0.473144
982 2 0.0745522 0.144986 0.474041
3326 4 0.0407126 0.166753 0.471354
2579 4 0.0823053 0.10909 0.476531
2578 2 0.100103 0.0967576 0.464028
983 4 0.0905607 0.126259 0.469777
2559 4 0.26557 0.0964499 0.481157
1061 4 0.284685 0.101449 0.483614
1060 2 0.306517 0.113367 0.481064
4550 4 0.36992 0.0801113 0.496785
1062 4 0.32835 0.125285 0.478513
2713 2 0.407456 0.125448 0.413897
683 4 0.343267 0.112494 0.474234
2715 4 0.397506 0.128972 0.436564
682 2 0.364392 0.118353 0.462209
684 4 0.385517 0.124211 0.450183
984 4 0.0585437 0.163713 0.478304
2802 4 0.143963 0.199405 0.420811
2800 2 0.164673 0.203897 0.434082
320 4 0.168271 0.190052 0.473669
319 2 0.171378 0.171782 0.490454
2801 4 0.185383 0.208389 0.447353
938 4 0.204626 0.204988 0.440462
937 2 0.228074 0.196435 0.441938
939 4 0.251522 0.187881 0.443415
3079 2 0.331388 0.206478 0.41505
642 4 0.267722 0.177224 0.448309
640 2 0.290734 0.186974 0.44908
641 4 0.313746 0.196725 0.449851
3081 4 0.326881 0.208387 0.43957
2816 4 0.497702 0.189423 0.437754
663 4 0.191756 0.319916 0.482632
661 2 0.207676 0.328694 0.465465
2527 2 0.330225 0.267478 0.42588
2529 4 0.31182 0.26088 0.441466
894 4 0.35864 0.323163 0.408562
3498 4 0.359963 0.247621 0.46495
2494 2 0.38302 0.286063 0.418467
3496 2 0.379384 0.260087 0.474573
2495 4 0.406619 0.291391 0.41215
3497 4 0.398804 0.272554 0.484196
365 4 0.45833 0.312012 0.446359
366 4 0.424111 0.286334 0.420467
364 2 0.441221 0.299173 0.433413
3056 4 0.476653 0.313525 0.45499
3055 2 0.496264 0.323742 0.46666
1452 4 0.111854 0.400917 0.462169
1450 2 0.136196 0.404879 0.466289
310 2 0.119923 0.349455 0.472393
312 4 0.133972 0.364583 0.458287
1451 4 0.160537 0.40884 0.470408
311 4 0.105875 0.334327 0.4865
2927 4 0.177195 0.418609 0.464237
3455 4 0.214812 0.401641 0.428416
3454 2 0.217424 0.379368 0.439473
662 4 0.223596 0.337472 0.448298
3456 4 0.220037 0.357094 0.450531
2847 4 0.174426 0.37521 0.477104
2560 2 0.304392 0.387355 0.423769
2562 4 0.313131 0.37657 0.444565
348 4 0.332369 0.375707 0.449898
346 2 0.352141 0.390825 0.452291
267 4 0.388303 0.394303 0.455801
3592 2 0.405366 0.365494 0.499959
347 4 0.371913 0.405942 0.454684
4251 4 0.488858 0.404904 0.477052
265 2 0.407051 0.399406 0.440063
266 4 0.425798 0.404508 0.424325
3593 4 0.424116 0.376484 0.487596
4044 4 0.434993 0.369991 0.470996
4042 2 0.458476 0.378552 0.470328
4043 4 0.481959 0.387113 0.469659
1171 2 0.0328021 0.464741 0.45341
1172 4 0.0348519 0.44011 0.457199
1173 4 0.0307523 0.489371 0.449621
3857 4 0.154349 0.495892 0.475292
3422 4 0.10641 0.484884 0.445907
3421 2 0.12505 0.498276 0.455826
560 4 0.106176 0.420654 0.459724
561 4 0.0982395 0.466851 0.442299
559 2 0.102208 0.443753 0.451012
2647 2 0.237364 0.474859 0.476031
2648 4 0.215588 0.463155 0.472293
2928 4 0.196003 0.464941 0.464955
2926 2 0.186599 0.441775 0.464596
1983 4 0.296113 0.490248 0.469755
2649 4 0.259141 0.486564 0.479769
1981 2 0.28099 0.506026 0.45761
2960 4 0.401916 0.488933 0.498224
4059 4 0.37738 0.456104 0.486093
1443 4 0.383642 0.461716 0.504133
1644 4 0.406809 0.487838 0.439751
4057 2 0.384211 0.465493 0.463948
4058 4 0.391042 0.474881 0.441804
2959 2 0.424061 0.479353 0.504778
2314 2 0.044814 0.0717496 0.582375
2315 4 0.0690234 0.0752673 0.587543
2316 4 0.0206047 0.068232 0.577208
2194 2 0.106659 0.0795626 0.573688
2195 4 0.127112 0.0724213 0.561203
3021 4 0.270927 0.0890602 0.551327
918 4 0.253284 0.997082 0.516591
2489 4 0.269319 0.985809 0.517004
4340 4 0.316003 0.04935 0.495164
1141 2 0.349198 0.0282603 0.538775
1143 4 0.352687 0.0337379 0.562921
1142 4 0.345708 0.0227827 0.51463
2503 2 0.403536 0.0669655 0.495814
574 2 0.405295 0.0118733 0.512837
2505 4 0.422791 0.0570076 0.508276
3620 4 0.495749 0.0309055 0.52779
576 4 0.426302 0.0227857 0.520888
3621 4 0.446059 0.0292654 0.522411
3619 2 0.470904 0.0300854 0.5251
2320 2 0.0516438 0.160374 0.555614
2321 4 0.0676074 0.171186 0.539694
2322 4 0.0356803 0.149561 0.571533
3237 4 0.0736174 0.182817 0.525227
2553 4 0.13512 0.0873128 0.550884
2551 2 0.158832 0.0894175 0.558533
321 4 0.174485 0.153512 0.507239
2552 4 0.182544 0.0915223 0.566183
1282 2 0.192026 0.165863 0.539756
762 4 0.202581 0.0857868 0.561897
1283 4 0.177567 0.169379 0.519661
760 2 0.226817 0.0869144 0.555854
761 4 0.251054 0.088042 0.549812
1284 4 0.206484 0.162347 0.55985
2317 2 0.277182 0.14619 0.552803
2319 4 0.26677 0.131433 0.535512
3019 2 0.295223 0.0872556 0.556951
3020 4 0.319519 0.0854509 0.562574
1107 4 0.330172 0.0997366 0.57014
2318 4 0.287595 0.160947 0.570094
1105 2 0.354553 0.105005 0.56842
1106 4 0.378935 0.110274 0.566701
3387 4 0.391627 0.105087 0.58072
3385 2 0.414751 0.109782 0.572447
3386 4 0.437874 0.114478 0.564174
2243 4 0.449115 0.110779 0.549344
2242 2 0.470277 0.108028 0.562376
2244 4 0.49144 0.105277 0.575407
3235 2 0.0984963 0.183969 0.523012
3236 4 0.123375 0.185121 0.520797
2603 4 0.216158 0.173696 0.573551
2602 2 0.237673 0.183793 0.58132
3419 4 0.054758 0.281037 0.54198
3418 2 0.071471 0.298421 0.548588
83 3 0.106751 0.319747 0.568933
3420 4 0.088184 0.315806 0.555196
890 4 0.107405 0.303628 0.546431
889 2 0.129173 0.292861 0.540482
891 4 0.150942 0.282095 0.534533
1239 4 0.163459 0.295399 0.528909
1237 2 0.171729 0.312121 0.512261
1238 4 0.18 0.328843 0.495612
2548 2 0.101571 0.407891 0.52907
2549 4 0.103797 0.39376 0.508563
3044 4 0.225872 0.401904 0.515004
3043 2 0.249314 0.409377 0.510554
2846 4 0.207165 0.396632 0.508249
2845 2 0.190796 0.385921 0.492677
3045 4 0.272756 0.416851 0.506104
1641 4 0.29277 0.413734 0.502399
1639 2 0.31744 0.411249 0.505621
1911 4 0.359935 0.403086 0.515692
1909 2 0.382135 0.411839 0.523159
3594 4 0.386617 0.354504 0.512322
4179 4 0.0824101 0.471918 0.570978
2550 4 0.099345 0.422023 0.549577
4177 2 0.0957938 0.450964 0.568334
4178 4 0.109178 0.430011 0.565689
1446 4 0.159342 0.449567 0.597732
1444 2 0.182094 0.441656 0.59103
215 3 0.235003 0.440092 0.537703
211 1 0.233732 0.438307 0.560371
213 3 0.211868 0.44169 0.567365
214 3 0.247739 0.453892 0.570338
1445 4 0.204847 0.433745 0.584329
1488 4 0.260392 0.491457 0.499429
1486 2 0.273238 0.494024 0.520727
212 3 0.240383 0.417214 0.566696
325 2 0.316141 0.476007 0.549019
1487 4 0.286083 0.496592 0.542024
327 4 0.296198 0.488726 0.557124
1640 4 0.342111 0.408763 0.508844
326 4 0.336084 0.463289 0.540914
1441 2 0.36443 0.470436 0.517552
1442 4 0.345218 0.479157 0.530971
1910 4 0.404334 0.420592 0.530627
2961 4 0.446207 0.469772 0.511333
3453 4 0.420505 0.429367 0.534812
3451 2 0.445082 0.433209 0.537335
3452 4 0.46966 0.437051 0.539858
1698 4 0.489787 0.440629 0.537554
2196 4 0.0862062 0.0867039 0.586173
3309 4 0.177419 0.0434201 0.626361
4284 4 0.192323 0.0441077 0.640495
4282 2 0.197368 0.0360908 0.663635
3307 2 0.189291 0.030562 0.608503
3308 4 0.201162 0.0177038 0.590644
3049 2 0.284949 0.0550508 0.607996
3051 4 0.290574 0.0310995 0.603537
2507 4 0.293442 0.0294833 0.623803
2506 2 0.3016 0.0140242 0.641682
3050 4 0.279323 0.0790022 0.612456
2282 4 0.38996 0.0757975 0.637608
3083 4 0.379135 0.059598 0.644219
3082 2 0.36084 0.0742709 0.652888
2281 2 0.412975 0.0660353 0.638075
2283 4 0.43599 0.056273 0.638543
2979 4 0.454679 0.0625794 0.6367
2977 2 0.46857 0.0642813 0.65742
3300 4 0.0169927 0.128457 0.651712
3360 4 0.0367022 0.125589 0.653613
965 4 0.040382 0.158754 0.59074
3358 2 0.0590103 0.114813 0.656992
3298 2 0.992332 0.124563 0.653074
3359 4 0.0813183 0.104038 0.660371
4370 4 0.0903764 0.122588 0.656811
4369 2 0.114709 0.118108 0.653196
3001 2 0.155289 0.148699 0.618923
3003 4 0.137613 0.165999 0.622589
4371 4 0.139041 0.113628 0.649581
3062 4 0.185033 0.126515 0.630206
3002 4 0.172965 0.131399 0.615256
3061 2 0.206745 0.1293 0.618122
3063 4 0.228456 0.132085 0.606037
3125 4 0.244882 0.130387 0.594477
3124 2 0.260954 0.14167 0.609956
3126 4 0.277025 0.152952 0.625435
3007 2 0.271057 0.142949 0.665121
270 4 0.292255 0.0843073 0.626543
268 2 0.308095 0.089465 0.645189
3008 4 0.281553 0.153658 0.645113
269 4 0.323935 0.0946228 0.663835
964 2 0.0551055 0.164083 0.610234
966 4 0.0698289 0.169411 0.629728
2175 4 0.0825478 0.183779 0.626086
2173 2 0.10648 0.182239 0.619009
2174 4 0.130411 0.180699 0.611932
2604 4 0.259187 0.193889 0.589089
3238 2 0.0351603 0.258882 0.646139
3239 4 0.0127766 0.257866 0.635043
3240 4 0.057544 0.259898 0.657236
904 2 0.0560088 0.314044 0.622137
906 4 0.0741832 0.301153 0.610793
960 4 0.994428 0.260977 0.627
84 3 0.0848362 0.313331 0.599314
82 3 0.121752 0.306408 0.600708
81 1 0.105705 0.320464 0.592102
3434 4 0.182289 0.251078 0.673263
3379 2 0.28254 0.343668 0.665486
1041 4 0.356204 0.328287 0.626906
998 4 0.36902 0.328678 0.642045
997 2 0.381411 0.32705 0.663701
905 4 0.0378344 0.326935 0.63348
3445 2 0.00951369 0.365118 0.598745
3447 4 0.0293699 0.379688 0.603059
2721 4 0.0464703 0.371623 0.601935
2719 2 0.0685511 0.382928 0.605074
3220 2 0.134009 0.381924 0.60491
3222 4 0.157614 0.37368 0.60507
85 3 0.109619 0.341678 0.599404
3221 4 0.110405 0.390168 0.60475
2720 4 0.0906318 0.394233 0.608214
3491 4 0.174667 0.363736 0.605664
3490 2 0.198917 0.367987 0.601298
3492 4 0.223166 0.372238 0.596931
3381 4 0.306366 0.350535 0.662273
1040 4 0.312298 0.341582 0.646811
1039 2 0.334251 0.334935 0.636859
3962 4 0.0757439 0.489841 0.566624
3263 4 0.10299 0.490045 0.657758
3120 4 0.209796 0.46692 0.662457
3118 2 0.234578 0.465039 0.659718
4302 4 0.191757 0.456737 0.661127
1204 2 0.296657 0.474675 0.651036
1206 4 0.279295 0.456934 0.654035
1205 4 0.314019 0.492416 0.648036
3119 4 0.25936 0.463159 0.656979
879 4 0.435278 0.478148 0.656649
877 2 0.445717 0.488702 0.636528
878 4 0.456157 0.499256 0.616407
1280 4 0.475084 0.491898 0.613543
1279 2 0.492433 0.499389 0.597169
3132 4 0.00296455 0.0433014 0.697452
1083 4 0.022181 0.0448262 0.700505
1081 2 0.0419599 0.0585837 0.707192
1082 4 0.0617389 0.0723412 0.713879
1023 4 0.0807581 0.0802683 0.706739
1021 2 0.105474 0.0802957 0.702956
1022 4 0.130191 0.080323 0.699173
2256 4 0.141027 0.0818277 0.682066
4283 4 0.202413 0.028074 0.686775
2254 2 0.165854 0.0796479 0.680057
2255 4 0.190681 0.0774681 0.678048
1038 4 0.203884 0.0105994 0.698491
2133 4 0.283171 0.0189639 0.725963
4386 4 0.285134 0.0246449 0.745734
2978 4 0.48246 0.0659832 0.67814
3294 4 0.0470864 0.12866 0.709153
3292 2 0.0713794 0.12783 0.715014
3293 4 0.0956724 0.126999 0.720875
954 4 0.113729 0.132468 0.716703
952 2 0.133883 0.144565 0.70818
953 4 0.154037 0.156662 0.699657
1077 4 0.169532 0.144591 0.702672
1075 2 0.187701 0.140565 0.719372
1076 4 0.20587 0.13654 0.736072
3146 4 0.222113 0.127183 0.743716
3145 2 0.246841 0.130176 0.741529
1004 4 0.207944 0.0899141 0.681565
1003 2 0.224763 0.108374 0.680324
3147 4 0.271569 0.133169 0.739343
1005 4 0.241582 0.126833 0.679083
3009 4 0.260561 0.132239 0.685129
3084 4 0.342545 0.0889439 0.661556
3441 4 0.380769 0.139273 0.73501
2628 4 0.394292 0.13885 0.720994
2626 2 0.418058 0.137501 0.728645
3356 4 0.45947 0.144424 0.738251
2627 4 0.441824 0.136152 0.736297
3355 2 0.482506 0.134762 0.739328
3093 4 0.0772532 0.2607 0.652702
1134 4 0.0343825 0.335954 0.733836
3091 2 0.101296 0.267206 0.654896
3092 4 0.125338 0.273712 0.65709
3435 4 0.133104 0.258891 0.668732
3433 2 0.157696 0.254985 0.670998
383 4 0.201737 0.247621 0.674829
384 4 0.224629 0.282054 0.702955
382 2 0.213183 0.264838 0.688892
1297 2 0.227185 0.333874 0.693308
1298 4 0.251186 0.338094 0.68771
3383 4 0.281755 0.312171 0.700043
3382 2 0.302249 0.299008 0.705691
3384 4 0.322744 0.285845 0.711339
921 4 0.336259 0.274908 0.72045
3380 4 0.258714 0.336801 0.6687
919 2 0.358889 0.274499 0.731077
3114 4 0.399044 0.333209 0.703578
999 4 0.393803 0.325421 0.685357
4208 4 0.0263169 0.408096 0.706946
4207 2 0.04866 0.397085 0.709116
4209 4 0.071003 0.386073 0.711285
4362 4 0.0159249 0.412009 0.72385
4437 4 0.0856913 0.381913 0.698172
4435 2 0.108226 0.384326 0.708735
4436 4 0.13076 0.386738 0.719297
1299 4 0.203184 0.329653 0.698906
794 4 0.190574 0.376766 0.718363
793 2 0.199207 0.363424 0.737667
1068 4 0.321483 0.393362 0.73022
1066 2 0.339115 0.376085 0.726249
1067 4 0.356748 0.358807 0.722277
3113 4 0.373628 0.364808 0.732841
3112 2 0.386336 0.349008 0.718209
273 4 0.0329979 0.452612 0.715726