ITEM: TIMESTEP
352500
ITEM: NUMBER OF ATOMS
4590
ITEM: BOX BOUNDS xy xz yz pp pp pp
-9.9985700000000008e+00 1.0998426999999992e+01 9.9985699999999156e-01
-9.9985700000000008e+00 9.9985700000000008e+00 0.0000000000000000e+00
-9.9985700000000008e+00 9.9985700000000008e+00 0.0000000000000000e+00
ITEM: ATOMS id type xs ys zs
3478 2 0.0224769 0.063843 0.0268846
3479 4 0.0462556 0.0675065 0.0207539
3902 4 0.0632152 0.0773619 0.022189
3901 2 0.0863988 0.078857 0.031244
3903 4 0.109582 0.080352 0.0402991
2884 2 0.152367 0.0796822 0.0396196
1662 4 0.189641 0.0567987 0.0448903
1660 2 0.192439 0.0346358 0.0563412
1661 4 0.195237 0.0124728 0.0677922
2886 4 0.176513 0.0718871 0.0395478
2670 4 0.331288 0.0835325 0.0569332
2949 4 0.346517 0.00339583 0.0149908
2465 4 0.361689 0.0166177 0.0139755
2464 2 0.386502 0.0120972 0.0135422
2466 4 0.411316 0.0075768 0.0131089
3345 4 0.435276 0.0831209 0.0164392
2469 4 0.435759 0.00486957 0.0721972
1652 4 0.445046 0.0189395 0.0831723
2467 2 0.430753 0.00101534 0.0480456
2885 4 0.12822 0.0874772 0.0396915
2688 4 0.202701 0.0849308 0.0298607
2442 4 0.206482 0.125916 0.999028
2686 2 0.227137 0.0856116 0.0247684
2687 4 0.251573 0.0862924 0.019676
2708 4 0.269782 0.092364 0.0271266
2707 2 0.289887 0.0890018 0.0418363
1252 2 0.339967 0.14508 0.0136656
2709 4 0.309993 0.0856396 0.0565459
1253 4 0.352529 0.123389 0.0184581
2668 2 0.345124 0.0940942 0.039403
2669 4 0.358961 0.104656 0.0218729
1254 4 0.327406 0.16677 0.008873
2882 4 0.438671 0.101903 0.0176556
2881 2 0.452492 0.116833 0.0314432
2883 4 0.466312 0.131762 0.0452308
25 3 0.482245 0.140497 0.0532219
278 4 0.0844883 0.231881 0.0793716
2729 4 0.273175 0.216449 0.050124
3285 4 0.286762 0.232634 0.0504587
2730 4 0.306138 0.177434 0.0460302
3283 2 0.303128 0.248568 0.0592202
2728 2 0.289657 0.196941 0.0480771
2753 4 0.317784 0.174236 0.0627238
2752 2 0.337038 0.177756 0.0780623
3260 4 0.35063 0.204152 0.00546037
2638 2 0.401702 0.248354 0.00826006
914 4 0.00961977 0.271119 0.0217002
105 3 0.023673 0.282537 0.032257
101 1 0.0451247 0.287798 0.0366671
103 3 0.0501054 0.283652 0.0589926
279 4 0.0616044 0.277049 0.0734492
104 3 0.0478971 0.310139 0.0317515
102 3 0.0595259 0.274802 0.0235846
277 2 0.0730463 0.254465 0.0764104
455 4 0.077462 0.265847 0.0292639
454 2 0.0899337 0.258519 0.00864987
620 4 0.112466 0.330048 0.0796813
2842 2 0.164031 0.327884 0.00841132
292 2 0.300296 0.327274 0.0643023
293 4 0.313853 0.326695 0.0432824
3284 4 0.319494 0.264501 0.0679817
461 4 0.328384 0.326899 0.0306465
2827 2 0.357579 0.2712 0.0734013
666 4 0.346565 0.286187 0.00522785
2829 4 0.335365 0.263836 0.0812106
2639 4 0.394489 0.254776 0.0314212
2828 4 0.379793 0.278564 0.065592
967 2 0.407386 0.327956 0.0365277
968 4 0.424999 0.316351 0.0223724
3215 4 0.454012 0.286096 0.0742125
3214 2 0.478139 0.291001 0.0715509
1104 4 0.00149817 0.380127 0.0638567
1102 2 0.0240971 0.389678 0.0626597
1103 4 0.0466961 0.39923 0.0614627
2772 4 0.0641387 0.410281 0.0598288
2783 4 0.131104 0.339047 0.0772236
2770 2 0.0887062 0.412191 0.0561865
2771 4 0.113274 0.414102 0.0525441
2782 2 0.150726 0.343462 0.0626652
2844 4 0.164636 0.34091 0.0297167
2784 4 0.170348 0.347877 0.0481067
670 2 0.27791 0.394719 0.0760137
460 2 0.351595 0.334491 0.0339717
462 4 0.374805 0.342083 0.0372969
3727 2 0.395246 0.378681 0.077246
969 4 0.389772 0.33956 0.0506829
3729 4 0.419239 0.380476 0.0707641
3543 4 0.438934 0.384598 0.0708676
3541 2 0.458929 0.397478 0.076642
3542 4 0.478924 0.410357 0.0824164
1742 4 0.492716 0.395078 0.0809293
2583 4 0.031548 0.446844 0.0780029
2911 2 0.0420733 0.477648 0.0577517
2913 4 0.047243 0.489371 0.0364301
2912 4 0.0369036 0.465924 0.0790734
3258 4 0.0304897 0.489333 0.0259341
2581 2 0.00810291 0.439571 0.0756707
2522 4 0.130625 0.419622 0.0426375
2523 4 0.176236 0.430128 0.0264559
2521 2 0.153431 0.424875 0.0345467
646 2 0.199702 0.46455 0.077099
3339 4 0.194508 0.425513 0.0198747
647 4 0.217996 0.466406 0.0602568
3337 2 0.21128 0.424641 0.0384374
3338 4 0.228053 0.423768 0.0570001
672 4 0.2701 0.412462 0.059814
4512 4 0.41217 0.480382 0.0496532
2733 4 0.0433009 0.0319214 0.154196
2768 4 0.0760925 0.0515042 0.129378
2767 2 0.0927842 0.0680822 0.135965
1374 4 0.15927 0.000694622 0.127512
1372 2 0.16319 0.0149626 0.147515
404 4 0.417603 0.0155152 0.1655
2181 4 0.43082 0.0285299 0.15951
1651 2 0.465645 0.0221275 0.0967403
2179 2 0.455322 0.0314492 0.156492
2180 4 0.479825 0.0343686 0.153474
1653 4 0.486245 0.0253156 0.110308
1749 4 0.498273 0.0430897 0.145606
2769 4 0.109476 0.0846602 0.142552
697 2 0.117106 0.110799 0.157214
699 4 0.122048 0.098097 0.136112
2788 2 0.165211 0.165796 0.152818
2790 4 0.188145 0.154858 0.150736
355 2 0.283162 0.160066 0.099799
722 4 0.291183 0.106709 0.158948
356 4 0.305556 0.147933 0.1016
758 4 0.317104 0.145609 0.117098
757 2 0.313324 0.129797 0.13592
759 4 0.309545 0.113985 0.154742
2673 4 0.126349 0.166446 0.157299
2789 4 0.142277 0.176733 0.154899
357 4 0.260767 0.1722 0.0979984
623 4 0.261741 0.179872 0.118668
622 2 0.264081 0.189475 0.141581
624 4 0.266421 0.199078 0.164494
2754 4 0.356292 0.181276 0.0934007
2786 4 0.366814 0.196192 0.0873735
2785 2 0.376076 0.212517 0.103408
2787 4 0.385338 0.228842 0.119443
1056 4 0.0225324 0.255138 0.153296
3141 4 0.00942712 0.287414 0.106519
2798 4 0.00654226 0.27003 0.160319
3139 2 0.0321012 0.296851 0.107144
1054 2 0.0456638 0.258055 0.161947
3140 4 0.0547754 0.306288 0.107769
2470 2 0.0323044 0.331442 0.153424
2471 4 0.00772597 0.334026 0.157977
2472 4 0.0568829 0.328858 0.14887
621 4 0.0725946 0.310119 0.100499
619 2 0.0925305 0.320084 0.0900901
294 4 0.286739 0.327852 0.0853222
525 4 0.300099 0.325075 0.101064
523 2 0.316562 0.321234 0.119657
524 4 0.333025 0.317392 0.138249
288 4 0.352502 0.309425 0.138596
286 2 0.372496 0.321003 0.130358
287 4 0.392491 0.332581 0.12212
349 2 0.493655 0.328253 0.118878
2571 4 0.0569209 0.347623 0.146033
2569 2 0.0796509 0.35455 0.139349
2570 4 0.102381 0.361478 0.132665
2969 4 0.119028 0.349208 0.132561
2968 2 0.136601 0.365828 0.129359
2970 4 0.154174 0.382448 0.126156
671 4 0.28572 0.376975 0.0922133
2726 4 0.304213 0.382691 0.087234
2725 2 0.328813 0.377458 0.089567
2727 4 0.353413 0.372225 0.0919001
3728 4 0.371254 0.376886 0.083728
252 4 0.40654 0.345088 0.115426
250 2 0.430348 0.341722 0.122842
350 4 0.469725 0.33657 0.117118
251 4 0.454157 0.338357 0.130259
2705 4 0.452888 0.395885 0.161018
1465 2 0.0212302 0.484803 0.113572
1467 4 0.0430948 0.495066 0.109204
4211 4 0.0635315 0.493027 0.114951
3634 2 0.161463 0.495007 0.105027
2093 4 0.153657 0.429156 0.131124
3635 4 0.165138 0.470213 0.102905
648 4 0.181408 0.462694 0.0939412
2092 2 0.178287 0.432257 0.129998
2094 4 0.202917 0.435359 0.128873
2919 4 0.219591 0.442439 0.12155
2917 2 0.243215 0.449078 0.12424
2918 4 0.266839 0.455717 0.12693
1673 4 0.276991 0.497544 0.124792
2547 4 0.0119181 0.0236538 0.210465
2732 4 0.0138306 0.0174255 0.19133
2545 2 0.027494 0.0351641 0.225691
2731 2 0.0285657 0.0246735 0.172763
2546 4 0.0430699 0.0466744 0.240917
1373 4 0.16711 0.0292307 0.167519
2519 4 0.193551 0.083017 0.192142
689 4 0.208047 0.034903 0.241298
688 2 0.227459 0.0183382 0.238966
249 4 0.356489 0.0263419 0.190912
247 2 0.361923 0.0291503 0.215124
248 4 0.367357 0.0319587 0.239336
405 4 0.36886 0.0209149 0.176541
403 2 0.393231 0.018215 0.17102
393 4 0.379153 0.0458743 0.246785
391 2 0.404165 0.0440838 0.245844
392 4 0.429176 0.0422934 0.244903
428 4 0.448141 0.0456606 0.248195
2951 4 0.0193311 0.166142 0.204284
632 4 0.0676295 0.114198 0.248042
2950 2 0.0435168 0.166513 0.198023
2454 4 0.00174122 0.158304 0.210269
2671 2 0.103466 0.165316 0.167182
522 4 0.0692048 0.107848 0.229943
2672 4 0.0805824 0.164186 0.177064
520 2 0.0857559 0.113635 0.212391
521 4 0.102307 0.119422 0.194838
698 4 0.112164 0.1235 0.178316
2518 2 0.212044 0.091343 0.178061
721 2 0.26861 0.101253 0.167521
2520 4 0.230538 0.099669 0.16398
604 2 0.246714 0.145454 0.244477
723 4 0.246037 0.0957981 0.176094
606 4 0.255411 0.134805 0.223379
731 4 0.273963 0.140012 0.219419
730 2 0.297869 0.13216 0.216156
732 4 0.321775 0.124308 0.212894
581 4 0.341685 0.118214 0.210574
580 2 0.361973 0.120044 0.224944
582 4 0.382261 0.121874 0.239314
750 4 0.402529 0.125985 0.241907
748 2 0.422982 0.13238 0.229546
749 4 0.443435 0.138776 0.217186
459 4 0.457622 0.151009 0.221815
283 2 0.0647776 0.22718 0.218179
390 4 0.0515867 0.25267 0.244887
285 4 0.0638151 0.218355 0.194826
2952 4 0.0677025 0.166883 0.191762
284 4 0.06574 0.236005 0.241531
506 4 0.28252 0.209115 0.173466
505 2 0.303719 0.201605 0.185092
507 4 0.324918 0.194095 0.196717
578 4 0.337875 0.184422 0.208037
577 2 0.356355 0.196604 0.218639
579 4 0.374835 0.208786 0.22924
236 4 0.393208 0.216161 0.23538
235 2 0.418202 0.216305 0.235073
237 4 0.443196 0.21645 0.234766
458 4 0.454362 0.19837 0.237843
457 2 0.455992 0.174689 0.229829
2540 4 0.0796725 0.27417 0.163121
2539 2 0.0958616 0.290922 0.170514
1055 4 0.0687953 0.260972 0.170598
2541 4 0.112051 0.307674 0.177907
727 2 0.0725897 0.411644 0.181504
728 4 0.0885246 0.39957 0.165872
2538 4 0.106103 0.399728 0.17795
2536 2 0.127358 0.400039 0.191089
2537 4 0.148614 0.40035 0.204228
712 2 0.190892 0.410153 0.207674
714 4 0.168495 0.401648 0.202016
337 2 0.258709 0.414751 0.210336
713 4 0.213289 0.418657 0.213331
2556 4 0.340691 0.363729 0.179171
338 4 0.283438 0.412529 0.214108
2554 2 0.361725 0.37409 0.186474
2555 4 0.38276 0.384451 0.193776
2526 4 0.399221 0.376979 0.202111
2524 2 0.420273 0.382632 0.213862
2525 4 0.441325 0.388285 0.225612
2862 4 0.459171 0.39578 0.219227
2704 2 0.462121 0.378273 0.176678
2860 2 0.48371 0.396066 0.22394
2706 4 0.471354 0.360662 0.192338
2493 4 0.486341 0.3589 0.205231
729 4 0.0566547 0.423717 0.197135
395 4 0.0773437 0.486842 0.238061
396 4 0.116825 0.464528 0.215022
394 2 0.0970845 0.475685 0.226542
3920 4 0.13406 0.458498 0.222554
3919 2 0.15891 0.460051 0.223743
2820 4 0.203083 0.457418 0.229636
3921 4 0.183759 0.461604 0.224932
339 4 0.233981 0.416974 0.206565
2818 2 0.226842 0.463793 0.227448
2819 4 0.250602 0.470168 0.225259
3566 4 0.268934 0.479415 0.228217
677 4 0.301777 0.41954 0.210415
3565 2 0.292712 0.486036 0.227899
3567 4 0.31649 0.492657 0.227581
676 2 0.326241 0.42117 0.20594
4031 4 0.337447 0.494335 0.229328
678 4 0.350705 0.422799 0.201465
4032 4 0.386285 0.498422 0.22045
4030 2 0.361866 0.496378 0.224889
1425 4 0.368596 0.429608 0.196157
1423 2 0.391205 0.438983 0.198331
1424 4 0.413814 0.448359 0.200505
645 4 0.499899 0.458427 0.196601
1437 4 0.433793 0.453029 0.201187
1435 2 0.457766 0.459003 0.201802
1436 4 0.481739 0.464978 0.202418
3722 4 0.0585617 0.0574259 0.248771
122 3 0.00864957 0.0365999 0.317051
121 1 0.0247975 0.0512672 0.322441
123 3 0.0361817 0.0567122 0.30313
3723 4 0.055957 0.0621913 0.298495
3721 2 0.0572594 0.0598086 0.273633
427 2 0.472307 0.0501557 0.251368
429 4 0.496473 0.0546508 0.25454
2890 2 0.00646416 0.151099 0.270303
633 4 0.0445369 0.116612 0.292395
2892 4 0.0314307 0.150565 0.268602
2878 2 0.0553793 0.10579 0.325789
631 2 0.0560832 0.115405 0.270219
2879 4 0.0593083 0.119002 0.305063
27 3 0.229202 0.145013 0.316492
605 4 0.238017 0.156103 0.265574
29 3 0.235575 0.162829 0.284204
26 1 0.245628 0.151992 0.302383
28 3 0.258504 0.133449 0.295188
1032 4 0.27395 0.121568 0.288103
546 4 0.273421 0.162518 0.326699
1030 2 0.292264 0.125288 0.271699
1031 4 0.310579 0.129009 0.255296
2945 4 0.481008 0.131758 0.310037
537 4 0.00734513 0.24125 0.295981
388 2 0.0330807 0.249109 0.261116
389 4 0.0145748 0.245548 0.277346
2591 4 0.130001 0.215916 0.285359
2590 2 0.138603 0.237112 0.276272
30 3 0.258695 0.166247 0.313589
544 2 0.292969 0.177121 0.325829
545 4 0.312516 0.191724 0.324959
387 4 0.477813 0.226 0.27461
385 2 0.491135 0.245806 0.269314
2592 4 0.147205 0.258308 0.267186
611 4 0.157697 0.275939 0.269223
612 4 0.185422 0.300334 0.301901
610 2 0.17156 0.288137 0.285562
413 4 0.203548 0.296266 0.309655
412 2 0.222324 0.300308 0.325424
345 4 0.293166 0.30016 0.261613
343 2 0.315756 0.30973 0.262829
344 4 0.338345 0.3193 0.264044
2654 4 0.358441 0.315245 0.266126
2653 2 0.372572 0.311846 0.286588
2655 4 0.386704 0.308448 0.30705
681 4 0.171788 0.405712 0.271298
1575 4 0.28385 0.412115 0.264107
1802 4 0.374002 0.379312 0.281157
1801 2 0.39035 0.393512 0.269643
1803 4 0.406698 0.407712 0.258129
1746 4 0.0272577 0.488306 0.264278
1744 2 0.00272933 0.484542 0.264598
679 2 0.184999 0.426116 0.268782
680 4 0.198211 0.446519 0.266266
3884 4 0.202097 0.464885 0.273978
3883 2 0.210167 0.467362 0.29747
3885 4 0.218237 0.469838 0.320963
1573 2 0.302205 0.427683 0.268196
1574 4 0.320561 0.443251 0.272285
543 4 0.340116 0.445249 0.27799
753 4 0.417299 0.423255 0.250561
541 2 0.362242 0.450951 0.287498
542 4 0.384367 0.456654 0.297007
245 4 0.402621 0.462762 0.303729
244 2 0.423799 0.463534 0.316936
752 4 0.464624 0.436115 0.25643
4 3 0.483792 0.44148 0.257382
246 4 0.444978 0.464306 0.330143
751 2 0.440961 0.429685 0.253496
125 3 0.0392932 0.0414004 0.337448
3504 4 0.02452 0.00474554 0.353654
124 3 0.0144997 0.0703782 0.331708
2113 2 0.01251 0.0215636 0.411736
4355 4 0.044984 0.00903936 0.354725
2114 4 0.0358506 0.0262222 0.404824
4354 2 0.0686908 0.0158629 0.354162
4356 4 0.0923976 0.0226864 0.353598
2817 4 0.113284 0.0240408 0.355922
2815 2 0.136636 0.0313519 0.358952
2816 4 0.159989 0.038663 0.361982
4238 4 0.150701 0.0731864 0.411481
2714 4 0.179434 0.0464945 0.362849
2713 2 0.203477 0.0500519 0.357762
2559 4 0.166929 0.0792086 0.401252
2557 2 0.189302 0.0831508 0.411262
2715 4 0.22752 0.0536093 0.352675
3477 4 0.249265 0.0611148 0.347767
3475 2 0.273196 0.0664612 0.351086
1244 4 0.316734 0.0777285 0.357828
3476 4 0.297128 0.0718077 0.354404
1243 2 0.341187 0.0818402 0.358275
1522 2 0.463681 0.0537051 0.395358
1524 4 0.47652 0.0506699 0.374027
2643 4 0.494659 0.053842 0.381455
420 4 0.0526631 0.0868873 0.365822
2880 4 0.0514504 0.0925767 0.346514
4237 2 0.127466 0.0836266 0.410947
418 2 0.0736702 0.0895523 0.378905
419 4 0.0946772 0.0922174 0.391988
4239 4 0.104231 0.0940668 0.410413
1034 4 0.141226 0.156593 0.389515
1245 4 0.365641 0.0859519 0.358721
2667 4 0.385823 0.0898104 0.358333
2665 2 0.41006 0.0935336 0.354483
2666 4 0.434297 0.0972568 0.350634
650 4 0.498968 0.158763 0.38901
1375 2 0.47756 0.101327 0.345705
1377 4 0.452782 0.100085 0.343134
2900 4 0.451705 0.126306 0.401937
1033 2 0.1584 0.17014 0.400607
2612 4 0.195219 0.183501 0.413005
1035 4 0.175573 0.183687 0.411699
765 4 0.195748 0.247583 0.398129
1199 4 0.291757 0.228431 0.370263
531 4 0.329291 0.199672 0.333733
1198 2 0.316092 0.228839 0.36462
1200 4 0.340426 0.229247 0.358976
529 2 0.352382 0.189832 0.337932
2766 4 0.346248 0.248148 0.355653
530 4 0.375473 0.179993 0.34213
3158 4 0.394473 0.185813 0.346765
3157 2 0.415764 0.18581 0.359875
2684 4 0.432415 0.216254 0.417444
3159 4 0.437055 0.185806 0.372985
2484 4 0.446321 0.212177 0.402577
651 4 0.453667 0.181851 0.384679
2482 2 0.449404 0.233412 0.390043
649 2 0.476318 0.170307 0.386845
764 4 0.154452 0.259949 0.371803
763 2 0.1751 0.253766 0.384966
510 4 0.205471 0.254691 0.413808
508 2 0.230318 0.256181 0.412433
414 4 0.241101 0.304351 0.341193
717 4 0.269103 0.270692 0.40575
715 2 0.284683 0.289403 0.404219
509 4 0.255165 0.25767 0.411058
716 4 0.300263 0.308113 0.402688
2764 2 0.368307 0.2573 0.361519
2699 4 0.384418 0.323569 0.383268
2698 2 0.405865 0.328477 0.371843
2802 4 0.399355 0.278629 0.354864
2765 4 0.390367 0.266453 0.367386
2800 2 0.422662 0.268718 0.357429
2700 4 0.427312 0.333385 0.360418
2801 4 0.44597 0.258808 0.359994
2483 4 0.452487 0.254647 0.37751
3422 4 0.366733 0.40193 0.363339
3421 2 0.390549 0.407068 0.367729
3423 4 0.414365 0.412205 0.372119
2904 4 0.445689 0.339829 0.361203
3640 2 0.455836 0.412633 0.379033
2902 2 0.465277 0.354383 0.362009
3641 4 0.478852 0.404743 0.386187
2903 4 0.484864 0.368938 0.362815
488 4 0.466646 0.330981 0.418446
3582 4 0.00146058 0.462387 0.414749
549 4 0.0463966 0.4498 0.365726
547 2 0.0700853 0.451494 0.373285
1434 4 0.111434 0.462546 0.378425
548 4 0.0937739 0.453187 0.380845
1432 2 0.134103 0.458764 0.368152
1433 4 0.156773 0.454982 0.35788
2531 4 0.174523 0.447148 0.364107
2530 2 0.188159 0.460524 0.348563
2532 4 0.201796 0.473901 0.333019
2139 4 0.420942 0.490949 0.387908
669 4 0.463839 0.467113 0.337903
2712 4 0.487243 0.422412 0.386941
3642 4 0.43282 0.420523 0.371879
2137 2 0.430648 0.475016 0.404994
667 2 0.488596 0.463861 0.341018
1184 4 0.0532035 0.0273608 0.414556
1183 2 0.0742097 0.0321469 0.426841
1185 4 0.0952159 0.036933 0.439125
983 4 0.141876 0.0260819 0.446592
982 2 0.162017 0.0387825 0.452271
984 4 0.182158 0.051483 0.45795
217 3 0.197909 0.062595 0.462701
216 1 0.218652 0.0710965 0.459736
220 3 0.234502 0.0539574 0.459442
2457 4 0.251512 0.0618882 0.458387
2455 2 0.273979 0.0570476 0.46877
2456 4 0.296446 0.0522071 0.479152
3852 4 0.297515 0.0690428 0.490671
843 4 0.499429 0.0119311 0.488718
1523 4 0.450843 0.0567404 0.416689
1058 4 0.465117 0.0608377 0.430346
1057 2 0.484411 0.0663672 0.444892
3032 4 0.488227 0.0761044 0.498235
2194 2 0.216494 0.114589 0.497265
2558 4 0.211675 0.087093 0.421273
219 3 0.222742 0.0855254 0.477259
218 3 0.218793 0.0825865 0.439589
2195 4 0.231799 0.094573 0.4928
2553 4 0.249198 0.0997996 0.48519
2551 2 0.270603 0.111347 0.48813
2552 4 0.292007 0.122894 0.491069
760 2 0.335718 0.127407 0.487995
762 4 0.310721 0.129968 0.488425
761 4 0.360714 0.124847 0.487564
3173 4 0.371963 0.12275 0.470336
3172 2 0.394466 0.128143 0.461531
3174 4 0.416968 0.133536 0.452726
2901 4 0.437302 0.131331 0.449636
2899 2 0.444503 0.128818 0.425787
371 4 0.230138 0.169184 0.49312
2611 2 0.217228 0.178039 0.424092
2613 4 0.239236 0.172577 0.435179
370 2 0.251177 0.181663 0.493566
372 4 0.272215 0.194142 0.494013
938 4 0.256184 0.181019 0.427355
937 2 0.28074 0.18351 0.424226
311 4 0.26407 0.250226 0.464578
473 4 0.288619 0.184769 0.486395
310 2 0.240083 0.250001 0.471592
472 2 0.310836 0.192912 0.47954
939 4 0.305297 0.186002 0.421096
2585 4 0.321067 0.194522 0.428557
474 4 0.333054 0.201056 0.472685
726 4 0.349577 0.198235 0.481283
2584 2 0.345872 0.192978 0.425189
2683 2 0.408824 0.21034 0.421872
2685 4 0.385232 0.204426 0.426301
2586 4 0.370677 0.191433 0.421821
724 2 0.368241 0.213841 0.479397
725 4 0.386905 0.229447 0.477512
8 3 0.409403 0.210378 0.489897
2498 4 0.425471 0.24933 0.462247
2497 2 0.448701 0.25137 0.453493
368 4 0.463109 0.215826 0.495362
367 2 0.4854 0.211949 0.484323
10 3 0.446814 0.204992 0.492914
3044 4 0.0912636 0.297203 0.502958
442 2 0.175994 0.261404 0.49496
443 4 0.198911 0.256262 0.485728
312 4 0.216095 0.249776 0.478606
3059 4 0.283065 0.259961 0.463911
3058 2 0.30318 0.271541 0.455984
3060 4 0.323296 0.28312 0.448058
306 4 0.340763 0.292859 0.447509
304 2 0.364161 0.296748 0.440195
305 4 0.387558 0.300636 0.432882
453 4 0.401091 0.315967 0.4323
451 2 0.425172 0.320783 0.429068
2499 4 0.471932 0.25341 0.44474
2930 4 0.492192 0.251039 0.440272
487 2 0.49138 0.333334 0.419871
452 4 0.449253 0.325599 0.425836
602 4 0.172918 0.411629 0.460363
1029 4 0.189315 0.398401 0.458878
1027 2 0.214181 0.397446 0.461761
1028 4 0.239047 0.396492 0.464644
1172 4 0.250128 0.413119 0.462486
1171 2 0.273681 0.416615 0.455418
3456 4 0.363928 0.402194 0.493463
3454 2 0.388522 0.405606 0.493964
3455 4 0.413116 0.409018 0.494465
2637 4 0.445248 0.35594 0.500138
2635 2 0.467681 0.354636 0.489041
2636 4 0.490115 0.353332 0.477944
3581 4 0.0469718 0.475135 0.429189
3580 2 0.0242162 0.468761 0.421969
3318 4 0.0612552 0.463011 0.421462
3317 4 0.110347 0.464259 0.430574
3316 2 0.0858011 0.463635 0.426018
601 2 0.154173 0.418011 0.476014
3962 4 0.125443 0.476644 0.427671
603 4 0.135429 0.424394 0.491664
3961 2 0.145838 0.482553 0.440405
3963 4 0.166233 0.488462 0.45314
2631 4 0.182741 0.497173 0.49872
2108 4 0.317707 0.417396 0.44544
2107 2 0.339891 0.426842 0.450197
1173 4 0.297234 0.420111 0.448349
1698 4 0.373408 0.421462 0.447471
1697 4 0.41854 0.42158 0.425946
1696 2 0.395974 0.421521 0.436708
2109 4 0.362075 0.436288 0.454955
2138 4 0.440354 0.459083 0.42208
593 4 0.436085 0.420452 0.435913
326 4 0.496188 0.491317 0.477458
1446 4 0.480043 0.486367 0.465252
594 4 0.485393 0.42305 0.442977
592 2 0.460739 0.421751 0.439445
1445 4 0.440237 0.472975 0.439116
1444 2 0.46014 0.479671 0.452184
3049 2 0.0160559 0.0680325 0.556947
3023 4 0.0163825 0.00849459 0.564959
3051 4 0.0392579 0.070176 0.548157
3022 2 0.0388101 0.0170281 0.570441
88 3 0.0570554 0.0591047 0.552496
3024 4 0.0612376 0.0255616 0.575923
86 1 0.072762 0.0753374 0.551062
2996 4 0.0785794 0.0304829 0.583951
89 3 0.0920644 0.0665577 0.540791
2507 4 0.107503 0.0764112 0.53765
2506 2 0.126779 0.0600509 0.533548
2508 4 0.146054 0.0436906 0.529445
1263 4 0.16658 0.0439416 0.529696
1261 2 0.178693 0.0440799 0.551565
1262 4 0.190807 0.0442183 0.573434
3850 2 0.317489 0.068241 0.505743
3326 4 0.355718 0.0624608 0.527846
3851 4 0.337463 0.0674391 0.520816
944 4 0.409713 0.0503355 0.530207
3327 4 0.402817 0.0610327 0.544789
3325 2 0.379267 0.0617467 0.536317
943 2 0.433906 0.0476149 0.536457
1162 2 0.443432 0.00104463 0.572532
945 4 0.458098 0.0448943 0.542708
3033 4 0.475808 0.0529468 0.540427
3031 2 0.482017 0.0645256 0.519331
87 3 0.0640101 0.0928637 0.538415
90 3 0.07768 0.0828961 0.571882
575 4 0.103163 0.0959859 0.536248
574 2 0.117105 0.11601 0.535289
576 4 0.131047 0.136034 0.53433
2241 4 0.146469 0.146929 0.52611
2196 4 0.201189 0.134605 0.50173
1141 2 0.401656 0.156201 0.535354
1142 4 0.401323 0.133161 0.525754
2502 4 0.416829 0.121397 0.520711
2500 2 0.440777 0.113914 0.524373
2501 4 0.464726 0.10643 0.528034
900 4 0.471084 0.119357 0.540249
898 2 0.49213 0.13021 0.533817
2239 2 0.15573 0.166886 0.53714
960 4 0.151309 0.194924 0.561546
2240 4 0.16499 0.186843 0.548171
958 2 0.16274 0.196599 0.583677
1143 4 0.401988 0.179241 0.544953
7 3 0.424392 0.18557 0.514558
6 1 0.427144 0.205879 0.504434
917 4 0.419739 0.180998 0.552046
9 3 0.427472 0.22231 0.520777
916 2 0.444465 0.182968 0.554288
918 4 0.469192 0.184939 0.556529
3043 2 0.115207 0.288941 0.504754
3045 4 0.139151 0.280679 0.50655
444 4 0.153076 0.266546 0.504193
3237 4 0.260937 0.308271 0.524999
3235 2 0.280386 0.322919 0.523173
2847 4 0.314528 0.322833 0.523932
2845 2 0.338812 0.327287 0.521752
83 3 0.344352 0.279399 0.582706
2846 4 0.363096 0.331742 0.519572
3236 4 0.299835 0.337567 0.521348
261 4 0.378867 0.340779 0.511478
259 2 0.40243 0.346538 0.506667
348 4 0.38628 0.34488 0.579083
260 4 0.425993 0.352298 0.501856
1639 2 0.475433 0.338518 0.568642
1641 4 0.496364 0.339349 0.555053
4179 4 0.428899 0.41501 0.503591
559 2 0.012613 0.48395 0.522182
561 4 0.0353408 0.493206 0.523486
4058 4 0.050333 0.487161 0.511718
4057 2 0.0697247 0.48706 0.527508
4131 4 0.120548 0.430507 0.501553
4059 4 0.0891164 0.486958 0.543298
4538 4 0.098019 0.483903 0.559641
4129 2 0.128355 0.446758 0.518488
4130 4 0.136162 0.463008 0.535424
2630 4 0.152457 0.469678 0.525968
2629 2 0.167599 0.483426 0.512344
2129 4 0.33854 0.459407 0.578945
791 4 0.381413 0.432289 0.568316
790 2 0.40394 0.439588 0.561398
792 4 0.426466 0.446887 0.554479
2214 4 0.435287 0.463864 0.547273
4177 2 0.451627 0.424338 0.503111
2212 2 0.459476 0.457312 0.55086
4178 4 0.474354 0.433666 0.50263
2213 4 0.483665 0.45076 0.554448
3072 4 0.493159 0.428005 0.498618
2995 2 0.0982831 0.0386125 0.596388
2997 4 0.117987 0.0467421 0.608825
3309 4 0.136745 0.0564009 0.611217
3307 2 0.159391 0.0513287 0.601317
3308 4 0.182037 0.0462565 0.591417
953 4 0.415979 0.0304652 0.646971
1164 4 0.438293 0.0156145 0.592368
952 2 0.431726 0.0243597 0.628277
954 4 0.447473 0.0182543 0.609583
959 4 0.17417 0.198275 0.605808
1256 4 0.193663 0.194353 0.604916
1255 2 0.21784 0.188298 0.60922
1257 4 0.242017 0.182243 0.613524
906 4 0.237772 0.245749 0.627065
1155 4 0.258243 0.19356 0.610126
1153 2 0.282313 0.197788 0.605915
1154 4 0.306382 0.202016 0.601705
3355 2 0.322336 0.248916 0.648802
1283 4 0.326247 0.203941 0.598629
3356 4 0.344487 0.239619 0.657075
1282 2 0.351156 0.202773 0.596128
82 3 0.352626 0.245958 0.598541
2627 4 0.36136 0.243925 0.650247
1284 4 0.376065 0.201604 0.593627
2626 2 0.383645 0.247089 0.639689
1106 4 0.394036 0.208198 0.59996
1105 2 0.417757 0.213546 0.595365
2628 4 0.40593 0.250254 0.629132
1130 4 0.488667 0.170396 0.590565
1075 2 0.485017 0.22289 0.584066
1107 4 0.441479 0.218894 0.59077
1076 4 0.460004 0.225122 0.583711
904 2 0.258702 0.255141 0.635958
905 4 0.279631 0.264532 0.644851
3420 4 0.282292 0.316545 0.616208
3357 4 0.300185 0.258213 0.640529
3418 2 0.304247 0.319502 0.604898
84 3 0.329741 0.270859 0.616549
3419 4 0.326201 0.32246 0.593588
81 1 0.348394 0.268347 0.602808
85 3 0.366496 0.276661 0.613134
806 4 0.381796 0.288077 0.61302
805 2 0.403241 0.297679 0.620249
3441 4 0.425465 0.251656 0.626448
807 4 0.424686 0.307282 0.627478
976 2 0.43526 0.333182 0.647884
978 4 0.440427 0.309633 0.640486
3439 2 0.447 0.263315 0.626535
3440 4 0.468536 0.274974 0.626622
896 4 0.47978 0.288358 0.617586
895 2 0.496628 0.297878 0.632898
3433 2 0.0163728 0.345544 0.620002
3434 4 0.0408501 0.348825 0.617317
347 4 0.341497 0.334242 0.597361
4560 4 0.362709 0.354533 0.66603
346 2 0.363889 0.339561 0.588222
3112 2 0.381486 0.410419 0.650072
4558 2 0.386798 0.35571 0.659655
1281 4 0.401314 0.355914 0.58598
4559 4 0.410888 0.356887 0.65328
1279 2 0.425252 0.351466 0.592534
977 4 0.430093 0.35673 0.655282
4215 4 0.413576 0.417234 0.62158
1640 4 0.454503 0.337688 0.582232
1280 4 0.44919 0.347019 0.599088
797 4 0.0164354 0.437893 0.641267
4537 2 0.0892492 0.477506 0.582039
3490 2 0.0564398 0.493137 0.628193
3492 4 0.0644731 0.471411 0.617952
4539 4 0.0804794 0.471109 0.604436
4360 2 0.34261 0.496122 0.641824
4362 4 0.318051 0.493909 0.638409
3114 4 0.397116 0.417354 0.632132
2128 2 0.358887 0.466327 0.591155
4361 4 0.36717 0.498336 0.645238
2130 4 0.379235 0.473246 0.603364
3465 4 0.400876 0.47527 0.643423
1983 4 0.390109 0.488781 0.603374
2216 4 0.414024 0.488799 0.646815
3463 2 0.406064 0.456487 0.659371
1981 2 0.413367 0.483686 0.595003
4213 2 0.43728 0.423973 0.622923
1982 4 0.436624 0.47859 0.586632
4214 4 0.460983 0.430713 0.624266
2171 4 0.453167 0.491379 0.585599
1911 4 0.479171 0.424144 0.616302
1909 2 0.499035 0.433699 0.605343
3084 4 0.252362 0.024256 0.683707
3082 2 0.26129 0.00497452 0.69749
1022 4 0.00941104 0.0958234 0.698373
1021 2 0.0320504 0.0904804 0.708176
1023 4 0.0546897 0.0851374 0.71798
3009 4 0.157345 0.117439 0.747745
3126 4 0.216556 0.0879824 0.701958
3124 2 0.236748 0.0919804 0.688053
3125 4 0.25694 0.0959784 0.674147
3062 4 0.0021944 0.167503 0.705058
3061 2 0.0247534 0.177133 0.706317
3063 4 0.0473125 0.186763 0.707576
3167 4 0.0651286 0.196343 0.708934
3166 2 0.0880099 0.20518 0.707166
3168 4 0.110891 0.214016 0.705397
3002 4 0.130448 0.212694 0.705458
3001 2 0.155154 0.215306 0.706675
3003 4 0.17986 0.217919 0.707893
2174 4 0.1988 0.22037 0.704746
2173 2 0.222786 0.212209 0.703116
2175 4 0.246772 0.204048 0.701485
3240 4 0.26645 0.20459 0.703206
3238 2 0.291164 0.207287 0.702554
3239 4 0.315878 0.209983 0.701902
3351 4 0.336273 0.206194 0.695022
3271 2 0.340057 0.249388 0.746714
3349 2 0.357789 0.217044 0.690451
3273 4 0.359928 0.24867 0.731508
3350 4 0.379305 0.227893 0.68588
779 4 0.395887 0.229432 0.69649
3252 4 0.375301 0.242408 0.741801
778 2 0.420704 0.230774 0.698522
780 4 0.445522 0.232116 0.700554
3074 4 0.284962 0.33001 0.711559
3092 4 0.305261 0.326206 0.714583
3091 2 0.313568 0.322418 0.737927
3312 4 0.235868 0.346486 0.74794
3075 4 0.24501 0.354558 0.731522
3073 2 0.264986 0.342284 0.72154
3380 4 0.315958 0.33398 0.700764
3379 2 0.337495 0.343343 0.693463
3113 4 0.365857 0.403485 0.668012
998 4 0.365014 0.409968 0.687145
3381 4 0.359031 0.352707 0.686162
997 2 0.37888 0.412463 0.707717
999 4 0.392746 0.414958 0.72829
1017 4 0.403123 0.40966 0.744874
1007 4 0.45577 0.407316 0.69353
3375 4 0.470861 0.393296 0.670304
3373 2 0.479393 0.372372 0.681764
3374 4 0.487925 0.351448 0.693223
993 4 0.0816561 0.487721 0.713484
991 2 0.0950827 0.468665 0.723803
992 4 0.108509 0.44961 0.734121
942 4 0.125313 0.443798 0.725439
940 2 0.148356 0.434343 0.720304
941 4 0.171399 0.424888 0.71517
1098 4 0.185882 0.438139 0.716968
1096 2 0.210265 0.435214 0.722369
1097 4 0.234649 0.432289 0.727771
1278 4 0.253249 0.425897 0.724512
1276 2 0.273991 0.434662 0.714525
1277 4 0.294734 0.443426 0.704539
821 4 0.313968 0.445652 0.709837
820 2 0.331583 0.460559 0.717951
822 4 0.349199 0.475466 0.726066
1235 4 0.363753 0.461786 0.727314
1234 2 0.387341 0.466832 0.732912
3464 4 0.411252 0.437704 0.675318
1008 4 0.408165 0.424386 0.688667
1236 4 0.410929 0.471879 0.738511
2289 4 0.42299 0.479614 0.724531
1006 2 0.431967 0.415851 0.691099
2287 2 0.445938 0.488352 0.72594
4196 4 0.4604 0.423643 0.717981
4195 2 0.471009 0.43674 0.736058
4197 4 0.481618 0.449836 0.754136
2288 4 0.468885 0.49709 0.727349
3553 2 0.0187364 0.0298673 0.798401
3554 4 0.0414882 0.0351635 0.790194
193 3 0.0576872 0.04375 0.787296
195 3 0.0857884 0.0626536 0.772578
191 1 0.0799274 0.0424728 0.78059
192 3 0.0825571 0.0266918 0.763955
194 3 0.093578 0.036103 0.798481
3764 4 0.111326 0.035767 0.807585
1112 4 0.0882285 0.0821735 0.778393
3763 2 0.132352 0.0457165 0.815518
3765 4 0.153378 0.0556661 0.823451
1994 4 0.171012 0.0641008 0.824299
1993 2 0.195453 0.0574779 0.824471
1995 4 0.219894 0.0508551 0.824642
2283 4 0.225947 0.00820431 0.776082
1194 4 0.240109 0.051638 0.829877
4579 2 0.264061 0.0122035 0.779419
4581 4 0.283325 0.0215181 0.791631
2036 4 0.298705 0.00980122 0.799959
4580 4 0.244796 0.00288895 0.767207
3130 2 0.330455 0.0757073 0.764651
2035 2 0.321018 0.0158352 0.808754
3131 4 0.344408 0.0584602 0.752148
2037 4 0.343331 0.0218693 0.817549
2348 4 0.363144 0.0170364 0.818179
2347 2 0.386839 0.0208402 0.82452
2349 4 0.410534 0.024644 0.830861
1038 4 0.430736 0.0246391 0.82976
1965 4 0.493861 0.0427076 0.814711
1037 4 0.477143 0.0404417 0.824914
1036 2 0.453939 0.0325404 0.827337
3133 2 0.0599933 0.159143 0.825404
1111 2 0.100852 0.091027 0.797786
1113 4 0.113475 0.0998806 0.817178
3007 2 0.180638 0.119434 0.756346