ITEM: TIMESTEP
733500
ITEM: NUMBER OF ATOMS
4590
ITEM: BOX BOUNDS xy xz yz pp pp pp
-1.6597626200000001e+01 9.9985700000000008e+00 -6.5990561999999997e+00
-9.9985700000000008e+00 9.9985700000000008e+00 0.0000000000000000e+00
-9.9985700000000008e+00 9.9985700000000008e+00 0.0000000000000000e+00
ITEM: ATOMS id type xs ys zs
4505 4 0.20421 0.00728145 0.00690593
4504 2 0.229337 0.0126561 0.0140415
4506 4 0.254464 0.0180308 0.0211771
2947 2 0.26444 0.00769529 0.0693561
1760 4 0.422618 0.0643607 0.0532369
1759 2 0.424832 0.0581781 0.0293864
1761 4 0.427047 0.0519956 0.00553595
2886 4 0.407911 0.0285267 0.0782247
2884 2 0.428216 0.020522 0.0723439
2885 4 0.44852 0.0125174 0.066463
3903 4 0.468125 0.0230538 0.06517
3901 2 0.483299 0.0195306 0.046572
3902 4 0.498473 0.0160073 0.027974
2709 4 0.0150553 0.118675 0.036087
2669 4 0.0713551 0.100771 0.0137323
354 4 0.0988984 0.163918 0.0740901
1253 4 0.0868358 0.0992993 0.00325579
2668 2 0.0793412 0.0960899 0.0363688
2670 4 0.0873273 0.0914082 0.0590054
3209 4 0.320918 0.0989139 0.0517838
3208 2 0.343122 0.0929257 0.0539361
3413 4 0.385026 0.143279 0.00445856
3412 2 0.400422 0.152882 0.0240405
3210 4 0.365326 0.0869376 0.0560884
557 4 0.383986 0.0861504 0.0638123
3414 4 0.415818 0.162486 0.0436224
556 2 0.408877 0.0899185 0.0710106
558 4 0.433767 0.0936865 0.0782089
2882 4 0.485788 0.153535 0.065127
3241 2 0.0102345 0.214389 0.0469104
3243 4 0.0325086 0.208893 0.0507518
3284 4 0.0439518 0.228596 0.0512771
3283 2 0.0685827 0.241606 0.0577822
1275 4 0.167282 0.210068 0.00751367
465 4 0.381772 0.226306 0.0151007
360 4 0.383031 0.196637 0.0338944
358 2 0.405637 0.20537 0.0465376
3343 2 0.460353 0.169504 0.0484248
3344 4 0.436634 0.171301 0.0428668
359 4 0.428244 0.214104 0.0591807
282 4 0.44871 0.220657 0.0662057
3345 4 0.484072 0.167706 0.0539828
2487 4 0.0712077 0.320877 0.0180843
2783 4 0.0333969 0.304487 0.0789502
2782 2 0.0585446 0.304988 0.0798598
2747 4 0.0912097 0.328707 0.0262189
3285 4 0.0932136 0.254616 0.0642873
2843 4 0.112173 0.269789 0.0622189
2842 2 0.108464 0.289943 0.0727855
2784 4 0.0836923 0.30549 0.0807695
2844 4 0.104755 0.310097 0.0833522
2829 4 0.2802 0.272714 0.00472977
2486 4 0.0542389 0.36012 0.0261722
2485 2 0.0627233 0.340499 0.0221282
2727 4 0.0647708 0.374662 0.0393709
2725 2 0.0863786 0.389995 0.0501525
2726 4 0.107986 0.405329 0.0609342
2746 2 0.117294 0.338897 0.0284728
2748 4 0.143379 0.349088 0.0307267
1121 4 0.161788 0.363605 0.0340363
671 4 0.126768 0.410499 0.0701429
1120 2 0.185563 0.363801 0.0419717
1122 4 0.209338 0.363997 0.0499072
3728 4 0.251049 0.416072 0.0576288
3727 2 0.267911 0.404275 0.0650615
3729 4 0.284773 0.392478 0.0724942
2986 2 0.308475 0.40618 0.0108223
3541 2 0.325922 0.409798 0.0689023
2987 4 0.327766 0.398532 0.00129163
3543 4 0.300893 0.409706 0.068392
3542 4 0.350951 0.40989 0.0694125
1291 2 0.38392 0.361493 0.0202844
1292 4 0.38825 0.366647 0.0446094
1550 4 0.436315 0.346137 0.0711805
596 4 0.455874 0.357001 0.0698495
595 2 0.482163 0.36601 0.069201
3900 4 0.0543984 0.47454 0.997965
2932 2 0.133939 0.461487 0.0121858
2934 4 0.112376 0.467463 0.00621927
3898 2 0.0735561 0.464856 0.00359399
3899 4 0.0927139 0.455171 0.00922335
2933 4 0.155501 0.455511 0.0181523
3444 4 0.170028 0.462 0.00450884
3442 2 0.196093 0.47134 0.00763065
3443 4 0.222158 0.480681 0.0107525
4188 4 0.243384 0.485053 0.014931
4186 2 0.268451 0.492742 0.00728435
4187 4 0.293518 0.50043 0.999638
2988 4 0.289185 0.413827 0.020353
2582 4 0.300759 0.493563 0.0155909
1742 4 0.365423 0.427676 0.0761085
3756 4 0.381161 0.447205 0.998794
2701 2 0.00291137 0.0192807 0.126038
743 4 0.0128457 0.0840135 0.136178
2703 4 0.0245344 0.0187458 0.113803
177 3 0.0223592 0.0379193 0.163178
2781 4 0.0387107 0.0240823 0.129925
2779 2 0.0619073 0.0380252 0.120706
2780 4 0.0851038 0.0519681 0.111487
2679 4 0.0964277 0.0549629 0.0945645
2677 2 0.118442 0.0569461 0.10741
2678 4 0.140456 0.0589292 0.120256
255 4 0.192266 0.0612851 0.162201
253 2 0.217906 0.0694931 0.156547
2948 4 0.267746 0.0162023 0.0928627
254 4 0.243546 0.0777011 0.150893
1661 4 0.34695 0.00389983 0.104283
1662 4 0.389581 0.0330625 0.0806012
1660 2 0.368265 0.0184811 0.0924419
692 4 0.0205747 0.161798 0.146917
3810 4 0.03488 0.0830635 0.133491
3808 2 0.0609874 0.0928387 0.131029
3809 4 0.0870948 0.102614 0.128567
2519 4 0.110174 0.11025 0.126069
2518 2 0.135832 0.112565 0.125702
2520 4 0.161489 0.11488 0.125335
723 4 0.183304 0.119082 0.122286
721 2 0.208942 0.121627 0.120347
722 4 0.23458 0.124172 0.118409
759 4 0.25451 0.123062 0.118351
757 2 0.279973 0.124774 0.119874
758 4 0.305436 0.126485 0.121396
2790 4 0.300029 0.142904 0.155928
356 4 0.324999 0.134781 0.117466
355 2 0.351106 0.145062 0.115577
357 4 0.377213 0.155343 0.113689
623 4 0.397745 0.157485 0.121731
654 4 0.454797 0.0941621 0.0835632
622 2 0.423975 0.163335 0.122425
652 2 0.480458 0.0998905 0.0887899
2768 4 0.00244017 0.166457 0.150328
353 4 0.0856064 0.179705 0.117784
352 2 0.0922524 0.171811 0.0959372
691 2 0.0443215 0.170975 0.136347
693 4 0.0680684 0.180151 0.125777
2950 2 0.197721 0.195793 0.158901
2952 4 0.220799 0.203998 0.146946
2672 4 0.230911 0.189557 0.15162
2671 2 0.252941 0.18746 0.161842
624 4 0.450206 0.169186 0.123118
280 2 0.469993 0.224235 0.080638
281 4 0.491276 0.227814 0.0950703
582 4 0.420761 0.170158 0.158042
750 4 0.440771 0.17136 0.160701
733 2 0.342049 0.321954 0.161734
734 4 0.35919 0.311619 0.151935
518 4 0.379095 0.319329 0.158308
517 2 0.404966 0.323678 0.161335
519 4 0.430838 0.328027 0.164362
608 4 0.489837 0.328913 0.162868
2706 4 0.0632342 0.412566 0.149558
2704 2 0.0542228 0.3887 0.156926
2705 4 0.0452113 0.364833 0.164294
670 2 0.147161 0.411654 0.085089
1466 4 0.184941 0.409985 0.11007
672 4 0.167553 0.412808 0.100035
1551 4 0.422748 0.352537 0.118233
1549 2 0.429531 0.349337 0.0947067
4510 2 0.00783422 0.480353 0.0914464
4511 4 0.0328667 0.493148 0.0861157
303 4 0.114582 0.46422 0.155395
1863 4 0.121611 0.485487 0.153132
1861 2 0.143623 0.485876 0.141043
1862 4 0.165635 0.486265 0.128954
1786 2 0.197707 0.48436 0.127608
1788 4 0.21143 0.468261 0.129514
1465 2 0.199216 0.434133 0.111587
1787 4 0.183984 0.50046 0.125702
1467 4 0.213491 0.45828 0.113104
1440 4 0.33419 0.436238 0.100086
1438 2 0.351327 0.455756 0.111481
503 4 0.374287 0.493199 0.13147
1439 4 0.368464 0.475273 0.122875
1741 2 0.386417 0.431734 0.091023
2919 4 0.422698 0.485178 0.166105
2094 4 0.426408 0.474242 0.151911
1743 4 0.40741 0.435793 0.105938
2092 2 0.421247 0.453788 0.137618
2093 4 0.416086 0.433335 0.123324
180 3 0.00652694 0.00541173 0.180788
179 3 0.0128135 0.0377625 0.199544
176 1 0.0212575 0.0267196 0.183102
178 3 0.0436885 0.026439 0.188672
128 3 0.0574071 0.0407478 0.246308
130 3 0.0456425 0.0036669 0.239792
2573 4 0.0622373 0.0383965 0.19309
2572 2 0.0885241 0.0448749 0.19287
2574 4 0.114811 0.0513533 0.19265
1506 4 0.127577 0.0544642 0.174999
1504 2 0.151821 0.0524227 0.174689
1505 4 0.176066 0.0503812 0.17438
2545 2 0.184057 0.00822533 0.236351
2546 4 0.20912 0.0218484 0.24042
3722 4 0.229875 0.0228084 0.244841
3721 2 0.255276 0.0343926 0.2398
3723 4 0.280676 0.0459767 0.234759
123 3 0.298163 0.0402508 0.235062
121 1 0.312963 0.0279439 0.240647
125 3 0.312603 0.0128891 0.224192
690 4 0.341515 0.0172209 0.193274
124 3 0.33575 0.0421355 0.243691
2855 4 0.357951 0.0518535 0.246512
2854 2 0.375337 0.0700795 0.233719
688 2 0.36412 0.0329221 0.184608
689 4 0.386725 0.0486233 0.175943
591 4 0.137436 0.155306 0.230606
2453 4 0.128185 0.159733 0.213682
2452 2 0.146839 0.164973 0.19604
2788 2 0.290239 0.157734 0.169697
731 4 0.358168 0.152633 0.241908
730 2 0.360341 0.151909 0.217032
732 4 0.362515 0.151184 0.192156
581 4 0.383728 0.15418 0.193209
580 2 0.402244 0.162169 0.175625
2856 4 0.392724 0.0883056 0.220926
2693 4 0.412031 0.0908796 0.22423
2692 2 0.428793 0.106989 0.23955
459 4 0.484568 0.152151 0.191264
2476 2 0.020905 0.19581 0.23228
2478 4 0.0454559 0.200657 0.240936
2778 4 0.060616 0.193118 0.247399
2454 4 0.165494 0.170213 0.178397
2951 4 0.174643 0.187588 0.170857
2673 4 0.274971 0.185364 0.172065
2789 4 0.280449 0.172565 0.183467
387 4 0.346488 0.216201 0.215515
385 2 0.370886 0.232106 0.217867
274 2 0.420889 0.239324 0.24234
386 4 0.395284 0.248011 0.220219
497 4 0.460555 0.238702 0.241008
748 2 0.463469 0.169488 0.169535
275 4 0.440233 0.229218 0.245281
749 4 0.486167 0.167616 0.178369
1055 4 0.0523678 0.325165 0.202895
2540 4 0.0700862 0.329198 0.215327
2539 2 0.0955902 0.333366 0.210266
2541 4 0.121094 0.337534 0.205205
3989 4 0.235686 0.321903 0.235319
735 4 0.324909 0.332289 0.171533
276 4 0.401544 0.249431 0.239398
290 4 0.425365 0.315372 0.237269
609 4 0.437895 0.314133 0.171063
607 2 0.463866 0.321523 0.166966
345 4 0.498536 0.309874 0.225728
496 2 0.484881 0.254323 0.237309
2556 4 0.0397052 0.408367 0.229441
338 4 0.0245785 0.411787 0.219518
1056 4 0.0310084 0.346061 0.167318
1054 2 0.0416881 0.335613 0.185106
2554 2 0.0550579 0.393695 0.228005
2555 4 0.0704107 0.379023 0.226568
4212 4 0.170764 0.400918 0.17422
2862 4 0.210674 0.405888 0.226017
2860 2 0.212116 0.386221 0.21277
2861 4 0.213559 0.366555 0.199524
3990 4 0.21453 0.353222 0.212339
3988 2 0.225108 0.337563 0.223829
1803 4 0.219774 0.409402 0.243854
1425 4 0.339166 0.405872 0.199555
1423 2 0.36234 0.401604 0.197933
3695 4 0.325326 0.341228 0.189977
3694 2 0.34091 0.345798 0.210131
3602 4 0.370975 0.362293 0.243753
3696 4 0.356494 0.350368 0.230284
1424 4 0.385515 0.397337 0.196312
1437 4 0.404179 0.39528 0.200272
289 2 0.44786 0.333834 0.241181
1435 2 0.426355 0.407075 0.212592
291 4 0.470354 0.352296 0.245094
337 2 0.00605169 0.421655 0.212219
302 4 0.0762016 0.461108 0.188498
301 2 0.0953917 0.462664 0.171946
361 2 0.0966192 0.457379 0.232238
362 4 0.0997459 0.455524 0.207585
315 4 0.119798 0.463954 0.20579
4210 2 0.192197 0.420996 0.172544
313 2 0.145447 0.476797 0.204436
314 4 0.171096 0.48964 0.203083
3960 4 0.183592 0.48886 0.217625
3958 2 0.208513 0.492904 0.210376
1665 4 0.234575 0.4436 0.172984
4211 4 0.213629 0.441075 0.170868
1664 4 0.240033 0.490513 0.187107
1663 2 0.237304 0.467057 0.180045
3959 4 0.233433 0.496948 0.203127
681 4 0.347908 0.47926 0.234926
678 4 0.335896 0.422428 0.191182
677 4 0.355138 0.47081 0.178967
676 2 0.345517 0.446619 0.185075
2918 4 0.374971 0.480045 0.184956
2917 2 0.398835 0.482612 0.175531
679 2 0.362021 0.469532 0.250105
1436 4 0.448531 0.41887 0.224912
643 2 0.485906 0.444224 0.247585
645 4 0.46376 0.434657 0.234429
127 3 0.0259173 0.0179266 0.264137
2867 4 0.00632232 0.0110728 0.271696
126 1 0.047817 0.019685 0.255678
129 3 0.0620418 0.0167465 0.272967
122 3 0.305235 0.0166911 0.260305
3875 4 0.285512 0.00615045 0.25721
2579 4 0.368558 0.043825 0.259511
2891 4 0.419105 0.0474176 0.299276
2580 4 0.403541 0.0340316 0.290242
2578 2 0.38605 0.0389283 0.274876
2890 2 0.445234 0.0581202 0.299333
400 2 0.499089 0.075439 0.318493
401 4 0.487654 0.0630616 0.298049
2892 4 0.471364 0.0688227 0.299389
589 2 0.143626 0.163227 0.25405
1032 4 0.262158 0.139055 0.295786
2945 4 0.244727 0.122967 0.292675
2944 2 0.253288 0.110054 0.275527
2850 4 0.279442 0.0910255 0.254509
2946 4 0.261849 0.0971416 0.25838
1030 2 0.280431 0.156826 0.308252
2848 2 0.303603 0.0949493 0.26383
606 4 0.369938 0.165677 0.25636
1270 2 0.363222 0.0988221 0.29231
1272 4 0.34212 0.0890491 0.277814
2849 4 0.327765 0.0988731 0.273151
1271 4 0.384323 0.108595 0.306805
544 2 0.439936 0.160984 0.325646
2694 4 0.445554 0.123098 0.254869
512 4 0.443273 0.125076 0.27409
511 2 0.424083 0.119037 0.291206
513 4 0.404893 0.112998 0.308323
545 4 0.455698 0.147234 0.330547
531 4 0.472002 0.140578 0.333429
529 2 0.495146 0.157664 0.328252
2591 4 0.0109346 0.242535 0.259108
1198 2 0.00534825 0.220878 0.329975
2590 2 0.0316535 0.250692 0.274394
1199 4 0.00508171 0.201962 0.314755
2776 2 0.0841145 0.200575 0.258668
2777 4 0.107613 0.208032 0.269937
2939 4 0.116505 0.213002 0.288564
590 4 0.149816 0.171148 0.277495
2938 2 0.128953 0.195895 0.290842
2940 4 0.141401 0.178789 0.29312
1031 4 0.298703 0.174597 0.320718
28 3 0.412771 0.222092 0.318757
605 4 0.40748 0.208051 0.268618
604 2 0.388709 0.186864 0.262489
29 3 0.419992 0.209895 0.284564
30 3 0.430039 0.195165 0.315844
26 1 0.428106 0.214175 0.306363
546 4 0.424173 0.174734 0.320745
27 3 0.449884 0.230217 0.306061
2592 4 0.0523723 0.25885 0.28968
611 4 0.067472 0.263504 0.277497
610 2 0.091612 0.26132 0.279037
413 4 0.135266 0.266787 0.286701
612 4 0.115752 0.259136 0.280576
414 4 0.184602 0.276633 0.269972
412 2 0.159934 0.27171 0.278336
2496 4 0.00163889 0.344226 0.300394
366 4 0.0691283 0.338025 0.302622
2495 4 0.0496829 0.339151 0.298652
2494 2 0.0256609 0.341688 0.299523
2872 2 0.105344 0.407353 0.334293
364 2 0.0946935 0.34171 0.306948
3633 4 0.137943 0.344265 0.30449
2597 4 0.141599 0.403072 0.311457
365 4 0.120259 0.345394 0.311274
2873 4 0.120321 0.400151 0.317796
2596 2 0.165063 0.399615 0.308658
3631 2 0.162006 0.348167 0.294937
2598 4 0.188526 0.396157 0.305859
1801 2 0.211148 0.404249 0.26732
3632 4 0.186068 0.352068 0.285385
1802 4 0.202522 0.399097 0.290786
1434 4 0.210184 0.397755 0.332524
3601 2 0.390638 0.376882 0.257606
3603 4 0.4103 0.39147 0.271458
753 4 0.425745 0.392937 0.284604
751 2 0.449153 0.405339 0.29452
1756 2 0.0312037 0.470533 0.326306
1758 4 0.00806345 0.456458 0.317086
262 2 0.134211 0.481318 0.272453
263 4 0.109766 0.474564 0.263178
363 4 0.0934925 0.459234 0.25689
264 4 0.158656 0.488073 0.281727
1386 4 0.181524 0.438105 0.307017
1382 4 0.179981 0.494155 0.283373
1384 2 0.204651 0.449528 0.296064
499 2 0.263905 0.463768 0.28974
500 4 0.241888 0.453747 0.276522
1385 4 0.227779 0.460951 0.28511
501 4 0.285922 0.473789 0.302958
231 4 0.294744 0.462605 0.291119
230 4 0.344204 0.479156 0.308176
2532 4 0.334859 0.423288 0.329869
229 2 0.319474 0.47088 0.299647
1659 4 0.364709 0.492975 0.313692
2530 2 0.309404 0.421363 0.332204
3885 4 0.355386 0.431751 0.327081
3883 2 0.36182 0.439961 0.303759
3884 4 0.368255 0.44817 0.280437
680 4 0.376134 0.459803 0.265285
1657 2 0.389417 0.496452 0.306079
752 4 0.47256 0.417741 0.304437
4 3 0.493228 0.429575 0.310065
1058 4 0.122073 0.0857253 0.413365
2642 4 0.224692 0.0803116 0.409719
1126 2 0.274675 0.0502452 0.415287
1127 4 0.300986 0.0586517 0.416012
706 2 0.348917 0.0735305 0.412272
707 4 0.322932 0.0688202 0.414757
708 4 0.374901 0.0782409 0.409788
2870 4 0.00754377 0.106902 0.367203
2871 4 0.0566494 0.110568 0.381105
2869 2 0.0320966 0.108735 0.374154
1524 4 0.0672285 0.10601 0.396623
2822 4 0.0877012 0.165713 0.414128
1522 2 0.0893386 0.0998269 0.398544
1523 4 0.111449 0.0936438 0.400465
2641 2 0.201758 0.084952 0.407463
2643 4 0.178824 0.0895924 0.405206
471 4 0.360227 0.141695 0.416914
618 4 0.448619 0.108553 0.414207
616 2 0.42246 0.0992765 0.411841
617 4 0.3963 0.0899995 0.409475
1395 4 0.469102 0.109357 0.413739
1393 2 0.493884 0.124721 0.412993
765 4 0.0139651 0.230461 0.385613
763 2 0.0390035 0.235211 0.37842
1200 4 0.00561479 0.239794 0.345195
2802 4 0.0773149 0.229692 0.372933
2800 2 0.0919197 0.223104 0.390261
764 4 0.0640418 0.239961 0.371228
2801 4 0.106525 0.216516 0.407588
2765 4 0.118306 0.244691 0.353785
2821 2 0.113257 0.179008 0.413531
2823 4 0.138812 0.192302 0.412935
2542 2 0.184305 0.213092 0.412946
2543 4 0.159545 0.198782 0.4086
2544 4 0.209065 0.227403 0.417293
813 4 0.0726867 0.32983 0.411489
2766 4 0.110759 0.289443 0.353994
2764 2 0.114532 0.267067 0.35389
811 2 0.0871837 0.314529 0.414486
509 4 0.216269 0.312329 0.415997
508 2 0.194017 0.29314 0.417887
717 4 0.236708 0.31933 0.414367
716 4 0.273917 0.305604 0.390489
715 2 0.255312 0.312467 0.402428
304 2 0.458297 0.297615 0.415263
305 4 0.467892 0.294084 0.392971
2700 4 0.00786541 0.379368 0.359766
2904 4 0.0246234 0.372982 0.360475
2874 4 0.0903666 0.414555 0.350789
2903 4 0.0762748 0.397009 0.357034
2902 2 0.0504491 0.384995 0.358755
1432 2 0.236471 0.406916 0.332241
1757 4 0.0543439 0.484608 0.335526
1452 4 0.0722835 0.4863 0.345573
2588 4 0.190764 0.434975 0.399119
1433 4 0.262757 0.416078 0.331958
3582 4 0.211042 0.444556 0.394912
549 4 0.266552 0.463504 0.387437
3581 4 0.256742 0.474053 0.376551
3580 2 0.233892 0.459305 0.385731
2531 4 0.283949 0.419439 0.33454
547 2 0.291802 0.464635 0.389684
548 4 0.317052 0.465767 0.391932
3173 4 0.0761921 0.085467 0.455165
1183 2 0.125905 0.00224802 0.418182
2114 4 0.174705 0.0176711 0.418925
1184 4 0.152182 0.0114021 0.418914
2113 2 0.201 0.026701 0.418676
2115 4 0.227295 0.0357309 0.418426
1128 4 0.248364 0.0418386 0.414563
2315 4 0.273948 0.0700459 0.478705
2504 4 0.0171818 0.148297 0.432015
2505 4 0.0679663 0.157637 0.420267
2503 2 0.0425741 0.152967 0.426141
762 4 0.0127334 0.0865401 0.466312
760 2 0.0381717 0.0881376 0.467751
761 4 0.06361 0.0897352 0.46919
1057 2 0.146634 0.0862037 0.418792
3172 2 0.100823 0.0961891 0.463249
2901 4 0.1436 0.122172 0.470513
3174 4 0.125453 0.106911 0.471333
2899 2 0.168853 0.133108 0.476606
1059 4 0.171194 0.0866821 0.42422
2900 4 0.194106 0.144044 0.482699
1150 2 0.231266 0.131096 0.487971
1152 4 0.209379 0.137713 0.486566
470 4 0.307821 0.123041 0.420621
479 4 0.290595 0.10848 0.426433
480 4 0.238166 0.0898354 0.423017
478 2 0.26438 0.0991576 0.424725
1151 4 0.253154 0.12448 0.489376
2316 4 0.257174 0.110042 0.48031
2314 2 0.265561 0.0900438 0.479507
469 2 0.334024 0.132368 0.418768
2483 4 0.100673 0.227892 0.421616
3080 4 0.0866263 0.198062 0.480065
2484 4 0.0993125 0.213347 0.469338
2482 2 0.099993 0.22062 0.445477
3079 2 0.102867 0.208879 0.49871
2241 4 0.145238 0.181892 0.494554
2602 2 0.402876 0.231152 0.498116
2603 4 0.427784 0.242676 0.491264
891 4 0.0638129 0.319399 0.486229
889 2 0.0391543 0.318994 0.49108
1239 4 0.0861305 0.326486 0.482796
890 4 0.0144956 0.318589 0.495931
1237 2 0.110794 0.327057 0.487877
812 4 0.101681 0.299229 0.417483
804 4 0.152569 0.322704 0.496027
1238 4 0.135458 0.327628 0.492958
510 4 0.171766 0.273952 0.419778
444 4 0.312292 0.32039 0.478054
312 4 0.330045 0.280961 0.458947
443 4 0.31985 0.275652 0.477096
442 2 0.316071 0.298021 0.477575
311 4 0.361195 0.252279 0.453602
310 2 0.34562 0.26662 0.456275
3059 4 0.378068 0.268185 0.448196
3058 2 0.404026 0.279289 0.445989
306 4 0.448702 0.301147 0.437555
3060 4 0.429984 0.290392 0.443782
1028 4 0.155452 0.393321 0.471132
1027 2 0.141248 0.403739 0.485462
1172 4 0.175505 0.394032 0.468233
1171 2 0.192782 0.38772 0.482744
1173 4 0.210058 0.381409 0.497254
3045 4 0.323074 0.337809 0.487804
3456 4 0.369687 0.391005 0.490433
3044 4 0.368281 0.374159 0.47906
3043 2 0.345678 0.355984 0.483432
2562 4 0.404303 0.386841 0.436208
2560 2 0.393059 0.362389 0.432064
2561 4 0.381815 0.337936 0.42792
594 4 0.416426 0.396325 0.452035
592 2 0.42826 0.416664 0.465645
570 4 0.0470137 0.436739 0.441263
568 2 0.0707581 0.45322 0.436966
569 4 0.0945024 0.469701 0.432668
894 4 0.0956346 0.479857 0.44971
1029 4 0.127043 0.414158 0.499792
2587 2 0.182663 0.440764 0.421288
2647 2 0.201208 0.487547 0.451544
2648 4 0.181848 0.465739 0.45025
2589 4 0.174562 0.446553 0.443456
601 2 0.219369 0.446793 0.492297
3318 4 0.249355 0.445417 0.465886
602 4 0.237096 0.453769 0.473896
3316 2 0.26942 0.440284 0.45469
3317 4 0.289485 0.43515 0.443494
3961 2 0.33198 0.44531 0.444135
3962 4 0.308148 0.441088 0.433944
3963 4 0.355811 0.449533 0.454326
1696 2 0.429346 0.470876 0.46471
1698 4 0.421236 0.468108 0.440925
593 4 0.440094 0.437004 0.479256
4177 2 0.494317 0.460418 0.457028
1697 4 0.437456 0.473645 0.488495
4179 4 0.470379 0.460733 0.450167
3325 2 0.0130544 0.0635877 0.524393
3327 4 0.0363005 0.061447 0.53124
3178 2 0.0379778 0.0183697 0.557194
944 4 0.058549 0.0666105 0.532409
3179 4 0.0415115 0.00643294 0.536534
2460 4 0.0568531 0.00932994 0.525073
3395 4 0.0459204 0.0491655 0.582602
3180 4 0.0344441 0.0303065 0.577854
943 2 0.0842307 0.0722044 0.537485
2458 2 0.0808001 0.00673908 0.526897
945 4 0.109912 0.0777984 0.54256
3033 4 0.129859 0.0757521 0.540217
3122 4 0.125292 0.0103571 0.582999
3031 2 0.155557 0.0787467 0.542591
2459 4 0.104747 0.00414822 0.528721
1182 4 0.14849 0.0421036 0.508627
1180 2 0.141182 0.0171597 0.507169
3066 4 0.178354 0.0112219 0.566331
3023 4 0.197581 0.00913985 0.565173
3064 2 0.1561 0.00493504 0.579688
3032 4 0.181256 0.0817414 0.544964
3022 2 0.221783 0.0109436 0.557133
3024 4 0.245986 0.0127474 0.549092
2996 4 0.258115 0.00449303 0.53953
2995 2 0.282675 0.0163513 0.547166
2997 4 0.307234 0.0282095 0.554801
3309 4 0.317166 0.0336471 0.571581
3307 2 0.342104 0.0334853 0.572348
3308 4 0.367042 0.0333235 0.573115
1262 4 0.370771 0.0238027 0.555757
1261 2 0.370914 0.000558098 0.550877
2501 4 0.20245 0.087976 0.550972
2500 2 0.226177 0.0950844 0.56181
2502 4 0.249905 0.102193 0.572649
1142 4 0.270275 0.106802 0.567983
1141 2 0.292857 0.101459 0.569963
1143 4 0.315439 0.0961156 0.571943
917 4 0.333896 0.0936468 0.572242
916 2 0.359524 0.100994 0.577969
3081 4 0.119109 0.219697 0.517354
1076 4 0.13425 0.229104 0.574609
3498 4 0.137168 0.224841 0.527418
3496 2 0.161979 0.234399 0.519369
1075 2 0.159948 0.241723 0.576094
2239 2 0.154709 0.178043 0.516802
2240 4 0.16418 0.174195 0.539051
2810 4 0.205295 0.250169 0.51926
3497 4 0.186791 0.243957 0.51132
2811 4 0.23686 0.222711 0.509448
2809 2 0.221077 0.23644 0.514354
2812 2 0.29844 0.192569 0.560385
2814 4 0.30066 0.180491 0.539389
2963 4 0.309634 0.190458 0.522233
2962 2 0.334161 0.204595 0.516678
2813 4 0.29622 0.204646 0.58138
2964 4 0.358687 0.218733 0.511123
2604 4 0.377968 0.219627 0.504967
1210 2 0.493233 0.230424 0.563797
1211 4 0.468042 0.229338 0.561093
1077 4 0.185647 0.254343 0.577579
3267 4 0.205985 0.25415 0.577441
3265 2 0.231113 0.255402 0.581016
3266 4 0.256241 0.256655 0.584592
142 3 0.277117 0.268475 0.581888
145 3 0.311955 0.283488 0.565318
3236 4 0.331097 0.295038 0.560642
3235 2 0.356664 0.302751 0.554666
3237 4 0.382231 0.310464 0.54869
935 4 0.483347 0.310025 0.558078
934 2 0.485846 0.287497 0.553717
936 4 0.488345 0.26497 0.549357
802 2 0.176783 0.336397 0.503084
2107 2 0.244369 0.404043 0.508558
803 4 0.200997 0.35009 0.51014
408 4 0.220416 0.35887 0.503742
406 2 0.241828 0.35295 0.510392
2108 4 0.228818 0.380666 0.504399
407 4 0.263239 0.347031 0.517042
2549 4 0.275425 0.359054 0.532113
2548 2 0.297557 0.359787 0.544174
2550 4 0.31969 0.36052 0.556234
3454 2 0.370659 0.402967 0.512187
3455 4 0.371632 0.414929 0.533942
1160 4 0.0241941 0.473769 0.530076
1159 2 0.00701452 0.454307 0.518643
2172 4 0.0405179 0.485181 0.51657
603 4 0.201641 0.439818 0.510698
2109 4 0.259919 0.42742 0.512717
4537 2 0.306909 0.483384 0.567016
879 4 0.331273 0.423454 0.57622
877 2 0.345536 0.424921 0.555407
4539 4 0.302958 0.463491 0.581937
3492 4 0.308001 0.446897 0.582222
878 4 0.359799 0.426388 0.534595
4129 2 0.451203 0.476218 0.547109
4130 4 0.447514 0.453561 0.556983
3072 4 0.501597 0.441159 0.507775
4131 4 0.454892 0.498875 0.537235
3394 2 0.060187 0.0647265 0.599912
3396 4 0.0744536 0.0802874 0.617223
3121 2 0.10125 0.00142837 0.593022
3029 4 0.0698308 0.105135 0.66141
1025 4 0.048786 0.0942595 0.661409
3028 2 0.0815447 0.0956613 0.643657
3030 4 0.0932587 0.0861876 0.625903
918 4 0.385152 0.108341 0.583696
1130 4 0.406836 0.117864 0.585034
1129 2 0.432852 0.123292 0.588014
1131 4 0.458868 0.12872 0.590993
858 4 0.478749 0.132451 0.593982
1282 2 0.0226414 0.219069 0.601342
1284 4 0.0468058 0.221471 0.592788
1107 4 0.114828 0.22039 0.584047
1106 4 0.0652864 0.217175 0.595879
1105 2 0.0900573 0.218783 0.589963
3110 4 0.31242 0.210219 0.594386
3109 2 0.318812 0.234042 0.601831
3220 2 0.00819958 0.271902 0.651955
3221 4 0.0178038 0.252825 0.654863
906 4 0.159379 0.288159 0.637124
904 2 0.180193 0.291095 0.652048
3357 4 0.218872 0.302803 0.656928
3355 2 0.234131 0.288901 0.663096
143 3 0.304044 0.2979 0.597715
141 1 0.30083 0.278485 0.585415
144 3 0.309609 0.26382 0.597156
2628 4 0.310093 0.273177 0.662056
3111 4 0.325204 0.257866 0.609277
3383 4 0.346249 0.265516 0.616868
3441 4 0.317076 0.257704 0.666873
3382 2 0.372533 0.272148 0.616091
3384 4 0.398818 0.27878 0.615314
3107 4 0.414772 0.269947 0.61969
3106 2 0.43779 0.26963 0.6292
3108 4 0.460807 0.269312 0.63871
3165 4 0.48038 0.268691 0.632343
1041 4 0.334638 0.411091 0.590892
1039 2 0.326833 0.387109 0.597967
1040 4 0.319028 0.363128 0.605041
2721 4 0.361962 0.344299 0.590317
2719 2 0.387553 0.353827 0.595847
2720 4 0.413143 0.363356 0.601378
3447 4 0.431135 0.37818 0.599062
3445 2 0.451542 0.373625 0.610214
3446 4 0.471949 0.369071 0.621367
3353 4 0.491201 0.370437 0.621883
3352 2 0.495934 0.35487 0.638778
3354 4 0.500667 0.339303 0.655674
3491 4 0.278573 0.435568 0.623604
3490 2 0.293287 0.441233 0.602913
3113 4 0.478687 0.454322 0.662033
3112 2 0.487128 0.464513 0.639772
3114 4 0.495569 0.474705 0.617511
1218 4 0.0658617 0.00984722 0.728997
270 4 0.187585 0.034081 0.66763
269 4 0.168986 0.0719713 0.677509
268 2 0.178286 0.0530262 0.672569
4074 4 0.208807 0.0410701 0.67007
3083 4 0.206248 0.998982 0.74348
4072 2 0.224489 0.0334885 0.685465
4073 4 0.240172 0.025907 0.700861
2321 4 0.402124 0.0747713 0.735947
1023 4 0.434051 0.0356141 0.747348
1021 2 0.452676 0.0461591 0.730477
1022 4 0.4713 0.0567042 0.713606
2256 4 0.487948 0.051267 0.705591
1026 4 0.000784249 0.0882096 0.680054
3009 4 0.0354078 0.118368 0.738121
3007 2 0.0613094 0.124122 0.73413
1024 2 0.0247851 0.0912346 0.670731
3008 4 0.087211 0.129876 0.730138
3126 4 0.102891 0.123171 0.723936
3125 4 0.15108 0.139542 0.703885
3124 2 0.126985 0.131356 0.713911
4371 4 0.16985 0.154911 0.70391
4369 2 0.191752 0.148442 0.701548
4370 4 0.213654 0.141973 0.699186
3062 4 0.230563 0.134881 0.701681
3061 2 0.256279 0.140413 0.706562
3063 4 0.281995 0.145945 0.711443
3167 4 0.300608 0.155124 0.720235
3166 2 0.326657 0.161375 0.723521
1970 4 0.385851 0.110189 0.685108
1969 2 0.394358 0.0999994 0.704614
1971 4 0.402864 0.08981 0.72412
2320 2 0.426494 0.0858225 0.744526
2175 4 0.464456 0.163095 0.680936
965 4 0.460356 0.116061 0.746847
3240 4 0.482029 0.160605 0.671007
964 2 0.479192 0.125063 0.729747
966 4 0.498028 0.134066 0.712646
839 4 0.112728 0.202935 0.746652
1011 4 0.230427 0.189697 0.728798
3402 4 0.244763 0.190502 0.71427
1009 2 0.216189 0.196461 0.746353
3400 2 0.270287 0.194516 0.719116
3401 4 0.295811 0.198531 0.723963
3440 4 0.356882 0.239535 0.675406
3439 2 0.336979 0.248619 0.671139
3002 4 0.367158 0.170398 0.711991
3168 4 0.352705 0.167627 0.726806
896 4 0.374667 0.238052 0.682363
3001 2 0.390803 0.169176 0.718724
3003 4 0.414449 0.167954 0.725456
2173 2 0.446381 0.168293 0.695306
2174 4 0.428306 0.17349 0.709676
905 4 0.201007 0.294031 0.666972
2626 2 0.284988 0.267973 0.669207
3356 4 0.24939 0.274999 0.669264
2627 4 0.259883 0.26277 0.676358
897 4 0.421745 0.271008 0.672161
895 2 0.398206 0.25453 0.677262
1085 4 0.442286 0.278857 0.676874
1084 2 0.466668 0.295075 0.677043
1086 4 0.49105 0.311293 0.677212
3093 4 0.498282 0.317621 0.695709
4091 4 0.0570761 0.499298 0.697447
1100 4 0.0760607 0.498731 0.692836
991 2 0.400519 0.488756 0.692426
992 4 0.414714 0.474473 0.700404
942 4 0.428883 0.486889 0.712203
940 2 0.443868 0.481001 0.729637
1017 4 0.434746 0.444017 0.722813
1015 2 0.436704 0.427847 0.740435
999 4 0.440551 0.43357 0.707968
941 4 0.458853 0.475113 0.747071
997 2 0.45227 0.448004 0.688772
998 4 0.463989 0.462439 0.669577
1096 2 0.499323 0.489266 0.749119
1098 4 0.477355 0.469685 0.750266
4443 4 0.00928849 0.0689125 0.788604
4441 2 0.0341295 0.0793144 0.780944
2283 4 0.257489 0.0165476 0.773284
2281 2 0.231956 0.0110419 0.76759
4580 4 0.268571 0.0187362 0.757046
2282 4 0.206423 0.0055361 0.761896
4581 4 0.311293 0.003786 0.759525
4579 2 0.289932 0.0112611 0.758285
2036 4 0.327301 0.00454608 0.770541
3282 4 0.0146776 0.141706 0.809737
3042 4 0.01514 0.126268 0.797759
3040 2 0.0262167 0.129288 0.775078
3041 4 0.0372934 0.132308 0.752396
4442 4 0.0589706 0.0897162 0.773285
3147 4 0.0720648 0.106142 0.780657
3145 2 0.0980609 0.114483 0.776738
3146 4 0.124057 0.122824 0.772819
3486 4 0.202417 0.157836 0.831784
3076 2 0.336542 0.159437 0.829923
2322 4 0.450864 0.0968737 0.753105
736 2 0.0151564 0.20836 0.754815
737 4 0.0394219 0.206375 0.754367
2982 4 0.101562 0.21258 0.754764
2981 4 0.0550705 0.219714 0.76276
2980 2 0.0783162 0.216147 0.758762
1092 4 0.0833122 0.189182 0.800461
1090 2 0.105361 0.194257 0.814038
838 2 0.131908 0.209415 0.763763
840 4 0.151088 0.215896 0.780874
57 3 0.169277 0.22502 0.771982
56 1 0.192885 0.228413 0.775435
1091 4 0.127409 0.199332 0.827616
58 3 0.195554 0.216741 0.794399
59 3 0.202007 0.220655 0.756949
2979 4 0.208996 0.173752 0.8201
2977 2 0.203272 0.187462 0.801874
1010 4 0.201952 0.203226 0.763908
2978 4 0.197548 0.201172 0.783648
3077 4 0.360125 0.170634 0.819712
1165 2 0.389881 0.181986 0.801193
1692 4 0.392739 0.247428 0.828231
1167 4 0.365321 0.182965 0.803438
1166 4 0.414442 0.181007 0.798947
3482 4 0.435374 0.18429 0.79767
3483 4 0.485169 0.206534 0.7834
3481 2 0.460272 0.195412 0.790535
46 1 0.0395689 0.306997 0.818853
1306 2 0.0415016 0.295909 0.765903
50 3 0.0159279 0.30121 0.81526
1307 4 0.0174051 0.283298 0.757611
48 3 0.0514112 0.309991 0.798565
1043 4 0.0249328 0.27707 0.827627
1308 4 0.0655982 0.308521 0.774195
3227 4 0.0716569 0.310237 0.792608
47 3 0.0468144 0.326724 0.830663
49 3 0.0447744 0.290475 0.831176
3228 4 0.118542 0.30331 0.786693
3226 2 0.0950993 0.306773 0.789651
3036 4 0.140204 0.309204 0.78619
60 3 0.204106 0.250672 0.778296
3035 4 0.186696 0.314329 0.764572
3034 2 0.16345 0.311766 0.775381
1072 2 0.224493 0.322908 0.765078
1073 4 0.202191 0.323337 0.754066
1074 4 0.246795 0.322478 0.77609
3246 4 0.252228 0.321241 0.795721
862 2 0.355637 0.25128 0.828458
1690 2 0.410205 0.251573 0.809553
923 4 0.395383 0.327837 0.75383
1691 4 0.42767 0.255719 0.790875
922 2 0.417087 0.329905 0.767209
481 2 0.441944 0.313007 0.817531
482 4 0.434583 0.316027 0.794161
924 4 0.438792 0.331973 0.780588
864 4 0.379608 0.254608 0.818921
1209 4 0.448099 0.256477 0.787858
1207 2 0.472575 0.258231 0.795
1208 4 0.497052 0.259984 0.802142
815 4 0.104523 0.391817 0.756863
814 2 0.0920889 0.395585 0.777452
816 4 0.0796546 0.399354 0.79804
4161 4 0.151091 0.378701 0.814534
1169 4 0.135367 0.363371 0.810141