ITEM: TIMESTEP
888000
ITEM: NUMBER OF ATOMS
4590
ITEM: BOX BOUNDS xy xz yz pp pp pp
-1.4797883600000006e+01 9.9985700000000008e+00 -4.7993136000000050e+00
-9.9985700000000008e+00 9.9985700000000008e+00 0.0000000000000000e+00
-9.9985700000000008e+00 9.9985700000000008e+00 0.0000000000000000e+00
ITEM: ATOMS id type xs ys zs
1373 4 0.245156 0.018201 0.0697454
2948 4 0.252046 0.0254923 0.0523135
1372 2 0.223369 0.014773 0.0829333
2947 2 0.276067 0.0282595 0.0438293
2949 4 0.300088 0.0310267 0.035345
2465 4 0.318381 0.0436456 0.0309137
2464 2 0.334834 0.0349913 0.0452986
2468 4 0.341659 0.00691459 0.063662
2466 4 0.351287 0.0263369 0.0596835
1660 2 0.422081 0.0302438 0.0806028
2670 4 0.443748 0.0739693 0.0351206
2884 2 0.476191 0.0332601 0.0695536
2886 4 0.452311 0.0365997 0.0717466
2885 4 0.500072 0.0299206 0.0673605
1662 4 0.435085 0.0334742 0.059034
2660 4 0.02803 0.124845 0.0448691
2659 2 0.0534963 0.13206 0.0480001
2661 4 0.0789627 0.139276 0.051131
3393 4 0.0998761 0.144374 0.0543886
3391 2 0.123567 0.15086 0.0447356
3392 4 0.147258 0.157346 0.0350826
492 4 0.262926 0.114945 0.00261647
490 2 0.287205 0.128431 0.00187688
2709 4 0.319715 0.0881621 0.0258171
845 4 0.330461 0.157205 0.00355853
2707 2 0.334994 0.0900585 0.0458622
2708 4 0.350274 0.0919548 0.0659073
491 4 0.311483 0.141916 0.00113729
2668 2 0.4583 0.096168 0.0282417
2669 4 0.472851 0.118367 0.0213628
1253 4 0.492755 0.127351 0.0230939
2883 4 0.0436348 0.170322 0.0459739
2881 2 0.0229965 0.175924 0.056488
2882 4 0.00235817 0.181527 0.0670021
465 4 0.109166 0.218471 0.0163532
360 4 0.0968942 0.211857 0.0330934
358 2 0.118917 0.211977 0.0449863
359 4 0.140939 0.212097 0.0568792
282 4 0.154049 0.215021 0.0729445
280 2 0.177203 0.218709 0.0837
309 4 0.251976 0.240542 0.0146335
307 2 0.252253 0.216783 0.00964179
308 4 0.25253 0.193024 0.00465005
2877 4 0.268619 0.226666 0.0826414
2841 4 0.264278 0.246296 0.0309911
2652 4 0.266856 0.185056 0.0141366
2718 4 0.288549 0.234748 0.0754604
2650 2 0.291828 0.190917 0.0200942
2716 2 0.31395 0.236835 0.0745456
2651 4 0.3168 0.196778 0.0260517
527 4 0.333952 0.210926 0.0227377
2717 4 0.33935 0.238923 0.0736307
526 2 0.354814 0.229634 0.0200596
844 2 0.351138 0.175551 0.00843627
846 4 0.371814 0.193898 0.013314
456 4 0.390955 0.203177 0.0160989
528 4 0.375676 0.248341 0.0173815
2616 4 0.359431 0.249319 0.0804053
454 2 0.415679 0.215366 0.0172885
455 4 0.440404 0.227555 0.0184781
102 3 0.458756 0.243249 0.0191407
103 3 0.491056 0.234334 0.0312682
2829 4 0.233151 0.332754 0.0145679
2827 2 0.253905 0.323586 0.0183407
2828 4 0.274659 0.314418 0.0221135
2839 2 0.285688 0.263845 0.0356211
2639 4 0.280883 0.305936 0.00380121
2638 2 0.306468 0.311508 0.00629434
2840 4 0.307098 0.281395 0.0402512
525 4 0.323839 0.277246 0.0469424
2640 4 0.332052 0.317079 0.00878746
523 2 0.348712 0.283197 0.0532761
2472 4 0.375359 0.282769 0.0786336
524 4 0.373585 0.289148 0.0596098
105 3 0.485061 0.268616 0.0375992
101 1 0.481922 0.251385 0.0227414
104 3 0.492414 0.258826 0.00256099
2747 4 0.257223 0.382583 0.0490383
2746 2 0.260846 0.384829 0.0243272
2487 4 0.271003 0.391515 0.0639543
2748 4 0.264468 0.387075 0.999616
2485 2 0.296217 0.400907 0.0670908
2486 4 0.32143 0.4103 0.0702274
1293 4 0.342636 0.335738 0.010307
1291 2 0.365507 0.341156 0.0217317
1292 4 0.388379 0.346574 0.0331564
3728 4 0.418953 0.377481 0.07945
3727 2 0.442818 0.384214 0.0702396
3729 4 0.466683 0.390946 0.0610293
2988 4 0.48603 0.399242 0.0592544
2986 2 0.493402 0.395308 0.0360046
3101 4 0.485907 0.377008 0.00515533
1466 4 0.493903 0.401857 0.0777473
2987 4 0.500773 0.391375 0.0127547
2727 4 0.334544 0.417229 0.085033
2725 2 0.360228 0.423868 0.0841638
671 4 0.402221 0.421979 0.0829925
2703 4 0.0581168 0.999397 0.108842
2781 4 0.0782993 0.00748591 0.102579
1565 4 0.113768 0.0340749 0.147562
2779 2 0.103902 0.0146094 0.104461
1564 2 0.132994 0.0536393 0.141969
1566 4 0.152221 0.0732037 0.136377
2780 4 0.129506 0.021733 0.106343
1479 4 0.168809 0.0666432 0.13075
2679 4 0.143017 0.034008 0.0937542
1477 2 0.190418 0.0669479 0.143451
2677 2 0.164038 0.0253706 0.0979094
2678 4 0.185058 0.0167331 0.102065
1478 4 0.212027 0.0672525 0.156151
744 4 0.226691 0.0817731 0.14392
1374 4 0.201581 0.0113449 0.0961211
742 2 0.250838 0.0794773 0.140776
743 4 0.274986 0.0771815 0.137631
3810 4 0.295516 0.0808917 0.139358
3808 2 0.319998 0.0792831 0.137313
3809 4 0.344479 0.0776745 0.135268
1476 4 0.344528 0.00806956 0.106961
2519 4 0.364148 0.0828859 0.137532
1474 2 0.368562 0.0192686 0.100317
1475 4 0.392595 0.0304677 0.0936725
1661 4 0.409077 0.0270133 0.102172
2520 4 0.414284 0.0834371 0.137845
723 4 0.430756 0.0756882 0.143434
2518 2 0.389216 0.0831615 0.137688
721 2 0.456144 0.0787269 0.140619
722 4 0.481532 0.0817656 0.137804
2894 4 0.0254857 0.125707 0.101042
2893 2 0.0508232 0.133809 0.104552
23 3 0.00640269 0.12803 0.0963258
2895 4 0.0761607 0.14191 0.108062
2600 4 0.0944166 0.140878 0.11871
2599 2 0.119974 0.147846 0.121192
2601 4 0.14553 0.154814 0.123674
378 4 0.166384 0.158713 0.123922
376 2 0.188913 0.156155 0.133035
377 4 0.211441 0.153597 0.142148
629 4 0.233292 0.157055 0.146813
628 2 0.257178 0.159161 0.15542
630 4 0.281065 0.161267 0.164026
2767 2 0.434009 0.14373 0.165102
2768 4 0.458439 0.154266 0.159227
2875 2 0.244159 0.227636 0.0864525
2876 4 0.219699 0.228605 0.0902636
281 4 0.200357 0.222397 0.0944555
578 4 0.213502 0.200015 0.163956
507 4 0.23409 0.204975 0.160563
505 2 0.257827 0.215684 0.152658
506 4 0.281564 0.226392 0.144752
836 4 0.294285 0.214858 0.147919
835 2 0.31835 0.221439 0.139185
837 4 0.342415 0.22802 0.130451
2614 2 0.361015 0.239953 0.10327
2615 4 0.3626 0.230588 0.126135
691 2 0.490191 0.168636 0.129218
692 4 0.474103 0.166766 0.148637
2470 2 0.391935 0.296156 0.0949868
2471 4 0.40851 0.309543 0.11134
608 4 0.412384 0.322887 0.126231
3405 4 0.112291 0.348699 0.145808
3404 4 0.132022 0.353798 0.0996315
3403 2 0.122157 0.351248 0.12272
3989 4 0.288132 0.354892 0.155778
3988 2 0.311009 0.365479 0.165754
519 4 0.375931 0.350115 0.150016
609 4 0.38886 0.359462 0.137164
607 2 0.400622 0.341175 0.131698
2443 2 0.0224943 0.464873 0.0948889
2444 4 0.0468086 0.476409 0.0896074
767 4 0.0589979 0.467078 0.0982777
766 2 0.0706379 0.449265 0.105666
768 4 0.0822779 0.431453 0.113055
3450 4 0.101636 0.432387 0.117467
3448 2 0.122935 0.426356 0.109016
714 4 0.168893 0.418355 0.128149
3449 4 0.144233 0.420324 0.100565
712 2 0.179178 0.432908 0.147314
713 4 0.189463 0.447461 0.166478
3550 2 0.337143 0.48586 0.152641
3552 4 0.344856 0.464647 0.149287
1568 4 0.365161 0.469353 0.145988
1567 2 0.388807 0.476063 0.136262
2726 4 0.385912 0.430507 0.0832945
1569 4 0.412453 0.482773 0.126537
4512 4 0.426031 0.490134 0.112204
670 2 0.425314 0.431607 0.0930219
672 4 0.448407 0.441235 0.103051
1589 4 0.482906 0.493558 0.104107
249 4 0.0129196 0.0811002 0.219183
2739 4 0.0166107 0.0205035 0.235333
687 4 0.0368138 0.0213977 0.231175
685 2 0.061283 0.0230454 0.224623
686 4 0.0857522 0.0246932 0.21807
3678 4 0.105295 0.0372322 0.217571
3676 2 0.130774 0.044017 0.214363
3677 4 0.156253 0.0508018 0.211155
179 3 0.176764 0.0534304 0.203967
176 1 0.199681 0.0579609 0.197534
180 3 0.20141 0.0612253 0.175015
178 3 0.209308 0.0403527 0.20357
2573 4 0.228877 0.04142 0.209659
177 3 0.211365 0.0770291 0.208259
2572 2 0.253116 0.0488718 0.201558
2731 2 0.264887 0.00827339 0.235996
2574 4 0.277355 0.0563237 0.193457
1506 4 0.293475 0.0473916 0.193475
1504 2 0.31701 0.0624935 0.194319
1505 4 0.340544 0.0775953 0.195162
2545 2 0.333589 0.0412823 0.24114
2546 4 0.358019 0.0543886 0.240537
2547 4 0.309158 0.0281761 0.241743
2732 4 0.288896 0.020688 0.241368
255 4 0.361057 0.0797913 0.201342
3722 4 0.365565 0.0400078 0.23304
253 2 0.381768 0.0732762 0.192037
254 4 0.402479 0.0667611 0.182733
3721 2 0.388908 0.0438165 0.243415
125 3 0.425361 0.000229959 0.239265
690 4 0.457662 0.0432128 0.181299
688 2 0.468853 0.0639359 0.193833
124 3 0.457913 0.0243542 0.250195
405 4 0.0295409 0.085254 0.229924
749 4 0.0111317 0.157262 0.178199
459 4 0.0319325 0.157644 0.172121
457 2 0.0573947 0.164208 0.175514
403 2 0.0532646 0.0914964 0.22032
404 4 0.0769883 0.0977388 0.210716
2181 4 0.0747488 0.10398 0.192144
237 4 0.0981727 0.160052 0.180423
2180 4 0.12279 0.105819 0.176923
2179 2 0.0987692 0.1049 0.184533
1749 4 0.14308 0.105616 0.173223
1748 4 0.19368 0.111916 0.180394
1747 2 0.16838 0.108766 0.176809
632 4 0.263498 0.127551 0.211612
631 2 0.262335 0.131197 0.236264
522 4 0.282279 0.123436 0.206835
520 2 0.30537 0.117979 0.206874
521 4 0.32846 0.112521 0.206913
698 4 0.346016 0.113451 0.196641
697 2 0.368222 0.124762 0.185811
419 4 0.344017 0.108231 0.243263
699 4 0.390429 0.136074 0.17498
2769 4 0.409578 0.133195 0.170976
689 4 0.480044 0.084659 0.206366
2778 4 0.483 0.162788 0.214235
385 2 0.0248075 0.200648 0.184488
386 4 0.0500363 0.201674 0.184424
276 4 0.063392 0.220779 0.186009
274 2 0.0867977 0.225586 0.19635
458 4 0.0828568 0.170771 0.178907
275 4 0.110203 0.230392 0.206691
497 4 0.131236 0.238607 0.208631
235 2 0.12316 0.17074 0.183288
236 4 0.148147 0.181428 0.186154
496 2 0.155039 0.249391 0.216301
579 4 0.165099 0.193995 0.180062
577 2 0.1893 0.197005 0.172009
332 4 0.296232 0.171882 0.176035
331 2 0.321389 0.172697 0.174823
333 4 0.346545 0.173512 0.173611
2516 4 0.36734 0.174265 0.17447
2515 2 0.391618 0.17878 0.182644
1220 4 0.413624 0.232549 0.24351
1219 2 0.433813 0.234895 0.228198
2517 4 0.415896 0.183295 0.190819
1221 4 0.454003 0.237241 0.212885
2477 4 0.425544 0.175791 0.203769
477 4 0.468126 0.232608 0.200892
2476 2 0.447665 0.173375 0.213967
2478 4 0.469785 0.170958 0.224166
475 2 0.491863 0.242126 0.209515
2540 4 0.0105472 0.30867 0.198005
1055 4 0.0240474 0.326652 0.198045
498 4 0.178842 0.260175 0.223971
291 4 0.329206 0.280245 0.180202
289 2 0.351846 0.288412 0.191641
290 4 0.374485 0.29658 0.203079
2566 2 0.410196 0.298665 0.215976
2568 4 0.38992 0.287166 0.202332
2567 4 0.430471 0.310164 0.22962
345 4 0.44505 0.32055 0.241446
298 2 0.483202 0.278472 0.247987
299 4 0.498562 0.26682 0.235348
2536 2 0.00690753 0.382561 0.202266
2537 4 0.0324345 0.390121 0.204663
4008 4 0.0430232 0.391967 0.187862
1054 2 0.0472975 0.336261 0.207751
4006 2 0.0676551 0.403237 0.19203
1056 4 0.0705476 0.34587 0.217457
4007 4 0.0922871 0.414507 0.196199
337 2 0.155877 0.407537 0.21846
338 4 0.159991 0.402493 0.194556
2705 4 0.158798 0.338903 0.206535
2706 4 0.191957 0.376813 0.18452
2704 2 0.175377 0.357858 0.195528
339 4 0.151763 0.412581 0.242363
3990 4 0.333886 0.376067 0.175731
2861 4 0.350364 0.389036 0.181119
518 4 0.354076 0.338723 0.194798
2860 2 0.367686 0.395314 0.19944
734 4 0.362181 0.349329 0.210077
2862 4 0.385007 0.401592 0.217761
1803 4 0.404503 0.408487 0.219538
733 2 0.372315 0.34835 0.232808
517 2 0.365003 0.344419 0.172407
1801 2 0.398604 0.413148 0.24308
3818 4 0.0123993 0.444602 0.241199
123 3 0.423284 0.0330129 0.254885
3698 4 0.368157 0.00703486 0.259473
3723 4 0.412251 0.0476251 0.25379
3876 4 0.37308 0.00810336 0.316558
2855 4 0.476475 0.027613 0.259115
122 3 0.432776 0.0060463 0.275635
121 1 0.434786 0.0158547 0.254831
2837 4 0.150811 0.149337 0.272193
2836 2 0.176104 0.153422 0.27636
2838 4 0.201397 0.157507 0.280527
633 4 0.261171 0.134844 0.260917
2878 2 0.30156 0.150192 0.277268
2879 4 0.277313 0.14596 0.269047
2880 4 0.325807 0.154424 0.285489
420 4 0.333476 0.14056 0.27674
418 2 0.338747 0.124395 0.260001
285 4 0.401953 0.228398 0.259446
284 4 0.423935 0.213638 0.299837
283 2 0.412944 0.221018 0.279642
390 4 0.442588 0.210708 0.305149
388 2 0.467615 0.219514 0.309906
389 4 0.492642 0.22832 0.314663
3631 2 0.0915432 0.319513 0.320796
3632 4 0.102342 0.300859 0.314176
344 4 0.442019 0.316775 0.291265
343 2 0.443534 0.318662 0.266355
2654 4 0.447772 0.310758 0.310107
300 4 0.467843 0.290124 0.260626
2653 2 0.452255 0.292343 0.324488
2495 4 0.0146037 0.369347 0.32211
366 4 0.031127 0.362608 0.327403
365 4 0.0719867 0.345906 0.312961
364 2 0.0515569 0.354257 0.320182
3633 4 0.0807439 0.338167 0.327416
2554 2 0.226601 0.406653 0.281323
2556 4 0.223268 0.397219 0.258192
2700 4 0.234854 0.388644 0.324905
2555 4 0.229934 0.416087 0.304453
2873 4 0.351671 0.397088 0.329182
2596 2 0.38096 0.398984 0.303145
2597 4 0.365638 0.389126 0.322122
735 4 0.38245 0.347371 0.255539
2598 4 0.396281 0.408842 0.284168
2531 4 0.486191 0.384452 0.319805
667 2 0.019013 0.431695 0.303674
668 4 0.0441433 0.441309 0.30712
417 4 0.265016 0.447188 0.320449
415 2 0.288321 0.458085 0.329302
1802 4 0.392705 0.417809 0.266621
3476 4 0.015171 0.0827919 0.350675
1244 4 0.0358614 0.0811353 0.354141
1243 2 0.0595425 0.080152 0.361365
1245 4 0.0832236 0.0791687 0.36859
4124 4 0.182964 0.00729042 0.381751
4123 2 0.157618 0.00495971 0.379424
4125 4 0.132273 0.00262899 0.377097
1377 4 0.173608 0.0820093 0.374298
2559 4 0.193496 0.065149 0.416438
1496 4 0.202815 0.00662946 0.376738
1495 2 0.227975 0.00732818 0.376455
1497 4 0.253135 0.00802691 0.376173
1185 4 0.27334 0.00931631 0.381584
1183 2 0.298006 0.0212728 0.384254
2114 4 0.342892 0.0410196 0.390743
1184 4 0.322673 0.0332294 0.386924
2113 2 0.368575 0.0473363 0.389629
1128 4 0.416192 0.0591099 0.385349
2115 4 0.394258 0.0536531 0.388514
1126 2 0.44171 0.0629642 0.387704
707 4 0.486466 0.0649795 0.38945
1127 4 0.467227 0.0668185 0.390058
2915 4 0.0119021 0.121945 0.396413
2936 4 0.0325263 0.132695 0.394267
2935 2 0.0579678 0.13539 0.396042
2667 4 0.103682 0.0820357 0.370207
2937 4 0.0834092 0.138086 0.397816
2664 4 0.104528 0.138343 0.401147
2662 2 0.12915 0.137709 0.397824
2665 2 0.128866 0.0829164 0.371104
2666 4 0.154049 0.083797 0.372002
2663 4 0.153771 0.137075 0.394501
2658 4 0.174317 0.135541 0.394126
1375 2 0.199242 0.0860713 0.373533
2656 2 0.195845 0.15201 0.400838
1376 4 0.224877 0.0901334 0.372768
2870 4 0.244802 0.0940644 0.365394
2869 2 0.270101 0.0964708 0.368259
2871 4 0.295401 0.0988772 0.371125
1524 4 0.316223 0.0992963 0.376998
1523 4 0.366938 0.105787 0.383488
1522 2 0.34158 0.102542 0.380243
1058 4 0.387753 0.111684 0.392477
1059 4 0.438766 0.118949 0.397007
1057 2 0.413259 0.115317 0.394742
2643 4 0.457452 0.121526 0.407154
2641 2 0.481782 0.119742 0.410162
2657 4 0.217374 0.168479 0.40755
2612 4 0.233768 0.187306 0.413053
2611 2 0.257678 0.195434 0.404284
371 4 0.294159 0.215481 0.382596
2613 4 0.281588 0.203562 0.395514
370 2 0.317729 0.222725 0.392399
372 4 0.341299 0.229969 0.402202
118 3 0.405527 0.243898 0.402918
119 3 0.367129 0.231234 0.408729
2823 4 0.496925 0.185809 0.397999
509 4 0.183508 0.316654 0.379507
508 2 0.176606 0.302343 0.399715
717 4 0.202244 0.314633 0.37392
715 2 0.223866 0.314575 0.361387
716 4 0.245488 0.314517 0.348854
306 4 0.245179 0.278652 0.399033
3060 4 0.23742 0.261887 0.410888
305 4 0.289852 0.279169 0.37632
304 2 0.267516 0.278911 0.387676
2497 2 0.431848 0.254356 0.367387
2499 4 0.422499 0.252124 0.39068
2498 4 0.441196 0.256588 0.344095
2655 4 0.456737 0.273928 0.338869
373 2 0.180899 0.402899 0.390179
374 4 0.167883 0.396896 0.411513
375 4 0.193916 0.408901 0.368845
2699 4 0.196312 0.398606 0.351849
2904 4 0.25087 0.392107 0.336869
2698 2 0.215583 0.393625 0.338377
2902 2 0.275144 0.389857 0.338964
2874 4 0.309727 0.386543 0.358099
2903 4 0.299418 0.387607 0.34106
2872 2 0.330699 0.391816 0.34364
1432 2 0.463963 0.401065 0.339476
1433 4 0.473437 0.381108 0.334639
2712 4 0.0344902 0.447949 0.37245
3641 4 0.0150821 0.438496 0.374609
2710 2 0.0563862 0.441676 0.36627
2826 4 0.0983067 0.437139 0.360544
2711 4 0.0782822 0.435402 0.36009
2824 2 0.12364 0.446356 0.362925
3592 2 0.18767 0.456961 0.376526
3593 4 0.168422 0.459626 0.361608
2825 4 0.148973 0.455572 0.365306
3594 4 0.206918 0.454295 0.391444
416 4 0.311626 0.468982 0.338155
775 2 0.345846 0.463299 0.353161
777 4 0.323825 0.470854 0.353246
776 4 0.367867 0.455743 0.353075
1758 4 0.38486 0.47107 0.351574
1757 4 0.435195 0.477304 0.342819
1756 2 0.410028 0.474187 0.347196
1452 4 0.454049 0.484022 0.35182
1434 4 0.454489 0.421023 0.344313
1450 2 0.473653 0.472739 0.351728
1451 4 0.493258 0.461456 0.351635
2646 4 0.0270566 0.0423278 0.435274
2644 2 0.00236978 0.0383956 0.428492
2489 4 0.00419611 0.08396 0.495406
3797 4 0.0474389 0.0517305 0.435572
3796 2 0.0713255 0.065738 0.438349
3798 4 0.095212 0.0797455 0.441126
2459 4 0.110317 0.00487708 0.484578
216 1 0.129483 0.0783668 0.439385
218 3 0.126645 0.0664165 0.419495
219 3 0.126781 0.0637652 0.4574
2457 4 0.132326 0.0572507 0.473758
2455 2 0.153868 0.0559299 0.485825
2557 2 0.18431 0.082213 0.428992
1180 2 0.164215 0.00358616 0.47906
2456 4 0.17541 0.0546091 0.497891
1182 4 0.187584 0.0190274 0.479401
4238 4 0.207601 0.0548414 0.421237
4237 2 0.232612 0.0617542 0.4269
4239 4 0.257624 0.0686671 0.432563
3852 4 0.232187 0.0369733 0.498873
900 4 0.0114433 0.137458 0.463372
898 2 0.0336847 0.143259 0.450848
2488 2 0.0295517 0.0926586 0.498257
899 4 0.0559261 0.149059 0.438324
641 4 0.0713972 0.142693 0.447193
640 2 0.0883923 0.141627 0.465261
220 3 0.113858 0.09127 0.440669
642 4 0.105387 0.14056 0.483329
321 4 0.127078 0.147477 0.484312
87 3 0.0725101 0.0958775 0.497777
90 3 0.0988154 0.128189 0.499963
319 2 0.151601 0.155552 0.477247
217 3 0.15132 0.0919073 0.439953
320 4 0.176123 0.163627 0.470182
2558 4 0.175125 0.099277 0.441547
984 4 0.193593 0.113319 0.449059
982 2 0.217377 0.127248 0.452709
9 3 0.19617 0.164301 0.474583
368 4 0.228649 0.164082 0.497268
983 4 0.241161 0.141177 0.45636
725 4 0.258114 0.157098 0.456455
2503 2 0.288246 0.106632 0.427752
2504 4 0.267311 0.0884195 0.432129
2551 2 0.26929 0.0898514 0.495685
2553 4 0.246248 0.0953309 0.497059
2552 4 0.292332 0.084372 0.494311
2505 4 0.309181 0.124843 0.423375
762 4 0.311251 0.0870789 0.484716
761 4 0.361912 0.106432 0.481757
760 2 0.336582 0.0967554 0.483237
3173 4 0.381317 0.108895 0.474144
3174 4 0.432187 0.113313 0.474635
2901 4 0.437892 0.108558 0.456417
3172 2 0.406752 0.111104 0.47439
2899 2 0.461957 0.117538 0.464445
2900 4 0.486023 0.126519 0.472473
410 4 0.477069 0.164292 0.450816
1034 4 0.178215 0.207754 0.42526
1033 2 0.20068 0.201283 0.427786
7 3 0.220142 0.186124 0.450387
1035 4 0.223146 0.194812 0.430313
8 3 0.214928 0.19952 0.484477
6 1 0.216507 0.18056 0.472588
3059 4 0.234208 0.241677 0.4566
10 3 0.234422 0.172559 0.48041
724 2 0.281518 0.172254 0.454266
726 4 0.304922 0.18741 0.452077
473 4 0.345847 0.220599 0.418361
116 1 0.388371 0.238575 0.418978
472 2 0.335611 0.206636 0.437927
474 4 0.325376 0.192673 0.457493
117 3 0.392549 0.221694 0.432263
3461 4 0.430408 0.184455 0.475877
411 4 0.446458 0.18105 0.482761
409 2 0.461763 0.172671 0.466789
3460 2 0.415003 0.183622 0.495709
2821 2 0.494786 0.183422 0.422839
2822 4 0.492648 0.181036 0.447679
266 4 0.996883 0.293754 0.452154
267 4 0.0252303 0.322241 0.487176
265 2 0.0110565 0.307997 0.469665
889 2 0.0695297 0.323901 0.494227
890 4 0.0441772 0.32162 0.496389
812 4 0.0949088 0.284797 0.446296
891 4 0.0948823 0.326182 0.492064
510 4 0.169704 0.288031 0.419922
811 2 0.109572 0.308055 0.447619
813 4 0.124235 0.331313 0.448943
310 2 0.238649 0.264479 0.487278
3058 2 0.235814 0.251782 0.433744
311 4 0.2337 0.260508 0.462918
120 3 0.388339 0.256809 0.431891
2847 4 0.0557455 0.414691 0.440848
2846 4 0.0724885 0.405415 0.486178
2845 2 0.064117 0.410053 0.463513
2510 4 0.115029 0.388317 0.444814
1239 4 0.108742 0.343315 0.488992
1237 2 0.131662 0.354202 0.498703
2511 4 0.136666 0.349148 0.443071
2509 2 0.125847 0.368733 0.443943
803 4 0.212467 0.364429 0.492039
408 4 0.230847 0.36259 0.48576
406 2 0.253901 0.372009 0.495965
1173 4 0.451437 0.402742 0.47314
560 4 0.0291852 0.498728 0.455486
559 2 0.00533252 0.498292 0.463298
662 4 0.143558 0.487462 0.462099
661 2 0.120692 0.490733 0.454677
663 4 0.097826 0.494004 0.447254
336 4 0.27813 0.481118 0.489541
239 4 0.257801 0.477685 0.488099
334 2 0.302995 0.48059 0.490136
1029 4 0.364649 0.42703 0.487385
335 4 0.327859 0.480063 0.490731
327 4 0.347705 0.477355 0.490876
325 2 0.373393 0.483924 0.490034
1171 2 0.436914 0.417171 0.482807
326 4 0.39908 0.490493 0.489191
1172 4 0.422392 0.431601 0.492475
570 4 0.442394 0.447055 0.428571
1446 4 0.420163 0.492114 0.48711
1444 2 0.441703 0.483744 0.486374
1027 2 0.389409 0.436876 0.492543
1028 4 0.414169 0.446722 0.497701
569 4 0.493689 0.456899 0.425499
2138 4 0.480507 0.476742 0.495576
568 2 0.468041 0.451977 0.427035
1445 4 0.463244 0.475374 0.485637
3179 4 0.133575 0.0557335 0.574373
3178 2 0.159259 0.0615475 0.575576
3180 4 0.184942 0.0673615 0.576778
3395 4 0.18659 0.0498925 0.569674
3394 2 0.209329 0.0456065 0.576148
3850 2 0.250723 0.0369884 0.515657
3851 4 0.269259 0.0370034 0.532442
3326 4 0.289663 0.0479113 0.530879
3325 2 0.314836 0.051869 0.535653
3327 4 0.340009 0.0558268 0.540426
944 4 0.356331 0.0553921 0.528599
2997 4 0.311911 0.0182737 0.579425
3309 4 0.298369 0.00475417 0.5686
943 2 0.380842 0.0621994 0.536049
945 4 0.405352 0.0690067 0.543498
3033 4 0.423643 0.0786787 0.53798
1967 4 0.478534 0.0130239 0.55496
1966 2 0.497431 0.0205008 0.571596
2490 4 0.0549073 0.101357 0.501107
88 3 0.0840647 0.11045 0.531473
86 1 0.0910128 0.10781 0.509703
89 3 0.108218 0.0960794 0.509654
575 4 0.124552 0.107968 0.500876
574 2 0.148046 0.104769 0.506005
576 4 0.17154 0.10157 0.511135
2196 4 0.190291 0.0980375 0.509662
2194 2 0.215816 0.101218 0.511048
367 2 0.241521 0.155896 0.515654
369 4 0.254393 0.14771 0.534041
2195 4 0.241341 0.104399 0.512434
3031 2 0.44844 0.0817098 0.544032
3032 4 0.473238 0.084741 0.550084
2501 4 0.49535 0.0885927 0.549564
936 4 0.288337 0.245642 0.576729
3462 4 0.399599 0.182788 0.515542
3235 2 0.0873776 0.268815 0.566757
145 3 0.046922 0.263206 0.582182
3236 4 0.061838 0.262226 0.569545
3237 4 0.112917 0.275403 0.563968
312 4 0.243598 0.26845 0.511639
443 4 0.252434 0.280456 0.52682
442 2 0.272623 0.300042 0.525525
444 4 0.292812 0.319628 0.524229
935 4 0.291493 0.290348 0.55564
934 2 0.289915 0.267995 0.566184
2637 4 0.0125137 0.340082 0.516294
260 4 0.031888 0.346614 0.509865
259 2 0.0463746 0.369504 0.505355
261 4 0.0608611 0.392395 0.500844
804 4 0.166418 0.352413 0.514245
1238 4 0.154582 0.365089 0.508413
802 2 0.189443 0.358421 0.503142
407 4 0.276954 0.381427 0.506169
2550 4 0.307928 0.336996 0.52336
2548 2 0.302253 0.358541 0.516776
2549 4 0.296577 0.380086 0.510192
3045 4 0.364805 0.353354 0.520305
3043 2 0.388301 0.352644 0.512268
3044 4 0.411796 0.351934 0.504231
3456 4 0.462723 0.392905 0.502455
2108 4 0.472669 0.413359 0.503389
3454 2 0.482238 0.382199 0.507234
1137 4 0.0556718 0.418394 0.575526
4361 4 0.168348 0.453803 0.579243
3369 4 0.174926 0.46912 0.567786
3367 2 0.189985 0.478439 0.548448
3368 4 0.205043 0.487757 0.529111
240 4 0.221233 0.491804 0.514647
238 2 0.239517 0.484744 0.501373
2129 4 0.37703 0.494871 0.570441
2213 4 0.36431 0.487419 0.554496
2107 2 0.481372 0.434568 0.516129
2109 4 0.490075 0.455777 0.528869
3104 4 0.0035863 0.0682495 0.592892
3123 4 0.106823 0.00151376 0.635475
3028 2 0.211635 0.0632046 0.632311
3030 4 0.205128 0.0447422 0.615578
3029 4 0.218141 0.0816671 0.649045
3066 4 0.204064 0.0111282 0.609208
3396 4 0.232068 0.0413206 0.582622
3023 4 0.22185 0.0249971 0.609409
270 4 0.2495 0.0314648 0.664718
3022 2 0.247311 0.0321253 0.612624
3024 4 0.272771 0.0392534 0.615838
2996 4 0.285077 0.0484451 0.600142
4072 2 0.283939 0.0242849 0.653466
2995 2 0.298494 0.0333594 0.589784
4073 4 0.297925 0.0140002 0.637698
1025 4 0.236233 0.0934774 0.655374
3110 4 0.0344351 0.195526 0.64707
2813 4 0.0101972 0.201325 0.588076
144 3 0.0569968 0.243849 0.610926
3109 2 0.0501718 0.214433 0.635142
3111 4 0.0659086 0.233341 0.623214
3383 4 0.0844584 0.236075 0.615646
142 3 0.0217432 0.250769 0.609489
1211 4 0.134663 0.184505 0.58269
3382 2 0.109866 0.245579 0.615571
1210 2 0.158298 0.180973 0.586344
1212 4 0.181932 0.177442 0.589997
1259 4 0.286989 0.230298 0.589477
1258 2 0.309622 0.223896 0.589639
3038 4 0.353073 0.223514 0.585305
1260 4 0.332255 0.217494 0.5898
3037 2 0.376954 0.229318 0.594567
3039 4 0.400835 0.235123 0.60383
3386 4 0.41602 0.226274 0.598625
3385 2 0.441613 0.230748 0.600617
3387 4 0.467206 0.235222 0.602609
384 4 0.484 0.239159 0.614309
3266 4 0.00280803 0.25361 0.610643
141 1 0.0445831 0.259283 0.604572
143 3 0.0522925 0.279097 0.61628
3357 4 0.0574148 0.324218 0.64915
3355 2 0.0624107 0.30302 0.64054
3356 4 0.0674067 0.281822 0.631929
2627 4 0.0726834 0.269727 0.645968
2626 2 0.0878375 0.259505 0.660483
3384 4 0.135275 0.255083 0.615495
3107 4 0.156121 0.267249 0.618477
3440 4 0.170529 0.265469 0.667273
3106 2 0.181407 0.273969 0.6229
3108 4 0.206694 0.28069 0.627323
896 4 0.182776 0.254261 0.661238
3165 4 0.225887 0.278789 0.620799
3163 2 0.251055 0.283736 0.625866
3164 4 0.276222 0.288682 0.630933
1083 4 0.283053 0.283415 0.648555
1081 2 0.286588 0.265247 0.663812
1136 4 0.0404793 0.383369 0.610568
1135 2 0.0480756 0.400882 0.593047
905 4 0.0580665 0.339574 0.66188
1007 4 0.0573561 0.495425 0.655158
1006 2 0.0814746 0.49381 0.65985
1008 4 0.105593 0.492194 0.664542
4196 4 0.116431 0.489582 0.648199
4195 2 0.132855 0.474975 0.644375
4197 4 0.14928 0.460368 0.640552
4362 4 0.166352 0.460808 0.62862
4360 2 0.16735 0.457306 0.603932
2215 2 0.486957 0.495446 0.657918
2305 2 0.0636557 0.0779134 0.728327
2306 4 0.0611826 0.0597061 0.711295
818 4 0.0781026 0.0530264 0.703644
817 2 0.103737 0.0570438 0.704313
819 4 0.129371 0.0610612 0.704981
887 4 0.146035 0.0702485 0.694749
886 2 0.171096 0.0745972 0.700173
888 4 0.196158 0.0789459 0.705597
4074 4 0.269952 0.0345697 0.669234
3082 2 0.240303 0.00884971 0.740895
3084 4 0.228528 0.0157467 0.720965
268 2 0.234774 0.0267683 0.685167
269 4 0.220048 0.0220718 0.705617
1194 4 0.0191948 0.0945875 0.746958
2307 4 0.0661287 0.0961208 0.745358
1026 4 0.217228 0.0864629 0.701759
1024 2 0.22673 0.0899701 0.678566
3207 4 0.27242 0.150975 0.728102
3205 2 0.273683 0.138665 0.706751
3206 4 0.274947 0.126356 0.6854
3020 4 0.291066 0.118728 0.68035
3019 2 0.315701 0.117371 0.679827
3021 4 0.340336 0.116014 0.679304
3293 4 0.355979 0.106741 0.679621
3292 2 0.368449 0.121893 0.697441
3294 4 0.38092 0.137046 0.715261
3126 4 0.491393 0.136354 0.736929
3008 4 0.483442 0.118477 0.745112
3240 4 0.110136 0.20984 0.711507
3238 2 0.12819 0.200173 0.700708
3239 4 0.146243 0.190505 0.689909
2628 4 0.102992 0.249283 0.674997
3351 4 0.160556 0.192095 0.67581
3349 2 0.183884 0.192398 0.684991
3350 4 0.207212 0.192702 0.694172
779 4 0.224729 0.206046 0.698709
778 2 0.229582 0.209581 0.723136
780 4 0.234436 0.213116 0.747562
1082 4 0.290123 0.247079 0.67907
3441 4 0.120743 0.260222 0.678153
3439 2 0.145636 0.262845 0.672713
895 2 0.201266 0.262761 0.678041
897 4 0.219756 0.27126 0.694845
1085 4 0.231782 0.284491 0.706539
1084 2 0.255048 0.288923 0.695928
1086 4 0.278314 0.293355 0.685317
922 2 0.374702 0.310473 0.743761
923 4 0.377739 0.325688 0.723929
3092 4 0.421038 0.327899 0.681189
3091 2 0.39853 0.32725 0.692375
3093 4 0.376021 0.3266 0.70356
4494 4 0.0129192 0.400886 0.715401
4492 2 0.03754 0.413486 0.71547
904 2 0.0585991 0.348077 0.685345
906 4 0.0591316 0.35658 0.70881
1277 4 0.0746604 0.500623 0.748086
1096 2 0.999977 0.470766 0.722933
1276 2 0.0525333 0.497878 0.735566
1097 4 0.0244352 0.47653 0.730649
1278 4 0.0304062 0.495133 0.723045
4493 4 0.0621608 0.426086 0.715538
822 4 0.132039 0.499962 0.733974
820 2 0.10903 0.493374 0.745047
885 4 0.13325 0.427069 0.712826
883 2 0.158172 0.427558 0.715936
884 4 0.183094 0.428047 0.719046
1956 4 0.202844 0.436145 0.712487
1955 4 0.250239 0.428054 0.711431
1954 2 0.226541 0.432099 0.711959
2001 4 0.0162204 0.00662849 0.761524
1999 2 0.0392955 0.0195364 0.769236
2000 4 0.0623706 0.0324444 0.776949
1146 4 0.0783441 0.0402752 0.788201
1145 4 0.119701 0.0661332 0.812626
1144 2 0.0990224 0.0532042 0.800413
3132 4 0.138659 0.0703837 0.820985
4345 2 0.282771 0.0656608 0.825981
4346 4 0.292987 0.0655275 0.803174
3146 4 0.313054 0.0697177 0.79928
4580 4 0.329123 0.0466322 0.778158
2283 4 0.315814 0.0375777 0.763075
2281 2 0.293947 0.0200297 0.760723
2282 4 0.272079 0.00248168 0.758371
4579 2 0.350524 0.0396486 0.771538
2036 4 0.377455 0.0163349 0.772995
4581 4 0.371926 0.032665 0.764918
1192 2 0.000448666 0.0929313 0.763862
3130 2 0.162222 0.0826312 0.828045
3134 4 0.205712 0.105429 0.832022
4441 2 0.28542 0.110219 0.787376
4442 4 0.261848 0.0996634 0.795811
4443 4 0.308992 0.120775 0.778941
3147 4 0.358928 0.102077 0.798063
3145 2 0.335991 0.0858974 0.798671
3280 2 0.415735 0.140116 0.827308
3042 4 0.453166 0.131322 0.812247
3282 4 0.439168 0.142331 0.817521
3009 4 0.43611 0.0993847 0.762681
3007 2 0.459776 0.108931 0.753897
3040 2 0.471313 0.150841 0.804313
3481 2 0.00276295 0.200288 0.7836
3483 4 0.00689366 0.177273 0.782097
55 3 0.129879 0.188203 0.831487
3041 4 0.48946 0.170361 0.79638
3034 2 0.0087914 0.325166 0.775537
870 4 0.00357901 0.291714 0.822528
863 4 0.0154753 0.279271 0.814597
1073 4 0.0501447 0.318177 0.766439
1072 2 0.0751797 0.321169 0.771431
862 2 0.0359996 0.26955 0.81173
864 4 0.0565238 0.259829 0.808863
3035 4 0.0336485 0.325962 0.771522
1692 4 0.0766365 0.258547 0.809019
1074 4 0.100215 0.324162 0.776423
1691 4 0.127954 0.268175 0.811546
3246 4 0.116507 0.327257 0.786707
1690 2 0.102295 0.263361 0.810283
3244 2 0.126229 0.327231 0.809741
1209 4 0.140087 0.284495 0.804907
1208 4 0.175055 0.281085 0.770145
1207 2 0.157571 0.28279 0.787526
924 4 0.371664 0.295259 0.763593
482 4 0.381187 0.302141 0.780275
483 4 0.412023 0.319582 0.818828
481 2 0.396605 0.310862 0.799551
859 2 0.116871 0.403614 0.774968
861 4 0.12913 0.387645 0.764423
4456 2 0.165156 0.390515 0.790148
4457 4 0.142587 0.385467 0.778168
38 3 0.201598 0.412318 0.806652
4458 4 0.187726 0.395563 0.802128
36 1 0.20409 0.413636 0.829716
2337 4 0.302526 0.365141 0.832988
4160 4 0.318553 0.372574 0.82183
815 4 0.311512 0.400028 0.782733
4159 2 0.334012 0.38171 0.802706
4161 4 0.34947 0.390845 0.783581
1169 4 0.364583 0.403797 0.773386
1168 2 0.389017 0.403535 0.778385
1170 4 0.413452 0.403273 0.783384
4208 4 0.431546 0.404742 0.791933
4207 2 0.456799 0.411655 0.787382
4209 4 0.482052 0.418569 0.782831
3376 2 0.0149694 0.498972 0.822482
4312 2 0.0472997 0.468625 0.792662