LAMMPS data file via write_data, version 19 Nov 2024, timestep = 100000, units = lj

32 atoms
4 atom types
22 bonds
1 bond types
15 angles
2 angle types

-2.068243 2.068243 xlo xhi
-2.068243 2.068243 ylo yhi
-2.068243 2.068243 zlo zhi
-4.136487405137501e-05 0 0 xy xz yz

Masses

1 1
2 1
3 0.1
4 0.1

Bond Coeffs # harmonic/omp

1 100 0.45

Angle Coeffs # harmonic/omp

1 100 180
2 100 109.471

Atoms # full

5 1 3 0 -1.6787480200189733 -0.7414137676996928 -1.726434732644201 1 0 1
7 2 4 0 -1.507252977311689 -0.4448340051192521 -1.507751057298481 0 0 0
6 2 2 0 -1.1838913771760315 -0.4898680919229046 -1.202225460393924 0 0 0
1 1 1 0 -2.0216244093078526 -0.7257227263621071 -1.9819058040445428 1 0 1
19 6 4 0 -0.01870563242379175 -1.5264616551359578 -0.22478254406690668 0 0 0
8 2 4 0 -0.8640223119958379 -0.5336830657925422 -0.9162553188286329 0 0 0
25 8 4 0 -1.017745979449044 -1.8507737064450374 0.8354073611114505 2 0 0
29 9 4 0 -0.6942040054322558 -2.0665313144600583 0.7233733918655818 2 1 -1
16 5 4 0 -1.2182393129624145 -0.5121843743690606 0.8142978458501084 1 0 0
10 3 4 0 -0.950163535917316 -0.21279324887880313 0.7705513242931907 1 0 0
9 3 2 0 -0.5427383704221762 -0.043820997997150446 0.733355523389819 1 0 0
24 8 2 0 -1.3155502478087358 -2.06799065681548 1.0560985885518885 1 0 0
15 5 2 0 -1.3677260245709686 -0.6515824412145026 1.2047602038764653 1 0 0
2 1 3 0 -1.878237725336108 -0.7322884180213525 1.7215323090252141 1 0 0
17 5 4 0 -1.512888048170895 -0.7850801086410835 1.598947832782196 1 0 0
11 3 4 0 -0.1173295810847721 0.12310169095137091 0.7000386047427374 1 0 0
27 9 2 0 -0.35506746763500585 1.9147479676424002 0.4753791309306932 2 0 -1
28 9 4 0 -0.03088808750119787 1.7663968108369485 0.23762943982545037 2 0 -1
26 8 4 0 -1.6269475188902385 1.8358226105175408 1.2935327662684402 1 -1 0
14 4 4 0 -1.7017790548987903 1.5821031344156808 1.5924062117506117 1 0 0
12 4 2 0 -1.997145708557954 1.680009286631778 1.8876660025268581 2 0 0
23 7 4 0 0.957477748301824 -1.3823624062547866 -1.0787265333516352 0 0 0
21 7 2 0 1.240959114909169 -1.2074200627425724 -1.3777283111244438 0 0 0
4 1 3 0 1.847072020485239 -1.0932314528081268 -1.9044061666592682 0 0 1
22 7 4 0 1.5183970674470477 -1.021412289419553 -1.6796782597943032 0 0 0
3 1 3 0 1.8834123107170297 -0.35587796956532536 -1.9119102499831786 0 0 1
20 6 4 0 0.664471473543673 -1.4426841313863585 -0.7932577753490175 0 0 0
18 6 2 0 0.31361629106815103 -1.4831246372905633 -0.5003223656215958 0 0 0
13 4 4 0 1.8445336710435614 1.7920219306984944 -1.9477904800747357 1 0 1
31 10 4 0 0.002360303707506173 0.8769116702110744 -0.6304468650063626 2 0 0
30 10 2 0 0.047033142762975544 1.222506779678897 -0.3471723893294003 2 0 0
32 10 4 0 0.09052286865304549 1.543934728436466 -0.07909704012606489 2 0 0

Velocities

5 -0.38200422318272115 0.752186765190019 1.0358673869387534
7 0.12544419199925227 -0.5719860840418152 -0.14157472174409222
6 -0.14896593006615333 0.078741325517376 -0.2346693752496702
1 0.18885219902348355 -0.09778151469033845 -0.16706190366743306
19 1.221695255281985 -0.2753941699748488 -0.24748613114363172
8 0.22766221492133787 -0.03421605228797689 -0.25705273633627584
25 0.4343406350007376 0.1646784264345919 -0.11287371883175562
29 0.00011563166244034882 0.046915958839907165 0.104089878974482
16 0.2296118623056142 -0.1522209066116898 -0.052235897276229105
10 -1.1140776445746674 -0.40585674875351513 0.3563887759125607
9 0.00437095170574262 0.10464887650031124 0.040208482002649135
24 0.2232956280416696 -0.018114795287802944 0.042237556106415435
15 -0.21242571052677933 0.11301643638791166 0.16298626265273908
2 -0.5687064917380513 0.42464946300168227 -0.15920361606970945
17 0.2617881316376842 -0.21650869818550006 -0.057489896399538866
11 0.6013618239928136 -0.5941681105537672 0.4895018507073554
27 0.06396369955103397 0.014861354708996435 -0.05674820081970786
28 1.1965242512774226 1.0125009761129715 -0.30877914044199717
26 -0.39153048917728134 0.573800556554884 0.6564216424373651
14 0.21091149717690985 -0.23069278773225324 -0.18944029356616698
12 -0.2083997376557282 -0.10793410457211615 -0.05545110345454185
23 0.6226139905874236 0.3456306960934311 0.042415147004770906
21 -0.11680721677396085 0.2431586807766173 -0.004386034303609748
4 -0.17260689764578024 -0.32674325323852094 -0.04181678785661281
22 0.3209027951550825 0.5526952143950536 0.7843125981240513
3 0.5248683712580101 -0.6702724250426895 -0.04337642524955238
20 0.6965762972762669 0.317070179283441 -0.20613091623315338
18 0.06936957930282055 -0.13293638070906277 0.09107244432299683
13 0.5011789649540872 -0.11668191219502513 0.4094231351886951
31 0.20778648560875096 0.620595874998674 -0.117294667027908
30 -0.14539865908043365 -0.2556504666490582 -0.009949194021404135
32 0.7099026582839714 -0.636077082115394 -0.02605480279574408

Bonds

1 1 6 7
2 1 6 8
3 1 1 2
4 1 1 3
5 1 1 4
6 1 1 5
7 1 9 10
8 1 9 11
9 1 24 25
10 1 24 26
11 1 15 16
12 1 15 17
13 1 27 28
14 1 27 29
15 1 12 13
16 1 12 14
17 1 21 22
18 1 21 23
19 1 18 19
20 1 18 20
21 1 30 31
22 1 30 32

Angles

1 1 7 6 8
2 2 2 1 3
3 2 2 1 4
4 2 2 1 5
5 2 3 1 4
6 2 3 1 5
7 2 4 1 5
8 1 10 9 11
9 1 25 24 26
10 1 16 15 17
11 1 28 27 29
12 1 13 12 14
13 1 22 21 23
14 1 19 18 20
15 1 31 30 32
