LAMMPS data file via write_data, version 4 Feb 2025, timestep = 1000, units = lj

91 atoms
4 atom types
68 bonds
1 bond types
78 angles
2 angle types

-3 3 xlo xhi
-3 3 ylo yhi
-3 3 zlo zhi
0 0 0 xy xz yz

Masses

1 1
2 1
3 0.1
4 0.1

Bond Coeffs # harmonic/omp

1 100 0.45

Angle Coeffs # harmonic/omp

1 100 180
2 100 109.471

Atoms # full

57 12 4 0 -0.04789150900095063 -2.8274040218401044 -2.2602975377336696 0 0 0
56 12 2 0 0.3697488609813391 -2.6646690880855273 -2.261618558899557 0 0 0
58 12 4 0 0.7854002661769242 -2.4981956432287964 -2.2644128928266056 0 0 0
7 2 3 0 1.035544679409636 -0.9956748470825856 -2.5244430535592106 0 0 0
9 2 3 0 1.525223104914721 -0.606290317616279 -2.909777614527798 0 0 0
6 2 1 0 1.1698667618198506 -0.8842182631960673 -2.9286641726848197 0 0 0
61 13 4 0 -0.30708021491211657 -2.105733794138265 -1.2161164721439537 0 0 0
59 13 2 0 0.09034824116731244 -1.8612932515029021 -1.2474096153744392 0 0 0
60 13 4 0 0.49803854737483855 -1.6076305795307002 -1.283496293395857 0 0 0
19 4 3 0 0.5105173330984805 -0.053069530043414304 -1.2340036570994286 1 0 0
30 6 3 0 2.335132466145083 -2.9469798428735845 -0.9879058504933571 1 1 0
5 1 3 0 -2.822731693044799 -1.0838154520632728 -0.36548797244072695 1 0 0
4 1 3 0 -2.8519111604531537 -0.36631907545236997 -0.33585426541381214 1 0 0
3 1 3 0 2.5231923986060547 -0.7381084799738784 -0.3736752797514473 0 0 0
33 7 3 0 2.7069017714893047 -0.1793914272764292 -0.8667365291235853 0 0 0
1 1 1 0 2.95349088214466 -0.7297772770698256 -0.20841306856257802 0 0 0
72 17 4 0 2.623881289128393 -2.6824525001800343 0.7268405288280704 0 0 0
62 14 2 0 -1.7586427126872177 -1.5044330354906856 0.46481108604291244 1 0 0
63 14 4 0 -1.655454767556599 -1.2362405418883369 0.7913421023719156 1 0 0
64 14 4 0 -1.85854959717033 -1.7848970349426088 0.11102796336764653 1 0 0
70 16 4 0 1.4292099923606258 -1.4726956352567955 0.5252704079249244 0 0 0
68 16 2 0 1.773200371171182 -1.1548191545712638 0.45328302154939193 0 0 0
14 3 3 0 0.807015985343051 -0.32283830176417894 0.5895675333958965 0 0 0
69 16 4 0 2.107314516375082 -0.8376666199222589 0.3877222899844721 0 0 0
2 1 3 0 2.9375911131347188 -0.756495946789471 0.24783564288426607 0 0 0
73 17 4 0 -2.71274038320896 -2.805096755431522 1.376764755549659 1 0 0
71 17 2 0 2.9589314865664864 -2.7457930947313116 1.059760712300215 0 0 0
77 19 2 0 -1.7530544537938426 -0.2801269986326842 1.3513700033123577 1 0 0
78 19 4 0 -1.6297915360832413 -0.6890326314274366 1.5475157232809913 1 0 0
11 3 1 0 0.9289839577665502 -0.3425936682579058 1.0424898640109905 0 0 0
13 3 3 0 0.9381607850066596 -0.7637228524982143 1.1675700774031483 0 0 0
12 3 3 0 0.6217082063725989 -0.11459126470545122 1.2933533942232387 0 0 0
15 3 3 0 1.3375232916474493 -0.1603762310075476 1.0943702887875784 0 0 0
81 20 4 0 -2.049306012637616 -2.005393996528908 2.923613264780145 1 0 0
65 15 2 0 0.7079276781179176 -2.9214035642065674 2.5577822764972176 0 0 0
66 15 4 0 1.154644163353069 -2.8349933504852975 2.538016078224696 0 0 0
80 20 2 0 -2.0149875951974225 -1.6831002068410394 2.6096013905594617 1 0 0
82 20 4 0 -1.9817357731136398 -1.3588887423981224 2.3034675878850326 1 0 0
10 2 3 0 1.286035608529163 -1.257721700993036 2.8422664304545773 0 0 -1
75 18 4 0 -1.0798862648543128 -0.3902581716875848 2.0586369223663095 1 0 0
74 18 2 0 -1.276317555563216 -0.4013865595884236 2.462697382198444 1 0 0
76 18 4 0 -1.4669012535054444 -0.40722322131123523 2.8693045571400138 1 0 0
8 2 3 0 0.8455800866145085 -0.6856105505016421 2.8654816412919537 0 0 -1
37 8 3 0 -2.2250331589391807 0.9435236589378002 -2.0660423646153347 1 0 0
38 8 3 0 -2.670414947277784 1.290319347805454 -2.5535637343739017 1 0 0
36 8 1 0 -2.3336092583072414 1.349506948542686 -2.268905824842178 1 0 0
40 8 3 0 -1.9685767897540503 1.5073205695294405 -2.5007654069177643 1 0 0
21 5 1 0 -2.9041801388572215 2.555223517000514 -2.120257752726264 2 0 0
24 5 3 0 -2.840915930964422 2.819002486680459 -2.489131471758729 2 0 0
22 5 3 0 -2.5093253152375583 2.3440743368530352 -2.0015868123075826 2 0 0
25 5 3 0 2.800169191912042 2.2436142538749753 -2.2243135718734117 1 0 0
35 7 3 0 -2.741058800817653 0.21379047160917075 -1.1264942883256557 1 0 0
83 21 2 0 -0.8608376324186144 0.8691608024881985 -1.39512539429291 1 0 0
84 21 4 0 -0.6331740228294236 0.7227800953378161 -1.7591909020814986 1 0 0
18 4 3 0 0.4859292120865728 0.6927774125192698 -1.097914757645085 1 0 0
17 4 3 0 0.8850701206516165 0.429713552301938 -1.6604622424675552 1 0 0
16 4 1 0 0.7496129065988653 0.34802298978412693 -1.2429163887242027 1 0 0
34 7 3 0 2.5784182766812638 0.40222474511897577 -1.2956140381968455 0 0 0
39 8 3 0 -2.443242829675415 1.6536374075087892 -1.9549653697561837 1 0 0
85 21 4 0 -1.1035089094629151 1.0190173470307364 -1.0213963759542712 1 0 0
23 5 3 0 2.946190650090063 2.799147081334789 -1.7866887233704323 1 0 0
20 4 3 0 1.1198148831277752 0.3016600690471285 -0.9583100578204027 1 0 0
31 7 1 0 2.8503562380388585 0.23952449354905925 -0.9740381675462357 0 0 0
32 7 3 0 2.8394532927572254 0.5054236017698921 -0.612771895887442 0 0 0
54 11 3 0 2.7799280745476223 1.443120242063988 -0.11048435761823816 1 0 0
29 6 3 0 1.8025929957776263 2.8867634022939628 -0.5090420908587081 1 0 0
26 6 1 0 2.2069893710280066 2.757559352032697 -0.6724038771171781 1 0 0
27 6 3 0 2.522844385257917 2.7459931636027717 -0.3209414391459169 1 0 0
28 6 3 0 2.163353448524175 2.347951763389247 -0.8623623967530509 1 0 0
55 11 3 0 2.850859264782075 0.7798733366246764 0.1318656402000289 1 0 0
53 11 3 0 2.2885768945569858 1.1795230727447024 0.3392979584627893 1 0 0
51 11 1 0 2.721348609620117 1.1907533019323822 0.23717972027822265 1 0 0
52 11 3 0 2.9706301807528526 1.3628818445787285 0.6029822046001305 1 0 0
44 9 3 0 0.9305434015044014 2.716425098731163 0.9424567520334994 1 0 0
79 19 4 0 -1.8644133949451955 0.10328016412240615 1.1738204699428962 1 0 0
47 10 3 0 0.9808465979874708 1.8072023983190917 1.899135265516561 1 0 0
42 9 3 0 0.580580734084883 2.9722632240094207 1.5277871237259149 1 0 0
43 9 3 0 0.7325439125891098 2.264990914750296 1.470595519619085 1 0 0
41 9 1 0 0.8770170546563505 2.676693219228147 1.382134091734418 1 0 0
45 9 3 0 1.274137892348735 2.7385492167567964 1.5850433759031457 1 0 0
87 22 4 0 -2.238504749762982 0.7111560219234585 2.4125060316504934 1 0 0
86 22 2 0 -1.82861054568894 0.8666403272128522 2.2931759233971025 1 0 0
90 23 4 0 1.772437355672487 0.6540075477800156 2.5226578005107996 1 0 0
88 22 4 0 -1.4152034841675807 1.0306019117372136 2.175930082572771 1 0 0
48 10 3 0 0.4239173726397869 1.4656156681282582 2.1682538496506005 1 0 0
46 10 1 0 0.8535371500842341 1.490738333854008 2.165720169563757 1 0 0
50 10 3 0 0.9980090794480727 1.5774780518569038 2.581468429737182 1 0 0
49 10 3 0 1.0231746105031982 1.0988107480659561 2.035324765096961 1 0 0
89 23 2 0 1.876686522614392 1.0664941972259196 2.363573324209316 1 0 0
91 23 4 0 1.9732501901269135 1.478076919208819 2.2087569418114414 1 0 0
67 15 4 0 0.25768703248635605 2.9870956305970964 2.579219058972954 0 -1 0

Velocities

57 1.7113124250524112 0.7927990584530372 1.1328652629228604
56 0.14057368394111266 0.2565897570526597 0.08623620403853799
58 -2.9834612271045584 -0.815168868447871 0.4086305911753987
7 1.5846484893012664 -0.04907102144672638 0.6924933303796309
9 1.4980698189521404 -0.8809324084439734 0.6437080187154801
6 1.6579617299179967 0.07198288548867493 -0.06147931908280095
61 2.0255116481927695 1.2502428901626692 -0.819708091618096
59 0.7133818616695791 0.03226261743259666 0.03442472965196636
60 -0.21540705832790308 -1.014106629326759 -0.2550168106594621
19 2.905149072868751 0.27747594154667143 0.664028883913663
30 1.4588593175859361 -0.7917138812655492 0.9800812674083051
5 0.24556490414939214 -0.08497135623290625 0.8129606242395118
4 1.9081580477280926 -0.571758812916991 0.2253302104764099
3 1.0458162940871079 0.2794984238449184 0.49914371372770233
33 2.5737711254895026 -0.042991763522490255 0.1480095441995139
1 1.2781353599463778 0.10719983627253438 -0.18974435314989221
72 0.6826584570563693 -0.02338053646421323 0.4197491370970367
62 0.7316928063523731 0.14832794629104992 0.14338393471933114
63 1.186247899117529 -1.5067287852857594 -1.834481723668012
64 0.8458593428052458 0.9395366294873018 1.3148577285916079
70 2.7530462063047385 0.6173836371080422 -0.003924872198801464
68 1.6776423496796158 -0.3316791377204922 -0.29877414232455485
14 1.826406555712167 0.37910203752029886 0.7146768812095756
69 1.5204993506316014 -1.3588768426924158 -0.7614761429660857
2 0.8827881397523107 -0.6716976939711525 -0.09225185383766143
73 -0.15122817835371882 0.3251025630580888 -2.0324188596267994
71 0.1315521024505752 0.0155349345045499 -0.16071272892755398
77 1.8555654542135611 -0.022167636805369643 0.3295520722525666
78 1.5302456018970112 1.1496112964687655 -0.22637288338807657
11 0.9840533223113919 0.30303142336013433 0.18823565861098776
13 1.4541959183303366 0.5748369563379003 0.4240693454834654
12 0.7709987468209323 1.1481855163553432 0.617380531695314
15 0.19477904542247115 -0.9526363564425262 0.3246386867659926
81 0.6713176036644156 1.205606826077871 -0.3096993330787333
65 0.33285539682156545 -0.34846651326052147 0.479105425101174
66 -1.9006938809957505 1.1809864712313884 0.05210938340583497
80 0.255074828052962 0.029130199001221053 0.1061046606220796
82 0.9325223417840022 -0.9018670663199672 1.2584751579989717
10 -0.1428405540800748 0.16758531188702233 -0.32326417051640766
75 0.7759344803976089 -1.1575203034207673 1.0582866718060817
74 1.7335466100209354 -0.11292560533737386 -0.16953342035907212
76 2.5890938202799574 0.4187037413363597 -1.504290437163603
8 1.4963535800643535 -0.16467478355171045 0.780392149320788
37 3.269474667585888 -1.317747856618821 0.14495039949574082
38 3.586240405796995 -0.29539650699727404 -0.09783007209086442
36 2.8738957745771243 -0.20618188294000014 -0.2998315922928379
40 2.5191643151727083 -0.5551090072353716 0.8957449921557982
21 3.799742065566236 0.12716208987997685 0.05288250618474526
24 3.281499993558885 0.10310768435104449 -0.3861377752559853
22 3.7485734145316636 -0.6085570518559578 -0.5831861454297289
25 4.237145059461535 -0.3070714866898575 0.37088855268956167
35 2.170984206230265 0.03806615118898521 -0.40018523757414187
83 2.3620908826854254 -0.23563725774682404 -0.027479025604099108
84 1.566962553700861 1.1922497487236672 1.083425478307777
18 2.414430287624317 0.1962731027516849 -0.6427343961503459
17 0.49787278357510667 0.6618061978710609 -0.03674098325822222
16 2.2695735795574916 0.050575871944801745 0.2532933919771604
34 3.1777694460173493 0.6261668320359891 0.13360943920895035
39 3.1353827616131547 0.27702332366749655 -0.29165441041580736
85 3.82271196297138 0.5456582546154517 -1.672426798242813
23 4.192453527406702 -0.07268646485619565 -0.5614919711092065
20 2.4643409407730976 -0.7098510717038136 -0.6468987416204295
31 2.1454299369781182 0.10050468627406438 -0.0748245628341386
32 1.517293970503656 -0.09435431277990441 -0.7352871688737039
54 3.4058595292937586 -1.2421792684001647 0.22189604577087538
29 2.2704470252285436 0.5212413243649013 0.5204218588407382
26 3.4850165228849317 0.056106767410694654 -0.17289585405920485
27 3.4202743550856236 0.17064340832929337 -0.807426230062557
28 4.105435754784077 0.2914396924659135 0.24318605634250753
55 2.489671870450332 -0.5063878654034002 -0.014113432332191603
53 2.45948292787325 1.1031362309009987 -0.4874365013393818
51 3.1136738139270004 0.01928043725148707 -0.11432079855159955
52 2.150043279679439 -0.5944103627730172 0.09976406781816248
44 3.028896928843055 -0.2526684158622738 0.8198996645675468
79 1.8696464338364853 -1.0099567822064008 0.19723722254431597
47 3.0418342488718384 0.5323336917724771 -0.040097881519105275
42 3.929621064418012 -0.22182893469883552 -0.6076684116480587
43 3.799716657926317 0.012264497548119618 0.10350005897760231
41 3.7677744271891256 -0.051468522300115435 -0.17851265842780084
45 3.4431111450234075 0.223972885406577 -0.7729696137203524
87 2.7446169141912913 0.16118985052970822 -0.3588319127502783
86 2.585427459090802 -0.21535386906912682 0.06903054656765778
90 3.224664670327616 0.9371775030714768 -1.0740729263014686
88 0.9928481467223973 -1.1970801377977534 0.6693158260819781
48 2.573527171733878 1.4231110007288967 0.29942049768377876
46 1.9440330551550766 0.3733476717284875 -0.008886370738069324
50 2.072631321163017 0.41452645060600796 -1.6864261047412243
49 2.2575598277476425 0.12377920152715366 -0.14800085038717764
89 3.2749056334516684 -0.12559722621509908 -0.03389142772341105
91 2.587145045042746 -0.28130136254547083 1.2437121304816083
67 2.454148844811252 -1.4782429492279634 0.20784766559324153

Bonds

1 1 56 57
2 1 56 58
3 1 6 7
4 1 6 8
5 1 6 9
6 1 6 10
7 1 59 60
8 1 59 61
9 1 1 2
10 1 1 3
11 1 1 4
12 1 1 5
13 1 62 63
14 1 62 64
15 1 68 69
16 1 68 70
17 1 71 72
18 1 71 73
19 1 77 78
20 1 77 79
21 1 11 12
22 1 11 13
23 1 11 14
24 1 11 15
25 1 65 66
26 1 65 67
27 1 80 81
28 1 80 82
29 1 74 75
30 1 74 76
31 1 36 37
32 1 36 38
33 1 36 39
34 1 36 40
35 1 21 22
36 1 21 23
37 1 21 24
38 1 21 25
39 1 83 84
40 1 83 85
41 1 16 17
42 1 16 18
43 1 16 19
44 1 16 20
45 1 31 32
46 1 31 33
47 1 31 34
48 1 31 35
49 1 26 27
50 1 26 28
51 1 26 29
52 1 26 30
53 1 51 52
54 1 51 53
55 1 51 54
56 1 51 55
57 1 41 42
58 1 41 43
59 1 41 44
60 1 41 45
61 1 86 87
62 1 86 88
63 1 46 47
64 1 46 48
65 1 46 49
66 1 46 50
67 1 89 90
68 1 89 91

Angles

1 1 57 56 58
2 2 7 6 8
3 2 7 6 9
4 2 7 6 10
5 2 8 6 9
6 2 8 6 10
7 2 9 6 10
8 1 60 59 61
9 2 2 1 3
10 2 2 1 4
11 2 2 1 5
12 2 3 1 4
13 2 3 1 5
14 2 4 1 5
15 1 63 62 64
16 1 69 68 70
17 1 72 71 73
18 1 78 77 79
19 2 12 11 13
20 2 12 11 14
21 2 12 11 15
22 2 13 11 14
23 2 13 11 15
24 2 14 11 15
25 1 66 65 67
26 1 81 80 82
27 1 75 74 76
28 2 37 36 38
29 2 37 36 39
30 2 37 36 40
31 2 38 36 39
32 2 38 36 40
33 2 39 36 40
34 2 22 21 23
35 2 22 21 24
36 2 22 21 25
37 2 23 21 24
38 2 23 21 25
39 2 24 21 25
40 1 84 83 85
41 2 17 16 18
42 2 17 16 19
43 2 17 16 20
44 2 18 16 19
45 2 18 16 20
46 2 19 16 20
47 2 32 31 33
48 2 32 31 34
49 2 32 31 35
50 2 33 31 34
51 2 33 31 35
52 2 34 31 35
53 2 27 26 28
54 2 27 26 29
55 2 27 26 30
56 2 28 26 29
57 2 28 26 30
58 2 29 26 30
59 2 52 51 53
60 2 52 51 54
61 2 52 51 55
62 2 53 51 54
63 2 53 51 55
64 2 54 51 55
65 2 42 41 43
66 2 42 41 44
67 2 42 41 45
68 2 43 41 44
69 2 43 41 45
70 2 44 41 45
71 1 87 86 88
72 2 47 46 48
73 2 47 46 49
74 2 47 46 50
75 2 48 46 49
76 2 48 46 50
77 2 49 46 50
78 1 90 89 91
