LAMMPS data file via write_data, version 4 Feb 2025, timestep = 1000, units = lj

8 atoms
4 atom types
6 bonds
1 bond types
7 angles
2 angle types

-1.5 1.5 xlo xhi
-1.5 1.5 ylo yhi
-1.5 1.5 zlo zhi
0 0 0 xy xz yz

Masses

1 1
2 1
3 0.1
4 0.1

Bond Coeffs # harmonic/omp

1 100 0.45

Angle Coeffs # harmonic/omp

1 100 180
2 100 109.471

Atoms # full

1 1 1 0 0.4575049736435439 -0.6210590473993802 -1.1181096866725644 0 0 0
3 1 3 0 0.22580576143073072 -0.9463342884965973 -0.9344532188672826 0 0 0
4 1 3 0 0.18249000124493442 -0.2820273982894852 -1.2338472441697617 0 0 0
2 1 3 0 0.7548628221442821 -0.47991289740991006 -0.8297710773975864 0 0 0
5 1 3 0 0.6709975169202425 -0.7723243644248166 -1.48661770623625 0 0 0
6 2 2 0 0.4567858278597634 -0.4192003005383058 0.432225068764408 0 0 0
8 2 4 0 0.08168812903516454 -0.6404311823043207 0.5166302959037097 0 0 0
7 2 4 0 0.8531110067655225 -0.18106077304021406 0.3389842018827409 0 0 0

Velocities

1 0.4492021970217634 -0.1188737892459039 -0.10941780723886985
3 1.0661508709017808 -0.3683661425151524 -0.089205219256862
4 0.3249503053934678 0.5943072842193909 0.2842877991734067
2 -0.19912942661002342 -0.27783262351783683 -0.09917359947828967
5 -0.3985126268719632 0.7382954423740443 0.23016136321906525
6 1.0129413417758735 0.12199781756734278 -0.04525060355347381
8 2.1045687402830153 1.3621193646692213 0.7800805541020799
7 -1.0837140240658312 -2.285061463336951 0.7134065150468133

Bonds

1 1 1 2
2 1 1 3
3 1 1 4
4 1 1 5
5 1 6 7
6 1 6 8

Angles

1 2 2 1 3
2 2 2 1 4
3 2 2 1 5
4 2 3 1 4
5 2 3 1 5
6 2 4 1 5
7 1 7 6 8
