LAMMPS data file via write_data, version 19 Nov 2024, timestep = 1000000, units = lj

79 atoms
4 atom types
54 bonds
1 bond types
35 angles
2 angle types

-3.045986 3.045986 xlo xhi
-3.045986 3.045986 ylo yhi
-3.045986 3.045986 zlo zhi

Masses

1 1
2 1
3 0.1
4 0.1

Bond Coeffs # harmonic/omp

1 100 0.45

Angle Coeffs # harmonic/omp

1 100 180
2 100 109.471

Atoms # full

29 9 2 0 -1.2126538709038568 -2.8411530243025656 -2.6070768948131318 0 1 1
30 9 4 0 -1.3905692269368157 -2.639878870631428 -2.957169509288574 0 1 1
45 14 4 0 -0.5173926217930177 -0.33950844438213473 -2.729917852247618 0 0 1
57 18 4 0 -2.3085494204319006 -2.6505695026266554 0.8608724860352155 0 0 0
3 1 3 0 -2.27518357119643 -2.666890282998277 1.2624363363838238 0 0 0
56 18 2 0 -1.96267922769541 -2.7969362556697503 0.5857426331576963 0 0 0
58 18 4 0 -1.6395413187270806 -2.9254220122502494 0.33217832164004485 0 0 0
54 17 4 0 -1.280932545707203 -2.8902256013376872 0.17142157287919588 0 0 0
2 1 3 0 -2.798633981319275 -2.7555633427310475 1.7818632028446755 0 0 0
14 4 2 0 -1.8310776101926283 -2.351501465327937 2.631618865939653 1 0 0
1 1 1 0 -2.361901021331917 -2.7484742016657577 1.7094057206652375 0 0 0
15 4 4 0 -2.2070086038974597 -2.377026407389763 2.374038033986645 1 0 0
4 1 3 0 -2.1696332360447763 -2.398663780437664 1.976146608914093 0 0 0
16 4 4 0 -1.4615272661130527 -2.316707588819422 2.8724943336561957 1 0 0
38 12 2 0 -0.8260329067500136 1.1050829908738564 -2.2937594704713353 0 0 1
39 12 4 0 -0.5675254874195692 0.757444931668064 -2.421713924871899 0 0 1
46 14 4 0 -0.32564598945573947 0.45095959249508333 -2.3914586482103677 0 0 1
75 24 4 0 -1.038060396385322 2.6688527969887224 -2.464108167049241 1 0 1
74 24 2 0 -0.9437375369635147 2.2291774282419783 -2.3052254262883176 1 0 1
40 12 4 0 -1.0776814170960056 1.451049076853169 -2.168315492089657 0 0 1
76 24 4 0 -0.8600632478277166 1.815256163251158 -2.1551377021870826 1 0 1
31 9 4 0 -1.0284605480131717 3.03197018055676 -2.250110725307063 0 0 1
68 22 2 0 -0.4213735871942985 1.8271305803636375 -0.156588650185351 0 1 0
70 22 4 0 -0.12131521884433456 1.4657259084113317 -0.18491619543076193 0 1 0
55 17 4 0 -0.7205064910602503 2.5826463945907063 -0.09925361825051109 0 -1 0
44 14 2 0 -0.4234561242326209 0.051724638183483045 -2.566277767876187 0 0 1
69 22 4 0 -0.7387836082734256 2.1851455134485316 -0.12190081327393044 0 1 0
53 17 2 0 -1.0028057305061497 2.8934582330024825 0.03730853442871756 0 -1 0
62 20 2 0 -1.6041163247811792 2.54554927541156 1.8246141716439548 1 0 0
34 10 4 0 -2.964828729010187 0.6965448343838313 2.588702576571899 1 0 0
32 10 2 0 -2.6574971522525153 1.0209756782665702 2.460912623639115 1 0 0
33 10 4 0 -2.382098024897079 1.3126577873395864 2.350304169128617 1 0 0
67 21 4 0 -1.9970445948065458 1.2016481634551937 2.276690585512469 1 0 0
65 21 2 0 -1.6575986507969258 1.493919949672927 2.2124706761874187 1 0 0
64 20 4 0 -1.792261547269193 2.9407798099714273 1.6695699009023004 1 0 0
5 1 3 0 -2.1699677301398705 2.9480873709654736 1.8297360210768456 0 -1 0
66 21 4 0 -1.3181800457966748 1.7766418029071271 2.1556585751558206 1 0 0
63 20 4 0 -1.4189586292363419 2.148126552446808 1.9897156006954289 1 0 0
28 8 4 0 1.3346896038744982 -3.0171868774405444 -1.788913430613959 0 1 0
27 8 4 0 1.387120976515194 -2.3491791622886606 -1.1125717317114394 0 1 0
43 13 4 0 1.4748474831486211 -2.546104727723317 -0.7672707011095394 -1 0 1
41 13 2 0 1.4441261993822483 -2.6649846324473194 -0.3317174005715729 -1 0 1
26 8 2 0 1.3550148281972163 -2.6885762309164423 -1.4508842840150282 0 1 0
47 15 2 0 1.3978126460893892 -2.9105601660555767 0.7086160563227493 1 -1 1
48 15 4 0 1.3498005730378047 -2.6910121727845233 1.101472459206875 1 -1 1
79 25 4 0 0.7032643365694423 -1.492285970811974 2.488320755621175 0 1 0
10 2 3 0 1.243750047943773 -2.862485689198602 1.4880459643366872 0 0 0
78 25 4 0 1.1349928543544245 -2.02190539436251 1.9014458669278294 0 1 0
77 25 2 0 0.9153941527250592 -1.7537191451072378 2.195634247877994 0 1 0
37 11 4 0 0.8604801798907278 -2.7393472860199637 2.287366224318127 0 1 0
8 2 3 0 1.2464929665634479 -2.804007684781104 2.2149651112777025 0 0 0
35 11 2 0 0.7787666366048593 -2.954440320413024 2.6485077828595633 0 1 0
9 2 3 0 1.4665148250080822 -2.2674086069484867 1.7939841102266822 0 0 0
6 2 1 0 1.4587763001386287 -2.6879633050202014 1.8297400410865163 0 0 0
7 2 3 0 1.8646901914462268 -2.8388560619463306 1.8366864284430744 0 0 0
52 16 4 0 0.8264362947853607 -1.0993951750852111 2.48648167962795 0 0 0
50 16 2 0 0.8155852738558016 -0.6999537495722971 2.6404768988784455 0 0 0
51 16 4 0 0.811273433154379 -0.24184007901569057 2.809234909516118 0 0 0
71 23 2 0 2.582205130680929 -2.799387885590297 1.8315449385285565 0 1 0
72 23 4 0 2.1994288446946317 -2.78275610030165 1.6280781060396354 0 1 0
73 23 4 0 2.977825031513288 -2.829333859329725 2.0528796340558864 0 1 0
42 13 4 0 1.408624805944671 -2.7743140189727393 0.10968918250198784 -1 0 1
20 6 2 0 0.9440652457993337 2.706678746243037 -2.3320935606477398 0 -1 1
22 6 4 0 0.7942500970303111 2.6192323274761944 -2.767683711460017 0 -1 1
21 6 4 0 1.0882781270976365 2.7969578924417835 -1.9289314622916793 0 -1 1
59 19 2 0 1.0399993146522053 0.4055764512225468 -1.1310840230147083 0 0 1
13 3 4 0 0.25938182609112553 1.4499902623992071 -0.34271889869493066 -1 0 0
60 19 4 0 0.6301960505042417 0.46695808071000666 -1.014294785233158 0 0 1
11 3 2 0 0.2788825371334849 1.0711080104193336 -0.6050320676408157 -1 0 0
12 3 4 0 0.302719882533471 0.6912522266515956 -0.8672756894065501 -1 0 0
61 19 4 0 1.4631704859182864 0.33738906061928364 -1.2550273432840322 0 0 1
17 5 2 0 1.2448921331926657 0.30602435942514167 2.8013073272716817 -1 0 0
18 5 4 0 1.6513481450242462 0.46759476564346547 2.8046950507700914 -1 0 0
23 7 2 0 2.4189807231039597 0.7066582507765797 2.665253244654785 -1 0 0
24 7 4 0 2.0322700504319102 0.4876649741877022 2.707584394453173 -1 0 0
25 7 4 0 2.8329574171876932 0.946527325859791 2.6122790448330333 -1 0 0
36 11 4 0 0.7018669184287862 2.8972403545184373 3.0424197514626137 0 0 0
49 15 4 0 1.4424921964416573 2.9613739564731767 0.31274951909480453 1 -2 1
19 5 4 0 0.8439615246084845 0.15172108224751438 2.7802271174089714 -1 0 0

Velocities

29 0.15751939005527804 -0.2967708322327162 0.2677004177092726
30 -0.4855514807186254 -0.8694971515055392 0.11724794963253451
45 0.03987950726338238 0.3312933869268371 -0.3272996093537148
57 -0.5464669317751781 -0.2167262785395485 0.8514085223356658
3 -0.698392960575239 -0.8226412050315146 -0.5634486533410397
56 -0.059230806112589254 -0.009606090309205787 -0.5123327873001793
58 0.23312883100214923 -0.21692919013831863 0.10150548059593503
54 -0.5024718960673469 -0.600543326443785 -0.28772192435607497
2 -0.5316333202276143 1.0743964611793242 0.46285037671644286
14 0.32752101045498 -0.058142543292438356 0.5288071560127448
1 0.12100370100861446 0.12988138146654835 0.03085294038007791
15 -0.2443912861360735 -0.3028693431894881 -0.7706133481178797
4 -0.7132662261212944 0.6829512881992785 -1.381252042778394
16 0.39663845121524843 -0.385600176199008 1.0431106060485809
38 -0.04364880058166914 0.2956927416508263 -0.30411886407231253
39 -0.8433705643011099 -0.199290807334714 0.12158366982597531
46 1.2281318105835757 0.23093025510920778 -0.24563660624468264
75 -0.3363151262570328 0.8036844652869376 -1.2341746473989312
74 -0.26383186077798765 0.042666057260458766 -0.12924238768269045
40 1.6840982294849174 0.14993020322690848 -1.5095973391577768
76 -0.06240316371989008 -0.48329694858731964 -0.46209251666447104
31 0.47479056810997883 0.5243613297828843 -0.49073128754751383
68 -0.0887347366473748 -0.020900168357051108 -0.46732957201599534
70 -0.0008441472627505817 -0.4527439500441476 0.8045059614150254
55 -0.34854961924627154 0.22906189190106716 0.10455841025414718
44 -0.14662244011600856 -0.0646215922652351 -0.27111425770870773
69 0.9015805526414974 -0.047785964440862694 0.5767308500456104
53 0.32789134315504426 0.28406076733634666 0.30604688265031454
62 -0.21364979693236338 -0.006739597649418447 -0.41029642863849536
34 -1.0132046351470723 -0.440606975704651 0.2967137816895184
32 -0.0802026331598383 -0.08849229503064224 0.24609640968164384
33 -0.7970639089876522 -0.17081196343256153 0.5777595562327565
67 -1.39582857453567 -1.2963775520689618 0.07781788879031248
65 0.0046278645350188875 -0.08712034944623366 -0.12241455682727169
64 0.5169767112594362 -0.6868940047442177 -0.1591619635357489
5 -0.6817496916058994 0.1367828762133155 -0.7055856969832236
66 -0.8918093212887971 -0.15347664044105847 -0.08453324057308514
63 0.1945543190897417 0.0705453803212808 0.9619715034077245
28 -0.19488830651866915 -0.9547361079506851 0.05170837924112401
27 -0.3661902651957444 -1.1707980040743824 -0.2900786860756743
43 0.12551995808425787 0.38224655232326754 -0.3463492829664813
41 -0.09502282441514817 -0.24744172957530342 0.39345609810277743
26 -0.20656791336703204 0.22605950573500205 0.09439809103880865
47 0.4425401202266277 0.01583463329564405 -0.013306605118160217
48 -0.5034620517169809 0.521955587979687 0.4124172693515914
79 0.5699774186614915 0.35136737276661956 -0.001956361100866782
10 -1.072096070850243 -0.5277031775072598 1.0953776905336328
78 -0.33262082009258953 -1.6555168791996608 0.409552063116842
77 -0.2353178322072792 0.1350900964887724 0.16636539501607595
37 0.7367645493899259 -0.9644904514728329 -1.225814362900599
8 -0.08299217883877698 -1.0465652171023323 -0.6177710040521412
35 -0.11913904317970102 -0.19073499325644525 0.045009865548683664
9 -1.2164112688148605 0.020147829578379545 -1.0559661658617034
6 -0.12118960285861678 0.08615311896396086 -0.230926602168365
7 0.8724107694792196 -1.66776192720503 -0.35959123650173996
52 0.019267032987309952 0.2700391488401095 -0.5814395208747727
50 -0.020379629725145065 -0.18406651600517965 -0.18121203692784937
51 -0.9613922203174882 -0.9355083360655315 -0.610663983510014
71 0.6530359669630269 0.7927177878313839 0.08646904478657026
72 -0.8076054739064927 -0.40180475210951794 -0.1597087445145758
73 -0.6450793905439727 -0.5018241998023635 -0.5827573849780123
42 1.0948668326206528 -0.4373978020437512 -0.23948360184037815
20 -0.042347622973382716 -0.25100323168641747 0.24915554160506906
22 -0.6819875356153203 0.4084862029419974 0.3425453997033939
21 1.311009257163988 -0.6594772921022093 -0.4479955113520673
59 0.08932493945256474 -0.311543122342519 -0.31533540487343725
13 -0.032945049868420354 0.49737845190253865 0.1031612599350519
60 -0.2204140587382177 -0.3563510701633251 -0.5660755240556019
11 -0.10254476916669997 0.008853931385636657 0.2261839178218265
12 -0.3616536202281516 1.0272829489387525 0.1799381656909122
61 -0.7337055750196885 -0.07909991300951252 -1.043741831552888
17 -0.16175352051119435 -0.28593769734487395 -0.04920896097182172
18 -0.09638797104225531 0.6361924513377349 0.3241391766127415
23 0.025799220221848683 0.2930293301763412 0.012135488861208184
24 -0.5682561213184283 -0.4912919362781879 1.0250762261101825
25 0.49309366660780524 -0.9844971712739654 1.1454155388897318
36 0.3486370188289728 -0.3972185204552378 0.32195034585944304
49 1.1351246246886166 -0.1227066481756172 0.7354438044905298
19 -0.10258024479672062 0.9389558191965003 -0.310579115203928

Bonds

1 1 29 30
2 1 29 31
3 1 56 57
4 1 56 58
5 1 14 15
6 1 14 16
7 1 1 2
8 1 1 3
9 1 1 4
10 1 1 5
11 1 38 39
12 1 38 40
13 1 74 75
14 1 74 76
15 1 68 69
16 1 68 70
17 1 44 45
18 1 44 46
19 1 53 54
20 1 53 55
21 1 62 63
22 1 62 64
23 1 32 33
24 1 32 34
25 1 65 66
26 1 65 67
27 1 41 42
28 1 41 43
29 1 26 27
30 1 26 28
31 1 47 48
32 1 47 49
33 1 77 78
34 1 77 79
35 1 35 36
36 1 35 37
37 1 6 7
38 1 6 8
39 1 6 9
40 1 6 10
41 1 50 51
42 1 50 52
43 1 71 72
44 1 71 73
45 1 20 21
46 1 20 22
47 1 59 60
48 1 59 61
49 1 11 12
50 1 11 13
51 1 17 18
52 1 17 19
53 1 23 24
54 1 23 25

Angles

1 1 30 29 31
2 1 57 56 58
3 1 15 14 16
4 2 2 1 3
5 2 2 1 4
6 2 2 1 5
7 2 3 1 4
8 2 3 1 5
9 2 4 1 5
10 1 39 38 40
11 1 75 74 76
12 1 69 68 70
13 1 45 44 46
14 1 54 53 55
15 1 63 62 64
16 1 33 32 34
17 1 66 65 67
18 1 42 41 43
19 1 27 26 28
20 1 48 47 49
21 1 78 77 79
22 1 36 35 37
23 2 7 6 8
24 2 7 6 9
25 2 7 6 10
26 2 8 6 9
27 2 8 6 10
28 2 9 6 10
29 1 51 50 52
30 1 72 71 73
31 1 21 20 22
32 1 60 59 61
33 1 12 11 13
34 1 18 17 19
35 1 24 23 25
