LAMMPS data file via write_data, version 29 Aug 2024, timestep = 2000001, units = lj

40 atoms
4 atom types
30 bonds
1 bond types

-1.828022 1.828022 xlo xhi
-1.828022 1.828022 ylo yhi
-1.828022 1.828022 zlo zhi

Masses

1 1
2 1
3 0.5
4 0.5

Bond Coeffs # zero

1 0

Atoms # bond

23 5 3 0.08308522666493529 -1.1018743910414206 -0.9166104256519889 1 1 0
10 2 3 1.4500641287142717 -0.07978547601193012 -1.2316180466470406 -1 0 1
21 5 1 -0.30158175154503136 -0.9301145203697312 -1.1111094300242772 1 1 0
25 5 3 -0.4651257671940293 -1.2241529185202515 -1.4180211035699812 1 1 0
39 10 4 -0.2472613744795576 -1.2747092277112164 -1.726700025949609 0 1 1
24 5 3 -0.6209869455396058 -0.8479273542500368 -0.7847268450497474 1 1 0
28 6 4 0.15958085142139086 -1.3674193531226813 -0.6528980235471261 0 0 0
22 5 3 -0.19803032667553122 -0.5340588652617821 -1.3209117666763295 1 1 0
6 2 1 1.4338670662996222 -0.3146555903722756 -1.6214560701255025 -1 0 1
30 7 4 -1.7868275173872143 -0.7680014857980245 -1.2373390185318556 1 0 0
29 7 2 -1.6513333410493556 -1.051511443370949 -0.8484130202553111 1 0 0
31 7 4 -1.5158391647114966 -1.3350214009438734 -0.45948702197876645 1 0 0
26 6 2 0.36294935563252606 -1.3779031073949548 -0.19624570241942563 0 0 0
7 2 3 1.6661062523275525 -0.7084850544903274 -1.5708268921184065 -1 0 1
15 3 3 -1.6859840857764283 -1.2595620706203954 -0.11358494949876496 0 1 0
9 2 3 0.9933087446461466 -0.41305002371626753 -1.7288194750123214 -1 0 1
38 10 2 -0.12524455199711879 -1.642796790734632 1.6137121616821333 0 1 0
13 3 3 -1.394281128526378 -1.7780050779062657 0.3479627001846862 0 1 0
14 3 3 -1.7801366678347348 -1.187053422089566 0.6299053242643464 0 1 0
12 3 3 -1.1033462630218966 -1.085598109837381 0.31916175221587356 0 1 0
18 4 3 0.6917538327575163 -1.3677413342705096 0.6412652602570135 0 1 0
11 3 1 -1.4934369992063645 -1.3280145848815041 0.29340383750260285 0 1 0
33 8 4 -1.6344867805067973 -0.01540003727758893 1.735316994837639 0 0 0
19 4 3 1.1586164350548684 -0.8998421291274914 1.0163781024820637 0 1 0
37 9 4 0.3638150257231553 -0.7022711578912745 1.3241356837832274 0 1 0
35 9 2 0.3257659815275365 -0.2091437707513435 1.3974681478655044 0 1 0
20 4 3 1.0395204625355898 -1.5995842125240096 1.2675297818574485 0 1 0
16 4 1 0.8484998707790591 -1.242276224595478 1.0595823479053514 0 1 0
17 4 3 0.4946575227553883 -1.0914932945088704 1.311891881493367 0 1 0
27 6 4 0.5663178598436612 -1.3883868616672281 0.26040661870827503 0 0 0
8 2 3 1.628899974868308 -0.06833883975585592 1.6931348248350049 -1 0 0
4 1 3 -0.7439569491560833 0.7835839643682071 1.4249032014108876 0 0 0
1 1 1 -0.31925166741285727 0.854728871902104 1.2520916688342165 0 0 0
40 10 4 -0.0032277295146799917 1.6451596462419529 1.2980803493138757 0 0 0
5 1 3 -0.3301405757103113 0.8290353348512682 0.7975355404738116 0 0 0
2 1 3 -0.1762502572848012 1.2737807283786646 1.3767758229398264 0 0 0
36 9 4 0.2877169373319177 0.2839836163885876 1.4708006119477814 0 1 0
32 8 2 -1.241193851278933 0.2931029269399521 1.747424549841173 0 0 0
34 8 4 -0.8479009220510683 0.6016058911574932 1.7595321048447068 0 0 0
3 1 3 -0.024381370177044004 0.5390449618736144 1.421488176346282 0 0 0

Velocities

23 -0.11013621472318186 -0.2196783684330349 0.025012440596589677
10 0.1509500127587236 -0.3484430695322063 0.4061392195202681
21 -0.10410221090209394 -0.18573692508777073 0.043052100564780586
25 -0.2284042869606988 -0.23719845166372594 0.15859194009983518
39 0.29165887813959207 -0.3131939681874884 0.2784282697626417
24 -0.026504142298669514 -0.014178015945618738 0.07579062915917645
28 0.22448513269247308 -0.012065927197170478 -0.0399087556803714
22 -0.047674681772270966 -0.2719160110141866 -0.09178225705654461
6 0.0271162462983864 0.09127173432914647 0.14636434655934816
30 0.13382032286219658 -0.20297777563725938 0.008670667078990616
29 0.05239769578044823 -0.21311208266239365 0.029649246225499123
31 -0.02902493130130017 -0.2232463896875279 0.050627825372007655
26 0.19777566634348534 0.22851311762931917 -0.022490611852594416
7 -0.16181047852209351 -0.07702130068084706 -0.2961189779460469
15 0.1091637190402987 0.06447735673922791 -0.13160587866464227
9 -0.023274639494259862 0.42306482026416736 0.04906425983423812
38 0.11513621311539979 -0.1929202971586658 0.06992591173517962
13 -0.05041090482352821 0.266676366685584 0.19637120576808742
14 -0.16029814128393263 0.38248101588229944 -0.19674263589882487
12 -0.049477261646259235 0.25828535179081874 0.004073096827556445
18 0.27036828464677815 0.08753775802593429 -0.28132178050242274
11 -0.03686201589825961 0.24189053073790256 -0.03268126713771753
33 0.06911464138601983 -0.34672591101708305 0.0645887880556751
19 0.08770659149091309 0.010149829776815812 0.04254786576612085
37 -0.12184786980964982 -0.07276925129441959 0.1231070026389948
35 0.12634937368889557 -0.07982485741145748 0.2993315528162681
20 -0.19323629350195196 0.02593891155447841 -0.04668459004828368
16 0.0046014816357214505 0.058223487687978574 -0.17294511387497188
17 -0.14393440901596427 0.11076197523362362 -0.41265145611404896
27 0.17106619999449757 0.46909216245580887 -0.0050724680248174885
8 0.1370458429526168 0.3753301050598818 0.41406794183482143
4 0.15692062171461074 -0.20679358659928718 0.3186265296478242
1 0.04500537314655642 -0.10434501715679684 0.08575837221372203
40 -0.061386451908792494 -0.07264662612984318 -0.1385764462922824
5 -0.21039780003579364 -0.04143355796932262 0.08832052846119526
2 0.039614950246181925 -0.09596174239516281 0.06376529060727315
36 0.374546617187441 -0.08688046352849538 0.47555610299354145
32 0.023339501534472583 -0.2839031235166596 -0.04922257401180648
34 -0.022435638317074687 -0.2210803360162361 -0.16303393607928807
3 0.19974702406121525 -0.07453556762362609 -0.1280497726381306

Bonds

1 1 21 22
2 1 21 23
3 1 21 24
4 1 21 25
5 1 6 7
6 1 6 8
7 1 6 9
8 1 6 10
9 1 29 30
10 1 29 31
11 1 26 27
12 1 26 28
13 1 38 39
14 1 38 40
15 1 11 12
16 1 11 13
17 1 11 14
18 1 11 15
19 1 35 36
20 1 35 37
21 1 16 17
22 1 16 18
23 1 16 19
24 1 16 20
25 1 1 2
26 1 1 3
27 1 1 4
28 1 1 5
29 1 32 33
30 1 32 34
