LAMMPS data file via write_data, version 4 Feb 2025, timestep = 4000000, units = lj

2000 atoms
4 atom types
1500 bonds
1 bond types
1750 angles
2 angle types

-8.346487 8.346487 xlo xhi
-8.346487 8.346487 ylo yhi
-8.346487 8.346487 zlo zhi
8.526512829121202e-14 0 0 xy xz yz

Masses

1 1
2 1
3 0.1
4 0.1

Bond Coeffs # harmonic/omp

1 100 0.45

Angle Coeffs # harmonic/omp

1 100 180
2 100 109.471

Atoms # full

977 196 3 0 -7.2045426347233334 -8.121466418987552 -7.6272664196005175 33 1 1
1702 401 4 0 -4.162209310888961 -8.301853663149478 -7.604740062262626 29 1 1
1561 354 4 0 -4.41629739050131 -8.002538899470041 -7.558827522615229 9 0 1
1560 354 2 0 -4.363963217564573 -7.554296770714834 -7.511287442258794 9 0 1
1153 231 3 0 -2.910068656757833 -7.708095376224623 -8.330576990330373 31 1 1
1151 231 1 0 -2.7987416107907457 -8.116713692989077 -8.25670056520004 31 1 1
1155 231 3 0 -2.6281200035412677 -8.155430503058941 -7.868180993208609 31 1 1
1282 261 4 0 -0.6541701144474255 -7.590732247535913 -7.649338092368286 10 0 0
1281 261 2 0 -0.4717086196364466 -7.7719172980432445 -8.020806630433325 10 0 0
1203 241 3 0 1.2747461834996354 -7.617292689432894 -8.160946318879626 51 2 2
1202 241 3 0 1.1907596029058247 -7.898642907410647 -7.470249748832814 51 2 2
1201 241 1 0 1.4442488763431847 -7.923551867323946 -7.836364003076758 51 2 2
1204 241 3 0 1.889221765858851 -7.808944081675142 -7.728357788727923 51 2 2
1655 385 4 0 2.163590435373706 -7.534185811131259 -7.630994302547831 29 1 0
1870 457 4 0 2.265622095720282 -7.901813174403881 -7.723282372856892 31 1 1
1869 457 2 0 2.4831691414549173 -8.249485356674349 -7.895713175029024 31 1 1
1536 346 2 0 3.471745278205381 -7.8759777116755 -7.7397529539365495 10 0 1
1537 346 4 0 3.591598378387703 -8.07638918945841 -8.121947654759945 10 0 1
1278 260 2 0 6.105657051076637 -7.893693880554323 -8.247132956626347 30 1 0
1280 260 4 0 6.521580067309401 -8.056914978626116 -8.121460361763628 30 1 0
1102 221 3 0 6.908653266445761 -8.120134136564866 -8.022730629570075 11 0 0
1101 221 1 0 7.3599333530280475 -8.181783621091604 -8.008292568612523 11 0 0
1105 221 3 0 7.474212067277342 -8.302429648343859 -7.59793621466578 11 0 0
1104 221 3 0 7.568817237856113 -7.78721304101053 -8.12192219182892 11 0 0
32 7 3 0 -4.435491592016255 -6.749636359718835 -7.509129407177194 11 0 0
1562 354 4 0 -4.309922797207321 -7.124331255392127 -7.465078304249881 9 0 1
1479 327 2 0 -1.823933278244315 -6.912087315709288 -7.810508477337324 10 0 0
1480 327 4 0 -1.7612504239997282 -6.701595338565394 -8.189654686296423 10 0 0
1481 327 4 0 -1.8953060208387615 -7.124853920679707 -7.426422652364019 10 0 0
1250 250 3 0 0.5022619502758658 -7.071543891625404 -7.592499338558288 11 0 1
1248 250 3 0 0.7214865183116714 -6.600186317183325 -8.125082377815712 11 0 1
1246 250 1 0 0.5704696315023341 -6.628219307201689 -7.701326977788181 11 0 1
1653 385 2 0 2.41358299902204 -7.2163124921646755 -7.501234577176971 29 1 0
358 72 3 0 6.0136888294204525 -6.56752886214239 -7.553575158231404 30 1 0
34 7 3 0 -4.519931995842395 -6.046585171097166 -7.701257678155304 11 0 0
31 7 1 0 -4.2637566278267345 -6.326841656429834 -7.480003231638429 11 0 0
33 7 3 0 -3.8417825495487605 -6.326993127381331 -7.643165176424162 11 0 0
1258 253 4 0 -3.4892905136611327 -6.156286976919225 -7.566879910388571 8 0 0
213 43 3 0 -2.3359642455893272 -5.753691459757256 -8.330318941648429 11 0 0
212 43 3 0 -1.893408093295248 -6.318170836880505 -8.240508913936338 11 0 0
1317 273 2 0 -0.4453588621960005 -6.276828600213006 -8.158813326878757 12 0 0
1247 250 3 0 0.19688531561734912 -6.4165517537974175 -7.668619479089476 11 0 1
1318 273 4 0 -0.06087284244231128 -6.276903168118622 -7.952668344514969 12 0 0
1249 250 3 0 0.8616732263957019 -6.452706621170149 -7.420829875761463 11 0 1
1391 297 4 0 2.5507201836883215 -6.251427781117035 -8.067413783439148 8 0 1
1389 297 2 0 2.51040470464846 -6.038407348031461 -7.670559842104467 8 0 1
1399 300 4 0 3.1914238335497025 -5.603481296637117 -8.173459627608382 11 0 1
1398 300 2 0 3.532104499770435 -5.896354002181004 -8.273274892510273 11 0 1
357 72 3 0 5.673994292502973 -5.952743121667375 -7.793076557466449 30 1 0
1961 487 4 0 5.431570505160005 -5.675628146316516 -7.92733308753297 30 1 1
1959 487 2 0 5.201781629610069 -5.624888856914472 -8.303957701774534 30 1 1
356 72 1 0 5.8001262497557295 -6.1789319323178935 -7.424513754067827 30 1 0
1699 400 4 0 8.305262347386194 -5.818960633607146 -8.188482989783674 29 1 0
244 49 3 0 8.117993482541053 -5.675714370916649 -7.87233334231885 10 0 1
657 132 3 0 -2.900523500369996 -5.163929160325894 -7.962670223664607 28 1 0
656 132 1 0 -2.596591697003662 -4.89252744597656 -8.189358206402083 28 1 0
660 132 3 0 -2.2255202947825765 -4.8377207893803895 -7.938819205152291 28 1 0
1577 359 4 0 -1.9063836907175924 -5.0883153653439 -7.874995172643172 10 0 1
1575 359 2 0 -1.6933547890445722 -5.31511667285196 -7.537410476866141 10 0 1
804 161 3 0 -0.5078415213711622 -4.831445250295385 -8.02860627523252 30 1 0
1790 430 4 0 -0.21955502993721154 -5.106775361377552 -8.138443920582901 31 1 1
1509 337 2 0 1.7781666505092932 -5.000787803740528 -7.795299827263089 11 0 1
1511 337 4 0 1.474046499692351 -5.006294596278996 -7.463225260238627 11 0 1
1510 337 4 0 2.076332141876547 -5.005801731216666 -8.10273192516825 11 0 1
530 106 3 0 4.615350806360354 -4.861316730277428 -7.859102768103741 14 0 1
1330 277 4 0 7.926546021205379 -4.762161222868233 -7.8780028473331365 9 0 0
242 49 3 0 7.947346886741148 -5.009935812186277 -7.5637111479485934 10 0 1
241 49 1 0 8.041196207442692 -5.440885378056905 -7.471525391900016 10 0 1
983 197 3 0 -6.898238858263611 -4.356015160528996 -7.527053962816599 11 0 1
1382 294 4 0 -5.815834112030888 -4.606544450748673 -7.543314715680585 10 0 0
982 197 3 0 -6.220534331439923 -4.627363610625579 -7.596664057573241 11 0 1
1380 294 2 0 -5.383842124698061 -4.619190477273222 -7.637511881583669 10 0 0
1381 294 4 0 -4.961442221003785 -4.620697547051178 -7.731221290349183 10 0 0
1000 200 3 0 -4.05305324783856 -4.477598789301764 -7.799325077427829 13 0 0
999 200 3 0 -4.721409955035255 -4.35013303535424 -7.566522805443783 13 0 0
996 200 1 0 -4.298423376955865 -4.420955136724242 -7.448872820485447 13 0 0
659 132 3 0 -2.8032112102603026 -4.449515964942378 -8.25844398434177 28 1 0
803 161 3 0 -1.0964716548025866 -4.403463261079626 -7.879591826613099 30 1 0
801 161 1 0 -0.6504798695856477 -4.471500550284734 -7.803194434852348 30 1 0
802 161 3 0 -0.4103085357556795 -4.099018664080028 -7.949919920554129 30 1 0
1738 413 4 0 -0.18947108681479818 -3.7766187532562974 -7.982710045194362 31 1 0
1923 475 2 0 1.0948751550832192 -3.96103984342702 -7.839966538107508 29 1 1
1925 475 4 0 1.2041261043183464 -4.357433779235193 -8.072261191103024 29 1 1
277 56 3 0 2.762206381442292 -4.028292440820045 -7.897205036941039 13 0 0
1450 317 4 0 2.734422797045731 -4.053773649811432 -8.310399479966213 10 0 0
276 56 1 0 3.13058199518869 -4.100654907066581 -7.635144570168864 13 0 0
278 56 3 0 3.2357246546542964 -4.531272442992159 -7.660054276848637 13 0 0
279 56 3 0 3.461595669988906 -3.847928559475651 -7.778397963403465 13 0 0
526 106 1 0 4.798644759297165 -4.445407840806342 -7.722265418431528 14 0 1
527 106 3 0 4.668437420812879 -4.114986132496705 -8.029783075464573 14 0 1
1984 495 4 0 4.395914870640963 -3.893293425480665 -8.201228547708787 12 0 1
528 106 3 0 5.240751744490607 -4.473875269452915 -7.712151363442334 14 0 1
1329 277 2 0 7.9503216032026245 -4.333004772231804 -8.005636311543464 9 0 0
1331 277 4 0 7.963452202613368 -3.9319740309136426 -8.121176921971003 9 0 0
1057 212 3 0 -0.8661420906306327 -3.182443486789257 -8.344624414561258 13 0 1
1737 413 2 0 0.12883572621666417 -3.4728758904327135 -8.01359836546004 31 1 0
1739 413 4 0 0.4788404205412711 -3.120470853051735 -8.03696040170712 31 1 0
1924 475 4 0 0.9997600754789673 -3.592949276477321 -7.623111404735048 29 1 1
1001 201 1 0 0.9541420929206552 -2.8786315142958134 -7.666116652600828 29 1 1
1002 201 3 0 0.8345962320457279 -2.9760043923236053 -8.114825286601624 29 1 1
1711 404 4 0 1.6473968424845076 -2.790710667716466 -7.92007679751071 31 1 0
1765 422 4 0 3.4632717348426176 -3.465827160962995 -7.923366508920742 14 0 1
1764 422 2 0 3.5262466345325905 -3.2024437608544583 -8.2799302077177 14 0 1
853 171 3 0 7.451265558967799 -3.011904209753789 -7.923905277218817 14 0 0
852 171 3 0 8.178879744340474 -2.8939128070514304 -8.039672573540287 14 0 0
851 171 1 0 7.882811765670368 -3.131067197634219 -7.811877791666637 14 0 0
854 171 3 0 7.943774793527108 -3.5853538378764434 -7.899501714659785 14 0 0
1058 212 3 0 -1.0612259944973568 -2.5396919719061373 -8.01550753878749 13 0 1
1294 265 4 0 -0.22706964136604846 -2.350892023299499 -8.31480461410569 12 0 0
1293 265 2 0 0.08468084390181119 -2.3104337697264974 -7.957323550181524 12 0 0
1295 265 4 0 0.38270666849413537 -2.2637895611532546 -7.626131392153998 12 0 0
1005 201 3 0 0.6728975462037283 -2.526723544406628 -7.4974162490961875 29 1 1
1004 201 3 0 1.373491101899793 -2.7474948585010086 -7.649979129105053 29 1 1
1643 381 4 0 1.6785718817622008 -2.469668999338043 -7.668323181340447 29 1 0
1641 381 2 0 1.9918135226885099 -2.2038245090520316 -7.522159637786071 29 1 0
429 86 3 0 3.381456262741155 -2.0339147345581408 -7.521650153337182 12 0 1
1324 275 4 0 3.7536164402294503 -2.0751893165851847 -7.668241769072294 12 0 0
1323 275 2 0 4.18440381869568 -2.0540300490608097 -7.53623049348993 12 0 0
772 155 3 0 8.258873610270332 -2.4810943005927113 -7.6542000643120005 34 1 0
774 155 3 0 8.278281293073498 -1.9367133258243188 -8.148694690805254 34 1 0
771 155 1 0 8.200315448750924 -2.0222654691807076 -7.726071377477056 34 1 0
775 155 3 0 7.799465165836438 -1.8998191109433407 -7.618503502597431 34 1 0
773 155 3 0 -8.201823706408044 -1.7928436115673847 -7.473937705641333 35 1 0
838 168 3 0 -1.4697709632374663 -1.0502370255655915 -8.292622090766896 14 0 0
836 168 1 0 -1.375944196300603 -1.1943141694195276 -7.889780340829696 14 0 0
839 168 3 0 -1.765457525101513 -1.206078151579062 -7.626481758165909 14 0 0
837 168 3 0 -1.201055541475621 -1.600439672868089 -7.919016996761078 14 0 0
428 86 3 0 2.9841267904006497 -1.40542073128268 -7.639652668210261 12 0 1
840 168 3 0 -1.0806542889085122 -0.902151585924627 -7.699797421506995 14 0 0
980 196 3 0 -7.007049282861036 -7.937636043100885 -6.949155616541508 33 1 1
976 196 1 0 -7.183097875780759 -8.262476033363237 -7.211257427383584 33 1 1
540 108 3 0 -1.33414036515566 -8.08267150902703 -7.320439874688236 11 0 1
539 108 3 0 -1.2123846776863996 -7.662486598387414 -6.714365178683907 11 0 1
536 108 1 0 -1.2668858625800024 -7.64990846663947 -7.166814261558098 11 0 1
538 108 3 0 -0.8953355529643554 -7.4650099567330646 -7.350761047341862 11 0 1
1520 340 4 0 -0.5532593507998849 -7.667645354210361 -7.257880511711091 11 0 1
1518 340 2 0 -0.2169974500357288 -7.826122183216301 -6.94663163195275 11 0 1
1519 340 4 0 0.1052755620591217 -7.982308368452539 -6.655494598518239 11 0 1
1230 246 3 0 0.4277997998793719 -8.208936136056149 -6.579146697892604 33 1 1
1227 246 3 0 0.8058545724878989 -8.051910955848069 -7.20788971597086 33 1 1
1226 246 1 0 0.8196895601083245 -8.285138525400482 -6.821474241997796 33 1 1
1229 246 3 0 1.1644054067877274 -8.150630527137627 -6.582564117259447 33 1 1
1538 346 4 0 3.355758872269119 -7.6797871346325834 -7.357732272043958 10 0 1
1365 289 2 0 3.39831053763435 -7.965070538389359 -6.532626361704555 32 1 0
1367 289 4 0 3.4340296720580277 -7.7451525790136015 -6.976351252006149 32 1 0
537 108 3 0 -1.6234079741619842 -7.391387690122052 -7.2707382076384635 11 0 1
1142 229 3 0 -1.7007855800211553 -6.534438010210077 -7.095532510844895 28 1 1
1654 385 4 0 2.680414329469425 -6.883262668962924 -7.3688278459431045 29 1 0
965 193 3 0 3.095018344599074 -6.792894163927144 -7.372458029185499 30 1 0
961 193 1 0 3.395127146165528 -6.969380212275581 -7.1153835727380095 30 1 0
963 193 3 0 3.3393962950078873 -7.378866249131724 -7.123011933943824 30 1 0
962 193 3 0 3.8252388160975297 -6.855083371046402 -7.278564152304268 30 1 0
964 193 3 0 3.344863739102797 -6.828312905395951 -6.694394406336835 30 1 0
1658 386 4 0 4.164903480438898 -6.630889911725874 -7.264358495723686 30 1 0
35 7 3 0 -4.254331753973744 -6.204586343378358 -7.053029684033262 11 0 0
1257 253 2 0 -3.073624081471099 -6.227770444470549 -7.383801594227686 8 0 0
1259 253 4 0 -2.6795103682340606 -6.299448130232657 -7.207617653980403 8 0 0
1144 229 3 0 -2.3827852589618805 -6.215395617123516 -6.971007146400843 28 1 1
1141 229 1 0 -1.9137015528787096 -6.193195422192814 -6.88817680360567 28 1 1
1143 229 3 0 -1.7546191041856813 -5.789769809493965 -7.0507997160442075 28 1 1
1678 393 4 0 0.8642906016641678 -6.247373508260214 -7.045273660787696 10 0 0
1677 393 2 0 1.2595935190953114 -6.204713621934146 -6.838644945433301 10 0 0
1679 393 4 0 1.663126698910805 -6.1602110410242235 -6.627370070384805 10 0 0
607 122 3 0 1.9779424340610774 -5.959661964992773 -6.721903846617658 8 0 1
1390 297 4 0 2.4573121516743264 -5.827357246836922 -7.258200218892563 8 0 1
1656 386 2 0 4.593324020547511 -6.449623830957428 -7.248393510820015 30 1 0
1657 386 4 0 5.011550397770016 -6.266152229581081 -7.228711422601265 30 1 0
360 72 3 0 5.424348041359876 -6.28685644892897 -7.174321541714589 30 1 0
1943 481 4 0 6.492135238134058 -6.024908609225996 -7.218662361118238 29 1 1
359 72 3 0 6.078521994515167 -5.935750820344354 -7.174031952526794 30 1 0
1942 481 4 0 7.306657794253152 -5.6118210684603635 -7.159114890995231 29 1 1
1941 481 2 0 6.908069656567173 -5.818245045721225 -7.187861293480927 29 1 1
243 49 3 0 7.702479115391888 -5.626600945551473 -7.259253588928582 10 0 1
1334 278 4 0 -7.971888912542491 -5.28847077988284 -6.976423349226764 12 0 0
1332 278 2 0 -7.505703483972516 -5.230386054286485 -6.998866444562943 12 0 0
245 49 3 0 -8.267366056326924 -5.470215619374377 -7.194691482897113 11 0 1
1333 278 4 0 -7.069478786847354 -5.17708984737636 -7.011635958547925 12 0 0
984 197 3 0 -6.746504931772346 -4.991267606407064 -7.2145897801112255 11 0 1
998 200 3 0 -4.28565883584733 -4.795410194462044 -7.1842568710647114 13 0 0
1576 359 4 0 -1.4904042076106476 -5.528626737922261 -7.218995916831934 10 0 1
1805 435 4 0 -0.34865058346432054 -4.662156196892537 -7.083097025743847 28 1 0
574 115 3 0 1.1939852473525345 -4.903865168247206 -7.195345437340797 11 0 1
573 115 3 0 1.4340825179371617 -4.733996927748942 -6.514952295096187 11 0 1
606 122 1 0 2.0871453878278174 -5.5024082713382025 -6.780300651745184 8 0 1
608 122 3 0 1.7346937163136733 -5.2819734441040005 -6.874042181967541 8 0 1
610 122 3 0 2.3383216447568955 -5.478435160582241 -7.073933833353258 8 0 1
1601 367 4 0 2.676251493652636 -5.528424102043908 -7.3296084186511825 8 0 1
1599 367 2 0 2.9107733720898015 -5.0839726744875104 -7.324947191038411 8 0 1
1600 367 4 0 3.1303881017175588 -4.668946947177618 -7.318137842889375 8 0 1
480 96 3 0 -7.720382483981328 -4.5998517279245155 -7.2105171646794615 16 0 1
476 96 1 0 -7.876492047711843 -4.191675639888069 -7.05464304325207 16 0 1
478 96 3 0 -8.038285159094292 -3.9534944974645043 -7.39197829753445 16 0 1
479 96 3 0 -7.531459002993953 -3.9599374452619323 -6.843352972755339 16 0 1
477 96 3 0 -8.219332594341415 -4.262388075195966 -6.7530774705456 16 0 1
981 197 1 0 -6.589436161509472 -4.581223670525565 -7.323072029982246 11 0 1
985 197 3 0 -6.465176886592584 -4.369383569107142 -6.943029991968698 11 0 1
1311 271 2 0 -5.399984635460761 -4.093283265646338 -6.601535943823815 14 0 0
1313 271 4 0 -5.090208798008133 -4.263406472776889 -6.835653883329559 14 0 0
997 200 3 0 -4.135953785569389 -4.036041352520591 -7.202317887707329 13 0 0
1735 412 4 0 -3.927532953780326 -3.774537219493671 -6.979824820381902 32 1 0
805 161 3 0 -0.5829061664362012 -4.521504572318994 -7.3877184507935 30 1 0
1803 435 2 0 0.06234782355128132 -4.475146651498632 -6.964776717902171 28 1 0
571 115 1 0 1.218316159724866 -4.5750252095438615 -6.866007126601446 11 0 1
1804 435 4 0 0.4810351324336448 -4.298328991670556 -6.839987140096461 28 1 0
572 115 3 0 0.8359160131425387 -4.443390295907655 -6.771577892536133 11 0 1
575 115 3 0 1.4561819255140236 -4.215557276675856 -7.026951950207951 11 0 1
1706 402 4 0 1.8064483273645475 -4.253518293774349 -6.843237511142024 31 1 0
1704 402 2 0 2.2488857290767985 -4.138140684356648 -6.919776324798297 31 1 0
1705 402 4 0 2.6904963969921454 -4.023455182340596 -6.991547506153412 31 1 0
280 56 3 0 3.0257837003909067 -3.992495210740774 -7.20588734444797 13 0 0
529 106 3 0 4.634232777547059 -4.342921124645577 -7.291358407343376 14 0 1
1723 408 4 0 -7.6529357884980485 -3.705025836474517 -6.546439125987584 30 1 0
1734 412 2 0 -3.642691211550434 -3.4394488149845364 -6.782979583253995 32 1 0
1736 412 4 0 -3.3633076621613407 -3.1227233266405134 -6.594868541494028 32 1 0
389 78 3 0 -3.108609547251799 -2.808858479657607 -6.57935035562353 11 0 0
390 78 3 0 -2.559714963359263 -3.1747340083050384 -6.846468140445244 11 0 0
386 78 1 0 -2.677236554990566 -2.821050984098462 -6.616846230330674 11 0 0
1003 201 3 0 0.9015087261714445 -3.2730560295626914 -7.397704561873058 29 1 1
1307 269 4 0 7.295179901262236 -3.6416962065994474 -6.511919608308221 14 0 0
855 171 3 0 7.940801282241797 -3.0657275179210757 -7.383040247679393 14 0 0
1305 269 2 0 7.582342981233266 -3.4166408040695666 -6.758340390634391 14 0 0
1306 269 4 0 7.858955351227863 -3.209780130520331 -6.998647681782452 14 0 0
387 78 3 0 -2.5259765385975834 -2.4679117207743566 -6.819949617786969 11 0 0
1349 283 4 0 -2.364531074621655 -2.1021304343686804 -6.954808269378127 15 0 0
1642 381 4 0 2.330404365042508 -1.9174221027695104 -7.373493034567698 29 1 0
430 86 3 0 2.7095944966340184 -1.9508934909139493 -7.20063662825078 12 0 1
1325 275 4 0 4.633417867062882 -2.031834700361859 -7.404841214704329 12 0 0
1347 283 2 0 -2.080329837096407 -1.7836648065937855 -7.163969499758171 15 0 0
1348 283 4 0 -1.807914108005467 -1.5095611734662855 -7.3613304921633365 15 0 0
426 86 1 0 3.096388650314415 -1.7340209858434168 -7.329067247509342 12 0 1
427 86 3 0 3.292046810837414 -1.5702623110235185 -6.987184577439957 12 0 1
1285 262 4 0 3.4726317872890125 -1.2283779038568259 -7.115648104071665 13 0 0
1284 262 2 0 3.9246497921076298 -1.053263227133015 -7.1106959699765975 13 0 0
452 91 3 0 4.7714218259844685 -1.018298170294444 -7.026332813159225 16 0 1
453 91 3 0 4.85852894281104 -1.7440660591352941 -7.234139122196353 16 0 1
451 91 1 0 4.986468202901396 -1.4376136060547902 -6.931452294627864 16 0 1
455 91 3 0 4.868771266189233 -1.565098207297976 -6.522206371717204 16 0 1
454 91 3 0 5.438945265158395 -1.395051560326272 -6.950742234529573 16 0 1
1824 442 2 0 7.340468558652152 -1.5704880930997698 -7.120091662701853 13 0 0
778 156 3 0 6.936568340383442 -1.6036116411641679 -6.5977936198096385 34 1 0
1825 442 4 0 6.903602185426946 -1.4851598428220143 -6.9639235645657385 13 0 0
1826 442 4 0 7.763798306038211 -1.6574248104107685 -7.279952864174696 13 0 0
1286 262 4 0 4.378886244882148 -0.8892937347994039 -7.094122424552366 13 0 0
1366 289 4 0 3.380628743520896 -8.183417168496584 -6.107878997055326 32 1 0
1314 272 2 0 2.7552544736260884 -6.552570209387744 -6.191709630590398 10 0 0
1316 272 4 0 3.150593674573619 -6.677598075010606 -6.356994554023743 10 0 0
1145 229 3 0 -1.8300456876666384 -6.214087962366976 -6.429042614921681 28 1 1
520 104 3 0 0.035701843802019795 -6.44006035249674 -5.6340681382834035 8 0 1
1274 258 4 0 0.2613994236598476 -6.43773818840534 -5.9665424396835185 11 0 0
1272 258 2 0 0.6156048360835769 -6.192145090420658 -5.808967784151891 11 0 0
1273 258 4 0 0.9633884017580545 -5.958006627983805 -5.649649600630221 11 0 0
755 151 3 0 1.274912080073074 -6.158870731295174 -5.770749912089101 12 0 0
751 151 1 0 1.6890137482157002 -6.3563692625477 -5.637570030499537 12 0 0
753 151 3 0 1.975338073443229 -6.3713457945318455 -6.008056854678579 12 0 0
1315 272 4 0 2.356447605026359 -6.419277658212968 -6.027747176618749 10 0 0
1288 263 4 0 1.7080497093865823 -4.8072102119422535 -6.239611582788282 12 0 0
1287 263 2 0 1.9489561186680735 -4.692262569313108 -5.886020336088693 12 0 0
609 122 3 0 2.2774520213733407 -5.352785913978789 -6.410873119637659 8 0 1
1501 334 4 0 2.6002857144841744 -5.410599634807083 -6.1742276813560775 9 0 1
1500 334 2 0 2.8444996817175614 -5.480918079493955 -5.8159839128604265 9 0 1
733 147 3 0 -6.069285397545597 -3.709698908511081 -6.179025089948624 11 0 0
1312 271 4 0 -5.749642546856494 -3.9025507178153918 -6.340585811965421 14 0 0
732 147 3 0 -6.309221015859739 -4.033940600749532 -5.59408358911333 11 0 0
1133 227 3 0 4.6790548254904145 -4.241789398591675 -5.711195507161366 28 1 1
1131 227 1 0 4.957635167974514 -3.9135323354912046 -5.6066918820238865 28 1 1
1135 227 3 0 5.306952068465218 -3.9154812305462894 -5.882549188559225 28 1 1
1669 390 4 0 5.605165971789608 -4.078504607907631 -6.113725602501157 28 1 0
1668 390 2 0 5.983547971978574 -4.219570174077499 -5.953290669609987 28 1 0
1670 390 4 0 6.383338394515539 -4.36785460329019 -5.782697788488714 28 1 0
687 138 3 0 6.575929206542627 -4.00378180217005 -5.7423585367926115 12 0 0
690 138 3 0 7.27095279850176 -4.136324151469211 -5.7013221785527275 12 0 0
686 138 1 0 6.987129844225835 -3.8423268188403767 -5.795650458724455 12 0 0
688 138 3 0 7.035170273959864 -3.7215603624991687 -6.22103441524556 12 0 0
1892 464 4 0 8.219269352522122 -4.28444857131966 -6.434821394598803 16 0 1
1891 464 4 0 7.55560275670409 -4.355896584463668 -5.832386298538316 16 0 1
1890 464 2 0 7.903100667230529 -4.314630445707069 -6.149488917560327 16 0 1
1722 408 2 0 -7.255829261507363 -3.6284287926653933 -6.35953761570947 30 1 0
1724 408 4 0 -6.835458441344909 -3.5496755157641573 -6.1609277969633105 30 1 0
734 147 3 0 -6.639610909148715 -3.446279028106872 -5.820948054046293 11 0 0
731 147 1 0 -6.2507043311842825 -3.650775381688417 -5.776114325136216 11 0 0
388 78 3 0 -2.487622855336763 -2.8432239721275607 -6.189781861262778 11 0 0
1417 306 4 0 -1.4832013921770768 -2.8047309912954432 -5.604155366299435 13 0 0
1134 227 3 0 4.721918331956584 -3.504620764625879 -5.656936851201772 28 1 1
40 8 3 0 -3.2200425357109843 -2.12230720459935 -5.6651880900419895 11 0 0
1418 306 4 0 -2.1928265046028192 -2.6018270893760223 -6.137822799540796 13 0 0
1416 306 2 0 -1.846269596440128 -2.7022331594894364 -5.886439191884643 13 0 0
779 156 3 0 6.705972877076617 -2.0878326077144784 -6.05707891725837 34 1 0
36 8 1 0 -3.3732276999056507 -1.7154347532068286 -5.7549424770558115 11 0 0
37 8 3 0 -3.4981245039565882 -1.6962541758543512 -6.205803093077772 11 0 0
38 8 3 0 -3.0460920015306687 -1.3917092512728333 -5.663478146091923 11 0 0
1846 449 4 0 -2.7502858051689145 -1.3313840361655656 -5.923238604326077 14 0 0
1845 449 2 0 -2.301255701844216 -1.2738021420776828 -5.939398802430757 14 0 0
1847 449 4 0 -1.8442824169458456 -1.2134647168115347 -5.938871429012014 14 0 0
5 1 3 0 -1.5457872077541213 -0.9824754728276277 -6.062159369751721 15 0 0
780 156 3 0 6.372725583320657 -1.398561945365417 -6.169086900240435 34 1 0
776 156 1 0 6.7786450407344 -1.6313699976880818 -6.178573175133657 34 1 0
777 156 3 0 7.0783613095576605 -1.4348311534244802 -5.880609529290334 34 1 0
1781 427 4 0 7.434977795050768 -1.4805996968301205 -6.047692243378167 14 0 0
1779 427 2 0 7.8548735467649315 -1.228827177953276 -6.015387211008521 14 0 0
1780 427 4 0 8.242000500282142 -0.9926886634520153 -5.982013818632026 14 0 0
1018 204 3 0 -7.745187793384094 -0.7890586142416183 -6.377028176820562 16 0 0
1016 204 1 0 -7.834484671989007 -0.5930265315886976 -6.00788174389933 16 0 0
1017 204 3 0 -7.9808857344199104 -0.18036882445341718 -6.087111468832234 16 0 0
1019 204 3 0 -7.470442372577291 -0.5656664629364929 -5.776525516700765 16 0 0
1020 204 3 0 -8.15176680114607 -0.8291731353635221 -5.77866831525613 16 0 0
2 1 3 0 -1.3266445837534988 -0.3737147423059124 -5.819272979764254 15 0 0
1 1 1 0 -1.2458080864557282 -0.7847380524945509 -5.821830303883934 15 0 0
1360 287 4 0 -0.4897151442201819 -0.924997487810435 -5.855512087786044 13 0 0
3 1 3 0 -0.8518178901353579 -0.8452043988829727 -6.004666593115436 15 0 0
547 110 3 0 -5.3994312089840975 -8.13694698576224 -4.836695608653352 12 0 1
1396 299 4 0 -1.9112700918972543 -7.644243688596642 -4.7272749446641615 13 0 0
872 175 3 0 -0.9933715501697007 -7.743887438552883 -5.162764847160219 27 1 0
474 95 3 0 2.85944823674269 -7.850178111026895 -5.452973345630744 33 1 1
471 95 1 0 3.0125795309040058 -8.29812478081197 -5.428426903953927 33 1 1
874 175 3 0 -1.6038654586774923 -7.389056169996167 -4.847005952034736 27 1 0
871 175 1 0 -1.1536585155990489 -7.338583216235328 -4.984322168841376 27 1 0
873 175 3 0 -1.1300732249110172 -7.01223473565886 -5.308012201034701 27 1 0
519 104 3 0 -0.6220038417894589 -6.67252082003047 -5.400622434199793 8 0 1
518 104 3 0 -0.03666129182987987 -7.103059299225821 -5.33043508308665 8 0 1
516 104 1 0 -0.1865304127905727 -6.6836045074128165 -5.325726883789002 8 0 1
517 104 3 0 -0.11298742786869376 -6.523138772280384 -4.956786563711352 8 0 1
1343 281 4 0 0.21662082947896977 -6.493557261786495 -4.7401127638399245 11 0 0
754 151 3 0 1.620147541134088 -6.77866836581013 -5.476322965508997 12 0 0
1277 259 4 0 1.9126202694879364 -5.80265211938434 -5.044991156991801 11 0 0
752 151 3 0 1.8752206874878272 -6.105647991516034 -5.303948924022497 12 0 0
1275 259 2 0 1.744149433514222 -5.838682958221423 -4.642619185281746 11 0 0
725 145 3 0 1.8256466085412981 -4.998289868966413 -4.737484996935727 32 1 0
721 145 1 0 2.1461088255278575 -4.691311273337213 -4.810005203934608 32 1 0
723 145 3 0 2.515630804743912 -4.887085084388893 -4.855861368085956 32 1 0
1502 334 4 0 3.0942981403405945 -5.5611951800155826 -5.451275378496796 9 0 1
64 13 3 0 -4.265028765409962 -3.7791153763778507 -5.014520650425505 16 0 -1
1289 263 4 0 2.1910027569034938 -4.570819175255291 -5.526096247626453 12 0 0
722 145 3 0 2.0549349262096506 -4.468028793254696 -5.185557541598458 32 1 0
1132 227 3 0 5.102370930548863 -3.963598835420214 -5.1752486872959 28 1 1
301 61 1 0 -8.184025882792497 -3.1347401719133154 -4.65831944797827 13 0 0
302 61 3 0 -7.997351171800115 -3.535962506345486 -4.723517178723023 13 0 0
304 61 3 0 -7.883638555557041 -2.806066473473856 -4.771362738973267 13 0 0
735 147 3 0 -5.971630329341669 -3.3916338231813707 -5.5327504751822785 11 0 0
1873 458 4 0 -5.864143134989284 -3.5186886868819682 -5.158526429863886 13 0 0
1874 458 4 0 -5.038792740034346 -3.62619964237264 -4.806755565068583 13 0 0
1872 458 2 0 -5.457499838646232 -3.5761025113132714 -4.9877920815626675 13 0 0
1741 414 4 0 -3.820451531934654 -3.196773184461847 -4.727173414634517 13 0 0
407 82 3 0 -1.357145694567163 -2.811187072429118 -4.888616273778917 14 0 0
689 138 3 0 7.04553507243566 -3.458660206729717 -5.511620970787334 12 0 0
305 61 3 0 8.141178881182768 -3.100350306646223 -4.911585655234393 12 0 0
409 82 3 0 -1.388033554661738 -2.428080800841715 -5.508510010683477 14 0 0
410 82 3 0 -1.3655883926000154 -2.0792729022794596 -4.843289021971049 14 0 0
406 82 1 0 -1.2128815197392333 -2.441823831568416 -5.082825257964065 14 0 0
408 82 3 0 -0.7530829174794889 -2.4346414097829516 -5.096812864986081 14 0 0
39 8 3 0 -3.72413793416547 -1.6314680591183928 -5.502485916139956 11 0 0
1458 320 2 0 -1.3681970873041456 -1.3747554581280035 -4.900723988768291 15 0 0
1460 320 4 0 -1.5718014500963386 -1.7470962771240153 -4.746937227725001 15 0 0
1459 320 4 0 -1.1758559575723089 -1.005018265517653 -5.048942790571817 15 0 0
4 1 3 0 -1.2446697374707005 -0.9287142081595698 -5.431462325642962 15 0 0
1359 287 2 0 -0.1560852616283679 -0.9443481337571438 -5.5428936944801945 13 0 0
1361 287 4 0 0.17465890417642171 -0.9680377510141849 -5.235026534937388 13 0 0
49 10 3 0 1.2266511723971867 -1.2861476550037665 -4.976161398383147 15 0 0
50 10 3 0 0.5840856660210729 -0.9723840999798181 -5.173189581960155 15 0 0
48 10 3 0 1.2111925559512873 -0.80841217090921 -5.516803281185751 15 0 0
46 10 1 0 1.0328981277603315 -0.9062424645437996 -5.127276486953448 15 0 0
47 10 3 0 1.118641852336772 -0.5351621237521567 -4.819750563565674 15 0 0
1397 299 4 0 -2.3563537816146694 -7.5981884570223945 -3.9046813335133708 13 0 0
1395 299 2 0 -2.135798802964172 -7.624333092761221 -4.30638975330327 13 0 0
1640 380 4 0 -0.03744185098913633 -7.734411678513401 -3.9421333693834715 9 0 0
1012 203 3 0 0.36265678318979866 -7.839697429240311 -3.81435689445171 28 1 0
1638 380 2 0 -0.2849236033620617 -7.569838203898667 -4.2835454731509115 9 0 0
1011 203 1 0 0.7801923276500702 -7.741451550819954 -3.904636046905553 28 1 0
1013 203 3 0 0.9574789747627985 -8.074005100374867 -4.180586367937614 28 1 0
1604 368 4 0 1.2792903915236327 -8.18404045632396 -4.4183114121980545 10 0 1
1602 368 2 0 1.6742440489663952 -8.308439003041213 -4.413763755414044 10 0 1
1667 389 4 0 4.120202922977903 -8.314227263365288 -3.8090345405430854 33 1 0
807 162 3 0 4.7341339036795915 -7.7540326755582445 -3.8322834962552736 30 1 0
806 162 1 0 4.7843765882668485 -8.176613661230162 -3.7298398492018414 30 1 0
809 162 3 0 5.1842752741805 -8.307807616375616 -3.8285426636835975 30 1 0
875 175 3 0 -0.9047765166995854 -7.214899542920354 -4.620657491035956 27 1 0
1639 380 4 0 -0.5386217882008859 -7.3938741159621095 -4.6163500498252334 9 0 0
1341 281 2 0 0.4957078650897131 -6.685958644494974 -4.468692726707131 11 0 0
1342 281 4 0 0.7650239954731681 -6.868856463165361 -4.208239531238147 11 0 0
1014 203 3 0 0.8075985205631291 -7.291498448648283 -4.128253661448248 28 1 0
1507 336 4 0 0.9862729667027761 -6.977219614367483 -3.92612163216414 8 0 1
335 67 3 0 3.1089607319410426 -7.054781810589194 -4.065851034076697 11 0 0
331 67 1 0 3.223594423485409 -6.68824036384992 -3.8042267759615305 11 0 0
1097 220 3 0 1.7359633673138575 -5.744306026224875 -3.8834634654291866 10 0 1
1276 259 4 0 1.5904299225477168 -5.874606529681692 -4.231187022451077 11 0 0
332 67 3 0 3.263232012354491 -6.33014503699519 -4.052264141274866 11 0 0
580 116 3 0 -6.184635986980222 -5.034856109434627 -3.8512188932069655 14 0 0
1358 286 4 0 -5.093411499234328 -4.834165269622325 -3.9798803448506774 15 0 0