LAMMPS data file via write_data, version 29 Aug 2024, timestep = 9000000, units = lj

1530 atoms
4 atom types
1030 bonds
1 bond types
575 angles
2 angle types

-6.58545 6.58545 xlo xhi
-6.58545 6.58545 ylo yhi
-6.58545 6.58545 zlo zhi

Masses

1 1
2 1
3 1
4 1

Bond Coeffs # harmonic/omp

1 100 0.5

Angle Coeffs # harmonic/omp

1 100 180
2 100 109.471

Atoms # full

528 166 4 0 -5.4304402404192 -5.749712403954554 -5.498468080761127 0 1 0
526 166 2 0 -5.4482104199358865 -5.518491252822212 -5.934864137523232 0 1 0
527 166 4 0 -5.475206253480367 -5.280806565105795 -6.354211044142047 0 1 0
567 179 4 0 -5.246624863472914 -5.874754785203289 -5.1509742060192005 0 1 0
98 23 4 0 -5.631650865520087 -5.87401869772678 -5.187183908785216 0 0 0
97 23 2 0 -6.1173233426168405 -6.034365214103808 -5.23848055018629 0 0 0
971 314 4 0 -5.701920192878406 -4.975632812884332 -6.451365344608809 1 0 1
904 292 2 0 -1.1796493280078206 -5.293767482878828 -5.98543775803378 0 0 0
906 292 4 0 -1.1727451556563535 -5.389007285293056 -5.503993197214742 0 0 0
8 2 3 0 -0.9789290946598418 -5.743280545206134 -5.455165808489984 0 0 0
6 2 1 0 -0.949855042379193 -6.247452876975719 -5.271554194276587 0 0 0
9 2 3 0 -0.5093835436022509 -6.399620380123077 -5.313719912684797 0 0 0
10 2 3 0 -1.2554303236606545 -6.548450893354471 -5.550397560738795 0 0 0
930 300 4 0 -0.9141462815754908 -5.440731294692368 -5.193041917301729 0 0 0
905 292 4 0 -1.1840924148593042 -5.200115698574451 -6.450236458392197 0 0 0
928 300 2 0 -0.6517683436687793 -5.117054521804272 -4.8872112948978454 0 0 0
18 4 3 0 -5.341423403029047 -4.891107896199259 -6.346436089361176 0 0 0
970 314 2 0 -6.195387230403378 -4.869770629501478 -6.493592763316846 1 0 1
17 4 3 0 -5.2367525118671585 -4.318774177565072 -5.734877838876331 0 0 0
16 4 1 0 -5.011305081761824 -4.552549174967301 -6.11756569703609 0 0 0
85 19 2 0 -5.0510619388553435 -3.448789218976372 -6.046166470277472 0 0 0
19 4 3 0 -4.853705503056277 -4.207684624930616 -6.456806082550954 0 0 0
20 4 3 0 -4.621615377153799 -4.803369114531718 -5.942743106838099 0 0 0
87 19 4 0 -4.8725328607777545 -3.8695965766754865 -6.249724506503117 0 0 0
243 71 4 0 -4.516106903076741 -3.983280813107482 -6.395061653648358 0 0 1
877 283 2 0 -5.5383246347736135 -2.583875685393495 -5.292015993958784 1 0 0
878 283 4 0 -5.338776155097103 -3.029661174949098 -5.449660423422012 1 0 0
86 19 4 0 -5.22698855272149 -3.0362482853356196 -5.858100094437609 0 0 0
137 36 4 0 -6.019927885922991 -1.8663895770203642 -5.022930640194982 0 0 0
136 36 2 0 -6.391980057981417 -1.5838835827528726 -5.187189412220811 0 0 0
879 283 4 0 -5.73747125839654 -2.1330662055104357 -5.119150530601555 1 0 0
199 57 2 0 -2.0863492959703205 -1.6413594934027087 -5.199132628817249 0 0 0
201 57 4 0 -2.0723342088232184 -1.6611020066095799 -5.6886001397151595 0 0 0
129 33 4 0 -1.9928468368742138 -1.6219062582771577 -6.085711068882535 0 0 0
491 154 4 0 -2.23608562368224 -0.012481706151252487 -2.6668488550440714 0 0 0
109 27 2 0 -6.4899510309257336 -0.07827209642989794 -0.9389341219940598 0 0 0
127 33 2 0 -1.5616504181971291 -1.640131592568597 -6.364894469090394 0 0 0
103 25 2 0 -0.47888959151240346 -1.6176492877645163 -6.247447343758762 0 0 0
105 25 4 0 -0.19857513904700175 -1.4918309213216348 -5.827563602307878 0 0 0
565 179 2 0 -5.041444141275191 -6.132839012961787 -4.768044298927944 0 1 0
566 179 4 0 -4.838718412284758 -6.376060394424061 -4.399909401345544 0 1 0
7 2 3 0 -1.0802748611245085 -6.268820358695341 -4.773678704282846 0 0 0
824 265 4 0 -0.7131689955488881 -6.342782690030214 -4.614819382038571 0 0 0
237 69 4 0 -0.9582318918559056 -6.130965430643974 -4.435308719296489 0 0 0
235 69 2 0 -1.0402400659256306 -5.783403711303379 -4.10029923673262 0 0 0
236 69 4 0 -1.1303203217966964 -5.418724893477564 -3.769532261514095 0 0 0
146 39 4 0 -1.1166966649286842 -5.1263418065630075 -3.5171190463998547 0 0 0
182 51 4 0 -1.1491480041595072 -5.535060512725928 -3.4214198587375564 0 0 0
801 257 4 0 -0.03806395484713347 -3.6097071353618135 -3.8417256418243815 0 0 0
929 300 4 0 -0.4088779340449005 -4.8201046288860105 -4.586198025419021 0 0 0
2 1 3 0 -0.3790927334574583 -4.4149941260390815 -4.521295678803362 0 0 0
5 1 3 0 -0.22552228873122343 -3.8171168105552202 -5.019054898598254 0 0 0
1 1 1 0 -0.06578837939667104 -4.0569255149645205 -4.630978072849533 0 0 0
799 257 2 0 -0.3777462349886752 -3.7812478995721848 -3.4868231360367075 0 0 0
167 46 4 0 -5.932569906246767 -2.154226759178402 -4.775347979454267 0 0 0
166 46 2 0 -5.793373361143653 -2.2064518017229457 -4.2855281009248545 0 0 0
168 46 4 0 -5.662233301385846 -2.2452231375460974 -3.8088823347011185 0 0 0
876 282 4 0 -5.632181852926835 -1.9774963829649932 -3.5207273135842554 1 0 0
222 64 4 0 -5.354745236786444 -2.26978197598383 -3.5307564705914554 0 0 0
921 297 4 0 -5.7180178026273865 -2.3509694424667615 -3.433122600726793 1 0 0
213 61 4 0 -3.4185220333221755 -2.4913690588855806 -3.8623567626266593 0 0 0
211 61 2 0 -3.782352678958034 -2.5396762319732193 -3.501059223015487 0 0 0
77 16 4 0 -3.2402200971723247 -2.3326511543996857 -4.1849678215438315 0 0 0
200 57 4 0 -2.1154036119860056 -1.6405152252690318 -4.700656004877175 0 0 0
76 16 2 0 -2.8184897679126504 -2.092831652072771 -4.401506424876032 0 0 0
78 16 4 0 -2.418396460717209 -1.8761634518606398 -4.5941732176467776 0 0 0
874 282 2 0 -5.510418459659244 -1.4872232710345994 -3.4719000940170983 1 0 0
875 282 4 0 -5.393040327775929 -1.0036969749986593 -3.432895375738884 1 0 0
163 45 2 0 -5.274761032286426 -0.34938275648920614 -3.780341679678058 0 0 0
165 45 4 0 -5.228446133778912 -0.8506107707627075 -3.7842190644208085 0 0 0
158 43 4 0 -2.333902516213167 -1.5436976422996807 -4.38593352578141 0 0 0
157 43 2 0 -2.035081125239404 -1.1943364065232687 -4.16112120345229 0 0 0
592 188 2 0 -1.9676229338305828 -0.2667349668525746 -3.4278376184267434 0 0 0
159 43 4 0 -1.7414054404116133 -0.8462146208514356 -3.9536124726968036 0 0 0
593 188 4 0 -1.74227865226561 -0.5013871173758638 -3.785477537746716 0 0 0
557 176 4 0 -1.4195148351345606 -0.636259043889011 -3.939983260692296 0 0 0
556 176 2 0 -1.1840153159244906 -0.37408409026776684 -4.299695898652542 0 0 0
840 270 4 0 -6.571960048257493 -5.280719114632585 -2.9840812535038577 1 0 0
131 34 4 0 -5.448488128028244 -5.869435280612152 -2.3137038693356837 0 0 0
130 34 2 0 -5.868050879155837 -5.685976239153555 -2.525415547781204 0 0 0
132 34 4 0 -6.289412896477261 -5.478342865702082 -2.7526114300424864 0 0 0
216 62 4 0 -5.174407802878655 -6.02053603903385 -2.092608462676781 0 0 0
161 44 4 0 -5.245189108985536 -6.220980232119043 -2.4189875865621286 0 0 0
214 62 2 0 -4.852118514595015 -5.597452949067901 -2.0968773964344565 0 0 0
215 62 4 0 -4.532905234185511 -5.1832924429875025 -2.1061645344297664 0 0 0
230 67 4 0 -4.171422712892868 -4.988182174025463 -2.0858049540474197 0 0 0
229 67 2 0 -3.675804867227897 -5.169595668259271 -2.128604072843404 0 0 0
134 35 4 0 -4.350408133117751 -5.058105682321978 -1.7724534672285126 0 0 0
231 67 4 0 -3.2003799368473413 -5.340932949539853 -2.170653165276001 0 0 0
91 21 2 0 -2.6868225312807565 -5.594491604000511 -1.7483719093973271 0 0 0
92 21 4 0 -3.0726969396137975 -5.671269723344636 -2.0147810865518117 0 0 0
94 22 2 0 -1.560474852285448 -5.664299229879184 -1.9296891076837255 0 0 0
197 56 4 0 -1.0401031009412125 -6.17574629671004 -2.158074571677258 0 0 0
181 51 2 0 -1.1050646497069836 -5.7457086795165475 -2.966971656275498 0 0 0
183 51 4 0 -1.057945305681327 -5.958424726519858 -2.5072695045748405 0 0 0
143 38 4 0 -0.8131724170012525 -5.874693934312483 -2.2204701051393765 0 0 0
95 22 4 0 -1.21687279481232 -5.845356290823911 -2.1921533470410295 0 0 0
142 38 2 0 -0.48653130620165663 -5.505549933848549 -2.1082816014857184 0 0 0
144 38 4 0 -0.15773044547554677 -5.155187593735009 -1.9972723740524758 0 0 0
234 68 4 0 -0.18816020229143804 -4.745632614463556 -2.1086812529998467 0 0 0
116 29 4 0 -4.647539739476605 -3.8936726164364446 -3.057318499033075 0 0 0
177 49 4 0 -4.537221755189583 -4.811320333842524 -1.9967127723088778 0 0 0
175 49 2 0 -4.611381255073726 -4.4382744161056005 -2.3322146763292477 0 0 0
176 49 4 0 -4.692041172137702 -4.048982127049206 -2.6672795466012564 0 0 0
115 29 2 0 -4.462705803515165 -3.421728521876282 -3.1009358278697716 0 0 0
145 39 2 0 -0.9834189702371522 -4.704122437268943 -3.312945025595742 0 0 0
232 68 2 0 -0.3999312650434845 -4.471949556182498 -2.46677312427845 0 0 0
233 68 4 0 -0.6135521273994085 -4.193357486539442 -2.826287857833034 0 0 0
147 39 4 0 -0.8575319540694762 -4.27112796382634 -3.1060337577324972 0 0 0
203 58 4 0 -0.9083433534671783 -3.9544966755749336 -2.854280762864682 0 0 0
800 257 4 0 -0.6891155589951184 -3.9431913314103237 -3.150419212782865 0 0 0
202 58 2 0 -0.9619932098946309 -3.5522979057775204 -2.5601526998861743 0 0 0
920 297 4 0 -6.467413452694908 -2.369904311569824 -2.78977559673591 1 0 0
919 297 2 0 -6.101514238356713 -2.3568722444555212 -3.105266059089177 1 0 0
220 64 2 0 -4.947725764513584 -2.443387048963875 -3.3281501495501553 0 0 0
117 29 4 0 -4.2733700502001595 -2.960578178931133 -3.139587253326488 0 0 0
212 61 4 0 -4.135776777661178 -2.5787058433191676 -3.137676070160335 0 0 0
90 20 4 0 -4.268728889592031 -2.727009149713978 -2.808614563439298 0 0 0
88 20 2 0 -4.130046899040181 -2.7452713439828167 -2.3130610522345916 0 0 0
221 64 4 0 -4.521898638689525 -2.634943452524615 -3.114780126426967 0 0 0
89 20 4 0 -4.006700093665447 -2.771694455861305 -1.8256367122925279 0 0 0
933 301 4 0 -0.10679353135404678 -2.3365210628596316 -2.8622370812830678 0 0 0
204 58 4 0 -1.027085083602399 -3.1364137692784215 -2.2695487631867577 0 0 0
931 301 2 0 -0.42955711100648186 -2.572567501329279 -2.6036972400388794 0 0 0
932 301 4 0 -0.7835209967038115 -2.8240699989447156 -2.3373419006724845 0 0 0
108 26 4 0 -0.8871522328634727 -2.8706240444339124 -1.9584900801212053 0 0 0
594 188 4 0 -2.2029467043929 -0.0021477012557839644 -3.052538830707994 0 0 0
133 35 2 0 -4.4047704695355305 -4.8780601478240815 -1.2723269728996929 0 0 0
135 35 4 0 -4.4553313126353835 -4.711282496197547 -0.7897473756097546 0 0 0
93 21 4 0 -2.2859478300211604 -5.503765529611349 -1.4721510071415487 0 0 0
96 22 4 0 -1.9346285782377053 -5.468803342579754 -1.6306826895308453 0 0 0
180 50 4 0 -2.034934235464411 -5.281274933196981 -1.2887319671698452 0 0 0
81 17 4 0 -6.2966816788199935 -3.939045566978439 -1.3054362028997397 0 0 0
79 17 2 0 -5.850413793352798 -3.7247689291814803 -1.2099291301689807 0 0 0
80 17 4 0 -5.400521057741188 -3.5089770663755404 -1.1331834120025444 0 0 0
369 113 4 0 -5.140790775441946 -3.6483215801623796 -0.8409510972404297 0 0 0
882 284 4 0 -6.361727824733234 -4.024324315727988 -1.690039488043596 1 0 0
836 269 4 0 -5.029002780093102 -3.3864279471874603 -1.1164763131801383 1 0 0
367 113 2 0 -4.882739760243795 -4.05978314351798 -0.6601291601672171 0 0 0
114 28 4 0 -4.358752065261639 -4.7526906548436605 -0.41692599009048137 0 0 0
368 113 4 0 -4.629484905379846 -4.490421241733704 -0.4826619296251191 0 0 0
346 106 2 0 -3.272313321663165 -3.748914826651749 -0.28094887598159574 0 0 0
112 28 2 0 -4.0142286489971815 -4.57246264002399 -0.10390804872494987 0 0 0
178 50 2 0 -1.9992117928769766 -4.828920810232028 -1.0495367620009048 0 0 0
301 91 2 0 -2.327699731254652 -3.735936581512144 -0.841093068345739 0 0 0
303 91 4 0 -1.8864606749656876 -3.980095875469543 -0.7734850720619091 0 0 0
179 50 4 0 -1.9657432264338255 -4.368276434563007 -0.798625707797391 0 0 0
317 96 4 0 -1.6947092856950308 -4.2270641198829555 -0.5220936880703388 0 0 0
348 106 4 0 -3.099333745097586 -3.4674793090195704 -0.6933546177837221 0 0 0
302 91 4 0 -2.76144792282912 -3.4807806760790627 -0.8927077582115921 0 0 0
224 65 4 0 -3.0831718496770812 -3.4316819821557685 -1.1025899258263567 0 0 0
316 96 2 0 -1.3749012868987267 -3.9643663839690864 -0.2711714312705029 0 0 0
823 265 2 0 -0.3155867191492653 -6.5853635347743245 -4.448779288030549 0 0 0
318 96 4 0 -1.034217628816252 -3.6857177687725176 -0.00833756651358322 0 0 0
837 269 4 0 -4.237904283048854 -2.847562522697936 -1.5105474566239026 1 0 0
223 65 2 0 -3.499723399423466 -3.2547865939917937 -1.3486167696593527 0 0 0
835 269 2 0 -4.655909837158934 -3.1321712698514665 -1.307253038279452 1 0 0
225 65 4 0 -3.9160368019474534 -3.0748602763727964 -1.5891762880321398 0 0 0
184 52 2 0 -0.7936167737475365 -2.9706358529030594 -0.3094051752328991 0 0 0
106 26 2 0 -0.8623265199946514 -2.662521430855341 -1.4813807346997854 0 0 0
275 82 4 0 -0.4980026724185489 -2.3422453166976953 -0.8497446400634232 0 0 0
107 26 4 0 -0.8362798108879174 -2.4672033836549234 -0.9934067136048427 0 0 0
250 74 2 0 -0.9070247217633174 -1.8268270278035006 -0.33098947031162707 0 0 0
186 52 4 0 -0.7366197510346919 -2.6006027971812395 -0.6394449818065022 0 0 0
252 74 4 0 -0.8261890042624261 -2.217622624300631 -0.6857009805877771 0 0 0
362 111 4 0 -6.348904124969884 -0.4331695349142579 -0.2174049637340508 0 0 0
773 248 4 0 -6.371760106514217 -0.05560997454922924 -0.06766069461617957 0 0 0
110 27 4 0 -6.36099368583737 -0.14494370881138977 -0.46342220982763976 0 0 0
173 48 4 0 -1.6891931585298932 -0.05464045342708442 -0.05764290743904187 0 0 0
251 74 4 0 -0.9785004738889935 -1.4741813718892416 -0.014578653649553488 0 0 0
148 40 2 0 -0.005885414795508033 -0.6607097028058719 -5.833606648409607 0 0 0
150 40 4 0 -0.016677315687912593 -1.1602092620845694 -5.962003085902989 0 0 0
3 1 3 0 -0.022890206823374067 -3.7117062275485515 -4.209989819577458 0 0 0
957 309 4 0 -6.56781572377415 -5.691985726072235 -2.975399542742097 1 0 0
361 111 2 0 -6.499767542900437 -0.9284464861860159 -0.24284588633074838 0 0 0
812 261 4 0 -6.523504536257369 -0.25974344096905183 -1.7436061001565153 1 0 0
274 82 2 0 -0.0018772529473411782 -2.2478991732118234 -0.8941472323498283 0 0 0
1280 417 4 0 -5.462364724033369 -0.10052463926449882 -6.551760568548275 1 0 0
558 176 4 0 -0.9648020294259383 -0.10912255522120659 -4.659107705920039 0 0 0
270 80 4 0 -1.7948412350688066 -0.4429797562544278 -0.08768554955517266 0 0 0
241 71 2 0 -4.062784457032599 -4.106995902713559 -6.567783560738302 0 0 1
310 94 2 0 -1.9178628019082673 -5.072311174280101 0.9991189050769458 0 0 0
285 85 4 0 -0.611075958687865 -5.921464072775254 1.1066802424906474 0 0 0
283 85 2 0 -0.9091355901337541 -5.554919670353742 1.3156236815622897 0 0 0
284 85 4 0 -1.2094427870890097 -5.193582827184695 1.5127478788602424 0 0 0
335 102 4 0 -0.4210901235280413 -6.019347297936622 1.446180782357047 0 0 0
290 87 4 0 -0.23229854733767696 -6.009718876418291 1.0789870000645867 0 0 0
312 94 4 0 -1.5553864135820923 -5.097563519274136 1.3369694985940037 0 0 0
325 99 2 0 -3.860641076936792 -4.029814703525073 0.9371831437368605 0 0 0
327 99 4 0 -3.7053572369263477 -4.091575204219073 0.4602579061581984 0 0 0
326 99 4 0 -4.013786507902093 -3.9707619443107576 1.3956709842043264 0 0 0
113 28 4 0 -3.6449722712188013 -4.3717284464501 0.20874210162259332 0 0 0
347 106 4 0 -3.4433125276446828 -4.037046112821301 0.12720544745790424 0 0 0
410 127 4 0 -3.3423969590902236 -4.245987287915834 0.4329499410830432 0 0 0
311 94 4 0 -2.29541381897976 -5.039667276050035 0.636309911527909 0 0 0
411 127 4 0 -2.565562047953658 -4.881320748832099 0.4073350721812179 0 0 0
409 127 2 0 -2.959093991003658 -4.556534491538678 0.4216851509257007 0 0 0
443 138 4 0 -1.2628252376327433 -4.834121503647752 1.4347304412551096 0 1 0
385 119 2 0 -0.6391154351977429 -3.740495562078132 0.6502146259638895 0 0 0
387 119 4 0 -0.7017539146790339 -3.6495397229990925 0.20235162138873855 0 0 0
386 119 4 0 -0.5796677547970456 -3.8346747351195027 1.1321429265092007 0 0 0
1058 343 4 0 -0.30724506505003407 -4.053731368326869 1.291849822431617 0 0 0
444 138 4 0 -0.6436711255194404 -4.07417154066365 1.4511984359671615 0 1 0
442 138 2 0 -0.9544454181400682 -4.466012251522318 1.4418638299558322 0 1 0
350 107 4 0 -0.4660329225929932 -3.7461446287796663 1.4951419508294905 0 0 0
632 201 4 0 -1.4484145543074827 -1.9997739477226335 1.4603128837734254 0 0 0
701 224 4 0 -1.1322181306334662 -1.868087525499486 1.3248887815442607 0 0 0
700 224 2 0 -1.0714687826885088 -1.6617504601878172 0.8706123042345538 0 0 0
764 245 4 0 -1.950935699519377 -0.22760195967907293 0.20383655547996907 0 0 0
156 42 4 0 -2.405869878727387 -6.578924895339404 6.282955200403752 0 0 -1
702 224 4 0 -0.9954346163600397 -1.45851355092852 0.3879284046756184 0 0 0
1462 478 2 0 -0.3956107516778261 -0.8990698852383673 0.24304868981395855 0 0 0
1463 478 4 0 -0.8016927657686485 -1.1835104926467048 0.18710760910805554 0 0 0
269 80 4 0 -1.1930644417756735 -1.194001641200772 0.17774681649854732 0 0 0
268 80 2 0 -1.4954324180078984 -0.8239433522999149 0.048044834087279074 0 0 0
104 25 4 0 -0.754783104808638 -1.742963307038958 6.487859078782564 0 0 -1
364 112 2 0 -3.4810415135477304 -5.101031885789193 2.798881646024646 0 0 0
1372 448 2 0 -3.47542273693218 -6.183356960170675 2.5229167726308193 1 1 0
1374 448 4 0 -3.3270651970274625 -5.7173444860956115 2.5719922225249143 1 1 0
365 112 4 0 -3.113882743147794 -5.4274928407753125 2.6929224817185853 0 0 0
239 70 4 0 -2.9202528093094138 -5.7805883368449305 2.589398999585755 0 0 0
238 70 2 0 -2.462769709878773 -5.665136511037025 2.65837441788662 0 0 0
240 70 4 0 -1.9915973206308941 -5.545037135083729 2.7229588335820165 0 0 0
338 103 4 0 -1.6213957844558655 -5.41816835218908 2.577690452660656 0 0 0
345 105 4 0 -1.6539771207608966 -5.741394369145671 2.774479033340038 0 0 0
337 103 2 0 -1.548753785518325 -5.178881194544435 2.1370371885572412 0 0 0
343 105 2 0 -1.3649845087975854 -6.08336997237685 3.0362491177160797 0 0 0
334 102 2 0 -0.34463357034656344 -6.4107874275889865 1.7614502618164254 0 0 0
339 103 4 0 -1.4863542635231777 -4.960285287963764 1.7138663397617357 0 0 0
315 95 4 0 -4.140820419986812 -4.096073474485893 1.7496457226858835 0 0 0
985 319 2 0 -4.640320575430628 -4.728449711770559 3.04403700961918 1 0 0
986 319 4 0 -4.209894978151577 -4.620959042058101 2.8085747211833767 1 0 0
366 112 4 0 -3.8480328112661537 -4.774116040635874 2.90550903144961 0 0 0
314 95 4 0 -3.865250070448747 -4.516796060353956 2.617761119958195 0 0 0
313 95 2 0 -4.001657568572324 -4.3218995842781105 2.2078407934832605 0 0 0
402 124 4 0 -3.9388177556894024 -4.380056305544834 2.9520983508752927 0 0 0
400 124 2 0 -3.7176850234786194 -4.077353286390509 3.3035835876322204 0 0 0
349 107 2 0 -0.46609424297576435 -3.351775103543199 1.8310580163486214 0 0 0
404 125 4 0 -1.2104364197601594 -3.2925831068766898 3.240138273844247 0 0 0
631 201 2 0 -1.9073934480345627 -1.9908804545859757 1.7001953629389341 0 0 0
255 75 4 0 -2.4240692143167295 -2.1041029859202856 2.3192379808899184 0 0 0
253 75 2 0 -2.4793099167298043 -2.4020613739288534 2.726189330682508 0 0 0
254 75 4 0 -2.5293025570618455 -2.6962662551617225 3.1504669457764223 0 0 0
633 201 4 0 -2.353987275318479 -1.9872512945399805 1.9318578355711729 0 0 0
761 244 4 0 -2.392951616190022 -1.7235827989400103 2.2027177853803934 0 0 0
371 114 4 0 -1.1749893766036357 -2.0339665858378324 1.6989490689981475 0 0 0
403 125 2 0 -0.9593063924766239 -3.153412977946847 2.8398446757960336 0 0 0
351 107 4 0 -0.4609074636034375 -2.981640525128462 2.1575244524185058 0 0 0
372 114 4 0 -0.6509078510924464 -2.661741445724105 2.2581274711561363 0 0 0
370 114 2 0 -0.9104562766367001 -2.3412707755628386 1.979620145400815 0 0 0
405 125 4 0 -0.7017028070055115 -3.015225556232434 2.4448496021830577 0 0 0
296 89 4 0 -0.3989345347863008 -2.8128382340126725 2.52026018879276 0 0 0
295 89 2 0 -0.11061249704602222 -2.4543723674603077 2.736486336730298 0 0 0
760 244 2 0 -2.525532509111841 -1.3010013180007556 2.437741320686468 0 0 0
762 244 4 0 -2.6614425430269057 -0.8743559764157445 2.695408739097415 0 0 0
665 212 4 0 -2.5563236287925535 -0.5912822249344883 2.9501791301016342 0 0 0
375 115 4 0 -2.848103211724411 -0.8905522860275491 3.0344294373939005 0 0 0
664 212 2 0 -2.225794090338917 -0.24954621448881684 3.172949883298576 0 0 0
1087 353 2 0 -6.34857911980269 -6.090128394326053 4.172997723769511 1 0 0
294 88 4 0 -5.949570253147058 -5.269969140348661 4.2881568527813 0 0 0
1089 353 4 0 -6.1149700387843575 -5.630258680237537 4.281974638436233 1 0 0
1074 348 4 0 -6.249019476662504 -5.399863577779077 4.559235119241327 1 0 0
995 322 4 0 -5.886844011446725 -5.4954536718645555 4.5964671497195955 1 0 0
292 88 2 0 -5.687404061629994 -5.059952419267931 3.9076219850865916 0 0 0
1088 353 4 0 -6.56862666377194 -6.509861248179874 4.069380897703313 1 0 0
344 105 4 0 -1.0994484260516815 -6.410697342710193 3.27881191767222 0 0 0
987 319 4 0 -5.068211502438155 -4.830685142703117 3.273475935611161 1 0 0
293 88 4 0 -5.413365733793942 -4.853324623383183 3.5169294599097545 0 0 0
26 6 1 0 -3.914935381900249 -3.8406215703648146 4.376379428972175 0 0 0
29 6 3 0 -3.895715525376661 -4.299947821864314 4.508211433873813 0 0 0
27 6 3 0 -3.6016048590065184 -3.763073697582055 4.013077501137692 0 0 0
28 6 3 0 -4.374270737991639 -3.7459578401343445 4.220360650014166 0 0 0
246 72 4 0 -4.213002980419847 -4.365382600954002 4.744641078920555 0 0 0
30 6 3 0 -3.811614822404984 -3.5355134005103266 4.7620053437230085 0 0 0
401 124 4 0 -3.4920138717976132 -3.781947032513168 3.6405960555671983 0 0 0
768 246 4 0 -3.2327700592235074 -3.6513541160936973 3.9378363680087385 0 0 0
244 72 2 0 -4.500561800457799 -4.730817490291719 4.970961894052602 0 0 0
378 116 4 0 -1.4166031801045456 -3.2691859770564093 3.5830304520589564 0 0 0
304 92 2 0 -6.372013103864823 -1.669292006419668 4.44107539252614 0 0 0
277 83 2 0 -3.4598162188064365 -1.7720009362519804 4.5265729649334 0 0 0
279 83 4 0 -3.782930253094894 -2.0010593749642474 4.878828454717851 0 0 0
766 246 2 0 -2.9914636544286304 -3.299999654041655 3.675485081305617 0 0 0
377 116 4 0 -2.3379951779079406 -2.9156859861057214 3.402653874075049 0 0 0
767 246 4 0 -2.738946516280403 -2.9195334798902106 3.4048344905824837 0 0 0
376 116 2 0 -1.8662875610927216 -3.0914343174471113 3.4973410198122883 0 0 0
309 93 4 0 -2.5356465238888766 -2.5925616860544634 3.5254782662295323 0 0 0
307 93 2 0 -2.733439975164718 -2.1883124006814585 3.775591009887426 0 0 0
308 93 4 0 -2.9102596186700964 -1.8010204299343837 4.023512700297512 0 0 0
271 81 2 0 -0.06736299949380721 -1.822610109953054 4.994641615951135 0 0 0
305 92 4 0 -6.40593199277443 -1.5450992064190223 3.9734688078811544 0 0 0
278 83 4 0 -3.146577117633012 -1.54294474472322 4.181058585676628 0 0 0
320 97 4 0 -2.7623513006631177 -1.5175085451812436 4.2495944968101 0 0 0
712 228 2 0 -1.763253227161489 -0.29911827614781705 4.133633316070051 0 0 0
373 115 2 0 -2.8814634682092057 -1.150603953793848 3.463190935899898 0 0 0
374 115 4 0 -2.913843099810723 -1.407874000545897 3.914035683103549 0 0 0
319 97 2 0 -2.4012524868041547 -1.2108073932673449 4.4218618929642535 0 0 0
714 228 4 0 -1.7698100806113786 -0.6576365641853636 4.4941410346461845 0 0 0
321 97 4 0 -2.0586144776316813 -0.9123188140452818 4.60228082782877 0 0 0
634 202 2 0 -0.5029208859986889 -0.25625858140532054 5.424010991517034 0 0 0
263 78 4 0 -1.9269139478167383 -0.6265748541499454 4.851774798437016 0 0 0
128 33 4 0 -1.1387792362683926 -1.6616173330294548 6.534513320510133 0 0 -1
726 232 4 0 -1.2903289311479078 -0.26961437176326114 5.944912943293716 0 0 0
994 322 2 0 -5.508265747890658 -5.395652631890061 4.9449780362224605 1 0 0
391 121 2 0 -5.185508858656706 -5.081437287101099 6.0283323570172405 0 0 0
392 121 4 0 -4.95664662348536 -5.075315236449705 5.558882562856512 0 0 0
996 322 4 0 -5.135427413636715 -5.308985823510368 5.290733760495109 1 0 0
393 121 4 0 -5.399291505844904 -5.067951177302161 6.47483092099839 0 0 0
245 72 4 0 -4.777377182077718 -5.093020583517109 5.201631133908012 0 0 0
599 190 4 0 -1.864280078349657 -6.488903673428509 4.971642921733564 0 1 0
154 42 2 0 -2.5792690225001387 -6.114521910242656 6.3180514276490065 0 0 -1
353 108 4 0 -2.8622368679437296 -5.26958806944648 6.185531338166652 0 0 0
155 42 4 0 -2.76302071812651 -5.627358799460515 6.364260678955569 0 0 -1
298 90 2 0 -2.0063439742143596 -5.22000671326966 6.470377304036621 0 0 0
299 90 4 0 -2.522665521516063 -5.300975948773288 6.4299065187345 0 0 0
39 8 3 0 -1.473911088934242 -6.430122900451128 5.058600775453099 0 1 0
40 8 3 0 -0.9378369115654183 -5.828531248240193 4.894777657725667 0 1 0
300 90 4 0 -1.5104314640353032 -5.143025680025767 6.523753289093977 0 0 0
36 8 1 0 -0.9977093996211788 -6.278412660011057 5.102633396642955 0 1 0
12 3 3 0 -1.2239894707009669 -6.547203096002536 6.155313022442254 0 0 -1
37 8 3 0 -0.8766178876008751 -6.242977256993766 5.577504154855736 0 1 0
397 123 2 0 -1.1793520008985592 -5.841808975973062 6.142851020574005 0 0 0
398 123 4 0 -1.1135093448629922 -6.266374721017223 5.882475074161909 0 0 0
399 123 4 0 -1.2490072141946222 -5.401094959908141 6.403481299402689 0 0 0
171 47 4 0 -3.6404878279286335 -3.2970869072546765 5.015237628546815 0 0 -1
287 86 4 0 -3.7549305445946475 -3.6799666695762943 5.119501104515207 0 0 0
286 86 2 0 -3.7031549567587643 -3.908834896827362 5.587681497370235 0 0 0
242 71 4 0 -3.608985588488067 -4.23570182217737 6.429707608839464 0 0 0
288 86 4 0 -3.6440066625894185 -4.127013000526086 6.059779032375252 0 0 0
354 108 4 0 -3.5194374801510357 -4.497655183770599 6.1518236100668355 0 0 0
598 190 2 0 -2.0427028139312453 -6.531054766591018 5.454842928013013 0 1 0
352 108 2 0 -3.1860884764822517 -4.884853664518091 6.163022278490649 0 0 0
1038 336 4 0 -1.1580027894632778 -5.036506955070505 6.3676710643425425 0 0 0
1036 336 2 0 -1.0331963264574608 -4.701607944937364 6.030082394947265 0 0 0
1037 336 4 0 -0.9053614990649737 -4.357471996194554 5.694389859062191 0 0 0
306 92 4 0 -6.3439012850820875 -1.7883967678086434 4.941682979855798 0 0 0
383 118 4 0 -6.373632795484391 -1.54179397438273 5.230114219177522 0 0 0
170 47 4 0 -3.887328014170662 -2.3457329201162045 5.075675244342738 0 0 -1
169 47 2 0 -3.7645647768766533 -2.8300842101528967 5.045416918027092 0 0 -1
380 117 4 0 -4.127249730395875 -1.9952704621964066 5.076794648811009 0 0 0
333 101 4 0 -1.0362008234659337 -1.8929453233960098 6.242182408066752 0 0 0
331 101 2 0 -0.7109986395571867 -2.1254922485255494 5.897858076020961 0 0 0
846 272 4 0 -0.08920375041392994 -2.1884239874210145 5.784541061172175 0 0 -1
272 81 4 0 -0.22626125862241686 -1.969348207602038 5.46258687399253 0 0 0
332 101 4 0 -0.387462153416473 -2.347956310001608 5.561172011392781 0 0 0
330 100 4 0 -6.021283728598249 -1.6005790751055335 5.03845242072185 0 0 0
329 100 4 0 -5.1698386864654164 -1.2282968398673844 5.326815647534889 0 0 0
328 100 2 0 -5.605945516900063 -1.4181800157366091 5.182614895268113 0 0 0
379 117 2 0 -4.478110635298517 -1.6682344531531808 5.149319799042375 0 0 0
84 18 4 0 -4.880206247688484 -0.9657699796325782 5.256408876242914 0 0 -1
82 18 2 0 -4.706384962761709 -0.5170055123899774 5.151091267035345 0 0 -1
83 18 4 0 -4.534393451208532 -0.04696864682204813 5.059867093018598 0 0 -1
381 117 4 0 -4.822168589045043 -1.3558515110650418 5.225009053761014 0 0 0
262 78 2 0 -1.6085611242274311 -0.4932154306360333 5.211609247129401 0 0 0
724 232 2 0 -1.7379229383328763 -0.21878855934238156 6.238979656297481 0 0 0
636 202 4 0 -0.9205685103736975 -0.26547923690950903 5.746163132287383 0 0 0
264 78 4 0 -1.2737216225203813 -0.34250010492047367 5.5780241300894255 0 0 0
141 37 4 0 -1.083836943203415 -0.5915964240675254 5.852845610938982 0 0 -1
635 202 4 0 -0.07533226506505092 -0.252960479156484 5.106255319852723 0 0 0
139 37 2 0 -1.0046635676950706 -1.0638264167042872 6.046777847351039 0 0 -1
140 37 4 0 -0.9422453324858237 -1.5202047160668999 6.231457805271878 0 0 -1
600 190 4 0 -2.200643283970629 -6.578768908441982 5.9348939435393 0 1 0
725 232 4 0 -2.1639113957808056 -0.17818694882638877 6.528059728371905 0 0 0
185 52 4 0 -0.8491715469021995 -3.3278509352423 0.018192992813756803 0 0 0
1279 417 2 0 -5.0653627977010185 0.17318389316442265 -6.4069976609774315 1 0 0
1456 476 2 0 -0.07938157032640797 1.1259198865321347 -0.08782129372401816 0 0 0
564 178 4 0 -4.278173808717503 0.4407423548686795 -6.150718255360512 0 0 0
562 178 2 0 -4.378672843078745 0.5262714631213653 -5.676370944690416 0 0 0
503 158 4 0 -4.354002803892167 0.6820437754240922 -6.457135004153638 0 0 0
1281 417 4 0 -4.6497369521357905 0.45554829662098534 -6.271890973885067 1 0 0
35 7 3 0 -3.5469022876607244 1.1578724536017249 -5.031149711017594 0 0 0
563 178 4 0 -4.476567130059076 0.6167188325491842 -5.179614114489229 0 0 0
227 66 4 0 -3.4661963729731484 1.398196100576734 -5.351506288002152 0 0 0
483 151 4 0 -1.9544526927608512 0.568749775040851 -5.282234331260105 0 0 0
413 128 4 0 -2.1187446168062887 0.527181224436983 -5.645931807056385 0 0 0
468 146 4 0 -2.345773273191522 0.6110633623074626 -5.313716120668765 0 0 0
466 146 2 0 -2.7603169926386357 0.8939870124527561 -5.254281918481781 0 0 0
412 128 2 0 -2.26201018968959 0.3107155404480399 -6.072660359891859 0 0 0
467 146 4 0 -3.1770252334917948 1.1686277111675034 -5.19510195568478 0 0 0
481 151 2 0 -1.5534570357376167 0.38762189653027584 -5.02434703321241 0 0 0
547 173 2 0 -0.37609743688903796 0.1837539416877216 -5.155773180465477 0 0 0
548 173 4 0 -0.007415445959504365 0.1579097450811154 -5.506862215016027 0 0 0
474 148 4 0 -3.583266876494662 2.7061210117950676 -5.554078913408759 0 0 0
472 148 2 0 -3.647019637221614 3.142709790092677 -5.772118895791467 0 0 0
226 66 2 0 -3.4148432903797357 1.8966983930542116 -5.45932701942133 0 0 0
228 66 4 0 -3.362521769530397 2.3913905008921343 -5.563738810070419 0 0 0
471 147 4 0 -3.2093022711124233 2.7011395861102754 -5.393392209352243 0 0 0
469 147 2 0 -2.956955978950869 2.757831309282631 -4.948336675707155 0 0 0
473 148 4 0 -3.7099171098782544 3.5975182487582913 -5.996937049965147 0 0 0
477 149 4 0 -4.024305452832441 3.8277447512988876 -5.963535707296264 0 0 0
475 149 2 0 -4.062371767272966 4.332176899447839 -6.047567108889815 0 0 0
476 149 4 0 -4.098818819175198 4.832709955473181 -6.130486102934343 0 0 0
1253 408 4 0 -3.785387041540909 5.088348683677727 -6.2209447968024065 0 0 0
521 164 4 0 -4.067218864959793 5.180987742259388 -5.994530262971477 0 0 0