LAMMPS data file via write_data, version 29 Aug 2024, timestep = 9000000, units = lj

1530 atoms
4 atom types
1030 bonds
1 bond types
575 angles
2 angle types

-6.58545 6.58545 xlo xhi
-6.58545 6.58545 ylo yhi
-6.58545 6.58545 zlo zhi

Masses

1 1
2 1
3 1
4 1

Bond Coeffs # harmonic/omp

1 100 0.5

Angle Coeffs # harmonic/omp

1 100 180
2 100 109.471

Atoms # full

154 42 2 0 -1.1142479442611481 -6.337946765704064 -5.119213102201709 0 0 0
156 42 4 0 -0.9515497522949047 -6.2647179918811045 -4.671557705219857 0 0 0
248 73 4 0 -5.8414966278263885 -4.255052683852975 -5.669731665413533 0 0 0
927 299 4 0 -6.111151527677541 -4.198063359368259 -5.967414977404936 1 0 0
830 267 4 0 -6.1487434432245935 -4.001426309319358 -5.608981435539503 1 0 0
247 73 2 0 -5.719303231302838 -4.447017986416008 -5.2253704593450765 0 0 0
925 299 2 0 -6.17853843159035 -4.439954129740595 -6.398725112222392 1 0 0
203 58 4 0 -2.9903499587248827 -4.624015117802986 -5.602614430918843 0 0 0
104 25 4 0 -2.733525430092921 -4.826200727185905 -5.86939115275173 0 0 0
202 58 2 0 -3.0957355379163505 -4.54969808994016 -5.128498787982808 0 0 0
103 25 2 0 -2.740285736134341 -4.760953119404093 -6.369140648248189 0 0 0
829 267 2 0 -6.253310815489534 -3.534302393192852 -5.629686825293641 1 0 0
831 267 4 0 -6.365318242117273 -3.0461092950743094 -5.647603356114519 1 0 0
976 316 2 0 -6.504894855577081 -2.162323502270693 -5.79648437901419 1 0 0
2 1 3 0 -3.442525169825547 -1.9985662237267974 -5.547805909962016 0 0 0
570 180 4 0 -3.6824128291396083 -1.9929466962823532 -5.257985769592049 0 0 0
3 1 3 0 -3.9150382321009647 -2.522450930163328 -5.947735364452865 0 0 0
1 1 1 0 -3.470364014167587 -2.331849587533413 -5.92909322147687 0 0 0
4 1 3 0 -3.3647720529610607 -2.0978934872305057 -6.380978369323523 0 0 0
568 180 2 0 -4.058047169614833 -2.185455424560022 -4.979723021873055 0 0 0
462 144 4 0 -3.3146185849535574 -1.798569409481696 -5.233090433449602 0 0 0
117 29 4 0 -3.611991874855827 -1.6499205324101422 -5.448614350627339 0 0 0
201 57 4 0 -3.340521524644798 -2.1854691703688807 -5.217023312524071 0 0 0
5 1 3 0 -3.1527778594338955 -2.680014184650846 -5.847119436078446 0 0 0
199 57 2 0 -3.018553116317011 -2.541711689582875 -4.982771045501623 0 0 0
408 126 4 0 -0.38695492437329965 -2.00604286808647 -6.332727647036867 0 0 1
406 126 2 0 -0.8322864077680534 -2.1648503646915644 -6.507069699590032 0 0 1
981 317 4 0 -1.535358511352597 -0.0782404996819615 -1.0537930504656738 0 0 0
782 251 4 0 -6.223914642230336 -0.4498370150776081 -0.38961764146557104 0 0 0
299 90 4 0 -4.366193452496664 -0.8289710094547401 -1.3532043665452045 0 0 0
298 90 2 0 -4.160359405613757 -1.2912929940359317 -1.1927609144207678 0 0 0
115 29 2 0 -3.916384084001479 -1.268484694822662 -5.581108993308104 0 0 0
194 55 4 0 -4.438342508914396 -0.7277395610150116 -6.069612941071938 0 0 0
116 29 4 0 -4.226548540183981 -0.8720049796776063 -5.722337756689359 0 0 0
460 144 2 0 -2.9806297160246613 -1.442772218325921 -5.081723490142106 0 0 0
445 139 2 0 -2.690002169071856 -0.4981101246831372 -5.5912744688626255 0 0 0
447 139 4 0 -2.6349058428302934 -0.7623503234943814 -5.183797734774838 0 0 0
461 144 4 0 -2.646068185799982 -1.0834382848930932 -4.926346114513882 0 0 0
446 139 4 0 -2.744375028021007 -0.2299476967993669 -6.023843331676694 0 0 0
957 309 4 0 -6.520308120317478 -2.942898609925305 -1.746136893958744 1 0 0
587 186 4 0 -2.6944063821366546 -0.31708043348330756 -6.397277791007722 0 0 0
614 195 4 0 -2.6673574063195638 -0.7159454266847298 -4.80377014849513 0 0 0
857 276 4 0 -0.01509841675481084 -3.8366339136516685 -1.2205342569106097 0 0 0
245 72 4 0 -6.103021681380459 -6.166190031547575 -5.0152500433785745 0 0 0
215 62 4 0 -6.0594202376804684 -5.81116002266383 -4.81620668628755 0 0 0
214 62 2 0 -5.852114845809226 -5.386323238438763 -4.687685850324844 0 0 0
207 59 4 0 -3.6881457991239848 -5.889516388598299 -3.9630025947859346 0 0 0
120 30 4 0 -3.7025280903241375 -5.675466567246193 -4.285990616454861 0 0 0
205 59 2 0 -3.4507806317137435 -6.322269073777266 -3.8052968242853136 0 0 0
118 30 2 0 -3.5316376096677735 -5.1964564547897965 -4.323694434430807 0 0 0
183 51 4 0 -0.878434269580237 -6.336608202909565 -4.277800995223512 0 0 0
181 51 2 0 -1.1791440001483564 -6.474936713271494 -3.894945285953612 0 0 0
488 153 4 0 -1.6250238688829803 -6.30018822873533 -3.2907160109252747 0 1 0
249 73 4 0 -5.6015645777023035 -4.638614195527605 -4.788984714769434 0 0 0
216 62 4 0 -5.6330021598607996 -4.9527840931041665 -4.550169248734543 0 0 0
197 56 4 0 -5.425865652596077 -4.63634513003752 -4.4448519462543254 0 0 0
196 56 2 0 -5.10349524474891 -4.302481923142053 -4.2318138835818715 0 0 0
243 71 4 0 -4.388852829536356 -3.957248417032421 -4.078551529835675 0 0 0
198 56 4 0 -4.778007768858132 -3.978232730395252 -4.006692051689396 0 0 0
241 71 2 0 -3.940138302397912 -4.1509691030443285 -4.22733582215907 0 0 0
176 49 4 0 -4.604723613915296 -3.64890074747609 -4.1060933447245045 0 0 0
83 18 4 0 -4.543717882813784 -3.7787036009293127 -3.7521586398681652 0 0 0
242 71 4 0 -3.504687554166006 -4.349803045321348 -4.37538143087275 0 0 0
119 30 4 0 -3.3558559289742775 -4.721309261828398 -4.366923474549554 0 0 0
185 52 4 0 -3.1863060896599396 -4.110354314231867 -4.419203898260149 0 0 0
204 58 4 0 -3.2046166458207166 -4.446961941803738 -4.610836924085123 0 0 0
237 69 4 0 -3.1554629195124546 -4.429404647241507 -4.206518058699182 0 0 0
235 69 2 0 -2.9707942423770057 -4.419590124782769 -3.7254913617123306 0 0 0
184 52 2 0 -3.0207266900663217 -3.6363082042854242 -4.45885728687664 0 0 0
915 295 4 0 -6.402236959369928 -2.8073181436233194 -5.3154867667505785 1 0 0
358 110 2 0 -4.0003060996561075 -0.06213622855531066 -1.545955507421118 0 0 0
865 279 2 0 -6.347827669202884 -2.9907149838895664 -3.6798245396954314 1 0 0
87 19 4 0 -5.134044050311099 -1.8584321697219985 -3.8380281184638076 0 0 0
107 26 4 0 -5.248901891202886 -1.9269601964643415 -3.460260102557878 0 0 0
569 180 4 0 -4.42138227931628 -2.388532971463994 -4.70160077181109 0 0 0
175 49 2 0 -4.517014350115828 -3.2217806855227553 -4.3477799957949355 0 0 0
85 19 2 0 -4.897824961076008 -2.2049735205452152 -4.137973593927846 0 0 0
86 19 4 0 -4.671494233144056 -2.5336726919967756 -4.421943001460305 0 0 0
177 49 4 0 -4.429217661786154 -2.7739976031595655 -4.613235680228246 0 0 0
200 57 4 0 -2.696724579040819 -2.9033297048706985 -4.752191970807953 0 0 0
186 52 4 0 -2.8542072286667115 -3.1488284041715153 -4.49896738583575 0 0 0
135 35 4 0 -2.48568139745585 -2.979197486253557 -4.43399302699316 0 0 0
133 35 2 0 -2.166099493034366 -2.660823524226701 -4.269842300559963 0 0 0
124 32 2 0 -1.8079479146589232 -1.8219979436157232 -3.6137245514355225 0 0 0
134 35 4 0 -1.822467473615692 -2.321582513276547 -4.097963643554666 0 0 0
126 32 4 0 -1.6025203719131111 -2.025901797023241 -4.043818767369368 0 0 0
945 305 4 0 -0.15166831969358113 -1.9155480676247187 -4.071178236215831 0 0 0
850 274 2 0 -0.956874660585938 -2.2629184825003366 -4.174895785039974 0 0 0
851 274 4 0 -1.4384908752623746 -2.3740752546734942 -4.17389373856496 0 0 0
852 274 4 0 -0.46304666351424356 -2.146451221560683 -4.169989752692953 0 0 0
251 74 4 0 -5.335539338475534 -1.571782907656238 -3.6119480375604116 0 0 0
250 74 2 0 -5.5289510852109895 -1.2874457585999233 -3.9566308659033895 0 0 0
468 146 4 0 -5.91959180026619 -0.6941577811933786 -4.1514635170528305 0 0 0
252 74 4 0 -5.724233608023566 -1.0165215860222132 -4.287127193206907 0 0 0
102 24 4 0 -4.977449907657776 -1.643114561727493 -3.5542975452317194 0 0 0
100 24 2 0 -4.575204866936766 -1.4395644161103534 -3.251452171306164 0 0 0
613 195 2 0 -2.5316544449445946 -0.3476726855047649 -4.489835639729234 0 0 0
466 146 2 0 -6.355663544022691 -0.7489756208068937 -4.374570306594911 0 0 0
425 132 4 0 -2.3694922489376635 -0.04003160021921424 -3.761292117887343 0 0 0
913 295 2 0 -6.5480168345486645 -2.8367112477684766 -4.834054975537403 1 0 0
816 262 4 0 -0.11813011205048611 -2.315045103306477 -4.140159552417904 0 0 0
90 20 4 0 -6.425474891367834 -5.970068538723123 -4.91056885074785 0 0 0
1200 390 4 0 -4.657564599005651 -0.595770391566703 -1.4640411231527986 1 0 0
19 4 3 0 -3.5401694347741604 -4.956482295482995 -2.148136017801698 0 0 0
143 38 4 0 -3.8961095537891826 -4.91899972708542 -2.311271850136248 0 0 0
190 54 2 0 -0.5625764758878697 -5.351248317968151 -1.888568079410132 0 0 0
301 91 2 0 -1.076032606045493 -6.400869365252136 -1.6925042147676814 0 0 0
911 294 4 0 -6.430316263608556 -3.3073272597396515 -1.68664815285855 1 0 0
82 18 2 0 -4.409427699684955 -3.7717719892997414 -3.27909800833544 0 0 0
142 38 2 0 -3.9547414818091307 -4.440625177784428 -2.408300660191649 0 0 0
144 38 4 0 -4.015368604475898 -3.933221634370329 -2.5220775073228716 0 0 0
84 18 4 0 -4.262245296133641 -3.752178011194932 -2.81119588990076 0 0 0
161 44 4 0 -4.064831212833195 -3.529373616813226 -2.5339980100338417 0 0 0
160 44 2 0 -3.7785815486833054 -3.3743816154048565 -2.1137926966358007 0 0 0
236 69 4 0 -2.7761757770866833 -4.409563938197575 -3.277616155432153 0 0 0
859 277 2 0 -0.1179869861798713 -4.908537503040509 -2.8156919040982826 0 0 0
192 54 4 0 -0.38573166061145475 -4.95514840814219 -2.164744509817751 0 0 0
110 27 4 0 -0.1728609957664951 -4.601542725992416 -2.1920603695432135 0 0 0
861 277 4 0 -0.3880377250512668 -4.67900698266 -2.5060030821929566 0 0 0
109 27 2 0 -0.0749209671409153 -4.21850203908422 -1.8899823827726958 0 0 0
239 70 4 0 -6.318562908200844 -3.113144401257013 -2.0178227757821308 0 0 0
238 70 2 0 -6.223925486952659 -3.0061223813004636 -2.502311028721984 0 0 0
106 26 2 0 -5.573568948124466 -2.282261728677747 -3.293462832585189 0 0 0
866 279 4 0 -5.9976269814981436 -2.9381933038854373 -3.361837758125605 1 0 0
240 70 4 0 -6.125838472268246 -2.8891144084038185 -2.9801018279982276 0 0 0
108 26 4 0 -5.881336945392968 -2.6218128056543173 -3.139403048204202 0 0 0
162 44 4 0 -3.496634420366577 -3.220399008379384 -1.706240885970013 0 0 0
232 68 2 0 -2.843380212416611 -2.813754930373536 -1.9434532633449262 0 0 0
234 68 4 0 -2.5116602133631325 -2.561723957631333 -2.249451985046631 0 0 0
173 48 4 0 -2.55036971205205 -2.743963162123032 -2.612815633329856 0 0 0
172 48 2 0 -2.3115740253426647 -2.3527312468862815 -2.8171922125005096 0 0 0
174 48 4 0 -2.0766805283739362 -1.9632386721329698 -3.015608423651297 0 0 0
125 32 4 0 -1.9993266470562412 -1.617793236145473 -3.197772422972355 0 0 0
496 156 2 0 -3.668584779561894 -0.522900349818031 -2.948289810138544 0 0 0
101 24 4 0 -4.202443329408416 -1.2378337535895823 -2.9877063218161766 0 0 0
497 156 4 0 -3.9889322920733155 -0.9211931572415326 -2.9182745018922147 0 0 0
114 28 4 0 -4.305091076162764 -1.0205031868160737 -2.6927204531044686 0 0 0
112 28 2 0 -4.346177768380956 -0.8927032890378176 -2.2389884670327715 0 0 0
113 28 4 0 -4.404088916236011 -0.749249500312722 -1.7365253359970851 0 0 0
140 37 4 0 -1.956484950099724 -1.6536382346517888 -2.8099365502531035 0 0 0
139 37 2 0 -1.8047921010251509 -1.2438609053302627 -2.514541256989407 0 0 0
979 317 2 0 -1.6356027304142629 -0.3227641117451861 -1.4883681646012614 0 0 0
534 168 4 0 -1.510340478912698 -0.4676777472779198 -2.24732463975351 0 0 0
141 37 4 0 -1.647540041247848 -0.8378165958797074 -2.221950547694025 0 0 0
980 317 4 0 -1.7229576658494248 -0.5812517582992341 -1.9183444998387353 0 0 0
532 168 2 0 -1.2948283270221996 -0.23642864098810068 -2.6086590320926883 0 0 0
328 100 2 0 -4.837929196599878 -5.986414604514057 -0.1649691642851231 0 0 0
781 251 2 0 -6.093403741985711 -0.400714688818981 -0.8657815191432128 0 0 0
329 100 4 0 -4.560506416115281 -6.0537481949279295 -0.6025330026339609 0 0 0
18 4 3 0 -3.1463694259695787 -5.456273878814328 -1.6390072345501592 0 0 0
506 159 4 0 -4.5903590701729895 -6.36177603691253 -0.8685385801129172 0 1 0
16 4 1 0 -3.3859347205898676 -5.025827665751244 -1.6764098557993221 0 0 0
399 123 4 0 -3.761255834371363 -5.376746732005508 -1.1874078734518307 0 0 0
398 123 4 0 -4.258680833654888 -6.187026591989172 -0.7845185231648065 0 0 0
397 123 2 0 -4.010193985409357 -5.7835799568798185 -0.9850336814215063 0 0 0
17 4 3 0 -3.7875959651845297 -5.030387049500151 -1.379176293954903 0 0 0
191 54 4 0 -0.7284368988658323 -5.734450537077363 -1.614384846909156 0 0 0
303 91 4 0 -0.7570124363335271 -6.102011006654544 -1.4207795183782785 0 0 0
487 153 2 0 -1.5266372206482268 -6.487991145856598 -2.8234491398795005 0 1 0
94 22 2 0 -0.25403232628737243 -5.8419720339061705 -0.9640788655358199 0 0 0
96 22 4 0 -0.7034903110264632 -5.787017600394564 -1.228499084093395 0 0 0
127 33 2 0 -4.828746372556449 -3.6483022737969244 -0.7023736116599616 0 0 0
321 97 4 0 -3.865522176873546 -5.044566390003876 -1.0110174744385698 0 0 0
319 97 2 0 -3.97529603883862 -4.571607656479421 -0.8708457954714858 0 0 0
208 60 2 0 -3.7739273654845436 -3.4924186833723025 -1.0054085919574598 0 0 0
209 60 4 0 -4.1116703366890865 -3.7104135076781977 -0.6784592566668632 0 0 0
320 97 4 0 -4.065765580084031 -4.111634280197642 -0.7264664315628918 0 0 0
129 33 4 0 -4.42299710625054 -3.9338261119961504 -0.7469869934445252 0 0 0
153 41 4 0 -3.1825051361130763 -3.431213692593493 -1.5618089761237985 0 0 0
20 4 3 0 -3.0725432686206053 -4.6237042920071385 -1.5408629784731205 0 0 0
138 36 4 0 -2.7894724545999767 -4.632540861938823 -1.2796369558375114 0 0 0
152 41 4 0 -2.7651116744791757 -4.38487158957066 -1.6212200805847428 0 0 0
254 75 4 0 -2.0028124695422624 -4.645616248257537 -0.12292089115343181 0 0 0
137 36 4 0 -2.2439236262612785 -4.5517736770048725 -0.43965539684337884 0 0 0
136 36 2 0 -2.5140714686338677 -4.595192240579485 -0.8648944135339725 0 0 0
151 41 2 0 -2.9856443302608335 -3.904114933486384 -1.5967568812597461 0 0 0
157 43 2 0 -2.0708403774323285 -3.7584839786766757 -0.3608401603324107 0 0 0
158 43 4 0 -2.0122733976990905 -4.255105287203454 -0.24097740144094668 0 0 0
359 110 4 0 -4.283515620929839 -0.4718833808454025 -1.4697502837831196 0 0 0
405 125 4 0 -0.06663383189019016 -3.5154754434431448 -1.4469741726544363 0 0 0
403 125 2 0 -0.41459072868434554 -3.2188937360673604 -1.2491326962957887 0 0 0
128 33 4 0 -5.224636086952679 -3.3653632697805107 -0.6491090607295212 0 0 0
387 119 4 0 -5.579804062656143 -3.2037158587969503 -0.5169275423085684 0 0 0
179 50 4 0 -6.13740770051611 -3.0478391726644136 -1.6493623748418769 0 0 0
180 50 4 0 -5.505538424835754 -3.268759919842465 -0.9069014875222233 0 0 0
178 50 2 0 -5.814001623749219 -3.159157426081586 -1.2795996360712132 0 0 0
210 60 4 0 -3.4218156483141198 -3.2691908991928624 -1.3355152300290534 0 0 0
300 90 4 0 -3.9754341641219924 -1.7181347548662975 -1.0379728833486024 0 0 0
230 67 4 0 -3.4010307106880475 -2.896395247374755 -1.425325734200516 0 0 0
231 67 4 0 -3.862368058079355 -2.0342985718971978 -1.2318153162447183 0 0 0
229 67 2 0 -3.637471641997 -2.4502398028177796 -1.3277280927622102 0 0 0
233 68 4 0 -3.1807183851185483 -3.0836606977139676 -1.6193684029232231 0 0 0
159 43 4 0 -2.1349328871079005 -3.277549281145211 -0.4743226646413301 0 0 0
396 122 4 0 -3.0762533287392353 -3.134965640243097 -1.2755013778215707 0 0 0
395 122 4 0 -2.3915697033729466 -2.9925554791600897 -0.5221273169091698 0 0 0
394 122 2 0 -2.7258623791529635 -3.051341948240259 -0.8916137664077575 0 0 0
218 63 4 0 -2.023855195668688 -2.91835608758376 -0.6381103156001092 0 0 0
217 63 2 0 -1.5670465873794193 -2.8487340303560016 -0.7276491496377234 0 0 0
404 125 4 0 -0.7724371584546027 -2.9193515299400237 -1.052685992413948 0 0 0
219 63 4 0 -1.0793048740487454 -2.7769357967211694 -0.8107897798126423 0 0 0
297 89 4 0 -0.7155137340862788 -2.7393397290347155 -0.7011473128007681 0 0 0
295 89 2 0 -0.6070285838486594 -2.7240312745317863 -0.2113064216202309 0 0 0
1307 426 4 0 -5.7840726854532685 -0.04739745106799791 -1.4961592821381813 1 0 0
1199 390 4 0 -5.616538771644944 -0.42170303772126666 -1.4871122232819807 1 0 0
783 251 4 0 -5.971046484290644 -0.3580810604775024 -1.3350735291106386 0 0 0
1198 390 2 0 -5.127977434101242 -0.5044657162111006 -1.4730178222307286 1 0 0
165 45 4 0 -0.038145567100015064 -2.176989299482016 -6.310827608944128 0 0 0
227 66 4 0 -0.09442059340221806 -1.8453563525861183 -6.10050314995609 0 0 0
1053 341 4 0 -0.0607394534752977 -1.8127505028534205 -6.488439000185203 0 0 1
978 316 4 0 -6.420751575806853 -2.6331597793521238 -5.677942296728805 1 0 0
213 61 4 0 -1.5794246912193481 -6.569208813616707 -5.853934208300331 0 0 0
155 42 4 0 -1.281076832647121 -6.407884127106059 -5.587708971741515 0 0 0
452 141 4 0 -1.8735718926935667 -6.459321149468234 -3.581323293720613 0 1 0
498 156 4 0 -3.362122687338008 -0.14159861564287007 -2.994423668078939 0 0 0
385 119 2 0 -5.614817425988668 -3.1822525173740517 -0.0379257179299174 0 0 0
193 55 2 0 -4.40666973636616 -0.9201773132792228 -6.535736239900832 0 0 0
795 255 4 0 -6.19230423177792 -0.11062350230870684 -0.16179038937309906 0 0 0
364 112 2 0 -5.607672862813318 -6.033075393934147 0.6361938275532557 0 0 0
726 232 4 0 -6.106102614715916 -6.328443353094654 1.195978529950169 0 1 0
365 112 4 0 -5.730266659300341 -6.234341728235955 1.0901022000627851 0 0 0
366 112 4 0 -5.48965777091196 -5.838532809452781 0.1927316319820242 0 0 0
724 232 2 0 -6.286337340847656 -6.028111488065138 1.512852340829927 0 1 0
21 5 1 0 -0.9501992649932036 -5.638364626311612 0.7923395095682094 0 0 0
24 5 3 0 -1.1353338311969252 -5.231630994812718 0.5856627000213382 0 0 0
25 5 3 0 -0.41954059622289025 -5.585871302676527 0.8268762054179996 0 0 0
23 5 3 0 -1.054684926129925 -6.040844526517216 0.5119933255697655 0 0 0
1088 353 4 0 -0.2041312071134845 -5.859056909975031 0.6298902700130167 0 0 0
22 5 3 0 -1.1339631350895631 -5.691378488779149 1.2477007966318354 0 0 0
1022 331 4 0 -0.019112947348150593 -5.576555644996948 0.7918845278360609 0 0 0
374 115 4 0 -1.4263239270981505 -5.656848344813045 1.5278751761845022 0 0 0
255 75 4 0 -1.3846573155301005 -4.942672488679438 0.61274962797085 0 0 0
1169 380 4 0 -1.1197531208758027 -5.948493216272807 1.5500938065387402 0 0 0
1038 336 4 0 -5.699485277670811 -3.3979201089318107 0.7817858493915504 1 0 0
1036 336 2 0 -6.039269497376225 -3.778643686121787 0.8893230660589314 1 0 0
1037 336 4 0 -6.387615629185704 -4.1477971773558115 0.9907287179879236 1 0 0
1150 374 2 0 -6.498208106344496 -4.921884414125001 1.4564153258694095 1 0 0
630 200 4 0 -1.3790715439525874 -0.07165067314339776 5.347963122971402 0 0 0
1152 374 4 0 -6.43949253043463 -4.546441332418204 1.1237335959082644 1 0 0
253 75 2 0 -1.6864398906234357 -4.799193629027797 0.265040049667486 0 0 0
362 111 4 0 -1.0340297805378589 -4.973328236485936 0.8671908030990708 0 0 0
361 111 2 0 -0.7714148889618481 -4.586840628033297 0.9839023557042085 0 0 0
291 87 4 0 -0.5895462501646169 -3.856074068842867 0.934440751268533 0 0 0
363 111 4 0 -0.5108031960101247 -4.200612846588779 1.0898128248189651 0 0 0
289 87 2 0 -0.649616240199912 -3.4585664011644375 0.6700238247981201 0 0 0
1103 358 4 0 -0.417511290728169 -3.855256000572029 1.286807388851268 0 0 0
386 119 4 0 -5.639017313173003 -3.1604897206529885 0.470306738643146 0 0 0
674 215 4 0 -1.4538191909431595 -0.2728638449657848 3.2923590339081135 0 0 0
410 127 4 0 -5.808894703613746 -3.0184216324710325 0.7991329895143827 0 0 0
409 127 2 0 -5.5777094700594745 -2.638473303875127 1.0435260744313635 0 0 0
411 127 4 0 -5.3260908118990695 -2.2484208031201662 1.2750390931760662 0 0 0
293 88 4 0 -4.954751284828988 -2.1283068622445316 1.3219877619075104 0 0 0
273 81 4 0 -5.101245271059765 -2.2982986341834994 1.646473723401166 0 0 0
290 87 4 0 -0.7009226166424956 -3.0382747529021423 0.40051374847312554 0 0 0
296 89 4 0 -0.4937200753577595 -2.7173074438285787 0.27956881473604334 0 0 0
266 79 4 0 -0.5981734102386216 -2.749658914953091 0.6691505848423178 0 0 0
265 79 2 0 -0.5765220709730284 -2.356426795321211 0.9370915983749609 0 0 0
267 79 4 0 -0.5370111602009499 -1.9532092793840035 1.2134844205067685 0 0 0
793 255 2 0 -6.3829774356287 -0.28970465048821864 0.29417976198466134 0 0 0
304 92 2 0 -6.147254754687122 -0.41704331745793116 1.376664506999956 0 0 0
305 92 4 0 -6.4501573633909794 -0.6177153208608318 1.0525721423022447 0 0 0
292 88 2 0 -4.776039363151885 -1.6667130451050745 1.2827695838026671 0 0 0
294 88 4 0 -4.605126171274298 -1.2026595346545446 1.2383104655526256 0 0 0
284 85 4 0 -4.610658545604639 -1.0029573149230315 1.5792115352149205 0 0 0
1091 354 4 0 -0.6619320675495695 -1.6863600397337717 1.494193693013552 0 0 0
1529 500 4 0 -0.5667114638590289 -1.554737847206502 1.1325057158985836 0 0 0
1528 500 2 0 -0.23350570970580128 -1.2892539193421462 0.9121652585700717 0 0 0
696 222 4 0 -1.2867682677143548 -0.2897625097869705 5.67160694808551 0 0 0
1129 367 2 0 -0.1135526624358157 -0.3531004560201144 0.1338925344718013 0 0 0
725 232 4 0 -6.500299947493971 -5.703063010526193 1.8599170855489227 0 1 0
994 322 2 0 -5.931289857888517 -5.328114381273479 2.3214837314267904 1 0 0
995 322 4 0 -5.497256773166903 -5.201066135454724 2.502516125259697 1 0 0
348 106 4 0 -5.107072921577406 -5.367564146622233 2.6000490293748246 0 0 0
996 322 4 0 -6.398607426116306 -5.4588593069046505 2.133541596130301 1 0 0
334 102 2 0 -6.538419436071658 -6.205689873538589 2.575450771927904 0 0 0
694 222 2 0 -1.6349234666446026 -0.5944354030648886 5.774101058290143 0 0 0
941 304 4 0 -6.578063128074218 -4.662092870033422 6.110968575366232 1 0 -1
346 106 2 0 -5.098521470136198 -5.625753504823904 3.0245840959426364 0 0 0
1151 374 4 0 -6.559226274982185 -5.301808719546669 1.801654802413957 1 0 0
412 128 2 0 -4.770268713076472 -5.447830133452677 2.012174691092316 0 0 0
288 86 4 0 -3.5067338347159915 -6.155598792098513 2.366195015170109 0 0 0
34 7 3 0 -3.494048706923006 -6.241651894780141 2.757478709824818 0 1 0
414 128 4 0 -4.362919751705068 -5.641195649982123 1.7962341882462813 0 0 0
287 86 4 0 -4.004612115316542 -5.745598022617083 1.6170553618572838 0 0 0
286 86 2 0 -3.756140404607954 -5.947828504820176 1.9854732751915496 0 0 0
31 7 1 0 -3.521461308063087 -6.577521827165234 3.135231733401495 0 1 0
33 7 3 0 -3.5835709994757527 -6.330003804904125 3.5741522435762594 0 1 0
649 207 2 0 -4.6125663323954225 -6.559545745042847 3.4046118011586155 0 1 0
373 115 2 0 -1.7808505845114109 -5.518123725137793 1.8978630830660383 0 0 0
275 82 4 0 -3.324630644366191 -5.901187468811121 2.6365642859928062 0 0 0
375 115 4 0 -2.125421356974773 -5.40043270606864 2.2475491282542226 0 0 0
276 82 4 0 -2.4335048502114383 -5.475615767472374 2.475517526544447 0 0 0
274 82 2 0 -2.8866727273153794 -5.692916206938427 2.5579097712595917 0 0 0
392 121 4 0 -2.447295378767516 -5.1580174483380015 2.227611389428203 0 0 0
1001 324 4 0 -0.36335839030020733 -5.978261889379914 2.6306269052593545 0 0 0
1168 380 2 0 -0.7980966954556804 -6.078901797003812 1.9296059573446116 0 0 0
1000 324 2 0 -0.31480241739142345 -6.029271780724591 3.1195255157704276 0 0 0
1170 380 4 0 -0.4850717613082074 -6.20829034926928 2.307435657085552 0 0 0
1109 360 4 0 -0.12500821210951288 -6.249135686564249 2.4877978313572657 0 0 0
413 128 4 0 -5.205495912538676 -5.260386097900483 2.2253431948496636 0 0 0
391 121 2 0 -2.4597213653236567 -4.709491648996987 2.43812399563017 0 0 0
393 121 4 0 -2.4687832310315927 -4.286798286834102 2.6475223077931416 0 0 0
264 78 4 0 -2.5651176752359763 -4.028098183179783 2.3478195407515705 0 0 0
262 78 2 0 -2.5649087407291256 -3.6316180603959967 2.6848752747077302 0 0 0
1102 358 2 0 -0.13234840829501476 -3.7293102822107027 1.6859650391270236 0 0 0
271 81 2 0 -4.916224277461193 -2.5591194069302325 2.023786750289599 0 0 0
1066 346 2 0 -5.268371647400989 -2.7955798050178124 3.107429175082046 1 0 0
1068 346 4 0 -5.655499939049347 -2.8299322283496156 3.420572181442463 1 0 0
1067 346 4 0 -4.873489018423939 -2.7649883673706297 2.7853370359838796 1 0 0
272 81 4 0 -4.721122029930257 -2.8320385406446613 2.4125791570830524 0 0 0
420 130 4 0 -4.520122822592934 -2.906496440860626 2.7588040980132904 0 0 0
418 130 2 0 -4.149511900603966 -2.627597173874691 2.952200247850927 0 0 0
314 95 4 0 -3.604879566446831 -1.9980658571602206 3.0253570254735163 0 0 0
419 130 4 0 -3.78556451469009 -2.3675699333189617 3.120700774777647 0 0 0
278 83 4 0 -3.4048395858708953 -2.2997891933040537 3.139659292627032 0 0 0
350 107 4 0 -3.661047015948621 -2.117596324318723 3.3870925153540976 0 0 0
263 78 4 0 -2.558881903522092 -3.2642413463656945 3.0196069958028326 0 0 0
277 83 2 0 -3.0688159437168765 -2.6502240321019035 3.2050136660044046 0 0 0
402 124 4 0 -2.3817759413687845 -3.1712847048927797 3.3524991439337066 0 0 0
400 124 2 0 -1.8677496670292777 -3.0567731423118065 3.3996666579967925 0 0 0
279 83 4 0 -2.737839733206137 -2.988345884725886 3.273215337857301 0 0 0
317 96 4 0 -2.725027502346318 -3.4083691656670876 3.3537672688572253 0 0 0
345 105 4 0 -0.25458668279259494 -1.854667446493249 2.8027580035102457 0 0 0
1092 354 4 0 -0.4449648361817995 -1.7719387073743218 2.487965824333863 0 0 0
993 321 4 0 -0.6083351270545823 -2.0823374480405104 2.666872820536058 0 0 0
991 321 2 0 -0.9434773286481646 -2.3933371787978728 2.9405589701759856 0 0 0
992 321 4 0 -1.2599931302468526 -2.69383909866214 3.1931963682030835 0 0 0
1090 354 2 0 -0.555818523663069 -1.7222871093390046 1.9717474794380456 0 0 0
258 76 4 0 -1.0164249484766306 -2.9418577417449487 3.424471525069239 0 0 0
401 124 4 0 -1.3996246504489422 -2.9562180254355517 3.4461302270971137 0 0 0
742 238 2 0 -5.887920197147703 -0.2834433079178079 2.4095295426557897 0 0 0
743 238 4 0 -6.110923231489089 -0.4096142564624794 1.9622120161114207 0 0 0
678 216 4 0 -5.767399032403967 -0.07184655035225171 3.2572891105624238 0 0 0
306 92 4 0 -5.836316243807184 -0.22219751449098551 1.7114610292919525 0 0 0
744 238 4 0 -5.667297290139478 -0.1520137792636968 2.8483926328769735 0 0 0
313 95 2 0 -3.6855667485007984 -1.543001340048293 2.801436236846298 0 0 0
283 85 2 0 -4.324228748474686 -0.9398490281205435 1.972246086417747 0 0 0
315 95 4 0 -3.7651693290436383 -1.0786699382202958 2.5826136465400156 0 0 0
285 85 4 0 -4.033061180035191 -0.8854527649096553 2.361658204538159 0 0 0
389 120 4 0 -3.703250200053761 -0.7113688603747833 2.4749960647337144 0 0 0
369 113 4 0 -3.9908355071584225 -0.8173368812801768 2.7526626220397006 0 0 0
388 120 2 0 -3.468693258814955 -0.24999553468946936 2.538569290928738 0 0 0
367 113 2 0 -4.287595917094658 -0.7270957926133852 3.1721696221819173 0 0 0
347 106 4 0 -5.084674973048416 -5.897727542721079 3.466176301444309 0 0 0
1177 383 2 0 -5.27024060444661 -6.012762261974598 4.314582889751038 1 0 0
1179 383 4 0 -5.1994206076195555 -6.020039002825985 3.8154677512602975 1 0 0
635 202 4 0 -5.33031400944592 -6.229152418119895 3.526810196470379 0 1 0
1178 383 4 0 -5.351889071253981 -5.988303269369702 4.808351862929195 1 0 0
634 202 2 0 -5.759308247723062 -6.4541933037569885 3.3372110349011823 0 1 0
651 207 4 0 -4.938115997699808 -6.250975578471991 3.6267534711166753 0 1 0
1059 343 4 0 -5.678920368101983 -5.789234198737326 4.909987319935489 1 0 0
926 299 4 0 -6.2559672158175985 -4.677165121916382 6.349865184326264 1 0 -1
794 255 4 0 -6.56170510198037 -0.4545589973564461 0.7302624094116911 0 0 0
1002 324 4 0 -0.24747172256484173 -6.068109741914604 3.598575455497122 0 0 0
261 77 4 0 -0.24837606049777164 -5.796139441554808 3.890664010375819 0 0 0
259 77 2 0 -0.34735543154280274 -5.38812295487582 4.161637284301109 0 0 0
260 77 4 0 -0.43788198556672503 -4.991521232029562 4.4242797856707305 0 0 0
1041 337 4 0 -0.03289150286719611 -6.125071571249359 3.9036061357558585 0 0 0
1039 337 2 0 -0.01676081652103647 -6.535523968120387 4.186468220015193 0 0 0
765 245 4 0 -1.6211043819856978 -4.854748418791904 4.579999861844562 0 1 0
309 93 4 0 -1.6879687043334113 -4.480028402787975 4.417891181902225 0 0 0
307 93 2 0 -2.149522897689587 -4.26925574590429 4.378081888155016 0 0 0
316 96 2 0 -2.7556143251201473 -3.5624387776890725 3.8177928763624087 0 0 0
318 96 4 0 -2.794832837896673 -3.7052953452015576 4.282450842681766 0 0 0
308 93 4 0 -2.6017113965342054 -4.053770853234147 4.3299349886236325 0 0 0
256 76 2 0 -0.683822854396964 -3.1829275804615804 3.7236990361519555 0 0 0
764 245 4 0 -0.5807282864006672 -4.713261113112241 4.638689350947831 0 1 0
1145 372 4 0 -0.18739861598460825 -4.785506598485533 4.647272163965697 0 0 0
763 245 2 0 -1.0991919408080955 -4.785425169822746 4.604469073872153 0 1 0
339 103 4 0 -0.3616768621771619 -4.599380442375997 4.35078929952863 0 0 0
338 103 4 0 -0.1443350858370244 -3.7373123335341116 3.9209575525171294 0 0 0
337 103 2 0 -0.2469407116980293 -4.150653509708335 4.123194463904585 0 0 0
257 76 4 0 -0.35886271557142546 -3.4134496118151043 4.028167716934744 0 0 0
1140 370 4 0 -5.603697520334218 -3.041484399721324 3.7704390870548767 1 0 0
1138 370 2 0 -5.47368712623169 -2.7899074533040507 4.196843144325125 1 0 0
1101 357 4 0 -5.198217596328594 -2.6727299873197676 4.95345519808606 1 0 0
1139 370 4 0 -5.342066311659893 -2.534006459757504 4.623137191575791 1 0 0
372 114 4 0 -4.942590733115472 -2.5303935837736247 4.646951209151622 0 0 0
349 107 2 0 -3.8429680935837363 -1.9316664623720643 3.8137243821759297 0 0 0
351 107 4 0 -4.032909216419906 -1.7415159090993846 4.243605304310756 0 0 0
371 114 4 0 -4.220912234901639 -1.791706110590344 4.573500918868061 0 0 0
370 114 2 0 -4.598334334299527 -2.176540134319526 4.609997618119668 0 0 0
676 216 2 0 -5.341638955993253 -0.31956704323661983 3.4464234737525707 0 0 0
612 194 4 0 -3.8688019619290843 -1.6154056954714793 4.570842903253525 0 0 -1
617 196 4 0 -4.141030101118897 -1.5038966706291943 4.838654313518535 0 0 0
610 194 2 0 -3.4041792081361675 -1.4194031900227686 4.689209433998104 0 0 -1
677 216 4 0 -4.948929756077332 -0.5350400602786388 3.622792691865536 0 0 0
672 214 4 0 -4.201994812498555 -1.4486738006112985 4.446255176560898 0 0 0
671 214 4 0 -4.76835388554122 -0.8027473517390177 3.862208281814873 0 0 0
368 113 4 0 -4.561868195598136 -0.6359656533255788 3.56416545017879 0 0 0
670 214 2 0 -4.489333732878575 -1.1180950245407888 4.156784970696339 0 0 0
673 215 2 0 -1.9175535255717902 -0.24192868125868822 3.4313342431214666 0 0 0
675 215 4 0 -2.400925012394261 -0.2010834890123862 3.5826240645761565 0 0 0