LAMMPS data file via write_data, version 29 Aug 2024, timestep = 9000000, units = lj

1530 atoms
4 atom types
1030 bonds
1 bond types
575 angles
2 angle types

-6.58545 6.58545 xlo xhi
-6.58545 6.58545 ylo yhi
-6.58545 6.58545 zlo zhi

Masses

1 1
2 1
3 1
4 1

Bond Coeffs # harmonic/omp

1 100 0.5

Angle Coeffs # harmonic/omp

1 100 180
2 100 109.471

Atoms # full

116 29 4 0 -5.975174172463475 -5.4608360477698366 -5.342717703305952 0 0 0
234 68 4 0 -5.999069157918776 -5.314701185615092 -5.700553948055299 0 0 0
174 48 4 0 -5.989197499528065 -5.711726138359214 -5.673545413765001 0 0 0
232 68 2 0 -5.781736575561529 -4.920045603776206 -5.940940674513883 0 0 0
147 39 4 0 -4.393248101976282 -6.103154910527236 -5.511926611593072 0 0 0
239 70 4 0 -4.3516917179087 -5.710456251082835 -5.584800115680637 0 0 0
238 70 2 0 -4.065663137235012 -5.367976469464507 -5.373213054419863 0 0 0
240 70 4 0 -3.7697147503562474 -4.999116173842979 -5.1576006089999495 0 0 0
3 1 3 0 -3.5454750311616734 -5.655436088073446 -6.0077659156875685 0 0 0
1 1 1 0 -3.09073076176908 -5.58784722492451 -6.1825214346069055 0 0 0
2 1 3 0 -2.793832698959367 -5.415892992075411 -5.801568489660393 0 0 0
123 31 4 0 -2.405612804844608 -5.354098353658144 -5.750664755917427 0 0 0
126 32 4 0 -2.6551046457182528 -5.244566913297573 -5.478771026728248 0 0 0
121 31 2 0 -2.0646662606564683 -5.138461999030132 -6.05570142463974 0 0 0
124 32 2 0 -3.042299248570755 -5.060971201108293 -5.239010217504838 0 0 0
606 192 4 0 -2.669602804901654 -6.333278916056216 -6.357200062232133 0 1 1
122 31 4 0 -1.727294276061053 -4.9226386653604655 -6.371042993260973 0 0 0
282 84 4 0 -0.43918157369249344 -5.334366482230017 -6.150283430808898 0 0 1
280 84 2 0 -0.8753226606635045 -5.122373729053511 -6.255481224418904 0 0 1
130 34 2 0 -0.08774191325046633 -5.655363447391024 -5.390888830705083 0 0 0
131 34 4 0 -0.22113104050863466 -5.494662891096135 -5.855279786646305 0 0 0
134 35 4 0 -0.21337026083588465 -5.665870743803553 -6.2197382187169445 0 0 0
233 68 4 0 -5.5618870822420075 -4.5133471037733415 -6.191381767151489 0 0 0
218 63 4 0 -5.282970890174805 -4.238604945490698 -6.28618633981172 0 0 0
85 19 2 0 -6.006439606403926 -3.7613558784553724 -6.213068320394295 0 0 0
86 19 4 0 -5.6853495610850375 -4.1521353791026545 -6.278363766960171 0 0 0
192 54 4 0 -5.516147039771428 -4.383327581940317 -6.554716505938821 0 0 0
217 63 2 0 -4.851501464211564 -4.2075775863739455 -6.048730777534423 0 0 0
98 23 4 0 -4.108750269340988 -3.887905241062477 -5.813067923738421 0 0 0
219 63 4 0 -4.411715365827635 -4.171883630392914 -5.791022310307232 0 0 0
97 23 2 0 -3.8809872130753855 -4.241104689518481 -5.509134325993178 0 0 0
125 32 4 0 -3.4318191194290057 -4.8740597138057735 -4.991790415089802 0 0 0
99 23 4 0 -3.661786432771438 -4.598479555610363 -5.210267698424746 0 0 0
182 51 4 0 -0.03738108076087904 -3.4739401110704784 -4.909990446364795 0 0 0
269 80 4 0 -1.4390413377978375 -3.3329553378950796 -6.402900753143182 0 0 1
316 96 2 0 -2.2288225409598743 -1.9864003310149505 -6.100763579906737 0 0 1
318 96 4 0 -2.263410084007207 -2.2361828832069772 -6.5310535951497695 0 0 1
270 80 4 0 -1.8877729650697983 -2.383781892466668 -6.488510124897449 0 0 1
317 96 4 0 -2.2021236647727997 -1.7278034437898615 -5.664601007863428 0 0 1
268 80 2 0 -1.6605505533608573 -2.8605053318729996 -6.444113805682601 0 0 1
1199 390 4 0 -0.1649549798605847 -3.1890877816543735 -4.637707652949153 0 0 0
842 271 4 0 -0.395842869849494 -3.5039434144283668 -4.733905393025255 0 0 0
843 271 4 0 -1.3102763063785627 -3.3376762478269177 -4.461513906428882 0 0 0
841 271 2 0 -0.855542704626123 -3.419801260085078 -4.600994677760385 0 0 0
89 20 4 0 -3.467033285408936 -0.013927139585206316 -5.347333225467846 0 0 0
88 20 2 0 -3.5130086371148708 -0.48108573087715456 -5.2012083487839105 0 0 0
90 20 4 0 -3.5563293514432512 -0.9851951405562664 -5.044874396688356 0 0 0
560 177 4 0 -1.7548936183636703 -0.019767236121984832 -5.706743427371883 0 0 0
169 47 2 0 -2.8991465627610538 -1.3948205644248244 -5.224212471001153 0 0 0
170 47 4 0 -2.4833509228115513 -1.4760727434129695 -5.510339681226948 0 0 0
111 27 4 0 -2.157219013772982 -1.3398979713464736 -5.694278376326085 0 0 0
109 27 2 0 -2.078762219196752 -0.8423184153545709 -5.693349749976461 0 0 0
110 27 4 0 -1.999011096842087 -0.3353594124739555 -5.707704341291668 0 0 0
515 162 4 0 -2.0072877832135188 -0.11293199657762515 -6.02775994444176 0 0 0
210 60 4 0 -0.00914665683184409 -2.698638844745294 -0.3629503754720728 0 0 0
514 162 2 0 -1.8864799516934847 -0.06101299890081598 -6.531667595623705 0 0 0
115 29 2 0 -5.919253717592137 -5.426674208800629 -4.865348836987881 0 0 0
894 288 4 0 -5.845416600679918 -5.661297674405552 -4.052418966557761 1 0 0
117 29 4 0 -5.870499054981447 -5.393301815605774 -4.393090706840036 0 0 0
857 276 4 0 -6.071319531702516 -5.329232230747328 -4.069561400254428 1 0 0
81 17 4 0 -5.67322275927317 -5.285546249311499 -4.066766944686586 0 0 0
892 288 2 0 -5.677805673226221 -6.129528936981203 -3.9197180441950943 1 0 0
79 17 2 0 -5.281457294617413 -4.957861711050664 -4.0591022461393385 0 0 0
856 276 2 0 -6.5237187870493125 -5.181886512214044 -3.8365085181049245 1 0 0
773 248 4 0 -2.0335611630381583 -0.3181743724316362 -0.39611594500202396 0 0 0
113 28 4 0 -3.7754477998704874 -4.755935106671333 -4.826476987054566 0 0 0
112 28 2 0 -4.162576784940891 -4.674206490587045 -4.514674032678584 0 0 0
114 28 4 0 -4.543565751829852 -4.597325521333563 -4.216849432584378 0 0 0
206 59 4 0 -4.873043233477046 -3.276666188898718 -4.4709279165584315 0 0 0
80 17 4 0 -4.906403099710067 -4.645522523403397 -4.046042220655719 0 0 0
205 59 2 0 -4.826503263198279 -3.7639032867151863 -4.298393128571733 0 0 0
207 59 4 0 -4.7922464006872945 -4.255011186098143 -4.133793448632295 0 0 0
185 52 4 0 -3.4718285836660536 -4.492706782861574 -4.870993236529067 0 0 0
184 52 2 0 -3.1685574010731123 -4.224942706092377 -4.600970998664593 0 0 0
424 132 2 0 -2.0174330676891254 -3.6534885781799926 -4.24092243316068 0 0 1
186 52 4 0 -2.8497048899647415 -3.9402581173398343 -4.331391313600131 0 0 0
426 132 4 0 -2.500042887789424 -3.754831952485587 -4.297821805196756 0 0 1
201 57 4 0 -2.87000066640848 -3.593257879565718 -4.183318256458881 0 0 0
199 57 2 0 -2.9837152641158564 -3.4043568670843802 -3.749630371336857 0 0 0
425 132 4 0 -1.5181313988912948 -3.556459905693136 -4.191066043271885 0 0 1
921 297 4 0 -6.068570873587945 -1.8355008965534865 -4.744871020675582 1 0 0
118 30 2 0 -5.2971589210488235 -1.9861560018800635 -4.485502958387184 0 0 0
120 30 4 0 -5.781443468541621 -1.9163139104154312 -4.470396284822509 0 0 0
227 66 4 0 -4.50754679987924 -3.181512214444576 -4.575957510939818 0 0 0
226 66 2 0 -4.464639484358837 -2.676569041580415 -4.507510849791701 0 0 0
119 30 4 0 -4.818399684379231 -2.0444932020354782 -4.490854229051414 0 0 0
228 66 4 0 -4.43520997332992 -2.1877865729472936 -4.435578330697796 0 0 0
150 40 4 0 -4.606510221640421 -1.9399182822263048 -4.159867159239256 0 0 0
212 61 4 0 -4.503342145090311 -1.7857770880959725 -4.505063775441208 0 0 0
148 40 2 0 -4.407625473664835 -1.973730678060409 -3.6941609622190494 0 0 0
200 57 4 0 -3.0876830893051426 -3.2200024529009834 -3.3157167358630475 0 0 0
161 44 4 0 -1.7289786338408246 -1.2576226824505168 -3.4502537722461084 0 0 0
713 228 4 0 -2.040370208634964 -0.09088367282770263 -0.747962704776664 0 0 0
567 179 4 0 -1.4840944877832767 -1.5347773936181086 -3.579954281624864 0 0 0
213 61 4 0 -3.662903716838704 -1.26649045871267 -4.769910684963459 0 0 0
211 61 2 0 -4.078588107902424 -1.5213109426488982 -4.63825615035134 0 0 0
102 24 4 0 -3.369886932716079 -1.0313640698228737 -4.651411034042311 0 0 0
171 47 4 0 -3.3086080940174343 -1.3168117941066608 -4.937826542001664 0 0 0
160 44 2 0 -2.240125537753569 -1.2307987863745877 -3.472752673431161 0 0 0
162 44 4 0 -2.7393809846097668 -1.1926788452418322 -3.497731973479117 0 0 0
100 24 2 0 -3.182374237143957 -1.0120313934877456 -4.195741326169563 0 0 0
101 24 4 0 -2.995010517784692 -0.9897001244910376 -3.7492413398229623 0 0 0
77 16 4 0 -3.1318505652710966 -1.1844732158301379 -3.403012116717764 0 0 0
136 36 2 0 -0.08089228035581712 -1.560594047086396 -4.450975066627566 0 0 0
565 179 2 0 -1.1537215986921012 -1.3883323644866554 -3.9214130723023892 0 0 0
137 36 4 0 -0.4175231877970405 -1.2242825572679505 -4.2548278625735945 0 0 0
566 179 4 0 -0.8135422531400315 -1.2362496231195277 -4.289402276323234 0 0 0
564 178 4 0 -0.6346894572658609 -0.8873243001791014 -4.215574735124373 0 0 0
562 178 2 0 -0.7021891293962154 -0.40726486815740254 -4.096281828263897 0 0 0
149 40 4 0 -4.204733507287646 -2.0256899950745657 -3.210230907764102 0 0 0
176 49 4 0 -3.926724977783888 -2.2753813153389792 -3.0458324580294964 0 0 0
175 49 2 0 -3.694551361271812 -2.6988117659641015 -3.1627467128787763 0 0 0
244 72 2 0 -4.119576560087087 -2.060935618798273 -2.3694220522783245 0 0 0
245 72 4 0 -4.099889271695519 -1.9621266425442827 -2.837942628958407 0 0 0
246 72 4 0 -4.137781769591512 -2.154338348682226 -1.9290010950670855 0 0 0
78 16 4 0 -3.8355578323267485 -1.8640951285385918 -3.1210449949063745 0 0 0
177 49 4 0 -3.472011747572065 -3.0950914780816396 -3.2792162243457064 0 0 0
76 16 2 0 -3.491627449878905 -1.5375690921037939 -3.2610965714849507 0 0 0
818 263 4 0 -1.4344374559789002 -1.375969252339418 -3.226935381222134 0 0 0
931 301 2 0 -1.6022696458667414 -1.3258708680454785 -1.6495892091431976 0 0 0
817 263 2 0 -1.2911891241861517 -1.312399779115366 -2.7792508512665854 0 0 0
819 263 4 0 -1.1409863298109335 -1.2341185828104193 -2.3218275780935262 0 0 0
932 301 4 0 -1.211902525191433 -1.1757907745138758 -1.916539967415674 0 0 0
257 76 4 0 -1.197971484647197 -0.8568987267855044 -2.173205083412394 0 0 0
256 76 2 0 -1.1454372189362498 -0.41868162814415333 -1.9392011650543404 0 0 0
82 18 2 0 -2.1326072374596703 -6.259858303082733 -1.100350478414478 0 0 0
83 18 4 0 -2.5301227916856384 -5.988017721855854 -0.9440840595326568 0 0 0
180 50 4 0 -2.59451389224525 -5.899256716476127 -0.5712178081855095 0 0 0
164 45 4 0 -2.3650194823036568 -5.671864298912588 -0.8058674890592019 0 0 0
163 45 2 0 -2.1579086407320545 -5.27353272497368 -0.5399467896165208 0 0 0
178 50 2 0 -2.9530621654920477 -5.9728030400465295 -0.22760842393148514 0 0 0
84 18 4 0 -1.7061157624469905 -6.540474441400197 -1.2462564635074833 0 0 0
722 231 4 0 -0.567381976736201 -6.514255068168464 -0.4464852559256148 0 1 0
404 125 4 0 -0.35359712711278934 -6.181335558895598 -0.47128175112608006 0 0 0
403 125 2 0 -0.454043703509415 -5.725640734477975 -0.2608110874132351 0 0 0
1469 480 4 0 -0.30992934969725927 -6.454337596509193 -0.7767977959061403 0 1 0
585 185 4 0 -0.6270765416446723 -6.2295014688273875 -0.7424126976837121 0 1 0
583 185 2 0 -0.9944825067440555 -6.30543305938967 -1.0628728942269996 0 1 0
103 25 2 0 -1.2910067380335206 -4.811410910525906 -0.017484628927624975 0 0 0
310 94 2 0 -4.06087564730786 -3.516537997929353 -0.4140038501577155 0 0 0
312 94 4 0 -3.8330617258833857 -3.2907039494095014 -0.8017677344619043 0 0 0
419 130 4 0 -3.463363082013238 -3.2246807053261466 -0.7797988833864901 0 0 0
165 45 4 0 -1.9575243573903132 -4.88018979247184 -0.2723088679766524 0 0 0
106 26 2 0 -2.2140670379122245 -4.112655570399311 -0.41594212218009735 0 0 0
107 26 4 0 -2.3059135645832236 -3.7066768665994494 -0.6800798971254303 0 0 0
420 130 4 0 -2.558575857534371 -3.464034523210483 -0.46499675165434445 0 0 0
350 107 4 0 -2.1751192495505376 -3.3422407384081816 -0.5713729010679666 0 0 0
108 26 4 0 -2.118362573343762 -4.5191120009649035 -0.15151946599693059 0 0 0
104 25 4 0 -1.7433550871103471 -4.6002921704447335 -0.12837716553068165 0 0 0
418 130 2 0 -3.0224640854354856 -3.341115233222745 -0.6248996235153808 0 0 0
584 185 4 0 -1.3505657830441196 -6.3844546861183975 -1.3692111230633086 0 1 0
237 69 4 0 -4.177376211409972 -2.054716682742921 -1.555247198893184 0 0 0
216 62 4 0 -3.8320144392189466 -2.2497182915577385 -1.68382272231001 0 0 0
215 62 4 0 -3.6926591591841054 -3.0154905779879724 -1.058036080840807 0 0 0
214 62 2 0 -3.764224415300327 -2.6317640041594736 -1.3782256715185957 0 0 0
235 69 2 0 -4.6067214784749595 -1.901913755700182 -1.3991777073956972 0 0 0
349 107 2 0 -1.8527508354547968 -2.9960332877496754 -0.48163963915876506 0 0 0
142 38 2 0 -1.7375313840134219 -1.9471438038500783 -0.7189777617410298 0 0 0
275 82 4 0 -1.5622020470355322 -2.4263920392196865 -0.03821234382668337 0 0 0
351 107 4 0 -1.5218633280450704 -2.635139057456415 -0.3773150103145695 0 0 0
143 38 4 0 -1.5570918579863606 -2.2275502825968085 -0.3772892521257626 0 0 0
221 64 4 0 -1.2327229820630667 -2.414423034207703 -0.2075637498517061 0 0 0
220 64 2 0 -0.7737412347518329 -2.5892498292665587 -0.17005095161639067 0 0 0
1017 329 4 0 -0.05751733894415258 -3.032437376067033 -0.13383605289838693 0 0 0
222 64 4 0 -0.3264497097252472 -2.756432238209877 -0.1349216409986032 0 0 0
347 106 4 0 -5.559591614199764 -1.441073179559487 -0.23069614024639476 0 0 0
346 106 2 0 -5.249507030707442 -1.442130857070479 -0.6331083578189921 0 0 0
295 89 2 0 -6.2999259366368445 -1.2076109280411513 -0.10963709738065064 0 0 0
236 69 4 0 -5.062347429403509 -1.7223306597681063 -1.2297872501203964 0 0 0
348 106 4 0 -4.958915188716403 -1.4353155704599125 -0.9998109575321084 0 0 0
144 38 4 0 -1.9146515519660139 -1.6707523209412187 -1.0640285521259323 0 0 0
450 140 4 0 -2.154316099287972 -1.3392749133011594 -1.04214403344051 0 0 0
448 140 2 0 -2.2195673946309706 -0.884043889354663 -0.876200281065358 0 0 0
446 139 4 0 -2.339271577427882 -0.09787189296381378 -0.47202111818481457 0 0 0
449 140 4 0 -2.289767426103123 -0.4089990884327181 -0.7076671296631266 0 0 0
933 301 4 0 -1.9932276184505429 -1.4744802974024016 -1.3898636443162762 0 0 0
172 48 2 0 -6.310977641845481 -5.930018111532646 -5.974390256083865 0 0 0
87 19 4 0 -6.322964311645892 -3.3755374161445455 -6.150564401261199 0 0 0
919 297 2 0 -6.574626186262989 -1.938805597394664 -4.704102297741271 1 0 0
145 39 2 0 -4.2788079169231485 -6.548709691607023 -5.361835422112339 0 0 0
241 71 2 0 -0.12057854405624982 -6.543183504270821 -4.773873274606947 0 0 0
405 125 4 0 -0.5609257927851733 -5.266680182709509 -0.0411767272011666 0 0 0
311 94 4 0 -4.303059402522111 -3.759968662884114 -0.0178685099496403 0 0 0
4 1 3 0 -3.0929392932831585 -5.245577039859754 -6.54819191407033 0 0 0
5 1 3 0 -2.9085111882552424 -6.01127361445138 -6.357597677702247 0 0 0
972 314 4 0 -1.5173983492909953 -4.637835152531456 -6.572782115061355 0 0 1
971 314 4 0 -1.380167539708995 -3.694004604363447 -6.2462522298395005 0 0 1
970 314 2 0 -1.449689759376494 -4.1755999370313015 -6.407406466469395 0 0 1
281 84 4 0 -1.3266457560715263 -4.900192633803799 -6.355287588199226 0 0 1
767 246 4 0 -5.694046701668994 -6.216808776578533 0.7465094923082756 0 1 0
362 111 4 0 -5.336099672912849 -6.071690061328904 0.6875614082859351 0 0 0
356 109 4 0 -5.605268760624163 -6.108583968917416 0.3776228640362331 0 0 0
766 246 2 0 -6.090104599519716 -5.972136804154403 1.0019562725573037 0 1 0
768 246 4 0 -6.466766878033457 -5.736748690808616 1.238592776554697 0 1 0
361 111 2 0 -5.037277582454001 -5.67629706516642 0.7555919606659413 0 0 0
400 124 2 0 -6.340306770587298 -5.028101558414117 1.5186110016099243 0 0 0
363 111 4 0 -4.732293886030902 -5.26827781436865 0.8276247609237305 0 0 0
298 90 2 0 -3.960492138536442 -5.515488766703074 0.508602098989228 0 0 0
299 90 4 0 -3.588119215947885 -5.766695583447997 0.25903714129386424 0 0 0
300 90 4 0 -4.330751189281299 -5.264463276375481 0.7561753943653136 0 0 0
290 87 4 0 -4.482894054005153 -5.153503517849751 1.0997334121549904 0 0 0
179 50 4 0 -3.311695766702228 -6.038730376397048 0.10909013074900198 0 0 0
224 65 4 0 -3.267676665595371 -5.902818242116539 0.4896011306803192 0 0 0
431 134 4 0 -4.831229507859544 -4.96974429052261 1.0752844461535145 0 0 0
289 87 2 0 -4.17074471769728 -5.031598169425591 1.470223730794017 0 0 0
267 79 4 0 -4.546965462910672 -4.925663470637341 0.7734773092366913 0 0 0
223 65 2 0 -2.9499328158429914 -5.688343778789282 0.8215736716175033 0 0 0
225 65 4 0 -2.6347823408108972 -5.457592016671863 1.1552991153558638 0 0 0
395 122 4 0 -2.2519834474056504 -5.362072922079974 1.27704679115535 0 0 0
394 122 2 0 -1.8296977439462816 -5.631472593954388 1.3080961461947371 0 0 0
641 204 4 0 -2.581745659215442 -5.117012508726925 1.3585752763862895 0 1 0
158 43 4 0 -2.4141752688042932 -5.121435826047677 0.9893923472153364 0 0 0
640 204 2 0 -3.0367491247423515 -4.993884955523025 1.6189176938223395 0 1 0
301 91 2 0 -0.8752181767601678 -5.502095365021217 0.7393270606863714 0 0 0
303 91 4 0 -1.0941335207061538 -5.732659998681297 1.1409332942528196 0 0 0
753 241 4 0 -1.1035886979723186 -6.124174797067597 1.2195729289363053 0 1 0
302 91 4 0 -0.6514099048750303 -5.286595763695445 0.3416699074001332 0 0 0
828 266 4 0 -0.44955280688407984 -4.9833351287544225 0.18538555983672333 0 0 0
751 241 2 0 -1.0035191054873545 -6.558461517701247 0.9811211442554088 0 1 0
396 122 4 0 -1.4132136043487744 -5.8963192724746065 1.332375014946973 0 0 0
308 93 4 0 -1.061188911550413 -5.887089424862206 1.5210862355266486 0 0 0
1110 360 4 0 -0.7932792930859477 -6.533615959761612 5.322750834074135 0 0 0
105 25 4 0 -0.8378476218446633 -5.021030983430827 0.08348418342644823 0 0 0
430 134 2 0 -5.24350923070699 -4.77864607829004 1.338994199181018 0 0 0
352 108 2 0 -4.93162975840674 -3.425722169437841 0.23059394776497896 0 0 0
265 79 2 0 -4.440469854677334 -4.504971088506047 0.5060505342317494 0 0 0
266 79 4 0 -4.335790729921195 -4.09152664554243 0.22130980067616232 0 0 0
413 128 4 0 -4.123047345147566 -3.7794400500446423 0.3560271160011176 0 0 0
354 108 4 0 -4.528842783358476 -3.7431465690603143 0.30932341045686035 0 0 0
412 128 2 0 -3.880993695069166 -3.598829247922114 0.7450242487248403 0 0 0
719 230 4 0 -2.0823224236198326 -0.21311528377313935 3.001413170621769 0 0 0
414 128 4 0 -3.635673145209409 -3.408909621312421 1.1445662634733713 0 0 0
321 97 4 0 -3.2718412971903534 -3.4001243046359666 1.3198932740749334 0 0 0
332 101 4 0 -3.5996315879528193 -3.6166692876520337 1.4911498537128582 0 0 0
157 43 2 0 -2.1978669364076557 -4.958920096175332 0.5533080592259811 0 0 0
319 97 2 0 -2.768960542886394 -3.385058523672329 1.4415502270177452 0 0 0
320 97 4 0 -2.26517766938023 -3.36415878005417 1.5615293791135256 0 0 0
368 113 4 0 -1.8885887021588643 -3.4612851155422995 1.5396995648755156 0 0 0
826 266 2 0 -0.14248129768512294 -4.624318360804078 0.2764995826742997 0 0 0
1015 329 2 0 -0.04662519304335128 -3.482679977206272 0.13471472000363094 0 0 0
353 108 4 0 -5.337087858439744 -3.1032679051837677 0.14093008018013042 0 0 0
366 112 4 0 -5.362115844517746 -2.7139996219505 0.12960118210778934 0 0 0
364 112 2 0 -5.494576415657989 -2.2233451967213287 0.10192658399269326 0 0 0
365 112 4 0 -5.623355011344494 -1.7110883880549914 0.07781204757174479 0 0 0
422 131 4 0 -3.6329325501555005 -2.221675619288956 1.2106935831754357 0 0 0
421 131 2 0 -3.609756599740401 -2.7139232050536677 1.3456337321804637 0 0 0
423 131 4 0 -3.586497928429107 -3.2184968715937927 1.4884382453178846 0 0 0
384 118 4 0 -3.355333504969 -1.9298873569819417 1.0560361877848465 0 0 0
326 99 4 0 -3.6667315424591274 -1.7963718723817619 1.2571240141131093 0 0 0
380 117 4 0 -2.0362621173552284 -2.146494227758249 1.1145990745812187 0 0 0
379 117 2 0 -2.0141572704061677 -2.6003188183128954 1.3345067555184367 0 0 0
276 82 4 0 -1.9892292352257526 -2.024518298363227 0.7347275549082799 0 0 0
382 118 2 0 -2.842810006383503 -1.926865261144408 1.0014132304595291 0 0 0
383 118 4 0 -2.3167457002857064 -1.9236323559583641 0.9392236319567763 0 0 0
261 77 4 0 -2.0036477489295508 -1.74940067297345 1.0636190703763144 0 0 0
274 82 2 0 -1.779316940048199 -2.224113578400254 0.3520685469834753 0 0 0
381 117 4 0 -1.986620266053231 -3.067361872153347 1.5606666312012487 0 0 0
328 100 2 0 -5.2898246532124995 -1.1450411480865428 0.5701340763504608 0 0 0
330 100 4 0 -5.092079528599291 -0.9697379176457478 0.9895911048333211 0 0 0
329 100 4 0 -5.492417887149186 -1.3262663900260225 0.13441658875693754 0 0 0
686 219 4 0 -5.074719102108455 -0.595358064661536 1.2091806227717543 0 0 0
297 89 4 0 -5.872558444227381 -1.3978848411242544 0.03333417943553922 0 0 0
685 219 2 0 -4.630649489378821 -0.5810632707729639 1.4381008711475365 0 0 0
373 115 2 0 -3.47180084281226 -0.3456103988283789 1.2730530467951588 0 0 0
374 115 4 0 -3.8101128005555327 -0.6091308918872674 1.5132768709490902 0 0 0
325 99 2 0 -3.8717081875342516 -1.3654934364015117 1.3977206820894754 0 0 0
687 219 4 0 -4.181976080049661 -0.5660389591702871 1.668361611223791 0 0 0
259 77 2 0 -1.9506217795056193 -1.251227405490566 0.9468454902032999 0 0 0
36 8 1 0 -2.2954052307093877 -0.22049627202518246 1.3058510178705618 0 0 0
40 8 3 0 -2.007899413370739 -0.3307926956641483 0.9474324166182688 0 0 0
260 77 4 0 -1.9025842070201993 -0.7587973073540719 0.8218941253278169 0 0 0
774 248 4 0 -2.0197846098627754 -0.4775196646235568 0.5862582917543081 0 0 0
375 115 4 0 -3.1209663585620286 -0.0659019016079581 1.022857169615212 0 0 0
772 248 2 0 -2.028446571724235 -0.3988391009136096 0.09828703319402723 0 0 0
38 8 3 0 -2.749318242583756 -0.14728615643479154 1.1359939501033578 0 0 0
293 88 4 0 -6.509080604898102 -5.757700982849421 1.6558461822560953 0 0 0
294 88 4 0 -6.0981683955523955 -6.062596122086965 2.5910302120739725 0 0 0
292 88 2 0 -6.298404403311874 -5.91375628855528 2.127018763479511 0 0 0
1128 366 4 0 -6.373610350286676 -6.235591380229549 2.7995783882294796 1 0 0
360 110 4 0 -3.490033592657142 -5.240350549905145 3.0531079246681254 0 0 0
358 110 2 0 -3.605998840081656 -5.030563135202518 2.626549184583448 0 0 0
12 3 3 0 -3.747970570114185 -5.91737277441133 3.149247058701718 0 0 0
516 162 4 0 -1.772308123817846 -0.012375421208410443 6.138524108093709 0 0 -1
391 121 2 0 -2.3114119828926225 -1.462223417781722 5.067467073673259 0 0 0
307 93 2 0 -0.7024673493744241 -5.691929629585627 1.837088172982853 0 0 0
309 93 4 0 -0.34995223359148003 -5.49934564484067 2.1367128481627518 0 0 0
1142 371 4 0 -0.07799835735164787 -5.313700563747895 2.3658890116690436 0 0 0
1070 347 4 0 -0.1271159368686913 -5.710100900560941 2.3711526098461517 0 0 0
612 194 4 0 -2.2127947495764433 -0.6749296981794451 5.126210391677436 0 0 0
432 134 4 0 -5.649827140889793 -4.597143185913066 1.5899055295670128 0 0 0
1004 325 4 0 -5.862005523711907 -4.421898310809595 1.8594173696401106 1 0 0
402 124 4 0 -6.066521728867483 -4.6036554705538375 1.586486247904672 0 0 0
1003 325 2 0 -5.9309600932082525 -4.274888640291945 2.3033062372283943 1 0 0
1005 325 4 0 -6.002506720416957 -4.110988401141216 2.7799831823244805 1 0 0
371 114 4 0 -6.198731533643342 -3.98489968880951 3.0821727537026185 0 0 0
331 101 2 0 -3.642762025922535 -4.081127933040844 1.691142156936387 0 0 0
359 110 4 0 -3.7137518169957064 -4.812356161415535 2.182395485101717 0 0 0
291 87 4 0 -3.858276405566016 -4.907235731498802 1.8381323796735314 0 0 0
333 101 4 0 -3.6823334968734955 -4.540917860303661 1.8887170037680405 0 0 0
642 204 4 0 -3.4687209818853657 -4.871497448017996 1.8613022055280073 0 1 0
367 113 2 0 -1.5427859705198241 -3.6861311490197455 1.8394181077196294 0 0 0
369 113 4 0 -1.2035932579372162 -3.903880058297832 2.1358422473731262 0 0 0
416 129 4 0 -0.2230104233234404 -4.0506129960861115 2.533377182491987 0 0 0
415 129 2 0 -0.6485883681190577 -3.8349448290518686 2.45211509854439 0 0 0
417 129 4 0 -1.0933441110813136 -3.6030985491182124 2.3690565993494515 0 0 0
1141 371 2 0 -0.026592599611782137 -4.807405703209968 2.384441132187207 0 0 0
610 194 2 0 -2.13089804310428 -0.3109639557282459 5.479931456496802 0 0 0
168 46 4 0 -6.536336142385957 -5.612515565910524 5.007946194562601 0 0 -1
1131 367 4 0 -6.5819434711933 -0.7729114820765378 3.3653922275716592 1 0 0
327 99 4 0 -4.089632657039098 -0.9241629336148207 1.5265453223990553 0 0 0
626 199 4 0 -3.9109331677417987 -0.7845131245074296 1.8530843116260265 0 0 0
627 199 4 0 -3.6938230443246267 -0.35250735736065875 2.764104115296968 0 0 0
625 199 2 0 -3.801093586969103 -0.5649994277051752 2.3075326778739376 0 0 0
617 196 4 0 -3.455016508664764 -0.12587984601174018 2.9640583545057404 0 0 0
37 8 3 0 -2.2909534082224714 -0.585092414285314 1.6287322701689482 0 0 0
616 196 2 0 -2.960233435382473 -0.16829182183142385 2.9388645996480136 0 0 0
618 196 4 0 -2.4655962370819706 -0.21292525511994972 2.9292189478786783 0 0 0
718 230 2 0 -1.7899022872327126 -0.4425894843541464 3.3208304751031523 0 0 0
486 152 4 0 -6.44898373580676 -5.724454485715644 4.628164411073967 0 1 -1
283 85 2 0 -5.858002900148206 -5.45083367231819 4.750719582098279 0 0 0
251 74 4 0 -5.211869334792174 -4.979742955355089 4.339566035612766 0 0 0
284 85 4 0 -5.535264819228052 -5.122271699153767 4.551309416352037 0 0 0
250 74 2 0 -4.807460860889934 -5.076715172834268 4.079991411460232 0 0 0
13 3 3 0 -3.3534743989358806 -5.258144201422802 3.439525630999278 0 0 0
252 74 4 0 -4.403419023916357 -5.187242693397225 3.8019108610882166 0 0 0
11 3 1 0 -3.6487331313566087 -5.625882154775012 3.5718062618439164 0 0 0
15 3 3 0 -3.418502295976087 -5.921012913900828 3.93195122719478 0 0 0
14 3 3 0 -4.06508765533713 -5.438114937196701 3.7547073123759205 0 0 0
341 104 4 0 -3.3151864570895664 -6.325604860492014 4.007573914531194 0 0 0
386 119 4 0 -3.368782412282603 -6.071557864654073 4.32681002229052 0 0 0
385 119 2 0 -3.161232050987809 -5.704170207233883 4.572068225332348 0 0 0
387 119 4 0 -2.95441862936528 -5.330971860557022 4.834082648911779 0 0 0
305 92 4 0 -2.586832055104731 -5.285680321582048 4.921654518449434 0 0 0
304 92 2 0 -2.0574254517753983 -5.332166367155613 5.05291795103627 0 0 0
370 114 2 0 -6.297940929496045 -3.9306791216378225 3.573781124502197 0 0 0
336 102 4 0 -5.4839355051077305 -4.722072496444862 4.4877453145969115 0 0 0
335 102 4 0 -6.091595511644522 -3.991540577624357 4.317422977572507 0 0 0
334 102 2 0 -5.788463073843034 -4.371609708025467 4.4034787762861995 0 0 0
372 114 4 0 -6.3863284934903755 -3.8657005335643904 4.081911710611412 0 0 0
398 123 4 0 -5.2384108135522425 -4.929887099068535 4.747955057534633 0 0 0
272 81 4 0 -3.1605976436659375 -5.025783485646885 3.1618846946478025 0 0 0
271 81 2 0 -2.9839349906869512 -4.7154274603578115 3.533279519925179 0 0 0
273 81 4 0 -2.8056843834678764 -4.393362147411852 3.888919802061277 0 0 0
345 105 4 0 -2.6682410451200926 -4.2987432142020845 4.256018362651766 0 0 0
343 105 2 0 -2.7614712607558176 -4.643802820117082 4.608037453933088 0 0 0
427 133 2 0 -6.4967503904374295 -2.253212842530852 4.958395795993522 0 0 0
428 133 4 0 -6.087860521942069 -1.958295467706994 5.078406811743722 0 0 0
264 78 4 0 -5.834044831171159 -1.6789183925449085 4.947078688183518 0 0 0
262 78 2 0 -5.638983649441017 -1.2438569748171835 4.7353077259128185 0 0 0
1488 486 4 0 -6.328847144598172 -0.58803915794681 3.6380376545075905 1 0 0
1486 486 2 0 -5.928478482571222 -0.5644232262138741 3.937282733896733 1 0 0
1487 486 4 0 -5.507881022669773 -0.5370111943532445 4.22767809381458 1 0 0
377 116 4 0 -5.317619438613153 -0.43880974129212924 4.546310575109963 0 0 0
263 78 4 0 -5.447378877966245 -0.8093803967225346 4.532937922065462 0 0 0
668 213 4 0 -5.149692269829509 -0.6938398738228903 4.295792988777974 0 0 0
684 218 4 0 -5.17047685808075 -0.31402327873620417 4.169862942907559 0 0 0
669 213 4 0 -4.548746710417983 -1.247070935469861 3.74286265884496 0 0 0
667 213 2 0 -4.842159451789973 -0.9627540130208256 4.009135302118554 0 0 0
392 121 4 0 -2.235757679761979 -0.998683824484018 4.866062796829516 0 0 0
601 191 2 0 -2.7723904396950823 -0.3319873189382944 4.600547790806412 0 0 0
408 126 4 0 -2.09296034250101 -0.6425769784028912 4.761866119328509 0 0 0
406 126 2 0 -1.7386399244115711 -0.6166011613783122 4.394989752437473 0 0 0
602 191 4 0 -2.500235036402159 -0.6613633745528861 4.832874747588522 0 0 0
776 249 4 0 -1.1162124744785682 -0.5312288441044811 3.7459806434716825 0 0 0
777 249 4 0 -0.1817541531051157 -0.8493645052114077 3.566731973259079 0 0 0
775 249 2 0 -0.6477032085839102 -0.6961810088633348 3.654513862023779 0 0 0
720 230 4 0 -1.466750817545876 -0.6804034180750644 3.654548172010166 0 0 0
407 126 4 0 -1.405326520384314 -0.5756921627677671 4.0313748369213585 0 0 0
285 85 4 0 -6.158776980337138 -5.7591650728258 4.91782674539212 0 0 0
344 105 4 0 -2.8585909310436244 -4.982155655305228 4.955626227003713 0 0 0
254 75 4 0 -3.1117940332120315 -5.349069649075016 6.2267887086851434 0 0 0
355 109 2 0 -5.476662547902282 -6.5768277246720706 0.2663233630064211 0 0 0
253 75 2 0 -2.9768761969177633 -5.334976923717894 5.721657076518849 0 0 0
255 75 4 0 -2.8440922861327587 -5.312102747340083 5.229946730123454 0 0 0
957 309 4 0 -6.407467560671832 -3.7593105651604573 4.457675694930331 1 0 0
306 92 4 0 -1.598780545188297 -5.383724058260341 5.168960909967529 0 0 0
1109 360 4 0 -1.3581294907269752 -5.7087962418182 5.261625933611241 0 0 0
1113 361 4 0 -1.459000709445103 -5.465417649955686 5.548564979176331 0 0 0
1111 361 2 0 -1.4735026795060635 -5.251467960927562 6.017419542760639 0 0 0
1108 360 2 0 -1.0703962240820826 -6.1301633354974125 5.289373160663845 0 0 0
1112 361 4 0 -1.5058153682640234 -5.039563403426186 6.469662863358716 0 0 0
397 123 2 0 -5.007777942046926 -4.691617627231559 5.146837410912065 0 0 0
191 54 4 0 -5.164799678006125 -4.334879454433479 5.723664578366665 0 0 -1
190 54 2 0 -5.3352392824124015 -4.363264224765036 6.1647870219458305 0 0 -1
399 123 4 0 -4.789777043402757 -4.448310869255547 5.550560026573794 0 0 0
314 95 4 0 -4.841002694409505 -4.058204487421746 5.63718725905562 0 0 0
313 95 2 0 -4.822787068826404 -3.5708468114580945 5.434971714198204 0 0 0
1016 329 4 0 -0.02675816898589266 -3.90856094459938 0.38372874436584337 0 0 0
649 207 2 0 -5.712039800994543 -0.10518582742294375 5.975052871406997 0 0 0
650 207 4 0 -6.062232275163946 -0.3742799204042942 6.216243135439059 0 0 0
1172 381 4 0 -6.251695547360905 -0.45794784084374224 5.864264771517406 1 0 -1
1052 341 4 0 -5.70788055306339 -2.0377902570184894 5.055486234441552 1 0 0
1051 341 2 0 -5.377951831151832 -2.44705932433168 5.041951378171286 1 0 0