LAMMPS data file via write_data, version 29 Aug 2024, timestep = 9000000, units = lj

1530 atoms
4 atom types
1030 bonds
1 bond types
575 angles
2 angle types

-6.58545 6.58545 xlo xhi
-6.58545 6.58545 ylo yhi
-6.58545 6.58545 zlo zhi

Masses

1 1
2 1
3 1
4 1

Bond Coeffs # harmonic/omp

1 100 0.5

Angle Coeffs # harmonic/omp

1 100 180
2 100 109.471

Atoms # full

267 79 4 0 -1.0487228346996098 -5.915433536198008 -6.256455838518308 0 0 1
265 79 2 0 -0.8276554937969716 -5.480935771467855 -6.088801632200307 0 0 1
1142 371 4 0 -1.119420369564056 -6.065699708052168 -5.885294245958749 0 0 1
266 79 4 0 -0.6157482391579432 -5.047159362233914 -5.912160097162544 0 0 1
567 179 4 0 -5.594258017700671 -3.9649623439418775 -5.8267503940415795 0 1 0
231 67 4 0 -5.974856507732026 -4.070861932159668 -5.9696945953651035 0 0 0
229 67 2 0 -6.33392346124517 -3.736935304393296 -5.884621105230735 0 0 0
565 179 2 0 -5.357455988870809 -3.9722547099641057 -6.2983106093302625 0 1 0
160 44 2 0 -3.2285417449732483 -3.900168575378107 -6.226792176014814 0 0 0
161 44 4 0 -2.916641912734168 -4.007448622866799 -5.84231232755319 0 0 0
174 48 4 0 -2.6505099684660824 -3.789508726103448 -5.620991678631568 0 0 0
179 50 4 0 -0.28959874353760834 -4.79446803534278 -5.8423281706817765 0 0 0
178 50 2 0 -0.5443806116196463 -4.60769312563441 -5.460987396315841 0 0 0
180 50 4 0 -0.8151664500340379 -4.421239534788147 -5.062894960521267 0 0 0
78 16 4 0 -3.537567034132507 -2.298055544149874 -6.222180216308478 0 0 0
279 83 4 0 -3.6071834121143382 -2.495375809876187 -6.580210293512123 0 0 1
483 151 4 0 -3.779351530211775 -2.135337800251775 -6.523626506050466 0 0 0
76 16 2 0 -3.275632028118407 -2.452261982655856 -5.811792388007184 0 0 0
172 48 2 0 -2.7242129879366517 -3.315210193056555 -5.4181064969994965 0 0 0
77 16 4 0 -3.0187134173234034 -2.5951593637416646 -5.4190407616878264 0 0 0
173 48 4 0 -2.785667774294348 -2.863563702988596 -5.223571009908956 0 0 0
99 23 4 0 -2.6599959340776835 -2.4968480015696 -5.269063176282184 0 0 0
138 36 4 0 -2.9487923581473554 -2.5840361451991822 -5.004628222220583 0 0 0
97 23 2 0 -2.2820799898748625 -2.18660819542043 -5.052986723560489 0 0 0
462 144 4 0 -2.9535549147926985 -0.008704702034295637 -5.32658161095698 0 0 0
93 21 4 0 -3.195006628235348 -0.09029294166507218 -5.634438628360244 0 0 0
387 119 4 0 -1.598273780239187 -0.19548259120128753 -5.854923249751181 0 0 1
385 119 2 0 -1.5641172579585148 -0.4062374393732317 -6.321900199956916 0 0 1
532 168 2 0 -1.5751135685438333 -0.22805556564259036 -4.964208113385492 0 0 0
533 168 4 0 -1.6120119235705956 -0.10116241060915236 -5.477442398070249 0 0 0
145 39 2 0 -4.843721575574428 -6.171858797055499 -3.6856533725736482 0 0 0
147 39 4 0 -4.780144746759335 -5.715236394116362 -3.5156245279422538 0 0 0
171 47 4 0 -4.483964417770747 -5.506352232106207 -3.354360792234196 0 0 0
249 73 4 0 -0.44000293920734335 -5.253783281771413 -3.8388761703201317 0 0 0
247 73 2 0 -0.5545972030515656 -5.40029628360769 -3.3557939828355017 0 0 0
869 280 4 0 -0.24518512164255793 -4.955438152729919 -3.9891660117901653 0 0 0
870 280 4 0 -0.5718737382436578 -4.394465997343239 -4.750049878581184 0 0 0
868 280 2 0 -0.41313123365602633 -4.673817697480228 -4.36329683654005 0 0 0
127 33 2 0 -3.9016005840159123 -3.04540857662936 -3.6267190253676604 0 0 0
129 33 4 0 -3.6017874201480264 -2.7772565737344737 -3.8278715874710354 0 0 0
81 17 4 0 -3.5981133396959155 -2.381691842265222 -3.7931227434613497 0 0 0
79 17 2 0 -3.721981477226333 -1.8793256483107967 -3.8557533653740164 0 0 0
137 36 4 0 -3.458146005943168 -2.5456766387902148 -4.1098648993067135 0 0 0
117 29 4 0 -3.2707128605045956 -2.5572088440969494 -3.769089121776853 0 0 0
98 23 4 0 -1.9296838374560652 -1.9017919694375076 -4.8535905796201835 0 0 0
136 36 2 0 -3.2070198131958 -2.5590969350313415 -4.548048829520918 0 0 0
115 29 2 0 -2.853075899339412 -2.6306093265286434 -3.511571198783356 0 0 0
108 26 4 0 -1.66013705480182 -1.753247009553169 -4.608668203489305 0 0 0
103 25 2 0 -1.8307329013664637 -2.722433468969275 -3.1340532226287228 0 0 0
168 46 4 0 -1.7753190554111455 -2.1245989947628243 -4.543843049079246 0 0 0
104 25 4 0 -1.3855609698263924 -2.6039544600130147 -3.368361609745116 0 0 0
258 76 4 0 -1.1849170550231243 -2.846860389170551 -3.6152971232008437 0 0 0
166 46 2 0 -1.6572020854404876 -2.4057412333936514 -4.130229023549887 0 0 0
167 46 4 0 -1.5533265568849939 -2.6918275921314496 -3.703242922987547 0 0 0
256 76 2 0 -0.7335428699322981 -2.94721910583592 -3.41406368978602 0 0 0
257 76 4 0 -0.258092827283921 -3.0418717593520173 -3.208537476744758 0 0 0
963 311 4 0 -6.2953736337014305 -0.9941596869598764 -4.9092927735465315 1 0 0
210 60 4 0 -6.349366674213532 -1.377740600974177 -4.808782222720185 0 0 0
343 105 2 0 -5.57712400632384 -1.0663454462891802 -4.578821108918893 0 0 1
345 105 4 0 -5.109041298720236 -0.9652745063973434 -4.4634786086460885 0 0 1
344 105 4 0 -6.039105434137293 -1.1757954370459185 -4.6871213492753 0 0 1
861 277 4 0 -6.370726164088621 -1.1110526684850794 -4.501645714203279 1 0 0
444 138 4 0 -5.046201848646152 -0.6202148869872683 -4.296780434351469 0 0 0
442 138 2 0 -5.142799401188968 -0.19612200300120164 -4.056860862487782 0 0 0
593 188 4 0 -4.8574859930575975 -0.9413371529189558 -4.148543557076466 0 0 0
80 17 4 0 -3.8290197564976087 -1.4184839131442737 -3.923270389046488 0 0 0
594 188 4 0 -3.8982040681772783 -1.1976274452074729 -4.251713139344814 0 0 0
592 188 2 0 -4.394793913812482 -1.0625998785729507 -4.199503890325181 0 0 0
524 165 4 0 -3.6667073239222927 -1.0624552388009754 -3.9550583223407294 0 0 0
523 165 2 0 -3.4020110210609706 -0.6620105844511239 -3.9760295170996134 0 0 0
525 165 4 0 -3.126160089877196 -0.24487883511510436 -3.9952270772629204 0 0 0
538 170 2 0 -2.219159834745591 -0.33718265355141314 -4.062228009759662 0 0 0
539 170 4 0 -2.7186514953316996 -0.25301651680473947 -4.014160297831069 0 0 0
460 144 2 0 -2.9457697702834347 -0.10250997775752278 -4.830243038046562 0 0 0
461 144 4 0 -2.9279872553994433 -0.2075892740427603 -4.3266407122076185 0 0 0
4 1 3 0 -0.013867614933211135 -5.685947844893188 -0.7912826424759346 0 0 0
540 170 4 0 -1.705001975572696 -0.42494171249332763 -4.104458189650916 0 0 0
106 26 2 0 -1.6180221060723057 -1.2657475042832407 -4.47001876041251 0 0 0
107 26 4 0 -1.5856640802196018 -0.7330948260957809 -4.330087448120142 0 0 0
534 168 4 0 -1.540745393473578 -0.3564952346464248 -4.461610793455427 0 0 0
617 196 4 0 -1.4706368320581853 -0.11010357058573052 -4.159334871539851 0 0 0
254 75 4 0 -1.3021604908016347 -0.4735968484441169 -4.160182098256157 0 0 0
253 75 2 0 -0.8412698514079061 -0.5562391228888963 -3.877864727689438 0 0 0
255 75 4 0 -0.41568175247720024 -0.623483085574846 -3.611914390245389 0 0 0
476 149 4 0 -0.2941646098664947 -0.41522287574753 -3.3128695893303024 0 0 0
140 37 4 0 -0.24414435509333304 -0.793787081068462 -3.295683497976067 0 0 0
169 47 2 0 -4.225036391013095 -5.165143943047429 -3.0566296950637097 0 0 0
877 283 2 0 -4.555844400630117 -6.461290680104736 -1.4118958235128523 1 0 0
9 2 3 0 -1.7054074433783126 -5.183349884986988 -3.0507554302906965 0 0 0
275 82 4 0 -3.2643747226175175 -0.35781903278428634 -0.7587872952272051 0 0 0
8 2 3 0 -1.7472688073442506 -5.771821671216721 -2.5083208311374605 0 0 0
224 65 4 0 -1.4020074234546043 -4.854616500667409 -1.9238043971255705 0 0 0
248 73 4 0 -0.6708637043457927 -5.540336543023269 -2.8919010763260373 0 0 0
6 2 1 0 -1.5074078653412357 -5.371559177587832 -2.6416742156294624 0 0 0
7 2 3 0 -1.5244069790395642 -5.024614382194431 -2.2771174112011274 0 0 0
182 51 4 0 -0.8500291074095199 -5.848046283291169 -2.7317497047519987 0 0 0
10 2 3 0 -1.0201112281553866 -5.496578243501382 -2.735535367160241 0 0 0
960 310 4 0 -0.700088869669678 -5.590781328624666 -2.500203191564726 0 0 0
958 310 2 0 -0.2812454161929304 -5.618452707082747 -2.250170743097179 0 0 0
181 51 2 0 -0.9478145572329103 -6.326430600008184 -2.872708513521317 0 0 0
843 271 4 0 -6.431726954098617 -5.008696999909871 -1.8579101686485389 1 0 0
205 59 2 0 -5.821857309911266 -3.6346571151338503 -2.307977117976255 0 0 0
206 59 4 0 -5.856942887375902 -3.782254584884887 -1.8465837122245932 0 0 0
841 271 2 0 -6.177778931711151 -4.594818208457332 -1.8236651002780304 1 0 0
111 27 4 0 -4.624155720757133 -3.2829597062087337 -3.2901522408336312 0 0 0
84 18 4 0 -4.474994050921739 -3.638526173089166 -3.2451199190540376 0 0 0
82 18 2 0 -4.2917836359775565 -4.05143785517152 -3.044950374857693 0 0 0
170 47 4 0 -3.979367536039221 -4.824280759613049 -2.778498436100039 0 0 0
89 20 4 0 -3.7305304604111993 -4.5620419256138485 -2.691995175618544 0 0 0
83 18 4 0 -4.099731766114366 -4.45669769814623 -2.8485764252431354 0 0 0
102 24 4 0 -4.064371217498274 -4.570907938551948 -2.488549980697989 0 0 0
100 24 2 0 -4.258454521016112 -4.610699625718209 -2.02038827297773 0 0 0
184 52 2 0 -2.1284928542291226 -4.405898238627024 -2.192250469743261 0 0 0
185 52 4 0 -2.5153412076211454 -4.06227436562585 -2.2727923815355955 0 0 0
88 20 2 0 -3.314543214537395 -4.28162149176649 -2.51653185954261 0 0 0
90 20 4 0 -2.902877451104227 -4.01043253104686 -2.338671811011203 0 0 0
212 61 4 0 -2.754383703406944 -3.8830171990617472 -1.993767701766485 0 0 0
233 68 4 0 -2.677971940848237 -3.705424449383659 -2.3278568417747105 0 0 0
232 68 2 0 -2.5969238271725605 -3.3741709159120044 -2.7265609024035333 0 0 0
186 52 4 0 -1.751947714382402 -4.748876824342051 -2.0978361366995872 0 0 0
207 59 4 0 -5.788739888451273 -3.491748555456822 -2.7974571966187325 0 0 0
110 27 4 0 -5.59802044929703 -3.376124650631444 -3.156332368790957 0 0 0
109 27 2 0 -5.119244154171817 -3.3349702456797528 -3.2245354599727105 0 0 0
199 57 2 0 -6.2246379431992045 -2.8250060901803304 -3.0827864928246536 0 0 0
201 57 4 0 -5.864407886423627 -3.14559719693466 -2.9889324168335167 0 0 0
128 33 4 0 -4.2445881122594065 -3.349646553953754 -3.407680258050602 0 0 0
234 68 4 0 -2.5275676499580713 -3.0538301274528097 -3.1075935142665294 0 0 0
116 29 4 0 -2.4331326642638285 -2.7135064645579248 -3.2598909333303703 0 0 0
105 25 4 0 -2.2739141825501417 -2.8446073834058963 -2.907108719581663 0 0 0
112 28 2 0 -6.362015634585583 -0.5562141759301902 -3.0667940787333676 0 0 0
114 28 4 0 -6.00741157106721 -0.22644536214496558 -2.925563544085619 0 0 0
879 283 4 0 -4.466560311539357 -6.042627361137157 -1.1242133646144663 1 0 0
152 41 4 0 -4.503211652133784 -5.681433831138026 -1.011296157625522 0 0 0
151 41 2 0 -4.484487216934148 -5.181337267197061 -1.0960943965893042 0 0 0
252 74 4 0 -4.178396292193022 -5.926530687422263 -0.9025572237615394 0 0 0
250 74 2 0 -4.216097720976583 -6.133436716336389 -0.4264359316321296 0 0 0
1141 371 2 0 -1.093044537095916 -6.552876310547469 -5.673196254619714 0 0 1
1 1 1 0 -0.21919491703508578 -5.912802457970568 -1.1826911476212973 0 0 0
223 65 2 0 -1.1311283008198718 -5.156615527305745 -1.6399356431326264 0 0 0
2 1 3 0 -0.1678602468519398 -6.388691564470538 -1.129855323688429 0 0 0
225 65 4 0 -0.8628908018652349 -5.4449441748660785 -1.3659317348153275 0 0 0
3 1 3 0 -0.7181629215609049 -5.797090285624635 -1.208596012532531 0 0 0
391 121 2 0 -1.2206249162891645 -5.4818085889703045 -0.59359869807822 0 0 0
392 121 4 0 -0.9587113932221183 -5.55636837464252 -0.9947196014620684 0 0 0
842 271 4 0 -5.9016294571344385 -4.164695678735761 -1.7892677505270176 1 0 0
227 66 4 0 -5.549655714548784 -4.021102111513569 -1.7362271949360393 0 0 0
226 66 2 0 -5.162612679224433 -4.272230921677636 -1.5488381237391065 0 0 0
101 24 4 0 -4.459998980026833 -4.657489074994846 -1.5572952615043114 0 0 0
153 41 4 0 -4.474366520744408 -4.732870228409123 -1.165449783024401 0 0 0
228 66 4 0 -4.753778010679313 -4.527344625945029 -1.3480585716023021 0 0 0
329 100 4 0 -4.37799847519254 -4.380632633352654 -1.2859135200631169 0 0 0
328 100 2 0 -4.023575443714531 -4.04520436175056 -1.1267671243331825 0 0 0
330 100 4 0 -3.692393782443882 -3.7308113184919187 -0.9707802275351142 0 0 0
211 61 2 0 -3.088794540157023 -3.737345145850879 -1.60491535463067 0 0 0
341 104 4 0 -3.343410062346269 -3.7052922003197923 -0.8233138308553796 0 0 0
302 91 4 0 -3.514265613803301 -3.3891833881225875 -0.9313846580865812 0 0 0
340 104 2 0 -3.011856696151978 -3.9701281660830214 -0.5375270541657282 0 0 0
213 61 4 0 -3.411115130205761 -3.614094638791889 -1.2319755002790747 0 0 0
176 49 4 0 -2.3251749852154346 -4.359050103502958 -0.09188014779897913 0 0 0
342 104 4 0 -2.6907228014134055 -4.234337980471806 -0.2645761303560566 0 0 0
303 91 4 0 -3.655733842446663 -2.5332002588318097 -0.39365854157462016 0 0 0
378 116 4 0 -3.7290869028947395 -2.2576580454698454 -0.12369270932978696 0 0 0
301 91 2 0 -3.582412996915556 -2.954942316409115 -0.658319149451313 0 0 0
654 208 4 0 -3.324137933449692 -0.6575195399691955 -0.4975178126807353 0 0 0
133 35 2 0 -6.480716844061251 -1.3954023698274365 -0.09910394521105496 0 0 0
965 312 4 0 -0.029634762611663704 -5.262836819421413 -3.8457559119848095 0 0 0
208 60 2 0 -6.559032737503547 -1.8151015173583018 -4.7822131000627826 0 0 0
859 277 2 0 -6.5844869163951705 -1.024515200642471 -4.036910944413451 1 0 0
364 112 2 0 -1.9243806114984219 -6.127084990629888 -0.003764130310545568 0 0 0
393 121 4 0 -1.5056330348960258 -5.395489441804728 -0.17497273447929634 0 0 0
132 34 4 0 -4.087571074285243 -0.21580182723161287 -6.450832253243046 0 0 0
175 49 2 0 -2.070603348162983 -4.802600629704634 -0.02554846187388059 0 0 0
652 208 2 0 -3.548318241992764 -0.816446589782452 -0.08585158276866099 0 0 0
374 115 4 0 -3.3898679900875104 -2.1814679224561067 -6.554710470687012 0 0 1
241 71 2 0 -3.7172658718885074 -6.508759376386353 0.4800347368691915 0 0 0
699 223 4 0 -0.0028615934391214874 -1.3907407233720372 6.2325162073625044 0 0 0
243 71 4 0 -3.3433933618992855 -6.38955209105757 0.8025476646188833 0 0 0
685 219 2 0 -6.551837853215747 -0.2965348368548829 0.34378307157228377 0 0 0
369 113 4 0 -0.44794870405966525 -3.7285849731125555 0.6949315755644482 0 0 0
351 107 4 0 -0.044345636602690176 -3.69765404102135 0.6313715501700272 0 0 0
804 258 4 0 -1.8157336650396323 -0.4339542545651112 6.195407286034218 0 0 0
708 226 4 0 -6.193886309033607 -0.020676105916875177 5.633402997524083 0 0 0
177 49 4 0 -1.816614465244912 -5.24940274752863 0.036184336696832124 0 0 0
365 112 4 0 -1.734446598330865 -5.63905303383389 0.0400517152621716 0 0 0
481 151 2 0 -4.019408244892874 -1.7398494674229925 6.459877022162802 0 0 -1
402 124 4 0 -6.281375995877094 -4.402287292526584 0.9342507488596212 0 0 0
130 34 2 0 -4.305574995533344 -0.6453042259358782 6.57585331571638 0 0 -1
367 113 2 0 -0.49917838681786586 -3.594405263962236 1.1719784991051356 0 0 0
376 116 2 0 -3.7816947882547405 -1.8376873705044159 0.14444489928486043 0 0 0
338 103 4 0 -6.132619356612896 -0.9874268025581817 0.5891441538524141 0 0 0
337 103 2 0 -5.7005055805435765 -0.8566444238853189 0.7543491841048067 0 0 0
687 219 4 0 -6.4227700995304735 -0.7560086336886819 0.4678208153873503 0 0 0
339 103 4 0 -5.2349443552051 -0.7039373276433807 0.9424152307065987 0 0 0
135 35 4 0 -6.373607611924049 -1.1402442719225818 0.3200183389415879 0 0 0
1152 374 4 0 -6.50911019279052 -1.081680372422912 0.687494631894307 1 0 0
384 118 4 0 -4.922129607398107 -0.5071525362307193 1.0773313835467961 0 0 0
377 116 4 0 -3.8400048793195953 -1.3826464958188789 0.43722770867779487 0 0 0
287 86 4 0 -3.5919047453198365 -1.1557661175551108 0.6288356595883853 0 0 0
423 131 4 0 -4.8765019887586725 -0.7555178922666497 0.7846964674969391 0 0 0
422 131 4 0 -3.985744208476811 -1.0905835845706553 0.6517131745881455 0 0 0
653 208 4 0 -3.772693424537593 -0.9926600403150928 0.337275895971705 0 0 0
421 131 2 0 -4.420495556363423 -0.9301522284401867 0.7211032647961483 0 0 0
382 118 2 0 -4.77724232580766 -0.1577341066406498 1.4135349450092232 0 0 0
482 151 4 0 -4.272004346985005 -1.3181048970152809 6.257349205520559 0 0 -1
286 86 2 0 -3.353421757680253 -1.0377239434768124 1.0468147216049661 0 0 0
288 86 4 0 -3.1178686875081993 -0.9128131063740579 1.4418702849736968 0 0 0
437 136 4 0 -2.9818205345521602 -0.6390772280019269 1.693440421903789 0 0 0
802 258 2 0 -1.8007186012755887 -0.15871932268711372 5.7816038141194825 0 0 0
305 92 4 0 -2.301621222664463 -3.4476018540815327 3.201507465791488 0 0 0
300 90 4 0 -2.2550078602787713 -3.0584059189874693 3.101524201611835 0 0 0
304 92 2 0 -2.6813550469773237 -3.384862233348022 3.5046562774743757 0 0 0
368 113 4 0 -0.5457024657440617 -3.4694886306073336 1.6361413242402245 0 0 0
298 90 2 0 -1.862349781354391 -2.8043928862843797 2.9200490594059 0 0 0
410 127 4 0 -0.7460009785158644 -3.2776816356748726 1.9172077243984655 0 0 0
409 127 2 0 -0.9573685860068297 -2.923210202297028 2.1971254971811702 0 0 0
411 127 4 0 -1.1766975466099376 -2.5756175738192373 2.472994723887007 0 0 0
416 129 4 0 -1.2943158991559045 -2.2058198705100978 2.590963290287345 0 0 0
299 90 4 0 -1.4644874730028081 -2.5458019166188106 2.7309974713216074 0 0 0
396 122 4 0 -1.096141651438982 -2.448660838553523 2.833547481307561 0 0 0
415 129 2 0 -1.4632839632568566 -1.7454487221266752 2.4597341046904857 0 0 0
394 122 2 0 -0.7417618667614037 -2.343472759719854 3.1846578930852054 0 0 0
430 134 2 0 -3.758330451134443 -1.6305164777180516 3.395169571374229 0 0 0
432 134 4 0 -3.8530188830575907 -1.3357816519214836 2.9987449068190046 0 0 0
353 108 4 0 -3.5720030157289533 -1.1708647849920153 2.734781367154459 0 0 0
352 108 2 0 -3.374681390660705 -1.0793576600209374 2.2947015719052515 0 0 0
746 239 4 0 -2.8040053198046913 -1.0026806368097667 1.6521839334421335 0 0 0
436 136 2 0 -3.050735801685075 -0.1661349378767281 1.754017461007653 0 0 0
354 108 4 0 -3.170246726333814 -0.97163837610757 1.8327211879428285 0 0 0
745 239 2 0 -2.354997604603144 -1.057641470514856 1.8944588649980765 0 0 0
747 239 4 0 -1.9084066768289654 -1.1169933432076684 2.137337834072378 0 0 0
665 212 4 0 -0.90857447579798 -0.048785853680826545 2.804806241234104 0 0 0
357 109 4 0 -1.9177635946825422 -0.7207344671872881 6.425245298342258 0 0 0
417 129 4 0 -1.6155488768802504 -1.294067980641218 2.3300150862319855 0 0 0
359 110 4 0 -1.5352029248647272 -0.9739215626427663 2.135258278031728 0 0 0
358 110 2 0 -1.3775095390994125 -0.6403723506226267 2.4788528042772375 0 0 0
360 110 4 0 -1.2170828394465791 -0.30267693803716567 2.8290888035874246 0 0 0
690 220 4 0 -1.0491515886248797 -0.22540329529030184 3.1697856784020964 0 0 0
766 246 2 0 -5.906789934502479 -6.532557237975938 4.961318187587893 0 1 0
189 53 4 0 -6.159333872219303 -5.863317879424639 5.312246457618054 0 0 -1
271 81 2 0 -3.182609704768617 -3.5422959202031143 4.5408672060960455 0 0 0
273 81 4 0 -3.358597977140095 -3.3783334007299937 4.114388019702856 0 0 0
306 92 4 0 -3.0911444224396507 -3.3087382437347665 3.8367957223198412 0 0 0
272 81 4 0 -3.018625544348884 -3.7044561562263976 4.954189507711296 0 0 0
1054 342 2 0 -6.524211191535959 -2.2727021172748367 3.7837888315018926 1 0 0
1458 476 4 0 -6.161328417401104 -1.8059109653617356 4.475217784672816 1 0 0
1056 342 4 0 -6.293047354427326 -1.9949711986969703 4.159987607720889 1 0 0
1456 476 2 0 -5.9318404079525875 -1.6104316413565203 4.9063544234216865 1 0 0
431 134 4 0 -3.6741279282846486 -1.9114248946052397 3.7901173360090765 0 0 0
307 93 2 0 -3.263016511530212 -2.5270560222385376 3.8821537477979087 0 0 0
308 93 4 0 -3.2283624243921096 -3.030159822520452 4.0303227369598655 0 0 0
309 93 4 0 -3.2985404997888543 -2.0287661234140217 3.7430903103153175 0 0 0
332 101 4 0 -3.3432054183709132 -1.7140868172993262 3.9567550614377973 0 0 0
428 133 4 0 -2.4040006017702247 -1.4174695531941097 4.8728405226250135 0 0 0
1124 365 4 0 -0.1775805899104624 -1.9985191116358274 3.778016076300937 0 0 0
395 122 4 0 -0.38722066806399513 -2.237200501230709 3.540141629150997 0 0 0
335 102 4 0 -0.4415690778888724 -2.2641822593389254 3.912383042536376 0 0 0
334 102 2 0 -0.5630542456753144 -2.6494847653902713 4.239018887802073 0 0 0
315 95 4 0 -0.5601536560440499 -1.9466264611419806 3.7637502640544285 0 0 0
336 102 4 0 -0.6791711531166365 -3.020506056013696 4.550229777426481 0 0 0
1028 333 4 0 -0.8691011168571352 -3.0843847152263746 4.93521937420005 0 0 0
331 101 2 0 -2.973544283067165 -1.5141572836435024 4.257329203992023 0 0 0
333 101 4 0 -2.6049931723625055 -1.311397144125157 4.54818149118214 0 0 0
270 80 4 0 -2.227508485204366 -1.168578868371094 4.584747744592776 0 0 0
268 80 2 0 -1.7932550183247562 -1.0264327129325017 4.419535503227965 0 0 0
313 95 2 0 -0.82441459244375 -1.5720044335835988 3.9919213983995956 0 0 0
688 220 2 0 -1.077750620409516 -0.5743983738294366 3.550408936658216 0 0 0
314 95 4 0 -1.0803322472084174 -1.189425513485431 4.2206271758256895 0 0 0
269 80 4 0 -1.34685183502419 -0.8829486923694033 4.250282988851187 0 0 0
689 220 4 0 -1.1065655436543338 -0.918040493779836 3.92244431339415 0 0 0
386 119 4 0 -1.5385543336090826 -0.5993158957083824 6.413846577890366 0 0 0
767 246 4 0 -5.861510422745034 -6.128471169771786 5.2531248470298575 0 1 0
187 53 2 0 -6.564384411699212 -5.530055063720214 5.254174472382034 0 0 -1
441 137 4 0 -5.832907036373427 -5.720992582242333 5.143339161224285 0 0 0
439 137 2 0 -5.465276278068617 -5.578674245776192 5.465837798739592 0 0 0
158 43 4 0 -5.070671815753232 -5.2777625253321085 6.122752682519301 0 0 -1
440 137 4 0 -5.114797473911764 -5.460021175693459 5.7698172705576445 0 0 0
414 128 4 0 -6.341841413088071 -4.044592248583798 5.601938765000255 0 0 0
221 64 4 0 -6.032202299178724 -3.8034869661417576 5.459334763968166 0 0 -1
220 64 2 0 -5.655101145038081 -3.8923806019842115 5.765618565695767 0 0 -1
566 179 4 0 -5.144504309381164 -3.980888485665456 6.440057650341756 0 1 -1
222 64 4 0 -5.263438369187741 -3.9892393734165217 6.077636595221157 0 0 -1
157 43 2 0 -5.039277809353308 -4.7657583132106005 6.146894766494689 0 0 -1
159 43 4 0 -5.026465301174753 -4.28786773186246 6.180372546658622 0 0 -1
143 38 4 0 -4.8995441356999265 -3.926010960571392 6.15574686395949 0 0 -1
144 38 4 0 -3.901027350593656 -3.8437227227325144 6.373910490403255 0 0 -1
142 38 2 0 -4.400826764071617 -3.881391415157201 6.266660530503151 0 0 -1
294 88 4 0 -3.570944003663482 -3.724128673646116 6.187692724485584 0 0 0
162 44 4 0 -3.55796463461122 -3.8082468953874953 6.560329201493657 0 0 -1
292 88 2 0 -3.4060591601176737 -3.7450369562755825 5.74575006470598 0 0 0
278 83 4 0 -3.732322343397421 -3.4880977729069267 6.46662803462816 0 0 0
293 88 4 0 -3.242637239180984 -3.7712441413015783 5.277428616198673 0 0 0
277 83 2 0 -3.676003813650882 -2.9951100296161344 6.523388179310452 0 0 0
327 99 4 0 -4.539221019032678 -1.1542454401447249 6.04841969688488 0 0 0
356 109 4 0 -2.379420679971979 -1.6189956289267924 6.259307423272545 0 0 0
373 115 2 0 -2.9774821600337766 -2.0360555541206042 6.330813883516135 0 0 0
1164 378 4 0 -2.182688402123782 -1.9054276308961011 6.075973624235152 0 0 0
375 115 4 0 -2.5828039600045325 -1.901692021863337 6.0700642903339705 0 0 0
427 133 2 0 -2.394822326654715 -1.5380259471208688 5.3478997254898 0 0 0
429 133 4 0 -2.3637216001467714 -1.6500208920739308 5.855628316930339 0 0 0
1162 378 2 0 -1.7628230757727834 -2.161488165835881 5.992616445373429 0 0 0
1027 333 2 0 -1.0305477583047316 -2.7444858285353906 5.244525933896425 0 0 0
1029 333 4 0 -1.189987154652575 -2.4152226552730145 5.545809941072414 0 0 0
1163 378 4 0 -1.3354895712813883 -2.4072105926492466 5.918249007429673 0 0 0
434 135 4 0 -0.970552998382744 -2.2400322215704915 5.865249809203692 0 0 0
433 135 2 0 -0.5865177547404362 -1.958644705737597 5.930502157100453 0 0 0
435 135 4 0 -0.19848132706316363 -1.6651584235011934 6.00387074802553 0 0 0
1457 476 4 0 -5.704121965823096 -1.4184630909126705 5.306288563981349 1 0 0
355 109 2 0 -2.148990901529767 -1.1712770704379782 6.342561382759661 0 0 0
734 235 4 0 -5.492904338724988 -1.0797144031343098 5.294243578746281 0 0 0
735 235 4 0 -5.915296459652166 -0.11788809611620424 5.415178256123839 0 0 0
733 235 2 0 -5.70592471312562 -0.5801441034829689 5.351836692108869 0 0 0
326 99 4 0 -5.33437861320346 -1.3857997262590682 5.501617790137706 0 0 0
706 226 2 0 -6.566761883966402 -0.19186303585821196 5.947184827047036 0 0 0
325 99 2 0 -4.951365288966766 -1.2727533673400548 5.767903115998367 0 0 0
131 34 4 0 -4.518531596800931 -1.0707826934631317 6.450109114222789 0 0 -1
251 74 4 0 -4.259439732995693 -6.3283787580298325 0.007564068903394775 0 0 0
91 21 2 0 -3.546883248660414 0.018964318618722453 -5.9960406123282 0 0 0
457 143 2 0 -2.3323123551335736 0.09672777538673005 -5.726097886671241 0 0 0
458 143 4 0 -2.8455412556342674 0.08296257620637673 -5.700037388297889 0 0 0
459 143 4 0 -1.817290877236598 0.11103741544206622 -5.753180942299148 0 0 0
194 55 4 0 -0.531756763998376 0.5832252514089631 -5.849781561824791 0 0 0
193 55 2 0 -0.9567404871904932 0.3694166312145922 -5.792116038889511 0 0 0
195 55 4 0 -1.4125993153549612 0.13644430024464577 -5.730267176749978 0 0 0
516 162 4 0 -0.26917429771710144 0.4040257992228684 -6.079959351593364 0 0 0
203 58 4 0 -0.19320850837991987 0.4542792131264712 -5.699482067867316 0 0 0
517 163 2 0 -5.024363806661253 2.386585182759079 -5.185129887483561 0 0 0
469 147 2 0 -5.784243522963532 3.2032946225525714 -5.395784990040418 0 0 0
471 147 4 0 -5.738354401103442 2.902982615304405 -4.995302240060169 0 0 0
518 163 4 0 -4.657646838327782 2.0794251053732684 -5.336434976525371 0 0 0
507 159 4 0 -4.282558432219666 1.9759853807999368 -5.447421849633767 0 0 0
505 159 2 0 -4.070298845022482 2.287275816029169 -5.761103188809301 0 0 0
506 159 4 0 -3.8488775400876016 2.6022026857609033 -6.074670616045508 0 0 0
581 184 4 0 -3.6989684828205496 2.537417879012324 -6.4340863902277885 0 0 0
555 175 4 0 -4.479200790810634 1.7713273352941108 -5.181249545074157 0 0 0
470 147 4 0 -5.836712911541913 3.5099158192742395 -5.807351039349031 0 0 0
452 141 4 0 -5.790225403377737 3.581008176821315 -6.208249431307034 0 0 0
634 202 2 0 -2.0157683726664675 4.350637643544974 -5.603415511388076 0 0 0
635 202 4 0 -1.8981210949337097 4.672800692106393 -5.254538403603191 0 0 0
636 202 4 0 -2.135121121697672 4.001556479075214 -5.981214361640218 0 0 0
758 243 4 0 -1.8505091027102512 3.99114275815173 -6.244522016026162 0 0 1
501 157 4 0 -1.8122425997557317 4.896668139577092 -4.940885071439164 0 0 0
757 243 2 0 -1.388021996449784 3.9592976876855746 -6.476187022888747 0 0 1
583 185 2 0 -0.31215572552283205 3.8423455597398113 -6.049361814898366 0 0 0
475 149 2 0 -0.15961987050199636 0.06146978978201959 -3.30627347082342 0 0 0
404 125 4 0 -1.055478556754883 5.731762268532595 -0.17001919610298818 0 -1 0
585 185 4 0 -0.6937852927466599 3.8238548546110778 -6.384154443386014 0 0 0
723 231 4 0 -6.561123245165801 0.35347394908045127 -0.1158907350358985 0 0 0
549 173 4 0 -2.173004256938109 4.893226728732841 -5.100665268773522 0 0 0
122 31 4 0 -1.891981239622732 5.066430335632852 -5.306551896423101 0 -1 0
1281 417 4 0 -0.08946146307015536 6.416173047108595 -1.277557360104433 0 0 0
121 31 2 0 -1.5821923752349767 5.42270386445286 -5.397813411048892 0 -1 0
123 31 4 0 -1.2586927090252464 5.799022306038757 -5.491678203951963 0 -1 0
1143 371 4 0 -1.0717924344075955 6.148250624460659 -5.464740202272191 0 -1 1
926 299 4 0 -0.9727196558542263 5.885193664734179 -5.206941356705926 0 -1 0
150 40 4 0 -5.2217939225006065 0.29704016257463367 -3.423443017750066 0 0 0
443 138 4 0 -5.246599087641972 0.2148360398919812 -3.821362874743331 0 0 0
639 203 4 0 -5.079566689553504 0.5569572450684972 -3.6910218879191183 0 0 0
595 189 2 0 -6.5048645387326145 1.2732505243744954 -4.656013286239939 0 0 0
637 203 2 0 -4.845853936713752 0.990988721716381 -3.804323845695695 0 0 0
638 203 4 0 -4.611890887323011 1.4113448684054888 -3.9202830935729795 0 0 0
490 154 2 0 -3.723148388715356 1.3509053989208426 -3.785895400532636 0 0 0
491 154 4 0 -4.227303239448851 1.3941110347336445 -3.852173751764667 0 0 0
554 175 4 0 -4.34689522229019 1.5015515014258976 -4.193969751160686 0 0 0
588 186 4 0 -2.896406571645668 0.08567977173568031 -4.053510486033331 0 0 0
492 154 4 0 -3.180376230587519 1.3085017845155886 -3.7208254146889326 0 0 0
586 186 2 0 -2.879257627593607 0.5816262206657382 -3.9097191031105796 0 0 0
626 199 4 0 -2.8443770234635575 1.408008874467928 -3.9037880462691277 0 0 0
587 186 4 0 -2.858141876749622 1.0494047026063005 -3.776037238252606 0 0 0
644 205 4 0 -2.53783855934835 1.2214407135138603 -3.677661593931215 0 0 0
643 205 2 0 -2.0240559930174964 1.2231769523473424 -3.7009310022583244 0 0 0
536 169 4 0 -2.8601912078190637 1.3267950123251213 -3.5066234250733803 0 0 0
590 187 4 0 -0.2153252847373109 0.9309754124275991 -3.361460360835872 0 0 0
616 196 2 0 -1.4206469503133627 0.39233511602973037 -4.051247063664268 0 0 0
618 196 4 0 -1.368331460711671 0.9127025549297225 -3.92581784742861 0 0 0
645 205 4 0 -1.5099289694708788 1.2160396497031807 -3.72364081731796 0 0 0
591 187 4 0 -1.124042451748114 1.1110779144730658 -3.6255567194883445 0 0 0
589 187 2 0 -0.6487245408748566 1.0098984501081496 -3.486929579420326 0 0 0
519 163 4 0 -5.398907194043736 2.698249235377857 -5.033498834641931 0 0 0
486 152 4 0 -6.41606243109597 2.0297917302237214 -4.296462426971134 0 0 0
484 152 2 0 -6.076380995826512 2.2986621346074716 -4.548550228170763 0 0 0
485 152 4 0 -5.727319267186997 2.5648681408044416 -4.809111070405527 0 0 0
509 160 4 0 -5.500216518863845 2.848588745751252 -4.692376414080566 0 0 0
508 160 2 0 -5.260428286678577 2.9215875408558114 -4.220080588233125 0 0 0
456 142 4 0 -5.058667006039138 2.777416032753427 -3.4061407610011916 0 0 0
1303 425 2 0 -6.294621348670905 1.8776590948469143 -3.5085616062951996 1 0 0
1304 425 4 0 -6.414456945552564 1.7732634091213932 -3.995242025703086 1 0 0
510 160 4 0 -5.018863266948658 2.9895691936288604 -3.7542748827109014 0 0 0
597 189 4 0 -6.337547318034312 1.6337201291938892 -4.354199228548585 0 0 0
553 175 2 0 -4.411827968066561 1.6290915882914552 -4.686767151451736 0 0 0
623 198 4 0 -4.344408112782667 1.7517145100779858 -3.8820104797009005 0 0 0
622 198 2 0 -4.512852537054806 2.2288276842891954 -3.7492496906598687 0 0 0
614 195 4 0 -4.633236220461929 3.0892999539814654 -3.800187974760539 0 0 0