LAMMPS data file via write_data, version 29 Aug 2024, timestep = 2000046, units = lj

160 atoms
4 atom types
110 bonds
1 bond types
75 angles
2 angle types

-3.217864 3.217864 xlo xhi
-3.217864 3.217864 ylo yhi
-3.217864 3.217864 zlo zhi

Masses

1 1
2 1
3 0.01
4 0.01

Bond Coeffs # harmonic/omp

1 100 0.5

Angle Coeffs # harmonic/omp

1 100 180
2 100 109.471

Atoms # full

103 31 4 0 3.1203307045556548 -2.2412439383505838 -2.0622145557523117 0 1 0
80 24 2 0 -1.9166540290652077 -2.152465941536589 -1.71822872899919 1 1 1
81 24 4 0 -1.6736648865118935 -1.969647940393962 -2.1231297191984617 1 1 1
22 5 3 0 -1.7660635957075381 -1.7157173882305696 -2.431652172197945 1 1 1
21 5 1 0 -1.5196969930140105 -1.5247639699563558 -2.826175524689322 1 1 1
120 37 4 0 0.7181439183459181 -2.888832167516764 -2.8861218477671264 0 1 0
138 43 4 0 1.0012573448880273 -2.982473519281234 -2.6245833741972295 -1 1 1
137 43 2 0 0.7520575612099516 -3.1959727636196353 -2.2108489818015045 -1 1 1
23 5 3 0 -1.4122167508323822 -1.886576207473853 -3.1474170136689374 1 1 1
93 28 4 0 2.944508832392205 -1.9133893074113326 -1.9625393798905775 0 1 0
92 28 2 0 3.095791345381618 -1.5851494451336259 -2.305260122076196 0 1 0
101 31 2 0 3.018177089044094 -2.738473275601798 -2.033310274663036 0 1 0
130 40 4 0 2.4646530626116587 -0.4988254081357121 -0.6921491549107883 -1 0 0
68 20 2 0 -0.1318878703599821 -3.197395932059785 -1.4301269522668278 0 1 1
12 3 3 0 -2.9555911216510293 -1.5201225759539108 -2.800828732269335 1 1 1
117 36 4 0 -0.1810979015383186 -0.5871117337918217 -0.18474483319121254 -1 1 0
25 5 3 0 -1.089750902322113 -1.3085573492244253 -2.680718441172209 1 1 1
94 28 4 0 -3.1833313805493875 -1.2498537825549603 -2.6316415379411193 1 1 0
90 27 4 0 2.7152439282235 -0.4214726104107447 -2.146652296748183 0 0 1
89 27 2 0 2.5164445820493437 -0.08408817791810615 -2.440330218078618 0 0 1
39 10 4 0 2.8354351318057187 -0.44048360717871266 -1.746840725636545 0 0 0
146 46 2 0 -1.6709419546753914 -2.384533642017879 -0.5375183583209642 1 1 1
82 24 4 0 -2.1548334671307234 -2.3295306295529667 -1.3177139933171353 1 1 1
147 46 4 0 -1.9065263264213894 -2.353215849511039 -1.0154718573838846 1 1 1
148 46 4 0 -1.4431365797313238 -2.4113466401506423 -0.1000754768074533 1 1 1
35 9 2 0 -0.5682411709253506 -2.206030257007412 -1.1893632586857128 0 0 0
37 9 4 0 -0.6445700437434976 -2.699879117493298 -1.2055142509969023 0 0 0
69 20 4 0 -0.39246107672085173 -2.961995458652862 -1.0626565868938318 0 1 1
123 38 4 0 -1.1145844770923283 -2.2037941370405347 -0.06514637172013671 0 1 0
36 9 4 0 -0.49254102801786115 -1.7290785950946608 -1.175680165716245 0 0 0
38 10 2 0 2.8422180272407855 -0.46719624213724675 -1.2380648977110835 0 0 0
40 10 4 0 2.8446524748382465 -0.48110495643996914 -0.7253876862924215 0 0 0
128 40 2 0 2.207823750129118 -0.3871671582027942 -0.2618084072582241 -1 0 0
34 8 4 0 -1.1860436878974951 -0.21059882595311902 -0.9436664779247185 0 0 0
86 26 2 0 -0.596342873656886 -0.3358706983881717 -1.2878702248790717 0 0 0
87 26 4 0 -1.11363240496111 -0.33493132919552965 -1.3251853464647498 0 0 0
46 12 4 0 -0.23650826070574038 -1.473700146884011 -1.059864032103694 -1 0 0
88 26 4 0 -0.12429278390207768 -0.33254978085627623 -1.2562926665179406 0 0 0
10 2 3 0 0.25301166091801247 -0.6384253009461801 -0.1873870477553809 0 0 0
45 12 4 0 0.2963759617023871 -1.017153397473026 -1.7541348081284964 -1 0 0
44 12 2 0 0.03757776056092959 -1.2421889784659192 -1.4128634104433062 -1 0 0
6 2 1 0 0.27760905951881215 -0.24927563194481403 -0.4890932319143711 0 0 0
8 2 3 0 0.7534091240612393 -0.0981884774164532 -0.5380584924731094 0 0 0
7 2 3 0 0.09768477082609373 -0.3706356849449319 -0.9360871918596684 0 0 0
119 37 2 0 0.4766435311155461 -2.5605362403996765 -3.1627452757793213 0 1 0
24 5 3 0 -1.81322521517301 -1.1751598042122215 -3.0646417569318536 1 1 1
52 14 4 0 1.5759613707080804 -2.996583760148873 -0.007130133766390982 0 0 0
62 18 2 0 -1.7737466776811177 -2.501311843574123 1.3955425855057746 0 0 0
64 18 4 0 -1.8448559042394044 -2.791613015270649 0.9981400308221158 0 0 0
127 39 4 0 -0.13848053111422684 -2.3535433975679725 2.1605232115412174 -1 1 0
51 14 4 0 2.1311376965648083 -2.2640208538349462 0.4580312309431714 0 0 0
79 23 4 0 1.815393642833244 -2.085660337042354 0.610725479150698 0 -1 0
50 14 2 0 1.8445543150606052 -2.631269710911755 0.23153567173266945 0 0 0
77 23 2 0 1.8023935289161355 -1.6476940400416478 0.8461907960043334 0 -1 0
158 50 2 0 -3.002366004874223 -1.3350546174673537 1.1182256114408338 0 0 0
159 50 4 0 -2.5006213731677085 -1.4387507464542977 1.1083485613621806 0 0 0
124 38 4 0 -0.9849396141222113 -1.2632671002583291 0.34592692464744396 0 1 0
118 36 4 0 -0.8769208227533342 -0.8854380814776673 0.41082710474289097 -1 1 0
116 36 2 0 -0.5224952137418737 -0.734021271212882 0.1110114154134221 -1 1 0
152 48 2 0 -0.25690345487558075 -0.17820764610132744 1.417602798382805 0 0 0
145 45 4 0 -0.44043829196161266 -0.6758610940308633 1.794814340613652 0 0 0
78 23 4 0 1.8010730170349283 -1.2150994845202083 1.0857036999439498 0 -1 0
160 50 4 0 2.9626772999524733 -1.2411410869546573 1.1286631529957942 -1 0 0
106 32 4 0 1.779052903721232 -0.8152155614740879 1.1208729120318794 -1 0 0
129 40 4 0 1.964661188432266 -0.27112917739376385 0.17565043193745133 -1 0 0
104 32 2 0 1.99680895183032 -0.5016003264129169 0.8030764109823381 -1 0 0
105 32 4 0 2.2286221631679766 -0.1680665410189326 0.47734176368515124 -1 0 0
63 18 4 0 -1.7055602735683135 -2.206181793301675 1.793692015647162 0 0 0
71 21 2 0 -0.23198670740319635 -1.5774680566294672 3.0102439255559745 0 0 0
65 19 2 0 -2.279515925831457 -2.210013804354366 2.416428436915264 1 0 0
67 19 4 0 -2.6350897596584066 -2.087555497744859 2.7512278654627815 1 0 0
66 19 4 0 -1.9162744732762866 -2.3318456370836746 2.087064218937717 1 0 0
15 3 3 0 -2.5287064781021353 -1.966778615221217 3.106418627852523 1 1 0
49 13 4 0 -1.563833276231794 -0.3138824839497926 2.1239102749250334 0 0 -1
126 39 4 0 -0.15695328186886912 -1.9187093595294462 1.2635406934730136 -1 1 0
125 39 2 0 -0.1489847799402533 -2.133348820693118 1.7038554507706345 -1 1 0
73 21 4 0 0.010762807273092482 -1.958698123944463 3.1944120372256584 0 0 0
121 37 4 0 0.2273606476410777 -2.2430722524463254 2.9920157112465016 0 1 -1
154 48 4 0 0.08246408422196241 -0.038232604590768125 1.1064370595900177 0 0 0
13 3 3 0 -3.1759936649991936 -1.540976111298801 2.830050188125411 1 1 0
11 3 1 0 -2.7817911535758877 -1.5511392098209378 3.167874033155129 1 1 0
155 49 2 0 -1.9757009021979342 -0.8272709110221519 2.6780215274458046 0 1 0
156 49 4 0 -1.8787958272019554 -0.5091049606201882 2.317029907420469 0 1 0
153 48 4 0 -0.6171142336903286 -0.3186130607814007 1.756861245056956 0 0 0
144 45 4 0 -0.7573647461850755 -0.9032732170447292 2.72398146603324 0 0 0
157 49 4 0 -2.0763784216583536 -1.1496369607396244 3.032043121869217 0 1 0
72 21 4 0 -0.48095314105676185 -1.1764320885516142 2.82138071721305 0 0 0
143 45 2 0 -0.6058296757227882 -0.7842024698129844 2.2786284893146793 0 0 0
122 38 2 0 -1.0401970216701601 -1.7230854279405032 0.14689687801022214 0 1 0
14 3 3 0 -2.479519549012798 -1.1542648304423708 3.0812639063231324 1 1 0
55 15 4 0 1.12774389664922 0.6644138959660139 -2.7974087697773555 0 0 0
53 15 2 0 1.5500669754601342 0.3623625752118952 -2.7874730488384167 0 0 0
27 6 4 0 0.9144445054510645 0.6867292872123183 -3.1476276838980257 0 0 0
5 1 3 0 1.8212819737871688 2.212365556319549 -1.1967995804091207 -1 -1 0
91 27 4 0 2.318059490055389 0.2375137381106715 -2.7353420483564483 0 0 1
56 16 2 0 -0.705077183310275 2.1100465765354635 -2.454821076986655 1 -1 0
57 16 4 0 -1.0982366208675824 2.2375961293030078 -2.715587932181179 1 -1 0
135 42 4 0 -0.9737845284376139 2.545206537828459 -2.9156878061359013 0 0 1
32 8 2 0 -1.6378126877425512 0.04963132147790338 -0.8998989561702591 0 0 0
58 16 4 0 -0.32490017756443784 1.9880577761813836 -2.196525935997363 1 -1 0
61 17 4 0 0.039690092557438855 2.037083925604321 -2.031437931690351 0 -1 0
59 17 2 0 0.46045321010930673 2.1368666235781713 -1.7761872915115156 0 -1 0
113 35 2 0 2.3600658175191707 2.75903807284993 -2.2246593072929395 -1 0 0
115 35 4 0 2.0423468449922093 2.3780002294803375 -2.141735039144747 -1 0 0
114 35 4 0 2.6641878264876535 3.1396150413739177 -2.3003911238277164 -1 0 0
4 1 3 0 1.9523274654142715 2.029433331622703 -1.9655511901661833 -1 -1 0
3 1 3 0 1.5675361321690735 1.4851226585074726 -1.4913187907644045 -1 -1 0
1 1 1 0 1.6380431126243067 1.9781791026581068 -1.6036652992341913 -1 -1 0
110 34 2 0 -2.014442712374005 1.0721486394880553 -0.9291551741937285 0 0 0
111 34 4 0 -1.8395347134270306 0.6121801967669148 -0.9424154362966479 0 0 0
33 8 4 0 -2.0920756612483653 0.3181406742834117 -0.8377464981583885 0 0 0
112 34 4 0 -2.193810852197886 1.5282349093621597 -0.912678444231183 0 0 0
42 11 4 0 -0.20493307062262828 0.3925684698391466 -0.039756565255491934 0 0 0
9 2 3 0 -0.017679193787866553 0.13817450231288914 -0.2843625657800127 0 0 0
30 7 4 0 1.291937342862376 1.155130028539485 -0.5013714846543004 0 0 0
102 31 4 0 2.907648551682927 3.204083230605667 -1.9962730617118347 0 -3 0
132 41 4 0 -2.0098375824550994 1.7998096682731435 -0.6952067231371208 0 0 0
131 41 2 0 -2.2698250480295 1.897719539886956 -0.2749448861605484 0 0 0
70 20 4 0 0.13510634986104197 3.0142630254614717 -1.7977982642857617 0 0 1
95 29 2 0 1.2038934700917763 2.680862466543686 -0.23346670801820613 0 -1 0
96 29 4 0 1.074617989696635 2.220483612279443 -0.32300743370763213 0 -1 0
29 7 2 0 1.0406426540897151 1.601756526871887 -0.5375642096932579 0 0 0
60 17 4 0 0.8781397630322022 2.2259712013962685 -1.505806462099741 0 4 0
2 1 3 0 1.2086044738392587 2.173914679032121 -1.7217579943807935 -1 -1 0
31 7 4 0 0.8033790924133976 2.0417512176136987 -0.5605488736819194 0 0 0
20 4 3 0 1.5062567950035284 1.1076199836219807 -0.16201834781433413 0 0 0
139 43 4 0 0.5205506700280729 3.029378693257672 -1.7970635815618234 -1 0 1
54 15 4 0 1.9655296012286378 0.0731485497417877 -2.7516270417671667 0 0 0
97 29 4 0 1.3168134432600054 3.1559913950081815 -0.14394015235104796 0 -1 0
134 42 2 0 -1.2888735771164201 2.793936922837473 -3.211865841120708 0 0 1
99 30 4 0 -0.817463528452031 1.4902912849307577 1.5219805761064653 0 1 0
98 30 2 0 -1.0721824862137583 1.0542950290755049 1.451480932256332 0 1 0
100 30 4 0 -1.3223375551757963 0.6195013110476294 1.3881914408098477 0 1 0
17 4 3 0 1.6517255718847283 1.342386675261438 0.6313491872458679 0 0 0
41 11 2 0 0.016245887480537825 0.300827408906352 0.4066965054286178 0 0 0
43 11 4 0 0.24525311037051611 0.2113712265096878 0.8635044385236538 0 0 0
16 4 1 0 1.7188092225438543 0.9688404147784175 0.3033913192876392 0 0 0
18 4 3 0 2.220204734989791 0.8922804286962042 0.24503819582834488 0 0 0
47 13 2 0 -1.4601079504465402 0.14365366712237534 1.959329743161239 0 0 -1
150 47 4 0 -3.1720983370112914 1.5814219577927195 1.0500494433563718 1 0 0
19 4 3 0 1.4937551569273424 0.5439000799970395 0.48070758476847064 0 0 0
133 41 4 0 -2.5181776520100088 2.012571632166446 0.1313499081423837 0 0 0
151 47 4 0 -2.381326194049526 1.8773467716878087 0.47263070644332933 1 0 0
149 47 2 0 -2.7594368600684867 1.7338397014984968 0.7543432198441274 1 0 0
107 33 2 0 1.170406842011886 2.0014722097953044 1.3332908745186747 0 0 0
109 33 4 0 1.5299340401622818 1.8651611926607694 1.0043018709545313 0 0 0
142 44 4 0 -2.7613726702454486 2.8734657195701216 2.2749300711483635 0 0 0
74 22 2 0 2.40186924977803 1.7108034912065975 0.9747732830818618 0 0 0
76 22 4 0 2.88974261253836 1.5860856092177935 0.8666761800889912 0 0 0
75 22 4 0 1.9244834333040937 1.8269699578302008 1.0826886525278328 0 0 0
48 13 4 0 -1.348894104900946 0.6393096209934456 1.7852764228577855 0 0 -1
84 25 4 0 0.26904060372913235 1.4701413650612785 2.67848450153458 0 0 0
28 6 4 0 0.24775608230727855 1.3202267329476816 3.0625770432167188 0 0 -1
26 6 2 0 0.5891071597565026 0.9926550141158427 3.1767618241603945 0 0 -1
141 44 4 0 -1.8395099500831835 3.0838810250277193 2.588984539023332 0 0 0
140 44 2 0 -2.2947945882597733 2.9801832285904397 2.4367787868053714 0 0 0
136 42 4 0 -1.6172658343125208 3.0600627292505083 2.9049381078246324 0 0 0
83 25 2 0 0.5442999413996777 1.7539036164370603 2.348261557688113 0 0 0
85 25 4 0 0.8298473515452035 2.034211717104169 2.0288812076468417 0 0 0
108 33 4 0 0.7990110721480328 2.150479894146083 1.6628324757566968 0 0 0

Velocities

103 -0.2362095846735185 -0.8048798154098185 3.550515790189932
80 0.25060038851824123 0.26526211507235703 -0.12879936871686154
81 -2.792285074092306 -3.584248644608454 -2.4910508364297534
22 -1.7733856356189366 0.515258627426569 1.2601778152648144
21 0.06504837625254797 0.14985884728315477 0.18703728385045987
120 4.97577990887857 3.0155136445481667 -5.442013911021725
138 0.5028392991516337 -0.20239855555499947 3.544242086829313
137 0.28831338650624516 -0.34418226181024947 0.40931442057744666
23 0.7241295561095596 7.616596798804463 -0.736646701853358
93 -1.4392860122641475 1.7056316876301656 0.5170548714387542
92 0.028874077495578753 0.05003115654559827 -0.22418703236435328
101 -0.3570321891702026 0.2942407851336177 0.14912393792168685
130 -0.5941441394332556 0.1723863900345648 1.1096849620628721
68 0.4164394095430656 0.05569914767750922 -0.29677154315358956
12 -2.103230540247062 -4.3432207825847655 -3.6128178175299044
117 -1.5792468554276675 1.105099914140106 -0.011823647834014545
25 -0.8028127774364986 -2.848717207404045 -1.1516817674537307
94 6.302724515545151 4.896358753726418 -0.9218497587849396
90 -2.8326009092246673 0.9067848554388566 1.9009860970860237
89 -0.4400427586028028 -0.32095085380508187 -0.10173066963528153
39 -0.401026346648645 1.9553754569421389 2.00813002967569
146 0.05531186601502702 0.06336868789222685 -0.14240275823763165
82 1.3758166291494303 0.6269036251637293 -1.0202743021107208
147 1.32498416587865 1.9515757258079423 1.1932908209375095
148 -1.3579966012215163 0.24464556054486541 0.8192815332485286
35 0.23055320781863076 0.08349398053610078 -0.0005087704664814606
37 1.6045531812613756 0.8502277721774696 -2.1120080751694736
69 1.23259210879723 -0.18835597565274165 0.9777878147590475
123 2.037470972659968 -2.6084811791369993 -0.05685896932623968
36 0.8724992501675024 -2.0487435915766516 -1.468577555453485
38 -0.14831252414174925 0.22555946742726501 -0.2024972680020985
40 2.373370650494445 2.0026666426767967 -3.9202750577650716
128 0.2647843185883362 0.024376689884698658 0.008460208279624716
34 -5.0236663115362985 -1.0195370773935142 -5.445262166213455
86 -0.3270649993978825 0.16465809115627003 -0.06418631957204106
87 -5.329321496768656 1.8398348145744006 0.848385362295807
46 -0.8195155219375662 5.361923945830558 0.1069217177791813
88 2.5758311740686546 2.935777762482478 0.409480292843607
10 -3.351204657478418 0.04587209425541616 -1.9145111516222462
45 -0.18259585753140917 -2.057707087005178 3.031689517274197
44 0.14371461134121738 0.1362484103791111 -0.2949155822834905
6 -0.12902149742161323 -0.21311932504938125 -0.293695534851131
8 0.7150598327746098 2.5936520405191708 -0.3689046412687298
7 -0.1684421251503767 0.944330144266543 -1.101948513934175
119 0.1900041675015459 0.2349651281187428 0.2652433970171835
24 2.1070619983675374 -5.537079627515976 3.2403338594019484
52 -1.8880332924325467 0.8773846110999505 -1.3056860940552943
62 0.11935325802274338 -0.22455532119171823 0.2594445593430598
64 -3.4406300985179206 0.43891647547302554 1.3389306343545757
127 2.458416330715294 1.270524216928058 -2.047500409473235
51 2.2452744288946214 0.96890567664587 0.6727399753462695
79 -0.5727331971575421 3.225515164146775 -3.0967734913607092
50 -0.12174847666846725 0.10182538087970855 0.021323263639642785
77 0.060986119626275204 -0.18330934869070015 0.10852623834022464
158 0.4168151941067601 0.4116812098184429 -0.07299525222847941
159 1.6772941527872063 -0.6016486802860856 2.5272417097264537
124 -0.09295137667089104 2.494560180367431 2.8035706546681536
118 2.68811625877877 2.3658185937095584 2.0996492898991037
116 -0.05103289606855686 -0.21993560892618394 0.4205399689790289
152 -0.3469378752079028 -0.028083632739127194 0.023010031633418714
145 1.3926874011053745 1.7819593732172943 -0.24306729795790094
78 4.5332554960393425 2.547086834173206 -1.4820702102228147
160 0.5653271096277966 -0.16814288925004672 -0.18290524381471673
106 -4.181055983680741 0.8405361387836521 -0.03631184599616771
129 2.397756962737187 1.4040709664577942 -5.2956629264126365
104 -0.02898248196964595 0.18441343778005706 -0.32640550482583025
105 -3.901376308705579 -0.7193167169664412 0.5743342381842563
63 -0.22404653888143855 2.8255219979710384 2.745148782772103
71 -0.08642483611514669 -0.10305987936463372 -0.5043690243907029
65 0.04334620768919979 0.18184284155403777 -0.07905751280881396
67 0.28514451337371016 -2.0224939928808072 -3.6911330135139178
66 -1.1425214195234634 -1.0095105008831635 -0.7561283537687449
15 1.5232520760313881 -4.211455183989393 -3.04388465911448
49 2.164853295385004 -0.3769956519400173 1.430358769406565
126 3.096543164387511 2.9762729883065653 -0.1063024567574831
125 -0.17543261443616165 0.5030411050156872 0.0780003007227686
73 -2.495360641450259 -7.9570435249738605 0.18820168003195006
121 -1.2429866581627047 -3.9658910966811343 -2.8657247977690252
154 -1.8767891177412113 -2.975565619225927 2.1903079306178306
13 2.860893421472325 -2.3742733185537883 2.6133971276258094
11 0.0466734861093875 0.3398476630578009 0.16763255796471224
155 -0.05878591105519441 -0.3301103124909666 0.25537322054972655
156 -0.45517148580672834 -2.871713855766313 2.653946694722222
153 0.06533651455435392 1.5843118075987812 0.5115677282026021
144 -0.05111656467105824 -3.4328251727135255 -3.5285962527601678
157 3.6253142790549484 -0.13019354002331643 -2.1172383296382864
72 3.949977058459615 0.1229893035257314 2.793891140160832
143 0.24016642184963463 -0.10619575574599363 0.05630873631367518
122 -0.29722554892776476 0.06031445589122273 -0.12779656109801268
14 0.713616183285245 -4.9154383936634 3.119212649482046
55 -0.901414770653695 -0.52150557320697 1.0617938687558688
53 0.030392408457514078 -0.07826822720065128 -0.34430981758887136
27 -1.8528628324503766 -0.6265021453865778 -1.448561158188994
5 -2.804125709872552 2.2784804350988375 -0.424726643759936
91 0.011978995282012454 -0.005623277019474127 -0.532861943578814
56 -0.039914385652291294 0.44900624286640123 0.008803874138541567
57 -0.13138115707200457 2.1588971120203917 -2.1721633478880085
135 -0.8363361243128413 -0.4865188275177289 -0.466788963909928
32 0.05285595355558116 -0.20761367195176567 -0.10843080268849735
58 1.6514713182331224 1.5530696147860275 -0.8321087511984672
61 -0.3047484443355053 -2.1422001375188837 -2.2316856337101303
59 0.09062012947656117 0.02406102697309107 -0.5757040863844121
113 -0.348611738285864 -0.33337686982720754 -0.22736903283778562
115 -2.8349319705231957 -2.0684128799954777 -2.292470940183357
114 2.5476434348116572 0.956873113957099 -1.0559305904489116
4 -1.1515119766975845 2.8042440194386975 0.3265798228628106
3 -1.1865248715498873 0.579368822525232 -0.3094395771559584
1 0.1469270593934957 0.5315017887334709 -0.4231431036589177
110 -0.30024561823957713 0.5181719593321719 0.2421454111164048
111 2.248529442610402 -0.6467346697712156 1.273190045981075
33 0.5947924554771775 0.6050317736990897 -2.411265380985878
112 -0.6251832812483394 -1.7946151427908321 1.1973146562992918
42 -1.3425697355517598 2.9288663331168965 0.0009779251751254603
9 -0.8045476169006123 -0.7296224195196426 1.2433016549730969
30 -0.10198894463766983 1.5031517423858642 0.38203154812826123
102 -0.8981443774352895 0.6175784997196105 0.08426710247135277
132 0.672458354959639 -0.44314798949291556 0.7104294727306566
131 0.2952963733075035 0.08749332432124275 0.1821706267349177
70 -5.815572002974983 -0.2877302041407915 -4.196628413810532
95 0.34039265711298233 -0.11146405739721925 -0.024419689411089268
96 0.35315768093796146 -2.8396183899479652 -3.214341206886922
29 0.02222299978283529 -0.028990547615421972 0.6392332770765304
60 -1.061596892771883 1.1503180815495233 3.751369139140676
2 -3.29277434305224 -1.1836236253190286 -5.769895929664685
31 3.1656628930178727 -3.3324040635028154 0.8974960436960433
20 -3.913049787877448 5.4473665414784875 -1.9780003535139659
139 -0.10441546069418228 1.4124826950173484 4.2564675139147345
54 -3.018312998132677 0.46545733923256727 2.9238617990229074
97 -0.23993053154421107 1.1895451063508042 -3.909031459982799
134 0.07389397637217046 0.034475661378630444 0.13379103115344942
99 -2.830577260931351 -0.8401055019851613 0.899571907585629
98 -0.3063182315024677 -0.21684000505251835 0.19725281325873334
100 -3.868493190678995 -4.869901789698712 -4.365095386913734
17 -0.40018309036467364 -0.7811137665357193 -5.009543327925019
41 -0.022647907909353813 -0.02539739432502856 -0.25864226261826767
43 2.146728215494352 2.7414974721761016 -0.06988506086645846
16 -0.3848643509835866 -0.13452755797250662 0.10058743517990398
18 5.192476921755723 2.117154940673983 -0.04377004586355653
47 -0.1537997556004577 -0.13662690374567504 0.18550770258932103
150 0.03291501226496063 1.4690569694426983 4.894152288077014
19 0.3741641600832383 2.316371461530071 -1.5177909484860514
133 0.21746105712913355 -0.1376893163014704 -0.9186420230586739
151 -0.48216101523724386 -0.566764298483421 0.30082372396736556
149 -0.5499242371195471 0.12484387109933345 0.13332206495636853
107 0.49404084589561514 0.24416417545905292 -0.10962450501472158
109 -4.261256777249658 -1.8153267331480945 0.6077699708543493
142 -0.030573209174048127 0.055086803457798955 -0.630673272063087
74 0.005009843336582281 -0.4554605720047611 -0.24028448911439176
76 0.24272874793297888 1.7323906731299665 -0.546568205888379
75 -3.208404561137233 -0.8462609176498956 -5.737476197555076
48 -0.9482812877214516 -1.190773950784876 1.983963797467506
84 4.40537358565961 0.4955640373717457 0.3916712559179592
28 -0.29752763692367357 1.1342703850304283 -2.9131914632183307
26 -0.21739176435429647 -0.18621671158929268 0.049779261684711376
141 -0.653700814123803 2.030696922442503 3.592105617600369
140 -0.10183989558509335 -0.10745383450879495 -0.08716337041048648
136 0.6084283158213645 -0.2607545050634288 4.378308089141887
83 0.2196972392118604 -0.3267283294287904 -0.16295897869460207
85 -0.3798953203509188 -1.259486677451257 -1.4052287907844079
108 0.5128132717560671 -3.001662355960742 -3.354163377488816

Bonds

1 1 80 81
2 1 80 82
3 1 21 22
4 1 21 23
5 1 21 24
6 1 21 25
7 1 137 138
8 1 137 139
9 1 92 93
10 1 92 94
11 1 101 102
12 1 101 103
13 1 68 69
14 1 68 70
15 1 89 90
16 1 89 91
17 1 146 147
18 1 146 148
19 1 35 36
20 1 35 37
21 1 38 39
22 1 38 40
23 1 128 129
24 1 128 130
25 1 86 87
26 1 86 88
27 1 44 45
28 1 44 46
29 1 6 7
30 1 6 8
31 1 6 9
32 1 6 10
33 1 119 120
34 1 119 121
35 1 62 63
36 1 62 64
37 1 50 51
38 1 50 52
39 1 77 78
40 1 77 79
41 1 158 159
42 1 158 160
43 1 116 117
44 1 116 118
45 1 152 153
46 1 152 154
47 1 104 105
48 1 104 106
49 1 71 72
50 1 71 73
51 1 65 66
52 1 65 67
53 1 125 126
54 1 125 127
55 1 11 12
56 1 11 13
57 1 11 14
58 1 11 15
59 1 155 156
60 1 155 157
61 1 143 144
62 1 143 145
63 1 122 123
64 1 122 124
65 1 53 54
66 1 53 55
67 1 56 57
68 1 56 58
69 1 32 33
70 1 32 34
71 1 59 60
72 1 59 61
73 1 113 114
74 1 113 115
75 1 1 2
76 1 1 3
77 1 1 4
78 1 1 5
79 1 110 111
80 1 110 112
81 1 131 132
82 1 131 133
83 1 95 96
84 1 95 97
85 1 29 30
86 1 29 31
87 1 134 135
88 1 134 136
89 1 98 99
90 1 98 100
91 1 41 42
92 1 41 43
93 1 16 17
94 1 16 18
95 1 16 19
96 1 16 20
97 1 47 48
98 1 47 49
99 1 149 150
100 1 149 151
101 1 107 108
102 1 107 109
103 1 74 75
104 1 74 76
105 1 26 27
106 1 26 28
107 1 140 141
108 1 140 142
109 1 83 84
110 1 83 85

Angles

1 1 81 80 82
2 2 22 21 23
3 2 22 21 24
4 2 22 21 25
5 2 23 21 24
6 2 23 21 25
7 2 24 21 25
8 1 138 137 139
9 1 93 92 94
10 1 102 101 103
11 1 69 68 70
12 1 90 89 91
13 1 147 146 148
14 1 36 35 37
15 1 39 38 40
16 1 129 128 130
17 1 87 86 88
18 1 45 44 46
19 2 7 6 8
20 2 7 6 9
21 2 7 6 10
22 2 8 6 9
23 2 8 6 10
24 2 9 6 10
25 1 120 119 121
26 1 63 62 64
27 1 51 50 52
28 1 78 77 79
29 1 159 158 160
30 1 117 116 118
31 1 153 152 154
32 1 105 104 106
33 1 72 71 73
34 1 66 65 67
35 1 126 125 127
36 2 12 11 13
37 2 12 11 14
38 2 12 11 15
39 2 13 11 14
40 2 13 11 15
41 2 14 11 15
42 1 156 155 157
43 1 144 143 145
44 1 123 122 124
45 1 54 53 55
46 1 57 56 58
47 1 33 32 34
48 1 60 59 61
49 1 114 113 115
50 2 2 1 3
51 2 2 1 4
52 2 2 1 5
53 2 3 1 4
54 2 3 1 5
55 2 4 1 5
56 1 111 110 112
57 1 132 131 133
58 1 96 95 97
59 1 30 29 31
60 1 135 134 136
61 1 99 98 100
62 1 42 41 43
63 2 17 16 18
64 2 17 16 19
65 2 17 16 20
66 2 18 16 19
67 2 18 16 20
68 2 19 16 20
69 1 48 47 49
70 1 150 149 151
71 1 108 107 109
72 1 75 74 76
73 1 27 26 28
74 1 141 140 142
75 1 84 83 85
