LAMMPS data file via write_data, version 29 Aug 2024, timestep = 9000000, units = lj

1530 atoms
4 atom types
1030 bonds
1 bond types
575 angles
2 angle types

-6.58545 6.58545 xlo xhi
-6.58545 6.58545 ylo yhi
-6.58545 6.58545 zlo zhi

Masses

1 1
2 1
3 1
4 1

Bond Coeffs # harmonic/omp

1 100 0.5

Angle Coeffs # harmonic/omp

1 100 180
2 100 109.471

Atoms # full

223 65 2 0 -2.2078269660510226 -5.320500800902335 -5.954784940923121 0 0 0
224 65 4 0 -2.1939649570869166 -5.59776303061522 -5.535296196786736 0 0 0
225 65 4 0 -2.2182314572237587 -5.008614053476767 -6.415891149479922 0 0 0
123 31 4 0 -2.252327160994557 -5.844868497512428 -5.230162340073077 0 0 0
203 58 4 0 -3.352875021071926 -4.445422732226866 -5.141314024823589 0 0 0
264 78 4 0 -2.232562092121402 -4.652739673458764 -6.5547772919731715 0 0 0
347 106 4 0 -0.8287068056637391 -0.06812322975908695 -0.31025263161748895 0 0 0
552 174 4 0 -3.353317810876891 -0.016795919832405696 -0.7013988428492803 0 0 0
176 49 4 0 -1.8902331906155216 -4.82834725772289 -6.551640921624945 0 0 0
196 56 2 0 -5.921196688669998 -1.8759730787724287 -5.1611531246232625 0 0 0
197 56 4 0 -6.416361920473043 -1.7751452815140938 -5.254096342309112 0 0 0
98 23 4 0 -6.309623716846466 -0.9505954161529871 -6.367544811445279 0 0 0
570 180 4 0 -3.185107214444843 -0.8403085008943829 -6.512305373895772 0 0 0
568 180 2 0 -3.097937906789084 -0.5691501578323922 -6.081091864654756 0 0 0
569 180 4 0 -3.025556354926428 -0.2944872215186635 -5.666876069843773 0 0 0
453 141 4 0 -2.6969447314580677 -0.4990424922821164 -5.521147888858001 0 0 0
451 141 2 0 -2.248877019238634 -0.28971499394115696 -5.405288181130605 0 0 0
576 182 4 0 -3.699003181081707 -0.23013219929973444 -0.7364443553073813 0 0 0
603 191 4 0 -1.4102836804182468 -0.025253228861875095 -5.305922373152149 0 0 0
452 141 4 0 -1.7908546491108255 -0.08563345756915132 -5.280705742323173 0 0 0
243 71 4 0 -1.5304785720116751 -0.3333324321369191 -5.490986582811374 0 0 0
241 71 2 0 -1.2896243557726277 -0.6270066510799626 -5.824448399750155 0 0 0
79 17 2 0 -0.3873993442207318 -1.3355504199564974 -5.95204968386158 0 0 0
81 17 4 0 -0.7958565315164013 -1.1865802967642645 -6.225158202070826 0 0 0
242 71 4 0 -1.0588927740448066 -0.9005344853115639 -6.137248040706779 0 0 0
621 197 4 0 -0.8149708297391898 -0.8553637910957029 -6.430182427486827 0 0 1
147 39 4 0 -1.0989630221965392 -1.128471216467078 -6.470951684833967 0 0 0
1270 414 2 0 -6.478362923829088 -1.8701731581968954 -0.7764862128344433 1 0 0
110 27 4 0 -3.8002826966850622 -5.32705386600068 -4.336049172741736 0 0 0
109 27 2 0 -3.5486876626115094 -5.621467203368282 -3.998106726032592 0 0 0
84 18 4 0 -4.169346686334433 -5.316408124767262 -4.502133647257714 0 0 0
204 58 4 0 -3.8525705597804096 -5.237935517641769 -4.716276935483251 0 0 0
134 35 4 0 -3.4354795278898345 -6.245958600487621 -3.4470046635335603 0 0 0
111 27 4 0 -3.307244688825422 -5.924719407869919 -3.656990986394236 0 0 0
261 77 4 0 -3.2131281181650517 -5.942411192043618 -3.2881408655298303 0 0 0
762 244 4 0 -6.508532965233535 -6.365508859187961 -1.7455323087680517 0 1 0
189 53 4 0 -1.914565094962757 -6.501295226145666 -4.00837035867386 0 0 0
192 54 4 0 -2.2695980017359183 -6.450121528038986 -4.184397088841513 0 0 0
191 54 4 0 -3.0773290317535795 -6.207395732589219 -3.5694489965967837 0 0 0
121 31 2 0 -2.106654353963608 -6.08100473927566 -4.806158210275547 0 0 0
122 31 4 0 -1.9590837199403817 -6.328120778154798 -4.378411445528147 0 0 0
190 54 2 0 -2.6808555626739348 -6.327145364917842 -3.868120675403944 0 0 0
187 53 2 0 -1.6751458994331991 -6.5568721969914545 -3.54950404558024 0 0 0
195 55 4 0 -4.930349253428182 -4.5665455734780585 -3.5949450509274494 0 0 0
82 18 2 0 -4.4983629410014165 -5.031714963295112 -4.207122594005869 0 0 0
83 18 4 0 -4.8095763956173565 -4.7760761116109745 -3.918864306532048 0 0 0
193 55 2 0 -4.777720899626734 -4.111832957940753 -3.3835440031226867 0 0 0
202 58 2 0 -3.598207857951392 -4.836930233776407 -4.928163583488206 0 0 0
220 64 2 0 -3.768243665482312 -3.6938343725874145 -3.420146737099666 0 0 0
194 55 4 0 -4.629602408519728 -3.6529292453919635 -3.1639308064987137 0 0 0
222 64 4 0 -4.228177176651812 -3.5650981675402607 -3.238655281982853 0 0 0
155 42 4 0 -3.1574627173713976 -4.231014019558676 -4.841267190453263 0 0 0
154 42 2 0 -3.114009404280731 -4.0355017292670095 -4.390744601574117 0 0 0
156 42 4 0 -3.0800393342636716 -3.8319667138311275 -3.939715339043556 0 0 0
168 46 4 0 -2.974056216124485 -4.009719896173024 -3.6193467712514846 0 0 0
246 72 4 0 -2.968755426741243 -3.6008300801978907 -3.6539850174470723 0 0 0
221 64 4 0 -3.3067184953819 -3.8195895520864087 -3.599005087094226 0 0 0
166 46 2 0 -2.8406224012037056 -4.429923542933919 -3.3593955767511456 0 0 0
198 56 4 0 -5.440473655925802 -1.9818674517593042 -5.09165771330874 0 0 0
251 74 4 0 -5.476455015285961 -1.951661869798127 -4.708259977114909 0 0 0
250 74 2 0 -5.093340515310463 -2.065379456975418 -4.378379616376821 0 0 0
252 74 4 0 -4.739900860617399 -2.1647047801277157 -4.062170962434853 0 0 0
233 68 4 0 -4.584256494636588 -2.4957370401123553 -3.926301604876294 0 0 0
232 68 2 0 -4.545406678320416 -2.940373447967247 -3.701657859394482 0 0 0
116 29 4 0 -4.67038232567576 -2.1658639330180427 -3.686600075882898 0 0 0
115 29 2 0 -4.34576351287026 -1.8525979297983555 -3.4455279912993753 0 0 0
234 68 4 0 -4.495170488027344 -3.3883544789605855 -3.469652614237024 0 0 0
244 72 2 0 -2.690565591968711 -3.247855905704676 -3.499131992320252 0 0 0
207 59 4 0 -0.5402305297780622 -0.04867784032666107 -4.3043561099752 0 0 0
205 59 2 0 -0.3705558817106368 -0.4944818124285273 -4.165213408451478 0 0 0
101 24 4 0 -5.364013162938366 -5.637842505149441 -1.6183166000586677 0 0 0
333 101 4 0 -6.461761861445219 -6.031604578205959 -1.5415221716202658 0 0 0
100 24 2 0 -4.850631941820325 -5.755798732502216 -1.6387822045135916 0 0 0
102 24 4 0 -4.355346449772354 -5.865086129176905 -1.6485593145923658 0 0 0
95 22 4 0 -4.208887297007764 -5.527528011891875 -1.5443099517799768 0 0 0
94 22 2 0 -3.8955539581250935 -5.15185485398093 -1.6940419886950708 0 0 0
459 143 4 0 -3.1243944382420126 -6.314913941705476 -3.185282420064809 0 1 0
206 59 4 0 -0.1956955988110575 -0.9503797345769893 -4.01208770510559 0 0 0
259 77 2 0 -2.991855703803106 -5.546259216768076 -3.080309034054213 0 0 0
217 63 2 0 -2.0063880781874732 -5.093163237797284 -2.842148240753169 0 0 0
260 77 4 0 -2.7545434813799394 -5.134551982758115 -2.8766089002439386 0 0 0
219 63 4 0 -1.57826068874726 -5.277530047637941 -2.890378741475447 0 0 0
1193 388 4 0 -0.12738032475661576 -1.1381750822128618 -4.38292652453816 0 0 0
97 23 2 0 -6.455774145911346 -1.2303860341399098 -5.940634802789675 0 0 0
615 195 4 0 -1.2044838932005681 -1.03920326209636 -1.054165103589563 0 0 0
185 52 4 0 -1.2777885499070405 -6.3556209212572 -2.8261267150146168 0 0 0
186 52 4 0 -1.1944761746357013 -5.378273350869931 -2.770858180547157 0 0 0
184 52 2 0 -1.2296634223291472 -5.85950185924779 -2.7971143657144975 0 0 0
613 195 2 0 -0.9359217900480344 -0.9981303851348514 -1.466844568277365 0 0 0
346 106 2 0 -1.058964406213381 -0.467390493885787 -0.5094605989325988 0 0 0
891 287 4 0 -4.956313860844628 -3.524378662283461 -1.8016935449631983 1 0 0
898 290 2 0 -6.387956117800042 -4.521921716556212 -1.6196011632706038 1 0 0
889 287 2 0 -5.299860542024522 -3.829304111743439 -1.5793395992094947 1 0 0
900 290 4 0 -5.983593127250639 -4.272689109378433 -1.5307866724637595 1 0 0
18 4 3 0 -4.911417045183391 -4.692657678042974 -1.542901955676472 0 0 0
179 50 4 0 -4.779130939921084 -3.3667955599787045 -2.1021905609940865 0 0 0
180 50 4 0 -4.454110083125511 -3.3155364316503686 -3.071344759259923 0 0 0
178 50 2 0 -4.60812573779665 -3.3414356953018323 -2.599335922890705 0 0 0
96 22 4 0 -3.5981110691505442 -4.801156644911254 -1.8284796460827972 0 0 0
150 40 4 0 -3.265255727361219 -4.612807611216211 -1.854756097522866 0 0 0
183 51 4 0 -3.60758605099169 -4.440495100785761 -1.6803945126186401 0 0 0
218 63 4 0 -2.474688848047652 -4.900178823032698 -2.7885534068293496 0 0 0
149 40 4 0 -2.849570097701556 -4.773910019753036 -2.763623912243438 0 0 0
148 40 2 0 -3.0627561964032943 -4.690814306635588 -2.30186901986093 0 0 0
167 46 4 0 -2.6995983154316496 -4.854472139358403 -3.10531358162054 0 0 0
235 69 2 0 -0.8072431561164556 -3.1119315777435443 -2.011813434502801 0 0 0
237 69 4 0 -0.6589176882937674 -3.177983305576287 -1.5213551394983258 0 0 0
152 41 4 0 -4.981217629468807 -3.1256306773772775 -1.8276320027891353 0 0 0
77 16 4 0 -4.051881826578648 -1.5849296201582896 -2.8197003232762223 0 0 0
76 16 2 0 -3.5902903588045727 -1.6919137127320527 -2.5835587453431685 0 0 0
245 72 4 0 -2.3824871767219022 -2.861156223158681 -3.320824019355179 0 0 0
125 32 4 0 -2.0883607369978776 -2.762084768503704 -3.0712802310469653 0 0 0
159 43 4 0 -2.3303534001044435 -2.485681465182163 -3.1356042085241644 0 0 0
157 43 2 0 -2.608507706685806 -2.290874512825347 -2.782717969625978 0 0 0
158 43 4 0 -2.908138269896501 -2.087655076952592 -2.4185293092175146 0 0 0
239 70 4 0 -3.0248918981086192 -1.9465614405029616 -2.056268985379748 0 0 0
78 16 4 0 -3.181544862336096 -1.7923160940529146 -2.38203719027377 0 0 0
7 2 3 0 -2.8101604583822852 -1.7406308419044754 -2.3132017883528806 0 0 0
124 32 2 0 -1.6148586288930253 -2.8586422754018384 -2.9622874821166465 0 0 0
201 57 4 0 -0.02266301383468561 -1.767758165931094 -3.200807275887691 0 0 0
113 28 4 0 -0.2129216262179187 -2.0276578823624076 -2.9873730332209454 0 0 0
236 69 4 0 -0.9491484543181167 -3.0328782224087525 -2.5172151518970303 0 0 0
126 32 4 0 -1.1474992575053615 -2.9600849343013693 -2.8559296781384287 0 0 0
114 28 4 0 -0.8721893197775434 -2.711735228583761 -2.7048817731415005 0 0 0
112 28 2 0 -0.523167418052008 -2.355952609335646 -2.8588714217949214 0 0 0
882 284 4 0 -0.08727697879753978 -1.7372381498636815 -2.7772129965928345 0 0 0
108 26 4 0 -5.073444732165045 -1.026797556380815 -1.9178948459348317 0 0 0
106 26 2 0 -4.9574056617439775 -0.6075087532209247 -1.7112257705269838 0 0 0
117 29 4 0 -4.030910607899787 -1.550220285167404 -3.208060296501607 0 0 0
120 30 4 0 -4.757801446275046 -1.0012394705420036 -2.1961321029716983 0 0 0
119 30 4 0 -4.345307270085439 -1.3901650231812073 -3.03193070971773 0 0 0
477 149 4 0 -4.764446647874982 -1.2743106784088634 -1.9242066747370838 0 0 0
118 30 2 0 -4.557827309901554 -1.203630380879498 -2.614030869664139 0 0 0
9 2 3 0 -2.1161878512830885 -1.3508227268400006 -2.3534934868698056 0 0 0
10 2 3 0 -2.7513618077116595 -0.9730452411523354 -2.56506707781899 0 0 0
8 2 3 0 -2.6244761376502583 -1.1374387892840998 -1.7775994169019333 0 0 0
6 2 1 0 -2.570970637758157 -1.300364133207436 -2.257316223206795 0 0 0
614 195 4 0 -0.6550769813811154 -0.9731046471331768 -1.8928781180800962 0 0 0
1190 387 4 0 -0.3481396420144701 -0.7510153424480052 -1.9697025907837145 0 0 0
880 284 2 0 -0.3006228604703462 -1.3421629193384501 -2.5240903238954755 0 0 0
881 284 4 0 -0.5194388962359363 -0.9332730862650037 -2.262978092390299 0 0 0
1189 387 2 0 -0.19400822348219288 -0.26258793491564086 -1.8429048877601613 0 0 0
331 101 2 0 -5.99622124013264 -5.8314610931288815 -1.396081603928485 0 0 0
17 4 3 0 -5.481950471569864 -5.297047548860614 -1.4532751508556558 0 0 0
332 101 4 0 -5.55889155917372 -5.646556061329257 -1.2676997612866552 0 0 0
16 4 1 0 -5.352623792498211 -4.856029268074156 -1.2854786107209302 0 0 0
351 107 4 0 -4.964843043768587 -5.143731345626855 -0.5845884801104932 0 0 0
349 107 2 0 -4.540955258910193 -5.416820348798208 -0.5991472080243393 0 0 0
3 1 3 0 -4.026013673550245 -5.848500319687803 -1.4423920143753726 0 0 0
1 1 1 0 -3.828425057266294 -6.181477208518773 -1.127798174148734 0 0 0
4 1 3 0 -3.81572441371296 -5.987967423032278 -0.6663912846245581 0 0 0
350 107 4 0 -4.1151920692834 -5.702509565690983 -0.6261723092097912 0 0 0
306 92 4 0 -3.9490824413198355 -5.850984355582381 -0.3126877489226464 0 0 0
5 1 3 0 -3.3763550817263797 -6.307739590057922 -1.276318091049617 0 0 0
1096 356 2 0 -5.4600063158042715 -4.536578485294228 -0.20091382483587317 1 0 0
20 4 3 0 -5.2478579162694725 -4.883595534216176 -0.770491105801428 0 0 0
890 287 4 0 -5.635405207684405 -4.141106452912924 -1.3553137551832781 1 0 0
19 4 3 0 -5.727625121857698 -4.520518548679879 -1.3519131953125936 0 0 0
1040 337 4 0 -6.169065711038021 -4.512271909909685 -0.027748390053442935 1 0 0
627 199 4 0 -3.565156227849244 -0.11150309994734478 -0.3857540071793774 0 0 0
1097 356 4 0 -5.07134017814927 -4.768447149260105 -0.44092473829440954 1 0 0
181 51 2 0 -3.476650447040477 -4.2269719878198995 -1.229811809197515 0 0 0
182 51 4 0 -3.3620727374801387 -4.008078143424122 -0.7823149882440265 0 0 0
256 76 2 0 -3.3847259493718442 -3.9511517588612435 -0.0057395683429859335 0 0 0
257 76 4 0 -3.2399327851174275 -3.8409410803349857 -0.4665311474571144 0 0 0
383 118 4 0 -2.9842909529816297 -3.9682762935676426 -0.741354548790792 0 0 0
382 118 2 0 -2.489657952425435 -4.029253650321255 -0.6554002396321573 0 0 0
92 21 4 0 -3.184830100969593 -3.6416264125129016 -0.7749577066194124 0 0 0
384 118 4 0 -1.9935472164927666 -4.100784821454334 -0.5854294695293378 0 0 0
272 81 4 0 -1.8685990259661256 -4.305451974987502 -0.26378941751184654 0 0 0
895 289 2 0 -0.10088550356166662 -4.756733303838032 -0.21905390111841025 0 0 0
933 301 4 0 -0.28957911115637847 -3.3495396313118633 -1.5243765160473706 0 0 0
216 62 4 0 -0.5462648677401387 -3.413441034925625 -1.2241777398862366 0 0 0
896 289 4 0 -0.5200234483361263 -4.550651054019276 -0.40022077882312024 0 0 0
214 62 2 0 -0.5908426065866142 -3.8668774410683784 -0.949267347716007 0 0 0
273 81 4 0 -0.927793129487277 -4.454140968461439 -0.4568419809417357 0 0 0
215 62 4 0 -0.6339431369424654 -4.302005270712166 -0.6956692028040237 0 0 0
271 81 2 0 -1.3892718685610836 -4.372968566198277 -0.3584039237279246 0 0 0
247 73 2 0 -5.278099812272129 -2.2066589292812404 -0.656419992931638 0 0 0
249 73 4 0 -4.786604603446242 -2.2116220616615134 -0.852515821993904 0 0 0
1272 414 4 0 -6.129143594757566 -2.1334232933737476 -0.5321258649375918 1 0 0
248 73 4 0 -5.749872942305901 -2.2005992817933593 -0.47224850332577034 0 0 0
153 41 4 0 -4.668013476379051 -2.4303047863609253 -1.1410749852546704 0 0 0
848 273 4 0 -5.960921642873212 -2.0014891674842024 -0.19277418939591792 1 0 0
151 41 2 0 -4.82641357171434 -2.784736287240702 -1.4844556247596283 0 0 0
476 149 4 0 -4.7491025438243915 -2.051839674402047 -1.2167427095675505 0 0 0
88 20 2 0 -3.9503404765333867 -2.248252061405124 -0.9583695776788578 0 0 0
90 20 4 0 -4.425185012698598 -2.1429380783489367 -0.9948342970944272 0 0 0
89 20 4 0 -3.4611740491860514 -2.360093047940124 -0.9258837985464689 0 0 0
240 70 4 0 -3.1167157163978643 -2.277659532258937 -1.0955453667253743 0 0 0
164 45 4 0 -3.1513554819814504 -2.238615987276155 -0.7142588696601434 0 0 0
93 21 4 0 -3.172342336303808 -2.615009366279617 -0.8983552692669408 0 0 0
475 149 2 0 -4.761288716371922 -1.6699267997944638 -1.5717983982295305 0 0 0
238 70 2 0 -3.070595618686198 -2.1126645993979447 -1.5795458462378742 0 0 0
91 21 2 0 -3.1781734818514544 -3.111403953675426 -0.84479321132055 0 0 0
163 45 2 0 -2.9101767392615447 -1.8406967054278562 -0.5139803186215036 0 0 0
107 26 4 0 -4.8311665903317795 -0.17184121994578433 -1.4916491850059816 0 0 0
575 182 4 0 -4.475258202536701 -0.05693436927002441 -1.3354780305785747 0 0 0
209 60 4 0 -3.372990231191039 -0.40289514270265697 -0.629987871786582 0 0 0
574 182 2 0 -4.092133071947058 -0.13782906385643254 -1.0402420355505764 0 0 0
171 47 4 0 -1.42831944237577 -1.2267419904106032 -0.7942911541310715 0 0 0
169 47 2 0 -1.8971636589679857 -1.245819365482387 -0.5233550062543015 0 0 0
208 60 2 0 -2.9990995713701825 -0.7140863515699649 -0.47249573572494935 0 0 0
210 60 4 0 -2.6095827105066527 -1.0361539718121224 -0.3238907081611027 0 0 0
170 47 4 0 -2.3038500859764093 -1.26178949608274 -0.2939367483067366 0 0 0
165 45 4 0 -2.6601918546340895 -1.453739966835963 -0.31259628753462776 0 0 0
837 269 4 0 -1.6307546294431858 -6.5684835365760605 -4.316813041417018 0 0 0
348 106 4 0 -1.2791849683824266 -0.8583019144968366 -0.708407194045299 0 0 0
42 9 3 0 -4.424633245702266 -6.063869299522756 1.05753692229484 0 1 0
305 92 4 0 -3.646233329642061 -6.030089790994857 0.6073647426397977 0 0 0
377 116 4 0 -3.3371338138328244 -5.974889928255381 0.8700779459400225 0 0 0
376 116 2 0 -3.32153653032938 -5.539992545466544 1.1122824970197283 0 0 0
378 116 4 0 -3.2917755116653153 -5.068419803669922 1.3783830575314475 0 0 0
304 92 2 0 -3.8003074733962636 -5.939999166991928 0.13899072320826372 0 0 0
43 9 3 0 -3.6263220555477846 -6.199470518063093 0.9595568958723395 0 1 0
41 9 1 0 -4.059440423679985 -6.365747445654311 1.1896977576395205 0 1 0
392 121 4 0 -3.376564091154181 -6.28997297721759 0.6834857358132661 0 0 0
1098 356 4 0 -5.832517190455352 -4.309509563829975 0.03136127951853195 1 0 0
988 320 2 0 -6.0913881886437915 -4.100331927947446 0.7304187210517128 1 0 0
990 320 4 0 -6.022048984283513 -4.012856813030235 1.2243440383125321 1 0 0
989 320 4 0 -6.154380114091052 -4.194211542687087 0.2310785553955719 1 0 0
300 90 4 0 -6.070495380580843 -4.2089611719453135 1.5927500709067206 0 0 0
1010 327 4 0 -5.928777981167712 -3.8579261473827082 1.5559982360192002 1 0 0
1028 333 4 0 -5.7103914652541095 -4.155923173444879 1.4268360476538573 1 0 0
1009 327 2 0 -5.940492026851269 -3.398458796156685 1.796943809166744 1 0 0
1027 333 2 0 -5.348048290356649 -4.440024797591679 1.5880828385640933 1 0 0
298 90 2 0 -6.458371096774499 -4.51376380446327 1.6754337071611307 0 0 0
258 76 4 0 -3.528226939578401 -4.065732000784551 0.4627526718963494 0 0 0
275 82 4 0 -3.2555847904271826 -4.692385894743639 1.4097804053187684 0 0 0
1029 333 4 0 -4.979463017764622 -4.742198923618335 1.7493062299851811 1 0 0
274 82 2 0 -3.191949715444148 -4.400271243025317 0.9727491280624636 0 0 0
276 82 4 0 -3.1282757417053304 -4.124971569864573 0.5681051073881325 0 0 0
847 273 2 0 -6.0668352923986 -1.7145675353813157 0.21210591206934096 1 0 0
849 273 4 0 -6.183257966290542 -1.4341039967544276 0.6112940785345898 1 0 0
355 109 2 0 -6.1487436091040575 -0.7643490883086511 0.8405412888980873 0 0 0
356 109 4 0 -6.360990161388948 -1.2461833597493384 0.8840297580469266 0 0 0
357 109 4 0 -5.947615306143182 -0.30978753170831874 0.8072837542547855 0 0 0
364 112 2 0 -4.746425953463985 -1.6158453092169345 1.5558539130391895 0 0 0
290 87 4 0 -4.9502689859958995 -0.8634162481670736 1.1283940989287813 0 0 0
289 87 2 0 -4.563430987066258 -0.6239983446198097 0.9442097974475393 0 0 0
365 112 4 0 -4.9197154852706015 -1.2633966250212763 1.264493125575429 0 0 0
291 87 4 0 -4.1801075319795125 -0.38668117512143185 0.7519975769535386 0 0 0
297 89 4 0 -3.8793856350057947 -0.1326190318482189 0.918557286565482 0 0 0
301 91 2 0 -2.335680925495426 -0.9936569830505021 0.43631802801110275 0 0 0
303 91 4 0 -2.1481282934041177 -0.7741831131556679 0.8427586007616151 0 0 0
428 133 4 0 -2.0980077113365345 -0.3882177619198104 0.8538360016784354 0 0 0
427 133 2 0 -2.393313360772617 -0.18924737658735893 1.1778088810412635 0 0 0
44 9 3 0 -3.9935136493778316 -6.348457343849485 1.6755371933177137 0 1 0
433 135 2 0 -4.000522413910223 -6.020116391841968 2.5052209802722225 0 0 0
435 135 4 0 -3.9247763421503548 -5.864084951928094 3.0157822896024644 0 0 0
400 124 2 0 -3.4967360393218816 -5.259488587497341 3.156483555027189 0 0 0
434 135 4 0 -4.056690460829141 -6.150564490972125 2.036607256549587 0 0 0
401 124 4 0 -3.8091525334511025 -5.622696649294747 3.3142558124191845 0 0 0
294 88 4 0 -3.2544921601108507 -4.891391458566993 1.7381011531642845 0 0 0
399 123 4 0 -2.779473524445217 -4.885143190395421 3.101291684087904 0 0 0
402 124 4 0 -3.1780479661332164 -4.9031537295742345 3.010459183521595 0 0 0
213 61 4 0 -6.57990246743947 -1.483605518413198 0.6824804242364935 0 0 0
47 10 3 0 -0.10516135858364978 -5.081991048375995 0.9464817218651475 0 0 0
640 204 2 0 -0.9217617106783078 -6.41629076097758 3.3839115873281274 0 1 0
442 138 2 0 -0.2079658588747531 -6.513023821171223 2.5130382482490705 0 0 0
320 97 4 0 -3.5755858492401864 -4.8629069203721755 1.5290273760577626 0 0 0
319 97 2 0 -4.0835959238824415 -4.855363269169786 1.5477490253177895 0 0 0
321 97 4 0 -4.595833963873333 -4.836293627706858 1.5758606469424996 0 0 0
292 88 2 0 -3.080713830453089 -4.877232202530604 2.2357812427945007 0 0 0
293 88 4 0 -2.9112167358173813 -4.860451382567921 2.7394373797307354 0 0 0
362 111 4 0 -2.993408507432886 -4.568161270423576 3.021386176189528 0 0 0
361 111 2 0 -2.7545036025623366 -4.104080541141011 2.9581435790773885 0 0 0
363 111 4 0 -2.524813547857462 -3.6444336300939613 2.88822295710289 0 0 0
998 323 4 0 -2.313934593128921 -3.308639214261772 2.7801588230175613 0 0 0
390 120 4 0 -2.6954609693098153 -3.3562949083146028 2.666969223825142 0 0 0
1011 327 4 0 -5.950364836879542 -2.9539671492079065 2.0280013318384515 1 0 0
353 108 4 0 -5.577233871459824 -2.873009315381259 2.0620876143956237 0 0 0
1101 357 4 0 -5.857536182165751 -2.5926634601608267 2.08225992735243 1 0 0
352 108 2 0 -5.182564473892234 -2.575256406527472 2.0342142528986438 0 0 0
1099 357 2 0 -6.3270338114489 -2.4624764933883596 2.2656055014762395 1 0 0
354 108 4 0 -4.7795602138234745 -2.270668218804344 2.0117987402199713 0 0 0
327 99 4 0 -4.632995861138222 -1.9752653880438225 2.2217755747559766 0 0 0
366 112 4 0 -4.570185436877436 -1.964592749225416 1.8576167811077262 0 0 0
404 125 4 0 -4.394679274719648 -2.243891067963225 2.085853446319769 0 0 0
403 125 2 0 -3.890050359804716 -2.315539236769562 2.092894222169275 0 0 0
405 125 4 0 -3.3658621018340376 -2.402466387279927 2.104789227938235 0 0 0
997 323 2 0 -1.8639155364292301 -3.1210675885284367 2.6386440039041945 0 0 0
389 120 4 0 -3.298741331566574 -2.615053191313441 2.414520069129159 0 0 0
368 113 4 0 -3.1610031321237537 -2.2347425757888058 2.420765667842771 0 0 0
388 120 2 0 -2.999358105530838 -2.973861415292815 2.5410618582155693 0 0 0
367 113 2 0 -2.9826738239617843 -1.7700277967315603 2.405891475589565 0 0 0
375 115 4 0 -1.593665092923456 -1.641881429843293 2.0784679196104827 0 0 0
1022 331 4 0 -0.16652028134365213 -3.277017895258128 2.546687479679781 0 0 0
373 115 2 0 -1.4999042658521262 -2.160256710132904 2.1444386458035116 0 0 0
999 323 4 0 -1.3725892037001541 -2.924022658690353 2.4968711034278277 0 0 0
1021 331 2 0 -0.5926125792906609 -3.0211766799831015 2.4514554069010415 0 0 0
374 115 4 0 -1.4042522735281686 -2.6643130587957367 2.196400989820645 0 0 0
1023 331 4 0 -1.0471210031456928 -2.7476534801081054 2.343001639665072 0 0 0
325 99 2 0 -4.6575781401761915 -1.7454018545390195 2.653391737852709 0 0 0
326 99 4 0 -4.685882535251835 -1.5052098278216663 3.09855860130179 0 0 0
369 113 4 0 -2.798512540013841 -1.3071596369881628 2.390496418680901 0 0 0
407 126 4 0 -2.752666681493991 -1.1801392464547948 2.7531634703227703 0 0 0
15 3 3 0 -1.755292658599801 -1.278537963348746 2.0402795973495573 0 0 0
387 119 4 0 -1.7171056578496804 -0.2315144521934282 2.4834463072928834 0 0 0
422 131 4 0 -2.1104036975989837 -0.3055930688165513 2.5469969887247252 0 0 0
12 3 3 0 -1.87522391524761 -0.584212748692752 2.4597101591512653 0 0 0
372 114 4 0 -1.8264991537198922 -0.3917175436948144 2.8167056272739237 0 0 0
11 3 1 0 -1.9284296265814949 -1.0991314736006792 2.4590823032456552 0 0 0
14 3 3 0 -2.432663328269206 -1.241283133761981 2.4971958986592946 0 0 0
421 131 2 0 -2.479527072657251 -0.12698753271037952 2.249781607598187 0 0 0
13 3 3 0 -1.653658888306198 -1.2826504596207267 2.853267170515401 0 0 0
370 114 2 0 -1.4734691037385272 -0.2907571829725166 3.186987319902468 0 0 0
385 119 2 0 -1.355382543667518 -0.23244904996527807 2.096080099077164 0 0 0
386 119 4 0 -1.0003605276615832 -0.22578010345459554 1.7469166351436909 0 0 0
284 85 4 0 -3.8607675217576083 -6.022502463656564 3.385928224639988 0 0 0
283 85 2 0 -3.4922424617186842 -6.285633871109369 3.524923194670886 0 0 0
285 85 4 0 -3.0923136514189062 -6.554598458201045 3.6615978833331595 0 0 0
654 208 4 0 -2.7173460065878414 -6.568848378581844 3.820426239370951 0 1 0
397 123 2 0 -2.4501690631237985 -5.118843434814196 3.462163841325671 0 0 0
398 123 4 0 -2.1564971373445774 -5.326301899491894 3.7926040614880283 0 0 0
653 208 4 0 -2.188165190780035 -5.6905332609826855 3.9477286650103083 0 1 0
32 7 3 0 -1.8751472376982055 -5.473188270313586 4.015126175705101 0 1 0
395 122 4 0 -2.2424383780590698 -5.387451055337453 4.163471110779579 0 0 0
394 122 2 0 -2.3734612170187885 -5.251633807797906 4.655374865165234 0 0 0
652 208 2 0 -2.4643845193906033 -6.139793910533937 3.890767623832941 0 1 0
34 7 3 0 -1.4771555562255447 -5.991611423707467 4.484740069635207 0 1 0
31 7 1 0 -1.4385978553903775 -5.586301585788146 4.181531240665686 0 1 0
33 7 3 0 -1.260845049378147 -5.225114466872513 4.43364471017232 0 1 0
642 204 4 0 -1.040819631124427 -6.04463760134283 3.6895921801061555 0 1 0
342 104 4 0 -0.7712484338936785 -5.801045764881991 3.844827326100511 0 0 0
340 104 2 0 -0.3334950970555274 -5.581990819486932 3.955644833500118 0 0 0
35 7 3 0 -1.1455834964119291 -5.679063419245856 3.8102245015699694 0 1 0
424 132 2 0 -4.974612789582752 -2.4123614128198043 4.9800169931090235 0 0 0
334 102 2 0 -4.713465989894519 -1.8831890544168242 3.8417912438823696 0 0 0
426 132 4 0 -4.743134259372518 -2.1936203472881943 4.56784585169066 0 0 0
336 102 4 0 -4.644219021595359 -2.2230309382040336 4.191703029103755 0 0 0
278 83 4 0 -4.391757147179961 -2.329677202065618 4.476925091666184 0 0 0
277 83 2 0 -3.9156044624875315 -2.229996899010834 4.5210819883493905 0 0 0
279 83 4 0 -3.406479506109375 -2.121271086402284 4.560941790851805 0 0 0
287 86 4 0 -3.012631652933368 -2.165929608701814 4.467861304985049 0 0 0
143 38 4 0 -3.235593646848139 -2.4793339874022386 4.543968760037568 0 0 -1
286 86 2 0 -2.9790531589789753 -1.7323099963488646 4.196165172911188 0 0 0
288 86 4 0 -2.956937685404305 -1.2928872439983348 3.9251872654530016 0 0 0
311 94 4 0 -0.3203793116069849 -2.584985400087666 4.725601173132253 0 0 0
310 94 2 0 -0.5908828695777509 -2.828215012497608 5.04584053833283 0 0 0
380 117 4 0 -4.553533741504614 -1.2417075972313607 3.3614295173198663 0 0 0
335 102 4 0 -4.804225895701013 -1.5246686418061002 3.475475849283584 0 0 0
1094 355 4 0 -4.850094863499054 -0.07753801545287757 3.642067579138671 1 0 0
379 117 2 0 -4.524406009222904 -0.7583648486593283 3.4955117978758325 0 0 0
381 117 4 0 -4.499665259747983 -0.2791564600922714 3.630035527770056 0 0 0
420 130 4 0 -1.6969018676421472 -0.7649799414618403 5.020986279127114 0 0 0
313 95 2 0 -0.9950517104999276 -0.3830070395386361 5.327135364773322 0 0 0
314 95 4 0 -0.5734739618031791 -0.27877702313079367 5.591346181254443 0 0 0
440 137 4 0 -3.5778194823762903 -0.2128160729181496 4.553421153290143 0 0 0
462 144 4 0 -3.9174564987176574 -0.15073991121370764 4.774190298092517 0 0 -1
439 137 2 0 -3.3318577385318897 -0.5917861537426041 4.333668377619878 0 0 0
145 39 2 0 -1.495765955888102 -1.3127243172335954 6.4294751445122795 0 0 -1
441 137 4 0 -3.0806144416067602 -0.9657796874880304 4.125355218512692 0 0 0
408 126 4 0 -2.876079811112749 -0.9753855246918165 3.767841271886131 0 0 0
406 126 2 0 -2.814314857651721 -1.078596992244819 3.2492961700302634 0 0 0
734 235 4 0 -2.678903946716421 -1.0902944180167755 4.10908295345542 0 0 0
733 235 2 0 -2.290291353219557 -0.9020609715397561 4.397393224916835 0 0 0
735 235 4 0 -1.8800957473892905 -0.7179944503324688 4.6894280225468155 0 0 0
318 96 4 0 -1.7652753063167061 -0.4005488697525742 4.90281683085168 0 0 0
704 225 4 0 -1.5100391407920841 -0.6102312011060429 4.700711321428084 0 0 0
635 202 4 0 -0.7730728426491819 -0.26410352675036025 3.5382333510198074 0 0 0
371 114 4 0 -1.1575212651712556 -0.1986723191628525 3.5324916914008724 0 0 0
703 225 2 0 -1.2454609503101315 -0.537441312057483 4.233468540739037 0 0 0
705 225 4 0 -0.9969535149907128 -0.4632497230834552 3.7883605820699056 0 0 0
634 202 2 0 -0.2676961125236299 -0.29469952766213514 3.611053538326919 0 0 0
396 122 4 0 -2.504929708629272 -5.121763815312818 5.113241123203167 0 0 0
328 100 2 0 -2.2613671464138982 -5.081871394824706 5.904116048145268 0 0 0
329 100 4 0 -2.358630672323398 -5.217633535540056 5.451758332113033 0 0 0
619 197 2 0 -0.5762231393627733 -0.6580320535695672 6.3074041500689475 0 0 0
936 302 4 0 -0.06470540098166964 -5.242054121921406 5.605381633495229 0 0 -1
855 275 4 0 -0.07638626224512324 -4.8994520661727385 5.757601402793148 0 0 -1
737 236 4 0 -0.1481596020560558 -4.942575107224703 5.371947293042241 0 1 0
620 197 4 0 -0.33883072610597664 -0.45195005875412103 5.89270755344646 0 0 0
411 127 4 0 -6.090454964791554 -3.9664138120723424 5.429105247640311 0 0 0
315 95 4 0 -1.4278561116982902 -0.4806919771145644 5.081255019873643 0 0 0
409 127 2 0 -6.526667058170403 -4.142090081521668 5.248434975548982 0 0 0
266 79 4 0 -5.817993706102663 -3.6749716428704207 5.441874105897903 0 0 0
330 100 4 0 -2.1620950220856803 -4.935614495037052 6.372902816892603 0 0 0
270 80 4 0 -2.628449801411901 -3.395672962245873 6.465314463596868 0 0 0
853 275 2 0 -0.36794212672047044 -4.6142679586041515 6.071252131919839 0 0 -1
854 275 4 0 -0.6464647487415005 -4.347463145079239 6.357859918731022 0 0 -1
859 277 2 0 -0.9493380083238482 -3.650498757602677 5.951321296891516 0 0 -1
861 277 4 0 -0.8774840043428332 -4.034777652097771 6.278805800246686 0 0 -1
175 49 2 0 -1.4416430739425192 -4.578406875164856 6.550460245632593 0 0 -1
177 49 4 0 -1.0164855767125927 -4.349520863550066 6.486927981392444 0 0 -1
860 277 4 0 -1.0230415038075273 -3.289395205873149 5.639511602275918 0 0 -1
312 94 4 0 -0.8582891424424891 -3.0627441105635764 5.374764409651797 0 0 0
265 79 2 0 -5.530710190458892 -3.2740207499143197 5.545795262941484 0 0 0
425 132 4 0 -5.174433335680811 -2.6321985494567257 5.338507170321268 0 0 0
267 79 4 0 -5.254340969548055 -2.8695437717334147 5.650051066181469 0 0 0
230 67 4 0 -5.2731608155725995 -2.4713790601373824 5.697312123136306 0 0 -1
229 67 2 0 -5.182997519824223 -2.0350188214202345 5.933299112330009 0 0 -1
231 67 4 0 -5.085196694530939 -1.5822066764302916 6.15488357177156 0 0 -1