LAMMPS data file via write_data, version 29 Aug 2024, timestep = 9000000, units = lj

1510 atoms
4 atom types
1010 bonds
1 bond types
525 angles
2 angle types

-6.58545 6.58545 xlo xhi
-6.58545 6.58545 ylo yhi
-6.58545 6.58545 zlo zhi

Masses

1 1
2 1
3 1
4 1

Bond Coeffs # harmonic/omp

1 100 0.5

Angle Coeffs # harmonic/omp

1 100 180
2 100 109.471

Atoms # full

674 222 2 0 -5.330765028029531 -6.116712075564029 -5.621468207809281 0 1 1
675 222 4 0 -5.09439832555866 -6.055389361957633 -6.032638761230776 0 1 1
676 222 4 0 -5.584456598916354 -6.182542715686043 -5.1752320428742795 0 1 1
73 21 4 0 -6.4007888026446444 -5.197754608322863 -5.0899992665747344 0 0 0
71 21 2 0 -6.1698722468195895 -5.642478265287731 -5.059904492658524 0 0 0
72 21 4 0 -5.91782035789811 -6.101331411748462 -5.025743689431348 0 0 0
201 64 4 0 -5.824497588280427 -6.4850335494058555 -5.052200196409023 0 0 0
322 104 4 0 -5.071672067149515 -6.058122179797696 -6.433721762034472 0 0 1
120 37 4 0 -0.12293311646791515 -5.545757038781762 -5.978927885962016 0 0 0
119 37 2 0 -0.19877189397682088 -5.360996879273321 -6.433367012806269 0 0 0
97 29 4 0 -6.426464599469943 -4.9223779531091445 -5.3450034236764905 0 0 0
95 29 2 0 -6.272651423711179 -4.607548868055471 -5.705501830033921 0 0 0
96 29 4 0 -6.111314339547217 -4.285236745985012 -6.064368261369898 0 0 0
250 80 4 0 -5.759706524767114 -4.093252243882772 -6.127916163440113 0 0 1
169 53 4 0 -6.097780838993692 -3.9360737690435283 -6.273717724878919 0 0 0
248 80 2 0 -5.329492706376575 -4.007296395016117 -5.816893285182923 0 0 1
226 72 4 0 -5.982191255990847 -4.281666093923122 -6.408246701463637 0 0 1
295 95 4 0 -6.367291004664449 -4.207173936633379 -6.364761711658464 0 0 1
167 53 2 0 -6.11650155638852 -3.44361569674746 -6.264085072546639 0 0 0
249 80 4 0 -4.921891908533629 -3.934411848131467 -5.514335839092417 0 0 1
1219 403 4 0 -6.567925953501169 -0.3161700191128412 -4.094947532727744 1 0 0
160 50 4 0 -4.958734236031797 -3.840134424650367 -5.12314403543388 0 0 0
108 33 4 0 -2.0927528768428694 -3.673643337751303 -5.380174581430967 0 0 0
63 18 4 0 -2.006517030094539 -3.3480753923043833 -5.571671045951752 0 0 0
168 53 4 0 -6.125433293559445 -2.9461699522139737 -6.244694469757497 0 0 0
309 100 4 0 -6.309622686303413 -2.8681770405265055 -5.921881752765935 0 0 1
183 58 4 0 -6.173718116673703 -2.545938836983919 -6.142709800378954 0 0 0
182 58 2 0 -5.903091846887716 -2.0769477341622498 -6.0962007635162285 0 0 0
184 58 4 0 -5.645695503021367 -1.635141977190935 -6.052844385947795 0 0 0
308 100 2 0 -6.579612466592514 -2.721246800607918 -5.53058399986429 0 0 1
162 51 4 0 -2.1287727313952387 -2.115362408111116 -6.019220624399569 0 0 0
64 18 4 0 -1.9236050343793936 -2.4448251886787027 -6.0227120548348 0 0 0
27 6 4 0 -1.9759517402140718 -2.2322643299743046 -6.362558101477989 0 0 0
62 18 2 0 -1.9645580454081015 -2.8764513734026833 -5.813017725897317 0 0 0
346 112 4 0 -1.7516764431449616 -2.096272228383907 -6.08550719765003 0 0 1
161 51 2 0 -2.4175566289355883 -1.7660680283020092 -5.856469332709008 0 0 0
344 112 2 0 -1.3449667903727165 -1.824656855095365 -5.973827412735074 0 0 1
69 20 4 0 -5.360570128437437 -1.3930717708339686 -5.923242370228249 0 0 0
444 145 4 0 -5.755092753283839 -1.3637237581367148 -5.782107452249338 0 0 0
443 145 2 0 -6.093252261869877 -1.28901914761967 -5.416490466279493 0 0 0
445 145 4 0 -6.428384742273103 -1.2101154329937747 -5.041008485467332 0 0 0
68 20 2 0 -4.885619315842225 -1.3548287208248488 -5.779140234640104 0 0 0
70 20 4 0 -4.407056930535787 -1.3183060741830344 -5.634717152659523 0 0 0
327 106 4 0 -4.007425691696005 -1.301128857007712 -5.608059932585322 0 0 1
326 106 2 0 -3.5235036018963775 -1.250762722874696 -5.5863636782891986 0 0 1
85 25 4 0 -4.238210259557307 -1.346200014617813 -5.297769638886615 0 0 0
163 51 4 0 -2.7168580159119324 -1.401803000402017 -5.69266837540972 0 0 0
328 106 4 0 -3.0096927046604502 -1.1738447230212812 -5.567067522236451 0 0 1
148 46 4 0 -2.750948456551761 -1.0323625425226506 -5.81938113012432 0 0 0
146 46 2 0 -2.6788059436897727 -0.6876751223169444 -6.15614575569089 0 0 0
42 11 4 0 -2.6494856050820252 -1.0971953471298783 -5.450553370559714 0 0 0
41 11 2 0 -2.586972735629129 -1.0445424734637014 -4.947935448152335 0 0 0
761 251 2 0 -1.7444281713724075 -0.040427785086323755 -6.5795978701072935 0 0 1
345 112 4 0 -0.9170993691060494 -1.552937770170574 -5.872595991326206 0 0 1
1137 376 4 0 -0.6213141267112863 -1.3424535339605523 -6.045948515290029 0 0 1
835 275 4 0 -0.952504699056077 -1.14473579553276 -5.926526203518308 0 0 0
833 275 2 0 -1.0046210949579646 -0.7193310134363106 -6.17488747191259 0 0 0
1136 376 2 0 -0.12244396822486382 -1.3948787399787494 -6.145664550375299 0 0 1
834 275 4 0 -1.0611531050800802 -0.27780130623733706 -6.4386941575040995 0 0 0
180 57 4 0 -5.626125643085103 -6.260111843717111 -4.801688768179213 0 0 0
179 57 2 0 -5.344138088719447 -6.063389436231485 -4.427117799509313 0 0 0
195 62 4 0 -5.1423152357106305 -5.7031668392860855 -3.7387420521337034 0 0 0
181 57 4 0 -5.069245931442556 -5.862667278233607 -4.0736736221509275 0 0 0
128 40 2 0 -5.1974659545238815 -5.015676824296335 -4.1072985030357305 0 0 0
194 62 2 0 -5.368643869213146 -5.795738044575695 -3.30548993846444 0 0 0
129 40 4 0 -4.96480882585018 -5.464539729276179 -3.98883683681983 0 0 0
527 173 2 0 -4.285649204110813 -5.682264928334781 -3.901712356081696 0 1 0
529 173 4 0 -4.781324015132955 -5.755501774626727 -3.833754011761652 0 1 0
528 173 4 0 -3.7827338554871175 -5.612480178584121 -3.9664724201772397 0 1 0
511 167 4 0 -3.4025907739117436 -5.771110968076164 -3.9424420813923797 0 1 0
435 142 4 0 -2.32878146403943 -6.557409234666567 -3.64711624292341 0 1 0
509 167 2 0 -2.960993494372655 -5.990317974829904 -3.780247116471946 0 1 0
510 167 4 0 -2.524170359675044 -6.204245668682123 -3.6096602495101893 0 1 0
537 176 4 0 -2.1332706695862966 -6.218798566974631 -3.587025613204295 0 1 0
211 67 4 0 -6.403895878636014 -4.811801537931257 -4.973670389621152 0 0 0
209 67 2 0 -6.101837489560664 -4.596515802624177 -4.6321235953002855 0 0 0
210 67 4 0 -5.780928477796262 -4.363480331216864 -4.281786889307335 0 0 0
130 40 4 0 -5.4343807323344215 -4.5649657342260905 -4.215835152937864 0 0 0
159 50 4 0 -5.442430570036055 -4.174392840057585 -4.246364355803317 0 0 0
158 50 2 0 -5.20118639281311 -4.006196629890271 -4.696372536058196 0 0 0
199 63 4 0 -3.5990205878087687 -3.5032685178353584 -4.058431114901865 0 0 0
172 54 4 0 -3.575844346419514 -3.4435163891463008 -3.6700979309180655 0 0 0
197 63 2 0 -3.149385301957698 -3.5778893276596713 -4.197741669466683 0 0 0
75 22 4 0 -2.4443682060086047 -3.917178085279302 -4.1227427500337495 0 0 0
74 22 2 0 -2.3679170769273434 -4.266728674409406 -3.7932531988329896 0 0 0
109 33 4 0 -2.524242708369522 -3.991473714518422 -4.510084392687536 0 0 0
198 63 4 0 -2.690483194089706 -3.663827322669163 -4.343205653594507 0 0 0
107 33 2 0 -2.297376901261984 -3.822725411725848 -4.966502736461265 0 0 0
76 22 4 0 -2.287186410193202 -4.631728879594576 -3.4516493191213486 0 0 0
31 7 4 0 -1.6234933582337774 -1.8584071817171532 -3.4274377543289893 0 0 0
1217 403 2 0 -6.5490979214512475 -0.696395862181812 -4.409303363713031 1 0 0
1218 403 4 0 -6.524963555886411 -1.0581191693485383 -4.7012298093177325 1 0 0
152 48 2 0 -4.228669711587672 -1.5500210738709435 -3.462501844666225 0 0 0
485 159 2 0 -4.241632879516263 -0.5383242479203845 -3.9351252903780387 0 0 0
83 25 2 0 -4.276040387371454 -1.3219863699399692 -4.767380057085603 0 0 0
84 25 4 0 -4.305702884867447 -1.2912014829047842 -4.255797866982334 0 0 0
154 48 4 0 -4.1577868293712585 -1.3445606208923109 -3.8925034330979265 0 0 0
487 159 4 0 -4.383077451640958 -1.0203624427092257 -3.9685068278287874 0 0 0
486 159 4 0 -4.104033690206112 -0.04906813162260642 -3.910514023158479 0 0 0
59 17 2 0 -1.9267858385738206 -1.2288640544747211 -3.970647728276924 0 0 0
43 11 4 0 -2.5321104765962823 -1.001871204241704 -4.444166366029052 0 0 0
98 30 2 0 -2.659337150441666 -0.4455069159558956 -3.755230246017239 0 0 0
99 30 4 0 -2.487004903116213 -0.7313366720294778 -4.144085676603219 0 0 0
60 17 4 0 -2.187881836964814 -0.9438060656537565 -4.308707727284581 0 0 0
100 30 4 0 -2.8175799327385813 -0.15726213860487318 -3.3792752360314577 0 0 0
61 17 4 0 -1.6675254650065214 -1.4998314944377957 -3.65604605802568 0 0 0
141 44 4 0 -5.690978185776492 -5.677206038479898 -2.552382328695387 0 0 0
196 62 4 0 -5.599486309490084 -5.900932151380289 -2.8674666619523697 0 0 0
140 44 2 0 -5.620976401662423 -5.287761888487322 -2.223462546465129 0 0 0
125 39 2 0 -3.6727155418275435 -6.405223749852531 -2.140938017994228 0 0 0
144 45 4 0 -3.6096282345222743 -5.6224397953921175 -2.406405923446814 0 0 0
126 39 4 0 -3.6483162538277267 -5.8828763507156525 -2.132494781835667 0 0 0
143 45 2 0 -3.775131476659205 -5.20543619624459 -2.185566477758039 0 0 0
79 23 4 0 -3.288590556186201 -5.7082360080326255 -2.1982422206344316 0 0 0
78 23 4 0 -2.3020155821323183 -5.693238904416175 -2.2945218496548594 0 0 0
123 38 4 0 -2.174386382745561 -5.391990603878354 -2.5015180362158547 0 0 0
536 176 2 0 -2.0917013898364716 -5.998967179096894 -3.1050750548773784 0 1 0
538 176 4 0 -2.0624932039899506 -5.775924542980721 -2.5947913766764388 0 1 0
77 23 2 0 -2.8076713949815844 -5.694197599043882 -2.2494475480130443 0 0 0
555 182 4 0 -2.020402541938187 -5.967862526540818 -2.2447560043571406 0 1 0
157 49 4 0 -1.9185609698892128 -5.598356221290401 -2.292081681131255 0 0 0
554 182 2 0 -1.930068103929276 -6.218090957690821 -1.775520230660806 0 1 0
122 38 2 0 -2.2311859507727543 -4.961984498730863 -2.7822238476665877 0 0 0
155 49 2 0 -1.4052402460144071 -5.416630196848048 -2.2460324453049303 0 0 0
156 49 4 0 -0.9612361997929572 -5.247890953321532 -2.2016628138055325 0 0 0
5 1 3 0 -0.6597490748302749 -5.205757075021087 -1.9585159451783234 0 0 0
796 262 4 0 -0.6338271318279353 -5.082821712421975 -2.3264827033457394 0 0 0
892 294 4 0 -0.5195586909219723 -6.296465427681479 -1.985722111321429 0 0 0
2 1 3 0 -0.5091709600819381 -5.994975017986384 -1.7256210830307641 0 0 0
918 303 4 0 -0.1671568687594108 -6.12670976017007 -1.866741674642401 0 0 0
142 44 4 0 -5.554198862710825 -4.8959891331940595 -1.9181068965436974 0 0 0
145 45 4 0 -3.933885710153707 -4.778687385326045 -1.9454244770971718 0 0 0
170 54 2 0 -3.5426229860562963 -3.5462034280846146 -3.1652174294841435 0 0 0
40 10 4 0 -3.63482248057795 -3.6369348463412625 -2.2840082257018453 0 0 0
171 54 4 0 -3.512772482262788 -3.642639374616192 -2.674199894682219 0 0 0
204 65 4 0 -3.352546860409664 -3.3849201250208805 -2.4142954648172723 0 0 0
38 10 2 0 -3.8539729658700628 -4.031766497717122 -2.0615728817787673 0 0 0
39 10 4 0 -4.09571309675389 -4.443568028637798 -1.8234230479384235 0 0 0
34 8 4 0 -4.255264785539509 -4.804616102333855 -1.7314186810045682 0 0 0
32 8 2 0 -4.7741373485001 -4.834622611599071 -1.6896142494300421 0 0 0
124 38 4 0 -2.304111301730789 -4.581591040280941 -3.0346685896755377 0 0 0
931 307 4 0 -0.8141096826275649 -4.849486066422682 -2.0992416728884145 0 0 0
794 262 2 0 -0.23902081545275827 -4.921840502158837 -2.57343351160437 0 0 0
929 307 2 0 -0.9005010486622202 -4.398112057652293 -1.871440991897106 0 0 0
785 259 2 0 -0.8462588984203321 -3.3032998738891948 -1.7300902789208998 0 0 0
930 307 4 0 -0.9835003723549173 -3.9657247838771053 -1.6537512096439277 0 0 0
786 259 4 0 -1.1558868770781585 -3.6323851707646146 -1.5095407278273398 0 0 0
67 19 4 0 -5.49203142213979 -3.0669128268317687 -2.714641470649189 0 0 0
36 9 4 0 -5.197473087288572 -2.827108165018992 -2.84069640856828 0 0 0
65 19 2 0 -5.514396770501063 -3.17782411080648 -2.231924623689399 0 0 0
35 9 2 0 -4.834617393475786 -2.487245909181407 -2.851724767800664 0 0 0
37 9 4 0 -4.433406880497465 -2.140805197878515 -2.8658778667742357 0 0 0
153 48 4 0 -4.302790243682664 -1.7655824692026028 -3.010110128497127 0 0 0
105 32 4 0 -4.233631111916465 -1.878421654635912 -2.6466607829044286 0 0 0
203 65 2 0 -3.061822958800425 -3.0815427695945625 -2.2328466620726193 0 0 0
92 28 2 0 -2.0237336633451917 -2.3635819513806715 -1.960214124071432 0 0 0
93 28 4 0 -2.4269711149680804 -2.628083778537373 -1.8670669109724878 0 0 0
205 65 4 0 -2.7523771882126593 -2.7729098607902554 -2.0346215673203254 0 0 0
29 7 2 0 -1.6891505474777189 -1.8902346048155758 -2.910860879488261 0 0 0
30 7 4 0 -1.7643048066224056 -1.9271916465525911 -2.3796007528027765 0 0 0
94 28 4 0 -1.6294229518276127 -2.111720966510343 -2.0598434615989487 0 0 0
55 15 4 0 -1.3580486808449883 -2.020915362945198 -2.3225723432187753 0 0 0
53 15 2 0 -0.9448733885376939 -2.319819136076062 -2.2311305500611507 0 0 0
54 15 4 0 -0.5382858667297885 -2.6228776367173796 -2.1445581012197 0 0 0
118 36 4 0 -1.5592402463695791 -1.7235463979452175 -2.1186392926669764 0 0 0
787 259 4 0 -0.5341287902727102 -2.9678899437458615 -1.9579546273997028 0 0 0
207 66 4 0 -0.22247631001893692 -2.8766292344454545 -2.1555115999926526 0 0 0
945 312 4 0 -0.2851671592886646 -2.672404303000181 -1.850175090148704 0 0 0
104 32 2 0 -4.272003230977285 -1.5678637468536571 -2.24823705261091 0 0 0
106 32 4 0 -4.315194165176308 -1.271212536914839 -1.8735432560057388 0 0 0
495 162 4 0 -2.3515000680097153 -0.14381430293737543 -2.05847743642608 0 0 0
450 147 4 0 -2.133526780876251 -0.12039352293828338 -1.7450599589365245 0 0 0
496 162 4 0 -2.696301318677401 -0.07119373712281044 -3.025440691401047 0 0 0
494 162 2 0 -2.5308094125838747 -0.10728037538320277 -2.547660365740699 0 0 0
116 36 2 0 -1.4184937453354591 -1.4227609112430402 -1.7264510420349077 0 0 0
103 31 4 0 -5.856800093189764 -5.20697868307133 -0.23213887213445653 0 0 0
58 16 4 0 -5.971506271916294 -5.1494169533363525 -0.6246422062771845 0 0 0
292 94 4 0 -6.19279018259445 -5.023986884059487 -0.33199365150526566 0 0 0
56 16 2 0 -5.800122609320717 -5.073731963185098 -1.0976318229002393 0 0 0
101 31 2 0 -5.407135204102329 -5.0516934944693945 -0.07597585752974492 0 0 0
57 16 4 0 -5.62019546531889 -5.0114044387600325 -1.568783319252155 0 0 0
306 99 4 0 -3.641526038762137 -5.2469678111034295 -0.5169174874038076 0 0 0
305 99 2 0 -3.2284640306574834 -5.496213767424425 -0.3924939148066188 0 0 0
465 152 4 0 -1.8347062328321901 -6.226207957249102 -1.0102656563642511 0 1 0
464 152 2 0 -2.12078949527726 -6.029896238171335 -0.6512645896518581 0 1 0
466 152 4 0 -2.414676960045313 -5.8182396367661475 -0.29170155151011623 0 1 0
556 182 4 0 -1.8477536738722773 -6.478762519990384 -1.3126772648407798 0 1 0
307 99 4 0 -2.8167570138978033 -5.751490115788161 -0.26930086559146926 0 0 0
319 103 4 0 -1.4641123272220127 -1.0522172544112705 -1.040659517362361 0 0 0
1 1 1 0 -0.45134756670807386 -5.497740572321574 -1.5961052325251928 0 0 0
363 118 4 0 -0.6562357994810417 -5.416192508700745 -0.7755777793589794 0 0 0
3 1 3 0 -0.6751523406364245 -5.412685837315089 -1.168707694959687 0 0 0
362 118 2 0 -0.4260887101158315 -5.197397467633919 -0.3700653840601604 0 0 0
165 52 4 0 -5.579291520056191 -4.626951712933226 -1.5990356214707224 0 0 0
33 8 4 0 -5.286036894231666 -4.869574560716742 -1.650349795836495 0 0 0
164 52 2 0 -5.653957432495341 -4.109294457434891 -1.5864469785839141 0 0 0
166 52 4 0 -5.734915578149253 -3.621755688733674 -1.57519324058331 0 0 0
642 211 4 0 -5.694613133563685 -3.2867773649721452 -1.34085715856013 0 0 0
279 90 4 0 -3.7443560881659557 -4.953358752049532 -0.2496432490703869 0 0 0
369 120 4 0 -3.718622144220975 -4.897813202509611 -0.6379326111190856 0 0 0
368 120 2 0 -3.8082799421915405 -4.802441534807817 -1.1023795646719379 0 0 0
370 120 4 0 -3.9046904790993815 -4.704609266075223 -1.5763555906885165 0 0 0
278 90 2 0 -4.179637360027571 -4.843441619887512 -0.028726270018063493 0 0 0
66 19 4 0 -5.5373553739794446 -3.299765885418131 -1.7067722606064821 0 0 0
641 211 2 0 -5.614962307192675 -3.0547426904542108 -0.9042635433370301 0 0 0
643 211 4 0 -5.527422127221025 -2.796480970615676 -0.4476754330554243 0 0 0
91 27 4 0 -5.41665535786627 -2.42287185260435 -0.3799216020186581 0 0 0
89 27 2 0 -5.374706531912768 -1.9369420756522528 -0.5926506945396472 0 0 0
174 55 4 0 -5.3075591279273215 -2.7448409641918374 -0.14203182623165328 0 0 0
303 98 4 0 -5.69853464371957 -2.603009987498182 -0.15568023511977017 0 0 0
173 55 2 0 -4.812957464006952 -2.810023166274264 -0.13109958367661856 0 0 0
263 85 2 0 -3.7830505636718885 -2.5835009248805814 -0.466083521255501 0 0 0
265 85 4 0 -4.002938770208079 -2.994784278789578 -0.31085646978205994 0 0 0
264 85 4 0 -3.548670403591952 -2.1593858132921784 -0.6176850184066061 0 0 0
175 55 4 0 -4.3340807019861485 -2.876159091053785 -0.11966556178520762 0 0 0
187 59 4 0 -3.5063567264454973 -1.8444307163281068 -0.8624094154063501 0 0 0
117 36 4 0 -1.2842657700571 -1.1554118762045347 -1.3724723260179976 0 0 0
703 231 4 0 -3.567482063824571 -1.7931836041890152 -0.4439959819887667 0 0 0
190 60 4 0 -2.734604195105527 -2.6702151038617514 -1.6423902973593791 0 0 0
381 124 4 0 -3.2324974198651573 -1.9307598956829162 -0.5981453468394804 0 0 0
189 60 4 0 -3.292204117528337 -2.150273173198378 -0.9255151441866352 0 0 0
188 60 2 0 -3.027444613036417 -2.39552926836688 -1.2785249250044262 0 0 0
380 124 2 0 -2.7969790582092573 -1.7747692769514587 -0.3957140277134771 0 0 0
1076 356 2 0 -0.7162495040397903 -1.582090609361678 -0.9347983578902135 0 0 0
946 312 4 0 -0.08402675465765849 -2.101091255401068 -1.0727550006483195 0 0 0
944 312 2 0 -0.18236323788763978 -2.390444974368613 -1.466064378719338 0 0 0
1077 356 4 0 -0.2985790298807751 -1.8764515091798792 -0.8381303333655786 0 0 0
570 187 4 0 -5.62815613877427 -0.16628480988814479 -0.44166297052017844 0 0 0
90 27 4 0 -5.335509434537683 -1.4776355933781655 -0.8081458472328156 0 0 0
229 73 4 0 -5.3149230754036525 -1.1518904286603975 -1.0069277253309303 0 0 0
569 187 2 0 -5.565805222159486 -0.6482471023019195 -0.5455320903410914 0 0 0
571 187 4 0 -5.496098543865005 -1.13765082864496 -0.6553077076759909 0 0 0
185 59 2 0 -3.7970822209669675 -1.645775958702806 -1.2060985048882533 0 0 0
186 59 4 0 -4.099878167091588 -1.4340658355154083 -1.5557118639078917 0 0 0
227 73 2 0 -4.8812086267826995 -1.1800093908047737 -1.2443615257171463 0 0 0
228 73 4 0 -4.430513048530429 -1.2019447664711227 -1.4847156821117549 0 0 0
701 231 2 0 -3.8129465930354622 -1.5732258331523798 -0.05190169689698409 0 0 0
382 124 4 0 -2.356934250427029 -1.6158882282631215 -0.1879510607696205 0 0 0
318 103 4 0 -2.0028226422644066 -1.4447059919872454 -0.2476427904031304 0 0 0
449 147 2 0 -1.7882833995184435 -0.4489035822991661 -1.5373453065853475 0 0 0
317 103 2 0 -1.7344464168018165 -1.2524068982180376 -0.6362807125036538 0 0 0
1055 349 2 0 -0.8763748765469677 -0.4931182763231964 -0.9799088202385811 0 0 0
1078 356 4 0 -1.1345489977920935 -1.283778692002889 -1.0313804247152554 0 0 0
1329 440 4 0 -0.23564209590460292 -0.14334055516563138 -0.9603980678997559 0 0 0
1056 349 4 0 -0.6128351415758868 -0.060007409738445656 -0.8147645455183167 0 0 0
1057 349 4 0 -1.1137238883736866 -0.910096860101155 -1.1217141103459454 0 0 0
451 147 4 0 -1.4361313187879816 -0.7858636115608956 -1.309319656869161 0 0 0
147 46 4 0 -2.6033042863391005 -0.31856915019109966 -6.52898945455614 0 0 0
329 107 2 0 -2.2308722205172176 -5.695704939749319 0.431553699177563 0 0 0
256 82 4 0 -1.792877952361567 -5.363798163416849 1.0832382501380287 0 0 0
331 107 4 0 -1.8946270309224793 -5.654938936286182 0.8234266195566112 0 0 0
507 166 4 0 -1.7887447763439814 -5.762370511179922 1.1985688237698175 0 1 0
330 107 4 0 -2.562107724470404 -5.737616127946472 0.05338785327425311 0 0 0
725 239 2 0 -0.2164921138954768 -6.440609468854523 1.0752466100242835 0 1 0
506 166 2 0 -1.381941685650064 -6.047744648397733 1.3320401768397951 0 1 0
727 239 4 0 -0.672394460030367 -6.495864739399001 1.2923156419948982 0 1 0
508 166 4 0 -1.0017827429976827 -6.329622677171273 1.466534795739935 0 1 0
364 118 4 0 -0.2038599987228753 -4.977517592687741 0.02951859345696005 0 0 0
102 31 4 0 -4.958657454247894 -4.89877749914271 0.07656605184604082 0 0 0
337 109 4 0 -5.298928214866871 -3.81664707138453 1.127414902685796 0 0 0
755 249 2 0 -5.0986231876845665 -4.430627191956599 0.8423540983444239 0 1 0
335 109 2 0 -5.39034043216118 -3.4414983843271614 1.4271869995815902 0 0 0
756 249 4 0 -5.286933566095268 -4.21613133672883 1.269377878471138 0 1 0
757 249 4 0 -4.9144856668174155 -4.646878759797714 0.4186961278314983 0 1 0
280 90 4 0 -4.60555032572962 -4.741936517691272 0.1927398150160741 0 0 0
333 108 4 0 -3.589506800137598 -3.2466162445841964 0.931326195097329 0 0 0
387 126 4 0 -3.4360469362959107 -3.5471702469620596 0.7010304481008703 0 0 0
386 126 2 0 -3.7457490900486934 -3.335771876549339 0.3744225281851363 0 0 0
254 82 2 0 -1.568344252283153 -4.911702214234743 1.0171418085075359 0 0 0
255 82 4 0 -1.335522977759026 -4.442884998880686 0.9446605934702195 0 0 0
232 74 4 0 -1.1725119894056384 -4.114549733501974 0.8526583780975682 0 0 0
230 74 2 0 -1.2463469116839871 -3.657165755736525 1.0277447391862085 0 0 0
1049 347 2 0 -0.5126762151658645 -4.591789019094751 0.5852257827597259 0 0 0
1051 347 4 0 -0.9436581687444577 -4.4438511713198 0.8252294410676994 0 0 0
1050 347 4 0 -0.06786269100045136 -4.74338908034516 0.33694148294094056 0 0 0
302 98 2 0 -5.964318961143888 -2.5223450311800404 0.2345751970037047 0 0 0
304 98 4 0 -6.247142090753625 -2.4415373001331924 0.6511639231305713 0 0 0
342 111 4 0 -6.251568116944943 -2.281592781204877 1.018829190760877 0 0 0
341 111 2 0 -5.986206719586822 -2.5119813457146973 1.3902367069160753 0 0 0
214 68 4 0 -6.565015128176501 -2.4647983547802754 0.9017044649701939 0 0 0
332 108 2 0 -3.597564417677179 -3.1967881847864477 1.4536471539962152 0 0 0
646 212 4 0 -4.275612330925636 -1.7084304159414518 1.6551027670645273 0 0 0
384 125 4 0 -3.2010882460469046 -3.2570474298962897 0.8257670063270185 0 0 0
383 125 2 0 -2.80818376840875 -2.901840359397283 0.8094469842214136 0 0 0
385 125 4 0 -2.429449417975808 -2.565977172325793 0.7924201930058663 0 0 0
353 115 2 0 -2.0645037227074847 -2.063712448010188 0.3985948066031215 0 0 0
354 115 4 0 -2.0964480989926546 -2.3876124671478345 0.7845238463545199 0 0 0
9 2 3 0 -2.1993193324613567 -2.6142335580033564 1.1126872105990746 0 0 0
6 2 1 0 -1.8664329974775964 -2.6292139282628413 1.490748080705237 0 0 0
7 2 3 0 -1.7305194926486256 -2.178795671131263 1.6084676868606997 0 0 0
231 74 4 0 -1.311295088482455 -3.212054335041792 1.2061418091850407 0 0 0
298 96 4 0 -1.1298329299383374 -2.8687320743785896 1.1669278882039527 0 0 0
10 2 3 0 -1.478032663634696 -2.9069075586794995 1.3555193931940586 0 0 0
296 96 2 0 -0.6592011000914835 -2.696841154905107 1.23787527686697 0 0 0
297 96 4 0 -0.195388895210897 -2.532857427239474 1.3003137301443295 0 0 0
644 212 2 0 -4.231606169971268 -1.5299416264629733 1.1805081018936883 0 0 0
645 212 4 0 -4.181870541293731 -1.3532971976140054 0.7093623729368959 0 0 0
634 208 4 0 -4.164613182473946 -1.0088576889639564 0.5277727111085588 0 0 0
632 208 2 0 -4.4268830613398285 -0.5613391130115609 0.454981305417924 0 0 0
702 231 4 0 -4.0554089860348785 -1.343853396422657 0.33926774312456354 0 0 0
633 208 4 0 -4.6889996358259065 -0.10668927379515857 0.3957603754667293 0 0 0
687 226 4 0 -3.7333495613631373 -0.09208190345172444 1.3159170369836706 0 0 0
621 204 4 0 -3.5072829568308257 -0.08529070306158168 0.9969412191462974 0 0 0
284 92 2 0 -2.2199099932558166 -0.8866306767951906 0.27268680841307164 0 0 0
285 92 4 0 -2.2606053943131146 -0.4079369308806483 0.4659316394311786 0 0 0
622 204 4 0 -2.637085864553947 -0.3212736222310312 0.5790313400064696 0 0 0
620 204 2 0 -3.06335481954261 -0.19711757926588816 0.7759858394618454 0 0 0
286 92 4 0 -2.1844715243897896 -1.3447559799991242 0.0856162779695206 0 0 0
1386 459 4 0 -2.336142974088633 -0.05215135615354303 0.5893067272853552 0 0 0
272 88 2 0 -5.495916004340654 -5.219816757242679 2.9494240074263014 0 0 0
273 88 4 0 -5.281298493706089 -5.091414307844182 2.521404155202073 0 0 0
882 291 4 0 -0.02728980667191227 -5.124669560196278 0.3437184829418628 0 0 0
366 119 4 0 -0.6877438812261281 -6.432882255798741 1.6628182266536462 0 0 0
365 119 2 0 -0.5199789957842688 -6.514888283360899 2.1382188345670397 0 0 0
654 215 4 0 -0.8569369485194019 -0.0066647175053161445 6.518607605437639 0 0 0
282 91 4 0 -5.092398752098495 -4.753341185092732 2.4075727843686923 0 0 0
281 91 2 0 -4.94443917686183 -4.307022428461019 2.57592885791746 0 0 0
283 91 4 0 -4.806648778416485 -3.8388294744925915 2.7337384631927133 0 0 0
312 101 4 0 -4.74820913468684 -3.6498022054790056 3.076088072705338 0 0 0
373 121 4 0 -4.941987387862887 -3.463837714168549 2.781523829318034 0 0 0
223 71 4 0 -4.551433295406887 -3.537696307549237 2.7537915939713455 0 0 0
221 71 2 0 -4.123300191295339 -3.353137813216353 2.5535710726409557 0 0 0
374 122 2 0 -1.88120122140567 -3.6117019742964462 1.9231844725655571 0 0 0
375 122 4 0 -1.8045848036006846 -4.085249184290049 1.6937144710502736 0 0 0
389 127 2 0 -6.253531373074069 -3.180775134115582 2.175835047870845 0 0 0
336 109 4 0 -5.49096462332424 -3.062160428994532 1.734286982038083 0 0 0
348 113 4 0 -5.33917094162129 -2.678711996686132 1.7893822094234242 0 0 0
371 121 2 0 -5.211682733377402 -3.1662734308546683 2.428679631547173 0 0 0
391 127 4 0 -5.784424871959811 -3.086578840156667 1.9865746698219864 0 0 0
372 121 4 0 -5.47192010072597 -2.8936789178324527 2.0835217967077058 0 0 0
343 111 4 0 -5.717676655637657 -2.7558486809017753 1.7759561077177104 0 0 0
347 113 2 0 -4.91926992165145 -2.3209969811831472 1.7809939130034267 0 0 0
349 113 4 0 -4.5365109866115 -1.9769872475265682 1.7710318293854608 0 0 0
244 78 4 0 -4.170309724571035 -1.9512117624782295 1.9449756396453872 0 0 0
242 78 2 0 -3.8679936277570146 -2.370929254279485 2.052664288385085 0 0 0
222 71 4 0 -3.6581523523678805 -3.1436813284659375 2.343937365992512 0 0 0
243 78 4 0 -3.5542131999860436 -2.7969004018486556 2.1451917470656396 0 0 0
334 108 4 0 -3.6061371728431144 -3.1441474598133707 1.9595163911785167 0 0 0
277 89 4 0 -4.448067747620748 -1.6625936201152764 2.0068985652196516 0 0 0
325 105 4 0 -3.294433824823837 -3.078932665868708 2.227459111016214 0 0 0
376 122 4 0 -1.9509593723290148 -3.155442280467433 2.133563019194241 0 0 0
8 2 3 0 -2.091268218145492 -2.851878945744472 1.9039913569818843 0 0 0
324 105 4 0 -2.303873011010268 -2.9776641783377373 2.2013400754619026 0 0 0
323 105 2 0 -2.790216377259179 -3.031010746674425 2.21033485938173 0 0 0
259 83 4 0 -1.950506478629248 -2.8039171831618153 2.267226637079143 0 0 0
257 83 2 0 -1.7207948013405971 -2.8190043519446233 2.7375797809738227 0 0 0
258 83 4 0 -1.50565710923837 -2.8361684704505845 3.209589910252307 0 0 0
299 97 2 0 -5.033037851986297 -0.20529530236157836 2.1288673613229414 0 0 0
689 227 2 0 -4.045507585026393 -0.011932686570601163 2.7926588888455743 0 0 0
686 226 2 0 -4.009867516746834 -0.28142561167702396 1.697825545322341 0 0 0
691 227 4 0 -4.28349240742896 -0.3382461110554338 2.474332822178602 0 0 0
275 89 2 0 -4.382885240560316 -1.2066144026361925 2.204488042121351 0 0 0
276 89 4 0 -4.311626126848076 -0.7206966286923231 2.4087299934662076 0 0 0
301 97 4 0 -4.6217827210535845 -0.4707368083395309 2.3184706475561834 0 0 0
688 226 4 0 -4.29367588639731 -0.468497044557308 2.091386991188729 0 0 0
274 88 4 0 -5.725094871957303 -5.35295957251013 3.393293236398554 0 0 0
398 130 2 0 -5.448683627256887 -5.961042411954051 3.7766971520081336 0 0 0
262 84 4 0 -6.021309283274665 -5.407847689233666 3.626289896669312 0 0 0
400 130 4 0 -5.663325615192215 -5.509088181727678 3.761486737295757 0 0 0
260 84 2 0 -6.449126842602167 -5.580366142005095 3.9124403157103282 0 0 0
246 79 4 0 -5.73295990847044 -5.126357804052759 3.708553939118915 0 0 0
399 130 4 0 -5.228570367310335 -6.429453188056522 3.8059658501947577 0 0 0
245 79 2 0 -5.514972164312772 -4.675504731564475 3.874932748585213 0 0 0
247 79 4 0 -5.302259708720182 -4.264040545043722 4.045227316658135 0 0 0
313 101 4 0 -4.97893846819036 -4.063997476097575 3.991850326814927 0 0 0
396 129 4 0 -4.966391314907722 -4.405488457332712 4.2059824918282755 0 0 0
395 129 2 0 -4.830430099443903 -4.29875908309927 4.702321561575447 0 0 0
311 101 2 0 -4.85563559419093 -3.853913496090494 3.540813705035747 0 0 0
268 86 4 0 -1.3614398212507843 -2.8431157349524376 3.5975364223625457 0 0 0
235 75 4 0 -1.3022103650656556 -3.062295874807368 4.9753714471599775 0 0 0
267 86 4 0 -1.4324714790019062 -2.883603190051641 4.655276073585004 0 0 0
266 86 2 0 -1.3955147564367667 -2.863590546163634 4.139996893949486 0 0 0
220 70 4 0 -1.0445019047729318 -2.8271163366202177 4.809902867991767 0 0 0
218 70 2 0 -0.5694929544799257 -2.8822910379251248 4.886504986725595 0 0 0
225 72 4 0 -5.401429310076899 -5.059371222285354 6.394256796468288 0 0 0
320 104 2 0 -5.088764444181401 -5.625422856766837 6.464874267333078 0 0 0
321 104 4 0 -5.110136071872559 -5.208239681366695 6.185945926936003 0 0 0
1080 357 4 0 -0.33470710619626026 -5.171076358006018 5.881891588759524 0 0 0
1048 346 4 0 -0.14728168758499377 -4.849770084780168 6.0498322391625035 0 0 0
1079 357 2 0 -0.22133195611708636 -5.60092022655669 5.602126892590166 0 0 0
1081 357 4 0 -0.10649885663231108 -6.030509027445914 5.324794035944103 0 0 0
121 37 4 0 -0.2796662792280605 -5.169785612627486 6.273526078698945 0 0 -1
217 69 4 0 -5.281056567792554 -4.854635201507677 6.093695929381151 0 0 0
215 69 2 0 -4.951011129766127 -4.670918646318399 5.773196171712004 0 0 0
216 69 4 0 -4.627297270063446 -4.482006161870462 5.454900066263302 0 0 0
397 129 4 0 -4.693388448783315 -4.197288302664027 5.171016102123168 0 0 0
234 75 4 0 -1.893901183647363 -3.6257886340145538 5.555537622347401 0 0 0
233 75 2 0 -1.6028879425647413 -3.357489950968354 5.266373373922016 0 0 0
26 6 2 0 -1.9752919246312106 -2.157238129386032 6.312443190033057 0 0 -1
28 6 4 0 -1.9609455166853298 -2.0720130849273364 5.799933896581516 0 0 -1
269 87 2 0 -1.6361659500507892 -2.2823815181304954 5.204139574790465 0 0 0
270 87 4 0 -1.9113016082969965 -1.9133430449968025 5.443766290114959 0 0 0
271 87 4 0 -1.3470398221927917 -2.663352541557745 4.961478791859814 0 0 0