LAMMPS data file via write_data, version 29 Aug 2024, timestep = 100000, units = lj

694 atoms
4 atom types
496 bonds
1 bond types
448 angles
2 angle types

-4.496439 4.496439 xlo xhi
-4.496439 4.496439 ylo yhi
-4.496439 4.496439 zlo zhi
0 0 0 xy xz yz

Masses

1 1
2 1
3 0.1
4 0.1

Bond Coeffs # harmonic/omp

1 100 0.45

Angle Coeffs # harmonic/omp

1 100 180
2 100 109.471

Atoms # full

141 29 1 0 -2.936629888041242 -3.2128351906180703 -3.33220091088024 1 0 0
368 90 2 0 -3.644692371976937 -3.3539943861766806 -4.131506115815915 2 1 0
144 29 3 0 -2.803070624076934 -3.5148224735535596 -3.646774160926085 1 0 0
582 161 4 0 -2.0381991280340896 -4.446136984105594 -3.244677484989463 2 1 0
581 161 2 0 -1.5730559193169578 -4.480863185547809 -3.13504344892797 2 1 0
257 53 2 0 -0.16060464445989542 -1.3768924189806047 -0.7043656500053306 1 0 0
213 43 3 0 -0.23585532550938293 -4.154073397338909 -3.5792575943381784 2 1 0
302 68 2 0 -0.34958845254742155 -0.7182129580021459 -1.5674247560336876 1 0 0
211 43 1 0 -0.29329006584289097 -4.3484536358031 -3.1644030169252337 2 1 0
215 43 3 0 -0.7426846701157039 -4.38100104661738 -3.0616164203049037 2 1 0
143 29 3 0 -3.331095216880634 -2.9852004994052477 -3.4845427977983485 1 0 0
369 90 4 0 -3.495189763600866 -2.9864290395952198 -3.847235155837505 2 1 0
279 60 4 0 -3.7224072437573823 -2.878946433077356 -3.5238681652539023 1 0 0
278 60 2 0 -4.101399937507125 -2.8159620806579513 -3.211446648803143 1 0 0
458 120 2 0 -3.2882236540925396 -2.1884440450423375 -3.600801412567043 2 1 1
459 120 4 0 -3.153638846063253 -1.7656379921628904 -3.512614681726295 2 1 1
460 120 4 0 -3.4283069127141768 -2.634304412618487 -3.6916508177524365 2 1 1
142 29 3 0 -2.606667653391513 -2.8987581903276842 -3.271318829625167 1 0 0
271 57 4 0 -2.3831200848699767 -2.691975937117262 -3.5147461798307766 1 0 0
269 57 2 0 -2.1909138551292795 -2.439435521870819 -3.8243180009669224 1 0 0
270 57 4 0 -1.9815551798880016 -2.1559638423817966 -4.1577628321541145 1 0 0
339 80 4 0 -2.023750499100373 -1.7511547340409779 -4.294731750928166 1 0 1
371 91 2 0 -3.8022460652313974 -0.10814405667862559 -0.546948347440825 1 0 0
564 155 4 0 -0.25245794580611314 -2.9308627675887724 -4.1524621643562165 1 0 1
258 53 4 0 -0.19336717154479732 -0.961027621520381 -0.9062185646575514 1 0 0
304 68 4 0 -0.3641451206564037 -0.660632871571067 -1.125357775442576 1 0 0
333 78 4 0 -3.006556529647117 -0.3729755543321147 -0.541897037054516 1 0 0
563 155 2 0 -0.6448048342988222 -2.9025185268163742 -4.436532986152738 1 0 1
322 74 4 0 -3.152604810580618 -1.46974747378614 -3.2224226071679327 1 0 1
320 74 2 0 -2.7984845082378262 -1.1563498424679475 -3.2697509931912956 1 0 1
338 80 2 0 -1.9512204200742769 -1.33397220288722 -4.288535273218318 1 0 1
18 4 3 0 -2.6002473325274416 -0.3215041090326176 -4.176530573049383 1 0 0
321 74 4 0 -2.4641109589197563 -0.8530905026675493 -3.3136971994903 1 0 1
20 4 3 0 -2.3510243793594525 -0.5193604708599198 -3.4989770016832806 1 0 0
283 61 4 0 -2.093883307149834 -0.7556897065581172 -3.319999977661845 1 0 0
16 4 1 0 -2.2390743437049623 -0.3201007843608945 -3.9093395515799703 1 0 0
19 4 3 0 -1.9054031260595075 -0.5549562620658657 -4.103674140794186 1 0 0
340 80 4 0 -1.8771178234084687 -0.8939988155839087 -4.290595838427647 1 0 1
265 55 4 0 -1.5687396136714535 -0.6434502812559848 -4.24976439227507 1 0 0
281 61 2 0 -1.7117190643260147 -0.9887165581156747 -3.151114694921017 1 0 0
282 61 4 0 -1.3727037744442017 -1.186418229480755 -3.0053545115265208 1 0 0
499 133 4 0 -2.868490854160476 -3.6008262201078756 -2.6422007907762457 1 0 0
145 29 3 0 -3.0214584405322507 -3.4246538108488043 -2.96336727247393 1 0 0
285 62 4 0 -3.2371493383335324 -3.6993847653823724 -2.7850405973182815 1 0 0
284 62 2 0 -3.705142048994888 -3.771282763861881 -2.771526318717079 1 0 0
286 62 4 0 -4.191285444007865 -3.837783487853337 -2.7602507991302394 1 0 0
332 78 2 0 -2.7429996708343563 -0.2547134939978859 -0.16188515429326422 1 0 0
497 133 2 0 -2.7651508638591187 -3.6728531354172502 -2.199480394065893 1 0 0
498 133 4 0 -2.6654499496235653 -3.732909875974574 -1.7483053231807935 1 0 0
212 43 3 0 -0.07499263804414813 -4.09868735686431 -2.8470004389090353 2 1 0
74 15 3 0 -0.16146554049765793 -3.980270329507461 -2.272285162782542 1 1 0
71 15 1 0 -0.30525995340429724 -4.089197427415418 -1.8337682934623758 1 1 0
75 15 3 0 -0.7330536289202709 -4.091247630659144 -1.814676466615536 1 1 0
73 15 3 0 -0.1413241969180099 -3.78959741974357 -1.5513628421720362 1 1 0
222 45 3 0 -0.12371922059214313 -0.5669126119032155 -0.8098690552122196 1 0 0
405 102 4 0 -4.287356959209516 -0.6170641999484703 -2.560327080540275 1 0 0
406 102 4 0 -3.4842801792351192 -0.1364036131010904 -2.423931240964357 1 0 0
404 102 2 0 -3.898451898844568 -0.38052685039586986 -2.5045535339184237 1 0 0
298 66 4 0 -1.0196751373287642 -1.35030131089407 -2.9553657526399233 1 0 0
296 66 2 0 -0.7456835076292423 -1.1092085571930985 -2.6838480315933477 1 0 0
256 52 4 0 -0.4504956985577149 -0.47472359038542766 -2.235119120814134 1 0 0
254 52 2 0 -0.5855423360712559 -0.06553749195529068 -2.4031070387212967 1 0 0
297 66 4 0 -0.45584259962808904 -0.8471247684606205 -2.3957045767418794 1 0 0
303 68 4 0 -0.33491921378940237 -0.7817397517764411 -2.0225942653791145 1 0 0
484 128 4 0 -0.08154908125506388 -0.7413325836456099 -2.310234549030089 1 0 0
473 125 2 0 -2.9392797319943633 -4.297170289445235 -1.1735676321374147 1 0 0
503 135 2 0 -3.1460228658950453 -3.2518758277812414 -1.21782695222739 1 0 0
12 3 3 0 -3.7239716346975364 -3.4486006863777714 -0.2506206101422226 1 0 0
532 144 4 0 -3.9938678190911907 -3.6923653528300315 -0.10745661847816201 1 0 0
474 125 4 0 -2.7235304845400234 -3.9562888001219028 -1.4049325849148442 1 0 0
504 135 4 0 -2.836076032621089 -3.5782825940298286 -1.3846330713802777 1 0 0
307 69 4 0 -3.8495109423767557 -2.8491708892976724 -1.131852266350819 1 0 0
14 3 3 0 -3.715384025416313 -2.913004105402345 -0.7646982794962436 1 0 0
505 135 4 0 -3.450687056413746 -2.9314899490411275 -1.0680945253816088 1 0 0
326 76 2 0 -3.57750356462186 -2.127626296954479 -1.062234190556735 1 0 0
328 76 4 0 -3.5765083426806044 -2.587720933067353 -0.9798143782325903 1 0 0
11 3 1 0 -3.7702842037744366 -2.999400161166104 -0.3167058748714755 1 0 0
15 3 3 0 -4.16398314275839 -2.8756545788950367 -0.19496133352153322 1 0 0
305 69 2 0 -4.203386088587228 -3.015109359693978 -1.3746178141490617 1 0 0
327 76 4 0 -3.5815019436545503 -1.6818986493099501 -1.1390471432683231 1 0 0
359 87 2 0 -3.090201834049615 -2.0082116354914525 -0.0765015059112315 1 0 0
13 3 3 0 -3.4520316343631885 -2.7723599954807483 -0.06667098202046695 1 0 0
361 87 4 0 -2.904031819093775 -1.626694419281753 -0.19797135515232878 1 0 0
287 63 2 0 -4.26038986844271 -1.3512004771048325 -1.3853840890406155 1 0 0
32 7 3 0 -3.057231525388223 -1.3472428391152103 -0.4491376617476863 1 0 0
288 63 4 0 -3.8268608394125714 -1.37473766791343 -1.2257851174759882 1 0 0
33 7 3 0 -3.444407106329635 -1.3013102460529726 -1.0955964048933406 1 0 0
372 91 4 0 -3.3944536985382197 -0.34775779258518114 -0.6450875729916827 1 0 0
382 94 4 0 -3.0891769103833404 -0.26047662260541493 -0.9158898105999249 1 0 0
35 7 3 0 -3.143598308607846 -0.6454658078525299 -0.7942441044612436 1 0 0
31 7 1 0 -3.3527108669027608 -1.081668179059431 -0.7016281998908855 1 0 0
34 7 3 0 -3.7236294885620125 -1.0136242660627954 -0.4690152936316805 1 0 0
27 6 3 0 -4.490635090517208 -3.5948826328020136 -2.6750869890000253 1 0 0
280 60 4 0 -4.439301308959738 -2.7712567268793364 -2.9302771324499197 1 0 0
259 53 4 0 -0.12060388049812332 -1.8196429242633823 -0.5012981509179832 1 0 0
225 45 3 0 -0.013985148438895756 -0.45234769874302305 -0.07531296761125095 1 0 0
370 90 4 0 -3.7848718111737236 -3.7076528536061106 -4.400432457760313 2 1 0
537 146 4 0 -4.201972670075562 -4.176336217605747 1.0251894850125396 1 0 0
536 146 2 0 -3.8497236407192617 -4.124525078990643 1.314966834346463 1 0 0
530 144 2 0 -4.135524555041266 -3.9092380980380304 0.26406685638601424 1 0 0
531 144 4 0 -4.27804890862986 -4.1322141888064285 0.6453442527016806 1 0 0
188 38 3 0 -2.4946167019396213 -4.185445192251574 1.443525277403471 1 0 0
360 87 4 0 -3.284553646584917 -2.4207340463998 0.05177436885981557 1 0 0
95 19 3 0 -2.1287162791355168 -0.0419443973479483 1.1893600694098234 1 0 0
356 86 2 0 -1.6697423377310638 -0.12440450457692354 0.14385560909170358 1 0 0
334 78 4 0 -2.4970943052486287 -0.13186300323450428 0.20320581948274086 1 0 0
358 86 4 0 -2.110595886593486 -0.10213523328174112 0.20356476587753836 1 0 0
357 86 4 0 -1.2356768289123492 -0.15244829022902007 0.09727025870985528 1 0 0
89 18 3 0 -0.23652706890879838 -0.27827577096611655 0.426174979218346 1 0 0
510 137 4 0 -4.413024600816432 -0.28818088109412887 4.402096170639449 2 0 -1
87 18 3 0 -0.8382852639250546 -0.08081791088072254 0.03509181137767747 1 0 0
585 162 4 0 -0.2245954795036189 -0.03217967256131615 3.560871028671195 1 0 -1
190 38 3 0 -3.1787891812440563 -3.9678731242216947 1.7916306845562149 1 0 0
538 146 4 0 -3.5194576654089884 -4.085895205620471 1.6123097788639074 1 0 0
172 35 3 0 -3.736979140964016 -4.048898749739774 2.7337522880210505 1 0 0
173 35 3 0 -3.5865137239894427 -4.187455698657535 2.0009774583379816 1 0 0
171 35 1 0 -3.586459009647407 -4.367838002962576 2.4274902524880764 1 0 0
577 159 4 0 -2.707427757225037 -4.304782118384474 2.5732125408331408 1 0 0
187 38 3 0 -2.5187375272762047 -3.651277258676423 1.9969449389786798 1 0 0
186 38 1 0 -2.700598550241163 -4.031644688562952 1.8639866955116142 1 0 0
654 185 4 0 -0.4213368471493091 -1.240727418060346 3.0964547532517104 1 0 0
189 38 3 0 -2.6446911807413445 -4.362373717825968 2.185827368120038 1 0 0
546 149 4 0 -0.0686110438180414 -1.5463050053725125 1.7526591422009137 1 0 0
571 157 4 0 -0.7449384577211924 -1.4780884554212883 3.0237881266631694 1 0 0
250 50 3 0 -0.36997846021782 -1.5968633635914093 2.0052397465274003 1 0 0
246 50 1 0 -0.17617202576359858 -1.482906730897624 2.3943794639954152 1 0 0
249 50 3 0 -0.48211326640266083 -1.4025763637233766 2.7004988441883473 1 0 0
115 23 3 0 -3.5984789147718104 -0.3342254620257652 2.439337257805252 1 0 0
111 23 1 0 -3.8303159621418974 -0.3005014311011136 2.8206233136295955 1 0 0
445 115 4 0 -3.431174138872306 -0.09819681282782522 2.1287937591190156 1 0 0
112 23 3 0 -4.0956634281239515 -0.7022163228330074 2.8847069934607807 1 0 0
363 88 4 0 -4.409307625644625 -0.9841994554453155 2.9142660213846963 1 0 0
263 55 2 0 -1.3821170577962696 -0.411025301216859 4.403062981546074 1 0 -1
440 114 2 0 -4.335087101072843 -4.245784594369169 4.137330899972906 2 1 0
442 114 4 0 -4.044274688054716 -3.974276204054273 4.387461736353585 2 1 0
55 11 3 0 -3.287285218451455 -4.14807891341434 3.6500682374958613 1 0 0
656 186 2 0 -1.1909886365960802 -4.484258791175061 3.2318107249605754 2 1 0
51 11 1 0 -3.2388452636302825 -4.038443088833927 4.094477096621351 1 0 0
54 11 3 0 -3.664145102634386 -3.9054491949301267 4.2764703068329615 1 0 0
53 11 3 0 -3.0872024186278963 -4.392961689198043 4.316045136340651 1 0 0
52 11 3 0 -2.9447484065950116 -3.7156593695151616 4.130985461760514 1 0 0
567 156 4 0 -2.5639199695406907 -3.716918622208796 3.9635625725437533 1 0 0
566 156 2 0 -2.2225863323259576 -3.569500700243001 3.7171254465368895 1 0 0
568 156 4 0 -1.8787730869603285 -3.42403271477603 3.4771338013036894 1 0 0
157 32 3 0 -1.5990727371375315 -3.159070831485796 3.3544191620154793 1 0 0
158 32 3 0 -0.8502700274090551 -3.1162334405130743 3.3595673425955086 1 0 0
658 186 4 0 -0.8072237505999249 -4.302334686035667 3.3275263274081714 2 1 0
103 21 3 0 -1.4179632574950793 -0.019591260854197934 3.76538683009358 1 0 0
693 198 4 0 -0.06482644855368314 -4.4365906249950635 4.332341862107998 2 1 0
110 22 3 0 -0.41295636553073223 -4.195152074411917 3.390272765559864 1 1 0
160 32 3 0 -1.2550595536552227 -3.046799111209653 3.975528973447312 1 0 0
156 32 1 0 -1.2535006981754693 -2.9572129443850432 3.5469409448495766 1 0 0
58 12 3 0 -4.352407632101143 -2.470659558056571 3.077606913630439 1 0 0
155 31 3 0 -1.4960034397918482 -2.1695143419085463 3.8090984464030493 1 0 -1
151 31 1 0 -1.429433261128226 -2.168967092513197 4.271177293140211 1 0 -1
570 157 4 0 -1.184100705327329 -2.106210218943436 3.5688345413610056 1 0 0
159 32 3 0 -1.274115001578267 -2.4879462276076567 3.4829227928106823 1 0 0
535 145 4 0 -0.8553004967354134 -1.5148246639625964 4.417020804136192 1 0 -1
152 31 3 0 -1.2922161559133887 -2.6150852472910406 4.41753628437933 1 0 -1
569 157 2 0 -0.9567052073252 -1.7858179577666835 3.2832480421340726 1 0 0
154 31 3 0 -1.0885176709198303 -1.8469358392096114 4.388760137336727 1 0 -1
565 155 4 0 -1.0400006954492795 -2.8751633743947775 4.277984120088132 1 0 0
533 145 2 0 -0.4202141091548466 -1.620030431084408 4.333226922728598 1 0 -1
655 185 4 0 -0.19842884882182688 -0.4574751305835312 3.451575590750541 1 0 0
639 180 4 0 -3.196471647308463 -0.04342424980266113 3.343962121961936 2 0 0
313 71 4 0 -4.034228799192317 -0.21416947155513277 4.289655038374895 1 0 0
311 71 2 0 -3.749923340953388 -0.24468832534112916 3.9511012385608977 1 0 0
114 23 3 0 -3.5276956472056704 -0.24232834223409228 3.189022088522747 1 0 0
312 71 4 0 -3.452344344368144 -0.27871181616983964 3.582654898882871 1 0 0
101 21 1 0 -1.7209562020153903 -0.012296305173642885 3.4293560087454606 1 0 0
102 21 3 0 -1.9370186288904616 -0.4149775141593537 3.4085671475123585 1 0 0
653 185 2 0 -0.3120801982415671 -0.8396409472736845 3.2812532223769493 1 0 0
264 55 4 0 -1.1811250286537693 -0.16916157014384403 4.048917370987781 1 0 -1
195 39 3 0 -4.42440298075276 -4.4768811408440214 0.8706990377804047 1 0 0
174 35 3 0 -3.162209071419144 -4.485271108692888 2.537321916561801 1 0 0
153 31 3 0 -1.8337200404961318 -2.054818786521561 4.493532164765276 1 0 -1
389 97 2 0 -2.4805759690188833 0.5849816112379296 -3.3789623183314728 1 0 0
342 81 4 0 -2.14993833299723 0.4002701578581034 -4.164623885336425 1 0 1
390 97 4 0 -2.2597942014262724 0.48036106255742705 -3.7635014421122968 1 0 0
383 95 2 0 -1.4916569539151294 0.7347673669367252 -3.8491875262620945 1 0 0
385 95 4 0 -1.865012541318495 0.45465608468530494 -3.8815751867004993 1 0 0
17 4 3 0 -2.109942636830881 0.1178366363912291 -3.847367073459736 1 0 0
384 95 4 0 -1.0903367190035267 1.025249515366525 -3.80097787581549 1 0 0
393 98 4 0 -0.7570386218026468 1.213442207317942 -3.6822281698394983 1 0 0
218 44 3 0 -0.7948610711820354 0.8344800790164024 -3.586205708021824 1 0 0
216 44 1 0 -0.5690767853848593 0.4926774437090904 -3.361072835013428 1 0 0
217 44 3 0 -0.1241023596357902 0.5560020438716977 -3.392067498578767 1 0 0
219 44 3 0 -0.6839562579615426 0.07758871438053383 -3.555963587236993 1 0 0
671 191 2 0 -2.233883023587145 2.812458399286375 -4.051576771523099 2 0 1
673 191 4 0 -2.2385766896037715 2.66052519974987 -4.487982683125521 2 0 1
672 191 4 0 -2.217749875609049 2.960673746716515 -3.6196266571302442 2 0 1
392 98 2 0 -0.5100171394617297 1.5560298341977425 -3.442540195142499 1 0 0
472 124 4 0 -0.11970221443484874 2.2456604320271065 -3.116564320315203 1 0 1
394 98 4 0 -0.28164124442314264 1.877051061894977 -3.2192600092004406 1 0 0
501 134 4 0 -3.46046569106842 4.389802236417309 -0.6429379989090971 1 -1 0
500 134 2 0 -3.7398474464522735 4.199181716563756 -0.32907353051365273 1 -1 0
621 174 4 0 -1.9902951137804044 3.215303524913838 -3.4031347878673124 2 0 0
214 43 3 0 -0.12207133840456308 4.237920588653135 -3.1746567637203564 2 0 0
84 17 3 0 -3.3313480161341507 0.6957185042486058 -2.1466578482046925 1 0 0
85 17 3 0 -3.1495054417246733 0.0065697293838899995 -2.2552298719907995 1 0 0
391 97 4 0 -2.6984180556148276 0.688183712390054 -2.972929216125791 1 0 0
81 17 1 0 -2.998883882291062 0.4095613615881142 -2.245417083419243 1 0 0
82 17 3 0 -2.8325826653637862 0.5056847079850924 -2.639456151470089 1 0 0
401 101 2 0 -2.000269616619211 0.8631401031513901 -1.7338590049056481 1 0 0
403 101 4 0 -1.626633861837699 1.1175726800189452 -1.7894361957750635 1 0 0
83 17 3 0 -2.667003713490617 0.4441611433636625 -1.9199547974910391 1 0 0
402 101 4 0 -2.3913855576314957 0.5830397621081804 -1.6709957546326581 1 0 0
388 96 4 0 -1.3274999030879635 1.220714472931765 -2.039316841739292 1 0 0
63 13 3 0 -1.4222075011601132 1.441631442787827 -1.703824927427628 1 0 0
386 96 2 0 -1.0845539858387987 0.9648693519650182 -2.3144439711772464 1 0 0
220 44 3 0 -0.6912834299041992 0.49607524138592574 -2.9195636493902226 1 0 0
387 96 4 0 -0.8320660199991177 0.7030531975620775 -2.6010104530962392 1 0 0
255 52 4 0 -0.7268163100622202 0.3321078585569186 -2.567298147554524 1 0 0
605 169 2 0 -1.2748618362511528 2.869403093316598 -2.1171555919793934 2 0 0
367 89 4 0 -0.2797400057694528 2.023876809988349 -2.8272223031651493 1 0 0
606 169 4 0 -1.145292427417894 2.4549322074306312 -1.9847417295888725 2 0 0
64 13 3 0 -1.0951864267192843 2.10123688633045 -1.8725590552832174 1 0 0
366 89 4 0 -0.8790562769236061 2.247035762045207 -2.1672899895586095 1 0 0
365 89 2 0 -0.5830330314070227 2.1414061865552334 -2.491498296132064 1 0 0
620 174 2 0 -1.7408090421235674 3.239815543578824 -3.042555283234753 2 0 0
607 169 4 0 -1.4020271870788292 3.284549356813235 -2.264105284281485 2 0 0
622 174 4 0 -1.4646193711739146 3.2631420755115723 -2.6550391693400277 2 0 0
227 46 3 0 -0.6394084701716678 3.634279625395563 -2.9015381925569104 2 0 0
230 46 3 0 -1.19929420940244 3.5236723570977153 -2.4770949045040584 2 0 0
229 46 3 0 -1.0247367355840185 4.183270319683024 -2.7649285170708557 2 0 0
226 46 1 0 -0.856560650172943 3.8133610598658434 -2.609077707199069 2 0 0
228 46 3 0 -0.5872589724169566 3.9110208443216115 -2.254065374110446 2 0 0
583 161 4 0 -1.1247604046659885 4.487173392803633 -3.0382307638261614 2 0 0
475 125 4 0 -3.169251864198928 4.353232001415701 -0.9456189647836393 1 -1 0
373 91 4 0 -4.173028964357965 0.10078031009672728 -0.45827934891010536 1 0 0
612 171 4 0 -0.1928363666017896 4.069393181858861 -1.817789991428377 2 0 0
381 94 4 0 -2.678759597420172 0.34411373422073055 -1.5316909202367626 1 0 0
380 94 2 0 -2.8808951671127696 0.04402175827733501 -1.223087094552497 1 0 0
502 134 4 0 -4.028417439173758 3.9991208062170207 -0.0019627655048184423 1 -1 0
418 106 4 0 -0.50259024068863 1.7504517234316452 -1.092631512629111 1 0 0
90 18 3 0 -0.24886727896259409 0.28920053523323475 -0.051967240826260586 1 0 0
62 13 3 0 -1.5443596610788553 2.0517145398548022 -1.2831105838254704 1 0 0
61 13 1 0 -1.2356763585654669 1.83451664948302 -1.5346880500198892 1 0 0
416 106 2 0 -0.11868634820044832 1.6330953599883342 -0.8456765599755172 1 0 0
65 13 3 0 -0.8765504095069541 1.7386439083776182 -1.2711068536231407 1 0 0
72 15 3 0 -0.15383479518591336 4.492663800702357 -1.7141138740385284 1 0 0
344 82 2 0 -3.2226398490104167 0.866829661430681 0.8915281783326447 1 0 0
345 82 4 0 -3.312172485272049 1.281665595439656 0.7556061207604428 1 0 0
444 115 4 0 -3.0780014568254845 0.1783844678857669 1.3244996898241377 1 0 0
346 82 4 0 -3.1180629260294053 0.4267898608986229 1.0244898891003018 1 0 0
94 19 3 0 -2.7701432990354196 0.2229585781763408 1.0610818468596408 1 0 0
93 19 3 0 -2.145421517392212 0.6748453208276528 1.0014869059074734 1 0 0
421 107 4 0 -2.006321963649952 1.0101236872298385 1.2016674453216938 1 0 0
424 108 4 0 -1.73524804577798 0.7705105592262846 1.0935978714340395 1 0 0
91 19 1 0 -2.3330402733489923 0.22810098232079845 0.9500645676524941 1 0 0
92 19 3 0 -2.2934605019449257 0.08796726534647892 0.4898240003055436 1 0 0
419 107 2 0 -2.331027354316829 1.2759332376900048 1.4007763690786978 1 0 0
422 108 2 0 -1.2847032790232227 0.9099880937347491 1.1936957890150008 1 0 0
88 18 3 0 -0.619002607247995 0.3550291911984296 0.5587781894542552 1 0 0
423 108 4 0 -0.8684423322682178 1.0466293451484878 1.2909752977077913 1 0 0
125 25 3 0 -0.8173902101599504 1.4525242722681986 1.3274083101967102 1 0 0
2 1 3 0 -3.225517868892404 1.6439367545857815 0.8463635668526184 1 0 0
594 165 4 0 -4.410192162301031 2.091673778682476 1.055292870656733 2 0 0
4 1 3 0 -3.4279440981313742 2.1363602101312855 1.3454631325000452 1 0 0
1 1 1 0 -3.088305382968212 1.9847514546283502 1.095675169617171 1 0 0
5 1 3 0 -2.786068979318353 1.8566687745993047 1.3408404520964128 1 0 0
413 105 2 0 -2.1550209171306363 2.316922538384266 0.6178719401394508 1 0 0
3 1 3 0 -2.939191729823601 2.3094061513821105 0.836346119916203 1 0 0
415 105 4 0 -2.5816950764569686 2.1893263562031313 0.693121820500342 1 0 0
414 105 4 0 -1.7171898487025974 2.433521474844418 0.5490279997802805 1 0 0
420 107 4 0 -2.6521231775066223 1.5312693964527737 1.5828110134929778 1 0 0
450 117 4 0 -0.26340754868439387 2.2432980803010487 0.7480675562531216 1 0 0
121 25 1 0 -0.40382100700355306 1.5811135711230735 1.2349282355628945 1 0 0
122 25 3 0 -0.4216139594237376 1.9442377619526559 0.9555336968551078 1 0 0
375 92 4 0 -0.6285938671478544 2.2419806832328097 0.8307682112273831 1 0 0
374 92 2 0 -0.9792672503529327 2.375041612735724 0.6248363213876678 1 0 0
376 92 4 0 -1.3450152381810399 2.512855374340595 0.4106613552585001 1 0 0
192 39 3 0 -4.056588562689885 3.8955856399515527 0.9838261571073108 1 -1 0
193 39 3 0 -4.3117968004277865 4.037011278663079 0.30721604753054343 1 -1 0
191 39 1 0 -4.397192406469252 4.076533830221549 0.7629244561680792 1 -1 0
617 173 2 0 -4.429811756647199 0.53120114791097 4.3660027135446 2 0 -1
113 23 3 0 -4.0977368528324805 0.03802840988947587 2.807950378540464 1 0 0
443 115 2 0 -3.2571059684104062 0.04135947547537899 1.7263416559017486 1 0 0
316 72 4 0 -1.3606268113406568 0.055712255817170764 2.6733357786658916 1 0 0
314 72 2 0 -1.0173741803942598 0.34308246883015325 2.6111140529511365 1 0 0
315 72 4 0 -0.6900860999571017 0.6162292123194 2.55738207799073 1 0 0
129 26 3 0 -0.30918418848077156 0.6907744166298002 2.566630810887564 1 0 0
646 182 4 0 -4.434142647965706 1.94870807879445 2.7821221234160634 2 0 0
690 197 4 0 -3.0256646009421666 2.8569197083545914 2.513458835200038 2 0 0
642 181 4 0 -0.2725358073525621 1.7215500927186254 2.8460648720842263 1 0 0
124 25 3 0 -0.1828316571882489 1.6932154889467226 1.6163103066803908 1 0 0
319 73 4 0 -4.0834326225994415 4.099801491800007 2.746877337128371 1 -1 0
544 148 4 0 -3.2512650363816986 3.1911511375305315 2.5261727396743288 1 -1 0
175 35 3 0 -3.876376579956467 4.251337082154795 2.4385757832473622 1 -1 0
542 148 2 0 -3.567537302016517 3.5364036489988626 2.513095108047441 1 -1 0
347 83 2 0 -4.4933907166539955 4.183365535535086 1.9878815685913613 1 -1 0
348 83 4 0 -4.214135646081667 4.056554899163117 2.3587544792692396 1 -1 0
543 148 4 0 -3.881707221417676 3.8697697083684632 2.5019106279161116 1 -1 0
576 159 4 0 -2.018077911623208 4.264410527592992 3.0596916902179343 1 -1 0
618 173 4 0 -4.276285307359402 0.09407782750375482 4.398964389854181 2 0 -1
638 180 2 0 -2.8161489260732777 0.19594980220879332 3.4488342751431116 2 0 0
650 184 2 0 -1.802709728658574 1.0954386418328426 3.480072434235516 1 0 0
652 184 4 0 -2.1206602216690267 0.719688156481852 3.5303052890827074 1 0 0
343 81 4 0 -2.182148447713052 0.5217510693804419 3.87126399916633 1 0 0
640 180 4 0 -2.4176564927674664 0.44104868146749077 3.5556049784611394 2 0 0
105 21 3 0 -2.0399587316602776 0.32890650866221094 3.521107508502161 1 0 0
341 81 2 0 -2.1658602639121947 0.4662061657605596 4.345416622918779 1 0 0
586 162 4 0 -1.0812401028732186 0.19606744344576654 3.867928921545267 1 0 -1
651 184 4 0 -1.500754842120879 1.4460952586675706 3.4359892129803766 1 0 0
584 162 2 0 -0.6447934512959397 0.0800105776280029 3.7164956599356875 1 0 -1
430 110 4 0 -4.171780658013394 2.064941944768303 3.05606164436161 2 0 0
428 110 2 0 -3.8202787443164596 2.2631744927130066 3.2859447431362776 2 0 0
429 110 4 0 -3.4523801074473157 2.4617214599955224 3.5227694721804683 2 0 0
242 49 3 0 -3.1208382504332794 2.600166300798535 3.7360827738741795 2 0 0
244 49 3 0 -2.979319123626314 3.221717907890361 4.106256391497637 2 0 0
241 49 1 0 -2.7873821674888033 2.8609344809281447 3.924089412322851 2 0 0
245 49 3 0 -2.549989735358727 2.6141296663825795 4.26532599605846 2 0 0
643 181 4 0 -1.1010618278730102 1.4942115380841878 3.2980800725466084 1 0 0
641 181 2 0 -0.6866623664082594 1.6077968925264061 3.074015705036805 1 0 0
317 73 2 0 -4.297103184238447 4.1603260567027425 3.1521996733624222 1 -1 0
689 197 2 0 -2.7293580202958934 2.930644201173588 2.8436815553585495 2 0 0
664 188 4 0 -2.1585872373235673 3.1851854618627176 3.429754815390475 2 0 0
662 188 2 0 -1.971639361565897 3.5631830297482727 3.332955637525097 2 0 0
663 188 4 0 -1.7686854990691572 3.9569912617112903 3.244089529366234 2 0 0
657 186 4 0 -1.6020029209458202 4.304177171731676 3.1245084168916426 2 0 0
243 49 3 0 -2.4857871795578768 2.9920667292070977 3.591233800126216 2 0 0
691 197 4 0 -2.409581677776221 3.00128119681382 3.1819491550259773 2 0 0
667 189 4 0 -0.22707806818831333 4.288999441523884 4.100111378751547 2 0 0
665 189 2 0 -0.6450960152428484 4.0486380678379765 4.048982626689388 2 0 0
666 189 4 0 -1.0193127296512121 3.833676379503534 3.9955315688312796 2 0 0
128 26 3 0 -0.0641262257582298 1.4136646066373215 2.647837393467336 1 0 0
123 25 3 0 -0.20216233788024596 1.271796315506439 1.0481807159161454 1 0 0
86 18 1 0 -0.49433999044256893 0.07292158123508585 0.23600430451804755 1 0 0
575 159 2 0 -2.364108757034907 4.472075014453027 2.8044566955694155 1 -1 0
104 21 3 0 -1.5127402722123908 0.07360492343221292 3.041246719559066 1 0 0
267 56 4 0 1.8637964810686682 -3.9299035813710623 -3.4523306985057243 0 0 0
266 56 2 0 2.095206604714475 -3.5871775393258183 -3.6264683308314956 0 0 0
268 56 4 0 2.3398929805803235 -3.2199615402809587 -3.8148349948106053 0 0 0
456 119 4 0 1.8663261741916104 -4.3343535871861345 -3.4523080506674084 1 1 1
39 8 3 0 2.5898800234807338 -3.109755746137071 -4.120755130433956 0 0 1
40 8 3 0 2.7977910307259632 -3.814546556842592 -4.263699708830909 0 0 1
36 8 1 0 2.9069997550208475 -3.3587808754430366 -4.297712681491779 0 0 1
38 8 3 0 3.2684977243765934 -3.283363258058726 -4.084469127025614 0 0 1
200 40 3 0 0.5088427873120134 -2.2243717842697954 -3.991199447901147 1 0 1
196 40 1 0 0.3562931265632674 -2.4127200323644002 -4.389614560356153 1 0 1
616 172 4 0 0.1329127433708912 -2.8380905588376892 -2.9865183562580357 2 1 0
294 65 4 0 2.5409504186093548 -2.8689968203485474 -3.8243541898187656 0 0 0
293 65 2 0 2.407675759512559 -2.4406704288591516 -3.813995135141644 0 0 0
295 65 4 0 2.28081370006457 -2.021180713402574 -3.8017035428530606 0 0 0
139 28 3 0 0.9981886994903615 -0.7374605072375711 -3.233636193114722 1 0 0
138 28 3 0 1.4458958642583788 -0.1636032537442471 -3.2299981781305 1 0 0
551 151 2 0 2.2970925934454574 -1.4535481548441922 -4.440866972310401 1 0 1
552 151 4 0 2.4959403612909385 -1.3103879280658743 -4.08151260952298 1 0 1
515 139 2 0 2.2074930192071607 -1.1182400749970949 -3.3588655098763613 1 0 0
516 139 4 0 2.4648448934005645 -1.1722946165490469 -3.717364021796844 1 0 0
477 126 4 0 2.8279539294093334 -1.1245750321525554 -3.9424782813610713 1 0 0
476 126 2 0 3.249145497672294 -0.9726040708527974 -3.902036438009988 1 0 0
478 126 4 0 3.6841206365935273 -0.8216936050464008 -3.850542887215428 1 0 0
292 64 4 0 3.9438255557228326 -0.6792790554796406 -3.600296673019071 0 0 0
511 137 4 0 4.002248920237574 -0.6302977129367786 -3.999942470343475 1 0 0
509 137 2 0 4.294382141813014 -0.46072949129303176 -4.297844631756003 1 0 0
290 64 2 0 4.193605420564732 -0.7355182523697326 -3.1953751687493965 0 0 0
396 99 4 0 1.0432823935674955 -3.8345329490322957 -2.282910340928864 1 1 0
395 99 2 0 0.592464058009587 -3.9101246089740362 -2.4100341912011953 1 1 0
519 140 4 0 1.3901952228083143 -3.6866187040465253 -2.082884108928378 1 0 0
397 99 4 0 0.1426572887607076 -3.9820954237158404 -2.5330889578159033 1 1 0
629 177 2 0 0.34238240381616425 -3.1704466485121157 -1.5445899822601579 2 1 0
523 141 4 0 1.416543448596392 -3.9746931869190196 -2.3508528285544696 1 0 0
518 140 2 0 1.6226874436796566 -3.315246521086373 -1.9303252670590245 1 0 0
522 141 4 0 1.9203761052209387 -4.1447738924508 -3.1145941369453287 1 0 0
521 141 2 0 1.6736708945025844 -4.061608287266473 -2.7341556239276934 1 0 0
29 6 3 0 3.807306579236891 -3.4234029611095425 -2.487937216367558 0 0 0
26 6 1 0 4.2490627866811606 -3.3054099186482317 -2.4492186678316687 0 0 0
301 67 4 0 3.57119246107849 -0.6456613239316122 -0.7819067422331911 0 0 0
28 6 3 0 4.32347594824592 -2.9072280627706237 -2.6106132580941637 0 0 0
306 69 4 0 4.434339564100401 -3.181242675878832 -1.6253544592709979 0 0 0
631 177 4 0 0.6555422618615854 -2.8961933533200197 -1.6776760364877155 2 1 0
135 27 3 0 0.9311862882257609 -2.5881650659065563 -1.7083186642001715 1 0 0
481 127 4 0 1.2977879373593622 -1.9316873948839293 -2.5014126506257375 1 0 0
132 27 3 0 1.324141373431626 -2.115368292924707 -2.1369443260487033 1 0 0
131 27 1 0 1.3096794336740363 -2.330190989903088 -1.7330312492354243 1 0 0
496 132 4 0 0.7518902186981 -2.7594382216646283 -2.040779248770712 1 0 0
494 132 2 0 0.5779724008020688 -2.6718678539902925 -2.4841572217800842 1 0 0
495 132 4 0 0.401337442061215 -2.578109728219614 -2.90427788803138 1 0 0
479 127 2 0 1.4928607873846964 -1.5358714967437104 -2.604234426667995 1 0 0
133 27 3 0 1.6650778916380382 -2.5901988473364304 -1.6873630574259795 1 0 0
520 140 4 0 1.8662653603573132 -2.914908410699155 -1.7688985332540028 1 0 0
277 59 4 0 2.081555203121251 -2.5941803424733383 -1.719379345104652 0 0 0
275 59 2 0 2.4846021364792836 -2.3263394088266987 -1.662355213436932 0 0 0
276 59 4 0 2.8930603536533477 -2.052189510226663 -1.6149120918594333 0 0 0
23 5 3 0 3.2320823362043365 -1.827230827057483 -1.513007114596943 0 0 0
299 67 2 0 3.7573264047856147 -0.9109388292796083 -1.109439894255218 0 0 0
22 5 3 0 3.6379874749936976 -1.9377110150486603 -2.1000193473912794 0 0 0
21 5 1 0 3.6488565453572326 -1.90158608780232 -1.6722826401726962 0 0 0
24 5 3 0 3.81203756872494 -2.291109607588928 -1.4882735321326424 0 0 0
136 28 1 0 1.313479681943 -0.5162639003786884 -2.998826176024094 1 0 0
140 28 3 0 1.1435900132148111 -0.3759014343050895 -2.6012785187851657 1 0 0
524 142 2 0 1.2114799856831908 -0.2606370294028393 -1.8637439163519405 1 0 0