LAMMPS data file via write_data, version 29 Aug 2024, timestep = 900000, units = lj

694 atoms
4 atom types
496 bonds
1 bond types
448 angles
2 angle types

-4.496439 4.496439 xlo xhi
-4.496439 4.496439 ylo yhi
-4.496439 4.496439 zlo zhi

Masses

1 1
2 1
3 0.1
4 0.1

Bond Coeffs # harmonic/omp

1 100 0.45

Angle Coeffs # harmonic/omp

1 100 180
2 100 109.471

Atoms # full

521 141 2 0 -3.5624154722541763 -3.739401710673516 -3.503688171108471 1 0 0
522 141 4 0 -3.143211841161594 -3.764032257575633 -3.6678165673766987 1 0 0
523 141 4 0 -3.9769144153119917 -3.7164812450224067 -3.3391666382141856 1 0 0
456 119 4 0 -2.987486386290074 -3.938015307427831 -3.998560468107636 0 1 1
455 119 2 0 -2.9173240400550045 -4.386404538279311 -4.080050563515528 0 1 1
267 56 4 0 -2.938055590634028 -3.5492829125442316 -3.9295363776276764 0 0 0
396 99 4 0 -4.380175056489696 -3.610635159269157 -3.3705836727738783 0 1 0
519 140 4 0 -4.15964444815414 -3.400668664590263 -3.114222072689614 1 0 0
266 56 2 0 -2.6158270638572967 -3.2483967428160114 -4.103638288002204 0 0 0
368 90 2 0 -0.3648900540064725 -4.005107403697447 -3.458153958708517 0 1 0
369 90 4 0 -0.4203368984824211 -3.6808190079147147 -3.175894138510844 0 1 0
370 90 4 0 -0.3099210909937037 -4.338080334789788 -3.7508754532043915 0 1 0
381 94 4 0 -1.3945230790244623 -0.08985708016112195 -1.3124196880150805 0 0 0
520 140 4 0 -4.436921286807891 -2.952291643192195 -2.3415322510454404 1 0 0
460 120 4 0 -0.6116408058704474 -3.3320613117924545 -3.2042036324420544 0 1 1
279 60 4 0 -0.7597004223247574 -3.608902622870145 -2.9611456694490026 0 0 0
293 65 2 0 -1.6101954256842594 -2.80997950138727 -4.149284032258267 0 0 0
294 65 4 0 -1.9102751277514876 -2.9444623293382004 -4.457221120681314 0 0 0
295 65 4 0 -1.3109824869304705 -2.6678136452302317 -3.8224834299431936 0 0 0
322 74 4 0 -1.270005535815988 -2.413906016107819 -3.487383257471816 0 0 1
458 120 2 0 -0.7760345447285985 -2.9728272885164895 -3.411550522171669 0 1 1
459 120 4 0 -0.9533670252686691 -2.6036599044824906 -3.6306248386192985 0 1 1
320 74 2 0 -1.210448554078718 -1.9796560256480675 -3.345555840261532 0 0 1
511 137 4 0 -3.8275177590240523 -0.555904198823312 -3.737167854108727 1 0 0
292 64 4 0 -3.8058780166294026 -0.714608014525066 -3.3750830733838675 0 0 0
478 126 4 0 -4.044860937072784 -0.8808512817475723 -3.659043011806616 1 0 0
509 137 2 0 -3.7131612797853792 -0.16905579158672457 -3.9658348506144785 1 0 0
476 126 2 0 -4.383186805971202 -1.1453152030836233 -3.7278994664573086 1 0 0
389 97 2 0 -1.4620627936269617 -0.36749363475503194 -3.0833277336609304 0 0 0
321 74 4 0 -1.152460458305811 -1.546766758791402 -3.207220307708451 0 0 1
283 61 4 0 -0.8001642976588902 -1.4445362626496645 -3.0480324246384547 0 0 0
340 80 4 0 -0.06901446255789916 -1.1647433294828966 -3.769868613178646 0 0 1
18 4 3 0 -1.0977395430912917 -1.2348051044466495 -4.064216165644975 0 0 0
20 4 3 0 -0.9081203007334626 -1.2335102275478496 -3.342055029207649 0 0 0
390 97 4 0 -1.2592849603378744 -0.27914012079280626 -3.4882740048423675 0 0 0
19 4 3 0 -0.43040414950874406 -0.9801627212264725 -3.837058067234868 0 0 0
342 81 4 0 -1.0538641377483815 -0.2394336624219853 -3.8366374140354695 0 0 1
17 4 3 0 -1.033655831427762 -0.5757981353964265 -3.6624775183595193 0 0 0
16 4 1 0 -0.8648204484182193 -1.0114870221140204 -3.7262847348705828 0 0 0
385 95 4 0 -0.8484206821699961 -0.24570210843968762 -3.481951366388788 0 0 0
265 55 4 0 -0.14316932370772623 -0.8564663854149546 -4.080469745100165 0 0 0
518 140 2 0 -4.295520461403594 -3.1767056985390014 -2.7322479817597687 1 0 0
28 6 3 0 -1.5191938544487278 -4.036513264646258 -2.0636487464831688 0 0 0
280 60 4 0 -1.449181126922683 -3.8482522715128864 -2.4173416846754257 0 0 0
26 6 1 0 -1.4028815104672927 -4.095557385359853 -1.581731032245103 0 0 0
29 6 3 0 -1.571799395291017 -4.493048739144144 -1.4366800918976064 0 0 0
145 29 3 0 -0.003516743774451921 -3.3619520037294284 -2.2564599866757 0 0 0
143 29 3 0 -0.3886989355768728 -3.437322574432658 -2.857954617682932 0 0 0
278 60 2 0 -1.109116215433806 -3.727199496007351 -2.6919880750236036 0 0 0
284 62 2 0 -0.31696685422656584 -3.978380014755387 -1.748333809676782 0 0 0
286 62 4 0 -0.5807212401358375 -4.328162920941269 -1.5646397035438468 0 0 0
141 29 1 0 -0.012444468273441707 -3.288483320283953 -2.6912397275470936 0 0 0
27 6 3 0 -0.9427527287711444 -4.099870646486688 -1.5370734298754847 0 0 0
285 62 4 0 -0.057563244558889615 -3.627590713598743 -1.9283800242787474 0 0 0
277 59 4 0 -4.395677954053852 -2.7443504069755393 -2.0063243487613525 0 0 0
275 59 2 0 -4.233633955160737 -2.3560243200605355 -1.9034701828405898 0 0 0
276 59 4 0 -4.046343207722861 -1.917801150519488 -1.7817314746974975 0 0 0
10 2 3 0 -3.211326254651765 -1.7843832636291594 -2.1419962085004993 0 0 0
9 2 3 0 -3.935044913595528 -1.6099159979158415 -2.005241592903418 0 0 0
490 130 4 0 -4.129028327882679 -1.5417534688108834 -1.639343276865234 1 0 0
290 64 2 0 -3.6184228342729643 -0.8031519463890158 -2.984438848032664 0 0 0
6 2 1 0 -3.510391188275834 -1.4446405123085275 -2.0030145361266936 0 0 0
291 64 4 0 -3.443433649074593 -0.8891740826752228 -2.6273294764671955 0 0 0
7 2 3 0 -3.476842787780404 -1.1050350412195145 -2.2826768787527025 0 0 0
405 102 4 0 -3.2383858004555957 -0.7915213770797564 -2.2950847976436073 0 0 0
404 102 2 0 -2.806155295024964 -0.6176587679045844 -2.234833477315015 0 0 0
406 102 4 0 -2.393142394291522 -0.45355211491462777 -2.174207008339046 0 0 0
391 97 4 0 -1.673004655299995 -0.4531069646126001 -2.677783419976845 0 0 0
85 17 3 0 -2.1618727917395426 -0.5070991770448313 -1.8826000805464422 0 0 0
32 7 3 0 -1.5464461596229404 -1.1348235088670398 -0.11768438096826071 0 0 0
281 61 2 0 -0.3797352827633826 -1.5144749835509639 -2.8600405081649383 0 0 0
306 69 4 0 -1.751974331596954 -3.3847659263674523 -1.253914634907829 0 0 0
30 6 3 0 -1.5867993871462553 -3.7429644150427026 -1.3275706056728624 0 0 0
382 94 4 0 -1.821369936049182 -0.12362598842583766 -0.5158527729473726 0 0 0
23 5 3 0 -4.11899016759288 -1.8318648261419026 -1.3662664294159026 0 0 0
22 5 3 0 -3.557702038655957 -2.156336843394023 -1.0143274581390496 0 0 0
21 5 1 0 -3.8088683713082028 -1.7943456152069703 -1.0194249649611578 0 0 0
24 5 3 0 -4.015671875577427 -1.7499862390905403 -0.6503366903775589 0 0 0
25 5 3 0 -3.551556058780759 -1.427284232568995 -1.0999521545201716 0 0 0
305 69 2 0 -1.7595854682799443 -3.027427600527939 -0.984911549895672 0 0 0
328 76 4 0 -1.9685167602453308 -2.3747563229152733 -0.5358878540536169 0 0 0
326 76 2 0 -2.054504142446424 -1.9312821198316819 -0.5692458800965308 0 0 0
307 69 4 0 -1.7681219734045976 -2.6774919247055426 -0.7274340459513604 0 0 0
8 2 3 0 -3.414356509292794 -1.3129905842957814 -1.5937735778176 0 0 0
289 63 4 0 -3.192355070587862 -1.2591104108105677 -1.2569547473321772 0 0 0
300 67 4 0 -3.530848956329063 -1.070026662010684 -1.2801465250151602 0 0 0
301 67 4 0 -4.010073783225523 -0.3324796253312362 -1.0052179752863912 0 0 0
299 67 2 0 -3.764903723167473 -0.7145670589359459 -1.1519312853408015 0 0 0
508 136 4 0 -4.33369930947755 -0.29373312416375824 -0.7772147399489158 1 0 0
380 94 2 0 -1.6036006334447586 -0.10468341975164946 -0.9193015216959874 0 0 0
333 78 4 0 -1.7708622836687946 -0.0699873861148858 -0.16042328342079057 0 0 0
35 7 3 0 -1.815465383852426 -0.44931252936831123 -0.28713524707274796 0 0 0
372 91 4 0 -2.1456738959632564 -0.2086183184849508 -0.25208043510673633 0 0 0
33 7 3 0 -2.0558892129086397 -1.0670527094778033 -0.6447531389545965 0 0 0
288 63 4 0 -2.38150605507217 -1.2469865716820119 -0.8690069559599749 0 0 0
31 7 1 0 -1.9104768420657754 -0.9068297004630055 -0.24377283017338697 0 0 0
327 76 4 0 -2.1523836639471554 -1.4774915794602812 -0.5934489861424027 0 0 0
287 63 2 0 -2.790701041926064 -1.2540254053076363 -1.0627289061353657 0 0 0
341 81 2 0 -1.1579006156398761 -0.11688253626663664 -4.299480395035487 0 0 1
81 17 1 0 -1.7735581645867957 -0.3463495462605256 -2.023049174898466 0 0 0
83 17 3 0 -1.4999570252786074 -0.27139700561098984 -1.6718676650567985 0 0 0
82 17 3 0 -1.5861858194377019 -0.6422731072809663 -2.3119183109450736 0 0 0
402 101 4 0 -1.195807374032698 -0.01054463370670572 -1.6454619840115252 0 0 0
268 56 4 0 -2.2990172487105656 -2.9599975543669266 -4.273937642927625 0 0 0
13 3 3 0 -0.3729709709645326 -1.930176688903944 0.6395599788408766 0 0 0
11 3 1 0 -0.2122081631155027 -2.309580444494057 0.5278677832763974 0 0 0
360 87 4 0 -0.7113540292608654 -1.9010274593799468 0.4105061479591043 0 0 0
15 3 3 0 -0.4727707400362223 -2.6144063267399433 0.6802018182926179 0 0 0
34 7 3 0 -2.2366815487930696 -0.9807710179091287 0.06563747764075455 0 0 0
345 82 4 0 -2.893377276542029 -0.1259824848292391 0.7628444331307013 0 0 0
344 82 2 0 -2.60581240231437 -0.10038535641459069 1.0990515522622655 0 0 0
346 82 4 0 -2.3214320316381367 -0.06620187240265527 1.4491454940771986 0 0 0
359 87 2 0 -0.9425166140174603 -1.5270635459930955 0.26008856235956984 0 0 0
361 87 4 0 -1.1849498304950312 -1.1602695698010426 0.11247913611101924 0 0 0
674 192 2 0 -4.149189908971874 -4.059071567100274 1.4781016982255886 1 1 0
675 192 4 0 -3.918164747453757 -3.693180913377286 1.5313991958708402 1 1 0
184 37 3 0 -4.029092684343947 -3.373492214340295 1.756543275023347 1 0 0
337 79 4 0 -3.640594873445374 -3.51094454320954 1.7351178481039597 0 0 0
335 79 2 0 -3.284084687430642 -3.5257419114018416 2.026375031784304 0 0 0
181 37 1 0 -4.319849190729908 -3.099713307674287 2.0505713391605798 1 0 0
105 21 3 0 -1.1324549320890605 -0.1560799820477754 3.917486526399559 0 0 0
325 75 4 0 -3.0907179669183242 -3.461764467506285 2.698022503243103 0 0 0
336 79 4 0 -2.936915289878992 -3.5356886264498875 2.3111310609190148 0 0 0
323 75 2 0 -2.913715509407701 -3.1950187959641143 2.9998742385856647 0 0 0
48 10 3 0 -3.582806370247381 -1.6092848936822992 1.9412848786885843 0 0 0
273 58 4 0 -3.3342281767840576 -1.8950775793002315 2.0625364486179927 0 0 0
185 37 3 0 -4.055041439857068 -2.823086916238867 2.317697579504649 1 0 0
274 58 4 0 -3.6712175456607676 -2.765302194523791 2.1978543982161054 0 0 0
272 58 2 0 -3.503692728816251 -2.3375877039267565 2.1301839201814317 0 0 0
60 12 3 0 -2.9803676988927275 -1.7517728476413816 2.0447986307714783 0 0 0
102 21 3 0 -1.1091680349666628 -0.903524030353397 3.795333301416736 0 0 0
264 55 4 0 -0.10937848610620178 -0.5382668541493999 4.056907027477469 0 0 -1
586 162 4 0 -0.18151250717980993 -0.39176990340500706 3.674565239964086 0 0 -1
59 12 3 0 -2.5299118075067324 -1.5571795331688838 2.6675744573410003 0 0 0
253 51 4 0 -3.6112431945922507 -1.449061256944686 2.770844539717977 0 0 -1
47 10 3 0 -3.882781130440779 -0.9320957258498025 1.8591385527443556 0 0 0
50 10 3 0 -4.338341142870474 -1.5123131312769684 2.0060865742938847 0 0 0
57 12 3 0 -3.262197000512352 -1.2804614194453927 2.5826116216603916 0 0 0
46 10 1 0 -3.916044490474594 -1.3156676635967932 2.0842353979243957 0 0 0
49 10 3 0 -3.8690456004024876 -1.2437713310230771 2.540605795544507 0 0 0
364 88 4 0 -3.5419735055356414 -1.0472141629686131 2.693301181889646 0 0 0
362 88 2 0 -3.4830622289341426 -0.6418803897104324 2.866168437547913 0 0 0
56 12 1 0 -2.872312786333235 -1.3996696536624984 2.3522762536928115 0 0 0
58 12 3 0 -2.716794935183103 -1.0403746959064344 2.1251230767513367 0 0 0
445 115 4 0 -2.329371801908833 -0.12338817370557412 2.575279189290578 0 0 0
443 115 2 0 -2.1773899002000294 -0.11779929078656887 2.147640945010952 0 0 0
115 23 3 0 -2.620710734113795 -0.11029919682915426 2.8235756844841546 0 0 0
314 72 2 0 -0.5810139820418725 -0.40799209160391114 2.482157567208739 0 0 0
316 72 4 0 -0.7541025874525786 -0.4746061250924209 2.8953711415012027 0 0 0
315 72 4 0 -0.41353934299799344 -0.33522388210780535 2.0812896497400253 0 0 0
355 85 4 0 -4.432379575765028 -4.304426379839301 3.1418859450576337 0 0 0
317 73 2 0 -0.08812748083966136 -4.44882708356981 3.4074631617715285 0 0 0
101 21 1 0 -0.8926798900648474 -0.5329089623125475 3.715655122875336 0 0 0
104 21 3 0 -0.8648581221173474 -0.474588165077929 3.2781860183374874 0 0 0
42 9 3 0 -3.7461161287612668 -2.9133773682832396 3.725053994312799 0 0 0
448 116 4 0 -3.2343613580639787 -4.3955186247064955 3.764042628839071 0 1 0
446 116 2 0 -2.994862786931734 -4.032809692637184 3.8289902811258467 0 1 0
447 116 4 0 -2.7521221737471335 -3.678094743798808 3.883065305403183 0 1 0
40 8 3 0 -2.3833089039856836 -3.5167212329088864 3.8576711731814406 0 0 0
36 8 1 0 -2.2287842964846667 -3.0719121656937722 3.8648566379393734 0 0 0
38 8 3 0 -1.8068781402128975 -3.0508893768209098 3.708548925358781 0 0 0
318 73 4 0 -0.4754990406569409 -4.373155603771875 3.601500978629116 0 0 0
103 21 3 0 -0.4829555021830518 -0.5521755638610425 3.899921721519182 0 0 0
441 114 4 0 -0.5090194960707116 -4.492421836919814 4.00124384602634 0 1 0
435 112 4 0 -0.7285903323739119 -4.192377599233446 3.8487021218759145 0 1 0
434 112 2 0 -1.1124042511097836 -4.251836039102227 3.617045035076467 0 1 0
251 51 2 0 -3.7247622220604995 -1.7398187532625158 3.097175974340338 0 0 -1
252 51 4 0 -3.8408024111132932 -2.0104065861208507 3.4206411296090034 0 0 -1
45 9 3 0 -3.541560886568928 -2.2193507451420946 3.601230757175822 0 0 0
167 34 3 0 -4.196158739638149 -2.1569399108724174 3.4682507402177523 1 0 0
43 9 3 0 -3.275577065992209 -2.559352018507569 4.209215779811393 0 0 0
41 9 1 0 -3.406738132203597 -2.6058238786243813 3.756290292543406 0 0 0
310 70 4 0 -2.4602053081788973 -1.7321645022093664 3.0336047087938454 0 0 0
44 9 3 0 -3.040876744900559 -2.7553865859367748 3.495638361845461 0 0 0
39 8 3 0 -2.2432647770361935 -2.913577528088495 4.308519395418214 0 0 0
324 75 4 0 -2.731054794674682 -2.9093820389300595 3.3019582010763697 0 0 0
308 70 2 0 -2.593236109423188 -2.131600209311431 3.224297614145929 0 0 0
37 8 3 0 -2.497281594967622 -2.8037286486140918 3.6013496308146675 0 0 0
309 70 4 0 -2.72275865082686 -2.533358299949801 3.409274971182214 0 0 0
343 81 4 0 -1.2536090317158757 -0.002113046714696611 4.275296228180649 0 0 0
363 88 4 0 -3.4306168644247523 -0.21276731807465663 3.047406386348404 0 0 0
263 55 2 0 -0.12972715661336798 -0.7012810875625318 4.493542185402561 0 0 -1
444 115 4 0 -2.0272909030020965 -0.11864114277171803 1.714421098035473 0 0 0
129 26 3 0 -0.23058586556323346 -0.01068964134326638 1.931864000718512 0 0 0
436 112 4 0 -1.503196284382525 -4.294335636753172 3.388801473893935 0 1 0
676 192 4 0 -4.391027536373369 -4.437904225474985 1.4209656196195717 1 1 0
14 3 3 0 -0.18500610111760724 -2.3442338279027406 0.07918174883311895 0 0 0
510 137 4 0 -3.5975470334198056 0.18561113468380316 -4.184953942646201 1 0 0
618 173 4 0 -3.5440845631159155 0.5747411293223977 -4.277037246945548 1 0 0
619 173 4 0 -3.876503584282905 1.385809058493679 -4.394506773119864 1 0 0
617 173 2 0 -3.709665721250927 0.9827111404416092 -4.33614117579308 1 0 0
386 96 2 0 -0.11817837934782717 0.593103187965223 -2.328287574502973 0 0 0
393 98 4 0 -0.1968525065518134 0.8721489331242388 -3.502093036560805 0 0 0
384 95 4 0 -0.19299774300026 0.4596900011863154 -3.4703455853231286 0 0 0
383 95 2 0 -0.5050258965960895 0.12356312820511968 -3.476056768752492 0 0 0
392 98 2 0 -0.4302682072804812 1.2136828240206547 -3.261938640721861 0 0 0
227 46 3 0 -3.9393930284933667 3.222450295182275 -3.4974841499738387 1 0 0
470 124 2 0 -2.297879732975471 2.5041687126321746 -3.4197403993887914 0 0 1
472 124 4 0 -2.2622511039296396 2.215283542086357 -3.0677893617071934 0 0 1
214 43 3 0 -4.29579248034414 3.7704996241326287 -3.8032072360436318 1 0 0
457 119 4 0 -2.8481333197395533 4.171466986298132 -4.164008389943389 0 0 1
433 111 4 0 -2.579914409276159 3.8522132920951986 -4.168117761150234 0 0 1
471 124 4 0 -2.3253385895215217 2.8029824738548297 -3.782094553361973 0 0 1
432 111 4 0 -2.093840357800532 3.116057308213929 -3.866570199163892 0 0 1
431 111 2 0 -2.340120712846004 3.4903378528521154 -4.016066543336818 0 0 1
84 17 3 0 -1.8420032557945378 0.021118983983499488 -2.223652066953393 0 0 0
260 54 2 0 -0.6099462385166484 3.27557365906732 -0.3592669513922476 0 -1 0
66 14 1 0 -0.9079243192809854 3.9148601210903107 -1.4750563418940985 0 0 0
68 14 3 0 -0.7441847059360592 3.7218475556699064 -1.0994910030738942 0 0 0
262 54 4 0 -0.7151073456080547 3.5116075339267088 -0.7669868283037363 0 -1 0
401 101 2 0 -1.008942591531055 0.39327106602983036 -1.7603165587674148 0 0 0
388 96 4 0 -0.48308759608113977 0.6824343712117287 -2.0824265781890436 0 0 0
63 13 3 0 -0.6827469115286886 0.9986204393009079 -2.1986274816489497 0 0 0
403 101 4 0 -0.8248528926416957 0.7926516021324502 -1.8738366613762345 0 0 0
607 169 4 0 -4.259823705834615 2.371042812246105 -2.8168488515705308 1 0 0
230 46 3 0 -4.235048245854069 2.73675216190267 -3.0125707738152876 1 0 0
605 169 2 0 -3.929601720137582 2.1587410685040838 -2.6115527270448426 1 0 0
606 169 4 0 -3.6021626221544434 1.9441014469754876 -2.404846341677649 1 0 0
226 46 1 0 -4.2288871481264305 3.1882876285395794 -3.1651198660707465 1 0 0
366 89 4 0 -3.245208007735416 1.8338300542042878 -2.5502000426917655 0 0 0
367 89 4 0 -2.369851367664097 1.9592879447663698 -2.7978190523329225 0 0 0
365 89 2 0 -2.819395678059741 1.9041630678728727 -2.6705891652484364 0 0 0
79 16 3 0 -2.03323474711364 2.24082289436709 -2.731997067474102 0 0 0
80 16 3 0 -2.3161784675704786 2.5475674711844625 -2.0832288811424746 0 0 0
427 109 4 0 -2.5938499790248173 2.7740358635716205 -1.8585812280729013 0 0 0
76 16 1 0 -1.9605491503738846 2.5755033953211295 -2.3884800987756307 0 0 0
78 16 3 0 -1.9535707740925132 3.004083279311645 -2.5797646186789636 0 0 0
61 13 1 0 -0.6466034001062115 1.4918275058196067 -2.2023165879999307 0 0 0
62 13 3 0 -0.9510253845916549 1.664547665357722 -1.908212215005173 0 0 0
394 98 4 0 -0.6441841957342131 1.536624838517176 -3.0206614158588914 0 0 0
64 13 3 0 -0.7367157108115235 1.6524059218982308 -2.6392882949282175 0 0 0
77 16 3 0 -1.5670539574946156 2.493960331731022 -2.172024737205098 0 0 0
65 13 3 0 -0.23756875759006713 1.6056806618414057 -2.08398378305799 0 0 0
228 46 3 0 -4.096392407529614 3.455085883998377 -2.8456471084646244 1 0 0
612 171 4 0 -4.059512945674939 3.6606038121290636 -2.506732194681993 1 0 0
611 171 2 0 -3.645445781650745 3.8563005476672143 -2.5021943600736822 1 0 0
72 15 3 0 -4.275126342542413 3.953893443758224 -2.6968427640683172 0 0 0
613 171 4 0 -3.2353041225297874 4.046148079593364 -2.4897056828515143 1 0 0
408 103 4 0 -2.846596159501281 4.004620948210825 -2.619308145423823 0 0 0
407 103 2 0 -2.5100437476209234 3.6368505098518997 -2.6375155098497287 0 0 0
409 103 4 0 -2.2212365414444957 3.3085230614978824 -2.656203212084772 0 0 0
70 14 3 0 -0.9060054532857287 3.604354165533544 -1.8278058443907328 0 0 0
633 178 4 0 -3.3002144841894117 0.42331011993604245 -0.4496143784283772 1 0 0
632 178 2 0 -3.6847157407362343 0.22004319150686638 -0.631902925915548 1 0 0
3 1 3 0 -3.134347534086391 0.5141827344600651 -0.08236927574007888 0 0 0
415 105 4 0 -2.966244007154204 0.6822269106427464 -0.407075652208923 0 0 0
373 91 4 0 -2.9362594952802783 0.27764218301893284 -0.372596794113548 0 0 0
413 105 2 0 -2.7539839652221754 1.0783504412404985 -0.4909604240294449 0 0 0
371 91 2 0 -2.5340164251465835 0.02843716925454482 -0.3100366189517726 0 0 0
69 14 3 0 -1.3313755943595642 4.0621304381458145 -1.4022097723416524 0 0 0
425 109 2 0 -2.6124434428483454 3.0460780320508416 -1.5469267055813969 0 0 0
374 92 2 0 -1.8952203496891091 1.7065949389012072 -0.23217782636297868 0 0 0
376 92 4 0 -2.275724406433229 1.7870142981466275 -0.49001941001943805 0 0 0
414 105 4 0 -2.5316585437631 1.4757749478592577 -0.5634608484901263 0 0 0
418 106 4 0 -0.26929970520137936 1.6682896108096168 -1.6943031588630484 0 0 0
412 104 4 0 -1.6699614913421101 4.15950790144317 -1.1896724912803804 0 0 0
411 104 4 0 -2.4112626125776986 3.640688989338724 -1.2704992548771787 0 0 0
410 104 2 0 -2.021895334619058 3.912407647297707 -1.226178824292114 0 0 0
426 109 4 0 -2.633822442584917 3.329840399107889 -1.227119915505887 0 0 0
54 11 3 0 -0.05646505316814777 4.338680315653222 -3.7745095963825217 0 -1 1
442 114 4 0 -0.23627946339722372 4.485096280722573 -4.107511711975241 0 0 1
67 14 3 0 -0.6387844502332918 4.282931123725675 -1.5968238988903354 0 0 0
634 178 4 0 -4.03878815645606 0.02270804978690045 -0.7963342517546567 1 0 0
313 71 4 0 -3.302976793410068 0.2878181821816066 -4.409687791877331 0 0 1
4 1 3 0 -3.7748623054402417 0.5080497475473393 0.34076394682885414 0 0 0
1 1 1 0 -3.2916541219992723 0.4958576587379104 0.34298753532324094 0 0 0
2 1 3 0 -3.1433752608790746 0.0927500906634307 0.5469815527013081 0 0 0
5 1 3 0 -3.1422048739092987 0.8301178138759857 0.559021242868886 0 0 0
419 107 2 0 -2.4697112034446396 1.0035878676351109 0.9664599949409483 0 0 0
421 107 4 0 -2.003532854415787 1.0050024147279921 1.0990359933524991 0 0 0
91 19 1 0 -1.614011671912821 0.3832214244857784 1.3481983512024431 0 0 0
93 19 3 0 -1.7664810445512593 0.7929768872150222 1.3689128158213828 0 0 0
94 19 3 0 -1.9673803727982255 0.071982555800973 1.3607776208175373 0 0 0
125 25 3 0 -1.6464441280540316 1.2452952876690664 1.0470201522970282 0 0 0
420 107 4 0 -2.919412887959109 0.9963019607817539 0.8451769850240132 0 0 0
424 108 4 0 -1.7921610173500526 1.1900996661639516 1.3949979085454685 0 0 0
332 78 2 0 -1.590872301778054 0.20289943572448899 0.19782312413323982 0 0 0
92 19 3 0 -1.3749847257922967 0.3353001288785767 0.9383989977836321 0 0 0
334 78 4 0 -1.4192478930196226 0.4623522696866921 0.5268987405415753 0 0 0
123 25 3 0 -1.2517597041925892 0.8512734706552731 0.530690712421884 0 0 0
358 86 4 0 -1.0544981210687412 0.5077650592451278 0.7184846491006387 0 0 0
356 86 2 0 -0.6517157313193346 0.4547279655734338 0.8821074914382522 0 0 0
127 26 3 0 -0.19289793825030194 0.5171022285568304 1.4078693080973943 0 0 0
357 86 4 0 -0.22714720873527258 0.3995997588607417 1.042962913902946 0 0 0
121 25 1 0 -1.3064965289060912 1.2719308996040821 0.7351427250184445 0 0 0
124 25 3 0 -0.9454617518862011 1.3799148302856452 0.9329573659262773 0 0 0
375 92 4 0 -1.5181551962000666 1.6267142652384572 0.022578743691555127 0 0 0
603 168 4 0 -0.6057260829667225 1.589883161423698 0.9853120842865233 0 0 0
602 168 2 0 -0.2892694829698276 1.9108830915868364 1.0020931293063071 0 0 0
451 117 4 0 -0.733038456489885 2.703643164849278 0.20218459495335284 0 0 0
449 117 2 0 -1.0385522772402866 2.306431623511403 0.20506991224521565 0 0 0
149 30 3 0 -0.7740184696804606 2.7878266810526093 0.615650129565442 0 -1 0
122 25 3 0 -1.4124283103865891 1.6024066802428905 0.4077969357344036 0 0 0
450 117 4 0 -1.313871398903707 1.9438117550340648 0.19691726480825786 0 0 0
146 30 1 0 -0.301330223238573 2.947144482224394 0.6478937404435929 0 -1 0
148 30 3 0 -0.28410167454575264 3.3349252841053896 0.9123167968216146 0 -1 0
661 187 4 0 -0.25058127705285727 3.76384530776548 0.9546799380363893 0 0 0
147 30 3 0 -0.14526991218845944 3.0461801914716196 0.22750094490652992 0 -1 0
261 54 4 0 -0.5086241738545153 3.0471036015652224 0.039716716517388194 0 -1 0
113 23 3 0 -2.7017254786672082 0.6251520425681287 2.9599610664946465 0 0 0
666 189 4 0 -4.4943286384351335 2.3451200212575825 3.2841312631154578 1 0 0
95 19 3 0 -1.321339605958538 0.309692665788131 1.7015420025963328 0 0 0
126 26 1 0 -0.13735311489342902 0.43441968526675323 1.8531542813883222 0 0 0
128 26 3 0 -0.4173119591628855 0.7164429496586855 2.0989522320172593 0 0 0
642 181 4 0 -0.5449553257721833 0.9070927874034593 2.4338483331948684 0 0 0
469 123 4 0 -0.3971555584110854 1.121746386020979 2.144080214715051 0 0 0
641 181 2 0 -0.5358503837495485 0.972558354498164 2.9020313747289164 0 0 0
601 167 4 0 -4.329533083162434 2.0400255788928323 3.5344384339086914 1 0 -1
422 108 2 0 -1.6941734734791833 1.3925197606942237 1.7634755552039982 0 0 0
423 108 4 0 -1.5999147433082233 1.5906184380400148 2.134026042024778 0 0 0
468 123 4 0 -0.12800580887450547 1.972949456998837 1.906194733143845 0 0 0
467 123 2 0 -0.2643405490918605 1.5402619274506255 2.0305073591778684 0 0 0
150 30 3 0 -0.042373993551254964 2.6256326725186745 0.8379459707901618 0 -1 0
119 24 3 0 -2.808126878245222 3.914525557748142 4.4919045116100715 0 0 0
439 113 4 0 -1.6123919837710456 4.31881194242434 3.375228232939686 0 0 0
240 48 3 0 -4.468475036056532 0.22646309690546268 1.569868071475038 1 0 0
311 71 2 0 -2.986687951765279 0.25504962387767 4.233470184523004 0 0 0
639 180 4 0 -2.3314887403234446 0.07843032958283157 3.7784384486828815 1 0 0
111 23 1 0 -2.809638506900129 0.20356592531824205 3.102642742823528 0 0 0
114 23 3 0 -2.6592064609007724 0.1326770311199243 3.5229921285488266 0 0 0
312 71 4 0 -2.6907980876781195 0.2178408525465308 3.9102526203712813 0 0 0
638 180 2 0 -1.8858228153210108 0.07718204675260132 3.8556151807191252 1 0 0
640 180 4 0 -1.4314380926319021 0.08675851274526752 3.931881364973214 1 0 0
438 113 4 0 -2.4105786127825026 3.9215726489323677 3.395281458800924 0 0 0
643 181 4 0 -0.5440719713283707 1.0393224536228902 3.3367377465732737 0 0 0
652 184 4 0 -1.089874434776985 0.2318182899473927 4.019632392693782 0 0 0
651 184 4 0 -0.6632836686688225 0.9544231110642369 3.7166802421765 0 0 0
650 184 2 0 -0.8739488551551696 0.5955463924015877 3.8709546886498316 0 0 0
599 167 2 0 -4.159065693131758 1.7762550066715797 3.8929094648380693 1 0 -1
600 167 4 0 -4.0115251178613995 1.5336263198047446 4.238969355065211 1 0 -1
118 24 3 0 -2.6064428407225866 3.907550154199495 3.768832833564673 0 0 0
117 24 3 0 -3.2181624223568925 4.248710577149205 3.979960551445991 0 0 0
116 24 1 0 -2.9573630390676677 3.8992688386245913 4.051359239076795 0 0 0
120 24 3 0 -3.18316145136554 3.541648940182058 3.9833512240371842 0 0 0
437 113 2 0 -2.002659514379836 4.124806328728117 3.3812707707036087 0 0 0
462 121 4 0 -3.4058049646308963 4.251219136238678 3.626276109279451 0 0 0
463 121 4 0 -4.266990564249615 4.422314521537107 3.40695379964355 0 0 0
461 121 2 0 -3.81794077051602 4.335737732167264 3.517679628320548 0 0 0
440 114 2 0 -0.37965428419982117 4.493270815957683 4.435855398482921 0 0 0
112 23 3 0 -3.290594592609786 0.15336063228175678 3.0887753080245752 0 0 0
282 61 4 0 0.025811739029097475 -1.5852034299914677 -2.679544612082351 0 0 0
614 172 2 0 2.4570412357036644 -3.110234287486825 -3.111611542526768 0 1 0
395 99 2 0 4.413187926456436 -3.9973866529879616 -3.363554670140887 -1 1 0
270 57 4 0 0.5031653553240448 -2.2670646271960773 -3.731201522986059 0 0 0
269 57 2 0 0.3631446015436396 -2.541687101212937 -3.4302286761791003 0 0 0
339 80 4 0 0.3281004663452246 -1.9685213475684886 -3.9464799131016397 0 0 1
153 31 3 0 0.5862957421356944 -2.1971591515600917 -4.133343070535934 0 0 0
154 31 3 0 1.205150128949928 -1.7417150995676927 -4.166966677125251 0 0 0
152 31 3 0 1.2623757272048919 -2.457896280012297 -4.25888643462862 0 0 0
151 31 1 0 1.0054123744754475 -2.1275535342873395 -4.3326603351810515 0 0 0
565 155 4 0 1.527471347734533 -2.7596654263125533 -4.31870576322381 0 0 1
338 80 2 0 0.12440663999399983 -1.5567698565206742 -3.861709613543059 0 0 1
271 57 4 0 0.22455840178123682 -2.8129217897663534 -3.128790897100371 0 0 0
615 172 4 0 2.3568974778489773 -2.935205839284839 -3.4881837180377464 0 1 0
563 155 2 0 1.8568360806873419 -2.7142534113497736 -4.036712830393244 0 0 1
564 155 4 0 2.1967301559165238 -2.664463689391494 -3.742650824854467 0 0 1
196 40 1 0 2.6184184146669476 -2.0781184761349323 -3.5294176916578066 0 0 1
197 40 3 0 2.512102400839014 -2.550585797138998 -3.502498345201281 0 0 1
199 40 3 0 2.244795648184817 -1.8349393946971375 -3.48188770627369 0 0 1
198 40 3 0 2.809068969373258 -1.98514045340704 -3.9230673721664733 0 0 1
534 145 4 0 2.0679972774665636 -1.4251469032445738 -3.520991313969685 0 0 0
533 145 2 0 1.6766378220404974 -1.4841584562689234 -3.6494550147293023 0 0 0
200 40 3 0 2.9277464637621815 -1.96264860542795 -3.1724363849724946 0 0 1
551 151 2 0 4.222527874973856 -2.0572307660242046 -4.207322759979295 0 0 1
515 139 2 0 3.5924922178358383 -1.643515470105887 -3.3334205310646565 0 0 0
552 151 4 0 4.268851015204219 -1.7818893892072811 -3.836763729070012 0 0 1
517 139 4 0 3.2059362821562365 -1.6692739789298625 -3.0176305495583926 0 0 0
535 145 4 0 1.2359822633791546 -1.5477810361556146 -3.800430391196188 0 0 0
139 28 3 0 2.36260030541115 -1.2314454893196343 -3.304371243800187 0 0 0
138 28 3 0 2.811343397175349 -0.7615930317862114 -2.9083452868771578 0 0 0
486 129 4 0 3.0515950765604054 -0.44675754767175024 -2.870790998602283 0 0 0
485 129 2 0 3.485489862894698 -0.33429074489096106 -2.930377880958925 0 0 0
487 129 4 0 3.914933564625907 -0.22056074952340485 -2.9792376507766316 0 0 0
516 139 4 0 3.9514561767669485 -1.6127076297096739 -3.6461271084011297 0 0 0
477 126 4 0 4.269320766202336 -1.4020366279418865 -3.775502846278528 0 0 0
144 29 3 0 0.33656846559190184 -3.517091996514326 -2.886257899369952 0 0 0
499 133 4 0 0.07047971632702925 -3.2697723880000438 -1.8613841518685479 0 0 0
497 133 2 0 0.3013725401299252 -3.0711458934532496 -1.4963545954851891 0 0 0
616 172 4 0 2.5553609395273056 -3.2929331355984517 -2.726355959975661 0 1 0
495 132 4 0 2.445643954744785 -3.4242839377926515 -2.37623861550825 0 0 0
494 132 2 0 2.8696520215343053 -3.507151604997014 -2.211773447638851 0 0 0
496 132 4 0 3.3326882721261475 -3.6001361792033917 -2.034512718032671 0 0 0
135 27 3 0 3.6641568452309317 -3.3919052963561875 -2.08207848806386 0 0 0
631 177 4 0 3.6765435376781705 -3.777809148228499 -1.945023858353567 0 1 0
629 177 2 0 3.9227523590298023 -4.115119101807964 -2.0508567950852354 0 1 0
131 27 1 0 3.8198078205854267 -2.982823938274838 -1.9537937773170702 0 0 0
630 177 4 0 4.181242182301368 -4.450139605602805 -2.1686241511939817 0 1 0
142 29 3 0 0.031267831167826526 -2.829004230639892 -2.7801119924728424 0 0 0
137 28 3 0 2.8910197489414022 -1.4976713010352838 -2.82619647468588 0 0 0
480 127 4 0 3.0097989841929675 -1.8858895207468724 -2.746918490013031 0 0 0
133 27 3 0 4.259528017562411 -2.966125031097474 -2.0496924858335075 0 0 0
479 127 2 0 3.1548740947615834 -2.3061550863981166 -2.5752062449241873 0 0 0
481 127 4 0 3.2993584557083997 -2.701455346153336 -2.407444712127576 0 0 0