LAMMPS data file via write_data, version 4 Feb 2025, timestep = 8000000, units = lj

3435 atoms
4 atom types
2576 bonds
1 bond types
3004 angles
2 angle types

-10 10 xlo xhi
-10 10 ylo yhi
-10 10 zlo zhi
0 0 0 xy xz yz

Masses

1 1
2 1
3 0.1
4 0.1

Bond Coeffs # harmonic/omp

1 100 0.45

Angle Coeffs # harmonic/omp

1 100 180
2 100 109.471

Atoms # full

1548 310 3 0 -8.750002537549458 -9.541766394871985 -9.32667869296047 13 1 1
1546 310 1 0 -8.732248183224163 -9.982188680261865 -9.460037805780615 13 1 1
1550 310 3 0 -8.699116464944437 -9.995622375319016 -9.915536356181523 13 1 1
1998 400 3 0 -7.630271304206947 -9.106632256144298 -9.141015169602671 5 0 0
1999 400 3 0 -7.081015875475318 -9.62094015721184 -9.277365545727193 5 0 0
2552 565 4 0 1.5322836321175064 -9.210912993790272 -9.804518267543632 3 0 0
22 5 3 0 2.3148982262643614 -9.328973001479337 -9.157071849644124 -2 -1 0
1514 303 3 0 4.376685929741537 -9.955063527907912 -9.931850583800662 11 1 0
23 5 3 0 1.7279228578739385 -9.028926335458774 -9.50134303494245 -2 -1 0
3345 829 4 0 1.9813323514318633 -8.310495563978385 -9.149664099684973 19 2 0
21 5 1 0 1.9467208954286335 -9.058577602307784 -9.106575868053344 -2 -1 0
2124 425 3 0 8.082391610248468 -8.441708372532888 -9.27548906135354 23 3 1
3343 829 2 0 1.8697332437593452 -7.861814433914546 -9.172229281841295 19 2 0
3344 829 4 0 1.753551019795971 -7.443109784741075 -9.185658417863694 19 2 0
2589 577 4 0 3.6354243607295267 -7.7624096528171815 -9.577453810742595 13 2 1
2587 577 2 0 3.752950837045434 -7.956367092181187 -9.207411751648651 13 2 1
3395 846 4 0 3.686284847678113 -7.351384110010621 -9.610225264790555 6 0 0
163 33 3 0 1.0890194749133322 -6.871977246970988 -9.211129322694026 13 1 0
161 33 1 0 1.4909072336305496 -6.716206683453047 -9.15495840453745 13 1 0
162 33 3 0 1.6344452127952493 -6.514992039652437 -9.522287565889187 13 1 0
3394 846 2 0 3.855284874685589 -6.99907522376461 -9.759238382485998 6 0 0
3396 846 4 0 4.034094252870473 -6.620554309133531 -9.917141601264944 6 0 0
2278 474 2 0 0.19202437797156868 -5.636164609273588 -9.279974824386944 4 0 -1
2279 474 4 0 0.21233123437273527 -6.072365232382365 -9.27103608477521 4 0 -1
2955 699 4 0 -4.026653536983868 -5.0483857655212345 -9.458041019612226 0 -1 0
705 141 3 0 -3.8751191697889666 -5.394283210601921 -9.58555122964903 12 1 0
2280 474 4 0 0.1749188356073894 -5.186630593682539 -9.300180288521744 4 0 -1
503 101 3 0 0.02271664466281642 -5.167216827943257 -9.674105156847059 3 -1 0
643 129 3 0 -6.020181484605249 -4.096283258412704 -9.500901106042429 5 0 1
642 129 3 0 -5.366637246196017 -4.3661264581409585 -9.362655253900245 5 0 1
644 129 3 0 -5.385276950734397 -3.7308097259205786 -9.603369895335026 5 0 1
641 129 1 0 -5.561428669759689 -4.119174026380309 -9.6201153021647 5 0 1
421 85 1 0 -3.184813683310699 -4.016996372894377 -9.596478300145419 10 1 -1
425 85 3 0 -3.550502614628231 -4.23187985113572 -9.526109600430573 10 1 -1
422 85 3 0 -2.91575581224084 -4.024640831605658 -9.210487743059288 10 1 -1
424 85 3 0 -2.961478290718949 -4.217395595716092 -9.939232122377684 10 1 -1
363 73 3 0 6.2744666744996636 -3.8898908238142607 -9.918866231693734 8 0 0
364 73 3 0 6.8053328021505095 -3.8074195641955733 -9.419560569918675 8 0 0
361 73 1 0 6.698759458499538 -4.0032406475255735 -9.81576942291038 8 0 0
362 73 3 0 6.736049910771541 -4.463119545025461 -9.777780660745346 8 0 0
808 162 3 0 -7.533076128970953 -2.864574728585815 -9.782458419345415 5 0 0
806 162 1 0 -7.422498167759297 -3.0149774722025224 -9.360513733854372 5 0 0
810 162 3 0 -7.3387031692591975 -3.467444179133924 -9.36901547904453 5 0 0
809 162 3 0 -7.037365215136942 -2.7955201395665963 -9.21335097089078 5 0 0
423 85 3 0 -3.2724255286232706 -3.6093376215728945 -9.70404792540992 10 1 -1
799 160 3 0 5.647917131092257 -2.934081247970237 -9.988204329340887 -1 -1 1
3002 715 4 0 5.981639709709423 -2.807277890832842 -9.80973837430561 12 1 0
3425 856 4 0 -6.732610902345959 -2.5360579982129616 -9.233770010737935 13 1 0
3424 856 2 0 -6.776760230083154 -2.083791693104615 -9.29725028195019 13 1 0
3001 715 2 0 6.342441116626965 -2.5580819420710066 -9.746136531214963 12 1 0
3003 715 4 0 6.713405618351732 -2.3084394397951726 -9.668190419772257 12 1 0
1427 286 3 0 7.098518986642063 -2.1996177417676934 -9.65079231129531 10 0 0
1426 286 1 0 7.3534571865363425 -1.9122455012642128 -9.88383943617719 10 0 0
3426 856 4 0 -6.82320957346318 -1.63481419607586 -9.371328379362684 13 1 0
404 81 3 0 -6.49119849026127 -1.4514006376664987 -9.530530798428337 8 1 0
403 81 3 0 -5.798929711789407 -1.2064486658434141 -9.383079784497705 8 1 0
401 81 1 0 -6.134775362553464 -1.1808275406347004 -9.671636584833879 8 1 0
1429 286 3 0 7.5933890804042825 -1.6718180331384165 -9.589399613531434 10 0 0
2747 630 4 0 7.491421228782038 -1.268209299974938 -9.546964384107792 8 0 0
3218 787 4 0 -6.560270358791678 -0.7223120744489293 -9.422321791890392 11 1 0
3217 787 2 0 -6.744112313965244 -0.37277609277275303 -9.144086152550425 11 1 0
402 81 3 0 -6.268445884080354 -0.7696488709482843 -9.699267393066874 8 1 0
1362 273 3 0 -4.54083508697142 -0.10895450796456174 -9.6149710526519 7 0 1
975 195 3 0 3.0275720353127955 -0.10682914324449122 -9.999139272173654 10 1 1
971 195 1 0 3.489043252045933 -0.16805660192635763 -9.991477833307613 10 1 1
973 195 3 0 3.6547431236933736 -0.0014311268150137835 -9.605359147203218 10 1 1
2746 630 2 0 7.270699482900067 -0.8617491581779575 -9.468993807303928 8 0 0
2748 630 4 0 7.055377556753378 -0.46861049702385493 -9.38536327206922 8 0 0
1100 220 3 0 7.225915977733152 -0.14983264965641752 -9.283718615342059 5 0 0
2000 400 3 0 -7.658225110358469 -9.79700436885806 -8.831717986071869 5 0 0
1996 400 1 0 -7.374211553088235 -9.457964329874095 -8.955063470088863 5 0 0
1997 400 3 0 -7.151880020383408 -9.309525926770942 -8.607141279655256 5 0 0
24 5 3 0 1.6909605437995197 -9.233644989599615 -8.801018533433457 -2 -1 0
3404 849 4 0 2.630446789665445 -9.492953964769898 -8.986539891285792 12 1 0
3403 849 2 0 2.943877008865341 -9.76923472692962 -8.859856047058766 12 1 0
2052 411 3 0 8.061666849803025 -9.983773088317934 -9.087365190663085 12 1 0
2053 411 3 0 8.052936600536608 -9.982333851397819 -8.402812362614394 12 1 0
2055 411 3 0 8.651740079722554 -9.916928076539095 -8.727287716056793 12 1 0
1526 306 1 0 -9.863468471516496 -8.320255748487453 -8.213533681616726 9 1 2
1527 306 3 0 -9.424828682309716 -8.331216145411856 -8.42818980191225 9 1 2
3092 745 4 0 -6.927060122011903 -8.961816758972292 -8.51142608534455 5 0 0
3091 745 2 0 -6.628452586270621 -8.639543978192473 -8.642550326008928 5 0 0
1695 339 3 0 -6.084782889485998 -8.184933345322357 -8.49424057913565 13 1 0
3093 745 4 0 -6.335166741385727 -8.327004125682256 -8.770045772169064 5 0 0
1693 339 3 0 -5.379198863230073 -8.237112525367127 -8.293664621901618 13 1 0
2008 402 3 0 -0.8226025331964326 -8.226965783380315 -8.38422318550994 11 0 1
25 5 3 0 2.067757207084675 -8.68164187781537 -8.98583550577735 -2 -1 0
1358 272 3 0 3.904088068069134 -8.505174284876569 -8.602831781773977 7 0 -1
1359 272 3 0 4.511277085065128 -8.716740197968074 -8.197196316852978 7 0 -1
2123 425 3 0 8.131414955255995 -8.386180070030594 -8.539465914980687 23 3 1
1528 306 3 0 9.919087832682678 -8.73347696442865 -8.275437098362623 8 1 2
1691 339 1 0 -5.676503900037778 -7.990538264612795 -8.516303916669882 13 1 0
3011 718 4 0 -5.70868539783073 -7.298415965487363 -8.605288814455422 21 2 -1
1694 339 3 0 -5.698248671835443 -7.574573870837519 -8.320183243308232 13 1 0
1692 339 3 0 -5.552359657734202 -7.952495637174332 -8.932795163318332 13 1 0
2009 402 3 0 -1.4617929218964107 -7.89760481835594 -8.550320798824947 11 0 1
2007 402 3 0 -0.8178792938795159 -7.504076532160886 -8.597332062790496 11 0 1
2010 402 3 0 -0.9728994921464427 -8.057306931365252 -9.08377606729359 11 0 1
2006 402 1 0 -1.0198292718342632 -7.923461929634203 -8.657186303068375 11 0 1
2588 577 4 0 3.8881712488525757 -8.144299886711854 -8.801627051750387 13 2 1
2122 425 3 0 7.69202985138557 -7.928615654532444 -8.902775635643822 23 3 1
2121 425 1 0 8.090291104939862 -8.153050702018776 -8.912124664655243 23 3 1
2125 425 3 0 8.431671727755795 -7.878190004120104 -8.956997743184752 23 3 1
2282 475 4 0 8.772805304885075 -7.65143891716849 -8.973233626585545 6 0 2
2281 475 2 0 9.141899840137377 -7.813701837043131 -8.748615219682298 6 0 2
2283 475 4 0 9.50057134427717 -7.974779801935824 -8.523550866347225 6 0 2
1530 306 3 0 9.904376596827134 -8.009660451851202 -8.39209791920396 8 1 2
2063 413 3 0 -7.050642998973198 -6.734358943417588 -8.54406774376481 15 1 0
3010 718 2 0 -5.947621524303624 -6.916786383541467 -8.633659337876868 21 2 -1
3012 718 4 0 -6.175934246497807 -6.534110330235077 -8.667953943951376 21 2 -1
1349 270 3 0 -0.24981509680796776 -6.927149154281062 -8.68432539113155 3 0 0
1346 270 1 0 -0.012261932738923065 -6.551865340001131 -8.639434974479688 3 0 0
1347 270 3 0 0.34698635938704747 -6.623354497029293 -8.410714791733454 3 0 0
1348 270 3 0 0.09643611258937135 -6.3906737668207345 -9.05389726763974 3 0 0
164 33 3 0 1.7707722708425404 -7.0651717706894015 -9.045734193770418 13 1 0
165 33 3 0 1.4917536227639516 -6.410864120722585 -8.803542316243927 13 1 0
2061 413 1 0 -6.837492420286283 -6.324807124492979 -8.46374549258157 15 1 0
2062 413 3 0 -7.129932775341546 -5.982764047722264 -8.524554824275624 15 1 0
2064 413 3 0 -6.496711482180785 -6.280853297985564 -8.740527495475524 15 1 0
1350 270 3 0 -0.2743910548795938 -6.238537943403526 -8.427429568073922 3 0 0
2378 507 4 0 1.6853875520023376 -6.19976270442772 -8.522159783672983 2 -1 -1
2377 507 2 0 1.9954087129810123 -6.159491232495325 -8.210645138797576 2 -1 -1
133 27 3 0 6.30512931328618 -5.548829091214708 -8.745229670031454 14 2 0
3139 761 2 0 -5.129495806728946 -4.615639688822407 -8.64686885422483 7 0 0
3140 761 4 0 -4.992479068149201 -4.902289747616756 -8.31288753837049 7 0 0
2953 699 2 0 -4.019068840760285 -5.013906530351548 -9.017509178023682 0 -1 0
2954 699 4 0 -4.008753827137564 -4.979876118328972 -8.535974110617799 0 -1 0
132 27 3 0 6.1983650593255355 -4.830211283438536 -8.638563491306682 14 2 0
131 27 1 0 6.508480701496929 -5.156388566054747 -8.692196170888327 14 2 0
134 27 3 0 6.749225817197207 -5.071827450462514 -9.030790180653758 14 2 0
135 27 3 0 6.787275315784214 -5.175620766816522 -8.311454687601092 14 2 0
3141 761 4 0 -5.253919818510972 -4.340520951482611 -8.967113291961024 7 0 0
1208 242 3 0 3.0535356487506107 -3.807424653349205 -8.402534926876005 20 2 -1
3235 793 2 0 6.447437852523851 -3.727053258596209 -8.683543742102506 11 1 0
3236 793 4 0 6.218943295852672 -3.67189382883657 -8.326550433529572 11 1 0
3237 793 4 0 6.685345864537766 -3.7704479504248845 -9.05223982900156 11 1 0
807 162 3 0 -7.783089027120001 -2.9301219281537154 -9.074600253109267 5 0 0
3067 737 2 0 4.5445890243497935 -2.8405266555114963 -8.373451173311938 11 1 0
3068 737 4 0 4.9042215216833025 -3.066176845505753 -8.531870319810936 11 1 0
1469 294 3 0 5.173457051885668 -3.3241660718047505 -8.387849448815379 1 -1 -1
1466 294 1 0 5.587956495538505 -3.14815258041083 -8.503653789620405 1 -1 -1
1468 294 3 0 5.578779699865208 -3.0099159610893667 -8.931753180225073 1 -1 -1
1470 294 3 0 5.669602577144621 -2.804578520687734 -8.245508126227188 1 -1 -1
1467 294 3 0 5.906624150110462 -3.4553977011264774 -8.447867599541027 1 -1 -1
3069 737 4 0 4.191888897434257 -2.6228235618326092 -8.226162067924264 11 1 0
2849 664 4 0 -5.700487490527526 -0.97411645329694 -9.063738581253112 8 0 0
1609 322 3 0 -7.03067863436995 -0.1314753855484163 -8.512600516168764 6 0 0
3219 787 4 0 -6.9298691947517135 -0.06286459018502555 -8.894003327126393 11 1 0
1365 273 3 0 -4.910898244761919 -0.1047333316349377 -8.98109278453875 7 0 1
2848 664 2 0 -5.429161003643777 -0.6513819488538264 -8.908813389608387 8 0 0
2850 664 4 0 -5.162458023699317 -0.3440660219070253 -8.752959053759088 8 0 0
1363 273 3 0 -4.152000305526798 -0.17048645770748116 -8.981945483587147 7 0 1
1282 257 3 0 9.028455716600206 -0.3208149980860089 -8.782624315948706 12 0 0
2624 589 4 0 7.850810245147986 -9.559718834540522 -7.284234624579546 5 0 -1
2623 589 2 0 7.810988787279644 -9.716297780326606 -7.713408886446979 5 0 -1
2625 589 4 0 7.772734180986657 -9.86290399684616 -8.140182258746991 5 0 -1
1529 306 3 0 -9.808414361252268 -8.238795054294487 -7.773663041279578 9 1 2
1360 272 3 0 3.826306551184814 -8.780017339893131 -7.893162896878121 7 0 -1
2781 641 4 0 3.7809197687380802 -8.555505214702807 -7.581050382976661 3 0 0
1356 272 1 0 4.0887251683761505 -8.52562919944949 -8.172907237188022 7 0 -1
1357 272 3 0 4.121031991250577 -8.06464053351549 -7.984472437709193 7 0 -1
1012 203 3 0 -2.7557055774145836 -7.118861992853043 -7.293925548135682 9 0 -1
2065 413 3 0 -6.681382678833065 -6.318313436645706 -8.026540229923551 15 1 0
3087 743 4 0 -6.36749346656336 -6.103447995693321 -7.871651638331637 12 1 -1
3085 743 2 0 -6.178670726072501 -5.953094693916189 -7.514923862853439 12 1 -1
2883 675 4 0 -4.216474857429136 -5.541843446460235 -7.355003838298064 13 1 0
2403 515 4 0 -0.17777210578093694 -6.300098992370801 -8.049463597379916 3 0 0
2401 515 2 0 -0.24848733759310093 -6.037364233607603 -7.668636113252644 3 0 0
2402 515 4 0 -0.3156958109831578 -5.789644505264088 -7.315946794097341 3 0 0
2379 507 4 0 2.317018048264405 -6.118526396467077 -7.897841341247816 2 -1 -1
1958 392 3 0 2.6104675652865517 -5.8804588129366895 -8.031213780106652 10 0 1
1956 392 1 0 2.965731578502563 -5.880322840676028 -7.775070445960875 10 0 1
1959 392 3 0 2.8293499670805957 -5.850455737589654 -7.328759064696802 10 0 1
1957 392 3 0 3.193916110478039 -6.2653138776960375 -7.83030304302201 10 0 1
1960 392 3 0 3.2428416491480263 -5.513430028790332 -7.884127161479567 10 0 1
1052 211 3 0 -3.9886816027138163 -5.015020913515904 -8.147278687593266 16 1 0
1051 211 1 0 -4.303795685980538 -4.912489762161506 -7.843489198383522 16 1 0
1053 211 3 0 -4.706370696769558 -4.971727696253457 -8.024599495959711 16 1 0
1054 211 3 0 -4.256336042748812 -5.172927583265865 -7.480733964664448 16 1 0
227 46 3 0 1.3509966774316702 -4.877294765780528 -7.337674356612831 5 0 1
2290 478 2 0 3.2752544253038796 -4.731858552317708 -7.549690222790668 1 -1 1
2292 478 4 0 3.2372281159662215 -5.188926436440505 -7.625830589153411 1 -1 1
2352 498 4 0 6.592093868610501 -4.9773003389666215 -8.060198756451069 4 0 0
2350 498 2 0 6.716731318981466 -4.673922302682866 -7.754055639031587 4 0 0
267 54 3 0 -7.533431515737961 -3.7267187244438693 -8.139974894625212 8 0 -1
1055 211 3 0 -4.249707688073436 -4.48063140791617 -7.721813258025094 16 1 0
1207 242 3 0 2.516997139303003 -3.9007242392038677 -7.896192918535223 20 2 -1
1206 242 1 0 2.932637966796058 -3.7390711097963214 -7.976198144275802 20 2 -1
2291 478 4 0 3.311929934427747 -4.2807025448234635 -7.479331941601594 1 -1 1
1210 242 3 0 3.227286613496114 -3.944346901773608 -7.687327155303135 20 2 -1
2351 498 4 0 6.841590697131505 -4.382437102044338 -7.447948549028179 4 0 0
1843 369 3 0 7.917875722828853 -4.314112819979501 -7.573217702495615 5 0 0
1841 369 1 0 8.35874895139986 -4.252183971658852 -7.528131614803455 5 0 0
1844 369 3 0 8.572074670113942 -4.396400930151235 -7.890735450739685 5 0 0
1842 369 3 0 8.451801098664088 -3.8202115651902435 -7.470150399651618 5 0 0
1047 210 3 0 -9.550675780066282 -2.99195698904688 -7.648935776661956 10 0 1
3108 750 4 0 -9.331526599672214 -3.275035903959001 -7.812391496183086 5 0 -1
1046 210 1 0 -9.794889539754305 -2.7550723964665735 -7.388453177528666 10 0 1
3107 750 4 0 -8.500652806278016 -3.495975478675092 -7.641831124466375 5 0 -1
3106 750 2 0 -8.901652358382947 -3.384609508877338 -7.735006594425844 5 0 -1
269 54 3 0 -8.134374528387719 -3.483313314486878 -7.813854452071303 8 0 -1
268 54 3 0 -7.64382751028561 -3.0010808246007237 -8.072996583031166 8 0 -1
266 54 1 0 -7.6953983517408515 -3.4095048674200923 -7.877050205209531 8 0 -1
270 54 3 0 -7.477262201705348 -3.4139247667709753 -7.479518031115846 8 0 -1
1209 242 3 0 2.921180998737425 -3.2999051717968175 -7.885479465872246 20 2 -1
839 168 3 0 3.8881563758140363 -3.4773695262248783 -7.603982293787906 0 -1 0
840 168 3 0 3.332274633733764 -2.982943409490404 -7.674832314185145 0 -1 0
836 168 1 0 3.7820913612288205 -3.044063977364262 -7.609200345893277 0 -1 0
838 168 3 0 4.008942099693593 -2.848792777243978 -7.942977621655905 0 -1 0
3005 716 4 0 4.2078747044618225 -3.60027588758729 -7.411149933656859 12 1 -1
3375 839 4 0 8.76131159750112 -3.5400565816593277 -7.51093918044416 7 0 0
3373 839 2 0 9.151378691137683 -3.369029744142522 -7.536921654659485 7 0 0
3374 839 4 0 9.568273835442113 -3.1792063168093154 -7.579786874551169 7 0 0
1048 210 3 0 9.786275897558259 -2.9371448661828037 -7.353457297164773 9 0 1
1050 210 3 0 -9.8275147054141 -2.340697119465034 -7.547003423866661 10 0 1
2559 567 4 0 -9.798799729666877 -1.9678424982105458 -7.414954883901537 10 0 1
2557 567 2 0 -9.692587789175246 -1.5116596167872913 -7.456341827575659 10 0 1
2558 567 4 0 -9.582194050765885 -1.0771183608352857 -7.498434011711838 10 0 1
954 191 3 0 7.060646581045013 -1.1184248053263701 -7.4897735712606 2 0 -1
683 137 3 0 -9.531906655541128 -0.13197966736522915 -7.651584863843395 11 0 1
1607 322 3 0 -6.809000636639395 -0.2632011778626122 -7.818630009105313 6 0 0
1579 316 3 0 -1.7600869745686882 -0.15980090472059416 -8.17474583005432 9 0 1
955 191 3 0 6.9931532240017305 -0.48540292940729657 -7.860819543742059 2 0 -1
951 191 1 0 7.1732348149662855 -0.6806109522465622 -7.493245109203185 2 0 -1
953 191 3 0 7.6126050128400955 -0.642754946305363 -7.509135905491638 2 0 -1
2940 694 4 0 7.991466980084287 -0.44826773900112116 -7.426835163470267 12 1 -1
2938 694 2 0 8.326058770539852 -0.3569853938189471 -7.735141973508172 12 1 -1
2939 694 4 0 8.669855661109267 -0.2615598907241061 -8.029572143906394 12 1 -1
433 87 3 0 -6.642031181521994 -9.98948065832427 -6.528403920395009 6 0 0
10 2 3 0 2.588791794161981 -9.473445399764016 -6.5809693734305235 10 1 -1
6 2 1 0 2.9882750757042427 -9.333498921481207 -6.42630340070675 10 1 -1
9 2 3 0 3.2750119403496942 -9.325017661581454 -6.7477583911163315 10 1 -1
89 18 3 0 7.56371417525277 -9.50036915061721 -6.991354437304529 4 0 -1
86 18 1 0 7.441549138531819 -9.7977046181253 -6.653767353395119 4 0 -1
2779 641 2 0 3.5307327158480195 -8.762405343692592 -7.221251514969014 3 0 0
2780 641 4 0 3.314136128342586 -8.950723121748057 -6.892178628089342 3 0 0
1015 203 3 0 -3.206511258522169 -6.779285990921062 -6.821151562107105 9 0 -1
1013 203 3 0 -2.5658684176772955 -7.008607910409975 -6.583085043718452 9 0 -1
1011 203 1 0 -2.7876817527531115 -6.830755585802121 -6.919186429796975 9 0 -1
1014 203 3 0 -2.6208219187116626 -6.450462995903998 -7.020784978436607 9 0 -1
2667 603 4 0 2.0606397904500913 -6.430575071626901 -6.412058505143463 11 0 0
3086 743 4 0 -5.981488177386835 -5.788310550621541 -7.14242626030941 12 1 -1
1748 350 3 0 -5.871898016626434 -5.469965218966352 -6.924877319038926 4 0 1
2881 675 2 0 -4.046988372757433 -5.612282798258957 -6.928703308692061 13 1 0
2882 675 4 0 -3.8790294303902506 -5.687543747381446 -6.512970617337023 13 1 0
623 125 3 0 -3.497905732082404 -5.870437979517251 -6.510596124443053 4 0 0
195 39 3 0 -0.7413305711020417 -5.781574085397966 -6.434842308347399 11 1 1
194 39 3 0 -0.3192571491933691 -5.553626825684158 -7.019840397573274 11 1 1
191 39 1 0 -0.40209527263135136 -5.490547545545436 -6.577842621812609 11 1 1
2665 603 2 0 1.81655868705999 -6.034978920985019 -6.4911859775244 11 0 0
2666 603 4 0 1.5783820009321143 -5.6391596235826205 -6.569996469715364 11 0 0
1749 350 3 0 -5.910398425371782 -4.803492511350412 -6.633237775489359 4 0 1
1746 350 1 0 -5.763599497241463 -5.233929123322872 -6.578846964666269 4 0 1
2649 597 4 0 -6.253271716892767 -4.756864140380648 -6.448975331608966 7 0 1
1750 350 3 0 -5.307264032682334 -5.235101382797273 -6.518317853343464 4 0 1
193 39 3 0 -0.5260808804530477 -5.071351514241122 -6.506913841408419 11 1 1
229 46 3 0 1.4541924713631555 -4.616596745643084 -6.688909989837029 5 0 1
230 46 3 0 1.4859725252492684 -5.312655850621365 -6.804956271436033 5 0 1
226 46 1 0 1.5713080029871342 -4.930411423865895 -6.973358449025536 5 0 1
228 46 3 0 2.0374422752228227 -4.891676330403861 -7.062442172252068 5 0 1
1000 200 3 0 4.782298047962117 -4.710439646457605 -7.0229020459004365 1 -1 0
997 200 3 0 4.579020380399276 -4.989313183098379 -6.37920247081361 1 -1 0
996 200 1 0 4.922546661887052 -4.847080342865868 -6.6183933845761524 1 -1 0
999 200 3 0 5.217994826630772 -5.176938815281761 -6.668702954970149 1 -1 0
3006 716 4 0 4.563654847131453 -4.378069169554243 -7.063610857125215 12 1 -1
3004 716 2 0 4.388675751975255 -3.9975654433631513 -7.2332096596050945 12 1 -1
998 200 3 0 5.115684458684752 -4.494519963021774 -6.389932476272035 1 -1 0
1845 369 3 0 8.519012194819716 -4.4895804173685825 -7.154450153263105 5 0 0
2593 579 2 0 8.286643102780555 -4.184263065865434 -6.428386416265182 4 0 0
2594 579 4 0 8.438078145504857 -4.345164415713593 -6.783426855805548 4 0 0
1049 210 3 0 -9.608141269835015 -2.7384735902901784 -6.993457282689137 10 0 1
3105 749 4 0 -9.310114147546583 -2.9341657280221867 -6.818474642974097 10 0 0
2334 492 4 0 -7.353623446147218 -3.3279716622470525 -7.112255155478601 12 1 0
2332 492 2 0 -7.1837051066721465 -3.190809990197952 -6.696454139807146 12 1 0
455 91 3 0 -4.184928176321439 -3.115032885691398 -6.744253687677681 5 0 0
451 91 1 0 -3.7998727768005836 -2.883921836858163 -6.674644426892673 5 0 0
453 91 3 0 -3.5378823157656036 -2.8799635624951403 -7.076277687529326 5 0 0
837 168 3 0 3.9015065502058466 -2.843376118798746 -7.215027582764296 0 -1 0
2826 656 4 0 3.9485591922067638 -2.888776433225977 -6.831569709629415 5 0 1
2824 656 2 0 4.1698322449264325 -2.89869189260215 -6.446701952744041 5 0 1
3103 749 2 0 -9.023871530006913 -2.6446685858479357 -6.567028240875176 10 0 0
3159 767 4 0 -5.026795123376628 -1.9292131834611599 -6.557501850363897 13 1 0
3157 767 2 0 -4.580696710611231 -2.053672080524356 -6.488051535711101 13 1 0
3158 767 4 0 -4.170540055489726 -2.1797136070979883 -6.420531377728814 13 1 0
452 91 3 0 -3.9011514348758203 -2.4409893535103144 -6.547881167389676 5 0 0
3429 857 4 0 -8.334536077275 -1.1577695751503914 -6.473172671935089 7 0 0
648 130 3 0 -8.51347560679982 -1.501537812889815 -6.453662698895112 7 0 0
2005 401 3 0 -4.918397845142213 -1.5262673034603793 -6.564745411020219 13 1 0
2001 401 1 0 -5.218931363946872 -1.178491106160326 -6.63738264854786 13 1 0
2004 401 3 0 -5.152710251557538 -1.0196001939748012 -7.044968479424501 13 1 0
2003 401 3 0 -5.629935838718173 -1.3284692812434695 -6.600340471152107 13 1 0
685 137 3 0 -9.453711322904827 -0.7860807931503384 -7.272254665246445 11 0 1
681 137 1 0 -9.35571187984982 -0.3479328556794936 -7.262951435068932 11 0 1
682 137 3 0 -9.543854999685506 -0.16210832465358394 -6.884977106018416 11 0 1
684 137 3 0 -8.850852663364916 -0.29175045024312496 -7.249356524431203 11 0 1
3427 857 2 0 -8.487615781343887 -0.8990820181666734 -6.803168402293606 7 0 0
3428 857 4 0 -8.643721036144468 -0.6321602543907847 -7.139765519062372 7 0 0
3278 807 4 0 7.26530778460614 -0.1540028958046804 -7.112304193267851 19 1 0
952 191 3 0 7.016260469361573 -0.4742873575631634 -7.128530153315804 2 0 -1
2471 538 4 0 -7.196718385206195 -9.81977337379551 -5.73212364924191 4 0 0
434 87 3 0 -6.845018517598883 -9.976788061181171 -5.829209506390719 6 0 0
7 2 3 0 3.1216457992757576 -9.6143951666456 -6.105629180239218 10 1 -1
88 18 3 0 7.235147557899385 -9.5637574048599 -6.3075745115730815 4 0 -1
3229 791 2 0 7.3370995355617055 -9.196374957559739 -5.616011137733902 3 0 0
3231 791 4 0 7.422387386895814 -9.341855754141546 -6.040906822922542 3 0 0
8 2 3 0 2.9487517264728424 -8.944732897166386 -6.261482508189169 10 1 -1
55 11 3 0 6.420460513179968 -8.368420791731078 -5.587956585356318 -11 -2 0
1755 351 3 0 -8.65000218060103 -7.791289889465713 -5.485060486623501 3 0 0
2 1 3 0 -1.9508947267105476 -7.402429030056821 -5.515809947876577 9 1 0
625 125 3 0 -3.6085904650032496 -6.520428236729225 -6.107404680239874 4 0 0
4 1 3 0 -2.4399171314891976 -6.9938572169291975 -5.884270119160049 9 1 0
3 1 3 0 -1.7637308642700553 -6.757409752522494 -5.8168443221573325 9 1 0
2148 430 4 0 -1.6532526843621635 -6.410664003072355 -5.941334337196743 10 1 -1
1 1 1 0 -2.0865760459175133 -6.974581353105093 -5.616360425974216 9 1 0
2069 414 3 0 2.0259311685926917 -6.601528924531031 -6.031687020726572 5 0 0
2067 414 3 0 1.631994221859312 -7.107824540520641 -5.707861466343744 5 0 0
2066 414 1 0 1.9149769875526879 -6.776691060381105 -5.637507288452325 5 0 0
2474 539 4 0 2.645783160384738 -6.736198632104524 -5.488113290762884 -2 -1 0
3073 739 2 0 -6.0617547623380315 -5.805520960097991 -5.695311346020234 8 0 1
3074 739 4 0 -5.904793330430695 -5.765913728095608 -6.1271974486542975 8 0 1
622 125 3 0 -3.3052452224558104 -5.9200637545811485 -5.7370207425574185 4 0 0
621 125 1 0 -3.3336954615655614 -6.164931243837344 -6.155146380170475 4 0 0
624 125 3 0 -2.919017828656221 -6.311344373015661 -6.277204169143207 4 0 0
2146 430 2 0 -1.3841937837659675 -6.072066594116962 -6.079854158566796 10 1 -1
2147 430 4 0 -1.1156380112513524 -5.735359563653068 -6.219234236376945 10 1 -1
192 39 3 0 -0.03136037897146515 -5.578670475509657 -6.348949199029221 11 1 1
1340 268 3 0 3.8453830485136304 -6.070024848483149 -5.891630834362427 11 1 0
1336 268 1 0 3.827884403419798 -5.800777664699529 -5.4996005480084555 11 1 0
1747 350 3 0 -5.956974998716148 -5.398637019591015 -6.227865767267801 4 0 1
571 115 1 0 -1.711999807602263 -4.573353472133484 -5.5132910300395634 12 1 0
1338 268 3 0 3.586256989425813 -5.452759877790144 -5.573256908232826 11 1 0
1029 206 3 0 -9.768627750924859 -4.269234372843988 -5.509318681927013 11 1 1
2648 597 4 0 -6.594915036752338 -4.284743256351405 -5.770411774959258 7 0 1
249 50 3 0 -6.571950494164309 -3.8959966542008706 -5.679015870622683 12 1 0
2647 597 2 0 -6.434002498460673 -4.513619284462927 -6.09531351974653 7 0 1
575 115 3 0 -1.9866506306156175 -4.526723497757993 -5.837082496278762 12 1 0
573 115 3 0 -1.2940818360445832 -4.388311912699003 -5.6364544940493095 12 1 0
2595 579 4 0 8.119974398757357 -4.012814662851348 -6.03147890287766 4 0 0
129 26 3 0 8.960776239472423 -4.067466601254833 -5.726751937680344 4 0 0
126 26 1 0 9.315113909925266 -3.7817149255511895 -5.80411231337427 4 0 0
128 26 3 0 9.367930476433422 -3.7162934718368312 -6.252833944210192 4 0 0
127 26 3 0 9.719917844186345 -3.9635331804848795 -5.621567165435117 4 0 0
2333 492 4 0 -7.0104442457404055 -3.050231538959567 -6.27642071660551 12 1 0
247 50 3 0 -6.820045119568912 -3.368235064657748 -6.124373083796888 12 1 0
246 50 1 0 -6.777562191659722 -3.4941965620815285 -5.690228681376155 12 1 0
248 50 3 0 -7.190723616429453 -3.5273588528280975 -5.502270550775741 12 1 0
250 50 3 0 -6.529428519342833 -3.1880301457113847 -5.463676746277008 12 1 0
2989 711 2 0 -3.3298005264471167 -3.4696078682707343 -5.694189014422478 14 1 1
454 91 3 0 -3.553211314436827 -3.084752988678509 -6.331478202643975 5 0 0
2990 711 4 0 -3.277725785938732 -3.23526247295196 -6.085859792833305 14 1 1
2825 656 4 0 4.397559701266831 -2.899654739664248 -6.039093398224066 5 0 1
207 42 3 0 4.761796672723399 -2.7791172819931242 -5.968563051090181 3 0 0
209 42 3 0 5.447484183571147 -2.899578211729077 -5.759329251619336 3 0 0
208 42 3 0 5.033978117389191 -3.486747632156657 -6.031685290981539 3 0 0
206 42 1 0 5.029930400460103 -3.075294155094989 -5.7790553390437776 3 0 0
130 26 3 0 9.231507577514396 -3.3886420551324647 -5.603494063225682 4 0 0
3104 749 4 0 -8.741821214315834 -2.3779307609554667 -6.345841208096054 10 0 0
647 130 3 0 -8.540310790715516 -2.141173505993369 -6.121095137758271 7 0 0
845 169 3 0 4.116514537642814 -1.9774273412239598 -5.545533761071044 4 0 0
646 130 1 0 -8.49214319430824 -1.7227229080770705 -6.056190408771132 7 0 0
649 130 3 0 -8.82990147650739 -1.5702199955912093 -5.762254451621141 7 0 0
650 130 3 0 -8.06138314218487 -1.6424151075481355 -5.852427187736156 7 0 0
842 169 3 0 4.554455293191852 -1.3857430995411448 -5.508984468011016 4 0 0
2245 463 2 0 5.140810329915153 -1.121499472758364 -5.707961363665599 9 0 -1
2246 463 4 0 4.806620706524873 -1.3889602889102495 -5.824981269344969 9 0 -1
1237 248 3 0 -9.263643755434716 -0.25280949247976636 -5.456397599627788 3 -1 -1
2002 401 3 0 -5.143461105199362 -0.8621481901220136 -6.350316484581468 13 1 0
2247 463 4 0 5.482644850579829 -0.8610829553424164 -5.588922789893197 9 0 -1
499 100 3 0 5.826515966653629 -0.6699233950083539 -5.666873644186278 5 0 1
2470 538 2 0 -7.41488271952487 -9.996146396337402 -5.375749089652936 4 0 0
2597 580 4 0 -1.929908528364498 -9.561565484392544 -5.05260886806682 -3 -1 0
1885 377 3 0 -1.6944915126849445 -9.35001292914387 -5.286208276659229 5 0 0
2596 580 2 0 -2.133524410961396 -9.865488593964065 -5.275012756941298 -3 -1 0
1881 377 1 0 -1.3706320558581488 -9.107344021049284 -5.093756694375063 5 0 0
1884 377 3 0 -1.0539689812643562 -9.396127775730374 -4.889969055591111 5 0 0
2502 548 4 0 -0.7938823112305684 -9.581268890881748 -5.089618245209554 1 0 0
2500 548 2 0 -0.6484520310399766 -9.893496615164668 -4.807037556217067 1 0 0
1882 377 3 0 -1.554795601462228 -8.833519465184219 -4.7821916445580985 5 0 0
1883 377 3 0 -1.1701596094898932 -8.856934800201126 -5.405183804705666 5 0 0
3297 813 4 0 -0.9622864729710106 -8.510918742321508 -5.379732621303635 7 0 1
2115 423 3 0 2.1375686245082655 -8.220332895450035 -5.021419003874398 16 1 0
2112 423 3 0 2.8566618423610812 -8.39685996227032 -4.96865799989896 16 1 0
52 11 3 0 6.486654066865249 -8.40562778713758 -4.857647838199651 -11 -2 0
3230 791 4 0 7.2356612273007705 -9.045516583753697 -5.175397961831923 3 0 0
54 11 3 0 6.926216334129663 -8.810653902927893 -5.30533414385403 -11 -2 0
51 11 1 0 6.7048538924350325 -8.419638796067966 -5.256460549188024 -11 -2 0
1751 351 1 0 -8.652052836979303 -7.461193576487915 -5.181174024070591 3 0 0
1754 351 3 0 -8.895715769287351 -7.585510285479584 -4.824817113594731 3 0 0
2874 672 4 0 -8.985098116420213 -7.8900997906659125 -4.5850040712859705 13 1 1