LAMMPS data file via write_data, version 4 Feb 2025, timestep = 1000, units = lj

8 atoms
4 atom types
6 bonds
1 bond types
7 angles
2 angle types

-1.5 1.5 xlo xhi
-1.5 1.5 ylo yhi
-1.5 1.5 zlo zhi
0 0 0 xy xz yz

Masses

1 1
2 1
3 0.1
4 0.1

Bond Coeffs # harmonic/omp

1 100 0.45

Angle Coeffs # harmonic/omp

1 100 180
2 100 109.471

Atoms # full

3 1 3 0 0.4053475149275756 -0.4549324226224254 -0.6710564210269796 0 0 0
4 1 3 0 0.11149515632471596 -0.8678661025733864 -1.2255768183928983 0 0 0
1 1 1 0 0.5008043446465331 -0.653273600756757 -1.0631882996419986 0 0 0
2 1 3 0 0.6348846574496245 -0.3200818298580286 -1.373893381663614 0 0 0
5 1 3 0 0.8258363434959457 -0.9526083786207764 -1.0135775506378892 0 0 0
6 2 2 0 0.4117802211287449 -0.38048483947349454 0.36899403763825966 0 0 0
8 2 4 0 0.07488446015662564 -0.5807168415420321 0.12269669460774724 0 0 0
7 2 4 0 0.7335694624671056 -0.1908944058231139 0.6154291691849858 0 0 0

Velocities

3 0.012318925875717257 0.050852017496864216 0.04515176936123789
4 0.4557409915170371 0.37347753538823186 0.45879360592024526
1 0.6423272121338212 -0.26155158196276485 -0.02698135326801355
2 0.6618283233534514 -0.5852641226361939 -0.1447744367343957
5 1.0245633583132088 0.3088817069401703 1.0711589532398391
6 0.6680348597751208 0.19264118698403726 -0.1306791287065809
8 2.422046511769744 1.5857484174076717 1.117973135504227
7 -1.2443696029117595 -1.249889459702354 -0.6988249026624228

Bonds

1 1 1 2
2 1 1 3
3 1 1 4
4 1 1 5
5 1 6 7
6 1 6 8

Angles

1 2 2 1 3
2 2 2 1 4
3 2 2 1 5
4 2 3 1 4
5 2 3 1 5
6 2 4 1 5
7 1 7 6 8
