LAMMPS data file via write_data, version 4 Feb 2025, timestep = 4000, units = lj

64 atoms
4 atom types
48 bonds
1 bond types
56 angles
2 angle types

-2.5 2.5 xlo xhi
-2.5 2.5 ylo yhi
-2.5 2.5 zlo zhi
0 0 0 xy xz yz

Masses

1 1
2 1
3 0.1
4 0.1

Bond Coeffs # harmonic/omp

1 100 0.45

Angle Coeffs # harmonic/omp

1 100 180
2 100 109.471

Atoms # full

8 2 3 0 -2.0140389213107106 -2.1536358731046197 -2.1784500612426196 -1 -1 2
6 2 1 0 -2.110394339420043 -1.7094576850214027 -2.209870561201877 -1 -1 2
9 2 3 0 -1.8958233861025806 -1.4777824938816095 -1.8613930616882852 -1 -1 2
13 3 3 0 -1.4236001541640755 1.5898269779416907 -2.4311821297087635 -2 -3 1
11 3 1 0 -1.061469392950801 1.858189942582996 -2.39505341651858 -2 -3 1
12 3 3 0 -1.1917711061908551 2.273232152177931 -2.4124339388117435 -2 -3 1
15 3 3 0 -0.8641810808840944 1.790575572272946 -1.991190051782045 -2 -3 1
7 2 3 0 -1.9715024534165173 -1.5648159769058072 2.40270534994856 -1 -1 1
14 3 3 0 -0.7834251312889104 1.7775947401927272 2.285348342230085 -2 -3 0
50 12 2 0 -0.1993846442823095 2.181232075049248 1.8957576425484994 1 -1 0
51 12 4 0 -0.5662774548857548 2.069715300493895 2.1607637544759477 1 -1 0
47 11 2 0 0.6948624460320971 -2.4275424094191047 -1.2873257068975588 1 1 1
49 11 4 0 0.6571971824507576 -2.1188038284852833 -0.959776682302218 1 1 1
4 1 3 0 0.9429659284128937 -1.8121160906534917 -0.9532665570993004 1 1 0
10 2 3 0 2.418825345420821 -1.64693131145871 -2.1856362546089434 -2 -1 2
61 15 4 0 2.030333529087348 -0.7183416311983648 -1.4535497649210283 1 0 2
59 15 2 0 1.7512682959348362 -0.9373852646800762 -1.1589204359872465 1 0 2
27 6 3 0 2.156366675367293 -0.5772606079430487 -1.8221807771395082 2 1 1
60 15 4 0 1.4657101674306987 -1.1599446461065162 -0.8663156236775771 1 0 2
29 6 3 0 1.8347766953760862 -0.7183281408982112 -2.465266490011659 2 1 1
26 6 1 0 1.862748286517217 -0.42536063595105267 -2.1332634892076046 2 1 1
30 6 3 0 1.449751947976492 -0.3709788683739572 -1.936184250732414 2 1 1
28 6 3 0 2.006007729660534 -0.014834526136292325 -2.297706377797257 2 1 1
58 14 4 0 0.589302999735366 1.0418823555766576 -1.3243574245467242 1 -1 1
56 14 2 0 0.7951316255408303 0.9293806334782015 -0.9414957214029496 1 -1 1
25 5 3 0 0.7445810690003611 1.1339529846856138 -1.6746918296115436 2 0 0
48 11 4 0 0.7369683153530899 2.2603504954695772 -1.6260095346429164 1 0 1
22 5 3 0 0.5872957597741513 1.8888247870446593 -1.5943177331939196 2 0 0
24 5 3 0 1.1535458386459356 1.628644694473417 -2.0410873310062616 2 0 0
21 5 1 0 0.7389532574994462 1.5364647275014214 -1.8958039912336366 2 0 0
45 10 4 0 1.0482767248816764 1.707674736565628 -2.427557426966285 2 1 1
23 5 3 0 0.4415080861281604 1.5090397296336882 -2.2559592035193345 2 0 0
1 1 1 0 0.985483509279411 -1.5460714973258143 -0.580568763388124 1 1 0
43 9 4 0 0.2870209505545618 -1.7659904438349519 -0.2620645798566388 -1 -1 0
55 13 4 0 1.1623518925454723 -1.8494717135805472 0.03375734414996234 2 1 1
5 1 3 0 0.598530902415475 -1.5517066358826521 -0.36349614139748887 1 1 0
42 9 4 0 0.10763485553380692 -2.2991449540059747 0.5271531209870073 -1 -1 0
41 9 2 0 0.20376569528330046 -2.0174991509596802 0.1178017632232109 -1 -1 0
33 7 3 0 0.43702168181454715 -2.480705185620429 0.6568290178519121 2 1 0
2 1 3 0 1.3132130301905676 -1.7034418850490505 -0.3163697413865778 1 1 0
53 13 2 0 1.4248946344145406 -1.9651370915086774 0.387609727210136 2 1 1
54 13 4 0 1.6995599706658764 -2.0955502211658468 0.7464087804178399 2 1 1
3 1 3 0 1.1015341187351773 -1.087362902649895 -0.7126742175639655 1 1 0
57 14 4 0 1.0049016237212616 0.8305419169549211 -0.5746902863932979 1 -1 1
39 8 3 0 1.3681062025602175 1.0351476708989775 -0.5225620823153176 1 -1 1
38 8 3 0 1.949651245450724 1.3334893832123766 -0.7681937672380856 1 -1 1
36 8 1 0 1.7881340234505192 1.1296613893390117 -0.4433542873096701 1 -1 1
37 8 3 0 2.0266416783924726 0.7262736961329996 -0.3752132688314913 1 -1 1
40 8 3 0 1.8094511592361169 1.3937743687144288 -0.05933635143270877 1 -1 1
35 7 3 0 0.5569483184721911 1.7546296966299675 0.7044522466770173 2 0 0
64 16 4 0 2.1561596714722233 1.588491559744341 -0.10722675922870106 3 1 1
62 16 2 0 2.224758401800587 1.8330015238101485 0.2950227703677659 3 1 1
63 16 4 0 2.2822202134003247 2.0557193953145436 0.6658020407143983 3 1 1
19 4 3 0 2.2803005801096994 -2.420505794969811 1.6494094817658063 2 1 0
18 4 3 0 1.8412794336387321 -2.1845043723292794 1.111470398939729 2 1 0
52 12 4 0 0.14877714335241699 2.2741105610462746 1.6495166420977352 1 -1 0
34 7 3 0 0.9611530260150807 2.22578108641721 1.1131887474212432 2 0 0
32 7 3 0 0.2529057918139821 2.1192720157243468 1.2800698547818117 2 0 0
31 7 1 0 0.5496800668834734 2.149283601736716 0.9411287389686684 2 0 0
16 4 1 0 1.9641241165762526 2.4649629664401598 1.325852649460682 2 0 0
17 4 3 0 1.6012745278793101 2.2687339578262726 1.5337878929384372 2 0 0
46 10 4 0 1.5794168474889343 2.1324855480240323 1.9381638975386677 2 1 0
44 10 2 0 1.324991110686311 1.9293334634455954 2.2526575490304577 2 1 0
20 4 3 0 2.151660812817834 2.1532556506358356 1.0175962044193665 2 0 0

Velocities

8 -0.34533861340139327 -0.6829976990747295 -0.11916019442105255
6 -0.002049869674005639 -0.18453744843758513 0.19249793452219127
9 0.3160957719079579 0.7062493818195547 -0.7542197889621511
13 0.3892948385669557 -0.7905188506520995 0.34750501919270144
11 0.5803400136367219 -0.13532383396576889 -0.2726989943594538
12 1.6909559025518677 -0.5638462198679661 -1.5792869731716024
15 0.9147586888843783 0.7119758596561562 -0.30649170109012297
7 0.1442467724851591 0.05484392197513667 -0.4597501692615705
14 2.3389680250372997 0.5143620717681497 1.121263823128805
50 0.8737437063694343 -0.15367006640660677 -0.46008756682771285
51 0.5964962227788834 0.4796171567488561 -0.14252067839561433
47 0.4019137801572306 -0.051254262818987074 0.16154228803513632
49 -0.6265243462689496 0.5093490167784869 -0.7137102493846795
4 1.3442214933532546 -0.17033132667110176 -0.58522356133376
10 0.7414060342614763 0.6351448535880864 1.5620005955808365
61 0.15375537199380718 -0.29352180491128665 -0.3472865220169961
59 0.006950431493913722 0.2738087240531327 0.22660004691250912
27 2.2995958274694677 0.6631455038786224 0.4576784913727663
60 0.5337178679133047 -0.9864237705795084 -0.37687444468656506
29 -0.04049495760942523 0.6927996136367182 0.17356010151859289
26 0.2073018930132422 0.19664562499405921 -0.05782231882059273
30 0.11947083017542509 1.346257580704991 -0.1692437313915893
28 -0.33732644833054193 -0.0026147325772367808 -0.5119714813576663
58 0.5670696712627494 -0.07205289264182196 0.0658177104004768
56 0.5786508560292406 -0.07952316595235889 0.17080819036819886
25 1.7806197698094972 -0.35374593358680867 -0.33875830677805385
48 1.0041428286433374 -0.7835849025490293 -0.12217503030652635
22 0.6262266896260705 -1.0262937037716908 -0.34803694891425796
24 1.3296118317150132 -0.25441278571535964 -0.22899966853387388
21 0.6657207745819191 -0.10723927369667126 -0.13612810164400607
45 1.5039474324547524 -1.561473436340473 -0.578966274901668
23 1.0854050539326487 -0.12210363570906388 1.2054320437432826
1 0.42446827777037355 -0.0036965052448419966 -0.2303771534870967
43 -0.5997061185063898 0.11944799634544923 -0.41704869038298076
55 0.37930063808296616 0.3621336519922944 1.1272197134602355
5 -0.8138896234146137 0.5702689503890273 0.3337743040688589
42 -0.3011052258475369 0.7737434831555504 0.017034637812781063
41 0.7129269353161765 -0.019040809813169638 0.14894825420088334
33 1.0905794771839368 -0.635351901062641 0.4604767735679616
2 -0.23714641560852728 -0.448696635358208 0.4313605807492376
53 0.44110532962556065 -0.24212316075997975 -0.11512781173276475
54 0.9050375030515094 -0.6393711895129128 1.0590245572576371
3 -0.23506594602135533 1.512902525631907 -0.21395438177561954
57 0.20710997385606578 1.143320736877851 0.35225798652915685
39 1.6925461140939464 0.034033945757084655 0.24347812988284928
38 1.2328445090443152 -0.5023804156396691 0.29298530126209843
36 0.9150352816887944 -0.03571436587437947 0.1294968080414588
37 1.5244617083191816 0.8023536284001166 0.32759127858074144
40 1.668382920125862 -0.6806050356529016 -0.7477912155867763
35 1.6382785462670328 1.1074662135498112 0.16440205637560157
64 1.566275659010563 -0.004492014675770088 0.20505935782391244
62 0.6338598568908848 0.21247191443150562 -0.07794640241769524
63 -0.48733735748410845 0.8986244051959752 0.4327400890963225
19 2.2760035122350644 -0.17035856816541395 0.0023000038443360335
18 2.3418159768728293 -0.03741421832250996 -0.5875156534525257
52 1.0250640100527184 1.303249910936646 -1.3035510317180472
34 1.3248769863173067 0.18722882141031116 1.1924355423645256
32 0.9030793543951652 0.9114433554144679 -0.07863159632709317
31 0.9517055770641779 0.04704404004202323 0.28236322612776715
16 0.8268606575877461 -0.48020699599784894 0.13120228444584528
17 2.188814862033508 0.5694273119152814 0.1456930246948601
46 0.9374498190447369 -0.4239560454828052 0.6483387972669393
44 1.6336332037929275 0.25876990930306354 -0.1911065161787214
20 1.2090962337110593 -0.38449861151316767 -0.2907151781843267

Bonds

1 1 6 7
2 1 6 8
3 1 6 9
4 1 6 10
5 1 11 12
6 1 11 13
7 1 11 14
8 1 11 15
9 1 50 51
10 1 50 52
11 1 47 48
12 1 47 49
13 1 59 60
14 1 59 61
15 1 26 27
16 1 26 28
17 1 26 29
18 1 26 30
19 1 56 57
20 1 56 58
21 1 21 22
22 1 21 23
23 1 21 24
24 1 21 25
25 1 1 2
26 1 1 3
27 1 1 4
28 1 1 5
29 1 41 42
30 1 41 43
31 1 53 54
32 1 53 55
33 1 36 37
34 1 36 38
35 1 36 39
36 1 36 40
37 1 62 63
38 1 62 64
39 1 31 32
40 1 31 33
41 1 31 34
42 1 31 35
43 1 16 17
44 1 16 18
45 1 16 19
46 1 16 20
47 1 44 45
48 1 44 46

Angles

1 2 7 6 8
2 2 7 6 9
3 2 7 6 10
4 2 8 6 9
5 2 8 6 10
6 2 9 6 10
7 2 12 11 13
8 2 12 11 14
9 2 12 11 15
10 2 13 11 14
11 2 13 11 15
12 2 14 11 15
13 1 51 50 52
14 1 48 47 49
15 1 60 59 61
16 2 27 26 28
17 2 27 26 29
18 2 27 26 30
19 2 28 26 29
20 2 28 26 30
21 2 29 26 30
22 1 57 56 58
23 2 22 21 23
24 2 22 21 24
25 2 22 21 25
26 2 23 21 24
27 2 23 21 25
28 2 24 21 25
29 2 2 1 3
30 2 2 1 4
31 2 2 1 5
32 2 3 1 4
33 2 3 1 5
34 2 4 1 5
35 1 42 41 43
36 1 54 53 55
37 2 37 36 38
38 2 37 36 39
39 2 37 36 40
40 2 38 36 39
41 2 38 36 40
42 2 39 36 40
43 1 63 62 64
44 2 32 31 33
45 2 32 31 34
46 2 32 31 35
47 2 33 31 34
48 2 33 31 35
49 2 34 31 35
50 2 17 16 18
51 2 17 16 19
52 2 17 16 20
53 2 18 16 19
54 2 18 16 20
55 2 19 16 20
56 1 45 44 46
