LAMMPS data file via write_data, version 19 Nov 2024, timestep = 20000, units = lj

160 atoms
4 atom types
110 bonds
1 bond types
75 angles
2 angle types

-3.758247 3.758247 xlo xhi
-3.758247 3.758247 ylo yhi
-3.758247 3.758247 zlo zhi
-0.0003758246936591547 0 0 xy xz yz

Masses

1 1
2 1
3 0.1
4 0.1

Bond Coeffs # harmonic/omp

1 100 0.45

Angle Coeffs # harmonic/omp

1 100 180
2 100 109.471

Atoms # full

93 28 4 0 -1.1789250022116167 -1.902104166009027 -2.918317902857312 0 0 0
153 48 4 0 -1.0263180768163567 -1.552679387048327 -3.0599684446980504 0 0 1
152 48 2 0 -0.8876619687324951 -1.4518538066805844 -3.4542605919393674 0 0 1
158 50 2 0 -2.4485887305917937 -3.329169284643902 -2.0484032933414653 0 1 0
160 50 4 0 -2.5661464887989416 -3.704429609206446 -2.2251255380640815 0 1 0
94 28 4 0 -1.5296113738479575 -2.181849309502085 -2.1265561664214827 0 0 0
92 28 2 0 -1.3610410519222098 -2.0489021770206337 -2.5021182707119034 0 0 0
159 50 4 0 -2.3293770219905907 -2.9462249790452004 -1.8683156838519202 0 1 0
7 2 3 0 -2.298273676989762 -2.141760744999212 -1.8183245492980922 0 1 1
9 2 3 0 -2.0458413691539485 -2.8044623173204535 -1.6202118220965565 0 1 1
6 2 1 0 -1.9733365391567157 -2.3810396244606133 -1.5811368613196004 0 1 1
8 2 3 0 -1.9984296819566143 -2.2658602280357805 -1.1496209001353521 0 1 1
10 2 3 0 -1.555800435570355 -2.2778148773437517 -1.7368941169254875 0 1 1
70 20 4 0 -1.6883326455358354 -2.1214805276134214 -0.966350640592581 0 0 0
140 44 2 0 -2.0201849220152477 -0.46587791009113966 -1.065235254455533 1 0 0
142 44 4 0 -1.6101174951099795 -0.3241946230638053 -1.2058634181279424 1 0 0
85 25 4 0 -1.241903405876109 -0.2681006073534884 -1.3494897881435333 1 0 1
55 15 4 0 -0.2130273913420928 -3.64177934191324 -0.1914694259339531 0 0 0
68 20 2 0 -1.5062791395547799 -1.9655428699238884 -0.5781722896784691 0 0 0
129 40 4 0 -3.3510060230850223 -1.4634999844408125 -0.7553000847255111 1 0 0
128 40 2 0 -3.0477726927679445 -1.144600713823344 -0.7698958990687204 1 0 0
17 4 3 0 -3.6594680906177643 -1.690289988686866 -0.8690027887821996 1 0 0
69 20 4 0 -1.3257173969531695 -1.8116211533889586 -0.19158173790165023 0 0 0
141 44 4 0 -2.4316987218410233 -0.6060802466721538 -0.9287851000239122 1 0 0
130 40 4 0 -2.7451668374853773 -0.8281325640337989 -0.7943050501118689 1 0 0
39 10 4 0 -1.2392062164323017 -2.8188998919725385 0.8619250179341496 0 0 0
54 15 4 0 -0.6111982194436614 -2.9486014531489366 0.23094336392858716 0 0 0
53 15 2 0 -0.41418426432609134 -3.2874667949401366 0.019409674355435058 0 0 0
4 1 3 0 -1.1432667217521368 -2.450238105243395 0.738718184027829 0 0 0
2 1 3 0 -1.2075874386974261 -2.0064781934229696 0.1183040900727419 0 0 0
1 1 1 0 -0.9319810464551552 -2.3096247123260394 0.3388643297768361 0 0 0
3 1 3 0 -0.5381633334601474 -2.1080908947994876 0.4441291347139984 0 0 0
99 30 4 0 -0.1680601699930575 -1.9656014945391516 0.35849660396077887 0 0 0
5 1 3 0 -0.8555682509378162 -2.660491126612676 0.08985901906877247 0 0 0
45 12 4 0 -2.168262025685113 -2.94181305055114 1.7073448207178954 0 0 0
40 10 4 0 -1.9812586740489957 -2.785575254564812 1.3648106049637905 0 0 0
38 10 2 0 -1.6049475445871257 -2.800263875592103 1.1165229776364924 0 0 0
143 45 2 0 -2.8594824918014528 -0.05170521489205848 1.8744541155687822 1 0 0
37 9 4 0 -3.216886386092589 -3.4683875826209807 2.319804648505306 0 0 0
35 9 2 0 -3.3901821456928714 -3.733029633415526 2.6467329218045537 1 0 0
46 12 4 0 -2.876254701973725 -3.323237229383649 2.1418559862395927 1 0 0
44 12 2 0 -2.5140568083493218 -3.1298084625346 1.9170648565603639 0 0 0
88 26 4 0 -3.424951922865075 -0.629861608024521 1.9672241132739323 1 0 1
145 45 4 0 -3.167014288736738 -0.34038204963950136 2.090630451989031 1 0 0
86 26 2 0 -3.7455897785123113 -0.9257580553945872 1.9331503583371852 1 0 1
154 48 4 0 -0.7444666209619628 -1.336204344528292 3.6578688223476616 0 0 0
115 35 4 0 -0.3615197173879672 -1.222568558027909 3.6383911708735903 0 0 0
34 8 4 0 -3.5359599121751053 0.28173856466057146 -2.9857628799722162 1 0 1
32 8 2 0 -3.207998068186637 0.3002234082398658 -2.6870249935563413 1 0 1
33 8 4 0 -2.8958568474555086 0.3181221655073925 -2.3950969181813053 1 0 1
81 24 4 0 -2.5209299229851037 0.4429482836601739 -2.396631268793241 1 0 1
80 24 2 0 -2.103677281755707 0.6175505183102112 -2.2094943439732164 1 0 1
82 24 4 0 -1.7188135875486923 0.777778835374594 -2.0261633175718936 1 0 1
133 41 4 0 -1.3675520199305171 0.9390477285157406 -2.054550277913531 1 -1 0
56 16 2 0 -0.9407143348443272 2.673528186711647 -2.429316293486095 0 -1 1
58 16 4 0 -1.3836705978629698 2.724430890109704 -2.371555086437774 0 -1 1
27 6 4 0 -0.1844665712017033 2.4018282530176025 -2.5906076473122805 0 -1 1
57 16 4 0 -0.49822627218757853 2.622693479036359 -2.4880510999407477 0 -1 1
112 34 4 0 -2.3069602516727907 3.51344265967328 -2.2336923036788354 2 -1 1
110 34 2 0 -2.014661654495658 3.193629578472307 -2.3771008152013415 2 -1 1
111 34 4 0 -1.7279057561756899 2.867012969835015 -2.519255319037949 2 -1 1
84 25 4 0 -0.563772250419063 0.3305279589708592 -1.213678203358949 1 0 1
13 3 3 0 -0.25220455520416163 0.5566979042053006 -1.2983512329610676 1 0 1
83 25 2 0 -0.8930752126648844 0.037252630135691245 -1.2812621092137602 1 0 1
131 41 2 0 -1.0281594673761623 1.1010706456271242 -1.8050793957999396 1 -1 0
132 41 4 0 -0.6939666283240706 1.2633112928987336 -1.5591201269264934 1 -1 0
12 3 3 0 -0.3040822636553604 1.2617801536609088 -1.4873724677285471 1 0 1
11 3 1 0 -0.046814238773897454 0.9546128470899813 -1.2824668870450622 1 0 1
61 17 4 0 -3.625304787019593 2.2454548878491805 -1.4914304450788696 1 0 1
49 13 4 0 -3.268712420757037 2.158351407946652 -1.6212933337830924 1 0 0
47 13 2 0 -2.8663764806037877 2.081038721169053 -1.4397151471277856 1 0 0
48 13 4 0 -2.4561016961615247 1.999965395845944 -1.2674140285836195 1 0 0
75 22 4 0 -2.2190876524284406 1.9343222031098888 -0.9652716161423389 1 0 1
74 22 2 0 -2.0867466333473548 1.6735946797783594 -0.6140799817194966 1 0 1
76 22 4 0 -1.967156416788094 1.4141425492113529 -0.269154729666921 1 0 1
25 5 3 0 -0.3732812416334328 2.5908417962659893 0.7717481860412319 1 0 0
96 29 4 0 -0.11881177360764106 2.8274273979586733 0.5694270724662784 1 -1 0
95 29 2 0 -0.14031601984673925 3.192740046852472 0.2972047699247735 1 -1 0
97 29 4 0 -0.16086662015069209 3.5568966508386533 0.02679690554063141 0 -1 0
144 45 4 0 -2.555428795153447 0.23139566161057923 1.6631959782535821 1 0 0
66 19 4 0 -2.3716106563074177 0.4814886837726542 1.4270116188301145 0 0 0
65 19 2 0 -2.037116774912046 0.7943872077402583 1.42781115538292 0 0 0
67 19 4 0 -1.7061029273479549 1.1019723960222558 1.426857831357987 0 0 0
64 18 4 0 -1.3807904286764416 1.2969637405588967 1.3312889188769796 1 -1 0
62 18 2 0 -1.1066254778301428 1.6737799413666385 1.2528490618195338 1 -1 0
63 18 4 0 -0.8316258166196611 2.0551648473333106 1.1786142253007883 1 -1 0
23 5 3 0 -0.5194558967473668 2.2218420279694513 1.3876642945022626 1 0 0
21 5 1 0 -0.22537339523746835 2.498609671999156 1.1887466984435564 1 0 0
24 5 3 0 -0.1904249440163892 2.884096101031214 1.416325410136694 1 0 0
118 36 4 0 -0.08005266850564041 3.207174982667685 1.644238607801534 1 -1 0
36 9 4 0 -3.570560509375738 3.5224564366823206 2.9817453374542904 1 -1 0
79 23 4 0 -3.7346171299579667 3.555797664749101 3.3583966583322233 1 0 0
156 49 4 0 2.587593037582799 -0.2752741032185888 -3.699284044442293 0 0 1
102 31 4 0 2.984860792378883 -0.1755656280302591 -3.6726137745685783 0 0 1
101 31 2 0 3.3676102225640285 -0.051145040174711554 -3.4410406627236476 0 0 1
41 11 2 0 2.5718146505202792 -3.7518813688324406 -1.9427331779656924 0 0 0
31 7 4 0 2.5675585443871665 -3.132579423324763 -1.5055469238060781 -1 0 0
42 11 4 0 2.544853257183086 -3.525485584342559 -1.5511860896976404 -1 0 0
29 7 2 0 2.818769953520163 -2.760574965492239 -1.4165086788026606 -1 0 0
30 7 4 0 3.0665385533042606 -2.390384420775569 -1.3242924933712534 -1 0 0
18 4 3 0 3.402570843592967 -2.176453357329942 -1.2057079033090896 0 0 0
19 4 3 0 3.3850409154037084 -2.0818304655902664 -0.4594571454074843 0 0 0
150 47 4 0 3.1088479936145976 -1.9648637271294678 -0.19844474715368587 0 0 1
16 4 1 0 3.4442178328419866 -1.8740284756438905 -0.8596084256238843 0 0 0
20 4 3 0 3.131823733769016 -1.5476912734233927 -0.9136546075987195 0 0 0
149 47 2 0 2.92669935251858 -1.9027956919286482 0.21791780850197373 0 0 1
98 30 2 0 0.2173627281236441 -1.8094819813420904 0.5204014706638089 0 0 0
100 30 4 0 0.6136189418602438 -1.6461100126016954 0.6874182274850824 0 0 0
151 47 4 0 2.751987230937676 -1.8419843738850499 0.6229252887654351 0 0 1
72 21 4 0 2.738279572960767 -1.5394885709529733 0.881219412663115 -1 1 0
90 27 4 0 0.8211053102961845 -1.5668587573970667 1.0256364169431134 0 0 1
91 27 4 0 0.7917054153338903 -1.2150069686720633 1.8754725093318818 0 0 1
89 27 2 0 0.8061611164694824 -1.3977864439844288 1.4419484211640938 0 0 1
71 21 2 0 2.9864780046569352 -1.475738215780459 1.26289206075172 -1 1 0
73 21 4 0 3.224827272591079 -1.4233613273784496 1.6396220481759958 -1 1 0
126 39 4 0 0.7714093277719192 -1.4645403150120462 2.192871074420407 0 0 0
125 39 2 0 0.8862096294236386 -1.733059106720244 2.524958648157839 0 0 0
87 26 4 0 3.446611357489476 -1.2223895906496844 1.9001795116523619 0 0 1
127 39 4 0 1.0032626466230221 -2.016433749839017 2.8690386797758434 0 0 0
114 35 4 0 0.4374429230491401 -1.0869489297353505 3.269240829873029 0 0 0
109 33 4 0 0.8324666362120601 -1.0725556297102168 3.274536301177391 0 -1 0
113 35 2 0 0.028030844425509738 -1.1549331308783937 3.455015651561885 0 0 0
107 33 2 0 1.1975870204440762 -0.8368326798468968 3.277612950977475 0 -1 0
108 33 4 0 1.5709703574535308 -0.5951252444003714 3.2781025142881814 0 -1 0
157 49 4 0 1.771324151229896 -0.6297391798802754 3.6261449348838832 0 0 0
155 49 2 0 2.183543000085278 -0.4528975530059167 3.7253392341228633 0 0 0
103 31 4 0 3.745562225950673 0.07493722239343859 -3.223184877942606 0 0 1
120 37 4 0 0.7954323094193905 2.664816976789087 -3.394530285664552 1 -1 1
28 6 4 0 0.5220389194026387 2.572512188518192 -3.125169130472218 0 -1 1
26 6 2 0 0.1837913810279752 2.4932750986332985 -2.869260240064465 0 -1 1
119 37 2 0 0.8049985244215723 2.9996153044308604 -3.6863558377800825 1 -1 1
137 43 2 0 2.9081299352472385 3.1479232333857734 -2.9201902500477694 1 0 0
138 43 4 0 3.137669353040244 3.0716177595063394 -3.3153189810213317 1 0 0
78 23 4 0 3.507253593249221 3.2026721721155083 -3.4098093031735295 0 0 1
139 43 4 0 2.6927759885264795 3.2191209597390964 -2.5523690017874596 1 0 0
43 11 4 0 2.602921801183715 3.536765498713245 -2.3388333400067864 0 -1 0
14 3 3 0 0.3585787259307125 0.9234115516775931 -1.4953021727820448 1 0 1
123 38 4 0 0.7019571282179484 1.0003728027160488 -1.68855139892035 1 0 0
122 38 2 0 1.1298090086651245 1.1261553588853506 -1.7478840785621683 1 0 0
124 38 4 0 1.551424714153982 1.24736746411204 -1.8048969283564866 1 0 0
50 14 2 0 2.3347388251982384 1.5603844245211098 -1.6829619627817034 0 0 1
51 14 4 0 1.9614667425034646 1.3080084308027926 -1.7100463333800286 0 0 1
52 14 4 0 2.70614550247467 1.8108812345749907 -1.6599437468735023 0 0 1
60 17 4 0 2.998853080208213 2.0762155216953246 -1.5645327027534055 0 0 1
59 17 2 0 3.4328385568778987 2.1587444911995837 -1.5313049094117526 0 0 1
136 42 4 0 0.2574510516760107 1.1251751937919128 -0.5337356002641602 1 0 0
134 42 2 0 0.5255736224686665 1.3799793110199499 -0.28255210845858114 1 0 0
15 3 3 0 0.019666596564507977 1.0789470331523479 -0.8475122912863147 1 0 1
135 42 4 0 0.802543823215129 1.6395606720362297 -0.018255015341496428 1 0 0
148 46 4 0 0.8175005833508129 1.8589331631742176 0.306349558896752 1 0 0
146 46 2 0 0.6618950973335602 1.957396750099904 0.7145341432262464 1 0 0
147 46 4 0 0.5120294797408933 2.0607013074604312 1.1177958420205591 1 0 0
22 5 3 0 0.1751139922998748 2.2932023694294434 1.1605476857956667 1 0 0
116 36 2 0 0.29425413817923474 3.3479586836310986 1.8424157400132302 1 -1 0
117 36 4 0 0.6571105272997899 3.4785874318672603 2.0412740006099863 1 -1 0
106 32 4 0 0.8817188955990103 3.544659178461238 2.3676717737418675 1 -1 0
104 32 2 0 0.9397951152760786 3.563502506801836 2.8057249864856253 1 -1 0
121 37 4 0 0.8133551671018964 3.3370350569589524 3.5342773153702653 1 -1 0
105 32 4 0 0.992662741270073 3.577411652637598 3.255033452786252 1 -1 0
77 23 2 0 3.6408646993831395 3.379639996531835 3.7291995795085615 0 0 0

Velocities

93 -0.23240085771373448 0.16216540505218802 -0.6562691027105896
153 0.8932564810305266 0.12231811803221398 0.12560907003444802
152 -0.028347523346823122 -0.06374791799773623 0.16121018873519308
158 0.15797289719657898 0.03381645301878887 0.0924132682574636
160 0.19373823185137778 -0.17120981036876656 0.8889918267068162
94 0.05198428102392444 -0.18783242820886972 -0.024802528678646137
92 0.21380815895663524 -0.10667682862227372 -0.07677866861123919
159 -1.0297759632085965 -1.0806747585184646 0.09093231287293684
7 -0.1839810219811438 -0.8868308894257695 0.479230448883568
9 -0.18253985478571366 -0.5315785540379635 -0.21455914180934607
6 -0.22849201517502798 -0.1521362422939688 0.06687004399270345
8 0.08053840617097364 -0.47202512730991536 -0.15861019425238165
10 0.7275365679080531 -0.08195440328395781 -0.08692173962914959
70 0.28498730799787325 -0.18690585096624837 -0.18839569841068468
140 0.2357363324466881 0.09775669179692976 0.16046539928672487
142 0.5861817152160129 -1.0805387186186426 -0.3045466405588943
85 0.3829242224845136 -0.554781879997021 -0.477526384382228
55 -0.07885215074045664 -0.3352257524025762 0.09327948564095626
68 -0.1231507531637081 0.1600670736648535 0.17952703902977854
129 0.9154601113084153 -0.6917860209991975 -0.6810996493695892
128 0.05200405872908119 0.05944016335599087 -0.24833693190334039
17 -0.42268539978388714 -0.5308720282696032 0.4199711782495362
69 0.4121501371601793 -0.061418073911498214 0.6009565427095985
141 -0.2875562666989964 0.09411930001655755 0.13377549729810387
130 0.9019326674566093 1.0299137286195805 0.1356936677760751
39 1.0322092089561807 0.04856996610697265 -0.3640791108132293
54 0.3033394594663499 -0.14868743029483927 0.2662321530477127
53 -0.07128636283143643 -0.06885898264415143 -0.05049162778680307
4 -0.7714571624473467 -0.15270730417029288 -0.24444179293950843
2 0.2049267660433641 -0.3486214773460412 0.4871424780599771
1 -0.09328838408736567 0.01446001298196085 0.21086637935142633
3 -0.08485221016526735 0.4826454378569863 -0.31988921705781626
99 -0.11544437265062496 0.9735536453888265 0.13448627881193798
5 0.5527369851689901 -0.0844625096135958 0.49261438075034447
45 -0.5535978494988435 0.46160137405512297 -0.5718463567992496
40 0.35556301071008184 0.6930224426719584 0.9279166132620648
38 0.1942980896634468 0.1729614240294813 -0.057766328438639554
143 -0.02378635132053512 -0.10143560784336687 -0.013676825430754783
37 1.2802765272644854 -1.3407185980591012 0.7206572047789312
35 0.09825717893659756 -0.37723538469807544 -0.2779106938351956
46 0.37115068955668606 0.7019270934963391 0.315567107775689
44 -0.1287016481597432 0.033978668202493074 -0.030771088637791846
88 0.07883125828068824 -0.47792590362915105 0.18090065556147145
145 0.6490233616069199 0.5104663579585417 -0.21306012960157356
86 0.2878617825388507 -0.0960490078775818 0.10560244256448423
154 0.7140822977638601 0.5338952797203027 0.4252931294684603
115 -0.7698045330190314 -0.6995849024783323 0.36615768298563045
34 -0.15918694375023418 -0.5122451465438205 -0.6688135298427534
32 0.2604695414839317 -0.1544440379477113 0.11326277308542869
33 0.0808177538339133 0.2601202137859419 -0.21402341191400356
81 0.04363724645615305 0.5091456979509785 0.39852890752735615
80 -0.13734532309991726 -0.03757736196480908 0.051710820780541004
82 -0.46191057140471153 -0.09940036054892591 -0.30204457190236456
133 0.053297193614299264 -0.5720300176997368 0.2637068843359473
56 0.2577815748730479 -0.12143518374504689 0.08681660601656584
58 0.41644057745780244 -0.3205083501271278 -0.23186052182178693
27 0.5594492801084272 0.047501379042156996 -0.29401680591918705
57 0.37113329183511345 -1.0687027772620294 -0.4097390276027495
112 0.5601611851411041 -0.21228077790098804 -0.0917138533914126
110 -0.0003158594848737713 -0.0043780384724132725 0.22602571684752606
111 -0.5973367412296726 -0.04667942710215239 0.015155669721881499
84 0.4294285641496234 0.039880325124089185 -0.1288984568705284
13 -0.13524761786991915 -0.7804015579745962 -0.6662528499063313
83 -0.12653283550462135 -0.18037383808109575 0.10510274287518993
131 -0.026403759269641752 -0.3114609117371258 -0.006992909531371553
132 0.8102179883656397 -0.020206510579713795 -0.5929803912358067
12 -0.45821230492865767 -0.6356805500796784 0.6458811061267258
11 -0.1520740123073739 0.19337317195127293 0.05296346946518249
61 -0.09953962823944679 0.17793341591350878 0.44816976922623375
49 -0.7672419918372633 0.09288228932576256 0.254472773607412
47 0.09354377102419345 0.14777399446412706 0.2679466880135603
48 0.5390956490427444 -0.7808866900835744 0.1522253939270754
75 0.22854252199105252 0.0707174628208363 -0.1753208211744418
74 -0.1960909335924452 -0.15561429961995724 -0.1462975299413327
76 0.7470121173630426 0.5115557534656356 -0.37567592828362595
25 0.23610543102279902 1.0938371665470565 -0.23250428891166355
96 -0.08079965537960715 -0.3061866509976336 0.17429495005092097
95 -0.24373981299023542 -0.13757946176482316 0.014278615319012445
97 -0.9011638765498627 -0.7973333334157864 0.19258396973312744
144 0.10203132636668032 -0.5915775135262775 0.04499903241199914
66 0.7525977696420582 -0.28288561789331534 -0.3939128312265623
65 -0.02068677805810159 -0.22186480837915368 0.04620509332954394
67 0.34095572575325755 -0.5154261469941375 -0.0178082133348118
64 0.17144997713995078 -0.18505030825559743 0.2371437648452797
62 -0.11849357054749975 0.071414356272084 -0.05890767131457199
63 0.40295173849110055 0.3556201025471097 -0.2095830241772456
23 0.6045301654616249 -1.0329222282758241 1.0596254223960426
21 -0.10242707539972623 -0.10368057275805448 -0.2818336157317959
24 -0.20795200703997335 0.35875135215136583 0.04040551691650057
118 -0.07926896439292228 1.0309019549642089 -0.8999127638534251
36 -0.6412131607034687 0.26070509302214895 -0.6024140660175556
79 -0.43801311146199234 0.610883442359091 0.10744003239232185
156 -0.39094877356193164 0.028315071458911496 0.37512706578754185
102 0.49738016294018955 0.1364640336446193 0.24631904682065492
101 -0.05399358249093209 0.06660158403218296 0.279648424095248
41 0.13007629257583128 0.03132768200215439 -0.010244162006530515
31 0.34389950232708505 -0.22813096472963268 0.15593362625058116
42 0.5650547678912871 -0.2223588582244138 -0.034545374187919906
29 -0.22758473207767144 -0.17213463725858463 0.08712307938978399
30 -0.6839090635559024 -0.011521903688746886 0.2583057577682173
18 -0.013643413600870635 0.30686944753192913 0.4052860660553413
19 0.18070988874134175 -0.5345847173839832 -0.4859443889943477
150 -0.23257097219247108 -0.5264865982600396 0.7658811101953958
16 0.1952982301594067 0.24927994629344202 -0.1775193238440697
20 -0.0009759757166461977 0.5174731053686302 0.37787417544756796
149 0.12413050221908367 -0.02441908797864123 0.01854203879424309
98 -0.10129936848437594 -0.0424980597805305 0.17150351365245523
100 -0.4569673584784203 0.1508453401961901 0.10884882224564182
151 1.269919047945966 0.5692896898174837 0.15199525878917428
72 -0.35310681091276314 0.4087170191064471 0.38251744510464825
90 -0.36948885749788746 -0.21288238355613096 0.03712101049232192
91 -0.625991610788534 -0.056505202882821785 0.051192643517877806
89 -0.20794992621020386 -0.2764173924156599 0.20749251045600592
71 0.17493325969932338 -0.2296189419411761 -0.24904862125621796
73 0.012937901947149815 -0.42965819100174774 0.11333165797330155
126 -0.45157438459248167 1.3459421385544679 -0.27517181389162415
125 -0.2639089563048027 0.0978031169024944 0.0225258251285921
87 -0.09584341025858473 -0.03700999174719921 -0.6115733924217844
127 -0.7819798518942024 -0.8975435183469114 -0.4595797693954826
114 0.9398797097475136 0.30922338727989707 -0.5900134480655662
109 -0.06362722204660148 -0.40966730444394406 -0.1521142017091512
113 0.23294962837982613 0.0597976783354202 0.046146657732369284
107 -0.2010324039053903 -0.06071293861269726 0.060082586903183265
108 0.43353483732703385 -0.0201325255305676 -0.0683825053323591
157 0.24369381423877273 0.33927595619326734 -0.4554735740081159
155 0.3219035358588226 0.036703433258132745 -0.06493450984588224
103 0.20495542913805795 0.8497898976909093 0.24647272000961912
120 0.7937456513591126 0.7032801546848526 -0.22218567388759164
28 -0.25617189297746396 0.07349400066742381 -0.31526509393733243
26 0.1326665216165424 0.12207127853503502 0.4116037811677424
119 -0.020297782673030975 0.20609430893122227 0.1298337459834645
137 0.17816281608160145 -0.1498831638507971 0.20502912635380988
138 0.2697907289598132 -1.5980684548305493 -0.3669976533671598
78 0.2108005680942908 -0.5446759734566744 -0.5184529425283808
139 0.21158227171969898 0.2780184068953347 0.2889977633007492
43 -0.24304116773668227 -0.18801162448934344 0.8499184154397947
14 0.28915529062348955 -0.8431343133978506 -0.18388989488228577
123 0.6541619079001586 -0.12483857621580131 -0.5513385232303345
122 -0.013490643146673711 0.23047723702114511 -0.17425043655353978
124 -0.1931636606654633 -0.3422931938502524 -0.17444627266117188
50 -0.16154630623680247 -0.3067685574654817 0.26596805835805404
51 0.8580046038826091 -0.6303877243410962 0.07452747502972806
52 0.15258392803608484 0.3728401293176107 -0.04338561702032565
60 0.20258045118263093 0.7276052618443799 0.7355560227496268
59 -0.3732286183376731 -0.004739853604238059 0.015522831695900874
136 -0.09663719216750746 0.4012095594888411 -0.6863065200402376
134 -0.15040769454849398 -0.08689175117494394 0.028230724966935017
15 -0.18849637284975518 -0.5335173625789734 -0.1383731136965582
135 -0.23966188053517976 -0.2217866668629437 -0.4968264059581513
148 -0.3958676892065296 -0.13046260753250344 0.30578923189761464
146 -0.21670931686086953 -0.326402455851819 0.149262163269933
147 -0.5926467478655886 -0.6344674083482463 0.23858360523693084
22 -0.9734133839540445 -0.35718703600652435 -0.7267610534477619
116 -0.0972772965194168 -0.23876510876257878 -0.15302770498296853
117 -0.012415354913500912 0.9324208559622463 0.2424053432659539
106 -0.6513341408929446 -0.1795398448762231 -0.3916926799907442
104 0.07905503072805829 0.006958960762248736 0.13641345784069098
121 1.0152784748126944 0.9554829300605308 -0.2752523801151526
105 -0.44358797258436106 -0.9417133202181749 0.6091746666995504
77 0.3030158204319265 0.06999562180810548 0.08153613688303112

Bonds

1 1 152 153
2 1 152 154
3 1 158 159
4 1 158 160
5 1 92 93
6 1 92 94
7 1 6 7
8 1 6 8
9 1 6 9
10 1 6 10
11 1 140 141
12 1 140 142
13 1 68 69
14 1 68 70
15 1 128 129
16 1 128 130
17 1 53 54
18 1 53 55
19 1 1 2
20 1 1 3
21 1 1 4
22 1 1 5
23 1 38 39
24 1 38 40
25 1 143 144
26 1 143 145
27 1 35 36
28 1 35 37
29 1 44 45
30 1 44 46
31 1 86 87
32 1 86 88
33 1 32 33
34 1 32 34
35 1 80 81
36 1 80 82
37 1 56 57
38 1 56 58
39 1 110 111
40 1 110 112
41 1 83 84
42 1 83 85
43 1 131 132
44 1 131 133
45 1 11 12
46 1 11 13
47 1 11 14
48 1 11 15
49 1 47 48
50 1 47 49
51 1 74 75
52 1 74 76
53 1 95 96
54 1 95 97
55 1 65 66
56 1 65 67
57 1 62 63
58 1 62 64
59 1 21 22
60 1 21 23
61 1 21 24
62 1 21 25
63 1 101 102
64 1 101 103
65 1 41 42
66 1 41 43
67 1 29 30
68 1 29 31
69 1 16 17
70 1 16 18
71 1 16 19
72 1 16 20
73 1 149 150
74 1 149 151
75 1 98 99
76 1 98 100
77 1 89 90
78 1 89 91
79 1 71 72
80 1 71 73
81 1 125 126
82 1 125 127
83 1 113 114
84 1 113 115
85 1 107 108
86 1 107 109
87 1 155 156
88 1 155 157
89 1 26 27
90 1 26 28
91 1 119 120
92 1 119 121
93 1 137 138
94 1 137 139
95 1 122 123
96 1 122 124
97 1 50 51
98 1 50 52
99 1 59 60
100 1 59 61
101 1 134 135
102 1 134 136
103 1 146 147
104 1 146 148
105 1 116 117
106 1 116 118
107 1 104 105
108 1 104 106
109 1 77 78
110 1 77 79

Angles

1 1 153 152 154
2 1 159 158 160
3 1 93 92 94
4 2 7 6 8
5 2 7 6 9
6 2 7 6 10
7 2 8 6 9
8 2 8 6 10
9 2 9 6 10
10 1 141 140 142
11 1 69 68 70
12 1 129 128 130
13 1 54 53 55
14 2 2 1 3
15 2 2 1 4
16 2 2 1 5
17 2 3 1 4
18 2 3 1 5
19 2 4 1 5
20 1 39 38 40
21 1 144 143 145
22 1 36 35 37
23 1 45 44 46
24 1 87 86 88
25 1 33 32 34
26 1 81 80 82
27 1 57 56 58
28 1 111 110 112
29 1 84 83 85
30 1 132 131 133
31 2 12 11 13
32 2 12 11 14
33 2 12 11 15
34 2 13 11 14
35 2 13 11 15
36 2 14 11 15
37 1 48 47 49
38 1 75 74 76
39 1 96 95 97
40 1 66 65 67
41 1 63 62 64
42 2 22 21 23
43 2 22 21 24
44 2 22 21 25
45 2 23 21 24
46 2 23 21 25
47 2 24 21 25
48 1 102 101 103
49 1 42 41 43
50 1 30 29 31
51 2 17 16 18
52 2 17 16 19
53 2 17 16 20
54 2 18 16 19
55 2 18 16 20
56 2 19 16 20
57 1 150 149 151
58 1 99 98 100
59 1 90 89 91
60 1 72 71 73
61 1 126 125 127
62 1 114 113 115
63 1 108 107 109
64 1 156 155 157
65 1 27 26 28
66 1 120 119 121
67 1 138 137 139
68 1 123 122 124
69 1 51 50 52
70 1 60 59 61
71 1 135 134 136
72 1 147 146 148
73 1 117 116 118
74 1 105 104 106
75 1 78 77 79
