LAMMPS data file via write_data, version 29 Aug 2024, timestep = 10000, units = lj

3400 atoms
4 atom types
2400 bonds
1 bond types

-10.791198 10.791198 xlo xhi
-10.791198 10.791198 ylo yhi
-10.791198 10.791198 zlo zhi
0 0 0 xy xz yz

Masses

1 1
2 1
3 1
4 1

Bond Coeffs # zero

1 0

Atoms # bond

2376 659 4 -6.511523638916277 -2.075066288370479 -10.774323593878114 1 0 0
3308 970 2 -10.53484841495005 -9.920795648637041 -10.539264102830357 1 1 1
3309 970 4 -10.189740780472617 -9.874058572670398 -10.504341442595345 1 1 1
2735 779 2 -4.0695344754484 -7.112342413155005 -9.385564927514308 1 0 1
2737 779 4 -4.142745420273141 -7.389796548452365 -9.185156788631826 1 0 1
1436 346 2 -3.7230349488368866 -6.149638345746234 -9.702129672128427 0 0 1
1437 346 4 -3.9186114373085106 -6.4357971789745285 -9.653404404642357 0 0 1
2736 779 4 -3.99632353062366 -6.834888277857646 -9.58597306639679 1 0 1
1084 228 4 -2.9712598965014783 -7.312065885366296 -10.588139582916034 0 0 0
2282 628 2 -8.317300941104186 -4.867003489388719 -9.224975416934901 1 0 0
2284 628 4 -8.057601842119963 -4.666857215024509 -9.347483547300932 1 0 0
1438 346 4 -3.5274584603652643 -5.863479512517938 -9.750854939614499 0 0 1
1125 242 4 -1.6631782170813132 -4.794449941981882 -9.56321368216797 0 0 0
22 5 3 -1.9820516493221891 -4.9731043495357214 -9.389014512199104 0 0 0
1124 242 2 -1.4002870472818518 -4.619469927984304 -9.714142232736819 0 0 0
2312 638 2 -10.551667176509723 -4.341307329918461 -9.986393296619987 1 0 0
2314 638 4 -10.225213674574489 -4.30422752054515 -10.107039969860837 1 0 0
2656 752 4 -9.819417149931455 -4.295189048285972 -10.17275218028258 1 0 1
2654 752 2 -9.479465765541141 -4.2666577270562405 -10.250988743373894 1 0 1
2655 752 4 -9.139514381150828 -4.238126405826511 -10.329225306465206 1 0 1
2745 782 4 -8.764079389686062 -4.321841212049556 -10.453721576870048 1 0 1
2744 782 2 -8.414322699677186 -4.333224264965296 -10.460037243047418 1 0 1
2746 782 4 -8.064566009668306 -4.34460731788104 -10.466352909224787 1 0 1
630 126 3 -7.725666986702373 -4.471323800954111 -9.502669978942542 1 0 1
626 126 1 -7.52213395300814 -4.24790763416429 -9.843358421110658 1 0 1
628 126 3 -7.707464970315751 -4.375295629822822 -10.249227161238291 1 0 1
627 126 3 -7.584643541935607 -3.7957143513075913 -9.786718056499872 1 0 1
2692 764 4 -7.415297244755699 -3.4467147550201584 -9.965255072067245 1 0 1
629 126 3 -7.066911854504532 -4.3376999115027095 -9.84193969005244 1 0 1
2690 764 2 -7.2272732975076295 -3.201428589415033 -10.129544193913286 1 0 1
2697 766 4 -6.732568038978389 -4.269932218156121 -10.043141721840394 1 0 1
2696 766 2 -6.4164207578209025 -4.184516853135802 -10.166675169655855 1 0 1
2698 766 4 -6.100273476663417 -4.099101488115484 -10.290208617471315 1 0 1
2790 797 4 -5.756669905181261 -3.9081490181178227 -10.463644036565816 1 0 1
2789 797 2 -5.4449477083219975 -3.8061454038891407 -10.585836073637244 1 0 1
1126 242 4 -1.1373958774823905 -4.444489913986728 -9.865070783305665 0 0 0
1017 206 4 -0.812751465767743 -4.255096063785501 -10.064331608442007 0 0 0
1016 206 2 -0.5448898173676788 -4.196659511985523 -10.281905589602953 0 0 0
1018 206 4 -0.27702816896761284 -4.138222960185545 -10.499479570763901 0 0 0
2375 659 2 -6.671428789076689 -2.3567985541628094 -10.641785740198058 1 0 0
2377 659 4 -6.831333939237101 -2.6385308199551396 -10.509247886518002 1 0 0
2691 764 4 -7.039249350259559 -2.956142423809908 -10.293833315759327 1 0 1
2138 580 2 -1.0868386641351577 -1.7246944759461211 -10.46064531697895 0 0 1
2140 580 4 -1.1625609521955305 -1.5783481473616092 -10.151862754889178 0 0 1
2139 580 4 -1.0111163760747814 -1.8710408045306348 -10.769427879068722 0 0 1
3000 867 4 -0.15408312247411082 -1.619741104698793 -10.557219498520372 1 0 0
711 143 1 -7.824708582773214 -0.010231531453209541 -3.639132359444357 1 0 0
898 180 3 -7.0729374382725965 -0.15469702142122976 -10.727402004695684 1 0 1
1237 279 4 -6.95830067266505 -9.072778115752941 -0.1952627620812155 0 0 0
174 35 3 -0.8726082626265317 -1.3372385614220565 -9.980397111222548 0 0 1
173 35 3 -0.5770053389650709 -0.6921214854128586 -9.708218851066267 0 0 1
171 35 1 -0.8112535102999967 -1.0779312004223893 -9.600530729222339 0 0 1
172 35 3 -0.5677082976174326 -1.318983322348041 -9.293662904425352 0 0 1
175 35 3 -1.2148584250873409 -0.9693195494720452 -9.419705358545668 0 0 1
1782 461 4 -0.2536308248826753 -0.4081825547788487 -9.714664928521689 0 0 0
2646 749 4 -5.363431442716434 -7.385709846004055 -0.17777705611286088 1 0 0
267 54 3 -6.655720977752856 -10.511430759869562 -8.809408511425369 1 1 0
1370 324 2 -5.440084163928972 -10.437684527805828 -9.297117440323449 0 0 1
1371 324 4 -5.773902660104564 -10.518029153645417 -9.365053562891232 0 0 1
1372 324 4 -5.106265667753381 -10.35733990196624 -9.229181317755666 0 0 1
2436 679 4 -10.454046899067976 -7.531166840026614 -8.888789817673912 1 0 0
2269 623 4 -10.58980613721963 -6.613876094885983 -7.9523768442608365 1 0 0
2435 679 2 -10.192293184542823 -7.2989470721339815 -8.880356036174065 1 0 0
508 102 3 -10.274226827821911 -6.3833608643041755 -8.134874392824711 1 0 0
2437 679 4 -9.930539470017665 -7.0667273042413505 -8.871922254674221 1 0 0
509 102 3 -9.887632629536663 -6.673568914125606 -8.721305782059058 1 0 0
506 102 1 -9.864571420485825 -6.392848657981451 -8.352570629965847 1 0 0
510 102 3 -9.540331552000797 -6.53733483721922 -8.067293778732815 1 0 0
2341 647 4 -9.13408559012841 -6.535909344720547 -8.022632450099083 1 0 0
2339 647 2 -8.786164910476717 -6.498091301707873 -8.01777160500346 1 0 0
2340 647 4 -8.438244230825022 -6.460273258695199 -8.012910759907838 1 0 0
28 6 3 -7.149487913118666 -7.490753818778847 -7.77656255583373 0 0 0
2315 639 2 -6.500451105646798 -7.153177732186665 -7.92355075799136 1 0 0
1234 278 4 -5.920917224899729 -6.822069873428605 -8.264392379501475 0 0 0
2317 639 4 -6.182560323191971 -7.040904298029907 -8.01761065606026 1 0 0
2316 639 4 -6.8183418881016244 -7.265451166343425 -7.829490859922461 1 0 0
1232 278 2 -5.633217013405213 -6.712636995621979 -8.431003694284408 0 0 0
1233 278 4 -5.345516801910695 -6.6032041178153555 -8.59761500906734 0 0 0
1141 247 4 -4.384550520221214 -6.2605979540303025 -8.44403775193569 0 0 0
1025 209 2 -2.683257199820014 -7.487470532254951 -8.040339533301932 0 0 0
1026 209 4 -3.0126004591967526 -7.605172810469596 -8.026666788215271 0 0 0
1027 209 4 -2.353913940443274 -7.369768254040305 -8.054012278388594 0 0 0
2324 642 2 -10.733949974114486 -5.675773651279434 -7.8408165600209925 1 0 0
507 102 3 -9.762185793101388 -5.96775233103954 -8.495465693104547 1 0 0
2245 615 4 -9.466438164868064 -5.708339370787016 -8.70960537450313 1 0 0
2243 615 2 -9.18958812094882 -5.536399055792675 -8.83727722458251 1 0 0
2244 615 4 -8.912738077029571 -5.364458740798335 -8.964949074661886 1 0 0
2283 628 4 -8.57700004008841 -5.067149763752928 -9.102467286568872 1 0 0
1139 247 2 -4.1035546722819705 -6.085257323346526 -8.557205107487716 0 0 0
1140 247 4 -3.8225588243427273 -5.909916692662748 -8.670372463039742 0 0 0
1207 269 4 -3.482850490366469 -5.708317643735892 -8.744274194454565 0 0 0
1205 269 2 -3.1689684389955124 -5.5557027469788665 -8.770662288313185 0 0 0
1206 269 4 -2.8550863876245565 -5.403087850221841 -8.797050382171804 0 0 0
23 5 3 -2.5366653586131864 -5.3051304406156214 -9.00547945975851 0 0 0
21 5 1 -2.0801985968922843 -5.222340596998689 -9.015044778975376 0 0 0
25 5 3 -1.9565538442199486 -4.990095007139861 -8.643319472091346 0 0 0
24 5 3 -1.847009654772238 -5.622905534184107 -9.036304254586076 0 0 0
1054 218 4 -1.70661646632127 -4.7665933279855555 -8.39209428735136 0 0 0
1052 218 2 -1.4094646214831918 -4.6277072005752204 -8.269948151173796 0 0 0
1053 218 4 -1.112312776645119 -4.488821073164885 -8.147802014996234 0 0 0
566 114 1 -2.4845394350583057 -1.661801537612666 -7.801200541839899 1 0 0
568 114 3 -2.3961522227279204 -1.8977487078163016 -8.190831729080028 1 0 0
41 9 1 -10.411180435340473 -0.5249706003561361 -8.082003724143867 1 0 0
42 9 3 -10.166046624821933 -0.13656862225309752 -8.107933609011338 1 0 0
43 9 3 -10.30932971693409 -0.7403240152972543 -7.683826689912058 1 0 0
45 9 3 -10.305683338116875 -0.7927713987216887 -8.434916523166136 1 0 0
570 114 3 -2.5366833946099625 -1.2194104926006961 -7.8958924380838145 1 0 0
2275 625 4 -2.4555346967093943 -0.8362222613255934 -7.926760379652753 1 0 0
2273 625 2 -2.3487961777114403 -0.5519304214284642 -7.752716975584049 1 0 0
2274 625 4 -2.2420576587134846 -0.26763858153133313 -7.578673571515344 1 0 0
2079 560 4 -10.249246318799422 -8.551362390342485 -7.639748792453002 0 1 1
1246 282 4 -9.861189691268812 -8.458113575970795 -7.626489111954641 0 0 0
1244 282 2 -9.523177211155 -8.367419139997189 -7.621177458854481 0 0 0
1245 282 4 -9.185164731041185 -8.276724704023582 -7.615865805754321 0 0 0
1817 473 2 -8.500594480784379 -8.005960165944316 -7.620592667953745 0 1 0
1819 473 4 -8.848577351872558 -8.030852724869973 -7.592485473680357 0 1 0
1818 473 4 -8.152611609696201 -7.98106760701866 -7.648699862227132 0 1 0
2467 689 4 -7.423112402306451 -7.5344607681790166 -6.727496673179148 1 0 0
2465 689 2 -7.650236078093231 -7.631255364852162 -6.479403870528187 1 0 0
2466 689 4 -7.877359753880011 -7.728049961525308 -6.231311067877225 1 0 0
29 6 3 -7.887507193012418 -7.641270226944737 -7.675100395629957 0 0 0
27 6 3 -7.466341603084425 -7.400482080962097 -7.101026448850475 0 0 0
26 6 1 -7.536229264471632 -7.363247841724668 -7.554158665490877 0 0 0
30 6 3 -7.638219180493144 -6.931063124782252 -7.655181484233725 0 0 0
1066 222 4 -7.408991281093016 -6.624185796624203 -7.51681090076935 0 0 0
1064 222 2 -7.262443690850146 -6.307375236091331 -7.4910396553604714 0 0 0
1065 222 4 -7.115896100607278 -5.990564675558459 -7.465268409951593 0 0 0
2471 691 2 -10.5711057420969 -4.9990447283024 -7.008540471091871 1 0 0
2472 691 4 -10.658191278951481 -5.218517392088967 -7.266903938359132 1 0 0
2473 691 4 -10.484020205242324 -4.7795720645158335 -6.750177003824607 1 0 0
2325 642 4 -10.674540178314754 -5.466569037094818 -7.566578723663868 1 0 0
551 111 1 -8.673588282607728 -1.5813269502657956 -6.428371110555956 1 0 0
553 111 3 -8.21820510681267 -1.50883638673219 -6.376622839615066 1 0 0
555 111 3 -8.785513499762468 -1.9908217123413134 -6.263459162903034 1 0 0
2904 835 4 -5.330858991095951 -1.422028099982219 -7.0772706171825295 1 0 0
569 114 3 -2.8685082581189265 -1.826939410654747 -7.599681046279659 1 0 0
567 114 3 -2.1305908195931913 -1.7141365425173873 -7.512102426896046 1 0 0
1734 445 4 -10.517002131164086 -0.9291596962128033 -7.3744925575978115 1 0 0
1735 445 4 -10.172068842528832 -1.2025262328139483 -6.830182991571982 1 0 0
1733 445 2 -10.34453548684646 -1.0658429645133776 -7.102337774584896 1 0 0
552 111 3 -8.776795717777379 -1.5650364521045734 -6.876347124124234 1 0 0
554 111 3 -8.91269686886688 -1.2508595122693382 -6.2072318969626545 1 0 0
1243 281 4 -7.8231286601068115 -1.4544550043702014 -6.422131736078472 1 0 0
1241 281 2 -7.489744723880684 -1.3478858765322244 -6.419834426411501 1 0 0
1242 281 4 -7.156360787654556 -1.2413167486942474 -6.41753711674453 1 0 0
487 98 3 -6.768856216834141 -1.1654821717827009 -6.418667492346677 1 0 0
2903 835 2 -5.600987344065144 -1.3042879685010487 -6.888427896293255 1 0 0
2905 835 4 -5.871115697034337 -1.1865478370198783 -6.69958517540398 1 0 0
490 98 3 -6.035102886235403 -1.2733920115849262 -6.335326743898661 1 0 0
813 163 3 -1.9181785878722 -0.13491268957726454 -7.384963375898574 1 0 0
1057 219 4 -1.992409610456182 -1.4772661833959209 -7.254262915486342 0 0 0
811 163 1 -1.6010755034486355 -0.02665585936551018 -7.063975902374641 1 0 0
812 163 3 -1.4970345230275761 -0.40515757046403245 -6.824175877941752 1 0 0
1055 219 2 -1.8521150261211972 -1.3295038294259687 -6.969679250830731 0 0 0
1056 219 4 -1.711820441786216 -1.1817414754560165 -6.685095586175118 0 0 0
548 110 3 -1.447212405470907 -1.1890729555158916 -6.380858546922144 1 0 0
546 110 1 -1.1095243687021803 -1.3772502361389822 -6.1242588752870875 1 0 0
2868 823 4 -0.5454070627738918 -1.472988637902393 -6.74412927630559 1 0 0
547 110 3 -0.7871242034006851 -1.5476403890670394 -6.404641367867734 1 0 0
2869 823 4 -0.43519939482564673 -1.0283906601436872 -7.273465375341434 1 0 0
2867 823 2 -0.4903032287997675 -1.250689649023041 -7.008797325823513 1 0 0
2264 622 2 -10.04875589157124 -8.230051235950416 -5.876164207379984 1 0 0
2265 622 4 -10.275195734336327 -8.465292900094404 -6.002247553318243 1 0 0
2266 622 4 -9.822316048806154 -7.994809571806428 -5.750080861441724 1 0 0
1697 433 2 -9.169012205445227 -7.64560966904389 -5.644437159453905 0 1 0
1698 433 4 -9.484305183629003 -7.763323162185477 -5.7405688095459615 0 1 0
2774 792 2 -8.532833761210828 -8.404373277506819 -4.8832837549324015 1 0 0
2775 792 4 -8.803709874402664 -8.621179816395822 -4.837101495682334 1 0 0
2776 792 4 -8.261957648018988 -8.18756673861782 -4.9294660141824655 1 0 0
574 115 3 -7.958827232682152 -7.678069551518417 -5.84837435668827 1 0 0
572 115 3 -8.09573409629851 -7.883931038991282 -5.138597493852666 1 0 0
1699 433 4 -8.85371922726145 -7.5278961759023 -5.5483055093618505 0 1 0
575 115 3 -8.515446236858999 -7.355483117569312 -5.4572511481812045 1 0 0
571 115 1 -8.095084880563626 -7.528631128737453 -5.430764564487801 1 0 0
1179 260 4 -7.551819760652046 -6.908983178290381 -5.210992474152935 0 0 0
573 115 3 -7.800565301031103 -7.206097028307024 -5.2740834590128465 1 0 0
1178 260 2 -7.217499783379857 -6.81643048928205 -5.164405556343469 0 0 0
1180 260 4 -6.883179806107666 -6.723877800273719 -5.1178186385340085 0 0 0
60 12 3 -6.579221878825492 -6.47189349243478 -5.102656179024628 0 0 0
58 12 3 -5.870385015373587 -6.551579899653587 -5.343672943006106 0 0 0
56 12 1 -6.218958380492538 -6.253112119973097 -5.275169036929596 0 0 0
1008 203 4 -5.635347751572459 -6.853503999485437 -5.222980285245218 0 0 0
1007 203 2 -5.4933669224195345 -6.981384717431024 -4.929749429697701 0 0 0
1009 203 4 -5.351386093266612 -7.109265435376609 -4.636518574150185 0 0 0
59 12 3 -6.084573336795942 -5.916408674243404 -4.985547735723753 0 0 0
57 12 3 -6.334916540498305 -6.064812965913029 -5.678520950758049 0 0 0
1149 250 4 -5.312104587260342 -5.535113019896751 -5.009104696109094 0 0 0
1148 250 2 -5.076906154853865 -5.303346504312193 -5.125194666970085 0 0 0
1150 250 4 -4.841707722447387 -5.071579988727637 -5.2412846378310745 0 0 0
588 118 3 -4.478134479035393 -4.8868205844324235 -5.2706507239389015 1 0 0
1074 225 4 -1.0723572019386651 -5.624552782897436 -4.681628078561811 0 0 0
1159 253 4 -0.7478944384906807 -5.427498841709369 -4.8912834433843075 0 0 0
1162 254 4 -0.024366387829148906 -4.677388552932473 -5.219215425026397 0 0 0
1158 253 4 -0.2736602689798602 -4.978197550472428 -5.142824523423794 0 0 0
1157 253 2 -0.5107773537352713 -5.2028481960908985 -5.017053983404051 0 0 0
2329 643 4 -10.39252790722018 -4.295752923157817 -5.277098369245525 1 0 0
2327 643 2 -10.071824509371984 -4.172514789115476 -5.210243321925554 1 0 0
2328 643 4 -9.751121111523789 -4.049276655073135 -5.143388274605579 1 0 0
2078 560 2 -10.59697550703029 -8.582465461870035 -7.664631993079448 0 1 1
598 120 3 -9.349958901811728 -3.9404305692516255 -5.213278755959671 1 0 0
600 120 3 -8.975156234319831 -4.425939131068774 -4.7766232847868375 1 0 0
599 120 3 -8.810342667399613 -4.385641198920399 -5.51018575188593 1 0 0
597 120 3 -8.626518142445303 -3.8236086428323173 -5.046236821682294 1 0 0
596 120 1 -8.941803669600468 -4.146671830044197 -5.134812121968175 1 0 0
2365 655 4 -8.241524323787461 -3.6970181328524996 -5.116477485135026 1 0 0
2364 655 4 -7.601576265105026 -3.422568474095355 -5.044512264728499 1 0 0
2363 655 2 -7.921550294446242 -3.559793303473927 -5.080494874931762 1 0 0
500 100 3 -7.247219445304493 -3.245352763879799 -4.981777739713107 1 0 0
496 100 1 -6.8034410085494095 -3.1442689182767314 -4.997643643189969 1 0 0
497 100 3 -6.611180937106944 -3.2419783270868265 -4.591336888213295 1 0 0
499 100 3 -6.595271353576292 -3.396640794265278 -5.326677567106655 1 0 0
586 118 1 -4.221221660465071 -4.6204685581465785 -4.990711289617515 1 0 0
590 118 3 -3.9439254260318997 -4.357181337936965 -5.238100131445915 1 0 0
2254 618 4 -3.6245838097607956 -4.173382472808326 -5.433695644862431 1 0 0
2252 618 2 -3.3710085020847496 -3.9386408120983933 -5.4894434739751015 1 0 0
2253 618 4 -3.1174331944087026 -3.7038991513884607 -5.545191303087771 1 0 0
2217 606 4 -2.8303835458836897 -3.3873166394741956 -5.6085376034886165 1 0 0
2216 606 2 -2.551440844188491 -3.1795246635064363 -5.64758956725027 1 0 0
498 100 3 -6.74705029108598 -2.6921361471009764 -5.085399790477366 1 0 0
2261 621 2 -6.525800626222005 -2.1257898588559723 -5.501283233721265 1 0 0
2263 621 4 -6.553521746872416 -1.8180783803767326 -5.665732248658181 1 0 0
489 98 3 -6.50566009095753 -1.449807430596124 -5.774639558903906 1 0 0
2262 621 4 -6.498079505571595 -2.43350133733521 -5.3368342187843485 1 0 0
2218 606 4 -2.272498142493294 -2.971732687538678 -5.686641531011923 1 0 0
549 110 3 -1.2807888905306495 -1.7222022470653062 -5.865437724414308 1 0 0
1399 333 4 -1.5738959889554973 -2.062927141626119 -5.832763804739528 0 0 1
1397 333 2 -1.7934292764486397 -2.331846271426242 -5.788048662707176 0 0 1
1398 333 4 -2.012962563941782 -2.6007654012263703 -5.743333520674825 0 0 1
2499 700 4 -8.843150358268066 -1.0560965401795315 -5.8209644570162 1 0 0
2500 700 4 -8.614091112803907 -0.6440747417035251 -5.3034813428659495 1 0 0
2827 809 4 -8.456687164677893 -0.4654142196192712 -4.9526230514663405 1 0 0
2498 700 2 -8.728620735535989 -0.8500856409415274 -5.562222899941073 1 0 0
2825 809 2 -8.292553675139462 -0.3194276283434885 -4.6801291894728365 1 0 0
2998 866 4 -5.829026641185178 -0.04463008433487836 -5.445868124764796 1 0 0
486 98 1 -6.418494731151588 -1.153406739302003 -6.120838918444536 1 0 0
488 98 3 -6.378235436577895 -0.722325924429521 -5.9539497654329345 1 0 0
2997 866 4 -6.071008655060842 -0.4732993254784059 -5.943570978754779 1 0 0
2996 866 2 -5.9500176481230085 -0.2589647049066439 -5.694719551759787 1 0 0
550 110 3 -0.9227517211886749 -1.059878094464322 -5.856298512342396 1 0 0
2992 864 4 -0.6094499743842476 -0.760881573650142 -5.814749423607022 1 0 0
2991 864 4 -0.16460054792087675 -0.25799700512056667 -5.616605946390802 1 0 0
2990 864 2 -0.3870252611525604 -0.509439289385357 -5.715677684998914 1 0 0
1762 454 4 -9.573769961654465 -9.347232539246203 -4.4575839139344495 0 1 0
1105 235 4 -10.124514317159418 -10.487704595364765 -3.7508817813002846 1 0 0
1273 291 4 -7.596829614864495 -10.663609948982728 -3.487098409153047 0 0 0
1272 291 4 -6.997550042810822 -10.30636943894595 -3.544422301376695 0 0 0
1271 291 2 -7.297189828837658 -10.484989693964339 -3.515760355264873 0 0 0
2385 662 4 -10.177612700572126 -8.265888592707151 -3.1763097283779 1 0 0
1760 454 2 -9.327256474655426 -9.12005319410658 -4.5582409847639225 0 1 0
2386 662 4 -9.592750671746323 -8.44945146055602 -3.5142736445840077 1 0 0
2384 662 2 -9.885181686159223 -8.357670026631586 -3.3452916864809534 1 0 0
1761 454 4 -9.080742987656391 -8.892873848966959 -4.658898055593396 0 1 0
1704 435 4 -5.070345515415896 -7.27054360329093 -4.3779373223475675 0 1 0
1703 435 2 -4.775417926933512 -7.299345555770961 -4.191694292467699 0 1 0
1705 435 4 -4.48049033845113 -7.328147508250991 -4.00545126258783 0 1 0
1044 215 4 -4.114394934345604 -7.1685162321941585 -3.9127146211570425 0 0 0
1043 215 2 -3.821953806893365 -7.048725181675154 -3.762264305728338 0 0 0
1045 215 4 -3.529512679441127 -6.92893413115615 -3.611813990299628 0 0 0
1268 290 2 -2.8292354890886395 -6.597881328832063 -3.535413372238618 0 0 0
1269 290 4 -3.1549013310583414 -6.725888228509023 -3.543433991931064 0 0 0
1270 290 4 -2.5035696471189386 -6.469874429155103 -3.52739275254617 0 0 0
50 10 3 -1.6592352940080666 -6.426745112312164 -4.218572643763063 0 0 0
1075 225 4 -1.4386916057702521 -6.201914278575692 -4.531644392716623 0 0 0
49 10 3 -2.1214793998321735 -6.37418251054538 -3.626573741612119 0 0 0
48 10 3 -1.5618681011319158 -6.888333007414797 -3.6317615549007893 0 0 0
47 10 3 -1.4043718892995134 -6.155879782767277 -3.5715097224107453 0 0 0
46 10 1 -1.6875761382236245 -6.462163099399905 -3.765425246680948 0 0 0
1003 201 4 -1.7711817110902217 -7.115675911507575 -3.3471581161005304 0 0 0
2401 667 4 -9.796024361236617 -6.067621406636162 -3.1157594987518262 1 0 0
512 103 3 -9.522371498635891 -5.9311622647042945 -3.364561746033475 1 0 0
2427 676 4 -9.15538554611615 -5.180963627309583 -4.057492179169638 1 0 0
2426 676 2 -9.154097676784652 -4.9035768339324415 -4.270928302941456 1 0 0
515 103 3 -9.305078302929651 -5.559835278168879 -3.9744109668715986 1 0 0
514 103 3 -8.994345210576999 -6.225844525501738 -3.810901844417552 1 0 0
513 103 3 -8.840417696521323 -5.615757997927245 -3.384616109977512 1 0 0
511 103 1 -9.165102640316531 -5.831218513307657 -3.636549522762527 1 0 0
2221 607 4 -8.479931699225578 -5.633646996726886 -3.1718428604382938 1 0 0
587 118 3 -3.969101604998807 -4.891545267149657 -4.717692561399263 1 0 0
1042 214 4 -3.676859782442471 -4.84489313796667 -4.455475041116591 0 0 0
1041 214 4 -3.1151231461389743 -5.1165845509687875 -4.1382918085938964 0 0 0
1040 214 2 -3.3959914642907227 -4.980738844467728 -4.2968834248552445 0 0 0
1073 225 2 -1.2555244038544586 -5.913233530736564 -4.6066362356392165 0 0 0
1144 248 4 -1.0394804625813538 -6.017475812375711 -3.6449490122899357 0 0 0
1142 248 2 -0.7505211204117082 -5.823384566852745 -3.6083115519072546 0 0 0
1143 248 4 -0.4615617782420607 -5.6292933213297776 -3.571674091524577 0 0 0
15 3 3 -0.11411932591032503 -5.480246151643465 -3.6624700816968208 0 0 0
2428 676 4 -9.152809807453153 -4.626190040555298 -4.4843644267132765 1 0 0
2383 661 4 -6.658191679135067 -3.4576726047597317 -3.594701155083756 1 0 0
2382 661 4 -6.483322393009153 -3.169517008928085 -4.208213308543767 1 0 0
2381 661 2 -6.570757036072111 -3.3135948068439083 -3.9014572318137635 1 0 0
1189 263 4 -5.053600364954902 -3.705339778449579 -4.226437748193901 0 0 0
1187 263 2 -4.836618946846606 -3.9714371153155463 -4.294259007139737 0 0 0
589 118 3 -4.496604942325468 -4.356287285727394 -4.7267837380893125 1 0 0
1188 263 4 -4.61963752873831 -4.2375344521815155 -4.3620802660855755 0 0 0
1771 457 4 -9.529774224611595 -0.7362014646763217 -3.226211991449893 1 0 0
1694 432 2 -10.727860155942029 -1.2296195733262838 -2.627162850986643 1 0 0
2826 809 4 -8.12842018560103 -0.17344103706770575 -4.407635327479331 1 0 0
3016 872 4 -9.136130018823781 -0.6007599371107482 -3.212701120379756 1 0 0
3015 872 4 -8.559412091689925 -0.21207331523521233 -3.292475636957273 1 0 0
3014 872 2 -8.847771055256853 -0.406416626172982 -3.2525883786685155 1 0 0
713 143 3 -7.5968196999514985 -0.38743141056759534 -3.493978251931953 1 0 0
3124 908 4 -3.705285824142016 -1.001754772458705 -3.1665001530044403 1 0 0
3122 908 2 -3.466170209102991 -0.8126447354490427 -2.994540390206061 1 0 0
801 161 1 -10.502702457056019 -8.169014026791698 -2.454285621117716 1 1 0
804 161 3 -10.119248942250382 -8.110793064196937 -2.199573653455337 1 1 0
805 161 3 -10.392018592301755 -8.31961523410422 -2.8695747064397086 1 1 0
802 161 3 -10.772818059751456 -8.478859558744842 -2.24776674698831 1 1 0
2857 819 4 -9.81758791946155 -7.851586217067929 -2.176766876377558 1 1 0
1002 201 4 -1.6982332673116485 -7.547299700724412 -2.8009226998077166 0 0 0
1211 271 2 -1.3100654465579638 -8.187156162357214 -2.5715266929646763 0 0 0
1213 271 4 -1.6532530630645486 -8.255704588359135 -2.5768255717587696 0 0 0
1247 283 2 -0.5240502277632846 -9.212052216734662 -1.6705350848464207 0 0 0
1212 271 4 -0.9668778300513736 -8.118607736355292 -2.566227814170581 0 0 0
285 57 3 -0.16275092042358885 -8.684041975070983 -2.927903647486211 0 1 0
284 57 3 -0.5657324829969141 -8.15789106891057 -2.570652089642941 0 1 0
281 57 1 -0.21597257418860494 -8.460629188286791 -2.5346457121649397 0 1 0
283 57 3 -0.3015726622061212 -8.76152399504811 -2.191950380106684 0 1 0
1248 283 4 -0.5093084173553173 -8.939379430785685 -1.889471226274333 0 0 0
2416 672 4 -10.460227501575112 -6.819212514190058 -2.7263308168415588 1 0 0
2400 667 4 -10.26439637619978 -6.491242989819019 -2.81374610407324 1 0 0
2399 667 2 -10.030210368718198 -6.279432198227591 -2.9647528014125335 1 0 0
2414 672 2 -10.634736697040237 -7.111734903424651 -2.645786411646771 1 0 0
2856 819 4 -9.506592313015199 -7.22511485153704 -2.205995680405751 1 1 0
2855 819 2 -9.662090116238376 -7.538350534302483 -2.1913812783916526 1 1 0
1001 201 2 -1.734707489200936 -7.331487806115994 -3.074040407954124 0 0 0
2210 604 2 -7.55649188634812 -5.370005833574716 -2.131830126390641 1 0 0
2211 604 4 -7.730564078625573 -5.323785762292974 -2.4319317220865013 1 0 0
2220 607 4 -7.960017643586144 -5.399472218330806 -2.765793728540263 1 0 0
2219 607 2 -8.219974671405861 -5.516559607528847 -2.968818294489277 1 0 0
2212 604 4 -7.382419694070659 -5.416225904856461 -1.8317285306947806 1 0 0
1696 432 4 -10.405748718469962 -1.134885259810476 -2.7260351656346753 1 0 0
1769 457 2 -9.829808776875804 -0.8857031042558905 -3.12552684796481 1 0 0
1770 457 4 -10.129843329140012 -1.0352047438354592 -3.024841704479729 1 0 0
3354 985 4 -4.176753800411916 -0.42129930759515766 -1.768671588774053 1 0 0
3353 985 2 -3.8522021531956057 -0.40410514788374563 -1.8985627171723571 1 0 0
3355 985 4 -3.527650505979296 -0.3869109881723354 -2.0284538455706613 1 0 0
3123 908 4 -3.227054594063966 -0.6235346984393804 -2.8225806274076826 1 0 0
847 170 3 -3.147525615077657 -0.2791586409519038 -1.9806416727825482 1 0 0
849 170 3 -2.9413150275810844 -0.37840256522870064 -2.696549309262556 1 0 0
846 170 1 -2.87255792484651 -0.12350735235703958 -2.314967868675863 1 0 0
803 161 3 -10.733121956192564 -7.767671980837838 -2.487646070003871 1 1 0
848 170 3 -2.43140616991613 -0.1616762770137612 -2.176314002374882 1 0 0
3259 953 4 -10.173384215193979 -10.498870053116038 -0.23339745132799905 2 1 0
2791 797 4 -5.1332255114627365 -3.704141789660456 -10.708028110708673 1 0 1
1249 283 4 -0.5387920381712501 -9.484725002683637 -1.4515989434185101 0 0 0
79 16 3 -8.266727688316804 -8.443568468284603 -0.3796208641113221 0 0 0
2332 644 4 -7.915179479312793 -8.287186891570977 -0.5338871262609199 1 0 0
2330 644 2 -7.684940119887335 -8.062995612285926 -0.6725897963599099 1 0 0
2331 644 4 -7.454700760461877 -7.838804333000878 -0.8112924664589016 1 0 0
2492 698 2 -10.695306419742936 -7.046693777896613 -0.8927522287372405 1 0 0
2493 698 4 -10.42422027871503 -6.944641188285152 -0.6962754972889087 1 0 0
2506 702 4 -10.156501554720164 -6.812933254750365 -0.4542591288072213 1 0 0
2504 702 2 -9.936926268761155 -6.738185286167081 -0.19214709647356543 1 0 0
1222 274 4 -7.118072292171676 -7.646558410060576 -0.9921147325785871 0 0 0
1220 274 2 -6.901266801668623 -7.376161986903018 -1.0410317805890443 0 0 0
268 54 3 -6.0844084339151525 -10.722807615599597 -9.249633055513732 1 1 0
1221 274 4 -6.684461311165569 -7.105765563745458 -1.089948828599498 0 0 0
38 8 3 -6.5437390049792885 -6.772925011896986 -0.9348302803924042 0 0 0
39 8 3 -6.573181781706872 -6.488262192200853 -0.23077167138473165 0 0 0
36 8 1 -6.4558654561235045 -6.401325579815672 -0.6712043505988206 0 0 0
2647 749 4 -4.959622350383522 -6.99756237417065 -0.5976712130707504 1 0 0
2645 749 2 -5.1615268965499785 -7.191636110087353 -0.38772413459180477 1 0 0
1524 375 4 -4.669766372899308 -6.781305920297894 -0.7742533611397793 0 0 0
1523 375 2 -4.413222077989874 -6.70587307184292 -1.0000824567848454 0 0 0
1525 375 4 -4.156677783080441 -6.6304402233879465 -1.225911552429908 0 0 0
2640 747 4 -7.136322770142241 -5.3744558523307 -1.5035879615426744 1 0 0
2639 747 2 -7.0185216586000685 -5.540918057768841 -1.2191423426337042 1 0 0
40 8 3 -6.689133193977582 -6.042219404771886 -0.8261629342757502 0 0 0
2641 747 4 -6.9007205470578965 -5.707380263206983 -0.9346967237247341 1 0 0
37 8 3 -6.005609316094117 -6.308939222038186 -0.6897108003381227 0 0 0
1068 223 4 -5.862171427001055 -5.938675801459523 -0.6732462920900364 0 0 0
1067 223 2 -5.557972921339607 -5.777901505669911 -0.7374699339075139 0 0 0
1069 223 4 -5.253774415678157 -5.617127209880303 -0.8016935757249932 0 0 0
2802 801 4 -5.045970987285713 -0.6581295799983096 -1.1285312584666016 1 0 0
2803 801 4 -4.53648102546471 -0.5256618861611599 -1.5899267362394482 1 0 0
2801 801 2 -4.7912260063752115 -0.5918957330797348 -1.359228997353025 1 0 0
2424 675 4 -1.7234667509188846 -1.228903223906748 -1.2603497953854657 1 0 0
2786 796 2 -0.8878700481235793 -0.41619129937456556 -0.3943298572002192 1 0 0
2788 796 4 -1.0892767242021382 -0.5753840171728282 -0.6322362288524968 1 0 0
2425 675 4 -1.3393932106747481 -0.79035637853171 -0.8727961023044006 1 0 0
2787 796 4 -0.686463372045024 -0.2569985815763065 -0.15642348554793983 1 0 0
2423 675 2 -1.5314299807968155 -1.00962980121923 -1.0665729488449323 1 0 0
2209 603 4 -10.654334084822029 -8.511608931839689 -6.191369863225716 1 0 0
2967 856 4 -5.423203352053268 -0.05850375074762759 -10.165849709668343 1 0 0
714 143 3 -7.907388993837804 -0.04064382922347498 -4.094697442238791 1 0 0
1103 235 2 -9.972031888988866 -10.78987069443211 -3.6618001234999253 1 0 0
1235 279 2 -7.268592433568663 -9.047818177824377 -0.03528002665319008 0 0 0
3340 980 4 -10.3362620269712 -10.272618323902824 0.4753709280564973 1 1 0
2034 545 4 -10.61163887592777 -10.508235289968747 0.6787527949512224 0 1 0
3338 980 2 -10.075247628871232 -10.040491795011272 0.4529906755170874 1 1 0
3339 980 4 -9.814233230771261 -9.808365266119722 0.43061042297768104 1 1 0
1047 216 4 -9.472010578345285 -9.584257618648982 0.30177370351662525 0 0 0
1046 216 2 -9.224270177669155 -9.344141819555634 0.24277375776378918 0 0 0
1048 216 4 -8.976529776993024 -9.104026020462289 0.18377381201095666 0 0 0
1468 356 4 -8.03650323012674 -7.950132115785043 0.395098502543771 0 0 0
80 16 3 -8.254006993127541 -8.301571422069923 0.3596865035233012 0 0 0
77 16 3 -8.695671833403285 -8.840777134970327 0.09278390935572567 0 0 0
78 16 3 -7.950746515583171 -8.940296596653353 0.10098882279739207 0 0 0
1236 279 4 -7.578884194472277 -9.022858239895811 0.12470270877483536 0 0 0