LAMMPS data file via write_data, version 29 Aug 2024, timestep = 1001000, units = lj

3400 atoms
4 atom types
2400 bonds
1 bond types

-10.791198 10.791198 xlo xhi
-10.791198 10.791198 ylo yhi
-10.791198 10.791198 zlo zhi

Masses

1 1
2 1
3 1
4 1

Bond Coeffs # zero

1 0

Atoms # bond

268 54 3 -5.9104753935106 -10.546488431907106 -9.331575360515755 0 1 0
1437 346 4 -8.490904278839087 -6.581326772967895 -9.387051425956491 0 0 1
2736 779 4 -8.310361414155276 -6.973006505417471 -9.333738362785425 1 0 1
1436 346 2 -8.563687780334998 -6.2428355838078415 -9.43829863828059 0 0 1
2735 779 2 -8.305160976834046 -7.314058885494447 -9.41220000625215 1 0 1
2737 779 4 -8.299960539512815 -7.655111265571422 -9.490661649718874 1 0 1
162 33 3 -2.7021912376912383 -7.232811996979776 -9.97246898260585 0 0 1
164 33 3 -2.3012013480719093 -6.598669883532804 -9.928074294003984 0 0 1
1470 357 4 -2.4779456937132562 -6.278354519764047 -9.77909080853545 0 0 1
161 33 1 -2.406738499861142 -6.961395255198672 -10.197503717679393 0 0 1
163 33 3 -2.606723697854934 -6.814583132716611 -10.589616101155972 0 0 1
165 33 3 -2.0297863881213654 -7.197858949344646 -10.29441618749495 0 0 1
1438 346 4 -8.636471281830909 -5.904344394647788 -9.48954585060469 0 0 1
1084 228 4 -6.697776210815375 -5.935713523344866 -10.734341488609163 0 0 0
1258 286 4 -4.114019126302413 -4.822105520136719 -10.055809012777127 0 0 0
1469 357 2 -2.3620773800383774 -5.949217587434003 -9.751825195346864 0 0 1
1471 357 4 -2.2462090663634986 -5.620080655103959 -9.724559582158278 0 0 1
1124 242 2 -7.094028341171028 -4.362131517817992 -9.675022422573608 0 0 0
1126 242 4 -7.119039152233714 -4.252108015919451 -10.00633690816089 0 0 0
1017 206 4 -7.067456209846076 -3.95241799021844 -10.288593740494399 0 0 0
1016 206 2 -6.998916645092475 -3.7451828883804943 -10.562191877603606 0 0 0
1125 242 4 -7.069017530108342 -4.472155019716532 -9.343707936986325 0 0 0
1087 229 4 -3.5043830123661146 -3.2895987326539746 -9.470142715641208 0 0 0
1085 229 2 -3.5394047094408445 -3.6209741391030614 -9.577211949012638 0 0 0
1086 229 4 -3.5744264065155744 -3.9523495455521482 -9.684281182384066 0 0 0
1256 286 2 -3.9084210654081146 -4.567479221598226 -9.931732885141583 0 0 0
1257 286 4 -3.7028230045138164 -4.312852923059732 -9.80765675750604 0 0 0
1326 309 4 -1.316432175710354 -3.690297418295502 -10.473320757778978 0 0 1
92 19 3 -1.2871839820059572 -3.4289278743633025 -10.17140852855229 0 0 0
94 19 3 -1.2411638600158175 -3.0964070654440894 -9.498941384367566 0 0 0
95 19 3 -0.6210703118815867 -3.219553378776155 -9.907865554691668 0 0 0
1325 309 2 -1.2329604016091407 -3.874792888929896 -10.75879209477053 0 0 1
91 19 1 -1.0627650420526 -3.110294318425413 -9.927054694081301 0 0 0
2138 580 2 -9.771551649488652 -2.424744554674482 -9.961962122691949 0 0 1
2140 580 4 -9.890895481557127 -2.4640353627703098 -9.63529213302911 0 0 1
174 35 3 -10.171159143427882 -2.2335120353583013 -9.437306350578295 0 0 1
2139 580 4 -9.652207817420177 -2.385453746578654 -10.288632112354788 0 0 1
104 21 3 -9.484577348962532 -2.52208218117801 -10.652175761053401 0 0 0
1115 239 2 -3.631094210479886 -2.547249948311949 -9.398352133601298 0 0 0
1116 239 4 -3.665419688098872 -2.199975675436588 -9.37147573159019 0 0 0
1122 241 4 -3.7505788693741278 -1.7968278360357188 -9.467735213197074 0 0 0
1117 239 4 -3.5967687328609 -2.8945242211873103 -9.425228535612407 0 0 0
1914 505 4 -1.2374498756330063 -2.318505694019681 -10.052675104353959 0 0 1
1913 505 2 -1.0821558891861611 -2.023788524300621 -10.160032300881157 0 0 1
93 19 3 -1.1150907948462518 -2.6982585318573027 -10.133908570481685 0 0 0
1915 505 4 -0.9268619027393159 -1.7290713545815608 -10.267389497408356 0 0 1
210 42 3 -9.62620640216436 -1.016969346192203 -10.22148297721822 0 0 1
208 42 3 -9.521024910388315 -1.3165057399719808 -9.538756968786492 0 0 1
3001 867 4 -9.749131713606811 -1.2505014349283263 -10.497277170444967 1 0 0
206 42 1 -9.324642668716619 -1.079543574106915 -9.886007522572251 0 0 1
2999 867 2 -10.030442825644371 -1.3263918827947199 -10.691196478836066 1 0 0
1783 461 4 -10.476634847720142 -0.6703764886884296 -9.168765054109562 0 0 0
1602 401 4 -10.434097299957134 -0.32499902834569383 -9.37542198235253 0 0 0
1601 401 2 -10.314588847816948 -0.016583180532228906 -9.489865831835957 0 0 0
207 42 3 -8.967032348082792 -1.3201707273415682 -10.046673112237052 0 0 1
209 42 3 -9.172231675142871 -0.6693899464075765 -9.731589613238802 0 0 1
2112 571 4 -8.900257687891983 -0.41821181891145315 -9.656399095523305 0 0 1
2111 571 2 -8.679799718640016 -0.15246290515952254 -9.599164502548168 0 0 1
1121 241 2 -3.6951654524526334 -1.455032367330526 -9.518776478831892 0 0 0
1123 241 4 -3.6397520355311386 -1.1132368986253336 -9.569817744466713 0 0 0
9 2 3 -3.4718437617562246 -0.7999872159522978 -9.666370544790697 0 0 0
10 2 3 -3.315349784421841 -0.7849018778174789 -10.40270067973783 0 0 0
6 2 1 -3.39941041765899 -0.5286458125499162 -10.035731145643654 0 0 0
7 2 3 -3.7762664111407407 -0.275727492195763 -10.110643650648203 0 0 0
8 2 3 -3.0414712769907633 -0.2444269817405837 -9.955735972095455 0 0 0
1081 227 4 -0.022453920198327204 -1.8896139554091547 -8.603766979880705 0 0 0
1163 255 2 -5.883274800854199 -2.581961473236553 -1.286213632484906 0 0 0
267 54 3 -6.636546883797803 -10.520919465010081 -9.139048949540518 0 1 0
1370 324 2 -5.6969671382026466 -9.91705596442785 -9.0395463112808 0 0 1
1371 324 4 -5.717204587219557 -10.244648395617297 -9.161093193941694 0 0 1
1372 324 4 -5.676729689185736 -9.589463533238405 -8.917999428619906 0 0 1
2941 847 4 -0.24837994229556365 -9.485047349259846 -8.783488804805136 0 1 0
2939 847 2 -0.4187635676120608 -9.333787234019113 -8.517801398702906 0 1 0
2317 639 4 -9.496866405240118 -7.81628228039529 -7.754880872961495 1 0 0
1027 209 4 -5.901350891606826 -8.1328878684859 -8.773664319885896 0 0 0
1025 209 2 -5.642866271850685 -7.98078890613969 -8.593243680814624 0 0 0
1026 209 4 -5.384381652094544 -7.82868994379348 -8.41282304174335 0 0 0
2940 847 4 -0.5891471929285579 -9.18252711877838 -8.252113992600675 0 1 0
1239 280 4 -0.7595280032944465 -8.86955749380205 -8.01213884841943 0 0 0
1238 280 2 -0.8286700219866759 -8.673808646877113 -7.730355651300295 0 0 0
1065 222 4 -9.994433467241324 -6.578013052487846 -7.944797544894723 0 0 0
1234 278 4 -9.206601148731316 -7.623442132463736 -7.998376250435601 0 0 0
1064 222 2 -10.154596734746667 -6.807836216216186 -7.734966562540286 0 0 0
1232 278 2 -8.955378101085556 -7.407127121627915 -8.11060279105208 0 0 0
1233 278 4 -8.704155053439793 -7.190812110792093 -8.22282933166856 0 0 0
1141 247 4 -8.413767822751053 -6.913928691853088 -8.315264954284377 0 0 0
1139 247 2 -8.282476001621887 -6.610507281999904 -8.43014709278825 0 0 0
1140 247 4 -8.151184180492722 -6.307085872146718 -8.545029231292123 0 0 0
1207 269 4 -7.9922627356290405 -5.987502315133395 -8.73872875486377 0 0 0
1205 269 2 -7.789783706392933 -5.705630249674533 -8.784009892587822 0 0 0
1206 269 4 -7.587304677156825 -5.42375818421567 -8.829291030311873 0 0 0
23 5 3 -7.658573138325041 -5.052629134876795 -8.69348359832871 0 0 0
24 5 3 -7.043463804969741 -4.841648399761063 -8.30012925752493 0 0 0
21 5 1 -7.323509585921048 -4.734066840081345 -8.654107461074574 0 0 0
22 5 3 -7.07699871474168 -4.728748176808988 -9.04244249968346 0 0 0
25 5 3 -7.50724034030166 -4.3227322794238425 -8.587422461986225 0 0 0
1054 218 4 -7.6243335430996675 -3.9848281815554927 -8.358360223399107 0 0 0
1052 218 2 -7.51963582270839 -3.7095988632585923 -8.169185146566553 0 0 0
1053 218 4 -7.414938102317114 -3.4343695449616924 -7.980010069734002 0 0 0
1005 202 4 -1.5323922227440807 -3.2178682998636283 -9.256172082888245 0 0 0
1004 202 2 -1.5111678523758807 -3.4063948797281167 -8.96205092624173 0 0 0
33 7 3 -1.0318833343373612 -4.573502416424324 -8.387302999313757 0 0 0
35 7 3 -1.2653473571604463 -4.193587817236512 -7.7806239677233515 0 0 0
1006 202 4 -1.4899434820076807 -3.5949214595926047 -8.667929769595215 0 0 0
31 7 1 -1.0631079817186604 -4.156151055673553 -8.186946159960847 0 0 0
32 7 3 -1.31407061973213 -3.880310269652278 -8.456259388541577 0 0 0
34 7 3 -0.639979929392961 -3.97242837406235 -8.136859958300692 0 0 0
1153 251 4 -0.34543793025646574 -3.916288971022439 -7.904043113199227 0 0 0
173 35 3 -10.396133235257885 -1.6459072747689172 -9.011034954237267 0 0 1
171 35 1 -10.275269061814765 -2.093877580091482 -9.007232701308745 0 0 1
172 35 3 -9.904282481456082 -2.1455455990272845 -8.740213276896904 0 0 1
175 35 3 -10.61631842703126 -2.345426826378759 -8.840474471592984 0 0 1
1171 257 4 -5.74568493434947 -2.9673779024619615 -7.769782524250029 0 0 0
1826 476 2 -1.7157872062650332 -1.7579380612137239 -8.926729121714729 0 0 0
1827 476 4 -1.5228772897976963 -2.04743023407418 -8.888257755985453 0 0 0
115 23 3 -1.147199987114239 -2.0379752575419143 -8.762850767775705 0 0 1
112 23 3 -0.6707530670651722 -2.6109261678644264 -8.721310585588183 0 0 1
114 23 3 -0.4072532666366426 -1.907055085544091 -8.715535237362138 0 0 1
111 23 1 -0.7557694137246983 -2.181609160897654 -8.57968033341836 0 0 1
113 23 3 -0.7875648305021595 -2.1798977442425285 -8.116769842583569 0 0 1
1230 277 4 -0.618766321675973 -2.055815717029252 -7.7543258031629545 0 0 0
1781 461 2 -10.570184611979457 -1.004666434014912 -9.12405852147045 0 0 0
1782 461 4 -10.663734376238772 -1.3389563793413943 -9.07935198883134 0 0 0
1570 390 4 -2.2159042949829577 -1.1942513422128653 -8.869920878550738 0 0 0
1568 390 2 -2.331485249925902 -0.8645943431640449 -8.84830362080211 0 0 0
1569 390 4 -2.447066204868846 -0.5349373441152243 -8.826686363053481 0 0 0
1828 476 4 -1.9086971227323704 -1.4684458883532676 -8.965200487444005 0 0 0
1957 519 4 -2.437784866971874 -0.1322337966913857 -8.836924377610252 0 0 1
2842 814 4 -0.8662458105491924 -10.433082550654346 -6.530581516185116 0 1 0
2840 814 2 -0.6648678661230396 -10.205049620005484 -6.703636149287861 0 1 0
2841 814 4 -0.46348992169688685 -9.977016689356622 -6.876690782390606 0 1 0
505 101 3 -0.12076310446435684 -9.7859474122115 -6.858011323654158 0 0 0
2315 639 2 -9.762145219082933 -7.864144847525867 -7.531640362314946 1 0 0
28 6 3 -10.413586798067923 -7.863830720330457 -7.364151770644322 0 0 0
2316 639 4 -10.02742403292575 -7.912007414656443 -7.308399851668398 1 0 0
2333 645 2 -1.2200122378556386 -8.221497163692463 -6.829568880822224 0 0 0
1240 280 4 -0.8978120406789054 -8.478059799952176 -7.448572454181161 0 0 0
2335 645 4 -1.1159806186628958 -8.369964422691591 -7.128959754452986 0 0 0
2334 645 4 -1.3240438570483815 -8.073029904693335 -6.530178007191462 0 0 0
1066 222 4 -10.31476000225201 -7.037659379944526 -7.52513558018585 0 0 0
26 6 1 -10.7389729542394 -7.571158649122154 -7.2099865731890365 0 0 0
30 6 3 -10.586929583164357 -7.142605010769895 -7.234978419199682 0 0 0
1214 272 2 -2.8802821765385387 -6.572622879081106 -7.0857701742632395 0 0 0
1215 272 4 -2.7484955709998675 -6.895553910211632 -7.114887861903841 0 0 0
1216 272 4 -3.01206878207721 -6.249691847950579 -7.056652486622638 0 0 0
1201 267 4 -0.9571545388140925 -6.579467347227047 -7.016203783924047 0 0 0
1135 245 4 -0.9275957130990492 -6.765969048586145 -6.65279921061555 0 0 0
1199 267 2 -1.0314987390501176 -6.339710409659293 -7.260108582522765 0 0 0
1133 245 2 -0.7912503528710961 -6.982078394926768 -6.413620003391058 0 0 0
1262 288 2 -5.138627265345393 -4.664296460843428 -6.491045027686857 0 0 0
1264 288 4 -4.928936176118734 -4.933682299577677 -6.413838052688311 0 0 0
75 15 3 -4.57104289627792 -5.062157094762991 -6.327051000304808 0 0 0
1110 237 4 -3.167969834641912 -5.888452081591043 -6.924159602960408 0 0 0
1109 237 2 -3.358602749283964 -5.651825586675156 -6.750473121739864 0 0 0
1111 237 4 -3.5492356639260163 -5.415199091759269 -6.57678664051932 0 0 0
73 15 3 -3.90932247018443 -5.403841531009615 -6.437856341860926 0 0 0
1200 267 4 -1.1058429392861426 -6.099953472091539 -7.5040133811214815 0 0 0
1377 326 4 -6.514861472384668 -4.145686605799871 -6.1251237740141535 0 0 0
64 13 3 -6.306801223530005 -3.9665616449970975 -6.406774826930718 0 0 0
1170 257 4 -5.776132516487126 -3.440097913202265 -7.254410099504927 0 0 0
65 13 3 -5.936152575521128 -3.568135600705606 -6.92713649631028 0 0 0
61 13 1 -5.90725231820588 -3.756062561291093 -6.513314997820611 0 0 0
63 13 3 -5.558989463914267 -4.062489366195753 -6.502563367404548 0 0 0
1263 288 4 -5.3483183545720525 -4.394910622109179 -6.568252002685403 0 0 0
62 13 3 -5.8252328670528675 -3.4267726949080846 -6.202765495277069 0 0 0
1169 257 2 -5.760908725418298 -3.2037379078321133 -7.512096311877478 0 0 0
1151 251 2 -0.16933647914124428 -3.801165669645437 -7.624338082148527 0 0 0
1128 243 4 -1.1412786053561972 -2.702361959322382 -1.1569610202942107 0 0 0
1397 333 2 -10.438347017941386 -1.7422089191018846 -6.238176198800545 0 0 1
4 1 3 -4.850853329355694 -1.895193049700448 -6.52500709186403 0 0 0
1 1 1 -5.1919300781163855 -1.7583861950213997 -6.241721836392437 0 0 0
2 1 3 -5.464145170145052 -2.1182087923793818 -6.15213030720398 0 0 0
2356 652 4 -4.4997203016601395 -2.014955142720735 -6.670104004382607 1 0 0
2354 652 2 -4.291972343921966 -2.2966197859037782 -6.6676926072372265 1 0 0
2355 652 4 -4.084224386183793 -2.5782844290868216 -6.665281210091846 1 0 0
1229 277 2 -0.5153107726351399 -1.9064536265005618 -7.455180495184353 0 0 0
1231 277 4 -0.4118552235943068 -1.757091535971872 -7.156035187205752 0 0 0
338 68 3 -0.05360416385425304 -1.6254255750670628 -7.084902555609249 0 0 0
1127 243 2 -0.9191718406797544 -2.969302558479238 -1.2006794558417004 0 0 0
2869 823 4 -9.783859253417798 -0.2709650411796404 -7.535993018490874 1 0 0
1399 333 4 -10.483118561587808 -1.4508514168854676 -6.426872554837837 0 0 1
549 110 3 -10.505178302622198 -1.086416808767649 -6.564333988725083 1 0 0
2867 823 2 -10.033087740349227 -0.5156294208976971 -7.513090996768744 1 0 0
547 110 3 -10.555977265019798 -0.6853932140245804 -7.197973903723156 1 0 0
2868 823 4 -10.282316227280656 -0.7602938006157539 -7.490188975046614 1 0 0
1164 255 4 -5.7358745202622226 -2.787686125114794 -1.5279790660998191 0 0 0
5 1 3 -5.437347878073421 -1.4305781224445056 -6.441000462987505 0 0 0
1830 477 4 -0.3319105553686976 -0.11684722960173727 -6.310066677623899 0 0 0
1829 477 2 -0.13588438274666198 -0.39343496556961544 -6.397089456016894 0 0 0
90 18 3 -0.19983372061341126 -8.137448676972504 -5.692844558527777 0 0 0
1647 416 4 -0.009028842980365923 -8.38900579480712 -5.93425145907529 0 1 0
56 12 1 -10.517127170153273 -6.285597607786404 -5.056746295135714 0 0 0
58 12 3 -10.232593838419216 -6.639253210151145 -4.960473256083649 0 0 0
1008 203 4 -9.992648760983654 -6.948227879833758 -5.004177506148554 0 0 0
57 12 3 -10.567951007950468 -6.255569811792169 -5.512942819650382 0 0 0
1007 203 2 -9.74783816173159 -7.036822001118361 -4.77025689532595 0 0 0
1157 253 2 -6.808748477790843 -6.2416069895048905 -4.899585383246689 0 0 0
1251 284 4 -0.6826882517163126 -7.619996797473485 -4.88687366915374 0 0 0
88 18 3 -0.44977225460769377 -7.632551452479176 -5.193335277408686 0 0 0
89 18 3 -0.556025112327266 -7.520884156101573 -5.9375400510741985 0 0 0
1134 245 4 -0.6549049926431436 -7.198187741267392 -6.174440796166565 0 0 0
86 18 1 -0.2692927560754718 -7.693908575763626 -5.616374819333506 0 0 0
59 12 3 -10.33526717457339 -5.8886825274337475 -4.899630538458353 0 0 0
1378 326 4 -6.719776045844586 -4.812789061308079 -6.070494739255365 0 0 0
1158 253 4 -6.864751475973875 -6.000853765584383 -5.147378743461196 0 0 0
1160 254 2 -6.880513079078807 -5.429962901848459 -5.643338246459768 0 0 0
1162 254 4 -6.9267350635474 -5.69999889754965 -5.425521605274163 0 0 0
1161 254 4 -6.834291094610214 -5.159926906147268 -5.861154887645373 0 0 0
1130 244 2 -4.362250443880611 -5.248354316505727 -5.06236938124678 0 0 0
74 15 3 -4.267858546250676 -5.4692476376508266 -5.770942611778133 0 0 0
1132 244 4 -4.372353769641771 -5.302654083281134 -5.407983990510763 0 0 0
71 15 1 -4.180488951744849 -5.187890744156055 -6.1294183465759255 0 0 0
72 15 3 -3.961550007569999 -4.813947315767627 -5.975042017144666 0 0 0
1131 244 4 -4.3521471181194515 -5.194054549730319 -4.7167547719827985 0 0 0
2254 618 4 -9.859487547458833 -3.7595903597151077 -4.84398454860957 1 0 0
2253 618 4 -9.947165258823379 -3.203377395493934 -5.259844810430551 1 0 0
2252 618 2 -9.903326403141106 -3.481483877604521 -5.051914679520061 1 0 0
1376 326 2 -6.617318759114627 -4.479237833553975 -6.0978092566347595 0 0 0
1098 233 4 -5.515128562139969 -3.1322059821639545 -6.114697904925153 0 0 0
1185 262 4 -3.9658044960543943 -4.44644674789716 -5.796476139280187 0 0 0
1184 262 2 -3.8084801363994485 -4.140851686514719 -5.7304405101258995 0 0 0
1186 262 4 -3.651155776744502 -3.8352566251322786 -5.664404880971612 0 0 0
2217 606 4 -10.076067252149322 -2.8577079836387673 -5.406261163352156 1 0 0
1398 333 4 -10.393575474294963 -2.0335664213183025 -6.049479842763253 0 0 1
2216 606 2 -10.209508330172284 -2.6262885683626074 -5.6323994682217755 1 0 0
2218 606 4 -10.342949408195246 -2.3948691530864474 -5.8585377730913955 1 0 0
1097 233 2 -5.453989304201259 -2.7952024787536454 -6.042651879164706 0 0 0
1099 233 4 -5.392850046262548 -2.458198975343336 -5.970605853404258 0 0 0
3 1 3 -5.013519942868515 -1.6022818044715592 -5.84284686488903 0 0 0
1611 404 4 -4.944838182485858 -1.6038655395627424 -5.433851435469642 0 0 0
1675 425 4 -0.1312216301810957 -1.7370207542268952 -5.987951805766654 0 0 0
1673 425 2 -0.08977712810921977 -2.0729465505353115 -5.898866382590144 0 0 0
1674 425 4 -0.04833262603734385 -2.4088723468437276 -5.809780959413635 0 0 0
1591 397 4 -9.782560901187495 -0.25970720740939307 -5.664312650618504 0 0 0
1610 404 2 -4.697334365078208 -1.3993075007467326 -5.294575202305734 0 0 0
1612 404 4 -4.449830547670559 -1.1947494619307228 -5.155298969141826 0 0 0
82 17 3 -4.4672602792419385 -0.20103804943833792 -5.297990705316242 0 0 0
81 17 1 -4.117204676229533 -0.49696206871092335 -5.336591866144782 0 0 0
85 17 3 -4.2819419705757715 -0.9191909995737658 -5.381137952325621 0 0 0
83 17 3 -3.866357088357477 -0.38463150294484844 -5.710433184960102 0 0 0
84 17 3 -3.854383553469143 -0.46897942998516257 -4.955223239536554 0 0 0
2223 608 4 -3.5876444612796825 -0.2525196529053125 -4.762186227943016 0 0 0
2290 630 4 -0.1247713068411469 -1.3899165022378053 -4.937163941992289 0 0 0
2288 630 2 -0.4079096294552371 -1.1848721834318132 -4.920148725490243 0 0 0
2289 630 4 -0.6910479520693273 -0.9798278646258213 -4.903133508988199 0 0 0
1271 291 2 -6.617822399937907 -10.31415567886366 -3.641377124380766 0 0 0
1273 291 4 -6.926067752765407 -10.47989956727497 -3.6450873689221575 0 0 0
1716 439 4 -7.273451456187351 -10.605084935888087 -3.55429611051931 0 1 0
1272 291 4 -6.309577047110407 -10.14841179045235 -3.6376668798393745 0 0 0
1009 203 4 -9.503027562479529 -7.125416122402964 -4.536336284503348 0 0 0
1704 435 4 -9.1452688825406 -7.233387376815096 -4.357996992932511 0 1 0
1044 215 4 -8.368333252305908 -7.401452425413718 -3.630551383663237 0 0 0
1705 435 4 -8.556602684211684 -7.343171934873131 -3.9954787757949237 0 1 0
1043 215 2 -8.042834845750738 -7.357605910437833 -3.509603996528893 0 0 0
1703 435 2 -8.850935783376142 -7.288279655844113 -4.1767378843637175 0 1 0
1045 215 4 -7.7173364391955666 -7.313759395461949 -3.3886566093945487 0 0 0
1159 253 4 -6.752745479607812 -6.482360213425398 -4.651792023032181 0 0 0
1074 225 4 -6.4914956343387935 -6.722747131722651 -4.4365577657278585 0 0 0
1073 225 2 -6.305415505400751 -6.877480414234163 -4.183710387063247 0 0 0
1269 290 4 -7.358252622821892 -7.140066814549611 -3.317388150761621 0 0 0
1268 290 2 -7.059802661422926 -7.023628812560733 -3.176427829274732 0 0 0
1075 225 4 -6.119335376462708 -7.032213696745675 -3.9308630083986356 0 0 0
50 10 3 -5.960838134968596 -7.123994840431095 -3.5593122543917217 0 0 0
46 10 1 -5.956224286853958 -6.927555894752352 -3.148471101357979 0 0 0
47 10 3 -5.703045180317659 -6.543935303243099 -3.166789992794612 0 0 0
1144 248 4 -5.383751382266074 -6.336907620046334 -3.169064969073848 0 0 0
1250 284 2 -0.8156063624962591 -7.415831669793501 -4.635578272327435 0 0 0
524 105 3 -1.1021770307936947 -6.261058658545088 -3.835308861932923 0 0 0
1252 284 4 -0.9485244732762055 -7.211666542113518 -4.38428287550113 0 0 0
522 105 3 -0.7280261037122061 -6.2076737939537265 -4.484971189605003 0 0 0
523 105 3 -0.3578997791627801 -6.412218902405545 -3.8636276433412267 0 0 0
521 105 1 -0.7609451982421889 -6.443493984762827 -4.091391247506875 0 0 0
525 105 3 -0.8530694613279893 -6.879545644960029 -4.1850505758732695 0 0 0
1149 250 4 -10.279845974411707 -5.767207917346297 -4.523308587143208 0 0 0
1148 250 2 -10.115573258225098 -5.459956286354458 -4.489978271068585 0 0 0
588 118 3 -9.981840470346182 -4.75632454089268 -4.5521177654525165 1 0 0
1150 250 4 -9.951300542038487 -5.15270465536262 -4.4566479549939615 0 0 0
1040 214 2 -9.653705939642306 -4.5972280061575885 -3.2358852995665734 0 0 0
1142 248 2 -5.203586333472299 -6.127430106625431 -3.3839131167600067 0 0 0
1143 248 4 -5.023421284678524 -5.917952593204526 -3.5987612644461655 0 0 0
11 3 1 -4.860196918233353 -5.228742184368294 -4.07519918127209 0 0 0
15 3 3 -4.901167560148937 -5.601674892265189 -3.8170468969867635 0 0 0
14 3 3 -5.232683128571119 -5.183428937893692 -4.348147404937605 0 0 0
13 3 3 -4.814786661788296 -4.853805725600673 -3.8056429524507007 0 0 0
12 3 3 -4.485899063855443 -5.267941218309732 -4.339707313370462 0 0 0
1042 214 4 -9.837174719410786 -4.4735555543342835 -3.507075881096223 0 0 0
590 118 3 -9.885961851457594 -4.010814539506238 -4.508275682099167 1 0 0
586 118 1 -10.091865057792461 -4.370361029998681 -4.31925136938894 1 0 0
587 118 3 -9.950644218448293 -4.414139525295151 -3.8836596822730236 1 0 0
589 118 3 -10.551803055927767 -4.309146776399216 -4.3223903226431295 1 0 0
1120 240 4 -4.803657590972945 -4.522084193085884 -3.5783256314989584 0 0 0
1118 240 2 -4.683838406848347 -4.234377243379857 -3.4190520486093283 0 0 0
1119 240 4 -4.564019222723749 -3.9466702936738303 -3.259778465719698 0 0 0
54 11 3 -4.601812436898959 -3.598770071205707 -3.1064771201228885 0 0 0
1943 515 2 -7.36291131350258 -1.9095334342228005 -3.7229365760469846 0 0 0
1945 515 4 -7.124729275567629 -2.0982344454001054 -3.5492666443207117 0 0 0
1944 515 4 -7.60109335143753 -1.7208324230454954 -3.8966065077732575 0 0 0
832 167 3 -7.787580092650444 -1.364617824660379 -3.847833914188586 1 0 0
834 167 3 -8.367014916678619 -0.8951579486136694 -3.94144325926531 1 0 0
831 167 1 -8.05060697367614 -1.0499979694905486 -3.6394323628728027 1 0 0
833 167 3 -7.781565790387366 -0.6993461015990685 -3.4981521121694237 1 0 0
835 167 3 -8.257727016801837 -1.2408844509147794 -3.2815725593950953 1 0 0
1836 479 4 -7.388056878765662 -0.612988424470717 -3.455982635259654 0 0 0
1071 224 4 -6.434353634190644 -0.12103584666448618 -3.3907935933916202 0 0 0
1835 479 2 -7.094312815831785 -0.42274619674337294 -3.4607070696591338 0 0 0
1837 479 4 -6.800568752897909 -0.2325039690160287 -3.465431504058614 0 0 0
1030 210 4 -4.659758664308667 -1.0972700070912649 -3.1320266044939493 0 0 0
2222 608 2 -3.3143762972236517 -0.08383005882226324 -4.623016075389996 0 0 0
1105 235 4 -9.593023707145127 -10.739600486232856 -3.1613445381129512 0 0 0
1213 271 4 -3.558438877797477 -8.808559240932524 -2.8678760840102284 0 0 0
1211 271 2 -3.217981672061368 -8.88896037885759 -2.8567159727737095 0 0 0
1212 271 4 -2.8775244663252586 -8.969361516782655 -2.8455558615371905 0 0 0
284 57 3 -2.5566172136233427 -8.782350260630984 -2.755748697571479 0 1 0
283 57 3 -2.239906200655546 -9.090263563698969 -2.1372961674135142 0 1 0
281 57 1 -2.204775770830299 -8.753556746824657 -2.4546199332595395 0 1 0
282 57 3 -2.2240603388289806 -8.346149467391738 -2.241905537643698 0 1 0
1248 283 4 -2.1371700393118633 -9.238597964059714 -1.7649909461376225 0 0 0
1863 488 4 -2.0109953863043857 -8.02763444792179 -2.2156094339663883 0 1 0
285 57 3 -1.8080192136976854 -8.788875195840408 -2.6753841548431936 0 1 0
1220 274 2 -10.757260322343699 -6.751647287912357 -1.6441426713018816 0 0 0
1222 274 4 -10.660674745146531 -7.087632186506637 -1.6272496492478585 0 0 0
49 10 3 -6.388358745933983 -6.816155682657908 -3.021389230027646 0 0 0
1270 290 4 -6.761352700023959 -6.907190810571855 -3.035467507787843 0 0 0
1002 201 4 -5.055919657165694 -7.4601117136070245 -2.2153939332536368 0 0 0
1001 201 2 -5.318554552819648 -7.494322363317992 -2.4442007142527276 0 0 0
1003 201 4 -5.5811894484736015 -7.52853301302896 -2.6730074952518184 0 0 0
48 10 3 -5.768963856672697 -7.2161389821699835 -2.8370977997652957 0 0 0
1862 488 2 -1.9969730467345497 -7.706582981358873 -2.0769395749092183 0 1 0
1864 488 4 -1.9829507071647137 -7.3855315147959555 -1.9382697158520483 0 1 0
1041 214 4 -9.470237159873825 -4.7209004579808935 -2.964694718036924 0 0 0
53 11 3 -4.679963941270639 -3.3562753472295213 -2.390454319362577 0 0 0
1182 261 4 -5.010537979415131 -3.2451222285509607 -2.211297981720098 0 0 0
1181 261 2 -5.225195020826747 -3.0693104983713613 -1.9979611820261134 0 0 0
51 11 1 -4.381963817042802 -3.4158477256790865 -2.741092391576985 0 0 0
1175 259 2 -3.578723284081492 -4.1388437484227945 -2.343441577651027 0 0 0
55 11 3 -4.041986119314192 -3.6896345028199296 -2.6112618646961403 0 0 0
1177 259 4 -3.700125467467719 -3.8514790284487157 -2.502133189222886 0 0 0
1176 259 4 -3.4573211006952658 -4.426208468396873 -2.1847499660791674 0 0 0
1183 261 4 -5.439852062238363 -2.893498768191762 -1.7846243823321288 0 0 0
52 11 3 -4.209558711609248 -3.0065499452629427 -2.860891417311925 0 0 0
1266 289 4 -5.083252510829639 -0.09385835150707411 -1.7031702937581008 0 0 0
1267 289 4 -4.996535668766707 -0.49692197823973183 -2.2688733095783125 0 0 0
1265 289 2 -5.039894089798173 -0.2953901648734033 -1.9860218016682063 0 0 0
1029 210 4 -4.815386888513922 -0.6772905159672004 -2.594070209545735 0 0 0
1028 210 2 -4.7375727764112945 -0.8872802615292327 -2.863048407019842 0 0 0
1046 216 2 -10.639678758863518 -9.210610052959812 -0.10637781264105092 0 0 0
2988 863 4 -0.4726995087129063 -10.736437006961228 -0.1974587536628418 0 1 0
2332 644 4 -10.048982741233964 -7.932974674318534 -1.2982709281308809 1 0 0
77 16 3 -10.38528921750473 -8.764378987998695 -0.6537231601149507 0 0 0
79 16 3 -9.99948121753774 -8.281632614884362 -1.0815176509706135 0 0 0
76 16 1 -10.03372464826953 -8.467755932225769 -0.6578603623592195 0 0 0
78 16 3 -9.64358978985528 -8.696073843680116 -0.5531430115560849 0 0 0
1048 216 4 -10.483552186246595 -8.997234379351125 -0.3357144979639244 0 0 0
80 16 3 -10.109747052381305 -8.140742164482383 -0.35015500039854064 0 0 0
1236 279 4 -9.355027431947326 -8.988661476055414 -0.5285922232298896 0 0 0
1237 279 4 -8.698231037938367 -8.78407825372296 -0.3991155768542123 0 0 0
1235 279 2 -9.026629234942845 -8.886369864889188 -0.4638539000420509 0 0 0
1249 283 4 -1.8515075844482298 -9.063512603502986 -1.1503836907296803 0 0 0
1247 283 2 -1.9943388118800467 -9.15105528378135 -1.4576873184336514 0 0 0
2236 612 4 -10.567841011090502 -6.2702168331255965 -0.5637688109496789 1 0 0
1467 356 4 -10.352099244783302 -7.247429823145367 -0.03704523598316671 0 0 0
2330 644 2 -10.203501340176187 -7.648203774525841 -1.4306700867845736 1 0 0
2331 644 4 -10.35801993911841 -7.363432874733149 -1.5630692454382662 1 0 0
2234 612 2 -10.542724898130404 -6.583039722692729 -0.40881391224457025 1 0 0
2235 612 4 -10.517608785170305 -6.895862612259862 -0.2538590135394616 1 0 0
1466 356 2 -10.195675862378183 -7.560442966406136 -0.0444274838089782 0 0 0
1524 375 4 -8.15733867409017 -6.406223734630308 -0.6109922660942153 0 0 0
2645 749 2 -8.58340190806117 -6.867128494758949 -0.20853412815640485 1 0 0
2647 749 4 -8.404246897499883 -6.659130049124684 -0.425651904500101 1 0 0
1525 375 4 -7.961097474358332 -5.870265573531741 -1.01625544117873 0 0 0
1523 375 2 -8.059218074224251 -6.138244654081024 -0.8136238536364728 0 0 0
1129 243 4 -0.6970650760033118 -3.236243157636093 -1.24439789138919 0 0 0
1165 255 4 -6.030675081446176 -2.3762368213583116 -1.044448198869993 0 0 0
1468 356 4 -10.039252479973063 -7.873456109666904 -0.05180973163478962 0 0 0
1984 528 4 -8.486559984771059 -0.052128001525251155 9.80328416661346 0 0 0
3079 893 4 -5.852690991631844 -10.607925879091269 0.6599347514103224 0 1 0
1586 396 2 -9.692345678242045 -8.349797637536943 0.5738131154036088 0 1 0
1588 396 4 -9.463624104508659 -8.08574103714847 0.5952736256543388 0 1 0
1587 396 4 -9.921067251975431 -8.613854237925416 0.5523526051528788 0 1 0
406 82 1 -3.6819612192843936 -10.783481240531943 7.43738717798496 0 1 0
2707 769 4 -9.219202894623278 -7.760522178583664 0.663053630896528 1 0 0
1658 420 2 -0.7594881424593605 -8.785563021346245 1.4545765964159012 0 1 0
1660 420 4 -0.758325646218495 -8.48555798590163 1.2743111607096331 0 1 0
1198 266 4 -9.888850630096663 -7.453709670637591 1.494323022613127 0 0 0
1196 266 2 -9.602360749328568 -7.252657693799901 1.4930381774559767 0 0 0
2705 769 2 -9.052489906369543 -7.489306419106147 0.5176273906283229 1 0 0
2706 769 4 -8.885776918115809 -7.21809065962863 0.3722011503601176 1 0 0
1297 299 4 -8.957160222388584 -6.915346103177646 1.5769191858865932 0 0 0
2646 749 4 -8.762556918622456 -7.075126940393213 0.00858364818729132 1 0 0
17 4 3 -4.151517016436488 -6.653514050940283 1.1972771335472967 0 0 0
1039 213 4 -7.692091147674056 -5.380470561318857 0.44607171808483764 0 0 0
1037 213 2 -7.641511196409315 -5.342714108782564 0.790333419152555 0 0 0
1038 213 4 -7.590931245144574 -5.3049576562462715 1.1345951202202724 0 0 0
232 47 3 -7.247088052985024 -5.2189435271302065 1.3236709729728822 0 0 0
1503 368 4 -8.246722584513163 -2.0561845698803047 1.299478556290086 0 0 0
1502 368 2 -8.418991780704124 -1.7843404412903119 1.1619136850660097 0 0 0
197 40 3 -7.558939746463145 -2.6326878222239407 1.455861180800874 0 0 0
644 129 3 -10.251630001316107 -0.34585370664114107 0.13136901766561265 1 0 0
641 129 1 -10.668620937517344 -0.32240730495004005 0.3335294128315692 1 0 0
643 129 3 -10.763821632252679 -0.7231287208349337 0.5472094881147243 1 0 0
1500 367 4 -8.89135429440478 -0.4768455472913065 0.8870266259283972 0 0 0