LAMMPS data file via write_data, version 19 Nov 2024, timestep = 1000000, units = lj

79 atoms
4 atom types
54 bonds
1 bond types
35 angles
2 angle types

-2.982675 2.982675 xlo xhi
-2.982675 2.982675 ylo yhi
-2.982675 2.982675 zlo zhi

Masses

1 1
2 1
3 0.1
4 0.1

Bond Coeffs # harmonic/omp

1 100 0.45

Angle Coeffs # harmonic/omp

1 100 180
2 100 109.471

Atoms # full

12 3 4 0 -0.6444760645077772 -1.074923941730202 -0.6261763519333217 0 0 1
14 4 2 0 -2.8191503282476864 -2.7406644826174382 -2.787426945840281 0 -1 1
29 9 2 0 -1.8023509944843643 -2.6539646438928326 -1.2021799039110728 0 0 2
44 14 2 0 -1.000405971224354 -1.6960984760475548 -0.9453725643764874 0 -1 1
31 9 4 0 -1.5433630272140662 -2.387580011400787 -0.9361476250077571 0 0 2
45 14 4 0 -1.2559895342378078 -2.095927892167621 -0.9560606553302444 0 -1 1
46 14 4 0 -0.7516323305651434 -1.2878199654506226 -0.9269708662455011 0 -1 1
13 3 4 0 -0.6475588443999479 -0.2704100618819314 -0.20417623803191534 0 0 1
11 3 2 0 -0.6464832592560623 -0.6480109811284894 -0.4046296004117709 0 0 1
30 9 4 0 -2.065791560903825 -2.909544254783302 -1.4633208211618924 0 0 2
57 18 4 0 -2.0756847059450414 -0.17712580920388626 -0.1318976198595417 0 0 1
56 18 2 0 -1.8266993965088811 -0.11796360291247063 0.2417880444645792 0 0 1
58 18 4 0 -1.5949075092960139 -0.07569688176137293 0.596664490956929 0 0 1
39 12 4 0 -1.5954695954761338 -0.13128397058855062 0.9935124901682971 0 0 0
38 12 2 0 -1.3382687310331858 -0.10870705471528065 1.3418874884451304 0 0 0
41 13 2 0 -0.4174970543802117 -0.42292161893032243 2.052928305996026 0 0 0
40 12 4 0 -1.0714143634696804 -0.08214997124765523 1.7078833134009535 0 0 0
42 13 4 0 -0.869238072086773 -0.3687712657664086 1.925823014027994 0 0 0
21 6 4 0 -2.5839649349436162 2.5900062142832985 -2.3282799140258965 0 -1 1
20 6 2 0 -2.4308049395374005 2.6385343179626726 -1.8901559287033165 0 -1 1
9 2 3 0 -0.4461365341253947 0.08421933876005369 -0.20105721069334898 0 0 1
22 6 4 0 -2.280671118455767 2.695311812488101 -1.4701464033100118 0 -1 1
15 4 4 0 -2.5831876897707757 2.890734523768046 -2.6053962043542693 0 -2 1
6 2 1 0 -0.18246977160100736 0.3458210711861787 0.013065881176149546 0 0 1
10 2 3 0 -0.4423877807648376 0.6340308012496829 0.30410922874828433 0 0 1
35 11 2 0 2.2547762086289773 -2.857177472639789 -2.006926627086335 0 0 1
55 17 4 0 2.1253185001141977 -2.1946612403485566 -1.5448289097367087 0 0 1
53 17 2 0 1.7622135810959474 -1.9284954996263208 -1.5230601730506392 0 0 1
37 11 4 0 2.177695111162421 -2.4263781731594425 -1.8625965897235583 0 0 1
54 17 4 0 1.3927577590226692 -1.6465237814050602 -1.4888536393880218 0 0 1
33 10 4 0 0.7498365330979455 -0.801039192852961 -0.32881264657825404 1 -1 0
27 8 4 0 1.0139085759131694 -0.791624411353773 -0.6510997443655039 0 0 1
32 10 2 0 0.5580885283745277 -0.5159566913655897 -0.05977761292551418 1 -1 0
26 8 2 0 1.0908392162345955 -1.173884265891167 -0.9216269173058289 0 0 1
28 8 4 0 1.160966921556176 -1.5250718284847051 -1.1705480173014766 0 0 1
16 4 4 0 2.8969039503964047 -2.408631521395684 -2.976161406976067 -1 -1 1
47 15 2 0 1.111596109258019 -1.4636869479440697 1.4194426139446883 0 0 0
49 15 4 0 1.3258629206458588 -1.0580251986871003 1.46402220513139 0 0 0
34 10 4 0 0.3443312933027464 -0.22603096365305508 0.22739594973848412 1 -1 0
17 5 2 0 2.551099156518533 -0.22987898078938157 1.3840686716623753 -1 0 0
64 20 4 0 2.8754104945597083 -0.8821414637847964 1.4878567219003593 0 0 0
19 5 4 0 2.7767528747673187 -0.5932336740544637 1.2439358065483306 -1 0 0
48 15 4 0 0.9258792339868658 -1.844040825495526 1.388508057115718 0 0 0
67 21 4 0 0.7500111419762314 -2.065170812635628 1.6323621517259155 0 1 0
65 21 2 0 0.8877089358885057 -2.393286177570191 1.933419460052944 0 1 0
66 21 4 0 1.0330006844401476 -2.7171943573873287 2.226705372384496 0 1 0
2 1 3 0 1.3787545410320767 -2.9378222666158744 2.1321866096396422 0 0 0
60 19 4 0 2.9264964557598625 -2.143338950558433 1.6949489247897076 0 0 0
63 20 4 0 2.8641432603632144 -1.7328634404316023 1.6925504272757983 0 0 0
61 19 4 0 2.415284864622379 -2.9078724770723468 1.7588101969630916 0 0 0
59 19 2 0 2.6709438253610145 -2.530097373115271 1.7282026532287464 0 0 0
4 1 3 0 2.0685760094559145 -2.8571721649742083 1.9771850337481733 0 0 0
62 20 2 0 2.8718298665115554 -1.3100702930667862 1.5962983590069628 0 0 0
43 13 4 0 0.0033249138632875856 -0.48298738253480344 2.179518156796382 0 0 0
71 23 2 0 0.7882103072615814 0.7530268206471855 -2.000412355901827 1 0 1
73 23 4 0 0.8436333408555268 0.9786399398748891 -2.423901076010464 1 0 1
72 23 4 0 0.7422325131144282 0.5668134256177862 -1.647240086976321 1 0 1
76 24 4 0 0.7025720887293078 1.338858962443451 -2.55162010701822 1 0 1
74 24 2 0 0.41277448130655103 1.5246379288795946 -2.8544375924611334 1 0 1
36 11 4 0 2.33612694833911 2.6778209439746696 -2.1560355549355323 0 -1 1
79 25 4 0 2.1471128923842002 2.5187197792660485 -2.458532756432663 0 0 1
77 25 2 0 1.9940158013888523 2.425865012318719 -2.8706894596183687 0 0 1
68 22 2 0 0.48028672991881244 0.6796292574115956 -0.8550631547253754 1 0 1
70 22 4 0 0.41026393484950274 0.7739252189380527 -0.4397810958676354 1 0 1
69 22 4 0 0.5544111731494363 0.5701954665499211 -1.2876763220479186 1 0 1
8 2 3 0 0.060801166138083215 0.6242800734690511 -0.2912697651032997 0 0 1
7 2 3 0 0.10246576676682613 0.10625843597004957 0.25276350502992195 0 0 1
51 16 4 0 2.2433940717063523 1.3152872646527694 1.1020974390904097 0 0 0
50 16 2 0 2.1645561365842454 0.884086613307085 1.2808866831265115 0 0 0
52 16 4 0 2.0909310425596743 0.46178901976696246 1.4501444257710634 0 0 0
18 5 4 0 2.3169765815547723 0.15915133176669938 1.5127787342126489 -1 0 0
25 7 4 0 2.140092586192296 1.6287856690619964 0.8841734498919399 -1 0 -1
23 7 2 0 1.9325817571350739 1.9677829459925256 1.0945284554865562 -1 0 -1
24 7 4 0 1.7272793624434923 2.3200561686772216 1.3217349585152913 -1 0 -1
75 24 4 0 0.12839398233335567 1.7091354577972644 2.8029178931211414 1 0 0
3 1 3 0 1.6866960586511253 2.613555605265914 1.5876417161389598 0 -1 0
5 1 3 0 1.8584813912329106 2.4800485794682143 2.3249479018674974 0 -1 0
1 1 1 0 1.7480531189859412 2.8131311216380075 2.0046817662410152 0 -1 0
78 25 4 0 1.84441293341396 2.3285071115626796 2.672343373182218 0 0 0

Velocities

12 0.46639368702565936 1.1312168171065782 0.41771077995064615
14 -0.2435253667562817 -0.1801326309075114 0.1811116463893441
29 0.06962091092763599 -0.02431303777505597 0.34023823758720534
44 -0.00974326045734707 -0.16391106611888012 -0.08243877025728945
31 -0.345044260224378 0.7935178023909635 -1.6318353674733315
45 0.4538669439551255 0.10450572123521293 -0.14843988758066104
46 0.19916775795896816 -0.7531983266735641 -0.2296235911837
13 -0.5342613714965067 -0.8455470112813126 0.0312643755969511
11 -0.03697663282416495 -0.26480010574919516 0.3272006733797627
30 0.9972176928531508 -0.1179352575679467 -1.0444828220794724
57 0.1292350859764815 -0.31933970920242244 0.673017326277728
56 -0.019401755481039597 0.11539962191432726 0.12953329445633988
58 -0.8278120489063753 0.7659231275437874 -0.1949442624976303
39 -0.5379377851220598 -0.10000652115556502 0.24357426854696676
38 0.3135765407264789 -0.2725304885653296 -0.5024144738997955
41 -0.17316712607034318 0.283694423988131 0.03662919785249233
40 -0.5402129849198338 0.10939094021037757 0.16618610851778035
42 0.32651268979486986 -0.06919871062764579 0.6932857440646819
21 0.9621658298867042 0.4867089982168823 0.6270947353316233
20 -0.3941004719069706 0.12259124202876003 -0.1339544371272211
9 1.467794442008126 0.2767949881670237 0.4357059158037166
22 -0.4795283826740475 -0.688118230425002 -1.2670641828543503
15 1.5236141532264902 -0.6664065213078377 -0.5855176489404728
6 -0.31638793128223286 -0.3245881635617852 0.056317329785407336
10 0.11717395819200159 -0.5598034733834444 -2.5252867538056134
35 -0.018716826350270627 0.3291393018372808 0.07573348247150014
55 -0.29211072161225193 0.07844714404391537 -0.11440532732754144
53 -0.021440624143409675 -0.24627113740714376 -0.2759277065950071
37 0.17841745263118813 0.28534675584194796 -0.8034061842827686
54 0.13719130847183714 0.4480415725744569 -2.1623269748038703
33 -0.3346689395266887 0.19313236200032868 -0.4944967461917471
27 0.16689762508507144 0.12284713095973852 0.587182286420084
32 0.02535950938747555 0.03425128747712412 -0.10113048131434155
26 -0.11631889761966806 0.0898916337597814 -0.18454744779658389
28 0.24658869788416934 0.5327103829062969 0.7409660289343247
16 0.41262770161651946 -0.34594361904122084 -0.11241556456913687
47 0.05921136746275043 -0.03296753439540871 -0.039381142350827944
49 -0.20879917112717544 -0.008693523973888 -0.8772412283908205
34 0.017408581623224312 -0.40462477402882774 -0.3687741379763132
17 0.10299954302741116 0.13421740734150955 0.048172128784444136
64 0.9960673478191927 -1.0461329520193634 0.30050143662731194
19 -0.11815686236007886 0.07624423683782 0.8464214893853745
48 0.7384719063343761 -0.4331623452310212 -0.045622249647879545
67 -0.39039861761124106 -0.402429528437116 -1.0268077393951576
65 0.22804766544218485 0.013593491892553477 0.428346904487533
66 0.6085806307486866 -0.03637331375197649 0.38400083825216325
2 -0.2742570602269162 -1.0820688325735583 -0.47365455818580804
60 -0.8383644718016148 -0.24163956112825583 -0.7575804595309886
63 -0.6985696808671606 -0.5263556387247599 -0.5174764737533345
61 -0.4820580722802715 0.3447350871822841 -0.1327287474763456
59 -0.12792113703944438 0.04066565435534846 -0.2789550830626732
4 -0.15687874744280045 -0.2826805076066571 0.3210618824654999
62 0.04208604095953357 0.265287106269931 0.36316444982135937
43 0.8170884526950388 0.20305653742362775 1.1814250220029496
71 -0.16527282334756482 -0.35271927191250496 -0.24461632856229543
73 -0.28335286255800923 1.161197730557917 -0.34485961473105575
72 -0.8621220941373101 0.930209588720618 -0.4707827381311237
76 -0.7395228955338733 -0.25558255452042666 0.46457349603226
74 0.005086542357702486 -0.19200461996651727 -0.1045178003497107
36 1.5926759954110623 -1.1161485914128442 -1.1096684451827767
79 -0.2077968678323241 0.43371997332029605 0.14645098427129233
77 -0.3316510659316611 0.13529776182595338 -0.7038585339721223
68 -0.03001518638132065 -0.3654702643728053 -0.035494566800951845
70 -0.8238921140135217 0.3605511267741425 0.7128896558683981
69 0.44208298064174467 0.5019200813566499 -0.6525680055713952
8 0.09797175422493282 -0.1218261532734328 0.5273698305312754
7 -0.7056732484330722 0.770092469542005 -1.3422423656023723
51 0.9939180761442494 -0.7513215817353521 0.3118839562327325
50 0.3014788045122139 0.2527094076928379 0.0012921989348819336
52 0.029311552758527672 -0.9228463868484613 -0.11752534501392645
18 0.3065941776553107 -0.3480897855635952 0.21985398528797284
25 -0.2374463654663315 1.9597417064945872 -0.02120242532511633
23 0.010801587839774597 0.0984090418189138 -0.04261772024783266
24 -0.14940902925709446 2.078445457151096 -0.2803066097263299
75 0.3799317083275498 -0.7251880553894372 -0.6223179496448193
3 1.0045068330360463 -0.408266756357662 -0.2699914872265001
5 -0.5912610689905184 0.18768495726824908 -1.224329129732054
1 -0.09328660125848276 -0.4680247880149139 0.1782574540173001
78 1.1417255704725584 0.05750785467940566 0.9119092406655017

Bonds

1 1 14 15
2 1 14 16
3 1 29 30
4 1 29 31
5 1 44 45
6 1 44 46
7 1 11 12
8 1 11 13
9 1 56 57
10 1 56 58
11 1 38 39
12 1 38 40
13 1 41 42
14 1 41 43
15 1 20 21
16 1 20 22
17 1 6 7
18 1 6 8
19 1 6 9
20 1 6 10
21 1 35 36
22 1 35 37
23 1 53 54
24 1 53 55
25 1 32 33
26 1 32 34
27 1 26 27
28 1 26 28
29 1 47 48
30 1 47 49
31 1 17 18
32 1 17 19
33 1 65 66
34 1 65 67
35 1 59 60
36 1 59 61
37 1 62 63
38 1 62 64
39 1 71 72
40 1 71 73
41 1 74 75
42 1 74 76
43 1 77 78
44 1 77 79
45 1 68 69
46 1 68 70
47 1 50 51
48 1 50 52
49 1 23 24
50 1 23 25
51 1 1 2
52 1 1 3
53 1 1 4
54 1 1 5

Angles

1 1 15 14 16
2 1 30 29 31
3 1 45 44 46
4 1 12 11 13
5 1 57 56 58
6 1 39 38 40
7 1 42 41 43
8 1 21 20 22
9 2 7 6 8
10 2 7 6 9
11 2 7 6 10
12 2 8 6 9
13 2 8 6 10
14 2 9 6 10
15 1 36 35 37
16 1 54 53 55
17 1 33 32 34
18 1 27 26 28
19 1 48 47 49
20 1 18 17 19
21 1 66 65 67
22 1 60 59 61
23 1 63 62 64
24 1 72 71 73
25 1 75 74 76
26 1 78 77 79
27 1 69 68 70
28 1 51 50 52
29 1 24 23 25
30 2 2 1 3
31 2 2 1 4
32 2 2 1 5
33 2 3 1 4
34 2 3 1 5
35 2 4 1 5
