LAMMPS (2 Aug 2023 - Update 3)
Created orthogonal box = (-16.594292 -16.594292 -16.594292) to (16.594292 16.594292 16.594292)
  1 by 2 by 3 MPI processor grid
Reading pair table potential file sysFiles/pachTab.table with DATE: 2024-07-08
WARNING: 76 of 1000000 force values in table POT are inconsistent with -dE/dr.
WARNING:  Should only be flagged at inflection points (../pair_table.cpp:466)
Reading pair table potential file sysFiles/pachTab.table with DATE: 2024-07-08
WARNING: 76 of 1000000 force values in table POT are inconsistent with -dE/dr.
WARNING:  Should only be flagged at inflection points (../pair_table.cpp:466)
Read molecule template CL:
  1 molecules
  0 fragments
  5 atoms with max type 3
  4 bonds with max type 1
  6 angles with max type 2
  0 dihedrals with max type 0
  0 impropers with max type 0
Read molecule template MO:
  1 molecules
  0 fragments
  3 atoms with max type 4
  2 bonds with max type 1
  1 angles with max type 1
  0 dihedrals with max type 0
  0 impropers with max type 0
Created 1200 atoms
  using lattice units in orthogonal box = (-16.594292 -16.594292 -16.594292) to (16.594292 16.594292 16.594292)
  create_atoms CPU = 0.010 seconds
WARNING: Only inserted 4885 particles out of 7760 (../create_atoms.cpp:855)
Created 14655 atoms
  using lattice units in orthogonal box = (-16.594292 -16.594292 -16.594292) to (16.594292 16.594292 16.594292)
  create_atoms CPU = 554.435 seconds
1200 atoms in group CrossLinker
14655 atoms in group Monomer
10730 atoms in group Patches
240 atoms in group CL
4885 atoms in group MO
960 atoms in group PA
5125 atoms in group CM
0 atoms in group Energy
0 atoms in group PairE1
0 atoms in group PairE2
0 atoms in group PairE3
0 atoms in group Displ
0 atoms in group Stress
WARNING: Using a manybody potential with bonds/angles/dihedrals and special_bond exclusions (../pair.cpp:242)
Neighbor list info ...
  update: every = 1 steps, delay = 0 steps, check = yes
  max neighbors/atom: 2000, page size: 100000
  master list distance cutoff = 2.92
  ghost atom cutoff = 2.92
  binsize = 1.46, bins = 23 23 23
  7 neighbor lists, perpetual/occasional/extra = 7 0 0
  (1) pair zero, perpetual, skip from (5)
      attributes: half, newton on
      pair build: skip
      stencil: none
      bin: none
  (2) pair lj/cut, perpetual, skip from (5)
      attributes: half, newton on
      pair build: skip
      stencil: none
      bin: none
  (3) pair table, perpetual, skip from (6)
      attributes: half, newton on, cut 2.4
      pair build: skip
      stencil: none
      bin: none
  (4) pair threebody/table, perpetual, skip from (7)
      attributes: full, newton on, cut 2.4
      pair build: skip
      stencil: none
      bin: none
  (5) neighbor class addition, perpetual
      attributes: half, newton on
      pair build: half/bin/newton
      stencil: half/bin/3d
      bin: standard
  (6) neighbor class addition, perpetual, trim from (5)
      attributes: half, newton on, cut 2.4
      pair build: trim
      stencil: none
      bin: none
  (7) neighbor class addition, perpetual
      attributes: full, newton on, cut 2.4
      pair build: full/bin
      stencil: full/bin/3d
      bin: standard
Setting up Verlet run ...
  Unit style    : lj
  Current step  : 0
  Time step     : 0.001
Per MPI rank memory allocation (min/avg/max) = 15.1 | 15.11 | 15.11 Mbytes
   Step          Temp          E_pair         E_mol          TotEng         Press     
         0   0              0              0.010046211    0.010046211    0.031561009  
      1000   0.00088582585  0              0.00011856237  0.0014472173   0.0015345849 
      2000   8.8303179e-05  0              0.00022649939  0.0003589458  -0.0045145581 
      3000   0.0001478236   0              8.8517486e-05  0.0003102389  -0.00018445977
      4000   0.0001827782   0              0.0001229821   0.00039713211  0.00059291084
      5000   0.00022946382  0              0.00015623166  0.00050040569  9.9242488e-05
      6000   0.00028296289  0              0.00019106482  0.00061548239 -0.0001322847 
      7000   0.00033425189  0              0.00022715879  0.00072850501  9.096854e-05 
      8000   0.00038191191  0              0.00025735258  0.00083018431  0.00016467185
      9000   0.00042665809  0              0.00029206509  0.00093201186 -4.129915e-05 
     10000   0.00048293607  0              0.00032466677  0.0010490252   9.8187965e-05
     11000   0.00052955755  0              0.00036010149  0.0011543877   0.00039461136
     12000   0.00058331643  0              0.0004004755   0.001275395    0.00054516468
     13000   0.00063103238  0              0.00043123192  0.0013777208   0.00020669054
     14000   0.00068245404  0              0.00046496777  0.0014885843  -0.00021053682
     15000   0.00073108148  0              0.00049359515  0.0015901482   0.00015566113
     16000   0.00078507578  0              0.00052397598  0.0017015154   0.00033612942
     17000   0.00083151838  0              0.00057046032  0.0018176592   0.00012102779
     18000   0.00087762607  0              0.0005973192   0.0019136753  -2.8688653e-05
     19000   0.00092778469  0              0.00063912897  0.0020307182  -0.0003963288 
     20000   0.00098485613  0              0.00068274774  0.0021599388   0.00022226593
     21000   0.0010280258   0              0.00069974268  0.0022416842   0.00047334183
     22000   0.0010755803   0              0.00074195581  0.0023552244   0.00034733834
     23000   0.0011363601   0              0.0007726567   0.0024770894   0.00023646989
     24000   0.0011884532   0              0.00079110268  0.00257367     0.0003480717 
     25000   0.0012379188   0              0.00084206512  0.0026988262   0.00039778143
     26000   0.0012799396   0              0.00086744842  0.0027872367  -5.6856066e-05
     27000   0.0013407877   0              0.00090239419  0.0029134488   0.00017944287
     28000   0.0013845473   0              0.0009361891   0.0030128791   0.00033002286
     29000   0.0014300422   0              0.00095556374  0.0031004917   0.00022195116
     30000   0.0014828623   0              0.0010023369   0.0032264901  -8.2338894e-05
     31000   0.0015345999   0              0.0010479235   0.0033496782  -5.1429763e-05
     32000   0.0015889022   0              0.001075329    0.003458532    0.0005531586 
     33000   0.0016272412   6.3987879e-08  0.0010930522   0.003533824    0.00037081529
     34000   0.0016641649   0              0.0011532618   0.0036493517   0.00056775957
     35000   0.0017354919   0              0.0011817248   0.0037847985   0.00011970523
     36000   0.0017908989   4.3571959e-08  0.0012086855   0.003894908    0.00033307921
     37000   0.0018286208  -1.4998601e-30  0.0012509362   0.0039936944   0.00010884929
     38000   0.0018877778  -1.0651211e-06  0.0012629968   0.0040934198   0.0007073503 
     39000   0.0019269049  -5.9358913e-05  0.0013069173   0.0041377335   1.3813109e-05
     40000   0.0019958902  -6.2945889e-05  0.0013257777   0.0042564783   0.00015414817
     41000   0.0020645517  -0.00011526333  0.001378715    0.0043600839   0.00043184102
     42000   0.0020712818  -0.00012458901  0.0014308714   0.0044130091   0.0003243051 
     43000   0.0021272702  -0.00012563964  0.001473254    0.0045383184   0.00036471522
     44000   0.0021814008  -0.0001260815   0.0014952934   0.0046411068   0.00051488264
     45000   0.0022321877  -0.00012570881  0.0015444258   0.0047667874   0.0003574136 
     46000   0.0022734525  -0.000188798    0.001585609    0.0048067747   0.00023845771
     47000   0.0023492231  -0.00032897223  0.001600036    0.0047946762  -0.0004762356 
     48000   0.0023773103  -0.00037446432  0.0016301574   0.0048214336   0.00029855244
     49000   0.002432295   -0.00037910136  0.0016575905   0.0049267016  -8.2474114e-09
     50000   0.002464157   -0.00043903167  0.0016918924   0.0049488631  -2.6157979e-05
     51000   0.0025352042  -0.00044740149  0.0017256772   0.0050808422   0.00069504116
     52000   0.0025941714  -0.00059085096  0.0017986913   0.005098852    6.2738512e-05
     53000   0.0026161747  -0.0006664501   0.0018027168   0.0050602812   0.00035267587
     54000   0.0026787179  -0.00068650448  0.001836843    0.005168162    0.00060140889
     55000   0.0027450855  -0.00070831677  0.0018935112   0.0053025629   0.00010757239
     56000   0.0028214338  -0.00093877444  0.0018694778   0.005162587    0.00024606295
     57000   0.0028481237  -0.0010278288   0.0019058303   0.0051499176   0.0008122052 
     58000   0.0029144236  -0.0012610456   0.0019916446   0.0051019586  -0.00018217878
     59000   0.0029395665  -0.0014348957   0.0020281787   0.0050023546  -0.00012670326
     60000   0.0030306793  -0.0016835279   0.0020620048   0.0049242091   0.0010722972 
     61000   0.0030344444  -0.001826041    0.0021293936   0.004854732    0.00034978815
     62000   0.0031111777  -0.0021139584   0.0021833949   0.0047359087   0.00075319376
     63000   0.0032050429  -0.0024121359   0.0021974852   0.0045926104   0.00027584128
     64000   0.0032127986  -0.0026854079   0.0022111244   0.0043446104  -0.00040953112
     65000   0.0032556964  -0.0029058339   0.00222937     0.0042067727   0.00047897673
     66000   0.0033205779  -0.0032654713   0.0022451736   0.0039602551   0.00017182815
     67000   0.0033314441  -0.0033355864   0.0022744998   0.0039357642   6.5212032e-05
     68000   0.0034095618  -0.0035246447   0.0023152595   0.0039046349   0.0011613662 
     69000   0.0035353606  -0.0038969045   0.0024148217   0.0038206236   0.00083578897
     70000   0.0035580188  -0.0043174344   0.0023912459   0.0034105032   3.617732e-06 
     71000   0.0036239516  -0.0049521717   0.0024672075   0.0029506204   0.00077727757
     72000   0.003592969   -0.0051923525   0.0024892569   0.002686018   -0.00072740155
     73000   0.0036920735  -0.0055717809   0.0025688269   0.0025348069   0.00084167578
     74000   0.0037882129  -0.0062573094   0.0026197787   0.0020444303   0.00090027071
     75000   0.0037838572  -0.0064866627   0.0025875505   0.0017763157   0.0002662324 
     76000   0.0038352466  -0.0069129121   0.0026389046   0.0014784995   0.0002483144 
     77000   0.0038803109  -0.0073335683   0.0026605569   0.0011470877   0.00056892201
     78000   0.0039707373  -0.0076339958   0.0027405349   0.0010622695   0.0006611764 
     79000   0.0039444151  -0.0078913098   0.0027865228   0.00081146244  0.00065862951
     80000   0.0040072683  -0.0082441026   0.0027218602   0.00048828091  0.00068876399
     81000   0.0040546268  -0.0085291036   0.0028431826   0.00039563564  0.001063091  
     82000   0.0042201441  -0.0093792412   0.0029273921  -0.00012203228  0.000366853  
     83000   0.0043095852  -0.010290308    0.0029688712  -0.00085746699  0.00036758631
     84000   0.004318594   -0.010721234    0.0029174196  -0.0013263319   6.2396001e-05
     85000   0.0043380681  -0.011331049    0.0029332615  -0.0018910959   0.00098921845
     86000   0.0044603126  -0.010954642    0.0031056368  -0.0011589586   0.00087977227
     87000   0.0045174018  -0.012181637    0.0032770718  -0.0021288903   0.00044282973
     88000   0.0044109328  -0.012851321    0.0030437745  -0.0031915651   0.0011913425 
     89000   0.0045338174  -0.013466479    0.0031098544  -0.0035563271   7.6475649e-05
     90000   0.0045508711  -0.0143897      0.0031639544  -0.0043998698   0.0014908833 
     91000   0.004624268   -0.014652257    0.0032170204  -0.0044992716   0.0011753547 
     92000   0.0046958558  -0.015894581    0.0031943879  -0.005656854    0.00033625262
     93000   0.0047371221  -0.016749418    0.0032644749  -0.0063797079   0.0001538297 
     94000   0.0047868289  -0.016881578    0.0032493737  -0.0064524142   0.0008607608 
     95000   0.0048094521  -0.017185951    0.0032518056  -0.0067204217   0.0004072039 
     96000   0.0047927012  -0.017867065    0.0032937008  -0.0073847661   0.00025652967
     97000   0.0049322995  -0.018719447    0.0033536709  -0.0079677932   0.0011293516 
     98000   0.0054855423  -0.017858828    0.0035702975  -0.0060607355   0.00034188197
     99000   0.0052374518  -0.01768219     0.0037144368  -0.006112071   -0.00021163117
    100000   0.0052494597  -0.018445985    0.0037940922  -0.0067782003   0.00030567773
    101000   0.0051203796  -0.019233941    0.0035746155  -0.0079792407   0.00093810119
    102000   0.0051850017  -0.020368908    0.0036654073  -0.008926489    0.0011903767 
    103000   0.0053735128  -0.020751875    0.0037296165  -0.0089624976   0.0016967106 
    104000   0.0052910662  -0.022417129    0.0036604382  -0.010820592    0.001072943  
    105000   0.0053475784  -0.021570115    0.0036851833  -0.0098640698   0.00079136792
    106000   0.0053666791  -0.022943297    0.0036200491  -0.011273737    0.0013558674 
    107000   0.0054352479  -0.024163243    0.0037723317  -0.012238554    0.00072286435
    108000   0.0055170531  -0.023225208    0.0037710829  -0.011179067    0.00052812079
    109000   0.0058888364  -0.022653096    0.003857774   -0.0099626244   0.00011258639
    110000   0.0057846948  -0.022151455    0.0040290259  -0.0094459343   0.00037224682
    111000   0.0058639455  -0.022740378    0.0040971514  -0.0098478626   0.0012795173 
    112000   0.0060931751  -0.024832379    0.004403875   -0.011289317    0.00041061681
    113000   0.0058679072  -0.026986958    0.0040548185  -0.014130834    0.0020576563 
    114000   0.005775633   -0.027531283    0.0039630903  -0.01490529     0.00061826888
    115000   0.0059291182  -0.026811407    0.0040021989  -0.013916091    0.00064370998
    116000   0.0058936863  -0.028261162    0.0041207993  -0.015300391    0.0015668109 
    117000   0.0060910028  -0.027738864    0.0042848632  -0.014318073   -0.00041516797
    118000   0.0062539824  -0.032526249    0.0042194757  -0.018926392    0.0014560514 
    119000   0.0061026965  -0.030490533    0.0043027428  -0.017034323   -0.00023647022
    120000   0.0061053763  -0.031258355    0.0041573626  -0.017943506    0.0010296066 
    121000   0.0061466539  -0.03423227     0.0042681412  -0.020744729    0.0014977786 
    122000   0.006300144   -0.034404095    0.0042281873  -0.020726288   -0.0005395789 
    123000   0.0063080099  -0.034197768    0.004319106   -0.020417244   -0.00079396404
    124000   0.0063259801  -0.035126656    0.0044375269  -0.021200757   -0.00012715621
    125000   0.006391708   -0.033851466    0.0043590687  -0.01990544    -3.2743604e-05
    126000   0.0070003151  -0.036492065    0.0047499156  -0.021242339    0.0021628325 
    127000   0.0066541647  -0.037473807    0.0046625195  -0.02283067     0.0020564541 
    128000   0.0068990895  -0.039327331    0.0047956211  -0.024183729    0.0022232501 
    129000   0.0068583185  -0.037516756    0.0046905778  -0.022539349    0.00020956711
    130000   0.0071097649  -0.040116283    0.0048164498  -0.024635859   -0.00022839409
    131000   0.0069748986  -0.041405311    0.0047648852  -0.026178737   -9.4990176e-05
    132000   0.0074075371  -0.041845049    0.0049367386  -0.025797706   -0.00038096391
    133000   0.0074638392  -0.041779854    0.0049270226  -0.025657779   -0.00032174824
    134000   0.007100896   -0.044565496    0.0049660396  -0.028948784    0.001256413  
    135000   0.0068428479  -0.044971339    0.004836321   -0.029871393    0.00123022   
    136000   0.0069842118  -0.043281504    0.0048192132  -0.027986634    0.0014541801 
    137000   0.0071383779  -0.045480289    0.0048681028  -0.029905294    0.0014441761 
    138000   0.0072081791  -0.044244555    0.0049002773  -0.028532691    0.0016884995 
    139000   0.007841344   -0.045505122    0.005448331   -0.028295516   -0.0001867685 
    140000   0.0076608351  -0.047475398    0.005042567   -0.030942303    0.0021815794 
    141000   0.0077897168  -0.04649676     0.0055272142  -0.029285707    0.0012203052 
    142000   0.0082940849  -0.044431962    0.0057832914  -0.026208328    0.0016087626 
    143000   0.007754297   -0.041000907    0.0058132734  -0.023556922   -0.00047315509
    144000   0.0080011602  -0.047489416    0.00524577    -0.030242663    0.00067450385
    145000   0.0082620282  -0.048029669    0.0055532361  -0.030084172    0.00018174085
    146000   0.0081882796  -0.050981942    0.0056884653  -0.033011832    0.0010079738 
    147000   0.0081890194  -0.051424755    0.0057723755  -0.033369625    0.0016310192 
    148000   0.0089402175  -0.044321866    0.0068836877  -0.024028698    0.0015302937 
    149000   0.0087285448  -0.047680705    0.0064944809  -0.028094232    0.0012309215 
    150000   0.0089645622  -0.043109748    0.0067119902  -0.022951763   -0.002127536  
    151000   0.0091543939  -0.048342873    0.0065145911  -0.028097558    0.00010273932
    152000   0.0093448346  -0.053114597    0.0064754621  -0.032622767    0.0024415718 
    153000   0.0086297872  -0.051854495    0.0060068295  -0.032903801   -0.00094200245
    154000   0.0087978999  -0.056803174    0.0058970668  -0.03771009     0.0014252794 
    155000   0.0083652929  -0.056344945    0.0058696458  -0.037928151    0.0019829554 
    156000   0.0094540959  -0.052463341    0.006147839   -0.032135252    0.00060798829
    157000   0.0089910045  -0.052848481    0.0060912024  -0.033271623    0.0015188413 
    158000   0.0093281111  -0.051577153    0.0062753722  -0.031310497    0.0008016414 
    159000   0.010338591   -0.053004336    0.0068393222  -0.030658106    0.00018815926
    160000   0.0099229842  -0.053427493    0.0067400168  -0.031803938    0.0028014016 
    161000   0.010138882   -0.053338671    0.0070133429  -0.031117964   -0.0022797932 
    162000   0.0094510738  -0.050017256    0.0065945141  -0.029247025    8.4389355e-06
    163000   0.0092046094  -0.052920132    0.00692322    -0.032190869    0.0012698204 
    164000   0.0094124698  -0.048064781    0.0065793998  -0.027367567   -0.00086342302
    165000   0.0095809069  -0.053034909    0.006567301   -0.032097154    0.0010170486 
    166000   0.010188605   -0.050513193    0.006786279   -0.02844497    -0.00030052161
    167000   0.010479514   -0.048653848    0.0068768262  -0.026058743    0.0021316132 
    168000   0.010166106   -0.053192046    0.0071654602  -0.030778388   -0.0005333203 
    169000   0.010145922   -0.051033718    0.0072587419  -0.028557053    0.0007777056 
    170000   0.010683176   -0.05385747     0.0080282859  -0.029805431    0.0045050439 
    171000   0.010965162   -0.050168001    0.0076627512  -0.026058544    0.00044645363
    172000   0.010234834   -0.046226671    0.0076070702  -0.023268318   -0.00044044526
    173000   0.010750118   -0.052834944    0.006959792   -0.029750992   -7.9721238e-06
    174000   0.010560591   -0.051549984    0.0071878013  -0.028522295    0.0015588363 
    175000   0.011195109   -0.051710724    0.0077274814  -0.027191638    0.00011773532
    176000   0.010033712   -0.059313727    0.0071646184  -0.03709949     0.00086135358
    177000   0.0098740964  -0.052759721    0.0071860405  -0.03076347    -0.00087782786
    178000   0.01065567    -0.057375723    0.0075581563  -0.03383507     0.0025151757 
    179000   0.010608746   -0.057537842    0.0074540937  -0.034171633    0.002062296  
    180000   0.010008938   -0.06462572     0.0071271371  -0.042486123    0.0046969717 
    181000   0.010798217   -0.056986862    0.0075132778  -0.03327728     0.00089301247
    182000   0.010797262   -0.058986851    0.0077876554  -0.035004325    0.00063262652
    183000   0.010977963   -0.0567205      0.0078390217  -0.032415572    0.00063859184
    184000   0.010759114   -0.057688972    0.0074738913  -0.034077427    0.00027254873
    185000   0.012067752   -0.053101808    0.0084883373  -0.026512984    0.0018484371 
    186000   0.011325007   -0.052783598    0.0075854678  -0.028211691   -0.00065759797
    187000   0.010756278   -0.054176473    0.0076676687  -0.030375405    0.0012756372 
    188000   0.011556133   -0.052910818    0.0085335434  -0.027044168    0.002234445  
    189000   0.010877322   -0.059976913    0.0082373064  -0.035424653    0.0030068727 
    190000   0.01134963    -0.05659984     0.0078181846  -0.031758285    4.9823502e-05
    191000   0.011060913   -0.051104112    0.007739901   -0.026773887   -0.0024307677 
    192000   0.011871905   -0.051007558    0.0085122589  -0.024688565    0.0010014389 
    193000   0.011882972   -0.061306474    0.008329827   -0.035153313    0.0036764823 
    194000   0.012029301   -0.050749422    0.0082403896  -0.024466219    0.0019301008 
    195000   0.01223505    -0.060192043    0.0086279991  -0.033212627    0.0010739825 
    196000   0.012216682   -0.048689039    0.0086145581  -0.021750614   -0.0011893504 
    197000   0.01113595    -0.063539511    0.0076102954  -0.039226345    0.0019771329 
    198000   0.011347595   -0.061513541    0.0077881321  -0.036705089    0.00067427589
    199000   0.011088388   -0.060879148    0.0081827377  -0.036064877    0.0037378438 
    200000   0.011287565   -0.063183886    0.0076539315  -0.038599675    0.0023258106 
    201000   0.01208428    -0.051044286    0.0078142233  -0.025104785    0.0011397296 
    202000   0.012970686   -0.056196549    0.0094928128  -0.027248934    0.0010347837 
    203000   0.012374857   -0.05657216     0.0091981919  -0.028812854    0.00055887427
    204000   0.01273666    -0.055772986    0.0091228556  -0.027546346    0.0014672875 
    205000   0.013033534   -0.054045726    0.0089322637  -0.025564395   -0.0014507886 
    206000   0.013535577   -0.055779725    0.0092950167  -0.026182623    0.0016589    
    207000   0.014052164   -0.056809846    0.0099827415  -0.025750189    0.0030290125 
    208000   0.014833946   -0.047951548    0.011284484   -0.014417549   -0.00015656888
    209000   0.013616507   -0.048324054    0.010042658   -0.017857924    2.7219665e-05
    210000   0.013915811   -0.048643291    0.0094833692  -0.018287521   -0.0024333372 
    211000   0.013309448   -0.050876141    0.0097874516  -0.021125776    0.00063524471
    212000   0.013231073   -0.055370283    0.009218305   -0.02630662     0.0035162238 
    213000   0.013964532   -0.061512277    0.009873493   -0.030693306   -0.00067218165
    214000   0.014434956   -0.060586783    0.010126099   -0.028809615    0.005202092  
    215000   0.013497448   -0.060759286    0.010604944   -0.029909447    0.0012038615 
    216000   0.014221558   -0.062616303    0.010150935   -0.031134376    0.0029474792 
    217000   0.014289018   -0.064043561    0.0099481082  -0.032663278    0.0043597036 
    218000   0.015330224   -0.062084812    0.010245452   -0.028845474    0.0055105758 
    219000   0.015201329   -0.063854919    0.010898096   -0.030156267    0.0017859213 
    220000   0.015349841   -0.055526427    0.010804977   -0.02169814     0.00085482548
    221000   0.014495456   -0.058576625    0.010782781   -0.026052031   -0.0015711339 
    222000   0.015240949   -0.056098263    0.010619181   -0.022619101   -0.00011981621
    223000   0.014871969   -0.05595092     0.010947606   -0.022696767   -0.001260718  
    224000   0.015945752   -0.052036393    0.011417567   -0.016701707    0.0022287346 
    225000   0.015422468   -0.067974424    0.01078248    -0.034059701    0.0015766639 
    226000   0.016180921   -0.047878118    0.011567435   -0.012040832    0.0013699113 
    227000   0.015752501   -0.0543606      0.011493729   -0.01923961    -0.00017780621
    228000   0.016640973   -0.049273255    0.011864683   -0.012448688    0.00027574983
    229000   0.016938998   -0.055375003    0.012226522   -0.017741587    3.0713348e-06
    230000   0.016377189   -0.045075235    0.011136724   -0.0093742764   0.00060143539
    231000   0.016150887   -0.057450607    0.013844954   -0.019380852    0.0026044349 
    232000   0.01633863    -0.050087504    0.011952263   -0.013628843   -0.00098341846
    233000   0.017886081   -0.044028557    0.01225396    -0.0049471673  -0.0020540097 
    234000   0.017563017   -0.050249188    0.012103559   -0.011802764    0.0024962921 
    235000   0.017573985   -0.043496832    0.012400617   -0.0047368994   0.0012756931 
    236000   0.016308273   -0.04953609     0.012460539   -0.012614684    0.0019218917 
    237000   0.016992583   -0.054141245    0.011997433   -0.016656545    0.0026916634 
    238000   0.016846487   -0.059542561    0.012171944   -0.022102479   -0.0016204781 
    239000   0.017316437   -0.050662992    0.01244217    -0.012247805    0.0065599992 
    240000   0.018242644   -0.047732805    0.013174889   -0.0071956763   0.0013297568 
    241000   0.017854555   -0.04722854     0.012767547   -0.0076808504   0.0012295299 
    242000   0.017301679   -0.051956103    0.012217391   -0.013787831    0.0020130674 
    243000   0.017336795   -0.054917317    0.012917935   -0.015995829    0.0035774291 
    244000   0.017732755   -0.047410661    0.012051073   -0.008762133   -0.0005041754 
    245000   0.018727226   -0.030071903    0.012983006    0.011000169    0.00030984722
    246000   0.018604288   -0.044820427    0.013884722   -0.0030310338  -0.00012568607
    247000   0.018766768   -0.041376956    0.01336177     0.00013319113  0.0011989097 
    248000   0.021787672   -0.037678143    0.013525104    0.0085264082   0.0010795089 
    249000   0.019961548   -0.035827215    0.01340156     0.0075147781   0.0010123731 
    250000   0.020726411   -0.029765895    0.015184371    0.016506132   -0.00334043   
    251000   0.021714509   -0.025814972    0.017099328    0.023854066    0.00029649546
    252000   0.02115057    -0.033000021    0.016159138    0.01488297    -0.00039303932
    253000   0.0232924     -0.010791736    0.016188907    0.040333567    0.0014853793 
    254000   0.02188082    -0.0093422059   0.016315154    0.039792107    0.0044057158 
    255000   0.02227539    -0.033484249    0.015279529    0.015206258    0.0022048867 
    256000   0.020526836   -0.020484808    0.01509688     0.025400384    0.0018442701 
    257000   0.021743036   -0.034864945    0.017022473    0.014770024    0.0013723966 
    258000   0.023849648   -0.012267656    0.016598289    0.040102849   -0.002007799  
    259000   0.023006897   -0.007473224    0.014971439    0.042006385    0.00022148252
    260000   0.021803855   -0.0093682164   0.015487028    0.038822532   -0.00075853639
    261000   0.022974596   -0.031305962    0.018199502    0.021353261    0.0050726598 
    262000   0.02353794    -0.005960981    0.016735409    0.046079112   -0.0035588992 
    263000   0.024470973    0.00088425088  0.017104814    0.054693209   -0.0025562044 
    264000   0.027139609   -0.020134773    0.017534702    0.038106775    0.004847979  
    265000   0.025954122   -0.011143478    0.018351354    0.046136603    0.0030035415 
    266000   0.025343041   -0.0014314451   0.019574173    0.056154892    0.0045336716 
    267000   0.025990911    0.012911964    0.019869558    0.071765429    0.005857522  
    268000   0.026908686    0.0086397983   0.02187695     0.070877231   -0.00044783287
    269000   0.027386616   -0.002284765    0.022729731    0.0615223      0.0038548057 
    270000   0.027621637    0.0071602792   0.018725576    0.067315697    0.0064988741 
    271000   0.025668634    0.0030848072   0.018494726    0.060080055   -0.0020607065 
    272000   0.025806541    0.014021315    0.020298981    0.073027665   -0.0028063824 
    273000   0.026631975    0.0063985826   0.019784185    0.066128211    0.00047927099
    274000   0.026602103   -0.0041553463   0.018509801    0.054255093    0.0020713826 
    275000   0.027813718    0.0082887605   0.019045547    0.069052253    0.0048802593 
    276000   0.026786083    0.00031796899  0.020387257    0.060881816    0.00051510689
    277000   0.026851693   -0.011087094    0.018251798    0.047439703    0.0009466018 
    278000   0.027561146    0.01798045     0.01994936     0.079268922   -0.0011460314 
    279000   0.026258485    0.011347141    0.019778404    0.070510788   -0.0026332372 
    280000   0.028399935    0.0081250295   0.022670599    0.073392845    0.0050846407 
    281000   0.027476002    0.0068788357   0.020954761    0.069045       0.0049192875 
    282000   0.030029978    0.025354755    0.021259059    0.091655941    0.00091720771
    283000   0.028561931    0.00078147514  0.021095974    0.064717644    0.0037473618 
    284000   0.030160001    0.02628573     0.021832484    0.093355362    0.0013578806 
    285000   0.029581142    0.0096813002   0.020422611    0.074472826    9.9907531e-05
    286000   0.029754949    0.048216886    0.020485619    0.11333211    -0.0012195015 
    287000   0.028043072    0.037727967    0.023499592    0.10328951    -0.001052179  
    288000   0.029181881    0.036153769    0.022876088    0.10279992     0.0039290641 
    289000   0.029572148    0.052403374    0.022477636    0.11923643    -0.0028320208 
    290000   0.030184813    0.036977926    0.023540132    0.10579242     0.0013753852 
    291000   0.0298054      0.046427083    0.022803648    0.11393601     0.0076343652 
    292000   0.030578861    0.055649081    0.024518477    0.12603296     3.1159391e-05
    293000   0.032533697    0.044762498    0.022008073    0.11556804    -0.0061048426 
    294000   0.03351603     0.058229999    0.026448268    0.13494914     0.0062480877 
    295000   0.031660534    0.046036512    0.023000577    0.11652489     0.00025368973
    296000   0.034331414    0.055599469    0.025715778    0.13280912    -0.0020121825 
    297000   0.035045603    0.061823819    0.026252124    0.14064103     0.00016075864
    298000   0.03661359     0.064664582    0.024889766    0.14447127     0.0032160898 
    299000   0.039122786    0.079483218    0.028284319    0.16644801    -0.00092479825
    300000   0.035631223    0.094305158    0.029141514    0.17689014     0.0022328867 
    301000   0.036591863    0.074237999    0.027294622    0.15641695     0.0055299839 
    302000   0.03802189     0.083880522    0.028082912    0.16899267     0.0047002906 
    303000   0.039109282    0.10081267     0.028569981    0.18804287     0.011482743  
    304000   0.038232728    0.095568128    0.030198769    0.18311237     0.0053649666 
    305000   0.037978067    0.10147203     0.030430128    0.18886566     0.0017345066 
    306000   0.039331766    0.11105168     0.030907406    0.20095302     0.0035600003 
    307000   0.041158869    0.11106181     0.028917858    0.20171408     0.0021958746 
    308000   0.04035448     0.10662814     0.031063151    0.19821919     0.0013334413 
    309000   0.039058747    0.11852455     0.027766536    0.20487551     0.0060025145 
    310000   0.042662911    0.12112378     0.029641017    0.21475513     0.012632591  
    311000   0.041871507    0.13242391     0.031835708    0.22706292    -0.0046076188 
    312000   0.038643252    0.10458725     0.029314143    0.19186261     0.0071247033 
    313000   0.03899242     0.072720197    0.029096814    0.16030195    -0.0023764753 
    314000   0.038124566    0.097990744    0.029199741    0.18437373     0.0043472421 
    315000   0.037677281    0.1111139      0.03034181     0.19796806    -0.0039627558 
    316000   0.038566652    0.082891919    0.028148935    0.16888718     0.0020327709 
    317000   0.040236753    0.13238268     0.030122981    0.22285698    -0.001698748  
    318000   0.043864415    0.11285291     0.029690567    0.20833595     0.0024651274 
    319000   0.040579784    0.096978306    0.031507244    0.18935139     0.010072732  
    320000   0.040771676    0.10044583     0.028544843    0.19014433     0.0021923124 
    321000   0.041614485    0.12099741     0.032469424    0.21588463     0.0060022498 
    322000   0.042556793    0.13200757     0.031887636    0.22772637     0.00087852879
    323000   0.0421802      0.11616313     0.033070418    0.21249986     0.0038090331 
    324000   0.042763155    0.12147031     0.02929288     0.21490387     0.0054515956 
    325000   0.039508345    0.14423329     0.033069831    0.23656191     0.0021237847 
    326000   0.041093776    0.14546433     0.03034248     0.23744358     0.0013051137 
    327000   0.041644339    0.14133089     0.031404075    0.23519753     0.0043057242 
    328000   0.043793255    0.12340776     0.033229345    0.22232284     0.0074954429 
    329000   0.044366628    0.12175166     0.031408111    0.21970552     0.001055683  
    330000   0.040019284    0.10995047     0.029697324    0.19967293     0.0077485598 
    331000   0.043431096    0.14575244     0.03382132     0.2447163      0.00870284   
    332000   0.044183642    0.13226546     0.034931561    0.23346831     0.0054271322 
    333000   0.046783334    0.14846543     0.03557732     0.25421333    -0.0024563528 
    334000   0.045007356    0.15338152     0.034563795    0.25545209    -0.0072250149 
    335000   0.0464704      0.15194727     0.036064907    0.25771338     0.001348804  
    336000   0.045349454    0.14545537     0.036032662    0.24950792    -0.0027825165 
    337000   0.045127825    0.1430708      0.032779297    0.24353757     0.0015671537 
    338000   0.047683569    0.16698396     0.037270751    0.27577555    -0.0018847976 
    339000   0.048493933    0.15839277     0.036495553    0.26762463     0.0045741637 
    340000   0.047853437    0.1557341      0.034644739    0.26215447    -0.0094106047 
    341000   0.047285943    0.19190265     0.035927885    0.29875497    -0.0045500138 
    342000   0.049426812    0.18470624     0.039048001    0.29788978    -0.00065691914
    343000   0.04465365     0.19635913     0.038005104    0.30134048     0.0036813864 
    344000   0.048714055    0.19302787     0.036887214    0.30298156    -0.0027188153 
    345000   0.050316489    0.16803355     0.037265009    0.28076853     0.0015369986 
    346000   0.052122916    0.16558046     0.042817425    0.28657733     0.0071973082 
    347000   0.051311292    0.17289616     0.038790417    0.28864866    -0.0038853734 
    348000   0.050768615    0.18400218     0.036872216    0.29702251     0.010172428  
    349000   0.050735837    0.18068772     0.038104796    0.29489147     0.01500807   
    350000   0.049996539    0.18667872     0.039066864    0.30073566    -0.0066864313 
    351000   0.054387092    0.20263699     0.037277626    0.32149011     0.0047935401 
    352000   0.054393103    0.18759524     0.038737159    0.30791691     0.010031582  
    353000   0.053234656    0.21967208     0.042161296    0.34168032    -0.010697204  
    354000   0.056831215    0.21195594     0.04247659     0.33967397     0.0025745702 
    355000   0.055643953    0.20212074     0.04423079     0.3298122      0.00072619832
    356000   0.056266783    0.2061689      0.043766962    0.33433071     0.0017084378 
    357000   0.056111642    0.20911033     0.044048304    0.33732078     0.0038741118 
    358000   0.059192412    0.20665338     0.046284215    0.34172061     0.0050094927 
    359000   0.061000734    0.20390307     0.044488388    0.33988679     0.0052103062 
    360000   0.057722954    0.20366779     0.044363972    0.33461074     0.0097250311 
    361000   0.053579103    0.23967999     0.037881202    0.35792477    -0.0042613077 
    362000   0.057011972    0.18876173     0.042004563    0.31627885    -0.0032073384 
    363000   0.056490704    0.22798967     0.043603103    0.35632349     0.005977868  
    364000   0.054419983    0.25062557     0.04564426     0.37789465     0.010139637  
    365000   0.055190435    0.23962234     0.046197882    0.36860065    -0.00025813154
    366000   0.052581813    0.20218636     0.041878173    0.32293228     0.0052020948 
    367000   0.055684605    0.25133138     0.045021676    0.37987469     0.0034663365 
    368000   0.058727496    0.22434984     0.047536748    0.35997228    -0.0058411927 
    369000   0.05579018     0.22922189     0.045827693    0.35872957    -0.0096659324 
    370000   0.057200461    0.2682426      0.045913716    0.39995159     0.0033297262 
    371000   0.055962017    0.2325866      0.0439533      0.36047763     0.0020840822 
    372000   0.057915878    0.23697364     0.044899263    0.36874124    -0.002135859  
    373000   0.058566884    0.27608898     0.042567553    0.40650131     0.0029408123 
    374000   0.061399023    0.24480625     0.047064986    0.38396397     0.0026632855 
    375000   0.058290128    0.21332197     0.044100328    0.34485198     0.0083782474 
    376000   0.060250267    0.22412016     0.042324844    0.35681471     0.0073777413 
    377000   0.05832963     0.25863346     0.043793359    0.38991574     0.002048539  
    378000   0.058965686    0.24751295     0.044857924    0.38081382     0.00517758   
    379000   0.055478808    0.24562807     0.045311382    0.37415241     0.0019856599 
    380000   0.060796895    0.25875857     0.048289869    0.39823803    -0.00011957581
    381000   0.062261476    0.26537645     0.050764198    0.40952698     0.0086615755 
    382000   0.065665781    0.26329955     0.050028755    0.41182077     0.0075687068 
    383000   0.063133865    0.28744043     0.045660055    0.42779531    -0.0030264437 
    384000   0.066618143    0.27930549     0.046057649    0.42528406    -0.0046305514 
    385000   0.0583375      0.30092677     0.046168271    0.43459577     0.0050162299 
    386000   0.05967677     0.26557795     0.048894866    0.40398233     0.0029027795 
    387000   0.060801671    0.27769311     0.04809478     0.41698464    -0.0079537366 
    388000   0.064736464    0.2927658      0.047845664    0.43771004     0.0021790819 
    389000   0.06193636     0.28146837     0.049651449    0.4240185      0.0015519181 
    390000   0.062806095    0.30362138     0.047131206    0.44495579    -0.0039406394 
    391000   0.059892164    0.27960588     0.04441231     0.41385077     0.0015359611 
    392000   0.064152084    0.27956232     0.045555992    0.42134037    -0.00031439138
    393000   0.062780338    0.2642216      0.048692541    0.40707871     0.0054820522 
    394000   0.061986325    0.30024428     0.047042439    0.44026034     0.0087880963 
    395000   0.063975829    0.297508       0.047746223    0.44121191    -0.011668157  
    396000   0.061283734    0.27496102     0.050984505    0.41786533    -0.0025526677 
    397000   0.064845824    0.2819033      0.049831734    0.42899763     0.0050770784 
    398000   0.064288936    0.28502085     0.049730094    0.43117827    -0.0042200683 
    399000   0.063425409    0.25322332     0.050570032    0.39892547    -0.0028906152 
    400000   0.064053814    0.29906631     0.049494078    0.44463505     0.005091234  
    401000   0.066115799    0.28565572     0.050921654    0.43574482    -0.0035630791 
    402000   0.064535287    0.27617564     0.049792101    0.42276457     0.0066956402 
    403000   0.065649587    0.2900267      0.048412275    0.43690714     0.0025234131 
    404000   0.063367268    0.28200217     0.048077614    0.42512469     0.0047801453 
    405000   0.065621435    0.29334197     0.046922293    0.43869021     0.0057332956 
    406000   0.072852627    0.32179807     0.051902348    0.48297247     0.00077156235
    407000   0.069634097    0.31238124     0.052323067    0.46914886     0.012067853  
    408000   0.068449928    0.28335908     0.04866845     0.43469595     0.0010395018 
    409000   0.066118597    0.31431979     0.053980018    0.46747145    -0.0096753538 
    410000   0.069541493    0.32097053     0.055137659    0.48041385     0.0015662785 
    411000   0.063751049    0.30907587     0.050973559    0.45566997     0.0040718641 
    412000   0.066143982    0.33690721     0.052693544    0.48881047    -0.00014275838
    413000   0.065183137    0.31247061     0.053999081    0.46423823     0.0017221184 
    414000   0.070477394    0.31022108     0.053402852    0.46933335     0.017290772  
    415000   0.069458968    0.31653585     0.054703883    0.47542162     0.0093091975 
    416000   0.067336837    0.34050515     0.052629939    0.49413397    -0.010224767  
    417000   0.068734781    0.29778015     0.047424278    0.4483001      0.0016454976 
    418000   0.065658673    0.28197058     0.052276632    0.43272901     0.0074268931 
    419000   0.065858793    0.3144724      0.050600614    0.46385497     0.0046120688 
    420000   0.068746606    0.32993784     0.055645019    0.48869626    -0.0040209472 
    421000   0.069265542    0.3551605      0.053588338    0.5126406      0.011845214  
    422000   0.067054485    0.32476525     0.05324518     0.47858581    -6.1484572e-05
    423000   0.074946039    0.35704752     0.053498456    0.52295795     0.0099063764 
    424000   0.07487446     0.36067309     0.055746589    0.52872429     0.0085659014 
    425000   0.078676849    0.36661633     0.060476623    0.54510078    -0.0044849107 
    426000   0.077125497    0.37539193     0.061568547    0.55264143     0.013000661  
    427000   0.072573062    0.37732944     0.062125729    0.5483079      0.0005191619 
    428000   0.079894466    0.39550079     0.061798536    0.57713347     0.0021796395 
    429000   0.078973475    0.3815669      0.057007429    0.55702707     0.00078921905
    430000   0.079220475    0.35006377     0.057354746    0.52624174     0.008913576  
    431000   0.077689299    0.40495805     0.061675006    0.58315966    -0.0030968127 
    432000   0.079592674    0.38541843     0.06049562     0.56529553    -0.0018400877 
    433000   0.08256648     0.38233962     0.063782772    0.5699643     -0.0036060313 
    434000   0.081579143    0.40423978     0.062819722    0.5894205      0.0032503417 
    435000   0.08347776     0.43198246     0.06254902     0.61974023    -0.0017781954 
    436000   0.08064754     0.39749908     0.064251063    0.58271382    -0.00086777128
    437000   0.077913904    0.40789542     0.062472044    0.58723094    -0.0047759912 
    438000   0.080481467    0.42405626     0.061495117    0.60626597     0.0059269457 
    439000   0.078867844    0.42950481     0.064517956    0.61231707    -0.0019779072 
    440000   0.084139118    0.41194526     0.063200335    0.60134631     0.014655736  
    441000   0.083586294    0.40385281     0.062950195    0.59217454    -0.0078675829 
    442000   0.08392124     0.4312693      0.059846517    0.61698974     6.2046751e-05
    443000   0.080302347    0.42195848     0.061497097    0.6039015      0.0011513589 
    444000   0.082521309    0.43592731     0.067038126    0.62673959    -0.0023921186 
    445000   0.083343607    0.40310353     0.06809304     0.59620409     0.0014426567 
    446000   0.08131705     0.42968919     0.066443855    0.61810093     0.0025382159 
    447000   0.084204055    0.40044181     0.058778451    0.58551837     0.00027879767
    448000   0.081774829    0.41904422     0.063935145    0.60563388    -0.011402044  
    449000   0.080573418    0.41847804     0.060197315    0.59952786     0.0070677505 
    450000   0.07847131     0.38213689     0.062634429    0.56247086     0.0022681343 
    451000   0.083606507    0.40811589     0.06486588     0.59838362    -0.00082832357
    452000   0.08623822     0.43435823     0.0640249      0.6277323      0.016601504  
    453000   0.082809232    0.39223693     0.061910294    0.57835324    -0.0022073114 
    454000   0.081491689    0.42742395     0.061650442    0.61130421    -0.0079968631 
    455000   0.085903318    0.43953005     0.065832085    0.63420898     0.0022945986 
    456000   0.082729636    0.4127858      0.0669196      0.60379203     0.0045095129 
    457000   0.080849405    0.43130176     0.066035488    0.61860371    -0.0066645417 
    458000   0.085581782    0.42718466     0.068779908    0.62432915    -0.0034262697 
    459000   0.085040389    0.4301523      0.061805301    0.61951014    -0.00026744935
    460000   0.082242638    0.43495135     0.066680066    0.62498759    -0.01028269   
    461000   0.082161644    0.41970227     0.066252352    0.60918931    -0.00080442443
    462000   0.08743887     0.44591512     0.065905523    0.64297068     0.0062567545 
    463000   0.087988678    0.45288292     0.063027369    0.64788498    -0.0072265504 
    464000   0.084461746    0.45541577     0.066476984    0.64857738     0.0087557946 
    465000   0.084779591    0.4581015      0.065713103    0.65097597     0.012020474  
    466000   0.084823809    0.4744539      0.067526205    0.66920779     0.0026121747 
    467000   0.087033729    0.46293246     0.068122725    0.66159754     0.0029933455 
    468000   0.085108216    0.44658616     0.070372085    0.64461252    -0.014691831  
    469000   0.087802835    0.4243045      0.067625176    0.62362562     0.013206269  
    470000   0.083609992    0.43664353     0.066470032    0.62852064     0.0044600063 
    471000   0.083559337    0.42349388     0.062557051    0.61138203    -0.00077184579
    472000   0.084354445    0.39633067     0.062187533    0.58504189     0.017586116  
    473000   0.085400992    0.47030697     0.062684198    0.66108458     0.0045775894 
    474000   0.084828024    0.39410121     0.068502043    0.58983727    -0.0039685216 
    475000   0.082979794    0.44351963     0.064561477    0.63254295     0.0099550889 
    476000   0.082798914    0.4264373      0.060538396    0.61116624     0.0096824584 
    477000   0.085011672    0.44291278     0.062884143    0.63330639     0.0070924904 
    478000   0.083967204    0.49877078     0.067457031    0.69217068    -0.015886783  
    479000   0.08193891     0.44710884     0.065234661    0.63524411     0.0015904661 
    480000   0.089262251    0.42828388     0.069596672    0.63176548     0.0061032588 
    481000   0.089958133    0.43925937     0.065751922    0.63993998     0.012876235  
    482000   0.086241622    0.4792966      0.069439709    0.67809058     0.0076088497 
    483000   0.088776996    0.47721638     0.066629793    0.67700327     0.0014375774 
    484000   0.087620823    0.48063344     0.06649455     0.67855094    -0.0093521883 
    485000   0.088715004    0.47574979     0.067877564    0.67669147     0.0036126204 
    486000   0.091680791    0.50188225     0.07095305     0.71034781     0.0085589125 
    487000   0.10235037     0.52060545     0.073737523    0.74785884     0.0038347451 
    488000   0.098704232    0.51346395     0.07091196     0.73242292     0.0017220641 
    489000   0.091783508    0.48640822     0.074336057    0.69841086     0.0015690281 
    490000   0.094800594    0.49051721     0.076185013    0.70889414     0.0022957622 
    491000   0.096715824    0.46459686     0.073704182    0.68336562    -0.0022229262 
    492000   0.093939794    0.51127858     0.072217595    0.72439698    -0.0059648285 
    493000   0.095165215    0.50159465     0.074163236    0.7184967      0.0073966378 
    494000   0.097228322    0.48060191     0.071031248    0.69746645    -0.00076656212
    495000   0.093655774    0.51887625     0.072007925    0.73135897    -0.0028120206 
    496000   0.098313657    0.5027703      0.071817746    0.72204923    -7.9947886e-05
    497000   0.099363601    0.49776516     0.075582398    0.72238356    -0.0068226227 
    498000   0.10270542     0.49689518     0.073582393    0.72452598     0.0047137447 
    499000   0.096604358    0.52828023     0.075617856    0.74879548    -0.008476289  
    500000   0.095323175    0.4963532      0.078368004    0.71769695     0.0072267009 
    501000   0.09534918     0.57663881     0.074876311    0.79452987    -0.010511854  
    502000   0.093741438    0.53117498     0.075723908    0.74750218     0.019855797  
    503000   0.094504471    0.49387809     0.074351801    0.70997766     0.015129743  
    504000   0.097036753    0.57760743     0.080007641    0.80316102    -0.0082247803 
    505000   0.095981487    0.49851837     0.072509002    0.71499052     0.0082649092 
    506000   0.095719837    0.52701713     0.072790884    0.74337872    -0.0035631397 
    507000   0.094843409    0.5371782      0.077546703    0.75698105    -0.0092951055 
    508000   0.095593262    0.5333813      0.076394194    0.75315634    -0.018609228  
    509000   0.096271478    0.53856562     0.075295265    0.75825899    -0.0014133751 
    510000   0.095608231    0.51362669     0.073242235    0.73027223     0.013562548  
    511000   0.095443067    0.53066385     0.07234204     0.74616146     0.0028977274 
    512000   0.094205224    0.51813505     0.072944343    0.73237832    -0.0010319002 
    513000   0.097396105    0.53438538     0.075346007    0.75581633     0.012182967  
    514000   0.098830723    0.53613983     0.075323396    0.75969996    -0.001328851  
    515000   0.096087492    0.53684463     0.075247233    0.75621401     0.011897874  
    516000   0.10025812     0.49182519     0.078351841    0.72055472    -0.0067519513 
    517000   0.09508653     0.56532434     0.078861964    0.7868071     -0.00037333817
    518000   0.10271949     0.5358172      0.078975033    0.76886175     0.0024336008 
    519000   0.099341524    0.54922191     0.072211686    0.77043649     0.0083805612 
    520000   0.10079379     0.51398686     0.077668714    0.74283673     0.022816449  
    521000   0.10450883     0.53732813     0.079279354    0.77336085     0.0041136987 
    522000   0.10003838     0.56926016     0.075865636    0.7951739     -0.0017861935 
    523000   0.1020955      0.56992504     0.07824903     0.80130766     0.0069591239 
    524000   0.10192638     0.53975384     0.073229818    0.76586358    -0.0065020485 
    525000   0.10050662     0.57167471     0.081603535    0.80402867    -0.011982628  
    526000   0.10629853     0.58025372     0.080698847    0.8203903      0.0090647181 
    527000   0.10228654     0.54793571     0.078305677    0.77966153    -0.0010987951 
    528000   0.10344999     0.57074149     0.08576263     0.81166932    -0.0018850464 
    529000   0.10669468     0.56916339     0.07885593     0.80805124     0.0059711309 
    530000   0.10166447     0.57225094     0.079672407    0.80441043     0.0044608937 
    531000   0.10731126     0.55482294     0.085199444    0.80097913     0.0044040618 
    532000   0.10603021     0.54009841     0.078926471    0.77806017    -0.0033733574 
    533000   0.11211088     0.58464151     0.089014295    0.84181152     0.0061656823 
    534000   0.11214254     0.58434946     0.08589201     0.83844467     0.0025162536 
    535000   0.11090629     0.58873759     0.083170555    0.83825709    -0.012477099  
    536000   0.11032568     0.60267548     0.097539541    0.86569311     0.013015696  
    537000   0.11294839     0.61467838     0.090566524    0.8746568      0.013204019  
    538000   0.1127883      0.59827221     0.085585716    0.8530297      0.0020878465 
    539000   0.11101183     0.604684       0.08472771     0.85591894     0.00084415069
    540000   0.11163428     0.5998394      0.082931102    0.85021136     0.011234081  
    541000   0.10685697     0.63550826     0.082923805    0.87870741    -0.011856753  
    542000   0.10926353     0.59470968     0.081230134    0.83982476     0.0040786775 
    543000   0.1114944      0.61089647     0.089021517    0.86714904     0.0044600422 
    544000   0.10911629     0.5809965      0.083324652    0.82798526    -0.00033532315
    545000   0.11124915     0.62010906     0.084669727    0.87164198    -0.0017853099 
    546000   0.11483437     0.61492874     0.086040665    0.8732101      0.0033915532 
    547000   0.11383405     0.59902602     0.08597898     0.85574531    -0.01236947   
    548000   0.11465952     0.65884042     0.093872514    0.92469138    -0.0033839788 
    549000   0.11652951     0.57668313     0.088483707    0.83995007     0.0044876651 
    550000   0.1150385      0.60343976     0.090309518    0.86629614     0.0085636151 
    551000   0.11411057     0.65728239     0.086080704    0.91451816     0.0048021602 
    552000   0.11128705     0.64919744     0.089660848    0.90577833     0.0027511689 
    553000   0.11435742     0.6594587      0.088259591    0.91924359     0.0051443307 
    554000   0.11197854     0.58474599     0.090549979    0.84325319     0.003781467  
    555000   0.11119289     0.65519279     0.082354696    0.90432631    -0.0027611412 
    556000   0.11222971     0.56664695     0.089464706    0.82444559     0.0063896229 
    557000   0.10887169     0.61215746     0.08876043     0.86421512    -0.00012456156
    558000   0.11553921     0.68567495     0.090370364    0.9493432      0.003530816  
    559000   0.11401927     0.66674539     0.090488665    0.92825218    -0.0037569391 
    560000   0.11958245     0.59862642     0.093640749    0.87162954     0.01461349   
    561000   0.11710134     0.66429226     0.08870282     0.92863601     0.0024715597 
    562000   0.11287772     0.65119142     0.08814292     0.90864024    -0.014943633  
    563000   0.11278518     0.6268089      0.091268556    0.88724455    -0.013263929  
    564000   0.11940458     0.62097355     0.087957443    0.88802657    -0.014534893  
    565000   0.12010685     0.69409329     0.097033454    0.97127565    -0.01343795   
    566000   0.12435106     0.6154568      0.094442706    0.89641433     0.0070830168 
    567000   0.12432243     0.64182691     0.09658738     0.92488617     0.0046778007 
    568000   0.12357556     0.64198075     0.096529733    0.92386213     0.0028109842 
    569000   0.11632524     0.64767463     0.093845804    0.91599729    -0.0061394233 
    570000   0.11861672     0.64048179     0.095646872    0.91404252     0.0094161848 
    571000   0.12789266     0.64691684     0.089473344    0.92821707     0.026882701  
    572000   0.12221324     0.6762576      0.092042386    0.95160828    -0.0059031189 
    573000   0.12166832     0.67269648     0.089557587    0.94474503     0.0030821873 
    574000   0.11978959     0.61766203     0.09163412     0.8889692      0.0018962074 
    575000   0.1202311      0.63920032     0.088562712    0.90809831     0.0092638594 
    576000   0.11756564     0.62072511     0.08666441     0.88372686    -0.0088769315 
    577000   0.11023838     0.66641605     0.090100311    0.92186351     0.0089084961 
    578000   0.11513536     0.65097604     0.085868473    0.90953665     0.0080141316 
    579000   0.11469482     0.6149347      0.08791125     0.87487733    -0.0048523294 
    580000   0.12446764     0.6692169      0.091295627    0.94720221     0.011040844  
    581000   0.11435887     0.64492597     0.08982288     0.90627633    -0.0069925518 
    582000   0.11295314     0.64052987     0.09152461     0.9014735     -0.0052859206 
    583000   0.11592698     0.64223691     0.090953137    0.90706954     0.0013186957 
    584000   0.11378643     0.64422418     0.092784203    0.90767727    -0.0043761422 
    585000   0.11737877     0.6177276      0.090869785    0.88465443     0.0030296556 
    586000   0.11479127     0.60744098     0.090921374    0.8705384      0.0052187027 
    587000   0.1162538      0.60393652     0.086671464    0.86497769     0.0052095442 
    588000   0.108941       0.60990329     0.084287378    0.85759186     0.0067443312 
    589000   0.10977476     0.61269695     0.083770886    0.86111958    -0.0041878354 
    590000   0.1139475      0.63126209     0.086107202    0.88827976    -0.0017782534 
    591000   0.12203972     0.65404281     0.091529413    0.92862025     0.024808766  
    592000   0.11762216     0.61355219     0.090707478    0.88068179    -0.019225067  
    593000   0.11401804     0.67880516     0.088680592    0.93850202     0.0097201326 
    594000   0.1173706      0.64147823     0.094289786    0.91181282     0.0022657127 
    595000   0.11649635     0.6589588      0.091023311    0.92471561    -0.013375696  
    596000   0.11846721     0.64279278     0.087396204    0.90787858     0.0034560162 
    597000   0.1214274      0.64379847     0.090694527    0.91662261     0.0053493404 
    598000   0.11772177     0.63014546     0.094020413    0.9007374     -0.0033737118 
    599000   0.11813426     0.6480637      0.086892375    0.91214628    -0.0019409741 
    600000   0.11332376     0.6360661      0.090756313    0.89679733     0.0023017966 
    601000   0.11188521     0.66863951     0.090508753    0.92696549     0.014710729  
    602000   0.11173777     0.6385609      0.08947855     0.89563553     0.0012181127 
    603000   0.11359839     0.63959898     0.089064541    0.89905036    -0.003740646  
    604000   0.11200635     0.6252665      0.082767272    0.87603271     0.002654887  
    605000   0.10971187     0.61655956     0.084378607    0.86549559     0.011503336  
    606000   0.11663097     0.58921227     0.085520349    0.84966803     0.018378366  
    607000   0.11405414     0.59511537     0.088676909    0.8548627      0.0070237855 
    608000   0.11199198     0.66282571     0.087812578    0.91861567    -0.0070980604 
    609000   0.12136208     0.57365923     0.090657144    0.84634801     0.0044613226 
    610000   0.11436588     0.610343       0.088754808    0.8706358     -0.0020431221 
    611000   0.11651815     0.66894943     0.090270703    0.93398634    -0.0011022255 
    612000   0.11560791     0.62465557     0.089338629    0.88739512     0.009991976  
    613000   0.11314377     0.63476938     0.09464646     0.8991208      0.0038831671 
    614000   0.11745549     0.6386444      0.088989202    0.90380573     0.0086613887 
    615000   0.11924303     0.67541367     0.091960557    0.94622748    -0.0063812262 
    616000   0.12267289     0.68718435     0.097196227    0.96837832     0.014603314  
    617000   0.12107681     0.61971184     0.089725543    0.89104115     0.0048596737 
    618000   0.11910679     0.64394712     0.094382216    0.91697825     0.0019330384 
    619000   0.11917932     0.64560237     0.091143653    0.91550373    -5.6592652e-05
    620000   0.11478625     0.6281832      0.087188759    0.88754048     0.0038743614 
    621000   0.1240981      0.67587713     0.089053805    0.95106634     0.016096094  
    622000   0.12417096     0.68927119     0.095792943    0.97130883    -0.0043865175 
    623000   0.11494177     0.66726102     0.091570612    0.93123341     0.00058680547
    624000   0.11716443     0.7092645      0.095142681    0.98014274    -0.0035358165 
    625000   0.11846258     0.69994039     0.098104894    0.97572795     0.0051440637 
    626000   0.12167208     0.69447708     0.09767079     0.97464448     0.014110915  
    627000   0.12223997     0.6570727      0.10018587     0.94060696    -0.00151884   
    628000   0.12059278     0.63716146     0.093994784    0.912034       0.0082254947 
    629000   0.12572193     0.66927843     0.096692589    0.95454202     0.0028878027 
    630000   0.12342695     0.6492441      0.10036046     0.93473329    -0.0093686443 
    631000   0.12270647     0.65261828     0.0949866      0.93165298    -0.0059976311 
    632000   0.12958435     0.67060122     0.096441411    0.96140689     0.0078761855 
    633000   0.12612152     0.72113005     0.097647049    1.0079475     -0.0041438354 
    634000   0.13092296     0.66396373     0.10157098     0.96190676     0.0060890541 
    635000   0.12596884     0.68655414     0.097603668    0.97309915    -0.012699392  
    636000   0.12375013     0.71800806     0.093504974    0.99712652     0.0093122445 
    637000   0.12398064     0.66137606     0.091499279    0.93883456     0.0023487035 
    638000   0.12486507     0.69507163     0.096546198    0.97890362    -0.0024880325 
    639000   0.1290147      0.65168984     0.095565218    0.9407649      0.0090797971 
    640000   0.12764725     0.67114693     0.099073201    0.96167893     0.013525142  
    641000   0.12397637     0.64053533     0.09365841     0.92014657     0.004726677  
    642000   0.12111742     0.6753696      0.095123365    0.95215763     0.00010315598
    643000   0.12703962     0.70792729     0.094109814    0.99258451     0.0078019697 
    644000   0.12469271     0.65038414     0.10031068     0.93772209     0.0025291949 
    645000   0.12243357     0.65120468     0.093168157    0.92801161     0.0041462822 
    646000   0.12754633     0.70652105     0.10038227     0.99821076    -0.0051515729 
    647000   0.12278232     0.68028803     0.099015064    0.96346496    -0.00079255566
    648000   0.12874795     0.68174456     0.10013769     0.974992      -0.0075970485 
    649000   0.12945007     0.7060512      0.1042533      1.0044674      0.021804741  
    650000   0.13082797     0.72430459     0.098993189    1.0195274      0.0060894177 
    651000   0.13001268     0.71499325     0.097818419    1.0078184     -0.011381277  
    652000   0.12538436     0.63286533     0.096686272    0.91761628    -0.004601258  
    653000   0.13442822     0.68036205     0.099951867    0.98194352     0.01054065   
    654000   0.13114789     0.76985273     0.10007051     1.0666327     -0.0079329306 
    655000   0.13222769     0.71285233     0.10201092     1.0131923      0.0097200868 
    656000   0.1378682      0.6884663      0.10246628     0.99772183     0.0068589742 
    657000   0.1345346      0.72851155     0.10488625     1.035187      -0.0039242038 
    658000   0.13301455     0.67275562     0.096791286    0.96905615    -0.0035161729 
    659000   0.13620199     0.67607696     0.10122531     0.98159237    -0.0015750621 
    660000   0.12969976     0.7328432      0.10282977     1.0302103      0.00068793052
    661000   0.1314188      0.7102607      0.1027409      1.0101174      0.004210812  
    662000   0.12564063     0.71889402     0.10164325     1.0089863      0.00063961069
    663000   0.1310993      0.68838497     0.10130561     0.98632712     0.0056567809 
    664000   0.12679402     0.70075963     0.098308797    0.98924746     0.0062091281 
    665000   0.13190497     0.74457171     0.10030737     1.0427241      0.0039928309 
    666000   0.13067447     0.70498637     0.10082053     1.0018062      0.014869464  
    667000   0.12765719     0.70588292     0.10439837     1.001755       0.0037231261 
    668000   0.13020189     0.70083658     0.10271874     0.99884585    -0.0056988505 
    669000   0.12951273     0.62854243     0.099851442    0.92265072    -0.0036831894 
    670000   0.1307947      0.71056503     0.099531731    1.0062764      0.0016367507 
    671000   0.13137967     0.74020507     0.099456433    1.0367186      0.0089573873 
    672000   0.13302506     0.71209859     0.1026595      1.0142831      0.01017836   
    673000   0.12737962     0.7153627      0.098991788    1.0054119     -0.0095714581 
    674000   0.12736461     0.63518052     0.10300181     0.9292172      0.012616627  
    675000   0.13085677     0.70360453     0.10605979     1.0059371     -0.0022854304 
    676000   0.12651804     0.70616553     0.10013544     0.99606607    -0.0016876974 
    677000   0.13335488     0.77249068     0.098583928    1.0710943      0.012445108  
    678000   0.12949894     0.72405345     0.096619685    1.0149093      0.00076589039
    679000   0.12859469     0.72588804     0.099724563    1.0184925     -0.011633102  
    680000   0.13525088     0.72938983     0.10633724     1.0385906      0.0028200921 
    681000   0.13557987     0.72363408     0.10399127     1.0309823      0.0054800629 
    682000   0.13663175     0.74514591     0.10972837     1.059809       0.0012777447 
    683000   0.13605689     0.7236979      0.10695825     1.0347286     -0.0073232922 
    684000   0.13875758     0.67983408     0.11182849     0.99978582     0.018840371  
    685000   0.13798745     0.74315666     0.10972656     1.0598513      0.0014561148 
    686000   0.14498558     0.77885923     0.11282569     1.1091496      0.010473559  
    687000   0.13480966     0.7397394      0.10975147     1.0516926      0.0059050622 
    688000   0.13744968     0.71070781     0.10935817     1.0262275      0.010171066  
    689000   0.13685385     0.77560835     0.10513887     1.0860151     -0.0047771617 
    690000   0.14019878     0.70981061     0.10964806     1.0297436     -0.011962962  
    691000   0.14306876     0.76392911     0.11437329     1.092892       0.012360038  
    692000   0.13974491     0.78741601     0.11371416     1.1107343     -0.0017172037 
    693000   0.14198687     0.77114008     0.10783065     1.0919376     -0.0088942995 
    694000   0.14251349     0.75047094     0.10647497     1.0707027     -0.011896482  
    695000   0.13851046     0.73837865     0.10682596     1.0529572     -0.013145786  
    696000   0.13839317     0.76059822     0.10793659     1.0761115      0.0065995413 
    697000   0.1405937      0.75680577     0.10898737     1.0766704     -0.005146117  
    698000   0.14050242     0.70228118     0.10774829     1.0207698      0.00012502173
    699000   0.14564313     0.7437139      0.11152465     1.0736895     -0.0023121075 
    700000   0.14045606     0.76708489     0.10971245     1.0874681      0.0091497473 
    701000   0.14124904     0.7474061      0.10805194     1.0673182      0.017892246  
    702000   0.14152636     0.78163915     0.10816199     1.1020773      0.010965519  
    703000   0.13855469     0.75767902     0.11170414     1.0772021     -0.0096753369 
    704000   0.14357192     0.80309404     0.11876172     1.1372001     -0.0029252528 
    705000   0.13589559     0.77173268     0.11224001     1.0878032     -0.0063665326 
    706000   0.14199511     0.74432937     0.10744895     1.0647575     -0.0085756475 
    707000   0.14551718     0.77094305     0.12053202     1.1097371      0.0023881599 
    708000   0.14209841     0.71099271     0.10889799     1.0330249     -0.00066175004
    709000   0.14260097     0.76881302     0.10913854     1.0918395      0.0029830831 
    710000   0.14297531     0.75380595     0.11215555     1.0804109     -0.0081549357 
    711000   0.14124127     0.77393416     0.11169636     1.0974791     -0.0047977157 
    712000   0.13775505     0.71114388     0.10319537     1.0209588     -0.012063083  
    713000   0.14293641     0.73268008     0.11045426     1.0575254     -4.9247342e-05
    714000   0.13895949     0.73849896     0.1122133      1.0591384      0.010033985  
    715000   0.14391811     0.77282401     0.1099482      1.0986358      0.0068117111 
    716000   0.14007352     0.79618327     0.10868753     1.1149678     -0.0060909316 
    717000   0.14672751     0.76465923     0.1157727      1.1005093     -0.0070384133 
    718000   0.14541582     0.77298728     0.11487841     1.1059757      0.001600909  
    719000   0.14351295     0.8206827      0.11618675     1.1521253     -0.0024320384 
    720000   0.14572947     0.75205331     0.10514661     1.0757803      0.0019544613 
    721000   0.14283503     0.74416537     0.11032277     1.0687272     -0.0029433407 
    722000   0.13974322     0.76282439     0.11158625     1.0840122      0.0060447742 
    723000   0.14564502     0.79424053     0.11136745     1.1240617     -0.0058404517 
    724000   0.1427275      0.77265953     0.1132322      1.0999695     -0.0032390242 
    725000   0.14542159     0.75967873     0.11168147     1.0894788      0.010743787  
    726000   0.14618573     0.76461277     0.11715406     1.1010316      0.011716267  
    727000   0.14628574     0.80380901     0.11400482     1.1372286     -0.0058915507 
    728000   0.15032179     0.7969123      0.11577843     1.1381592      0.012016195  
    729000   0.14111953     0.80746881     0.11504998     1.1341847      0.0092283889 
    730000   0.14866247     0.81990846     0.11799037     1.1608785     -0.010732176  
    731000   0.15155371     0.82450256     0.11476967     1.1665885     -0.0022054002 
    732000   0.15027757     0.83633221     0.11564406     1.1773784     -0.0071423259 
    733000   0.15416783     0.84821601     0.12456238     1.2040156      0.0087268887 
    734000   0.15685573     0.8428766      0.11932891     1.1974743     -0.0028387034 
    735000   0.15422867     0.81427887     0.12382747     1.1694348      0.0049392019 
    736000   0.15623581     0.77105324     0.11952907     1.1249212      0.011331847  
    737000   0.15796163     0.76376695     0.12774887     1.1284433     -0.0093401984 
    738000   0.15487922     0.83453348     0.12763223     1.1944699     -0.0184961    
    739000   0.15196863     0.82614874     0.11858917     1.1726765      0.0061802043 
    740000   0.15375764     0.76749034     0.11974475     1.117857       0.006750815  
    741000   0.15318896     0.79598689     0.12129179     1.1470476      0.0038799297 
    742000   0.15334969     0.84118013     0.12059843     1.1917886     -0.012411621  
    743000   0.15852329     0.79771783     0.11802683     1.1535146      0.030244126  
    744000   0.15328057     0.81112459     0.11966597     1.1606969      0.0049711867 
    745000   0.14995958     0.81891306     0.1221606      1.1659988     -0.0026361094 
    746000   0.14996238     0.819159       0.11711179     1.1612002      0.016449299  
    747000   0.15158609     0.85876669     0.12199548     1.208127      -0.0033893226 
    748000   0.15394131     0.82571701     0.11683035     1.1734448      0.009423368  
    749000   0.1670875      0.85107789     0.12202553     1.2237189      0.0014289841 
    750000   0.14970163     0.86711337     0.1257567      1.2174083     -0.0027756442 
    751000   0.15711022     0.80041649     0.12845398     1.1645209     -0.010364378  
    752000   0.15966962     0.84972105     0.12160097     1.2108113      0.012340983  
    753000   0.1597582      0.84491927     0.12127081     1.2058123     -0.0015246379 
    754000   0.16044098     0.8481672      0.12906309     1.2178766      0.00078346343
    755000   0.16370934     0.82405024     0.12827137     1.1978701     -0.0024626861 
    756000   0.16437586     0.84587684     0.11828775     1.2107128     -0.0031688038 
    757000   0.16425465     0.88669257     0.12102933     1.2540883     -0.0019663044 
    758000   0.15650464     0.8427663      0.1218638      1.1993723     -0.015602711  
    759000   0.15782275     0.8603423      0.1164644      1.2135259     -0.0062602746 
    760000   0.15919686     0.85683247     0.12431066     1.2199234     -0.0099805997 
    761000   0.15639472     0.86800108     0.12843776     1.2310161     -0.0039770685 
    762000   0.16641637     0.86400951     0.12834681     1.2419651      0.0030530428 
    763000   0.16097361     0.88390237     0.12862563     1.2539732      0.011912548  
    764000   0.16485152     0.81945707     0.13052546     1.1972442     -0.0018674616 
    765000   0.16086085     0.87123878     0.12847094     1.2409858      0.0029265706 
    766000   0.16908043     0.83451757     0.12778229     1.2159045      0.011782813  
    767000   0.15731363     0.91702302     0.12944746     1.282426       0.00054315103
    768000   0.16266888     0.87801195     0.12534766     1.2473475     -0.0022023967 
    769000   0.16562018     0.88314551     0.12692468     1.2584848      0.0087666702 
    770000   0.16130812     0.8784154      0.12156371     1.241926      -0.0041177069 
    771000   0.16450191     0.85958094     0.13158775     1.237906       0.010251585  
    772000   0.16407153     0.87477699     0.12750421     1.248373      -0.013457236  
    773000   0.1634189      0.87432505     0.12388569     1.2433236      0.0027894146 
    774000   0.16480499     0.88396978     0.13219333     1.263355      -0.0086406065 
    775000   0.159101       0.87539243     0.12946289     1.2434918      0.0024979326 
    776000   0.16628638     0.90519845     0.13768        1.2922923      0.013137616  
    777000   0.17325721     0.90279611     0.1248879      1.2875534     -0.013106998  
    778000   0.1713985      0.95987808     0.12877503     1.3457346     -0.0013484893 
    779000   0.16986665     0.93100114     0.13195502     1.3177401     -0.0067242201 
    780000   0.17176708     0.89816691     0.13425901     1.2900603     -0.0037901031 
    781000   0.16867248     0.97294581     0.12872244     1.354661       0.0022986239 
    782000   0.17205702     0.92633568     0.14086431     1.3252692      0.011666072  
    783000   0.1774855      0.98079223     0.13648732     1.383491       0.010895086  
    784000   0.18148394     0.90460245     0.13908497     1.3158962      0.019991498  
    785000   0.17231544     0.91880328     0.13440986     1.31167       -0.0058490987 
    786000   0.17452394     0.90412463     0.13002265     1.2959167     -0.014728335  
    787000   0.17027559     0.93763834     0.13298577     1.3260214     -0.00054914557
    788000   0.16982773     0.98007899     0.13818738     1.3729919      0.0087944278 
    789000   0.17166393     0.90462399     0.12938165     1.2914853      0.020784748  
    790000   0.17236297     0.94611171     0.13424466     1.3388845      0.01454256   
    791000   0.18209811     0.93843789     0.13814424     1.3497121      0.0076466115 
    792000   0.17962814     0.92481778     0.13620056     1.3304436     -0.0094922095 
    793000   0.17402056     0.93149725     0.1324804      1.324992      -0.0008246845 
    794000   0.17212818     0.93217823     0.13510903     1.3254633     -0.0018826769 
    795000   0.17457639     0.95357598     0.13722225     1.3526463      0.01579621   
    796000   0.17210629     0.93093358     0.13646223     1.325539       0.012541522  
    797000   0.18519037     0.95834687     0.1407519      1.3768668      0.023564476  
    798000   0.17398355     0.91825072     0.13403468     1.3132443      0.0082484989 
    799000   0.17401666     0.93853605     0.1358851      1.3354297     -0.0039423242 
    800000   0.18036065     0.93485954     0.14120651     1.34659       -0.012221269  
    801000   0.17300867     0.93222871     0.13660024     1.3283256     -0.0001149658 
    802000   0.17588363     0.93179713     0.13851756     1.3341235     -0.0041606281 
    803000   0.18098204     0.97637145     0.14442467     1.3922521      0.0054388588 
    804000   0.18229605     0.94571857     0.14486773     1.3640131     -0.0081379345 
    805000   0.18025704     0.98662539     0.14484293     1.4018368      0.0014619468 
    806000   0.1793918      0.97651753     0.14642224     1.3920105     -0.00061826064
    807000   0.17233462     0.91287361     0.13396642     1.3053256      0.0056688255 
    808000   0.18081247     0.99317119     0.1482463      1.4126191     -0.013890904  
    809000   0.17516998     0.98701727     0.13597592     1.3857316      0.0072113586 
    810000   0.17296397     0.92926246     0.13868312     1.3273752      0.013480363  
    811000   0.1755305      0.99395872     0.13969056     1.3969284     -0.011376793  
    812000   0.18007588     0.96935781     0.13842393     1.3778785     -0.0088508456 
    813000   0.17633199     0.90786789     0.13994958     1.3122988      0.0062801384 
    814000   0.17829627     0.94825851     0.13844682     1.3541329      0.0029084961 
    815000   0.18463076     0.94357446     0.13966326     1.3601664      0.01069089   
    816000   0.18176927     0.94767174     0.1398606      1.360169       0.01642353   
    817000   0.18200786     0.95432656     0.1407928      1.3681139      0.0037524193 
    818000   0.17889309     0.95088085     0.143494       1.3626976     -0.018615211  
    819000   0.18841733     1.0267017      0.1441193      1.4534292      0.00053648549
    820000   0.18269236     0.95813495     0.14018177     1.372338      -0.0065620436 
    821000   0.18517015     0.95312024     0.1453863      1.3762443     -0.0096989116 
    822000   0.1878984      0.96801411     0.14563739     1.3954813      0.014144884  
    823000   0.18404275     0.98652509     0.15290337     1.4154752      0.0070370368 
    824000   0.18194994     1.0141737      0.14954567     1.436627       0.0058669006 
    825000   0.17913574     0.99614643     0.14621825     1.4110514     -0.0032723758 
    826000   0.18136732     1.0336754      0.14166388     1.4473731      0.017549604  
    827000   0.18042869     1.0000654      0.14399716     1.4146885      0.010626747  
    828000   0.18454473     0.92972351     0.14269354     1.3492167      0.0062688587 
    829000   0.18126129     0.97194589     0.14168704     1.3855077      0.0081558549 
    830000   0.18424152     0.95791589     0.14357371     1.3778345      0.013446106  
    831000   0.18543473     0.93877314     0.1409886      1.3578963      0.012432697  
    832000   0.18277297     1.0153396      0.14290295     1.4323847     -0.0064342852 
    833000   0.18404786     1.0326972      0.14915849     1.45791       -0.0025652504 
    834000   0.18224967     1.0169337      0.14600978     1.4363007     -0.0020991146 
    835000   0.18341956     0.96093093     0.14749402     1.3835369     -0.0044999055 
    836000   0.19131631     0.99624728     0.1508132      1.4340168      0.0074032159 
    837000   0.1907774      1.0159073      0.15013448     1.4521898     -0.0041167484 
    838000   0.19381653     0.98220279     0.14531864     1.4182279      0.007232317  
    839000   0.1800508      0.98955661     0.15233342     1.4119492     -0.0044189133 
    840000   0.18430274     0.97596963     0.14991104     1.4023174     -0.0075627424 
    841000   0.18454318     1.0263454      0.15021882     1.4533615      0.023452671  
    842000   0.18914711     0.97694614     0.14555909     1.406208       0.0051556649 
    843000   0.18810519     0.98628188     0.15604815     1.42447       -0.001662456  
    844000   0.19224287     1.016193       0.14774284     1.4522819      0.0060649207 
    845000   0.19137183     1.0360448      0.14908539     1.4721699     -0.0070579654 
    846000   0.18829709     1.005486       0.15050707     1.4384209      0.00012879212
    847000   0.19065846     1.062687       0.14252845     1.4911851      0.0020278208 
    848000   0.19149704     1.024274       0.14863305     1.4601345      0.0054614171 
    849000   0.18410565     1.0128876      0.14957476     1.4386035      0.00057246171
    850000   0.19185582     1.0776734      0.14562891     1.5110679      0.0071002656 
    851000   0.18961801     1.037671       0.1516961      1.4737762      0.0096396743 
    852000   0.19390223     1.0397776      0.1501091      1.4807217      0.005277496  
    853000   0.19706086     1.0281675      0.14856103     1.4723011     -0.004342676  
    854000   0.19136603     1.0942149      0.15249262     1.5337385     -0.00037130329
    855000   0.1926554      0.97837669     0.14464499     1.4119865     -0.005562801  
    856000   0.1940596      0.98687744     0.14669987     1.4246483      0.012822958  
    857000   0.19114377     1.0767557      0.14486946     1.5083227     -0.0085902201 
    858000   0.19396162     1.073522       0.15425398     1.5187         0.007495788  
    859000   0.19345754     1.0855005      0.15073068     1.5263992     -0.018044739  
    860000   0.18763853     1.074137       0.1520774      1.5076545     -0.0061214169 
    861000   0.187554       0.95435566     0.14795449     1.3836234      0.011271799  
    862000   0.19557687     1.062004       0.14387785     1.4992287      0.010853917  
    863000   0.19725805     1.0228335      0.14621952     1.4649214      0.015579265  
    864000   0.19327376     1.0449256      0.15218591     1.4870039     -0.0022719704 
    865000   0.19370562     0.99088951     0.15506853     1.4364981      0.0021223947 
    866000   0.20111503     1.0084072      0.15650962     1.4665703      0.010297602  
    867000   0.18967918     0.99917083     0.15089605     1.4345677      0.0073462    
    868000   0.19012646     1.1054903      0.15181145     1.5424734     -0.012076406  
    869000   0.19627828     1.0219451      0.15320463     1.4695486     -0.0065454978 
    870000   0.18877005     1.0509555      0.15463587     1.4887286      0.00074870406
    871000   0.19446114     1.0440465      0.15836867     1.4940885      0.021629398  
    872000   0.20014376     1.0512928      0.15620846     1.5076979      0.0099833775 
    873000   0.19619048     1.0297282      0.15385523     1.4778506     -0.0038508226 
    874000   0.19792214     1.0209806      0.14873096     1.466576       0.012285354  
    875000   0.19412725     1.0488233      0.15559119     1.495587      -0.001351699  
    876000   0.19391503     1.0467812      0.15028476     1.4879202      0.013337844  
    877000   0.18809154     1.0596335      0.14872608     1.4904791      0.0042894631 
    878000   0.19846708     1.0353976      0.15573409     1.4888135      0.010276017  
    879000   0.19331443     0.99573479     0.15074042     1.4364286      0.0034478876 
[...]
  12087000   1.0760397      17.202954      1.091019       19.90793      -0.018431324    36556.631    
  12088000   1.1072177      17.366138      1.1181491      20.145009      0.026886319    36556.631    
  12089000   1.0838089      17.481801      1.1118215      20.219233     -0.065619919    36556.631    
  12090000   1.0932303      17.275335      1.1129115      20.027988     -0.020516222    36556.631    
  12091000   1.0932126      17.405171      1.1117716      20.156658     -0.030198341    36556.631    
  12092000   1.0691992      17.457685      1.1216728      20.183055     -0.046815138    36556.631    
  12093000   1.0971029      17.425622      1.1302904      20.201463     -0.06928724     36556.631    
  12094000   1.1098321      17.078995      1.1083039      19.851942     -0.018490432    36556.631    
  12095000   1.1038032      17.313916      1.1325521      20.102068      0.01424971     36556.631    
  12096000   1.1300744      17.392807      1.1422579      20.23007      -0.014483171    36556.631    
  12097000   1.1080965      17.336647      1.0903401      20.089027      0.011047588    36556.631    
  12098000   1.1111983      17.146834      1.1129721      19.926498     -0.039518714    36556.631    
  12099000   1.1155877      17.216829      1.1003599      19.990465     -0.062648622    36556.631    
  12100000   1.1435225      17.160133      1.125804       20.001113     -0.055688319    36556.631    
  12101000   1.1247673      17.310196      1.1286212      20.125862     -0.022884319    36556.631    
  12102000   1.1068512      17.301933      1.1336832      20.095788     -0.071995292    36556.631    
  12103000   1.1111003      17.463751      1.089672       20.219968      0.030379647    36556.631    
  12104000   1.1098232      17.492742      1.126891       20.284263      0.0063980544   36556.631    
  12105000   1.1031094      17.277938      1.1220968      20.054594      0.019633165    36556.631    
  12106000   1.0987371      17.26715       1.1262228      20.041374     -0.026175958    36556.631    
  12107000   1.0999962      17.51837       1.1143226      20.282583      0.033478451    36556.631    
  12108000   1.0963221      17.576582      1.1194436      20.340405      0.052215049    36556.631    
  12109000   1.1235924      17.542902      1.1163923      20.344577     -0.014248129    36556.631    
  12110000   1.1059985      17.414055      1.114283       20.187231     -0.023950074    36556.631    
  12111000   1.0819578      17.610405      1.1064091      20.339648      0.04793211     36556.631    
  12112000   1.0908668      17.526439      1.0944327      20.257068      0.021351044    36556.631    
  12113000   1.1155141      17.20869       1.131853       20.013709      0.066657048    36556.631    
  12114000   1.1219498      17.469171      1.1285643      20.280554      0.045128322    36556.631    
  12115000   1.1070106      17.334705      1.1468179      20.141934     -0.057774787    36556.631    
  12116000   1.1336269      17.521623      1.1271591      20.349115      0.060024985    36556.631    
  12117000   1.1356528      17.293671      1.1301939      20.127237     -0.0083303344   36556.631    
  12118000   1.1085112      17.428694      1.1366671      20.228023      0.038080292    36556.631    
  12119000   1.1154496      17.395029      1.1286866      20.196784     -0.063722969    36556.631    
  12120000   1.1019298      17.380452      1.1236356      20.156878     -0.044199476    36556.631    
  12121000   1.091984       17.301846      1.1371213      20.07684      -0.03698058     36556.631    
  12122000   1.1400834      17.193565      1.1105518      20.014134      0.015358382    36556.631    
  12123000   1.1495921      17.278133      1.1172622      20.119675     -0.014431495    36556.631    
  12124000   1.1175676      17.496472      1.1290949      20.301813      0.054099204    36556.631    
  12125000   1.1008441      17.508948      1.1170341      20.277144     -0.0047754918   36556.631    
  12126000   1.1122075      17.625846      1.0909257      20.384978      0.010245049    36556.631    
  12127000   1.1368885      17.49514       1.1223343      20.3227        0.05754956     36556.631    
  12128000   1.1124         17.454562      1.1166824      20.239739      0.012627581    36556.631    
  12129000   1.1094805      17.461282      1.0968053      20.222203      0.0074807442   36556.631    
  12130000   1.1264014      17.32028       1.1144938      20.124269     -0.0011552678   36556.631    
  12131000   1.1407631      17.548259      1.1090356      20.368332      0.020013498    36556.631    
  12132000   1.1208076      17.532072      1.1225573      20.335735      0.11763029     36556.631    
  12133000   1.1070269      17.266722      1.1135727      20.04073       0.047370298    36556.631    
  12134000   1.1280723      17.242379      1.1072897      20.041671      0.030073621    36556.631    
  12135000   1.1113943      17.591124      1.0851842      20.343295     -0.036389188    36556.631    
  12136000   1.1389988      17.612143      1.0969692      20.417502      0.038162667    36556.631    
  12137000   1.1108846      17.603752      1.1188331      20.388807     -0.033030834    36556.631    
  12138000   1.1165656      17.431945      1.1209388      20.227627      0.016839229    36556.631    
  12139000   1.1259951      17.437556      1.1237425      20.250185     -0.070699324    36556.631    
  12140000   1.1273744      17.512407      1.0981792      20.301541      0.0086526182   36556.631    
  12141000   1.0824471      17.432232      1.1127244      20.168525      0.02767944     36556.631    
  12142000   1.1175774      17.370484      1.1233739      20.170118     -0.010912273    36556.631    
  12143000   1.1221119      17.52272       1.085406       20.291187     -0.011042976    36556.631    
  12144000   1.1073468      17.639434      1.1199174      20.420266      0.0041489718   36556.631    
  12145000   1.1209077      17.292149      1.1922322      20.165636     -0.018130323    36556.631    
  12146000   1.1427898      17.376761      1.1571083      20.247946      0.0219421      36556.631    
  12147000   1.1329501      17.558721      1.12642        20.384459      0.032019277    36556.631    
  12148000   1.1002927      17.526904      1.1264948      20.303733      0.037353049    36556.631    
  12149000   1.1263739      17.73838       1.1270056      20.55484       0.020573076    36556.631    
  12150000   1.1007519      17.693194      1.1306514      20.47487       0.0077274036   36556.631    
  12151000   1.1305208      17.312734      1.1136985      20.122107      0.045767253    36556.631    
  12152000   1.1332357      17.517512      1.1507211      20.36798       0.044529034    36556.631    
  12153000   1.1172261      17.412692      1.1320176      20.220444     -0.029233111    36556.631    
  12154000   1.1353126      17.56459       1.1575295      20.424981      0.014366844    36556.631    
  12155000   1.1482785      17.557608      1.1801469      20.460064      0.0053115217   36556.631    
  12156000   1.1105964      17.626266      1.1418591      20.433914      0.029338111    36556.631    
  12157000   1.1448115      17.65951       1.1259127      20.502532     -0.017435664    36556.631    
  12158000   1.1296851      17.59183       1.1407485      20.426999     -0.0073584357   36556.631    
  12159000   1.109095       17.342264      1.1615994      20.1674        0.058347887    36556.631    
  12160000   1.1486046      17.547694      1.1344743      20.404967      0.015615382    36556.631    
  12161000   1.1215584      17.743132      1.1379869      20.563351      0.030478872    36556.631    
  12162000   1.1012059      17.65704       1.1545594      20.463304      0.071082718    36556.631    
  12163000   1.1048192      17.540896      1.1320174      20.330038     -0.023514887    36556.631    
  12164000   1.1199786      17.699628      1.1143384      20.493829      0.018010849    36556.631    
  12165000   1.1350849      17.650494      1.1188425      20.471857      0.025730588    36556.631    
  12166000   1.1339252      17.755033      1.1598543      20.615668     -0.030601513    36556.631    
  12167000   1.1274772      17.485572      1.1305255      20.307206     -0.00054465796  36556.631    
  12168000   1.1336522      17.555472      1.1528338      20.408677      0.035312333    36556.631    
  12169000   1.1418298      17.629851      1.1584878      20.500975      0.085883392    36556.631    
  12170000   1.1398366      17.755832      1.1339116      20.599391      0.0083590653   36556.631    
  12171000   1.136424       17.681997      1.1275735      20.514099      0.039279384    36556.631    
  12172000   1.1274686      17.377886      1.1540783      20.22306       0.037405937    36556.631    
  12173000   1.1083035      17.474816      1.1282196      20.265386     -0.0085531195   36556.631    
  12174000   1.1253956      17.708942      1.1349361      20.531865      0.037877232    36556.631    
  12175000   1.1136355      17.71633       1.1263474      20.513026     -0.017716791    36556.631    
  12176000   1.1131365      17.903759      1.1345435      20.707902      0.0067500185   36556.631    
  12177000   1.1065752      17.772863      1.1375272      20.570148      0.066213316    36556.631    
  12178000   1.1187028      17.445006      1.1564098      20.279364     -0.028417418    36556.631    
  12179000   1.1276351      17.561666      1.1301053      20.383117     -0.03499854     36556.631    
  12180000   1.1316522      17.778123      1.1478226      20.623317      0.0088986835   36556.631    
  12181000   1.1414938      17.691948      1.1563151      20.560396      0.064152002    36556.631    
  12182000   1.1022478      17.558582      1.1580474      20.369897     -0.01442736     36556.631    
  12183000   1.0964637      17.774762      1.132859       20.552213     -0.00341589     36556.631    
  12184000   1.1025392      17.549403      1.1375413      20.340649     -0.031172632    36556.631    
  12185000   1.11515        17.881176      1.1177466      20.671542     -0.042687568    36556.631    
  12186000   1.1086179      17.507418      1.1361632      20.306403     -0.020608208    36556.631    
  12187000   1.1017394      17.757947      1.1480037      20.558455      0.021654388    36556.631    
  12188000   1.1340151      17.820406      1.1547285      20.67605       0.031447006    36556.631    
  12189000   1.1314812      17.841979      1.1552099      20.694303      0.042034491    36556.631    
  12190000   1.1391418      17.557416      1.154447       20.420468     -0.06495918     36556.631    
  12191000   1.1338933      17.570039      1.1363806      20.407153     -0.0025982143   36556.631    
  12192000   1.1321657      17.676682      1.115594       20.490417      0.027355208    36556.631    
  12193000   1.1121766      17.779798      1.1168002      20.564758      0.026924904    36556.631    
  12194000   1.1278547      17.815833      1.1228615      20.63037      -0.0035740372   36556.631    
  12195000   1.1379384      17.840935      1.1598798      20.707614     -0.0021959901   36556.631    
  12196000   1.1151433      17.876286      1.1738586      20.722754     -0.0028270284   36556.631    
  12197000   1.1419702      17.852298      1.1430847      20.70823       0.056756204    36556.631    
  12198000   1.1431397      17.552173      1.1360947      20.402869      0.0047193733   36556.631    
  12199000   1.122767       17.680173      1.138411       20.502629     -0.015546812    36556.631    
  12200000   1.1084237      17.851944      1.1328566      20.647331      0.040098891    36556.631    
  12201000   1.1395723      17.665966      1.118651       20.493868     -0.013074005    36556.631    
  12202000   1.1256352      17.770855      1.1666811      20.625882      0.033114103    36556.631    
  12203000   1.1293202      17.838152      1.1350551      20.66708       0.066731851    36556.631    
  12204000   1.1379398      17.643135      1.1468417      20.496778     -0.012698999    36556.631    
  12205000   1.1177861      17.836343      1.1755802      20.688497      0.021275419    36556.631    
  12206000   1.1305377      17.884455      1.1416237      20.721778      0.035499543    36556.631    
  12207000   1.1412404      17.654348      1.1462483      20.512349      0.0075589029   36556.631    
  12208000   1.1362452      17.523366      1.1522438      20.37987      -0.033162186    36556.631    
  12209000   1.133752       17.710719      1.152561       20.563801      0.05855179     36556.631    
  12210000   1.1349231      17.961793      1.0937265      20.757797      0.075312037    36556.631    
  12211000   1.1407791      17.805597      1.1284705      20.645128      0.016611687    36556.631    
  12212000   1.1460693      17.807858      1.1161711      20.643024      0.016152469    36556.631    
  12213000   1.1364293      17.714178      1.1002167      20.518931     -0.061954399    36556.631    
  12214000   1.1162516      17.540391      1.1459216      20.360584     -0.0087736031   36556.631    
  12215000   1.0996177      17.778964      1.1232361      20.551523      0.019466688    36556.631    
  12216000   1.1121948      17.880064      1.1049324      20.653183      0.01160513     36556.631    
  12217000   1.1159426      18.090297      1.120887       20.884992     -0.010481628    36556.631    
  12218000   1.0818134      17.993107      1.1467769      20.762501     -0.020986124    36556.631    
  12219000   1.121365       17.902143      1.1469692      20.731054      0.082892158    36556.631    
  12220000   1.1091359      17.956693      1.122453       20.742745     -0.030517295    36556.631    
  12221000   1.1318295      17.993666      1.153634       20.844937      0.047278769    36556.631    
  12222000   1.112612       17.738308      1.1470455      20.554166      0.010538065    36556.631    
  12223000   1.1379546      17.984957      1.1421105      20.833891      0.028144156    36556.631    
  12224000   1.1303446      17.936343      1.167572       20.799325      0.072386085    36556.631    
  12225000   1.1113331      17.839127      1.1330353      20.639057     -0.0041452451   36556.631    
  12226000   1.1326688      17.857973      1.1395389      20.696407     -0.019983458    36556.631    
  12227000   1.1197009      18.07614       1.1587429      20.914329      0.052679708    36556.631    
  12228000   1.1204359      17.738855      1.1584393      20.577842      0.010883237    36556.631    
  12229000   1.1287623      17.842682      1.146989       20.682707      0.0067511505   36556.631    
  12230000   1.1154478      17.919722      1.1475268      20.740315     -0.01846656     36556.631    
  12231000   1.1476708      17.786581      1.1462399      20.654219     -0.027621556    36556.631    
  12232000   1.1504622      17.86212       1.1565095      20.744214     -0.0021542156   36556.631    
  12233000   1.1193706      18.033159      1.1338224      20.845931     -0.0072336509   36556.631    
  12234000   1.1424281      17.857409      1.1744498      20.745393      0.0019429697   36556.631    
  12235000   1.1066875      17.941175      1.1445039      20.745606     -0.028034417    36556.631    
  12236000   1.1226704      18.147666      1.1515937      20.983159      0.024839667    36556.631    
  12237000   1.1252098      17.996659      1.1482122      20.832579     -0.019374287    36556.631    
  12238000   1.1295267      17.90273       1.1632254      20.760138      0.029441721    36556.631    
  12239000   1.1127412      18.040805      1.1722501      20.882061     -0.02181468     36556.631    
  12240000   1.1484306      17.988536      1.1522815      20.863354     -0.040625833    36556.631    
  12241000   1.153907       17.659967      1.1530599      20.543779     -0.018954692    36556.631    
  12242000   1.130082       17.850891      1.1489009      20.694808      0.007283965    36556.631    
  12243000   1.1270413      17.926552      1.1313537      20.748361      0.0029181204   36556.631    
  12244000   1.1367611      17.942455      1.1444366      20.791926     -0.064080816    36556.631    
  12245000   1.1301677      18.098518      1.154387       20.94805       0.019188996    36556.631    
  12246000   1.1267259      18.049406      1.1564873      20.895875     -0.051480064    36556.631    
  12247000   1.134609       17.891591      1.1267874      20.720185     -0.011177762    36556.631    
  12248000   1.1057362      18.054295      1.1672535      20.880048      0.0092851945   36556.631    
  12249000   1.1340227      18.152176      1.158205       21.011308      0.0061888997   36556.631    
  12250000   1.1131695      18.122793      1.1434716      20.935913      0.078671978    36556.631    
  12251000   1.1167115      17.967499      1.1410488      20.783509     -0.056092274    36556.631    
  12252000   1.1346144      17.952212      1.1578358      20.811862      0.0037203099   36556.631    
  12253000   1.1377864      17.787751      1.1508         20.645123      0.01467671     36556.631    
  12254000   1.1522733      17.958442      1.1611674      20.847911     -0.0061693421   36556.631    
  12255000   1.1367041      18.024161      1.1706753      20.899784     -0.060254742    36556.631    
  12256000   1.1195116      18.233001      1.1520264      21.064189      0.053876216    36556.631    
  12257000   1.114811       18.009578      1.1415261      20.823215      0.058963438    36556.631    
  12258000   1.1249806      18.086156      1.1589062      20.932427     -0.00051280709  36556.631    
  12259000   1.1027714      17.972468      1.1568692      20.78339      -0.049803328    36556.631    
  12260000   1.1309506      17.908211      1.1647249      20.769255     -0.025294055    36556.631    
  12261000   1.140645       18.239279      1.1542781      21.104417      0.0047011135   36556.631    
  12262000   1.1836731      17.993301      1.1553725      20.924071      0.066741152    36556.631    
  12263000   1.105972       17.971965      1.1710913      20.801909     -0.035829594    36556.631    
  12264000   1.1530436      18.189726      1.1826204      21.101803     -0.03248735     36556.631    
  12265000   1.1299017      18.123526      1.1609925      20.979264     -0.039155409    36556.631    
  12266000   1.1158994      17.924001      1.1336283      20.731372      0.0048116856   36556.631    
  12267000   1.1450171      17.93758       1.1519296      20.806927     -0.017522611    36556.631    
  12268000   1.1335915      18.14949       1.1777838      21.027554     -0.058631968    36556.631    
  12269000   1.1181358      17.990563      1.1391677      20.806828     -0.030636372    36556.631    
  12270000   1.1390146      18.173233      1.1709686      21.052616      0.0460136      36556.631    
  12271000   1.1490411      18.163317      1.1608493      21.047619     -0.0099649675   36556.631    
  12272000   1.124246       17.668853      1.1650563      20.520171      0.057445141    36556.631    
  12273000   1.1279977      18.134772      1.1603506      20.987013      0.088204177    36556.631    
  12274000   1.1398577      17.794246      1.1414079      20.645332      0.10174318     36556.631    
  12275000   1.1578673      17.901324      1.161039       20.799055     -0.017131645    36556.631    
  12276000   1.1240762      18.029108      1.1515393      20.866655      0.0049514211   36556.631    
ERROR on proc 2: Bond atoms 4153 4155 missing on proc 2 at step 12276892 (../ntopo_bond_all.cpp:59)
Last command: run ${shear_it}
--------------------------------------------------------------------------
MPI_ABORT was invoked on rank 2 in communicator MPI_COMM_WORLD 
with errorcode 1.

NOTE: invoking MPI_ABORT causes Open MPI to kill all MPI processes.
You may or may not see output from other processes, depending on
exactly when Open MPI kills them.
--------------------------------------------------------------------------
n End of Deformation simulation n
