LAMMPS data file via write_data, version 19 Nov 2024, timestep = 100000, units = lj

679 atoms
4 atom types
486 bonds
1 bond types
443 angles
2 angle types

-4.496439 4.496439 xlo xhi
-4.496439 4.496439 ylo yhi
-4.496439 4.496439 zlo zhi

Masses

1 1
2 1
3 0.1
4 0.1

Bond Coeffs # harmonic/omp

1 100 0.45

Angle Coeffs # harmonic/omp

1 100 180
2 100 109.471

Atoms # full

273 58 4 0 -3.263025544146536 -3.145456678036449 -3.8412387785178703 0 0 0
272 58 2 0 -3.6627835840306884 -3.1306236708224184 -4.100852207795428 0 0 0
52 11 3 0 -3.0181148760069414 -3.1742034008469275 -3.5263903763916087 0 0 1
54 11 3 0 -2.539738097290042 -3.6971184778253545 -3.3589682402027172 0 0 1
396 99 4 0 -2.838382623709262 -3.993660884929197 -3.3514831018281392 0 1 0
395 99 2 0 -2.666011933808391 -4.396968834076649 -3.4569129275431694 0 1 0
51 11 1 0 -2.5808863421331063 -3.278140502970699 -3.5048988427471155 0 0 1
55 11 3 0 -2.393509932426368 -3.231982910132145 -3.9281944750854327 0 0 1
343 81 4 0 -2.4254432309405325 -3.0320744121853362 -4.309894138031696 0 0 1
556 152 4 0 -1.7026318251369523 -3.5082382978569218 -4.315027496674147 0 0 1
18 4 3 0 -4.361695358487041 -0.13453030435669833 -3.0231085753580653 0 0 0
554 152 2 0 -1.3101604636801347 -3.314016604423389 -4.216741931726227 0 0 1
274 58 4 0 -4.047912629183762 -3.113882133111103 -4.345556354275118 0 0 0
155 31 3 0 -4.364898631392854 -2.9353700883246208 -4.202777084177881 1 0 0
53 11 3 0 -2.361602511183399 -2.9909717406650094 -3.2050785289398545 0 0 1
252 51 4 0 -2.2652948151843755 -2.62711310588085 -3.3202722166112832 0 0 0
251 51 2 0 -2.2050125197471435 -2.1846046272065 -3.1809055924577816 0 0 0
253 51 4 0 -2.1429133968084964 -1.7765474538194848 -3.047283681317743 0 0 0
22 5 3 0 -1.7617846976015457 -1.6396961294147563 -3.0376672436454553 0 0 0
555 152 4 0 -0.9240549032422434 -3.112522023594175 -4.119983340501415 0 0 1
544 148 4 0 -0.5781970005136322 -2.9755007247205287 -4.00218073258595 0 0 1
542 148 2 0 -0.5348852378932486 -2.5343744441615836 -4.100989026548095 0 0 1
543 148 4 0 -0.4898394891972817 -2.0838977483186123 -4.189138740216506 0 0 1
175 35 3 0 -0.16406969280210804 -1.938133202314098 -4.020138181187795 0 0 1
25 5 3 0 -1.0798500312759813 -1.6299205697204997 -3.2502101832676367 0 0 0
297 66 4 0 -0.9026611026431322 -1.9319246524936167 -3.0565856283369786 0 0 0
255 52 4 0 -4.398935990006551 -0.10649083190603732 -3.4342463022146763 0 0 0
23 5 3 0 -1.5725808269049275 -1.1981989773767494 -3.5708755949178816 0 0 0
289 63 4 0 -2.2393374132728936 -0.1716454050061964 -3.05808332186617 0 0 0
287 63 2 0 -2.054379697840008 -0.21716067934726932 -3.4694718509143625 0 0 0
288 63 4 0 -1.8808094273371254 -0.26672231990836376 -3.8799194677599593 0 0 0
264 55 4 0 -1.6768999667133948 -0.5192747189712508 -4.089974078054124 0 0 0
21 5 1 0 -1.4466353341560838 -1.3886048352015927 -3.1918515151739992 0 0 0
263 55 2 0 -1.4605638397986749 -0.702565931799142 -4.460672498078425 0 0 0
353 85 2 0 -3.440649087167487 -3.8413880805458533 -2.6594784432286636 0 1 0
355 85 4 0 -3.2652379585722113 -3.578180565615942 -2.340445362159519 0 1 0
405 102 4 0 -3.0805731874462037 -3.237724665066474 -2.2749020550688885 0 1 0
354 85 4 0 -3.6289029876386 -4.120665655581394 -2.995852786721844 0 1 0
74 15 3 0 -1.6819641457126389 -3.869737310469581 -1.9399413941714907 0 1 0
73 15 3 0 -2.1994303831808524 -3.61875605137782 -1.4613937319492911 0 1 0
402 101 4 0 -1.3123144041024124 -3.7985916037571696 -1.9933141983301508 0 1 0
202 41 3 0 -0.3867620218178004 -4.305422195953122 -2.4761564673868754 0 1 0
403 101 4 0 -0.7193149225051121 -4.113833255928023 -2.6074210973546434 0 1 0
401 101 2 0 -1.0204534206412914 -3.9502193309601292 -2.2955623063012975 0 1 0
602 168 2 0 -4.429249609222705 -4.478699446756152 -2.3596168226587007 1 1 0
404 102 2 0 -3.0106851922076743 -2.8443944378411925 -2.08666984979339 0 1 0
8 2 3 0 -4.220004742682759 -2.7218786529168852 -2.1549312951207495 0 0 0
9 2 3 0 -4.094671370109677 -2.0738532748689167 -2.54437806531113 0 0 0
6 2 1 0 -4.39235892004546 -2.313228808727715 -2.265462078354358 0 0 0
10 2 3 0 -4.46042986682228 -2.0646808692439906 -1.8686173591777073 0 0 0
283 61 4 0 -4.400406287371094 -1.9606886595545434 -1.4798358418627249 0 0 0
406 102 4 0 -2.9327470491896093 -2.41485152601213 -1.8685639577541375 0 1 0
271 57 4 0 -1.3162821972605474 -1.7265472023385222 -1.7362073300559813 0 0 0
269 57 2 0 -0.8837966237573285 -1.7781777629223208 -1.9035824668023449 0 0 0
296 66 2 0 -0.45723767298180573 -2.002542087840632 -3.0380846058467106 0 0 0
270 57 4 0 -0.47179194554103854 -1.823817036514713 -2.0666014050584405 0 0 0
127 26 3 0 -0.05596872670190261 -1.8235322475009585 -2.061937838308854 0 0 0
298 66 4 0 -0.0025780815170350275 -2.0754713339220356 -3.0214983842296492 0 0 0
267 56 4 0 -3.392064167261041 -0.736752124979934 -2.216365848664692 0 0 0
266 56 2 0 -3.7344845787489107 -0.48631655782997113 -2.1753275227711053 0 0 0
19 4 3 0 -4.48527372747824 -0.23038347538663492 -2.2798852083810854 0 0 0
268 56 4 0 -4.106976998064262 -0.21404456680774606 -2.120731642877799 0 0 0
325 75 4 0 -3.002688985434214 -0.701315611913176 -2.264298795464604 0 0 1
324 75 4 0 -2.4499213738509984 -0.5076065447485774 -2.983732240360166 0 0 1
276 59 4 0 -1.4607877755138357 -1.3771114165791163 -1.5698032612370778 0 0 0
275 59 2 0 -1.9005792899011436 -1.491626924387676 -1.5444832347023534 0 0 0
323 75 2 0 -2.7254328908739733 -0.6009720856088699 -2.6314901472767875 0 0 1
24 5 3 0 -1.372483222457856 -1.0800952730033848 -2.9066564459736512 0 0 0
498 133 4 0 -1.096814013974644 -0.8214032549699724 -3.0337536016819455 0 0 0
497 133 2 0 -0.9096055869902991 -0.49705645537901655 -2.7713381888287243 0 0 0
499 133 4 0 -0.7193473928344575 -0.1622913177807729 -2.500289504776209 0 0 0
474 125 4 0 -0.6657850742755841 -0.1480008662692139 -2.1148541405618038 0 0 0
473 125 2 0 -0.44956881057460174 -0.29090647296473987 -1.7242611244969115 0 0 0
71 15 1 0 -1.8626115243243266 -3.942002289650316 -1.5505171532073097 0 1 0
75 15 3 0 -2.042850101072454 -4.354083397830938 -1.5485114325369322 0 1 0
72 15 3 0 -1.5665627131418942 -3.924021538367918 -1.245015163764022 0 1 0
295 65 4 0 -1.7432342474093971 -3.306727401662594 -0.6899772471435354 0 0 0
388 96 4 0 -0.8443359613472918 -4.26429930273493 -0.31907900265087985 0 1 0
367 89 4 0 -1.3072759992368628 -3.657539909642879 -1.0898781206112975 0 1 0
365 89 2 0 -0.87544761139057 -3.6112072807476943 -0.9539661376636 0 1 0
366 89 4 0 -0.4653402031979892 -3.5661357649854475 -0.8237280872222458 0 1 0
258 53 4 0 -0.21929452493533935 -3.2493919677914307 -0.8065910968739657 0 0 0
311 71 2 0 -3.833519224417902 -2.0508558005608024 -0.6145198009089461 0 0 0
313 71 4 0 -3.4134437634852812 -1.9641726714625762 -0.6910503859959539 0 0 0
12 3 3 0 -3.0898316733933133 -1.9861459528582575 -0.883594237644491 0 0 0
312 71 4 0 -4.2577565427214985 -2.1479113908040444 -0.5427529971772559 0 0 0
165 33 3 0 -4.3890232914149925 -2.0993522846494557 -0.14943803902556627 1 0 0
15 3 3 0 -3.0262193522832654 -2.457216590994846 -1.4624531942754306 0 0 0
11 3 1 0 -2.809288588400828 -2.149165632221529 -1.2040444622871376 0 0 0
14 3 3 0 -2.4481439656431543 -2.347233693374532 -1.0073048182343403 0 0 0
13 3 3 0 -2.6802858369553006 -1.8149059242741885 -1.4762595839450647 0 0 0
294 65 4 0 -2.3805316112789043 -2.7361471350471276 -1.0328252703403562 0 0 0
293 65 2 0 -2.064441118167842 -3.0175723060637814 -0.860113507575085 0 0 0
257 53 2 0 -0.11454314855852005 -2.8243802169611296 -1.0016063462766045 0 0 0
259 53 4 0 -0.007139733103539772 -2.4290150367649885 -1.1907437413013866 0 0 0
277 59 4 0 -2.3549596931821295 -1.6103287232268633 -1.524069482510328 0 0 0
291 64 4 0 -1.2307424089282617 -0.9551525146781562 -0.27650027468066646 0 0 0
4 1 3 0 -1.555082104658776 -1.1687093979426348 -0.12068631798782489 0 0 0
290 64 2 0 -0.8770129835305804 -0.9943415948043846 -0.006675165887592063 0 0 0
475 125 4 0 -0.25262165981556906 -0.4231960261731511 -1.3684875091927724 0 0 0
205 41 3 0 -0.013389717142686445 -4.360575325368917 -3.148289158064863 0 1 0
172 35 3 0 -0.22776342983326728 -1.1931355980531402 -3.985221738090955 0 0 1
3 1 3 0 -2.20693230649439 -1.4758266701393772 -0.07027683381691477 0 0 0
652 184 4 0 -3.3158489635033677 -4.189571036046264 1.0302842411460316 1 1 0
650 184 2 0 -3.552793607172496 -3.960986653158001 1.3442734226898874 1 1 0
326 76 2 0 -3.909657646741273 -2.495135786681571 1.223919151125846 0 0 0
328 76 4 0 -4.0274691924697015 -2.3566173209703534 0.8086846326569103 0 0 0
162 33 3 0 -4.332522219250582 -2.339571296054832 0.5678969871472058 1 0 0
337 79 4 0 -0.8905312299737259 -1.9516592540424416 1.3015747122326093 0 0 0
335 79 2 0 -1.2265175718130121 -1.7844437467972287 1.0600155137742657 0 0 0
336 79 4 0 -1.5613429860870531 -1.614659667019057 0.8050678200024185 0 0 0
551 151 2 0 -4.394704206914219 -0.7234691434133206 0.2831443264566662 1 0 0
121 25 1 0 -3.4521273166505897 -0.2543368401998879 0.5588836365665203 1 0 0
123 25 3 0 -3.831013313555496 -0.29696913112185913 0.2938630813708556 1 0 0
553 151 4 0 -4.059122738372627 -0.5025469388525322 0.018665027675281796 1 0 0
122 25 3 0 -3.5667613348717717 -0.21654885103215069 0.9864619157145791 1 0 0
125 25 3 0 -3.171238934051696 -0.6342610453667911 0.4998353746431817 1 0 0
2 1 3 0 -2.0750108652211714 -0.9149544556016095 0.34368438446932664 0 0 0
45 9 3 0 -1.033048105417293 -0.042649250758239846 2.3517621654184504 0 0 0
1 1 1 0 -1.9017656908560532 -1.288433690583592 0.1564450014456764 0 0 0
5 1 3 0 -1.7634131872231444 -1.5562607113963745 0.46147194074603476 0 0 0
178 36 3 0 -0.2994281545750343 -0.9256694586265715 1.0309076533461239 0 0 0
292 64 4 0 -0.4971921295572254 -1.0431960022441797 0.2865793400948299 0 0 0
651 184 4 0 -3.7887068249388753 -3.727548856421231 1.659607301670288 1 1 0
48 10 3 0 -3.847345024709959 -3.2702174218649835 2.564661282290369 0 0 0
47 10 3 0 -4.0128334499476015 -3.505488636382868 1.8959090319425724 0 0 0
46 10 1 0 -3.748895547263766 -3.2338746464557167 2.1264750121167952 0 0 0
49 10 3 0 -3.32586831831738 -3.3421061733228634 2.0603477078600294 0 0 0
38 8 3 0 -2.2242427042879678 -4.32954139265719 2.5280106573259267 0 0 0
36 8 1 0 -2.0644016494528166 -4.0157136581745885 2.8210531766067386 0 0 0
303 68 4 0 -1.9547079929022915 -3.273152278802836 2.5764692459750296 0 0 0
302 68 2 0 -1.5505990063476418 -3.110186136286798 2.4769804989393687 0 0 0
37 8 3 0 -2.2058942490385047 -3.600832716913002 2.681548198054956 0 0 0
460 120 4 0 -1.2112231290603348 -4.106030783323596 2.7149382945503384 0 1 0
309 70 4 0 -0.29871881974707354 -4.4715291987264765 2.142914506081044 0 0 0
459 120 4 0 -0.593957013533487 -4.252861054556677 2.0735896976809767 0 1 0
458 120 2 0 -0.9070101591198018 -4.178958948256438 2.4045041793915214 0 1 0
28 6 3 0 -0.8282103631401396 -1.0508088792973909 3.2467188220398975 0 0 0
50 10 3 0 -3.8249736213233123 -2.7936805120183235 1.9864668667580834 0 0 0
327 76 4 0 -3.8063010026409443 -2.6392204834469037 1.6271653456133424 0 0 0
348 83 4 0 -0.7739747453242806 -2.8523062894252713 2.3527496517847797 0 0 0
528 143 4 0 -0.7046113100042292 -1.68377868181744 1.5790180202438127 0 0 0
347 83 2 0 -0.38168873590643754 -2.799126043196367 2.507875503595604 0 0 0
304 68 4 0 -1.1429615373357702 -2.9344229757300058 2.3796381281539376 0 0 0
527 143 2 0 -0.4819110913762604 -1.5230050433876439 1.8965557985326724 0 0 0
315 72 4 0 -4.3915631816005325 -0.20583856808846265 2.6321564966906137 0 0 0
306 69 4 0 -0.7562979738854876 -0.3438008369716014 2.413207836252751 0 0 0
305 69 2 0 -0.8450005064594079 -0.7465288406499943 2.643864336025622 0 0 0
529 143 4 0 -0.24962527112423713 -1.3492247585673158 2.244389978922961 0 0 0
307 69 4 0 -0.930087739641716 -1.1309223923407927 2.868261905324667 0 0 0
301 67 4 0 -3.5458180552794065 -3.2629360659880833 2.8566224843658636 0 0 0
299 67 2 0 -3.412366986197782 -3.246975999981698 3.287402547590162 0 0 0
455 119 2 0 -1.6351642382656373 -4.1818889670797414 4.191678618323467 0 1 0
39 8 3 0 -1.5960213379982129 -4.018130690579885 2.8283686315211525 0 0 0
40 8 3 0 -2.2298910820357554 -4.103245382237522 3.2524449988773996 0 0 0
341 81 2 0 -2.6827206010343803 -3.0355155694300477 4.29202068978862 0 0 0
451 117 4 0 -2.5762121446955812 -4.292707881300202 3.3755547315095806 0 1 0
342 81 4 0 -2.938020990833397 -3.0261838016993576 3.885238176670288 0 0 0
300 67 4 0 -3.2734417132652016 -3.237740130670653 3.726625021418881 0 0 0
30 6 3 0 -0.8031829138254317 -1.6763022208396825 3.652993913757126 0 0 0
320 74 2 0 -1.323400145021867 -2.2245026029500736 3.7502805833727346 0 0 0
321 74 4 0 -1.6734724783230008 -2.49040379995505 3.615838072374299 0 0 0
322 74 4 0 -0.9750651444077116 -1.968212757563985 3.8821773342512866 0 0 0
412 104 4 0 -4.486772772855184 -0.5525945421156252 2.500394360654301 0 0 0
314 72 2 0 -4.127578952188058 -0.08590762123021714 2.974702703529828 0 0 0
317 73 2 0 -3.4511105588137907 -0.5515624037528737 3.7877009285576477 0 0 0
318 73 4 0 -3.7863421399669153 -0.6379488772443501 4.077611084394043 0 0 0
319 73 4 0 -3.1129815256776854 -0.45754612482995466 3.489516739554689 0 0 0
452 118 2 0 -2.990023205105072 -0.006973994787668067 2.822739927239705 0 0 0
454 118 4 0 -3.2026689288055525 -0.27940596770743586 3.13552496127892 0 0 0
265 55 4 0 -1.2497824548154797 -0.8707043826222978 4.183048548790846 0 0 -1
29 6 3 0 -0.23113222788980545 -1.1991567896874322 3.69039730866992 0 0 0
27 6 3 0 -0.9076577956761119 -1.0089142817131151 4.027557960716654 0 0 0
26 6 1 0 -0.6916649208562434 -1.2340894993616318 3.6467644195075453 0 0 0
179 36 3 0 -0.10555874829008907 -0.97865185834516 0.31983639695964144 0 0 0
170 34 3 0 -0.0722592620674019 -0.5179540104880435 2.1556974093998034 0 0 0
32 7 3 0 -3.2703041258640733 -4.487739936059334 0.7893052342117496 0 0 0
361 87 4 0 -0.6720317326519958 -4.4923570764975915 0.8506351698357798 0 1 0
386 96 2 0 -0.6898849142306166 -4.385975448078522 0.0776125662019937 0 1 0
456 119 4 0 -1.652585577015176 -3.8242765874349196 4.442728635399101 0 1 0
393 98 4 0 -3.355193798087622 0.9746729296243493 -3.5502849401935976 0 0 0
107 22 3 0 -3.993576600340724 0.7088137325358128 -4.325889402652657 0 0 1
256 52 4 0 -4.099952560397216 0.3779742589093885 -4.076587172209599 0 0 0
106 22 1 0 -3.902397695284705 1.0847363355790085 -4.169115875589462 0 0 1
392 98 2 0 -3.099590584465997 0.6146288499671038 -3.455333315314322 0 0 0
108 22 3 0 -3.5705867886676637 1.044330262570704 -3.899238135624257 0 0 1
109 22 3 0 -3.8036676546216954 1.3585898061950972 -4.486618771514709 0 0 1
254 52 2 0 -4.247779601829513 0.1295959657949535 -3.7558845471787934 0 0 0
110 22 3 0 -4.2801768654634635 1.2516409975518838 -3.938837399268685 0 0 1
429 110 4 0 -1.6313794564186321 0.9205167188274401 -4.06023830750002 0 0 1
68 14 3 0 -1.6492086335768184 1.2674929695724053 -3.885613900918966 0 0 0
428 110 2 0 -1.6315146107060436 0.7801882612481127 -4.495810667066125 0 0 1
70 14 3 0 -1.3423126756997523 1.2132661104818216 -3.221933856535333 0 0 0
394 98 4 0 -2.825418047463001 0.22692471068110542 -3.3623339421897835 0 0 0
63 13 3 0 -1.3925397685517964 3.2271362770252323 -1.5301317962598164 0 0 0
66 14 1 0 -1.5809388337694996 1.4832360562301412 -3.5031406270731207 0 0 0
67 14 3 0 -1.993451460994992 1.5848087659020433 -3.314974169987925 0 0 0
363 88 4 0 -1.5096742222615058 3.0676797748016593 -3.740390636057488 0 0 0
362 88 2 0 -1.4275816841719011 2.622478010034319 -3.7798943658358293 0 0 0
364 88 4 0 -1.356038117309405 2.190013068417026 -3.8108848488077958 0 0 0
69 14 3 0 -1.3469422176133963 1.8800833640614738 -3.5733739788674193 0 0 0
664 188 4 0 -0.1003816072435294 2.759871146188597 -3.9193522001803953 0 0 1
208 42 3 0 -4.023116849559505 4.277039851720375 -3.0192453193498148 1 0 0
209 42 3 0 -3.7194854433833506 3.9313477493582663 -3.5821656849680967 1 0 0
206 42 1 0 -3.9217906323573177 3.876630529651012 -3.2047317818054073 1 0 0
210 42 3 0 -4.289612608867801 3.6481673893598012 -3.267746639824487 1 0 0
397 99 4 0 -2.4989318249859824 4.197406329934996 -3.551033842941011 0 0 0
433 111 4 0 -2.743682381170004 3.0209953445187736 -3.9446772369332956 0 0 1
80 16 3 0 -2.4345129496461273 3.2316814485732324 -4.056403270118772 0 0 0
76 16 1 0 -2.1640121348467187 3.407699840251691 -3.7340083100709145 0 0 0
77 16 3 0 -2.291494917823168 3.849844093137484 -3.65801098609909 0 0 0
78 16 3 0 -1.7188576745168107 3.3873133963767383 -3.8723289557575082 0 0 0
79 16 3 0 -2.214330141610258 3.165583749290042 -3.3446069890352286 0 0 0
431 111 2 0 -2.9434196376644173 2.94135029683821 -4.344429612539483 0 0 1
385 95 4 0 -1.921006349659566 3.096934273203844 -3.0554090670276364 0 0 0
662 188 2 0 -0.02523804937475794 3.188303926831911 -4.040276227397595 0 0 1
377 93 2 0 -0.1481957119358766 3.060346550308155 -0.8975103025668949 0 0 0
85 17 3 0 -4.268141994485683 1.2501851903322125 -2.045490945991569 0 0 0
391 97 4 0 -1.1917920530199813 1.1610358885791352 -1.666625719849265 0 0 0
390 97 4 0 -0.7854344200803616 0.6476952263119372 -2.271929618188415 0 0 0
389 97 2 0 -0.9883785559666088 0.8945752475565804 -1.9771132558308944 0 0 0
619 173 4 0 -0.5823454088650711 0.4360871466963843 -2.5345755902452107 0 0 0
617 173 2 0 -0.26741562175747013 0.6450616996912286 -2.752641641890793 0 0 0
372 91 4 0 -1.3695517686922343 1.5153464979094091 -1.6808263166777404 0 0 0
81 17 1 0 -4.186638034367235 1.629653839497804 -1.752471649596844 0 0 0
442 114 4 0 -3.4872602840942237 1.9606057372068841 -1.6369525746773184 0 0 0
440 114 2 0 -3.1924993786627827 2.294114100071692 -1.5652293820555183 0 0 0
83 17 3 0 -3.7547543556757694 1.6463380119583477 -1.6383117402175003 0 0 0
379 93 4 0 -0.4017425567098449 3.1478429672854844 -1.2748889160024133 0 0 0
573 158 4 0 -4.4753364257220705 2.3948626791161916 -1.9206230124577657 1 0 0
357 86 4 0 -2.0054661571956647 1.6043021827458146 -2.8932444126310592 0 0 0
356 86 2 0 -2.1479759796807705 1.9521120770077163 -2.649181400516248 0 0 0
56 12 1 0 -2.2946022947064746 2.77734844045315 -1.8792171667731847 0 0 0
59 12 3 0 -2.098721635584966 2.6733823263583685 -2.2869352385905204 0 0 0
358 86 4 0 -2.300776700372166 2.329859417634481 -2.358750623939865 0 0 0
58 12 3 0 -2.009596386276683 2.6277652626091768 -1.5326953153188927 0 0 0
371 91 2 0 -1.6070583351241428 1.9016122579351216 -1.6176553230635577 0 0 0
373 91 4 0 -1.8230082416670188 2.2643252289373352 -1.5560766018355523 0 0 0
207 42 3 0 -3.6372355631749316 3.64694868677605 -2.9230254682588614 1 0 0
622 174 4 0 -3.544650894570739 3.6997003580197494 -2.5339053618105756 1 0 0
604 168 4 0 -4.248174636432613 4.318263155623741 -2.7085729286885365 1 0 0
620 174 2 0 -3.613290663324853 3.83931076318904 -2.116476695562281 1 0 0
621 174 4 0 -3.670343014918862 3.9657837773830624 -1.6925226874044437 1 0 0
60 12 3 0 -2.335057972338265 3.2174425022379363 -1.844819174494234 0 0 0
383 95 2 0 -1.621940301523339 3.023385678391995 -2.7482048900853604 0 0 0
375 92 4 0 -2.4340572494035575 3.490139159926711 -1.5643750436440178 0 0 0
374 92 2 0 -2.323417029192511 3.903617270776874 -1.486119058559563 0 0 0
376 92 4 0 -2.1983220001569124 4.333530747672399 -1.4020713432651486 0 0 0
64 13 3 0 -1.0808382001899677 3.774017697425192 -1.947842704293175 0 0 0
203 41 3 0 -0.23444106386789448 3.996564702758503 -2.794470075774607 0 0 0
607 169 4 0 -0.09978269058360192 3.6466646658834287 -2.6669438184528467 0 0 0
61 13 1 0 -1.0313079541000678 3.3422901821545645 -1.8099563976603261 0 0 0
384 95 4 0 -1.3106492199049202 2.949580223235775 -2.4320343657751513 0 0 0
65 13 3 0 -1.0222272199675544 3.079358958273418 -2.1581933874228456 0 0 0
635 179 2 0 -3.011278909006695 3.1746280340463655 -0.750924617576327 1 0 0
62 13 3 0 -0.6219900217073718 3.2936681602091333 -1.5693695341213996 0 0 0
84 17 3 0 -4.426788515798688 1.5823914175109237 -1.3862058592974877 0 0 0
204 41 3 0 -0.7387509079173875 4.440535077195203 -3.116548791177279 0 0 0
57 12 3 0 -2.685188245247896 2.5890000792968246 -1.8427105402624842 0 0 0
441 114 4 0 -2.905419165861977 2.6234193717119134 -1.4942798380816842 0 0 0
101 21 1 0 -2.1524916891895747 2.674252131475128 -0.2729274559348489 0 0 0
201 41 1 0 -0.3479168697541307 4.43207956120287 -2.8867987776515713 0 0 0
105 21 3 0 -2.0338444534876943 2.3872075766747027 -0.6094618177925176 0 0 0
103 21 3 0 -2.527240287337591 2.9050637552334067 -0.4084353390333985 0 0 0
200 40 3 0 -4.179065705192605 3.1794238455732335 -1.1937646624795657 1 0 0
197 40 3 0 -3.593306624371136 3.528384039094264 -0.8766970659582235 1 0 0
637 179 4 0 -3.1887098251872925 3.5765856762458506 -0.8768749529462521 1 0 0
198 40 3 0 -4.295996603789627 3.7987231067127163 -0.7484540532163112 1 0 0
196 40 1 0 -3.9964382664395415 3.5882222285923544 -1.0643048289907309 1 0 0
199 40 3 0 -3.9523211951877038 3.862463759008567 -1.4317374548662554 1 0 0
636 179 4 0 -2.835188261035223 2.7496279281888047 -0.613625726997329 1 0 0
82 17 3 0 -4.311621375333227 2.02421787960585 -1.965197846316934 0 0 0
229 46 3 0 -4.297687623485434 0.8542988076645077 -0.2324809318138857 1 0 0
261 54 4 0 -2.887850424409588 1.0141073213040037 -0.16006672974314493 0 0 0
352 84 4 0 -2.515066019661433 1.1722749233956633 -0.17634796223764337 0 0 0
350 84 2 0 -2.4156272476410434 1.6034552766567323 -0.011310638142289012 0 0 0
104 21 3 0 -1.8447331152200213 2.9567250853141993 -0.1991443296638877 0 0 0
247 50 3 0 -0.015112155501909507 2.4679267290228544 -4.182847419777536 0 0 1
124 25 3 0 -3.216734285372632 0.13265075246738453 0.4227787922658414 1 0 0
262 54 4 0 -3.3455551188926775 0.48614296687758124 0.43747635681460323 0 0 0
227 46 3 0 -4.168053408449469 0.8153467525522644 0.4785147099928305 1 0 0
226 46 1 0 -4.359896417711294 1.049046120621195 0.1533198042015145 1 0 0
316 72 4 0 -3.85720492255164 0.04288417518818864 3.3003709036477087 0 0 0
260 54 2 0 -3.116142505311604 0.7506915330398345 0.13878543600575965 0 0 0
88 18 3 0 -0.3261173612186563 4.402793446309525 4.385516840883198 0 0 0
447 116 4 0 -2.4797346050555102 2.7872961623785066 1.501920902014656 0 0 0
408 103 4 0 -1.9094029391841212 1.406631127522256 1.7660890914986354 0 0 0
449 117 2 0 -2.7935514796680714 4.308861697188886 3.351362746769656 0 0 0
95 19 3 0 -2.8415168942706943 3.157337304495236 3.2225535172315793 0 0 0
351 84 4 0 -2.323433580412146 2.0145463932347893 0.1421299330694607 0 0 0
419 107 2 0 -0.20558790315472 2.2723240628599797 0.7172452323332361 0 0 0
420 107 4 0 -0.36893708043298074 2.6665037821490842 0.5546480157598668 0 0 0
31 7 1 0 -3.3876362528838864 4.070317863420176 0.7167137976492916 0 -1 0
34 7 3 0 -3.8196972834044574 3.991683681237004 0.8613521443702818 0 -1 0
678 193 4 0 -3.844931835543378 3.891000203269606 1.2596809681956829 1 0 0
35 7 3 0 -3.3637729239352665 3.986977796078215 0.30140875726672095 0 -1 0
87 18 3 0 -0.07535684462435861 3.755546323336753 4.114680199469702 0 0 0
33 7 3 0 -3.0926114926719808 3.775364883949442 0.9475952906137809 0 -1 0
446 116 2 0 -2.635198237771848 3.1622182345901635 1.3506208730665028 0 0 0
448 116 4 0 -2.8119549946364266 3.5613779458779704 1.1878610993313918 0 0 0
360 87 4 0 -0.6872543146485117 3.7768875562606765 1.3945609784964164 0 0 0
359 87 2 0 -0.6849263723579294 4.129080713799297 1.1306459873521237 0 0 0
457 119 4 0 -1.6112212547978852 4.461120145974893 3.9443580779181673 0 0 0
387 96 4 0 -0.543901648211578 4.483040025983243 0.47942292852901924 0 0 0
250 50 3 0 -0.0336763393029083 2.288833713218704 4.07469629506181 0 0 0
453 118 4 0 -2.7922689164257584 0.23922156245994428 2.5269021726378305 0 0 0
426 109 4 0 -2.791370801235845 0.6130440178150649 2.453754767464787 0 0 0
425 109 2 0 -2.494633342566145 0.9442152990731698 2.563934442203624 0 0 0
427 109 4 0 -2.2014552409165504 1.2619454679413589 2.678780361356901 0 0 0
436 112 4 0 -1.8538427234276103 1.3532426321300925 2.812781258441139 0 0 0
44 9 3 0 -1.4694923707915848 0.24591247667277885 2.843989901798101 0 0 0
407 103 2 0 -1.5633048423300986 1.1105530355253292 1.847955598424265 0 0 0
421 107 4 0 -0.046017699352444826 1.8885388510048857 0.8742544222725086 0 0 0
409 103 4 0 -1.212087694549377 0.8130434914125839 1.9333634169386271 0 0 0
42 9 3 0 -1.2585167835300763 0.6242916298552086 2.2804938034946307 0 0 0
41 9 1 0 -1.1360641223311405 0.3271944883784169 2.5588038947291842 0 0 0
43 9 3 0 -0.790203253339943 0.468470936881246 2.7835810511614985 0 0 0
100 20 3 0 -2.1866964106524245 2.504799641337723 1.5313387859699246 0 0 0
99 20 3 0 -1.9405590882182993 1.8078159539279102 1.7193751321019577 0 0 0
96 20 1 0 -1.8541706055694065 2.247130629771137 1.7631817112965358 0 0 0
97 20 3 0 -1.8644985229964208 2.355894020105582 2.2058729887657242 0 0 0
413 105 2 0 -2.3052041391094344 2.856878990823524 2.595414024741226 0 0 0
415 105 4 0 -1.9672048847341388 2.704791926315358 2.309484175903863 0 0 0
434 112 2 0 -1.5366010139660236 1.7004544723194563 2.779689939542531 0 0 0
423 108 4 0 -1.3539427728195 2.7247935308838347 1.5512059865104635 0 0 0
98 20 3 0 -1.4443823248003969 2.3352044934418847 1.5880522117290454 0 0 0
435 112 4 0 -1.2356824132336126 2.02784588038178 2.7524436602988045 0 0 0
115 23 3 0 -1.1153627957996184 2.3829006477256693 2.6423094684644926 0 0 0
112 23 3 0 -0.45412175736747445 2.577225025659647 2.3580792281600296 0 0 0
438 113 4 0 -0.03908980816935316 2.4935619348636555 2.38952190414962 0 0 0
677 193 2 0 -4.1725473999850875 3.9845344906407196 1.5629202881664679 1 0 0
414 105 4 0 -2.677021776092732 3.0074012915647126 2.895475998801984 0 0 0
424 108 4 0 -0.8196911269863654 3.4056702670641936 1.3171262163039004 0 0 0
422 108 2 0 -1.079116250820663 3.07882343003125 1.4328124609247002 0 0 0
654 185 4 0 -0.3038270960214488 3.00784520292022 3.194603067811963 0 0 0
463 121 4 0 -1.6172318045443759 0.5809761078535188 3.0079138282964815 0 0 0
430 110 4 0 -1.6285357243052134 0.6443778053991635 4.066300620994099 0 0 0
462 121 4 0 -1.890173558968563 0.38902303974716373 3.864026734996754 0 0 0
461 121 2 0 -1.7526690775582874 0.47550651533754335 3.4378092035820247 0 0 0
340 80 4 0 -0.473225108377403 0.3898926933242095 3.0528025955916287 0 0 0
338 80 2 0 -0.1350565910146794 0.07623179789709632 2.974954513854845 0 0 0
653 185 2 0 -0.017038791667942633 3.268918215983944 3.4342992139756072 0 0 0
668 190 2 0 -4.127986108716839 2.560457163768547 3.21751575134106 1 0 0
669 190 4 0 -3.6986156533269097 2.6489117068839585 3.148302156428303 1 0 0
93 19 3 0 -3.576269782888545 3.015707657257841 3.2532706792728767 0 0 0
432 111 4 0 -3.138214106454571 2.8548529420143147 4.253229151998052 0 0 0
92 19 3 0 -3.1655543452887045 3.050894694542166 3.8592351471547848 0 0 0
113 23 3 0 -0.5057930253273888 2.0517823565318296 2.901538463984148 0 0 0
111 23 1 0 -0.6806110275092604 2.446656088616129 2.742169151097555 0 0 0
114 23 3 0 -0.6337964694618181 2.8038872680061036 3.0956867139761868 0 0 0
91 19 1 0 -3.219762390568736 3.2242274973586857 3.459558917801082 0 0 0
94 19 3 0 -3.2972131667125972 3.6874462154623564 3.5003924532351745 0 0 0
450 117 4 0 -3.008527162752266 3.9222354361409737 3.3471854972338755 0 0 0
228 46 3 0 -4.1884989761259455 1.4685993858183206 0.13139084222416425 1 0 0
102 21 3 0 -2.241048335675955 2.450607738861513 0.1148613257710913 0 0 0
282 61 4 0 4.134689031880326 -1.195805920078956 -1.3068949337481193 -1 0 0
558 153 4 0 2.3825544147361395 -0.018541889131268734 -2.0000635840242516 0 0 0
466 122 4 0 3.9094210843622594 -2.9998134360188202 -3.523728718975988 0 0 0
154 31 3 0 3.993165182416818 -3.252751793347581 -4.46106575374968 0 0 0
174 35 3 0 0.43065207850398707 -1.5359219495452248 -3.880965782694178 0 0 1
149 30 3 0 0.7573062279037148 -2.235943889105549 -3.4357784376704963 0 0 0
557 153 2 0 2.5183008748704285 -0.03752969423112554 -2.4512834374374886 0 0 0
146 30 1 0 0.6527643278925778 -2.4048517138803356 -3.040365141564065 0 0 0
171 35 1 0 0.04528255520749549 -1.5554062084655194 -4.1067819073519765 0 0 1
160 32 3 0 2.480453853815165 -1.3220858714914752 -3.9354986190711845 0 0 0
158 32 3 0 2.42275398277345 -1.9392874767674118 -4.351313693727898 0 0 0
563 155 2 0 1.8054921546513807 -0.22745103377221632 -0.31087850967289316 0 0 0
464 122 2 0 3.988048754489219 -2.752914949971307 -3.1691082523205854 0 0 0
153 31 3 0 3.9605472227390672 -2.8034268343407693 -3.8446668603632124 0 0 0
151 31 1 0 4.164158838193654 -2.8807357889325966 -4.265352403464494 0 0 0
564 155 4 0 1.6361711684145788 -0.3270300142982884 -0.7210140850987473 0 0 0
609 170 4 0 1.8074336126647168 -0.27414322251001366 -1.081486845875847 0 0 0
504 135 4 0 0.7549182046528707 -1.5911455350240522 -4.089374624866465 0 0 0
503 135 2 0 1.1971879545652122 -1.460294911229123 -4.000838827754024 0 0 0
648 183 4 0 1.7500526055622174 -0.009437233555156304 -4.137236631697171 0 0 1
285 62 4 0 4.194283092804473 -0.9142579422617255 -1.0384015767795602 -1 0 0
525 142 4 0 2.3252268179064672 -1.0158273454958053 -3.691474577316332 0 0 1
505 135 4 0 1.6210037014814733 -1.3227163967568198 -3.920211902719689 0 0 0
157 32 3 0 1.8217820547076409 -1.4900107587598246 -4.233079397101651 0 0 0
156 32 1 0 2.2769657343195737 -1.4998792877399476 -4.297591493736105 0 0 0
647 183 2 0 1.96375042087972 -0.006511719205565704 -3.748853765831644 0 0 1
524 142 2 0 2.508361118137305 -1.0397326925861619 -3.2632928188112977 0 0 1
649 183 4 0 2.2114295197444527 -0.00667434816529339 -3.332704680058691 0 0 1
470 124 2 0 0.7465761935796144 -1.320826810730457 -0.09489891124017165 0 0 0
138 28 3 0 2.9246133096613 -0.14681237182114396 -3.168280258544828 0 0 0
140 28 3 0 3.4630002320294224 -0.23709203885889452 -3.674020695311037 0 0 0
547 149 4 0 3.545874612429132 -0.6158131158138583 -3.775295183195157 0 0 1
531 144 4 0 4.233672458117191 -1.2913790580379139 -4.496310225993903 0 0 1
546 149 4 0 4.228029651810022 -1.0051146380320983 -4.201775086856998 0 0 1
545 149 2 0 3.877473030780776 -0.8080307750755845 -3.9832593921447046 0 0 1
496 132 4 0 0.05713217461034221 -0.24701739239116285 -1.1718590158437054 0 0 0
284 62 2 0 3.829881217486407 -0.6273154768407102 -0.9779510584683524 -1 0 0
286 62 4 0 3.460989895222425 -0.3322158766842244 -0.9226107184841154 -1 0 0
500 134 2 0 1.0086484737777943 -3.1768562610146525 -2.3077718622881367 0 0 0