LAMMPS data file via write_data, version 4 Feb 2025, timestep = 8500000, units = lj

2000 atoms
4 atom types
1500 bonds
1 bond types
1750 angles
2 angle types

-8.346487 8.346487 xlo xhi
-8.346487 8.346487 ylo yhi
-8.346487 8.346487 zlo zhi

Masses

1 1
2 1
3 0.1
4 0.1

Bond Coeffs # harmonic/omp

1 100 0.45

Angle Coeffs # harmonic/omp

1 100 180
2 100 109.471

Atoms # full

1378 293 4 0 -7.313112195859594 -7.010816484119326 -7.70536022980206 0 0 0
443 89 3 0 -7.082290372210528 -7.306192065431844 -7.851082294817735 0 0 1
441 89 1 0 -7.303948465814813 -7.504979867830128 -8.197726455334042 0 0 1
445 89 3 0 -7.73262602485129 -7.539324252116434 -8.106711239094846 0 0 1
704 141 3 0 0.6848064420598856 -7.673252226088292 -7.463755135252758 0 1 0
705 141 3 0 0.7930442136858762 -6.969417157136597 -7.276696958851727 0 1 0
701 141 1 0 0.992365734980865 -7.370454977625926 -7.333924354134873 0 1 0
702 141 3 0 1.1932418866139543 -7.509643544934685 -6.937146029317531 0 1 0
703 141 3 0 1.2949730031614308 -7.335877612819422 -7.648871263724954 0 1 0
1715 405 4 0 1.3041337098724384 -7.636168933928666 -6.555567072693637 0 1 0
1654 385 4 0 1.5842671997384734 -7.524652380451076 -6.817599927423248 0 1 0
1653 385 2 0 1.914954863892353 -7.800587618423468 -6.964654549635087 0 1 0
1655 385 4 0 2.2460402781057383 -8.073048973477224 -7.122548446309647 0 1 0
1141 229 1 0 2.171126469157242 -8.238311024206054 -8.09074265216145 0 1 1
1145 229 3 0 1.9905444072466238 -8.140979343688727 -7.703678322389994 0 1 1
1142 229 3 0 2.6138484276628624 -8.21933840471937 -8.052380997964937 0 1 1
79 16 3 0 2.590225630482214 -7.894665443619125 -7.0701357800835885 0 0 0
77 16 3 0 3.2699263672408705 -7.9580663815522 -6.802187647722253 0 0 0
76 16 1 0 3.023546632323299 -8.013417219234883 -7.154116860212988 0 0 0
80 16 3 0 3.1951729825696837 -7.761337372755266 -7.482351711818455 0 0 0
1503 335 2 0 3.7757812767074856 -7.435939279668448 -7.981810462780902 0 0 1
1505 335 4 0 3.508124427436096 -7.750991760291376 -7.7392295407286475 0 0 1
1266 256 2 0 3.656057933620456 -7.201409251180217 -6.641147421629005 0 0 0
1267 256 4 0 3.374202559680798 -7.566900568976475 -6.705585138887638 0 0 0
1268 256 4 0 3.9262939323178774 -6.862178762409556 -6.589420698625603 0 0 0
1504 335 4 0 4.043454164399806 -7.135642308116453 -8.220902486243867 0 0 1
29 6 3 0 4.305170811151928 -7.019747435793259 -7.935248602200097 0 0 0
638 128 3 0 4.965371669217415 -7.966784995853455 -7.234392521167369 -1 1 0
636 128 1 0 4.5488838010691826 -7.803640352721325 -7.144524176732818 -1 1 0
1637 379 4 0 5.316974221867644 -7.817377047378913 -7.397897917346735 0 1 0
640 128 3 0 4.5108881064161 -7.367230318119771 -7.314082124791479 -1 1 0
639 128 3 0 4.2270784245665105 -8.06599824012128 -7.337755414183518 -1 1 0
637 128 3 0 4.493799184000823 -7.802152839999706 -6.674267306556954 -1 1 0
26 6 1 0 4.633940294237778 -6.762915142225687 -8.12611233092221 0 0 0
1635 379 2 0 5.437428293780904 -7.9199786766230424 -7.815436058925554 0 1 0
1636 379 4 0 5.582768690629358 -8.042070068481808 -8.256168445697952 0 1 0
675 135 3 0 6.1707433234973905 -7.322313739860884 -8.266806268987217 0 1 0
1377 293 2 0 -7.420517554734586 -6.631607942387914 -7.544229901611045 0 0 0
310 62 3 0 -7.946842886187394 -5.681299855330851 -7.088142343193133 1 0 0
306 62 1 0 -7.533546094748489 -5.7415812697481865 -6.916040487180569 1 0 0
309 62 3 0 -7.397200832779406 -6.165856097902223 -6.998513874350805 1 0 0
308 62 3 0 -7.227135787038375 -5.4404180336335735 -7.113256686084031 1 0 0
1379 293 4 0 -7.5251068734113415 -6.216755447955723 -7.376527982858534 0 0 0
1382 294 4 0 -7.2506407424905195 -5.084520933782777 -7.323048338753698 1 0 0
307 62 3 0 -7.5505194977685255 -5.671051903178228 -6.496584470706729 1 0 0
1537 346 4 0 0.6176182596132254 -6.618816805011721 -7.281143522580075 0 0 1
1536 346 2 0 0.35212274604370464 -6.414607251190212 -6.99170900336855 0 0 1
1089 218 3 0 0.324859694289902 -5.392148659918419 -7.660890172165511 -1 1 1
1538 346 4 0 0.07584046546387313 -6.19613083471294 -6.683054764017367 0 0 1
1086 218 1 0 0.5956448243131902 -5.3331648311358535 -7.326890974570165 -1 1 1
1087 218 3 0 0.5963512695153064 -5.694239460030414 -7.044376405371799 -1 1 1
1090 218 3 0 0.47254721980888625 -4.961003698134437 -7.095295119413531 -1 1 1
1134 227 3 0 1.409823631125409 -5.319766844003731 -6.640320456818428 0 1 1
1600 367 4 0 1.5174428555873636 -5.574966255180317 -6.91602217034347 0 0 1
1132 227 3 0 1.3502723259625231 -6.034752719248378 -6.510136366460523 0 1 1
1599 367 2 0 1.7208531538716567 -5.68260091462267 -7.323920857559854 0 0 1
1601 367 4 0 1.9262171156421406 -5.780396176800435 -7.7255482639128035 0 0 1
448 90 3 0 2.2263828435510824 -5.933841324756309 -7.968100462604597 0 0 1
1088 218 3 0 0.9949731017635113 -5.2873937964443805 -7.4921100243093175 -1 1 1
769 154 3 0 3.6349919542814337 -5.943150102192437 -6.53194331098813 0 0 0
450 90 3 0 2.8375119176779293 -6.10855218520997 -8.316406745633584 0 0 1
27 6 3 0 4.971241553720356 -6.680183979515659 -7.826776689409844 0 0 0
770 154 3 0 4.110073923733021 -6.497484419411771 -6.635883126109112 0 0 0
766 154 1 0 4.057608204358569 -6.052300562924371 -6.521536085863891 0 0 0
767 154 3 0 4.2845468422979245 -5.800595490573301 -6.811402644618803 0 0 0
30 6 3 0 4.46302988986332 -6.402043192632515 -8.250785637424046 0 0 0
1380 294 2 0 -6.912208466669554 -4.809928203431142 -7.503337301794744 1 0 0
1577 359 4 0 -7.1007044042949445 -3.7169463262485447 -6.632319703870609 0 0 1
1575 359 2 0 -7.077203384018545 -3.3484939468043695 -6.899592648469118 0 0 1
1381 294 4 0 -6.5863596554551975 -4.535492889566841 -7.668336260741499 1 0 0
687 138 3 0 -6.292791394940785 -4.33517871553314 -7.902450496449462 0 0 0
1663 388 4 0 -5.468345940481795 -3.5843336931341696 -7.899242507949083 0 0 0
688 138 3 0 -5.736171258881079 -3.8608082936118073 -7.971656501561302 0 0 0
686 138 1 0 -5.849426513888957 -4.279135873327095 -8.023627885552498 0 0 0
689 138 3 0 -5.590508963649418 -4.548164064560629 -7.762092382145805 0 0 0
1639 380 4 0 -5.264364501651866 -4.726300102050992 -7.639544728086021 0 0 0
1638 380 2 0 -5.164982244015154 -4.678449422504025 -7.193851661373433 0 0 0
1640 380 4 0 -5.072179175585028 -4.6402210041433705 -6.760073511514006 0 0 0
388 78 3 0 -4.710161584071629 -4.544740512652486 -6.545299461693628 0 0 0
1533 345 2 0 -0.7492767700047755 -4.284031982005377 -7.951413549455309 0 0 1
1621 374 4 0 -0.9525605141161355 -0.17507709287901818 -8.151201420449675 0 0 0
1534 345 4 0 -0.6402779942309014 -4.367369608100085 -7.520040504144425 0 0 1
592 119 3 0 -0.5046326001857322 -4.209960331281145 -7.1639209323873745 0 0 1
591 119 1 0 -0.5479357186579525 -4.118955653536177 -6.702476677049004 0 0 1
1506 336 2 0 0.5392945597339569 -4.226532004757184 -6.596429743112155 0 0 1
595 119 3 0 -0.5081577788322829 -3.686664121729655 -6.631870961505692 0 0 1
1507 336 4 0 0.8767473279034945 -4.04878095567787 -6.869414105041762 0 0 1
1249 250 3 0 1.9282136501940066 -4.053670875954501 -6.516052562165967 0 0 1
1246 250 1 0 1.7239967045750504 -3.949119231192287 -6.913530775856567 0 0 1
1250 250 3 0 1.2806863346344812 -4.061581184596339 -6.889414283894709 0 0 1
1248 250 3 0 1.9346976877685176 -4.188662562444835 -7.272740091113633 0 0 1
1247 250 3 0 1.7692029305123445 -3.522676287943032 -6.986574466775011 0 0 1
523 105 3 0 3.438498697015227 -4.9235564639836005 -6.72075746943319 0 0 1
521 105 1 0 3.4786325016753565 -4.494631104435555 -6.539405981646612 0 0 1
522 105 3 0 3.6158054054965305 -4.216101421918569 -6.846426396177926 0 0 1
45 9 3 0 4.131606459835023 -3.711258593923649 -8.081908989361915 0 0 0
42 9 3 0 4.756151667536162 -3.571212631849334 -7.685960311278491 0 0 0
41 9 1 0 4.5742169156091705 -3.7214888844312384 -8.094680041457963 0 0 0
44 9 3 0 4.703714325710884 -4.119243693147999 -8.170720141091994 0 0 0
1576 359 4 0 -7.044746891498267 -2.9632087878288287 -7.168833989839811 0 0 1
562 113 3 0 -7.300238019149209 -3.0249085765093833 -7.478564041470447 1 0 1
561 113 1 0 -7.499183212941326 -2.6321840014308346 -7.681354951812673 1 0 1
1750 417 4 0 -7.261467463398879 -1.8811130010094983 -7.563967288339319 1 0 0
563 113 3 0 -7.200205438682618 -2.2705017839802935 -7.674670723350945 1 0 1
564 113 3 0 -7.612441403135838 -2.724824805146625 -8.103762528657935 1 0 1
565 113 3 0 -7.884829570544859 -2.5141602370129625 -7.442197998118231 1 0 1
1749 417 2 0 -7.154206090758871 -1.73104221312692 -7.143231092005732 1 0 0
1662 388 2 0 -5.637206316844578 -3.155599232970822 -7.85279153386797 0 0 0
1664 388 4 0 -5.791589810339893 -2.74586239757923 -7.8078605350948065 0 0 0
763 153 3 0 -5.628007516313358 -2.3735664587413554 -7.888822611689745 0 0 0
761 153 1 0 -5.538249235208166 -2.062205174531818 -8.231264668792704 0 0 0
35 7 3 0 -6.098875572986774 -2.7091609301208983 -6.630162762485181 1 0 0
1019 204 3 0 -0.803571227668205 -2.4186306496674685 -7.535904353373591 0 0 0
1018 204 3 0 -0.29393773647887045 -2.9086692303585764 -7.571096819463855 0 0 0
1020 204 3 0 -0.12873322258502284 -2.2169156489028197 -7.446833487686442 0 0 0
1016 204 1 0 -0.4216030429290578 -2.5407756205473637 -7.375147141417788 0 0 0
1017 204 3 0 -0.4679357623193692 -2.6155915494352575 -6.945488455736242 0 0 0
2 1 3 0 0.7204808271825893 -2.342176282287637 -6.476535465556729 0 0 0
156 32 1 0 2.2599840924831245 -3.0022520462612947 -7.0454663308282734 0 0 0
159 32 3 0 2.095874579206269 -2.590698673232258 -7.145644164036517 0 0 0
158 32 3 0 1.9902831008659376 -3.2114015900415787 -6.763185720682364 0 0 0
160 32 3 0 2.295007243780802 -3.24054268840913 -7.414199540954565 0 0 0
1341 281 2 0 2.3088292523008462 -1.792761031093101 -7.003290647084975 0 0 0
1343 281 4 0 2.1839031941456373 -2.2518242077624695 -6.97260570513215 0 0 0
157 32 3 0 2.6665167289846803 -2.9574142099162506 -6.85608710733575 0 0 0
1394 298 4 0 2.970179969937208 -2.722275682204301 -6.814029256969604 0 0 0
860 172 3 0 4.516764440704588 -1.968675617529783 -6.521647268823299 0 0 0
1751 417 4 0 -7.048836765774074 -1.5761346970574177 -6.704897856896983 1 0 0
762 153 3 0 -5.5627467541195585 -1.6406279597698212 -8.078244671195133 0 0 0
1677 393 2 0 -5.934335386676747 -0.5471639689655525 -6.923395633921527 0 0 0
1573 358 4 0 -5.608657589738882 -1.261253530460185 -7.958545691552656 0 0 1
1678 393 4 0 -5.5705825406789735 -0.3514355301403427 -7.073190192062786 0 0 0
1679 393 4 0 -6.333820798081511 -0.7492660312737875 -6.754294278329716 0 0 0
213 43 3 0 -6.604021634265585 -0.8514870819689708 -6.478763626624984 1 0 0
1572 358 2 0 -5.709311174195266 -0.9498326151285257 -8.280460375667202 0 0 1
94 19 3 0 -5.006576319574293 -0.53393733479259 -6.586258794937475 0 0 0
95 19 3 0 -4.350647181912906 -0.257023243642287 -6.7545283745600475 0 0 0
1060 212 3 0 0.47833559328611663 -0.7900481977329346 -8.272474854624965 0 0 1
1295 265 4 0 -8.1641415217838 -0.16624024665965287 -6.497026678076876 1 0 0
1620 374 2 0 -0.59394037419802 -0.37420637602553875 -8.309565543403112 0 0 0
1342 281 4 0 2.418294031629342 -1.3769982028786405 -7.027297283407203 0 0 0
107 22 3 0 2.4441133270939197 -0.9762472190512863 -6.9847517868028115 0 0 0
1603 368 4 0 2.648091779529844 -0.9273481489758071 -8.063125715726214 -1 0 1
106 22 1 0 2.5979132358433485 -0.6505558654244803 -7.235218222519345 0 0 0
108 22 3 0 2.5709630270260924 -0.7766218067198531 -7.685841165485854 0 0 0
109 22 3 0 2.357365719585406 -0.28087275632762143 -7.16533988924423 0 0 0
110 22 3 0 3.040590382197543 -0.5625952709686004 -7.112131257401904 0 0 0
1274 258 4 0 3.3719069987539285 -0.7913194302817033 -7.1065749167238605 0 0 0
1272 258 2 0 3.6390699967587476 -1.129343051479771 -7.005330324911957 0 0 0
859 172 3 0 4.9248647031946415 -1.5652292250538204 -7.009727130369046 0 0 0
1273 258 4 0 3.8917010874740363 -1.4533013110573574 -6.908471713721698 0 0 0
856 172 1 0 4.6234311990847825 -1.5410165531918585 -6.659243046152116 0 0 0
858 172 3 0 4.266318059873145 -1.3357259918470712 -6.79448520850466 0 0 0
722 145 3 0 -6.782598923730309 -6.787473052440051 -5.834228342710015 1 1 0
1734 412 2 0 -6.380130698107963 -7.083008775552089 -5.222827128937189 1 1 0
1735 412 4 0 -6.191850865992049 -7.393175085221757 -4.919833888691752 1 1 0
1736 412 4 0 -6.56507315337846 -6.77766752066841 -5.515921667248245 1 1 0
834 167 3 0 -6.035472468678196 -7.759360706077346 -4.902341911735629 1 1 0
519 104 3 0 -3.836805934190865 -8.055853417954495 -6.211930087606394 0 0 1
1329 277 2 0 -4.073526883408254 -7.36151506091025 -5.235408790180264 0 0 0
39 8 3 0 -4.5614368816820114 -6.864133751060283 -4.955038469007658 1 0 0
1330 277 4 0 -4.233672278712956 -6.913934867102401 -5.155268861748912 0 0 0
1331 277 4 0 -3.926279827283204 -7.7669365081368955 -5.29999689812575 0 0 0
518 104 3 0 -3.916199133742081 -8.122286790588662 -5.469917398096451 0 0 1
827 166 3 0 -1.6601963711042425 -8.268379945161888 -5.675781059222245 0 1 0
829 166 3 0 -0.9774466403502631 -8.032977077176374 -5.668282968814983 0 1 0
1723 408 4 0 -1.1010743950019632 -7.717860738540311 -4.890864182549052 0 1 0
893 179 3 0 -1.3739608900168 -7.365832000457181 -4.7932475351694395 0 1 0
891 179 1 0 -1.5481444123754127 -6.968438434278944 -4.679752256515244 0 1 0
894 179 3 0 -1.9733279450878847 -6.992894104790901 -4.681151618781559 0 1 0
1722 408 2 0 -0.668614035366609 -7.61405138332413 -5.046038264833408 0 1 0
1724 408 4 0 -0.20940810986781955 -7.502093007794945 -5.2179764577649665 0 1 0
1642 381 4 0 0.10052442639696046 -7.265062723572822 -5.295842857512126 0 1 0
1641 381 2 0 0.08905164297308588 -6.847821001461997 -5.391686501428403 0 1 0
660 132 3 0 0.1595062828708702 -7.649299841204903 -5.228321062600369 0 1 0
656 132 1 0 0.4452785710449465 -8.016668142292154 -5.170172791108834 0 1 0
658 132 3 0 0.7260129917060123 -8.067522317939712 -5.563684396178543 0 1 0
1714 405 4 0 0.7347849705221616 -7.759071138821357 -5.83369547145236 0 1 0
1713 405 2 0 1.0042202417307777 -7.704189022028553 -6.18477353140158 0 1 0
657 132 3 0 0.6966825679009307 -7.939942838187935 -4.817724005874035 0 1 0
1437 313 2 0 1.5445690397165475 -7.717405816526077 -4.826743514832202 0 0 0
1438 313 4 0 1.0908416999594515 -7.85149762908293 -4.7733656540796545 0 0 0
1439 313 4 0 1.9808204723721907 -7.579883328861547 -4.868356037473832 0 0 0
1338 280 2 0 -7.761660607992368 -6.356268727641697 -5.025741673732849 1 0 0
1340 280 4 0 -7.57461912846135 -6.437981045358247 -5.427032426225197 1 0 0
724 145 3 0 -7.3721163449747165 -6.345409672317898 -5.759756684152066 1 1 0
721 145 1 0 -6.952680611364222 -6.337517743181066 -5.796269195879014 1 1 0
723 145 3 0 -6.823640834049425 -6.084229489405774 -6.159593691946039 1 1 0
725 145 3 0 -6.7870861620515575 -6.158559579106897 -5.417185845681468 1 1 0
1339 280 4 0 -7.950899252355559 -6.276279697801368 -4.614290720197401 1 0 0
1451 317 4 0 -6.576965177274339 -6.177269172663651 -5.103617116849973 0 0 0
1375 292 4 0 -6.93763246056432 -5.719139196472589 -6.124244581248155 0 0 0
1374 292 2 0 -6.822091382081803 -5.309824824782606 -6.213890945217157 0 0 0
1449 317 2 0 -6.673190144287983 -6.038973926617694 -4.7143864846595624 0 0 0
1257 253 2 0 -4.837296385303011 -5.458862181988703 -5.527226997287599 0 0 0
1259 253 4 0 -4.915243517264769 -5.895939362870363 -5.451867479912519 0 0 0
37 8 3 0 -4.848260770696054 -6.2915526041371015 -5.291183313536308 1 0 0
1258 253 4 0 -4.771187971544844 -5.027663910119861 -5.596576907884408 0 0 0
36 8 1 0 -4.756641748665932 -6.462926573739951 -4.898066622802222 1 0 0
40 8 3 0 -4.475649737428393 -6.191286436764647 -4.675550081186634 1 0 0
38 8 3 0 -5.150854687159088 -6.508215861805264 -4.650040735402152 1 0 0
1522 341 4 0 -1.665788866321546 -6.5916939094953255 -5.285836754316089 0 0 1
895 179 3 0 -1.4277170481502512 -6.667538398398147 -4.992862648492796 0 1 0
1521 341 2 0 -1.37537561261367 -6.381660514509882 -5.570303080131832 0 0 1
1523 341 4 0 -1.09532384211942 -6.195989704151012 -5.85668198841714 0 0 1
504 101 3 0 -0.30800670156128085 -6.250498700118147 -6.524076542357051 0 0 1
503 101 3 0 -0.7197909557792936 -6.109702511356416 -5.964847524797815 0 0 1
502 101 3 0 -0.12288289075737246 -5.715458426616049 -6.073696256152005 0 0 1
501 101 1 0 -0.31339357031778015 -6.130631899516877 -6.1065808221029005 0 0 1
505 101 3 0 -0.0845508155800978 -6.426321078868432 -5.863506014122192 0 0 1
1643 381 4 0 0.06013477248894539 -6.422225639985441 -5.496476185984129 0 1 0
1309 270 4 0 -0.3749511045748859 -5.461710122829489 -5.917798761387862 0 0 0
1131 227 1 0 1.2860667403032036 -5.609821445015266 -6.343020027238979 0 1 1
1135 227 3 0 0.8321509193198366 -5.54439447681176 -6.2488084442520515 0 1 1
1133 227 3 0 1.5477965234362987 -5.551898526476711 -5.9464625308269525 0 1 1
590 118 3 0 1.2912475169410467 -6.0243050505389615 -5.661626946093143 0 1 1
589 118 3 0 1.2673482093912352 -6.2208682909953215 -4.9671266918648325 0 1 1
588 118 3 0 0.9052057499321613 -6.636629411699454 -5.453473101477191 0 1 1
586 118 1 0 1.2826177841683286 -6.3804471165410455 -5.374324201106154 0 1 1
587 118 3 0 1.6867935027492553 -6.64437325779369 -5.418837770630477 0 1 1
48 10 3 0 1.7841908900112102 -5.288032802538456 -5.006792918677798 0 0 0
46 10 1 0 2.1212735881042484 -5.348587771831067 -5.294794072068594 0 0 0
47 10 3 0 2.498277492619053 -5.1648981108260585 -5.121798469918312 0 0 0
50 10 3 0 2.179993055507742 -5.7673904624362216 -5.363658192613661 0 0 0
768 154 3 0 4.204211365817352 -5.987048033015684 -6.127274490750055 0 0 0
1361 287 4 0 4.512949039601235 -6.11544603967922 -5.9240883456529065 0 0 0
1359 287 2 0 4.4838896862961874 -6.01620243925737 -5.487909611169634 0 0 0
1360 287 4 0 4.449250750505501 -5.909910557413864 -5.061650053499605 0 0 0
165 33 3 0 4.501895923081776 -5.707860047555416 -4.738952902639454 0 0 0
772 155 3 0 -7.046520584678181 -3.9867740614932794 -6.358442884442352 0 1 0
775 155 3 0 -7.342370063549023 -4.196384820861478 -5.712041598336621 0 1 0
1509 337 2 0 -8.08584774267745 -4.21970623990521 -5.7931890287742425 0 0 1
1511 337 4 0 -7.69802300873088 -4.39727447164492 -5.753261164790583 0 0 1
771 155 1 0 -6.952108355895153 -4.1726691038862755 -5.997988022821957 0 1 0
1376 292 4 0 -6.704559236988049 -4.869856546966739 -6.301926078618946 0 0 0
773 155 3 0 -6.805186817325808 -4.578404740908091 -6.07787477665273 0 1 0
774 155 3 0 -6.640244495551749 -3.948980178768341 -5.791874363830567 0 1 0
1302 268 2 0 -5.243236400530419 -3.6222501113739742 -5.837418685501786 1 0 0
1303 268 4 0 -4.997105248193871 -3.965940068232703 -5.67755074380374 1 0 0
389 78 3 0 -4.58112335072831 -4.894392232192577 -5.927222600104184 0 0 0
390 78 3 0 -4.749962585524981 -4.194453324466836 -5.919189952875982 0 0 0
386 78 1 0 -4.5351176157620205 -4.511058068758081 -6.14240100772425 0 0 0
387 78 3 0 -4.079077299931945 -4.401009600017879 -6.163494296269076 0 0 0
1501 334 4 0 -3.942059267121671 -4.11596811714337 -5.924025147869202 0 0 1
1500 334 2 0 -3.8469850291216803 -3.688999835143451 -5.786954594170057 0 0 1
1502 334 4 0 -3.760527335878405 -3.2971397450147437 -5.656642337992405 0 0 1
593 119 3 0 -0.9299167908730208 -4.25326709723115 -6.568223625410865 0 0 1
1409 303 4 0 -2.0937841351134185 -3.632158479017318 -4.653197425850845 0 0 0
594 119 3 0 -0.20683427296463996 -4.345367012180851 -6.460713213874655 0 0 1
1508 336 4 0 0.20678010110433043 -4.405463399019841 -6.318695696703973 0 0 1
1310 270 4 0 -0.06985434795845968 -4.660718289923187 -6.21501562614364 0 0 0
1308 270 2 0 -0.20904764723752756 -5.045062755397194 -6.067221385657046 0 0 0
49 10 3 0 2.021666868369868 -5.144743336421428 -5.686034539109382 0 0 0
1729 410 4 0 2.214101631417602 -4.848172950394742 -5.849803899052659 0 1 0
525 105 3 0 3.0650777147203137 -4.351090443961991 -6.382116123502243 0 0 1
1728 410 2 0 2.483925658153634 -4.533914839749222 -6.018321818920073 0 1 0
1730 410 4 0 2.749999023500349 -4.236395121468571 -6.185696641308928 0 1 0
524 105 3 0 3.7648529778094204 -4.506052493188263 -6.210851841755827 0 0 1
1510 337 4 0 8.206808420019659 -4.033748067262156 -5.825704841365752 -1 0 1
120 24 3 0 7.175785014715185 -3.7163776453683477 -6.012102175566377 0 0 0
119 24 3 0 7.9046059438633804 -3.88912634275235 -6.0399890472255535 0 0 0
117 24 3 0 7.494825040584422 -4.059344722410598 -5.425614313449737 0 0 0
116 24 1 0 7.554619169087099 -3.7593416725996436 -5.762144609054798 0 0 0
1631 377 4 0 7.355294311873184 -4.159473073330902 -5.051647027182712 0 0 0
1629 377 2 0 7.301431886799902 -4.422851987806334 -4.695175657840061 0 0 0
1304 268 4 0 -5.502585525706779 -3.266543777541541 -5.998838692074062 1 0 0
34 7 3 0 -6.346106315528544 -2.8093461455234596 -5.949595419743087 1 0 0
31 7 1 0 -5.993424395972937 -2.8483097686321743 -6.208930224199056 1 0 0
33 7 3 0 -5.8603069132231616 -3.2861713428268224 -6.219275016293671 1 0 0
32 7 3 0 -5.65612609609298 -2.5986034951636663 -6.046302297097232 1 0 0
1706 402 4 0 -5.243992065494501 -2.5890845523219275 -5.991655022955456 0 1 0
1704 402 2 0 -5.175347075659017 -2.4597604796130366 -5.567070133719314 0 1 0
1705 402 4 0 -5.106928696012001 -2.32822956566672 -5.161995040028784 0 1 0
580 116 3 0 -4.896651019911395 -2.2144758188535585 -4.840705744015527 1 0 0
732 147 3 0 -3.3734810234023636 -3.1786201283195643 -5.61845740853519 0 0 0
734 147 3 0 -2.6405947952608955 -3.0458729817475216 -5.586119495216678 0 0 0
733 147 3 0 -3.1413033046006342 -2.5314951372660834 -5.34982370308803 0 0 0
735 147 3 0 -3.0815254511907693 -2.6840738672974984 -6.086192318204197 0 0 0
731 147 1 0 -3.0696154029419853 -2.8608967398677 -5.657489523496916 0 0 0
1780 427 4 0 -3.3003299599452838 -2.236828119271081 -5.1241900802504174 1 0 0
1779 427 2 0 -3.0532196400335456 -1.9928875346228363 -4.805885726051793 1 0 0
1408 303 4 0 -2.3383634118016143 -3.0687339414057027 -5.33751893701555 0 0 0
1407 303 2 0 -2.2146520095243085 -3.359984884485118 -4.983053323203729 0 0 0
4 1 3 0 0.6178361873496279 -3.074470325105918 -6.516475627838934 0 0 0
5 1 3 0 0.46959466900948676 -2.691911830431885 -5.89189077996477 0 0 0
3 1 3 0 0.029846792737279415 -2.597104419152151 -6.46410248186352 0 0 0
1 1 1 0 0.458201849376346 -2.6730169820184777 -6.335250970141588 0 0 0
1392 298 2 0 3.058108068570263 -2.577653837723722 -6.397833142969573 0 0 0
1332 278 2 0 2.473530963715824 -1.7223500473466782 -5.114334577470543 0 0 0
1393 298 4 0 3.1471327557305706 -2.413426634333054 -5.967058815706926 0 0 0
1333 278 4 0 2.8177718968457217 -1.9444656952038093 -5.256292056341313 0 0 0
455 91 3 0 3.398502780215031 -2.5687412401813123 -5.721059076835067 0 0 1
451 91 1 0 3.2483175020833333 -2.414927108433692 -5.3076379100808255 0 0 1
454 91 3 0 3.194886827768281 -1.9501114878775851 -5.321662519400389 0 0 1
453 91 3 0 2.85772355680891 -2.6085497951441283 -5.206899564318648 0 0 1
452 91 3 0 3.533818995242134 -2.5169972141794723 -5.0021919923466065 0 0 1
52 11 3 0 6.608588081532 -2.143883422229097 -6.164975318263201 0 0 0
51 11 1 0 6.6916621709957855 -1.8699684984399614 -5.816683745778976 0 0 0
55 11 3 0 6.32667694270536 -1.708358324456956 -5.662163849475777 0 0 0
53 11 3 0 6.902145367737667 -2.0975052918316717 -5.478830122881975 0 0 0
118 24 3 0 7.661650345807892 -3.3753341594424606 -5.593663154128068 0 0 0
1306 269 4 0 7.778218767996773 -2.997060742129886 -5.616271328229409 0 0 0
1307 269 4 0 7.278629662823242 -2.26359759715604 -5.551590923192347 0 0 0
1305 269 2 0 7.536054851433661 -2.640351779750545 -5.581963845211493 0 0 0
212 43 3 0 -6.996235913791629 -1.471571542219544 -6.303770202055672 1 0 0
214 43 3 0 -7.316388103465067 -0.8006715401688096 -6.264415400120089 1 0 0
1294 265 4 0 -7.361033983164716 -0.5997179008221689 -6.633038050168414 1 0 0
1293 265 2 0 -7.759483814028967 -0.38547478942821556 -6.561867616697938 1 0 0
211 43 1 0 -6.9232860595149095 -1.023598106207646 -6.206016209616092 1 0 0
215 43 3 0 -6.7847266281230505 -0.9690997401615862 -5.75309130794495 1 0 0
92 19 3 0 -4.56175092324206 -0.28125130177762614 -6.047874944666603 0 0 0
1288 263 4 0 -4.586114268183779 -1.5517918911694455 -5.329677318077627 0 0 0
91 19 1 0 -4.577517525383623 -0.4915521734249193 -6.455173885254391 0 0 0
93 19 3 0 -4.391938992474478 -0.8926830442638396 -6.427963090600385 0 0 0
1289 263 4 0 -4.537458545354694 -1.1279345169109822 -6.149862829456318 0 0 0
1287 263 2 0 -4.558110739196956 -1.3362465005254496 -5.742552093445731 0 0 0
265 53 3 0 1.6523486572651809 -0.9806595777282086 -5.189400811685237 0 0 0
262 53 3 0 1.9808265123399345 -1.3154540382676627 -4.620843712478149 0 0 0
1334 278 4 0 2.127427734968748 -1.4896097241810153 -4.96909192076618 0 0 0
261 53 1 0 1.788247706427713 -0.9264301108566819 -4.761231894961778 0 0 0
857 172 3 0 4.819556672508039 -1.2927256920745993 -6.303808918596187 0 0 0
1459 320 4 0 5.155001415624838 -1.415932003949548 -6.148612298784447 0 0 0
1460 320 4 0 5.936313541051575 -1.640429625843403 -5.790625118503641 0 0 0
1458 320 2 0 5.556721648900147 -1.5265639289603614 -5.970766799083701 0 0 0
1814 438 4 0 6.774455737044171 -1.3164480358150996 -6.214786628540105 0 0 0
263 53 3 0 1.4464472082457647 -0.8243537894171968 -4.49841268699544 0 0 0
184 37 3 0 8.12728791786342 -0.2071362751780672 -6.42623045101203 0 0 0
1813 438 4 0 7.242946158909277 -0.5337264264989736 -6.202380440853719 0 0 0
54 11 3 0 6.9736048790492084 -1.5220242163944526 -5.954504450725579 0 0 0
1812 438 2 0 7.01552849122119 -0.9178350927693382 -6.2096710929198204 0 0 0
182 37 3 0 7.518752570324745 -0.2757550755437226 -6.056746074778536 0 0 0
172 35 3 0 -7.972191699217818 -6.842455369913613 -3.8979573899358826 1 0 0
1313 271 4 0 -7.661375493665364 -7.035540286002579 -3.7735072747588125 1 0 0
1311 271 2 0 -7.292944050412432 -6.838189566594089 -3.5160762039654054 1 0 0
174 35 3 0 -8.259673180779023 -6.553711345798545 -4.546750647529563 1 0 0
1687 396 4 0 -5.4916035555762495 -8.329376653271275 -4.102621123293528 0 1 0
1672 391 4 0 -6.15434373394223 -7.832607952283679 -3.807925194520644 0 1 0
1671 391 2 0 -6.180353593060573 -7.953528379140367 -3.348986769206922 0 1 0
832 167 3 0 -6.214875413413605 -7.704277341020351 -4.175782583447185 1 1 0
831 167 1 0 -5.872108652118449 -7.763748960144686 -4.484651661604401 1 1 0
835 167 3 0 -5.569527387501844 -7.419547324054604 -4.43931813513204 1 1 0
833 167 3 0 -5.66848415908297 -8.151205282497125 -4.407308456605525 1 1 0
1362 288 2 0 -5.819170186922893 -6.799271895183836 -3.9036385164162226 1 0 0
1363 288 4 0 -5.65527396114124 -7.083640819607707 -4.234612875932901 1 0 0
1673 391 4 0 -6.215430235761382 -8.062229264251766 -2.9112621071034557 0 1 0
892 179 3 0 -1.3881766587882467 -6.841198547476939 -4.262541492872504 0 1 0
1300 267 4 0 -1.152668898467284 -7.101377756185376 -4.029848324416909 0 0 0
1301 267 4 0 -0.959620954528094 -7.86958142218106 -3.557965409673116 0 0 0
1299 267 2 0 -1.0611626149465812 -7.483826396668726 -3.794214319601916 0 0 0
14 3 3 0 -0.9946855846261569 -8.23646132507493 -3.41080838779812 0 0 0
1785 429 2 0 2.1189363789670725 -7.015547252476144 -3.242178299770363 0 1 0
1787 429 4 0 1.870328267756987 -6.849605242558107 -2.917739197026794 0 1 0
1786 429 4 0 2.3854954728594358 -7.177988884311937 -3.5625886742669834 0 1 0
787 158 3 0 2.3031656294401515 -7.557956552416845 -4.628525372685052 -1 1 0
788 158 3 0 2.8528431641320786 -7.202008248702082 -4.260612734831155 -1 1 0
789 158 3 0 2.2231588687361103 -7.3471341407149255 -3.911003872455007 -1 1 0
790 158 3 0 2.6833007927754533 -7.893699952436055 -4.083104358347518 -1 1 0
786 158 1 0 2.513399861347107 -7.4987190738152885 -4.2122582162668865 -1 1 0
998 200 3 0 6.122200483861077 -7.014010655516975 -3.1098494166586255 0 0 0
1414 305 4 0 6.736890642668072 -6.838135642125411 -3.7086748269987257 -1 0 0
1413 305 2 0 7.149631860843314 -6.846544541632236 -3.871128528126185 -1 0 0
175 35 3 0 7.987745556557812 -6.92168016853053 -4.060284601967835 0 0 0
1415 305 4 0 7.5836015920926165 -6.864636592923454 -4.038552468492695 -1 0 0
171 35 1 0 8.345478828752409 -6.638648530625793 -4.0945915539908695 0 0 0
1312 271 4 0 -6.963204735718562 -6.660774417174489 -3.285628628280051 1 0 0
1691 397 4 0 8.343591718768085 -6.098309669885186 -3.51853211264672 0 1 0
173 35 3 0 8.240203527323247 -6.229432242416954 -3.8643604477881555 0 0 0
814 163 3 0 -6.74998723489929 -6.299049040102265 -3.2535418589769147 0 1 0
1450 317 4 0 -6.784797462999906 -5.890709854348898 -4.280680248745188 0 0 0
812 163 3 0 -6.756840528337154 -5.904872093539377 -3.885518736121451 0 1 0
811 163 1 0 -6.511249309832909 -5.98818800410433 -3.532501115523849 0 1 0
815 163 3 0 -6.125233648458637 -6.166853147324482 -3.6695513377458155 0 1 0
813 163 3 0 -6.422895577938234 -5.624790194593025 -3.3151333882405627 0 1 0
1364 288 4 0 -5.966246916519156 -6.5244470931867085 -3.584816515875376 1 0 0
958 192 3 0 -3.3825334166730414 -5.2564518986705 -3.089685917742032 0 1 0
162 33 3 0 4.4492364485866 -5.803774675318246 -4.0172905992915995 0 0 0
163 33 3 0 5.127325301422347 -5.667628131933489 -4.326905522010477 0 0 0
161 33 1 0 4.709076603863489 -5.874434758884719 -4.388929738368185 0 0 0
164 33 3 0 4.764693827289388 -6.331471113117563 -4.433981772322781 0 0 0
1286 262 4 0 5.507002985056353 -5.589120541517459 -4.230080317153315 0 0 0
996 200 1 0 6.24937580187941 -6.571066531032222 -3.204986473649482 0 0 0
1284 262 2 0 5.696795901399556 -5.768711856142353 -3.835621008579486 0 0 0
997 200 3 0 5.909773965237928 -6.349671455722858 -3.4481298585321234 0 0 0
1285 262 4 0 5.883025160119562 -5.949379500812052 -3.453147124664696 0 0 0
999 200 3 0 6.61746455385857 -6.573065871754368 -3.4300344850676954 0 0 0
1000 200 3 0 6.320130149974204 -6.339810547254474 -2.813162309585117 0 0 0
210 42 3 0 6.850132696702511 -4.9954005395122305 -3.6647327291585547 0 0 0
1689 397 2 0 8.138438092541364 -5.7042239049786 -3.5414446225976786 0 1 0
1690 397 4 0 7.931125959068499 -5.3151151398597385 -3.5579984648788265 0 1 0
209 42 3 0 7.032263031807483 -5.6905750705722875 -3.94333618575552 0 0 0
206 42 1 0 7.175790322212057 -5.241768442708902 -3.8942847891199044 0 0 0
207 42 3 0 7.565977021607289 -5.233161441791287 -3.6660377349763547 0 0 0
1252 251 4 0 -4.359595223883426 -3.666643774574583 -2.8666800231923135 1 0 0