LAMMPS data file via write_data, version 29 Aug 2024, timestep = 9000000, units = lj

800 atoms
4 atom types
550 bonds
1 bond types

-5.3956 5.3956 xlo xhi
-5.3956 5.3956 ylo yhi
-5.3956 5.3956 zlo zhi

Masses

1 1
2 1
3 1
4 1

Bond Coeffs # zero

1 0

Atoms # bond

5 1 3 -2.77721893874499 -4.9604353133746875 -3.708661587710427 0 0 0
147 33 2 -3.987491469986467 -2.262892764128837 -3.7626333863195245 0 0 0
40 8 3 -3.8498123578414396 -1.7962094537954936 -4.983746812865982 0 0 0
439 130 4 -3.7915394355165914 -2.0521803764753552 -5.278374420714656 0 0 1
149 33 4 -3.5961658812573156 -2.1314848058327196 -4.044761428355257 0 0 0
39 8 3 -3.448824275138195 -2.009366950441339 -4.38318670833619 0 0 0
206 52 4 -3.2747876041545534 -2.3041288280263537 -4.163890728070499 0 0 0
204 52 2 -3.0558035537931776 -2.5754451308898108 -4.522266856583759 0 0 0
337 96 4 -3.2463148521349643 -1.9196928217726676 -4.054557398423371 0 0 0
205 52 4 -2.836819503431802 -2.846761433753268 -4.880642985097018 0 0 0
260 70 4 -2.87369242498235 -2.946668796263677 -5.270564988762237 0 0 1
37 8 3 -3.9288709051638206 -1.4329237482997075 -4.33661989928805 0 0 0
36 8 1 -3.630980425046357 -1.649353492648155 -4.612336107763987 0 0 0
336 96 2 -2.877267848945079 -1.6867242708567007 -3.8105697681626833 0 0 0
38 8 3 -3.2955418994204932 -1.3524348458343758 -4.733250592834677 0 0 0
358 103 4 -2.824966903624154 -0.4320223694463268 -5.007056650610455 0 0 0
437 129 4 -2.1400324968480193 -1.449893446817609 -3.5765304132419464 0 0 1
357 103 2 -2.984334678851478 -0.9047976390358948 -5.040002920251035 0 0 0
359 103 4 -3.1437024540788023 -1.3775729086254627 -5.072949189891615 0 0 0
443 131 4 -2.8001352408100364 -0.036210931278295416 -5.1974672160945214 0 0 1
245 65 4 -0.883267062679458 -0.5212190097548853 -4.955306568772157 0 0 1
416 122 4 -0.6938334833557616 -0.31074579921607537 -3.6701977124632537 0 0 1
414 122 2 -0.8210092343371226 -0.30838229019941316 -4.1537478569026405 0 0 1
415 122 4 -0.9481849853184836 -0.30601878118275094 -4.637298001342027 0 0 1
458 136 4 -0.7736022971052954 -0.13403004112587974 -4.9426267248876625 0 0 1
243 65 2 -0.7087216749175509 -0.8139006696053538 -5.321190913337573 0 0 1
526 159 4 -0.9485150890709085 -0.9916287999171965 -0.4435571893851771 0 0 0
148 33 4 -4.378817058715619 -2.394300722424955 -3.4805053442837917 0 0 0
649 200 4 -4.35315192768457 -2.6828842771374055 -3.1860899063687635 1 0 0
650 200 4 -4.95678253821918 -2.773634720507772 -2.3940075602358126 1 0 0
648 200 2 -4.654967232951875 -2.7282594988225886 -2.7900487333022883 1 0 0
695 215 4 -5.016944395501584 -2.6516426859229822 -1.996257943724648 1 0 0
625 192 4 -5.304177971139255 -2.8296475469362847 -2.2134651929223788 1 0 1
164 38 4 -2.2777589960910656 -1.96387314441973 -2.343559966275774 0 0 0
162 38 2 -2.3019692030065606 -1.825821561587753 -2.823513741507571 0 0 0
371 107 4 -2.0538667367891406 -1.8839084792928313 -2.025901976056857 0 0 0
338 96 4 -2.508220845755194 -1.4537557199407343 -3.5665821379019955 0 0 0
163 38 4 -2.326179409922055 -1.6877699787557767 -3.303467516739368 0 0 0
42 9 3 -2.401355615908555 -1.7059808638967324 -2.0850697976693473 0 0 0
435 129 2 -2.07080211175999 -0.973342099364779 -3.4419719983377752 0 0 1
436 129 4 -2.0015717266719606 -0.4967907519119489 -3.3074135834336036 0 0 1
44 9 3 -3.042654971792909 -1.3241771877035555 -1.9964070152424507 0 0 0
385 112 4 -2.3615627944297506 -0.5812995291235677 -2.013488406200986 0 0 0
384 112 2 -2.2424185736665465 -0.4693370208210851 -2.4860019524551182 0 0 0
43 9 3 -2.372890305759041 -0.9719373806980909 -1.9261047358108108 0 0 0
41 9 1 -2.6044381388873465 -1.3667594208548433 -1.849939405246029 0 0 0
386 112 4 -2.123274352903342 -0.3573745125186024 -2.9585154987092506 0 0 0
400 117 4 -2.0541932830535012 -0.10182016212206266 -3.271600539992929 0 0 1
175 42 4 -0.9249110436183384 -0.844120936085804 -0.8076086776340519 0 0 0
347 99 4 -1.7647098524466414 -0.25586688282792164 -3.054387574120897 0 0 0
346 99 4 -0.7946220014790939 -0.22775894307460062 -3.295508923502196 0 0 0
369 107 2 -1.570642193752433 -1.760610505624264 -1.9899624338230018 0 0 0
146 32 4 -0.6964569619203027 -1.4935121562634326 -1.9024656974186425 0 0 0
356 102 4 -0.451859152677458 -0.38226394075239306 -3.3887014160264277 0 0 0
345 99 2 -1.2796659269628679 -0.24181291295126114 -3.1749482488115466 0 0 0
354 102 2 -0.22564200841315268 -0.6039162791924444 -3.00179568525363 0 0 0
144 32 2 -0.31701482161046907 -1.3475593669798518 -2.193535183035399 0 0 0
331 94 4 -0.5331916397043575 -0.009450645662976764 -3.473445165899694 0 0 0
556 169 4 -5.394080396093265 -3.0431605692190926 -0.06052007138003285 1 0 0
693 215 2 -4.865431538907445 -2.5236496151706143 -1.53727904647 1 0 0
694 215 4 -4.713918682313307 -2.3956565444182463 -1.0783001492153517 1 0 0
557 169 4 -4.789759129330662 -2.6819824898800317 -0.7706934315816049 1 0 0
13 3 3 -4.687960748410029 -2.297636079826095 -0.7096061959994946 0 0 0
555 169 2 -5.091919762711964 -2.8625715295495624 -0.4156067514808188 1 0 0
12 3 3 -4.170274989412778 -1.7579685382332757 -0.6343705695820288 0 0 0
11 3 1 -4.613605988042142 -1.8399112552561636 -0.7257106855285977 0 0 0
14 3 3 -4.874437687449354 -1.6257597913566029 -0.4072676370977134 0 0 0
373 108 4 -3.830107012281764 -1.6704249296745894 -0.8107865482292705 0 0 0
349 100 4 -3.9722596804149557 -1.406122632209453 -0.557201477644995 0 0 0
15 3 3 -4.713159658937454 -1.6808204404284153 -1.1406554761316934 0 0 0
348 100 2 -3.958026310536553 -1.2660761254340345 -0.07742612696305728 0 0 0
310 87 4 -2.2731279774020012 -0.7041868361388202 -1.6531557887485973 0 0 0
311 87 4 -2.647071950838969 -0.14005055028091629 -0.9170062416408709 0 0 0
364 105 4 -2.986602749060062 -0.27790237842921556 -0.7585968403800241 0 0 0
309 87 2 -2.4600999641204853 -0.4221186932098682 -1.285081015194734 0 0 0
45 9 3 -2.598123730907716 -1.4674036099218495 -1.405832576364837 0 0 0
372 108 2 -3.408775739977267 -1.5919640291183945 -1.0683207130732888 0 0 0
374 108 4 -2.98744446767277 -1.5135031285622 -1.3258548779173074 0 0 0
363 105 2 -2.9284928062804814 -0.31798210735538485 -0.26360507289407376 0 0 0
174 42 2 -0.9541595284538149 -1.136011687118302 -1.2125090550063407 0 0 0
370 107 4 -1.0874176507157256 -1.6373125319556965 -1.9540228915891469 0 0 0
176 42 4 -0.9834080132892916 -1.4279024381508 -1.6174094323786297 0 0 0
525 159 2 -0.5793928730658096 -1.1015460900183711 -0.12470459179846308 0 0 0
492 148 2 -0.007173834875332454 -5.370887663369757 -1.955936039644922 0 0 0
603 185 2 -4.846167541176457 -4.071293169629755 0.6326824777018071 1 0 0
242 64 4 -4.046500139338563 -3.8500068114406365 0.9750718651999855 0 0 0
604 185 4 -4.372996290180217 -3.9929340078574938 0.7739935140599808 1 0 0
605 185 4 -5.3193387921726965 -4.1496523314020175 0.4913714413436333 1 0 0
240 64 2 -3.6881044600125805 -3.921205473269725 1.3163683456889965 0 0 0
241 64 4 -3.3297087806865977 -3.9924041350988126 1.6576648261780078 0 0 0
210 54 2 -2.872477939852443 -4.540934623517044 1.7016398884891017 0 0 0
211 54 4 -2.717950341796712 -4.983396322224106 1.5274306274929321 0 0 0
272 74 4 -2.3350241471534288 -4.909104125823712 1.3829809251622538 0 0 0
227 59 4 -2.4425861265245077 -5.245690634616927 1.5626192543638087 0 0 0
270 74 2 -1.8733268971674042 -5.027255836578395 1.2317333711292022 0 0 0
151 34 4 -1.040080846619865 -5.042706944120572 1.1832249535315356 0 0 0
271 74 4 -1.4116296471813796 -5.145407547333079 1.0804858170961507 0 0 0
199 50 4 -1.109032463309777 -5.137180861971896 0.8154821501716658 0 0 0
150 34 2 -0.6576035211614958 -5.174104548080363 1.477241560519169 0 0 0
152 34 4 -0.2751261957031267 -5.305502152040154 1.7712581675068026 0 0 0
463 138 4 -2.6757820637840313 -1.868447783719478 1.1571352434205926 0 0 0
462 138 2 -2.792921030281511 -2.1327301731521118 1.565097596051162 0 0 0
788 246 4 -5.068193432420083 -1.3880130046798502 1.2402786093591147 1 0 0
660 204 2 -4.358304389701454 -1.1954479296588356 1.0935239008732993 1 0 0
661 204 4 -4.7225742418624055 -1.3361060423757456 1.4058102600589288 1 0 0
662 204 4 -3.994034537540501 -1.0547898169419254 0.7812375416876699 1 0 0
634 195 4 -5.038229323350152 -1.146069138213845 1.537335753802978 1 0 0
350 100 4 -3.9437929406581502 -1.1260296186586154 0.4023492237188795 0 0 0
113 23 3 -3.740846679029454 -0.8107749497177704 0.5849293735321504 1 0 0
114 23 3 -3.9464768562467465 -0.15410111721639153 0.2622907088879984 1 0 0
434 128 4 -3.6554792573211357 -1.2100271470816044 0.6664227416393684 0 0 0
112 23 3 -3.7005744375755674 -0.16800464056802009 0.9723883729652347 1 0 0
111 23 1 -3.649815245949582 -0.3567110794195082 0.5559590459472297 1 0 0
237 63 2 -1.2055785278504176 -1.4359509458852013 4.702084286333594 0 0 0
433 128 4 -2.745762249268214 -1.587015822815986 0.8404759048595571 0 0 0
432 128 2 -3.200620753294675 -1.3985214849487952 0.7534493232494628 0 0 0
115 23 3 -3.222030036725051 -0.2927791256389786 0.4134370474566534 1 0 0
377 109 4 -2.864796782954604 -0.36331991887975934 0.6056171206052597 0 0 0
375 109 2 -2.4610616818632653 -0.10527743289984334 0.7484878439050284 0 0 0
365 105 4 -2.8703828635009008 -0.35806183628155414 0.23138669459187666 0 0 0
527 159 4 -0.21027065706071058 -1.2114633801195458 0.19414800578825095 0 0 0
284 78 4 -3.2113763020873787 -3.741583272290129 1.9501919272146169 0 0 0
212 54 4 -3.027005537908174 -4.0984729248099825 1.8758491494852714 0 0 0
609 187 2 -4.157371792418823 -2.069745074225735 3.5211976510550054 1 0 0
611 187 4 -3.6614279507091845 -2.1326049246272714 3.5117984448200463 1 0 0
425 125 4 -3.4723600081789416 -2.253225280635732 3.2146872200930376 0 0 0
423 125 2 -3.3197395668361924 -2.3299915373238904 2.744778779310484 0 0 0
268 73 4 -3.3899891203567485 -2.424719522980864 3.5595700730722197 0 0 0
283 78 4 -3.1326642363354673 -2.7517437233779924 2.0686067831813246 0 0 0
282 78 2 -3.1720202692114228 -3.246663497834061 2.0093993551979707 0 0 0
424 125 4 -3.167119125493443 -2.406757794012049 2.2748703385279305 0 0 0
464 138 4 -2.910059996778991 -2.397012562584745 1.973059948681731 0 0 0
297 83 2 -0.25533478838876705 -2.0856866748137484 2.9671966657309 0 0 0
278 76 4 -1.1141384597031505 -1.8996318830289745 3.2281366744846887 0 0 0
299 83 4 -0.7373572317896528 -2.051289401464819 3.09553680615197 0 0 0
633 195 2 -5.196064004763038 -1.005931084216927 1.9906011718145151 1 0 0
748 233 4 -4.843850163796192 -1.6679393990216511 3.424946040195726 1 0 0
635 195 4 -5.353898686175923 -0.8657930302200091 2.4438665898260528 1 0 0
747 233 2 -5.076129636509869 -1.334159988851307 3.1340207028643663 1 0 0
612 188 2 -5.003954803716672 -0.23761293680714532 2.9560828993095662 1 0 0
614 188 4 -5.250409591968813 -0.6225751235851107 2.7534399816007245 1 0 0
749 233 4 -5.308409109223545 -1.000380578680963 2.8430953655330065 1 0 0
133 28 4 -4.765060783881196 -5.322816869137945 4.755795769084595 0 0 -1
256 69 4 -5.395177498246059 -4.177812596290559 5.135283717771132 0 0 0
255 69 2 -5.1958903471600815 -4.630048000741733 5.059337879350874 0 0 0
257 69 4 -4.996603196074104 -5.082283405192908 4.9833920409306165 0 0 0
547 166 4 -4.639119169010695 -5.216693884026928 5.12555067532039 1 0 -1
224 58 4 -5.265504026807639 -3.8341950493389847 5.029382027152008 0 0 0
420 124 2 -0.05882689953745849 -1.373468128340368 4.527947328770274 0 0 0
294 82 2 -2.7167304334471076 -5.14676012514641 4.258440441555546 0 0 0
296 82 4 -2.5671833561467174 -4.8761677310675955 4.651397726686104 0 0 0
287 79 4 -2.700284326935955 -5.086570726465363 4.960384851231654 0 0 0
421 124 4 -0.457175334801538 -1.1335871990651905 4.711728894476048 0 0 0
616 189 4 -4.977318360680731 -1.9013720604821398 3.7364691638762593 1 0 0
615 189 2 -5.3153394548932145 -2.253011846908216 3.846429158736105 1 0 0
222 58 2 -4.923975239257621 -3.490257512361088 5.1521218248211085 0 0 0
438 130 2 -4.108443593075721 -2.4108277570727816 5.368105811070927 0 0 0
440 130 4 -4.425347750634851 -2.769475137670208 5.22338604285651 0 0 0
223 58 4 -4.582446451707604 -3.146319975383191 5.274861622490209 0 0 0
54 11 3 -3.714440254746385 -1.909016496489058 5.162157760631711 0 0 0
267 73 2 -3.1824986313014274 -2.2725565706217323 3.988282252606402 0 0 0
259 70 4 -2.985214234628721 -2.274577027098303 4.788613467980868 0 0 0
269 73 4 -2.9750081422461063 -2.1203936182626006 4.416994432140584 0 0 0
258 70 2 -2.9294533298055354 -2.6106229116809896 5.154624239609315 0 0 0
292 81 4 -2.710963070978327 -2.0135468861194714 4.691405696510514 0 0 0
53 11 3 -3.097189820038222 -1.91166434500597 4.718767537746124 0 0 0
291 81 2 -2.250011750339732 -1.983824874663237 4.499988659555717 0 0 0
293 81 4 -1.7890604297011372 -1.9541028632070028 4.30857162260092 0 0 0
276 76 2 -1.2748628767917278 -1.8446124911151687 3.6983924860010666 0 0 0
610 187 4 -4.653315634128463 -2.0068852238241988 3.5305968572899644 1 0 0
55 11 3 -3.555019944141687 -1.3140165154219743 4.72919103316112 0 0 0
51 11 1 -3.3758606238883924 -1.6488224429650842 4.980600915322251 0 0 0
52 11 3 -3.129133380804219 -1.4657876107804482 5.322980701126146 0 0 0
239 63 4 -1.5844323396898423 -1.7172963610710346 4.53681315573739 0 0 0
277 76 4 -1.4355872938803051 -1.789593099201363 4.168648297517445 0 0 0
238 63 4 -0.8267247160109927 -1.154605530699368 4.8673554169298 0 0 0
244 65 4 -0.5341762871556438 -1.1065823294558221 5.104124742097009 0 0 0
412 121 4 -5.345366166158256 0.48964563171597353 -5.215784072545143 0 0 1
413 121 4 -4.6455291585669265 1.2036520719452262 -5.2363502125442 0 0 1
411 121 2 -4.995447662362591 0.8466488518305998 -5.226067142544672 0 0 1
461 137 4 -4.568526023684017 1.5960297117903823 -5.113802233336308 0 0 1
442 131 4 -2.3647372307269587 0.40722925722011505 -4.414020107452578 0 0 1
465 139 2 -2.6426358821300755 1.2198048684334764 -4.378612608048648 0 0 1
467 139 4 -2.5679153105067924 0.7348166342963011 -4.282679042886225 0 0 1
401 117 4 -2.4199293066471164 0.4201650268450299 -4.042164374816681 0 0 1
441 131 2 -2.5824362357684976 0.18550916297090952 -4.805743661773549 0 0 1
399 117 2 -2.237061294850309 0.15917243236148362 -3.656882457404805 0 0 1
466 139 4 -2.7173564537533594 1.704793102570652 -4.474546173211071 0 0 1
447 133 2 -0.40446125112682296 1.3204431657541196 -5.027191509910118 0 0 1
456 136 2 -0.8438870658656701 0.2953367072548112 -5.189009042973576 0 0 1
449 133 4 -0.17220861394393164 1.6757427962172864 -4.762955090932735 0 0 1
173 41 4 -2.4512577074527693 5.370047456188303 -2.875073128580521 0 -1 0
676 209 4 -0.19500555066948896 1.5351060264846037 -4.385840127878347 0 0 0
459 137 2 -4.3237095802564065 1.9186529649385737 -4.820580226052108 0 0 1
460 137 4 -4.078893136828796 2.241276218086765 -4.527358218767908 0 0 1
719 223 4 -4.0759256696444695 2.3508540586372857 -4.170258185043853 1 0 0
353 101 4 -4.161548765945046 2.606115270627409 -4.437736903605676 0 0 0
351 101 2 -4.37290249100408 3.0199951037023314 -4.622217489785557 0 0 0
233 61 4 -3.780944006099643 2.487825070130485 -4.379834061072092 0 -1 1
717 223 2 -4.307357077308878 2.2831205391269993 -3.7322494249923146 1 0 0
352 101 4 -4.584256216063114 3.433874936777253 -4.806698075965439 0 0 0
232 61 4 -2.8855311889386135 2.042965175992674 -4.361515724636288 0 -1 1
48 10 3 -2.4952384181421814 2.037208962497659 -4.405443607134842 0 0 0
231 61 2 -3.333237597519128 2.265395123061579 -4.37067489285419 0 -1 1
46 10 1 -2.236921055260964 2.391583374807595 -4.253816050492226 0 0 0
50 10 3 -2.101681897130039 2.647039667990178 -4.605742821825137 0 0 0
191 47 4 -2.1894067947353753 2.99714349727007 -4.779215743992224 0 -1 0
189 47 2 -2.4598034836978018 3.367950153728322 -4.580751505087552 0 -1 0
49 10 3 -2.4814264027504054 2.6496211940669223 -3.9555986484508825 0 0 0
454 135 4 -2.1014645621617065 2.70489428500122 -5.0091804647198925 0 0 1
214 55 4 -1.9616856526367141 3.054937501696167 -5.113833479891376 0 -1 1
47 10 3 -1.8672496372834422 2.2241527305268587 -4.037228834605494 0 0 0
453 135 2 -2.036887271830516 2.327793053273799 -5.331087958578872 0 0 1
161 37 4 -1.824181655695536 2.8354166301589734 -4.789818280215302 0 -1 0
429 127 2 -0.46688202813875573 2.2773576751036733 -4.357937149436876 0 0 1
431 127 4 -0.806062514882147 2.6323686666420634 -4.263471318053468 0 0 1
160 37 4 -0.8959765525433938 2.974830584725724 -4.444855911611083 0 -1 0
159 37 2 -1.3600791041194649 2.9051236074423485 -4.617337095913193 0 -1 0
430 127 4 -0.12770154139536444 1.9223466835652834 -4.452402980820284 0 0 1
218 56 4 -4.632258873910408 3.612928882132011 -5.152796278797947 0 -1 1
546 166 2 -4.500040242888297 5.293924819557246 -5.275865809879262 1 -1 0
520 157 4 -4.800573484070966 3.7675741940957908 -4.834543014709746 1 -1 0
519 157 2 -5.169055967838293 3.73440158524036 -4.49820949396283 1 -1 0
137 29 4 -4.411489046405426 3.7850671173425665 -4.90205322715634 0 -1 0
135 29 2 -4.246337811720522 4.255713343849189 -4.867164845757578 0 -1 0
136 29 4 -4.081186577035619 4.726359570355811 -4.832276464358814 0 -1 0
188 46 4 -3.9760454633444287 5.117591037982272 -4.788233329181535 0 -1 0
548 166 4 -4.360961316765899 5.01334352314142 -4.886082295078914 1 -1 0
186 46 2 -3.588646039166427 5.065122645185463 -4.476514298796699 0 -1 0
4 1 3 -3.026464134463786 5.130354138818762 -3.827833299680592 0 -1 0
190 47 4 -2.7302001726602283 3.7387568101865742 -4.382287266182879 0 -1 0
187 46 4 -3.2012466149884258 5.0126542523886535 -4.164795268411863 0 -1 0
24 5 3 -2.5084703000122976 4.791529101787429 -4.803669359999712 0 -1 1
25 5 3 -2.2344367724119225 4.687048828693197 -4.11020739400341 0 -1 1
21 5 1 -2.563632412535305 4.567279628234513 -4.401215244661535 0 -1 1
23 5 3 -2.5528587511246092 4.108912441624892 -4.472513564829567 0 -1 1
22 5 3 -2.9722031491766336 4.68044474346415 -4.222711435585004 0 -1 1
286 79 4 -2.601133766635134 5.07267134439333 -5.062181073159698 0 -1 1
3 1 3 -2.2811404937146262 5.278784831983339 -3.835643540944556 0 -1 0
140 30 4 -2.054750542073517 5.04001295859555 -4.047130492237341 0 -1 0
305 85 4 -2.3780313357323273 4.781675828737426 -5.187144983576278 0 -1 1
1 1 1 -2.688541974749371 5.388951294595099 -3.642803234559019 0 -1 0
552 168 2 -0.04222802636161251 4.083597983474585 -5.141981865179453 0 -1 0
138 30 2 -1.6201473227200296 5.174253877952813 -4.25473448376171 0 -1 0
156 36 2 -0.6989146182922947 4.9524891073611945 -5.073727553274081 0 -1 0
288 80 2 -1.5921577637246838 4.827206585531282 -0.36639762486068034 0 -1 0
139 30 4 -1.1855441033665426 5.3084947973100745 -4.462338475286079 0 -1 0
158 36 4 -0.8393641944206266 5.244992323726864 -4.693312273637234 0 -1 0
168 40 2 -0.5417407851027783 4.623508561046725 -0.5936642609709922 0 -1 0
324 92 2 -0.08345971970079885 1.2767959887483071 -2.81568105610215 0 0 0
330 94 2 -0.19437811546716552 0.358134388280016 -3.4641371792959346 0 0 0
325 92 4 -0.2427824995083611 1.5288372601619913 -2.4143190632093443 0 0 0
313 88 4 -0.1191665578251197 1.6755108609845168 -2.068357226520555 0 0 0
713 221 4 -0.4703886370978544 1.7913201629047695 -2.1880740606164895 0 0 0
362 104 4 -4.365713440899693 2.0471536948109432 -2.9875958917903263 0 0 0
722 224 4 -4.7426226075102536 1.9409756026156335 -3.1086553363734555 1 0 0
360 104 2 -4.069731443855168 2.0711915378065284 -2.585331253113932 0 0 0
720 224 2 -5.218643123210027 1.9582038752412687 -2.956643312982795 1 0 0
361 104 4 -3.7737494468106427 2.0952293808021127 -2.1830666144375375 0 0 0
718 223 4 -4.538788484973287 2.215387019616713 -3.294240664940776 1 0 0
704 218 4 -4.0121419392577575 2.13405001327306 -1.8739964469007748 1 0 0
335 95 4 -3.623999597006941 2.0695166279236323 -1.7974970916059494 0 0 0
339 97 2 -2.5064718381039337 3.2282603716038003 -2.39079007017434 0 0 0
340 97 4 -2.227107415986101 3.0680284193730456 -2.773257377455573 0 0 0
341 97 4 -2.785836260221766 3.388492323834555 -2.0083227628931075 0 0 0
387 113 2 -3.4017817343395413 2.795066269712364 -1.8940738421449854 0 0 0
388 113 4 -3.0988289704733303 3.1861012419677017 -1.8211953587719252 0 0 0
392 114 4 -1.9223493523846695 2.7996227705304886 -2.6790124653216574 0 0 0
128 26 4 -3.1422186562555794 3.5671922426437126 -1.9554057914280158 0 -1 0
712 221 4 -0.6523059881885305 2.6592963317753093 -2.6501600349173966 0 0 0
391 114 4 -0.9372762190341531 2.8801418996037995 -2.831155791835669 0 0 0
390 114 2 -1.4298127857094114 2.839882335067144 -2.755084128578663 0 0 0
178 43 4 -0.5622606696552512 3.0095652875614944 -2.850512593875317 0 -1 0
181 44 4 -0.7281674514569566 3.0024942395446748 -2.5006961261589065 0 -1 0
711 221 2 -0.5613473126431925 2.225308247340039 -2.419117047766943 0 0 0
180 44 2 -0.7150608085761425 3.297048173877792 -2.096881570105243 0 -1 0
177 43 2 -0.3384346521497662 3.3791481317350534 -3.1021282435878272 0 -1 0
169 40 4 -0.7376181642821498 4.793881290202688 -0.16634098113888574 0 -1 0
638 196 4 -5.114003753644805 4.218350759666889 -2.666250506328928 1 0 0
142 31 4 -4.816916090924002 4.282859800685873 -2.941356406610405 0 -1 0
141 31 2 -4.33672942505866 4.337018988887214 -2.812952558309633 0 -1 0
131 27 4 -5.137089002839215 4.071029322032402 -3.0329318586411094 0 -1 0
143 31 4 -3.85654275919332 4.3911781770885545 -2.6845487100088605 0 -1 0
197 49 4 -3.6141412817630663 4.68696263632921 -2.64642066040959 0 -1 0
171 41 2 -2.0784423761018362 5.2885763733547035 -2.5520078234619166 0 -1 0
2 1 3 -2.6669768067721797 5.30443033649382 -3.1911494388567063 0 -1 0
127 26 4 -3.5803116685596685 4.333170819340472 -2.4258856875046675 0 -1 0
126 26 2 -3.361265162407624 3.9501815309920922 -2.190645739466342 0 -1 0
195 49 2 -3.226439642430194 4.989128868104148 -2.737979424235835 0 -1 0
196 49 4 -2.8387380030973217 5.291295099879085 -2.8295381880620805 0 -1 0
193 48 4 -1.8985264313092187 5.128871138921175 -1.9116027150049943 0 -1 0
172 41 4 -1.7056270447509032 5.207105290521104 -2.2289425183433123 0 -1 0
497 149 4 -0.2087399830915264 4.093366609451834 -3.5689732995513497 0 -1 0
494 148 4 -0.19968360319558914 4.984752673139707 -2.1083426295322614 0 -1 0
185 45 4 -0.6049513715760926 4.880714283058761 -2.1639365434032314 0 -1 0
183 45 2 -1.049363664587524 5.0637188471884285 -2.026070509415435 0 -1 0
17 4 3 -0.33396261154944273 4.615506379382934 -2.0216411379486994 0 -1 0
505 152 4 -0.31434168158997816 4.742857782087726 -2.3920646980268945 0 -1 0
184 45 4 -1.493775957598955 5.246723411318096 -1.8882044754276377 0 -1 0
506 152 4 -0.19021998190177453 4.114263760760795 -3.1598298704711114 0 -1 0
504 152 2 -0.25228083174587634 4.4285607714242605 -2.775947284249003 0 -1 0
179 43 4 -0.11460863464428112 3.7487309759086123 -3.3537438933003374 0 -1 0
333 95 2 -3.3827294365746576 1.7242799498356283 -1.5280525782321022 0 0 0
334 95 4 -3.141459276142374 1.3790432717476242 -1.2586080648582552 0 0 0
368 106 4 -3.210044945809299 0.9936596545307126 -1.2771126255502154 0 0 0
367 106 4 -2.9658316179958772 0.09526447131028998 -0.9120839345102095 0 0 0
366 106 2 -3.0879382819025882 0.5444620629205015 -1.0945982800302125 0 0 0
314 88 4 -0.06267711680280867 1.0931400653849712 -1.2573990281608567 0 0 0
312 88 2 -0.09092183731396408 1.3843254631847441 -1.6628781273407056 0 0 0
389 113 4 -3.704734498205752 2.404031297457026 -1.9669523255180457 0 0 0
659 203 4 -4.932683618178715 2.646706654161446 -1.2283301548457053 1 0 0
703 218 4 -4.703708836706139 2.320617736548506 -1.1761943897344846 1 0 0
702 218 2 -4.357925387981949 2.227333874910783 -1.5250954183176297 1 0 0
329 93 4 -2.9218278999040406 3.4803896547235276 -1.6618091659036187 0 0 0
182 44 4 -0.7019541656953284 3.5916021082109095 -1.6930670140515793 0 -1 0
381 111 2 -2.0066303541680477 3.6311963981347293 -0.19882515090021377 0 0 0
327 93 2 -2.706026852621425 3.670835407815828 -1.2529567192668274 0 0 0
328 93 4 -2.4902258053388096 3.861281160908128 -0.844104272630037 0 0 0
382 111 4 -2.3693062916699263 3.6553173059145427 -0.5421680497120986 0 0 0
289 80 4 -2.0336505001857725 4.856273846621131 -0.5992908578770306 0 -1 0
7 2 3 -3.0908479728426705 4.474054833995726 -0.6373625624409663 0 -1 0
10 2 3 -2.65876385325408 4.629195681416745 -0.04894550706269213 0 -1 0
6 2 1 -2.660942201357946 4.465551056128719 -0.4739345556434543 0 -1 0
8 2 3 -2.5084686145024087 4.027317151818654 -0.4756228755937665 0 -1 0
9 2 3 -2.3918246467407873 4.727951245361113 -0.7460041836569007 0 -1 0
194 48 4 -2.092972870090949 4.78558382131054 -0.9927205680391955 0 -1 0
192 48 2 -1.9957496507000845 4.957227480115858 -1.4521616415220948 0 -1 0
16 4 1 -0.3624755527134214 4.3380093930380115 -1.6558783257935945 0 -1 0
170 40 4 -0.34586340592340714 4.453135831890761 -1.0209875408030986 0 -1 0
290 80 4 -1.150665027263595 4.798139324441432 -0.13350439184432994 0 -1 0
19 4 3 -0.6121958985656795 4.549015502664174 -1.3266122167452976 0 -1 0
20 4 3 -0.5643427041174967 3.948602951248084 -1.7784029203714118 0 -1 0
448 133 4 -0.6367138883097145 0.9651435352909523 -5.291427928887501 0 0 1
410 120 4 -1.8778906141059384 0.28919350336275174 1.2030779375899787 0 0 0
376 109 4 -2.0573265807719268 0.15276505308007263 0.8913585672047971 0 0 0
403 118 4 -0.9318432643035562 1.0709185641883372 1.5946409233499994 0 0 0
409 120 4 -1.293774498096276 1.0707407554825936 1.422149286062137 0 0 0
402 118 2 -0.438350425243955 1.082416263262527 1.5150631581558855 0 0 0
408 120 2 -1.585832556101107 0.6799671294226727 1.3126136118260578 0 0 0
470 140 4 -2.054452435520533 3.1743458828985065 1.73204605622211 0 0 0
407 119 4 -2.080857616922073 3.6027900308072085 1.7320135688903504 0 0 0
419 123 4 -1.8686507527993768 3.387708272975639 1.4569839151687511 0 0 0
417 123 2 -1.7269749149353322 3.43085483449598 0.9794210070673065 0 0 0
343 98 4 -1.3879661379269588 3.3265633403857775 0.16280944042184387 0 0 0
418 123 4 -1.5852990770712876 3.474001396016321 0.5018580989658618 0 0 0
342 98 2 -1.0917134830657247 2.923991748058139 0.1758661451511497 0 0 0
306 86 2 -0.2600036442310482 2.198211736252338 0.28163107344566074 0 0 0
344 98 4 -0.7954608282044906 2.5214201557305005 0.18892284988045555 0 0 0
307 86 4 -0.7284624874347667 2.1434674506135782 0.1156510282177324 0 0 0
86 18 1 -5.209773441903552 5.059159763799418 1.3145457331959958 1 -1 0
89 18 3 -4.8038724307788945 4.99751803649007 1.0983405838081293 1 -1 0
157 36 4 -0.5584650421639629 4.659985890995525 5.337057167089074 0 -1 -1
405 119 2 -2.4444441032113944 3.941205059050781 1.674741100409442 0 0 0
406 119 4 -2.8080305895007163 4.279620087294353 1.6174686319285325 0 0 0
225 59 2 -2.625742796493969 5.095295964630569 1.6799287937420582 0 -1 0
476 142 4 -1.3052855271435062 3.6702850789246333 0.33988564111931907 0 0 0
444 132 2 -0.12504906330519713 4.73135051439924 0.42922491833417314 0 0 0
474 142 2 -1.114529978029518 4.109342857668924 0.1955229471644006 0 0 0
446 132 4 -0.5646891748375205 4.7100444293860395 0.19202748353984864 0 0 0
200 50 4 -0.905374412406015 4.917341764878398 0.17063344994080565 0 -1 0
475 142 4 -0.9237744289155295 4.5484006364132155 0.05116025320948206 0 0 0
198 50 2 -1.007203437857896 5.285680451453251 0.4930578000562358 0 -1 0
383 111 4 -1.6439544166661688 3.607075490354916 0.14451774791167107 0 0 0
784 245 4 -5.365488093973852 1.422824675481519 3.086259231478114 1 0 0
771 241 2 -4.7201377224049175 0.8237670112097392 3.1158686414236625 1 0 0
773 241 4 -4.457226110904303 0.40813547864036376 3.2060235840076943 1 0 0
772 241 4 -4.983049333905531 1.2393985437791148 3.0257136988396316 1 0 0
613 188 4 -4.757500015464532 0.1473492499708202 3.158725817018408 1 0 0
468 140 2 -1.8064463845933454 3.1201433441936297 2.1628071077366307 0 0 0
393 115 2 -1.7113759778173172 2.564647366983172 3.293200152639003 0 0 0
395 115 4 -1.5917399470836295 2.8898619579613527 2.9327522507655974 0 0 0
275 75 4 -1.6596655915736063 3.2795181647513614 2.903541954246918 0 -1 0
469 140 4 -1.5584403336661579 3.065940805488753 2.5935681592511513 0 0 0
33 7 3 -1.2846149576764747 3.1056762779624245 2.8664761283712914 0 -1 0
35 7 3 -0.8517873080868796 2.6975806014674886 2.404937240977392 0 -1 0
31 7 1 -0.8723921360519171 3.0774063562645986 2.655352570095449 0 -1 0
32 7 3 -0.5419729031489772 3.0661276574225393 2.9751899060652036 0 -1 0
394 115 4 -1.8310120085510049 2.239432776004991 3.6536480545124084 0 0 0
34 7 3 -0.806995237562834 3.4489143872722154 2.385158142756878 0 -1 0
88 18 3 -5.139511413602362 5.119456079357566 1.769218804433609 1 -1 0
574 175 4 -5.312337186819883 5.196346654356056 3.116230009296525 1 -1 0
83 17 3 -4.215252914429811 3.874059902714027 3.217972900824999 1 -1 0
623 191 4 -5.259915266603128 4.816669076100768 1.9844419568288953 1 -1 0
622 191 4 -4.628949002040901 4.219351485645489 2.4795109107301494 1 -1 0
85 17 3 -4.400900521637825 4.42802492618974 2.7430437285229066 1 -1 0
621 191 2 -4.944432134322015 4.518010280873129 2.231976433779523 1 -1 0
81 17 1 -4.1531250574288805 4.320995098635138 3.10985694441036 1 -1 0
573 175 2 -4.9313501964390545 5.015772988629003 3.3850088485052763 1 -1 0
82 17 3 -3.7079461444090067 4.391213083210427 3.017741961673293 1 -1 0
84 17 3 -4.276336604285303 4.589187402295214 3.4678957732805977 1 -1 0
575 175 4 -4.5503632060582255 4.83519932290195 3.6537876877140274 1 -1 0
226 59 4 -2.80889946646343 4.6450825638780655 1.7972383331203077 0 -1 0
273 75 2 -1.9408896834207334 3.5971994941758956 3.1681011784294073 0 -1 0
577 176 4 -3.3797183208378607 4.243158306670609 2.864676034235324 1 -1 0
578 176 4 -3.097131808557867 4.375741819167499 1.9146410478837903 1 -1 0
576 176 2 -3.238425064697864 4.309450062919054 2.389658541059557 1 -1 0
263 71 4 -3.3606296766316284 4.319194092516847 3.25910810072255 0 -1 0
261 71 2 -2.951084155378919 4.114685922849801 3.46022715641057 0 -1 0
274 75 4 -2.222113775267861 3.91488082360043 3.4326604026118965 0 -1 0
398 116 4 -1.6952909938197993 1.6764572596112446 5.028018058648088 0 0 0
396 116 2 -1.3008578432099842 1.3874348995001515 5.132366345915667 0 0 0
285 79 2 -2.6507090467855448 5.3886503089639834 5.344701889035978 0 -1 0
397 116 4 -0.9064246926001692 1.0984125393890583 5.236714633183246 0 0 0
279 77 2 -5.2895272314541835 3.2157312466224193 4.25663546254414 0 -1 0
216 56 2 -4.686185490790233 3.569449042085192 5.1432255477108875 0 -1 0
217 56 4 -4.7401121076700585 3.525969202038372 4.648047374219722 0 -1 0