LAMMPS data file via write_data, version 4 Feb 2025, timestep = 10500000, units = lj

6000 atoms
4 atom types
4500 bonds
1 bond types
5250 angles
2 angle types

-12.037717 12.037717 xlo xhi
-12.037717 12.037717 ylo yhi
-12.037717 12.037717 zlo zhi
0 0 0 xy xz yz

Masses

1 1
2 1
3 0.1
4 0.1

Bond Coeffs # harmonic/omp

1 100 0.45

Angle Coeffs # harmonic/omp

1 100 180
2 100 109.471

Atoms # full

2158 432 3 0 -11.4314695928154 -11.423375361430239 -11.83368141676429 15 1 0
2160 432 3 0 -11.159324862927285 -11.347362120956745 -11.200353044434786 15 1 0
2156 432 1 0 -11.069840449806716 -11.371540268336094 -11.610722952266602 15 1 0
2159 432 3 0 -10.780050076192907 -11.723563085890085 -11.683646771651029 15 1 0
4020 840 4 0 -10.42387388549027 -11.932250841062933 -11.7275449535524 4 0 0
3273 655 3 0 -1.6132654943055442 -11.466801053408016 -11.98187111827338 13 1 1
5065 1189 2 0 -0.8842266550859392 -11.78733640534921 -11.713108885671538 16 1 0
5066 1189 4 0 -1.3267571524090709 -11.642706612594244 -11.703290304711912 16 1 0
5067 1189 4 0 -0.4628785156927435 -11.922998281851584 -11.724418443473082 16 1 0
3724 745 3 0 0.3652533912241953 -11.666459832004293 -11.2038704169377 15 1 1
3723 745 3 0 -0.05131873413169963 -11.983317235786268 -11.742969428437531 15 1 1
5835 1445 4 0 1.0405162484307144 -11.268522390345684 -11.767376870401606 13 1 1
338 68 3 0 0.7275294361631452 -11.413785817934539 -11.943612792421403 6 0 0
5833 1445 2 0 1.48421353611535 -11.37390893531434 -11.706079107161731 13 1 1
5834 1445 4 0 1.9450527984946966 -11.493780541471853 -11.644346325191112 13 1 1
2513 503 3 0 2.304453804314994 -11.668238292278732 -11.654539641008792 14 1 0
2511 503 1 0 2.5230337904249787 -12.03134195397749 -11.493862950076515 14 1 0
5143 1215 2 0 3.7875646292565435 -12.025175209522866 -11.88933862281265 12 1 0
26 6 1 0 4.903410141081256 -12.034214326847422 -11.81429556593175 3 0 0
30 6 3 0 5.2023017900279385 -11.697066864637545 -11.74075312766387 3 0 0
1630 326 3 0 11.082610037050063 -11.161865235345916 -11.151791871390783 3 0 1
2157 432 3 0 -10.873874845223531 -10.996800992643186 -11.732425664306051 15 1 0
5853 1451 4 0 -10.518081974319132 -10.921721769136294 -11.94899327479822 14 1 1
94 19 3 0 -9.028826306193587 -10.89516778442464 -11.660682472169418 3 0 0
1939 388 3 0 -1.1270490676843892 -10.274274896130878 -11.27639317435248 5 0 1
339 68 3 0 0.4174722211433757 -10.745837300705496 -11.99036784126652 6 0 0
4629 1043 4 0 0.22541933890288313 -10.419172072308434 -11.834872553997812 2 0 1
1626 326 1 0 11.070388158350433 -10.871028399555714 -11.48535680039994 3 0 1
1627 326 3 0 10.673015762335233 -10.83628229515515 -11.636434703680443 3 0 1
1629 326 3 0 11.209566810578124 -10.475406077667342 -11.345933359046958 3 0 1
1628 326 3 0 11.333720207425838 -11.008955304811169 -11.815179998801707 3 0 1
1937 388 3 0 -0.9339082114510795 -9.552209135760613 -11.339822807848947 5 0 1
1940 388 3 0 -0.477721923966266 -10.071122638610335 -11.579880627550699 5 0 1
1936 388 1 0 -0.7754491456740968 -9.966844581952087 -11.264887648042011 5 0 1
4627 1043 2 0 0.597052861905004 -10.183371265714106 -11.788615719629998 2 0 1
4628 1043 4 0 0.9899333872889216 -9.949709846377745 -11.742264897078721 2 0 1
3700 740 3 0 1.2186159913053576 -10.16158338419405 -11.997406719067573 12 1 1
733 147 3 0 -11.533361719388207 -8.370958162531416 -11.302653314918066 5 0 0
1605 321 3 0 -7.268515550524172 -9.233346137835161 -11.461281659124095 3 0 1
1601 321 1 0 -7.111904396854551 -8.791833521069842 -11.405978553677047 3 0 1
1602 321 3 0 -7.141663947473701 -8.56284574991345 -11.793000986880951 3 0 1
1603 321 3 0 -6.692260628262574 -8.804492598038822 -11.261758260253929 3 0 1
3944 815 4 0 -6.275130944329247 -8.738062731937182 -11.347524082514733 3 0 0
2296 460 1 0 1.2478423357339032 -8.806170794678575 -11.939839229533922 12 1 0
2300 460 3 0 1.251752346731278 -9.234042773721038 -11.836555631944771 12 1 0
2298 460 3 0 1.1123434766539955 -8.557686461138683 -11.607773226420827 12 1 0
5204 1235 4 0 4.737149330937658 -8.835460800868017 -11.994861454379409 13 1 0
1552 311 3 0 4.561314465186069 -8.580021464870793 -11.734301382955572 3 0 1
3295 659 3 0 10.850086348662792 -8.799754602691744 -11.399174672993 12 1 1
5741 1414 4 0 11.140056587883766 -8.952188505313698 -11.59868959682391 13 1 1
5740 1414 2 0 11.502193215637039 -9.062098015950154 -11.891012192484345 13 1 1
732 147 3 0 -11.169061806974486 -7.726504786916995 -11.21652133138223 5 0 0
734 147 3 0 -10.937188303300996 -8.260397863104956 -11.691529924146536 5 0 0
731 147 1 0 -11.133725914564344 -8.189817101802786 -11.301596385631814 5 0 0
5587 1363 2 0 -8.550917262781315 -7.92281215488846 -11.975480959921603 13 1 1
5589 1363 4 0 -8.128865737618513 -7.731823332721618 -11.82999350254827 13 1 1
2315 463 3 0 -7.736194991208303 -7.618415443438218 -11.833059927454537 13 1 0
5754 1418 4 0 -6.847011022516721 -7.414323930791093 -11.250317848278092 14 1 1
5752 1418 2 0 -6.405158442829352 -7.419296599042124 -11.26782471963585 14 1 1
5753 1418 4 0 -5.952605444469391 -7.434755198708043 -11.27952208835188 14 1 1
2124 425 3 0 -5.555383332375644 -7.511042302614482 -11.313843779722413 13 1 0
3776 759 4 0 -1.5830974320971283 -8.16311983688439 -12.009557508549324 4 0 0
3775 759 2 0 -1.2699094611196902 -8.145950783968534 -11.690736997407154 4 0 0
3777 759 4 0 -0.948338116132792 -8.126954438824352 -11.370608947434574 4 0 0
1015 203 3 0 2.9700065310444934 -7.805947280053471 -11.945353038439947 4 0 0
3761 754 4 0 2.666106106595226 -8.028980693655772 -12.026565252861758 4 0 0
1554 311 3 0 4.418374623719291 -8.087457974270558 -11.200244602933678 3 0 1
1551 311 1 0 4.665500343464078 -8.162221747616659 -11.5448657258571 3 0 1
1553 311 3 0 4.585380489650582 -7.840542623004985 -11.843070360385417 3 0 1
1555 311 3 0 5.083111690409542 -8.156968574530913 -11.430628957225352 3 0 1
448 90 3 0 9.774708555944901 -7.722746010738387 -11.80298399656093 5 0 0
447 90 3 0 10.305327751632802 -7.518547761789481 -11.306006201079851 5 0 0
1110 222 3 0 -9.590605561861029 -6.840032127638502 -11.931564299349734 3 0 1
2313 463 3 0 -7.619375028784919 -6.8940126710334155 -11.927274939269948 13 1 0
2312 463 3 0 -7.152236565758486 -7.30846177427435 -11.490252345054836 13 1 0
2311 463 1 0 -7.4223970423850405 -7.315127776548204 -11.878186412934928 13 1 0
445 89 3 0 -2.530988443187063 -6.876406024142606 -11.207028916972574 4 0 0
3970 824 2 0 -1.7576658104411536 -6.500783946325311 -11.246237596667754 4 0 0
3971 824 4 0 -2.192018815442962 -6.623638807556343 -11.164496216939298 4 0 0
4078 860 2 0 2.0348702654100794 -6.989586488988512 -11.346378112277563 4 0 0
4079 860 4 0 2.378888405638948 -6.906989656490571 -11.617522118500522 4 0 0
1013 203 3 0 2.5617910818126965 -7.232137690562095 -11.731043615431581 4 0 0
1011 203 1 0 2.9700596489787614 -7.361031183731468 -11.862784324735268 4 0 0
1012 203 3 0 3.2796954658184223 -7.272056790618443 -11.534629609777811 4 0 0
4005 835 4 0 3.610311510253636 -7.240875749787218 -11.326818880286389 4 0 0
4003 835 2 0 4.056500806129993 -7.164516292050386 -11.427691981775105 4 0 0
4004 835 4 0 4.476816940333379 -7.087261790417303 -11.524909897732813 4 0 0
520 104 3 0 4.843376024778564 -6.98624826190097 -11.390161156765576 4 0 0
516 104 1 0 5.105977674875941 -6.832932265494231 -11.711899560364158 4 0 0
517 104 3 0 5.531115176812602 -6.858806790192195 -11.579912243439768 4 0 0
4049 850 4 0 5.730085416315106 -6.566108687149147 -11.398195209463887 4 0 0
4048 850 2 0 6.195584775301235 -6.526525475847222 -11.34792390176485 4 0 0
4050 850 4 0 6.6344967815518565 -6.497484918476327 -11.304648437492377 4 0 0
4697 1066 4 0 9.906730709232615 -6.773220222197112 -11.99641118241336 4 0 1
446 90 1 0 9.979111909991065 -7.355883003723595 -11.586560973136804 5 0 0
449 90 3 0 9.662998631135 -7.105329602486445 -11.352841422519202 5 0 0
450 90 3 0 10.163185054284565 -7.104651087381092 -11.88727763590645 5 0 0
1107 222 3 0 -9.516649874657041 -6.086160684326162 -11.891924864236653 3 0 1
3972 824 4 0 -1.3213841079804052 -6.382137439731039 -11.325860920164379 4 0 0
3816 772 4 0 -1.1217925912625208 -6.295978264258743 -11.69091228274533 4 0 0
162 33 3 0 -1.0222080049920486 -6.11329008901612 -11.353145626603972 4 0 0
161 33 1 0 -0.7008204817299415 -5.916200005166007 -11.158060871568622 4 0 0
165 33 3 0 -0.3032744706142694 -6.161454679739141 -11.232129425142222 4 0 0
5915 1472 4 0 -0.029412316035571706 -6.427626099510853 -11.361536577283008 14 1 1
518 104 3 0 4.99678928272365 -6.405815679011931 -11.790400007847651 4 0 0
804 161 3 0 6.986691556853216 -6.3412644145415245 -11.194324765471496 6 0 0
163 33 3 0 -0.6578708125742221 -5.489420607468131 -11.332412071214373 4 0 0
2002 401 3 0 3.1514677331064824 -3.715050831423291 -11.982955098778708 7 0 0
4274 925 4 0 1.2115204669472863 -3.1718935206285543 -11.595676388953141 6 0 0
545 109 3 0 1.217603374123902 -3.1537981246433713 -11.998012072346663 6 0 0
4273 925 2 0 1.3666845794566367 -3.0432326855778697 -11.216727389777564 6 0 0
3801 767 4 0 2.7518726203701185 -3.063276526459111 -11.626132869309178 7 0 0
2003 401 3 0 3.130985940220434 -3.0047105662233378 -11.723221041988808 7 0 0
2004 401 3 0 3.7447603361258466 -3.279906097554166 -12.005526449112718 7 0 0
2001 401 1 0 3.315407916573349 -3.282240648890136 -12.036444180116153 7 0 0
1677 336 3 0 0.37681144636811226 -1.9517880992490877 -11.737966539249157 8 0 1
3799 767 2 0 2.58982911570328 -2.691553564447293 -11.389637204505455 7 0 0
3800 767 4 0 2.4494757602056634 -2.3059691311991415 -11.1571604382198 7 0 0
1550 310 3 0 7.396740844258762 -2.3904399914079217 -11.922627406452415 8 0 1
589 118 3 0 -10.659827129048297 -1.808142782170421 -11.763305050046466 9 0 0
587 118 3 0 -11.023046783972617 -1.1748988508157083 -11.861794714942684 9 0 0
2336 468 1 0 7.107071544875588 -0.9933503384988125 -11.867196183637196 8 0 0
2340 468 3 0 7.04240012471066 -1.4280220917483764 -11.816302053110208 8 0 0
279 56 3 0 -6.263907317955356 -0.8381588856659175 -11.959974529317922 8 0 0
265 53 3 0 -3.507670990584357 -0.280057100345962 -11.986579998887686 10 0 0
263 53 3 0 -2.875324228136602 -0.6596496246209256 -11.8513828445536 10 0 0
2238 448 3 0 2.641358546709867 -0.5560810822741669 -11.883038511684912 8 0 0
4551 1017 4 0 3.313263975531866 -0.8100124616317856 -11.9144546906773 8 0 1
4549 1017 2 0 3.7333057581258853 -0.7375077183677234 -11.761379091320952 8 0 1
4550 1017 4 0 4.164344530000122 -0.6527637152789083 -11.601830117739105 8 0 1
595 119 3 0 4.556421244158749 -0.5289040852365439 -11.664681612693842 11 0 0
591 119 1 0 4.779829301150112 -0.1856450129816576 -11.872985084025492 11 0 0
4761 1087 4 0 5.437055418404224 -0.5626068162677385 -11.773288181508216 8 0 1
593 119 3 0 5.192845829115402 -0.3080483817884261 -11.94718808671317 11 0 0
4759 1087 2 0 5.873106501576931 -0.6545709334573147 -11.835439837967538 8 0 1
4760 1087 4 0 6.326061595403949 -0.7451506005639317 -11.907968654001516 8 0 1
2338 468 3 0 7.406614799110542 -0.8563462262342334 -11.561558851073686 8 0 0
2339 468 3 0 6.71575613230355 -0.7648045114438631 -11.80159238036689 8 0 0
2515 503 3 0 2.5952792129891 -11.980875712614832 -11.066245142251946 14 1 0
2396 480 1 0 6.318526206053562 -11.607872991943339 -10.267231177116644 14 1 0
2397 480 3 0 6.15436813851613 -11.376678971057633 -10.606101439731217 14 1 0
2399 480 3 0 6.744399806482917 -11.676599425891913 -10.349992250865318 14 1 0
4526 1009 4 0 7.020751598030188 -11.425620815300523 -10.476216441947368 2 0 1
4525 1009 2 0 7.402623848042115 -11.238561625524522 -10.334682680590488 2 0 1
4533 1011 4 0 11.347430993939952 -10.257015527800856 -11.043618851985997 3 0 1
5180 1227 4 0 -2.8103895948009647 -9.692671325144955 -10.426813349477055 12 1 0
3310 662 3 0 -2.8745479883859435 -9.308005487343967 -10.549110543465334 12 1 1
3308 662 3 0 -2.4450041283651487 -9.574391399432134 -11.08691612402459 12 1 1
3306 662 1 0 -2.449543515417318 -9.325890641972787 -10.738291659729954 12 1 1
3309 662 3 0 -2.1315767399638084 -9.509895616360273 -10.420845965726144 12 1 1
1938 388 3 0 -0.5601637958860355 -9.977024502949945 -10.848147236630217 5 0 1
5135 1212 4 0 -0.5250269039320496 -9.636497318143007 -10.62774003914664 14 1 0
4531 1011 2 0 11.073239049237692 -9.899089926244324 -10.969421663393646 3 0 1
4532 1011 4 0 10.808635581111876 -9.555327125166285 -10.892206691721551 3 0 1
735 147 3 0 -10.903314396235603 -8.374078320239537 -10.976064749580091 5 0 0
1604 321 3 0 -7.36139212738615 -8.586711259590842 -11.093967722380325 3 0 1
3943 815 2 0 -5.930244190479681 -8.584499741875849 -11.100792220806786 3 0 0
3945 815 4 0 -5.575516385683157 -8.4191448806194 -10.845770204533958 3 0 0
3307 662 3 0 -2.3295345869027066 -8.903389509212 -10.851379868619082 12 1 1
372 75 3 0 6.957120231387137 -8.622118768366969 -10.776646520892468 3 0 0
374 75 3 0 7.082674267774323 -9.166690791111215 -10.300262826679562 3 0 0
371 75 1 0 6.987929117268795 -8.738344562787946 -10.331875370020535 3 0 0
3294 659 3 0 11.02550169503112 -9.213436625982323 -10.788663738402775 12 1 1
3292 659 3 0 10.425964099695573 -8.751590966095412 -10.77982444392262 12 1 1
3291 659 1 0 10.854706694047628 -8.800200520038262 -10.943662786211913 12 1 1
3293 659 3 0 11.120433127035348 -8.465497074621867 -10.792151729792305 12 1 1
4623 1041 4 0 11.508540933479892 -8.545169035847799 -10.764134976487556 3 0 1
4621 1041 2 0 11.93612392574331 -8.405429317254516 -10.854042415470222 3 0 1
4622 1041 4 0 -11.737823200596415 -8.25458738361866 -10.946572180878265 4 0 1
2122 425 3 0 -5.448156030467832 -8.037382289889027 -10.791600150720829 13 1 0
2121 425 1 0 -5.311438425500628 -7.628041880227264 -10.943486600478952 13 1 0
2123 425 3 0 -4.844170431719253 -7.650059284541064 -11.066082477380577 13 1 0
4781 1094 4 0 -4.442204341967695 -7.547678951720287 -11.048095480417873 4 0 1
4780 1094 2 0 -4.007445460496136 -7.436514995912834 -11.010153180902181 4 0 1
4662 1054 4 0 -2.368334449739807 -7.7018500700796375 -10.523615667334527 4 0 1
4660 1054 2 0 -1.9178993258130372 -7.7245954761942475 -10.390885980530948 4 0 1
4661 1054 4 0 -1.5084985348462272 -7.747091194138515 -10.26837203942106 4 0 1
63 13 3 0 -1.1160836621619605 -7.727799138466977 -10.383802350321417 4 0 0
65 13 3 0 -0.8418785584674318 -8.05189226499982 -10.968362636970241 4 0 0
61 13 1 0 -0.7920052397089528 -7.7220304937334605 -10.657196014583063 4 0 0
62 13 3 0 -0.4094956743478466 -7.796476708618524 -10.438190994457134 4 0 0
5117 1206 4 0 -0.047276316837903565 -7.677340376061106 -10.282748968057616 14 1 0
451 91 1 0 2.686755196120279 -7.6366384340295435 -10.326108244938426 2 0 0
455 91 3 0 3.1027372317452393 -7.732680528462761 -10.470098417202292 2 0 0
453 91 3 0 2.452255540467032 -7.413116754404968 -10.661770498016862 2 0 0
4565 1022 4 0 5.134973677377932 -7.9120940664875725 -11.116380138448102 4 0 1
4564 1022 2 0 5.412452172991973 -7.612051637816411 -10.933038857323725 4 0 1
2125 425 3 0 -5.371671204862765 -7.3251446293597 -10.61286648443015 13 1 0
4782 1094 4 0 -3.584536410346871 -7.3260504527632815 -10.984319910662371 4 0 1
444 89 3 0 -3.2224164234978385 -7.107699295051962 -10.974919853741572 4 0 0
443 89 3 0 -2.5860808957170196 -7.396373899235253 -10.663278189647526 4 0 0
441 89 1 0 -2.7809138788539283 -7.018609880240606 -10.841085924417477 4 0 0
442 89 3 0 -2.783183192180333 -6.715327775051971 -10.548855342700806 4 0 0
64 13 3 0 -0.7786135032828554 -7.322744049416231 -10.857685206906739 4 0 0
746 150 1 0 1.3103385439364033 -6.741877059048945 -10.380375975741126 4 0 1
5916 1472 4 0 0.7218606251017512 -6.512579294512313 -10.849328149604128 14 1 1
747 150 3 0 1.5599598603723024 -7.014704697199649 -10.69868847813541 4 0 1
4080 860 4 0 1.6854539499650976 -7.06349760374138 -11.076914934356568 4 0 0
4566 1022 4 0 5.701258090983263 -7.295690112342132 -10.752347643250488 4 0 1
944 189 3 0 6.048308555952719 -7.2500225246987355 -10.546401296533242 5 0 0
801 161 1 0 7.271546776500411 -6.55819855963559 -10.92093777974715 6 0 0
802 161 3 0 7.126377761425591 -6.994635601665996 -10.85822864777781 6 0 0
803 161 3 0 7.6780646538748485 -6.564617248165468 -11.108210683104154 6 0 0
164 33 3 0 -0.7925227266176567 -5.897831330682156 -10.714289065043793 4 0 0
5914 1472 2 0 0.36431622367306105 -6.471016059221465 -11.091197580796079 14 1 1
749 150 3 0 1.0074311993057865 -6.480439552652113 -10.600512929201168 4 0 1
3813 771 4 0 6.113047570220651 -6.1905692894719015 -10.288690649120802 5 0 0
805 161 3 0 7.284472659362322 -6.342399378302862 -10.49730665775222 6 0 0
4275 925 4 0 1.5331313788269956 -2.898919110223936 -10.8147712375286 6 0 0
2544 509 3 0 1.5201609685428927 -2.548871771441613 -10.61620865444027 6 0 0
2545 509 3 0 1.624724164939236 -1.9118473512795475 -10.94820433336409 6 0 0
2541 509 1 0 1.8119731105244625 -2.210125173771548 -10.678362488923565 6 0 0
2543 509 3 0 2.1769379767988024 -2.3631952538068735 -10.868419152507851 6 0 0
2542 509 3 0 1.9070736531723913 -2.0178863114203587 -10.280070397166373 6 0 0
527 106 3 0 -11.136687413200708 -1.5367756704172084 -10.689212483501326 7 0 0
526 106 1 0 -10.79074424128779 -1.261214026610654 -10.637750916278643 7 0 0
530 106 3 0 -10.483563830114889 -1.3384609764369433 -10.9505219376022 7 0 0
415 83 3 0 5.349835584207984 -1.8236748789808175 -10.311516735261126 10 0 0
528 106 3 0 -10.943203537990643 -0.8302713669953459 -10.665106072724207 7 0 0
2398 480 3 0 6.099738000314748 -11.997371651994504 -10.247915982982917 14 1 0
2400 480 3 0 6.272063455764172 -11.373420710343858 -9.889041225149775 14 1 0
4527 1009 4 0 7.778973474027971 -11.052137255586754 -10.185488109928079 2 0 1
2422 485 3 0 8.013918356497193 -10.830073645945259 -9.94136813563351 12 1 0
2421 485 1 0 8.328448751282256 -10.531493206152879 -9.832196080946558 12 1 0
2425 485 3 0 8.635100930679595 -10.557435876205442 -10.094712184366127 12 1 0
2424 485 3 0 8.474999760486902 -10.631048952164416 -9.386177934075503 12 1 0
3382 677 3 0 -3.734544157563521 -9.97203233682214 -9.722251478542002 15 1 1
5181 1227 4 0 -3.359672098528792 -10.14299384927367 -9.803704897636852 12 1 0
5179 1227 2 0 -3.0907256682224666 -9.919645555731641 -10.109963442183453 12 1 0
5771 1424 4 0 -1.780320673632339 -9.514099039213674 -10.205070058357546 13 1 1
5770 1424 2 0 -1.6135907535775686 -9.406261059376913 -9.80738763191684 13 1 1
5772 1424 4 0 -1.4327853157886512 -9.298330885922423 -9.392704708090726 13 1 1
5134 1212 2 0 -0.4825996322685455 -9.562705940470655 -10.187080466896235 14 1 0
389 78 3 0 -0.6483227462421244 -9.705042996685982 -9.474525458551998 2 0 0
5136 1212 4 0 -0.4453298857826056 -9.491378423663312 -9.752144407362104 14 1 0
4743 1081 4 0 7.377593610870186 -9.41362932759845 -10.197098392438964 3 0 1
2423 485 3 0 8.134497789521394 -10.113760717592061 -9.840760600766746 12 1 0
4741 1081 2 0 7.748717055330033 -9.683460349040253 -10.194068140863966 3 0 1
4742 1081 4 0 8.099896370993026 -9.935527513723432 -10.2049058079301 3 0 1
4579 1027 2 0 9.506628946414406 -9.354822610614251 -9.654127606600118 2 0 1
4581 1027 4 0 9.806843696546583 -9.562700017641127 -9.366387727560745 2 0 1
4522 1008 2 0 2.0946678867589945 -8.341917692895393 -9.58903289418448 2 0 1
4529 1010 4 0 6.620267824539191 -8.919644127553493 -9.834934237553359 2 0 1
373 75 3 0 6.584054476766788 -8.651173318273596 -10.113735391312588 3 0 0
4528 1010 2 0 6.321274936952758 -8.914412153974583 -9.484832030584966 2 0 1
375 75 3 0 7.309447054854271 -8.504754493536103 -10.149084280682418 3 0 0
1427 286 3 0 8.338684593221746 -8.592192829694365 -9.580369900517349 3 0 1
4580 1027 4 0 9.21481006478551 -9.14251342524939 -9.941164299542317 2 0 1
1426 286 1 0 8.732791078353301 -8.555467456960432 -9.715036109042561 3 0 1
1429 286 3 0 8.902962612461419 -8.977022497069498 -9.815472435219956 3 0 1
1428 286 3 0 8.994772760025523 -8.366000380023921 -9.368910942427044 3 0 1
484 97 3 0 10.584105007748533 -9.252263095366395 -9.548298729800404 2 0 0
5116 1206 2 0 0.3372150373818368 -7.466101459936441 -10.161169118422764 14 1 0
4523 1008 4 0 2.1221156742408738 -8.222391164892477 -10.054231446412425 2 0 1
452 91 3 0 2.46387749395228 -8.044892783284709 -10.206889710992588 2 0 0
3786 762 4 0 2.8959648074150177 -7.431058923927283 -9.592508786860387 5 0 0
5676 1392 4 0 7.437469711540089 -8.222710574464283 -9.898913240475725 12 1 1
5674 1392 2 0 7.7551234378407905 -7.972876170435656 -9.656361581419745 12 1 1
5675 1392 4 0 8.049928671047034 -7.751569224633766 -9.448057195967385 12 1 1
1430 286 3 0 8.74272778879386 -8.278866988210343 -10.091700996275321 3 0 1
5118 1206 4 0 0.721228511110823 -7.267787193354851 -10.045819805197901 14 1 0
750 150 3 0 1.0747901899662917 -7.037403326772171 -10.068180278010118 4 0 1
454 91 3 0 2.7116588091777345 -7.359686451008732 -9.949123402884597 2 0 0
943 189 3 0 5.574215649405435 -7.013243031302499 -10.083398051528597 5 0 0
941 189 1 0 5.9972631441425115 -7.021138938090209 -10.176259246494226 5 0 0
945 189 3 0 6.23123540749171 -7.21789189366871 -9.830622658132425 5 0 0
942 189 3 0 6.141004444307704 -6.580305636734397 -10.242445159012098 5 0 0
423 85 3 0 8.076735269942667 -7.342466692892122 -9.403646176415489 5 0 0
38 8 3 0 11.301524366525907 -6.646224116476149 -9.656401728158302 3 0 0
748 150 3 0 1.5990793223648563 -6.467120240906438 -10.152083686939863 4 0 1
4772 1091 4 0 1.910176663608647 -6.305602943331605 -9.925801566827936 3 0 1
4771 1091 2 0 2.3174805309891404 -6.1240293813494295 -9.900880405181478 3 0 1
4773 1091 4 0 2.737876684699181 -5.931673023880553 -9.879928182504905 3 0 1
99 20 3 0 3.038592543454566 -5.788021820156668 -9.604329956946424 4 0 0
96 20 1 0 3.5197120579502617 -5.806962308807028 -9.730502460468431 4 0 0
98 20 3 0 3.6165196099796884 -6.21702654181293 -9.860738775603986 4 0 0
97 20 3 0 3.7742190015045907 -5.690248898253664 -9.375035500266376 4 0 0
3811 771 2 0 6.511890514723305 -6.0488487904291155 -10.121176914128979 5 0 0
3812 771 4 0 6.899951220733065 -5.890599160998988 -9.961177951218453 5 0 0
352 71 3 0 6.99140359739204 -5.730746405693773 -9.61435326790281 5 0 0
37 8 3 0 10.860947840126794 -6.0351917314034855 -9.766526560624238 3 0 0
36 8 1 0 11.291195671970936 -6.167330708172563 -9.666657967020358 3 0 0
39 8 3 0 11.570765015098196 -6.020775381140837 -9.97840094644521 3 0 0
100 20 3 0 3.585928180969688 -5.530429398254924 -10.069739526296594 4 0 0
1459 292 3 0 0.9698471821474755 -4.3374636884594535 -9.75258101411097 7 0 1
1456 292 1 0 1.2862216286828154 -4.102841557564028 -9.568980808545808 7 0 1
1458 292 3 0 1.6384406614441644 -4.07955107086418 -9.842650713019728 7 0 1
1460 292 3 0 1.1362765589011676 -3.698921358819092 -9.489133630703902 7 0 1
413 83 3 0 5.4924313318858005 -1.8823292051882046 -9.563035802957407 10 0 0
412 83 3 0 6.055072817963943 -1.9536254512962756 -10.045659051021303 10 0 0
529 106 3 0 -10.597656613790795 -1.3281447189507212 -10.214040208554982 7 0 0
411 83 1 0 5.664310994330982 -1.7343523643564893 -9.964287272855156 10 0 0
414 83 3 0 5.750824506481518 -1.2931405471961224 -9.931496209610652 10 0 0
4367 956 4 0 5.8600175227989375 -0.9835729211455106 -10.182651018818902 10 0 0
4366 956 2 0 6.034576388421236 -0.5720287554744363 -10.143869987415782 10 0 0
4368 956 4 0 6.22313335316176 -0.15290128429142236 -10.099431125535219 10 0 0
1998 400 3 0 -7.817706933202864 -11.206063785246265 -9.132458311565552 18 1 0
2760 552 3 0 2.3000067323544595 -11.271824204473582 -8.98809621415765 15 1 0
1997 400 3 0 -8.138420342919705 -10.622282303903853 -8.770711478938763 18 1 0
1996 400 1 0 -7.744878284306714 -10.879093710759324 -8.824447203284251 18 1 0
1999 400 3 0 -7.4236643916964375 -10.622533914308889 -8.959917270999783 18 1 0
3385 677 3 0 -4.146311317988336 -10.401139568551566 -9.28430843707477 15 1 1
4434 978 4 0 1.737256564383161 -10.280850014774826 -9.025766238990315 3 0 1
2759 552 3 0 2.0618442755804143 -10.529022489753679 -8.982757232252116 15 1 0
2756 552 1 0 2.4186176789411427 -10.815750816633255 -8.873583423016367 15 1 0
2757 552 3 0 2.7837694051386546 -10.698784371405846 -9.096959911621045 15 1 0
3384 677 3 0 -4.076517266491991 -9.659212111738912 -9.155776862234259 15 1 1
3381 677 1 0 -3.859943295269055 -10.033829339777727 -9.310153331223015 15 1 1
3383 677 3 0 -3.4816066516971613 -10.130061085194555 -9.045639515282835 15 1 1
2107 422 3 0 -2.9103247528521923 -9.635163737470421 -8.892154840725219 13 1 0
2106 422 1 0 -2.960372609264166 -9.36351091497175 -8.540376215774337 13 1 0
4904 1135 4 0 -1.5390712740643817 -9.313028559207787 -9.027839732462315 14 1 0
387 78 3 0 -1.119056823229501 -9.27783127562501 -9.093314635586587 2 0 0
388 78 3 0 -0.658224359056188 -9.747882715938081 -8.744784880195116 2 0 0
386 78 1 0 -0.695652082288893 -9.473714564390145 -9.101312794664997 2 0 0
4083 861 4 0 0.000796091175038427 -9.27586540130574 -8.954244878116596 2 0 0
4432 978 2 0 1.7081859233859085 -9.871546802570482 -8.814493845238646 3 0 1
4433 978 4 0 1.6872819173828013 -9.46117321742227 -8.588048179049071 3 0 1
602 121 3 0 5.604442505342927 -9.68121168692093 -8.502119227368699 2 0 0
601 121 1 0 5.777222574062915 -9.290607292034993 -8.537166709746895 2 0 0
485 97 3 0 10.115112544840425 -9.797868329148773 -9.286967146132419 2 0 0
481 97 1 0 10.517709431192781 -9.57943560442691 -9.200355203304616 2 0 0
482 97 3 0 10.863261076089316 -9.88077593845682 -9.201381646737296 2 0 0
483 97 3 0 10.495508628108098 -9.358969209718406 -8.792996757596645 2 0 0
5160 1220 4 0 -4.346532519325039 -8.841541606255467 -8.532202587106912 14 1 0
5158 1220 2 0 -3.9308681642039147 -8.854271302509455 -8.717285804296198 14 1 0
5159 1220 4 0 -3.5126820572835857 -8.877968166874295 -8.901632670545117 14 1 0
2109 422 3 0 -3.2551887393565835 -9.032035828957536 -8.644448527565876 13 1 0
4903 1135 2 0 -1.8426660402878117 -9.205590358707072 -8.738494420565814 14 1 0
390 78 3 0 -0.34911768314041147 -9.127850981752633 -9.08933817671531 2 0 0
4081 861 2 0 0.4347050944806945 -9.068917840936129 -8.980653651976679 2 0 0
983 197 3 0 0.2507342016726639 -8.52514383575844 -8.493121294244155 4 0 0
4082 861 4 0 0.8408993654624854 -8.861700054294886 -9.017976255120866 2 0 0
663 133 3 0 1.2275832935204036 -8.872693263572993 -8.886378699289907 2 0 0
661 133 1 0 1.5555095207711176 -8.780271749178985 -8.589014673010706 2 0 0
662 133 3 0 1.9389098481778824 -8.648959324412893 -8.81770352671544 2 0 0
4524 1008 4 0 2.081798053820707 -8.463802816389139 -9.135149588438393 2 0 1
3936 812 4 0 2.324058418156053 -8.512715400024907 -8.794057859574515 3 0 0
3934 812 2 0 2.746347217553419 -8.40742455658598 -8.639404806666386 3 0 0
603 121 3 0 5.859709875927148 -9.189290759259382 -8.960137364773624 2 0 0
4530 1010 4 0 6.039303812091177 -8.902635685498515 -9.157097626606571 2 0 1
984 197 3 0 -0.29514997322558756 -8.18483415009482 -8.905296981092452 4 0 0
985 197 3 0 0.17053559489718495 -7.761676360878387 -8.474683245609233 4 0 0
981 197 1 0 -0.05669883985851598 -8.17473495919757 -8.5111692013392 4 0 0
4037 846 4 0 0.5801578100614648 -7.74031322768255 -8.53676431404793 4 0 0
3935 812 4 0 3.146071956364228 -8.309586732901913 -8.497220805285895 3 0 0
4779 1093 4 0 11.800969579378204 -7.486812852479653 -8.801745371893801 3 0 1
557 112 3 0 11.981071220057935 -7.759359960259705 -8.567658821376227 3 0 0
44 9 3 0 -0.8141273690542103 -6.77524589727314 -8.789776198302391 4 0 0
5031 1177 4 0 -0.9767832977740394 -7.062087074776853 -8.556571938522314 14 1 0
325 65 3 0 2.2289790262265274 -7.204126920399623 -8.715963575521174 5 0 0
3785 762 4 0 2.6342212744934344 -7.159750214161631 -8.7487733282881 5 0 0
3784 762 2 0 2.7686898466044223 -7.293126370435377 -9.156592451968175 5 0 0
424 85 3 0 8.35941473184323 -6.671919706451109 -9.304096161814766 5 0 0
422 85 3 0 7.926880380688832 -6.939424402165588 -8.776298384853872 5 0 0
421 85 1 0 8.246604038008279 -7.041467499723642 -9.090079601874777 5 0 0
425 85 3 0 8.62378621793961 -7.219520547612256 -8.860938363294636 5 0 0
497 100 3 0 10.642082226775134 -6.743809797241488 -8.692450220499012 4 0 0
4777 1093 2 0 11.563985048399239 -7.193576911968187 -9.07482806128451 3 0 1
4778 1093 4 0 11.32901457034821 -6.902727562993262 -9.341273567430337 3 0 1
43 9 3 0 -0.8592078396655918 -6.143830994519359 -9.196301166742337 4 0 0
41 9 1 0 -0.871948561052287 -6.307544713153504 -8.773056418269872 4 0 0
45 9 3 0 -1.237299369234174 -6.216681822750014 -8.5966194680019 4 0 0
42 9 3 0 -0.557679727425402 -6.129011168815467 -8.544491011280565 4 0 0
4755 1085 4 0 4.076703557193429 -5.675930227793233 -9.097209407685307 4 0 1
4753 1085 2 0 4.4686939673113315 -5.6296314956888 -8.905459446244214 4 0 1
4754 1085 4 0 4.873138721119847 -5.581654809711848 -8.695996338391092 4 0 1
3827 776 4 0 6.697137236388787 -5.967555010902639 -8.754404312640528 5 0 0
355 71 3 0 7.052125833040954 -5.822861172109718 -8.891375850879383 5 0 0
496 100 1 0 10.587280782754469 -6.305290629767106 -8.536436690284852 4 0 0
499 100 3 0 10.691675914312729 -6.000451463855986 -8.891743939135077 4 0 0
40 8 3 0 11.403630408561284 -6.013006006116985 -9.280595005565804 3 0 0
834 167 3 0 5.179661870065566 -5.389478214282653 -8.500192610693897 5 0 0
4065 855 4 0 6.658899575003662 -5.254723416595411 -8.800330682395478 5 0 0
353 71 3 0 7.488947828663729 -5.37085294474445 -9.233795039938984 5 0 0
351 71 1 0 7.085279825127994 -5.5262372510694036 -9.223621062193647 5 0 0
354 71 3 0 6.789369849672472 -5.1849286496020905 -9.170736619325497 5 0 0
1457 292 3 0 1.4006257170127476 -4.288180976248016 -9.190416286988858 7 0 1
2459 492 3 0 2.7474827524342658 -2.9298686847243154 -8.735667580255024 7 0 0
2444 489 3 0 -2.7718478330401872 -2.015998294266499 -9.073543377163762 9 0 0
2460 492 3 0 2.1829252491567797 -2.521543236959335 -8.50778589000277 7 0 0
4058 853 4 0 4.9500413601977975 -1.9288017680140292 -8.588830664467002 9 0 0
255 51 3 0 -7.262707542537326 -1.0105352932859581 -8.589283422593565 10 0 0
2443 489 3 0 -3.328199284547461 -1.6915044340114687 -8.730650322227152 9 0 0
2441 489 1 0 -2.919532964973362 -1.6408406301057106 -8.884455368403668 9 0 0
2442 489 3 0 -2.9174811179406266 -1.321279962633568 -9.18973854079769 9 0 0
2445 489 3 0 -2.6606249990017368 -1.532215456301147 -8.574202309958945 9 0 0