LAMMPS data file via write_data, version 4 Feb 2025, timestep = 8500000, units = lj

3100 atoms
4 atom types
2100 bonds
1 bond types
1250 angles
2 angle types

-10.410592 10.410592 xlo xhi
-10.410592 10.410592 ylo yhi
-10.410592 10.410592 zlo zhi

Masses

1 1
2 1
3 0.1
4 0.1

Bond Coeffs # harmonic/omp

1 100 0.45

Angle Coeffs # harmonic/omp

1 100 180
2 100 109.471

Atoms # full

627 176 4 0 -9.554798431853884 -10.034103368930442 -9.329520306597127 0 0 1
953 285 2 0 -9.56227245966931 -9.228453641090347 -9.282291075652857 0 1 0
954 285 4 0 -9.504388615600563 -9.6575223788939 -9.42170203145426 0 1 0
626 176 2 0 -9.798326446444001 -10.363616000141498 -9.474800245050334 0 0 1
370 90 4 0 -6.454525130387994 -10.143374037591801 -10.172486981023612 0 0 1
368 90 2 0 -6.052637464251181 -9.976910638490015 -10.061830556923093 0 0 1
369 90 4 0 -5.654676506615407 -9.80549426624862 -9.954904056019833 0 0 1
289 63 4 0 -5.3589366862521315 -9.52911475877459 -9.888698285426205 0 0 1
287 63 2 0 -5.029553989433064 -9.222521690869979 -9.801830602036711 0 0 1
916 272 4 0 -4.348756710311937 -9.834689554010755 -9.259284792834995 0 0 1
1588 496 4 0 -4.368612286921548 -9.928721883585004 -9.653475296039144 0 1 1
1586 496 2 0 -4.2309696950881985 -10.38305146158831 -9.750840121876012 0 1 1
840 247 4 0 -10.334138882535333 -2.078241638957721 -5.983108463569837 0 0 1
340 80 4 0 -0.3973949664385073 -10.10386623112399 -10.132041338212275 0 1 1
2980 960 4 0 -10.26475730232038 -5.7342337248964395 -4.412452128777643 2 1 1
338 80 2 0 -0.684936545730898 -10.252831932493091 -9.830394642462117 0 1 1
931 277 4 0 -0.009813587267693451 -6.451414798103228 -9.981292222652995 0 0 1
955 285 4 0 -9.618153727221067 -8.79175907109897 -9.14101563465727 0 1 0
2056 652 4 0 -9.84708794712782 -8.573371610549646 -8.89269311054058 1 0 1
288 63 4 0 -4.721407706200537 -8.927246977381587 -9.7100818544448 0 0 1
1510 470 4 0 -4.645816438262328 -8.56571037583495 -9.601956768672819 0 1 1
1508 470 2 0 -4.329048191065754 -8.281059814799994 -9.448477724411354 0 1 1
1509 470 4 0 -4.032015683493207 -7.995992267842079 -9.29409559988766 0 1 1
2658 853 4 0 -3.9681333063951874 -7.818705099147533 -8.943251288221392 0 0 1
2657 853 2 0 -3.62843194312802 -7.559264223429133 -9.004727513899118 0 0 1
1234 378 4 0 -0.7198759992421179 -10.344647545306803 -2.9229008543271813 0 1 0
2724 875 4 0 -1.8353060665038334 -7.636185486682962 -10.169741414142853 0 1 1
1316 406 2 0 -1.4589108342960773 -8.282902311611545 -10.343115098551937 0 0 0
1317 406 4 0 -1.6582149273911484 -7.962132913814886 -10.081689066201692 0 0 0
718 206 4 0 -4.845299569019923 -6.34139955905553 -9.444885350302226 0 0 1
3015 972 4 0 -5.042640542437363 -6.291403914432874 -9.781964616854234 0 0 1
716 206 2 0 -4.64159654992329 -6.458608611192875 -9.060714737068079 0 0 1
3014 972 2 0 -5.113347571324652 -5.901927463117363 -9.975397167532623 0 0 1
2659 853 4 0 -3.2666346117831333 -7.281462671062301 -9.079912116471334 0 0 1
846 249 4 0 -3.036113495971216 -6.980298392136246 -8.962776753493893 0 0 1
202 41 3 0 -1.7385119100578195 -6.416422869691405 -9.92093056437157 0 1 1
2723 875 2 0 -1.753787412690278 -7.214709263746189 -10.03525949739205 0 1 1
2725 875 4 0 -1.6695221922911392 -6.782270436960718 -9.896292841749382 0 1 1
930 277 4 0 -0.7540323696063492 -5.9587945776435784 -9.880322017567192 0 0 1
929 277 2 0 -0.36664225667678835 -6.214420788161647 -9.932543516342557 0 0 1
1307 403 2 0 -6.09250767335118 -4.643081510627093 -10.263481316396042 0 0 1
1308 403 4 0 -6.44925689680595 -4.786578626589164 -10.110697190239641 0 0 1
3016 972 4 0 -5.184885283543741 -5.499557762423464 -10.179134951206464 0 0 1
32 7 3 0 -4.786216397131976 -4.610544739349061 -10.158210830239131 0 0 1
2601 834 4 0 -3.1389815833418844 -10.320067816608493 -5.432500556127217 1 0 0
201 41 1 0 -1.555074645688608 -6.013238228780739 -10.004160399148528 0 1 1
203 41 3 0 -1.7823231800807198 -5.6833096958213645 -9.789666028165339 0 1 1
1227 376 4 0 -1.58890525375226 -5.445315533423637 -9.5449267956727 0 0 0
1226 376 2 0 -1.7338526192364305 -5.280582598252952 -9.147588080636481 0 0 0
204 41 3 0 -1.1351557815532247 -6.028849334491483 -9.851974231498962 0 1 1
2202 701 4 0 -4.670894275501102 -4.230420323383781 -10.147267434303398 0 0 1
2201 701 2 0 -4.372278918138158 -4.0932989187528035 -9.820664191672336 0 0 1
2203 701 4 0 -4.086698416902272 -3.96319908441397 -9.500121169385771 0 0 1
2109 670 4 0 -4.248327259815577 -3.858907001413498 -9.148603206917205 0 0 1
1487 463 2 0 -2.9151721314966963 -3.139273257135737 -9.165779480173917 0 0 1
603 168 4 0 -1.694578694398751 -3.942204933622831 -9.889430738966503 0 0 1
602 168 2 0 -2.052195723319245 -3.6689954328698957 -9.740290967714426 0 0 1
604 168 4 0 -2.375894397388664 -3.423698537123196 -9.608285786549306 0 0 1
1489 463 4 0 -2.5667020649662557 -3.404923031723706 -9.288077272762013 0 0 1
1923 608 4 0 -1.498264155196706 -4.275709224362608 -9.815896966148573 0 0 0
1922 608 2 0 -1.039372555283318 -4.174947767121253 -9.763819868407802 0 0 0
1924 608 4 0 -0.5985578763577525 -4.092137062502859 -9.71539309366277 0 0 0
1375 425 4 0 -0.501454444832062 -3.8340915503882744 -9.992959663895427 0 0 1
1373 425 2 0 -0.08823255237142305 -3.6143909443992683 -10.071819474684704 0 0 1
801 234 4 0 -9.360962012654602 -0.9001449948683607 -9.754294901336936 0 0 1
800 234 2 0 -9.63375368285616 -0.9634819206365635 -9.385621497323617 0 0 1
1645 515 4 0 -9.430458552212853 -0.7786310139727085 -10.129788243867646 0 0 1
80 16 3 0 -5.285478818150469 -0.11512227015100943 -4.421979061279233 0 0 0
2059 653 4 0 -3.0902547977530217 -0.5625635013086607 -10.131818943632233 0 -1 1
2057 653 2 0 -3.525234400344918 -0.5300895494818466 -10.250349378890379 0 -1 1
2839 913 4 0 -2.864274697903704 -0.43977716530929684 -9.831180707676744 0 0 1
2837 913 2 0 -2.7383157508745684 -0.5349475429275431 -9.40940964173983 0 0 1
2838 913 4 0 -2.616375610678225 -0.6281444309927272 -8.985600548987163 0 0 1
1313 405 2 0 -5.1691865966016906 -10.323602535229345 -7.704154296881078 0 0 1
1315 405 4 0 -4.968864384666693 -9.952585820513551 -7.558191445862148 0 0 1
2 1 3 0 -4.985014718896394 -9.641543195278734 -7.789539315402684 0 0 1
1 1 1 0 -4.669002054539429 -9.323910799665834 -7.7507284270018 0 0 1
4 1 3 0 -4.529538880402138 -9.207553606259133 -8.182476806186148 0 0 1
915 272 4 0 -4.625629743759809 -9.365758336982493 -8.533363144889261 0 0 1
914 272 2 0 -4.485380416512551 -9.6036157116696 -8.899748949196045 0 0 1
3 1 3 0 -4.306813095891964 -9.50029552097522 -7.516005510383587 0 0 1
2055 652 4 0 -10.134789740132486 -7.749788974198628 -8.642630827317413 1 0 1
2054 652 2 0 -9.979788195317152 -8.179089815305709 -8.776887284269236 1 0 1
5 1 3 0 -4.8488886392701085 -8.934864302833534 -7.514554160703053 0 0 1
681 194 4 0 -4.764985598832335 -8.576117515883904 -7.675818978250204 -1 0 1
680 194 2 0 -4.484666098429794 -8.247092709350271 -7.764279322920019 -1 0 1
682 194 4 0 -4.2005495625268106 -7.898946341389687 -7.859706015242813 -1 0 1
1647 516 4 0 -4.21747606328395 -7.60310909062441 -8.119982341646095 0 0 1
976 292 4 0 -1.264706253683496 -7.507890442631038 -7.799043290890219 1 1 0
974 292 2 0 -1.204399293122154 -7.942970330753839 -7.738594225696433 1 1 0
975 292 4 0 -1.1533319543698226 -8.38522346926837 -7.669705340222878 1 1 0
1648 516 4 0 -4.623396370713567 -6.847849649617758 -8.462419593312347 0 0 1
717 206 4 0 -4.442128592815356 -6.571255028596514 -8.676826321728447 0 0 1
1646 516 2 0 -4.420400730477778 -7.222807311134964 -8.290664004342212 0 0 1
1387 429 4 0 -1.2932119498669092 -7.1494484442434425 -7.980549976854305 0 1 1
845 249 2 0 -2.629419027965083 -6.8758895605440316 -8.892291920039737 0 0 1
847 249 4 0 -2.2202627377715958 -6.765976698439338 -8.810170162392962 0 0 1
1386 429 4 0 -2.002197282985496 -6.83866589287573 -8.492432509808959 0 1 1
1385 429 2 0 -1.64789015593099 -6.998728196638418 -8.243641687783315 0 1 1
1709 537 2 0 -3.9776732617227957 -4.535386154009745 -7.73907528538049 0 0 0
1710 537 4 0 -3.7253745512046557 -4.818864211574993 -7.489851709795856 0 0 0
2401 767 4 0 -3.5290492755083465 -5.143193400377597 -7.31699053443388 1 0 1
2399 767 2 0 -3.301449852941081 -5.400636067904288 -7.6015882660733025 1 0 1
1777 559 4 0 -2.70346391825027 -5.518298469451105 -7.922930116390358 0 0 0
1776 559 4 0 -2.220686057119589 -5.286763139869554 -8.683482531088114 0 0 0
1228 376 4 0 -1.885324008921259 -5.1053214249098575 -8.760265835938778 0 0 0
1775 559 2 0 -2.465784943900925 -5.403123079026496 -8.29925896591885 0 0 0
2400 767 4 0 -3.0665851902422783 -5.673393560492641 -7.884966622369406 1 0 1
557 153 2 0 -0.6101206956654662 -4.591659718612086 -7.786881208109095 0 0 0
1488 463 4 0 -3.238958064153357 -2.8911417465819165 -9.053699279280407 0 0 1
1711 537 4 0 -4.212725969901374 -4.2699294065779965 -7.974079279280839 0 0 0
2110 670 4 0 -4.1256947673083175 -4.0292727956986285 -8.296199723626623 0 0 1
2108 670 2 0 -4.189722060631238 -3.9425887045717136 -8.71667405946704 0 0 1
543 148 4 0 -3.435047395087846 -2.853281759898452 -8.723971664519146 0 -1 1
559 153 4 0 -0.6239601793952492 -4.5706150600455135 -8.208255293185202 0 0 0
2938 946 4 0 -0.4850377005738042 -4.403131261985227 -8.545508521473465 0 0 1
2937 946 4 0 -0.232112770379972 -3.5729977656524268 -8.75553090257775 0 0 1
2936 946 2 0 -0.35612951935538306 -3.97668645074102 -8.65773381441404 0 0 1
401 101 2 0 -4.462047484136609 -1.6532236927156514 -8.751850088086037 0 0 0
403 101 4 0 -4.383291595244841 -2.0988958638118924 -8.655110758043357 0 0 0
542 148 2 0 -3.8144741369124744 -2.619607939442484 -8.776146480673335 0 -1 1
544 148 4 0 -4.205032676590849 -2.3770307310273453 -8.826392527336717 0 -1 1
802 234 4 0 -9.914470957483775 -1.032477782028061 -9.009928644531104 0 0 1
1057 319 4 0 -6.077657900844616 -1.1091502075110744 -7.858663497178553 0 1 0
1055 319 2 0 -6.356230431908485 -1.4166138781748474 -7.644828259029288 0 1 0
541 147 4 0 -5.815639200521594 -0.8356777303687688 -7.700906189670189 0 0 0
539 147 2 0 -5.420790084785284 -0.6472929254136249 -7.944531711676026 0 0 0
540 147 4 0 -5.0655684939337275 -0.46353625086234507 -8.169105915453144 0 0 0
112 23 3 0 -4.706748400345747 -0.418589136857145 -8.34235940923406 0 0 0
113 23 3 0 -4.3303042495153194 -1.0327564221123804 -8.582500859225853 0 0 0
402 101 4 0 -4.540196130928927 -1.2626307999036996 -8.840848610525853 0 0 0
2171 691 2 0 -3.849437830083776 -1.2403935559889785 -0.10386676086247972 1 -1 -1
111 23 1 0 -4.288358575981663 -0.5924822423039583 -8.401353944048978 0 0 0
114 23 3 0 -4.06083971836894 -0.33713024867490576 -8.68139180747991 0 0 0
115 23 3 0 -4.059235532280872 -0.6162358698374656 -7.986548852723105 0 0 0
1939 613 4 0 -4.247517173116137 -0.663660415077213 -7.659461119967648 0 0 0
1917 606 4 0 -2.3915609189352827 -0.8880895379943264 -8.756751675493824 0 0 0
1916 606 2 0 -2.1430942077676534 -0.923623674640598 -8.390522436971366 0 0 0
1918 606 4 0 -1.8830218948028514 -0.9601672193943019 -8.01043280061528 0 0 0
580 160 4 0 -1.9126190483438805 -0.889920091515783 -7.605300793899295 -1 0 0
578 160 2 0 -1.6234647192176461 -0.5790996149521002 -7.4201486627880096 -1 0 0
2922 941 4 0 -4.398489799371257 -9.621171989988678 -7.154926393024106 0 1 1
2921 941 2 0 -4.395321562665735 -9.776721552360275 -6.731651658861335 0 1 1
2923 941 4 0 -4.374000121117 -9.924922830987304 -6.318881933674332 0 1 1
2103 668 4 0 -4.102047121869091 -9.88502996937219 -6.017746898925934 1 0 0
2270 724 2 0 -0.7775096450936438 -10.225826327872946 -7.05901169288556 1 0 0
2271 724 4 0 -1.0551145716571355 -9.915210801931812 -6.89268190262836 1 0 0
2482 794 4 0 -1.0513936769424252 -9.549777029937912 -7.060107797173827 1 1 1
2480 794 2 0 -1.0634471544694393 -9.143586276005433 -7.26714877860165 1 1 1
2481 794 4 0 -1.0702026304661691 -8.73744806508649 -7.49984492930104 1 1 1
558 153 4 0 -0.5976409486998872 -4.624342141570645 -7.327190575153049 0 0 0
2959 953 4 0 -0.9485876796225768 -4.625525938040178 -7.096477989223728 0 0 1
2957 953 2 0 -1.133578403485591 -4.739592438514542 -6.68040470308459 0 0 1
2958 953 4 0 -1.3158340348322297 -4.846243220025621 -6.287248999009253 0 0 1
532 144 4 0 -6.062180884489005 -2.838508211887491 -6.681312312362004 0 0 0
1699 533 4 0 -4.982512206924622 -3.5813808328665244 -6.614470039502275 1 0 0
530 144 2 0 -5.6994387768315375 -3.1009059375486068 -6.643827386852978 0 0 0
531 144 4 0 -5.3295258855785175 -3.3734782803983356 -6.609013953338143 0 0 0
1697 533 2 0 -4.661778268048936 -3.3752616900369943 -6.8360142668101505 1 0 0
1047 316 4 0 -3.97570485686838 -3.0567239425357533 -7.1577659150269435 0 0 1
1698 533 4 0 -4.3410469423000695 -3.177677613762223 -7.057690306464791 1 0 0
1731 544 4 0 -1.5279446510395989 -4.776929251564727 -5.945911197466151 0 0 0
748 216 4 0 -6.243424091503579 -2.485491886050122 -6.566395424076313 0 0 1
1056 319 4 0 -6.6195486379284585 -1.7238530423165896 -7.4378549897336 0 1 0
747 216 4 0 -6.424466331585256 -1.7994090478429252 -7.094142185401726 0 0 1
746 216 2 0 -6.336947859996932 -2.1516156063699783 -6.831743219218133 0 0 1
1046 316 2 0 -3.766713177216161 -2.7058730423780077 -6.9079264598944 0 0 1
1048 316 4 0 -3.5599056715080843 -2.3878194160550295 -6.670045861442834 0 0 1
591 164 4 0 -3.6113179981699832 -2.0202778182372088 -6.497167408306967 0 0 0
590 164 2 0 -3.6265427511777695 -1.5931559440833412 -6.639476909894533 0 0 0
1937 613 2 0 -4.0897254175124855 -0.7781586756273986 -7.284087800208665 0 0 0
592 164 4 0 -3.6384938715075656 -1.1565357880182725 -6.784284052240611 0 0 0
1938 613 4 0 -3.9276564187647236 -0.894836488288251 -6.88585183281917 0 0 0
579 160 4 0 -1.3236330833285908 -0.28801626052459484 -7.240761612054824 -1 0 0
2104 668 4 0 -3.503393879461283 -10.363660423455187 -5.579587621372313 1 0 0
2102 668 2 0 -3.8016939787568638 -10.128962659776606 -5.796475727346013 1 0 0
1761 554 4 0 -9.88944790842031 -5.625182505419951 -4.309293570368397 1 0 0
1760 554 2 0 -9.768065386022956 -5.227619587841938 -4.467769158713939 1 0 0
3094 998 4 0 -6.979670143232148 -3.6329813469885113 -5.236119740402883 0 1 1
2188 696 4 0 -7.085226717390612 -3.2469629383736254 -5.3199808143697 0 0 1
3092 998 2 0 -6.712321828442243 -3.809011614288813 -4.937042054882529 0 1 1
3093 998 4 0 -6.43651132322583 -3.993428806208188 -4.62764424581173 0 1 1
2621 841 2 0 -1.5731054516907836 -3.252232158333788 -5.117604988101967 1 0 0
1730 544 2 0 -1.4926100238492168 -4.407945778599809 -5.692216459355312 0 0 0
1732 544 4 0 -1.4742944781551486 -4.047748067037383 -5.451251351634787 0 0 0
2622 841 4 0 -1.5260662326476178 -3.686064778216652 -5.271535347231575 1 0 0
552 151 4 0 -9.908025506196138 -2.5153034876322264 -4.849281963887918 0 0 0
551 151 2 0 -10.233725679670025 -2.5750261914193744 -4.535383682906852 0 0 0
2775 892 4 0 -9.425816279651855 -2.3691550953665197 -4.451003250413623 1 0 0
841 247 4 0 -10.014565939486854 -2.4526604514676387 -5.22855331129306 0 0 1
839 247 2 0 -10.173480122147028 -2.2626783666940935 -5.609506346587993 0 0 1
2186 696 2 0 -7.282071040697591 -2.8808668963061512 -5.185538943159156 0 0 1
2187 696 4 0 -7.479570084131483 -2.5116049732971946 -5.040794218231275 0 0 1
1006 302 4 0 -7.222657636899108 -2.2104281309739515 -4.998567487128591 0 1 1
1004 302 2 0 -6.992725330669304 -1.8660877436070846 -4.879911011783344 0 1 1
1005 302 4 0 -6.739135019546553 -1.4975408988862835 -4.754869835247632 0 1 1
1560 487 4 0 -2.887608190538938 -1.7751466396507964 -5.101038433582179 0 1 1
1641 514 4 0 -2.6490061214672567 -2.0889284340643286 -5.203689250238368 0 1 1
1640 514 2 0 -2.2480345035345874 -2.3017227659087687 -5.082296203096478 0 1 1
1642 514 4 0 -1.8569946511078126 -2.5052299005753773 -4.980363262589523 0 1 1
2623 841 4 0 -1.6104973647481828 -2.8385228479861513 -4.967357520187504 1 0 0
2830 910 4 0 -6.523134887289175 -1.2310337413721812 -4.938928250220485 1 0 0
2828 910 2 0 -6.175318106334814 -0.9795318889278551 -5.03788221548866 1 0 0
325 75 4 0 -4.945855162341999 -0.05323040447663748 -5.443257327068891 -1 0 1
78 16 3 0 -4.929548080595901 -0.2098947539394527 -5.071684141225113 0 0 0
76 16 1 0 -5.179914797654824 -0.41380652409044644 -4.716256593610267 0 0 0
77 16 3 0 -4.934184505011208 -0.7400362849232233 -4.517184013932232 0 0 0
79 16 3 0 -5.562277079613468 -0.5963975946071434 -4.884552291387144 0 0 0
2829 910 4 0 -5.828595752261727 -0.724317945903239 -5.153351472243757 1 0 0
1559 487 2 0 -3.2289799179158747 -1.4394146195176187 -5.1146589019025965 0 1 1
2015 639 2 0 -3.4237963316368565 -0.3113064552816677 -5.154428015624815 0 0 0
1561 487 4 0 -3.530109801552857 -1.141278247427321 -5.125405199115456 0 1 1
2016 639 4 0 -3.564459432081079 -0.7479491396161708 -5.163018492908913 0 0 0
2172 691 4 0 -3.75534211272593 -1.4302139380017418 -0.4796563228666519 1 -1 -1
836 246 2 0 -1.6944859261355427 -0.0030339942417443185 -5.035490616068259 0 0 0
837 246 4 0 -1.4766979668357723 -0.3474716452436009 -4.888728234456742 0 0 0
317 73 2 0 -8.814536173825873 -10.36314093609776 -3.304721904605256 0 0 0
399 100 4 0 -7.776469151982861 -10.109674907495846 -3.0699132834447984 0 0 0
2184 695 4 0 -2.9462978800986956 -9.274724366472551 -3.536559147775336 0 0 0
2183 695 2 0 -2.660679750242888 -9.056926458242016 -3.8258480714921768 0 0 0
2185 695 4 0 -2.391850522572584 -8.84818034643352 -4.107477741966716 0 0 0
448 116 4 0 -2.372126713025191 -8.554991495206453 -4.378346751513255 0 0 0
446 116 2 0 -1.94791387201834 -8.385538968791913 -4.3305403053494125 0 0 0
447 116 4 0 -1.5413595965226021 -8.217860887826452 -4.276509952137109 0 0 0
799 233 4 0 -1.2958857080448218 -8.299638660352253 -3.940681214023926 0 0 0
797 233 2 0 -1.1741217610059813 -8.29458728465711 -3.48131463188697 0 0 0
798 233 4 0 -1.0671690346202969 -8.290346862679456 -3.048501714772551 0 0 0
2263 721 4 0 -6.320722611102787 -6.4647970275643125 -3.457349550279383 0 0 0
2261 721 2 0 -6.482192726995002 -6.827636405452813 -3.2225283181276363 0 0 0
806 236 2 0 -5.041894184090126 -6.507807889779493 -3.1509086360070833 0 1 0
807 236 4 0 -5.1062461307376825 -6.136013297806982 -3.4050761974858252 0 1 0
2597 833 2 0 -2.7162209035415255 -6.234813374750294 -3.871425509350679 1 0 0
332 78 2 0 -2.169649773103403 -6.960925646669129 -3.0287535550247084 0 0 -1
2599 833 4 0 -2.5449906744881163 -6.589575464764651 -3.632251114883591 1 0 0
334 78 4 0 -2.303795558695801 -6.824911976809829 -3.414736044979806 0 0 -1
1762 554 4 0 -9.64218119461223 -4.816458242143864 -4.625780826014942 1 0 0
1263 388 4 0 -9.296446716371477 -4.72833461386238 -4.442184455436834 0 0 0
2882 928 2 0 -6.059801082133958 -4.603037413498998 -4.511484765593166 1 1 0
2883 928 4 0 -6.002202507319707 -5.0318041035133945 -4.305920695430145 1 1 0
1246 382 4 0 -5.194307872373927 -5.809041759083649 -3.610590514732047 0 1 0
1245 382 4 0 -5.767939651087321 -5.326572383602058 -4.146900335327593 0 1 0
1244 382 2 0 -5.4841106755502835 -5.5746499303013 -3.87552285341583 0 1 0
2639 847 2 0 -4.3514667224578885 -4.626266049933672 -3.384942888707959 0 1 0
2641 847 4 0 -4.068634108335344 -4.864357287338948 -3.666992745937107 0 1 0
1990 630 4 0 -3.0300189867881464 -5.51180459730811 -4.092241813734871 1 0 0
1988 630 2 0 -3.404805075205015 -5.301546592561658 -3.9073933397858602 1 0 0
1989 630 4 0 -3.7595918043909067 -5.106885823028315 -3.7265680269667985 1 0 0
2598 833 4 0 -2.8783830696387547 -5.899691309933569 -4.117216700679487 1 0 0
1077 326 4 0 -1.3230430932727768 -4.7179848354921985 -3.1489391431925093 0 1 0
2497 799 4 0 -0.9413526807781416 -4.6355109338958655 -3.2570996225431257 0 1 0
2926 942 4 0 -0.3595523228231627 -5.481460307391759 -4.081149626702859 0 0 0
2496 799 4 0 -0.540912051126653 -5.212436768617163 -3.820591654355035 0 1 0
2495 799 2 0 -0.7370361991291119 -4.932985442706894 -3.5510487077660233 0 1 0
1262 388 2 0 -9.238046299671602 -4.290167957907037 -4.32848313004159 0 0 0
1264 388 4 0 -9.169175748165385 -3.8581003622761814 -4.213343288993725 0 0 0
672 191 4 0 -9.041347092014437 -3.521906937274341 -4.034780601860222 0 0 0
671 191 2 0 -9.126062244745471 -3.080827370478698 -4.1124934305069765 0 0 0
2884 928 4 0 -6.115791447699052 -4.184119443803574 -4.719089491823517 1 1 0
2640 847 4 0 -4.626822087535858 -4.393161522884048 -3.107748742801734 0 1 0
663 188 4 0 -4.910399828582903 -4.083483538492863 -2.9964593854660797 0 0 0
2365 755 4 0 -3.5168614346776566 -3.738597304747887 -3.276542481055515 1 -1 0
2808 903 4 0 -3.133217684641446 -3.6777695148308536 -3.2051269262756836 0 -1 1
2363 755 2 0 -3.6508319168418675 -3.324916005008341 -3.4290246261956874 1 -1 0
2807 903 2 0 -2.7525241706221153 -3.9243578636757017 -3.1025971867855096 0 -1 1
1812 571 4 0 -1.424427717398901 -0.8196119684647026 -1.248392156240277 1 0 0
2774 892 2 0 -9.185616543320577 -2.0012803529117793 -4.5207230340822155 1 0 0
673 191 4 0 -9.21486524210455 -2.645164714227617 -4.192643116916759 0 0 0
2776 892 4 0 -8.942952457361248 -1.6338432036832236 -4.586151920589522 1 0 0
2118 673 4 0 -1.6987165197456124 -1.0753889966325227 -1.1558860594248002 1 0 0
1675 525 4 0 -8.634289512039736 -1.4161606291838498 -4.454258152603406 0 0 0
750 217 4 0 -7.58555955622598 -2.0127906882862625 -2.780039000928502 0 0 1
749 217 2 0 -7.10205751201424 -2.021392545094797 -2.89373825555783 0 0 1
751 217 4 0 -6.646310072990095 -2.03307366697504 -3.0036304255643445 0 0 1
606 169 4 0 -6.521659544634582 -1.7922626682338896 -3.292291457918977 0 0 0
605 169 2 0 -6.083913061224413 -1.8139753664726066 -3.2715554025817553 0 0 0
1218 373 4 0 -4.373817070448906 -1.6228341341230064 -3.941041436306011 0 0 0
607 169 4 0 -5.629096860715257 -1.8495357726749717 -3.250449810134974 0 0 0
2338 746 4 0 -4.533235855921351 -1.939183721381166 -3.728300371210978 1 0 1
2364 755 4 0 -3.7857702073626736 -2.90876594168479 -3.580987380713936 1 -1 0
2336 746 2 0 -4.237181726115302 -2.239847121009724 -3.633376558943898 1 0 1
2337 746 4 0 -3.9388959937612182 -2.5559032512105944 -3.5256612230150965 1 0 1
453 118 4 0 -0.6861463169628399 -1.7155824161299507 -3.204694659965658 0 0 0
1849 583 4 0 -6.096351341497612 -1.3454259651856018 -0.8201729113167898 0 0 -1
1674 525 4 0 -7.901317550991635 -1.1370544919915382 -3.9499829150905934 0 0 0
1673 525 2 0 -8.259356468886303 -1.2738221406062238 -4.199909472586141 0 0 0
1725 542 4 0 -7.836641581470413 -1.0356920019755604 -3.5678120527396477 1 0 0
1724 542 2 0 -7.654244487655208 -0.7152937902225789 -3.295677191675423 1 0 0
1726 542 4 0 -7.473847404469627 -0.38583714265868413 -3.0223909692735913 1 0 0
1219 373 4 0 -4.813395027544802 -0.9678324492191701 -4.218849198053834 0 0 0
1217 373 2 0 -4.5905341050949104 -1.2958132502601043 -4.077869749888612 0 0 0
772 224 4 0 -3.2938531568807186 -1.2716477055510271 -3.052378574427189 0 0 0
1087 329 4 0 -0.8201076764573205 -1.3623878952198438 -3.0546843730787194 0 0 0
351 84 4 0 -9.259410963150144 -9.169159798897676 -1.6471667745758425 0 0 0
1677 526 4 0 -9.223190163117412 -9.41269256307356 -1.972375445671938 -1 0 0
1676 526 2 0 -9.113786754939017 -9.66962731100359 -2.34086676950242 -1 0 0
1678 526 4 0 -9.019107570205948 -9.920232485290153 -2.682313563548219 -1 0 0
318 73 4 0 -8.938096352748191 -10.021881634896964 -3.058961770819894 0 0 0
398 100 2 0 -7.738545494808199 -9.722193440753346 -2.867357920564111 0 0 0
400 100 4 0 -7.712364057247308 -9.294651194798053 -2.6598212173522917 0 0 0
411 104 4 0 -7.920625673508245 -9.021223282325412 -2.4331372723563374 0 0 0
2344 748 4 0 -0.6571768813934963 -9.929843786879028 -1.744482269724297 0 0 0
1232 378 2 0 -0.6217209778135991 -10.14960203060173 -2.533448875071551 0 1 0
1233 378 4 0 -0.5163865815371784 -9.945745225774598 -2.117827341620143 0 1 0
410 104 2 0 -7.943185992427135 -8.579404926328989 -2.5155005016357443 0 0 0
412 104 4 0 -7.963255838061081 -8.143748864249062 -2.5947897703394593 0 0 0
2034 645 4 0 -7.634714977711561 -7.94424413033038 -2.7861903144824973 0 0 0
2033 645 2 0 -7.277391322838478 -7.666284836106223 -2.764653070747646 0 0 0
2288 730 2 0 -3.4012124361750464 -7.844143553647064 -1.674931221054697 0 0 0
2289 730 4 0 -2.956756166648329 -7.885595255589503 -1.7342200528542508 0 0 0
1854 585 4 0 -2.573826597499992 -7.93725072483692 -1.8301927755354295 0 0 0
1855 585 4 0 -2.120093416922266 -7.378583595655124 -2.3767975329284368 0 0 0
1853 585 2 0 -2.350494923189308 -7.658819497242025 -2.1018740063637464 0 0 0
1780 560 4 0 -0.793850948677966 -8.040178807067008 -2.931787917424735 0 0 0
1778 560 2 0 -0.7446208542845999 -7.876199923057104 -2.500640887048908 0 0 0
2454 785 4 0 -1.040362564677809 -7.553356215902669 -1.9308631416677393 0 1 -1
1779 560 4 0 -0.7045681339731795 -7.722710610632382 -2.089958795185095 0 0 0
374 92 2 0 -9.9170227323538 -6.144850695397856 -2.6164983208688533 0 0 0
375 92 4 0 -10.324374039458014 -6.355955217570105 -2.512527945784053 0 0 0
2117 673 2 0 -2.1395438386162806 -1.2177158006954185 -1.1650648145176308 1 0 0
2262 721 4 0 -6.6606679568215625 -7.189916980204365 -2.991887677828384 0 0 0
2035 645 4 0 -6.922905830797539 -7.3816983679554635 -2.74406550149963 0 0 0
808 236 4 0 -4.985295308513749 -6.859511848691047 -2.902344973474748 0 1 0
2589 830 4 0 -4.798163389647689 -7.192699626520198 -2.7416498855301636 1 1 0
2588 830 2 0 -4.882792937162662 -7.239717097794303 -2.302141694284162 1 1 0
2590 830 4 0 -4.9761686826819655 -7.282476601334405 -1.8299081593405184 1 1 0
17 4 3 0 -4.687141747885095 -7.113453036089725 -1.6118755316451112 0 0 0
20 4 3 0 -4.101865052763528 -6.70806241209199 -1.4565636769530903 0 0 0
333 78 4 0 -2.036677569385257 -7.1000015676528845 -2.6396277744368426 0 0 -1
376 92 4 0 -9.516833263231403 -5.942867442736992 -2.7197537528716538 0 0 0
2761 887 4 0 -9.529584076433398 -5.578034576068684 -2.5230370243045677 1 0 0
2759 887 2 0 -9.212534998861177 -5.326392195990218 -2.306870743128589 1 0 0
2760 887 4 0 -8.888694795133942 -5.079226246751095 -2.0785495181363784 1 0 0
1470 457 4 0 -8.944149679337793 -4.705422879164731 -2.1913791089118955 0 1 0
1076 326 2 0 -1.7388270770450742 -4.58801637842577 -3.0202862497659773 0 1 0
1078 326 4 0 -2.150096335772292 -4.478703813562356 -2.8784568128364483 0 1 0
2666 856 2 0 -9.89261660619532 -3.6122431915694473 -2.2876608562354175 1 0 0
2668 856 4 0 -9.62032015562347 -3.3076168855395824 -2.4613192255461795 1 0 0
570 157 4 0 -9.560678634981256 -2.9449738385245747 -2.364222084850958 0 0 -1
2119 673 4 0 -2.5762946547060643 -1.3517884397111142 -1.1724167485073107 1 0 0
2667 856 4 0 -10.160937845669054 -3.911881971434971 -2.1251536830286586 1 0 0
1469 457 2 0 -8.794821756057441 -4.337193462227449 -1.9780404991495066 0 1 0
1471 457 4 0 -8.658515801825862 -3.9635380437899124 -1.760823031309654 0 1 0
662 188 2 0 -5.188024602994729 -4.062322827397522 -2.668782733682646 0 0 0
664 188 4 0 -5.455122610567273 -4.031284172914313 -2.347185730207469 0 0 0
43 9 3 0 -5.54693753730621 -3.711406606229689 -2.1266070357306908 0 0 0
41 9 1 0 -5.489319140309742 -3.6820685855669386 -1.6785307414229798 0 0 0
44 9 3 0 -5.437632087584196 -3.2446485259469497 -1.5717077655938552 0 0 0
45 9 3 0 -5.1389720668168435 -3.9182064794220284 -1.5616376050851 0 0 0
2395 765 4 0 -3.5923699907926183 -3.3239740151916832 -1.7628132499821205 0 0 0
2465 789 2 0 -4.326650379354086 -3.655526947494375 -1.572498886141227 1 1 0
2467 789 4 0 -3.882036892109134 -3.5507949786117625 -1.57523134686782 1 1 0
2809 903 4 0 -2.373634268133537 -4.1687120246771805 -3.0012182118875574 0 -1 1
852 251 4 0 -1.1526465727689397 -3.54556957232067 -1.5538851123324173 0 0 0
485 129 2 0 -1.0766858526112573 -2.9720904525516287 -2.111283527065681 0 0 0
487 129 4 0 -1.2448710551205713 -3.1990124604264953 -1.7596269816650667 0 0 0
569 157 2 0 -9.148048050127725 -2.832437069971589 -2.445030545074076 0 0 -1
711 204 4 0 -7.851844850297027 -2.286241458269898 -2.9493998061132687 -1 0 1
710 204 2 0 -8.169795884321202 -2.6091711440104888 -2.8630487124973336 -1 0 1
712 204 4 0 -8.496567519831256 -2.9344160851168337 -2.7764251168526073 -1 0 1
571 157 4 0 -8.726206239340334 -2.716999428524202 -2.519495943111496 0 0 -1
253 51 4 0 -4.7803567871904855 -1.8183646764457704 -2.428547931790455 0 0 0
251 51 2 0 -4.99338290487252 -1.841702372991485 -2.8175530971080107 0 0 0
252 51 4 0 -5.222356607941575 -1.8640491940412207 -3.211431334722564 0 0 0
1773 558 4 0 -4.737606409809525 -1.8603742203997466 -2.0307729104282273 0 0 0
1772 558 2 0 -4.727661421267167 -2.0571271922100083 -1.600747867570539 0 0 0
2393 765 2 0 -3.5838864362643883 -2.9887009212554085 -2.0896496527721644 0 0 0
1400 434 2 0 -3.441189152028241 -2.0059594824108875 -2.8964299441176276 0 0 0
1402 434 4 0 -3.5272310481442557 -2.35149112017737 -2.6468718996094545 0 0 0
2394 765 4 0 -3.581429725029398 -2.651573377528777 -2.4203409326281053 0 0 0
1401 434 4 0 -3.3562814868456905 -1.654396697081738 -3.1304736692457853 0 0 0
486 129 4 0 -0.9135565909242458 -2.7441129817203693 -2.464895024710375 0 0 0
454 118 4 0 -0.8085693419026132 -2.4874485202871486 -2.782142418461776 0 0 0
452 118 2 0 -0.7513582471305452 -2.1077576660109703 -2.9898099849155533 0 0 0
2897 933 2 0 -6.271957140149284 -0.5234877155203385 -0.8128011651630951 0 1 0
1804 568 4 0 -7.225135186504842 -0.4973861251576556 -2.7272469695398898 1 -1 0
1802 568 2 0 -6.9817396965499325 -0.2342265726398499 -2.466371318703205 1 -1 0
771 224 4 0 -3.6857779238696904 -0.48785151557689077 -2.9289378317190176 0 0 0
770 224 2 0 -3.4810838692222923 -0.8979514772784697 -2.999457118180965 0 0 0
2703 868 4 0 -3.6222722663521116 -0.14441118009374276 -2.762558881094168 0 -1 0
1811 571 2 0 -1.2552034000560248 -0.8499818553508561 -1.685519847928112 1 0 0
1085 329 2 0 -0.9789398722331145 -1.0451406116002653 -2.7564947855139272 0 0 0
1086 329 4 0 -1.130670524714288 -0.7312783701640538 -2.4559903722744103 0 0 0
1813 571 4 0 -1.0952829509126822 -0.8879764730579859 -2.096374793623132 1 0 0
352 84 4 0 -9.537034245821435 -9.41559453661062 -0.8314590978372107 0 0 0
350 84 2 0 -9.39751951465408 -9.295104858731682 -1.2390573583288833 0 0 0
2493 798 4 0 -9.691840571517792 -9.395871345552631 -0.47984180029215806 0 1 0
2492 798 2 0 -9.649368489472552 -9.45752193856428 -0.04912418262229323 0 1 0